       N       E                     dE             d eps       ncg     rms          rms(c)
DAV:   1     0.826723008875E+04    0.82672E+04   -0.33281E+05 31616   0.166E+03
DAV:   2     0.602371545839E+03   -0.76649E+04   -0.71276E+04 31296   0.497E+02
DAV:   3    -0.432112813282E+03   -0.10345E+04   -0.10120E+04 32544   0.193E+02
DAV:   4    -0.479967684873E+03   -0.47855E+02   -0.47289E+02 39280   0.378E+01
DAV:   5    -0.482010045145E+03   -0.20424E+01   -0.20111E+01 49680   0.628E+00    0.735E+01
DAV:   6    -0.439394267722E+03    0.42616E+02   -0.37391E+02 35392   0.399E+01    0.636E+01
DAV:   7    -0.437496308314E+03    0.18980E+01   -0.40651E+01 33168   0.173E+01    0.429E+01
DAV:   8    -0.439109072698E+03   -0.16128E+01   -0.65846E+00 38896   0.727E+00    0.280E+01
DAV:   9    -0.442439353241E+03   -0.33303E+01   -0.89951E+00 35936   0.687E+00    0.200E+01
DAV:  10    -0.443022984837E+03   -0.58363E+00   -0.51593E+00 34960   0.536E+00    0.899E+00
DAV:  11    -0.442998103205E+03    0.24882E-01   -0.16738E+00 34880   0.300E+00    0.481E+00
DAV:  12    -0.442996928097E+03    0.11751E-02   -0.27738E-01 33824   0.144E+00    0.128E+00
DAV:  13    -0.443005355375E+03   -0.84273E-02   -0.66138E-02 38352   0.604E-01    0.129E+00
DAV:  14    -0.443006362182E+03   -0.10068E-02   -0.26933E-02 33984   0.396E-01    0.572E-01
DAV:  15    -0.443009161840E+03   -0.27997E-02   -0.72277E-03 35824   0.193E-01    0.447E-01
DAV:  16    -0.443010645938E+03   -0.14841E-02   -0.32617E-03 33552   0.149E-01    0.230E-01
DAV:  17    -0.443011307034E+03   -0.66110E-03   -0.15651E-03 33648   0.911E-02    0.114E-01
DAV:  18    -0.443011402442E+03   -0.95408E-04   -0.38597E-04 35648   0.525E-02    0.625E-02
DAV:  19    -0.443011434399E+03   -0.31957E-04   -0.89775E-05 31648   0.241E-02    0.376E-02
DAV:  20    -0.443011447473E+03   -0.13074E-04   -0.38170E-05 25808   0.162E-02    0.191E-02
DAV:  21    -0.443011449359E+03   -0.18857E-05   -0.13781E-05 21920   0.105E-02
   1 F= -.44301145E+03 E0= -.44300063E+03  d E =-.443011E+03  mag=    78.0019
