       N       E                     dE             d eps       ncg     rms          ort
DAV:   1     0.849009604893E+04    0.84901E+04   -0.38352E+05  7296   0.187E+03
DAV:   2     0.571776821922E+03   -0.79183E+04   -0.73967E+04  7296   0.553E+02
DAV:   3    -0.328541135965E+03   -0.90032E+03   -0.86580E+03  7296   0.209E+02
DAV:   4    -0.359645090118E+03   -0.31104E+02   -0.30774E+02  7296   0.410E+01
DAV:   5    -0.360405007939E+03   -0.75992E+00   -0.75518E+00  7296   0.622E+00
SDA:   6     0.169826411628E+02    0.37739E+03   -0.75518E+00  7296   0.282E+04 0.000E+00
CGA:   7    -0.121092635632E+03   -0.13808E+03   -0.11418E+03  7296   0.121E+04 0.716E+03
CGA:   8    -0.214454273525E+03   -0.93362E+02   -0.88409E+02  7296   0.449E+03 0.178E+03
CGA:   9    -0.228434383677E+03   -0.13980E+02   -0.14714E+02  7296   0.322E+03-0.204E+03
CGA:  10    -0.225129271652E+03    0.33051E+01   -0.55198E+01  7296   0.216E+04-0.616E+03
CGA:  11    -0.201702237069E+03    0.23427E+02   -0.13251E+03  7296   0.156E+04-0.439E+03
CGA:  12    -0.220512137444E+03   -0.18810E+02   -0.25933E+02  7296   0.142E+04 0.278E+02
CGA:  13    -0.198374383836E+03    0.22138E+02   -0.30916E+02  7296   0.806E+04-0.127E+04
CGA:  14    -0.425121487627E+02    0.15586E+03   -0.53164E+03  7296   0.117E+05-0.244E+04
CGA:  15    -0.373899415915E+02    0.51222E+01   -0.45790E+03  7296   0.444E+04-0.269E+04
CGA:  16    -0.807311933186E+02   -0.43341E+02   -0.97439E+02  7296   0.867E+04-0.245E+04
CGA:  17     0.265668616038E+03    0.34640E+03   -0.40548E+03  7296   0.429E+05-0.193E+05
CGA:  18     0.260764412864E+03   -0.49042E+01   -0.26689E+04  7296   0.257E+05-0.139E+05
CGA:  19     0.104132457131E+03   -0.15663E+03   -0.96956E+03  7296   0.109E+05-0.197E+04
CGA:  20     0.281759511898E+03    0.17763E+03   -0.40112E+03  7296   0.840E+04-0.463E+04
CGA:  21     0.550366407049E+03    0.26861E+03   -0.20341E+03  7296   0.124E+05-0.477E+04
CGA:  22     0.132213700877E+03   -0.41815E+03   -0.43230E+03  7296   0.170E+05-0.717E+03
CGA:  23     0.334432038259E+03    0.20222E+03   -0.72358E+03  7296   0.251E+05-0.125E+04
CGA:  24     0.351122691919E+03    0.16691E+02   -0.10681E+04  7296   0.114E+05-0.424E+04
CGA:  25     0.914188772085E+02   -0.25970E+03   -0.31962E+03  7296   0.260E+05-0.909E+04
CGA:  26     0.401674355372E+02   -0.51251E+02   -0.10784E+04  7296   0.633E+04-0.474E+04
CGA:  27    -0.159003585632E+03   -0.19917E+03   -0.13257E+03  7296   0.269E+04 0.506E+03
CGA:  28    -0.193347437450E+03   -0.34344E+02   -0.70656E+02  7296   0.118E+04-0.564E+03
CGA:  29    -0.189242849863E+03    0.41046E+01   -0.18908E+02  7296   0.322E+04-0.128E+04
CGA:  30    -0.176423747922E+03    0.12819E+02   -0.93696E+02  7296   0.152E+04-0.907E+03
CGA:  31    -0.198659121671E+03   -0.22235E+02   -0.11013E+02  7296   0.120E+04 0.131E+04
CGA:  32    -0.229360546029E+03   -0.30701E+02   -0.13122E+02  7296   0.490E+03-0.123E+04
CGA:  33    -0.220115969680E+03    0.92446E+01   -0.10499E+02  7296   0.200E+04-0.719E+03
CGA:  34    -0.187102623102E+03    0.33013E+02   -0.43838E+02  7296   0.374E+04-0.180E+04
CGA:  35    -0.177356944814E+03    0.97457E+01   -0.10491E+03  7296   0.185E+04-0.125E+04
CGA:  36    -0.205455124095E+03   -0.28098E+02   -0.15688E+02  7296   0.130E+04 0.131E+04
CGA:  37    -0.236210706325E+03   -0.30756E+02   -0.14412E+02  7296   0.989E+03-0.222E+04
CGA:  38    -0.215900163635E+03    0.20311E+02   -0.20170E+02  7296   0.252E+04-0.111E+04
CGA:  39    -0.190478110962E+03    0.25422E+02   -0.47779E+02  7296   0.350E+04-0.233E+04
CGA:  40    -0.192986947977E+03   -0.25088E+01   -0.83510E+02  7296   0.156E+04-0.123E+04
CGA:  41    -0.218746262468E+03   -0.25759E+02   -0.11294E+02  7296   0.116E+04 0.134E+04
CGA:  42    -0.220799799115E+03   -0.20535E+01   -0.16057E+02  7296   0.295E+04-0.286E+04
CGA:  43    -0.206798656803E+03    0.14001E+02   -0.66047E+02  7296   0.136E+04-0.683E+03
CGA:  44    -0.247557154541E+03   -0.40758E+02   -0.15033E+02  7296   0.270E+03-0.289E+03
CGA:  45    -0.248656064092E+03   -0.10989E+01   -0.11283E+01  7296   0.454E+03-0.100E+02
CGA:  46    -0.241322132200E+03    0.73339E+01   -0.30215E+01  7296   0.183E+04-0.177E+04
CGA:  47    -0.240006320555E+03    0.13158E+01   -0.31997E+02  7296   0.136E+04-0.806E+03
CGA:  48    -0.250062859523E+03   -0.10057E+02   -0.10158E+02  7296   0.600E+03 0.122E+03
CGA:  49    -0.246180965391E+03    0.38819E+01   -0.58982E+01  7296   0.157E+04-0.134E+04
CGA:  50    -0.244368078185E+03    0.18129E+01   -0.29128E+02  7296   0.541E+03-0.267E+03
CGA:  51    -0.248808510045E+03   -0.44404E+01   -0.29215E+01  7296   0.335E+03 0.322E+03
CGA:  52    -0.254200614653E+03   -0.53921E+01   -0.17348E+01  7296   0.298E+03 0.577E+03
CGA:  53    -0.255553872628E+03   -0.13533E+01   -0.24287E+01  7296   0.177E+03-0.218E+03
CGA:  54    -0.255277960996E+03    0.27591E+00   -0.20234E+01  7296   0.270E+03-0.157E+03
CGA:  55    -0.256633825178E+03   -0.13559E+01   -0.18446E+01  7296   0.738E+02-0.114E+03
CGA:  56    -0.257671500885E+03   -0.10377E+01   -0.10737E+01  7296   0.711E+02 0.827E+00
CGA:  57    -0.258744361863E+03   -0.10729E+01   -0.11559E+01  7296   0.771E+02-0.232E+01
CGA:  58    -0.261841218503E+03   -0.30969E+01   -0.29114E+01  7296   0.122E+03 0.168E+02
CGA:  59    -0.264697522873E+03   -0.28563E+01   -0.25242E+01  7296   0.541E+02 0.137E+02
CGA:  60    -0.266481335326E+03   -0.17838E+01   -0.18141E+01  7296   0.431E+02 0.114E+02
CGA:  61    -0.267581230095E+03   -0.10999E+01   -0.99203E+00  7296   0.331E+02 0.724E+00
CGA:  62    -0.268989499304E+03   -0.14083E+01   -0.13325E+01  7296   0.444E+02 0.601E+01
CGA:  63    -0.270234662900E+03   -0.12452E+01   -0.13649E+01  7296   0.169E+02 0.768E+01
CGA:  64    -0.270856704341E+03   -0.62204E+00   -0.62242E+00  7296   0.127E+02-0.332E+00
CGA:  65    -0.271817084455E+03   -0.96038E+00   -0.78954E+00  7296   0.375E+01 0.466E+01
CGA:  66    -0.272227093367E+03   -0.41001E+00   -0.36404E+00  7296   0.493E+01 0.113E+01
CGA:  67    -0.272839684736E+03   -0.61259E+00   -0.57164E+00  7296   0.622E+01 0.878E+00
CGA:  68    -0.273358911299E+03   -0.51923E+00   -0.49161E+00  7296   0.135E+01 0.723E+00
CGA:  69    -0.273541343725E+03   -0.18243E+00   -0.17054E+00  7296   0.157E+01 0.172E+00
CGA:  70    -0.273809986966E+03   -0.26864E+00   -0.27345E+00  7296   0.220E+01-0.512E-01
CGA:  71    -0.273926844995E+03   -0.11686E+00   -0.11738E+00  7296   0.836E+00-0.501E-01
CGA:  72    -0.274001839468E+03   -0.74994E-01   -0.74227E-01  7296   0.802E+00 0.194E-01
CGA:  73    -0.274136717673E+03   -0.13488E+00   -0.14879E+00  7296   0.717E+00-0.118E+00
CGA:  74    -0.274183410028E+03   -0.46692E-01   -0.46769E-01  7296   0.307E+00-0.226E-02
CGA:  75    -0.274256206441E+03   -0.72796E-01   -0.80883E-01  7296   0.753E+00-0.656E-01
CGA:  76    -0.274286975286E+03   -0.30769E-01   -0.31630E-01  7296   0.305E+00 0.151E-01
CGA:  77    -0.274312979028E+03   -0.26004E-01   -0.25863E-01  7296   0.346E+00 0.622E-02
CGA:  78    -0.274339713812E+03   -0.26735E-01   -0.27062E-01  7296   0.480E+00-0.240E-01
CGA:  79    -0.274371342045E+03   -0.31628E-01   -0.31633E-01  7296   0.383E+00-0.116E-02
CGA:  80    -0.274385035006E+03   -0.13693E-01   -0.13969E-01  7296   0.158E+00-0.300E-02
CGA:  81    -0.274398793615E+03   -0.13759E-01   -0.13737E-01  7296   0.260E+00 0.791E-03
CGA:  82    -0.274417399311E+03   -0.18606E-01   -0.18652E-01  7296   0.357E+00-0.821E-02
CGA:  83    -0.274438367631E+03   -0.20968E-01   -0.20992E-01  7296   0.241E+00 0.105E-02
CGA:  84    -0.274447088724E+03   -0.87211E-02   -0.86921E-02  7296   0.116E+00 0.574E-03
SDA:  85    -0.274455202010E+03   -0.81133E-02   -0.81176E-02  7296   0.182E+00-0.748E-03
CGA:  86    -0.274465633519E+03   -0.10432E-01   -0.10499E-01  7296   0.104E+00 0.259E-02
CGA:  87    -0.274481588934E+03   -0.15955E-01   -0.15886E-01  7296   0.224E+00 0.840E-03
CGA:  88    -0.274503336742E+03   -0.21748E-01   -0.22082E-01  7296   0.193E+00-0.998E-02
CGA:  89    -0.274519352419E+03   -0.16016E-01   -0.15886E-01  7296   0.865E-01 0.586E-02
CGA:  90    -0.274536906832E+03   -0.17554E-01   -0.17733E-01  7296   0.958E-01-0.187E-02
CGA:  91    -0.274544341296E+03   -0.74345E-02   -0.74388E-02  7296   0.720E-01-0.385E-02
CGA:  92    -0.274549795514E+03   -0.54542E-02   -0.54540E-02  7296   0.101E+00 0.118E-02
CGA:  93    -0.274565790838E+03   -0.15995E-01   -0.17503E-01  7296   0.200E+00-0.194E-01
CGA:  94    -0.274578308781E+03   -0.12518E-01   -0.12510E-01  7296   0.113E+00-0.304E-03
CGA:  95    -0.274593614477E+03   -0.15306E-01   -0.16140E-01  7296   0.297E+00-0.128E-01
CGA:  96    -0.274611993818E+03   -0.18379E-01   -0.16240E-01  7296   0.390E+00-0.213E-02
CGA:  97    -0.274621593009E+03   -0.95992E-02   -0.83323E-02  7296   0.321E+00 0.429E-01
CGA:  98    -0.274628704389E+03   -0.71114E-02   -0.80455E-02  7296   0.254E+00-0.330E-01
CGA:  99    -0.274633376590E+03   -0.46722E-02   -0.59754E-02  7296   0.259E+00-0.291E-01
CGA: 100    -0.274641425555E+03   -0.80490E-02   -0.87338E-02  7296   0.285E+00-0.541E-02
CGA: 101    -0.274653139273E+03   -0.11714E-01   -0.11877E-01  7296   0.245E+00-0.108E-02
CGA: 102    -0.274663148744E+03   -0.10009E-01   -0.99202E-02  7296   0.200E+00 0.846E-03
CGA: 103    -0.274671583138E+03   -0.84344E-02   -0.82839E-02  7296   0.188E+00 0.108E-02
CGA: 104    -0.274679411778E+03   -0.78286E-02   -0.77305E-02  7296   0.194E+00 0.651E-03
CGA: 105    -0.274687262371E+03   -0.78506E-02   -0.78757E-02  7296   0.199E+00-0.157E-03
CGA: 106    -0.274695048657E+03   -0.77863E-02   -0.79057E-02  7296   0.176E+00-0.699E-03
CGA: 107    -0.274701730462E+03   -0.66818E-02   -0.67528E-02  7296   0.137E+00-0.498E-03
CGA: 108    -0.274707292404E+03   -0.55619E-02   -0.55878E-02  7296   0.120E+00-0.162E-03
CGA: 109    -0.274712767553E+03   -0.54751E-02   -0.54899E-02  7296   0.120E+00 0.281E-04
CGA: 110    -0.274718149564E+03   -0.53820E-02   -0.53824E-02  7296   0.109E+00-0.503E-04
CGA: 111    -0.274722721054E+03   -0.45715E-02   -0.45567E-02  7296   0.925E-01-0.806E-04
CGA: 112    -0.274726702039E+03   -0.39810E-02   -0.39734E-02  7296   0.888E-01-0.884E-04
CGA: 113    -0.274730861708E+03   -0.41597E-02   -0.41635E-02  7296   0.984E-01 0.456E-04
CGA: 114    -0.274735631038E+03   -0.47693E-02   -0.47741E-02  7296   0.104E+00 0.104E-03
CGA: 115    -0.274740191571E+03   -0.45605E-02   -0.45474E-02  7296   0.887E-01-0.196E-03
SDA: 116    -0.274743740747E+03   -0.35492E-02   -0.35345E-02  7296   0.712E-01-0.861E-04
CGA: 117    -0.274752136846E+03   -0.83961E-02   -0.83774E-02  7296   0.592E-01 0.302E-03
CGA: 118    -0.274769099093E+03   -0.16962E-01   -0.17069E-01  7296   0.533E-01-0.721E-03
CGA: 119    -0.274775279237E+03   -0.61801E-02   -0.61778E-02  7296   0.388E-01 0.407E-04
CGA: 120    -0.274783094536E+03   -0.78153E-02   -0.78611E-02  7296   0.307E-01-0.455E-03
CGA: 121    -0.274786054026E+03   -0.29595E-02   -0.29634E-02  7296   0.101E-01-0.150E-03
CGA: 122    -0.274788281578E+03   -0.22276E-02   -0.22431E-02  7296   0.113E-01-0.122E-03
CGA: 123    -0.274789288278E+03   -0.10067E-02   -0.10069E-02  7296   0.354E-02-0.476E-04
CGA: 124    -0.274789949414E+03   -0.66114E-03   -0.66440E-03  7296   0.347E-02-0.339E-04
CGA: 125    -0.274790435675E+03   -0.48626E-03   -0.48547E-03  7296   0.241E-02 0.133E-04
CGA: 126    -0.274790914622E+03   -0.47895E-03   -0.50080E-03  7296   0.182E-02-0.232E-03
CGA: 127    -0.274791092915E+03   -0.17829E-03   -0.17831E-03  7296   0.827E-03-0.124E-05
CGA: 128    -0.274791255348E+03   -0.16243E-03   -0.16410E-03  7296   0.801E-03-0.175E-04
CGA: 129    -0.274791315682E+03   -0.60334E-04   -0.60123E-04  7296   0.221E-03-0.329E-05
CGA: 130    -0.274791374477E+03   -0.58794E-04   -0.58384E-04  7296   0.352E-03 0.242E-05
CGA: 131    -0.274791409122E+03   -0.34645E-04   -0.34685E-04  7296   0.151E-03 0.266E-05
CGA: 132    -0.274791435752E+03   -0.26630E-04   -0.26471E-04  7296   0.206E-03 0.243E-05
CGA: 133    -0.274791460519E+03   -0.24767E-04   -0.24763E-04  7296   0.610E-04 0.127E-05
CGA: 134    -0.274791469198E+03   -0.86788E-05   -0.86662E-05  7296   0.746E-04 0.290E-06
CGA: 135    -0.274791481794E+03   -0.12596E-04   -0.12585E-04  7296   0.301E-04 0.277E-07
CGA: 136    -0.274791484689E+03   -0.28954E-05   -0.28890E-05  7296   0.211E-04-0.306E-06
   1 F= -.27479148E+03 E0= -.27478245E+03  d E =-.274791E+03  mag=    18.0000
       N       E                     dE             d eps       ncg     rms          ort
SDA:   1    -0.274881068687E+03   -0.89587E-01    0.00000E+00  7296   0.167E-01 0.000E+00
CGA:   2    -0.274883475927E+03   -0.24072E-02   -0.24079E-02  7296   0.193E-01-0.183E-04
CGA:   3    -0.274885864343E+03   -0.23884E-02   -0.23884E-02  7296   0.435E-02 0.144E-04
CGA:   4    -0.274886283135E+03   -0.41879E-03   -0.41855E-03  7296   0.265E-02-0.610E-05
CGA:   5    -0.274886580646E+03   -0.29751E-03   -0.29745E-03  7296   0.563E-03-0.659E-05
CGA:   6    -0.274886638843E+03   -0.58196E-04   -0.58173E-04  7296   0.295E-03-0.113E-05
CGA:   7    -0.274886677099E+03   -0.38257E-04   -0.38245E-04  7296   0.102E-03 0.134E-05
CGA:   8    -0.274886689043E+03   -0.11943E-04   -0.11952E-04  7296   0.684E-04 0.169E-05
CGA:   9    -0.274886698198E+03   -0.91554E-05   -0.91350E-05  7296   0.298E-04 0.204E-05
   2 F= -.27488670E+03 E0= -.27487765E+03  d E =-.952135E-01  mag=    18.0000
       N       E                     dE             d eps       ncg     rms          ort
SDA:   1    -0.236530351248E+03    0.38356E+02    0.00000E+00  7296   0.221E+03 0.000E+00
CGA:   2    -0.257327485511E+03   -0.20797E+02   -0.20197E+02  7296   0.135E+03-0.324E+02
CGA:   3    -0.270625260977E+03   -0.13298E+02   -0.12764E+02  7296   0.615E+02-0.178E+02
CGA:   4    -0.275836431225E+03   -0.52112E+01   -0.51674E+01  7296   0.309E+02 0.229E+00
CGA:   5    -0.277799003275E+03   -0.19626E+01   -0.20634E+01  7296   0.118E+02-0.339E+00
CGA:   6    -0.278566569552E+03   -0.76757E+00   -0.73757E+00  7296   0.569E+01 0.239E+00
CGA:   7    -0.279087933104E+03   -0.52136E+00   -0.52856E+00  7296   0.342E+01 0.887E-01
CGA:   8    -0.279325892377E+03   -0.23796E+00   -0.25246E+00  7296   0.151E+01-0.115E-01
CGA:   9    -0.279436784214E+03   -0.11089E+00   -0.11100E+00  7296   0.613E+00 0.113E-02
CGA:  10    -0.279496463558E+03   -0.59679E-01   -0.59841E-01  7296   0.338E+00 0.586E-02
CGA:  11    -0.279532565612E+03   -0.36102E-01   -0.36160E-01  7296   0.226E+00 0.132E-01
CGA:  12    -0.279554299346E+03   -0.21734E-01   -0.21731E-01  7296   0.129E+00 0.691E-04
CGA:  13    -0.279569425676E+03   -0.15126E-01   -0.15089E-01  7296   0.766E-01 0.230E-02
CGA:  14    -0.279578793789E+03   -0.93681E-02   -0.93273E-02  7296   0.467E-01 0.206E-02
CGA:  15    -0.279584082984E+03   -0.52892E-02   -0.52891E-02  7296   0.314E-01 0.434E-04
CGA:  16    -0.279587626089E+03   -0.35431E-02   -0.35411E-02  7296   0.175E-01 0.264E-03
CGA:  17    -0.279589497349E+03   -0.18713E-02   -0.18714E-02  7296   0.700E-02 0.331E-04
CGA:  18    -0.279590342183E+03   -0.84483E-03   -0.84452E-03  7296   0.528E-02 0.186E-04
CGA:  19    -0.279590956162E+03   -0.61398E-03   -0.61377E-03  7296   0.295E-02 0.211E-04
CGA:  20    -0.279591246362E+03   -0.29020E-03   -0.29022E-03  7296   0.133E-02 0.185E-05
CGA:  21    -0.279591440002E+03   -0.19364E-03   -0.19358E-03  7296   0.129E-02 0.756E-06
CGA:  22    -0.279591600295E+03   -0.16029E-03   -0.16032E-03  7296   0.779E-03-0.266E-05
CGA:  23    -0.279591686359E+03   -0.86064E-04   -0.86063E-04  7296   0.529E-03-0.157E-05
CGA:  24    -0.279591767166E+03   -0.80807E-04   -0.80769E-04  7296   0.388E-03 0.694E-06
CGA:  25    -0.279591816307E+03   -0.49140E-04   -0.49158E-04  7296   0.254E-03-0.132E-05
CGA:  26    -0.279591846821E+03   -0.30514E-04   -0.30530E-04  7296   0.198E-03-0.243E-05
CGA:  27    -0.279591868735E+03   -0.21914E-04   -0.21908E-04  7296   0.953E-04-0.277E-05
CGA:  28    -0.279591881798E+03   -0.13063E-04   -0.13112E-04  7296   0.714E-04-0.195E-05
CGA:  29    -0.279591891979E+03   -0.10180E-04   -0.10232E-04  7296   0.480E-04-0.169E-05
CGA:  30    -0.279591897099E+03   -0.51204E-05   -0.51107E-05  7296   0.319E-04-0.123E-05
   3 F= -.27959190E+03 E0= -.27958326E+03  d E =-.470520E+01  mag=    18.0000
       N       E                     dE             d eps       ncg     rms          ort
SDA:   1    -0.125824865476E+03    0.15377E+03    0.00000E+00  7296   0.105E+04 0.000E+00
CGA:   2    -0.216758904247E+03   -0.90934E+02   -0.86016E+02  7296   0.330E+03 0.596E+02
CGA:   3    -0.252240951346E+03   -0.35482E+02   -0.34475E+02  7296   0.159E+03-0.107E+02
CGA:   4    -0.264881627833E+03   -0.12641E+02   -0.12525E+02  7296   0.149E+03-0.263E+01
CGA:   5    -0.274156725418E+03   -0.92751E+01   -0.95478E+01  7296   0.799E+02-0.487E+00
CGA:   6    -0.278248338433E+03   -0.40916E+01   -0.39241E+01  7296   0.367E+02-0.450E-01
CGA:   7    -0.279785633201E+03   -0.15373E+01   -0.14440E+01  7296   0.224E+02-0.850E+00
CGA:   8    -0.280841826652E+03   -0.10562E+01   -0.10213E+01  7296   0.192E+02 0.597E+00
CGA:   9    -0.281664345543E+03   -0.82252E+00   -0.92714E+00  7296   0.134E+02-0.842E+00
CGA:  10    -0.282160145413E+03   -0.49580E+00   -0.64677E+00  7296   0.748E+01-0.997E+00
CGA:  11    -0.282588314169E+03   -0.42817E+00   -0.43961E+00  7296   0.256E+01 0.806E-01
CGA:  12    -0.282798902065E+03   -0.21059E+00   -0.21105E+00  7296   0.166E+01 0.161E-01
CGA:  13    -0.282941503325E+03   -0.14260E+00   -0.14319E+00  7296   0.110E+01 0.304E-01
CGA:  14    -0.283060070538E+03   -0.11857E+00   -0.11803E+00  7296   0.729E+00 0.274E-01
CGA:  15    -0.283128589571E+03   -0.68519E-01   -0.68536E-01  7296   0.426E+00 0.279E-02
CGA:  16    -0.283167594632E+03   -0.39005E-01   -0.39013E-01  7296   0.244E+00 0.116E-02
CGA:  17    -0.283193567936E+03   -0.25973E-01   -0.25940E-01  7296   0.129E+00 0.165E-02
CGA:  18    -0.283205410795E+03   -0.11843E-01   -0.11843E-01  7296   0.785E-01 0.274E-04
CGA:  19    -0.283213656656E+03   -0.82459E-02   -0.82419E-02  7296   0.427E-01 0.247E-03
CGA:  20    -0.283217903228E+03   -0.42466E-02   -0.42462E-02  7296   0.214E-01 0.609E-04
CGA:  21    -0.283219960753E+03   -0.20575E-02   -0.20575E-02  7296   0.150E-01 0.885E-06
CGA:  22    -0.283221813297E+03   -0.18525E-02   -0.18517E-02  7296   0.104E-01 0.256E-04
CGA:  23    -0.283222737555E+03   -0.92426E-03   -0.92441E-03  7296   0.440E-02 0.114E-04
CGA:  24    -0.283223222107E+03   -0.48455E-03   -0.48481E-03  7296   0.400E-02-0.153E-04
CGA:  25    -0.283223708824E+03   -0.48672E-03   -0.48733E-03  7296   0.242E-02-0.228E-04
CGA:  26    -0.283223954318E+03   -0.24549E-03   -0.24554E-03  7296   0.167E-02-0.125E-04
CGA:  27    -0.283224144780E+03   -0.19046E-03   -0.19066E-03  7296   0.132E-02-0.107E-04
CGA:  28    -0.283224291153E+03   -0.14637E-03   -0.14641E-03  7296   0.729E-03-0.192E-05
CGA:  29    -0.283224363486E+03   -0.72333E-04   -0.72334E-04  7296   0.529E-03 0.261E-05
CGA:  30    -0.283224432406E+03   -0.68920E-04   -0.68914E-04  7296   0.447E-03 0.265E-06
CGA:  31    -0.283224480888E+03   -0.48481E-04   -0.48506E-04  7296   0.259E-03-0.322E-05
SDA:  32    -0.283224509086E+03   -0.28198E-04   -0.28236E-04  7296   0.204E-03-0.470E-05
CGA:  33    -0.283224524206E+03   -0.15120E-04   -0.15106E-04  7296   0.905E-04-0.511E-06
CGA:  34    -0.283224546967E+03   -0.22761E-04   -0.22949E-04  7296   0.978E-04-0.130E-05
CGA:  35    -0.283224557361E+03   -0.10394E-04   -0.10393E-04  7296   0.560E-04-0.128E-05
CGA:  36    -0.283224570225E+03   -0.12864E-04   -0.13117E-04  7296   0.367E-04-0.210E-05
CGA:  37    -0.283224575000E+03   -0.47751E-05   -0.47790E-05  7296   0.309E-04-0.185E-06
   4 F= -.28322457E+03 E0= -.28321672E+03  d E =-.363268E+01  mag=    18.0000
       N       E                     dE             d eps       ncg     rms          ort
SDA:   1    -0.277079222375E+03    0.61453E+01    0.00000E+00  7296   0.185E+02 0.000E+00
CGA:   2    -0.281527237035E+03   -0.44480E+01   -0.44405E+01  7296   0.122E+02 0.671E-01
CGA:   3    -0.282971528899E+03   -0.14443E+01   -0.14424E+01  7296   0.591E+01-0.914E-01
CGA:   4    -0.283568232971E+03   -0.59670E+00   -0.59808E+00  7296   0.151E+01 0.153E-01
CGA:   5    -0.283740779048E+03   -0.17255E+00   -0.17244E+00  7296   0.721E+00-0.376E-02
CGA:   6    -0.283804764235E+03   -0.63985E-01   -0.64125E-01  7296   0.225E+00 0.502E-03
CGA:   7    -0.283833766928E+03   -0.29003E-01   -0.29005E-01  7296   0.108E+00-0.208E-03
CGA:   8    -0.283845028987E+03   -0.11262E-01   -0.11268E-01  7296   0.399E-01 0.143E-03
CGA:   9    -0.283851094272E+03   -0.60653E-02   -0.60668E-02  7296   0.257E-01-0.286E-04
CGA:  10    -0.283853470209E+03   -0.23759E-02   -0.23778E-02  7296   0.103E-01 0.184E-04
CGA:  11    -0.283855114533E+03   -0.16443E-02   -0.16439E-02  7296   0.894E-02 0.102E-04
CGA:  12    -0.283856047816E+03   -0.93328E-03   -0.93337E-03  7296   0.316E-02 0.444E-05
CGA:  13    -0.283856648763E+03   -0.60095E-03   -0.60040E-03  7296   0.249E-02 0.815E-05
CGA:  14    -0.283856900798E+03   -0.25204E-03   -0.25218E-03  7296   0.929E-03 0.573E-05
CGA:  15    -0.283857046586E+03   -0.14579E-03   -0.14553E-03  7296   0.730E-03 0.799E-05
CGA:  16    -0.283857115331E+03   -0.68745E-04   -0.68906E-04  7296   0.242E-03 0.492E-05
CGA:  17    -0.283857152191E+03   -0.36860E-04   -0.36789E-04  7296   0.203E-03 0.273E-05
CGA:  18    -0.283857176953E+03   -0.24762E-04   -0.24772E-04  7296   0.760E-04 0.170E-05
CGA:  19    -0.283857189164E+03   -0.12211E-04   -0.12210E-04  7296   0.809E-04 0.454E-07
CGA:  20    -0.283857199370E+03   -0.10205E-04   -0.10205E-04  7296   0.396E-04-0.123E-06
CGA:  21    -0.283857204500E+03   -0.51305E-05   -0.51311E-05  7296   0.341E-04-0.268E-06
   5 F= -.28385720E+03 E0= -.28384949E+03  d E =-.632630E+00  mag=    18.0000
       N       E                     dE             d eps       ncg     rms          ort
SDA:   1    -0.209038937882E+03    0.74818E+02    0.00000E+00  7296   0.722E+03 0.000E+00
CGA:   2    -0.245631222475E+03   -0.36592E+02   -0.55197E+02  7296   0.189E+03-0.165E+02
CGA:   3    -0.264365705834E+03   -0.18734E+02   -0.14053E+02  7296   0.546E+02 0.482E+02
CGA:   4    -0.276712644429E+03   -0.12347E+02   -0.12291E+02  7296   0.708E+02 0.730E+00
CGA:   5    -0.281727419876E+03   -0.50148E+01   -0.49925E+01  7296   0.189E+02 0.528E+00
CGA:   6    -0.282961056960E+03   -0.12336E+01   -0.11404E+01  7296   0.934E+01 0.783E+00
CGA:   7    -0.283874415396E+03   -0.91336E+00   -0.91461E+00  7296   0.565E+01 0.618E-02
CGA:   8    -0.284229271133E+03   -0.35486E+00   -0.36542E+00  7296   0.215E+01-0.576E-01
CGA:   9    -0.284409540266E+03   -0.18027E+00   -0.18008E+00  7296   0.150E+01 0.183E-02
CGA:  10    -0.284554718701E+03   -0.14518E+00   -0.14558E+00  7296   0.713E+00 0.864E-02
CGA:  11    -0.284603825799E+03   -0.49107E-01   -0.49827E-01  7296   0.368E+00-0.952E-03
CGA:  12    -0.284649362179E+03   -0.45536E-01   -0.45498E-01  7296   0.217E+00 0.211E-02
CGA:  13    -0.284665946160E+03   -0.16584E-01   -0.16602E-01  7296   0.112E+00 0.152E-03
CGA:  14    -0.284679148148E+03   -0.13202E-01   -0.13194E-01  7296   0.712E-01 0.611E-03
CGA:  15    -0.284685159991E+03   -0.60118E-02   -0.60190E-02  7296   0.317E-01 0.522E-04
CGA:  16    -0.284689194616E+03   -0.40346E-02   -0.40351E-02  7296   0.313E-01-0.229E-04
CGA:  17    -0.284692016011E+03   -0.28214E-02   -0.28242E-02  7296   0.971E-02 0.366E-04
CGA:  18    -0.284693060669E+03   -0.10447E-02   -0.10448E-02  7296   0.870E-02 0.382E-04
CGA:  19    -0.284694030104E+03   -0.96943E-03   -0.96940E-03  7296   0.365E-02 0.247E-04
CGA:  20    -0.284694362993E+03   -0.33289E-03   -0.33331E-03  7296   0.216E-02 0.173E-04
CGA:  21    -0.284694691103E+03   -0.32811E-03   -0.32716E-03  7296   0.205E-02 0.215E-04
CGA:  22    -0.284694865065E+03   -0.17396E-03   -0.17413E-03  7296   0.607E-03 0.671E-05
CGA:  23    -0.284694964297E+03   -0.99232E-04   -0.99190E-04  7296   0.104E-02 0.620E-06
CGA:  24    -0.284695080683E+03   -0.11639E-03   -0.11638E-03  7296   0.373E-03-0.200E-05
CGA:  25    -0.284695119531E+03   -0.38848E-04   -0.38829E-04  7296   0.325E-03-0.240E-05
CGA:  26    -0.284695174506E+03   -0.54974E-04   -0.55162E-04  7296   0.362E-03-0.322E-05
CGA:  27    -0.284695205890E+03   -0.31385E-04   -0.31362E-04  7296   0.139E-03-0.107E-05
CGA:  28    -0.284695227998E+03   -0.22108E-04   -0.22094E-04  7296   0.177E-03 0.301E-06
CGA:  29    -0.284695246748E+03   -0.18750E-04   -0.18750E-04  7296   0.897E-04-0.356E-07
CGA:  30    -0.284695256944E+03   -0.10196E-04   -0.10194E-04  7296   0.804E-04-0.170E-05
CGA:  31    -0.284695267963E+03   -0.11019E-04   -0.11098E-04  7296   0.449E-04-0.310E-05
SDA:  32    -0.284695271677E+03   -0.37144E-05   -0.36998E-05  7296   0.286E-04-0.507E-06
   6 F= -.28469527E+03 E0= -.28468745E+03  d E =-.838067E+00  mag=    18.0000
       N       E                     dE             d eps       ncg     rms          ort
SDA:   1    -0.266914614863E+03    0.17781E+02    0.00000E+00  7296   0.511E+02 0.000E+00
CGA:   2    -0.277651132609E+03   -0.10737E+02   -0.10702E+02  7296   0.354E+02 0.285E+00
CGA:   3    -0.282065205022E+03   -0.44141E+01   -0.44136E+01  7296   0.185E+02 0.359E-01
CGA:   4    -0.284110882099E+03   -0.20457E+01   -0.20450E+01  7296   0.454E+01-0.291E-01
CGA:   5    -0.284649002306E+03   -0.53812E+00   -0.53808E+00  7296   0.152E+01 0.272E-01
CGA:   6    -0.284807149053E+03   -0.15815E+00   -0.15802E+00  7296   0.551E+00-0.279E-02
CGA:   7    -0.284876827048E+03   -0.69678E-01   -0.69653E-01  7296   0.272E+00 0.169E-02
CGA:   8    -0.284901815651E+03   -0.24989E-01   -0.24954E-01  7296   0.110E+00-0.183E-03
CGA:   9    -0.284917099810E+03   -0.15284E-01   -0.15271E-01  7296   0.529E-01 0.403E-03
CGA:  10    -0.284922516779E+03   -0.54170E-02   -0.54155E-02  7296   0.223E-01-0.160E-04
CGA:  11    -0.284926471649E+03   -0.39549E-02   -0.39481E-02  7296   0.138E-01 0.983E-04
CGA:  12    -0.284928056433E+03   -0.15848E-02   -0.15846E-02  7296   0.830E-02-0.615E-05
CGA:  13    -0.284929311824E+03   -0.12554E-02   -0.12539E-02  7296   0.528E-02 0.409E-04
CGA:  14    -0.284929876437E+03   -0.56461E-03   -0.56480E-03  7296   0.236E-02 0.128E-04
CGA:  15    -0.284930272790E+03   -0.39635E-03   -0.39556E-03  7296   0.150E-02 0.164E-04
CGA:  16    -0.284930423938E+03   -0.15115E-03   -0.15125E-03  7296   0.677E-03 0.484E-05
CGA:  17    -0.284930533330E+03   -0.10939E-03   -0.10917E-03  7296   0.552E-03 0.540E-05
CGA:  18    -0.284930597059E+03   -0.63730E-04   -0.63742E-04  7296   0.279E-03 0.158E-05
CGA:  19    -0.284930646760E+03   -0.49700E-04   -0.49624E-04  7296   0.298E-03 0.134E-05
CGA:  20    -0.284930693217E+03   -0.46457E-04   -0.46474E-04  7296   0.177E-03-0.464E-06
CGA:  21    -0.284930729343E+03   -0.36126E-04   -0.36155E-04  7296   0.228E-03-0.402E-06
CGA:  22    -0.284930758722E+03   -0.29379E-04   -0.29376E-04  7296   0.126E-03-0.162E-05
CGA:  23    -0.284930775468E+03   -0.16745E-04   -0.16747E-04  7296   0.102E-03-0.766E-06
CGA:  24    -0.284930790246E+03   -0.14778E-04   -0.14802E-04  7296   0.545E-04-0.161E-05
CGA:  25    -0.284930796924E+03   -0.66781E-05   -0.66717E-05  7296   0.306E-04-0.877E-06
   7 F= -.28493080E+03 E0= -.28492242E+03  d E =-.235525E+00  mag=    18.0000
       N       E                     dE             d eps       ncg     rms          ort
SDA:   1    -0.245009419000E+03    0.39921E+02    0.00000E+00  7296   0.118E+03 0.000E+00
CGA:   2    -0.266900416142E+03   -0.21891E+02   -0.21743E+02  7296   0.911E+02 0.213E+01
CGA:   3    -0.277499892635E+03   -0.10599E+02   -0.10288E+02  7296   0.466E+02-0.261E+01
CGA:   4    -0.283019706883E+03   -0.55198E+01   -0.55322E+01  7296   0.132E+02 0.366E+00
CGA:   5    -0.284249960734E+03   -0.12303E+01   -0.11984E+01  7296   0.535E+01 0.581E-01
CGA:   6    -0.284783560395E+03   -0.53360E+00   -0.53849E+00  7296   0.152E+01 0.301E-01
CGA:   7    -0.284954974785E+03   -0.17141E+00   -0.17128E+00  7296   0.796E+00-0.199E-02
CGA:   8    -0.285050452624E+03   -0.95478E-01   -0.95594E-01  7296   0.230E+00 0.543E-02
CGA:   9    -0.285082813806E+03   -0.32361E-01   -0.32359E-01  7296   0.173E+00 0.193E-03
CGA:  10    -0.285100491752E+03   -0.17678E-01   -0.17720E-01  7296   0.467E-01 0.442E-03
CGA:  11    -0.285108085365E+03   -0.75936E-02   -0.75948E-02  7296   0.489E-01-0.109E-04
CGA:  12    -0.285113379309E+03   -0.52939E-02   -0.53068E-02  7296   0.155E-01 0.218E-03
CGA:  13    -0.285116060898E+03   -0.26816E-02   -0.26804E-02  7296   0.150E-01 0.304E-04
CGA:  14    -0.285117816082E+03   -0.17552E-02   -0.17566E-02  7296   0.469E-02 0.586E-04
CGA:  15    -0.285118496115E+03   -0.68003E-03   -0.67988E-03  7296   0.435E-02 0.131E-04
CGA:  16    -0.285119028538E+03   -0.53242E-03   -0.53262E-03  7296   0.127E-02 0.181E-04
CGA:  17    -0.285119224046E+03   -0.19551E-03   -0.19546E-03  7296   0.139E-02 0.246E-05
CGA:  18    -0.285119425238E+03   -0.20119E-03   -0.20106E-03  7296   0.569E-03 0.818E-05
CGA:  19    -0.285119531116E+03   -0.10588E-03   -0.10583E-03  7296   0.831E-03 0.112E-05
CGA:  20    -0.285119655818E+03   -0.12470E-03   -0.12463E-03  7296   0.512E-03 0.393E-05
CGA:  21    -0.285119742064E+03   -0.86246E-04   -0.86406E-04  7296   0.502E-03-0.461E-05
CGA:  22    -0.285119824924E+03   -0.82860E-04   -0.82954E-04  7296   0.328E-03-0.366E-05
CGA:  23    -0.285119873615E+03   -0.48691E-04   -0.48716E-04  7296   0.228E-03-0.213E-05
CGA:  24    -0.285119900324E+03   -0.26709E-04   -0.26692E-04  7296   0.120E-03-0.104E-05
CGA:  25    -0.285119921663E+03   -0.21339E-04   -0.21483E-04  7296   0.905E-04-0.337E-05
CGA:  26    -0.285119930210E+03   -0.85463E-05   -0.85058E-05  7296   0.343E-04-0.102E-05
   8 F= -.28511993E+03 E0= -.28511114E+03  d E =-.189133E+00  mag=    18.0000
       N       E                     dE             d eps       ncg     rms          ort
SDA:   1    -0.243889616753E+03    0.41230E+02    0.00000E+00  7296   0.111E+03 0.000E+00
CGA:   2    -0.269359486052E+03   -0.25470E+02   -0.25463E+02  7296   0.862E+02-0.110E-01
CGA:   3    -0.279147329614E+03   -0.97878E+01   -0.97955E+01  7296   0.384E+02 0.569E+00
CGA:   4    -0.283400772177E+03   -0.42534E+01   -0.42428E+01  7296   0.102E+02 0.255E-01
CGA:   5    -0.284459215987E+03   -0.10584E+01   -0.10751E+01  7296   0.406E+01 0.747E-01
CGA:   6    -0.284873709051E+03   -0.41449E+00   -0.40962E+00  7296   0.125E+01-0.555E-02
CGA:   7    -0.285038929153E+03   -0.16522E+00   -0.16535E+00  7296   0.605E+00 0.838E-02
CGA:   8    -0.285100660553E+03   -0.61731E-01   -0.61570E-01  7296   0.219E+00-0.257E-03
CGA:   9    -0.285130967223E+03   -0.30307E-01   -0.30306E-01  7296   0.130E+00 0.710E-03
CGA:  10    -0.285144186298E+03   -0.13219E-01   -0.13207E-01  7296   0.462E-01 0.237E-05
CGA:  11    -0.285152736519E+03   -0.85502E-02   -0.85383E-02  7296   0.347E-01 0.201E-03
CGA:  12    -0.285156558073E+03   -0.38216E-02   -0.38211E-02  7296   0.172E-01 0.296E-04
CGA:  13    -0.285159465715E+03   -0.29076E-02   -0.29052E-02  7296   0.118E-01 0.690E-04
CGA:  14    -0.285160793296E+03   -0.13276E-02   -0.13280E-02  7296   0.487E-02 0.225E-04
CGA:  15    -0.285161621471E+03   -0.82817E-03   -0.82715E-03  7296   0.322E-02 0.279E-04
CGA:  16    -0.285161964965E+03   -0.34349E-03   -0.34358E-03  7296   0.136E-02 0.564E-05
CGA:  17    -0.285162190984E+03   -0.22602E-03   -0.22574E-03  7296   0.122E-02 0.858E-05
CGA:  18    -0.285162337234E+03   -0.14625E-03   -0.14627E-03  7296   0.601E-03 0.185E-05
CGA:  19    -0.285162468940E+03   -0.13171E-03   -0.13143E-03  7296   0.723E-03 0.328E-05
CGA:  20    -0.285162579914E+03   -0.11097E-03   -0.11099E-03  7296   0.519E-03-0.545E-06
CGA:  21    -0.285162674046E+03   -0.94132E-04   -0.94090E-04  7296   0.571E-03 0.660E-06
CGA:  22    -0.285162756555E+03   -0.82510E-04   -0.82511E-04  7296   0.295E-03-0.466E-05
CGA:  23    -0.285162802454E+03   -0.45899E-04   -0.45935E-04  7296   0.243E-03-0.320E-05
CGA:  24    -0.285162834217E+03   -0.31763E-04   -0.31709E-04  7296   0.118E-03-0.389E-05
CGA:  25    -0.285162849815E+03   -0.15598E-04   -0.15590E-04  7296   0.770E-04-0.923E-06
CGA:  26    -0.285162860852E+03   -0.11037E-04   -0.11038E-04  7296   0.474E-04-0.716E-06
CGA:  27    -0.285162867569E+03   -0.67171E-05   -0.67167E-05  7296   0.316E-04-0.557E-06
   9 F= -.28516287E+03 E0= -.28515445E+03  d E =-.429374E-01  mag=    18.0000
       N       E                     dE             d eps       ncg     rms          ort
SDA:   1    -0.243793450398E+03    0.41369E+02    0.00000E+00  7296   0.130E+03 0.000E+00
CGA:   2    -0.264507012360E+03   -0.20714E+02   -0.20703E+02  7296   0.115E+03 0.464E+00
CGA:   3    -0.276665106109E+03   -0.12158E+02   -0.12254E+02  7296   0.456E+02 0.760E+00
CGA:   4    -0.282605277664E+03   -0.59402E+01   -0.58718E+01  7296   0.204E+02-0.138E+01
CGA:   5    -0.284157271636E+03   -0.15520E+01   -0.16715E+01  7296   0.575E+01-0.100E+00
CGA:   6    -0.284768818142E+03   -0.61155E+00   -0.60932E+00  7296   0.236E+01-0.959E-02
CGA:   7    -0.284995339960E+03   -0.22652E+00   -0.22719E+00  7296   0.883E+00 0.207E-02
CGA:   8    -0.285098672027E+03   -0.10333E+00   -0.10398E+00  7296   0.502E+00 0.126E-01
CGA:   9    -0.285141831044E+03   -0.43159E-01   -0.43142E-01  7296   0.172E+00-0.817E-04
CGA:  10    -0.285167357394E+03   -0.25526E-01   -0.25503E-01  7296   0.102E+00 0.896E-03
CGA:  11    -0.285177186497E+03   -0.98291E-02   -0.98309E-02  7296   0.423E-01 0.578E-04
CGA:  12    -0.285183729817E+03   -0.65433E-02   -0.65267E-02  7296   0.302E-01 0.493E-03
CGA:  13    -0.285187197757E+03   -0.34679E-02   -0.34689E-02  7296   0.141E-01 0.458E-04
CGA:  14    -0.285189312769E+03   -0.21150E-02   -0.21119E-02  7296   0.982E-02 0.117E-03
CGA:  15    -0.285190439200E+03   -0.11264E-02   -0.11278E-02  7296   0.393E-02 0.405E-04
CGA:  16    -0.285190966206E+03   -0.52701E-03   -0.52697E-03  7296   0.296E-02 0.138E-04
CGA:  17    -0.285191294077E+03   -0.32787E-03   -0.32813E-03  7296   0.101E-02 0.951E-05
CGA:  18    -0.285191444561E+03   -0.15048E-03   -0.15040E-03  7296   0.811E-03 0.421E-05
CGA:  19    -0.285191553133E+03   -0.10857E-03   -0.10856E-03  7296   0.433E-03 0.543E-05
CGA:  20    -0.285191616650E+03   -0.63517E-04   -0.63471E-04  7296   0.368E-03 0.324E-05
CGA:  21    -0.285191687621E+03   -0.70971E-04   -0.70772E-04  7296   0.316E-03 0.329E-05
CGA:  22    -0.285191730556E+03   -0.42935E-04   -0.42936E-04  7296   0.276E-03 0.151E-05
CGA:  23    -0.285191782606E+03   -0.52050E-04   -0.52136E-04  7296   0.236E-03-0.157E-05
CGA:  24    -0.285191811220E+03   -0.28614E-04   -0.28600E-04  7296   0.144E-03-0.116E-05
CGA:  25    -0.285191834505E+03   -0.23284E-04   -0.23353E-04  7296   0.117E-03-0.258E-05
CGA:  26    -0.285191848657E+03   -0.14152E-04   -0.14131E-04  7296   0.506E-04-0.146E-05
CGA:  27    -0.285191856453E+03   -0.77969E-05   -0.78153E-05  7296   0.460E-04-0.972E-06
  10 F= -.28519186E+03 E0= -.28518390E+03  d E =-.289889E-01  mag=    18.0000
       N       E                     dE             d eps       ncg     rms          ort
SDA:   1    -0.274504762913E+03    0.10687E+02    0.00000E+00  7296   0.357E+02 0.000E+00
CGA:   2    -0.279733364110E+03   -0.52286E+01   -0.52359E+01  7296   0.307E+02-0.466E+00
CGA:   3    -0.282855780592E+03   -0.31224E+01   -0.31626E+01  7296   0.119E+02 0.254E+00
CGA:   4    -0.284543843304E+03   -0.16881E+01   -0.16889E+01  7296   0.470E+01-0.108E+00
CGA:   5    -0.284969104154E+03   -0.42526E+00   -0.42984E+00  7296   0.154E+01 0.592E-02
CGA:   6    -0.285139943489E+03   -0.17084E+00   -0.17060E+00  7296   0.503E+00-0.258E-02
CGA:   7    -0.285195079810E+03   -0.55136E-01   -0.55207E-01  7296   0.219E+00 0.897E-03
CGA:   8    -0.285221155531E+03   -0.26076E-01   -0.26073E-01  7296   0.862E-01-0.671E-04
CGA:   9    -0.285230031182E+03   -0.88757E-02   -0.88889E-02  7296   0.424E-01 0.131E-03
CGA:  10    -0.285236140993E+03   -0.61098E-02   -0.61103E-02  7296   0.142E-01-0.138E-04
CGA:  11    -0.285238041814E+03   -0.19008E-02   -0.19007E-02  7296   0.104E-01 0.355E-04
CGA:  12    -0.285239445986E+03   -0.14042E-02   -0.14041E-02  7296   0.411E-02 0.129E-04
CGA:  13    -0.285240060054E+03   -0.61407E-03   -0.61379E-03  7296   0.319E-02 0.132E-04
CGA:  14    -0.285240469619E+03   -0.40957E-03   -0.40958E-03  7296   0.133E-02 0.416E-05
CGA:  15    -0.285240635070E+03   -0.16545E-03   -0.16549E-03  7296   0.798E-03 0.384E-05
CGA:  16    -0.285240754174E+03   -0.11910E-03   -0.11908E-03  7296   0.287E-03 0.134E-05
CGA:  17    -0.285240790509E+03   -0.36335E-04   -0.36346E-04  7296   0.215E-03 0.168E-05
CGA:  18    -0.285240818908E+03   -0.28399E-04   -0.28399E-04  7296   0.932E-04 0.114E-05
CGA:  19    -0.285240830896E+03   -0.11988E-04   -0.11993E-04  7296   0.619E-04 0.120E-05
CGA:  20    -0.285240842097E+03   -0.11201E-04   -0.11160E-04  7296   0.508E-04 0.884E-06
CGA:  21    -0.285240848575E+03   -0.64780E-05   -0.64831E-05  7296   0.330E-04 0.591E-06
  11 F= -.28524085E+03 E0= -.28523289E+03  d E =-.489921E-01  mag=    18.0000
       N       E                     dE             d eps       ncg     rms          ort
SDA:   1    -0.281682731511E+03    0.35581E+01    0.00000E+00  7296   0.120E+02 0.000E+00
CGA:   2    -0.283566290188E+03   -0.18836E+01   -0.18790E+01  7296   0.763E+01 0.150E+00
CGA:   3    -0.284474606610E+03   -0.90832E+00   -0.90156E+00  7296   0.469E+01-0.896E-01
CGA:   4    -0.285039349909E+03   -0.56474E+00   -0.56531E+00  7296   0.143E+01 0.132E-01
CGA:   5    -0.285192317234E+03   -0.15297E+00   -0.15267E+00  7296   0.512E+00-0.191E-02
CGA:   6    -0.285242204640E+03   -0.49887E-01   -0.49967E-01  7296   0.165E+00 0.256E-03
CGA:   7    -0.285260693544E+03   -0.18489E-01   -0.18474E-01  7296   0.715E-01-0.206E-03
CGA:   8    -0.285269405855E+03   -0.87123E-02   -0.87154E-02  7296   0.220E-01 0.136E-03
CGA:   9    -0.285272613715E+03   -0.32079E-02   -0.32080E-02  7296   0.142E-01-0.260E-05
CGA:  10    -0.285274060694E+03   -0.14470E-02   -0.14478E-02  7296   0.437E-02 0.133E-04
CGA:  11    -0.285274733027E+03   -0.67233E-03   -0.67222E-03  7296   0.337E-02 0.536E-05
CGA:  12    -0.285275103137E+03   -0.37011E-03   -0.37031E-03  7296   0.132E-02 0.701E-05
CGA:  13    -0.285275301793E+03   -0.19866E-03   -0.19862E-03  7296   0.103E-02 0.208E-05
CGA:  14    -0.285275428573E+03   -0.12678E-03   -0.12682E-03  7296   0.380E-03 0.413E-05
CGA:  15    -0.285275482310E+03   -0.53737E-04   -0.53729E-04  7296   0.281E-03 0.945E-06
CGA:  16    -0.285275519847E+03   -0.37537E-04   -0.37535E-04  7296   0.935E-04 0.207E-05
CGA:  17    -0.285275533880E+03   -0.14033E-04   -0.14027E-04  7296   0.851E-04 0.311E-06
CGA:  18    -0.285275544231E+03   -0.10351E-04   -0.10362E-04  7296   0.371E-04 0.899E-06
CGA:  19    -0.285275549584E+03   -0.53530E-05   -0.53487E-05  7296   0.300E-04 0.417E-06
  12 F= -.28527555E+03 E0= -.28526742E+03  d E =-.347010E-01  mag=    18.0000
       N       E                     dE             d eps       ncg     rms          ort
SDA:   1    -0.284122570209E+03    0.11530E+01    0.00000E+00  7296   0.325E+01 0.000E+00
CGA:   2    -0.284815173997E+03   -0.69260E+00   -0.69098E+00  7296   0.238E+01 0.179E-01
CGA:   3    -0.285095507128E+03   -0.28033E+00   -0.27875E+00  7296   0.121E+01-0.193E-01
CGA:   4    -0.285220360883E+03   -0.12485E+00   -0.12515E+00  7296   0.337E+00 0.156E-02
CGA:   5    -0.285256211242E+03   -0.35850E-01   -0.35813E-01  7296   0.122E+00-0.244E-03
CGA:   6    -0.285268778501E+03   -0.12567E-01   -0.12577E-01  7296   0.415E-01 0.626E-04
CGA:   7    -0.285273431325E+03   -0.46528E-02   -0.46513E-02  7296   0.182E-01-0.231E-04
CGA:   8    -0.285275540207E+03   -0.21089E-02   -0.21094E-02  7296   0.559E-02 0.126E-04
CGA:   9    -0.285276359128E+03   -0.81892E-03   -0.81896E-03  7296   0.363E-02-0.104E-05
CGA:  10    -0.285276701294E+03   -0.34217E-03   -0.34243E-03  7296   0.116E-02 0.365E-05
CGA:  11    -0.285276901924E+03   -0.20063E-03   -0.20054E-03  7296   0.854E-03 0.212E-05
CGA:  12    -0.285277003584E+03   -0.10166E-03   -0.10170E-03  7296   0.400E-03 0.240E-05
CGA:  13    -0.285277064931E+03   -0.61346E-04   -0.61338E-04  7296   0.317E-03 0.463E-06
CGA:  14    -0.285277101910E+03   -0.36980E-04   -0.37002E-04  7296   0.110E-03 0.131E-05
CGA:  15    -0.285277119155E+03   -0.17245E-04   -0.17242E-04  7296   0.885E-04 0.983E-07
CGA:  16    -0.285277128177E+03   -0.90217E-05   -0.90415E-05  7296   0.264E-04 0.620E-06
  13 F= -.28527713E+03 E0= -.28526898E+03  d E =-.157859E-02  mag=    18.0000
       N       E                     dE             d eps       ncg     rms          ort
SDA:   1    -0.281763271157E+03    0.35138E+01    0.00000E+00  7296   0.894E+01 0.000E+00
CGA:   2    -0.283967388892E+03   -0.22041E+01   -0.22116E+01  7296   0.966E+01-0.637E-01
CGA:   3    -0.284789141598E+03   -0.82175E+00   -0.83603E+00  7296   0.289E+01-0.151E-01
CGA:   4    -0.285126562814E+03   -0.33742E+00   -0.33671E+00  7296   0.102E+01-0.121E-01
CGA:   5    -0.285218790482E+03   -0.92228E-01   -0.93119E-01  7296   0.314E+00 0.116E-02
CGA:   6    -0.285254897872E+03   -0.36107E-01   -0.36061E-01  7296   0.120E+00-0.842E-03
CGA:   7    -0.285267537412E+03   -0.12640E-01   -0.12646E-01  7296   0.435E-01 0.662E-04
CGA:   8    -0.285273779301E+03   -0.62419E-02   -0.62419E-02  7296   0.134E-01 0.262E-06
CGA:   9    -0.285275433587E+03   -0.16543E-02   -0.16544E-02  7296   0.875E-02 0.117E-04
CGA:  10    -0.285276419279E+03   -0.98569E-03   -0.98561E-03  7296   0.282E-02 0.183E-05
CGA:  11    -0.285276820406E+03   -0.40113E-03   -0.40101E-03  7296   0.235E-02 0.797E-05
CGA:  12    -0.285277132270E+03   -0.31186E-03   -0.31186E-03  7296   0.110E-02 0.259E-05
CGA:  13    -0.285277278363E+03   -0.14609E-03   -0.14608E-03  7296   0.768E-03 0.491E-05
CGA:  14    -0.285277396030E+03   -0.11767E-03   -0.11761E-03  7296   0.331E-03 0.272E-05
CGA:  15    -0.285277436014E+03   -0.39984E-04   -0.40011E-04  7296   0.215E-03 0.234E-05
CGA:  16    -0.285277465639E+03   -0.29625E-04   -0.29618E-04  7296   0.802E-04 0.125E-05
CGA:  17    -0.285277475417E+03   -0.97779E-05   -0.97857E-05  7296   0.561E-04 0.755E-06
  14 F= -.28527748E+03 E0= -.28526922E+03  d E =-.347241E-03  mag=    18.0000
       N       E                     dE             d eps       ncg     rms          ort
SDA:   1    -0.271400676711E+03    0.13877E+02    0.00000E+00  7296   0.379E+02 0.000E+00
CGA:   2    -0.279391817027E+03   -0.79911E+01   -0.80095E+01  7296   0.381E+02-0.199E+00
CGA:   3    -0.282918048501E+03   -0.35262E+01   -0.35988E+01  7296   0.138E+02 0.221E+00
CGA:   4    -0.284609305364E+03   -0.16913E+01   -0.16888E+01  7296   0.421E+01-0.777E-01
CGA:   5    -0.284982287587E+03   -0.37298E+00   -0.38084E+00  7296   0.156E+01 0.132E-01
CGA:   6    -0.285154331646E+03   -0.17204E+00   -0.17150E+00  7296   0.474E+00-0.717E-02
CGA:   7    -0.285212835164E+03   -0.58504E-01   -0.58518E-01  7296   0.213E+00 0.114E-02
CGA:   8    -0.285238171460E+03   -0.25336E-01   -0.25334E-01  7296   0.637E-01-0.349E-04
CGA:   9    -0.285247241678E+03   -0.90702E-02   -0.90660E-02  7296   0.403E-01 0.205E-03
CGA:  10    -0.285251447076E+03   -0.42054E-02   -0.42008E-02  7296   0.129E-01-0.282E-04
CGA:  11    -0.285253502020E+03   -0.20549E-02   -0.20531E-02  7296   0.112E-01 0.481E-04
CGA:  12    -0.285254705333E+03   -0.12033E-02   -0.12034E-02  7296   0.451E-02 0.992E-05
CGA:  13    -0.285255489092E+03   -0.78376E-03   -0.78258E-03  7296   0.352E-02 0.247E-04
CGA:  14    -0.285255900556E+03   -0.41146E-03   -0.41161E-03  7296   0.138E-02 0.966E-05
CGA:  15    -0.285256110662E+03   -0.21011E-03   -0.20988E-03  7296   0.942E-03 0.981E-05
CGA:  16    -0.285256218760E+03   -0.10810E-03   -0.10816E-03  7296   0.314E-03 0.397E-05
CGA:  17    -0.285256266242E+03   -0.47482E-04   -0.47425E-04  7296   0.271E-03 0.288E-05
CGA:  18    -0.285256297107E+03   -0.30865E-04   -0.30881E-04  7296   0.111E-03 0.915E-06
CGA:  19    -0.285256317008E+03   -0.19901E-04   -0.19850E-04  7296   0.114E-03 0.104E-05
CGA:  20    -0.285256336395E+03   -0.19386E-04   -0.19388E-04  7296   0.828E-04-0.297E-07
CGA:  21    -0.285256350882E+03   -0.14487E-04   -0.14479E-04  7296   0.939E-04 0.165E-06
CGA:  22    -0.285256367275E+03   -0.16393E-04   -0.16434E-04  7296   0.668E-04-0.107E-05
CGA:  23    -0.285256375950E+03   -0.86749E-05   -0.86720E-05  7296   0.525E-04-0.407E-06
  15 F= -.28525638E+03 E0= -.28524856E+03  d E =0.210995E-01  mag=    18.0000
       N       E                     dE             d eps       ncg     rms          ort
SDA:   1    -0.282036362564E+03    0.32200E+01    0.00000E+00  7296   0.105E+02 0.000E+00
CGA:   2    -0.283821186644E+03   -0.17848E+01   -0.17849E+01  7296   0.719E+01-0.435E-03
CGA:   3    -0.284618343831E+03   -0.79716E+00   -0.80282E+00  7296   0.390E+01 0.506E-01
CGA:   4    -0.285112428704E+03   -0.49408E+00   -0.49349E+00  7296   0.100E+01-0.167E-01
CGA:   5    -0.285235014094E+03   -0.12259E+00   -0.12267E+00  7296   0.422E+00 0.198E-02
CGA:   6    -0.285271440534E+03   -0.36426E-01   -0.36220E-01  7296   0.140E+00 0.441E-03
CGA:   7    -0.285290790753E+03   -0.19350E-01   -0.19349E-01  7296   0.527E-01 0.242E-03
CGA:   8    -0.285295998154E+03   -0.52074E-02   -0.52020E-02  7296   0.235E-01-0.623E-05
CGA:   9    -0.285299418526E+03   -0.34204E-02   -0.34198E-02  7296   0.880E-02 0.335E-04
CGA:  10    -0.285300453813E+03   -0.10353E-02   -0.10352E-02  7296   0.472E-02-0.656E-06
CGA:  11    -0.285301120699E+03   -0.66689E-03   -0.66681E-03  7296   0.228E-02 0.780E-05
CGA:  12    -0.285301379200E+03   -0.25850E-03   -0.25850E-03  7296   0.131E-02 0.117E-05
CGA:  13    -0.285301585847E+03   -0.20665E-03   -0.20652E-03  7296   0.711E-03 0.489E-05
CGA:  14    -0.285301658202E+03   -0.72355E-04   -0.72371E-04  7296   0.351E-03 0.695E-06
CGA:  15    -0.285301717785E+03   -0.59583E-04   -0.59488E-04  7296   0.156E-03 0.254E-05
CGA:  16    -0.285301735399E+03   -0.17615E-04   -0.17617E-04  7296   0.924E-04 0.131E-06
CGA:  17    -0.285301749170E+03   -0.13771E-04   -0.13760E-04  7296   0.428E-04 0.673E-06
CGA:  18    -0.285301754269E+03   -0.50985E-05   -0.51022E-05  7296   0.255E-04 0.238E-06
  16 F= -.28530175E+03 E0= -.28529372E+03  d E =-.453783E-01  mag=    18.0000
       N       E                     dE             d eps       ncg     rms          ort
SDA:   1    -0.284811950982E+03    0.48980E+00    0.00000E+00  7296   0.146E+01 0.000E+00
CGA:   2    -0.285093896131E+03   -0.28195E+00   -0.28204E+00  7296   0.111E+01-0.130E-02
CGA:   3    -0.285212206054E+03   -0.11831E+00   -0.11853E+00  7296   0.604E+00 0.166E-02
CGA:   4    -0.285279660093E+03   -0.67454E-01   -0.67475E-01  7296   0.153E+00 0.262E-03
CGA:   5    -0.285296907411E+03   -0.17247E-01   -0.17236E-01  7296   0.621E-01-0.153E-03
CGA:   6    -0.285302641978E+03   -0.57346E-02   -0.57430E-02  7296   0.182E-01 0.191E-04
CGA:   7    -0.285305124097E+03   -0.24821E-02   -0.24822E-02  7296   0.783E-02-0.787E-05
CGA:   8    -0.285305913275E+03   -0.78918E-03   -0.78957E-03  7296   0.308E-02 0.614E-05
CGA:   9    -0.285306327184E+03   -0.41391E-03   -0.41392E-03  7296   0.161E-02-0.144E-05
CGA:  10    -0.285306493970E+03   -0.16679E-03   -0.16688E-03  7296   0.542E-03 0.213E-05
CGA:  11    -0.285306588314E+03   -0.94344E-04   -0.94324E-04  7296   0.381E-03 0.484E-06
CGA:  12    -0.285306629575E+03   -0.41262E-04   -0.41285E-04  7296   0.179E-03 0.943E-06
CGA:  13    -0.285306660176E+03   -0.30601E-04   -0.30587E-04  7296   0.135E-03 0.358E-06
CGA:  14    -0.285306674085E+03   -0.13909E-04   -0.13932E-04  7296   0.532E-04 0.748E-06
CGA:  15    -0.285306683082E+03   -0.89972E-05   -0.89891E-05  7296   0.382E-04 0.221E-06
  17 F= -.28530668E+03 E0= -.28529863E+03  d E =-.492881E-02  mag=    18.0000
       N       E                     dE             d eps       ncg     rms          ort
SDA:   1    -0.285159512448E+03    0.14716E+00    0.00000E+00  7296   0.389E+00 0.000E+00
CGA:   2    -0.285248290018E+03   -0.88778E-01   -0.88786E-01  7296   0.316E+00-0.752E-04
CGA:   3    -0.285283686052E+03   -0.35396E-01   -0.35415E-01  7296   0.153E+00 0.228E-03
CGA:   4    -0.285299778603E+03   -0.16093E-01   -0.16087E-01  7296   0.318E-01-0.491E-04
CGA:   5    -0.285303752840E+03   -0.39742E-02   -0.39744E-02  7296   0.115E-01 0.817E-05
CGA:   6    -0.285304838163E+03   -0.10853E-02   -0.10848E-02  7296   0.448E-02-0.322E-05
CGA:   7    -0.285305418266E+03   -0.58010E-03   -0.58011E-03  7296   0.167E-02 0.349E-05
CGA:   8    -0.285305585924E+03   -0.16766E-03   -0.16760E-03  7296   0.750E-03-0.505E-06
CGA:   9    -0.285305684791E+03   -0.98867E-04   -0.98863E-04  7296   0.291E-03 0.141E-05
CGA:  10    -0.285305716096E+03   -0.31305E-04   -0.31300E-04  7296   0.143E-03-0.173E-06
CGA:  11    -0.285305737902E+03   -0.21806E-04   -0.21791E-04  7296   0.836E-04 0.633E-06
CGA:  12    -0.285305747659E+03   -0.97567E-05   -0.97552E-05  7296   0.445E-04-0.113E-06
  18 F= -.28530575E+03 E0= -.28529771E+03  d E =0.935423E-03  mag=    18.0000
       N       E                     dE             d eps       ncg     rms          ort
SDA:   1    -0.284469377480E+03    0.83636E+00    0.00000E+00  7296   0.220E+01 0.000E+00
CGA:   2    -0.284948810482E+03   -0.47943E+00   -0.47914E+00  7296   0.223E+01 0.319E-02
CGA:   3    -0.285160207371E+03   -0.21140E+00   -0.21115E+00  7296   0.824E+00-0.440E-03
CGA:   4    -0.285258807365E+03   -0.98600E-01   -0.98644E-01  7296   0.238E+00 0.125E-02
CGA:   5    -0.285282354971E+03   -0.23548E-01   -0.23507E-01  7296   0.806E-01-0.193E-03
CGA:   6    -0.285291624528E+03   -0.92696E-02   -0.92718E-02  7296   0.244E-01 0.515E-04
CGA:   7    -0.285294460978E+03   -0.28364E-02   -0.28361E-02  7296   0.131E-01-0.819E-05
CGA:   8    -0.285295836174E+03   -0.13752E-02   -0.13758E-02  7296   0.397E-02 0.125E-04
CGA:   9    -0.285296335523E+03   -0.49935E-03   -0.49933E-03  7296   0.234E-02-0.246E-05
CGA:  10    -0.285296603079E+03   -0.26756E-03   -0.26762E-03  7296   0.709E-03 0.351E-05
CGA:  11    -0.285296712368E+03   -0.10929E-03   -0.10928E-03  7296   0.619E-03 0.547E-06
CGA:  12    -0.285296789605E+03   -0.77237E-04   -0.77244E-04  7296   0.219E-03 0.171E-05
CGA:  13    -0.285296830246E+03   -0.40641E-04   -0.40555E-04  7296   0.204E-03 0.155E-05
CGA:  14    -0.285296851524E+03   -0.21278E-04   -0.21327E-04  7296   0.718E-04 0.175E-05
CGA:  15    -0.285296861796E+03   -0.10272E-04   -0.10263E-04  7296   0.510E-04 0.739E-06
CGA:  16    -0.285296867829E+03   -0.60332E-05   -0.60448E-05  7296   0.143E-04 0.867E-06
  19 F= -.28529687E+03 E0= -.28528882E+03  d E =0.887983E-02  mag=    18.0000
       N       E                     dE             d eps       ncg     rms          ort
SDA:   1    -0.284818514483E+03    0.47835E+00    0.00000E+00  7296   0.145E+01 0.000E+00
CGA:   2    -0.285080049916E+03   -0.26154E+00   -0.26154E+00  7296   0.988E+00 0.740E-05
CGA:   3    -0.285199268530E+03   -0.11922E+00   -0.11921E+00  7296   0.618E+00-0.195E-03
CGA:   4    -0.285268084429E+03   -0.68816E-01   -0.68827E-01  7296   0.144E+00 0.169E-03
CGA:   5    -0.285285987774E+03   -0.17903E-01   -0.17902E-01  7296   0.477E-01-0.890E-04
CGA:   6    -0.285290398613E+03   -0.44108E-02   -0.44156E-02  7296   0.177E-01 0.131E-04
CGA:   7    -0.285292763199E+03   -0.23646E-02   -0.23647E-02  7296   0.615E-02-0.846E-05
CGA:   8    -0.285293420605E+03   -0.65741E-03   -0.65765E-03  7296   0.316E-02 0.661E-05
CGA:   9    -0.285293828147E+03   -0.40754E-03   -0.40754E-03  7296   0.112E-02 0.309E-07
CGA:  10    -0.285293951270E+03   -0.12312E-03   -0.12316E-03  7296   0.601E-03 0.163E-05
CGA:  11    -0.285294036182E+03   -0.84912E-04   -0.84919E-04  7296   0.301E-03-0.450E-06
CGA:  12    -0.285294069579E+03   -0.33397E-04   -0.33411E-04  7296   0.170E-03 0.816E-06
CGA:  13    -0.285294098874E+03   -0.29296E-04   -0.29274E-04  7296   0.849E-04 0.505E-06
CGA:  14    -0.285294108633E+03   -0.97583E-05   -0.97663E-05  7296   0.507E-04 0.558E-06
  20 F= -.28529411E+03 E0= -.28528606E+03  d E =0.275920E-02  mag=    18.0000
       N       E                     dE             d eps       ncg     rms          ort
SDA:   1    -0.285070805906E+03    0.22329E+00    0.00000E+00  7296   0.703E+00 0.000E+00
CGA:   2    -0.285193412494E+03   -0.12261E+00   -0.12257E+00  7296   0.562E+00 0.680E-03
CGA:   3    -0.285250702466E+03   -0.57290E-01   -0.57230E-01  7296   0.274E+00-0.365E-03
CGA:   4    -0.285285322205E+03   -0.34620E-01   -0.34618E-01  7296   0.764E-01-0.220E-03
CGA:   5    -0.285293652817E+03   -0.83306E-02   -0.83357E-02  7296   0.308E-01 0.824E-04
CGA:   6    -0.285296569285E+03   -0.29165E-02   -0.29139E-02  7296   0.919E-02-0.112E-04
CGA:   7    -0.285297738343E+03   -0.11691E-02   -0.11691E-02  7296   0.421E-02 0.624E-05
CGA:   8    -0.285298177832E+03   -0.43949E-03   -0.43937E-03  7296   0.139E-02-0.317E-05
CGA:   9    -0.285298378010E+03   -0.20018E-03   -0.20015E-03  7296   0.831E-03 0.127E-05
CGA:  10    -0.285298460288E+03   -0.82277E-04   -0.82252E-04  7296   0.267E-03-0.458E-06
CGA:  11    -0.285298504288E+03   -0.44000E-04   -0.43969E-04  7296   0.191E-03 0.809E-06
CGA:  12    -0.285298525166E+03   -0.20878E-04   -0.20880E-04  7296   0.790E-04 0.131E-06
CGA:  13    -0.285298539309E+03   -0.14143E-04   -0.14128E-04  7296   0.581E-04 0.286E-06
CGA:  14    -0.285298545343E+03   -0.60344E-05   -0.60271E-05  7296   0.247E-04-0.275E-06
  21 F= -.28529855E+03 E0= -.28529050E+03  d E =-.443671E-02  mag=    18.0000
