       N       E                     dE             d eps       ncg     rms          rms(c)
DAV:   1     0.666472523386E+04    0.66647E+04   -0.28424E+05 38376   0.152E+03
DAV:   2     0.358803775172E+03   -0.63059E+04   -0.59378E+04 38824   0.468E+02
DAV:   3    -0.385765442372E+03   -0.74457E+03   -0.73081E+03 40832   0.170E+02
DAV:   4    -0.417173953654E+03   -0.31409E+02   -0.30922E+02 50592   0.313E+01
DAV:   5    -0.419816588960E+03   -0.26426E+01   -0.26291E+01 66344   0.687E+00    0.603E+01
DAV:   6    -0.372451458109E+03    0.47365E+02   -0.26531E+02 43360   0.368E+01    0.445E+01
DAV:   7    -0.383234031836E+03   -0.10783E+02   -0.40205E+01 42288   0.202E+01    0.573E+01
DAV:   8    -0.385467125086E+03   -0.22331E+01   -0.43821E+01 44720   0.132E+01    0.505E+01
DAV:   9    -0.376813814505E+03    0.86533E+01   -0.34046E+01 43328   0.919E+00    0.284E+01
DAV:  10    -0.381945971096E+03   -0.51322E+01   -0.33393E+00 43328   0.440E+00    0.232E+01
DAV:  11    -0.384826858044E+03   -0.28809E+01   -0.51627E+00 44296   0.603E+00    0.183E+01
DAV:  12    -0.385129926258E+03   -0.30307E+00   -0.18995E+00 42416   0.371E+00    0.119E+01
DAV:  13    -0.385428026068E+03   -0.29810E+00   -0.10701E+00 46464   0.271E+00    0.859E+00
DAV:  14    -0.386163898853E+03   -0.73587E+00   -0.52676E-01 42344   0.154E+00    0.109E+01
DAV:  15    -0.386348247957E+03   -0.18435E+00   -0.89809E-02 42688   0.934E-01    0.986E+00
DAV:  16    -0.386879030497E+03   -0.53078E+00   -0.22712E-01 46880   0.161E+00    0.700E+00
DAV:  17    -0.388125355789E+03   -0.12463E+01   -0.72331E-01 48608   0.213E+00    0.106E+01
DAV:  18    -0.388408570615E+03   -0.28321E+00   -0.24516E-01 42376   0.161E+00    0.906E+00
DAV:  19    -0.388614820668E+03   -0.20625E+00   -0.15934E-01 47272   0.138E+00    0.360E+00
DAV:  20    -0.389206211915E+03   -0.59139E+00   -0.24184E-01 40848   0.987E-01    0.357E+00
DAV:  21    -0.389774433803E+03   -0.56822E+00   -0.28570E-01 44872   0.103E+00    0.275E+00
DAV:  22    -0.390149386856E+03   -0.37495E+00   -0.25467E-01 46456   0.115E+00    0.258E+00
DAV:  23    -0.390288279882E+03   -0.13889E+00   -0.12012E-01 42208   0.695E-01    0.462E+00
DAV:  24    -0.390326307854E+03   -0.38028E-01   -0.41799E-02 45504   0.630E-01    0.292E+00
DAV:  25    -0.390368729964E+03   -0.42422E-01   -0.59563E-02 46136   0.502E-01    0.177E+00
DAV:  26    -0.390398632711E+03   -0.29903E-01   -0.21552E-02 40272   0.382E-01    0.158E+00
DAV:  27    -0.390403308659E+03   -0.46759E-02   -0.95284E-03 48256   0.329E-01    0.739E-01
DAV:  28    -0.390406941808E+03   -0.36331E-02   -0.18895E-02 40520   0.228E-01    0.701E-01
DAV:  29    -0.390406822560E+03    0.11925E-03   -0.32368E-03 44400   0.150E-01    0.399E-01
DAV:  30    -0.390406827233E+03   -0.46725E-05   -0.16542E-03 45424   0.789E-02    0.195E-01
DAV:  31    -0.390406788876E+03    0.38357E-04   -0.44133E-04 43208   0.543E-02    0.133E-01
DAV:  32    -0.390406709665E+03    0.79211E-04   -0.92841E-05 40184   0.343E-02    0.107E-01
DAV:  33    -0.390406692217E+03    0.17449E-04   -0.60588E-05 40856   0.224E-02    0.119E-01
DAV:  34    -0.390406675909E+03    0.16308E-04   -0.28364E-05 33248   0.135E-02    0.890E-02
DAV:  35    -0.390406669060E+03    0.68492E-05   -0.83598E-06 29552   0.978E-03
   1 F= -.39040667E+03 E0= -.39039923E+03  d E =-.390407E+03  mag=    48.0034
