       N       E                     dE             d eps       ncg     rms          rms(c)
DAV:   1     0.650111329731E+04    0.65011E+04   -0.27562E+05 35760   0.159E+03
DAV:   2     0.454225410393E+03   -0.60469E+04   -0.57477E+04 35712   0.481E+02
DAV:   3    -0.345473395852E+03   -0.79970E+03   -0.77920E+03 40864   0.177E+02
DAV:   4    -0.388950319998E+03   -0.43477E+02   -0.42541E+02 48208   0.421E+01
DAV:   5    -0.392041882371E+03   -0.30916E+01   -0.30867E+01 65584   0.889E+00    0.616E-01
DAV:   6    -0.392234866210E+03   -0.19298E+00   -0.95603E-01 52064   0.146E+00    0.450E-01
DAV:   7    -0.392238953798E+03   -0.40876E-02   -0.40238E-02 63216   0.314E-01    0.196E-01
DAV:   8    -0.392239133712E+03   -0.17991E-03   -0.27734E-03 52784   0.736E-02    0.177E-01
DAV:   9    -0.392239110214E+03    0.23498E-04   -0.18745E-04 40272   0.215E-02    0.143E-01
DAV:  10    -0.392239088220E+03    0.21993E-04   -0.35342E-05 35888   0.128E-02    0.110E-01
DAV:  11    -0.392239068958E+03    0.19262E-04   -0.10420E-04 42224   0.235E-02    0.357E-02
DAV:  12    -0.392239071062E+03   -0.21042E-05   -0.16714E-05 30000   0.897E-03
   1 F= -.39223907E+03 E0= -.39223907E+03  d E =-.392239E+03  mag=    36.0000
