       N       E                     dE             d eps       ncg     rms          ort
DAV:   1     0.897645259047E+04    0.89765E+04   -0.41395E+05  8208   0.179E+03
DAV:   2     0.633609676736E+03   -0.83428E+04   -0.78166E+04  8208   0.528E+02
DAV:   3    -0.346186306688E+03   -0.97980E+03   -0.94460E+03  8208   0.203E+02
DAV:   4    -0.389921327273E+03   -0.43735E+02   -0.43198E+02  8208   0.401E+01
DAV:   5    -0.391963915395E+03   -0.20426E+01   -0.20232E+01  8208   0.736E+00
SDA:   6    -0.178181274196E+03    0.21378E+03   -0.20232E+01  8208   0.145E+04 0.000E+00
CGA:   7    -0.295452990276E+03   -0.11727E+03   -0.11853E+03  8208   0.461E+03 0.188E+03
CGA:   8    -0.312038123013E+03   -0.16585E+02   -0.13276E+02  8208   0.273E+03 0.236E+03
CGA:   9    -0.320476184684E+03   -0.84381E+01   -0.15785E+02  8208   0.906E+02 0.265E+02
CGA:  10    -0.323774823051E+03   -0.32986E+01   -0.39966E+01  8208   0.425E+03-0.492E+02
CGA:  11    -0.326377273751E+03   -0.26025E+01   -0.22440E+02  8208   0.204E+03-0.283E+02
CGA:  12    -0.328944220971E+03   -0.25669E+01   -0.57870E+01  8208   0.890E+02-0.121E+02
CGA:  13    -0.327182834040E+03    0.17614E+01   -0.33359E+01  8208   0.676E+03-0.292E+03
CGA:  14    -0.326445376913E+03    0.73746E+00   -0.33413E+02  8208   0.561E+03-0.574E+02
CGA:  15    -0.329536168832E+03   -0.30908E+01   -0.15864E+02  8208   0.138E+03 0.406E+01
CGA:  16    -0.333350425756E+03   -0.38143E+01   -0.36707E+01  8208   0.137E+03-0.743E+02
CGA:  17    -0.328178966311E+03    0.51715E+01   -0.57914E+01  8208   0.601E+03-0.111E+03
CGA:  18    -0.332035339380E+03   -0.38564E+01   -0.16500E+02  8208   0.259E+03-0.221E+03
CGA:  19    -0.334867314201E+03   -0.28320E+01   -0.52879E+01  8208   0.129E+03-0.353E+02
CGA:  20    -0.324873603994E+03    0.99937E+01   -0.60673E+01  8208   0.978E+03 0.305E+02
CGA:  21    -0.310360697602E+03    0.14513E+02   -0.40445E+02  8208   0.873E+03-0.895E+03
CGA:  22    -0.337316635912E+03   -0.26956E+02   -0.26286E+02  8208   0.963E+02 0.373E+03
CGA:  23    -0.337041159452E+03    0.27548E+00   -0.47719E+01  8208   0.127E+03-0.795E+02
CGA:  24    -0.338459469909E+03   -0.14183E+01   -0.47572E+01  8208   0.361E+02-0.188E+02
CGA:  25    -0.339224049915E+03   -0.76458E+00   -0.56998E+00  8208   0.157E+02 0.101E+02
CGA:  26    -0.339545749680E+03   -0.32170E+00   -0.17277E+00  8208   0.101E+02 0.157E+02
CGA:  27    -0.339731166673E+03   -0.18542E+00   -0.11831E+00  8208   0.279E+01 0.518E+01
CGA:  28    -0.339812827476E+03   -0.81661E-01   -0.66405E-01  8208   0.157E+01 0.512E+00
CGA:  29    -0.339632490349E+03    0.18034E+00   -0.43947E+00  8208   0.469E+02-0.284E+01
CGA:  30    -0.339466337442E+03    0.16615E+00   -0.13130E+01  8208   0.764E+02-0.571E+02
CGA:  31    -0.339720442986E+03   -0.25411E+00   -0.18514E+01  8208   0.558E+02-0.565E+02
CGA:  32    -0.339911364974E+03   -0.19092E+00   -0.13986E+01  8208   0.436E+02-0.464E+02
CGA:  33    -0.340516431483E+03   -0.60507E+00   -0.71459E+00  8208   0.451E+01-0.113E+02
CGA:  34    -0.340603828757E+03   -0.87397E-01   -0.79735E-01  8208   0.819E+00 0.208E+00
CGA:  35    -0.340706739119E+03   -0.10291E+00   -0.10169E+00  8208   0.341E+01 0.263E-01
CGA:  36    -0.340780885029E+03   -0.74146E-01   -0.45142E-01  8208   0.191E+01 0.228E+01
CGA:  37    -0.340815577715E+03   -0.34693E-01   -0.37035E-01  8208   0.458E+00-0.107E+00
CGA:  38    -0.340861675993E+03   -0.46098E-01   -0.44495E-01  8208   0.130E+01 0.422E-01
CGA:  39    -0.340929019727E+03   -0.67344E-01   -0.42384E-01  8208   0.427E+00 0.811E+00
CGA:  40    -0.340943353496E+03   -0.14334E-01   -0.15200E-01  8208   0.320E+00-0.123E-01
CGA:  41    -0.340977493448E+03   -0.34140E-01   -0.32422E-01  8208   0.660E+00 0.398E-01
CGA:  42    -0.341026999781E+03   -0.49506E-01   -0.39521E-01  8208   0.245E+00 0.640E-01
CGA:  43    -0.341041432008E+03   -0.14432E-01   -0.13733E-01  8208   0.257E+00-0.610E-03
CGA:  44    -0.341060930096E+03   -0.19498E-01   -0.19561E-01  8208   0.419E+00-0.674E-02
CGA:  45    -0.341073174456E+03   -0.12244E-01   -0.10947E-01  8208   0.197E+00 0.411E-01
CGA:  46    -0.341079328302E+03   -0.61538E-02   -0.67585E-02  8208   0.126E+00-0.105E-01
CGA:  47    -0.341083860081E+03   -0.45318E-02   -0.49594E-02  8208   0.759E-01-0.201E-02
CGA:  48    -0.341088642299E+03   -0.47822E-02   -0.47931E-02  8208   0.762E-01 0.257E-02
CGA:  49    -0.341091950528E+03   -0.33082E-02   -0.33633E-02  8208   0.463E-01-0.491E-03
CGA:  50    -0.341094993779E+03   -0.30433E-02   -0.30358E-02  8208   0.323E-01 0.259E-02
CGA:  51    -0.341097436053E+03   -0.24423E-02   -0.24328E-02  8208   0.289E-01 0.757E-03
CGA:  52    -0.341099498061E+03   -0.20620E-02   -0.20543E-02  8208   0.283E-01 0.935E-03
CGA:  53    -0.341101207183E+03   -0.17091E-02   -0.17234E-02  8208   0.155E-01 0.913E-03
CGA:  54    -0.341103039888E+03   -0.18327E-02   -0.18301E-02  8208   0.165E-01 0.329E-04
CGA:  55    -0.341104393858E+03   -0.13540E-02   -0.13291E-02  8208   0.626E-02 0.125E-02
CGA:  56    -0.341104915885E+03   -0.52203E-03   -0.52171E-03  8208   0.987E-02 0.151E-04
CGA:  57    -0.341105903879E+03   -0.98799E-03   -0.98362E-03  8208   0.537E-02 0.104E-03
CGA:  58    -0.341106505881E+03   -0.60200E-03   -0.57941E-03  8208   0.387E-02 0.501E-03
CGA:  59    -0.341106939985E+03   -0.43410E-03   -0.43529E-03  8208   0.273E-02-0.306E-04
CGA:  60    -0.341107300464E+03   -0.36048E-03   -0.35184E-03  8208   0.426E-02 0.140E-03
CGA:  61    -0.341107560217E+03   -0.25975E-03   -0.25923E-03  8208   0.237E-02-0.108E-05
CGA:  62    -0.341107791002E+03   -0.23079E-03   -0.22977E-03  8208   0.132E-02 0.360E-04
CGA:  63    -0.341107946416E+03   -0.15541E-03   -0.15488E-03  8208   0.115E-02 0.127E-04
CGA:  64    -0.341108047917E+03   -0.10150E-03   -0.10122E-03  8208   0.115E-02 0.246E-04
CGA:  65    -0.341108125163E+03   -0.77246E-04   -0.77564E-04  8208   0.550E-03 0.192E-04
CGA:  66    -0.341108195280E+03   -0.70116E-04   -0.69056E-04  8208   0.513E-03 0.232E-04
CGA:  67    -0.341108261587E+03   -0.66308E-04   -0.65055E-04  8208   0.488E-03 0.295E-04
CGA:  68    -0.341108296250E+03   -0.34663E-04   -0.34879E-04  8208   0.383E-03 0.120E-04
CGA:  69    -0.341108340629E+03   -0.44379E-04   -0.43960E-04  8208   0.267E-03 0.135E-04
SDA:  70    -0.341108374243E+03   -0.33613E-04   -0.33157E-04  8208   0.262E-03 0.121E-04
CGA:  71    -0.341108386338E+03   -0.12095E-04   -0.12064E-04  8208   0.126E-03-0.353E-06
CGA:  72    -0.341108401683E+03   -0.15345E-04   -0.15387E-04  8208   0.158E-03-0.117E-05
CGA:  73    -0.341108418234E+03   -0.16551E-04   -0.16566E-04  8208   0.140E-03-0.944E-06
CGA:  74    -0.341108460371E+03   -0.42137E-04   -0.44751E-04  8208   0.110E-03-0.111E-04
CGA:  75    -0.341108469248E+03   -0.88772E-05   -0.88793E-05  8208   0.115E-03-0.127E-06
   1 F= -.34110847E+03 E0= -.34109132E+03  d E =-.341108E+03  mag=    30.7037
       N       E                     dE             d eps       ncg     rms          ort
SDA:   1    -0.341179780384E+03   -0.71320E-01    0.00000E+00  8208   0.688E-01 0.000E+00
CGA:   2    -0.341182228307E+03   -0.24479E-02   -0.24971E-02  8208   0.185E-01-0.950E-03
CGA:   3    -0.341184549464E+03   -0.23212E-02   -0.23221E-02  8208   0.192E-01-0.143E-04
CGA:   4    -0.341186544200E+03   -0.19947E-02   -0.19948E-02  8208   0.477E-02-0.658E-05
CGA:   5    -0.341186879434E+03   -0.33523E-03   -0.33576E-03  8208   0.290E-02-0.246E-05
CGA:   6    -0.341187124335E+03   -0.24490E-03   -0.24479E-03  8208   0.179E-02-0.100E-04
CGA:   7    -0.341187220918E+03   -0.96583E-04   -0.96152E-04  8208   0.378E-03-0.613E-06
CGA:   8    -0.341187275453E+03   -0.54535E-04   -0.54236E-04  8208   0.197E-03 0.585E-05
CGA:   9    -0.341187292091E+03   -0.16638E-04   -0.16660E-04  8208   0.198E-03 0.188E-05
CGA:  10    -0.341187306144E+03   -0.14053E-04   -0.14093E-04  8208   0.725E-04 0.174E-05
CGA:  11    -0.341187317492E+03   -0.11348E-04   -0.11173E-04  8208   0.628E-04 0.289E-05
CGA:  12    -0.341187323501E+03   -0.60088E-05   -0.60138E-05  8208   0.592E-04 0.131E-05
   2 F= -.34118732E+03 E0= -.34117041E+03  d E =-.788543E-01  mag=    30.6695
       N       E                     dE             d eps       ncg     rms          ort
SDA:   1    -0.317324038745E+03    0.23863E+02    0.00000E+00  8208   0.867E+02 0.000E+00
CGA:   2    -0.332285280150E+03   -0.14961E+02   -0.15162E+02  8208   0.768E+02 0.108E+02
CGA:   3    -0.339557765630E+03   -0.72725E+01   -0.67448E+01  8208   0.434E+02-0.343E+01
CGA:   4    -0.341380575722E+03   -0.18228E+01   -0.22519E+01  8208   0.568E+02-0.261E+01
CGA:   5    -0.343042659047E+03   -0.16621E+01   -0.13551E+01  8208   0.175E+02-0.108E+02
CGA:   6    -0.343797840701E+03   -0.75518E+00   -0.57957E+00  8208   0.122E+02 0.364E+01
CGA:   7    -0.344211485997E+03   -0.41365E+00   -0.43936E+00  8208   0.864E+01-0.825E+00
CGA:   8    -0.344376259162E+03   -0.16477E+00   -0.15066E+00  8208   0.661E+01 0.559E+00
CGA:   9    -0.344585993487E+03   -0.20973E+00   -0.22154E+00  8208   0.407E+01-0.154E+00
CGA:  10    -0.344678782204E+03   -0.92789E-01   -0.10636E+00  8208   0.481E+01-0.392E+00
CGA:  11    -0.344831704938E+03   -0.15292E+00   -0.13985E+00  8208   0.224E+01 0.337E+00
CGA:  12    -0.344872539956E+03   -0.40835E-01   -0.60387E-01  8208   0.117E+01-0.599E+00
CGA:  13    -0.344920329544E+03   -0.47790E-01   -0.48342E-01  8208   0.112E+01 0.832E-02
CGA:  14    -0.344952250702E+03   -0.31921E-01   -0.31192E-01  8208   0.314E+00 0.144E-01
CGA:  15    -0.344979144282E+03   -0.26894E-01   -0.26876E-01  8208   0.541E+00 0.851E-03
CGA:  16    -0.344997677814E+03   -0.18534E-01   -0.19688E-01  8208   0.209E+00-0.149E-01
CGA:  17    -0.345015658479E+03   -0.17981E-01   -0.17771E-01  8208   0.170E+00 0.800E-02
CGA:  18    -0.345021300033E+03   -0.56416E-02   -0.56947E-02  8208   0.693E-01-0.112E-02
CGA:  19    -0.345029046434E+03   -0.77464E-02   -0.76179E-02  8208   0.904E-01 0.266E-02
CGA:  20    -0.345034080818E+03   -0.50344E-02   -0.50671E-02  8208   0.619E-01 0.443E-03
CGA:  21    -0.345037808769E+03   -0.37280E-02   -0.37173E-02  8208   0.261E-01-0.317E-03
CGA:  22    -0.345039700038E+03   -0.18913E-02   -0.18893E-02  8208   0.154E-01 0.332E-03
CGA:  23    -0.345041001047E+03   -0.13010E-02   -0.12961E-02  8208   0.219E-01 0.251E-03
CGA:  24    -0.345042453883E+03   -0.14528E-02   -0.14535E-02  8208   0.593E-02 0.802E-04
CGA:  25    -0.345043131933E+03   -0.67805E-03   -0.67547E-03  8208   0.568E-02 0.546E-04
CGA:  26    -0.345043504050E+03   -0.37212E-03   -0.37273E-03  8208   0.595E-02 0.425E-04
CGA:  27    -0.345044036040E+03   -0.53199E-03   -0.53039E-03  8208   0.180E-02 0.720E-04
CGA:  28    -0.345044259985E+03   -0.22395E-03   -0.22312E-03  8208   0.286E-02 0.154E-04
CGA:  29    -0.345044439490E+03   -0.17951E-03   -0.17993E-03  8208   0.183E-02 0.101E-04
CGA:  30    -0.345044613320E+03   -0.17383E-03   -0.17398E-03  8208   0.115E-02-0.675E-05
CGA:  31    -0.345044721348E+03   -0.10803E-03   -0.10794E-03  8208   0.781E-03 0.292E-05
SDA:  32    -0.345044804527E+03   -0.83179E-04   -0.82928E-04  8208   0.120E-02 0.665E-05
CGA:  33    -0.345044844093E+03   -0.39565E-04   -0.39570E-04  8208   0.268E-03 0.202E-05
CGA:  34    -0.345044886049E+03   -0.41956E-04   -0.41420E-04  8208   0.380E-03 0.679E-05
CGA:  35    -0.345044933167E+03   -0.47118E-04   -0.46864E-04  8208   0.259E-03 0.603E-05
CGA:  36    -0.345044964990E+03   -0.31823E-04   -0.31961E-04  8208   0.187E-03-0.346E-05
CGA:  37    -0.345044989989E+03   -0.24999E-04   -0.25119E-04  8208   0.378E-03-0.248E-05
CGA:  38    -0.345045018151E+03   -0.28162E-04   -0.28155E-04  8208   0.226E-03-0.225E-05
CGA:  39    -0.345045041350E+03   -0.23200E-04   -0.23186E-04  8208   0.156E-03 0.697E-06
CGA:  40    -0.345045067569E+03   -0.26218E-04   -0.25682E-04  8208   0.194E-03 0.687E-05
CGA:  41    -0.345045092236E+03   -0.24667E-04   -0.24624E-04  8208   0.151E-03 0.144E-05
CGA:  42    -0.345045111114E+03   -0.18878E-04   -0.18843E-04  8208   0.164E-03 0.884E-06
CGA:  43    -0.345045120429E+03   -0.93153E-05   -0.94130E-05  8208   0.814E-04 0.731E-06
CGA:  44    -0.345045137726E+03   -0.17297E-04   -0.16630E-04  8208   0.738E-04 0.596E-05
CGA:  45    -0.345045145817E+03   -0.80914E-05   -0.80705E-05  8208   0.431E-04 0.436E-05
   3 F= -.34504515E+03 E0= -.34502859E+03  d E =-.385782E+01  mag=    30.5884
       N       E                     dE             d eps       ncg     rms          ort
SDA:   1    -0.258628877612E+03    0.86416E+02    0.00000E+00  8208   0.422E+03 0.000E+00
CGA:   2    -0.311711432610E+03   -0.53083E+02   -0.52111E+02  8208   0.204E+03-0.465E+02
CGA:   3    -0.328130909431E+03   -0.16419E+02   -0.17147E+02  8208   0.941E+02 0.418E+02
CGA:   4    -0.339791354746E+03   -0.11660E+02   -0.11690E+02  8208   0.485E+02-0.124E+02
CGA:   5    -0.343850294146E+03   -0.40589E+01   -0.47030E+01  8208   0.597E+02-0.325E+02
CGA:   6    -0.345347212594E+03   -0.14969E+01   -0.18189E+01  8208   0.421E+02-0.496E+02
CGA:   7    -0.345309779952E+03    0.37433E-01   -0.17814E+01  8208   0.362E+02-0.214E+02
CGA:   8    -0.346450997267E+03   -0.11412E+01   -0.79673E+00  8208   0.320E+01-0.349E+01
CGA:   9    -0.347209551875E+03   -0.75855E+00   -0.72275E+00  8208   0.267E+01 0.214E+00
CGA:  10    -0.347365256481E+03   -0.15570E+00   -0.17097E+00  8208   0.287E+01-0.824E-01
CGA:  11    -0.347503286028E+03   -0.13803E+00   -0.15227E+00  8208   0.255E+01-0.102E+00
CGA:  12    -0.347618837021E+03   -0.11555E+00   -0.12025E+00  8208   0.101E+01-0.215E-01
CGA:  13    -0.347670485666E+03   -0.51649E-01   -0.53965E-01  8208   0.107E+01-0.116E-01
CGA:  14    -0.347712387111E+03   -0.41901E-01   -0.37643E-01  8208   0.409E+00 0.849E-01
CGA:  15    -0.347740670965E+03   -0.28284E-01   -0.28168E-01  8208   0.521E+00-0.308E-03
CGA:  16    -0.347761502639E+03   -0.20832E-01   -0.21925E-01  8208   0.185E+00-0.129E-01
CGA:  17    -0.347771553039E+03   -0.10050E-01   -0.10455E-01  8208   0.242E+00 0.696E-03
CGA:  18    -0.347785364147E+03   -0.13811E-01   -0.14013E-01  8208   0.110E+00 0.574E-03
CGA:  19    -0.347792056148E+03   -0.66920E-02   -0.67341E-02  8208   0.107E+00 0.303E-03
CGA:  20    -0.347798602303E+03   -0.65462E-02   -0.66943E-02  8208   0.672E-01 0.167E-02
CGA:  21    -0.347802853560E+03   -0.42513E-02   -0.42706E-02  8208   0.607E-01 0.228E-03
CGA:  22    -0.347807973010E+03   -0.51194E-02   -0.51242E-02  8208   0.349E-01-0.608E-03
CGA:  23    -0.347809720061E+03   -0.17471E-02   -0.17556E-02  8208   0.175E-01 0.693E-06
CGA:  24    -0.347811605950E+03   -0.18859E-02   -0.18544E-02  8208   0.177E-01 0.877E-03
CGA:  25    -0.347812952663E+03   -0.13467E-02   -0.13506E-02  8208   0.139E-01 0.265E-03
CGA:  26    -0.347814301850E+03   -0.13492E-02   -0.13557E-02  8208   0.683E-02-0.248E-03
CGA:  27    -0.347815052434E+03   -0.75058E-03   -0.74100E-03  8208   0.883E-02 0.243E-03
CGA:  28    -0.347815853044E+03   -0.80061E-03   -0.80159E-03  8208   0.698E-02-0.103E-03
CGA:  29    -0.347816512513E+03   -0.65947E-03   -0.65706E-03  8208   0.390E-02 0.114E-03
CGA:  30    -0.347816894104E+03   -0.38159E-03   -0.37965E-03  8208   0.256E-02 0.945E-04
CGA:  31    -0.347817177339E+03   -0.28323E-03   -0.28429E-03  8208   0.291E-02-0.315E-04
CGA:  32    -0.347817381530E+03   -0.20419E-03   -0.20505E-03  8208   0.122E-02 0.214E-04
CGA:  33    -0.347817587140E+03   -0.20561E-03   -0.20437E-03  8208   0.156E-02 0.141E-04
CGA:  34    -0.347817686652E+03   -0.99511E-04   -0.99659E-04  8208   0.771E-03-0.361E-05
CGA:  35    -0.347817797232E+03   -0.11058E-03   -0.11001E-03  8208   0.974E-03 0.881E-05
CGA:  36    -0.347817894115E+03   -0.96883E-04   -0.96924E-04  8208   0.603E-03-0.229E-05
CGA:  37    -0.347817958907E+03   -0.64792E-04   -0.64892E-04  8208   0.531E-03-0.396E-05
SDA:  38    -0.347818000677E+03   -0.41770E-04   -0.41814E-04  8208   0.341E-03 0.753E-06
CGA:  39    -0.347818026903E+03   -0.26226E-04   -0.26200E-04  8208   0.217E-03-0.205E-05
CGA:  40    -0.347818063581E+03   -0.36679E-04   -0.36622E-04  8208   0.345E-03 0.627E-06
CGA:  41    -0.347818103039E+03   -0.39458E-04   -0.39419E-04  8208   0.181E-03 0.186E-05
CGA:  42    -0.347818117158E+03   -0.14119E-04   -0.14168E-04  8208   0.766E-04 0.264E-05
CGA:  43    -0.347818129551E+03   -0.12393E-04   -0.12112E-04  8208   0.532E-04 0.446E-05
CGA:  44    -0.347818141063E+03   -0.11512E-04   -0.11389E-04  8208   0.336E-04 0.112E-05
CGA:  45    -0.347818144971E+03   -0.39078E-05   -0.39062E-05  8208   0.246E-04 0.836E-07
   4 F= -.34781814E+03 E0= -.34780352E+03  d E =-.277300E+01  mag=    30.3249
       N       E                     dE             d eps       ncg     rms          ort
SDA:   1    -0.316951496505E+03    0.30867E+02    0.00000E+00  8208   0.105E+03 0.000E+00
CGA:   2    -0.331964234006E+03   -0.15013E+02   -0.15351E+02  8208   0.115E+03-0.245E+01
CGA:   3    -0.341670457169E+03   -0.97062E+01   -0.82889E+01  8208   0.334E+02 0.267E+01
CGA:   4    -0.346023254533E+03   -0.43528E+01   -0.43431E+01  8208   0.180E+02-0.531E+00
CGA:   5    -0.347161056800E+03   -0.11378E+01   -0.90590E+00  8208   0.867E+01 0.401E+01
CGA:   6    -0.347729574919E+03   -0.56852E+00   -0.56547E+00  8208   0.579E+01 0.384E+00
CGA:   7    -0.348018701015E+03   -0.28913E+00   -0.31876E+00  8208   0.557E+01-0.206E+00
CGA:   8    -0.348174324676E+03   -0.15562E+00   -0.12934E+00  8208   0.304E+01 0.792E+00
CGA:   9    -0.348330125756E+03   -0.15580E+00   -0.17300E+00  8208   0.221E+01-0.963E-01
CGA:  10    -0.348376481682E+03   -0.46356E-01   -0.66630E-01  8208   0.116E+01-0.473E+00
CGA:  11    -0.348444284639E+03   -0.67803E-01   -0.67997E-01  8208   0.131E+01 0.462E-02
CGA:  12    -0.348488163741E+03   -0.43879E-01   -0.44323E-01  8208   0.272E+00-0.220E-01
CGA:  13    -0.348511433760E+03   -0.23270E-01   -0.23270E-01  8208   0.373E+00 0.271E-03
CGA:  14    -0.348529915069E+03   -0.18481E-01   -0.18850E-01  8208   0.181E+00-0.171E-02
CGA:  15    -0.348543117635E+03   -0.13203E-01   -0.13330E-01  8208   0.106E+00 0.431E-02
CGA:  16    -0.348549371012E+03   -0.62534E-02   -0.63853E-02  8208   0.643E-01 0.436E-03
CGA:  17    -0.348553893797E+03   -0.45228E-02   -0.45658E-02  8208   0.604E-01 0.115E-02
CGA:  18    -0.348559975107E+03   -0.60813E-02   -0.60671E-02  8208   0.245E-01 0.575E-03
CGA:  19    -0.348561264519E+03   -0.12894E-02   -0.13145E-02  8208   0.159E-01-0.461E-04
CGA:  20    -0.348562830645E+03   -0.15661E-02   -0.15594E-02  8208   0.852E-02 0.284E-03
CGA:  21    -0.348563698872E+03   -0.86823E-03   -0.86540E-03  8208   0.841E-02 0.119E-03
CGA:  22    -0.348564298291E+03   -0.59942E-03   -0.60275E-03  8208   0.363E-02 0.988E-04
CGA:  23    -0.348564572331E+03   -0.27404E-03   -0.27445E-03  8208   0.256E-02 0.305E-04
CGA:  24    -0.348564954774E+03   -0.38244E-03   -0.38143E-03  8208   0.220E-02 0.155E-04
CGA:  25    -0.348565118850E+03   -0.16408E-03   -0.16514E-03  8208   0.158E-02 0.391E-04
CGA:  26    -0.348565282070E+03   -0.16322E-03   -0.16286E-03  8208   0.932E-03 0.181E-04
CGA:  27    -0.348565439633E+03   -0.15756E-03   -0.15794E-03  8208   0.123E-02-0.492E-05
CGA:  28    -0.348565542418E+03   -0.10279E-03   -0.10316E-03  8208   0.536E-03 0.284E-04
CGA:  29    -0.348565604025E+03   -0.61607E-04   -0.61494E-04  8208   0.641E-03 0.434E-05
CGA:  30    -0.348565683166E+03   -0.79140E-04   -0.79099E-04  8208   0.387E-03 0.104E-05
CGA:  31    -0.348565726280E+03   -0.43114E-04   -0.42978E-04  8208   0.240E-03 0.512E-05
SDA:  32    -0.348565749818E+03   -0.23538E-04   -0.23529E-04  8208   0.214E-03 0.217E-05
CGA:  33    -0.348565762349E+03   -0.12531E-04   -0.12496E-04  8208   0.890E-04-0.550E-06
CGA:  34    -0.348565779623E+03   -0.17274E-04   -0.17205E-04  8208   0.108E-03 0.652E-06
CGA:  35    -0.348565793542E+03   -0.13918E-04   -0.13933E-04  8208   0.331E-04-0.488E-06
CGA:  36    -0.348565798367E+03   -0.48250E-05   -0.48604E-05  8208   0.436E-04-0.757E-06
   5 F= -.34856580E+03 E0= -.34855159E+03  d E =-.747653E+00  mag=    30.2451
       N       E                     dE             d eps       ncg     rms          ort
SDA:   1    -0.320752177077E+03    0.27814E+02    0.00000E+00  8208   0.968E+02 0.000E+00
CGA:   2    -0.333678889229E+03   -0.12927E+02   -0.13203E+02  8208   0.980E+02-0.456E+01
CGA:   3    -0.341690291293E+03   -0.80114E+01   -0.69228E+01  8208   0.364E+02-0.208E+01
CGA:   4    -0.346489713048E+03   -0.47994E+01   -0.47418E+01  8208   0.184E+02 0.986E+00
CGA:   5    -0.347308296819E+03   -0.81858E+00   -0.95095E+00  8208   0.207E+02-0.137E+01
CGA:   6    -0.348009052469E+03   -0.70076E+00   -0.71918E+00  8208   0.129E+02-0.893E+00
CGA:   7    -0.348274994623E+03   -0.26594E+00   -0.33499E+00  8208   0.584E+01-0.233E+01
CGA:   8    -0.348522597557E+03   -0.24760E+00   -0.22108E+00  8208   0.262E+01 0.300E+00
CGA:   9    -0.348667005130E+03   -0.14441E+00   -0.14583E+00  8208   0.214E+01-0.199E-02
CGA:  10    -0.348729064639E+03   -0.62060E-01   -0.80869E-01  8208   0.128E+01-0.306E+00
CGA:  11    -0.348796881862E+03   -0.67817E-01   -0.69140E-01  8208   0.123E+01 0.728E-02
CGA:  12    -0.348835678422E+03   -0.38797E-01   -0.35487E-01  8208   0.235E+00 0.800E-01
CGA:  13    -0.348853807153E+03   -0.18129E-01   -0.18057E-01  8208   0.381E+00-0.195E-02
CGA:  14    -0.348876259797E+03   -0.22453E-01   -0.23090E-01  8208   0.290E+00 0.508E-02
CGA:  15    -0.348889148428E+03   -0.12889E-01   -0.13533E-01  8208   0.949E-01-0.417E-02
CGA:  16    -0.348892545928E+03   -0.33975E-02   -0.34353E-02  8208   0.609E-01-0.649E-03
CGA:  17    -0.348899775224E+03   -0.72293E-02   -0.71534E-02  8208   0.822E-01 0.158E-02
CGA:  18    -0.348903820696E+03   -0.40455E-02   -0.40842E-02  8208   0.469E-01-0.154E-03
CGA:  19    -0.348906525542E+03   -0.27048E-02   -0.27280E-02  8208   0.153E-01 0.178E-03
CGA:  20    -0.348907686737E+03   -0.11612E-02   -0.11624E-02  8208   0.189E-01 0.276E-03
CGA:  21    -0.348909237936E+03   -0.15512E-02   -0.15504E-02  8208   0.164E-01 0.159E-03
CGA:  22    -0.348910439449E+03   -0.12015E-02   -0.12030E-02  8208   0.655E-02 0.116E-03
CGA:  23    -0.348910876233E+03   -0.43678E-03   -0.44120E-03  8208   0.635E-02 0.249E-03
CGA:  24    -0.348911485625E+03   -0.60939E-03   -0.60926E-03  8208   0.403E-02 0.231E-04
CGA:  25    -0.348911988474E+03   -0.50285E-03   -0.50688E-03  8208   0.477E-02-0.729E-04
CGA:  26    -0.348912371873E+03   -0.38340E-03   -0.38244E-03  8208   0.256E-02 0.299E-03
CGA:  27    -0.348912596341E+03   -0.22447E-03   -0.22444E-03  8208   0.206E-02 0.903E-05
CGA:  28    -0.348912938494E+03   -0.34215E-03   -0.34580E-03  8208   0.194E-02-0.469E-04
CGA:  29    -0.348913118210E+03   -0.17972E-03   -0.17833E-03  8208   0.128E-02 0.909E-04
CGA:  30    -0.348913244255E+03   -0.12604E-03   -0.12608E-03  8208   0.949E-03 0.551E-06
CGA:  31    -0.348913379640E+03   -0.13539E-03   -0.13520E-03  8208   0.665E-03 0.217E-05
SDA:  32    -0.348913454277E+03   -0.74637E-04   -0.74251E-04  8208   0.477E-03 0.987E-05
CGA:  33    -0.348913488775E+03   -0.34498E-04   -0.34499E-04  8208   0.274E-03 0.177E-06
CGA:  34    -0.348913531404E+03   -0.42629E-04   -0.42754E-04  8208   0.200E-03-0.188E-05
CGA:  35    -0.348913557683E+03   -0.26279E-04   -0.26236E-04  8208   0.158E-03 0.103E-05
CGA:  36    -0.348913575964E+03   -0.18281E-04   -0.18290E-04  8208   0.104E-03-0.485E-06
CGA:  37    -0.348913590166E+03   -0.14202E-04   -0.14235E-04  8208   0.520E-04-0.826E-06
CGA:  38    -0.348913605237E+03   -0.15072E-04   -0.15676E-04  8208   0.740E-04-0.296E-05
CGA:  39    -0.348913616250E+03   -0.11012E-04   -0.11041E-04  8208   0.397E-04-0.590E-06
CGA:  40    -0.348913620334E+03   -0.40843E-05   -0.40847E-05  8208   0.292E-04 0.895E-07
   6 F= -.34891362E+03 E0= -.34889941E+03  d E =-.347822E+00  mag=    30.2318
       N       E                     dE             d eps       ncg     rms          ort
SDA:   1    -0.331500177701E+03    0.17413E+02    0.00000E+00  8208   0.515E+02 0.000E+00
CGA:   2    -0.340196494624E+03   -0.86963E+01   -0.91479E+01  8208   0.710E+02-0.251E+01
CGA:   3    -0.344965105453E+03   -0.47686E+01   -0.42611E+01  8208   0.218E+02 0.343E+01
CGA:   4    -0.347443507755E+03   -0.24784E+01   -0.24821E+01  8208   0.180E+02 0.468E+00
CGA:   5    -0.348164468230E+03   -0.72096E+00   -0.79826E+00  8208   0.851E+01-0.166E+01
CGA:   6    -0.348677245614E+03   -0.51278E+00   -0.47466E+00  8208   0.361E+01 0.317E+00
CGA:   7    -0.348829711422E+03   -0.15247E+00   -0.15030E+00  8208   0.172E+01-0.913E-02
CGA:   8    -0.348976538086E+03   -0.14683E+00   -0.14578E+00  8208   0.929E+00-0.174E-01
CGA:   9    -0.349032756401E+03   -0.56218E-01   -0.54667E-01  8208   0.282E+00 0.770E-02
CGA:  10    -0.349062915384E+03   -0.30159E-01   -0.30113E-01  8208   0.343E+00 0.438E-02
CGA:  11    -0.349083989430E+03   -0.21074E-01   -0.20876E-01  8208   0.592E-01 0.754E-03
CGA:  12    -0.349094677974E+03   -0.10689E-01   -0.10640E-01  8208   0.463E-01 0.559E-03
CGA:  13    -0.349099428851E+03   -0.47509E-02   -0.47513E-02  8208   0.271E-01 0.302E-03
CGA:  14    -0.349101419436E+03   -0.19906E-02   -0.20239E-02  8208   0.196E-01 0.182E-03
CGA:  15    -0.349104439304E+03   -0.30199E-02   -0.30200E-02  8208   0.952E-02 0.743E-05
CGA:  16    -0.349105420929E+03   -0.98163E-03   -0.98170E-03  8208   0.661E-02 0.769E-04
CGA:  17    -0.349106405592E+03   -0.98466E-03   -0.98434E-03  8208   0.422E-02 0.121E-04
CGA:  18    -0.349106777121E+03   -0.37153E-03   -0.37265E-03  8208   0.206E-02 0.255E-04
CGA:  19    -0.349107060095E+03   -0.28297E-03   -0.28239E-03  8208   0.138E-02 0.176E-04
CGA:  20    -0.349107231016E+03   -0.17092E-03   -0.17026E-03  8208   0.759E-03 0.288E-04
CGA:  21    -0.349107313175E+03   -0.82159E-04   -0.82162E-04  8208   0.529E-03 0.285E-05
CGA:  22    -0.349107400024E+03   -0.86849E-04   -0.86201E-04  8208   0.306E-03 0.971E-05
CGA:  23    -0.349107443058E+03   -0.43035E-04   -0.42932E-04  8208   0.259E-03 0.329E-05
CGA:  24    -0.349107470835E+03   -0.27777E-04   -0.27780E-04  8208   0.187E-03 0.850E-08
CGA:  25    -0.349107501838E+03   -0.31003E-04   -0.31136E-04  8208   0.928E-04-0.247E-05
CGA:  26    -0.349107515883E+03   -0.14046E-04   -0.14191E-04  8208   0.897E-04-0.355E-05
CGA:  27    -0.349107526140E+03   -0.10256E-04   -0.10260E-04  8208   0.596E-04-0.117E-05
CGA:  28    -0.349107532485E+03   -0.63448E-05   -0.63428E-05  8208   0.292E-04-0.322E-06
   7 F= -.34910753E+03 E0= -.34909401E+03  d E =-.193912E+00  mag=    30.2188
       N       E                     dE             d eps       ncg     rms          ort
SDA:   1    -0.294566933387E+03    0.54541E+02    0.00000E+00  8208   0.206E+03 0.000E+00
CGA:   2    -0.314766320742E+03   -0.20199E+02   -0.20906E+02  8208   0.194E+03 0.146E+02
CGA:   3    -0.335283093742E+03   -0.20517E+02   -0.20737E+02  8208   0.749E+02 0.359E+01
CGA:   4    -0.342422541530E+03   -0.71394E+01   -0.45540E+01  8208   0.401E+02 0.794E+01
CGA:   5    -0.344006711043E+03   -0.15842E+01   -0.19262E+01  8208   0.810E+02-0.796E+01
CGA:   6    -0.346070564823E+03   -0.20639E+01   -0.24651E+01  8208   0.342E+02-0.596E+01
CGA:   7    -0.347286371197E+03   -0.12158E+01   -0.12894E+01  8208   0.294E+02 0.145E+01
CGA:   8    -0.347817916231E+03   -0.53155E+00   -0.53893E+00  8208   0.191E+02-0.251E+02
CGA:   9    -0.348366303048E+03   -0.54839E+00   -0.54461E+00  8208   0.467E+01-0.148E+01
CGA:  10    -0.348793163881E+03   -0.42686E+00   -0.42535E+00  8208   0.416E+01 0.210E+00
CGA:  11    -0.348930823559E+03   -0.13766E+00   -0.14702E+00  8208   0.278E+01-0.250E+00
CGA:  12    -0.349054611204E+03   -0.12379E+00   -0.10988E+00  8208   0.800E+00 0.236E+00
CGA:  13    -0.349123239506E+03   -0.68628E-01   -0.68612E-01  8208   0.199E+01-0.104E-02
CGA:  14    -0.349212292488E+03   -0.89053E-01   -0.88409E-01  8208   0.690E+00 0.981E-02
CGA:  15    -0.349245520141E+03   -0.33228E-01   -0.36015E-01  8208   0.400E+00-0.114E-01
CGA:  16    -0.349266874157E+03   -0.21354E-01   -0.22431E-01  8208   0.375E+00 0.714E-03
CGA:  17    -0.349288561583E+03   -0.21687E-01   -0.22032E-01  8208   0.256E+00 0.172E-02
CGA:  18    -0.349311043370E+03   -0.22482E-01   -0.22440E-01  8208   0.109E+00 0.490E-02
CGA:  19    -0.349320277236E+03   -0.92339E-02   -0.92260E-02  8208   0.121E+00 0.719E-02
CGA:  20    -0.349327989680E+03   -0.77124E-02   -0.78371E-02  8208   0.622E-01 0.961E-03
CGA:  21    -0.349336279938E+03   -0.82903E-02   -0.81517E-02  8208   0.237E-01 0.246E-02
CGA:  22    -0.349340523026E+03   -0.42431E-02   -0.42295E-02  8208   0.275E-01 0.158E-03
CGA:  23    -0.349342692217E+03   -0.21692E-02   -0.22059E-02  8208   0.148E-01 0.173E-02
CGA:  24    -0.349344724247E+03   -0.20320E-02   -0.20368E-02  8208   0.147E-01-0.750E-04
CGA:  25    -0.349346127486E+03   -0.14032E-02   -0.13962E-02  8208   0.749E-02 0.704E-03
CGA:  26    -0.349347254852E+03   -0.11274E-02   -0.11024E-02  8208   0.625E-02 0.412E-03
CGA:  27    -0.349348250739E+03   -0.99589E-03   -0.10008E-02  8208   0.358E-02-0.760E-04
CGA:  28    -0.349348792908E+03   -0.54217E-03   -0.52852E-03  8208   0.223E-02 0.211E-03
CGA:  29    -0.349349246202E+03   -0.45329E-03   -0.44999E-03  8208   0.141E-02 0.338E-04
CGA:  30    -0.349349465247E+03   -0.21904E-03   -0.21882E-03  8208   0.117E-02 0.319E-05
CGA:  31    -0.349349617081E+03   -0.15183E-03   -0.15203E-03  8208   0.839E-03-0.780E-05
CGA:  32    -0.349349716171E+03   -0.99090E-04   -0.99050E-04  8208   0.435E-03 0.509E-06
CGA:  33    -0.349349783940E+03   -0.67769E-04   -0.67812E-04  8208   0.334E-03-0.959E-06
CGA:  34    -0.349349843854E+03   -0.59914E-04   -0.59826E-04  8208   0.176E-03 0.113E-05
CGA:  35    -0.349349877442E+03   -0.33588E-04   -0.33931E-04  8208   0.169E-03-0.430E-05
CGA:  36    -0.349349903665E+03   -0.26223E-04   -0.26284E-04  8208   0.979E-04-0.143E-05
CGA:  37    -0.349349920066E+03   -0.16401E-04   -0.16289E-04  8208   0.945E-04 0.233E-05
CGA:  38    -0.349349929125E+03   -0.90593E-05   -0.91269E-05  8208   0.377E-04 0.233E-05
   8 F= -.34934993E+03 E0= -.34933844E+03  d E =-.242397E+00  mag=    30.1497
       N       E                     dE             d eps       ncg     rms          ort
SDA:   1    -0.332614889785E+03    0.16735E+02    0.00000E+00  8208   0.489E+02 0.000E+00
CGA:   2    -0.341837220145E+03   -0.92223E+01   -0.91244E+01  8208   0.472E+02 0.144E+01
CGA:   3    -0.346413458888E+03   -0.45762E+01   -0.45961E+01  8208   0.171E+02 0.245E+01
CGA:   4    -0.348058469635E+03   -0.16450E+01   -0.15823E+01  8208   0.173E+02-0.241E+00
CGA:   5    -0.348735698778E+03   -0.67723E+00   -0.69245E+00  8208   0.664E+01-0.141E+01
CGA:   6    -0.349057235957E+03   -0.32154E+00   -0.33534E+00  8208   0.291E+01 0.198E-01
CGA:   7    -0.349226693979E+03   -0.16946E+00   -0.17653E+00  8208   0.155E+01-0.633E-01
CGA:   8    -0.349330950991E+03   -0.10426E+00   -0.10465E+00  8208   0.806E+00 0.816E-02
CGA:   9    -0.349373235607E+03   -0.42285E-01   -0.44298E-01  8208   0.390E+00-0.186E-01
CGA:  10    -0.349403279216E+03   -0.30044E-01   -0.30804E-01  8208   0.234E+00 0.479E-02
CGA:  11    -0.349419176447E+03   -0.15897E-01   -0.16346E-01  8208   0.119E+00-0.569E-03
CGA:  12    -0.349428354112E+03   -0.91777E-02   -0.93166E-02  8208   0.597E-01 0.921E-03
CGA:  13    -0.349433489789E+03   -0.51357E-02   -0.52104E-02  8208   0.401E-01 0.131E-02
CGA:  14    -0.349436904393E+03   -0.34146E-02   -0.34341E-02  8208   0.197E-01 0.281E-03
CGA:  15    -0.349438998455E+03   -0.20941E-02   -0.20928E-02  8208   0.130E-01 0.240E-03
CGA:  16    -0.349440301896E+03   -0.13034E-02   -0.13049E-02  8208   0.881E-02 0.212E-03
CGA:  17    -0.349441184348E+03   -0.88245E-03   -0.88309E-03  8208   0.427E-02 0.845E-04
CGA:  18    -0.349441701880E+03   -0.51753E-03   -0.51686E-03  8208   0.280E-02 0.276E-04
CGA:  19    -0.349441984216E+03   -0.28234E-03   -0.28246E-03  8208   0.157E-02 0.231E-04
CGA:  20    -0.349442147211E+03   -0.16300E-03   -0.16300E-03  8208   0.796E-03 0.154E-04
CGA:  21    -0.349442245537E+03   -0.98326E-04   -0.98200E-04  8208   0.463E-03 0.564E-05
CGA:  22    -0.349442297667E+03   -0.52130E-04   -0.52089E-04  8208   0.295E-03 0.414E-05
CGA:  23    -0.349442329849E+03   -0.32182E-04   -0.32166E-04  8208   0.177E-03 0.352E-05
CGA:  24    -0.349442356685E+03   -0.26835E-04   -0.26792E-04  8208   0.126E-03 0.736E-06
CGA:  25    -0.349442372035E+03   -0.15350E-04   -0.15336E-04  8208   0.914E-04 0.604E-06
CGA:  26    -0.349442383902E+03   -0.11867E-04   -0.11846E-04  8208   0.732E-04 0.805E-06
CGA:  27    -0.349442393850E+03   -0.99482E-05   -0.99676E-05  8208   0.486E-04-0.824E-06
   9 F= -.34944239E+03 E0= -.34943113E+03  d E =-.924647E-01  mag=    30.1124
       N       E                     dE             d eps       ncg     rms          ort
SDA:   1    -0.331148498106E+03    0.18294E+02    0.00000E+00  8208   0.508E+02 0.000E+00
CGA:   2    -0.341482951716E+03   -0.10334E+02   -0.97952E+01  8208   0.500E+02 0.548E+01
CGA:   3    -0.346762194348E+03   -0.52792E+01   -0.51781E+01  8208   0.141E+02 0.185E+01
CGA:   4    -0.348255977182E+03   -0.14938E+01   -0.14802E+01  8208   0.167E+02-0.389E+00
CGA:   5    -0.348792416330E+03   -0.53644E+00   -0.62673E+00  8208   0.859E+01-0.289E+01
CGA:   6    -0.349142406952E+03   -0.34999E+00   -0.28112E+00  8208   0.298E+01 0.164E+01
CGA:   7    -0.349276157911E+03   -0.13375E+00   -0.15561E+00  8208   0.148E+01-0.323E+00
CGA:   8    -0.349388246981E+03   -0.11209E+00   -0.11318E+00  8208   0.144E+01 0.202E-01
CGA:   9    -0.349442314920E+03   -0.54068E-01   -0.62776E-01  8208   0.369E+00-0.135E+00
CGA:  10    -0.349473393958E+03   -0.31079E-01   -0.31169E-01  8208   0.216E+00 0.627E-02
CGA:  11    -0.349490470293E+03   -0.17076E-01   -0.17153E-01  8208   0.123E+00 0.916E-03
CGA:  12    -0.349500585216E+03   -0.10115E-01   -0.10229E-01  8208   0.494E-01 0.236E-02
CGA:  13    -0.349506046627E+03   -0.54614E-02   -0.54260E-02  8208   0.292E-01 0.202E-02
CGA:  14    -0.349510065954E+03   -0.40193E-02   -0.40128E-02  8208   0.186E-01 0.147E-03
CGA:  15    -0.349511796487E+03   -0.17305E-02   -0.17372E-02  8208   0.947E-02 0.467E-03
CGA:  16    -0.349513138670E+03   -0.13422E-02   -0.13277E-02  8208   0.567E-02 0.306E-03
CGA:  17    -0.349513961009E+03   -0.82234E-03   -0.82116E-03  8208   0.298E-02 0.262E-04
CGA:  18    -0.349514301142E+03   -0.34013E-03   -0.33968E-03  8208   0.157E-02 0.285E-04
CGA:  19    -0.349514523539E+03   -0.22240E-03   -0.22125E-03  8208   0.104E-02 0.267E-04
CGA:  20    -0.349514641757E+03   -0.11822E-03   -0.11818E-03  8208   0.420E-03 0.679E-05
CGA:  21    -0.349514712312E+03   -0.70555E-04   -0.70096E-04  8208   0.304E-03 0.730E-05
CGA:  22    -0.349514756044E+03   -0.43732E-04   -0.43651E-04  8208   0.224E-03 0.217E-05
CGA:  23    -0.349514788125E+03   -0.32081E-04   -0.32081E-04  8208   0.130E-03-0.248E-06
CGA:  24    -0.349514813170E+03   -0.25045E-04   -0.24849E-04  8208   0.137E-03 0.235E-05
CGA:  25    -0.349514830380E+03   -0.17210E-04   -0.17209E-04  8208   0.737E-04 0.246E-06
CGA:  26    -0.349514843290E+03   -0.12910E-04   -0.12943E-04  8208   0.608E-04-0.626E-06
CGA:  27    -0.349514852611E+03   -0.93208E-05   -0.93678E-05  8208   0.330E-04-0.134E-05
  10 F= -.34951485E+03 E0= -.34950381E+03  d E =-.724588E-01  mag=    30.0694
       N       E                     dE             d eps       ncg     rms          ort
SDA:   1    -0.284404890858E+03    0.65110E+02    0.00000E+00  8208   0.275E+03 0.000E+00
CGA:   2    -0.311817515128E+03   -0.27413E+02   -0.29361E+02  8208   0.156E+03 0.563E+02
CGA:   3    -0.332611032264E+03   -0.20794E+02   -0.19833E+02  8208   0.942E+02-0.230E+02
CGA:   4    -0.342288720464E+03   -0.96777E+01   -0.85150E+01  8208   0.709E+02-0.305E+02
CGA:   5    -0.346302155523E+03   -0.40134E+01   -0.27300E+01  8208   0.364E+02 0.107E+02
CGA:   6    -0.346389821276E+03   -0.87666E-01   -0.20996E+01  8208   0.362E+02-0.984E+01
CGA:   7    -0.347664701229E+03   -0.12749E+01   -0.12504E+01  8208   0.375E+02 0.279E+01
CGA:   8    -0.347939518877E+03   -0.27482E+00   -0.77920E+00  8208   0.350E+02-0.535E+02
CGA:   9    -0.347951177510E+03   -0.11659E-01   -0.14750E+01  8208   0.217E+02-0.132E+02
CGA:  10    -0.348638247254E+03   -0.68707E+00   -0.37386E+00  8208   0.969E+01 0.949E+01
CGA:  11    -0.348860460043E+03   -0.22221E+00   -0.19242E+00  8208   0.228E+01 0.504E+00
CGA:  12    -0.348942505647E+03   -0.82046E-01   -0.86442E-01  8208   0.379E+01-0.101E+00
CGA:  13    -0.349074916645E+03   -0.13241E+00   -0.15107E+00  8208   0.869E+01-0.274E+00
CGA:  14    -0.349312519034E+03   -0.23760E+00   -0.25499E+00  8208   0.226E+01-0.296E+00
CGA:  15    -0.349350243878E+03   -0.37725E-01   -0.47275E-01  8208   0.582E+00-0.385E+00
CGA:  16    -0.349375726134E+03   -0.25482E-01   -0.26246E-01  8208   0.715E+00-0.395E-03
CGA:  17    -0.349419968754E+03   -0.44243E-01   -0.45688E-01  8208   0.823E+00 0.218E-01
CGA:  18    -0.349461526026E+03   -0.41557E-01   -0.41421E-01  8208   0.216E+00-0.916E-03
CGA:  19    -0.349480960144E+03   -0.19434E-01   -0.19300E-01  8208   0.147E+00 0.792E-02
CGA:  20    -0.349493733704E+03   -0.12774E-01   -0.12744E-01  8208   0.173E+00 0.409E-02
CGA:  21    -0.349507689536E+03   -0.13956E-01   -0.13971E-01  8208   0.462E-01 0.806E-02
CGA:  22    -0.349514600546E+03   -0.69110E-02   -0.66592E-02  8208   0.535E-01 0.392E-02
CGA:  23    -0.349520286670E+03   -0.56861E-02   -0.56673E-02  8208   0.257E-01 0.781E-03
CGA:  24    -0.349522913636E+03   -0.26270E-02   -0.25802E-02  8208   0.134E-01 0.195E-02
CGA:  25    -0.349524633627E+03   -0.17200E-02   -0.16967E-02  8208   0.119E-01 0.542E-03
CGA:  26    -0.349526253407E+03   -0.16198E-02   -0.16101E-02  8208   0.382E-02 0.164E-03
CGA:  27    -0.349527107430E+03   -0.85402E-03   -0.81611E-03  8208   0.412E-02 0.313E-03
CGA:  28    -0.349527574668E+03   -0.46724E-03   -0.46576E-03  8208   0.181E-02 0.856E-04
CGA:  29    -0.349527903464E+03   -0.32880E-03   -0.32610E-03  8208   0.151E-02 0.313E-04
CGA:  30    -0.349528122967E+03   -0.21950E-03   -0.21759E-03  8208   0.853E-03 0.361E-04
CGA:  31    -0.349528264106E+03   -0.14114E-03   -0.14209E-03  8208   0.538E-03-0.148E-04
CGA:  32    -0.349528340076E+03   -0.75969E-04   -0.76105E-04  8208   0.377E-03-0.408E-05
CGA:  33    -0.349528405475E+03   -0.65399E-04   -0.65451E-04  8208   0.166E-03-0.942E-06
CGA:  34    -0.349528435432E+03   -0.29957E-04   -0.30066E-04  8208   0.149E-03-0.151E-05
CGA:  35    -0.349528461256E+03   -0.25824E-04   -0.25862E-04  8208   0.965E-04-0.822E-06
CGA:  36    -0.349528474950E+03   -0.13695E-04   -0.13733E-04  8208   0.510E-04-0.140E-05
CGA:  37    -0.349528483787E+03   -0.88365E-05   -0.87731E-05  8208   0.471E-04 0.108E-05
  11 F= -.34952848E+03 E0= -.34951773E+03  d E =-.136312E-01  mag=    30.0472
       N       E                     dE             d eps       ncg     rms          ort
SDA:   1    -0.329659459055E+03    0.19869E+02    0.00000E+00  8208   0.835E+02 0.000E+00
CGA:   2    -0.339323128259E+03   -0.96637E+01   -0.97612E+01  8208   0.360E+02 0.964E+01
CGA:   3    -0.344215457839E+03   -0.48923E+01   -0.47849E+01  8208   0.575E+02-0.224E+02
CGA:   4    -0.346020298929E+03   -0.18048E+01   -0.37336E+01  8208   0.141E+02-0.271E+01
CGA:   5    -0.347308835261E+03   -0.12885E+01   -0.72328E+00  8208   0.571E+01 0.101E+02
CGA:   6    -0.347779972530E+03   -0.47114E+00   -0.41402E+00  8208   0.860E+01 0.163E-01
CGA:   7    -0.349333482426E+03   -0.15535E+01   -0.15500E+01  8208   0.351E+01 0.172E-01
CGA:   8    -0.349493922611E+03   -0.16044E+00   -0.18637E+00  8208   0.653E+00-0.189E+00
CGA:   9    -0.349567916385E+03   -0.73994E-01   -0.74156E-01  8208   0.526E+00-0.134E-01
CGA:  10    -0.349607915266E+03   -0.39999E-01   -0.40543E-01  8208   0.109E+00 0.928E-03
CGA:  11    -0.349624350994E+03   -0.16436E-01   -0.16201E-01  8208   0.105E+00 0.476E-02
CGA:  12    -0.349636356462E+03   -0.12005E-01   -0.12006E-01  8208   0.402E-01 0.864E-04
CGA:  13    -0.349640952033E+03   -0.45956E-02   -0.45947E-02  8208   0.187E-01 0.725E-03
CGA:  14    -0.349643078708E+03   -0.21267E-02   -0.21269E-02  8208   0.896E-02 0.888E-04
CGA:  15    -0.349644384450E+03   -0.13057E-02   -0.13058E-02  8208   0.406E-02 0.244E-06
CGA:  16    -0.349644979734E+03   -0.59528E-03   -0.59173E-03  8208   0.233E-02 0.832E-04
CGA:  17    -0.349645293407E+03   -0.31367E-03   -0.31335E-03  8208   0.112E-02 0.167E-04
CGA:  18    -0.349645459790E+03   -0.16638E-03   -0.16597E-03  8208   0.669E-03 0.116E-04
CGA:  19    -0.349645548739E+03   -0.88948E-04   -0.88903E-04  8208   0.366E-03 0.312E-05
CGA:  20    -0.349645598498E+03   -0.49759E-04   -0.49728E-04  8208   0.160E-03 0.146E-05
CGA:  21    -0.349645623338E+03   -0.24840E-04   -0.24777E-04  8208   0.125E-03 0.166E-05
CGA:  22    -0.349645641640E+03   -0.18302E-04   -0.18238E-04  8208   0.472E-04 0.257E-05
CGA:  23    -0.349645650272E+03   -0.86317E-05   -0.86284E-05  8208   0.409E-04-0.561E-07
  12 F= -.34964565E+03 E0= -.34963498E+03  d E =-.117166E+00  mag=    30.0372
       N       E                     dE             d eps       ncg     rms          ort
SDA:   1    -0.349172513786E+03    0.47313E+00    0.00000E+00  8208   0.144E+01 0.000E+00
CGA:   2    -0.349452030937E+03   -0.27952E+00   -0.27942E+00  8208   0.955E+00 0.142E-02
CGA:   3    -0.349582271191E+03   -0.13024E+00   -0.13019E+00  8208   0.523E+00 0.451E-02
CGA:   4    -0.349634971574E+03   -0.52700E-01   -0.52474E-01  8208   0.129E+00-0.143E-02
CGA:   5    -0.349650954602E+03   -0.15983E-01   -0.15984E-01  8208   0.346E-01 0.111E-03
CGA:   6    -0.349655527006E+03   -0.45724E-02   -0.45722E-02  8208   0.145E-01 0.536E-04
CGA:   7    -0.349657230152E+03   -0.17031E-02   -0.17037E-02  8208   0.508E-02 0.239E-04
CGA:   8    -0.349657904901E+03   -0.67475E-03   -0.67477E-03  8208   0.229E-02-0.162E-05
CGA:   9    -0.349658175358E+03   -0.27046E-03   -0.27048E-03  8208   0.816E-03 0.190E-05
CGA:  10    -0.349658308350E+03   -0.13299E-03   -0.13299E-03  8208   0.417E-03 0.597E-07
CGA:  11    -0.349658361760E+03   -0.53410E-04   -0.53412E-04  8208   0.243E-03 0.460E-06
CGA:  12    -0.349658400133E+03   -0.38373E-04   -0.38365E-04  8208   0.127E-03 0.297E-06
CGA:  13    -0.349658418472E+03   -0.18339E-04   -0.18333E-04  8208   0.679E-04 0.454E-06
CGA:  14    -0.349658429415E+03   -0.10942E-04   -0.10930E-04  8208   0.350E-04 0.434E-06
CGA:  15    -0.349658433661E+03   -0.42467E-05   -0.42518E-05  8208   0.177E-04 0.389E-06
  13 F= -.34965843E+03 E0= -.34964773E+03  d E =-.127834E-01  mag=    30.0350
       N       E                     dE             d eps       ncg     rms          ort
SDA:   1    -0.342637155048E+03    0.70213E+01    0.00000E+00  8208   0.187E+02 0.000E+00
CGA:   2    -0.347104248221E+03   -0.44671E+01   -0.44754E+01  8208   0.136E+02-0.720E-01
CGA:   3    -0.348850288474E+03   -0.17460E+01   -0.17514E+01  8208   0.573E+01 0.235E+00
CGA:   4    -0.349421701720E+03   -0.57141E+00   -0.55841E+00  8208   0.147E+01 0.274E-02
CGA:   5    -0.349601884134E+03   -0.18018E+00   -0.18025E+00  8208   0.433E+00 0.186E-02
CGA:   6    -0.349654095576E+03   -0.52211E-01   -0.52160E-01  8208   0.214E+00-0.126E-02
CGA:   7    -0.349677956249E+03   -0.23861E-01   -0.23895E-01  8208   0.582E-01 0.485E-03
CGA:   8    -0.349687224581E+03   -0.92683E-02   -0.92662E-02  8208   0.251E-01 0.709E-04
CGA:   9    -0.349689943729E+03   -0.27191E-02   -0.27228E-02  8208   0.114E-01 0.445E-04
CGA:  10    -0.349691708450E+03   -0.17647E-02   -0.17644E-02  8208   0.523E-02 0.154E-04
CGA:  11    -0.349692438767E+03   -0.73032E-03   -0.73021E-03  8208   0.367E-02 0.167E-04
CGA:  12    -0.349693010392E+03   -0.57162E-03   -0.57141E-03  8208   0.190E-02 0.986E-05
CGA:  13    -0.349693282270E+03   -0.27188E-03   -0.27174E-03  8208   0.117E-02 0.138E-04
CGA:  14    -0.349693466356E+03   -0.18409E-03   -0.18399E-03  8208   0.536E-03 0.494E-05
CGA:  15    -0.349693536503E+03   -0.70148E-04   -0.70175E-04  8208   0.317E-03 0.354E-05
CGA:  16    -0.349693583330E+03   -0.46827E-04   -0.46804E-04  8208   0.136E-03 0.217E-05
CGA:  17    -0.349693602513E+03   -0.19183E-04   -0.19181E-04  8208   0.101E-03 0.819E-06
CGA:  18    -0.349693619997E+03   -0.17484E-04   -0.17466E-04  8208   0.579E-04 0.530E-06
CGA:  19    -0.349693630997E+03   -0.11000E-04   -0.10982E-04  8208   0.605E-04 0.365E-06
CGA:  20    -0.349693641618E+03   -0.10622E-04   -0.10618E-04  8208   0.441E-04 0.104E-06
CGA:  21    -0.349693648447E+03   -0.68290E-05   -0.68317E-05  8208   0.341E-04-0.228E-06
  14 F= -.34969365E+03 E0= -.34968280E+03  d E =-.352148E-01  mag=    30.0289
       N       E                     dE             d eps       ncg     rms          ort
SDA:   1    -0.296012527479E+03    0.53681E+02    0.00000E+00  8208   0.267E+03 0.000E+00
CGA:   2    -0.319228690317E+03   -0.23216E+02   -0.28692E+02  8208   0.979E+02 0.427E+02
CGA:   3    -0.335178036731E+03   -0.15949E+02   -0.11635E+02  8208   0.799E+02-0.327E+02
CGA:   4    -0.340164133754E+03   -0.49861E+01   -0.54366E+01  8208   0.183E+03 0.305E+00
CGA:   5    -0.346430665090E+03   -0.62665E+01   -0.59772E+01  8208   0.216E+02-0.536E+02
CGA:   6    -0.347607913904E+03   -0.11772E+01   -0.13610E+01  8208   0.101E+02 0.510E+00
CGA:   7    -0.348602590531E+03   -0.99468E+00   -0.87803E+00  8208   0.437E+01 0.498E+00
CGA:   8    -0.349133668846E+03   -0.53108E+00   -0.53335E+00  8208   0.284E+01 0.685E-01
CGA:   9    -0.349240806928E+03   -0.10714E+00   -0.13759E+00  8208   0.283E+01-0.504E+00
CGA:  10    -0.349375912493E+03   -0.13511E+00   -0.14153E+00  8208   0.106E+01-0.546E-01
CGA:  11    -0.349444541887E+03   -0.68629E-01   -0.77540E-01  8208   0.123E+01-0.132E-01
CGA:  12    -0.349495971385E+03   -0.51429E-01   -0.63063E-01  8208   0.812E+00-0.139E+00
CGA:  13    -0.349545768398E+03   -0.49797E-01   -0.51182E-01  8208   0.189E+00-0.121E-02
CGA:  14    -0.349569602074E+03   -0.23834E-01   -0.23624E-01  8208   0.334E+00 0.109E-01
CGA:  15    -0.349589430762E+03   -0.19829E-01   -0.22098E-01  8208   0.105E+00-0.134E-01
CGA:  16    -0.349599040125E+03   -0.96094E-02   -0.96675E-02  8208   0.646E-01 0.130E-02
CGA:  17    -0.349609053745E+03   -0.10014E-01   -0.98399E-02  8208   0.306E-01 0.331E-02
CGA:  18    -0.349612831903E+03   -0.37782E-02   -0.37727E-02  8208   0.237E-01 0.708E-03
CGA:  19    -0.349616113889E+03   -0.32820E-02   -0.32290E-02  8208   0.129E-01 0.168E-02
CGA:  20    -0.349617894001E+03   -0.17801E-02   -0.17815E-02  8208   0.896E-02-0.611E-04
CGA:  21    -0.349619099667E+03   -0.12057E-02   -0.11902E-02  8208   0.515E-02 0.515E-03
CGA:  22    -0.349619845037E+03   -0.74537E-03   -0.74444E-03  8208   0.314E-02 0.263E-04
CGA:  23    -0.349620332046E+03   -0.48701E-03   -0.48544E-03  8208   0.215E-02 0.322E-04
CGA:  24    -0.349620634417E+03   -0.30237E-03   -0.30143E-03  8208   0.100E-02 0.321E-04
CGA:  25    -0.349620852028E+03   -0.21761E-03   -0.21745E-03  8208   0.632E-03 0.112E-05
CGA:  26    -0.349620956525E+03   -0.10450E-03   -0.10458E-03  8208   0.505E-03-0.281E-05
CGA:  27    -0.349621020190E+03   -0.63664E-04   -0.63666E-04  8208   0.309E-03-0.573E-05
CGA:  28    -0.349621074319E+03   -0.54130E-04   -0.54450E-04  8208   0.145E-03-0.637E-05
CGA:  29    -0.349621108693E+03   -0.34373E-04   -0.34648E-04  8208   0.103E-03-0.245E-05
CGA:  30    -0.349621124789E+03   -0.16097E-04   -0.16060E-04  8208   0.774E-04 0.147E-05
CGA:  31    -0.349621135609E+03   -0.10820E-04   -0.10817E-04  8208   0.462E-04 0.190E-05
SDA:  32    -0.349621144155E+03   -0.85452E-05   -0.84968E-05  8208   0.265E-04 0.109E-05
  15 F= -.34962114E+03 E0= -.34961134E+03  d E =0.725043E-01  mag=    30.0235
       N       E                     dE             d eps       ncg     rms          ort
SDA:   1    -0.316058981376E+03    0.33562E+02    0.00000E+00  8208   0.197E+03 0.000E+00
CGA:   2    -0.331526838529E+03   -0.15468E+02   -0.18869E+02  8208   0.592E+02 0.193E+02
CGA:   3    -0.339642020604E+03   -0.81152E+01   -0.51926E+01  8208   0.220E+02 0.238E+02
CGA:   4    -0.342541121713E+03   -0.28991E+01   -0.29836E+01  8208   0.999E+02-0.774E+00
CGA:   5    -0.345679060051E+03   -0.31379E+01   -0.30568E+01  8208   0.958E+02 0.579E+01
CGA:   6    -0.346492747501E+03   -0.81369E+00   -0.25613E+01  8208   0.265E+02-0.681E+02
CGA:   7    -0.348204173860E+03   -0.17114E+01   -0.17908E+01  8208   0.158E+02-0.469E+00
CGA:   8    -0.349066798474E+03   -0.86262E+00   -0.10036E+01  8208   0.762E+01-0.961E+00
CGA:   9    -0.349400666984E+03   -0.33387E+00   -0.41059E+00  8208   0.258E+01-0.454E+00
CGA:  10    -0.349644315630E+03   -0.24365E+00   -0.24180E+00  8208   0.895E+00-0.495E-01
CGA:  11    -0.349707071929E+03   -0.62756E-01   -0.66251E-01  8208   0.535E+00 0.491E-02
CGA:  12    -0.349736996292E+03   -0.29924E-01   -0.32251E-01  8208   0.243E+00-0.156E-01
CGA:  13    -0.349756965989E+03   -0.19970E-01   -0.20250E-01  8208   0.147E+00 0.333E-02
CGA:  14    -0.349774502167E+03   -0.17536E-01   -0.17457E-01  8208   0.530E-01 0.435E-02
CGA:  15    -0.349782610970E+03   -0.81088E-02   -0.80221E-02  8208   0.385E-01 0.162E-02
CGA:  16    -0.349787150668E+03   -0.45397E-02   -0.45123E-02  8208   0.218E-01 0.303E-02
CGA:  17    -0.349789810916E+03   -0.26602E-02   -0.26589E-02  8208   0.158E-01 0.191E-03
CGA:  18    -0.349791894624E+03   -0.20837E-02   -0.20515E-02  8208   0.702E-02 0.106E-02
CGA:  19    -0.349792854537E+03   -0.95991E-03   -0.95535E-03  8208   0.427E-02 0.169E-03
CGA:  20    -0.349793462822E+03   -0.60828E-03   -0.60842E-03  8208   0.218E-02-0.163E-05
CGA:  21    -0.349793731386E+03   -0.26856E-03   -0.26804E-03  8208   0.984E-03 0.322E-04
CGA:  22    -0.349793908875E+03   -0.17749E-03   -0.17568E-03  8208   0.502E-03 0.251E-04
CGA:  23    -0.349793991794E+03   -0.82920E-04   -0.83116E-04  8208   0.399E-03-0.434E-05
CGA:  24    -0.349794047900E+03   -0.56105E-04   -0.56135E-04  8208   0.169E-03-0.250E-05
CGA:  25    -0.349794078433E+03   -0.30533E-04   -0.30445E-04  8208   0.173E-03 0.127E-05
CGA:  26    -0.349794098658E+03   -0.20226E-04   -0.20229E-04  8208   0.669E-04 0.455E-06
CGA:  27    -0.349794113061E+03   -0.14402E-04   -0.14561E-04  8208   0.482E-04-0.172E-05
CGA:  28    -0.349794120706E+03   -0.76457E-05   -0.76938E-05  8208   0.274E-04-0.133E-05
  16 F= -.34979412E+03 E0= -.34978337E+03  d E =-.172977E+00  mag=    30.0242
       N       E                     dE             d eps       ncg     rms          ort
SDA:   1    -0.347862110873E+03    0.19320E+01    0.00000E+00  8208   0.784E+01 0.000E+00
CGA:   2    -0.348880042932E+03   -0.10179E+01   -0.10181E+01  8208   0.333E+01 0.126E+00
CGA:   3    -0.349354543269E+03   -0.47450E+00   -0.47868E+00  8208   0.267E+01-0.241E+00
CGA:   4    -0.349668219704E+03   -0.31368E+00   -0.31371E+00  8208   0.773E+00 0.405E-02
CGA:   5    -0.349763183171E+03   -0.94963E-01   -0.94964E-01  8208   0.242E+00 0.153E-03
CGA:   6    -0.349787816212E+03   -0.24633E-01   -0.24658E-01  8208   0.816E-01 0.239E-03
CGA:   7    -0.349799011397E+03   -0.11195E-01   -0.11193E-01  8208   0.224E-01 0.177E-03
CGA:   8    -0.349802868749E+03   -0.38574E-02   -0.38553E-02  8208   0.102E-01 0.429E-04
CGA:   9    -0.349803980350E+03   -0.11116E-02   -0.11119E-02  8208   0.448E-02 0.726E-05
CGA:  10    -0.349804615895E+03   -0.63555E-03   -0.63542E-03  8208   0.188E-02 0.797E-05
CGA:  11    -0.349804857455E+03   -0.24156E-03   -0.24157E-03  8208   0.999E-03 0.200E-05
CGA:  12    -0.349805009435E+03   -0.15198E-03   -0.15180E-03  8208   0.448E-03 0.584E-05
CGA:  13    -0.349805073329E+03   -0.63894E-04   -0.63882E-04  8208   0.231E-03 0.954E-06
CGA:  14    -0.349805112389E+03   -0.39060E-04   -0.39031E-04  8208   0.113E-03 0.433E-06
CGA:  15    -0.349805126494E+03   -0.14105E-04   -0.14106E-04  8208   0.725E-04-0.120E-06
CGA:  16    -0.349805137720E+03   -0.11225E-04   -0.11224E-04  8208   0.277E-04-0.678E-07
CGA:  17    -0.349805141728E+03   -0.40077E-05   -0.40061E-05  8208   0.189E-04 0.535E-07
  17 F= -.34980514E+03 E0= -.34979458E+03  d E =-.110210E-01  mag=    30.0238
       N       E                     dE             d eps       ncg     rms          ort
SDA:   1    -0.349636642712E+03    0.16850E+00    0.00000E+00  8208   0.584E+00 0.000E+00
CGA:   2    -0.349724997801E+03   -0.88355E-01   -0.88334E-01  8208   0.332E+00 0.906E-03
CGA:   3    -0.349768529239E+03   -0.43531E-01   -0.43532E-01  8208   0.207E+00 0.895E-04
CGA:   4    -0.349793412204E+03   -0.24883E-01   -0.24868E-01  8208   0.588E-01-0.305E-03
CGA:   5    -0.349800613913E+03   -0.72017E-02   -0.72015E-02  8208   0.170E-01 0.235E-05
CGA:   6    -0.349802553557E+03   -0.19396E-02   -0.19410E-02  8208   0.635E-02 0.234E-04
CGA:   7    -0.349803376328E+03   -0.82277E-03   -0.82276E-03  8208   0.196E-02 0.343E-06
CGA:   8    -0.349803659929E+03   -0.28360E-03   -0.28359E-03  8208   0.107E-02 0.113E-05
CGA:   9    -0.349803773029E+03   -0.11310E-03   -0.11312E-03  8208   0.358E-03 0.275E-06
CGA:  10    -0.349803832572E+03   -0.59543E-04   -0.59552E-04  8208   0.173E-03-0.250E-06
CGA:  11    -0.349803855480E+03   -0.22908E-04   -0.22907E-04  8208   0.962E-04-0.234E-06
CGA:  12    -0.349803871109E+03   -0.15630E-04   -0.15630E-04  8208   0.493E-04-0.166E-07
CGA:  13    -0.349803877605E+03   -0.64960E-05   -0.64967E-05  8208   0.291E-04 0.151E-06
  18 F= -.34980388E+03 E0= -.34979331E+03  d E =0.126412E-02  mag=    30.0242
       N       E                     dE             d eps       ncg     rms          ort
SDA:   1    -0.349389519579E+03    0.41435E+00    0.00000E+00  8208   0.116E+01 0.000E+00
CGA:   2    -0.349635759920E+03   -0.24624E+00   -0.24631E+00  8208   0.868E+00-0.655E-03
CGA:   3    -0.349738519603E+03   -0.10276E+00   -0.10294E+00  8208   0.418E+00 0.247E-02
CGA:   4    -0.349782462765E+03   -0.43943E-01   -0.43819E-01  8208   0.101E+00-0.631E-03
CGA:   5    -0.349795773773E+03   -0.13311E-01   -0.13312E-01  8208   0.278E-01 0.644E-04
CGA:   6    -0.349799287977E+03   -0.35142E-02   -0.35147E-02  8208   0.126E-01 0.291E-04
CGA:   7    -0.349800697108E+03   -0.14091E-02   -0.14092E-02  8208   0.378E-02 0.424E-05
CGA:   8    -0.349801282004E+03   -0.58490E-03   -0.58493E-03  8208   0.179E-02-0.288E-06
CGA:   9    -0.349801470266E+03   -0.18826E-03   -0.18830E-03  8208   0.722E-03 0.981E-07
CGA:  10    -0.349801591380E+03   -0.12111E-03   -0.12114E-03  8208   0.300E-03-0.662E-06
CGA:  11    -0.349801637621E+03   -0.46240E-04   -0.46240E-04  8208   0.244E-03 0.252E-08
CGA:  12    -0.349801671765E+03   -0.34144E-04   -0.34143E-04  8208   0.977E-04 0.248E-06
CGA:  13    -0.349801687977E+03   -0.16213E-04   -0.16196E-04  8208   0.747E-04 0.581E-06
CGA:  14    -0.349801697241E+03   -0.92640E-05   -0.92735E-05  8208   0.259E-04 0.629E-06
  19 F= -.34980170E+03 E0= -.34979108E+03  d E =0.218036E-02  mag=    30.0247
       N       E                     dE             d eps       ncg     rms          ort
SDA:   1    -0.349081239498E+03    0.72045E+00    0.00000E+00  8208   0.182E+01 0.000E+00
CGA:   2    -0.349577788552E+03   -0.49655E+00   -0.49660E+00  8208   0.117E+01-0.380E-03
CGA:   3    -0.349739520118E+03   -0.16173E+00   -0.16174E+00  8208   0.391E+00 0.261E-03
CGA:   4    -0.349781537120E+03   -0.42017E-01   -0.42000E-01  8208   0.124E+00 0.310E-04
CGA:   5    -0.349795321557E+03   -0.13784E-01   -0.13783E-01  8208   0.365E-01 0.198E-04
CGA:   6    -0.349800037523E+03   -0.47160E-02   -0.47175E-02  8208   0.163E-01 0.546E-04
CGA:   7    -0.349801770055E+03   -0.17325E-02   -0.17321E-02  8208   0.535E-02-0.964E-06
CGA:   8    -0.349802582117E+03   -0.81206E-03   -0.81206E-03  8208   0.171E-02 0.570E-06
CGA:   9    -0.349802829000E+03   -0.24688E-03   -0.24689E-03  8208   0.970E-03 0.512E-07
CGA:  10    -0.349802959729E+03   -0.13073E-03   -0.13074E-03  8208   0.446E-03 0.122E-05
CGA:  11    -0.349803031800E+03   -0.72071E-04   -0.72062E-04  8208   0.344E-03 0.654E-06
CGA:  12    -0.349803078928E+03   -0.47128E-04   -0.47131E-04  8208   0.168E-03 0.676E-06
CGA:  13    -0.349803106361E+03   -0.27432E-04   -0.27420E-04  8208   0.110E-03 0.598E-06
CGA:  14    -0.349803122120E+03   -0.15760E-04   -0.15760E-04  8208   0.432E-04 0.346E-06
CGA:  15    -0.349803129259E+03   -0.71390E-05   -0.71267E-05  8208   0.273E-04 0.577E-06
  20 F= -.34980313E+03 E0= -.34979254E+03  d E =-.143202E-02  mag=    30.0242
       N       E                     dE             d eps       ncg     rms          ort
SDA:   1    -0.334905693263E+03    0.14897E+02    0.00000E+00  8208   0.401E+02 0.000E+00
CGA:   2    -0.344378371775E+03   -0.94727E+01   -0.94779E+01  8208   0.261E+02-0.518E-01
CGA:   3    -0.348347914404E+03   -0.39695E+01   -0.39676E+01  8208   0.866E+01 0.193E+00
CGA:   4    -0.349349116095E+03   -0.10012E+01   -0.98768E+00  8208   0.283E+01-0.524E-01
CGA:   5    -0.349643813377E+03   -0.29470E+00   -0.29661E+00  8208   0.830E+00 0.807E-02
CGA:   6    -0.349757682455E+03   -0.11387E+00   -0.11378E+00  8208   0.343E+00-0.557E-02
CGA:   7    -0.349793650255E+03   -0.35968E-01   -0.36192E-01  8208   0.135E+00 0.100E-02
CGA:   8    -0.349812562353E+03   -0.18912E-01   -0.18912E-01  8208   0.392E-01 0.165E-03
CGA:   9    -0.349818763895E+03   -0.62015E-02   -0.62022E-02  8208   0.232E-01-0.900E-05
CGA:  10    -0.349821655813E+03   -0.28919E-02   -0.28945E-02  8208   0.978E-02 0.659E-04
CGA:  11    -0.349823547623E+03   -0.18918E-02   -0.18885E-02  8208   0.727E-02 0.545E-04
CGA:  12    -0.349824418547E+03   -0.87092E-03   -0.87044E-03  8208   0.382E-02 0.222E-05
CGA:  13    -0.349825099564E+03   -0.68102E-03   -0.68025E-03  8208   0.203E-02 0.189E-04
CGA:  14    -0.349825364096E+03   -0.26453E-03   -0.26457E-03  8208   0.106E-02 0.412E-05
CGA:  15    -0.349825539873E+03   -0.17578E-03   -0.17562E-03  8208   0.429E-03 0.665E-05
CGA:  16    -0.349825600261E+03   -0.60388E-04   -0.60396E-04  8208   0.290E-03 0.179E-05
CGA:  17    -0.349825645482E+03   -0.45221E-04   -0.45198E-04  8208   0.150E-03 0.207E-05
CGA:  18    -0.349825669129E+03   -0.23647E-04   -0.23642E-04  8208   0.128E-03 0.558E-06
CGA:  19    -0.349825693863E+03   -0.24734E-04   -0.24737E-04  8208   0.832E-04-0.120E-06
CGA:  20    -0.349825709066E+03   -0.15203E-04   -0.15241E-04  8208   0.785E-04-0.106E-05
CGA:  21    -0.349825722835E+03   -0.13769E-04   -0.13797E-04  8208   0.479E-04-0.108E-05
CGA:  22    -0.349825729578E+03   -0.67426E-05   -0.67393E-05  8208   0.329E-04-0.378E-06
  21 F= -.34982573E+03 E0= -.34981505E+03  d E =-.226003E-01  mag=    30.0323
       N       E                     dE             d eps       ncg     rms          ort
SDA:   1    -0.293405738095E+03    0.56420E+02    0.00000E+00  8208   0.271E+03 0.000E+00
CGA:   2    -0.320359535279E+03   -0.26954E+02   -0.29543E+02  8208   0.121E+03 0.810E+01
CGA:   3    -0.335364396015E+03   -0.15005E+02   -0.11578E+02  8208   0.399E+02 0.307E+02
CGA:   4    -0.341018434722E+03   -0.56540E+01   -0.54190E+01  8208   0.187E+03-0.339E+01
CGA:   5    -0.345378595464E+03   -0.43602E+01   -0.45444E+01  8208   0.406E+02-0.307E+02
CGA:   6    -0.346721305479E+03   -0.13427E+01   -0.15843E+01  8208   0.302E+02-0.983E+00
CGA:   7    -0.347356074386E+03   -0.63477E+00   -0.12298E+01  8208   0.507E+02-0.107E+02
CGA:   8    -0.347657555586E+03   -0.30148E+00   -0.62270E+00  8208   0.232E+02-0.180E+02
CGA:   9    -0.347944466514E+03   -0.28691E+00   -0.33479E+00  8208   0.136E+02-0.117E+01
CGA:  10    -0.348229430745E+03   -0.28496E+00   -0.32692E+00  8208   0.117E+02-0.222E+01
CGA:  11    -0.348476744247E+03   -0.24731E+00   -0.24775E+00  8208   0.102E+02-0.207E+00
CGA:  12    -0.348653055695E+03   -0.17631E+00   -0.16894E+00  8208   0.606E+01 0.262E-01
CGA:  13    -0.348776606085E+03   -0.12355E+00   -0.16036E+00  8208   0.974E+01-0.134E+01
CGA:  14    -0.348928104333E+03   -0.15150E+00   -0.17188E+00  8208   0.956E+01-0.763E+00
CGA:  15    -0.349039755708E+03   -0.11165E+00   -0.20113E+00  8208   0.828E+01-0.323E+01
CGA:  16    -0.349123054193E+03   -0.83298E-01   -0.72873E-01  8208   0.556E+01 0.814E+00
CGA:  17    -0.349214788461E+03   -0.91734E-01   -0.82933E-01  8208   0.227E+01 0.660E+00
CGA:  18    -0.349259090382E+03   -0.44302E-01   -0.61439E-01  8208   0.199E+01-0.556E+00
CGA:  19    -0.349309216626E+03   -0.50126E-01   -0.55919E-01  8208   0.312E+01-0.775E-01
CGA:  20    -0.349414219609E+03   -0.10500E+00   -0.10733E+00  8208   0.184E+01-0.342E-01
CGA:  21    -0.349464655125E+03   -0.50436E-01   -0.60892E-01  8208   0.106E+01-0.173E+00
CGA:  22    -0.349504836592E+03   -0.40181E-01   -0.37954E-01  8208   0.657E+00 0.327E-01
CGA:  23    -0.349534305809E+03   -0.29469E-01   -0.30966E-01  8208   0.438E+00-0.330E-02
CGA:  24    -0.349556018355E+03   -0.21713E-01   -0.22309E-01  8208   0.386E+00 0.311E-02
CGA:  25    -0.349586482784E+03   -0.30464E-01   -0.30310E-01  8208   0.303E+00 0.140E-01
CGA:  26    -0.349605995412E+03   -0.19513E-01   -0.19732E-01  8208   0.169E+00 0.887E-02
CGA:  27    -0.349619345317E+03   -0.13350E-01   -0.13337E-01  8208   0.100E+00 0.152E-02
CGA:  28    -0.349627515332E+03   -0.81700E-02   -0.81533E-02  8208   0.722E-01 0.117E-02
CGA:  29    -0.349635743328E+03   -0.82280E-02   -0.81228E-02  8208   0.701E-01 0.220E-02
CGA:  30    -0.349641919357E+03   -0.61760E-02   -0.61695E-02  8208   0.341E-01 0.315E-03
CGA:  31    -0.349644841756E+03   -0.29224E-02   -0.29234E-02  8208   0.194E-01-0.805E-04
SDA:  32    -0.349647026264E+03   -0.21845E-02   -0.21838E-02  8208   0.205E-01 0.855E-05
CGA:  33    -0.349649026735E+03   -0.20005E-02   -0.19970E-02  8208   0.826E-02 0.134E-03
CGA:  34    -0.349650421476E+03   -0.13947E-02   -0.13936E-02  8208   0.631E-02 0.139E-04
CGA:  35    -0.349651309408E+03   -0.88793E-03   -0.88806E-03  8208   0.220E-02-0.182E-05
CGA:  36    -0.349651612506E+03   -0.30310E-03   -0.30396E-03  8208   0.142E-02-0.158E-04
CGA:  37    -0.349651971662E+03   -0.35916E-03   -0.36098E-03  8208   0.131E-02-0.103E-04
CGA:  38    -0.349652192777E+03   -0.22112E-03   -0.22072E-03  8208   0.583E-03 0.546E-05
CGA:  39    -0.349652352112E+03   -0.15933E-03   -0.15922E-03  8208   0.645E-03 0.784E-06
CGA:  40    -0.349652442476E+03   -0.90365E-04   -0.90447E-04  8208   0.212E-03-0.276E-05
CGA:  41    -0.349652476917E+03   -0.34440E-04   -0.34517E-04  8208   0.131E-03-0.142E-05
CGA:  42    -0.349652502499E+03   -0.25582E-04   -0.25504E-04  8208   0.388E-04 0.916E-06
CGA:  43    -0.349652506894E+03   -0.43951E-05   -0.43945E-05  8208   0.289E-04-0.148E-06
  22 F= -.34965251E+03 E0= -.34964297E+03  d E =0.173223E+00  mag=    30.0112
       N       E                     dE             d eps       ncg     rms          ort
SDA:   1    -0.337271316550E+03    0.12381E+02    0.00000E+00  8208   0.471E+02 0.000E+00
CGA:   2    -0.344240281035E+03   -0.69690E+01   -0.69406E+01  8208   0.205E+02 0.736E+00
CGA:   3    -0.347464623497E+03   -0.32243E+01   -0.34049E+01  8208   0.208E+02-0.426E+01
CGA:   4    -0.348984231177E+03   -0.15196E+01   -0.15537E+01  8208   0.548E+01 0.265E+00
CGA:   5    -0.349574288162E+03   -0.59006E+00   -0.59235E+00  8208   0.243E+01 0.481E-01
CGA:   6    -0.349784189689E+03   -0.20990E+00   -0.21032E+00  8208   0.804E+00 0.110E-01
CGA:   7    -0.349882939123E+03   -0.98749E-01   -0.98706E-01  8208   0.360E+00 0.169E-01
CGA:   8    -0.349912251587E+03   -0.29312E-01   -0.29863E-01  8208   0.161E+00 0.988E-03
CGA:   9    -0.349935564358E+03   -0.23313E-01   -0.23274E-01  8208   0.582E-01 0.105E-02
CGA:  10    -0.349942352750E+03   -0.67884E-02   -0.67977E-02  8208   0.322E-01 0.108E-02
CGA:  11    -0.349946494548E+03   -0.41418E-02   -0.41400E-02  8208   0.140E-01 0.166E-03
CGA:  12    -0.349948226673E+03   -0.17321E-02   -0.17317E-02  8208   0.805E-02 0.839E-04
CGA:  13    -0.349949337638E+03   -0.11110E-02   -0.11097E-02  8208   0.378E-02 0.529E-04
CGA:  14    -0.349949880498E+03   -0.54286E-03   -0.54262E-03  8208   0.176E-02 0.869E-05
CGA:  15    -0.349950202348E+03   -0.32185E-03   -0.32064E-03  8208   0.103E-02 0.170E-04
CGA:  16    -0.349950321811E+03   -0.11946E-03   -0.11950E-03  8208   0.602E-03 0.252E-05
CGA:  17    -0.349950416427E+03   -0.94617E-04   -0.94552E-04  8208   0.256E-03 0.152E-05
CGA:  18    -0.349950454417E+03   -0.37990E-04   -0.37940E-04  8208   0.160E-03 0.200E-05
CGA:  19    -0.349950479986E+03   -0.25569E-04   -0.25506E-04  8208   0.726E-04 0.183E-05
CGA:  20    -0.349950492730E+03   -0.12745E-04   -0.12739E-04  8208   0.470E-04 0.282E-07
CGA:  21    -0.349950499836E+03   -0.71059E-05   -0.71068E-05  8208   0.317E-04-0.133E-06
  23 F= -.34995050E+03 E0= -.34994072E+03  d E =-.297993E+00  mag=    30.0156
       N       E                     dE             d eps       ncg     rms          ort
SDA:   1    -0.347219202297E+03    0.27313E+01    0.00000E+00  8208   0.102E+02 0.000E+00
CGA:   2    -0.348729662402E+03   -0.15105E+01   -0.15100E+01  8208   0.457E+01 0.196E-01
CGA:   3    -0.349455857558E+03   -0.72620E+00   -0.72747E+00  8208   0.308E+01-0.415E-01
CGA:   4    -0.349809620980E+03   -0.35376E+00   -0.35266E+00  8208   0.981E+00-0.143E-01
CGA:   5    -0.349926625395E+03   -0.11700E+00   -0.11720E+00  8208   0.250E+00 0.580E-02
CGA:   6    -0.349959031217E+03   -0.32406E-01   -0.32397E-01  8208   0.106E+00-0.106E-02
CGA:   7    -0.349970872352E+03   -0.11841E-01   -0.11855E-01  8208   0.325E-01 0.243E-03
CGA:   8    -0.349976155784E+03   -0.52834E-02   -0.52843E-02  8208   0.122E-01-0.129E-04
CGA:   9    -0.349977676045E+03   -0.15203E-02   -0.15212E-02  8208   0.668E-02 0.574E-04
CGA:  10    -0.349978576658E+03   -0.90061E-03   -0.90062E-03  8208   0.220E-02-0.630E-06
CGA:  11    -0.349978966776E+03   -0.39012E-03   -0.38965E-03  8208   0.151E-02 0.881E-05
CGA:  12    -0.349979155157E+03   -0.18838E-03   -0.18841E-03  8208   0.602E-03 0.222E-05
CGA:  13    -0.349979266343E+03   -0.11119E-03   -0.11099E-03  8208   0.353E-03 0.333E-05
CGA:  14    -0.349979309438E+03   -0.43095E-04   -0.43107E-04  8208   0.166E-03 0.921E-06
CGA:  15    -0.349979338064E+03   -0.28625E-04   -0.28580E-04  8208   0.776E-04 0.114E-05
CGA:  16    -0.349979348297E+03   -0.10233E-04   -0.10236E-04  8208   0.387E-04 0.447E-06
CGA:  17    -0.349979354820E+03   -0.65239E-05   -0.65126E-05  8208   0.182E-04 0.307E-06
  24 F= -.34997935E+03 E0= -.34996934E+03  d E =-.288550E-01  mag=    30.0226
       N       E                     dE             d eps       ncg     rms          ort
SDA:   1    -0.349558185651E+03    0.42116E+00    0.00000E+00  8208   0.150E+01 0.000E+00
CGA:   2    -0.349782103489E+03   -0.22392E+00   -0.22394E+00  8208   0.717E+00-0.112E-02
CGA:   3    -0.349887966809E+03   -0.10586E+00   -0.10578E+00  8208   0.456E+00 0.603E-02
CGA:   4    -0.349942411102E+03   -0.54444E-01   -0.54254E-01  8208   0.150E+00-0.269E-02
CGA:   5    -0.349960750759E+03   -0.18340E-01   -0.18354E-01  8208   0.371E-01 0.360E-03
CGA:   6    -0.349965716090E+03   -0.49653E-02   -0.49650E-02  8208   0.151E-01-0.253E-04
CGA:   7    -0.349967407830E+03   -0.16917E-02   -0.16924E-02  8208   0.489E-02 0.136E-04
CGA:   8    -0.349968173637E+03   -0.76581E-03   -0.76583E-03  8208   0.189E-02 0.184E-05
CGA:   9    -0.349968411459E+03   -0.23782E-03   -0.23787E-03  8208   0.101E-02 0.279E-05
CGA:  10    -0.349968550204E+03   -0.13874E-03   -0.13875E-03  8208   0.346E-03-0.137E-05
CGA:  11    -0.349968612393E+03   -0.62189E-04   -0.62220E-04  8208   0.244E-03-0.618E-06
CGA:  12    -0.349968642934E+03   -0.30541E-04   -0.30537E-04  8208   0.100E-03-0.142E-06
CGA:  13    -0.349968661123E+03   -0.18189E-04   -0.18156E-04  8208   0.589E-04 0.798E-06
CGA:  14    -0.349968668259E+03   -0.71356E-05   -0.71472E-05  8208   0.273E-04 0.600E-06
  25 F= -.34996867E+03 E0= -.34995849E+03  d E =0.106866E-01  mag=    30.0272
       N       E                     dE             d eps       ncg     rms          ort
SDA:   1    -0.349586817539E+03    0.38184E+00    0.00000E+00  8208   0.118E+01 0.000E+00
CGA:   2    -0.349799562878E+03   -0.21275E+00   -0.21275E+00  8208   0.563E+00-0.472E-04
CGA:   3    -0.349895970909E+03   -0.96408E-01   -0.96404E-01  8208   0.246E+00 0.892E-04
CGA:   4    -0.349930319005E+03   -0.34348E-01   -0.34345E-01  8208   0.781E-01-0.280E-03
CGA:   5    -0.349939447216E+03   -0.91282E-02   -0.91386E-02  8208   0.253E-01 0.107E-03
CGA:   6    -0.349942719270E+03   -0.32721E-02   -0.32717E-02  8208   0.738E-02-0.384E-05
CGA:   7    -0.349943799381E+03   -0.10801E-02   -0.10801E-02  8208   0.379E-02-0.380E-06
CGA:   8    -0.349944207302E+03   -0.40792E-03   -0.40834E-03  8208   0.148E-02 0.392E-05
CGA:   9    -0.349944448641E+03   -0.24134E-03   -0.24140E-03  8208   0.623E-03-0.213E-05
CGA:  10    -0.349944542709E+03   -0.94067E-04   -0.94086E-04  8208   0.411E-03-0.181E-05
CGA:  11    -0.349944608575E+03   -0.65866E-04   -0.65886E-04  8208   0.174E-03-0.104E-05
CGA:  12    -0.349944641153E+03   -0.32578E-04   -0.32547E-04  8208   0.129E-03 0.736E-06
CGA:  13    -0.349944656454E+03   -0.15301E-04   -0.15324E-04  8208   0.537E-04 0.916E-06
CGA:  14    -0.349944665545E+03   -0.90913E-05   -0.90667E-05  8208   0.322E-04 0.105E-05
  26 F= -.34994467E+03 E0= -.34993433E+03  d E =0.240027E-01  mag=    30.0310
       N       E                     dE             d eps       ncg     rms          ort
SDA:   1    -0.349712268121E+03    0.23239E+00    0.00000E+00  8208   0.618E+00 0.000E+00
CGA:   2    -0.349847829225E+03   -0.13556E+00   -0.13564E+00  8208   0.339E+00-0.947E-03
CGA:   3    -0.349891236116E+03   -0.43407E-01   -0.43495E-01  8208   0.179E+00 0.161E-02
CGA:   4    -0.349911357447E+03   -0.20121E-01   -0.20044E-01  8208   0.548E-01-0.377E-03
CGA:   5    -0.349918249297E+03   -0.68918E-02   -0.68962E-02  8208   0.133E-01 0.867E-04
CGA:   6    -0.349920050158E+03   -0.18009E-02   -0.18007E-02  8208   0.566E-02-0.305E-05
CGA:   7    -0.349920706045E+03   -0.65589E-03   -0.65620E-03  8208   0.209E-02 0.660E-05
CGA:   8    -0.349921035260E+03   -0.32922E-03   -0.32926E-03  8208   0.863E-03-0.111E-05
CGA:   9    -0.349921150075E+03   -0.11481E-03   -0.11482E-03  8208   0.536E-03-0.258E-06
CGA:  10    -0.349921230659E+03   -0.80584E-04   -0.80600E-04  8208   0.254E-03-0.180E-05
CGA:  11    -0.349921276589E+03   -0.45930E-04   -0.45949E-04  8208   0.185E-03-0.511E-06
CGA:  12    -0.349921303837E+03   -0.27248E-04   -0.27248E-04  8208   0.942E-04 0.190E-06
CGA:  13    -0.349921318092E+03   -0.14255E-04   -0.14251E-04  8208   0.565E-04 0.780E-06
CGA:  14    -0.349921325939E+03   -0.78468E-05   -0.78515E-05  8208   0.227E-04 0.634E-06
  27 F= -.34992133E+03 E0= -.34991094E+03  d E =0.233396E-01  mag=    30.0315
       N       E                     dE             d eps       ncg     rms          ort
SDA:   1    -0.349796782738E+03    0.12454E+00    0.00000E+00  8208   0.324E+00 0.000E+00
CGA:   2    -0.349866485515E+03   -0.69703E-01   -0.69704E-01  8208   0.196E+00-0.150E-04
CGA:   3    -0.349893484953E+03   -0.26999E-01   -0.26996E-01  8208   0.938E-01-0.118E-03
CGA:   4    -0.349903798061E+03   -0.10313E-01   -0.10340E-01  8208   0.284E-01 0.119E-03
CGA:   5    -0.349907139585E+03   -0.33415E-02   -0.33379E-02  8208   0.781E-02-0.276E-04
CGA:   6    -0.349908100844E+03   -0.96126E-03   -0.96157E-03  8208   0.314E-02 0.715E-05
CGA:   7    -0.349908487500E+03   -0.38666E-03   -0.38670E-03  8208   0.106E-02 0.170E-05
CGA:   8    -0.349908659818E+03   -0.17232E-03   -0.17231E-03  8208   0.415E-03 0.622E-06
CGA:   9    -0.349908715447E+03   -0.55629E-04   -0.55622E-04  8208   0.243E-03-0.447E-06
CGA:  10    -0.349908749789E+03   -0.34342E-04   -0.34342E-04  8208   0.118E-03-0.223E-06
CGA:  11    -0.349908769463E+03   -0.19674E-04   -0.19682E-04  8208   0.843E-04-0.289E-06
CGA:  12    -0.349908781952E+03   -0.12489E-04   -0.12489E-04  8208   0.410E-04-0.564E-07
CGA:  13    -0.349908788913E+03   -0.69610E-05   -0.69568E-05  8208   0.246E-04 0.168E-06
  28 F= -.34990879E+03 E0= -.34989841E+03  d E =0.125370E-01  mag=    30.0307
       N       E                     dE             d eps       ncg     rms          ort
SDA:   1    -0.349744493546E+03    0.16429E+00    0.00000E+00  8208   0.412E+00 0.000E+00
CGA:   2    -0.349847588738E+03   -0.10310E+00   -0.10311E+00  8208   0.253E+00-0.877E-04
CGA:   3    -0.349885867338E+03   -0.38279E-01   -0.38278E-01  8208   0.813E-01 0.170E-03
CGA:   4    -0.349896101690E+03   -0.10234E-01   -0.10230E-01  8208   0.237E-01-0.474E-04
CGA:   5    -0.349898781902E+03   -0.26802E-02   -0.26830E-02  8208   0.744E-02 0.175E-04
CGA:   6    -0.349899818025E+03   -0.10361E-02   -0.10361E-02  8208   0.247E-02-0.162E-05
CGA:   7    -0.349900146507E+03   -0.32848E-03   -0.32856E-03  8208   0.128E-02 0.270E-05
CGA:   8    -0.349900285809E+03   -0.13930E-03   -0.13921E-03  8208   0.391E-03-0.324E-06
CGA:   9    -0.349900352864E+03   -0.67054E-04   -0.67060E-04  8208   0.195E-03-0.207E-06
CGA:  10    -0.349900380872E+03   -0.28008E-04   -0.28008E-04  8208   0.120E-03 0.349E-07
CGA:  11    -0.349900402815E+03   -0.21943E-04   -0.21948E-04  8208   0.613E-04-0.128E-06
CGA:  12    -0.349900413132E+03   -0.10317E-04   -0.10316E-04  8208   0.477E-04 0.432E-07
CGA:  13    -0.349900419599E+03   -0.64670E-05   -0.64683E-05  8208   0.206E-04 0.906E-07
  29 F= -.34990042E+03 E0= -.34989006E+03  d E =0.836931E-02  mag=    30.0306
       N       E                     dE             d eps       ncg     rms          ort
SDA:   1    -0.349035996489E+03    0.86442E+00    0.00000E+00  8208   0.228E+01 0.000E+00
CGA:   2    -0.349580249952E+03   -0.54425E+00   -0.54480E+00  8208   0.163E+01-0.534E-02
CGA:   3    -0.349793553369E+03   -0.21330E+00   -0.21419E+00  8208   0.680E+00 0.142E-01
CGA:   4    -0.349863535123E+03   -0.69982E-01   -0.68973E-01  8208   0.177E+00 0.143E-03
CGA:   5    -0.349885467436E+03   -0.21932E-01   -0.21974E-01  8208   0.479E-01 0.539E-03
CGA:   6    -0.349891925134E+03   -0.64577E-02   -0.64551E-02  8208   0.215E-01-0.716E-04
CGA:   7    -0.349894392375E+03   -0.24672E-02   -0.24689E-02  8208   0.657E-02 0.172E-04
CGA:   8    -0.349895442482E+03   -0.10501E-02   -0.10503E-02  8208   0.237E-02-0.658E-05
CGA:   9    -0.349895737499E+03   -0.29502E-03   -0.29519E-03  8208   0.133E-02 0.312E-05
CGA:  10    -0.349895927377E+03   -0.18988E-03   -0.18987E-03  8208   0.544E-03-0.614E-06
CGA:  11    -0.349896025198E+03   -0.97821E-04   -0.97773E-04  8208   0.418E-03 0.122E-05
CGA:  12    -0.349896084765E+03   -0.59567E-04   -0.59567E-04  8208   0.198E-03 0.195E-06
CGA:  13    -0.349896119785E+03   -0.35020E-04   -0.34996E-04  8208   0.129E-03 0.765E-06
CGA:  14    -0.349896137061E+03   -0.17276E-04   -0.17279E-04  8208   0.574E-04 0.307E-06
CGA:  15    -0.349896145559E+03   -0.84984E-05   -0.84982E-05  8208   0.324E-04 0.350E-06
  30 F= -.34989615E+03 E0= -.34988577E+03  d E =0.427404E-02  mag=    30.0319
       N       E                     dE             d eps       ncg     rms          ort
SDA:   1    -0.336602790546E+03    0.13293E+02    0.00000E+00  8208   0.355E+02 0.000E+00
CGA:   2    -0.345102436688E+03   -0.84996E+01   -0.85107E+01  8208   0.235E+02-0.115E+00
CGA:   3    -0.348539455020E+03   -0.34370E+01   -0.34407E+01  8208   0.798E+01 0.418E+00
CGA:   4    -0.349440287071E+03   -0.90083E+00   -0.83374E+00  8208   0.263E+01 0.149E+00
CGA:   5    -0.349733653396E+03   -0.29337E+00   -0.29914E+00  8208   0.695E+00 0.320E-01
CGA:   6    -0.349838514843E+03   -0.10486E+00   -0.10489E+00  8208   0.271E+00-0.581E-02
CGA:   7    -0.349869874964E+03   -0.31360E-01   -0.31490E-01  8208   0.114E+00 0.126E-02
CGA:   8    -0.349885330568E+03   -0.15456E-01   -0.15441E-01  8208   0.351E-01-0.575E-03
CGA:   9    -0.349890423565E+03   -0.50930E-02   -0.50926E-02  8208   0.215E-01 0.307E-03
CGA:  10    -0.349893105209E+03   -0.26816E-02   -0.26772E-02  8208   0.898E-02-0.575E-04
CGA:  11    -0.349894892616E+03   -0.17874E-02   -0.17836E-02  8208   0.597E-02 0.582E-04
CGA:  12    -0.349895725426E+03   -0.83281E-03   -0.83261E-03  8208   0.356E-02-0.628E-05
CGA:  13    -0.349896309701E+03   -0.58427E-03   -0.58377E-03  8208   0.181E-02 0.221E-04
CGA:  14    -0.349896555372E+03   -0.24567E-03   -0.24562E-03  8208   0.995E-03 0.889E-06
CGA:  15    -0.349896702673E+03   -0.14730E-03   -0.14729E-03  8208   0.411E-03 0.520E-05
CGA:  16    -0.349896762536E+03   -0.59863E-04   -0.59865E-04  8208   0.246E-03 0.153E-05
CGA:  17    -0.349896803684E+03   -0.41148E-04   -0.41113E-04  8208   0.135E-03 0.164E-05
CGA:  18    -0.349896825201E+03   -0.21516E-04   -0.21519E-04  8208   0.118E-03-0.898E-07
CGA:  19    -0.349896847316E+03   -0.22115E-04   -0.22120E-04  8208   0.737E-04-0.177E-06
CGA:  20    -0.349896860653E+03   -0.13337E-04   -0.13379E-04  8208   0.747E-04-0.127E-05
CGA:  21    -0.349896873137E+03   -0.12485E-04   -0.12502E-04  8208   0.363E-04-0.966E-06
CGA:  22    -0.349896879155E+03   -0.60177E-05   -0.60270E-05  8208   0.318E-04-0.571E-06
  31 F= -.34989688E+03 E0= -.34988598E+03  d E =-.733596E-03  mag=    30.0556
       N       E                     dE             d eps       ncg     rms          ort
SDA:   1    -0.314396097891E+03    0.35501E+02    0.00000E+00  8208   0.933E+02 0.000E+00
CGA:   2    -0.337853093315E+03   -0.23457E+02   -0.23434E+02  8208   0.585E+02 0.198E+00
CGA:   3    -0.346633735997E+03   -0.87806E+01   -0.87604E+01  8208   0.222E+02-0.940E+00
CGA:   4    -0.348686791547E+03   -0.20531E+01   -0.21922E+01  8208   0.718E+01 0.571E+00
CGA:   5    -0.349417441519E+03   -0.73065E+00   -0.57540E+00  8208   0.149E+01 0.174E+01
CGA:   6    -0.349717260915E+03   -0.29982E+00   -0.30053E+00  8208   0.162E+01-0.355E-01
CGA:   7    -0.349793234818E+03   -0.75974E-01   -0.94277E-01  8208   0.517E+00-0.170E+00
CGA:   8    -0.349857563003E+03   -0.64328E-01   -0.64326E-01  8208   0.255E+00 0.805E-05
CGA:   9    -0.349877691601E+03   -0.20129E-01   -0.19563E-01  8208   0.130E+00 0.395E-02
CGA:  10    -0.349894683813E+03   -0.16992E-01   -0.17021E-01  8208   0.751E-01 0.900E-03
CGA:  11    -0.349901408893E+03   -0.67251E-02   -0.67895E-02  8208   0.381E-01-0.408E-04
CGA:  12    -0.349906753495E+03   -0.53446E-02   -0.53449E-02  8208   0.249E-01-0.240E-03
CGA:  13    -0.349909464838E+03   -0.27113E-02   -0.27259E-02  8208   0.155E-01 0.137E-03
CGA:  14    -0.349911192269E+03   -0.17274E-02   -0.17293E-02  8208   0.996E-02 0.284E-04
CGA:  15    -0.349912485467E+03   -0.12932E-02   -0.12925E-02  8208   0.457E-02-0.328E-04
CGA:  16    -0.349912983562E+03   -0.49809E-03   -0.50011E-03  8208   0.318E-02 0.265E-04
CGA:  17    -0.349913365163E+03   -0.38160E-03   -0.38157E-03  8208   0.144E-02 0.377E-05
CGA:  18    -0.349913524819E+03   -0.15966E-03   -0.15958E-03  8208   0.913E-03 0.108E-05
CGA:  19    -0.349913654307E+03   -0.12949E-03   -0.12945E-03  8208   0.565E-03 0.409E-05
CGA:  20    -0.349913718623E+03   -0.64315E-04   -0.64328E-04  8208   0.386E-03 0.969E-06
CGA:  21    -0.349913782132E+03   -0.63510E-04   -0.63485E-04  8208   0.291E-03 0.739E-06
CGA:  22    -0.349913818297E+03   -0.36165E-04   -0.36157E-04  8208   0.233E-03-0.972E-06
CGA:  23    -0.349913851741E+03   -0.33444E-04   -0.33488E-04  8208   0.160E-03-0.373E-05
CGA:  24    -0.349913876692E+03   -0.24951E-04   -0.25018E-04  8208   0.125E-03-0.270E-05
CGA:  25    -0.349913890730E+03   -0.14039E-04   -0.13992E-04  8208   0.882E-04-0.192E-05
CGA:  26    -0.349913903636E+03   -0.12905E-04   -0.12929E-04  8208   0.532E-04-0.158E-05
CGA:  27    -0.349913909847E+03   -0.62109E-05   -0.62031E-05  8208   0.379E-04-0.505E-06
  32 F= -.34991391E+03 E0= -.34990145E+03  d E =-.170307E-01  mag=    30.1225
       N       E                     dE             d eps       ncg     rms          ort
SDA:   1    -0.338739959184E+03    0.11174E+02    0.00000E+00  8208   0.306E+02 0.000E+00
CGA:   2    -0.345753657705E+03   -0.70137E+01   -0.69675E+01  8208   0.201E+02 0.402E+00
CGA:   3    -0.348429184939E+03   -0.26755E+01   -0.26038E+01  8208   0.150E+02-0.263E+01
CGA:   4    -0.349402171046E+03   -0.97299E+00   -0.10641E+01  8208   0.302E+01-0.104E+00
CGA:   5    -0.349789186872E+03   -0.38702E+00   -0.38698E+00  8208   0.724E+00-0.237E-02
CGA:   6    -0.349890482501E+03   -0.10130E+00   -0.10133E+00  8208   0.417E+00-0.391E-02
CGA:   7    -0.349925110892E+03   -0.34628E-01   -0.36067E-01  8208   0.148E+00-0.997E-04
CGA:   8    -0.349942442367E+03   -0.17331E-01   -0.17300E-01  8208   0.721E-01-0.701E-03
CGA:   9    -0.349950445592E+03   -0.80032E-02   -0.80092E-02  8208   0.213E-01 0.117E-03
CGA:  10    -0.349954422939E+03   -0.39773E-02   -0.39745E-02  8208   0.105E-01 0.449E-04
CGA:  11    -0.349955890189E+03   -0.14673E-02   -0.14674E-02  8208   0.763E-02-0.718E-05
CGA:  12    -0.349956882944E+03   -0.99276E-03   -0.99332E-03  8208   0.504E-02 0.827E-04
CGA:  13    -0.349957479154E+03   -0.59621E-03   -0.59634E-03  8208   0.224E-02 0.907E-05
CGA:  14    -0.349957910068E+03   -0.43091E-03   -0.42992E-03  8208   0.129E-02 0.159E-04
CGA:  15    -0.349958080444E+03   -0.17038E-03   -0.17041E-03  8208   0.616E-03 0.631E-05
CGA:  16    -0.349958196227E+03   -0.11578E-03   -0.11562E-03  8208   0.268E-03 0.316E-05
CGA:  17    -0.349958234977E+03   -0.38750E-04   -0.38741E-04  8208   0.200E-03 0.121E-05
CGA:  18    -0.349958262820E+03   -0.27843E-04   -0.27843E-04  8208   0.128E-03 0.870E-06
CGA:  19    -0.349958278375E+03   -0.15555E-04   -0.15569E-04  8208   0.699E-04 0.604E-06
CGA:  20    -0.349958294435E+03   -0.16061E-04   -0.16016E-04  8208   0.542E-04 0.481E-06
CGA:  21    -0.349958302933E+03   -0.84977E-05   -0.85018E-05  8208   0.373E-04-0.294E-06
  33 F= -.34995830E+03 E0= -.34994634E+03  d E =-.443931E-01  mag=    30.1033
       N       E                     dE             d eps       ncg     rms          ort
SDA:   1    -0.321480839744E+03    0.28477E+02    0.00000E+00  8208   0.114E+03 0.000E+00
CGA:   2    -0.336125101930E+03   -0.14644E+02   -0.14828E+02  8208   0.513E+02 0.511E+01
CGA:   3    -0.343098290070E+03   -0.69732E+01   -0.61398E+01  8208   0.431E+02-0.326E+01
CGA:   4    -0.345782550565E+03   -0.26843E+01   -0.23843E+01  8208   0.497E+02-0.170E+01
CGA:   5    -0.348177869303E+03   -0.23953E+01   -0.28448E+01  8208   0.130E+02-0.306E+01
CGA:   6    -0.348873437652E+03   -0.69557E+00   -0.54246E+00  8208   0.488E+01 0.355E+01
CGA:   7    -0.349245214585E+03   -0.37178E+00   -0.31263E+00  8208   0.446E+01 0.795E+00
CGA:   8    -0.349513456400E+03   -0.26824E+00   -0.25947E+00  8208   0.299E+01 0.188E+00
CGA:   9    -0.349613879304E+03   -0.10042E+00   -0.14817E+00  8208   0.175E+01-0.578E+00
CGA:  10    -0.349675050756E+03   -0.61171E-01   -0.69458E-01  8208   0.917E+00-0.105E+00
CGA:  11    -0.349733433023E+03   -0.58382E-01   -0.54999E-01  8208   0.634E+00 0.253E-01
CGA:  12    -0.349765301448E+03   -0.31868E-01   -0.30457E-01  8208   0.342E+00 0.194E-01
CGA:  13    -0.349790844039E+03   -0.25543E-01   -0.26192E-01  8208   0.184E+00 0.117E-02
CGA:  14    -0.349804721496E+03   -0.13877E-01   -0.14244E-01  8208   0.154E+00 0.132E-02
CGA:  15    -0.349816358446E+03   -0.11637E-01   -0.11626E-01  8208   0.629E-01 0.878E-04
CGA:  16    -0.349822359209E+03   -0.60008E-02   -0.60013E-02  8208   0.452E-01 0.465E-04
CGA:  17    -0.349826244546E+03   -0.38853E-02   -0.39224E-02  8208   0.197E-01 0.635E-03
CGA:  18    -0.349829123946E+03   -0.28794E-02   -0.28577E-02  8208   0.115E-01 0.419E-03
CGA:  19    -0.349830531238E+03   -0.14073E-02   -0.14045E-02  8208   0.990E-02 0.134E-03
CGA:  20    -0.349831353820E+03   -0.82258E-03   -0.83098E-03  8208   0.505E-02 0.910E-04
CGA:  21    -0.349831926392E+03   -0.57257E-03   -0.57127E-03  8208   0.304E-02 0.113E-03
CGA:  22    -0.349832369963E+03   -0.44357E-03   -0.44477E-03  8208   0.175E-02-0.234E-04
CGA:  23    -0.349832658602E+03   -0.28864E-03   -0.28640E-03  8208   0.113E-02 0.337E-04
CGA:  24    -0.349832871168E+03   -0.21257E-03   -0.21099E-03  8208   0.104E-02 0.197E-04
CGA:  25    -0.349832990342E+03   -0.11917E-03   -0.11922E-03  8208   0.667E-03 0.179E-04
CGA:  26    -0.349833115128E+03   -0.12479E-03   -0.12432E-03  8208   0.442E-03 0.591E-05
CGA:  27    -0.349833185993E+03   -0.70865E-04   -0.70706E-04  8208   0.360E-03 0.318E-05
CGA:  28    -0.349833243619E+03   -0.57626E-04   -0.57286E-04  8208   0.246E-03 0.686E-05
CGA:  29    -0.349833278224E+03   -0.34605E-04   -0.34625E-04  8208   0.195E-03-0.453E-06
CGA:  30    -0.349833304869E+03   -0.26645E-04   -0.26564E-04  8208   0.124E-03 0.341E-05
CGA:  31    -0.349833323111E+03   -0.18243E-04   -0.18278E-04  8208   0.784E-04-0.138E-05
SDA:  32    -0.349833336176E+03   -0.13065E-04   -0.13024E-04  8208   0.521E-04 0.824E-06
CGA:  33    -0.349833341704E+03   -0.55277E-05   -0.55321E-05  8208   0.394E-04 0.270E-06
  34 F= -.34983334E+03 E0= -.34982112E+03  d E =0.124961E+00  mag=    30.1032
       N       E                     dE             d eps       ncg     rms          ort
SDA:   1    -0.341250297763E+03    0.85830E+01    0.00000E+00  8208   0.324E+02 0.000E+00
CGA:   2    -0.346075795890E+03   -0.48255E+01   -0.48132E+01  8208   0.141E+02 0.374E+00
CGA:   3    -0.348190385842E+03   -0.21146E+01   -0.21856E+01  8208   0.163E+02-0.218E+01
CGA:   4    -0.349272859160E+03   -0.10825E+01   -0.11160E+01  8208   0.395E+01 0.156E+00
CGA:   5    -0.349753693576E+03   -0.48083E+00   -0.48083E+00  8208   0.181E+01 0.405E-03
CGA:   6    -0.349866220854E+03   -0.11253E+00   -0.12276E+00  8208   0.824E+00-0.573E-01
CGA:   7    -0.349948230440E+03   -0.82010E-01   -0.81975E-01  8208   0.246E+00-0.869E-04
CGA:   8    -0.349976045776E+03   -0.27815E-01   -0.27859E-01  8208   0.114E+00 0.183E-02
CGA:   9    -0.349988982803E+03   -0.12937E-01   -0.12975E-01  8208   0.739E-01 0.152E-02
CGA:  10    -0.349994688677E+03   -0.57059E-02   -0.56680E-02  8208   0.236E-01 0.172E-03
CGA:  11    -0.349998388582E+03   -0.36999E-02   -0.36933E-02  8208   0.114E-01 0.139E-03
CGA:  12    -0.349999833373E+03   -0.14448E-02   -0.14441E-02  8208   0.674E-02 0.101E-03
CGA:  13    -0.350000548905E+03   -0.71553E-03   -0.71449E-03  8208   0.496E-02-0.164E-04
CGA:  14    -0.350001094937E+03   -0.54603E-03   -0.54732E-03  8208   0.152E-02 0.527E-04
CGA:  15    -0.350001379587E+03   -0.28465E-03   -0.28387E-03  8208   0.124E-02 0.105E-04
CGA:  16    -0.350001507599E+03   -0.12801E-03   -0.12807E-03  8208   0.642E-03 0.219E-05
CGA:  17    -0.350001580953E+03   -0.73353E-04   -0.73453E-04  8208   0.410E-03 0.559E-05
CGA:  18    -0.350001637363E+03   -0.56410E-04   -0.56405E-04  8208   0.167E-03 0.677E-06
CGA:  19    -0.350001662076E+03   -0.24713E-04   -0.24650E-04  8208   0.124E-03 0.249E-05
CGA:  20    -0.350001677434E+03   -0.15358E-04   -0.15364E-04  8208   0.838E-04 0.172E-05
CGA:  21    -0.350001687533E+03   -0.10099E-04   -0.10105E-04  8208   0.397E-04 0.940E-06
CGA:  22    -0.350001695325E+03   -0.77916E-05   -0.77428E-05  8208   0.339E-04 0.657E-06
  35 F= -.35000170E+03 E0= -.34998943E+03  d E =-.168354E+00  mag=    30.1167
       N       E                     dE             d eps       ncg     rms          ort
SDA:   1    -0.347880368231E+03    0.21213E+01    0.00000E+00  8208   0.782E+01 0.000E+00
CGA:   2    -0.349065898626E+03   -0.11855E+01   -0.11864E+01  8208   0.346E+01-0.231E-01
CGA:   3    -0.349627357391E+03   -0.56146E+00   -0.55477E+00  8208   0.233E+01 0.134E+00
CGA:   4    -0.349874305923E+03   -0.24695E+00   -0.23968E+00  8208   0.924E+00-0.275E-01
CGA:   5    -0.349976230646E+03   -0.10192E+00   -0.10217E+00  8208   0.198E+00 0.559E-02
CGA:   6    -0.350004724811E+03   -0.28494E-01   -0.28486E-01  8208   0.834E-01 0.320E-03
CGA:   7    -0.350012979490E+03   -0.82547E-02   -0.82377E-02  8208   0.334E-01-0.861E-04
CGA:   8    -0.350017408015E+03   -0.44285E-02   -0.44285E-02  8208   0.126E-01 0.683E-05
CGA:   9    -0.350018869301E+03   -0.14613E-02   -0.14613E-02  8208   0.613E-02 0.496E-05
CGA:  10    -0.350019716462E+03   -0.84716E-03   -0.84697E-03  8208   0.240E-02 0.114E-04
CGA:  11    -0.350020032358E+03   -0.31590E-03   -0.31592E-03  8208   0.167E-02-0.176E-05
CGA:  12    -0.350020251827E+03   -0.21947E-03   -0.21944E-03  8208   0.700E-03 0.503E-05
CGA:  13    -0.350020350429E+03   -0.98602E-04   -0.98595E-04  8208   0.424E-03 0.766E-06
CGA:  14    -0.350020412334E+03   -0.61905E-04   -0.61879E-04  8208   0.200E-03 0.113E-05
CGA:  15    -0.350020435546E+03   -0.23212E-04   -0.23212E-04  8208   0.118E-03 0.190E-06
CGA:  16    -0.350020453305E+03   -0.17759E-04   -0.17743E-04  8208   0.423E-04 0.694E-06
CGA:  17    -0.350020459048E+03   -0.57430E-05   -0.57417E-05  8208   0.294E-04 0.208E-06
  36 F= -.35002046E+03 E0= -.35000833E+03  d E =-.187637E-01  mag=    30.1117
       N       E                     dE             d eps       ncg     rms          ort
SDA:   1    -0.349847398613E+03    0.17305E+00    0.00000E+00  8208   0.609E+00 0.000E+00
CGA:   2    -0.349941261636E+03   -0.93863E-01   -0.93863E-01  8208   0.274E+00 0.134E-04
CGA:   3    -0.349988601264E+03   -0.47340E-01   -0.47422E-01  8208   0.188E+00-0.149E-02
CGA:   4    -0.350006737381E+03   -0.18136E-01   -0.18382E-01  8208   0.723E-01 0.119E-02
CGA:   5    -0.350014359444E+03   -0.76221E-02   -0.75969E-02  8208   0.159E-01-0.215E-03
CGA:   6    -0.350016650435E+03   -0.22910E-02   -0.22903E-02  8208   0.581E-02 0.291E-04
CGA:   7    -0.350017280951E+03   -0.63052E-03   -0.62986E-03  8208   0.266E-02-0.691E-05
CGA:   8    -0.350017610133E+03   -0.32918E-03   -0.32923E-03  8208   0.950E-03 0.503E-05
CGA:   9    -0.350017725794E+03   -0.11566E-03   -0.11565E-03  8208   0.489E-03-0.122E-06
CGA:  10    -0.350017789403E+03   -0.63610E-04   -0.63609E-04  8208   0.169E-03 0.535E-06
CGA:  11    -0.350017815948E+03   -0.26545E-04   -0.26555E-04  8208   0.130E-03-0.328E-06
CGA:  12    -0.350017830832E+03   -0.14883E-04   -0.14884E-04  8208   0.532E-04-0.518E-07
CGA:  13    -0.350017839265E+03   -0.84329E-05   -0.84304E-05  8208   0.332E-04 0.924E-07
  37 F= -.35001784E+03 E0= -.35000573E+03  d E =0.261978E-02  mag=    30.1104
       N       E                     dE             d eps       ncg     rms          ort
SDA:   1    -0.349855459137E+03    0.16237E+00    0.00000E+00  8208   0.530E+00 0.000E+00
CGA:   2    -0.349942608220E+03   -0.87149E-01   -0.87143E-01  8208   0.250E+00 0.141E-03
CGA:   3    -0.349985546966E+03   -0.42939E-01   -0.42969E-01  8208   0.140E+00-0.565E-03
CGA:   4    -0.350000476099E+03   -0.14929E-01   -0.15000E-01  8208   0.582E-01 0.690E-03
CGA:   5    -0.350006173108E+03   -0.56970E-02   -0.56661E-02  8208   0.148E-01-0.979E-04
CGA:   6    -0.350008165083E+03   -0.19920E-02   -0.19919E-02  8208   0.528E-02 0.178E-04
CGA:   7    -0.350008776577E+03   -0.61149E-03   -0.61152E-03  8208   0.214E-02 0.261E-05
CGA:   8    -0.350009060428E+03   -0.28385E-03   -0.28385E-03  8208   0.864E-03 0.243E-05
CGA:   9    -0.350009158395E+03   -0.97967E-04   -0.97984E-04  8208   0.466E-03 0.800E-06
CGA:  10    -0.350009219928E+03   -0.61532E-04   -0.61533E-04  8208   0.164E-03-0.141E-06
CGA:  11    -0.350009247790E+03   -0.27862E-04   -0.27883E-04  8208   0.121E-03-0.524E-06
CGA:  12    -0.350009262793E+03   -0.15003E-04   -0.15001E-04  8208   0.592E-04-0.219E-06
CGA:  13    -0.350009271099E+03   -0.83054E-05   -0.83032E-05  8208   0.383E-04 0.236E-06
  38 F= -.35000927E+03 E0= -.34999714E+03  d E =0.856817E-02  mag=    30.1106
       N       E                     dE             d eps       ncg     rms          ort
SDA:   1    -0.349972858174E+03    0.36405E-01    0.00000E+00  8208   0.920E-01 0.000E+00
CGA:   2    -0.349989396067E+03   -0.16538E-01   -0.16543E-01  8208   0.473E-01-0.806E-04
CGA:   3    -0.349994936372E+03   -0.55403E-02   -0.55505E-02  8208   0.296E-01 0.214E-03
CGA:   4    -0.349998216841E+03   -0.32805E-02   -0.32726E-02  8208   0.932E-02-0.971E-04
CGA:   5    -0.349999492913E+03   -0.12761E-02   -0.12761E-02  8208   0.239E-02-0.186E-05
CGA:   6    -0.349999784472E+03   -0.29156E-03   -0.29157E-03  8208   0.114E-02 0.153E-05
CGA:   7    -0.349999900855E+03   -0.11638E-03   -0.11646E-03  8208   0.395E-03 0.221E-05
CGA:   8    -0.349999957941E+03   -0.57085E-04   -0.57067E-04  8208   0.194E-03 0.136E-05
CGA:   9    -0.349999981877E+03   -0.23936E-04   -0.23937E-04  8208   0.929E-04 0.158E-06
CGA:  10    -0.349999996326E+03   -0.14449E-04   -0.14463E-04  8208   0.621E-04-0.586E-06
CGA:  11    -0.350000004314E+03   -0.79879E-05   -0.79861E-05  8208   0.360E-04-0.585E-06
  39 F= -.35000000E+03 E0= -.34998785E+03  d E =0.926679E-02  mag=    30.1113
       N       E                     dE             d eps       ncg     rms          ort
SDA:   1    -0.349892462632E+03    0.10753E+00    0.00000E+00  8208   0.306E+00 0.000E+00
CGA:   2    -0.349946630523E+03   -0.54168E-01   -0.54099E-01  8208   0.149E+00 0.119E-02
CGA:   3    -0.349963062588E+03   -0.16432E-01   -0.16255E-01  8208   0.845E-01-0.154E-02
CGA:   4    -0.349973398862E+03   -0.10336E-01   -0.10353E-01  8208   0.316E-01 0.675E-03
CGA:   5    -0.349977303395E+03   -0.39045E-02   -0.39015E-02  8208   0.104E-01-0.107E-03
CGA:   6    -0.349978448074E+03   -0.11447E-02   -0.11447E-02  8208   0.327E-02 0.364E-05
CGA:   7    -0.349978906082E+03   -0.45801E-03   -0.45798E-03  8208   0.134E-02 0.503E-05
CGA:   8    -0.349979064478E+03   -0.15840E-03   -0.15845E-03  8208   0.799E-03 0.301E-05
CGA:   9    -0.349979163383E+03   -0.98905E-04   -0.98903E-04  8208   0.333E-03 0.936E-06
CGA:  10    -0.349979216557E+03   -0.53175E-04   -0.53205E-04  8208   0.226E-03-0.106E-05
CGA:  11    -0.349979252897E+03   -0.36340E-04   -0.36378E-04  8208   0.131E-03-0.138E-05
CGA:  12    -0.349979270441E+03   -0.17544E-04   -0.17544E-04  8208   0.100E-03-0.318E-06
CGA:  13    -0.349979283574E+03   -0.13133E-04   -0.13135E-04  8208   0.378E-04 0.628E-06
CGA:  14    -0.349979289214E+03   -0.56409E-05   -0.56339E-05  8208   0.237E-04 0.495E-06
  40 F= -.34997929E+03 E0= -.34996709E+03  d E =0.207151E-01  mag=    30.1117
       N       E                     dE             d eps       ncg     rms          ort
SDA:   1    -0.349908518725E+03    0.70765E-01    0.00000E+00  8208   0.194E+00 0.000E+00
CGA:   2    -0.349942077222E+03   -0.33558E-01   -0.33560E-01  8208   0.101E+00-0.147E-04
CGA:   3    -0.349953885036E+03   -0.11808E-01   -0.11806E-01  8208   0.640E-01-0.113E-04
CGA:   4    -0.349960990210E+03   -0.71052E-02   -0.71039E-02  8208   0.207E-01-0.146E-04
CGA:   5    -0.349963768329E+03   -0.27781E-02   -0.27781E-02  8208   0.540E-02-0.843E-05
CGA:   6    -0.349964409905E+03   -0.64158E-03   -0.64167E-03  8208   0.243E-02 0.452E-05
CGA:   7    -0.349964669614E+03   -0.25971E-03   -0.25980E-03  8208   0.840E-03 0.321E-05
CGA:   8    -0.349964784230E+03   -0.11462E-03   -0.11461E-03  8208   0.473E-03 0.128E-05
CGA:   9    -0.349964838221E+03   -0.53991E-04   -0.53987E-04  8208   0.174E-03-0.117E-06
CGA:  10    -0.349964870235E+03   -0.32014E-04   -0.32067E-04  8208   0.120E-03-0.997E-06
CGA:  11    -0.349964884046E+03   -0.13811E-04   -0.13796E-04  8208   0.744E-04-0.752E-06
CGA:  12    -0.349964896267E+03   -0.12222E-04   -0.12234E-04  8208   0.420E-04-0.378E-06
CGA:  13    -0.349964901696E+03   -0.54289E-05   -0.54298E-05  8208   0.224E-04 0.191E-06
  41 F= -.34996490E+03 E0= -.34995264E+03  d E =0.143875E-01  mag=    30.1139
