       N       E                     dE             d eps       ncg     rms          ort
DAV:   1     0.734901619119E+04    0.73490E+04   -0.35081E+05  9568   0.175E+03
DAV:   2     0.484020989221E+03   -0.68650E+04   -0.64378E+04  9568   0.512E+02
DAV:   3    -0.317999860413E+03   -0.80202E+03   -0.77784E+03  9568   0.195E+02
DAV:   4    -0.351038869498E+03   -0.33039E+02   -0.32614E+02  9568   0.383E+01
DAV:   5    -0.353270674654E+03   -0.22318E+01   -0.22061E+01  9568   0.760E+00
SDA:   6    -0.175289181834E+03    0.17798E+03   -0.22061E+01  9568   0.139E+04 0.000E+00
CGA:   7    -0.273290685991E+03   -0.98002E+02   -0.12407E+03  9568   0.542E+03 0.736E+02
CGA:   8    -0.280076958091E+03   -0.67863E+01   -0.85525E+01  9568   0.121E+04-0.647E+03
CGA:   9    -0.284245117056E+03   -0.41682E+01   -0.59567E+02  9568   0.612E+03-0.682E+02
CGA:  10    -0.290987403592E+03   -0.67423E+01   -0.12076E+02  9568   0.557E+03 0.740E+02
CGA:  11    -0.290899904327E+03    0.87499E-01   -0.28858E+02  9568   0.901E+03 0.970E+02
CGA:  12    -0.294992051050E+03   -0.40921E+01   -0.29459E+02  9568   0.205E+03-0.668E+02
CGA:  13    -0.300025207919E+03   -0.50332E+01   -0.25455E+01  9568   0.183E+03 0.194E+03
CGA:  14    -0.302776196169E+03   -0.27510E+01   -0.35532E+01  9568   0.327E+03-0.310E+03
CGA:  15    -0.294371328381E+03    0.84049E+01   -0.19597E+02  9568   0.826E+03-0.718E+02
CGA:  16    -0.301707966260E+03   -0.73366E+01   -0.24795E+02  9568   0.287E+03-0.346E+03
CGA:  17    -0.302054200198E+03   -0.34623E+00   -0.38501E+01  9568   0.476E+03-0.132E+03
CGA:  18    -0.301033832463E+03    0.10204E+01   -0.54518E+01  9568   0.788E+03-0.633E+03
CGA:  19    -0.291060894886E+03    0.99729E+01   -0.30481E+02  9568   0.358E+03-0.109E+03
CGA:  20    -0.287064339736E+03    0.39966E+01   -0.85599E+01  9568   0.713E+03-0.103E+03
CGA:  21    -0.290532707489E+03   -0.34684E+01   -0.81131E+01  9568   0.121E+04 0.392E+03
CGA:  22    -0.296261811263E+03   -0.57291E+01   -0.17259E+02  9568   0.222E+03-0.241E+03
CGA:  23    -0.294682381419E+03    0.15794E+01   -0.34192E+01  9568   0.128E+04-0.848E+03
CGA:  24    -0.291741865747E+03    0.29405E+01   -0.35295E+02  9568   0.175E+03-0.154E+03
CGA:  25    -0.304344495921E+03   -0.12603E+02   -0.25270E+01  9568   0.443E+03 0.978E+03
CGA:  26    -0.291754512715E+03    0.12590E+02   -0.13045E+02  9568   0.487E+03-0.229E+03
CGA:  27    -0.299617967140E+03   -0.78635E+01   -0.76228E+01  9568   0.859E+03-0.106E+04
CGA:  28    -0.288119826748E+03    0.11498E+02   -0.27339E+02  9568   0.720E+03-0.344E+03
CGA:  29    -0.307416175400E+03   -0.19296E+02   -0.81148E+01  9568   0.278E+03 0.562E+03
CGA:  30    -0.305060569952E+03    0.23556E+01   -0.10184E+02  9568   0.350E+03-0.277E+02
CGA:  31    -0.288920745726E+03    0.16140E+02   -0.89728E+01  9568   0.989E+03-0.104E+03
CGA:  32    -0.302138112922E+03   -0.13217E+02   -0.17292E+02  9568   0.359E+03-0.158E+03
CGA:  33    -0.298886780871E+03    0.32513E+01   -0.88689E+01  9568   0.803E+03-0.318E+03
CGA:  34    -0.298069847518E+03    0.81693E+00   -0.24707E+02  9568   0.497E+03-0.226E+03
CGA:  35    -0.289180368112E+03    0.88895E+01   -0.87220E+01  9568   0.704E+03-0.236E+03
CGA:  36    -0.298713209390E+03   -0.95328E+01   -0.63751E+01  9568   0.396E+03-0.277E+03
CGA:  37    -0.305395181955E+03   -0.66820E+01   -0.50802E+01  9568   0.285E+03-0.372E+03
CGA:  38    -0.306896221874E+03   -0.15010E+01   -0.49402E+01  9568   0.273E+03-0.341E+03
CGA:  39    -0.305905865136E+03    0.99036E+00   -0.48657E+01  9568   0.390E+03-0.351E+03
CGA:  40    -0.304132975848E+03    0.17729E+01   -0.73265E+01  9568   0.491E+03-0.354E+03
CGA:  41    -0.303880027849E+03    0.25295E+00   -0.99538E+01  9568   0.421E+03-0.366E+03
CGA:  42    -0.306292427348E+03   -0.24124E+01   -0.76416E+01  9568   0.210E+03-0.256E+03
CGA:  43    -0.309447829017E+03   -0.31554E+01   -0.28011E+01  9568   0.120E+03-0.235E+03
CGA:  44    -0.309888763074E+03   -0.44093E+00   -0.14022E+01  9568   0.727E+02-0.965E+02
CGA:  45    -0.310107896493E+03   -0.21913E+00   -0.84450E+00  9568   0.390E+02-0.500E+02
CGA:  46    -0.310385066260E+03   -0.27717E+00   -0.29686E+00  9568   0.148E+01-0.476E+01
CGA:  47    -0.310413196400E+03   -0.28130E-01   -0.28137E-01  9568   0.211E+01-0.720E-03
CGA:  48    -0.309704452041E+03    0.70874E+00   -0.25421E+00  9568   0.134E+03-0.222E+02
CGA:  49    -0.310343759069E+03   -0.63931E+00   -0.18456E+01  9568   0.789E+02-0.606E+02
CGA:  50    -0.310712585834E+03   -0.36883E+00   -0.38293E+00  9568   0.799E+01-0.378E+01
CGA:  51    -0.310800982441E+03   -0.88397E-01   -0.76074E-01  9568   0.277E+01 0.977E+00
CGA:  52    -0.310843213813E+03   -0.42231E-01   -0.33870E-01  9568   0.111E+01 0.665E+00
CGA:  53    -0.310860371105E+03   -0.17157E-01   -0.15969E-01  9568   0.916E+00 0.831E-01
CGA:  54    -0.310890112645E+03   -0.29742E-01   -0.29479E-01  9568   0.317E+01-0.102E-01
CGA:  55    -0.310900896800E+03   -0.10784E-01   -0.57301E-02  9568   0.305E+01 0.275E+01
CGA:  56    -0.310935253686E+03   -0.34357E-01   -0.34586E-01  9568   0.107E+01-0.129E-01
CGA:  57    -0.310952327027E+03   -0.17073E-01   -0.17329E-01  9568   0.735E+00-0.956E-02
CGA:  58    -0.310977051126E+03   -0.24724E-01   -0.24715E-01  9568   0.219E+01-0.658E-02
CGA:  59    -0.311056394207E+03   -0.79343E-01   -0.53475E-01  9568   0.122E+01 0.573E+00
CGA:  60    -0.311067915884E+03   -0.11522E-01   -0.79272E-02  9568   0.689E+00 0.663E+00
CGA:  61    -0.311083241302E+03   -0.15325E-01   -0.15576E-01  9568   0.815E+00-0.452E-03
CGA:  62    -0.311097210460E+03   -0.13969E-01   -0.14099E-01  9568   0.500E+00-0.562E-02
CGA:  63    -0.311137423311E+03   -0.40213E-01   -0.34574E-01  9568   0.938E+00 0.139E+00
CGA:  64    -0.311168404105E+03   -0.30981E-01   -0.30727E-01  9568   0.895E+00 0.133E-02
CGA:  65    -0.311187824449E+03   -0.19420E-01   -0.17346E-01  9568   0.535E+00 0.616E-01
CGA:  66    -0.311202971574E+03   -0.15147E-01   -0.15166E-01  9568   0.352E+00 0.299E-02
CGA:  67    -0.311212832394E+03   -0.98608E-02   -0.98636E-02  9568   0.448E+00-0.226E-02
CGA:  68    -0.311224551433E+03   -0.11719E-01   -0.11817E-01  9568   0.345E+00 0.679E-02
CGA:  69    -0.311237728615E+03   -0.13177E-01   -0.12938E-01  9568   0.172E+00 0.286E-01
CGA:  70    -0.311241895314E+03   -0.41667E-02   -0.42218E-02  9568   0.123E+00-0.663E-03
CGA:  71    -0.311246613054E+03   -0.47177E-02   -0.46440E-02  9568   0.125E+00 0.603E-02
CGA:  72    -0.311251414288E+03   -0.48012E-02   -0.47864E-02  9568   0.105E+00 0.539E-03
CGA:  73    -0.311253612069E+03   -0.21978E-02   -0.22646E-02  9568   0.799E-01-0.976E-03
CGA:  74    -0.311256179152E+03   -0.25671E-02   -0.25671E-02  9568   0.442E-01-0.112E-02
CGA:  75    -0.311257935420E+03   -0.17563E-02   -0.17283E-02  9568   0.371E-01 0.167E-02
CGA:  76    -0.311258938515E+03   -0.10031E-02   -0.10062E-02  9568   0.351E-01-0.330E-03
CGA:  77    -0.311260269450E+03   -0.13309E-02   -0.13184E-02  9568   0.295E-01 0.107E-02
CGA:  78    -0.311261190250E+03   -0.92080E-03   -0.92071E-03  9568   0.254E-01-0.215E-03
CGA:  79    -0.311262111664E+03   -0.92141E-03   -0.91589E-03  9568   0.196E-01 0.667E-03
CGA:  80    -0.311262804070E+03   -0.69241E-03   -0.69171E-03  9568   0.198E-01 0.103E-03
CGA:  81    -0.311263318442E+03   -0.51437E-03   -0.51706E-03  9568   0.110E-01 0.757E-04
CGA:  82    -0.311263874448E+03   -0.55601E-03   -0.55309E-03  9568   0.117E-01 0.120E-03
CGA:  83    -0.311264272183E+03   -0.39773E-03   -0.39756E-03  9568   0.147E-01 0.969E-04
CGA:  84    -0.311264769962E+03   -0.49778E-03   -0.49774E-03  9568   0.727E-02-0.731E-05
CGA:  85    -0.311265113317E+03   -0.34335E-03   -0.34182E-03  9568   0.991E-02 0.785E-04
CGA:  86    -0.311265397557E+03   -0.28424E-03   -0.28450E-03  9568   0.798E-02-0.892E-05
CGA:  87    -0.311265787753E+03   -0.39020E-03   -0.38973E-03  9568   0.627E-02 0.156E-04
CGA:  88    -0.311265988071E+03   -0.20032E-03   -0.20034E-03  9568   0.694E-02-0.114E-04
CGA:  89    -0.311266250990E+03   -0.26292E-03   -0.26288E-03  9568   0.514E-02-0.315E-05
CGA:  90    -0.311266506505E+03   -0.25551E-03   -0.25594E-03  9568   0.703E-02-0.282E-04
SDA:  91    -0.311266687645E+03   -0.18114E-03   -0.18108E-03  9568   0.390E-02-0.104E-04
CGA:  92    -0.311266745837E+03   -0.58193E-04   -0.58146E-04  9568   0.131E-02-0.444E-06
CGA:  93    -0.311266793416E+03   -0.47578E-04   -0.47551E-04  9568   0.150E-02 0.774E-05
CGA:  94    -0.311267032191E+03   -0.23878E-03   -0.23435E-03  9568   0.365E-02 0.381E-04
CGA:  95    -0.311267329722E+03   -0.29753E-03   -0.29635E-03  9568   0.550E-02 0.262E-04
CGA:  96    -0.311267481873E+03   -0.15215E-03   -0.15087E-03  9568   0.192E-02 0.175E-04
CGA:  97    -0.311267558709E+03   -0.76836E-04   -0.76860E-04  9568   0.622E-03 0.168E-04
CGA:  98    -0.311267582941E+03   -0.24231E-04   -0.24232E-04  9568   0.133E-02 0.365E-06
CGA:  99    -0.311267637518E+03   -0.54577E-04   -0.54577E-04  9568   0.603E-03 0.220E-05
CGA: 100    -0.311267674746E+03   -0.37228E-04   -0.37218E-04  9568   0.686E-03 0.313E-06
CGA: 101    -0.311267696784E+03   -0.22038E-04   -0.22083E-04  9568   0.501E-03 0.187E-05
CGA: 102    -0.311267746266E+03   -0.49483E-04   -0.50054E-04  9568   0.487E-03-0.110E-04
CGA: 103    -0.311267774977E+03   -0.28711E-04   -0.28796E-04  9568   0.499E-03-0.475E-05
CGA: 104    -0.311267790667E+03   -0.15690E-04   -0.15695E-04  9568   0.513E-03-0.821E-06
CGA: 105    -0.311267803111E+03   -0.12444E-04   -0.12371E-04  9568   0.229E-03-0.285E-05
CGA: 106    -0.311267820114E+03   -0.17003E-04   -0.17197E-04  9568   0.148E-03-0.657E-05
CGA: 107    -0.311267838379E+03   -0.18264E-04   -0.19237E-04  9568   0.253E-03-0.117E-04
CGA: 108    -0.311267843653E+03   -0.52741E-05   -0.52542E-05  9568   0.992E-04-0.261E-05
   1 F= -.31126784E+03 E0= -.31124654E+03  d E =-.311268E+03  mag=    25.7917
       N       E                     dE             d eps       ncg     rms          ort
SDA:   1    -0.311264281230E+03    0.35571E-02    0.00000E+00  9568   0.151E+01 0.000E+00
CGA:   2    -0.311279243168E+03   -0.14962E-01   -0.15080E-01  9568   0.301E-01-0.147E-01
CGA:   3    -0.311279808210E+03   -0.56504E-03   -0.57143E-03  9568   0.709E-02-0.208E-03
CGA:   4    -0.311280059515E+03   -0.25131E-03   -0.25117E-03  9568   0.458E-02-0.526E-05
CGA:   5    -0.311280419243E+03   -0.35973E-03   -0.35918E-03  9568   0.102E-01 0.153E-04
CGA:   6    -0.311280634118E+03   -0.21487E-03   -0.21466E-03  9568   0.433E-02 0.887E-06
CGA:   7    -0.311280756820E+03   -0.12270E-03   -0.12263E-03  9568   0.116E-02 0.709E-07
CGA:   8    -0.311280841646E+03   -0.84827E-04   -0.85073E-04  9568   0.995E-03-0.812E-05
CGA:   9    -0.311280867888E+03   -0.26242E-04   -0.26244E-04  9568   0.116E-02-0.179E-06
CGA:  10    -0.311280914850E+03   -0.46962E-04   -0.46948E-04  9568   0.235E-03-0.304E-05
CGA:  11    -0.311280922867E+03   -0.80164E-05   -0.80254E-05  9568   0.221E-03 0.621E-06
   2 F= -.31128092E+03 E0= -.31125946E+03  d E =-.130792E-01  mag=    25.7883
       N       E                     dE             d eps       ncg     rms          ort
SDA:   1    -0.311211464772E+03    0.69450E-01    0.00000E+00  9568   0.184E+01 0.000E+00
CGA:   2    -0.311238432612E+03   -0.26968E-01   -0.26499E-01  9568   0.876E+00 0.187E-01
CGA:   3    -0.311339938814E+03   -0.10151E+00   -0.10119E+00  9568   0.145E+01 0.488E-02
CGA:   4    -0.311386831380E+03   -0.46893E-01   -0.47242E-01  9568   0.690E+00 0.149E-02
CGA:   5    -0.311405558404E+03   -0.18727E-01   -0.17768E-01  9568   0.369E+00 0.130E-01
CGA:   6    -0.311416825371E+03   -0.11267E-01   -0.11410E-01  9568   0.340E+00 0.589E-03
CGA:   7    -0.311427439955E+03   -0.10615E-01   -0.10590E-01  9568   0.252E+00-0.272E-03
CGA:   8    -0.311440320159E+03   -0.12880E-01   -0.12883E-01  9568   0.591E-01-0.256E-03
CGA:   9    -0.311443551294E+03   -0.32311E-02   -0.32136E-02  9568   0.250E-01 0.110E-02
CGA:  10    -0.311444843630E+03   -0.12923E-02   -0.12922E-02  9568   0.354E-01 0.215E-04
CGA:  11    -0.311446199397E+03   -0.13558E-02   -0.13554E-02  9568   0.182E-01-0.181E-04
CGA:  12    -0.311446682973E+03   -0.48358E-03   -0.48361E-03  9568   0.846E-02-0.795E-06
CGA:  13    -0.311446855413E+03   -0.17244E-03   -0.17329E-03  9568   0.518E-02-0.104E-04
CGA:  14    -0.311447191223E+03   -0.33581E-03   -0.33556E-03  9568   0.426E-02 0.105E-04
CGA:  15    -0.311447481692E+03   -0.29047E-03   -0.29073E-03  9568   0.214E-02-0.702E-05
CGA:  16    -0.311447574436E+03   -0.92744E-04   -0.92749E-04  9568   0.277E-02 0.662E-05
CGA:  17    -0.311447635018E+03   -0.60582E-04   -0.60770E-04  9568   0.125E-02 0.667E-05
CGA:  18    -0.311447691866E+03   -0.56848E-04   -0.56843E-04  9568   0.172E-02 0.260E-05
CGA:  19    -0.311447769040E+03   -0.77174E-04   -0.77155E-04  9568   0.144E-02 0.103E-04
CGA:  20    -0.311447826179E+03   -0.57140E-04   -0.57153E-04  9568   0.634E-03 0.376E-05
CGA:  21    -0.311447854234E+03   -0.28055E-04   -0.28051E-04  9568   0.967E-03 0.306E-05
CGA:  22    -0.311447875560E+03   -0.21326E-04   -0.21330E-04  9568   0.417E-03-0.266E-06
CGA:  23    -0.311447928942E+03   -0.53382E-04   -0.53369E-04  9568   0.420E-03-0.125E-07
CGA:  24    -0.311447940664E+03   -0.11722E-04   -0.11713E-04  9568   0.285E-03-0.552E-06
CGA:  25    -0.311447948205E+03   -0.75409E-05   -0.75762E-05  9568   0.239E-03 0.146E-05
CGA:  26    -0.311447961251E+03   -0.13046E-04   -0.13018E-04  9568   0.257E-03 0.287E-05
CGA:  27    -0.311447969300E+03   -0.80494E-05   -0.80781E-05  9568   0.165E-03 0.207E-05
   3 F= -.31144797E+03 E0= -.31142643E+03  d E =-.167046E+00  mag=    25.7899
       N       E                     dE             d eps       ncg     rms          ort
SDA:   1    -0.305383019882E+03    0.60649E+01    0.00000E+00  9568   0.395E+02 0.000E+00
CGA:   2    -0.306341684691E+03   -0.95866E+00   -0.10077E+01  9568   0.332E+02-0.105E+01
CGA:   3    -0.308864986826E+03   -0.25233E+01   -0.27934E+01  9568   0.761E+02-0.950E+01
CGA:   4    -0.310304991156E+03   -0.14400E+01   -0.13115E+01  9568   0.180E+02 0.291E+01
CGA:   5    -0.310653767773E+03   -0.34878E+00   -0.23286E+00  9568   0.790E+01 0.793E+01
CGA:   6    -0.310800477514E+03   -0.14671E+00   -0.10322E+00  9568   0.593E+01 0.414E+01
CGA:   7    -0.311046429846E+03   -0.24595E+00   -0.24585E+00  9568   0.884E+01 0.481E+00
CGA:   8    -0.311527430053E+03   -0.48100E+00   -0.48334E+00  9568   0.733E+01-0.162E+00
CGA:   9    -0.311666677672E+03   -0.13925E+00   -0.11163E+00  9568   0.197E+01 0.129E+01
CGA:  10    -0.311719627193E+03   -0.52950E-01   -0.56683E-01  9568   0.218E+01-0.337E-01
CGA:  11    -0.311807351503E+03   -0.87724E-01   -0.87894E-01  9568   0.293E+01-0.732E-01
CGA:  12    -0.311870447049E+03   -0.63096E-01   -0.62983E-01  9568   0.318E+01-0.370E-03
CGA:  13    -0.311959280743E+03   -0.88834E-01   -0.90363E-01  9568   0.118E+01 0.204E-01
CGA:  14    -0.311976511059E+03   -0.17230E-01   -0.17863E-01  9568   0.602E+00-0.284E-01
CGA:  15    -0.311991354077E+03   -0.14843E-01   -0.14520E-01  9568   0.464E+00 0.340E-03
CGA:  16    -0.312006283620E+03   -0.14930E-01   -0.14840E-01  9568   0.622E+00-0.686E-02
CGA:  17    -0.312020712239E+03   -0.14429E-01   -0.15153E-01  9568   0.558E+00 0.382E-02
CGA:  18    -0.312034276195E+03   -0.13564E-01   -0.13843E-01  9568   0.158E+00 0.298E-02
CGA:  19    -0.312039255656E+03   -0.49795E-02   -0.49908E-02  9568   0.716E-01 0.112E-02
CGA:  20    -0.312043242858E+03   -0.39872E-02   -0.40028E-02  9568   0.783E-01-0.699E-03
CGA:  21    -0.312046143130E+03   -0.29003E-02   -0.28984E-02  9568   0.891E-01 0.751E-03
CGA:  22    -0.312050023837E+03   -0.38807E-02   -0.38982E-02  9568   0.119E+00-0.165E-02
CGA:  23    -0.312052623293E+03   -0.25995E-02   -0.26576E-02  9568   0.499E-01-0.185E-03
CGA:  24    -0.312054695290E+03   -0.20720E-02   -0.20687E-02  9568   0.186E-01 0.374E-03
CGA:  25    -0.312055669468E+03   -0.97418E-03   -0.97593E-03  9568   0.250E-01-0.839E-04
CGA:  26    -0.312056534576E+03   -0.86511E-03   -0.86477E-03  9568   0.195E-01-0.590E-04
CGA:  27    -0.312057401164E+03   -0.86659E-03   -0.86470E-03  9568   0.328E-01 0.171E-03
CGA:  28    -0.312058168830E+03   -0.76767E-03   -0.76455E-03  9568   0.789E-02 0.393E-04
CGA:  29    -0.312058591525E+03   -0.42270E-03   -0.42131E-03  9568   0.629E-02 0.691E-04
CGA:  30    -0.312058829607E+03   -0.23808E-03   -0.23809E-03  9568   0.826E-02-0.262E-04
CGA:  31    -0.312059101875E+03   -0.27227E-03   -0.27243E-03  9568   0.659E-02 0.204E-04
CGA:  32    -0.312059301467E+03   -0.19959E-03   -0.19950E-03  9568   0.556E-02 0.245E-06
CGA:  33    -0.312059599347E+03   -0.29788E-03   -0.29780E-03  9568   0.427E-02 0.566E-05
CGA:  34    -0.312059781566E+03   -0.18222E-03   -0.18218E-03  9568   0.312E-02 0.725E-05
CGA:  35    -0.312059859622E+03   -0.78056E-04   -0.78132E-04  9568   0.283E-02 0.286E-05
CGA:  36    -0.312059976733E+03   -0.11711E-03   -0.11716E-03  9568   0.244E-02-0.925E-05
SDA:  37    -0.312060094210E+03   -0.11748E-03   -0.11740E-03  9568   0.237E-02 0.319E-05
CGA:  38    -0.312060136548E+03   -0.42339E-04   -0.42112E-04  9568   0.844E-03 0.145E-05
CGA:  39    -0.312060177334E+03   -0.40785E-04   -0.40816E-04  9568   0.143E-02-0.324E-05
CGA:  40    -0.312060217737E+03   -0.40403E-04   -0.40348E-04  9568   0.124E-02-0.694E-05
CGA:  41    -0.312060284098E+03   -0.66361E-04   -0.66558E-04  9568   0.657E-03-0.126E-04
CGA:  42    -0.312060311779E+03   -0.27681E-04   -0.27689E-04  9568   0.360E-03-0.266E-05
CGA:  43    -0.312060343034E+03   -0.31255E-04   -0.31128E-04  9568   0.275E-03 0.186E-05
CGA:  44    -0.312060352938E+03   -0.99043E-05   -0.99107E-05  9568   0.379E-03 0.542E-06
   4 F= -.31206035E+03 E0= -.31203845E+03  d E =-.612384E+00  mag=    25.7991
       N       E                     dE             d eps       ncg     rms          ort
SDA:   1    -0.305340998321E+03    0.67193E+01    0.00000E+00  9568   0.101E+03 0.000E+00
CGA:   2    -0.306275795926E+03   -0.93480E+00   -0.17747E+01  9568   0.579E+02-0.259E+02
CGA:   3    -0.307849191378E+03   -0.15734E+01   -0.15763E+01  9568   0.502E+02 0.716E+00
CGA:   4    -0.309360135649E+03   -0.15109E+01   -0.16308E+01  9568   0.216E+02 0.612E+01
CGA:   5    -0.310245990917E+03   -0.88586E+00   -0.81060E+00  9568   0.277E+02-0.617E+01
CGA:   6    -0.310687463354E+03   -0.44147E+00   -0.45864E+00  9568   0.485E+02-0.191E+00
CGA:   7    -0.311313258138E+03   -0.62579E+00   -0.75812E+00  9568   0.322E+02-0.591E+01
CGA:   8    -0.311663698993E+03   -0.35044E+00   -0.33045E+00  9568   0.113E+02 0.910E+00
CGA:   9    -0.311870166497E+03   -0.20647E+00   -0.18518E+00  9568   0.718E+01 0.705E+00
CGA:  10    -0.311971015050E+03   -0.10085E+00   -0.12088E+00  9568   0.364E+01-0.675E+00
CGA:  11    -0.312052375956E+03   -0.81361E-01   -0.84800E-01  9568   0.425E+01 0.109E+00
CGA:  12    -0.312154835570E+03   -0.10246E+00   -0.10123E+00  9568   0.484E+01-0.130E-01
CGA:  13    -0.312252300670E+03   -0.97465E-01   -0.10088E+00  9568   0.182E+01-0.457E-03
CGA:  14    -0.312286190808E+03   -0.33890E-01   -0.33519E-01  9568   0.123E+01 0.295E-02
CGA:  15    -0.312307232683E+03   -0.21042E-01   -0.21476E-01  9568   0.355E+00-0.851E-02
CGA:  16    -0.312317172052E+03   -0.99394E-02   -0.99552E-02  9568   0.409E+00 0.360E-02
CGA:  17    -0.312331536606E+03   -0.14365E-01   -0.14219E-01  9568   0.522E+00 0.209E-01
CGA:  18    -0.312344136393E+03   -0.12600E-01   -0.12345E-01  9568   0.251E+00-0.489E-02
CGA:  19    -0.312352460926E+03   -0.83245E-02   -0.82919E-02  9568   0.136E+00 0.563E-02
CGA:  20    -0.312357443015E+03   -0.49821E-02   -0.49653E-02  9568   0.626E-01 0.199E-02
CGA:  21    -0.312359799294E+03   -0.23563E-02   -0.23589E-02  9568   0.116E+00-0.251E-03
CGA:  22    -0.312364186557E+03   -0.43873E-02   -0.43275E-02  9568   0.751E-01 0.581E-02
CGA:  23    -0.312366125044E+03   -0.19385E-02   -0.19355E-02  9568   0.459E-01-0.827E-04
CGA:  24    -0.312368045859E+03   -0.19208E-02   -0.18900E-02  9568   0.226E-01 0.218E-02
CGA:  25    -0.312369094729E+03   -0.10489E-02   -0.10492E-02  9568   0.343E-01-0.220E-04
CGA:  26    -0.312369998630E+03   -0.90390E-03   -0.90641E-03  9568   0.304E-01 0.152E-03
CGA:  27    -0.312371350127E+03   -0.13515E-02   -0.13452E-02  9568   0.141E-01 0.390E-03
CGA:  28    -0.312372034483E+03   -0.68436E-03   -0.68412E-03  9568   0.895E-02 0.149E-04
CGA:  29    -0.312372278267E+03   -0.24378E-03   -0.24381E-03  9568   0.110E-01 0.275E-05
CGA:  30    -0.312372755921E+03   -0.47765E-03   -0.47643E-03  9568   0.768E-02 0.908E-04
CGA:  31    -0.312373040076E+03   -0.28415E-03   -0.28427E-03  9568   0.743E-02-0.173E-04
SDA:  32    -0.312373292792E+03   -0.25272E-03   -0.25267E-03  9568   0.339E-02 0.417E-04
CGA:  33    -0.312373361843E+03   -0.69052E-04   -0.69027E-04  9568   0.165E-02-0.870E-06
CGA:  34    -0.312373410013E+03   -0.48170E-04   -0.48208E-04  9568   0.192E-02 0.734E-05
CGA:  35    -0.312373541166E+03   -0.13115E-03   -0.13069E-03  9568   0.320E-02 0.128E-04
CGA:  36    -0.312373663465E+03   -0.12230E-03   -0.12227E-03  9568   0.274E-02 0.808E-05
CGA:  37    -0.312373757195E+03   -0.93729E-04   -0.93731E-04  9568   0.750E-03 0.423E-05
CGA:  38    -0.312373825920E+03   -0.68725E-04   -0.69016E-04  9568   0.327E-02-0.510E-05
CGA:  39    -0.312373890634E+03   -0.64714E-04   -0.64440E-04  9568   0.478E-03-0.805E-05
CGA:  40    -0.312373958235E+03   -0.67601E-04   -0.68189E-04  9568   0.945E-03-0.566E-05
CGA:  41    -0.312374000065E+03   -0.41830E-04   -0.41840E-04  9568   0.757E-03-0.360E-05
CGA:  42    -0.312374027012E+03   -0.26948E-04   -0.26944E-04  9568   0.644E-03-0.692E-06
CGA:  43    -0.312374045281E+03   -0.18268E-04   -0.18300E-04  9568   0.463E-03 0.119E-05
CGA:  44    -0.312374058941E+03   -0.13660E-04   -0.13657E-04  9568   0.400E-03 0.571E-06
CGA:  45    -0.312374070272E+03   -0.11332E-04   -0.11367E-04  9568   0.100E-03 0.251E-05
CGA:  46    -0.312374081693E+03   -0.11421E-04   -0.11258E-04  9568   0.123E-03 0.213E-05
CGA:  47    -0.312374090907E+03   -0.92141E-05   -0.91345E-05  9568   0.127E-03 0.256E-05
   5 F= -.31237409E+03 E0= -.31235197E+03  d E =-.313738E+00  mag=    25.8040
       N       E                     dE             d eps       ncg     rms          ort
SDA:   1    -0.284381329462E+03    0.27993E+02    0.00000E+00  9568   0.127E+04 0.000E+00
CGA:   2    -0.293253375246E+03   -0.88720E+01   -0.27642E+02  9568   0.279E+03-0.135E+03
CGA:   3    -0.297997957984E+03   -0.47446E+01   -0.62775E+01  9568   0.217E+03-0.207E+02
CGA:   4    -0.298431178704E+03   -0.43322E+00   -0.26890E+01  9568   0.311E+03-0.155E+03
CGA:   5    -0.302146658726E+03   -0.37155E+01   -0.42590E+01  9568   0.126E+03-0.191E+03
CGA:   6    -0.303319626139E+03   -0.11730E+01   -0.16279E+01  9568   0.592E+02-0.418E+02
CGA:   7    -0.306125601480E+03   -0.28060E+01   -0.30713E+01  9568   0.145E+03-0.592E+01
CGA:   8    -0.309542772457E+03   -0.34172E+01   -0.38479E+01  9568   0.840E+02 0.403E+01
CGA:   9    -0.310497049096E+03   -0.95428E+00   -0.14669E+01  9568   0.431E+02-0.200E+02
CGA:  10    -0.311414500897E+03   -0.91745E+00   -0.90195E+00  9568   0.654E+01-0.565E+00
CGA:  11    -0.311653414609E+03   -0.23891E+00   -0.23888E+00  9568   0.847E+01-0.534E-01
CGA:  12    -0.311958197000E+03   -0.30478E+00   -0.30490E+00  9568   0.113E+02 0.539E-01
CGA:  13    -0.312234364757E+03   -0.27617E+00   -0.26709E+00  9568   0.586E+01-0.180E-01
CGA:  14    -0.312382381425E+03   -0.14802E+00   -0.13816E+00  9568   0.203E+01 0.250E-01
CGA:  15    -0.312441303177E+03   -0.58922E-01   -0.59950E-01  9568   0.103E+01 0.440E-01
CGA:  16    -0.312467909008E+03   -0.26606E-01   -0.27149E-01  9568   0.136E+01 0.730E-02
CGA:  17    -0.312530708772E+03   -0.62800E-01   -0.63339E-01  9568   0.129E+01-0.350E-01
CGA:  18    -0.312565930394E+03   -0.35222E-01   -0.35644E-01  9568   0.654E+00 0.144E-01
CGA:  19    -0.312581991115E+03   -0.16061E-01   -0.16273E-01  9568   0.361E+00 0.133E-02
CGA:  20    -0.312590917497E+03   -0.89264E-02   -0.89410E-02  9568   0.287E+00 0.325E-03
CGA:  21    -0.312602805287E+03   -0.11888E-01   -0.11841E-01  9568   0.287E+00 0.458E-02
CGA:  22    -0.312615212267E+03   -0.12407E-01   -0.12353E-01  9568   0.216E+00 0.478E-02
CGA:  23    -0.312619248481E+03   -0.40362E-02   -0.40526E-02  9568   0.977E-01-0.368E-03
CGA:  24    -0.312623806937E+03   -0.45585E-02   -0.45465E-02  9568   0.131E+00 0.762E-03
CGA:  25    -0.312628264057E+03   -0.44571E-02   -0.44581E-02  9568   0.880E-01 0.518E-03
CGA:  26    -0.312631089319E+03   -0.28253E-02   -0.28304E-02  9568   0.712E-01 0.805E-03
CGA:  27    -0.312632694037E+03   -0.16047E-02   -0.16135E-02  9568   0.318E-01 0.694E-05
CGA:  28    -0.312633797399E+03   -0.11034E-02   -0.11034E-02  9568   0.235E-01-0.514E-04
CGA:  29    -0.312634960453E+03   -0.11631E-02   -0.11601E-02  9568   0.368E-01 0.160E-03
CGA:  30    -0.312635819274E+03   -0.85882E-03   -0.86045E-03  9568   0.125E-01 0.665E-05
CGA:  31    -0.312636145120E+03   -0.32585E-03   -0.32611E-03  9568   0.786E-02 0.131E-04
CGA:  32    -0.312636488553E+03   -0.34343E-03   -0.34309E-03  9568   0.716E-02 0.280E-04
CGA:  33    -0.312636712996E+03   -0.22444E-03   -0.22455E-03  9568   0.763E-02 0.225E-04
CGA:  34    -0.312636965636E+03   -0.25264E-03   -0.25265E-03  9568   0.501E-02 0.920E-05
CGA:  35    -0.312637134684E+03   -0.16905E-03   -0.16906E-03  9568   0.295E-02 0.214E-04
SDA:  36    -0.312637230651E+03   -0.95967E-04   -0.95964E-04  9568   0.339E-02-0.169E-06
CGA:  37    -0.312637271537E+03   -0.40886E-04   -0.40974E-04  9568   0.865E-03-0.248E-05
CGA:  38    -0.312637325816E+03   -0.54279E-04   -0.54347E-04  9568   0.165E-02-0.340E-05
CGA:  39    -0.312637441501E+03   -0.11568E-03   -0.11600E-03  9568   0.201E-02-0.990E-05
CGA:  40    -0.312637525887E+03   -0.84387E-04   -0.84369E-04  9568   0.193E-02 0.136E-05
CGA:  41    -0.312637586241E+03   -0.60353E-04   -0.60331E-04  9568   0.105E-02-0.199E-05
CGA:  42    -0.312637645065E+03   -0.58824E-04   -0.58666E-04  9568   0.275E-02 0.751E-05
CGA:  43    -0.312637706943E+03   -0.61878E-04   -0.61998E-04  9568   0.371E-03 0.536E-05
CGA:  44    -0.312637741073E+03   -0.34130E-04   -0.33771E-04  9568   0.479E-03 0.623E-05
CGA:  45    -0.312637760216E+03   -0.19143E-04   -0.19143E-04  9568   0.658E-03 0.351E-06
CGA:  46    -0.312637779383E+03   -0.19167E-04   -0.19161E-04  9568   0.311E-03-0.959E-06
CGA:  47    -0.312637786580E+03   -0.71961E-05   -0.71671E-05  9568   0.256E-03-0.211E-05
CGA:  48    -0.312637804773E+03   -0.18194E-04   -0.18264E-04  9568   0.932E-04-0.244E-05
CGA:  49    -0.312637811683E+03   -0.69098E-05   -0.68866E-05  9568   0.530E-04 0.341E-06
   6 F= -.31263781E+03 E0= -.31261572E+03  d E =-.263721E+00  mag=    25.8036
       N       E                     dE             d eps       ncg     rms          ort
SDA:   1    -0.298502395849E+03    0.14135E+02    0.00000E+00  9568   0.974E+02 0.000E+00
CGA:   2    -0.300549450680E+03   -0.20471E+01   -0.19363E+01  9568   0.693E+02-0.301E+01
CGA:   3    -0.303069203694E+03   -0.25198E+01   -0.24986E+01  9568   0.176E+03-0.263E+01
CGA:   4    -0.305735827589E+03   -0.26666E+01   -0.29527E+01  9568   0.201E+03-0.281E+02
CGA:   5    -0.308207334927E+03   -0.24715E+01   -0.30174E+01  9568   0.415E+02-0.194E+02
CGA:   6    -0.309479175934E+03   -0.12718E+01   -0.11501E+01  9568   0.418E+02-0.377E+01
CGA:   7    -0.309842150076E+03   -0.36297E+00   -0.32936E+00  9568   0.344E+02 0.217E+01
CGA:   8    -0.310265633969E+03   -0.42348E+00   -0.39321E+00  9568   0.442E+02 0.107E+01
CGA:   9    -0.310845434460E+03   -0.57980E+00   -0.71688E+00  9568   0.902E+02-0.543E+01
CGA:  10    -0.311499767240E+03   -0.65433E+00   -0.71848E+00  9568   0.341E+02-0.495E+01
CGA:  11    -0.311730107147E+03   -0.23034E+00   -0.28310E+00  9568   0.251E+02-0.647E+01
CGA:  12    -0.311872225511E+03   -0.14212E+00   -0.89477E-01  9568   0.202E+02 0.109E+02
CGA:  13    -0.312032989569E+03   -0.16076E+00   -0.12372E+00  9568   0.916E+01 0.738E+01
CGA:  14    -0.312106665551E+03   -0.73676E-01   -0.73694E-01  9568   0.696E+01-0.102E+00
CGA:  15    -0.312147219234E+03   -0.40554E-01   -0.33736E-01  9568   0.782E+01 0.125E+01
CGA:  16    -0.312204963397E+03   -0.57744E-01   -0.52533E-01  9568   0.905E+01 0.759E+00
CGA:  17    -0.312255250837E+03   -0.50287E-01   -0.49020E-01  9568   0.783E+01 0.197E+00
CGA:  18    -0.312287731808E+03   -0.32481E-01   -0.29386E-01  9568   0.620E+01 0.742E+00
CGA:  19    -0.312319445634E+03   -0.31714E-01   -0.29657E-01  9568   0.748E+01 0.403E+00
CGA:  20    -0.312364316249E+03   -0.44871E-01   -0.45410E-01  9568   0.135E+02-0.115E+00
CGA:  21    -0.312427399525E+03   -0.63083E-01   -0.68735E-01  9568   0.186E+02-0.100E+01
CGA:  22    -0.312479558957E+03   -0.52159E-01   -0.78481E-01  9568   0.139E+02-0.521E+01
CGA:  23    -0.312504847935E+03   -0.25289E-01   -0.34915E-01  9568   0.814E+01-0.243E+01
CGA:  24    -0.312526637412E+03   -0.21789E-01   -0.23817E-01  9568   0.519E+01-0.521E+00
CGA:  25    -0.312546249247E+03   -0.19612E-01   -0.19693E-01  9568   0.387E+01-0.298E-01
CGA:  26    -0.312562040899E+03   -0.15792E-01   -0.15422E-01  9568   0.268E+01 0.686E-01
CGA:  27    -0.312572785656E+03   -0.10745E-01   -0.10788E-01  9568   0.182E+01-0.155E-01
CGA:  28    -0.312580532803E+03   -0.77471E-02   -0.76834E-02  9568   0.157E+01 0.968E-02
CGA:  29    -0.312588099346E+03   -0.75665E-02   -0.73923E-02  9568   0.165E+01 0.276E-01
CGA:  30    -0.312595998664E+03   -0.78993E-02   -0.80016E-02  9568   0.165E+01-0.182E-01
CGA:  31    -0.312603292559E+03   -0.72939E-02   -0.76155E-02  9568   0.155E+01-0.535E-01
SDA:  32    -0.312610722843E+03   -0.74303E-02   -0.76122E-02  9568   0.185E+01-0.259E-01
CGA:  33    -0.312646038331E+03   -0.35315E-01   -0.35150E-01  9568   0.650E+00 0.259E-01
CGA:  34    -0.312665429351E+03   -0.19391E-01   -0.18782E-01  9568   0.572E+00 0.424E-01
CGA:  35    -0.312687242715E+03   -0.21813E-01   -0.21625E-01  9568   0.116E+01 0.101E-01
CGA:  36    -0.312733206992E+03   -0.45964E-01   -0.45754E-01  9568   0.484E+00 0.104E-01
CGA:  37    -0.312742618776E+03   -0.94118E-02   -0.94043E-02  9568   0.626E-01 0.207E-02
CGA:  38    -0.312744906148E+03   -0.22874E-02   -0.22568E-02  9568   0.101E+00 0.165E-02
CGA:  39    -0.312747691203E+03   -0.27851E-02   -0.27683E-02  9568   0.841E-01 0.160E-02
CGA:  40    -0.312754639241E+03   -0.69480E-02   -0.67940E-02  9568   0.774E-01 0.299E-02
CGA:  41    -0.312756101238E+03   -0.14620E-02   -0.14666E-02  9568   0.234E-01 0.487E-03
CGA:  42    -0.312757068789E+03   -0.96755E-03   -0.96313E-03  9568   0.400E-01 0.213E-03
CGA:  43    -0.312758337596E+03   -0.12688E-02   -0.12623E-02  9568   0.205E-01 0.566E-03
CGA:  44    -0.312759182596E+03   -0.84500E-03   -0.83983E-03  9568   0.172E-01 0.268E-03
CGA:  45    -0.312759743904E+03   -0.56131E-03   -0.55921E-03  9568   0.119E-01 0.188E-03
CGA:  46    -0.312760077598E+03   -0.33369E-03   -0.33349E-03  9568   0.136E-01 0.394E-04
CGA:  47    -0.312761195962E+03   -0.11184E-02   -0.10986E-02  9568   0.154E-01 0.395E-03
CGA:  48    -0.312761590335E+03   -0.39437E-03   -0.39432E-03  9568   0.864E-02-0.268E-05
CGA:  49    -0.312762027464E+03   -0.43713E-03   -0.43450E-03  9568   0.146E-01 0.110E-03
CGA:  50    -0.312762384380E+03   -0.35692E-03   -0.35706E-03  9568   0.607E-02 0.198E-04
CGA:  51    -0.312762701102E+03   -0.31672E-03   -0.31517E-03  9568   0.537E-02 0.632E-04
CGA:  52    -0.312762860905E+03   -0.15980E-03   -0.15980E-03  9568   0.512E-02 0.494E-05
CGA:  53    -0.312763100668E+03   -0.23976E-03   -0.23907E-03  9568   0.690E-02 0.350E-04
CGA:  54    -0.312763273801E+03   -0.17313E-03   -0.17299E-03  9568   0.143E-02-0.570E-05
CGA:  55    -0.312763331232E+03   -0.57431E-04   -0.57279E-04  9568   0.193E-02 0.131E-04
CGA:  56    -0.312763407925E+03   -0.76693E-04   -0.76644E-04  9568   0.202E-02 0.615E-05
CGA:  57    -0.312763462067E+03   -0.54142E-04   -0.54186E-04  9568   0.979E-03 0.979E-05
CGA:  58    -0.312763509856E+03   -0.47789E-04   -0.47716E-04  9568   0.939E-03 0.402E-05
CGA:  59    -0.312763538431E+03   -0.28575E-04   -0.28577E-04  9568   0.841E-03 0.111E-05
CGA:  60    -0.312763571349E+03   -0.32918E-04   -0.32980E-04  9568   0.857E-03-0.758E-05
CGA:  61    -0.312763594355E+03   -0.23006E-04   -0.22996E-04  9568   0.316E-03-0.272E-05
CGA:  62    -0.312763616930E+03   -0.22575E-04   -0.22986E-04  9568   0.796E-03-0.101E-04
SDA:  63    -0.312763634440E+03   -0.17510E-04   -0.17464E-04  9568   0.244E-03-0.524E-05
CGA:  64    -0.312763639180E+03   -0.47397E-05   -0.47348E-05  9568   0.164E-03-0.493E-06
   7 F= -.31276364E+03 E0= -.31274203E+03  d E =-.125827E+00  mag=    25.8104
       N       E                     dE             d eps       ncg     rms          ort
SDA:   1    -0.311807028957E+03    0.95661E+00    0.00000E+00  9568   0.318E+01 0.000E+00
CGA:   2    -0.312093687314E+03   -0.28666E+00   -0.27645E+00  9568   0.641E+01 0.212E+00
CGA:   3    -0.312450372978E+03   -0.35669E+00   -0.36147E+00  9568   0.404E+01-0.223E+00
CGA:   4    -0.312539532250E+03   -0.89159E-01   -0.92060E-01  9568   0.312E+01-0.283E-02
CGA:   5    -0.312632373915E+03   -0.92842E-01   -0.92605E-01  9568   0.159E+01-0.128E-01
CGA:   6    -0.312689744043E+03   -0.57370E-01   -0.57311E-01  9568   0.171E+01 0.397E-01
CGA:   7    -0.312747568181E+03   -0.57824E-01   -0.57649E-01  9568   0.577E+00-0.288E-01
CGA:   8    -0.312759037307E+03   -0.11469E-01   -0.11610E-01  9568   0.288E+00-0.204E-02
CGA:   9    -0.312769594400E+03   -0.10557E-01   -0.10543E-01  9568   0.256E+00 0.361E-02
CGA:  10    -0.312781659970E+03   -0.12066E-01   -0.12092E-01  9568   0.174E+00-0.164E-02
CGA:  11    -0.312784608975E+03   -0.29490E-02   -0.29407E-02  9568   0.504E-01 0.239E-03
CGA:  12    -0.312786667504E+03   -0.20585E-02   -0.20576E-02  9568   0.442E-01 0.103E-03
CGA:  13    -0.312788321617E+03   -0.16541E-02   -0.16554E-02  9568   0.469E-01-0.262E-03
CGA:  14    -0.312789768451E+03   -0.14468E-02   -0.14470E-02  9568   0.258E-01 0.278E-04
CGA:  15    -0.312790358730E+03   -0.59028E-03   -0.59151E-03  9568   0.105E-01-0.257E-05
CGA:  16    -0.312790693716E+03   -0.33499E-03   -0.33516E-03  9568   0.741E-02 0.449E-04
CGA:  17    -0.312791137837E+03   -0.44412E-03   -0.44448E-03  9568   0.157E-01-0.114E-04
CGA:  18    -0.312791484376E+03   -0.34654E-03   -0.34657E-03  9568   0.323E-02 0.109E-04
CGA:  19    -0.312791593670E+03   -0.10929E-03   -0.10930E-03  9568   0.245E-02 0.123E-05
CGA:  20    -0.312791700852E+03   -0.10718E-03   -0.10704E-03  9568   0.437E-02 0.133E-04
CGA:  21    -0.312791862246E+03   -0.16139E-03   -0.16139E-03  9568   0.241E-02 0.156E-05
CGA:  22    -0.312791926520E+03   -0.64274E-04   -0.64333E-04  9568   0.141E-02 0.449E-05
CGA:  23    -0.312791979838E+03   -0.53319E-04   -0.53311E-04  9568   0.119E-02 0.263E-05
CGA:  24    -0.312792022129E+03   -0.42290E-04   -0.42287E-04  9568   0.159E-02 0.400E-05
CGA:  25    -0.312792085986E+03   -0.63858E-04   -0.63870E-04  9568   0.105E-02-0.203E-05
CGA:  26    -0.312792121997E+03   -0.36011E-04   -0.36014E-04  9568   0.607E-03 0.278E-05
CGA:  27    -0.312792136942E+03   -0.14945E-04   -0.14930E-04  9568   0.502E-03-0.168E-05
CGA:  28    -0.312792167656E+03   -0.30714E-04   -0.30778E-04  9568   0.579E-03-0.242E-05
CGA:  29    -0.312792182925E+03   -0.15269E-04   -0.15256E-04  9568   0.313E-03-0.153E-05
CGA:  30    -0.312792193099E+03   -0.10174E-04   -0.10174E-04  9568   0.276E-03-0.102E-06
CGA:  31    -0.312792203231E+03   -0.10132E-04   -0.10135E-04  9568   0.271E-03-0.185E-05
SDA:  32    -0.312792211816E+03   -0.85854E-05   -0.85881E-05  9568   0.121E-03 0.567E-06
   8 F= -.31279221E+03 E0= -.31277045E+03  d E =-.285726E-01  mag=    25.8132
       N       E                     dE             d eps       ncg     rms          ort
SDA:   1    -0.310771020225E+03    0.20212E+01    0.00000E+00  9568   0.100E+02 0.000E+00
CGA:   2    -0.310986665476E+03   -0.21565E+00   -0.23451E+00  9568   0.107E+02 0.706E-01
CGA:   3    -0.311833394268E+03   -0.84673E+00   -0.83524E+00  9568   0.215E+02 0.290E+00
CGA:   4    -0.312315309723E+03   -0.48192E+00   -0.47024E+00  9568   0.366E+01 0.232E+00
CGA:   5    -0.312472053621E+03   -0.15674E+00   -0.15953E+00  9568   0.550E+01-0.246E+00
CGA:   6    -0.312601892326E+03   -0.12984E+00   -0.13086E+00  9568   0.259E+01 0.718E-02
CGA:   7    -0.312716674710E+03   -0.11478E+00   -0.11521E+00  9568   0.185E+01-0.317E-01
CGA:   8    -0.312760579550E+03   -0.43905E-01   -0.45430E-01  9568   0.710E+00 0.126E-01
CGA:   9    -0.312774827045E+03   -0.14247E-01   -0.14171E-01  9568   0.351E+00 0.118E-02
CGA:  10    -0.312800125986E+03   -0.25299E-01   -0.25489E-01  9568   0.473E+00-0.530E-02
CGA:  11    -0.312809199984E+03   -0.90740E-02   -0.91337E-02  9568   0.145E+00-0.143E-02
CGA:  12    -0.312813782456E+03   -0.45825E-02   -0.46133E-02  9568   0.101E+00 0.382E-02
CGA:  13    -0.312816137267E+03   -0.23548E-02   -0.23173E-02  9568   0.463E-01 0.189E-03
CGA:  14    -0.312818799122E+03   -0.26619E-02   -0.26314E-02  9568   0.651E-01 0.122E-02
CGA:  15    -0.312820919346E+03   -0.21202E-02   -0.21163E-02  9568   0.388E-01-0.390E-03
CGA:  16    -0.312821656298E+03   -0.73695E-03   -0.74060E-03  9568   0.151E-01-0.750E-04
CGA:  17    -0.312822571212E+03   -0.91491E-03   -0.91661E-03  9568   0.973E-02-0.673E-04
CGA:  18    -0.312822874425E+03   -0.30321E-03   -0.30346E-03  9568   0.131E-01 0.205E-04
CGA:  19    -0.312823354994E+03   -0.48057E-03   -0.48071E-03  9568   0.629E-02-0.110E-03
CGA:  20    -0.312823626285E+03   -0.27129E-03   -0.27020E-03  9568   0.901E-02 0.101E-03
CGA:  21    -0.312823919293E+03   -0.29301E-03   -0.29263E-03  9568   0.380E-02-0.317E-04
CGA:  22    -0.312824017434E+03   -0.98141E-04   -0.98303E-04  9568   0.327E-02 0.554E-05
CGA:  23    -0.312824165272E+03   -0.14784E-03   -0.14766E-03  9568   0.308E-02 0.152E-04
CGA:  24    -0.312824309611E+03   -0.14434E-03   -0.14421E-03  9568   0.379E-02 0.104E-04
CGA:  25    -0.312824428701E+03   -0.11909E-03   -0.11905E-03  9568   0.319E-02-0.148E-05
CGA:  26    -0.312824509551E+03   -0.80850E-04   -0.81003E-04  9568   0.855E-03 0.433E-05
CGA:  27    -0.312824556023E+03   -0.46472E-04   -0.46612E-04  9568   0.191E-02-0.775E-05
CGA:  28    -0.312824622084E+03   -0.66061E-04   -0.66070E-04  9568   0.105E-02 0.111E-05
CGA:  29    -0.312824651749E+03   -0.29665E-04   -0.29644E-04  9568   0.949E-03-0.264E-05
CGA:  30    -0.312824690625E+03   -0.38877E-04   -0.38891E-04  9568   0.345E-03-0.301E-05
CGA:  31    -0.312824702392E+03   -0.11766E-04   -0.11766E-04  9568   0.512E-03-0.692E-06
SDA:  32    -0.312824721780E+03   -0.19388E-04   -0.19382E-04  9568   0.291E-03 0.317E-05
CGA:  33    -0.312824726962E+03   -0.51822E-05   -0.51708E-05  9568   0.133E-03-0.875E-06
   9 F= -.31282473E+03 E0= -.31280291E+03  d E =-.325151E-01  mag=    25.8159
       N       E                     dE             d eps       ncg     rms          ort
SDA:   1    -0.307391936154E+03    0.54328E+01    0.00000E+00  9568   0.206E+02 0.000E+00
CGA:   2    -0.308066397369E+03   -0.67446E+00   -0.67754E+00  9568   0.368E+02 0.484E+00
CGA:   3    -0.310250552236E+03   -0.21842E+01   -0.22047E+01  9568   0.479E+02-0.777E+00
CGA:   4    -0.311572362236E+03   -0.13218E+01   -0.12859E+01  9568   0.962E+01-0.113E+01
CGA:   5    -0.311865430692E+03   -0.29307E+00   -0.26889E+00  9568   0.122E+02-0.811E+00
CGA:   6    -0.312208843300E+03   -0.34341E+00   -0.34737E+00  9568   0.144E+02 0.348E+00
CGA:   7    -0.312489067815E+03   -0.28022E+00   -0.29906E+00  9568   0.545E+01-0.288E+00
CGA:   8    -0.312600917724E+03   -0.11185E+00   -0.10966E+00  9568   0.515E+01 0.364E-01
CGA:   9    -0.312686778307E+03   -0.85861E-01   -0.88477E-01  9568   0.127E+01-0.671E-01
CGA:  10    -0.312714903207E+03   -0.28125E-01   -0.28392E-01  9568   0.188E+01 0.620E-03
CGA:  11    -0.312767901959E+03   -0.52999E-01   -0.53378E-01  9568   0.156E+01 0.328E-01
CGA:  12    -0.312810659872E+03   -0.42758E-01   -0.42538E-01  9568   0.826E+00-0.121E-01
CGA:  13    -0.312820069180E+03   -0.94093E-02   -0.89792E-02  9568   0.203E+00 0.286E-01
CGA:  14    -0.312827001010E+03   -0.69318E-02   -0.69139E-02  9568   0.310E+00 0.528E-02
CGA:  15    -0.312836042380E+03   -0.90414E-02   -0.91057E-02  9568   0.358E+00 0.107E-01
CGA:  16    -0.312842915954E+03   -0.68736E-02   -0.68452E-02  9568   0.160E+00 0.470E-03
CGA:  17    -0.312849499264E+03   -0.65833E-02   -0.66220E-02  9568   0.133E+00-0.267E-02
CGA:  18    -0.312851161983E+03   -0.16627E-02   -0.17264E-02  9568   0.454E-01-0.293E-02
CGA:  19    -0.312853338116E+03   -0.21761E-02   -0.21468E-02  9568   0.511E-01 0.139E-02
CGA:  20    -0.312854934483E+03   -0.15964E-02   -0.15957E-02  9568   0.584E-01-0.498E-03
CGA:  21    -0.312856067121E+03   -0.11326E-02   -0.11489E-02  9568   0.285E-01-0.418E-04
CGA:  22    -0.312857505923E+03   -0.14388E-02   -0.14230E-02  9568   0.347E-01 0.696E-03
CGA:  23    -0.312858141128E+03   -0.63521E-03   -0.63360E-03  9568   0.160E-01 0.489E-04
CGA:  24    -0.312858564506E+03   -0.42338E-03   -0.42404E-03  9568   0.132E-01 0.658E-04
CGA:  25    -0.312859031977E+03   -0.46747E-03   -0.46719E-03  9568   0.980E-02 0.419E-04
CGA:  26    -0.312859369487E+03   -0.33751E-03   -0.33755E-03  9568   0.166E-01 0.864E-06
CGA:  27    -0.312859813526E+03   -0.44404E-03   -0.44568E-03  9568   0.776E-02 0.157E-03
CGA:  28    -0.312860081693E+03   -0.26817E-03   -0.26826E-03  9568   0.533E-02-0.135E-04
CGA:  29    -0.312860201317E+03   -0.11962E-03   -0.11959E-03  9568   0.519E-02 0.291E-05
CGA:  30    -0.312860396760E+03   -0.19544E-03   -0.19508E-03  9568   0.375E-02 0.335E-04
CGA:  31    -0.312860526020E+03   -0.12926E-03   -0.12932E-03  9568   0.444E-02-0.141E-04
SDA:  32    -0.312860650985E+03   -0.12496E-03   -0.12493E-03  9568   0.374E-02-0.817E-05
CGA:  33    -0.312860700499E+03   -0.49515E-04   -0.49581E-04  9568   0.103E-02-0.290E-05
CGA:  34    -0.312860754369E+03   -0.53870E-04   -0.53630E-04  9568   0.204E-02 0.974E-05
CGA:  35    -0.312860825619E+03   -0.71250E-04   -0.71282E-04  9568   0.122E-02-0.481E-05
CGA:  36    -0.312860904370E+03   -0.78751E-04   -0.78572E-04  9568   0.144E-02 0.496E-05
CGA:  37    -0.312860969867E+03   -0.65497E-04   -0.65446E-04  9568   0.714E-03 0.281E-05
CGA:  38    -0.312861015573E+03   -0.45706E-04   -0.45707E-04  9568   0.362E-03-0.407E-06
CGA:  39    -0.312861026900E+03   -0.11327E-04   -0.11326E-04  9568   0.663E-03-0.414E-06
CGA:  40    -0.312861069686E+03   -0.42786E-04   -0.42608E-04  9568   0.623E-03 0.540E-05
CGA:  41    -0.312861090006E+03   -0.20320E-04   -0.20333E-04  9568   0.607E-03 0.289E-05
CGA:  42    -0.312861122159E+03   -0.32153E-04   -0.32050E-04  9568   0.336E-03 0.573E-05
CGA:  43    -0.312861143205E+03   -0.21045E-04   -0.20876E-04  9568   0.345E-03 0.645E-05
CGA:  44    -0.312861153731E+03   -0.10527E-04   -0.10544E-04  9568   0.308E-03 0.243E-05
CGA:  45    -0.312861161323E+03   -0.75922E-05   -0.76061E-05  9568   0.214E-03 0.541E-07
CGA:  46    -0.312861174689E+03   -0.13365E-04   -0.13371E-04  9568   0.126E-03-0.485E-06
CGA:  47    -0.312861183098E+03   -0.84089E-05   -0.85049E-05  9568   0.144E-03-0.355E-05
  10 F= -.31286118E+03 E0= -.31283915E+03  d E =-.364561E-01  mag=    25.8250
       N       E                     dE             d eps       ncg     rms          ort
SDA:   1    -0.281736604683E+03    0.31125E+02    0.00000E+00  9568   0.394E+03 0.000E+00
CGA:   2    -0.287099919819E+03   -0.53633E+01   -0.87302E+01  9568   0.192E+03-0.526E+02
CGA:   3    -0.293315612965E+03   -0.62157E+01   -0.72811E+01  9568   0.372E+03-0.982E+02
CGA:   4    -0.295600413291E+03   -0.22848E+01   -0.64190E+01  9568   0.196E+03-0.145E+03
CGA:   5    -0.300029479759E+03   -0.44291E+01   -0.45557E+01  9568   0.216E+03-0.774E+02
CGA:   6    -0.305258002622E+03   -0.52285E+01   -0.51076E+01  9568   0.756E+02 0.352E+02
CGA:   7    -0.307253486526E+03   -0.19955E+01   -0.23146E+01  9568   0.593E+02 0.278E+01
CGA:   8    -0.308247520305E+03   -0.99403E+00   -0.10772E+01  9568   0.488E+02-0.452E+01
CGA:   9    -0.309810652706E+03   -0.15631E+01   -0.15548E+01  9568   0.449E+02-0.288E+01
CGA:  10    -0.311537903270E+03   -0.17273E+01   -0.17036E+01  9568   0.222E+02 0.326E+01
CGA:  11    -0.311953913396E+03   -0.41601E+00   -0.42454E+00  9568   0.150E+02-0.556E+00
CGA:  12    -0.312182322054E+03   -0.22841E+00   -0.25289E+00  9568   0.601E+01-0.823E+00
CGA:  13    -0.312313599009E+03   -0.13128E+00   -0.13591E+00  9568   0.527E+01 0.232E-01
CGA:  14    -0.312420554350E+03   -0.10696E+00   -0.98026E-01  9568   0.446E+01 0.195E+00
CGA:  15    -0.312556928771E+03   -0.13637E+00   -0.13598E+00  9568   0.345E+01-0.418E-01
CGA:  16    -0.312644174750E+03   -0.87246E-01   -0.89406E-01  9568   0.420E+01 0.791E-01
CGA:  17    -0.312715892000E+03   -0.71717E-01   -0.67016E-01  9568   0.103E+01 0.169E+00
CGA:  18    -0.312748845387E+03   -0.32953E-01   -0.32905E-01  9568   0.708E+00-0.239E-01
CGA:  19    -0.312774465528E+03   -0.25620E-01   -0.25477E-01  9568   0.848E+00 0.177E-01
CGA:  20    -0.312790898575E+03   -0.16433E-01   -0.16329E-01  9568   0.585E+00 0.137E-02
CGA:  21    -0.312811220298E+03   -0.20322E-01   -0.20125E-01  9568   0.485E+00 0.368E-01
CGA:  22    -0.312825270252E+03   -0.14050E-01   -0.14092E-01  9568   0.332E+00 0.375E-02
CGA:  23    -0.312831411781E+03   -0.61415E-02   -0.60699E-02  9568   0.182E+00 0.117E-02
CGA:  24    -0.312837508382E+03   -0.60966E-02   -0.60753E-02  9568   0.133E+00 0.454E-02
CGA:  25    -0.312842822994E+03   -0.53146E-02   -0.52860E-02  9568   0.175E+00 0.253E-02
CGA:  26    -0.312846975265E+03   -0.41523E-02   -0.41453E-02  9568   0.120E+00-0.187E-03
CGA:  27    -0.312850051585E+03   -0.30763E-02   -0.30996E-02  9568   0.631E-01 0.165E-02
CGA:  28    -0.312852410452E+03   -0.23589E-02   -0.23511E-02  9568   0.649E-01 0.850E-03
CGA:  29    -0.312853784258E+03   -0.13738E-02   -0.13741E-02  9568   0.395E-01-0.941E-05
CGA:  30    -0.312854923297E+03   -0.11390E-02   -0.11394E-02  9568   0.260E-01 0.144E-03
CGA:  31    -0.312856077307E+03   -0.11540E-02   -0.11489E-02  9568   0.334E-01 0.305E-03
CGA:  32    -0.312856768353E+03   -0.69105E-03   -0.69163E-03  9568   0.168E-01 0.576E-07
CGA:  33    -0.312857206211E+03   -0.43786E-03   -0.43862E-03  9568   0.105E-01 0.738E-04
SDA:  34    -0.312857665239E+03   -0.45903E-03   -0.45775E-03  9568   0.118E-01 0.859E-04
CGA:  35    -0.312857801645E+03   -0.13641E-03   -0.13607E-03  9568   0.185E-02 0.278E-05
CGA:  36    -0.312857916888E+03   -0.11524E-03   -0.11484E-03  9568   0.536E-02 0.122E-04
CGA:  37    -0.312858269052E+03   -0.35216E-03   -0.35113E-03  9568   0.717E-02 0.304E-04
CGA:  38    -0.312858563254E+03   -0.29420E-03   -0.29412E-03  9568   0.431E-02 0.704E-05
CGA:  39    -0.312858718353E+03   -0.15510E-03   -0.15503E-03  9568   0.135E-02 0.184E-04
CGA:  40    -0.312858917886E+03   -0.19953E-03   -0.19902E-03  9568   0.524E-02 0.343E-05
CGA:  41    -0.312859000612E+03   -0.82726E-04   -0.83422E-04  9568   0.108E-02-0.171E-04
CGA:  42    -0.312859062500E+03   -0.61888E-04   -0.61748E-04  9568   0.110E-02 0.606E-05
CGA:  43    -0.312859098141E+03   -0.35641E-04   -0.35664E-04  9568   0.966E-03 0.239E-05
CGA:  44    -0.312859155404E+03   -0.57263E-04   -0.57104E-04  9568   0.514E-03 0.729E-05
CGA:  45    -0.312859169172E+03   -0.13768E-04   -0.13794E-04  9568   0.459E-03 0.476E-06
CGA:  46    -0.312859184945E+03   -0.15773E-04   -0.15763E-04  9568   0.413E-03-0.243E-05
CGA:  47    -0.312859202323E+03   -0.17378E-04   -0.17383E-04  9568   0.217E-03-0.190E-05
CGA:  48    -0.312859213870E+03   -0.11548E-04   -0.11562E-04  9568   0.168E-03-0.152E-05
CGA:  49    -0.312859217139E+03   -0.32683E-05   -0.32805E-05  9568   0.941E-04 0.536E-07
  11 F= -.31285922E+03 E0= -.31283739E+03  d E =0.196596E-02  mag=    25.8232
       N       E                     dE             d eps       ncg     rms          ort
SDA:   1    -0.309889667447E+03    0.29695E+01    0.00000E+00  9568   0.400E+02 0.000E+00
CGA:   2    -0.310622244596E+03   -0.73258E+00   -0.65046E+00  9568   0.107E+02 0.139E+01
CGA:   3    -0.311208097505E+03   -0.58585E+00   -0.56212E+00  9568   0.164E+02 0.145E+01
CGA:   4    -0.311826007849E+03   -0.61791E+00   -0.60288E+00  9568   0.115E+02-0.585E+00
CGA:   5    -0.312134380363E+03   -0.30837E+00   -0.30020E+00  9568   0.519E+01-0.227E-01
CGA:   6    -0.312352862064E+03   -0.21848E+00   -0.21928E+00  9568   0.585E+01-0.118E+00
CGA:   7    -0.312510322064E+03   -0.15746E+00   -0.15792E+00  9568   0.548E+01 0.106E-03
CGA:   8    -0.312742077949E+03   -0.23176E+00   -0.23411E+00  9568   0.175E+01-0.314E+00
CGA:   9    -0.312773551883E+03   -0.31474E-01   -0.32998E-01  9568   0.108E+01-0.337E-01
CGA:  10    -0.312822746017E+03   -0.49194E-01   -0.48916E-01  9568   0.104E+01 0.218E-01
CGA:  11    -0.312852378192E+03   -0.29632E-01   -0.29610E-01  9568   0.666E+00-0.558E-03
CGA:  12    -0.312869946642E+03   -0.17568E-01   -0.17534E-01  9568   0.303E+00-0.325E-03
CGA:  13    -0.312878659217E+03   -0.87126E-02   -0.88131E-02  9568   0.168E+00 0.329E-02
CGA:  14    -0.312883586287E+03   -0.49271E-02   -0.49324E-02  9568   0.183E+00 0.215E-03
CGA:  15    -0.312892346633E+03   -0.87603E-02   -0.87551E-02  9568   0.914E-01 0.328E-03
CGA:  16    -0.312894344243E+03   -0.19976E-02   -0.19898E-02  9568   0.575E-01 0.863E-04
CGA:  17    -0.312896471404E+03   -0.21272E-02   -0.21250E-02  9568   0.366E-01 0.105E-02
CGA:  18    -0.312897996916E+03   -0.15255E-02   -0.15274E-02  9568   0.454E-01-0.220E-03
CGA:  19    -0.312899366903E+03   -0.13700E-02   -0.13737E-02  9568   0.349E-01 0.220E-03
CGA:  20    -0.312900388154E+03   -0.10213E-02   -0.10230E-02  9568   0.106E-01 0.749E-04
CGA:  21    -0.312900781892E+03   -0.39374E-03   -0.39357E-03  9568   0.165E-01 0.615E-04
CGA:  22    -0.312901416342E+03   -0.63445E-03   -0.63476E-03  9568   0.104E-01-0.619E-04
CGA:  23    -0.312901778406E+03   -0.36206E-03   -0.36217E-03  9568   0.926E-02 0.776E-04
CGA:  24    -0.312902024299E+03   -0.24589E-03   -0.24566E-03  9568   0.403E-02-0.327E-05
CGA:  25    -0.312902183383E+03   -0.15908E-03   -0.15906E-03  9568   0.466E-02 0.416E-05
CGA:  26    -0.312902346236E+03   -0.16285E-03   -0.16284E-03  9568   0.460E-02-0.104E-04
CGA:  27    -0.312902492706E+03   -0.14647E-03   -0.14664E-03  9568   0.162E-02 0.202E-04
CGA:  28    -0.312902561538E+03   -0.68831E-04   -0.68864E-04  9568   0.270E-02-0.403E-05
CGA:  29    -0.312902639053E+03   -0.77515E-04   -0.77538E-04  9568   0.110E-02 0.111E-05
CGA:  30    -0.312902691967E+03   -0.52915E-04   -0.52897E-04  9568   0.116E-02 0.612E-06
CGA:  31    -0.312902725668E+03   -0.33701E-04   -0.33724E-04  9568   0.970E-03 0.225E-05
SDA:  32    -0.312902755650E+03   -0.29982E-04   -0.29974E-04  9568   0.557E-03-0.150E-05
CGA:  33    -0.312902766664E+03   -0.11014E-04   -0.11028E-04  9568   0.314E-03 0.490E-06
CGA:  34    -0.312902776572E+03   -0.99083E-05   -0.99063E-05  9568   0.323E-03-0.826E-06
CGA:  35    -0.312902797565E+03   -0.20992E-04   -0.20973E-04  9568   0.373E-03 0.382E-06
CGA:  36    -0.312902822748E+03   -0.25183E-04   -0.25139E-04  9568   0.153E-03 0.116E-05
CGA:  37    -0.312902827820E+03   -0.50727E-05   -0.50769E-05  9568   0.153E-03 0.657E-06
  12 F= -.31290283E+03 E0= -.31288065E+03  d E =-.436107E-01  mag=    25.8411
       N       E                     dE             d eps       ncg     rms          ort
SDA:   1    -0.312799849165E+03    0.10297E+00    0.00000E+00  9568   0.129E+01 0.000E+00
CGA:   2    -0.312816331163E+03   -0.16482E-01   -0.16611E-01  9568   0.381E+00-0.998E-02
CGA:   3    -0.312846765102E+03   -0.30434E-01   -0.30619E-01  9568   0.840E+00-0.426E-02
CGA:   4    -0.312874862469E+03   -0.28097E-01   -0.28054E-01  9568   0.299E+00-0.349E-02
CGA:   5    -0.312883597323E+03   -0.87349E-02   -0.87120E-02  9568   0.203E+00-0.493E-03
CGA:   6    -0.312894351033E+03   -0.10754E-01   -0.10684E-01  9568   0.150E+00 0.365E-02
CGA:   7    -0.312898796437E+03   -0.44454E-02   -0.44515E-02  9568   0.179E+00 0.139E-03
CGA:   8    -0.312903829941E+03   -0.50335E-02   -0.50213E-02  9568   0.234E-01-0.192E-03
CGA:   9    -0.312905336571E+03   -0.15066E-02   -0.15035E-02  9568   0.264E-01 0.110E-03
CGA:  10    -0.312906268435E+03   -0.93186E-03   -0.93120E-03  9568   0.190E-01-0.718E-04
CGA:  11    -0.312906870562E+03   -0.60213E-03   -0.60264E-03  9568   0.102E-01 0.258E-04
CGA:  12    -0.312907098454E+03   -0.22789E-03   -0.22823E-03  9568   0.439E-02-0.989E-05
CGA:  13    -0.312907210501E+03   -0.11205E-03   -0.11215E-03  9568   0.343E-02 0.140E-05
CGA:  14    -0.312907475851E+03   -0.26535E-03   -0.26517E-03  9568   0.182E-02 0.511E-05
CGA:  15    -0.312907563721E+03   -0.87870E-04   -0.87806E-04  9568   0.144E-02 0.581E-05
CGA:  16    -0.312907593462E+03   -0.29740E-04   -0.29712E-04  9568   0.783E-03 0.450E-06
CGA:  17    -0.312907628710E+03   -0.35248E-04   -0.35233E-04  9568   0.114E-02 0.203E-05
CGA:  18    -0.312907671587E+03   -0.42877E-04   -0.42875E-04  9568   0.692E-03-0.131E-05
CGA:  19    -0.312907693240E+03   -0.21653E-04   -0.21669E-04  9568   0.379E-03 0.172E-05
CGA:  20    -0.312907714938E+03   -0.21697E-04   -0.21715E-04  9568   0.304E-03-0.820E-06
CGA:  21    -0.312907721581E+03   -0.66434E-05   -0.66581E-05  9568   0.270E-03 0.848E-06
CGA:  22    -0.312907739875E+03   -0.18294E-04   -0.18286E-04  9568   0.231E-03 0.297E-06
CGA:  23    -0.312907748929E+03   -0.90538E-05   -0.90537E-05  9568   0.210E-03-0.189E-06
  13 F= -.31290775E+03 E0= -.31288553E+03  d E =-.492111E-02  mag=    25.8442
       N       E                     dE             d eps       ncg     rms          ort
SDA:   1    -0.312522965649E+03    0.38477E+00    0.00000E+00  9568   0.245E+01 0.000E+00
CGA:   2    -0.312564461528E+03   -0.41496E-01   -0.41976E-01  9568   0.179E+01-0.243E-01
CGA:   3    -0.312762446395E+03   -0.19798E+00   -0.19557E+00  9568   0.143E+01 0.378E-01
CGA:   4    -0.312805252952E+03   -0.42807E-01   -0.41865E-01  9568   0.839E+00-0.208E-02
CGA:   5    -0.312844776423E+03   -0.39523E-01   -0.39590E-01  9568   0.101E+01-0.705E-02
CGA:   6    -0.312878148528E+03   -0.33372E-01   -0.33376E-01  9568   0.483E+00-0.634E-04
CGA:   7    -0.312893175067E+03   -0.15027E-01   -0.15138E-01  9568   0.408E+00 0.210E-02
CGA:   8    -0.312900632355E+03   -0.74573E-02   -0.74018E-02  9568   0.832E-01 0.174E-02
CGA:   9    -0.312907762544E+03   -0.71302E-02   -0.71290E-02  9568   0.143E+00 0.305E-04
CGA:  10    -0.312910739142E+03   -0.29766E-02   -0.29737E-02  9568   0.366E-01 0.798E-04
CGA:  11    -0.312912181706E+03   -0.14426E-02   -0.14427E-02  9568   0.240E-01 0.513E-04
CGA:  12    -0.312912712987E+03   -0.53128E-03   -0.52948E-03  9568   0.173E-01 0.280E-04
CGA:  13    -0.312913502562E+03   -0.78958E-03   -0.78945E-03  9568   0.158E-01 0.166E-04
CGA:  14    -0.312914106287E+03   -0.60373E-03   -0.60367E-03  9568   0.597E-02-0.164E-04
CGA:  15    -0.312914334286E+03   -0.22800E-03   -0.22800E-03  9568   0.742E-02 0.256E-05
CGA:  16    -0.312914512101E+03   -0.17782E-03   -0.17794E-03  9568   0.249E-02 0.597E-06
CGA:  17    -0.312914606231E+03   -0.94130E-04   -0.94147E-04  9568   0.394E-02 0.744E-05
CGA:  18    -0.312914784307E+03   -0.17808E-03   -0.17812E-03  9568   0.173E-02-0.636E-05
CGA:  19    -0.312914873598E+03   -0.89292E-04   -0.89200E-04  9568   0.180E-02 0.561E-05
CGA:  20    -0.312914911623E+03   -0.38024E-04   -0.38046E-04  9568   0.924E-03-0.410E-06
CGA:  21    -0.312914943647E+03   -0.32025E-04   -0.32030E-04  9568   0.889E-03 0.106E-05
CGA:  22    -0.312915030169E+03   -0.86522E-04   -0.86445E-04  9568   0.101E-02 0.142E-05
CGA:  23    -0.312915049911E+03   -0.19743E-04   -0.19827E-04  9568   0.451E-03 0.101E-05
CGA:  24    -0.312915068297E+03   -0.18385E-04   -0.18385E-04  9568   0.441E-03 0.892E-06
CGA:  25    -0.312915080611E+03   -0.12314E-04   -0.12327E-04  9568   0.395E-03 0.586E-06
CGA:  26    -0.312915110214E+03   -0.29603E-04   -0.29597E-04  9568   0.323E-03-0.762E-07
CGA:  27    -0.312915119245E+03   -0.90304E-05   -0.90381E-05  9568   0.204E-03 0.251E-06
  14 F= -.31291512E+03 E0= -.31289285E+03  d E =-.737032E-02  mag=    25.8512
       N       E                     dE             d eps       ncg     rms          ort
SDA:   1    -0.311616006938E+03    0.12991E+01    0.00000E+00  9568   0.661E+02 0.000E+00
CGA:   2    -0.312142072353E+03   -0.52607E+00   -0.98768E+00  9568   0.157E+02-0.244E+02
CGA:   3    -0.312361494651E+03   -0.21942E+00   -0.21489E+00  9568   0.312E+01 0.108E-01
CGA:   4    -0.312451762662E+03   -0.90268E-01   -0.90300E-01  9568   0.309E+01 0.468E-03
CGA:   5    -0.312745946870E+03   -0.29418E+00   -0.29298E+00  9568   0.275E+01 0.198E-01
CGA:   6    -0.312803200606E+03   -0.57254E-01   -0.55892E-01  9568   0.785E+00 0.333E-01
CGA:   7    -0.312831904050E+03   -0.28703E-01   -0.28713E-01  9568   0.130E+01 0.112E-02
CGA:   8    -0.312884230564E+03   -0.52327E-01   -0.52291E-01  9568   0.659E+00 0.254E-01
CGA:   9    -0.312901118953E+03   -0.16888E-01   -0.16351E-01  9568   0.192E+00 0.413E-02
CGA:  10    -0.312909237910E+03   -0.81190E-02   -0.81023E-02  9568   0.114E+00 0.299E-02
CGA:  11    -0.312914237674E+03   -0.49998E-02   -0.50119E-02  9568   0.131E+00-0.158E-02
CGA:  12    -0.312919779640E+03   -0.55420E-02   -0.55351E-02  9568   0.363E-01 0.106E-02
CGA:  13    -0.312920645397E+03   -0.86576E-03   -0.86170E-03  9568   0.246E-01 0.305E-04
CGA:  14    -0.312921536636E+03   -0.89124E-03   -0.89156E-03  9568   0.255E-01 0.650E-04
CGA:  15    -0.312922318335E+03   -0.78170E-03   -0.78201E-03  9568   0.169E-01 0.723E-05
CGA:  16    -0.312923170375E+03   -0.85204E-03   -0.85138E-03  9568   0.903E-02 0.406E-04
CGA:  17    -0.312923468077E+03   -0.29770E-03   -0.29779E-03  9568   0.757E-02 0.731E-05
CGA:  18    -0.312923814288E+03   -0.34621E-03   -0.34579E-03  9568   0.620E-02 0.375E-04
CGA:  19    -0.312923938221E+03   -0.12393E-03   -0.12382E-03  9568   0.334E-02-0.989E-06
CGA:  20    -0.312924142866E+03   -0.20464E-03   -0.20415E-03  9568   0.564E-02 0.188E-04
CGA:  21    -0.312924348075E+03   -0.20521E-03   -0.20513E-03  9568   0.263E-02-0.137E-04
CGA:  22    -0.312924460558E+03   -0.11248E-03   -0.11239E-03  9568   0.220E-02 0.162E-04
CGA:  23    -0.312924526602E+03   -0.66044E-04   -0.66004E-04  9568   0.152E-02-0.227E-05
CGA:  24    -0.312924576963E+03   -0.50361E-04   -0.50388E-04  9568   0.198E-02 0.376E-05
CGA:  25    -0.312924667168E+03   -0.90204E-04   -0.90184E-04  9568   0.119E-02 0.313E-05
CGA:  26    -0.312924706467E+03   -0.39300E-04   -0.39304E-04  9568   0.868E-03 0.137E-05
CGA:  27    -0.312924745611E+03   -0.39144E-04   -0.39108E-04  9568   0.467E-03 0.456E-05
CGA:  28    -0.312924757040E+03   -0.11429E-04   -0.11448E-04  9568   0.388E-03 0.988E-06
CGA:  29    -0.312924774889E+03   -0.17849E-04   -0.17856E-04  9568   0.485E-03-0.869E-06
CGA:  30    -0.312924790526E+03   -0.15637E-04   -0.15652E-04  9568   0.268E-03 0.179E-05
CGA:  31    -0.312924803841E+03   -0.13315E-04   -0.13328E-04  9568   0.180E-03-0.113E-05
SDA:  32    -0.312924808152E+03   -0.43112E-05   -0.43199E-05  9568   0.832E-04 0.315E-06
  15 F= -.31292481E+03 E0= -.31290263E+03  d E =-.968891E-02  mag=    25.8555
       N       E                     dE             d eps       ncg     rms          ort
SDA:   1    -0.287025829089E+03    0.25899E+02    0.00000E+00  9568   0.113E+03 0.000E+00
CGA:   2    -0.292280441807E+03   -0.52546E+01   -0.50000E+01  9568   0.958E+02 0.219E+02
CGA:   3    -0.300297773891E+03   -0.80173E+01   -0.11538E+02  9568   0.578E+03-0.767E+02
CGA:   4    -0.303386464974E+03   -0.30887E+01   -0.11216E+02  9568   0.169E+03-0.126E+03
CGA:   5    -0.306686012048E+03   -0.32995E+01   -0.23297E+01  9568   0.370E+02 0.398E+02
CGA:   6    -0.307122766455E+03   -0.43675E+00   -0.26338E+00  9568   0.206E+02 0.262E+02
CGA:   7    -0.307873468318E+03   -0.75070E+00   -0.75014E+00  9568   0.292E+02-0.111E+01
CGA:   8    -0.310231215477E+03   -0.23577E+01   -0.28491E+01  9568   0.925E+02-0.841E+01
CGA:   9    -0.311396917594E+03   -0.11657E+01   -0.97774E+00  9568   0.297E+02 0.128E+02
CGA:  10    -0.311757211117E+03   -0.36029E+00   -0.39114E+00  9568   0.107E+02-0.238E+01
CGA:  11    -0.312117470647E+03   -0.36026E+00   -0.36090E+00  9568   0.130E+02 0.576E+00
CGA:  12    -0.312368583667E+03   -0.25111E+00   -0.24249E+00  9568   0.689E+01 0.233E+00
CGA:  13    -0.312631365058E+03   -0.26278E+00   -0.26203E+00  9568   0.711E+01 0.382E+00
CGA:  14    -0.312737383355E+03   -0.10602E+00   -0.82625E-01  9568   0.144E+01 0.185E+01
CGA:  15    -0.312770771593E+03   -0.33388E-01   -0.31820E-01  9568   0.148E+01 0.441E-01
CGA:  16    -0.312802385084E+03   -0.31613E-01   -0.31254E-01  9568   0.155E+01 0.401E-02
CGA:  17    -0.312826972657E+03   -0.24588E-01   -0.26438E-01  9568   0.153E+01-0.487E-01
CGA:  18    -0.312857680539E+03   -0.30708E-01   -0.31079E-01  9568   0.151E+01-0.758E-03
CGA:  19    -0.312884022045E+03   -0.26342E-01   -0.26933E-01  9568   0.802E+00-0.119E-01
CGA:  20    -0.312896037323E+03   -0.12015E-01   -0.12467E-01  9568   0.533E+00-0.143E-01
CGA:  21    -0.312912358362E+03   -0.16321E-01   -0.16296E-01  9568   0.439E+00 0.255E-01
CGA:  22    -0.312919039674E+03   -0.66813E-02   -0.66073E-02  9568   0.202E+00 0.278E-02
CGA:  23    -0.312928226670E+03   -0.91870E-02   -0.92426E-02  9568   0.268E+00-0.308E-02
CGA:  24    -0.312934143055E+03   -0.59164E-02   -0.59303E-02  9568   0.310E+00 0.297E-03
CGA:  25    -0.312945857157E+03   -0.11714E-01   -0.11695E-01  9568   0.196E+00 0.174E-02
CGA:  26    -0.312950006640E+03   -0.41495E-02   -0.41289E-02  9568   0.159E+00-0.687E-04
CGA:  27    -0.312953914993E+03   -0.39084E-02   -0.39047E-02  9568   0.928E-01-0.136E-03
CGA:  28    -0.312956219222E+03   -0.23042E-02   -0.23091E-02  9568   0.710E-01 0.333E-03
CGA:  29    -0.312958088416E+03   -0.18692E-02   -0.18663E-02  9568   0.818E-01-0.310E-03
CGA:  30    -0.312960667200E+03   -0.25788E-02   -0.25797E-02  9568   0.804E-01-0.199E-03
CGA:  31    -0.312962649659E+03   -0.19825E-02   -0.19869E-02  9568   0.634E-01 0.333E-03
CGA:  32    -0.312964079229E+03   -0.14296E-02   -0.14315E-02  9568   0.513E-01 0.807E-04
CGA:  33    -0.312965744939E+03   -0.16657E-02   -0.16672E-02  9568   0.355E-01-0.251E-03
CGA:  34    -0.312966409575E+03   -0.66464E-03   -0.66581E-03  9568   0.269E-01 0.454E-05
CGA:  35    -0.312967344208E+03   -0.93463E-03   -0.93508E-03  9568   0.205E-01-0.497E-04
CGA:  36    -0.312967933189E+03   -0.58898E-03   -0.58897E-03  9568   0.325E-01-0.549E-04
SDA:  37    -0.312968940195E+03   -0.10070E-02   -0.10068E-02  9568   0.165E-01 0.494E-04
CGA:  38    -0.312969296046E+03   -0.35585E-03   -0.35693E-03  9568   0.891E-02 0.343E-04
CGA:  39    -0.312969633955E+03   -0.33791E-03   -0.33724E-03  9568   0.708E-02 0.545E-04
CGA:  40    -0.312969879750E+03   -0.24579E-03   -0.24574E-03  9568   0.114E-01 0.684E-05
CGA:  41    -0.312970462728E+03   -0.58298E-03   -0.58521E-03  9568   0.267E-02-0.949E-04
CGA:  42    -0.312970701986E+03   -0.23926E-03   -0.23999E-03  9568   0.420E-02-0.136E-04
CGA:  43    -0.312970835755E+03   -0.13377E-03   -0.13379E-03  9568   0.179E-02 0.460E-05
CGA:  44    -0.312970904767E+03   -0.69013E-04   -0.69004E-04  9568   0.227E-02-0.743E-06
CGA:  45    -0.312970991075E+03   -0.86308E-04   -0.86315E-04  9568   0.197E-02-0.329E-05
CGA:  46    -0.312971046350E+03   -0.55275E-04   -0.55326E-04  9568   0.170E-02 0.203E-05
CGA:  47    -0.312971119132E+03   -0.72782E-04   -0.72850E-04  9568   0.970E-03-0.738E-05
CGA:  48    -0.312971235363E+03   -0.11623E-03   -0.11581E-03  9568   0.153E-02 0.477E-05
CGA:  49    -0.312971282594E+03   -0.47231E-04   -0.47175E-04  9568   0.141E-02-0.351E-05
CGA:  50    -0.312971323010E+03   -0.40416E-04   -0.40425E-04  9568   0.486E-03 0.384E-06
CGA:  51    -0.312971333500E+03   -0.10490E-04   -0.10479E-04  9568   0.352E-03-0.948E-06
CGA:  52    -0.312971374927E+03   -0.41427E-04   -0.41662E-04  9568   0.418E-03-0.333E-05
CGA:  53    -0.312971398295E+03   -0.23368E-04   -0.23351E-04  9568   0.394E-03 0.706E-06
CGA:  54    -0.312971410193E+03   -0.11898E-04   -0.11906E-04  9568   0.196E-03 0.362E-06
CGA:  55    -0.312971415343E+03   -0.51501E-05   -0.51516E-05  9568   0.157E-03-0.221E-06
  16 F= -.31297142E+03 E0= -.31294902E+03  d E =-.466072E-01  mag=    25.8958
       N       E                     dE             d eps       ncg     rms          ort
SDA:   1    -0.298657327313E+03    0.14314E+02    0.00000E+00  9568   0.579E+02 0.000E+00
CGA:   2    -0.300214790044E+03   -0.15575E+01   -0.14829E+01  9568   0.849E+02-0.247E+01
CGA:   3    -0.307683663414E+03   -0.74689E+01   -0.74784E+01  9568   0.893E+02-0.740E+01
CGA:   4    -0.309044265372E+03   -0.13606E+01   -0.17644E+01  9568   0.434E+02-0.109E+02
CGA:   5    -0.310261513696E+03   -0.12172E+01   -0.11908E+01  9568   0.304E+02-0.128E+01
CGA:   6    -0.311154496441E+03   -0.89298E+00   -0.92075E+00  9568   0.251E+02 0.493E+00
CGA:   7    -0.312081238435E+03   -0.92674E+00   -0.92654E+00  9568   0.125E+02 0.145E-01
CGA:   8    -0.312356029304E+03   -0.27479E+00   -0.25160E+00  9568   0.291E+01 0.567E+00
CGA:   9    -0.312682250284E+03   -0.32622E+00   -0.32428E+00  9568   0.572E+01 0.389E-01
CGA:  10    -0.312787194602E+03   -0.10494E+00   -0.92359E-01  9568   0.108E+01 0.567E+00
CGA:  11    -0.312822792853E+03   -0.35598E-01   -0.35888E-01  9568   0.135E+01 0.361E-02
CGA:  12    -0.312865569606E+03   -0.42777E-01   -0.42614E-01  9568   0.111E+01-0.410E-02
CGA:  13    -0.312902480640E+03   -0.36911E-01   -0.37140E-01  9568   0.106E+01 0.101E-01
CGA:  14    -0.312929712252E+03   -0.27232E-01   -0.25973E-01  9568   0.705E+00 0.106E-01
CGA:  15    -0.312942413627E+03   -0.12701E-01   -0.12306E-01  9568   0.254E+00 0.141E-01
CGA:  16    -0.312954943641E+03   -0.12530E-01   -0.12497E-01  9568   0.413E+00 0.219E-02
CGA:  17    -0.312967692669E+03   -0.12749E-01   -0.12905E-01  9568   0.300E+00 0.554E-02
CGA:  18    -0.312976950479E+03   -0.92578E-02   -0.91386E-02  9568   0.242E+00-0.358E-02
CGA:  19    -0.312980881479E+03   -0.39310E-02   -0.41950E-02  9568   0.127E+00-0.819E-02
CGA:  20    -0.312987801504E+03   -0.69200E-02   -0.70275E-02  9568   0.113E+00-0.457E-02
CGA:  21    -0.312990954602E+03   -0.31531E-02   -0.32048E-02  9568   0.788E-01 0.155E-02
CGA:  22    -0.312992806086E+03   -0.18515E-02   -0.18291E-02  9568   0.753E-01 0.207E-03
CGA:  23    -0.312997275734E+03   -0.44696E-02   -0.43454E-02  9568   0.380E-01 0.490E-02
CGA:  24    -0.312999448628E+03   -0.21729E-02   -0.21837E-02  9568   0.572E-01-0.520E-03
CGA:  25    -0.313000466399E+03   -0.10178E-02   -0.10482E-02  9568   0.276E-01-0.805E-03
CGA:  26    -0.313002047486E+03   -0.15811E-02   -0.15832E-02  9568   0.162E-01-0.802E-04
CGA:  27    -0.313003017035E+03   -0.96955E-03   -0.96184E-03  9568   0.262E-01 0.313E-03
CGA:  28    -0.313003667993E+03   -0.65096E-03   -0.64824E-03  9568   0.185E-01 0.382E-04
CGA:  29    -0.313004282914E+03   -0.61492E-03   -0.61834E-03  9568   0.132E-01 0.219E-03
CGA:  30    -0.313004736456E+03   -0.45354E-03   -0.45292E-03  9568   0.924E-02-0.490E-04
CGA:  31    -0.313005114245E+03   -0.37779E-03   -0.37758E-03  9568   0.102E-01 0.468E-04
SDA:  32    -0.313005729153E+03   -0.61491E-03   -0.61947E-03  9568   0.907E-02-0.178E-03
CGA:  33    -0.313005850340E+03   -0.12119E-03   -0.12127E-03  9568   0.324E-02-0.146E-04
CGA:  34    -0.313006074198E+03   -0.22386E-03   -0.22409E-03  9568   0.380E-02-0.773E-05
CGA:  35    -0.313006369806E+03   -0.29561E-03   -0.29429E-03  9568   0.630E-02 0.337E-04
CGA:  36    -0.313006558166E+03   -0.18836E-03   -0.18816E-03  9568   0.339E-02-0.496E-05
CGA:  37    -0.313006723363E+03   -0.16520E-03   -0.16529E-03  9568   0.214E-02-0.853E-05
CGA:  38    -0.313006793795E+03   -0.70432E-04   -0.70503E-04  9568   0.948E-03 0.271E-06
CGA:  39    -0.313006841395E+03   -0.47600E-04   -0.47665E-04  9568   0.252E-02-0.491E-05
CGA:  40    -0.313006928282E+03   -0.86887E-04   -0.87210E-04  9568   0.171E-02 0.151E-04
CGA:  41    -0.313007081202E+03   -0.15292E-03   -0.15194E-03  9568   0.161E-02 0.200E-04
CGA:  42    -0.313007125201E+03   -0.43999E-04   -0.43999E-04  9568   0.122E-02 0.317E-06
CGA:  43    -0.313007178512E+03   -0.53311E-04   -0.53308E-04  9568   0.814E-03-0.127E-05
CGA:  44    -0.313007195260E+03   -0.16748E-04   -0.16658E-04  9568   0.652E-03-0.567E-07
CGA:  45    -0.313007261348E+03   -0.66087E-04   -0.66116E-04  9568   0.923E-03-0.453E-06
CGA:  46    -0.313007288022E+03   -0.26674E-04   -0.26642E-04  9568   0.388E-03-0.362E-05
CGA:  47    -0.313007297871E+03   -0.98490E-05   -0.98397E-05  9568   0.395E-03 0.222E-06
CGA:  48    -0.313007312420E+03   -0.14550E-04   -0.14565E-04  9568   0.168E-03 0.871E-06
CGA:  49    -0.313007331980E+03   -0.19560E-04   -0.19243E-04  9568   0.238E-03 0.424E-05
CGA:  50    -0.313007335927E+03   -0.39466E-05   -0.39917E-05  9568   0.774E-04 0.149E-05
  17 F= -.31300734E+03 E0= -.31298525E+03  d E =-.359206E-01  mag=    25.9160
       N       E                     dE             d eps       ncg     rms          ort
SDA:   1    -0.307456988862E+03    0.55503E+01    0.00000E+00  9568   0.178E+02 0.000E+00
CGA:   2    -0.308740099634E+03   -0.12831E+01   -0.13235E+01  9568   0.610E+02-0.901E+00
CGA:   3    -0.311025832382E+03   -0.22857E+01   -0.23228E+01  9568   0.205E+02 0.211E+01
CGA:   4    -0.311631699782E+03   -0.60587E+00   -0.57721E+00  9568   0.150E+02 0.312E+00
CGA:   5    -0.312015987165E+03   -0.38429E+00   -0.29794E+00  9568   0.999E+01 0.310E+01
CGA:   6    -0.312286940378E+03   -0.27095E+00   -0.27389E+00  9568   0.966E+01-0.129E+00
CGA:   7    -0.312467278546E+03   -0.18034E+00   -0.17539E+00  9568   0.994E+01 0.184E+00
CGA:   8    -0.312725185554E+03   -0.25791E+00   -0.26720E+00  9568   0.809E+01-0.676E-01
CGA:   9    -0.312828484599E+03   -0.10330E+00   -0.11316E+00  9568   0.268E+01-0.527E+00
CGA:  10    -0.312866091975E+03   -0.37607E-01   -0.31200E-01  9568   0.140E+01 0.397E+00
CGA:  11    -0.312900656624E+03   -0.34565E-01   -0.33137E-01  9568   0.206E+01 0.268E-01
CGA:  12    -0.312933885507E+03   -0.33229E-01   -0.33799E-01  9568   0.167E+01-0.186E-01
CGA:  13    -0.312954940386E+03   -0.21055E-01   -0.23132E-01  9568   0.130E+01-0.100E+00
CGA:  14    -0.312982428206E+03   -0.27488E-01   -0.28028E-01  9568   0.156E+01-0.862E-03
CGA:  15    -0.313000916596E+03   -0.18488E-01   -0.16578E-01  9568   0.342E+00 0.140E+00
CGA:  16    -0.313004826182E+03   -0.39096E-02   -0.36576E-02  9568   0.164E+00 0.204E-01
CGA:  17    -0.313008608915E+03   -0.37827E-02   -0.37546E-02  9568   0.279E+00 0.138E-03
CGA:  18    -0.313013572712E+03   -0.49638E-02   -0.50154E-02  9568   0.305E+00-0.890E-03
CGA:  19    -0.313018248854E+03   -0.46761E-02   -0.47655E-02  9568   0.266E+00-0.270E-02
CGA:  20    -0.313022233162E+03   -0.39843E-02   -0.40398E-02  9568   0.202E+00-0.176E-02
CGA:  21    -0.313025111239E+03   -0.28781E-02   -0.28565E-02  9568   0.133E+00 0.745E-03
CGA:  22    -0.313026927876E+03   -0.18166E-02   -0.18353E-02  9568   0.806E-01-0.729E-03
CGA:  23    -0.313028093649E+03   -0.11658E-02   -0.11765E-02  9568   0.602E-01-0.316E-03
CGA:  24    -0.313029139021E+03   -0.10454E-02   -0.10536E-02  9568   0.579E-01-0.334E-04
CGA:  25    -0.313030263788E+03   -0.11248E-02   -0.11224E-02  9568   0.575E-01-0.627E-04
CGA:  26    -0.313031057855E+03   -0.79407E-03   -0.79663E-03  9568   0.246E-01-0.869E-04
CGA:  27    -0.313031413328E+03   -0.35547E-03   -0.35622E-03  9568   0.241E-01-0.185E-04
CGA:  28    -0.313032322629E+03   -0.90930E-03   -0.90614E-03  9568   0.650E-01 0.199E-03
CGA:  29    -0.313033279880E+03   -0.95725E-03   -0.95707E-03  9568   0.190E-01 0.273E-04
CGA:  30    -0.313033503332E+03   -0.22345E-03   -0.22396E-03  9568   0.105E-01-0.927E-05
CGA:  31    -0.313033786662E+03   -0.28333E-03   -0.28300E-03  9568   0.172E-01 0.853E-04
SDA:  32    -0.313034106273E+03   -0.31961E-03   -0.32062E-03  9568   0.113E-01 0.432E-04
CGA:  33    -0.313034345623E+03   -0.23935E-03   -0.23913E-03  9568   0.517E-02-0.304E-04
CGA:  34    -0.313034519504E+03   -0.17388E-03   -0.17354E-03  9568   0.405E-02 0.287E-04
CGA:  35    -0.313034665142E+03   -0.14564E-03   -0.14553E-03  9568   0.494E-02 0.704E-05
CGA:  36    -0.313034873380E+03   -0.20824E-03   -0.20781E-03  9568   0.300E-02 0.229E-04
CGA:  37    -0.313034981308E+03   -0.10793E-03   -0.10779E-03  9568   0.175E-02 0.119E-04
CGA:  38    -0.313035152645E+03   -0.17134E-03   -0.17055E-03  9568   0.110E-02 0.110E-04
CGA:  39    -0.313035209807E+03   -0.57162E-04   -0.57141E-04  9568   0.202E-02 0.891E-06
CGA:  40    -0.313035258444E+03   -0.48637E-04   -0.48684E-04  9568   0.110E-02 0.495E-05
CGA:  41    -0.313035354958E+03   -0.96514E-04   -0.96121E-04  9568   0.460E-03 0.660E-05
CGA:  42    -0.313035402118E+03   -0.47160E-04   -0.46861E-04  9568   0.108E-02 0.456E-05
CGA:  43    -0.313035444217E+03   -0.42099E-04   -0.42091E-04  9568   0.856E-03 0.441E-05
CGA:  44    -0.313035463891E+03   -0.19674E-04   -0.19688E-04  9568   0.556E-03 0.268E-06
CGA:  45    -0.313035488858E+03   -0.24967E-04   -0.24936E-04  9568   0.188E-03 0.305E-05
CGA:  46    -0.313035510730E+03   -0.21872E-04   -0.21852E-04  9568   0.356E-03 0.104E-06
CGA:  47    -0.313035519997E+03   -0.92673E-05   -0.92873E-05  9568   0.199E-03 0.866E-06
CGA:  48    -0.313035535671E+03   -0.15674E-04   -0.15676E-04  9568   0.797E-04-0.261E-06
CGA:  49    -0.313035539409E+03   -0.37382E-05   -0.37379E-05  9568   0.704E-04-0.101E-06
  18 F= -.31303554E+03 E0= -.31301398E+03  d E =-.282035E-01  mag=    25.8894
       N       E                     dE             d eps       ncg     rms          ort
SDA:   1    -0.311894237562E+03    0.11413E+01    0.00000E+00  9568   0.224E+02 0.000E+00
CGA:   2    -0.312158259778E+03   -0.26402E+00   -0.31042E+00  9568   0.612E+01-0.370E+01
CGA:   3    -0.312396700384E+03   -0.23844E+00   -0.23684E+00  9568   0.603E+01 0.209E+00
CGA:   4    -0.312635980072E+03   -0.23928E+00   -0.23759E+00  9568   0.432E+01-0.169E+00
CGA:   5    -0.312753385297E+03   -0.11741E+00   -0.11476E+00  9568   0.251E+01 0.146E-02
CGA:   6    -0.312841866460E+03   -0.88481E-01   -0.87992E-01  9568   0.222E+01-0.278E-01
CGA:   7    -0.312916105210E+03   -0.74239E-01   -0.75048E-01  9568   0.174E+01 0.378E-01
CGA:   8    -0.312983386514E+03   -0.67281E-01   -0.67229E-01  9568   0.824E+00-0.952E-02
CGA:   9    -0.313003255413E+03   -0.19869E-01   -0.20083E-01  9568   0.523E+00-0.209E-02
CGA:  10    -0.313019967002E+03   -0.16712E-01   -0.16792E-01  9568   0.337E+00 0.295E-02
CGA:  11    -0.313035456283E+03   -0.15489E-01   -0.15541E-01  9568   0.250E+00-0.491E-02
CGA:  12    -0.313041026470E+03   -0.55702E-02   -0.55402E-02  9568   0.994E-01 0.461E-03
CGA:  13    -0.313044181026E+03   -0.31546E-02   -0.31622E-02  9568   0.728E-01 0.335E-03
CGA:  14    -0.313046691141E+03   -0.25101E-02   -0.25080E-02  9568   0.621E-01-0.199E-03
CGA:  15    -0.313049055012E+03   -0.23639E-02   -0.23638E-02  9568   0.344E-01 0.164E-03
CGA:  16    -0.313050095918E+03   -0.10409E-02   -0.10409E-02  9568   0.269E-01 0.224E-05
CGA:  17    -0.313050830316E+03   -0.73440E-03   -0.73521E-03  9568   0.144E-01 0.220E-04
CGA:  18    -0.313051646318E+03   -0.81600E-03   -0.81678E-03  9568   0.181E-01-0.286E-04
CGA:  19    -0.313052193314E+03   -0.54700E-03   -0.54762E-03  9568   0.125E-01 0.256E-04
CGA:  20    -0.313052549840E+03   -0.35653E-03   -0.35705E-03  9568   0.643E-02 0.106E-04
CGA:  21    -0.313052790454E+03   -0.24061E-03   -0.24061E-03  9568   0.710E-02 0.226E-04
CGA:  22    -0.313053086328E+03   -0.29587E-03   -0.29600E-03  9568   0.537E-02-0.154E-04
CGA:  23    -0.313053278293E+03   -0.19196E-03   -0.19199E-03  9568   0.474E-02 0.118E-04
CGA:  24    -0.313053400039E+03   -0.12175E-03   -0.12185E-03  9568   0.235E-02 0.541E-06
CGA:  25    -0.313053505584E+03   -0.10554E-03   -0.10555E-03  9568   0.199E-02 0.329E-06
CGA:  26    -0.313053579887E+03   -0.74303E-04   -0.74303E-04  9568   0.224E-02 0.517E-06
CGA:  27    -0.313053649074E+03   -0.69187E-04   -0.69218E-04  9568   0.112E-02 0.360E-05
CGA:  28    -0.313053685568E+03   -0.36494E-04   -0.36478E-04  9568   0.819E-03-0.212E-05
CGA:  29    -0.313053713299E+03   -0.27731E-04   -0.27739E-04  9568   0.563E-03 0.219E-05
CGA:  30    -0.313053736251E+03   -0.22951E-04   -0.22954E-04  9568   0.584E-03-0.897E-06
CGA:  31    -0.313053752780E+03   -0.16530E-04   -0.16537E-04  9568   0.382E-03 0.624E-06
SDA:  32    -0.313053768166E+03   -0.15386E-04   -0.15388E-04  9568   0.210E-03-0.375E-06
CGA:  33    -0.313053771291E+03   -0.31246E-05   -0.31307E-05  9568   0.697E-04-0.606E-09
  19 F= -.31305377E+03 E0= -.31303193E+03  d E =-.182319E-01  mag=    25.8942
       N       E                     dE             d eps       ncg     rms          ort
SDA:   1    -0.311681989617E+03    0.13718E+01    0.00000E+00  9568   0.118E+02 0.000E+00
CGA:   2    -0.311900087314E+03   -0.21810E+00   -0.19775E+00  9568   0.539E+01 0.536E+00
CGA:   3    -0.312267300890E+03   -0.36721E+00   -0.35396E+00  9568   0.102E+02 0.453E+00
CGA:   4    -0.312637028431E+03   -0.36973E+00   -0.36780E+00  9568   0.403E+01-0.221E+00
CGA:   5    -0.312738953024E+03   -0.10192E+00   -0.99140E-01  9568   0.231E+01-0.136E-01
CGA:   6    -0.312851110850E+03   -0.11216E+00   -0.11509E+00  9568   0.415E+01-0.164E+00
CGA:   7    -0.312936205959E+03   -0.85095E-01   -0.87753E-01  9568   0.146E+01-0.213E-01
CGA:   8    -0.312996561771E+03   -0.60356E-01   -0.60358E-01  9568   0.699E+00-0.377E-03
CGA:   9    -0.313010596845E+03   -0.14035E-01   -0.13994E-01  9568   0.519E+00 0.416E-03
CGA:  10    -0.313031652949E+03   -0.21056E-01   -0.21051E-01  9568   0.432E+00 0.745E-03
CGA:  11    -0.313044686330E+03   -0.13033E-01   -0.13004E-01  9568   0.216E+00-0.160E-02
CGA:  12    -0.313049807317E+03   -0.51210E-02   -0.50646E-02  9568   0.126E+00 0.447E-04
CGA:  13    -0.313053399484E+03   -0.35922E-02   -0.36096E-02  9568   0.101E+00 0.832E-03
CGA:  14    -0.313055905798E+03   -0.25063E-02   -0.25206E-02  9568   0.426E-01 0.185E-03
CGA:  15    -0.313058056431E+03   -0.21506E-02   -0.21536E-02  9568   0.497E-01-0.153E-03
CGA:  16    -0.313059080928E+03   -0.10245E-02   -0.10252E-02  9568   0.348E-01 0.418E-05
CGA:  17    -0.313060587694E+03   -0.15068E-02   -0.15076E-02  9568   0.148E-01-0.608E-04
CGA:  18    -0.313061037177E+03   -0.44948E-03   -0.44947E-03  9568   0.119E-01 0.157E-05
CGA:  19    -0.313061332576E+03   -0.29540E-03   -0.29555E-03  9568   0.108E-01 0.462E-05
CGA:  20    -0.313061877900E+03   -0.54532E-03   -0.54505E-03  9568   0.710E-02 0.143E-04
CGA:  21    -0.313062123562E+03   -0.24566E-03   -0.24567E-03  9568   0.780E-02 0.108E-04
CGA:  22    -0.313062321397E+03   -0.19784E-03   -0.19791E-03  9568   0.353E-02 0.518E-05
CGA:  23    -0.313062420154E+03   -0.98757E-04   -0.98651E-04  9568   0.349E-02-0.518E-05
CGA:  24    -0.313062595364E+03   -0.17521E-03   -0.17487E-03  9568   0.256E-02 0.180E-04
CGA:  25    -0.313062678086E+03   -0.82722E-04   -0.82728E-04  9568   0.222E-02 0.160E-05
CGA:  26    -0.313062739408E+03   -0.61322E-04   -0.61294E-04  9568   0.239E-02-0.192E-05
CGA:  27    -0.313062854320E+03   -0.11491E-03   -0.11475E-03  9568   0.705E-03 0.990E-05
CGA:  28    -0.313062880772E+03   -0.26452E-04   -0.26446E-04  9568   0.122E-02 0.164E-05
CGA:  29    -0.313062919226E+03   -0.38453E-04   -0.38447E-04  9568   0.915E-03-0.195E-05
CGA:  30    -0.313062963084E+03   -0.43858E-04   -0.43825E-04  9568   0.642E-03 0.198E-05
CGA:  31    -0.313062982091E+03   -0.19008E-04   -0.19032E-04  9568   0.487E-03 0.285E-05
SDA:  32    -0.313062993222E+03   -0.11130E-04   -0.11130E-04  9568   0.271E-03-0.934E-07
CGA:  33    -0.313062999428E+03   -0.62065E-05   -0.62107E-05  9568   0.203E-03-0.885E-07
  20 F= -.31306300E+03 E0= -.31304103E+03  d E =-.922814E-02  mag=    25.8888
       N       E                     dE             d eps       ncg     rms          ort
SDA:   1    -0.311634055513E+03    0.14289E+01    0.00000E+00  9568   0.546E+01 0.000E+00
[...]
CGA:   4    -0.313228085104E+03   -0.14946E-01   -0.14933E-01  9568   0.369E+00 0.138E-02
CGA:   5    -0.313234704838E+03   -0.66197E-02   -0.66422E-02  9568   0.184E+00-0.652E-03
CGA:   6    -0.313239987937E+03   -0.52831E-02   -0.52807E-02  9568   0.976E-01-0.890E-04
CGA:   7    -0.313242148109E+03   -0.21602E-02   -0.21545E-02  9568   0.982E-01 0.425E-04
CGA:   8    -0.313246085431E+03   -0.39373E-02   -0.39405E-02  9568   0.743E-01-0.406E-03
CGA:   9    -0.313247574532E+03   -0.14891E-02   -0.14981E-02  9568   0.458E-01-0.149E-03
CGA:  10    -0.313248646176E+03   -0.10716E-02   -0.10727E-02  9568   0.221E-01-0.132E-05
CGA:  11    -0.313249230980E+03   -0.58480E-03   -0.58464E-03  9568   0.168E-01-0.801E-05
CGA:  12    -0.313249623893E+03   -0.39291E-03   -0.39176E-03  9568   0.887E-02-0.719E-05
CGA:  13    -0.313249874792E+03   -0.25090E-03   -0.25110E-03  9568   0.932E-02 0.173E-04
CGA:  14    -0.313250133991E+03   -0.25920E-03   -0.25920E-03  9568   0.438E-02-0.131E-05
CGA:  15    -0.313250263526E+03   -0.12954E-03   -0.12949E-03  9568   0.492E-02-0.834E-05
CGA:  16    -0.313250363702E+03   -0.10018E-03   -0.10024E-03  9568   0.115E-02-0.370E-06
CGA:  17    -0.313250408617E+03   -0.44916E-04   -0.44872E-04  9568   0.224E-02 0.498E-05
CGA:  18    -0.313250468346E+03   -0.59728E-04   -0.59743E-04  9568   0.897E-03 0.156E-05
CGA:  19    -0.313250494579E+03   -0.26233E-04   -0.26225E-04  9568   0.110E-02-0.194E-05
CGA:  20    -0.313250531654E+03   -0.37075E-04   -0.37069E-04  9568   0.608E-03 0.212E-05
CGA:  21    -0.313250543566E+03   -0.11912E-04   -0.11924E-04  9568   0.399E-03 0.671E-06
CGA:  22    -0.313250557511E+03   -0.13945E-04   -0.13942E-04  9568   0.200E-03 0.819E-06
CGA:  23    -0.313250562944E+03   -0.54335E-05   -0.54347E-05  9568   0.279E-03 0.284E-06
CGA:  24    -0.313250575867E+03   -0.12923E-04   -0.12914E-04  9568   0.287E-03 0.645E-06
CGA:  25    -0.313250583585E+03   -0.77181E-05   -0.77262E-05  9568   0.173E-03 0.136E-05
  78 F= -.31325058E+03 E0= -.31322886E+03  d E =-.268543E-02  mag=    25.9275
       N       E                     dE             d eps       ncg     rms          ort
SDA:   1    -0.312889415782E+03    0.36116E+00    0.00000E+00  9568   0.176E+01 0.000E+00
CGA:   2    -0.312926816781E+03   -0.37401E-01   -0.37835E-01  9568   0.186E+01 0.134E-02
CGA:   3    -0.313133367796E+03   -0.20655E+00   -0.20535E+00  9568   0.157E+01 0.178E-01
CGA:   4    -0.313181545299E+03   -0.48178E-01   -0.47728E-01  9568   0.558E+00-0.349E-01
CGA:   5    -0.313207563083E+03   -0.26018E-01   -0.26363E-01  9568   0.105E+01-0.197E-01
CGA:   6    -0.313233599696E+03   -0.26037E-01   -0.26250E-01  9568   0.351E+00 0.315E-02
CGA:   7    -0.313246121565E+03   -0.12522E-01   -0.12514E-01  9568   0.210E+00 0.504E-02
CGA:   8    -0.313250855250E+03   -0.47337E-02   -0.46403E-02  9568   0.737E-01 0.721E-03
CGA:   9    -0.313256280140E+03   -0.54249E-02   -0.53903E-02  9568   0.786E-01 0.916E-03
CGA:  10    -0.313257817796E+03   -0.15377E-02   -0.15286E-02  9568   0.383E-01 0.197E-03
CGA:  11    -0.313259106571E+03   -0.12888E-02   -0.12883E-02  9568   0.180E-01-0.135E-03
CGA:  12    -0.313259933818E+03   -0.82725E-03   -0.82686E-03  9568   0.861E-02 0.261E-04
CGA:  13    -0.313260422274E+03   -0.48846E-03   -0.48997E-03  9568   0.131E-01-0.644E-04
CGA:  14    -0.313260689986E+03   -0.26771E-03   -0.26801E-03  9568   0.620E-02-0.892E-06
CGA:  15    -0.313260979231E+03   -0.28924E-03   -0.28905E-03  9568   0.233E-02 0.139E-04
CGA:  16    -0.313261086760E+03   -0.10753E-03   -0.10764E-03  9568   0.298E-02-0.969E-05
CGA:  17    -0.313261172566E+03   -0.85806E-04   -0.85946E-04  9568   0.161E-02 0.595E-05
CGA:  18    -0.313261235585E+03   -0.63019E-04   -0.63011E-04  9568   0.169E-02 0.193E-05
CGA:  19    -0.313261282058E+03   -0.46473E-04   -0.46494E-04  9568   0.132E-02 0.155E-05
CGA:  20    -0.313261344923E+03   -0.62865E-04   -0.62830E-04  9568   0.752E-03 0.258E-05
CGA:  21    -0.313261376886E+03   -0.31963E-04   -0.31958E-04  9568   0.377E-03 0.493E-06
CGA:  22    -0.313261398519E+03   -0.21632E-04   -0.21591E-04  9568   0.120E-02 0.194E-05
CGA:  23    -0.313261440526E+03   -0.42007E-04   -0.42013E-04  9568   0.299E-03 0.191E-05
CGA:  24    -0.313261460531E+03   -0.20005E-04   -0.19986E-04  9568   0.288E-03 0.381E-06
CGA:  25    -0.313261473079E+03   -0.12547E-04   -0.12551E-04  9568   0.244E-03-0.967E-06
CGA:  26    -0.313261481628E+03   -0.85493E-05   -0.85508E-05  9568   0.261E-03 0.643E-07
CGA:  27    -0.313261492263E+03   -0.10635E-04   -0.10635E-04  9568   0.194E-03-0.112E-06
CGA:  28    -0.313261498052E+03   -0.57889E-05   -0.57794E-05  9568   0.193E-03-0.114E-05
  79 F= -.31326150E+03 E0= -.31323978E+03  d E =-.109145E-01  mag=    25.9251
       N       E                     dE             d eps       ncg     rms          ort
SDA:   1    -0.312251373668E+03    0.10101E+01    0.00000E+00  9568   0.513E+01 0.000E+00
CGA:   2    -0.312385051809E+03   -0.13368E+00   -0.12564E+00  9568   0.542E+01 0.377E-01
CGA:   3    -0.312855568529E+03   -0.47052E+00   -0.46671E+00  9568   0.386E+01 0.812E-01
CGA:   4    -0.312956113168E+03   -0.10054E+00   -0.10271E+00  9568   0.268E+01-0.138E-01
CGA:   5    -0.313044677944E+03   -0.88565E-01   -0.88565E-01  9568   0.241E+01-0.114E-02
CGA:   6    -0.313147632008E+03   -0.10295E+00   -0.10339E+00  9568   0.215E+01-0.708E-01
CGA:   7    -0.313194157035E+03   -0.46525E-01   -0.49128E-01  9568   0.958E+00-0.288E-01
CGA:   8    -0.313218474288E+03   -0.24317E-01   -0.24654E-01  9568   0.292E+00 0.466E-03
CGA:   9    -0.313237212241E+03   -0.18738E-01   -0.18744E-01  9568   0.554E+00-0.222E-03
CGA:  10    -0.313247209083E+03   -0.99968E-02   -0.99735E-02  9568   0.143E+00 0.639E-03
CGA:  11    -0.313252722328E+03   -0.55132E-02   -0.55129E-02  9568   0.856E-01 0.537E-03
CGA:  12    -0.313255172171E+03   -0.24498E-02   -0.24250E-02  9568   0.669E-01-0.346E-03
CGA:  13    -0.313257990293E+03   -0.28181E-02   -0.28160E-02  9568   0.295E-01 0.292E-03
CGA:  14    -0.313259104110E+03   -0.11138E-02   -0.11139E-02  9568   0.347E-01 0.128E-03
CGA:  15    -0.313260071393E+03   -0.96728E-03   -0.96771E-03  9568   0.231E-01 0.173E-04
CGA:  16    -0.313260901072E+03   -0.82968E-03   -0.82932E-03  9568   0.106E-01-0.960E-04
CGA:  17    -0.313261234245E+03   -0.33317E-03   -0.33376E-03  9568   0.846E-02 0.422E-04
CGA:  18    -0.313261510705E+03   -0.27646E-03   -0.27658E-03  9568   0.543E-02 0.128E-04
CGA:  19    -0.313261945022E+03   -0.43432E-03   -0.43428E-03  9568   0.414E-02 0.289E-06
CGA:  20    -0.313262037511E+03   -0.92489E-04   -0.92808E-04  9568   0.314E-02 0.848E-06
CGA:  21    -0.313262183287E+03   -0.14578E-03   -0.14580E-03  9568   0.251E-02-0.233E-05
CGA:  22    -0.313262267774E+03   -0.84487E-04   -0.84457E-04  9568   0.246E-02-0.359E-05
CGA:  23    -0.313262356420E+03   -0.88646E-04   -0.88631E-04  9568   0.164E-02-0.315E-05
CGA:  24    -0.313262435863E+03   -0.79443E-04   -0.79378E-04  9568   0.110E-02 0.407E-05
CGA:  25    -0.313262502270E+03   -0.66407E-04   -0.66444E-04  9568   0.110E-02-0.178E-05
CGA:  26    -0.313262533535E+03   -0.31265E-04   -0.31326E-04  9568   0.867E-03 0.155E-05
CGA:  27    -0.313262577747E+03   -0.44211E-04   -0.44202E-04  9568   0.505E-03 0.491E-08
CGA:  28    -0.313262602916E+03   -0.25169E-04   -0.25150E-04  9568   0.745E-03 0.178E-05
CGA:  29    -0.313262620456E+03   -0.17540E-04   -0.17581E-04  9568   0.370E-03 0.191E-05
CGA:  30    -0.313262638209E+03   -0.17753E-04   -0.17724E-04  9568   0.258E-03 0.321E-05
CGA:  31    -0.313262646934E+03   -0.87245E-05   -0.87265E-05  9568   0.241E-03 0.310E-06
SDA:  32    -0.313262657334E+03   -0.10400E-04   -0.10392E-04  9568   0.225E-03 0.219E-05
CGA:  33    -0.313262662119E+03   -0.47850E-05   -0.47805E-05  9568   0.616E-04-0.518E-06
  80 F= -.31326266E+03 E0= -.31324103E+03  d E =-.116407E-02  mag=    25.9251
       N       E                     dE             d eps       ncg     rms          ort
SDA:   1    -0.313022102977E+03    0.24055E+00    0.00000E+00  9568   0.219E+01 0.000E+00
CGA:   2    -0.313058516873E+03   -0.36414E-01   -0.39279E-01  9568   0.112E+01-0.907E-01
CGA:   3    -0.313128101442E+03   -0.69585E-01   -0.68678E-01  9568   0.190E+01 0.316E-01
CGA:   4    -0.313183819983E+03   -0.55719E-01   -0.55165E-01  9568   0.751E+00-0.578E-02
CGA:   5    -0.313203113003E+03   -0.19293E-01   -0.19013E-01  9568   0.347E+00 0.993E-04
CGA:   6    -0.313238762167E+03   -0.35649E-01   -0.35287E-01  9568   0.467E+00 0.638E-02
CGA:   7    -0.313246925063E+03   -0.81629E-02   -0.80218E-02  9568   0.139E+00 0.530E-02
CGA:   8    -0.313252296224E+03   -0.53712E-02   -0.53665E-02  9568   0.978E-01-0.131E-02
CGA:   9    -0.313257074642E+03   -0.47784E-02   -0.47879E-02  9568   0.903E-01-0.668E-03
CGA:  10    -0.313259244258E+03   -0.21696E-02   -0.21970E-02  9568   0.332E-01-0.221E-03
CGA:  11    -0.313260418530E+03   -0.11743E-02   -0.11738E-02  9568   0.165E-01-0.479E-04
CGA:  12    -0.313260856150E+03   -0.43762E-03   -0.43803E-03  9568   0.158E-01 0.151E-05
CGA:  13    -0.313261572148E+03   -0.71600E-03   -0.71589E-03  9568   0.742E-02 0.103E-04
CGA:  14    -0.313261867453E+03   -0.29531E-03   -0.29535E-03  9568   0.516E-02-0.276E-04
CGA:  15    -0.313262035976E+03   -0.16852E-03   -0.16852E-03  9568   0.491E-02-0.181E-05
CGA:  16    -0.313262202385E+03   -0.16641E-03   -0.16652E-03  9568   0.260E-02 0.805E-05
CGA:  17    -0.313262280581E+03   -0.78196E-04   -0.78120E-04  9568   0.224E-02-0.484E-05
CGA:  18    -0.313262363434E+03   -0.82853E-04   -0.82851E-04  9568   0.130E-02-0.741E-06
CGA:  19    -0.313262447157E+03   -0.83723E-04   -0.83806E-04  9568   0.136E-02-0.311E-05
CGA:  20    -0.313262477042E+03   -0.29885E-04   -0.29904E-04  9568   0.722E-03 0.784E-06
CGA:  21    -0.313262503911E+03   -0.26869E-04   -0.26868E-04  9568   0.622E-03-0.578E-06
CGA:  22    -0.313262543566E+03   -0.39655E-04   -0.39626E-04  9568   0.839E-03 0.104E-05
CGA:  23    -0.313262563017E+03   -0.19450E-04   -0.19482E-04  9568   0.267E-03 0.122E-05
CGA:  24    -0.313262577614E+03   -0.14597E-04   -0.14582E-04  9568   0.399E-03 0.100E-05
CGA:  25    -0.313262588415E+03   -0.10801E-04   -0.10799E-04  9568   0.274E-03 0.103E-06
CGA:  26    -0.313262599387E+03   -0.10973E-04   -0.10971E-04  9568   0.146E-03 0.180E-05
CGA:  27    -0.313262606920E+03   -0.75328E-05   -0.75365E-05  9568   0.154E-03-0.290E-06
  81 F= -.31326261E+03 E0= -.31324093E+03  d E =0.551985E-04  mag=    25.9247
       N       E                     dE             d eps       ncg     rms          ort
SDA:   1    -0.312979950464E+03    0.28265E+00    0.00000E+00  9568   0.230E+01 0.000E+00
CGA:   2    -0.313014391826E+03   -0.34441E-01   -0.33820E-01  9568   0.978E+00 0.239E-01
CGA:   3    -0.313128653094E+03   -0.11426E+00   -0.11653E+00  9568   0.252E+01-0.335E-01
CGA:   4    -0.313204718495E+03   -0.76065E-01   -0.76941E-01  9568   0.493E+00 0.140E-01
CGA:   5    -0.313220000745E+03   -0.15282E-01   -0.15352E-01  9568   0.622E+00 0.111E-02
CGA:   6    -0.313243290634E+03   -0.23290E-01   -0.23278E-01  9568   0.421E+00-0.139E-02
CGA:   7    -0.313255518906E+03   -0.12228E-01   -0.12302E-01  9568   0.261E+00 0.677E-03
CGA:   8    -0.313262457142E+03   -0.69382E-02   -0.67688E-02  9568   0.585E-01 0.654E-03
CGA:   9    -0.313264617024E+03   -0.21599E-02   -0.21613E-02  9568   0.898E-01 0.242E-03
CGA:  10    -0.313267504910E+03   -0.28879E-02   -0.28901E-02  9568   0.558E-01 0.961E-04
CGA:  11    -0.313269063336E+03   -0.15584E-02   -0.15499E-02  9568   0.168E-01-0.804E-04
CGA:  12    -0.313269628668E+03   -0.56533E-03   -0.56567E-03  9568   0.131E-01 0.328E-04
CGA:  13    -0.313270017393E+03   -0.38872E-03   -0.38893E-03  9568   0.965E-02 0.799E-05
CGA:  14    -0.313270351075E+03   -0.33368E-03   -0.33366E-03  9568   0.102E-01-0.443E-05
CGA:  15    -0.313270633652E+03   -0.28258E-03   -0.28301E-03  9568   0.355E-02 0.106E-04
CGA:  16    -0.313270822834E+03   -0.18918E-03   -0.18922E-03  9568   0.335E-02-0.122E-05
CGA:  17    -0.313270895843E+03   -0.73009E-04   -0.73035E-04  9568   0.171E-02 0.152E-05
CGA:  18    -0.313270953629E+03   -0.57786E-04   -0.57808E-04  9568   0.143E-02 0.411E-05
CGA:  19    -0.313271000009E+03   -0.46379E-04   -0.46362E-04  9568   0.122E-02-0.218E-05
CGA:  20    -0.313271070477E+03   -0.70468E-04   -0.70401E-04  9568   0.959E-03 0.293E-05
CGA:  21    -0.313271095261E+03   -0.24784E-04   -0.24830E-04  9568   0.581E-03 0.114E-05
CGA:  22    -0.313271111847E+03   -0.16586E-04   -0.16590E-04  9568   0.496E-03 0.265E-06
CGA:  23    -0.313271132660E+03   -0.20813E-04   -0.20797E-04  9568   0.378E-03 0.257E-05
CGA:  24    -0.313271148445E+03   -0.15785E-04   -0.15791E-04  9568   0.492E-03-0.917E-06
CGA:  25    -0.313271171044E+03   -0.22599E-04   -0.22586E-04  9568   0.294E-03 0.110E-05
CGA:  26    -0.313271178468E+03   -0.74241E-05   -0.74299E-05  9568   0.276E-03 0.222E-06
CGA:  27    -0.313271189265E+03   -0.10796E-04   -0.10800E-04  9568   0.134E-03-0.135E-05
CGA:  28    -0.313271194873E+03   -0.56080E-05   -0.56054E-05  9568   0.190E-03 0.350E-06
  82 F= -.31327119E+03 E0= -.31324951E+03  d E =-.858795E-02  mag=    25.9230
       N       E                     dE             d eps       ncg     rms          ort
SDA:   1    -0.313106806614E+03    0.16438E+00    0.00000E+00  9568   0.205E+01 0.000E+00
CGA:   2    -0.313135058944E+03   -0.28252E-01   -0.27947E-01  9568   0.593E+00 0.127E-01
CGA:   3    -0.313177465307E+03   -0.42406E-01   -0.43242E-01  9568   0.122E+01-0.230E-01
CGA:   4    -0.313220080549E+03   -0.42615E-01   -0.42692E-01  9568   0.504E+00 0.166E-01
CGA:   5    -0.313232451983E+03   -0.12371E-01   -0.12417E-01  9568   0.320E+00-0.413E-03
CGA:   6    -0.313249581389E+03   -0.17129E-01   -0.17525E-01  9568   0.392E+00-0.194E-01
CGA:   7    -0.313256497999E+03   -0.69166E-02   -0.69720E-02  9568   0.153E+00-0.154E-02
CGA:   8    -0.313264244131E+03   -0.77461E-02   -0.77055E-02  9568   0.101E+00 0.236E-02
CGA:   9    -0.313266543324E+03   -0.22992E-02   -0.23069E-02  9568   0.738E-01-0.115E-03
CGA:  10    -0.313268482553E+03   -0.19392E-02   -0.19375E-02  9568   0.244E-01-0.471E-05
CGA:  11    -0.313269615952E+03   -0.11334E-02   -0.11338E-02  9568   0.299E-01-0.315E-04
CGA:  12    -0.313270351467E+03   -0.73552E-03   -0.73228E-03  9568   0.161E-01 0.814E-05
CGA:  13    -0.313270762194E+03   -0.41073E-03   -0.41140E-03  9568   0.859E-02 0.683E-05
CGA:  14    -0.313271033784E+03   -0.27159E-03   -0.27137E-03  9568   0.646E-02-0.192E-04
CGA:  15    -0.313271233514E+03   -0.19973E-03   -0.19963E-03  9568   0.313E-02-0.601E-05
CGA:  16    -0.313271343389E+03   -0.10987E-03   -0.10988E-03  9568   0.449E-02 0.363E-05
CGA:  17    -0.313271464572E+03   -0.12118E-03   -0.12120E-03  9568   0.151E-02 0.132E-05
CGA:  18    -0.313271568815E+03   -0.10424E-03   -0.10431E-03  9568   0.177E-02-0.201E-05
CGA:  19    -0.313271598303E+03   -0.29488E-04   -0.29496E-04  9568   0.643E-03 0.802E-06
CGA:  20    -0.313271626601E+03   -0.28298E-04   -0.28296E-04  9568   0.670E-03 0.502E-06
CGA:  21    -0.313271654381E+03   -0.27780E-04   -0.27762E-04  9568   0.763E-03 0.301E-05
CGA:  22    -0.313271679717E+03   -0.25335E-04   -0.25341E-04  9568   0.591E-03 0.907E-06
CGA:  23    -0.313271696187E+03   -0.16471E-04   -0.16463E-04  9568   0.376E-03-0.107E-05
CGA:  24    -0.313271706092E+03   -0.99044E-05   -0.99113E-05  9568   0.257E-03 0.548E-06
CGA:  25    -0.313271722084E+03   -0.15992E-04   -0.15993E-04  9568   0.166E-03-0.658E-07
CGA:  26    -0.313271726456E+03   -0.43717E-05   -0.43684E-05  9568   0.219E-03-0.414E-06
CGA:  27    -0.313271739583E+03   -0.13127E-04   -0.13115E-04  9568   0.133E-03 0.469E-06
CGA:  28    -0.313271743785E+03   -0.42024E-05   -0.42013E-05  9568   0.103E-03-0.130E-06
  83 F= -.31327174E+03 E0= -.31325010E+03  d E =-.548912E-03  mag=    25.9228
       N       E                     dE             d eps       ncg     rms          ort
SDA:   1    -0.313222994044E+03    0.48746E-01    0.00000E+00  9568   0.114E+01 0.000E+00
CGA:   2    -0.313235677106E+03   -0.12683E-01   -0.12542E-01  9568   0.121E+00 0.862E-02
CGA:   3    -0.313251717193E+03   -0.16040E-01   -0.16107E-01  9568   0.192E+00-0.841E-03
CGA:   4    -0.313259795139E+03   -0.80779E-02   -0.80775E-02  9568   0.110E+00 0.145E-03
CGA:   5    -0.313262186293E+03   -0.23912E-02   -0.23696E-02  9568   0.779E-01 0.405E-03
CGA:   6    -0.313266351271E+03   -0.41650E-02   -0.41834E-02  9568   0.793E-01-0.100E-02
CGA:   7    -0.313268675971E+03   -0.23247E-02   -0.23330E-02  9568   0.331E-01 0.133E-03
CGA:   8    -0.313269549133E+03   -0.87316E-03   -0.87262E-03  9568   0.147E-01-0.511E-05
CGA:   9    -0.313270242086E+03   -0.69295E-03   -0.69264E-03  9568   0.973E-02 0.271E-04
CGA:  10    -0.313270615406E+03   -0.37332E-03   -0.37331E-03  9568   0.125E-01-0.415E-05
CGA:  11    -0.313270879744E+03   -0.26434E-03   -0.26429E-03  9568   0.229E-02 0.705E-05
CGA:  12    -0.313271028017E+03   -0.14827E-03   -0.14797E-03  9568   0.255E-02 0.105E-04
CGA:  13    -0.313271088145E+03   -0.60129E-04   -0.59900E-04  9568   0.108E-02 0.346E-06
CGA:  14    -0.313271152173E+03   -0.64028E-04   -0.63958E-04  9568   0.822E-03 0.312E-05
CGA:  15    -0.313271178697E+03   -0.26524E-04   -0.26508E-04  9568   0.109E-02-0.168E-05
CGA:  16    -0.313271211775E+03   -0.33077E-04   -0.33059E-04  9568   0.218E-03-0.135E-05
CGA:  17    -0.313271223122E+03   -0.11347E-04   -0.11335E-04  9568   0.324E-03 0.768E-06
CGA:  18    -0.313271234359E+03   -0.11237E-04   -0.11230E-04  9568   0.220E-03-0.101E-05
CGA:  19    -0.313271246742E+03   -0.12383E-04   -0.12393E-04  9568   0.138E-03-0.594E-06
CGA:  20    -0.313271250440E+03   -0.36973E-05   -0.36907E-05  9568   0.137E-03-0.508E-06
  84 F= -.31327125E+03 E0= -.31324957E+03  d E =0.493346E-03  mag=    25.9229
       N       E                     dE             d eps       ncg     rms          ort
SDA:   1    -0.313169106977E+03    0.10214E+00    0.00000E+00  9568   0.805E+00 0.000E+00
CGA:   2    -0.313181878249E+03   -0.12771E-01   -0.13407E-01  9568   0.420E+00-0.246E-01
CGA:   3    -0.313216864749E+03   -0.34986E-01   -0.35114E-01  9568   0.984E+00-0.272E-02
CGA:   4    -0.313244618718E+03   -0.27754E-01   -0.28033E-01  9568   0.396E+00 0.188E-02
CGA:   5    -0.313255364662E+03   -0.10746E-01   -0.10473E-01  9568   0.152E+00 0.449E-03
CGA:   6    -0.313263813721E+03   -0.84491E-02   -0.84098E-02  9568   0.151E+00 0.196E-02
CGA:   7    -0.313268443716E+03   -0.46300E-02   -0.46259E-02  9568   0.145E+00-0.602E-04
CGA:   8    -0.313272235417E+03   -0.37917E-02   -0.37844E-02  9568   0.220E-01 0.116E-04
CGA:   9    -0.313273526031E+03   -0.12906E-02   -0.12885E-02  9568   0.210E-01 0.913E-04
CGA:  10    -0.313274178047E+03   -0.65202E-03   -0.65174E-03  9568   0.197E-01-0.836E-05
CGA:  11    -0.313274756521E+03   -0.57847E-03   -0.57857E-03  9568   0.620E-02 0.459E-05
CGA:  12    -0.313274941717E+03   -0.18520E-03   -0.18554E-03  9568   0.592E-02 0.119E-04
CGA:  13    -0.313275174292E+03   -0.23258E-03   -0.23260E-03  9568   0.219E-02-0.175E-04
CGA:  14    -0.313275259446E+03   -0.85153E-04   -0.85154E-04  9568   0.164E-02-0.102E-05
CGA:  15    -0.313275326012E+03   -0.66567E-04   -0.66570E-04  9568   0.234E-02-0.103E-05
CGA:  16    -0.313275388969E+03   -0.62957E-04   -0.63019E-04  9568   0.790E-03 0.139E-05
CGA:  17    -0.313275424906E+03   -0.35936E-04   -0.35940E-04  9568   0.442E-03-0.445E-06
CGA:  18    -0.313275437759E+03   -0.12853E-04   -0.12851E-04  9568   0.402E-03-0.186E-06
CGA:  19    -0.313275460579E+03   -0.22820E-04   -0.22785E-04  9568   0.339E-03 0.183E-05
CGA:  20    -0.313275470292E+03   -0.97130E-05   -0.97237E-05  9568   0.372E-03 0.976E-06
CGA:  21    -0.313275486420E+03   -0.16128E-04   -0.16133E-04  9568   0.141E-03-0.901E-06
CGA:  22    -0.313275492751E+03   -0.63310E-05   -0.63240E-05  9568   0.132E-03 0.107E-05
  85 F= -.31327549E+03 E0= -.31325380E+03  d E =-.424231E-02  mag=    25.9219
