       N       E                     dE             d eps       ncg     rms          rms(c)
DAV:   1     0.216371066304E+04    0.21637E+04   -0.84686E+04112320   0.162E+03
DAV:   2     0.936500110524E+02   -0.20701E+04   -0.19769E+04113680   0.497E+02
DAV:   3    -0.239407331967E+03   -0.33306E+03   -0.32604E+03143596   0.191E+02
DAV:   4    -0.255988742954E+03   -0.16581E+02   -0.16430E+02152800   0.479E+01
DAV:   5    -0.257102007167E+03   -0.11133E+01   -0.11102E+01212824   0.958E+00    0.546E+00
DAV:   6    -0.210841323759E+03    0.46261E+02   -0.19923E+01124692   0.164E+01    0.457E+00
DAV:   7    -0.210742529519E+03    0.98794E-01   -0.10974E+00184616   0.407E+00    0.270E+00
DAV:   8    -0.210666008396E+03    0.76521E-01   -0.10652E-01139424   0.114E+00    0.178E+00
DAV:   9    -0.210647450059E+03    0.18558E-01   -0.23912E-02156080   0.535E-01    0.128E+00
DAV:  10    -0.210636883040E+03    0.10567E-01   -0.60606E-03140392   0.273E-01    0.103E+00
DAV:  11    -0.210630034941E+03    0.68481E-02   -0.47980E-03141136   0.241E-01    0.793E-01
DAV:  12    -0.210625908602E+03    0.41263E-02   -0.28207E-03139584   0.182E-01    0.610E-01
DAV:  13    -0.210623223316E+03    0.26853E-02   -0.20957E-03139304   0.158E-01    0.454E-01
DAV:  14    -0.210621071328E+03    0.21520E-02   -0.41752E-03138504   0.226E-01    0.235E-01
DAV:  15    -0.210620739240E+03    0.33209E-03   -0.64299E-04166280   0.873E-02    0.164E-01
DAV:  16    -0.210620639926E+03    0.99314E-04   -0.43899E-04138944   0.740E-02    0.101E-01
DAV:  17    -0.210620789533E+03   -0.14961E-03   -0.61273E-04142632   0.796E-02    0.526E-02
DAV:  18    -0.210621229580E+03   -0.44005E-03   -0.11893E-03138240   0.103E-01    0.315E-02
DAV:  19    -0.210621987460E+03   -0.75788E-03   -0.36612E-03149576   0.146E-01    0.439E-02
DAV:  20    -0.210622378859E+03   -0.39140E-03   -0.19896E-03141488   0.108E-01    0.272E-02
DAV:  21    -0.210622858957E+03   -0.48010E-03   -0.17232E-03138464   0.985E-02    0.368E-02
DAV:  22    -0.210623238395E+03   -0.37944E-03   -0.17715E-03142256   0.974E-02    0.557E-02
DAV:  23    -0.210623841967E+03   -0.60357E-03   -0.28361E-03139512   0.120E-01    0.696E-02
DAV:  24    -0.210624107571E+03   -0.26560E-03   -0.23329E-03143816   0.114E-01    0.422E-02
DAV:  25    -0.210624859341E+03   -0.75177E-03   -0.52582E-03153832   0.170E-01    0.242E-02
DAV:  26    -0.210624955389E+03   -0.96049E-04   -0.13696E-03131416   0.868E-02    0.156E-02
DAV:  27    -0.210625168808E+03   -0.21342E-03   -0.99885E-04125672   0.712E-02    0.143E-02
DAV:  28    -0.210625174736E+03   -0.59280E-05   -0.20429E-04106968   0.370E-02    0.121E-02
DAV:  29    -0.210625211668E+03   -0.36932E-04   -0.16483E-05 84084   0.134E-02    0.141E-02
DAV:  30    -0.210625106976E+03    0.10469E-03   -0.15965E-05 86452   0.124E-02    0.149E-02
DAV:  31    -0.210625560114E+03   -0.45314E-03   -0.85362E-04127568   0.732E-02    0.176E-02
DAV:  32    -0.210625482729E+03    0.77384E-04   -0.66633E-05 93144   0.242E-02    0.161E-02
DAV:  33    -0.210625513127E+03   -0.30398E-04   -0.16365E-05 80528   0.115E-02    0.165E-02
DAV:  34    -0.210625481973E+03    0.31154E-04   -0.13912E-05 72092   0.118E-02    0.167E-02
DAV:  35    -0.210625449878E+03    0.32096E-04   -0.16948E-05 71052   0.999E-03    0.170E-02
DAV:  36    -0.210625377076E+03    0.72802E-04   -0.12869E-04101648   0.263E-02    0.187E-02
DAV:  37    -0.210625242962E+03    0.13411E-03   -0.38953E-04119416   0.452E-02    0.196E-02
DAV:  38    -0.210625188417E+03    0.54545E-04   -0.14970E-04106504   0.270E-02    0.175E-02
DAV:  39    -0.210625155638E+03    0.32779E-04   -0.38707E-05 85576   0.146E-02    0.162E-02
DAV:  40    -0.210625157195E+03   -0.15568E-05   -0.13525E-05 73816   0.120E-02
   1 F= -.21062516E+03 E0= -.21062516E+03  d E =-.210625E+03  mag=     8.0000
       N       E                     dE             d eps       ncg     rms          rms(c)
DAV:   1    -0.210630908538E+03   -0.57529E-02   -0.39052E-01114444   0.262E+00    0.573E-01
DAV:   2    -0.210626893909E+03    0.40146E-02   -0.21581E-02130824   0.627E-01    0.235E-01
DAV:   3    -0.210625288424E+03    0.16055E-02   -0.39587E-03145392   0.252E-01    0.764E-02
DAV:   4    -0.210625736035E+03   -0.44761E-03   -0.32463E-04158432   0.790E-02    0.459E-02
DAV:   5    -0.210625362342E+03    0.37369E-03   -0.67489E-05132968   0.327E-02    0.201E-02
DAV:   6    -0.210625508615E+03   -0.14627E-03   -0.17571E-05 93552   0.190E-02    0.130E-02
DAV:   7    -0.210625499074E+03    0.95404E-05   -0.16751E-05 78840   0.164E-02
   2 F= -.21062550E+03 E0= -.21062550E+03  d E =-.341880E-03  mag=     8.0000
