       N       E                     dE             d eps       ncg     rms          ort
DAV:   1     0.640405086774E+04    0.64041E+04   -0.31693E+05  8320   0.178E+03
DAV:   2     0.358319000939E+03   -0.60457E+04   -0.56580E+04  8320   0.512E+02
DAV:   3    -0.290912270882E+03   -0.64923E+03   -0.62914E+03  8320   0.189E+02
DAV:   4    -0.310575205382E+03   -0.19663E+02   -0.19497E+02  8320   0.353E+01
DAV:   5    -0.311037741984E+03   -0.46254E+00   -0.46039E+00  8320   0.524E+00
SDA:   6     0.974533373269E+02    0.40849E+03   -0.46039E+00  8320   0.287E+04 0.000E+00
CGA:   7     0.122484227921E+02   -0.85205E+02   -0.13911E+03  8320   0.809E+04-0.101E+04
CGA:   8     0.164779880779E+03    0.15253E+03   -0.18176E+03  8320   0.343E+05-0.133E+05
CGA:   9     0.143471460498E+04    0.12699E+04   -0.24545E+04  8320   0.375E+05-0.968E+04
CGA:  10     0.538582641828E+03   -0.89613E+03   -0.82552E+03  8320   0.339E+05-0.313E+05
CGA:  11     0.336648132168E+04    0.28279E+04   -0.19610E+04  8320   0.929E+05-0.364E+05
CGA:  12     0.278917823518E+04   -0.57730E+03   -0.50207E+04  8320   0.544E+05-0.430E+05
CGA:  13     0.278537193890E+04   -0.38063E+01   -0.10690E+04  8320   0.116E+06-0.448E+05
CGA:  14     0.210562715363E+04   -0.67974E+03   -0.72664E+04  8320   0.361E+05-0.246E+05
CGA:  15     0.168942706427E+04   -0.41620E+03   -0.13176E+04  8320   0.435E+05-0.156E+05
CGA:  16     0.124393671953E+04   -0.44549E+03   -0.10915E+04  8320   0.375E+05-0.145E+05
CGA:  17     0.128248270630E+04    0.38546E+02   -0.97749E+03  8320   0.353E+05-0.308E+05
CGA:  18     0.148727866571E+04    0.20480E+03   -0.12223E+04  8320   0.894E+05-0.824E+05
CGA:  19     0.255018125607E+04    0.10629E+04   -0.47302E+04  8320   0.684E+05-0.356E+05
CGA:  20     0.111923882060E+04   -0.14309E+04   -0.14618E+04  8320   0.354E+05-0.331E+04
CGA:  21     0.169341887173E+04    0.57418E+03   -0.14779E+04  8320   0.441E+05-0.116E+05
CGA:  22     0.985872350750E+03   -0.70755E+03   -0.11481E+04  8320   0.199E+05-0.110E+05
CGA:  23    -0.686377682080E+01   -0.99274E+03   -0.41811E+03  8320   0.114E+05 0.649E+04
CGA:  24     0.380901000095E+03    0.38776E+03   -0.55860E+03  8320   0.443E+05-0.138E+05
CGA:  25     0.111423833615E+04    0.73334E+03   -0.18087E+04  8320   0.516E+05-0.262E+05
CGA:  26     0.170451717181E+04    0.59028E+03   -0.19296E+04  8320   0.886E+05-0.662E+05
CGA:  27     0.135392268691E+04   -0.35059E+03   -0.38399E+04  8320   0.214E+05-0.177E+05
CGA:  28     0.562751744992E+02   -0.12976E+04   -0.43907E+03  8320   0.120E+05 0.205E+05
CGA:  29    -0.116819536833E+03   -0.17309E+03   -0.29826E+03  8320   0.345E+04-0.287E+04
CGA:  30    -0.166374866948E+03   -0.49555E+02   -0.26976E+02  8320   0.149E+04 0.222E+04
CGA:  31    -0.184666757394E+03   -0.18292E+02   -0.20027E+02  8320   0.137E+03-0.269E+03
CGA:  32    -0.188067360284E+03   -0.34006E+01   -0.29264E+01  8320   0.612E+02 0.159E+02
CGA:  33    -0.193790027358E+03   -0.57227E+01   -0.57058E+01  8320   0.198E+03 0.193E+01
CGA:  34    -0.202766571533E+03   -0.89765E+01   -0.99312E+01  8320   0.113E+03 0.506E+01
CGA:  35    -0.208441820528E+03   -0.56752E+01   -0.61840E+01  8320   0.565E+02 0.449E+01
CGA:  36    -0.210331985433E+03   -0.18902E+01   -0.16695E+01  8320   0.211E+02 0.790E+01
CGA:  37    -0.212497014366E+03   -0.21650E+01   -0.21325E+01  8320   0.320E+02 0.143E+01
CGA:  38    -0.214799972190E+03   -0.23030E+01   -0.22751E+01  8320   0.202E+02-0.921E+00
CGA:  39    -0.215724439362E+03   -0.92447E+00   -0.95541E+00  8320   0.241E+02-0.105E-03
CGA:  40    -0.216850548182E+03   -0.11261E+01   -0.12529E+01  8320   0.257E+02 0.907E+00
CGA:  41    -0.218347752102E+03   -0.14972E+01   -0.15036E+01  8320   0.114E+02 0.147E+00
CGA:  42    -0.218925030652E+03   -0.57728E+00   -0.57709E+00  8320   0.731E+01 0.118E-01
CGA:  43    -0.219493904319E+03   -0.56887E+00   -0.56393E+00  8320   0.752E+01 0.414E+00
CGA:  44    -0.220255718152E+03   -0.76181E+00   -0.75153E+00  8320   0.602E+01 0.301E+00
CGA:  45    -0.220649762409E+03   -0.39404E+00   -0.39745E+00  8320   0.346E+01 0.161E+00
CGA:  46    -0.221051202745E+03   -0.40144E+00   -0.39766E+00  8320   0.322E+01 0.771E-01
CGA:  47    -0.221378682620E+03   -0.32748E+00   -0.32800E+00  8320   0.190E+01-0.210E-01
CGA:  48    -0.221589799497E+03   -0.21112E+00   -0.21089E+00  8320   0.170E+01 0.606E-02
CGA:  49    -0.221798167571E+03   -0.20837E+00   -0.21784E+00  8320   0.249E+01-0.178E+00
CGA:  50    -0.221936014114E+03   -0.13785E+00   -0.13602E+00  8320   0.143E+01-0.293E-01
CGA:  51    -0.222016723686E+03   -0.80710E-01   -0.83006E-01  8320   0.102E+01 0.272E-01
CGA:  52    -0.222128287525E+03   -0.11156E+00   -0.11327E+00  8320   0.156E+01-0.405E-01
CGA:  53    -0.222207983703E+03   -0.79696E-01   -0.79242E-01  8320   0.661E+00 0.425E-02
CGA:  54    -0.222260553170E+03   -0.52569E-01   -0.52612E-01  8320   0.993E+00-0.116E-01
CGA:  55    -0.222330765328E+03   -0.70212E-01   -0.70199E-01  8320   0.108E+01-0.119E-02
CGA:  56    -0.222412301484E+03   -0.81536E-01   -0.81617E-01  8320   0.656E+00 0.297E-01
CGA:  57    -0.222447755336E+03   -0.35454E-01   -0.35261E-01  8320   0.422E+00-0.929E-03
CGA:  58    -0.222494541757E+03   -0.46786E-01   -0.47243E-01  8320   0.784E+00-0.948E-02
CGA:  59    -0.222544812727E+03   -0.50271E-01   -0.50543E-01  8320   0.554E+00 0.105E-01
CGA:  60    -0.222575700703E+03   -0.30888E-01   -0.30305E-01  8320   0.414E+00 0.221E-04
SDA:  61    -0.222604531088E+03   -0.28830E-01   -0.28804E-01  8320   0.451E+00-0.163E-02
CGA:  62    -0.222641800654E+03   -0.37270E-01   -0.37162E-01  8320   0.255E+00 0.917E-02
CGA:  63    -0.222705016218E+03   -0.63216E-01   -0.63490E-01  8320   0.412E+00-0.282E-02
CGA:  64    -0.222752669185E+03   -0.47653E-01   -0.48338E-01  8320   0.379E+00-0.179E-01
CGA:  65    -0.222783598138E+03   -0.30929E-01   -0.30663E-01  8320   0.509E+00-0.856E-01
CGA:  66    -0.222809417334E+03   -0.25819E-01   -0.24747E-01  8320   0.513E+00-0.270E-02
CGA:  67    -0.222820832015E+03   -0.11415E-01   -0.92561E-02  8320   0.254E+00 0.100E+00
CGA:  68    -0.222830521496E+03   -0.96895E-02   -0.91844E-02  8320   0.296E+00 0.106E-01
CGA:  69    -0.222838554030E+03   -0.80325E-02   -0.85870E-02  8320   0.291E+00-0.154E-01
CGA:  70    -0.222845175101E+03   -0.66211E-02   -0.62575E-02  8320   0.253E+00 0.193E-01
CGA:  71    -0.222852611449E+03   -0.74363E-02   -0.59889E-02  8320   0.259E+00 0.553E-01
CGA:  72    -0.222859947014E+03   -0.73356E-02   -0.61310E-02  8320   0.226E+00 0.509E-01
CGA:  73    -0.222865361948E+03   -0.54149E-02   -0.50382E-02  8320   0.250E+00 0.177E-01
CGA:  74    -0.222871859363E+03   -0.64974E-02   -0.66319E-02  8320   0.406E+00-0.633E-03
CGA:  75    -0.222878745884E+03   -0.68865E-02   -0.55612E-02  8320   0.338E+00 0.908E-01
CGA:  76    -0.222884631439E+03   -0.58856E-02   -0.52503E-02  8320   0.222E+00 0.440E-01
CGA:  77    -0.222888846205E+03   -0.42148E-02   -0.40475E-02  8320   0.275E+00 0.833E-02
CGA:  78    -0.222893331197E+03   -0.44850E-02   -0.40066E-02  8320   0.339E+00 0.276E-01
CGA:  79    -0.222897651548E+03   -0.43204E-02   -0.39062E-02  8320   0.293E+00 0.317E-01
CGA:  80    -0.222900753801E+03   -0.31023E-02   -0.29623E-02  8320   0.244E+00 0.128E-01
CGA:  81    -0.222903224723E+03   -0.24709E-02   -0.24322E-02  8320   0.252E+00 0.408E-02
CGA:  82    -0.222905880867E+03   -0.26561E-02   -0.27354E-02  8320   0.295E+00-0.458E-02
CGA:  83    -0.222908851752E+03   -0.29709E-02   -0.32810E-02  8320   0.290E+00-0.201E-01
CGA:  84    -0.222911364431E+03   -0.25127E-02   -0.28159E-02  8320   0.202E+00-0.229E-01
CGA:  85    -0.222913201591E+03   -0.18372E-02   -0.19915E-02  8320   0.154E+00-0.115E-01
CGA:  86    -0.222915164018E+03   -0.19624E-02   -0.20488E-02  8320   0.176E+00-0.416E-02
CGA:  87    -0.222917917017E+03   -0.27530E-02   -0.27120E-02  8320   0.205E+00 0.213E-02
CGA:  88    -0.222920761891E+03   -0.28449E-02   -0.27483E-02  8320   0.174E+00 0.547E-02
CGA:  89    -0.222922943274E+03   -0.21814E-02   -0.20936E-02  8320   0.132E+00 0.607E-02
CGA:  90    -0.222924612137E+03   -0.16689E-02   -0.16094E-02  8320   0.112E+00 0.398E-02
CGA:  91    -0.222926055020E+03   -0.14429E-02   -0.14078E-02  8320   0.108E+00 0.214E-02
SDA:  92    -0.222927463005E+03   -0.14080E-02   -0.13827E-02  8320   0.120E+00 0.136E-02
CGA:  93    -0.222932867695E+03   -0.54047E-02   -0.53900E-02  8320   0.454E-01 0.946E-03
CGA:  94    -0.222936101883E+03   -0.32342E-02   -0.32572E-02  8320   0.314E-01-0.633E-03
CGA:  95    -0.222938805827E+03   -0.27039E-02   -0.27044E-02  8320   0.680E-01 0.176E-04
CGA:  96    -0.222942512023E+03   -0.37062E-02   -0.38212E-02  8320   0.317E-01-0.576E-02
CGA:  97    -0.222945763950E+03   -0.32519E-02   -0.31894E-02  8320   0.241E-01 0.590E-03
CGA:  98    -0.222947133246E+03   -0.13693E-02   -0.14025E-02  8320   0.422E-01-0.169E-02
CGA:  99    -0.222949263141E+03   -0.21299E-02   -0.21337E-02  8320   0.108E-01-0.343E-03
CGA: 100    -0.222949781197E+03   -0.51806E-03   -0.51884E-03  8320   0.131E-01-0.118E-03
CGA: 101    -0.222950196196E+03   -0.41500E-03   -0.41387E-03  8320   0.421E-02-0.373E-04
CGA: 102    -0.222950551166E+03   -0.35497E-03   -0.35469E-03  8320   0.796E-02 0.242E-06
CGA: 103    -0.222950760877E+03   -0.20971E-03   -0.20939E-03  8320   0.250E-02 0.978E-05
CGA: 104    -0.222950968292E+03   -0.20741E-03   -0.20684E-03  8320   0.471E-02 0.109E-04
CGA: 105    -0.222951152075E+03   -0.18378E-03   -0.18462E-03  8320   0.388E-02 0.416E-04
CGA: 106    -0.222951315055E+03   -0.16298E-03   -0.16312E-03  8320   0.205E-02 0.171E-04
CGA: 107    -0.222951474061E+03   -0.15901E-03   -0.16795E-03  8320   0.475E-02-0.270E-03
CGA: 108    -0.222951591118E+03   -0.11706E-03   -0.11819E-03  8320   0.333E-02 0.994E-04
CGA: 109    -0.222951804509E+03   -0.21339E-03   -0.19742E-03  8320   0.451E-02 0.821E-03
CGA: 110    -0.222951893214E+03   -0.88705E-04   -0.53663E-04  8320   0.350E-02 0.340E-02
CGA: 111    -0.222952115359E+03   -0.22215E-03   -0.22185E-03  8320   0.312E-02 0.589E-05
CGA: 112    -0.222952341928E+03   -0.22657E-03   -0.23219E-03  8320   0.613E-02-0.183E-03
CGA: 113    -0.222952621044E+03   -0.27912E-03   -0.27861E-03  8320   0.746E-02 0.369E-03
CGA: 114    -0.222950129976E+03    0.24911E-02   -0.10989E-02  8320   0.309E+00-0.627E-01
CGA: 115    -0.222954066540E+03   -0.39366E-02   -0.40632E-02  8320   0.111E-01-0.845E-02
CGA: 116    -0.222954829012E+03   -0.76247E-03   -0.76176E-03  8320   0.855E-02 0.228E-04
CGA: 117    -0.222955113770E+03   -0.28476E-03   -0.28612E-03  8320   0.100E-01 0.610E-05
CGA: 118    -0.222956093284E+03   -0.97951E-03   -0.11447E-02  8320   0.265E-01-0.287E-02
CGA: 119    -0.222956833588E+03   -0.74030E-03   -0.77787E-03  8320   0.194E-01 0.757E-03
CGA: 120    -0.222959348427E+03   -0.25148E-02   -0.26581E-02  8320   0.102E+00-0.572E-02
CGA: 121    -0.222959980435E+03   -0.63201E-03   -0.37549E-03  8320   0.122E+00 0.474E-01
CGA: 122    -0.222962794128E+03   -0.28137E-02   -0.18483E-02  8320   0.113E+00 0.875E-01
CGA: 123    -0.222964911958E+03   -0.21178E-02   -0.20788E-02  8320   0.538E-01 0.148E-02
CGA: 124    -0.222968269429E+03   -0.33575E-02   -0.33665E-02  8320   0.606E-01-0.561E-03
CGA: 125    -0.222972542244E+03   -0.42728E-02   -0.42472E-02  8320   0.296E-01 0.956E-03
CGA: 126    -0.222974779462E+03   -0.22372E-02   -0.22135E-02  8320   0.551E-01 0.834E-03
CGA: 127    -0.222976029574E+03   -0.12501E-02   -0.11860E-02  8320   0.214E-01 0.195E-02
CGA: 128    -0.222979218813E+03   -0.31892E-02   -0.34106E-02  8320   0.629E-01-0.267E-02
CGA: 129    -0.222980496419E+03   -0.12776E-02   -0.14552E-02  8320   0.392E-01-0.350E-02
CGA: 130    -0.222982325043E+03   -0.18286E-02   -0.18223E-02  8320   0.345E-01-0.464E-03
CGA: 131    -0.222984652747E+03   -0.23277E-02   -0.23082E-02  8320   0.197E-01 0.988E-03
CGA: 132    -0.222985699615E+03   -0.10469E-02   -0.10438E-02  8320   0.373E-01-0.319E-03
CGA: 133    -0.222986911849E+03   -0.12122E-02   -0.12237E-02  8320   0.159E-01-0.432E-04
CGA: 134    -0.222987679959E+03   -0.76811E-03   -0.76951E-03  8320   0.119E-01 0.905E-04
CGA: 135    -0.222988256442E+03   -0.57648E-03   -0.57633E-03  8320   0.172E-01-0.797E-05
CGA: 136    -0.222988699360E+03   -0.44292E-03   -0.44909E-03  8320   0.703E-02-0.129E-03
CGA: 137    -0.222989666672E+03   -0.96731E-03   -0.95242E-03  8320   0.114E-01 0.381E-04
CGA: 138    -0.222990136539E+03   -0.46987E-03   -0.43130E-03  8320   0.151E-01 0.140E-03
CGA: 139    -0.222990787464E+03   -0.65092E-03   -0.65971E-03  8320   0.222E-01 0.582E-03
CGA: 140    -0.222991541428E+03   -0.75396E-03   -0.51002E-03  8320   0.201E-01 0.870E-02
CGA: 141    -0.222992134665E+03   -0.59324E-03   -0.51049E-03  8320   0.121E-01 0.378E-02
CGA: 142    -0.222992421408E+03   -0.28674E-03   -0.31788E-03  8320   0.124E-01-0.759E-03
CGA: 143    -0.222992832124E+03   -0.41072E-03   -0.38536E-03  8320   0.132E-01 0.206E-03
CGA: 144    -0.222993092376E+03   -0.26025E-03   -0.20968E-03  8320   0.122E-01 0.269E-02
CGA: 145    -0.222993409657E+03   -0.31728E-03   -0.29764E-03  8320   0.142E-01 0.101E-02
CGA: 146    -0.222993820809E+03   -0.41115E-03   -0.36166E-03  8320   0.226E-01 0.254E-02
CGA: 147    -0.222994044380E+03   -0.22357E-03   -0.12176E-03  8320   0.239E-01 0.220E-01
CGA: 148    -0.222994840104E+03   -0.79572E-03   -0.79140E-03  8320   0.242E-01-0.788E-04
CGA: 149    -0.222995638731E+03   -0.79863E-03   -0.79714E-03  8320   0.277E-01-0.290E-04
CGA: 150    -0.222998277108E+03   -0.26384E-02   -0.26377E-02  8320   0.212E-01 0.217E-04
CGA: 151    -0.223000967860E+03   -0.26908E-02   -0.28200E-02  8320   0.302E-01-0.190E-02
CGA: 152    -0.223001560643E+03   -0.59278E-03   -0.61714E-03  8320   0.253E-01-0.663E-03
CGA: 153    -0.223002888108E+03   -0.13275E-02   -0.13475E-02  8320   0.184E-01-0.193E-02
CGA: 154    -0.223003556018E+03   -0.66791E-03   -0.68745E-03  8320   0.293E-01 0.787E-03
CGA: 155    -0.223004758322E+03   -0.12023E-02   -0.10968E-02  8320   0.290E-01-0.145E-02
CGA: 156    -0.223005815290E+03   -0.10570E-02   -0.10899E-02  8320   0.768E-02 0.146E-02
CGA: 157    -0.223006987457E+03   -0.11722E-02   -0.11984E-02  8320   0.945E-02-0.590E-03
CGA: 158    -0.223007292215E+03   -0.30476E-03   -0.32384E-03  8320   0.112E-01 0.157E-03
CGA: 159    -0.223007661344E+03   -0.36913E-03   -0.34872E-03  8320   0.706E-02 0.182E-03
CGA: 160    -0.223008159042E+03   -0.49770E-03   -0.47785E-03  8320   0.790E-02 0.878E-03
CGA: 161    -0.223008523152E+03   -0.36411E-03   -0.35136E-03  8320   0.154E-01-0.228E-03
CGA: 162    -0.223009159588E+03   -0.63644E-03   -0.63354E-03  8320   0.175E-01-0.130E-04
CGA: 163    -0.223009432364E+03   -0.27278E-03   -0.34109E-03  8320   0.616E-02-0.212E-02
CGA: 164    -0.223009909612E+03   -0.47725E-03   -0.49674E-03  8320   0.529E-02-0.443E-03
CGA: 165    -0.223010085497E+03   -0.17589E-03   -0.17797E-03  8320   0.567E-02 0.172E-04
CGA: 166    -0.223010335445E+03   -0.24995E-03   -0.24919E-03  8320   0.290E-02-0.533E-04
CGA: 167    -0.223010455879E+03   -0.12043E-03   -0.12053E-03  8320   0.276E-02-0.414E-05
CGA: 168    -0.223010571287E+03   -0.11541E-03   -0.11540E-03  8320   0.260E-02-0.116E-04
CGA: 169    -0.223010707544E+03   -0.13626E-03   -0.13635E-03  8320   0.183E-02-0.218E-04
CGA: 170    -0.223010765395E+03   -0.57851E-04   -0.57915E-04  8320   0.121E-02-0.710E-05
CGA: 171    -0.223010813583E+03   -0.48188E-04   -0.48146E-04  8320   0.518E-03-0.406E-05
CGA: 172    -0.223010838116E+03   -0.24533E-04   -0.24534E-04  8320   0.809E-03 0.762E-06
CGA: 173    -0.223010877770E+03   -0.39654E-04   -0.39653E-04  8320   0.426E-03 0.143E-05
CGA: 174    -0.223010897500E+03   -0.19730E-04   -0.19733E-04  8320   0.562E-03 0.219E-05
CGA: 175    -0.223010920575E+03   -0.23075E-04   -0.23117E-04  8320   0.285E-03 0.430E-05
CGA: 176    -0.223010933873E+03   -0.13299E-04   -0.13299E-04  8320   0.290E-03 0.678E-06
CGA: 177    -0.223010945336E+03   -0.11462E-04   -0.11482E-04  8320   0.245E-03 0.791E-06
SDA: 178    -0.223010958892E+03   -0.13557E-04   -0.13620E-04  8320   0.251E-03-0.565E-05
CGA: 179    -0.223010963966E+03   -0.50735E-05   -0.50546E-05  8320   0.135E-03-0.532E-06
   1 F= -.22301096E+03 E0= -.22299267E+03  d E =-.223011E+03  mag=     5.4296
       N       E                     dE             d eps       ncg     rms          ort
SDA:   1    -0.223135228344E+03   -0.12427E+00    0.00000E+00  8320   0.174E+00 0.000E+00
CGA:   2    -0.223138748931E+03   -0.35206E-02   -0.36952E-02  8320   0.523E-01-0.483E-02
CGA:   3    -0.223139824338E+03   -0.10754E-02   -0.10730E-02  8320   0.154E-01 0.634E-04
CGA:   4    -0.223141316948E+03   -0.14926E-02   -0.14927E-02  8320   0.171E-01 0.846E-06
CGA:   5    -0.223142672854E+03   -0.13559E-02   -0.13539E-02  8320   0.772E-02 0.590E-04
CGA:   6    -0.223142811999E+03   -0.13915E-03   -0.13857E-03  8320   0.311E-02 0.238E-04
CGA:   7    -0.223143107097E+03   -0.29510E-03   -0.29545E-03  8320   0.355E-02-0.682E-05
CGA:   8    -0.223143302750E+03   -0.19565E-03   -0.19568E-03  8320   0.105E-02-0.605E-05
CGA:   9    -0.223143366550E+03   -0.63800E-04   -0.63854E-04  8320   0.393E-03-0.446E-05
CGA:  10    -0.223143381943E+03   -0.15393E-04   -0.15375E-04  8320   0.617E-03-0.162E-05
CGA:  11    -0.223143407314E+03   -0.25371E-04   -0.25352E-04  8320   0.198E-03-0.278E-05
CGA:  12    -0.223143421585E+03   -0.14271E-04   -0.14272E-04  8320   0.129E-03 0.492E-07
CGA:  13    -0.223143428110E+03   -0.65246E-05   -0.65248E-05  8320   0.859E-04 0.319E-06
   2 F= -.22314343E+03 E0= -.22312497E+03  d E =-.132464E+00  mag=     5.4265
       N       E                     dE             d eps       ncg     rms          ort
SDA:   1    -0.223041763864E+03    0.10166E+00    0.00000E+00  8320   0.812E+01 0.000E+00
CGA:   2    -0.223800540451E+03   -0.75878E+00   -0.75402E+00  8320   0.349E+02 0.188E+00
CGA:   3    -0.224994677309E+03   -0.11941E+01   -0.12426E+01  8320   0.550E+01-0.853E-02
CGA:   4    -0.225243316500E+03   -0.24864E+00   -0.24176E+00  8320   0.257E+01-0.356E+00
CGA:   5    -0.225531600067E+03   -0.28828E+00   -0.28504E+00  8320   0.169E+01 0.480E-01
CGA:   6    -0.225637489523E+03   -0.10589E+00   -0.10693E+00  8320   0.216E+01-0.823E-01
CGA:   7    -0.225673578687E+03   -0.36089E-01   -0.37619E-01  8320   0.392E+00-0.660E-01
CGA:   8    -0.225701736285E+03   -0.28158E-01   -0.27816E-01  8320   0.347E+00 0.125E-01
CGA:   9    -0.225709631514E+03   -0.78952E-02   -0.78612E-02  8320   0.241E+00 0.789E-03
CGA:  10    -0.225724688655E+03   -0.15057E-01   -0.14995E-01  8320   0.163E+00 0.400E-02
CGA:  11    -0.225731360384E+03   -0.66717E-02   -0.66764E-02  8320   0.103E+00 0.774E-04
CGA:  12    -0.225733558547E+03   -0.21982E-02   -0.21223E-02  8320   0.519E-01 0.247E-02
CGA:  13    -0.225737890394E+03   -0.43318E-02   -0.43254E-02  8320   0.435E-01 0.187E-03
CGA:  14    -0.225739163376E+03   -0.12730E-02   -0.12825E-02  8320   0.525E-01-0.917E-04
CGA:  15    -0.225741646870E+03   -0.24835E-02   -0.24840E-02  8320   0.179E-01 0.101E-03
CGA:  16    -0.225742640737E+03   -0.99387E-03   -0.99364E-03  8320   0.394E-01 0.390E-04
CGA:  17    -0.225743709039E+03   -0.10683E-02   -0.10713E-02  8320   0.107E-01 0.141E-05
CGA:  18    -0.225744402778E+03   -0.69374E-03   -0.69322E-03  8320   0.135E-01 0.316E-04
CGA:  19    -0.225744782955E+03   -0.38018E-03   -0.38032E-03  8320   0.117E-01 0.132E-04
CGA:  20    -0.225745255499E+03   -0.47254E-03   -0.47358E-03  8320   0.485E-02 0.427E-04
CGA:  21    -0.225745573693E+03   -0.31819E-03   -0.31783E-03  8320   0.911E-02 0.194E-04
CGA:  22    -0.225745766230E+03   -0.19254E-03   -0.19136E-03  8320   0.236E-02 0.526E-04
CGA:  23    -0.225745963282E+03   -0.19705E-03   -0.19694E-03  8320   0.264E-02 0.348E-05
CGA:  24    -0.225746022342E+03   -0.59060E-04   -0.59266E-04  8320   0.190E-02-0.869E-06
CGA:  25    -0.225746159126E+03   -0.13678E-03   -0.13650E-03  8320   0.114E-02 0.119E-04
CGA:  26    -0.225746201589E+03   -0.42462E-04   -0.42509E-04  8320   0.151E-02 0.340E-05
CGA:  27    -0.225746249535E+03   -0.47947E-04   -0.48056E-04  8320   0.699E-03 0.324E-05
CGA:  28    -0.225746287831E+03   -0.38296E-04   -0.38275E-04  8320   0.521E-03 0.313E-05
CGA:  29    -0.225746302663E+03   -0.14832E-04   -0.14853E-04  8320   0.556E-03 0.143E-05
CGA:  30    -0.225746331666E+03   -0.29003E-04   -0.28991E-04  8320   0.167E-03 0.233E-05
CGA:  31    -0.225746340420E+03   -0.87546E-05   -0.87520E-05  8320   0.398E-03 0.380E-06
SDA:  32    -0.225746354135E+03   -0.13715E-04   -0.13723E-04  8320   0.110E-03 0.749E-06
CGA:  33    -0.225746359520E+03   -0.53850E-05   -0.53859E-05  8320   0.408E-04-0.628E-06
   3 F= -.22574636E+03 E0= -.22572830E+03  d E =-.260293E+01  mag=     5.4126
       N       E                     dE             d eps       ncg     rms          ort
SDA:   1    -0.219670433877E+03    0.60759E+01    0.00000E+00  8320   0.237E+02 0.000E+00
CGA:   2    -0.225011904677E+03   -0.53415E+01   -0.50958E+01  8320   0.424E+02 0.172E+01
CGA:   3    -0.226076297104E+03   -0.10644E+01   -0.94990E+00  8320   0.122E+02-0.177E+01
CGA:   4    -0.226993554108E+03   -0.91726E+00   -0.91394E+00  8320   0.808E+01 0.721E-01
CGA:   5    -0.227595969451E+03   -0.60242E+00   -0.58141E+00  8320   0.853E+01 0.997E+00
CGA:   6    -0.227827529942E+03   -0.23156E+00   -0.20560E+00  8320   0.246E+01 0.776E+00
CGA:   7    -0.227969476014E+03   -0.14195E+00   -0.14179E+00  8320   0.175E+01-0.226E-01
CGA:   8    -0.228050987374E+03   -0.81511E-01   -0.82418E-01  8320   0.273E+01 0.319E-01
CGA:   9    -0.228122440338E+03   -0.71453E-01   -0.70672E-01  8320   0.480E+00 0.198E-01
CGA:  10    -0.228158743683E+03   -0.36303E-01   -0.36487E-01  8320   0.497E+00-0.674E-02
CGA:  11    -0.228169406699E+03   -0.10663E-01   -0.11052E-01  8320   0.301E+00-0.115E-01
CGA:  12    -0.228191486498E+03   -0.22080E-01   -0.22094E-01  8320   0.191E+00-0.552E-03
CGA:  13    -0.228204148227E+03   -0.12662E-01   -0.12736E-01  8320   0.121E+00-0.415E-02
CGA:  14    -0.228208375364E+03   -0.42271E-02   -0.42558E-02  8320   0.137E+00-0.136E-04
CGA:  15    -0.228213485881E+03   -0.51105E-02   -0.51182E-02  8320   0.562E-01 0.717E-04
CGA:  16    -0.228219261143E+03   -0.57753E-02   -0.57741E-02  8320   0.347E-01 0.232E-04
CGA:  17    -0.228222553093E+03   -0.32920E-02   -0.32857E-02  8320   0.252E-01 0.155E-03
CGA:  18    -0.228223610984E+03   -0.10579E-02   -0.10587E-02  8320   0.309E-01 0.258E-04
CGA:  19    -0.228224676717E+03   -0.10657E-02   -0.10576E-02  8320   0.179E-01 0.928E-04
CGA:  20    -0.228225943165E+03   -0.12664E-02   -0.12638E-02  8320   0.649E-02 0.139E-03
CGA:  21    -0.228226753739E+03   -0.81057E-03   -0.81040E-03  8320   0.520E-02 0.133E-05
CGA:  22    -0.228227128014E+03   -0.37427E-03   -0.37364E-03  8320   0.438E-02 0.400E-04
CGA:  23    -0.228227267216E+03   -0.13920E-03   -0.13910E-03  8320   0.407E-02 0.934E-05
CGA:  24    -0.228227453798E+03   -0.18658E-03   -0.18670E-03  8320   0.240E-02 0.856E-05
CGA:  25    -0.228227685968E+03   -0.23217E-03   -0.23179E-03  8320   0.942E-03 0.101E-04
CGA:  26    -0.228227797788E+03   -0.11182E-03   -0.11151E-03  8320   0.934E-03 0.538E-05
CGA:  27    -0.228227859431E+03   -0.61644E-04   -0.61638E-04  8320   0.754E-03 0.212E-05
CGA:  28    -0.228227889639E+03   -0.30208E-04   -0.30232E-04  8320   0.104E-02 0.331E-06
CGA:  29    -0.228227932404E+03   -0.42765E-04   -0.42707E-04  8320   0.260E-03 0.307E-06
CGA:  30    -0.228227960238E+03   -0.27834E-04   -0.28066E-04  8320   0.224E-03-0.502E-05
CGA:  31    -0.228227977331E+03   -0.17093E-04   -0.17144E-04  8320   0.249E-03-0.348E-05
SDA:  32    -0.228227983973E+03   -0.66427E-05   -0.65983E-05  8320   0.161E-03-0.150E-05
   4 F= -.22822798E+03 E0= -.22821066E+03  d E =-.248162E+01  mag=     5.3851
       N       E                     dE             d eps       ncg     rms          ort
SDA:   1    -0.221287637126E+03    0.69403E+01    0.00000E+00  8320   0.222E+02 0.000E+00
CGA:   2    -0.225885113895E+03   -0.45975E+01   -0.45327E+01  8320   0.391E+02 0.541E+00
CGA:   3    -0.226821064829E+03   -0.93595E+00   -0.11247E+01  8320   0.373E+02-0.721E+01
CGA:   4    -0.227639760492E+03   -0.81870E+00   -0.94286E+00  8320   0.187E+02-0.208E+01
CGA:   5    -0.228064972608E+03   -0.42521E+00   -0.42129E+00  8320   0.102E+02 0.248E+00
CGA:   6    -0.228567493292E+03   -0.50252E+00   -0.39835E+00  8320   0.464E+01 0.575E+00
CGA:   7    -0.228988855464E+03   -0.42136E+00   -0.42015E+00  8320   0.223E+01 0.307E-01
CGA:   8    -0.229068063355E+03   -0.79208E-01   -0.81872E-01  8320   0.242E+01-0.242E-01
CGA:   9    -0.229141701249E+03   -0.73638E-01   -0.71546E-01  8320   0.537E+00 0.355E-01
CGA:  10    -0.229199874196E+03   -0.58173E-01   -0.58229E-01  8320   0.586E+00-0.940E-03
CGA:  11    -0.229211624820E+03   -0.11751E-01   -0.12571E-01  8320   0.328E+00-0.280E-01
CGA:  12    -0.229232406086E+03   -0.20781E-01   -0.20774E-01  8320   0.127E+00 0.615E-03
CGA:  13    -0.229243398799E+03   -0.10993E-01   -0.10983E-01  8320   0.125E+00 0.310E-03
CGA:  14    -0.229251753992E+03   -0.83552E-02   -0.83467E-02  8320   0.597E-01 0.937E-03
CGA:  15    -0.229253956147E+03   -0.22022E-02   -0.22048E-02  8320   0.768E-01 0.122E-05
CGA:  16    -0.229257410526E+03   -0.34544E-02   -0.34585E-02  8320   0.307E-01 0.729E-04
CGA:  17    -0.229260882589E+03   -0.34721E-02   -0.34625E-02  8320   0.120E-01 0.177E-03
CGA:  18    -0.229262630473E+03   -0.17479E-02   -0.17407E-02  8320   0.986E-02 0.907E-04
CGA:  19    -0.229263438032E+03   -0.80756E-03   -0.80724E-03  8320   0.178E-01 0.203E-04
CGA:  20    -0.229263844628E+03   -0.40660E-03   -0.40384E-03  8320   0.522E-02 0.116E-03
CGA:  21    -0.229264412914E+03   -0.56829E-03   -0.56705E-03  8320   0.370E-02 0.270E-04
CGA:  22    -0.229264722542E+03   -0.30963E-03   -0.30937E-03  8320   0.297E-02 0.164E-04
CGA:  23    -0.229264880146E+03   -0.15760E-03   -0.15775E-03  8320   0.335E-02 0.737E-05
CGA:  24    -0.229264975911E+03   -0.95765E-04   -0.96511E-04  8320   0.208E-02-0.105E-04
CGA:  25    -0.229265158795E+03   -0.18288E-03   -0.18275E-03  8320   0.771E-03 0.547E-05
CGA:  26    -0.229265248481E+03   -0.89687E-04   -0.89363E-04  8320   0.594E-03 0.640E-05
CGA:  27    -0.229265335278E+03   -0.86797E-04   -0.86592E-04  8320   0.398E-03 0.258E-05
CGA:  28    -0.229265353772E+03   -0.18493E-04   -0.18486E-04  8320   0.685E-03-0.257E-06
CGA:  29    -0.229265382247E+03   -0.28475E-04   -0.28449E-04  8320   0.228E-03-0.139E-05
CGA:  30    -0.229265408577E+03   -0.26330E-04   -0.26471E-04  8320   0.186E-03-0.302E-05
CGA:  31    -0.229265420866E+03   -0.12289E-04   -0.12280E-04  8320   0.112E-03-0.170E-05
SDA:  32    -0.229265431118E+03   -0.10252E-04   -0.10278E-04  8320   0.102E-03-0.129E-05
CGA:  33    -0.229265433768E+03   -0.26503E-05   -0.26427E-05  8320   0.667E-04-0.420E-06
   5 F= -.22926543E+03 E0= -.22924862E+03  d E =-.103745E+01  mag=     5.3572
       N       E                     dE             d eps       ncg     rms          ort
SDA:   1    -0.213913406625E+03    0.15352E+02    0.00000E+00  8320   0.282E+03 0.000E+00
CGA:   2    -0.216911192542E+03   -0.29978E+01   -0.90206E+01  8320   0.131E+03-0.350E+02
CGA:   3    -0.219433771647E+03   -0.25226E+01   -0.41573E+01  8320   0.172E+03-0.400E+02
CGA:   4    -0.222474439482E+03   -0.30407E+01   -0.27319E+01  8320   0.120E+03-0.687E+01
CGA:   5    -0.224591788460E+03   -0.21173E+01   -0.20408E+01  8320   0.509E+02-0.239E+02
CGA:   6    -0.226913972296E+03   -0.23222E+01   -0.20446E+01  8320   0.275E+02-0.534E+01
CGA:   7    -0.227950279498E+03   -0.10363E+01   -0.10704E+01  8320   0.280E+02 0.235E+00
CGA:   8    -0.228745225701E+03   -0.79495E+00   -0.10189E+01  8320   0.242E+02-0.442E+00
CGA:   9    -0.229221879444E+03   -0.47665E+00   -0.44800E+00  8320   0.441E+01 0.722E+00
CGA:  10    -0.229484983781E+03   -0.26310E+00   -0.26269E+00  8320   0.399E+01 0.173E+00
CGA:  11    -0.229621850565E+03   -0.13687E+00   -0.12133E+00  8320   0.258E+01 0.266E+00
CGA:  12    -0.229736115043E+03   -0.11426E+00   -0.11936E+00  8320   0.299E+01 0.103E+00
CGA:  13    -0.229847762726E+03   -0.11165E+00   -0.11549E+00  8320   0.568E+00 0.133E-01
CGA:  14    -0.229878545722E+03   -0.30783E-01   -0.30780E-01  8320   0.726E+00 0.856E-02
CGA:  15    -0.229895907588E+03   -0.17362E-01   -0.17305E-01  8320   0.411E+00 0.929E-03
CGA:  16    -0.229916813063E+03   -0.20905E-01   -0.20955E-01  8320   0.397E+00 0.182E-01
CGA:  17    -0.229941439176E+03   -0.24626E-01   -0.24415E-01  8320   0.199E+00 0.193E-01
CGA:  18    -0.229946238135E+03   -0.47990E-02   -0.48820E-02  8320   0.144E+00-0.211E-02
CGA:  19    -0.229955120536E+03   -0.88824E-02   -0.88643E-02  8320   0.106E+00 0.113E-02
CGA:  20    -0.229959298924E+03   -0.41784E-02   -0.42182E-02  8320   0.129E+00 0.729E-03
CGA:  21    -0.229964060243E+03   -0.47613E-02   -0.47815E-02  8320   0.787E-01 0.217E-03
CGA:  22    -0.229967271830E+03   -0.32116E-02   -0.32177E-02  8320   0.538E-01 0.230E-03
CGA:  23    -0.229968831562E+03   -0.15597E-02   -0.15767E-02  8320   0.386E-01-0.182E-03
CGA:  24    -0.229971529568E+03   -0.26980E-02   -0.26735E-02  8320   0.400E-01 0.838E-03
CGA:  25    -0.229972531078E+03   -0.10015E-02   -0.10172E-02  8320   0.193E-01-0.297E-03
CGA:  26    -0.229973694509E+03   -0.11634E-02   -0.11638E-02  8320   0.221E-01-0.161E-04
CGA:  27    -0.229974318897E+03   -0.62439E-03   -0.63883E-03  8320   0.113E-01-0.123E-03
CGA:  28    -0.229975032966E+03   -0.71407E-03   -0.71843E-03  8320   0.181E-01-0.204E-03
CGA:  29    -0.229975589490E+03   -0.55652E-03   -0.56913E-03  8320   0.638E-02-0.422E-06
CGA:  30    -0.229975923259E+03   -0.33377E-03   -0.33426E-03  8320   0.110E-01-0.626E-04
CGA:  31    -0.229976432646E+03   -0.50939E-03   -0.51071E-03  8320   0.444E-02 0.502E-03
SDA:  32    -0.229976640776E+03   -0.20813E-03   -0.20772E-03  8320   0.671E-02-0.473E-04
CGA:  33    -0.229976738312E+03   -0.97536E-04   -0.97428E-04  8320   0.136E-02 0.632E-05
CGA:  34    -0.229976961163E+03   -0.22285E-03   -0.22515E-03  8320   0.299E-02-0.234E-04
CGA:  35    -0.229977405674E+03   -0.44451E-03   -0.44100E-03  8320   0.207E-02 0.293E-04
CGA:  36    -0.229977518790E+03   -0.11312E-03   -0.11326E-03  8320   0.173E-02 0.169E-04
CGA:  37    -0.229977586946E+03   -0.68157E-04   -0.67601E-04  8320   0.225E-02-0.428E-05
CGA:  38    -0.229977697356E+03   -0.11041E-03   -0.11070E-03  8320   0.876E-03 0.126E-04
CGA:  39    -0.229977811069E+03   -0.11371E-03   -0.11151E-03  8320   0.138E-02 0.317E-04
CGA:  40    -0.229977848523E+03   -0.37455E-04   -0.36913E-04  8320   0.104E-02 0.128E-04
CGA:  41    -0.229977912521E+03   -0.63998E-04   -0.63952E-04  8320   0.499E-03 0.799E-05
CGA:  42    -0.229977939478E+03   -0.26957E-04   -0.26982E-04  8320   0.662E-03 0.210E-05
CGA:  43    -0.229977958255E+03   -0.18777E-04   -0.18634E-04  8320   0.386E-03 0.929E-06
CGA:  44    -0.229977984312E+03   -0.26057E-04   -0.26095E-04  8320   0.263E-03-0.323E-05
CGA:  45    -0.229977997135E+03   -0.12823E-04   -0.12825E-04  8320   0.446E-03-0.164E-05
CGA:  46    -0.229978010866E+03   -0.13731E-04   -0.13620E-04  8320   0.927E-04-0.226E-05
CGA:  47    -0.229978019422E+03   -0.85566E-05   -0.85458E-05  8320   0.148E-03 0.273E-06
   6 F= -.22997802E+03 E0= -.22996130E+03  d E =-.712586E+00  mag=     5.3239
       N       E                     dE             d eps       ncg     rms          ort
SDA:   1    -0.192069722502E+03    0.37908E+02    0.00000E+00  8320   0.208E+04 0.000E+00
CGA:   2    -0.207766916146E+03   -0.15697E+02   -0.52009E+02  8320   0.294E+03-0.200E+03
CGA:   3    -0.213795137689E+03   -0.60282E+01   -0.80238E+01  8320   0.148E+03-0.222E+02
CGA:   4    -0.218355780490E+03   -0.45606E+01   -0.41537E+01  8320   0.672E+02 0.809E+01
CGA:   5    -0.220378152985E+03   -0.20224E+01   -0.21767E+01  8320   0.141E+03-0.144E+01
CGA:   6    -0.223619816964E+03   -0.32417E+01   -0.26159E+01  8320   0.785E+02 0.504E+01
CGA:   7    -0.225377634506E+03   -0.17578E+01   -0.21101E+01  8320   0.132E+03-0.239E+01
CGA:   8    -0.226822762536E+03   -0.14451E+01   -0.15424E+01  8320   0.107E+03-0.138E+02
CGA:   9    -0.227687371625E+03   -0.86461E+00   -0.14133E+01  8320   0.973E+02-0.409E+02
CGA:  10    -0.228140073380E+03   -0.45270E+00   -0.48863E+00  8320   0.645E+02-0.249E+01
CGA:  11    -0.228578846669E+03   -0.43877E+00   -0.88663E+00  8320   0.449E+02-0.266E+02
CGA:  12    -0.228816740084E+03   -0.23789E+00   -0.24161E+00  8320   0.304E+02-0.288E+00
CGA:  13    -0.229129781250E+03   -0.31304E+00   -0.26624E+00  8320   0.163E+02 0.460E+01
CGA:  14    -0.229311173674E+03   -0.18139E+00   -0.14940E+00  8320   0.102E+02 0.340E+01
CGA:  15    -0.229440676276E+03   -0.12950E+00   -0.12542E+00  8320   0.105E+02 0.202E+00
CGA:  16    -0.229554010157E+03   -0.11333E+00   -0.11400E+00  8320   0.135E+02-0.674E-01
CGA:  17    -0.229676110018E+03   -0.12210E+00   -0.10708E+00  8320   0.146E+02 0.172E+01
CGA:  18    -0.229837701250E+03   -0.16159E+00   -0.17739E+00  8320   0.178E+02-0.130E+01
CGA:  19    -0.229965094252E+03   -0.12739E+00   -0.11491E+00  8320   0.146E+02 0.158E+01
CGA:  20    -0.230069285591E+03   -0.10419E+00   -0.93365E-01  8320   0.953E+01 0.146E+01
CGA:  21    -0.230139151910E+03   -0.69866E-01   -0.67054E-01  8320   0.810E+01 0.205E+00
CGA:  22    -0.230190663078E+03   -0.51511E-01   -0.55001E-01  8320   0.806E+01-0.555E+00
CGA:  23    -0.230233708188E+03   -0.43045E-01   -0.51908E-01  8320   0.682E+01-0.107E+01
CGA:  24    -0.230263003267E+03   -0.29295E-01   -0.26334E-01  8320   0.441E+01 0.582E+00
CGA:  25    -0.230286965135E+03   -0.23962E-01   -0.22804E-01  8320   0.310E+01 0.201E+00
CGA:  26    -0.230306005857E+03   -0.19041E-01   -0.21130E-01  8320   0.325E+01-0.262E+00
CGA:  27    -0.230323259674E+03   -0.17254E-01   -0.17954E-01  8320   0.274E+01-0.857E-01
CGA:  28    -0.230336606355E+03   -0.13347E-01   -0.12373E-01  8320   0.184E+01 0.186E+00
CGA:  29    -0.230347870832E+03   -0.11264E-01   -0.11355E-01  8320   0.186E+01-0.139E-01
CGA:  30    -0.230361510043E+03   -0.13639E-01   -0.14456E-01  8320   0.298E+01-0.705E-01
CGA:  31    -0.230384193616E+03   -0.22684E-01   -0.24398E-01  8320   0.382E+01-0.807E-01
SDA:  32    -0.230409390094E+03   -0.25196E-01   -0.25476E-01  8320   0.249E+01-0.238E-02
CGA:  33    -0.230446135090E+03   -0.36745E-01   -0.37229E-01  8320   0.466E+00 0.331E-01
CGA:  34    -0.230456241779E+03   -0.10107E-01   -0.10117E-01  8320   0.263E+00-0.232E-02
CGA:  35    -0.230479591294E+03   -0.23350E-01   -0.28333E-04  8320   0.616E+00-0.647E-01
CGA:  36    -0.230492587024E+03   -0.12996E-01   -0.12982E-01  8320   0.563E+00-0.743E-03
CGA:  37    -0.230514285611E+03   -0.21699E-01   -0.21538E-01  8320   0.940E-01 0.211E-01
CGA:  38    -0.230521194783E+03   -0.69092E-02   -0.68854E-02  8320   0.840E-01 0.648E-03
CGA:  39    -0.230523666521E+03   -0.24717E-02   -0.24772E-02  8320   0.959E-01 0.228E-03
CGA:  40    -0.230527398443E+03   -0.37319E-02   -0.37303E-02  8320   0.477E-01 0.274E-03
CGA:  41    -0.230530427624E+03   -0.30292E-02   -0.30337E-02  8320   0.407E-01-0.157E-03
CGA:  42    -0.230533205375E+03   -0.27778E-02   -0.27423E-02  8320   0.725E-01 0.111E-02
CGA:  43    -0.230534801899E+03   -0.15965E-02   -0.16174E-02  8320   0.343E-01-0.328E-03
CGA:  44    -0.230537213161E+03   -0.24113E-02   -0.23708E-02  8320   0.194E-01 0.120E-02
CGA:  45    -0.230538124502E+03   -0.91134E-03   -0.91230E-03  8320   0.295E-01-0.870E-04
CGA:  46    -0.230538963075E+03   -0.83857E-03   -0.84591E-03  8320   0.154E-01 0.121E-03
CGA:  47    -0.230540314079E+03   -0.13510E-02   -0.13568E-02  8320   0.207E-01-0.141E-03
CGA:  48    -0.230541671278E+03   -0.13572E-02   -0.13176E-02  8320   0.236E-01 0.146E-02
CGA:  49    -0.230542334962E+03   -0.66368E-03   -0.64976E-03  8320   0.187E-01 0.153E-03
CGA:  50    -0.230543509071E+03   -0.11741E-02   -0.11598E-02  8320   0.974E-02 0.559E-03
CGA:  51    -0.230544037018E+03   -0.52795E-03   -0.52230E-03  8320   0.137E-01 0.408E-03
CGA:  52    -0.230544448389E+03   -0.41137E-03   -0.40316E-03  8320   0.933E-02 0.115E-04
CGA:  53    -0.230544956634E+03   -0.50824E-03   -0.50724E-03  8320   0.687E-02 0.524E-04
CGA:  54    -0.230545343623E+03   -0.38699E-03   -0.37981E-03  8320   0.116E-01 0.423E-03
CGA:  55    -0.230545690069E+03   -0.34645E-03   -0.33598E-03  8320   0.456E-02 0.558E-04
CGA:  56    -0.230546015744E+03   -0.32568E-03   -0.32241E-03  8320   0.231E-02 0.994E-04
CGA:  57    -0.230546153549E+03   -0.13781E-03   -0.13758E-03  8320   0.218E-02 0.109E-04
CGA:  58    -0.230546258309E+03   -0.10476E-03   -0.10491E-03  8320   0.333E-02-0.314E-04
CGA:  59    -0.230546382392E+03   -0.12408E-03   -0.12483E-03  8320   0.141E-02 0.286E-04
CGA:  60    -0.230546491121E+03   -0.10873E-03   -0.10831E-03  8320   0.140E-02 0.114E-04
CGA:  61    -0.230546535481E+03   -0.44361E-04   -0.44199E-04  8320   0.150E-02-0.971E-06
CGA:  62    -0.230546631027E+03   -0.95546E-04   -0.95380E-04  8320   0.709E-03 0.618E-05
SDA:  63    -0.230546666072E+03   -0.35044E-04   -0.35048E-04  8320   0.960E-03-0.225E-05
CGA:  64    -0.230546684500E+03   -0.18428E-04   -0.18420E-04  8320   0.375E-03-0.712E-06
CGA:  65    -0.230546713250E+03   -0.28750E-04   -0.28838E-04  8320   0.284E-03-0.286E-05
CGA:  66    -0.230546736889E+03   -0.23639E-04   -0.23771E-04  8320   0.331E-03-0.354E-05
CGA:  67    -0.230546765131E+03   -0.28242E-04   -0.28390E-04  8320   0.187E-03-0.393E-05
CGA:  68    -0.230546776585E+03   -0.11454E-04   -0.11471E-04  8320   0.405E-03-0.154E-05
CGA:  69    -0.230546791227E+03   -0.14642E-04   -0.14616E-04  8320   0.139E-03-0.162E-05
CGA:  70    -0.230546807090E+03   -0.15863E-04   -0.16011E-04  8320   0.883E-04-0.232E-05
CGA:  71    -0.230546818321E+03   -0.11231E-04   -0.11209E-04  8320   0.207E-03 0.234E-06
CGA:  72    -0.230546823666E+03   -0.53454E-05   -0.53351E-05  8320   0.999E-04 0.751E-07
   7 F= -.23054682E+03 E0= -.23052985E+03  d E =-.568804E+00  mag=     5.2895
       N       E                     dE             d eps       ncg     rms          ort
SDA:   1    -0.111381465608E+03    0.11917E+03    0.00000E+00  8320   0.578E+04 0.000E+00
CGA:   2    -0.187609231123E+03   -0.76228E+02   -0.14686E+03  8320   0.214E+04-0.204E+04
CGA:   3    -0.209166163011E+03   -0.21557E+02   -0.41416E+02  8320   0.211E+03 0.827E+02
CGA:   4    -0.212875662218E+03   -0.37095E+01   -0.62931E+01  8320   0.122E+03-0.119E+02
CGA:   5    -0.218297773499E+03   -0.54221E+01   -0.32027E+01  8320   0.402E+02 0.263E+02
CGA:   6    -0.221271784149E+03   -0.29740E+01   -0.30445E+01  8320   0.156E+03-0.388E+01
CGA:   7    -0.222886713306E+03   -0.16149E+01   -0.18328E+01  8320   0.208E+03-0.171E+02
CGA:   8    -0.226224414985E+03   -0.33377E+01   -0.31034E+01  8320   0.136E+03 0.170E+02
CGA:   9    -0.227277669807E+03   -0.10533E+01   -0.18211E+01  8320   0.591E+02-0.549E+02
CGA:  10    -0.227800231316E+03   -0.52256E+00   -0.65481E+00  8320   0.481E+02-0.382E+01
CGA:  11    -0.228567787827E+03   -0.76756E+00   -0.97778E+00  8320   0.120E+02-0.465E+01
CGA:  12    -0.229239158053E+03   -0.67137E+00   -0.67978E+00  8320   0.205E+02-0.365E+00
CGA:  13    -0.229614912482E+03   -0.37575E+00   -0.40449E+00  8320   0.550E+01-0.789E+00
CGA:  14    -0.230050261133E+03   -0.43535E+00   -0.43037E+00  8320   0.352E+01 0.121E+00
CGA:  15    -0.230365803541E+03   -0.31554E+00   -0.30867E+00  8320   0.407E+01 0.157E+00
CGA:  16    -0.230481349103E+03   -0.11555E+00   -0.12056E+00  8320   0.312E+01-0.310E-01
CGA:  17    -0.230584077413E+03   -0.10273E+00   -0.98036E-01  8320   0.248E+01 0.967E-02
CGA:  18    -0.230646558858E+03   -0.62481E-01   -0.58976E-01  8320   0.987E+00 0.880E-01
CGA:  19    -0.230708808041E+03   -0.62249E-01   -0.62198E-01  8320   0.279E+01 0.251E-02
CGA:  20    -0.230769462330E+03   -0.60654E-01   -0.62714E-01  8320   0.767E+00-0.444E-01
CGA:  21    -0.230819265487E+03   -0.49803E-01   -0.49093E-01  8320   0.809E+00 0.275E-01
CGA:  22    -0.230834719727E+03   -0.15454E-01   -0.15876E-01  8320   0.522E+00-0.143E-01
CGA:  23    -0.230865352632E+03   -0.30633E-01   -0.30489E-01  8320   0.206E+00 0.675E-02
CGA:  24    -0.230878249290E+03   -0.12897E-01   -0.12705E-01  8320   0.190E+00 0.881E-02
CGA:  25    -0.230885869020E+03   -0.76197E-02   -0.76305E-02  8320   0.287E+00 0.429E-03
CGA:  26    -0.230894451384E+03   -0.85824E-02   -0.86720E-02  8320   0.128E+00 0.781E-04
CGA:  27    -0.230904400157E+03   -0.99488E-02   -0.99813E-02  8320   0.679E-01-0.904E-03
CGA:  28    -0.230910047644E+03   -0.56475E-02   -0.56380E-02  8320   0.425E-01 0.245E-03
CGA:  29    -0.230912691207E+03   -0.26436E-02   -0.26421E-02  8320   0.776E-01 0.673E-04
CGA:  30    -0.230914437859E+03   -0.17467E-02   -0.17448E-02  8320   0.362E-01 0.413E-04
CGA:  31    -0.230917259665E+03   -0.28218E-02   -0.28273E-02  8320   0.354E-01-0.161E-03
SDA:  32    -0.230919674248E+03   -0.24146E-02   -0.24036E-02  8320   0.213E-01 0.445E-03
CGA:  33    -0.230920315182E+03   -0.64093E-03   -0.64456E-03  8320   0.315E-01-0.265E-04
CGA:  34    -0.230922190811E+03   -0.18756E-02   -0.18718E-02  8320   0.212E-01 0.243E-03
CGA:  35    -0.230923346271E+03   -0.11555E-02   -0.11562E-02  8320   0.118E-01-0.829E-04
CGA:  36    -0.230924467837E+03   -0.11216E-02   -0.11247E-02  8320   0.921E-02-0.684E-04
CGA:  37    -0.230925537148E+03   -0.10693E-02   -0.10327E-02  8320   0.220E-01 0.616E-03
CGA:  38    -0.230925961694E+03   -0.42455E-03   -0.40821E-03  8320   0.618E-02 0.726E-03
CGA:  39    -0.230926845511E+03   -0.88382E-03   -0.86920E-03  8320   0.423E-02 0.175E-03
CGA:  40    -0.230927782019E+03   -0.93651E-03   -0.10533E-02  8320   0.194E-01-0.887E-03
CGA:  41    -0.230928143042E+03   -0.36102E-03   -0.46315E-03  8320   0.103E-01-0.171E-02
CGA:  42    -0.230928564540E+03   -0.42150E-03   -0.40725E-03  8320   0.750E-02 0.960E-05
CGA:  43    -0.230928944766E+03   -0.38023E-03   -0.38649E-03  8320   0.559E-02 0.144E-03
CGA:  44    -0.230929192801E+03   -0.24804E-03   -0.24167E-03  8320   0.761E-02-0.839E-05
CGA:  45    -0.230929531677E+03   -0.33888E-03   -0.34567E-03  8320   0.317E-02 0.652E-04
CGA:  46    -0.230929655942E+03   -0.12426E-03   -0.12508E-03  8320   0.198E-02-0.475E-05
CGA:  47    -0.230929771991E+03   -0.11605E-03   -0.11598E-03  8320   0.373E-02-0.250E-04
CGA:  48    -0.230929887721E+03   -0.11573E-03   -0.11870E-03  8320   0.146E-02-0.386E-04
CGA:  49    -0.230930003449E+03   -0.11573E-03   -0.11538E-03  8320   0.183E-02 0.115E-04
CGA:  50    -0.230930054897E+03   -0.51448E-04   -0.51138E-04  8320   0.106E-02 0.384E-05
CGA:  51    -0.230930093414E+03   -0.38517E-04   -0.38636E-04  8320   0.761E-03-0.168E-05
CGA:  52    -0.230930148224E+03   -0.54810E-04   -0.54817E-04  8320   0.603E-03-0.685E-06
CGA:  53    -0.230930166311E+03   -0.18087E-04   -0.18072E-04  8320   0.552E-03-0.712E-06
CGA:  54    -0.230930190808E+03   -0.24498E-04   -0.24490E-04  8320   0.268E-03-0.114E-05
CGA:  55    -0.230930206858E+03   -0.16050E-04   -0.16050E-04  8320   0.411E-03-0.153E-06
CGA:  56    -0.230930221941E+03   -0.15083E-04   -0.15087E-04  8320   0.372E-03 0.373E-06
CGA:  57    -0.230930234903E+03   -0.12962E-04   -0.12972E-04  8320   0.137E-03 0.404E-06
CGA:  58    -0.230930244469E+03   -0.95654E-05   -0.95554E-05  8320   0.226E-03 0.453E-06
   8 F= -.23093024E+03 E0= -.23091308E+03  d E =-.383421E+00  mag=     5.2650
       N       E                     dE             d eps       ncg     rms          ort
SDA:   1    -0.198519963114E+03    0.32410E+02    0.00000E+00  8320   0.469E+03 0.000E+00
CGA:   2    -0.205404295517E+03   -0.68843E+01   -0.12525E+02  8320   0.175E+03-0.334E+02
CGA:   3    -0.211590042732E+03   -0.61857E+01   -0.67100E+01  8320   0.168E+03-0.166E+00
CGA:   4    -0.218308773923E+03   -0.67187E+01   -0.67742E+01  8320   0.203E+03 0.413E+01
CGA:   5    -0.221227056997E+03   -0.29183E+01   -0.40817E+01  8320   0.227E+03-0.539E+02
CGA:   6    -0.225287738474E+03   -0.40607E+01   -0.32649E+01  8320   0.102E+03 0.289E+02
CGA:   7    -0.226133128818E+03   -0.84539E+00   -0.20717E+01  8320   0.905E+02-0.472E+02
CGA:   8    -0.227505168311E+03   -0.13720E+01   -0.12304E+01  8320   0.118E+03 0.238E+01
CGA:   9    -0.228813385912E+03   -0.13082E+01   -0.12194E+01  8320   0.262E+02-0.170E+02
CGA:  10    -0.229339272811E+03   -0.52589E+00   -0.59214E+00  8320   0.255E+02-0.678E+00
CGA:  11    -0.229805539238E+03   -0.46627E+00   -0.48385E+00  8320   0.192E+02-0.821E+00
CGA:  12    -0.230245042075E+03   -0.43950E+00   -0.43386E+00  8320   0.136E+02 0.975E-01
CGA:  13    -0.230413470899E+03   -0.16843E+00   -0.18240E+00  8320   0.100E+02-0.941E+00
CGA:  14    -0.230686637564E+03   -0.27317E+00   -0.27453E+00  8320   0.474E+01 0.872E-01
CGA:  15    -0.230787127435E+03   -0.10049E+00   -0.96239E-01  8320   0.306E+01 0.896E-01
CGA:  16    -0.230842435109E+03   -0.55308E-01   -0.54359E-01  8320   0.156E+01 0.242E-01
CGA:  17    -0.230914079331E+03   -0.71644E-01   -0.70355E-01  8320   0.231E+01 0.110E+00
CGA:  18    -0.230958651913E+03   -0.44573E-01   -0.45354E-01  8320   0.156E+01-0.292E-01
CGA:  19    -0.231005569912E+03   -0.46918E-01   -0.47504E-01  8320   0.867E+00 0.343E-01
CGA:  20    -0.231027650607E+03   -0.22081E-01   -0.23498E-01  8320   0.778E+00 0.243E-01
CGA:  21    -0.231043138210E+03   -0.15488E-01   -0.15410E-01  8320   0.285E+00 0.216E-02
CGA:  22    -0.231062984518E+03   -0.19846E-01   -0.19161E-01  8320   0.313E+00 0.201E-01
CGA:  23    -0.231081401808E+03   -0.18417E-01   -0.17831E-01  8320   0.143E+00 0.274E-01
CGA:  24    -0.231089578110E+03   -0.81763E-02   -0.80758E-02  8320   0.135E+00 0.528E-02
CGA:  25    -0.231094191611E+03   -0.46135E-02   -0.46529E-02  8320   0.160E+00 0.307E-02
CGA:  26    -0.231101535736E+03   -0.73441E-02   -0.73550E-02  8320   0.724E-01-0.885E-03
CGA:  27    -0.231104201000E+03   -0.26653E-02   -0.26662E-02  8320   0.579E-01 0.491E-03
CGA:  28    -0.231106111464E+03   -0.19105E-02   -0.19139E-02  8320   0.394E-01 0.215E-03
CGA:  29    -0.231108685979E+03   -0.25745E-02   -0.25300E-02  8320   0.404E-01 0.146E-02
CGA:  30    -0.231109931696E+03   -0.12457E-02   -0.12493E-02  8320   0.278E-01 0.922E-04
CGA:  31    -0.231111229210E+03   -0.12975E-02   -0.12955E-02  8320   0.145E-01 0.176E-03
SDA:  32    -0.231111745726E+03   -0.51652E-03   -0.51679E-03  8320   0.134E-01 0.362E-04
CGA:  33    -0.231111948637E+03   -0.20291E-03   -0.20342E-03  8320   0.372E-02-0.262E-04
CGA:  34    -0.231112449311E+03   -0.50067E-03   -0.49993E-03  8320   0.774E-02 0.866E-05
CGA:  35    -0.231113098845E+03   -0.64953E-03   -0.64957E-03  8320   0.648E-02-0.187E-05
CGA:  36    -0.231113371502E+03   -0.27266E-03   -0.27270E-03  8320   0.294E-02 0.785E-05
CGA:  37    -0.231113440524E+03   -0.69022E-04   -0.69044E-04  8320   0.186E-02-0.157E-05
CGA:  38    -0.231113629076E+03   -0.18855E-03   -0.18762E-03  8320   0.249E-02 0.169E-04
CGA:  39    -0.231113873015E+03   -0.24394E-03   -0.24522E-03  8320   0.143E-02-0.262E-04
CGA:  40    -0.231113919608E+03   -0.46592E-04   -0.46801E-04  8320   0.186E-02 0.980E-06
CGA:  41    -0.231114050857E+03   -0.13125E-03   -0.13156E-03  8320   0.990E-03-0.108E-04
CGA:  42    -0.231114135362E+03   -0.84505E-04   -0.84062E-04  8320   0.128E-02 0.112E-04
CGA:  43    -0.231114164138E+03   -0.28776E-04   -0.28732E-04  8320   0.464E-03 0.268E-05
CGA:  44    -0.231114194963E+03   -0.30825E-04   -0.30779E-04  8320   0.536E-03 0.186E-05
CGA:  45    -0.231114228686E+03   -0.33722E-04   -0.33728E-04  8320   0.374E-03-0.286E-06
CGA:  46    -0.231114240321E+03   -0.11635E-04   -0.11666E-04  8320   0.338E-03 0.536E-06
CGA:  47    -0.231114257673E+03   -0.17352E-04   -0.17350E-04  8320   0.108E-03 0.143E-05
CGA:  48    -0.231114268360E+03   -0.10687E-04   -0.10666E-04  8320   0.245E-03 0.265E-06
CGA:  49    -0.231114274453E+03   -0.60933E-05   -0.60990E-05  8320   0.856E-04 0.813E-08
   9 F= -.23111427E+03 E0= -.23109650E+03  d E =-.184030E+00  mag=     5.2564
       N       E                     dE             d eps       ncg     rms          ort
SDA:   1    -0.196616481129E+03    0.34498E+02    0.00000E+00  8320   0.450E+03 0.000E+00
CGA:   2    -0.203751960430E+03   -0.71355E+01   -0.11701E+02  8320   0.164E+03-0.354E+02
CGA:   3    -0.210950776591E+03   -0.71988E+01   -0.72417E+01  8320   0.145E+03 0.576E+01
CGA:   4    -0.219425592050E+03   -0.84748E+01   -0.97482E+01  8320   0.320E+03-0.567E+02
CGA:   5    -0.221402922482E+03   -0.19773E+01   -0.42726E+01  8320   0.203E+03-0.225E+02
CGA:   6    -0.226063914276E+03   -0.46610E+01   -0.37272E+01  8320   0.368E+02 0.203E+01
CGA:   7    -0.226805922310E+03   -0.74201E+00   -0.10157E+01  8320   0.824E+02-0.503E+01
CGA:   8    -0.227534099670E+03   -0.72818E+00   -0.42245E+00  8320   0.564E+02 0.495E+02
CGA:   9    -0.228246190302E+03   -0.71209E+00   -0.76221E+00  8320   0.232E+02-0.951E+01
CGA:  10    -0.229042086031E+03   -0.79590E+00   -0.79405E+00  8320   0.265E+02-0.385E+00
CGA:  11    -0.230142433355E+03   -0.11003E+01   -0.10997E+01  8320   0.141E+02-0.269E+00
CGA:  12    -0.230614229357E+03   -0.47180E+00   -0.47367E+00  8320   0.210E+01 0.596E-02
CGA:  13    -0.230723494313E+03   -0.10926E+00   -0.10897E+00  8320   0.443E+01 0.237E-01
CGA:  14    -0.230838084372E+03   -0.11459E+00   -0.11839E+00  8320   0.485E+01-0.397E-01
CGA:  15    -0.230976348440E+03   -0.13826E+00   -0.13802E+00  8320   0.192E+01-0.267E-02
CGA:  16    -0.231046551478E+03   -0.70203E-01   -0.71137E-01  8320   0.141E+01 0.766E-01
CGA:  17    -0.231067642346E+03   -0.21091E-01   -0.20571E-01  8320   0.837E+00 0.277E-01
CGA:  18    -0.231134532958E+03   -0.66891E-01   -0.66414E-01  8320   0.917E+00 0.113E-01
CGA:  19    -0.231157802205E+03   -0.23269E-01   -0.25559E-01  8320   0.111E+01-0.189E-02
CGA:  20    -0.231178408611E+03   -0.20606E-01   -0.20182E-01  8320   0.322E+00 0.136E-01
CGA:  21    -0.231193404677E+03   -0.14996E-01   -0.14951E-01  8320   0.232E+00 0.501E-02
CGA:  22    -0.231205405445E+03   -0.12001E-01   -0.11956E-01  8320   0.368E+00 0.307E-02
CGA:  23    -0.231212496233E+03   -0.70908E-02   -0.77392E-02  8320   0.116E+00-0.144E-01
CGA:  24    -0.231219359757E+03   -0.68635E-02   -0.70686E-02  8320   0.171E+00-0.768E-02
CGA:  25    -0.231223365260E+03   -0.40055E-02   -0.41639E-02  8320   0.122E+00-0.478E-03
CGA:  26    -0.231229374420E+03   -0.60092E-02   -0.60082E-02  8320   0.704E-01 0.922E-04
CGA:  27    -0.231231490024E+03   -0.21156E-02   -0.21418E-02  8320   0.667E-01 0.444E-03
CGA:  28    -0.231234346034E+03   -0.28560E-02   -0.28605E-02  8320   0.461E-01-0.105E-02
CGA:  29    -0.231236738377E+03   -0.23923E-02   -0.23382E-02  8320   0.479E-01 0.341E-02
CGA:  30    -0.231238123475E+03   -0.13851E-02   -0.13883E-02  8320   0.266E-01 0.247E-05
CGA:  31    -0.231239634809E+03   -0.15113E-02   -0.15021E-02  8320   0.227E-01 0.437E-03
CGA:  32    -0.231240249573E+03   -0.61476E-03   -0.61640E-03  8320   0.123E-01-0.490E-06
CGA:  33    -0.231241007691E+03   -0.75812E-03   -0.74902E-03  8320   0.106E-01 0.366E-03
CGA:  34    -0.231241307219E+03   -0.29953E-03   -0.30104E-03  8320   0.641E-02 0.465E-05
CGA:  35    -0.231241770371E+03   -0.46315E-03   -0.46317E-03  8320   0.807E-02-0.218E-05
CGA:  36    -0.231241987920E+03   -0.21755E-03   -0.21927E-03  8320   0.332E-02-0.227E-05
CGA:  37    -0.231242188326E+03   -0.20041E-03   -0.20032E-03  8320   0.474E-02 0.333E-05
CGA:  38    -0.231242375410E+03   -0.18708E-03   -0.18741E-03  8320   0.337E-02 0.448E-04
SDA:  39    -0.231242525777E+03   -0.15037E-03   -0.15043E-03  8320   0.237E-02-0.223E-04
CGA:  40    -0.231242564290E+03   -0.38514E-04   -0.38546E-04  8320   0.746E-03-0.265E-05
CGA:  41    -0.231242655361E+03   -0.91071E-04   -0.91214E-04  8320   0.154E-02-0.179E-05
CGA:  42    -0.231242757962E+03   -0.10260E-03   -0.10281E-03  8320   0.105E-02-0.859E-05
CGA:  43    -0.231242851463E+03   -0.93500E-04   -0.93859E-04  8320   0.987E-03-0.855E-05
CGA:  44    -0.231242874999E+03   -0.23537E-04   -0.23612E-04  8320   0.642E-03-0.434E-05
CGA:  45    -0.231242920954E+03   -0.45955E-04   -0.46120E-04  8320   0.406E-03-0.661E-05
CGA:  46    -0.231242952517E+03   -0.31563E-04   -0.31599E-04  8320   0.262E-03-0.149E-05
CGA:  47    -0.231242961952E+03   -0.94354E-05   -0.94102E-05  8320   0.388E-03-0.151E-05
CGA:  48    -0.231242992872E+03   -0.30920E-04   -0.30972E-04  8320   0.174E-03-0.231E-05
CGA:  49    -0.231243007726E+03   -0.14854E-04   -0.14909E-04  8320   0.154E-03-0.168E-05
CGA:  50    -0.231243012101E+03   -0.43755E-05   -0.43812E-05  8320   0.105E-03-0.512E-06
  10 F= -.23124301E+03 E0= -.23122545E+03  d E =-.128738E+00  mag=     5.2421
       N       E                     dE             d eps       ncg     rms          ort
SDA:   1    -0.204178400931E+03    0.27065E+02    0.00000E+00  8320   0.202E+03 0.000E+00
CGA:   2    -0.209045089619E+03   -0.48667E+01   -0.58955E+01  8320   0.108E+03 0.742E+01
CGA:   3    -0.216712624883E+03   -0.76675E+01   -0.80795E+01  8320   0.163E+03-0.471E+01
CGA:   4    -0.224188415217E+03   -0.74758E+01   -0.70614E+01  8320   0.678E+02-0.296E+02
CGA:   5    -0.227168088000E+03   -0.29797E+01   -0.29720E+01  8320   0.396E+02 0.157E+01
CGA:   6    -0.228205200009E+03   -0.10371E+01   -0.10077E+01  8320   0.409E+02-0.338E+00
CGA:   7    -0.229171796182E+03   -0.96660E+00   -0.96054E+00  8320   0.275E+02-0.394E+00
CGA:   8    -0.230208726344E+03   -0.10369E+01   -0.10220E+01  8320   0.106E+02-0.369E+00
CGA:   9    -0.230640766913E+03   -0.43204E+00   -0.43987E+00  8320   0.472E+01 0.537E+00
CGA:  10    -0.230765986599E+03   -0.12522E+00   -0.12704E+00  8320   0.552E+01-0.399E-01
CGA:  11    -0.230890112754E+03   -0.12413E+00   -0.13538E+00  8320   0.374E+01-0.227E+00
CGA:  12    -0.231017057173E+03   -0.12694E+00   -0.12865E+00  8320   0.146E+01 0.442E-01
CGA:  13    -0.231094023843E+03   -0.76967E-01   -0.77150E-01  8320   0.206E+01-0.150E-01
CGA:  14    -0.231120999378E+03   -0.26976E-01   -0.27576E-01  8320   0.694E+00-0.424E-01
CGA:  15    -0.231146953944E+03   -0.25955E-01   -0.26038E-01  8320   0.589E+00 0.585E-02
CGA:  16    -0.231189076761E+03   -0.42123E-01   -0.40334E-01  8320   0.316E+00 0.612E-01
CGA:  17    -0.231210197595E+03   -0.21121E-01   -0.20994E-01  8320   0.218E+00 0.596E-02
CGA:  18    -0.231222758880E+03   -0.12561E-01   -0.12399E-01  8320   0.157E+00 0.105E-01
CGA:  19    -0.231232333586E+03   -0.95747E-02   -0.95059E-02  8320   0.189E+00 0.407E-02
CGA:  20    -0.231236954331E+03   -0.46207E-02   -0.46859E-02  8320   0.219E+00-0.128E-02
CGA:  21    -0.231245436090E+03   -0.84818E-02   -0.86002E-02  8320   0.552E-01 0.754E-02
CGA:  22    -0.231248087300E+03   -0.26512E-02   -0.26441E-02  8320   0.135E+00 0.302E-02
CGA:  23    -0.231252277607E+03   -0.41903E-02   -0.39816E-02  8320   0.464E-01 0.145E-02
CGA:  24    -0.231256248304E+03   -0.39707E-02   -0.39114E-02  8320   0.259E-01 0.136E-02
CGA:  25    -0.231258615894E+03   -0.23676E-02   -0.23943E-02  8320   0.326E-01-0.646E-03
CGA:  26    -0.231259544714E+03   -0.92882E-03   -0.96800E-03  8320   0.290E-01-0.111E-03
CGA:  27    -0.231260742896E+03   -0.11982E-02   -0.11989E-02  8320   0.122E-01 0.512E-04
CGA:  28    -0.231261503422E+03   -0.76053E-03   -0.76134E-03  8320   0.156E-01-0.397E-04
CGA:  29    -0.231261988554E+03   -0.48513E-03   -0.48536E-03  8320   0.117E-01 0.496E-05
CGA:  30    -0.231262736584E+03   -0.74803E-03   -0.73263E-03  8320   0.418E-02 0.727E-03
CGA:  31    -0.231263064226E+03   -0.32764E-03   -0.32702E-03  8320   0.998E-02 0.199E-04
SDA:  32    -0.231263364240E+03   -0.30001E-03   -0.30005E-03  8320   0.347E-02 0.131E-05
CGA:  33    -0.231263501501E+03   -0.13726E-03   -0.13724E-03  8320   0.289E-02-0.287E-05
CGA:  34    -0.231263599142E+03   -0.97641E-04   -0.97713E-04  8320   0.247E-02-0.318E-05
CGA:  35    -0.231263773588E+03   -0.17445E-03   -0.17512E-03  8320   0.246E-02-0.258E-04
CGA:  36    -0.231264055063E+03   -0.28148E-03   -0.27999E-03  8320   0.116E-02 0.235E-04
CGA:  37    -0.231264149957E+03   -0.94894E-04   -0.94979E-04  8320   0.854E-03-0.262E-05
CGA:  38    -0.231264179332E+03   -0.29375E-04   -0.29385E-04  8320   0.109E-02-0.149E-05
CGA:  39    -0.231264263931E+03   -0.84599E-04   -0.84602E-04  8320   0.768E-03-0.133E-05
CGA:  40    -0.231264331435E+03   -0.67504E-04   -0.67425E-04  8320   0.485E-03 0.103E-05
CGA:  41    -0.231264371822E+03   -0.40387E-04   -0.40694E-04  8320   0.462E-03-0.107E-04
CGA:  42    -0.231264401006E+03   -0.29184E-04   -0.29203E-04  8320   0.192E-03-0.417E-05
CGA:  43    -0.231264417888E+03   -0.16882E-04   -0.16942E-04  8320   0.555E-03-0.206E-05
CGA:  44    -0.231264433815E+03   -0.15926E-04   -0.15899E-04  8320   0.159E-03-0.456E-06
CGA:  45    -0.231264449298E+03   -0.15483E-04   -0.15455E-04  8320   0.758E-04 0.447E-06
CGA:  46    -0.231264456393E+03   -0.70948E-05   -0.71085E-05  8320   0.242E-03-0.622E-06
  11 F= -.23126446E+03 E0= -.23124794E+03  d E =-.214443E-01  mag=     5.2289
       N       E                     dE             d eps       ncg     rms          ort
SDA:   1    -0.223504173426E+03    0.77603E+01    0.00000E+00  8320   0.270E+02 0.000E+00
CGA:   2    -0.225262275520E+03   -0.17581E+01   -0.17487E+01  8320   0.644E+02 0.966E+00
CGA:   3    -0.228365869299E+03   -0.31036E+01   -0.29349E+01  8320   0.261E+02-0.200E+01
CGA:   4    -0.229535883935E+03   -0.11700E+01   -0.12561E+01  8320   0.161E+02 0.343E+01
CGA:   5    -0.230204329613E+03   -0.66845E+00   -0.63167E+00  8320   0.111E+02 0.441E+00
CGA:   6    -0.230781271922E+03   -0.57694E+00   -0.57885E+00  8320   0.510E+01 0.115E+00
CGA:   7    -0.231080037096E+03   -0.29877E+00   -0.29927E+00  8320   0.404E+01-0.202E+00
CGA:   8    -0.231188406487E+03   -0.10837E+00   -0.11482E+00  8320   0.202E+01-0.913E-01
CGA:   9    -0.231247202156E+03   -0.58796E-01   -0.57343E-01  8320   0.720E+00 0.287E-01
CGA:  10    -0.231299366595E+03   -0.52164E-01   -0.51267E-01  8320   0.837E+00 0.402E-01
CGA:  11    -0.231322691219E+03   -0.23325E-01   -0.22960E-01  8320   0.335E+00 0.744E-02
CGA:  12    -0.231341418319E+03   -0.18727E-01   -0.18722E-01  8320   0.174E+00 0.153E-02
CGA:  13    -0.231346805812E+03   -0.53875E-02   -0.53406E-02  8320   0.145E+00 0.549E-03
CGA:  14    -0.231356745440E+03   -0.99396E-02   -0.98106E-02  8320   0.825E-01 0.626E-02
CGA:  15    -0.231360131030E+03   -0.33856E-02   -0.33673E-02  8320   0.740E-01-0.160E-03
CGA:  16    -0.231362507313E+03   -0.23763E-02   -0.23917E-02  8320   0.228E-01-0.255E-04
CGA:  17    -0.231364961696E+03   -0.24544E-02   -0.24581E-02  8320   0.499E-01-0.728E-04
CGA:  18    -0.231366157190E+03   -0.11955E-02   -0.12255E-02  8320   0.124E-01-0.648E-03
CGA:  19    -0.231367048165E+03   -0.89098E-03   -0.89157E-03  8320   0.136E-01-0.200E-04
CGA:  20    -0.231367500822E+03   -0.45266E-03   -0.45424E-03  8320   0.969E-02 0.168E-05
CGA:  21    -0.231368039147E+03   -0.53833E-03   -0.53844E-03  8320   0.745E-02-0.163E-04
CGA:  22    -0.231368386316E+03   -0.34717E-03   -0.34798E-03  8320   0.539E-02 0.565E-04
CGA:  23    -0.231368567044E+03   -0.18073E-03   -0.18079E-03  8320   0.357E-02 0.635E-05
CGA:  24    -0.231368812094E+03   -0.24505E-03   -0.24473E-03  8320   0.231E-02 0.161E-04
CGA:  25    -0.231368887825E+03   -0.75730E-04   -0.75686E-04  8320   0.195E-02 0.217E-05
CGA:  26    -0.231369009533E+03   -0.12171E-03   -0.12158E-03  8320   0.876E-03 0.892E-05
CGA:  27    -0.231369047580E+03   -0.38047E-04   -0.38064E-04  8320   0.113E-02 0.263E-05
CGA:  28    -0.231369103247E+03   -0.55668E-04   -0.55687E-04  8320   0.455E-03 0.655E-05
CGA:  29    -0.231369127251E+03   -0.24004E-04   -0.24003E-04  8320   0.516E-03 0.820E-06
CGA:  30    -0.231369144223E+03   -0.16972E-04   -0.16993E-04  8320   0.227E-03-0.127E-06
CGA:  31    -0.231369161279E+03   -0.17056E-04   -0.17048E-04  8320   0.298E-03 0.692E-07
SDA:  32    -0.231369172101E+03   -0.10822E-04   -0.10824E-04  8320   0.211E-03-0.191E-06
CGA:  33    -0.231369176403E+03   -0.43021E-05   -0.42956E-05  8320   0.904E-04-0.275E-06
  12 F= -.23136918E+03 E0= -.23135278E+03  d E =-.104720E+00  mag=     5.2402
       N       E                     dE             d eps       ncg     rms          ort
SDA:   1    -0.228249684258E+03    0.31195E+01    0.00000E+00  8320   0.932E+01 0.000E+00
CGA:   2    -0.229031230864E+03   -0.78155E+00   -0.76914E+00  8320   0.298E+02 0.367E+00
CGA:   3    -0.230379025991E+03   -0.13478E+01   -0.13216E+01  8320   0.102E+02-0.829E+00
CGA:   4    -0.230825179400E+03   -0.44615E+00   -0.45612E+00  8320   0.459E+01 0.741E+00
CGA:   5    -0.231027858157E+03   -0.20268E+00   -0.19664E+00  8320   0.459E+01-0.121E+00
CGA:   6    -0.231204282834E+03   -0.17642E+00   -0.17698E+00  8320   0.180E+01 0.139E-01
CGA:   7    -0.231335238170E+03   -0.13096E+00   -0.13086E+00  8320   0.487E+00 0.342E-02
CGA:   8    -0.231365775980E+03   -0.30538E-01   -0.30865E-01  8320   0.511E+00-0.185E-01
CGA:   9    -0.231379314529E+03   -0.13539E-01   -0.13716E-01  8320   0.298E+00-0.264E-02
CGA:  10    -0.231392338843E+03   -0.13024E-01   -0.13021E-01  8320   0.114E+00-0.122E-03
CGA:  11    -0.231400974875E+03   -0.86360E-02   -0.86088E-02  8320   0.347E-01 0.887E-03
CGA:  12    -0.231404249570E+03   -0.32747E-02   -0.32733E-02  8320   0.688E-01 0.354E-04
CGA:  13    -0.231406068017E+03   -0.18184E-02   -0.18285E-02  8320   0.287E-01-0.195E-03
CGA:  14    -0.231407417499E+03   -0.13495E-02   -0.13491E-02  8320   0.996E-02-0.252E-04
CGA:  15    -0.231408159222E+03   -0.74172E-03   -0.73979E-03  8320   0.737E-02 0.715E-04
CGA:  16    -0.231408654521E+03   -0.49530E-03   -0.49615E-03  8320   0.149E-01-0.403E-04
CGA:  17    -0.231409089245E+03   -0.43472E-03   -0.43573E-03  8320   0.320E-02 0.137E-05
CGA:  18    -0.231409332024E+03   -0.24278E-03   -0.24244E-03  8320   0.212E-02 0.135E-04
CGA:  19    -0.231409535268E+03   -0.20324E-03   -0.20248E-03  8320   0.225E-02 0.179E-04
CGA:  20    -0.231409640831E+03   -0.10556E-03   -0.10562E-03  8320   0.268E-02 0.813E-05
CGA:  21    -0.231409722374E+03   -0.81542E-04   -0.81925E-04  8320   0.891E-03 0.501E-05
CGA:  22    -0.231409789136E+03   -0.66762E-04   -0.66618E-04  8320   0.458E-03 0.648E-05
CGA:  23    -0.231409840221E+03   -0.51085E-04   -0.50792E-04  8320   0.454E-03 0.527E-05
CGA:  24    -0.231409857356E+03   -0.17135E-04   -0.17156E-04  8320   0.469E-03 0.192E-05
CGA:  25    -0.231409875206E+03   -0.17850E-04   -0.17901E-04  8320   0.192E-03 0.237E-05
CGA:  26    -0.231409887127E+03   -0.11921E-04   -0.11909E-04  8320   0.886E-04 0.183E-05
CGA:  27    -0.231409898550E+03   -0.11424E-04   -0.11286E-04  8320   0.662E-04 0.188E-05
CGA:  28    -0.231409901713E+03   -0.31632E-05   -0.31627E-05  8320   0.107E-03-0.131E-06
  13 F= -.23140990E+03 E0= -.23139360E+03  d E =-.407253E-01  mag=     5.2397
       N       E                     dE             d eps       ncg     rms          ort
SDA:   1    -0.228930928612E+03    0.24790E+01    0.00000E+00  8320   0.712E+01 0.000E+00
CGA:   2    -0.230070662986E+03   -0.11397E+01   -0.10845E+01  8320   0.104E+02 0.556E+00
CGA:   3    -0.230786682489E+03   -0.71602E+00   -0.71807E+00  8320   0.727E+01-0.137E+01
CGA:   4    -0.230989027860E+03   -0.20235E+00   -0.21686E+00  8320   0.609E+01-0.134E+00
CGA:   5    -0.231193955063E+03   -0.20493E+00   -0.20484E+00  8320   0.182E+01 0.325E-01
CGA:   6    -0.231332197882E+03   -0.13824E+00   -0.13857E+00  8320   0.141E+01-0.151E-01
CGA:   7    -0.231362286173E+03   -0.30088E-01   -0.27655E-01  8320   0.423E+00 0.935E-01
CGA:   8    -0.231399556681E+03   -0.37271E-01   -0.37078E-01  8320   0.208E+00 0.642E-02
CGA:   9    -0.231413138930E+03   -0.13582E-01   -0.13576E-01  8320   0.150E+00 0.821E-03
CGA:  10    -0.231418251937E+03   -0.51130E-02   -0.51164E-02  8320   0.116E+00-0.234E-04
CGA:  11    -0.231421714520E+03   -0.34626E-02   -0.35531E-02  8320   0.413E-01-0.125E-02
CGA:  12    -0.231425635192E+03   -0.39207E-02   -0.39369E-02  8320   0.196E-01-0.376E-03
CGA:  13    -0.231427318574E+03   -0.16834E-02   -0.16743E-02  8320   0.926E-02 0.274E-03
CGA:  14    -0.231427946300E+03   -0.62773E-03   -0.62880E-03  8320   0.115E-01-0.983E-04
CGA:  15    -0.231428299665E+03   -0.35336E-03   -0.35411E-03  8320   0.837E-02-0.104E-04
CGA:  16    -0.231428715633E+03   -0.41597E-03   -0.41650E-03  8320   0.296E-02 0.171E-04
CGA:  17    -0.231428940974E+03   -0.22534E-03   -0.22514E-03  8320   0.187E-02 0.894E-05
CGA:  18    -0.231429144751E+03   -0.20378E-03   -0.20301E-03  8320   0.204E-02 0.154E-04
CGA:  19    -0.231429203008E+03   -0.58257E-04   -0.58418E-04  8320   0.159E-02-0.143E-05
CGA:  20    -0.231429294269E+03   -0.91261E-04   -0.91262E-04  8320   0.645E-03 0.592E-06
CGA:  21    -0.231429355299E+03   -0.61030E-04   -0.60823E-04  8320   0.671E-03 0.562E-05
CGA:  22    -0.231429391654E+03   -0.36355E-04   -0.36357E-04  8320   0.575E-03 0.167E-05
CGA:  23    -0.231429406417E+03   -0.14763E-04   -0.14812E-04  8320   0.288E-03 0.608E-06
CGA:  24    -0.231429433001E+03   -0.26584E-04   -0.26511E-04  8320   0.136E-03 0.211E-05
CGA:  25    -0.231429445963E+03   -0.12962E-04   -0.12907E-04  8320   0.129E-03 0.157E-05
CGA:  26    -0.231429449844E+03   -0.38813E-05   -0.38908E-05  8320   0.106E-03 0.160E-06
  14 F= -.23142945E+03 E0= -.23141320E+03  d E =-.195481E-01  mag=     5.2407
       N       E                     dE             d eps       ncg     rms          ort
SDA:   1    -0.192502878605E+03    0.38927E+02    0.00000E+00  8320   0.316E+03 0.000E+00
CGA:   2    -0.198918251983E+03   -0.64154E+01   -0.98899E+01  8320   0.218E+03-0.206E+02
CGA:   3    -0.210030516756E+03   -0.11112E+02   -0.10624E+02  8320   0.204E+03-0.284E+02
CGA:   4    -0.218601155055E+03   -0.85706E+01   -0.55793E+01  8320   0.693E+02 0.257E+02
CGA:   5    -0.221528413976E+03   -0.29273E+01   -0.28364E+01  8320   0.166E+03-0.452E+01
CGA:   6    -0.226346058024E+03   -0.48176E+01   -0.50209E+01  8320   0.114E+03-0.148E+02
CGA:   7    -0.228636775641E+03   -0.22907E+01   -0.23259E+01  8320   0.486E+02-0.145E+01
CGA:   8    -0.229376352787E+03   -0.73958E+00   -0.12324E+01  8320   0.380E+02-0.878E+01
CGA:   9    -0.229986905167E+03   -0.61055E+00   -0.53443E+00  8320   0.121E+02 0.342E+01
CGA:  10    -0.230316077004E+03   -0.32917E+00   -0.28780E+00  8320   0.716E+01 0.119E+01
CGA:  11    -0.230492096684E+03   -0.17602E+00   -0.17748E+00  8320   0.127E+02-0.455E-01
CGA:  12    -0.230999680590E+03   -0.50758E+00   -0.50615E+00  8320   0.496E+01-0.556E-01
CGA:  13    -0.231104864990E+03   -0.10518E+00   -0.11119E+00  8320   0.442E+01-0.183E+00
CGA:  14    -0.231172283780E+03   -0.67419E-01   -0.73356E-01  8320   0.178E+01-0.248E+00
CGA:  15    -0.231236671446E+03   -0.64388E-01   -0.64281E-01  8320   0.770E+00-0.367E-02
CGA:  16    -0.231286309007E+03   -0.49638E-01   -0.49220E-01  8320   0.950E+00 0.174E-01
CGA:  17    -0.231340862955E+03   -0.54554E-01   -0.54094E-01  8320   0.364E+00 0.308E-01
CGA:  18    -0.231361719078E+03   -0.20856E-01   -0.20765E-01  8320   0.329E+00 0.657E-02
CGA:  19    -0.231372252645E+03   -0.10534E-01   -0.10602E-01  8320   0.422E+00 0.195E-03
CGA:  20    -0.231381789338E+03   -0.95367E-02   -0.98104E-02  8320   0.169E+00-0.512E-02
CGA:  21    -0.231395442761E+03   -0.13653E-01   -0.13628E-01  8320   0.124E+00 0.592E-03
CGA:  22    -0.231399469535E+03   -0.40268E-02   -0.40623E-02  8320   0.143E+00 0.217E-03
CGA:  23    -0.231402942903E+03   -0.34734E-02   -0.35832E-02  8320   0.716E-01-0.163E-02
CGA:  24    -0.231407270026E+03   -0.43271E-02   -0.42968E-02  8320   0.528E-01 0.147E-02
CGA:  25    -0.231409310856E+03   -0.20408E-02   -0.20456E-02  8320   0.822E-01 0.224E-03
CGA:  26    -0.231411745284E+03   -0.24344E-02   -0.24253E-02  8320   0.312E-01 0.724E-04
CGA:  27    -0.231413551645E+03   -0.18064E-02   -0.17964E-02  8320   0.226E-01 0.559E-03
CGA:  28    -0.231414524842E+03   -0.97320E-03   -0.97460E-03  8320   0.397E-01 0.235E-03
CGA:  29    -0.231415845806E+03   -0.13210E-02   -0.13374E-02  8320   0.123E-01 0.258E-03
CGA:  30    -0.231416575166E+03   -0.72936E-03   -0.73156E-03  8320   0.120E-01-0.104E-03
CGA:  31    -0.231417100428E+03   -0.52526E-03   -0.52583E-03  8320   0.201E-01 0.259E-03
SDA:  32    -0.231417818582E+03   -0.71815E-03   -0.71683E-03  8320   0.810E-02-0.134E-04
CGA:  33    -0.231418081617E+03   -0.26304E-03   -0.26346E-03  8320   0.903E-02 0.196E-05
CGA:  34    -0.231418343535E+03   -0.26192E-03   -0.26205E-03  8320   0.318E-02-0.445E-05
CGA:  35    -0.231419128348E+03   -0.78481E-03   -0.15159E-04  8320   0.333E-02-0.389E-03
CGA:  36    -0.231419279756E+03   -0.15141E-03   -0.15365E-03  8320   0.641E-02-0.208E-05
CGA:  37    -0.231419480657E+03   -0.20090E-03   -0.19411E-03  8320   0.218E-02 0.148E-03
CGA:  38    -0.231419679286E+03   -0.19863E-03   -0.19713E-03  8320   0.319E-02 0.729E-04
CGA:  39    -0.231419779143E+03   -0.99857E-04   -0.96949E-04  8320   0.283E-02 0.674E-04
CGA:  40    -0.231419958618E+03   -0.17947E-03   -0.18050E-03  8320   0.164E-02 0.310E-04
CGA:  41    -0.231420084527E+03   -0.12591E-03   -0.12596E-03  8320   0.155E-02-0.973E-05
CGA:  42    -0.231420150697E+03   -0.66169E-04   -0.67494E-04  8320   0.237E-02-0.810E-05
CGA:  43    -0.231420243580E+03   -0.92883E-04   -0.90457E-04  8320   0.892E-03 0.242E-04
CGA:  44    -0.231420319227E+03   -0.75647E-04   -0.75402E-04  8320   0.733E-03 0.103E-04
CGA:  45    -0.231420355233E+03   -0.36006E-04   -0.35840E-04  8320   0.143E-02-0.142E-05
CGA:  46    -0.231420419468E+03   -0.64235E-04   -0.64904E-04  8320   0.272E-03-0.146E-05
CGA:  47    -0.231420452603E+03   -0.33134E-04   -0.33243E-04  8320   0.214E-03-0.225E-05
CGA:  48    -0.231420478094E+03   -0.25491E-04   -0.25516E-04  8320   0.242E-03-0.640E-06
CGA:  49    -0.231420489924E+03   -0.11830E-04   -0.11846E-04  8320   0.385E-03-0.219E-06
CGA:  50    -0.231420502814E+03   -0.12890E-04   -0.12991E-04  8320   0.154E-03-0.164E-05
CGA:  51    -0.231420517996E+03   -0.15182E-04   -0.15154E-04  8320   0.129E-03 0.960E-06
CGA:  52    -0.231420527109E+03   -0.91123E-05   -0.91145E-05  8320   0.103E-03 0.119E-05
  15 F= -.23142053E+03 E0= -.23140409E+03  d E =0.892274E-02  mag=     5.2628
       N       E                     dE             d eps       ncg     rms          ort
SDA:   1    -0.221570444807E+03    0.98501E+01    0.00000E+00  8320   0.466E+02 0.000E+00
CGA:   2    -0.223701743653E+03   -0.21313E+01   -0.22467E+01  8320   0.767E+02 0.446E+00
CGA:   3    -0.227056921622E+03   -0.33552E+01   -0.31399E+01  8320   0.221E+02 0.209E+01
CGA:   4    -0.228755470237E+03   -0.16985E+01   -0.17201E+01  8320   0.251E+02-0.219E+01
CGA:   5    -0.229829390892E+03   -0.10739E+01   -0.93196E+00  8320   0.173E+02 0.159E+01
CGA:   6    -0.230306146495E+03   -0.47676E+00   -0.49810E+00  8320   0.871E+01 0.136E+00
CGA:   7    -0.230887877168E+03   -0.58173E+00   -0.58195E+00  8320   0.673E+01-0.120E+00
CGA:   8    -0.231039525126E+03   -0.15165E+00   -0.16730E+00  8320   0.370E+01-0.389E+00
CGA:   9    -0.231189930559E+03   -0.15041E+00   -0.13989E+00  8320   0.145E+01 0.485E-01
CGA:  10    -0.231236078347E+03   -0.46148E-01   -0.46888E-01  8320   0.116E+01-0.102E-01
CGA:  11    -0.231285251643E+03   -0.49173E-01   -0.49340E-01  8320   0.821E+00 0.135E-02
CGA:  12    -0.231314351493E+03   -0.29100E-01   -0.30288E-01  8320   0.498E+00-0.467E-02
CGA:  13    -0.231330003214E+03   -0.15652E-01   -0.15514E-01  8320   0.259E+00 0.181E-02
CGA:  14    -0.231341453094E+03   -0.11450E-01   -0.11516E-01  8320   0.179E+00 0.115E-02
CGA:  15    -0.231348087757E+03   -0.66347E-02   -0.66744E-02  8320   0.159E+00 0.117E-04
CGA:  16    -0.231355042084E+03   -0.69543E-02   -0.70555E-02  8320   0.752E-01 0.238E-02
CGA:  17    -0.231357940300E+03   -0.28982E-02   -0.28982E-02  8320   0.684E-01 0.323E-04
CGA:  18    -0.231360701072E+03   -0.27608E-02   -0.27643E-02  8320   0.318E-01 0.871E-04
CGA:  19    -0.231362413755E+03   -0.17127E-02   -0.17126E-02  8320   0.445E-01 0.781E-04
CGA:  20    -0.231363920771E+03   -0.15070E-02   -0.15211E-02  8320   0.135E-01-0.284E-04
CGA:  21    -0.231364605478E+03   -0.68471E-03   -0.68492E-03  8320   0.178E-01 0.500E-04
CGA:  22    -0.231365366015E+03   -0.76054E-03   -0.76124E-03  8320   0.105E-01 0.233E-04
CGA:  23    -0.231365794132E+03   -0.42812E-03   -0.42763E-03  8320   0.646E-02-0.404E-05
CGA:  24    -0.231366068879E+03   -0.27475E-03   -0.27498E-03  8320   0.647E-02 0.758E-05
CGA:  25    -0.231366381030E+03   -0.31215E-03   -0.31230E-03  8320   0.294E-02 0.263E-04
CGA:  26    -0.231366487577E+03   -0.10655E-03   -0.10668E-03  8320   0.277E-02 0.366E-05
CGA:  27    -0.231366658567E+03   -0.17099E-03   -0.17100E-03  8320   0.185E-02 0.121E-05
CGA:  28    -0.231366722816E+03   -0.64249E-04   -0.64333E-04  8320   0.141E-02 0.103E-05
CGA:  29    -0.231366790564E+03   -0.67748E-04   -0.67762E-04  8320   0.793E-03 0.390E-05
CGA:  30    -0.231366826955E+03   -0.36391E-04   -0.36407E-04  8320   0.898E-03 0.259E-05
CGA:  31    -0.231366865648E+03   -0.38693E-04   -0.38716E-04  8320   0.427E-03 0.304E-05
SDA:  32    -0.231366885911E+03   -0.20263E-04   -0.20264E-04  8320   0.452E-03 0.319E-06
CGA:  33    -0.231366893430E+03   -0.75189E-05   -0.75166E-05  8320   0.126E-03-0.530E-06
CGA:  34    -0.231366907075E+03   -0.13645E-04   -0.13678E-04  8320   0.187E-03-0.823E-06
CGA:  35    -0.231366927160E+03   -0.20085E-04   -0.20011E-04  8320   0.126E-03 0.105E-05
CGA:  36    -0.231366936523E+03   -0.93631E-05   -0.93617E-05  8320   0.831E-04-0.195E-06
  16 F= -.23136694E+03 E0= -.23135078E+03  d E =0.535906E-01  mag=     5.2491
       N       E                     dE             d eps       ncg     rms          ort
SDA:   1    -0.227440014081E+03    0.39269E+01    0.00000E+00  8320   0.163E+02 0.000E+00
CGA:   2    -0.229346857248E+03   -0.19068E+01   -0.18400E+01  8320   0.108E+02 0.101E+01
CGA:   3    -0.230037081225E+03   -0.69022E+00   -0.68978E+00  8320   0.117E+02 0.990E-01
CGA:   4    -0.230447246789E+03   -0.41017E+00   -0.37312E+00  8320   0.841E+01 0.435E+00
CGA:   5    -0.230929644037E+03   -0.48240E+00   -0.48186E+00  8320   0.458E+01-0.183E+00
CGA:   6    -0.231098907117E+03   -0.16926E+00   -0.18542E+00  8320   0.605E+01 0.163E+00
CGA:   7    -0.231268519078E+03   -0.16961E+00   -0.16370E+00  8320   0.142E+01 0.171E+00
CGA:   8    -0.231361251082E+03   -0.92732E-01   -0.93473E-01  8320   0.489E+00-0.517E-01
CGA:   9    -0.231411042736E+03   -0.49792E-01   -0.49247E-01  8320   0.260E+00 0.101E-01
CGA:  10    -0.231424432158E+03   -0.13389E-01   -0.13491E-01  8320   0.275E+00 0.617E-02
CGA:  11    -0.231430711945E+03   -0.62798E-02   -0.58014E-02  8320   0.689E-01 0.168E-01
CGA:  12    -0.231439701581E+03   -0.89896E-02   -0.89381E-02  8320   0.541E-01 0.765E-03
CGA:  13    -0.231442634129E+03   -0.29325E-02   -0.29447E-02  8320   0.406E-01 0.111E-02
CGA:  14    -0.231443566438E+03   -0.93231E-03   -0.90675E-03  8320   0.172E-01 0.839E-03
CGA:  15    -0.231445068316E+03   -0.15019E-02   -0.14956E-02  8320   0.170E-01 0.179E-03
CGA:  16    -0.231446171484E+03   -0.11032E-02   -0.11011E-02  8320   0.520E-02 0.203E-03
CGA:  17    -0.231446603777E+03   -0.43229E-03   -0.43366E-03  8320   0.587E-02-0.423E-04
CGA:  18    -0.231446782549E+03   -0.17877E-03   -0.18021E-03  8320   0.556E-02-0.187E-04
CGA:  19    -0.231447126272E+03   -0.34372E-03   -0.34370E-03  8320   0.170E-02 0.152E-05
CGA:  20    -0.231447300486E+03   -0.17421E-03   -0.17365E-03  8320   0.123E-02 0.117E-04
CGA:  21    -0.231447341626E+03   -0.41140E-04   -0.41121E-04  8320   0.138E-02-0.511E-06
CGA:  22    -0.231447423821E+03   -0.82195E-04   -0.82188E-04  8320   0.712E-03 0.315E-05
CGA:  23    -0.231447488955E+03   -0.65134E-04   -0.65062E-04  8320   0.256E-03 0.207E-05
CGA:  24    -0.231447499970E+03   -0.11015E-04   -0.11020E-04  8320   0.416E-03-0.468E-06
CGA:  25    -0.231447521989E+03   -0.22019E-04   -0.22013E-04  8320   0.224E-03-0.118E-05
CGA:  26    -0.231447538443E+03   -0.16454E-04   -0.16444E-04  8320   0.978E-04 0.625E-06
CGA:  27    -0.231447543242E+03   -0.47987E-05   -0.48039E-05  8320   0.112E-03 0.312E-06
  17 F= -.23144754E+03 E0= -.23143149E+03  d E =-.806067E-01  mag=     5.2337
       N       E                     dE             d eps       ncg     rms          ort
SDA:   1    -0.231332299854E+03    0.11524E+00    0.00000E+00  8320   0.433E+00 0.000E+00
CGA:   2    -0.231371424329E+03   -0.39124E-01   -0.38506E-01  8320   0.743E+00 0.169E-01
CGA:   3    -0.231395053131E+03   -0.23629E-01   -0.23017E-01  8320   0.468E+00 0.104E-01
CGA:   4    -0.231415975912E+03   -0.20923E-01   -0.20827E-01  8320   0.185E+00-0.113E-02
CGA:   5    -0.231433113897E+03   -0.17138E-01   -0.17055E-01  8320   0.113E+00 0.204E-02
CGA:   6    -0.231441873732E+03   -0.87598E-02   -0.87673E-02  8320   0.111E+00-0.313E-03
CGA:   7    -0.231444033995E+03   -0.21603E-02   -0.21167E-02  8320   0.250E-01 0.175E-02
CGA:   8    -0.231446156444E+03   -0.21224E-02   -0.21184E-02  8320   0.147E-01 0.131E-03
CGA:   9    -0.231447077006E+03   -0.92056E-03   -0.92074E-03  8320   0.665E-02-0.338E-04
CGA:  10    -0.231447378446E+03   -0.30144E-03   -0.30144E-03  8320   0.764E-02 0.100E-05
CGA:  11    -0.231447587755E+03   -0.20931E-03   -0.21027E-03  8320   0.222E-02-0.184E-04
CGA:  12    -0.231447819701E+03   -0.23195E-03   -0.23203E-03  8320   0.105E-02-0.144E-05
CGA:  13    -0.231447907108E+03   -0.87407E-04   -0.87329E-04  8320   0.654E-03 0.329E-05
CGA:  14    -0.231447948898E+03   -0.41790E-04   -0.41790E-04  8320   0.622E-03 0.194E-06
CGA:  15    -0.231447967074E+03   -0.18175E-04   -0.18173E-04  8320   0.484E-03 0.241E-06
CGA:  16    -0.231447997518E+03   -0.30444E-04   -0.30441E-04  8320   0.145E-03 0.642E-06
CGA:  17    -0.231448009803E+03   -0.12285E-04   -0.12264E-04  8320   0.112E-03 0.923E-06
CGA:  18    -0.231448022223E+03   -0.12420E-04   -0.12424E-04  8320   0.645E-04-0.903E-07
CGA:  19    -0.231448027220E+03   -0.49976E-05   -0.50022E-05  8320   0.527E-04-0.311E-06
  18 F= -.23144803E+03 E0= -.23143198E+03  d E =-.483978E-03  mag=     5.2318
       N       E                     dE             d eps       ncg     rms          ort
SDA:   1    -0.230372836342E+03    0.10752E+01    0.00000E+00  8320   0.349E+01 0.000E+00
CGA:   2    -0.230810021654E+03   -0.43719E+00   -0.44412E+00  8320   0.614E+01-0.117E+00
CGA:   3    -0.231016096504E+03   -0.20607E+00   -0.23053E+00  8320   0.565E+01-0.131E+00
CGA:   4    -0.231174135286E+03   -0.15804E+00   -0.16193E+00  8320   0.182E+01-0.508E-01
CGA:   5    -0.231317990075E+03   -0.14385E+00   -0.14474E+00  8320   0.111E+01-0.368E-01
CGA:   6    -0.231395990577E+03   -0.78001E-01   -0.77978E-01  8320   0.527E+00 0.170E-02
CGA:   7    -0.231410211588E+03   -0.14221E-01   -0.14336E-01  8320   0.345E+00-0.271E-02
CGA:   8    -0.231427695940E+03   -0.17484E-01   -0.17291E-01  8320   0.114E+00-0.410E-02
CGA:   9    -0.231435449365E+03   -0.77534E-02   -0.77357E-02  8320   0.123E+00 0.157E-02
CGA:  10    -0.231438305276E+03   -0.28559E-02   -0.28820E-02  8320   0.351E-01-0.790E-03
CGA:  11    -0.231441131936E+03   -0.28267E-02   -0.28267E-02  8320   0.256E-01 0.159E-05
CGA:  12    -0.231441890613E+03   -0.75868E-03   -0.75110E-03  8320   0.194E-01 0.143E-03
CGA:  13    -0.231443211813E+03   -0.13212E-02   -0.13207E-02  8320   0.855E-02 0.417E-04
CGA:  14    -0.231443541587E+03   -0.32977E-03   -0.32995E-03  8320   0.769E-02 0.110E-05
CGA:  15    -0.231443828253E+03   -0.28667E-03   -0.28749E-03  8320   0.369E-02 0.215E-05
CGA:  16    -0.231444071701E+03   -0.24345E-03   -0.24352E-03  8320   0.373E-02-0.386E-05
CGA:  17    -0.231444206895E+03   -0.13519E-03   -0.13541E-03  8320   0.295E-02-0.368E-06
CGA:  18    -0.231444325340E+03   -0.11844E-03   -0.11850E-03  8320   0.810E-03 0.124E-05
CGA:  19    -0.231444381270E+03   -0.55930E-04   -0.55890E-04  8320   0.188E-02 0.282E-05
CGA:  20    -0.231444456483E+03   -0.75213E-04   -0.75242E-04  8320   0.549E-03 0.298E-05
CGA:  21    -0.231444489466E+03   -0.32983E-04   -0.32975E-04  8320   0.660E-03 0.899E-06
CGA:  22    -0.231444510324E+03   -0.20858E-04   -0.20871E-04  8320   0.358E-03-0.190E-06
[...]
CGA:  39    -0.232123258976E+03   -0.11659E-04   -0.11679E-04  8320   0.208E-03 0.206E-05
CGA:  40    -0.232123270143E+03   -0.11166E-04   -0.11141E-04  8320   0.254E-03 0.171E-05
SDA:  41    -0.232123281561E+03   -0.11419E-04   -0.11411E-04  8320   0.168E-03 0.274E-05
CGA:  42    -0.232123284051E+03   -0.24897E-05   -0.24838E-05  8320   0.337E-04-0.474E-06
 143 F= -.23212328E+03 E0= -.23210701E+03  d E =-.464969E+00  mag=     5.0743
       N       E                     dE             d eps       ncg     rms          ort
SDA:   1    -0.230768691416E+03    0.13546E+01    0.00000E+00  8320   0.690E+01 0.000E+00
CGA:   2    -0.231001358733E+03   -0.23267E+00   -0.23465E+00  8320   0.918E+01-0.257E-03
CGA:   3    -0.231581176142E+03   -0.57982E+00   -0.59782E+00  8320   0.444E+01-0.780E+00
CGA:   4    -0.231740558874E+03   -0.15938E+00   -0.16648E+00  8320   0.307E+01 0.363E+00
CGA:   5    -0.231855631600E+03   -0.11507E+00   -0.11543E+00  8320   0.293E+01 0.377E-02
CGA:   6    -0.232043008346E+03   -0.18738E+00   -0.18656E+00  8320   0.123E+01 0.354E-01
CGA:   7    -0.232082298643E+03   -0.39290E-01   -0.36128E-01  8320   0.750E+00 0.258E-01
CGA:   8    -0.232117466747E+03   -0.35168E-01   -0.35164E-01  8320   0.389E+00-0.252E-02
CGA:   9    -0.232139048002E+03   -0.21581E-01   -0.21575E-01  8320   0.346E+00 0.448E-03
CGA:  10    -0.232147080390E+03   -0.80324E-02   -0.84350E-02  8320   0.103E+00-0.745E-02
CGA:  11    -0.232153247989E+03   -0.61676E-02   -0.61894E-02  8320   0.963E-01-0.107E-02
CGA:  12    -0.232156087596E+03   -0.28396E-02   -0.28383E-02  8320   0.511E-01 0.491E-05
CGA:  13    -0.232158570157E+03   -0.24826E-02   -0.24849E-02  8320   0.319E-01-0.476E-03
CGA:  14    -0.232159903919E+03   -0.13338E-02   -0.13350E-02  8320   0.329E-01 0.134E-03
CGA:  15    -0.232161128451E+03   -0.12245E-02   -0.12244E-02  8320   0.928E-02-0.106E-05
CGA:  16    -0.232161537532E+03   -0.40908E-03   -0.40912E-03  8320   0.122E-01 0.189E-04
CGA:  17    -0.232162142296E+03   -0.60476E-03   -0.60520E-03  8320   0.745E-02-0.566E-04
CGA:  18    -0.232162467565E+03   -0.32527E-03   -0.32534E-03  8320   0.655E-02 0.207E-04
CGA:  19    -0.232162683724E+03   -0.21616E-03   -0.21612E-03  8320   0.266E-02-0.103E-05
CGA:  20    -0.232162821247E+03   -0.13752E-03   -0.13740E-03  8320   0.289E-02 0.132E-04
CGA:  21    -0.232162935400E+03   -0.11415E-03   -0.11412E-03  8320   0.234E-02-0.276E-06
CGA:  22    -0.232163075330E+03   -0.13993E-03   -0.13988E-03  8320   0.194E-02 0.226E-05
CGA:  23    -0.232163129361E+03   -0.54031E-04   -0.53963E-04  8320   0.829E-03-0.112E-05
CGA:  24    -0.232163174450E+03   -0.45089E-04   -0.45075E-04  8320   0.748E-03 0.695E-06
CGA:  25    -0.232163203516E+03   -0.29066E-04   -0.29060E-04  8320   0.700E-03-0.726E-06
CGA:  26    -0.232163244268E+03   -0.40752E-04   -0.40739E-04  8320   0.488E-03 0.461E-06
CGA:  27    -0.232163259417E+03   -0.15149E-04   -0.15130E-04  8320   0.299E-03-0.122E-05
CGA:  28    -0.232163274572E+03   -0.15155E-04   -0.15160E-04  8320   0.201E-03-0.115E-05
CGA:  29    -0.232163282090E+03   -0.75179E-05   -0.75154E-05  8320   0.176E-03-0.473E-06
 144 F= -.23216328E+03 E0= -.23214709E+03  d E =-.399980E-01  mag=     5.0676
       N       E                     dE             d eps       ncg     rms          ort
SDA:   1    -0.230999305911E+03    0.11640E+01    0.00000E+00  8320   0.850E+01 0.000E+00
CGA:   2    -0.231179186315E+03   -0.17988E+00   -0.18903E+00  8320   0.547E+01-0.236E+00
CGA:   3    -0.231696866583E+03   -0.51768E+00   -0.53551E+00  8320   0.400E+01-0.354E+00
CGA:   4    -0.231834958980E+03   -0.13809E+00   -0.14417E+00  8320   0.303E+01 0.219E+00
CGA:   5    -0.231938277609E+03   -0.10332E+00   -0.10254E+00  8320   0.203E+01 0.139E-02
CGA:   6    -0.232075284491E+03   -0.13701E+00   -0.13547E+00  8320   0.120E+01 0.563E-01
CGA:   7    -0.232109770023E+03   -0.34486E-01   -0.32493E-01  8320   0.632E+00 0.276E-01
CGA:   8    -0.232146122097E+03   -0.36352E-01   -0.36389E-01  8320   0.322E+00-0.226E-02
CGA:   9    -0.232157046701E+03   -0.10925E-01   -0.10891E-01  8320   0.243E+00-0.339E-03
CGA:  10    -0.232166655316E+03   -0.96086E-02   -0.96907E-02  8320   0.102E+00 0.524E-02
CGA:  11    -0.232171877981E+03   -0.52227E-02   -0.52391E-02  8320   0.888E-01-0.193E-02
CGA:  12    -0.232174278300E+03   -0.24003E-02   -0.24068E-02  8320   0.330E-01-0.227E-04
CGA:  13    -0.232176651576E+03   -0.23733E-02   -0.23866E-02  8320   0.301E-01-0.429E-03
CGA:  14    -0.232177542368E+03   -0.89079E-03   -0.89575E-03  8320   0.210E-01-0.874E-05
CGA:  15    -0.232178667599E+03   -0.11252E-02   -0.11249E-02  8320   0.896E-02 0.239E-04
CGA:  16    -0.232179066639E+03   -0.39904E-03   -0.39906E-03  8320   0.111E-01 0.962E-05
CGA:  17    -0.232179493926E+03   -0.42729E-03   -0.42645E-03  8320   0.447E-02-0.362E-04
CGA:  18    -0.232179824213E+03   -0.33029E-03   -0.32911E-03  8320   0.690E-02 0.359E-04
CGA:  19    -0.232180010997E+03   -0.18678E-03   -0.18681E-03  8320   0.217E-02 0.286E-06
CGA:  20    -0.232180156854E+03   -0.14586E-03   -0.14566E-03  8320   0.236E-02 0.843E-05
CGA:  21    -0.232180238033E+03   -0.81179E-04   -0.81104E-04  8320   0.186E-02-0.534E-06
CGA:  22    -0.232180342924E+03   -0.10489E-03   -0.10490E-03  8320   0.110E-02-0.155E-05
CGA:  23    -0.232180389316E+03   -0.46392E-04   -0.46388E-04  8320   0.114E-02-0.141E-05
CGA:  24    -0.232180431392E+03   -0.42076E-04   -0.42103E-04  8320   0.421E-03 0.703E-06
CGA:  25    -0.232180459808E+03   -0.28417E-04   -0.28462E-04  8320   0.693E-03-0.225E-05
CGA:  26    -0.232180480325E+03   -0.20517E-04   -0.20500E-04  8320   0.216E-03-0.143E-05
CGA:  27    -0.232180497622E+03   -0.17297E-04   -0.17320E-04  8320   0.330E-03-0.951E-06
CGA:  28    -0.232180505875E+03   -0.82530E-05   -0.82642E-05  8320   0.940E-04-0.452E-07
 145 F= -.23218051E+03 E0= -.23216454E+03  d E =-.172238E-01  mag=     5.0542
       N       E                     dE             d eps       ncg     rms          ort
SDA:   1    -0.231806581452E+03    0.37392E+00    0.00000E+00  8320   0.127E+01 0.000E+00
CGA:   2    -0.231929659249E+03   -0.12308E+00   -0.13086E+00  8320   0.428E+01-0.151E+00
CGA:   3    -0.232017452159E+03   -0.87793E-01   -0.88590E-01  8320   0.126E+01-0.213E-01
CGA:   4    -0.232084440029E+03   -0.66988E-01   -0.66583E-01  8320   0.794E+00 0.657E-01
CGA:   5    -0.232107297048E+03   -0.22857E-01   -0.22635E-01  8320   0.773E+00 0.302E-02
CGA:   6    -0.232149897965E+03   -0.42601E-01   -0.42574E-01  8320   0.351E+00 0.252E-02
CGA:   7    -0.232158048126E+03   -0.81502E-02   -0.82211E-02  8320   0.266E+00-0.169E-02
CGA:   8    -0.232169682952E+03   -0.11635E-01   -0.11623E-01  8320   0.865E-01-0.130E-02
CGA:   9    -0.232172799749E+03   -0.31168E-02   -0.31158E-02  8320   0.112E+00-0.110E-04
CGA:  10    -0.232176247349E+03   -0.34476E-02   -0.34660E-02  8320   0.269E-01 0.157E-04
CGA:  11    -0.232177902543E+03   -0.16552E-02   -0.16556E-02  8320   0.433E-01-0.223E-04
CGA:  12    -0.232178781153E+03   -0.87861E-03   -0.87309E-03  8320   0.797E-02 0.167E-03
CGA:  13    -0.232179445717E+03   -0.66456E-03   -0.66356E-03  8320   0.145E-01 0.252E-04
CGA:  14    -0.232179740078E+03   -0.29436E-03   -0.29493E-03  8320   0.485E-02-0.157E-04
CGA:  15    -0.232180089584E+03   -0.34951E-03   -0.34996E-03  8320   0.356E-02-0.160E-04
CGA:  16    -0.232180172579E+03   -0.82995E-04   -0.82783E-04  8320   0.245E-02 0.377E-05
CGA:  17    -0.232180305745E+03   -0.13317E-03   -0.13303E-03  8320   0.132E-02 0.123E-04
CGA:  18    -0.232180373049E+03   -0.67304E-04   -0.67287E-04  8320   0.237E-02 0.164E-05
CGA:  19    -0.232180440540E+03   -0.67491E-04   -0.67338E-04  8320   0.634E-03-0.148E-05
CGA:  20    -0.232180487786E+03   -0.47247E-04   -0.47206E-04  8320   0.911E-03 0.153E-05
CGA:  21    -0.232180506426E+03   -0.18640E-04   -0.18682E-04  8320   0.341E-03 0.102E-05
CGA:  22    -0.232180540933E+03   -0.34507E-04   -0.34544E-04  8320   0.351E-03-0.674E-06
CGA:  23    -0.232180549494E+03   -0.85610E-05   -0.85448E-05  8320   0.273E-03-0.375E-06
CGA:  24    -0.232180567359E+03   -0.17865E-04   -0.17876E-04  8320   0.134E-03-0.642E-06
CGA:  25    -0.232180573326E+03   -0.59667E-05   -0.59647E-05  8320   0.202E-03-0.754E-06
 146 F= -.23218057E+03 E0= -.23216478E+03  d E =-.674509E-04  mag=     5.0456
       N       E                     dE             d eps       ncg     rms          ort
SDA:   1    -0.232110111876E+03    0.70455E-01    0.00000E+00  8320   0.278E+00 0.000E+00
CGA:   2    -0.232127275346E+03   -0.17163E-01   -0.16931E-01  8320   0.519E+00 0.123E-01
CGA:   3    -0.232145460730E+03   -0.18185E-01   -0.18098E-01  8320   0.275E+00-0.294E-03
CGA:   4    -0.232161894170E+03   -0.16433E-01   -0.16394E-01  8320   0.967E-01 0.223E-02
CGA:   5    -0.232168065480E+03   -0.61713E-02   -0.61834E-02  8320   0.191E+00-0.575E-03
CGA:   6    -0.232173574961E+03   -0.55095E-02   -0.55321E-02  8320   0.429E-01-0.183E-03
CGA:   7    -0.232176960761E+03   -0.33858E-02   -0.33690E-02  8320   0.153E-01 0.482E-03
CGA:   8    -0.232177607148E+03   -0.64639E-03   -0.64660E-03  8320   0.205E-01 0.118E-04
CGA:   9    -0.232178367208E+03   -0.76006E-03   -0.75864E-03  8320   0.566E-02-0.189E-04
CGA:  10    -0.232178785740E+03   -0.41853E-03   -0.41702E-03  8320   0.234E-02 0.520E-04
CGA:  11    -0.232178868189E+03   -0.82450E-04   -0.82404E-04  8320   0.286E-02-0.132E-05
CGA:  12    -0.232179032233E+03   -0.16404E-03   -0.16406E-03  8320   0.940E-03-0.168E-05
CGA:  13    -0.232179093529E+03   -0.61295E-04   -0.61275E-04  8320   0.674E-03 0.163E-05
CGA:  14    -0.232179115025E+03   -0.21497E-04   -0.21521E-04  8320   0.636E-03 0.198E-06
CGA:  15    -0.232179151983E+03   -0.36958E-04   -0.36972E-04  8320   0.237E-03-0.155E-05
CGA:  16    -0.232179170419E+03   -0.18436E-04   -0.18413E-04  8320   0.273E-03 0.806E-06
CGA:  17    -0.232179177105E+03   -0.66861E-05   -0.66797E-05  8320   0.131E-03 0.139E-07
CGA:  18    -0.232179189275E+03   -0.12169E-04   -0.12197E-04  8320   0.717E-04-0.670E-06
CGA:  19    -0.232179193159E+03   -0.38844E-05   -0.38850E-05  8320   0.130E-03-0.193E-06
 147 F= -.23217919E+03 E0= -.23216345E+03  d E =0.138017E-02  mag=     5.0426
       N       E                     dE             d eps       ncg     rms          ort
SDA:   1    -0.232155546432E+03    0.23643E-01    0.00000E+00  8320   0.132E+00 0.000E+00
CGA:   2    -0.232159248543E+03   -0.37021E-02   -0.36977E-02  8320   0.123E+00 0.677E-04
CGA:   3    -0.232166839124E+03   -0.75906E-02   -0.76838E-02  8320   0.929E-01-0.527E-02
CGA:   4    -0.232172811592E+03   -0.59725E-02   -0.59253E-02  8320   0.348E-01 0.217E-02
CGA:   5    -0.232174263078E+03   -0.14515E-02   -0.14522E-02  8320   0.517E-01 0.147E-04
CGA:   6    -0.232176781770E+03   -0.25187E-02   -0.25191E-02  8320   0.173E-01 0.999E-04
CGA:   7    -0.232177831825E+03   -0.10501E-02   -0.10518E-02  8320   0.654E-02-0.121E-03
CGA:   8    -0.232178030186E+03   -0.19836E-03   -0.19876E-03  8320   0.600E-02-0.405E-05
CGA:   9    -0.232178342075E+03   -0.31189E-03   -0.31188E-03  8320   0.182E-02 0.163E-05
CGA:  10    -0.232178471443E+03   -0.12937E-03   -0.12934E-03  8320   0.202E-02 0.134E-05
CGA:  11    -0.232178513949E+03   -0.42506E-04   -0.42392E-04  8320   0.463E-03 0.355E-05
CGA:  12    -0.232178572863E+03   -0.58914E-04   -0.58894E-04  8320   0.547E-03 0.285E-06
CGA:  13    -0.232178587308E+03   -0.14445E-04   -0.14455E-04  8320   0.284E-03 0.676E-06
CGA:  14    -0.232178598592E+03   -0.11284E-04   -0.11308E-04  8320   0.123E-03 0.164E-05
CGA:  15    -0.232178611467E+03   -0.12875E-04   -0.12896E-04  8320   0.192E-03-0.390E-06
CGA:  16    -0.232178615705E+03   -0.42376E-05   -0.42381E-05  8320   0.622E-04-0.104E-06
 148 F= -.23217862E+03 E0= -.23216287E+03  d E =0.577454E-03  mag=     5.0414
       N       E                     dE             d eps       ncg     rms          ort
SDA:   1    -0.232124890268E+03    0.53721E-01    0.00000E+00  8320   0.268E+00 0.000E+00
CGA:   2    -0.232131384399E+03   -0.64941E-02   -0.62800E-02  8320   0.211E+00 0.573E-02
CGA:   3    -0.232157534376E+03   -0.26150E-01   -0.26231E-01  8320   0.185E+00-0.129E-02
CGA:   4    -0.232168735037E+03   -0.11201E-01   -0.11156E-01  8320   0.108E+00 0.600E-02
CGA:   5    -0.232171130920E+03   -0.23959E-02   -0.23916E-02  8320   0.507E-01 0.130E-03
CGA:   6    -0.232175163239E+03   -0.40323E-02   -0.40355E-02  8320   0.224E-01-0.998E-04
CGA:   7    -0.232176765289E+03   -0.16021E-02   -0.16025E-02  8320   0.729E-02-0.248E-04
CGA:   8    -0.232177098832E+03   -0.33354E-03   -0.33413E-03  8320   0.943E-02 0.165E-04
CGA:   9    -0.232177394380E+03   -0.29555E-03   -0.29519E-03  8320   0.350E-02 0.648E-05
CGA:  10    -0.232177650554E+03   -0.25617E-03   -0.25631E-03  8320   0.962E-03-0.613E-05
CGA:  11    -0.232177707695E+03   -0.57141E-04   -0.57140E-04  8320   0.184E-02 0.372E-06
CGA:  12    -0.232177765393E+03   -0.57698E-04   -0.57797E-04  8320   0.517E-03 0.602E-06
CGA:  13    -0.232177811419E+03   -0.46026E-04   -0.46049E-04  8320   0.228E-03-0.713E-06
CGA:  14    -0.232177819869E+03   -0.84499E-05   -0.84564E-05  8320   0.299E-03 0.249E-06
CGA:  15    -0.232177835362E+03   -0.15493E-04   -0.15494E-04  8320   0.967E-04 0.127E-06
CGA:  16    -0.232177844055E+03   -0.86926E-05   -0.87191E-05  8320   0.124E-03-0.845E-06
 149 F= -.23217784E+03 E0= -.23216211E+03  d E =0.771650E-03  mag=     5.0424
       N       E                     dE             d eps       ncg     rms          ort
SDA:   1    -0.232153951444E+03    0.23884E-01    0.00000E+00  8320   0.555E+00 0.000E+00
CGA:   2    -0.232161857084E+03   -0.79056E-02   -0.76926E-02  8320   0.602E-01 0.127E-01
CGA:   3    -0.232166952313E+03   -0.50952E-02   -0.50998E-02  8320   0.796E-01-0.135E-03
CGA:   4    -0.232172664413E+03   -0.57121E-02   -0.57048E-02  8320   0.135E+00 0.320E-03
CGA:   5    -0.232175452228E+03   -0.27878E-02   -0.27075E-02  8320   0.147E-01 0.293E-02
CGA:   6    -0.232177376621E+03   -0.19244E-02   -0.19241E-02  8320   0.224E-01 0.447E-05
CGA:   7    -0.232177795042E+03   -0.41842E-03   -0.42189E-03  8320   0.695E-02-0.137E-03
CGA:   8    -0.232178266886E+03   -0.47184E-03   -0.47207E-03  8320   0.232E-02-0.146E-04
CGA:   9    -0.232178406916E+03   -0.14003E-03   -0.14007E-03  8320   0.355E-02-0.590E-05
CGA:  10    -0.232178491834E+03   -0.84918E-04   -0.84914E-04  8320   0.963E-03-0.164E-05
CGA:  11    -0.232178552664E+03   -0.60830E-04   -0.60867E-04  8320   0.432E-03-0.396E-05
CGA:  12    -0.232178583534E+03   -0.30870E-04   -0.30860E-04  8320   0.742E-03 0.679E-06
CGA:  13    -0.232178600150E+03   -0.16616E-04   -0.16666E-04  8320   0.172E-03 0.355E-06
CGA:  14    -0.232178614876E+03   -0.14726E-04   -0.14732E-04  8320   0.843E-04-0.190E-06
CGA:  15    -0.232178621460E+03   -0.65835E-05   -0.65812E-05  8320   0.184E-03 0.119E-06
 150 F= -.23217862E+03 E0= -.23216290E+03  d E =-.777405E-03  mag=     5.0437
       N       E                     dE             d eps       ncg     rms          ort
SDA:   1    -0.231982928523E+03    0.19569E+00    0.00000E+00  8320   0.617E+00 0.000E+00
CGA:   2    -0.232028641827E+03   -0.45713E-01   -0.46290E-01  8320   0.196E+01-0.226E-01
CGA:   3    -0.232097337837E+03   -0.68696E-01   -0.68453E-01  8320   0.837E+00 0.696E-03
CGA:   4    -0.232141206275E+03   -0.43868E-01   -0.43991E-01  8320   0.365E+00 0.183E-01
CGA:   5    -0.232150928985E+03   -0.97227E-02   -0.96952E-02  8320   0.302E+00 0.547E-03
CGA:   6    -0.232169150390E+03   -0.18221E-01   -0.18181E-01  8320   0.977E-01 0.385E-02
CGA:   7    -0.232174412697E+03   -0.52623E-02   -0.52638E-02  8320   0.126E+00 0.660E-03
CGA:   8    -0.232177134587E+03   -0.27219E-02   -0.25804E-02  8320   0.250E-01 0.494E-02
CGA:   9    -0.232178913153E+03   -0.17786E-02   -0.17770E-02  8320   0.269E-01 0.720E-04
CGA:  10    -0.232179491864E+03   -0.57871E-03   -0.58553E-03  8320   0.132E-01-0.207E-03
CGA:  11    -0.232180351914E+03   -0.86005E-03   -0.86109E-03  8320   0.469E-02-0.526E-04
CGA:  12    -0.232180489454E+03   -0.13754E-03   -0.13745E-03  8320   0.534E-02-0.878E-06
CGA:  13    -0.232180789156E+03   -0.29970E-03   -0.29954E-03  8320   0.200E-02 0.186E-04
CGA:  14    -0.232180884828E+03   -0.95672E-04   -0.95700E-04  8320   0.231E-02 0.512E-05
CGA:  15    -0.232180940470E+03   -0.55642E-04   -0.55470E-04  8320   0.853E-03 0.584E-05
CGA:  16    -0.232181014167E+03   -0.73697E-04   -0.73834E-04  8320   0.602E-03-0.371E-05
CGA:  17    -0.232181028213E+03   -0.14046E-04   -0.14071E-04  8320   0.433E-03-0.374E-07
CGA:  18    -0.232181058827E+03   -0.30615E-04   -0.30565E-04  8320   0.224E-03 0.216E-05
CGA:  19    -0.232181071530E+03   -0.12703E-04   -0.12706E-04  8320   0.433E-03-0.851E-06
CGA:  20    -0.232181083605E+03   -0.12075E-04   -0.12064E-04  8320   0.115E-03-0.527E-06
CGA:  21    -0.232181092915E+03   -0.93100E-05   -0.92773E-05  8320   0.129E-03 0.955E-06
 151 F= -.23218109E+03 E0= -.23216538E+03  d E =-.247145E-02  mag=     5.0458
       N       E                     dE             d eps       ncg     rms          ort
SDA:   1    -0.232139890623E+03    0.41193E-01    0.00000E+00  8320   0.224E+00 0.000E+00
CGA:   2    -0.232148811788E+03   -0.89212E-02   -0.89012E-02  8320   0.258E+00-0.390E-03
CGA:   3    -0.232158160030E+03   -0.93482E-02   -0.93890E-02  8320   0.166E+00 0.472E-03
CGA:   4    -0.232170862059E+03   -0.12702E-01   -0.12776E-01  8320   0.563E-01-0.234E-02
CGA:   5    -0.232174897852E+03   -0.40358E-02   -0.40327E-02  8320   0.114E+00 0.118E-03
CGA:   6    -0.232177948665E+03   -0.30508E-02   -0.30060E-02  8320   0.274E-01 0.847E-03
CGA:   7    -0.232179987852E+03   -0.20392E-02   -0.20197E-02  8320   0.100E-01 0.696E-03
CGA:   8    -0.232180458050E+03   -0.47020E-03   -0.46961E-03  8320   0.136E-01-0.315E-04
CGA:   9    -0.232180886695E+03   -0.42865E-03   -0.42839E-03  8320   0.318E-02 0.131E-04
CGA:  10    -0.232181162404E+03   -0.27571E-03   -0.27546E-03  8320   0.106E-02 0.678E-05
CGA:  11    -0.232181223798E+03   -0.61394E-04   -0.61386E-04  8320   0.216E-02 0.128E-05
CGA:  12    -0.232181299934E+03   -0.76136E-04   -0.75965E-04  8320   0.601E-03-0.494E-06
CGA:  13    -0.232181336753E+03   -0.36819E-04   -0.36844E-04  8320   0.252E-03-0.289E-05
CGA:  14    -0.232181355530E+03   -0.18777E-04   -0.18783E-04  8320   0.541E-03-0.425E-06
CGA:  15    -0.232181370022E+03   -0.14492E-04   -0.14516E-04  8320   0.122E-03 0.863E-07
CGA:  16    -0.232181381142E+03   -0.11119E-04   -0.11154E-04  8320   0.758E-04-0.902E-06
CGA:  17    -0.232181385035E+03   -0.38938E-05   -0.38945E-05  8320   0.123E-03 0.278E-06
 152 F= -.23218139E+03 E0= -.23216569E+03  d E =-.292121E-03  mag=     5.0445
       N       E                     dE             d eps       ncg     rms          ort
SDA:   1    -0.232175850037E+03    0.55311E-02    0.00000E+00  8320   0.444E-01 0.000E+00
CGA:   2    -0.232177064384E+03   -0.12143E-02   -0.12150E-02  8320   0.289E-01-0.622E-06
CGA:   3    -0.232178069518E+03   -0.10051E-02   -0.10105E-02  8320   0.155E-01 0.250E-04
CGA:   4    -0.232179908889E+03   -0.18394E-02   -0.18441E-02  8320   0.832E-02-0.722E-04
CGA:   5    -0.232180462519E+03   -0.55363E-03   -0.55355E-03  8320   0.784E-02 0.671E-05
CGA:   6    -0.232180643716E+03   -0.18120E-03   -0.18060E-03  8320   0.347E-02 0.172E-04
CGA:   7    -0.232180892324E+03   -0.24861E-03   -0.24802E-03  8320   0.137E-02 0.252E-04
CGA:   8    -0.232181001492E+03   -0.10917E-03   -0.10914E-03  8320   0.689E-03 0.191E-05
CGA:   9    -0.232181017070E+03   -0.15578E-04   -0.15610E-04  8320   0.384E-03 0.397E-06
CGA:  10    -0.232181048517E+03   -0.31447E-04   -0.31444E-04  8320   0.135E-03 0.115E-06
CGA:  11    -0.232181058816E+03   -0.10299E-04   -0.10287E-04  8320   0.193E-03 0.565E-06
CGA:  12    -0.232181063307E+03   -0.44905E-05   -0.44815E-05  8320   0.573E-04-0.369E-08
 153 F= -.23218106E+03 E0= -.23216538E+03  d E =0.321729E-03  mag=     5.0442
