       N       E                     dE             d eps       ncg     rms          ort
DAV:   1     0.602358377430E+04    0.60236E+04   -0.27014E+05  8112   0.166E+03
DAV:   2     0.347064817263E+03   -0.56765E+04   -0.51879E+04  8112   0.463E+02
DAV:   3    -0.367107517043E+03   -0.71417E+03   -0.69944E+03  8112   0.183E+02
DAV:   4    -0.388931884213E+03   -0.21824E+02   -0.21694E+02  8112   0.333E+01
DAV:   5    -0.389339990997E+03   -0.40811E+00   -0.40515E+00  8112   0.409E+00
SDA:   6    -0.125796765626E+03    0.26354E+03   -0.40515E+00  8112   0.115E+04 0.000E+00
CGA:   7    -0.265008920488E+03   -0.13921E+03   -0.14065E+03  8112   0.371E+03-0.458E+01
CGA:   8    -0.282591419675E+03   -0.17582E+02   -0.23095E+02  8112   0.175E+03-0.312E+02
CGA:   9    -0.293876646640E+03   -0.11285E+02   -0.10104E+02  8112   0.146E+03-0.383E+02
CGA:  10    -0.300266842679E+03   -0.63902E+01   -0.85830E+01  8112   0.107E+03-0.163E+01
CGA:  11    -0.306163354906E+03   -0.58965E+01   -0.48854E+01  8112   0.165E+03-0.115E+03
CGA:  12    -0.305853100313E+03    0.31025E+00   -0.10108E+02  8112   0.100E+03-0.342E+02
CGA:  13    -0.311513673574E+03   -0.56606E+01   -0.32634E+01  8112   0.135E+03-0.102E+03
CGA:  14    -0.310007661029E+03    0.15060E+01   -0.80453E+01  8112   0.161E+03-0.512E+02
CGA:  15    -0.312399435625E+03   -0.23918E+01   -0.45632E+01  8112   0.233E+03-0.300E+02
CGA:  16    -0.309783184994E+03    0.26163E+01   -0.11968E+02  8112   0.120E+03-0.431E+01
CGA:  17    -0.316071169781E+03   -0.62880E+01   -0.45596E+01  8112   0.468E+02-0.916E+02
CGA:  18    -0.317154725623E+03   -0.10836E+01   -0.18405E+01  8112   0.378E+02-0.453E+02
CGA:  19    -0.317396431848E+03   -0.24171E+00   -0.14980E+01  8112   0.337E+02-0.306E+02
CGA:  20    -0.317711366674E+03   -0.31493E+00   -0.11713E+01  8112   0.314E+02-0.329E+02
CGA:  21    -0.317848497140E+03   -0.13713E+00   -0.10765E+01  8112   0.278E+02-0.262E+02
CGA:  22    -0.318105126669E+03   -0.25663E+00   -0.86341E+00  8112   0.216E+02-0.231E+02
CGA:  23    -0.318314903503E+03   -0.20978E+00   -0.63613E+00  8112   0.146E+02-0.153E+02
CGA:  24    -0.318517845559E+03   -0.20294E+00   -0.38776E+00  8112   0.682E+01-0.735E+01
CGA:  25    -0.318645302912E+03   -0.12746E+00   -0.16935E+00  8112   0.285E+01-0.182E+01
CGA:  26    -0.319170318212E+03   -0.52502E+00   -0.46653E+00  8112   0.152E+01 0.496E+00
CGA:  27    -0.319249223753E+03   -0.78906E-01   -0.97746E-01  8112   0.116E+01-0.151E+00
CGA:  28    -0.319391747288E+03   -0.14252E+00   -0.14042E+00  8112   0.539E+00 0.463E-01
CGA:  29    -0.319436961401E+03   -0.45214E-01   -0.46667E-01  8112   0.244E+00 0.118E-01
CGA:  30    -0.319464127011E+03   -0.27166E-01   -0.27116E-01  8112   0.134E+00 0.122E-01
CGA:  31    -0.319483399042E+03   -0.19272E-01   -0.18710E-01  8112   0.770E-01 0.148E-01
CGA:  32    -0.319493814238E+03   -0.10415E-01   -0.10378E-01  8112   0.426E-01 0.172E-02
CGA:  33    -0.319500252788E+03   -0.64386E-02   -0.62557E-02  8112   0.231E-01 0.381E-02
CGA:  34    -0.319503322704E+03   -0.30699E-02   -0.30684E-02  8112   0.148E-01 0.856E-04
CGA:  35    -0.319505380738E+03   -0.20580E-02   -0.20516E-02  8112   0.677E-02 0.158E-03
CGA:  36    -0.319506506718E+03   -0.11260E-02   -0.11276E-02  8112   0.448E-02-0.349E-04
CGA:  37    -0.319507036379E+03   -0.52966E-03   -0.52965E-03  8112   0.186E-02-0.148E-04
CGA:  38    -0.319507315526E+03   -0.27915E-03   -0.28099E-03  8112   0.143E-02-0.456E-04
CGA:  39    -0.319507493483E+03   -0.17796E-03   -0.17809E-03  8112   0.592E-03-0.167E-04
CGA:  40    -0.319507585128E+03   -0.91644E-04   -0.92501E-04  8112   0.306E-03-0.196E-04
CGA:  41    -0.319507621835E+03   -0.36708E-04   -0.36741E-04  8112   0.192E-03-0.742E-05
CGA:  42    -0.319507650357E+03   -0.28521E-04   -0.28814E-04  8112   0.117E-03-0.829E-05
CGA:  43    -0.319507664721E+03   -0.14364E-04   -0.14387E-04  8112   0.494E-04-0.323E-05
CGA:  44    -0.319507672114E+03   -0.73927E-05   -0.74069E-05  8112   0.341E-04-0.476E-06
   1 F= -.31950767E+03 E0= -.31950278E+03  d E =-.319508E+03  mag=    44.0000
       N       E                     dE             d eps       ncg     rms          ort
SDA:   1    -0.319508474510E+03   -0.80979E-03    0.00000E+00  8112   0.663E-02 0.000E+00
CGA:   2    -0.319508775311E+03   -0.30080E-03   -0.30034E-03  8112   0.191E-03 0.935E-05
CGA:   3    -0.319508800259E+03   -0.24948E-04   -0.24926E-04  8112   0.945E-04 0.211E-05
CGA:   4    -0.319508816056E+03   -0.15796E-04   -0.15821E-04  8112   0.487E-04-0.536E-06
CGA:   5    -0.319508821996E+03   -0.59404E-05   -0.59407E-05  8112   0.145E-04-0.173E-05
   2 F= -.31950882E+03 E0= -.31950393E+03  d E =-.114988E-02  mag=    44.0000
       N       E                     dE             d eps       ncg     rms          ort
SDA:   1    -0.319508268692E+03    0.54736E-03    0.00000E+00  8112   0.803E-01 0.000E+00
CGA:   2    -0.319528307141E+03   -0.20038E-01   -0.20041E-01  8112   0.559E-01-0.242E-04
CGA:   3    -0.319533243040E+03   -0.49359E-02   -0.49310E-02  8112   0.275E-01-0.112E-04
CGA:   4    -0.319536704871E+03   -0.34618E-02   -0.34619E-02  8112   0.751E-02 0.213E-04
CGA:   5    -0.319537612519E+03   -0.90765E-03   -0.90756E-03  8112   0.248E-02-0.621E-05
CGA:   6    -0.319537911103E+03   -0.29858E-03   -0.29858E-03  8112   0.935E-03-0.113E-05
CGA:   7    -0.319538015737E+03   -0.10463E-03   -0.10460E-03  8112   0.460E-03-0.171E-05
CGA:   8    -0.319538067049E+03   -0.51311E-04   -0.51299E-04  8112   0.179E-03-0.856E-06
CGA:   9    -0.319538090084E+03   -0.23035E-04   -0.23036E-04  8112   0.897E-04-0.116E-06
CGA:  10    -0.319538103263E+03   -0.13179E-04   -0.13169E-04  8112   0.396E-04 0.497E-06
CGA:  11    -0.319538108702E+03   -0.54392E-05   -0.54377E-05  8112   0.302E-04 0.162E-06
   3 F= -.31953811E+03 E0= -.31953320E+03  d E =-.292867E-01  mag=    44.0000
       N       E                     dE             d eps       ncg     rms          ort
SDA:   1    -0.319371983652E+03    0.16612E+00    0.00000E+00  8112   0.653E+00 0.000E+00
CGA:   2    -0.319539302210E+03   -0.16732E+00   -0.16729E+00  8112   0.403E+00 0.213E-03
CGA:   3    -0.319576875517E+03   -0.37573E-01   -0.37422E-01  8112   0.230E+00-0.727E-03
CGA:   4    -0.319604479225E+03   -0.27604E-01   -0.27612E-01  8112   0.521E-01 0.264E-03
CGA:   5    -0.319611418882E+03   -0.69397E-02   -0.69397E-02  8112   0.192E-01-0.700E-05
CGA:   6    -0.319613479014E+03   -0.20601E-02   -0.20590E-02  8112   0.749E-02-0.160E-04
CGA:   7    -0.319614394462E+03   -0.91545E-03   -0.91543E-03  8112   0.330E-02-0.317E-05
CGA:   8    -0.319614749248E+03   -0.35479E-03   -0.35479E-03  8112   0.146E-02-0.159E-05
CGA:   9    -0.319614937264E+03   -0.18802E-03   -0.18802E-03  8112   0.734E-03-0.588E-06
CGA:  10    -0.319615036197E+03   -0.98933E-04   -0.98919E-04  8112   0.319E-03 0.200E-05
CGA:  11    -0.319615085438E+03   -0.49242E-04   -0.49228E-04  8112   0.232E-03 0.493E-06
CGA:  12    -0.319615111574E+03   -0.26136E-04   -0.26141E-04  8112   0.107E-03 0.312E-06
CGA:  13    -0.319615126872E+03   -0.15298E-04   -0.15294E-04  8112   0.702E-04 0.284E-06
CGA:  14    -0.319615135771E+03   -0.88992E-05   -0.89004E-05  8112   0.291E-04 0.349E-06
   4 F= -.31961514E+03 E0= -.31961019E+03  d E =-.770271E-01  mag=    44.0000
       N       E                     dE             d eps       ncg     rms          ort
SDA:   1    -0.319189973002E+03    0.42515E+00    0.00000E+00  8112   0.140E+01 0.000E+00
CGA:   2    -0.319563219011E+03   -0.37325E+00   -0.37335E+00  8112   0.600E+00-0.773E-03
CGA:   3    -0.319657936687E+03   -0.94718E-01   -0.94659E-01  8112   0.382E+00 0.167E-02
CGA:   4    -0.319689992728E+03   -0.32056E-01   -0.31890E-01  8112   0.118E+00 0.237E-03
CGA:   5    -0.319703670510E+03   -0.13678E-01   -0.13677E-01  8112   0.339E-01-0.252E-04
CGA:   6    -0.319707803612E+03   -0.41331E-02   -0.41346E-02  8112   0.151E-01 0.425E-04
CGA:   7    -0.319709584430E+03   -0.17808E-02   -0.17802E-02  8112   0.556E-02-0.158E-04
CGA:   8    -0.319710284244E+03   -0.69981E-03   -0.69972E-03  8112   0.277E-02-0.773E-05
CGA:   9    -0.319710613973E+03   -0.32973E-03   -0.32976E-03  8112   0.159E-02 0.149E-05
CGA:  10    -0.319710794710E+03   -0.18074E-03   -0.18078E-03  8112   0.650E-03 0.207E-05
CGA:  11    -0.319710913149E+03   -0.11844E-03   -0.11839E-03  8112   0.334E-03 0.930E-06
CGA:  12    -0.319710958256E+03   -0.45107E-04   -0.45106E-04  8112   0.254E-03 0.437E-06
CGA:  13    -0.319710988325E+03   -0.30069E-04   -0.30077E-04  8112   0.118E-03 0.496E-06
CGA:  14    -0.319711004528E+03   -0.16204E-04   -0.16202E-04  8112   0.579E-04 0.380E-06
CGA:  15    -0.319711012108E+03   -0.75798E-05   -0.75819E-05  8112   0.305E-04 0.820E-06
   5 F= -.31971101E+03 E0= -.31970600E+03  d E =-.958763E-01  mag=    44.0000
       N       E                     dE             d eps       ncg     rms          ort
SDA:   1    -0.318582014240E+03    0.11290E+01    0.00000E+00  8112   0.337E+01 0.000E+00
CGA:   2    -0.319473112377E+03   -0.89110E+00   -0.89109E+00  8112   0.134E+01 0.159E-03
CGA:   3    -0.319707324651E+03   -0.23421E+00   -0.23397E+00  8112   0.769E+00 0.453E-02
CGA:   4    -0.319771825742E+03   -0.64501E-01   -0.64612E-01  8112   0.286E+00-0.288E-02
CGA:   5    -0.319802415793E+03   -0.30590E-01   -0.30588E-01  8112   0.705E-01-0.700E-04
CGA:   6    -0.319812549501E+03   -0.10134E-01   -0.10133E-01  8112   0.302E-01 0.716E-04
CGA:   7    -0.319815960313E+03   -0.34108E-02   -0.34120E-02  8112   0.128E-01 0.676E-05
CGA:   8    -0.319817438211E+03   -0.14779E-02   -0.14775E-02  8112   0.649E-02-0.841E-05
CGA:   9    -0.319818204840E+03   -0.76663E-03   -0.76655E-03  8112   0.320E-02-0.304E-06
CGA:  10    -0.319818613432E+03   -0.40859E-03   -0.40865E-03  8112   0.156E-02 0.522E-05
CGA:  11    -0.319818858670E+03   -0.24524E-03   -0.24520E-03  8112   0.871E-03 0.186E-05
CGA:  12    -0.319818967955E+03   -0.10929E-03   -0.10929E-03  8112   0.581E-03 0.681E-06
CGA:  13    -0.319819042564E+03   -0.74609E-04   -0.74615E-04  8112   0.295E-03 0.776E-06
CGA:  14    -0.319819079260E+03   -0.36696E-04   -0.36703E-04  8112   0.147E-03 0.680E-06
CGA:  15    -0.319819099317E+03   -0.20056E-04   -0.20055E-04  8112   0.691E-04 0.918E-06
CGA:  16    -0.319819108579E+03   -0.92621E-05   -0.92627E-05  8112   0.317E-04 0.107E-05
   6 F= -.31981911E+03 E0= -.31981401E+03  d E =-.108096E+00  mag=    44.0000
       N       E                     dE             d eps       ncg     rms          ort
SDA:   1    -0.317340028975E+03    0.24791E+01    0.00000E+00  8112   0.697E+01 0.000E+00
CGA:   2    -0.319182273830E+03   -0.18422E+01   -0.18427E+01  8112   0.299E+01-0.268E-02
CGA:   3    -0.319634180043E+03   -0.45191E+00   -0.45150E+00  8112   0.186E+01 0.187E-01
CGA:   4    -0.319803948514E+03   -0.16977E+00   -0.16971E+00  8112   0.618E+00-0.747E-03
CGA:   5    -0.319864034801E+03   -0.60086E-01   -0.60396E-01  8112   0.202E+00 0.364E-03
CGA:   6    -0.319888017939E+03   -0.23983E-01   -0.23954E-01  8112   0.751E-01-0.612E-03
CGA:   7    -0.319897085746E+03   -0.90678E-02   -0.90755E-02  8112   0.286E-01 0.224E-03
CGA:   8    -0.319900876569E+03   -0.37908E-02   -0.37907E-02  8112   0.120E-01-0.262E-04
CGA:   9    -0.319902335074E+03   -0.14585E-02   -0.14588E-02  8112   0.832E-02 0.109E-04
CGA:  10    -0.319903228321E+03   -0.89325E-03   -0.89359E-03  8112   0.318E-02 0.681E-05
CGA:  11    -0.319903731547E+03   -0.50323E-03   -0.50293E-03  8112   0.197E-02 0.945E-05
CGA:  12    -0.319904017869E+03   -0.28632E-03   -0.28629E-03  8112   0.108E-02 0.267E-05
CGA:  13    -0.319904164688E+03   -0.14682E-03   -0.14682E-03  8112   0.703E-03 0.143E-05
CGA:  14    -0.319904246850E+03   -0.82162E-04   -0.82171E-04  8112   0.389E-03 0.514E-06
CGA:  15    -0.319904292579E+03   -0.45729E-04   -0.45738E-04  8112   0.142E-03 0.561E-06
CGA:  16    -0.319904316966E+03   -0.24387E-04   -0.24331E-04  8112   0.675E-04 0.140E-05
CGA:  17    -0.319904324498E+03   -0.75316E-05   -0.75426E-05  8112   0.363E-04 0.450E-06
   7 F= -.31990432E+03 E0= -.31989911E+03  d E =-.852159E-01  mag=    44.0000
       N       E                     dE             d eps       ncg     rms          ort
SDA:   1    -0.316493220606E+03    0.34111E+01    0.00000E+00  8112   0.921E+01 0.000E+00
CGA:   2    -0.318853538130E+03   -0.23603E+01   -0.23742E+01  8112   0.637E+01-0.117E+00
CGA:   3    -0.319468424773E+03   -0.61489E+00   -0.62062E+00  8112   0.248E+01 0.932E-01
CGA:   4    -0.319785012717E+03   -0.31659E+00   -0.31586E+00  8112   0.117E+01-0.270E-01
CGA:   5    -0.319879191420E+03   -0.94179E-01   -0.95584E-01  8112   0.327E+00-0.604E-02
CGA:   6    -0.319916334561E+03   -0.37143E-01   -0.37103E-01  8112   0.130E+00-0.641E-03
CGA:   7    -0.319932205588E+03   -0.15871E-01   -0.15880E-01  8112   0.387E-01 0.368E-03
CGA:   8    -0.319937997798E+03   -0.57922E-02   -0.57937E-02  8112   0.201E-01-0.571E-04
CGA:   9    -0.319939935505E+03   -0.19377E-02   -0.19436E-02  8112   0.102E-01 0.179E-04
CGA:  10    -0.319941226416E+03   -0.12909E-02   -0.12911E-02  8112   0.498E-02 0.204E-04
CGA:  11    -0.319941910344E+03   -0.68393E-03   -0.68375E-03  8112   0.264E-02 0.191E-04
CGA:  12    -0.319942287989E+03   -0.37765E-03   -0.37751E-03  8112   0.156E-02 0.922E-05
CGA:  13    -0.319942528432E+03   -0.24044E-03   -0.24028E-03  8112   0.105E-02 0.585E-05
CGA:  14    -0.319942628653E+03   -0.10022E-03   -0.10026E-03  8112   0.490E-03 0.575E-06
CGA:  15    -0.319942713491E+03   -0.84837E-04   -0.84846E-04  8112   0.207E-03-0.264E-06
CGA:  16    -0.319942739479E+03   -0.25988E-04   -0.25992E-04  8112   0.115E-03 0.494E-06
CGA:  17    -0.319942753962E+03   -0.14483E-04   -0.14486E-04  8112   0.557E-04 0.284E-06
CGA:  18    -0.319942759819E+03   -0.58567E-05   -0.58567E-05  8112   0.260E-04-0.677E-08
   8 F= -.31994276E+03 E0= -.31993747E+03  d E =-.384353E-01  mag=    44.0000
       N       E                     dE             d eps       ncg     rms          ort
SDA:   1    -0.314487499969E+03    0.54553E+01    0.00000E+00  8112   0.142E+02 0.000E+00
CGA:   2    -0.318331461730E+03   -0.38440E+01   -0.38726E+01  8112   0.939E+01-0.216E+00
CGA:   3    -0.319277541077E+03   -0.94608E+00   -0.96839E+00  8112   0.351E+01 0.250E+00
CGA:   4    -0.319738926320E+03   -0.46139E+00   -0.46095E+00  8112   0.146E+01-0.208E-01
CGA:   5    -0.319858382876E+03   -0.11946E+00   -0.12158E+00  8112   0.470E+00-0.534E-02
CGA:   6    -0.319908797966E+03   -0.50415E-01   -0.50275E-01  8112   0.200E+00-0.136E-02
CGA:   7    -0.319931500828E+03   -0.22703E-01   -0.22732E-01  8112   0.565E-01 0.586E-03
CGA:   8    -0.319940804587E+03   -0.93038E-02   -0.93063E-02  8112   0.228E-01-0.569E-04
CGA:   9    -0.319943543911E+03   -0.27393E-02   -0.27421E-02  8112   0.150E-01 0.863E-04
CGA:  10    -0.319945171844E+03   -0.16279E-02   -0.16283E-02  8112   0.699E-02 0.897E-05
CGA:  11    -0.319946087819E+03   -0.91597E-03   -0.91598E-03  8112   0.373E-02 0.252E-04
CGA:  12    -0.319946630975E+03   -0.54316E-03   -0.54291E-03  8112   0.216E-02 0.140E-04
CGA:  13    -0.319946983880E+03   -0.35291E-03   -0.35251E-03  8112   0.112E-02 0.102E-04
CGA:  14    -0.319947111179E+03   -0.12730E-03   -0.12732E-03  8112   0.837E-03 0.901E-06
CGA:  15    -0.319947216122E+03   -0.10494E-03   -0.10495E-03  8112   0.280E-03 0.977E-06
CGA:  16    -0.319947254675E+03   -0.38553E-04   -0.38545E-04  8112   0.145E-03 0.142E-05
CGA:  17    -0.319947275014E+03   -0.20339E-04   -0.20333E-04  8112   0.632E-04 0.806E-06
CGA:  18    -0.319947281948E+03   -0.69342E-05   -0.69378E-05  8112   0.352E-04 0.149E-06
   9 F= -.31994728E+03 E0= -.31994196E+03  d E =-.452213E-02  mag=    44.0000
       N       E                     dE             d eps       ncg     rms          ort
SDA:   1    -0.318837413118E+03    0.11099E+01    0.00000E+00  8112   0.283E+01 0.000E+00
CGA:   2    -0.319653999078E+03   -0.81659E+00   -0.81665E+00  8112   0.163E+01-0.360E-03
CGA:   3    -0.319862826534E+03   -0.20883E+00   -0.20894E+00  8112   0.676E+00 0.420E-02
CGA:   4    -0.319933279241E+03   -0.70453E-01   -0.70584E-01  8112   0.248E+00 0.524E-03
CGA:   5    -0.319956576785E+03   -0.23298E-01   -0.23090E-01  8112   0.898E-01-0.215E-03
CGA:   6    -0.319966325203E+03   -0.97484E-02   -0.97584E-02  8112   0.299E-01 0.104E-03
CGA:   7    -0.319970363866E+03   -0.40387E-02   -0.40387E-02  8112   0.995E-02-0.144E-04
CGA:   8    -0.319971806353E+03   -0.14425E-02   -0.14424E-02  8112   0.478E-02 0.419E-05
CGA:   9    -0.319972279556E+03   -0.47320E-03   -0.47281E-03  8112   0.245E-02-0.594E-06
CGA:  10    -0.319972580309E+03   -0.30075E-03   -0.30079E-03  8112   0.105E-02 0.279E-05
CGA:  11    -0.319972728408E+03   -0.14810E-03   -0.14809E-03  8112   0.584E-03 0.917E-06
CGA:  12    -0.319972814760E+03   -0.86352E-04   -0.86351E-04  8112   0.326E-03 0.757E-07
CGA:  13    -0.319972858021E+03   -0.43262E-04   -0.43262E-04  8112   0.209E-03 0.602E-06
CGA:  14    -0.319972881405E+03   -0.23384E-04   -0.23403E-04  8112   0.111E-03 0.830E-06
CGA:  15    -0.319972896427E+03   -0.15022E-04   -0.15020E-04  8112   0.418E-04 0.852E-06
CGA:  16    -0.319972902684E+03   -0.62569E-05   -0.62420E-05  8112   0.214E-04 0.914E-06
  10 F= -.31997290E+03 E0= -.31996762E+03  d E =-.256207E-01  mag=    44.0000
       N       E                     dE             d eps       ncg     rms          ort
SDA:   1    -0.313256368075E+03    0.67165E+01    0.00000E+00  8112   0.166E+02 0.000E+00
CGA:   2    -0.318213163869E+03   -0.49568E+01   -0.49629E+01  8112   0.105E+02-0.316E-01
CGA:   3    -0.319269958838E+03   -0.10568E+01   -0.10740E+01  8112   0.437E+01 0.502E-01
CGA:   4    -0.319771732402E+03   -0.50177E+00   -0.49785E+00  8112   0.156E+01-0.393E-01
CGA:   5    -0.319902551777E+03   -0.13082E+00   -0.13205E+00  8112   0.538E+00-0.440E-02
CGA:   6    -0.319970324572E+03   -0.67773E-01   -0.67735E-01  8112   0.161E+00-0.188E-02
CGA:   7    -0.319992059575E+03   -0.21735E-01   -0.21734E-01  8112   0.684E-01 0.370E-03
CGA:   8    -0.320000170562E+03   -0.81110E-02   -0.81042E-02  8112   0.317E-01-0.150E-03
CGA:   9    -0.320003356744E+03   -0.31862E-02   -0.31930E-02  8112   0.153E-01 0.393E-04
CGA:  10    -0.320005315035E+03   -0.19583E-02   -0.19584E-02  8112   0.663E-02 0.153E-04
CGA:  11    -0.320006237012E+03   -0.92198E-03   -0.92173E-03  8112   0.353E-02 0.234E-04
CGA:  12    -0.320006806138E+03   -0.56913E-03   -0.56879E-03  8112   0.230E-02 0.104E-04
CGA:  13    -0.320007045241E+03   -0.23910E-03   -0.23937E-03  8112   0.132E-02 0.450E-05
CGA:  14    -0.320007234341E+03   -0.18910E-03   -0.18907E-03  8112   0.624E-03 0.329E-05
CGA:  15    -0.320007321514E+03   -0.87173E-04   -0.87144E-04  8112   0.271E-03 0.373E-05
CGA:  16    -0.320007358945E+03   -0.37431E-04   -0.37419E-04  8112   0.165E-03 0.291E-05
CGA:  17    -0.320007375234E+03   -0.16289E-04   -0.16354E-04  8112   0.608E-04 0.176E-05
CGA:  18    -0.320007382829E+03   -0.75949E-05   -0.76024E-05  8112   0.277E-04 0.944E-06
  11 F= -.32000738E+03 E0= -.32000216E+03  d E =-.344801E-01  mag=    44.0000
       N       E                     dE             d eps       ncg     rms          ort
SDA:   1    -0.318603571860E+03    0.14038E+01    0.00000E+00  8112   0.353E+01 0.000E+00
CGA:   2    -0.319549082279E+03   -0.94551E+00   -0.94789E+00  8112   0.308E+01-0.184E-01
CGA:   3    -0.319833022611E+03   -0.28394E+00   -0.28331E+00  8112   0.101E+01 0.123E-02
CGA:   4    -0.319948935837E+03   -0.11591E+00   -0.11609E+00  8112   0.439E+00 0.226E-02
CGA:   5    -0.319987111969E+03   -0.38176E-01   -0.38074E-01  8112   0.116E+00-0.309E-04
CGA:   6    -0.320002542952E+03   -0.15431E-01   -0.15431E-01  8112   0.420E-01 0.207E-03
CGA:   7    -0.320007823158E+03   -0.52802E-02   -0.52797E-02  8112   0.168E-01-0.226E-04
CGA:   8    -0.320009688670E+03   -0.18655E-02   -0.18675E-02  8112   0.940E-02 0.286E-04
CGA:   9    -0.320010627030E+03   -0.93836E-03   -0.93792E-03  8112   0.276E-02-0.379E-05
CGA:  10    -0.320011093656E+03   -0.46663E-03   -0.46654E-03  8112   0.149E-02 0.202E-05
CGA:  11    -0.320011272553E+03   -0.17890E-03   -0.17892E-03  8112   0.855E-03 0.189E-05
CGA:  12    -0.320011378312E+03   -0.10576E-03   -0.10578E-03  8112   0.530E-03 0.169E-05
CGA:  13    -0.320011449293E+03   -0.70981E-04   -0.70981E-04  8112   0.252E-03 0.235E-06
CGA:  14    -0.320011485498E+03   -0.36204E-04   -0.36198E-04  8112   0.149E-03 0.496E-06
CGA:  15    -0.320011505826E+03   -0.20329E-04   -0.20326E-04  8112   0.800E-04 0.616E-06
CGA:  16    -0.320011513789E+03   -0.79626E-05   -0.79795E-05  8112   0.364E-04 0.491E-06
  12 F= -.32001151E+03 E0= -.32000630E+03  d E =-.413096E-02  mag=    44.0000
       N       E                     dE             d eps       ncg     rms          ort
SDA:   1    -0.319416684333E+03    0.59482E+00    0.00000E+00  8112   0.146E+01 0.000E+00
CGA:   2    -0.319853147469E+03   -0.43646E+00   -0.43724E+00  8112   0.942E+00-0.500E-02
CGA:   3    -0.319958291629E+03   -0.10514E+00   -0.10571E+00  8112   0.327E+00 0.596E-02
CGA:   4    -0.319999863243E+03   -0.41572E-01   -0.41563E-01  8112   0.852E-01-0.298E-03
CGA:   5    -0.320010949028E+03   -0.11086E-01   -0.11086E-01  8112   0.245E-01 0.758E-05
CGA:   6    -0.320014811525E+03   -0.38625E-02   -0.38621E-02  8112   0.782E-02 0.176E-04
CGA:   7    -0.320015889768E+03   -0.10782E-02   -0.10782E-02  8112   0.389E-02 0.183E-05
CGA:   8    -0.320016304745E+03   -0.41498E-03   -0.41499E-03  8112   0.168E-02-0.530E-06
CGA:   9    -0.320016481595E+03   -0.17685E-03   -0.17679E-03  8112   0.886E-03-0.505E-06
CGA:  10    -0.320016596232E+03   -0.11464E-03   -0.11464E-03  8112   0.344E-03 0.864E-06
CGA:  11    -0.320016655666E+03   -0.59433E-04   -0.59422E-04  8112   0.193E-03 0.342E-06
CGA:  12    -0.320016688248E+03   -0.32582E-04   -0.32554E-04  8112   0.116E-03 0.856E-06
CGA:  13    -0.320016701572E+03   -0.13324E-04   -0.13329E-04  8112   0.758E-04 0.210E-06
CGA:  14    -0.320016710769E+03   -0.91968E-05   -0.91984E-05  8112   0.358E-04 0.817E-07
  13 F= -.32001671E+03 E0= -.32001152E+03  d E =-.519698E-02  mag=    44.0000
       N       E                     dE             d eps       ncg     rms          ort
SDA:   1    -0.316948480393E+03    0.30682E+01    0.00000E+00  8112   0.756E+01 0.000E+00
CGA:   2    -0.319187662997E+03   -0.22392E+01   -0.22479E+01  8112   0.514E+01-0.550E-01
CGA:   3    -0.319699369631E+03   -0.51171E+00   -0.51980E+00  8112   0.196E+01 0.223E-01
CGA:   4    -0.319918041236E+03   -0.21867E+00   -0.22034E+00  8112   0.734E+00 0.123E-01
CGA:   5    -0.319982372672E+03   -0.64331E-01   -0.63734E-01  8112   0.238E+00 0.268E-03
CGA:   6    -0.320011011561E+03   -0.28639E-01   -0.28646E-01  8112   0.799E-01 0.210E-03
CGA:   7    -0.320022388988E+03   -0.11377E-01   -0.11378E-01  8112   0.248E-01-0.262E-04
CGA:   8    -0.320025929948E+03   -0.35410E-02   -0.35407E-02  8112   0.138E-01 0.255E-04
CGA:   9    -0.320027228413E+03   -0.12985E-02   -0.12965E-02  8112   0.595E-02-0.395E-05
CGA:  10    -0.320027987289E+03   -0.75888E-03   -0.75896E-03  8112   0.285E-02 0.618E-05
CGA:  11    -0.320028402415E+03   -0.41513E-03   -0.41503E-03  8112   0.136E-02 0.712E-05
CGA:  12    -0.320028613975E+03   -0.21156E-03   -0.21148E-03  8112   0.917E-03 0.330E-05
CGA:  13    -0.320028732319E+03   -0.11834E-03   -0.11835E-03  8112   0.574E-03 0.138E-05
CGA:  14    -0.320028793570E+03   -0.61251E-04   -0.61302E-04  8112   0.264E-03 0.140E-05
CGA:  15    -0.320028836198E+03   -0.42628E-04   -0.42588E-04  8112   0.111E-03 0.146E-05
CGA:  16    -0.320028851575E+03   -0.15377E-04   -0.15375E-04  8112   0.513E-04 0.121E-05
CGA:  17    -0.320028857547E+03   -0.59725E-05   -0.59846E-05  8112   0.302E-04 0.603E-06
  14 F= -.32002886E+03 E0= -.32002372E+03  d E =-.121468E-01  mag=    44.0000
       N       E                     dE             d eps       ncg     rms          ort
SDA:   1    -0.311498593524E+03    0.85303E+01    0.00000E+00  8112   0.211E+02 0.000E+00
CGA:   2    -0.317417901478E+03   -0.59193E+01   -0.59653E+01  8112   0.181E+02-0.299E+00
CGA:   3    -0.318987158681E+03   -0.15693E+01   -0.15840E+01  8112   0.607E+01-0.154E-01
CGA:   4    -0.319674660456E+03   -0.68750E+00   -0.69196E+00  8112   0.236E+01 0.412E-01
CGA:   5    -0.319895737126E+03   -0.22108E+00   -0.21942E+00  8112   0.685E+00-0.238E-02
CGA:   6    -0.319982782489E+03   -0.87045E-01   -0.87052E-01  8112   0.226E+00 0.555E-03
CGA:   7    -0.320014633939E+03   -0.31851E-01   -0.31844E-01  8112   0.101E+00 0.653E-03
CGA:   8    -0.320023906995E+03   -0.92731E-02   -0.93108E-02  8112   0.460E-01 0.284E-04
CGA:   9    -0.320030082891E+03   -0.61759E-02   -0.61762E-02  8112   0.145E-01-0.922E-04
CGA:  10    -0.320032318473E+03   -0.22356E-02   -0.22343E-02  8112   0.930E-02 0.391E-04
CGA:  11    -0.320033388368E+03   -0.10699E-02   -0.10707E-02  8112   0.496E-02 0.212E-04
CGA:  12    -0.320034030414E+03   -0.64205E-03   -0.64213E-03  8112   0.271E-02 0.166E-04
CGA:  13    -0.320034448112E+03   -0.41770E-03   -0.41742E-03  8112   0.154E-02 0.106E-04
CGA:  14    -0.320034649431E+03   -0.20132E-03   -0.20135E-03  8112   0.776E-03 0.641E-05
CGA:  15    -0.320034752033E+03   -0.10260E-03   -0.10261E-03  8112   0.495E-03 0.492E-05
CGA:  16    -0.320034807335E+03   -0.55301E-04   -0.55397E-04  8112   0.153E-03 0.380E-05
CGA:  17    -0.320034830325E+03   -0.22990E-04   -0.22944E-04  8112   0.807E-04 0.274E-05
CGA:  18    -0.320034840130E+03   -0.98050E-05   -0.98216E-05  8112   0.364E-04 0.119E-05
  15 F= -.32003484E+03 E0= -.32002990E+03  d E =-.598258E-02  mag=    44.0000
       N       E                     dE             d eps       ncg     rms          ort
SDA:   1    -0.318391775358E+03    0.16431E+01    0.00000E+00  8112   0.414E+01 0.000E+00
CGA:   2    -0.319537563943E+03   -0.11458E+01   -0.11468E+01  8112   0.270E+01-0.696E-02
CGA:   3    -0.319857932293E+03   -0.32037E+00   -0.32031E+00  8112   0.961E+00-0.179E-03
CGA:   4    -0.319974428198E+03   -0.11650E+00   -0.11654E+00  8112   0.349E+00 0.906E-03
CGA:   5    -0.320006352086E+03   -0.31924E-01   -0.31748E-01  8112   0.133E+00-0.143E-03
CGA:   6    -0.320021975579E+03   -0.15623E-01   -0.15620E-01  8112   0.383E-01-0.628E-04
CGA:   7    -0.320027709389E+03   -0.57338E-02   -0.57318E-02  8112   0.125E-01 0.770E-04
CGA:   8    -0.320029534316E+03   -0.18249E-02   -0.18250E-02  8112   0.682E-02-0.405E-06
CGA:   9    -0.320030243719E+03   -0.70940E-03   -0.70927E-03  8112   0.305E-02-0.117E-05
CGA:  10    -0.320030631888E+03   -0.38817E-03   -0.38820E-03  8112   0.155E-02 0.212E-05
CGA:  11    -0.320030851474E+03   -0.21959E-03   -0.21955E-03  8112   0.722E-03 0.322E-05
CGA:  12    -0.320030968497E+03   -0.11702E-03   -0.11694E-03  8112   0.431E-03 0.296E-05
CGA:  13    -0.320031028155E+03   -0.59658E-04   -0.59651E-04  8112   0.267E-03 0.221E-05
CGA:  14    -0.320031057983E+03   -0.29828E-04   -0.29857E-04  8112   0.127E-03 0.118E-05
CGA:  15    -0.320031076518E+03   -0.18536E-04   -0.18530E-04  8112   0.558E-04 0.533E-06
CGA:  16    -0.320031084091E+03   -0.75730E-05   -0.75728E-05  8112   0.222E-04 0.363E-06
  16 F= -.32003108E+03 E0= -.32002621E+03  d E =0.375604E-02  mag=    44.0000
       N       E                     dE             d eps       ncg     rms          ort
SDA:   1    -0.318536584925E+03    0.14945E+01    0.00000E+00  8112   0.384E+01 0.000E+00
CGA:   2    -0.319543898153E+03   -0.10073E+01   -0.10062E+01  8112   0.285E+01 0.870E-02
CGA:   3    -0.319857473064E+03   -0.31357E+00   -0.31481E+00  8112   0.114E+01 0.828E-02
CGA:   4    -0.319979265102E+03   -0.12179E+00   -0.12118E+00  8112   0.426E+00-0.390E-02
CGA:   5    -0.320018786285E+03   -0.39521E-01   -0.39507E-01  8112   0.129E+00-0.163E-03
CGA:   6    -0.320035577541E+03   -0.16791E-01   -0.16793E-01  8112   0.408E-01 0.179E-03
CGA:   7    -0.320041439663E+03   -0.58621E-02   -0.58618E-02  8112   0.145E-01 0.226E-04
CGA:   8    -0.320043513913E+03   -0.20742E-02   -0.20744E-02  8112   0.646E-02-0.149E-04
CGA:   9    -0.320044243626E+03   -0.72971E-03   -0.73011E-03  8112   0.332E-02 0.610E-05
CGA:  10    -0.320044616411E+03   -0.37278E-03   -0.37284E-03  8112   0.157E-02 0.250E-05
CGA:  11    -0.320044831754E+03   -0.21534E-03   -0.21534E-03  8112   0.715E-03 0.213E-05
CGA:  12    -0.320044954184E+03   -0.12243E-03   -0.12234E-03  8112   0.373E-03 0.241E-05
CGA:  13    -0.320045012333E+03   -0.58149E-04   -0.58129E-04  8112   0.243E-03 0.931E-06
CGA:  14    -0.320045039548E+03   -0.27214E-04   -0.27228E-04  8112   0.140E-03 0.525E-06
CGA:  15    -0.320045057429E+03   -0.17881E-04   -0.17886E-04  8112   0.520E-04 0.570E-06
CGA:  16    -0.320045065592E+03   -0.81629E-05   -0.81543E-05  8112   0.235E-04 0.403E-06
  17 F= -.32004507E+03 E0= -.32004012E+03  d E =-.139815E-01  mag=    44.0000
       N       E                     dE             d eps       ncg     rms          ort
SDA:   1    -0.319826888708E+03    0.21817E+00    0.00000E+00  8112   0.554E+00 0.000E+00
CGA:   2    -0.319972118015E+03   -0.14523E+00   -0.14530E+00  8112   0.515E+00-0.525E-03
CGA:   3    -0.320018490435E+03   -0.46372E-01   -0.46284E-01  8112   0.168E+00-0.186E-03
CGA:   4    -0.320036656219E+03   -0.18166E-01   -0.18196E-01  8112   0.667E-01 0.170E-03
CGA:   5    -0.320043726676E+03   -0.70705E-02   -0.70632E-02  8112   0.148E-01-0.424E-04
CGA:   6    -0.320045887302E+03   -0.21606E-02   -0.21606E-02  8112   0.566E-02 0.262E-05
CGA:   7    -0.320046603791E+03   -0.71649E-03   -0.71655E-03  8112   0.261E-02 0.279E-05
CGA:   8    -0.320046849439E+03   -0.24565E-03   -0.24570E-03  8112   0.106E-02-0.139E-05
CGA:   9    -0.320046995904E+03   -0.14646E-03   -0.14647E-03  8112   0.344E-03-0.122E-05
CGA:  10    -0.320047050473E+03   -0.54569E-04   -0.54547E-04  8112   0.200E-03 0.931E-06
CGA:  11    -0.320047075488E+03   -0.25015E-04   -0.25022E-04  8112   0.116E-03 0.614E-06
CGA:  12    -0.320047089879E+03   -0.14392E-04   -0.14394E-04  8112   0.632E-04 0.198E-06
CGA:  13    -0.320047099462E+03   -0.95824E-05   -0.95822E-05  8112   0.364E-04 0.614E-08
  18 F= -.32004710E+03 E0= -.32004219E+03  d E =-.203387E-02  mag=    44.0000
       N       E                     dE             d eps       ncg     rms          ort
SDA:   1    -0.311243839502E+03    0.88033E+01    0.00000E+00  8112   0.219E+02 0.000E+00
CGA:   2    -0.317271302783E+03   -0.60275E+01   -0.60662E+01  8112   0.184E+02-0.228E+00
CGA:   3    -0.318988834268E+03   -0.17175E+01   -0.16918E+01  8112   0.603E+01 0.203E+00
CGA:   4    -0.319676351000E+03   -0.68752E+00   -0.68840E+00  8112   0.241E+01 0.237E-03
CGA:   5    -0.319918147643E+03   -0.24180E+00   -0.23997E+00  8112   0.609E+00-0.463E-02
CGA:   6    -0.320001886620E+03   -0.83739E-01   -0.83738E-01  8112   0.228E+00 0.988E-03
CGA:   7    -0.320030645062E+03   -0.28758E-01   -0.28771E-01  8112   0.106E+00 0.527E-03
CGA:   8    -0.320041012879E+03   -0.10368E-01   -0.10395E-01  8112   0.416E-01 0.623E-04
CGA:   9    -0.320046689065E+03   -0.56762E-02   -0.56761E-02  8112   0.173E-01 0.166E-04
CGA:  10    -0.320048874709E+03   -0.21856E-02   -0.21863E-02  8112   0.866E-02 0.358E-04
CGA:  11    -0.320050197294E+03   -0.13226E-02   -0.13215E-02  8112   0.470E-02 0.437E-04
CGA:  12    -0.320050767460E+03   -0.57017E-03   -0.57058E-03  8112   0.298E-02 0.172E-04
CGA:  13    -0.320051194034E+03   -0.42657E-03   -0.42647E-03  8112   0.149E-02 0.108E-04
CGA:  14    -0.320051422491E+03   -0.22846E-03   -0.22835E-03  8112   0.659E-03 0.543E-05
CGA:  15    -0.320051518082E+03   -0.95591E-04   -0.95536E-04  8112   0.478E-03 0.552E-05
CGA:  16    -0.320051568446E+03   -0.50364E-04   -0.50498E-04  8112   0.139E-03 0.381E-05
CGA:  17    -0.320051589452E+03   -0.21006E-04   -0.20969E-04  8112   0.700E-04 0.247E-05
CGA:  18    -0.320051599001E+03   -0.95484E-05   -0.95498E-05  8112   0.284E-04 0.111E-05
  19 F= -.32005160E+03 E0= -.32004684E+03  d E =-.449954E-02  mag=    44.0000
       N       E                     dE             d eps       ncg     rms          ort
SDA:   1    -0.317405092864E+03    0.26465E+01    0.00000E+00  8112   0.702E+01 0.000E+00
CGA:   2    -0.319069782082E+03   -0.16647E+01   -0.16587E+01  8112   0.546E+01 0.565E-01
CGA:   3    -0.319601332797E+03   -0.53155E+00   -0.52771E+00  8112   0.259E+01-0.600E-01
CGA:   4    -0.319901334827E+03   -0.30000E+00   -0.29913E+00  8112   0.616E+00-0.140E-01
CGA:   5    -0.319983429005E+03   -0.82094E-01   -0.82090E-01  8112   0.212E+00-0.962E-03
CGA:   6    -0.320009162705E+03   -0.25734E-01   -0.25748E-01  8112   0.900E-01 0.371E-03
CGA:   7    -0.320018628567E+03   -0.94659E-02   -0.94632E-02  8112   0.366E-01-0.140E-04
CGA:   8    -0.320022828343E+03   -0.41998E-02   -0.41984E-02  8112   0.147E-01-0.241E-04
CGA:   9    -0.320024827275E+03   -0.19989E-02   -0.19988E-02  8112   0.573E-02 0.305E-04
CGA:  10    -0.320025670771E+03   -0.84350E-03   -0.84338E-03  8112   0.338E-02 0.750E-05
CGA:  11    -0.320026049537E+03   -0.37877E-03   -0.37893E-03  8112   0.176E-02 0.486E-05
CGA:  12    -0.320026304307E+03   -0.25477E-03   -0.25472E-03  8112   0.861E-03 0.320E-05
CGA:  13    -0.320026427598E+03   -0.12329E-03   -0.12327E-03  8112   0.499E-03 0.149E-05
CGA:  14    -0.320026500790E+03   -0.73192E-04   -0.73178E-04  8112   0.266E-03 0.895E-06
CGA:  15    -0.320026531555E+03   -0.30765E-04   -0.30783E-04  8112   0.146E-03 0.845E-06
CGA:  16    -0.320026550630E+03   -0.19075E-04   -0.19079E-04  8112   0.522E-04 0.116E-05
CGA:  17    -0.320026558717E+03   -0.80868E-05   -0.80706E-05  8112   0.236E-04 0.793E-06
  20 F= -.32002656E+03 E0= -.32002182E+03  d E =0.250403E-01  mag=    44.0000
       N       E                     dE             d eps       ncg     rms          ort
SDA:   1    -0.319838660239E+03    0.18789E+00    0.00000E+00  8112   0.598E+00 0.000E+00
CGA:   2    -0.319967164413E+03   -0.12850E+00   -0.12853E+00  8112   0.335E+00-0.292E-03
CGA:   3    -0.320016697122E+03   -0.49533E-01   -0.49514E-01  8112   0.228E+00 0.107E-02
CGA:   4    -0.320036179297E+03   -0.19482E-01   -0.19469E-01  8112   0.596E-01-0.556E-04
CGA:   5    -0.320044420176E+03   -0.82409E-02   -0.82412E-02  8112   0.156E-01-0.517E-04
CGA:   6    -0.320046817037E+03   -0.23969E-02   -0.23965E-02  8112   0.739E-02 0.113E-04
CGA:   7    -0.320047509359E+03   -0.69232E-03   -0.69238E-03  8112   0.299E-02 0.111E-05
CGA:   8    -0.320047895848E+03   -0.38649E-03   -0.38650E-03  8112   0.114E-02 0.232E-05
CGA:   9    -0.320048060499E+03   -0.16465E-03   -0.16465E-03  8112   0.460E-03 0.487E-06
CGA:  10    -0.320048123777E+03   -0.63278E-04   -0.63280E-04  8112   0.331E-03-0.634E-06
CGA:  11    -0.320048159465E+03   -0.35688E-04   -0.35677E-04  8112   0.112E-03-0.387E-06
CGA:  12    -0.320048179763E+03   -0.20298E-04   -0.20271E-04  8112   0.630E-04 0.556E-06
CGA:  13    -0.320048187325E+03   -0.75619E-05   -0.75684E-05  8112   0.360E-04 0.396E-06
  21 F= -.32004819E+03 E0= -.32004344E+03  d E =-.216286E-01  mag=    44.0000
       N       E                     dE             d eps       ncg     rms          ort
SDA:   1    -0.319992845149E+03    0.55335E-01    0.00000E+00  8112   0.178E+00 0.000E+00
CGA:   2    -0.320028929954E+03   -0.36085E-01   -0.36091E-01  8112   0.119E+00-0.815E-04
CGA:   3    -0.320042143692E+03   -0.13214E-01   -0.13223E-01  8112   0.755E-01 0.910E-04
CGA:   4    -0.320050330524E+03   -0.81868E-02   -0.81879E-02  8112   0.181E-01 0.238E-04
CGA:   5    -0.320052852967E+03   -0.25224E-02   -0.25225E-02  8112   0.573E-02-0.102E-04
CGA:   6    -0.320053591790E+03   -0.73882E-03   -0.73883E-03  8112   0.260E-02-0.614E-06
CGA:   7    -0.320053856515E+03   -0.26472E-03   -0.26479E-03  8112   0.108E-02 0.148E-06
CGA:   8    -0.320053984720E+03   -0.12820E-03   -0.12822E-03  8112   0.376E-03 0.109E-05
CGA:   9    -0.320054042929E+03   -0.58209E-04   -0.58196E-04  8112   0.179E-03 0.611E-06
CGA:  10    -0.320054063983E+03   -0.21055E-04   -0.21050E-04  8112   0.910E-04-0.276E-06
CGA:  11    -0.320054076546E+03   -0.12563E-04   -0.12565E-04  8112   0.513E-04-0.270E-06
CGA:  12    -0.320054082453E+03   -0.59069E-05   -0.59089E-05  8112   0.212E-04 0.121E-06
  22 F= -.32005408E+03 E0= -.32004932E+03  d E =-.589513E-02  mag=    44.0000
       N       E                     dE             d eps       ncg     rms          ort
SDA:   1    -0.320014997228E+03    0.39079E-01    0.00000E+00  8112   0.124E+00 0.000E+00
CGA:   2    -0.320038099742E+03   -0.23103E-01   -0.23099E-01  8112   0.105E+00 0.507E-04
CGA:   3    -0.320047660122E+03   -0.95604E-02   -0.95562E-02  8112   0.453E-01-0.170E-04
CGA:   4    -0.320054169918E+03   -0.65098E-02   -0.65096E-02  8112   0.122E-01 0.216E-04
CGA:   5    -0.320055781540E+03   -0.16116E-02   -0.16116E-02  8112   0.473E-02 0.403E-06
CGA:   6    -0.320056310909E+03   -0.52937E-03   -0.52926E-03  8112   0.178E-02-0.342E-05
CGA:   7    -0.320056511825E+03   -0.20092E-03   -0.20091E-03  8112   0.838E-03-0.651E-06
CGA:   8    -0.320056603176E+03   -0.91351E-04   -0.91371E-04  8112   0.258E-03 0.656E-06
CGA:   9    -0.320056647837E+03   -0.44660E-04   -0.44638E-04  8112   0.121E-03 0.558E-06
CGA:  10    -0.320056661433E+03   -0.13597E-04   -0.13595E-04  8112   0.680E-04-0.965E-07
CGA:  11    -0.320056671050E+03   -0.96167E-05   -0.96177E-05  8112   0.346E-04-0.112E-06
  23 F= -.32005667E+03 E0= -.32005190E+03  d E =-.258860E-02  mag=    44.0000
       N       E                     dE             d eps       ncg     rms          ort
SDA:   1    -0.320049333936E+03    0.73275E-02    0.00000E+00  8112   0.289E-01 0.000E+00
CGA:   2    -0.320053146765E+03   -0.38128E-02   -0.38128E-02  8112   0.272E-01-0.478E-05
CGA:   3    -0.320056131027E+03   -0.29843E-02   -0.29843E-02  8112   0.815E-02-0.594E-06
CGA:   4    -0.320057206547E+03   -0.10755E-02   -0.10755E-02  8112   0.419E-02 0.382E-05
CGA:   5    -0.320057678913E+03   -0.47237E-03   -0.47236E-03  8112   0.787E-03 0.140E-05
CGA:   6    -0.320057804980E+03   -0.12607E-03   -0.12612E-03  8112   0.331E-03-0.180E-05
CGA:   7    -0.320057839877E+03   -0.34897E-04   -0.34876E-04  8112   0.153E-03-0.724E-06
CGA:   8    -0.320057856763E+03   -0.16886E-04   -0.16884E-04  8112   0.621E-04-0.507E-07
CGA:   9    -0.320057864638E+03   -0.78749E-05   -0.78754E-05  8112   0.236E-04 0.248E-06
  24 F= -.32005786E+03 E0= -.32005309E+03  d E =-.119359E-02  mag=    44.0000
       N       E                     dE             d eps       ncg     rms          ort
SDA:   1    -0.320002902784E+03    0.54954E-01    0.00000E+00  8112   0.162E+00 0.000E+00
CGA:   2    -0.320036201448E+03   -0.33299E-01   -0.33276E-01  8112   0.170E+00 0.281E-03
CGA:   3    -0.320050647656E+03   -0.14446E-01   -0.14445E-01  8112   0.483E-01-0.664E-04
CGA:   4    -0.320057292002E+03   -0.66443E-02   -0.66450E-02  8112   0.213E-01-0.675E-04
CGA:   5    -0.320059515419E+03   -0.22234E-02   -0.22242E-02  8112   0.458E-02 0.848E-05
CGA:   6    -0.320060164116E+03   -0.64870E-03   -0.64869E-03  8112   0.188E-02-0.315E-06
CGA:   7    -0.320060397917E+03   -0.23380E-03   -0.23378E-03  8112   0.741E-03-0.230E-05
CGA:   8    -0.320060471602E+03   -0.73684E-04   -0.73674E-04  8112   0.362E-03-0.142E-06
CGA:   9    -0.320060518958E+03   -0.47356E-04   -0.47356E-04  8112   0.111E-03 0.306E-06
CGA:  10    -0.320060539547E+03   -0.20589E-04   -0.20577E-04  8112   0.693E-04 0.226E-06
CGA:  11    -0.320060548431E+03   -0.88845E-05   -0.88854E-05  8112   0.388E-04 0.212E-06
  25 F= -.32006055E+03 E0= -.32005577E+03  d E =-.268379E-02  mag=    44.0000
       N       E                     dE             d eps       ncg     rms          ort
SDA:   1    -0.320053936267E+03    0.66033E-02    0.00000E+00  8112   0.263E-01 0.000E+00
CGA:   2    -0.320056410407E+03   -0.24741E-02   -0.24753E-02  8112   0.204E-01 0.130E-05
CGA:   3    -0.320059774318E+03   -0.33639E-02   -0.33642E-02  8112   0.649E-02-0.673E-05
CGA:   4    -0.320060506185E+03   -0.73187E-03   -0.73185E-03  8112   0.223E-02-0.316E-06
CGA:   5    -0.320060807183E+03   -0.30100E-03   -0.30100E-03  8112   0.517E-03 0.925E-06
CGA:   6    -0.320060875877E+03   -0.68694E-04   -0.68694E-04  8112   0.218E-03-0.413E-06
CGA:   7    -0.320060904001E+03   -0.28124E-04   -0.28122E-04  8112   0.806E-04-0.656E-06
CGA:   8    -0.320060912089E+03   -0.80877E-05   -0.80894E-05  8112   0.411E-04 0.410E-07
  26 F= -.32006091E+03 E0= -.32005613E+03  d E =-.363657E-03  mag=    44.0000
       N       E                     dE             d eps       ncg     rms          ort
SDA:   1    -0.320024985998E+03    0.35918E-01    0.00000E+00  8112   0.881E-01 0.000E+00
CGA:   2    -0.320049773807E+03   -0.24788E-01   -0.24781E-01  8112   0.934E-01 0.529E-04
CGA:   3    -0.320056949805E+03   -0.71760E-02   -0.71857E-02  8112   0.235E-01-0.743E-04
CGA:   4    -0.320059891323E+03   -0.29415E-02   -0.29413E-02  8112   0.871E-02-0.127E-04
CGA:   5    -0.320060826590E+03   -0.93527E-03   -0.93525E-03  8112   0.219E-02 0.126E-05
CGA:   6    -0.320061149984E+03   -0.32339E-03   -0.32336E-03  8112   0.871E-03 0.196E-05
CGA:   7    -0.320061249692E+03   -0.99707E-04   -0.99703E-04  8112   0.381E-03-0.116E-06
CGA:   8    -0.320061288978E+03   -0.39286E-04   -0.39267E-04  8112   0.149E-03-0.458E-06
CGA:   9    -0.320061307972E+03   -0.18994E-04   -0.18993E-04  8112   0.578E-04-0.239E-06
CGA:  10    -0.320061316567E+03   -0.85955E-05   -0.85924E-05  8112   0.263E-04 0.158E-06
  27 F= -.32006132E+03 E0= -.32005653E+03  d E =-.404478E-03  mag=    44.0000
       N       E                     dE             d eps       ncg     rms          ort
SDA:   1    -0.319968997309E+03    0.92311E-01    0.00000E+00  8112   0.236E+00 0.000E+00
CGA:   2    -0.320024398575E+03   -0.55401E-01   -0.55305E-01  8112   0.297E+00 0.907E-03
CGA:   3    -0.320048093870E+03   -0.23695E-01   -0.23602E-01  8112   0.659E-01 0.181E-03
CGA:   4    -0.320057823153E+03   -0.97293E-02   -0.97301E-02  8112   0.211E-01-0.312E-04
CGA:   5    -0.320060096606E+03   -0.22735E-02   -0.22739E-02  8112   0.689E-02 0.488E-05
CGA:   6    -0.320061019781E+03   -0.92317E-03   -0.92317E-03  8112   0.244E-02 0.521E-06
CGA:   7    -0.320061279548E+03   -0.25977E-03   -0.25971E-03  8112   0.126E-02-0.909E-06
CGA:   8    -0.320061419079E+03   -0.13953E-03   -0.13954E-03  8112   0.352E-03 0.500E-07
CGA:   9    -0.320061471668E+03   -0.52589E-04   -0.52580E-04  8112   0.176E-03 0.496E-06
CGA:  10    -0.320061495003E+03   -0.23335E-04   -0.23335E-04  8112   0.791E-04 0.117E-06
CGA:  11    -0.320061504891E+03   -0.98883E-05   -0.98888E-05  8112   0.532E-04 0.818E-07
  28 F= -.32006150E+03 E0= -.32005670E+03  d E =-.188324E-03  mag=    44.0000
       N       E                     dE             d eps       ncg     rms          ort
SDA:   1    -0.317069315849E+03    0.29922E+01    0.00000E+00  8112   0.715E+01 0.000E+00
CGA:   2    -0.319297416419E+03   -0.22281E+01   -0.22256E+01  8112   0.415E+01 0.165E-01
CGA:   3    -0.319746595317E+03   -0.44918E+00   -0.44847E+00  8112   0.224E+01-0.169E-01
CGA:   4    -0.319954952326E+03   -0.20836E+00   -0.20754E+00  8112   0.476E+00-0.511E-02
CGA:   5    -0.320018461743E+03   -0.63509E-01   -0.63508E-01  8112   0.168E+00-0.155E-03
CGA:   6    -0.320039415661E+03   -0.20954E-01   -0.20963E-01  8112   0.615E-01 0.317E-03
CGA:   7    -0.320047230296E+03   -0.78146E-02   -0.78130E-02  8112   0.283E-01-0.777E-04
CGA:   8    -0.320049860489E+03   -0.26302E-02   -0.26322E-02  8112   0.107E-01-0.608E-05
CGA:   9    -0.320051513373E+03   -0.16529E-02   -0.16525E-02  8112   0.377E-02 0.111E-04
CGA:  10    -0.320052060250E+03   -0.54688E-03   -0.54683E-03  8112   0.229E-02 0.527E-05
CGA:  11    -0.320052364110E+03   -0.30386E-03   -0.30388E-03  8112   0.140E-02 0.578E-05
CGA:  12    -0.320052529014E+03   -0.16490E-03   -0.16497E-03  8112   0.666E-03 0.266E-05
CGA:  13    -0.320052647442E+03   -0.11843E-03   -0.11839E-03  8112   0.393E-03 0.814E-06
CGA:  14    -0.320052694840E+03   -0.47398E-04   -0.47417E-04  8112   0.174E-03 0.116E-05
CGA:  15    -0.320052721034E+03   -0.26193E-04   -0.26159E-04  8112   0.112E-03 0.238E-05
CGA:  16    -0.320052731830E+03   -0.10796E-04   -0.10853E-04  8112   0.305E-04 0.137E-05
CGA:  17    -0.320052736807E+03   -0.49774E-05   -0.49625E-05  8112   0.162E-04 0.555E-06
  29 F= -.32005274E+03 E0= -.32004792E+03  d E =0.876808E-02  mag=    44.0000
       N       E                     dE             d eps       ncg     rms          ort
SDA:   1    -0.318867988669E+03    0.11847E+01    0.00000E+00  8112   0.300E+01 0.000E+00
CGA:   2    -0.319699074923E+03   -0.83109E+00   -0.83091E+00  8112   0.162E+01 0.138E-02
CGA:   3    -0.319962477696E+03   -0.26340E+00   -0.26339E+00  8112   0.517E+00 0.503E-03
CGA:   4    -0.320026423489E+03   -0.63946E-01   -0.63905E-01  8112   0.161E+00-0.708E-03
CGA:   5    -0.320046533894E+03   -0.20110E-01   -0.20110E-01  8112   0.532E-01-0.412E-05
CGA:   6    -0.320053748788E+03   -0.72149E-02   -0.72152E-02  8112   0.229E-01 0.331E-04
CGA:   7    -0.320055925369E+03   -0.21766E-02   -0.21746E-02  8112   0.102E-01 0.218E-05
CGA:   8    -0.320057223068E+03   -0.12977E-02   -0.12978E-02  8112   0.365E-02 0.691E-05
CGA:   9    -0.320057727853E+03   -0.50479E-03   -0.50478E-03  8112   0.154E-02 0.835E-06
CGA:  10    -0.320057982870E+03   -0.25502E-03   -0.25499E-03  8112   0.751E-03 0.947E-06
CGA:  11    -0.320058083039E+03   -0.10017E-03   -0.10018E-03  8112   0.508E-03 0.138E-05
CGA:  12    -0.320058144567E+03   -0.61528E-04   -0.61554E-04  8112   0.270E-03 0.139E-05
CGA:  13    -0.320058180445E+03   -0.35878E-04   -0.35883E-04  8112   0.123E-03 0.875E-06
CGA:  14    -0.320058202004E+03   -0.21559E-04   -0.21539E-04  8112   0.547E-04 0.541E-06
CGA:  15    -0.320058209817E+03   -0.78132E-05   -0.78130E-05  8112   0.314E-04 0.131E-06
  30 F= -.32005821E+03 E0= -.32005337E+03  d E =-.547301E-02  mag=    44.0000
       N       E                     dE             d eps       ncg     rms          ort
SDA:   1    -0.319646863308E+03    0.41134E+00    0.00000E+00  8112   0.101E+01 0.000E+00
CGA:   2    -0.319951727911E+03   -0.30486E+00   -0.30485E+00  8112   0.591E+00 0.904E-04
CGA:   3    -0.320015252954E+03   -0.63525E-01   -0.63419E-01  8112   0.331E+00-0.688E-03
CGA:   4    -0.320046273871E+03   -0.31021E-01   -0.31023E-01  8112   0.685E-01-0.863E-04
CGA:   5    -0.320055751103E+03   -0.94772E-02   -0.94766E-02  8112   0.223E-01-0.775E-04
CGA:   6    -0.320058614290E+03   -0.28632E-02   -0.28640E-02  8112   0.951E-02 0.259E-04
CGA:   7    -0.320059650493E+03   -0.10362E-02   -0.10362E-02  8112   0.411E-02 0.209E-05
CGA:   8    -0.320060085491E+03   -0.43500E-03   -0.43514E-03  8112   0.148E-02 0.180E-05
CGA:   9    -0.320060309091E+03   -0.22360E-03   -0.22360E-03  8112   0.591E-03-0.143E-07
CGA:  10    -0.320060388882E+03   -0.79791E-04   -0.79790E-04  8112   0.347E-03-0.173E-06
CGA:  11    -0.320060432733E+03   -0.43852E-04   -0.43853E-04  8112   0.209E-03 0.125E-06
CGA:  12    -0.320060458954E+03   -0.26220E-04   -0.26227E-04  8112   0.904E-04 0.513E-06
CGA:  13    -0.320060476467E+03   -0.17513E-04   -0.17469E-04  8112   0.515E-04 0.791E-06
CGA:  14    -0.320060482426E+03   -0.59593E-05   -0.59591E-05  8112   0.318E-04-0.970E-08
  31 F= -.32006048E+03 E0= -.32005563E+03  d E =-.227261E-02  mag=    44.0000
       N       E                     dE             d eps       ncg     rms          ort
SDA:   1    -0.319881194912E+03    0.17928E+00    0.00000E+00  8112   0.463E+00 0.000E+00
CGA:   2    -0.320001951043E+03   -0.12076E+00   -0.12073E+00  8112   0.331E+00 0.221E-03
CGA:   3    -0.320037820254E+03   -0.35869E-01   -0.35856E-01  8112   0.162E+00-0.177E-03
CGA:   4    -0.320054379113E+03   -0.16559E-01   -0.16535E-01  8112   0.467E-01-0.106E-03
CGA:   5    -0.320059240144E+03   -0.48610E-02   -0.48657E-02  8112   0.160E-01 0.197E-04
CGA:   6    -0.320061324209E+03   -0.20841E-02   -0.20841E-02  8112   0.471E-02 0.629E-05
CGA:   7    -0.320062017652E+03   -0.69344E-03   -0.69347E-03  8112   0.221E-02-0.282E-05
CGA:   8    -0.320062233362E+03   -0.21571E-03   -0.21560E-03  8112   0.948E-03-0.152E-05
CGA:   9    -0.320062357356E+03   -0.12399E-03   -0.12400E-03  8112   0.418E-03 0.254E-06
CGA:  10    -0.320062410273E+03   -0.52916E-04   -0.52930E-04  8112   0.174E-03 0.128E-05
CGA:  11    -0.320062439818E+03   -0.29545E-04   -0.29501E-04  8112   0.104E-03 0.133E-05
CGA:  12    -0.320062452316E+03   -0.12498E-04   -0.12498E-04  8112   0.612E-04-0.405E-07
CGA:  13    -0.320062460314E+03   -0.79978E-05   -0.79955E-05  8112   0.334E-04-0.392E-06
  32 F= -.32006246E+03 E0= -.32005762E+03  d E =-.197789E-02  mag=    44.0000
       N       E                     dE             d eps       ncg     rms          ort
SDA:   1    -0.318990484166E+03    0.10720E+01    0.00000E+00  8112   0.256E+01 0.000E+00
CGA:   2    -0.319798738469E+03   -0.80825E+00   -0.80816E+00  8112   0.135E+01 0.645E-03
CGA:   3    -0.319984262862E+03   -0.18552E+00   -0.18553E+00  8112   0.468E+00 0.342E-04
CGA:   4    -0.320039737090E+03   -0.55474E-01   -0.55464E-01  8112   0.111E+00-0.832E-04
CGA:   5    -0.320056407519E+03   -0.16670E-01   -0.16671E-01  8112   0.355E-01-0.140E-04
CGA:   6    -0.320061008338E+03   -0.46008E-02   -0.46008E-02  8112   0.195E-01-0.443E-06
CGA:   7    -0.320062765887E+03   -0.17575E-02   -0.17553E-02  8112   0.617E-02 0.156E-05
CGA:   8    -0.320063600643E+03   -0.83476E-03   -0.83474E-03  8112   0.271E-02-0.122E-05
CGA:   9    -0.320063967873E+03   -0.36723E-03   -0.36724E-03  8112   0.977E-03 0.195E-05
CGA:  10    -0.320064132630E+03   -0.16476E-03   -0.16467E-03  8112   0.642E-03 0.292E-05
CGA:  11    -0.320064210834E+03   -0.78204E-04   -0.78228E-04  8112   0.351E-03 0.115E-05
CGA:  12    -0.320064257129E+03   -0.46294E-04   -0.46301E-04  8112   0.240E-03 0.622E-06
CGA:  13    -0.320064288788E+03   -0.31659E-04   -0.31664E-04  8112   0.859E-04 0.576E-06
CGA:  14    -0.320064303825E+03   -0.15037E-04   -0.15014E-04  8112   0.478E-04 0.664E-06
CGA:  15    -0.320064309981E+03   -0.61555E-05   -0.61641E-05  8112   0.189E-04 0.629E-06
  33 F= -.32006431E+03 E0= -.32005945E+03  d E =-.184967E-02  mag=    44.0000
       N       E                     dE             d eps       ncg     rms          ort
SDA:   1    -0.290582078146E+03    0.29482E+02    0.00000E+00  8112   0.964E+02 0.000E+00
CGA:   2    -0.307120501164E+03   -0.16538E+02   -0.16469E+02  8112   0.526E+02 0.169E+01
CGA:   3    -0.313643122403E+03   -0.65226E+01   -0.64536E+01  8112   0.392E+02-0.225E+01
CGA:   4    -0.317266014480E+03   -0.36229E+01   -0.31451E+01  8112   0.876E+01 0.193E+01
CGA:   5    -0.318643074767E+03   -0.13771E+01   -0.13831E+01  8112   0.499E+01-0.277E+00
CGA:   6    -0.319087972220E+03   -0.44490E+00   -0.45047E+00  8112   0.136E+01 0.131E-01
CGA:   7    -0.319236518516E+03   -0.14855E+00   -0.15049E+00  8112   0.116E+01 0.212E-01
CGA:   8    -0.319319710403E+03   -0.83192E-01   -0.86093E-01  8112   0.318E+00-0.157E-01
CGA:   9    -0.319363483368E+03   -0.43773E-01   -0.43757E-01  8112   0.144E+00 0.112E-02
CGA:  10    -0.319384340796E+03   -0.20857E-01   -0.20810E-01  8112   0.756E-01 0.233E-02
CGA:  11    -0.319392363848E+03   -0.80231E-02   -0.80989E-02  8112   0.587E-01 0.747E-03
CGA:  12    -0.319399151198E+03   -0.67873E-02   -0.68174E-02  8112   0.174E-01 0.714E-03
CGA:  13    -0.319402387964E+03   -0.32368E-02   -0.32312E-02  8112   0.994E-02 0.859E-04
CGA:  14    -0.319403809931E+03   -0.14220E-02   -0.14203E-02  8112   0.728E-02 0.106E-03
CGA:  15    -0.319404491498E+03   -0.68157E-03   -0.68423E-03  8112   0.252E-02 0.792E-05
CGA:  16    -0.319404936188E+03   -0.44469E-03   -0.44432E-03  8112   0.176E-02 0.586E-05
CGA:  17    -0.319405128367E+03   -0.19218E-03   -0.19229E-03  8112   0.568E-03 0.950E-06
CGA:  18    -0.319405221969E+03   -0.93602E-04   -0.93556E-04  8112   0.373E-03 0.100E-05
CGA:  19    -0.319405263767E+03   -0.41798E-04   -0.41829E-04  8112   0.199E-03 0.809E-06
CGA:  20    -0.319405287143E+03   -0.23376E-04   -0.23397E-04  8112   0.805E-04 0.106E-05
CGA:  21    -0.319405303988E+03   -0.16845E-04   -0.16746E-04  8112   0.448E-04 0.130E-05
CGA:  22    -0.319405309727E+03   -0.57390E-05   -0.57432E-05  8112   0.292E-04 0.399E-06
  34 F= -.31940531E+03 E0= -.31940013E+03  d E =0.659000E+00  mag=    44.0000
       N       E                     dE             d eps       ncg     rms          ort
SDA:   1    -0.314086896420E+03    0.53184E+01    0.00000E+00  8112   0.174E+02 0.000E+00
CGA:   2    -0.317376899956E+03   -0.32900E+01   -0.33121E+01  8112   0.122E+02-0.315E+00
CGA:   3    -0.318729826539E+03   -0.13529E+01   -0.13535E+01  8112   0.668E+01 0.738E-02
CGA:   4    -0.319483805558E+03   -0.75398E+00   -0.75115E+00  8112   0.231E+01-0.367E-01
CGA:   5    -0.319720064960E+03   -0.23626E+00   -0.23534E+00  8112   0.775E+00-0.285E-02
CGA:   6    -0.319813399879E+03   -0.93335E-01   -0.93290E-01  8112   0.248E+00-0.110E-02
CGA:   7    -0.319846180014E+03   -0.32780E-01   -0.32782E-01  8112   0.124E+00 0.831E-03
CGA:   8    -0.319857943293E+03   -0.11763E-01   -0.11778E-01  8112   0.492E-01 0.505E-04
CGA:   9    -0.319864850838E+03   -0.69075E-02   -0.69066E-02  8112   0.210E-01 0.702E-04
CGA:  10    -0.319867703251E+03   -0.28524E-02   -0.28520E-02  8112   0.991E-02 0.612E-04
CGA:  11    -0.319868923886E+03   -0.12206E-02   -0.12210E-02  8112   0.629E-02 0.274E-04
CGA:  12    -0.319869713901E+03   -0.79001E-03   -0.79015E-03  8112   0.253E-02 0.137E-04
CGA:  13    -0.319870070436E+03   -0.35653E-03   -0.35648E-03  8112   0.149E-02 0.335E-05
CGA:  14    -0.319870283956E+03   -0.21352E-03   -0.21348E-03  8112   0.788E-03 0.195E-05
CGA:  15    -0.319870378675E+03   -0.94719E-04   -0.94750E-04  8112   0.458E-03 0.193E-05
CGA:  16    -0.319870440989E+03   -0.62314E-04   -0.62300E-04  8112   0.215E-03 0.307E-05
CGA:  17    -0.319870470061E+03   -0.29072E-04   -0.29065E-04  8112   0.903E-04 0.229E-05
CGA:  18    -0.319870482921E+03   -0.12860E-04   -0.12853E-04  8112   0.646E-04 0.709E-06
CGA:  19    -0.319870490045E+03   -0.71237E-05   -0.71282E-05  8112   0.227E-04 0.167E-06
  35 F= -.31987049E+03 E0= -.31986547E+03  d E =-.465180E+00  mag=    44.0000
       N       E                     dE             d eps       ncg     rms          ort
SDA:   1    -0.318254422588E+03    0.16161E+01    0.00000E+00  8112   0.510E+01 0.000E+00
CGA:   2    -0.319301904021E+03   -0.10475E+01   -0.10480E+01  8112   0.341E+01-0.410E-02
CGA:   3    -0.319674517262E+03   -0.37261E+00   -0.37211E+00  8112   0.213E+01-0.104E-01
CGA:   4    -0.319910289348E+03   -0.23577E+00   -0.23518E+00  8112   0.557E+00-0.687E-02
CGA:   5    -0.319980035549E+03   -0.69746E-01   -0.69731E-01  8112   0.194E+00-0.651E-03
CGA:   6    -0.320002286125E+03   -0.22251E-01   -0.22249E-01  8112   0.734E-01 0.169E-04
CGA:   7    -0.320011421638E+03   -0.91355E-02   -0.91369E-02  8112   0.320E-01 0.798E-04
CGA:   8    -0.320014538720E+03   -0.31171E-02   -0.31187E-02  8112   0.135E-01 0.843E-05
CGA:   9    -0.320016554217E+03   -0.20155E-02   -0.20152E-02  8112   0.485E-02 0.132E-04
CGA:  10    -0.320017258200E+03   -0.70398E-03   -0.70378E-03  8112   0.290E-02 0.134E-04
CGA:  11    -0.320017599764E+03   -0.34156E-03   -0.34171E-03  8112   0.159E-02 0.780E-05
CGA:  12    -0.320017799123E+03   -0.19936E-03   -0.19937E-03  8112   0.664E-03 0.222E-05
CGA:  13    -0.320017904532E+03   -0.10541E-03   -0.10543E-03  8112   0.393E-03-0.987E-06
CGA:  14    -0.320017953907E+03   -0.49375E-04   -0.49376E-04  8112   0.201E-03 0.233E-07
CGA:  15    -0.320017980854E+03   -0.26946E-04   -0.26944E-04  8112   0.127E-03 0.125E-05
CGA:  16    -0.320017996132E+03   -0.15278E-04   -0.15297E-04  8112   0.443E-04 0.155E-05
CGA:  17    -0.320018003404E+03   -0.72725E-05   -0.72383E-05  8112   0.252E-04 0.114E-05
  36 F= -.32001800E+03 E0= -.32001307E+03  d E =-.147513E+00  mag=    44.0000
       N       E                     dE             d eps       ncg     rms          ort
SDA:   1    -0.318518055152E+03    0.14999E+01    0.00000E+00  8112   0.441E+01 0.000E+00
CGA:   2    -0.319456737471E+03   -0.93868E+00   -0.93867E+00  8112   0.294E+01 0.201E-02
CGA:   3    -0.319778993998E+03   -0.32226E+00   -0.32149E+00  8112   0.182E+01-0.108E-01
CGA:   4    -0.319979760266E+03   -0.20077E+00   -0.20035E+00  8112   0.472E+00-0.477E-02
CGA:   5    -0.320037318911E+03   -0.57559E-01   -0.57554E-01  8112   0.167E+00-0.716E-04
CGA:   6    -0.320056901809E+03   -0.19583E-01   -0.19580E-01  8112   0.595E-01-0.280E-04
CGA:   7    -0.320064604665E+03   -0.77029E-02   -0.77031E-02  8112   0.274E-01 0.492E-04
CGA:   8    -0.320067182224E+03   -0.25776E-02   -0.25794E-02  8112   0.109E-01 0.336E-05
CGA:   9    -0.320068915680E+03   -0.17335E-02   -0.17332E-02  8112   0.392E-02 0.769E-05
CGA:  10    -0.320069466124E+03   -0.55044E-03   -0.55034E-03  8112   0.252E-02 0.109E-04
CGA:  11    -0.320069776218E+03   -0.31009E-03   -0.31018E-03  8112   0.125E-02 0.779E-05
CGA:  12    -0.320069927288E+03   -0.15107E-03   -0.15109E-03  8112   0.614E-03 0.126E-05
CGA:  13    -0.320070023849E+03   -0.96561E-04   -0.96600E-04  8112   0.295E-03-0.166E-05
CGA:  14    -0.320070063609E+03   -0.39760E-04   -0.39760E-04  8112   0.180E-03-0.483E-08
CGA:  15    -0.320070086319E+03   -0.22711E-04   -0.22718E-04  8112   0.997E-04 0.118E-05
CGA:  16    -0.320070098403E+03   -0.12084E-04   -0.12102E-04  8112   0.343E-04 0.149E-05
CGA:  17    -0.320070104346E+03   -0.59430E-05   -0.58988E-05  8112   0.204E-04 0.116E-05
  37 F= -.32007010E+03 E0= -.32006525E+03  d E =-.521009E-01  mag=    44.0000
       N       E                     dE             d eps       ncg     rms          ort
SDA:   1    -0.320013016235E+03    0.57082E-01    0.00000E+00  8112   0.161E+00 0.000E+00
CGA:   2    -0.320047983642E+03   -0.34967E-01   -0.34953E-01  8112   0.154E+00 0.170E-03
CGA:   3    -0.320060789357E+03   -0.12806E-01   -0.12792E-01  8112   0.554E-01-0.309E-04
CGA:   4    -0.320068996849E+03   -0.82075E-02   -0.82081E-02  8112   0.129E-01-0.398E-04
CGA:   5    -0.320070929905E+03   -0.19331E-02   -0.19330E-02  8112   0.496E-02 0.690E-06
CGA:   6    -0.320071413406E+03   -0.48350E-03   -0.48338E-03  8112   0.231E-02-0.654E-06
CGA:   7    -0.320071683776E+03   -0.27037E-03   -0.27033E-03  8112   0.645E-03-0.182E-05
CGA:   8    -0.320071774991E+03   -0.91216E-04   -0.91220E-04  8112   0.346E-03-0.631E-06
CGA:   9    -0.320071816961E+03   -0.41970E-04   -0.41976E-04  8112   0.143E-03 0.509E-06
CGA:  10    -0.320071834648E+03   -0.17687E-04   -0.17695E-04  8112   0.826E-04 0.823E-06
CGA:  11    -0.320071845762E+03   -0.11114E-04   -0.11113E-04  8112   0.387E-04 0.630E-06
CGA:  12    -0.320071851188E+03   -0.54253E-05   -0.54252E-05  8112   0.200E-04 0.348E-07
  38 F= -.32007185E+03 E0= -.32006701E+03  d E =-.174684E-02  mag=    44.0000
       N       E                     dE             d eps       ncg     rms          ort
SDA:   1    -0.319921451892E+03    0.15039E+00    0.00000E+00  8112   0.409E+00 0.000E+00
CGA:   2    -0.320019909381E+03   -0.98457E-01   -0.98441E-01  8112   0.313E+00 0.161E-03
CGA:   3    -0.320048829145E+03   -0.28920E-01   -0.28900E-01  8112   0.152E+00-0.243E-03
CGA:   4    -0.320066728629E+03   -0.17899E-01   -0.17891E-01  8112   0.359E-01-0.133E-03
CGA:   5    -0.320072128378E+03   -0.53997E-02   -0.53995E-02  8112   0.114E-01 0.801E-05
CGA:   6    -0.320073377542E+03   -0.12492E-02   -0.12489E-02  8112   0.564E-02-0.874E-05
CGA:   7    -0.320073979113E+03   -0.60157E-03   -0.60148E-03  8112   0.187E-02-0.272E-05
CGA:   8    -0.320074208546E+03   -0.22943E-03   -0.22946E-03  8112   0.823E-03 0.264E-05
CGA:   9    -0.320074325048E+03   -0.11650E-03   -0.11648E-03  8112   0.332E-03 0.215E-05
CGA:  10    -0.320074367774E+03   -0.42726E-04   -0.42727E-04  8112   0.217E-03 0.284E-06
CGA:  11    -0.320074393913E+03   -0.26140E-04   -0.26141E-04  8112   0.945E-04 0.123E-06
CGA:  12    -0.320074407593E+03   -0.13680E-04   -0.13677E-04  8112   0.489E-04 0.197E-06
CGA:  13    -0.320074415003E+03   -0.74103E-05   -0.74055E-05  8112   0.289E-04 0.271E-06
  39 F= -.32007442E+03 E0= -.32006957E+03  d E =-.256382E-02  mag=    44.0000
       N       E                     dE             d eps       ncg     rms          ort
SDA:   1    -0.320051920998E+03    0.22487E-01    0.00000E+00  8112   0.713E-01 0.000E+00
CGA:   2    -0.320063214847E+03   -0.11294E-01   -0.11295E-01  8112   0.720E-01-0.365E-04
CGA:   3    -0.320070045017E+03   -0.68302E-02   -0.68314E-02  8112   0.248E-01 0.171E-05
CGA:   4    -0.320073967843E+03   -0.39228E-02   -0.39221E-02  8112   0.707E-02 0.297E-04
CGA:   5    -0.320074899959E+03   -0.93212E-03   -0.93211E-03  8112   0.276E-02-0.413E-07
CGA:   6    -0.320075179413E+03   -0.27945E-03   -0.27938E-03  8112   0.106E-02-0.293E-05
CGA:   7    -0.320075306282E+03   -0.12687E-03   -0.12686E-03  8112   0.472E-03-0.785E-06
CGA:   8    -0.320075355665E+03   -0.49383E-04   -0.49406E-04  8112   0.156E-03 0.887E-06
CGA:   9    -0.320075381303E+03   -0.25638E-04   -0.25608E-04  8112   0.651E-04 0.897E-06
CGA:  10    -0.320075389356E+03   -0.80529E-05   -0.80508E-05  8112   0.379E-04-0.237E-06
  40 F= -.32007539E+03 E0= -.32007053E+03  d E =-.974353E-03  mag=    44.0000
       N       E                     dE             d eps       ncg     rms          ort
SDA:   1    -0.319958814553E+03    0.11657E+00    0.00000E+00  8112   0.290E+00 0.000E+00
CGA:   2    -0.320035007446E+03   -0.76193E-01   -0.76089E-01  8112   0.272E+00 0.797E-03
CGA:   3    -0.320059085446E+03   -0.24078E-01   -0.24014E-01  8112   0.953E-01-0.627E-05
CGA:   4    -0.320069654021E+03   -0.10569E-01   -0.10570E-01  8112   0.306E-01 0.280E-04
CGA:   5    -0.320073041288E+03   -0.33873E-02   -0.33865E-02  8112   0.888E-02-0.925E-05
CGA:   6    -0.320074250231E+03   -0.12089E-02   -0.12090E-02  8112   0.299E-02-0.525E-05
CGA:   7    -0.320074636728E+03   -0.38650E-03   -0.38649E-03  8112   0.150E-02-0.191E-05
CGA:   8    -0.320074783972E+03   -0.14724E-03   -0.14730E-03  8112   0.558E-03 0.982E-06
CGA:   9    -0.320074854113E+03   -0.70141E-04   -0.70147E-04  8112   0.243E-03 0.107E-05
CGA:  10    -0.320074889534E+03   -0.35421E-04   -0.35423E-04  8112   0.966E-04-0.939E-07
CGA:  11    -0.320074903872E+03   -0.14338E-04   -0.14347E-04  8112   0.685E-04-0.519E-06
CGA:  12    -0.320074912454E+03   -0.85821E-05   -0.85819E-05  8112   0.360E-04-0.264E-07
  41 F= -.32007491E+03 E0= -.32007006E+03  d E =0.476902E-03  mag=    44.0000
       N       E                     dE             d eps       ncg     rms          ort
SDA:   1    -0.319960403704E+03    0.11450E+00    0.00000E+00  8112   0.285E+00 0.000E+00
CGA:   2    -0.320029292725E+03   -0.68889E-01   -0.68865E-01  8112   0.352E+00 0.271E-03
CGA:   3    -0.320056685057E+03   -0.27392E-01   -0.27362E-01  8112   0.819E-01-0.155E-03
CGA:   4    -0.320068624429E+03   -0.11939E-01   -0.11941E-01  8112   0.251E-01-0.679E-04
CGA:   5    -0.320071352418E+03   -0.27280E-02   -0.27294E-02  8112   0.836E-02 0.167E-04
CGA:   6    -0.320072436177E+03   -0.10838E-02   -0.10838E-02  8112   0.304E-02-0.235E-05
CGA:   7    -0.320072775487E+03   -0.33931E-03   -0.33929E-03  8112   0.159E-02-0.355E-06
CGA:   8    -0.320072942471E+03   -0.16698E-03   -0.16699E-03  8112   0.465E-03 0.754E-06
CGA:   9    -0.320073013386E+03   -0.70915E-04   -0.70902E-04  8112   0.213E-03 0.516E-06
CGA:  10    -0.320073042124E+03   -0.28738E-04   -0.28739E-04  8112   0.105E-03-0.287E-06
CGA:  11    -0.320073055265E+03   -0.13141E-04   -0.13139E-04  8112   0.694E-04-0.388E-06
CGA:  12    -0.320073064189E+03   -0.89236E-05   -0.89234E-05  8112   0.310E-04-0.121E-06
  42 F= -.32007306E+03 E0= -.32006821E+03  d E =0.184827E-02  mag=    44.0000
       N       E                     dE             d eps       ncg     rms          ort
SDA:   1    -0.319865081676E+03    0.20797E+00    0.00000E+00  8112   0.501E+00 0.000E+00
CGA:   2    -0.320016659063E+03   -0.15158E+00   -0.15150E+00  8112   0.318E+00 0.450E-03
CGA:   3    -0.320050032727E+03   -0.33374E-01   -0.33316E-01  8112   0.143E+00-0.273E-03
CGA:   4    -0.320064264991E+03   -0.14232E-01   -0.14216E-01  8112   0.434E-01-0.780E-04
CGA:   5    -0.320068818630E+03   -0.45536E-02   -0.45507E-02  8112   0.133E-01-0.119E-04
CGA:   6    -0.320070588598E+03   -0.17700E-02   -0.17700E-02  8112   0.459E-02 0.160E-04
CGA:   7    -0.320071206168E+03   -0.61757E-03   -0.61757E-03  8112   0.190E-02-0.137E-05
CGA:   8    -0.320071407078E+03   -0.20091E-03   -0.20084E-03  8112   0.890E-03-0.268E-05
CGA:   9    -0.320071509964E+03   -0.10289E-03   -0.10287E-03  8112   0.347E-03-0.127E-05
CGA:  10    -0.320071559279E+03   -0.49315E-04   -0.49307E-04  8112   0.159E-03 0.850E-06
CGA:  11    -0.320071583542E+03   -0.24263E-04   -0.24255E-04  8112   0.944E-04 0.431E-06
CGA:  12    -0.320071596155E+03   -0.12613E-04   -0.12613E-04  8112   0.620E-04-0.523E-07
CGA:  13    -0.320071603883E+03   -0.77279E-05   -0.77266E-05  8112   0.327E-04-0.138E-06
  43 F= -.32007160E+03 E0= -.32006676E+03  d E =0.146031E-02  mag=    44.0000
       N       E                     dE             d eps       ncg     rms          ort
SDA:   1    -0.319856816067E+03    0.21478E+00    0.00000E+00  8112   0.555E+00 0.000E+00
CGA:   2    -0.319989955216E+03   -0.13314E+00   -0.13286E+00  8112   0.442E+00 0.254E-02
CGA:   3    -0.320036893170E+03   -0.46938E-01   -0.46671E-01  8112   0.205E+00-0.142E-02
CGA:   4    -0.320058219569E+03   -0.21326E-01   -0.21305E-01  8112   0.660E-01-0.163E-03
CGA:   5    -0.320065144705E+03   -0.69251E-02   -0.69319E-02  8112   0.182E-01 0.437E-04
CGA:   6    -0.320067748281E+03   -0.26036E-02   -0.26037E-02  8112   0.590E-02 0.338E-05
CGA:   7    -0.320068570081E+03   -0.82180E-03   -0.82180E-03  8112   0.299E-02 0.794E-06
CGA:   8    -0.320068860378E+03   -0.29030E-03   -0.29018E-03  8112   0.119E-02-0.258E-05
CGA:   9    -0.320069016321E+03   -0.15594E-03   -0.15594E-03  8112   0.544E-03-0.138E-05
CGA:  10    -0.320069084142E+03   -0.67821E-04   -0.67829E-04  8112   0.209E-03 0.769E-06
CGA:  11    -0.320069119735E+03   -0.35592E-04   -0.35537E-04  8112   0.122E-03 0.150E-05
CGA:  12    -0.320069134377E+03   -0.14642E-04   -0.14643E-04  8112   0.726E-04 0.529E-07
CGA:  13    -0.320069143657E+03   -0.92806E-05   -0.92774E-05  8112   0.384E-04-0.517E-06
  44 F= -.32006914E+03 E0= -.32006431E+03  d E =0.246023E-02  mag=    44.0000
       N       E                     dE             d eps       ncg     rms          ort
SDA:   1    -0.320014006570E+03    0.55128E-01    0.00000E+00  8112   0.152E+00 0.000E+00
CGA:   2    -0.320044667963E+03   -0.30661E-01   -0.30641E-01  8112   0.187E+00 0.269E-03
CGA:   3    -0.320061362074E+03   -0.16694E-01   -0.16684E-01  8112   0.472E-01-0.348E-04
CGA:   4    -0.320067240007E+03   -0.58779E-02   -0.58776E-02  8112   0.196E-01 0.338E-05
CGA:   5    -0.320069383433E+03   -0.21434E-02   -0.21433E-02  8112   0.436E-02 0.709E-05
CGA:   6    -0.320070038890E+03   -0.65546E-03   -0.65543E-03  8112   0.172E-02 0.120E-05
CGA:   7    -0.320070228281E+03   -0.18939E-03   -0.18939E-03  8112   0.832E-03 0.903E-06
CGA:   8    -0.320070315059E+03   -0.86778E-04   -0.86812E-04  8112   0.296E-03 0.132E-05
CGA:   9    -0.320070354818E+03   -0.39759E-04   -0.39758E-04  8112   0.136E-03 0.527E-06
CGA:  10    -0.320070373084E+03   -0.18266E-04   -0.18267E-04  8112   0.542E-04-0.240E-06
CGA:  11    -0.320070382214E+03   -0.91296E-05   -0.91425E-05  8112   0.377E-04-0.344E-06
  45 F= -.32007038E+03 E0= -.32006553E+03  d E =-.123856E-02  mag=    44.0000
       N       E                     dE             d eps       ncg     rms          ort
SDA:   1    -0.319535188426E+03    0.53518E+00    0.00000E+00  8112   0.134E+01 0.000E+00
CGA:   2    -0.319869683018E+03   -0.33449E+00   -0.33362E+00  8112   0.156E+01 0.867E-02
CGA:   3    -0.319993790307E+03   -0.12411E+00   -0.12282E+00  8112   0.393E+00-0.209E-02
CGA:   4    -0.320047661499E+03   -0.53871E-01   -0.53873E-01  8112   0.126E+00-0.468E-03
CGA:   5    -0.320061740214E+03   -0.14079E-01   -0.14076E-01  8112   0.363E-01-0.258E-04
CGA:   6    -0.320066803316E+03   -0.50631E-02   -0.50629E-02  8112   0.154E-01 0.209E-04
CGA:   7    -0.320068294189E+03   -0.14909E-02   -0.14910E-02  8112   0.700E-02 0.329E-05
CGA:   8    -0.320069131643E+03   -0.83745E-03   -0.83751E-03  8112   0.205E-02 0.348E-05
CGA:   9    -0.320069452131E+03   -0.32049E-03   -0.32046E-03  8112   0.985E-03 0.753E-06
CGA:  10    -0.320069573676E+03   -0.12155E-03   -0.12155E-03  8112   0.538E-03 0.902E-07
CGA:  11    -0.320069638255E+03   -0.64578E-04   -0.64585E-04  8112   0.291E-03 0.408E-06
CGA:  12    -0.320069679511E+03   -0.41256E-04   -0.41243E-04  8112   0.146E-03 0.125E-05
CGA:  13    -0.320069702803E+03   -0.23293E-04   -0.23262E-04  8112   0.857E-04 0.118E-05
CGA:  14    -0.320069713982E+03   -0.11179E-04   -0.11180E-04  8112   0.495E-04 0.209E-06
CGA:  15    -0.320069720251E+03   -0.62694E-05   -0.62677E-05  8112   0.244E-04-0.221E-06
  46 F= -.32006972E+03 E0= -.32006484E+03  d E =0.661962E-03  mag=    44.0000
       N       E                     dE             d eps       ncg     rms          ort
SDA:   1    -0.313808366976E+03    0.62613E+01    0.00000E+00  8112   0.155E+02 0.000E+00
CGA:   2    -0.317992247268E+03   -0.41839E+01   -0.41550E+01  8112   0.139E+02 0.287E+00
CGA:   3    -0.319249735759E+03   -0.12575E+01   -0.11826E+01  8112   0.451E+01 0.110E+00
CGA:   4    -0.319812038021E+03   -0.56230E+00   -0.56138E+00  8112   0.158E+01-0.281E-01
CGA:   5    -0.319970154861E+03   -0.15812E+00   -0.15846E+00  8112   0.449E+00 0.186E-02
CGA:   6    -0.320032793317E+03   -0.62638E-01   -0.62633E-01  8112   0.149E+00 0.604E-03
CGA:   7    -0.320053540555E+03   -0.20747E-01   -0.20748E-01  8112   0.642E-01-0.934E-04
CGA:   8    -0.320060097406E+03   -0.65569E-02   -0.65666E-02  8112   0.316E-01 0.535E-04
CGA:   9    -0.320063570331E+03   -0.34729E-02   -0.34765E-02  8112   0.115E-01 0.455E-04
CGA:  10    -0.320065340760E+03   -0.17704E-02   -0.17696E-02  8112   0.510E-02 0.273E-04
CGA:  11    -0.320066149730E+03   -0.80897E-03   -0.80834E-03  8112   0.309E-02 0.197E-04
CGA:  12    -0.320066553335E+03   -0.40360E-03   -0.40369E-03  8112   0.199E-02 0.140E-04
CGA:  13    -0.320066811038E+03   -0.25770E-03   -0.25776E-03  8112   0.112E-02 0.847E-05
CGA:  14    -0.320066953079E+03   -0.14204E-03   -0.14207E-03  8112   0.495E-03 0.306E-05
CGA:  15    -0.320067038807E+03   -0.85727E-04   -0.85620E-04  8112   0.195E-03 0.264E-05
CGA:  16    -0.320067065150E+03   -0.26343E-04   -0.26345E-04  8112   0.121E-03 0.157E-05
CGA:  17    -0.320067077926E+03   -0.12775E-04   -0.12810E-04  8112   0.441E-04 0.106E-05
CGA:  18    -0.320067083674E+03   -0.57481E-05   -0.57507E-05  8112   0.198E-04 0.562E-06
  47 F= -.32006708E+03 E0= -.32006229E+03  d E =0.263658E-02  mag=    44.0000
       N       E                     dE             d eps       ncg     rms          ort
SDA:   1    -0.315299892583E+03    0.47672E+01    0.00000E+00  8112   0.120E+02 0.000E+00
CGA:   2    -0.318557415098E+03   -0.32575E+01   -0.32508E+01  8112   0.833E+01 0.535E-01
CGA:   3    -0.319497947117E+03   -0.94053E+00   -0.93747E+00  8112   0.345E+01-0.215E-01
CGA:   4    -0.319892997555E+03   -0.39505E+00   -0.39437E+00  8112   0.104E+01-0.588E-02
CGA:   5    -0.319991811005E+03   -0.98813E-01   -0.98536E-01  8112   0.420E+00-0.206E-03
CGA:   6    -0.320040378974E+03   -0.48568E-01   -0.48622E-01  8112   0.116E+00 0.897E-03
CGA:   7    -0.320058505464E+03   -0.18126E-01   -0.18129E-01  8112   0.411E-01-0.710E-04
CGA:   8    -0.320064279046E+03   -0.57736E-02   -0.57728E-02  8112   0.185E-01 0.955E-04
CGA:   9    -0.320066501145E+03   -0.22221E-02   -0.22223E-02  8112   0.962E-02 0.774E-05
CGA:  10    -0.320067634981E+03   -0.11338E-02   -0.11342E-02  8112   0.449E-02 0.130E-04
CGA:  11    -0.320068242787E+03   -0.60781E-03   -0.60779E-03  8112   0.244E-02 0.157E-04
CGA:  12    -0.320068635703E+03   -0.39292E-03   -0.39264E-03  8112   0.109E-02 0.914E-05
CGA:  13    -0.320068831128E+03   -0.19543E-03   -0.19514E-03  8112   0.742E-03 0.591E-05
CGA:  14    -0.320068917206E+03   -0.86078E-04   -0.86147E-04  8112   0.393E-03 0.267E-05
CGA:  15    -0.320068965979E+03   -0.48773E-04   -0.48806E-04  8112   0.171E-03 0.248E-05
CGA:  16    -0.320068990687E+03   -0.24709E-04   -0.24695E-04  8112   0.720E-04 0.190E-05
CGA:  17    -0.320069000285E+03   -0.95975E-05   -0.96022E-05  8112   0.278E-04 0.986E-06
  48 F= -.32006900E+03 E0= -.32006430E+03  d E =-.191661E-02  mag=    44.0000
       N       E                     dE             d eps       ncg     rms          ort
SDA:   1    -0.317023978433E+03    0.30450E+01    0.00000E+00  8112   0.754E+01 0.000E+00
CGA:   2    -0.319189445873E+03   -0.21655E+01   -0.21654E+01  8112   0.465E+01 0.181E-02
CGA:   3    -0.319766934780E+03   -0.57749E+00   -0.57713E+00  8112   0.203E+01-0.711E-02
CGA:   4    -0.319962334854E+03   -0.19540E+00   -0.19557E+00  8112   0.666E+00-0.162E-02
CGA:   5    -0.320030461469E+03   -0.68127E-01   -0.68167E-01  8112   0.215E+00 0.832E-04
CGA:   6    -0.320057688407E+03   -0.27227E-01   -0.27214E-01  8112   0.746E-01-0.362E-03
CGA:   7    -0.320067544453E+03   -0.98560E-02   -0.98560E-02  8112   0.278E-01 0.267E-05
CGA:   8    -0.320071128212E+03   -0.35838E-02   -0.35838E-02  8112   0.126E-01-0.625E-06
CGA:   9    -0.320072511986E+03   -0.13838E-02   -0.13838E-02  8112   0.645E-02 0.953E-06
CGA:  10    -0.320073310961E+03   -0.79897E-03   -0.79911E-03  8112   0.247E-02 0.697E-05
CGA:  11    -0.320073713603E+03   -0.40264E-03   -0.40257E-03  8112   0.145E-02 0.349E-05
CGA:  12    -0.320073922564E+03   -0.20896E-03   -0.20894E-03  8112   0.806E-03 0.250E-05
CGA:  13    -0.320074027385E+03   -0.10482E-03   -0.10483E-03  8112   0.547E-03 0.101E-05
CGA:  14    -0.320074094519E+03   -0.67134E-04   -0.67157E-04  8112   0.218E-03 0.150E-05
CGA:  15    -0.320074128988E+03   -0.34469E-04   -0.34435E-04  8112   0.952E-04 0.161E-05
CGA:  16    -0.320074143002E+03   -0.14014E-04   -0.14004E-04  8112   0.520E-04 0.119E-05
CGA:  17    -0.320074148093E+03   -0.50902E-05   -0.51099E-05  8112   0.198E-04 0.478E-06
  49 F= -.32007415E+03 E0= -.32006934E+03  d E =-.514781E-02  mag=    44.0000
       N       E                     dE             d eps       ncg     rms          ort
SDA:   1    -0.318930648896E+03    0.11435E+01    0.00000E+00  8112   0.284E+01 0.000E+00
CGA:   2    -0.319698666901E+03   -0.76802E+00   -0.76782E+00  8112   0.248E+01 0.252E-02
CGA:   3    -0.319914637102E+03   -0.21597E+00   -0.21619E+00  8112   0.986E+00-0.107E-01
CGA:   4    -0.320029018879E+03   -0.11438E+00   -0.11422E+00  8112   0.228E+00-0.191E-02
CGA:   5    -0.320058975714E+03   -0.29957E-01   -0.29959E-01  8112   0.792E-01 0.166E-03
CGA:   6    -0.320068486516E+03   -0.95108E-02   -0.95132E-02  8112   0.332E-01 0.554E-04
CGA:   7    -0.320072054732E+03   -0.35682E-02   -0.35684E-02  8112   0.143E-01 0.575E-05
CGA:   8    -0.320073692368E+03   -0.16376E-02   -0.16374E-02  8112   0.502E-02-0.344E-05
CGA:   9    -0.320074386495E+03   -0.69413E-03   -0.69413E-03  8112   0.225E-02-0.559E-06
CGA:  10    -0.320074685816E+03   -0.29932E-03   -0.29932E-03  8112   0.112E-02 0.592E-06
CGA:  11    -0.320074824868E+03   -0.13905E-03   -0.13907E-03  8112   0.678E-03 0.152E-05
CGA:  12    -0.320074915073E+03   -0.90204E-04   -0.90209E-04  8112   0.311E-03 0.228E-05
CGA:  13    -0.320074962955E+03   -0.47883E-04   -0.47852E-04  8112   0.191E-03 0.162E-05
CGA:  14    -0.320074989863E+03   -0.26908E-04   -0.26906E-04  8112   0.974E-04 0.287E-06
CGA:  15    -0.320075001825E+03   -0.11962E-04   -0.11959E-04  8112   0.531E-04-0.258E-06
CGA:  16    -0.320075008289E+03   -0.64647E-05   -0.64606E-05  8112   0.220E-04-0.322E-06
  50 F= -.32007501E+03 E0= -.32007026E+03  d E =-.860197E-03  mag=    44.0000
       N       E                     dE             d eps       ncg     rms          ort
SDA:   1    -0.319367969572E+03    0.70703E+00    0.00000E+00  8112   0.172E+01 0.000E+00
CGA:   2    -0.319878909460E+03   -0.51094E+00   -0.51081E+00  8112   0.109E+01 0.929E-03
CGA:   3    -0.320005472527E+03   -0.12656E+00   -0.12666E+00  8112   0.473E+00 0.759E-03
CGA:   4    -0.320051588994E+03   -0.46116E-01   -0.46060E-01  8112   0.146E+00-0.108E-03
CGA:   5    -0.320066634824E+03   -0.15046E-01   -0.15043E-01  8112   0.497E-01-0.991E-05
CGA:   6    -0.320072892150E+03   -0.62573E-02   -0.62581E-02  8112   0.160E-01 0.318E-04
CGA:   7    -0.320075160764E+03   -0.22686E-02   -0.22687E-02  8112   0.610E-02-0.516E-05
CGA:   8    -0.320075903370E+03   -0.74261E-03   -0.74273E-03  8112   0.289E-02 0.228E-05
CGA:   9    -0.320076225004E+03   -0.32163E-03   -0.32168E-03  8112   0.131E-02 0.735E-06
CGA:  10    -0.320076387634E+03   -0.16263E-03   -0.16265E-03  8112   0.580E-03 0.136E-05
CGA:  11    -0.320076476948E+03   -0.89315E-04   -0.89289E-04  8112   0.293E-03 0.132E-05
CGA:  12    -0.320076524766E+03   -0.47818E-04   -0.47792E-04  8112   0.181E-03 0.957E-06
CGA:  13    -0.320076547552E+03   -0.22785E-04   -0.22791E-04  8112   0.118E-03 0.430E-06
CGA:  14    -0.320076562177E+03   -0.14626E-04   -0.14630E-04  8112   0.490E-04 0.319E-06
CGA:  15    -0.320076569991E+03   -0.78137E-05   -0.78020E-05  8112   0.205E-04 0.509E-06
  51 F= -.32007657E+03 E0= -.32007183E+03  d E =-.156170E-02  mag=    44.0000
       N       E                     dE             d eps       ncg     rms          ort
SDA:   1    -0.319798403714E+03    0.27816E+00    0.00000E+00  8112   0.707E+00 0.000E+00
CGA:   2    -0.319973305633E+03   -0.17490E+00   -0.17471E+00  8112   0.793E+00 0.184E-02
CGA:   3    -0.320035369675E+03   -0.62064E-01   -0.61814E-01  8112   0.211E+00 0.125E-03
CGA:   4    -0.320066228461E+03   -0.30859E-01   -0.30860E-01  8112   0.530E-01-0.136E-03
CGA:   5    -0.320073538759E+03   -0.73103E-02   -0.73103E-02  8112   0.166E-01-0.224E-05
CGA:   6    -0.320075462481E+03   -0.19237E-02   -0.19241E-02  8112   0.932E-02 0.791E-05
CGA:   7    -0.320076371237E+03   -0.90876E-03   -0.90861E-03  8112   0.246E-02 0.273E-06
CGA:   8    -0.320076780056E+03   -0.40882E-03   -0.40894E-03  8112   0.921E-03-0.381E-05
CGA:   9    -0.320076899817E+03   -0.11976E-03   -0.11977E-03  8112   0.565E-03 0.103E-05
CGA:  10    -0.320076963517E+03   -0.63700E-04   -0.63735E-04  8112   0.232E-03 0.128E-05
CGA:  11    -0.320076997888E+03   -0.34372E-04   -0.34363E-04  8112   0.137E-03 0.748E-06
CGA:  12    -0.320077016738E+03   -0.18850E-04   -0.18850E-04  8112   0.754E-04 0.529E-07
CGA:  13    -0.320077028030E+03   -0.11292E-04   -0.11291E-04  8112   0.394E-04 0.184E-07
CGA:  14    -0.320077033185E+03   -0.51549E-05   -0.51560E-05  8112   0.258E-04 0.160E-06
  52 F= -.32007703E+03 E0= -.32007229E+03  d E =-.463194E-03  mag=    44.0000
       N       E                     dE             d eps       ncg     rms          ort
SDA:   1    -0.319376522100E+03    0.70051E+00    0.00000E+00  8112   0.173E+01 0.000E+00
CGA:   2    -0.319852734807E+03   -0.47621E+00   -0.47614E+00  8112   0.158E+01 0.114E-02
CGA:   3    -0.319982836560E+03   -0.13010E+00   -0.13056E+00  8112   0.555E+00-0.715E-02
CGA:   4    -0.320050917248E+03   -0.68081E-01   -0.68063E-01  8112   0.147E+00-0.367E-03
CGA:   5    -0.320068598124E+03   -0.17681E-01   -0.17676E-01  8112   0.488E-01-0.860E-04
CGA:   6    -0.320074479186E+03   -0.58811E-02   -0.58840E-02  8112   0.192E-01 0.625E-04
CGA:   7    -0.320076773802E+03   -0.22946E-02   -0.22942E-02  8112   0.795E-02-0.614E-05
CGA:   8    -0.320077613924E+03   -0.84012E-03   -0.83988E-03  8112   0.349E-02-0.140E-05
CGA:   9    -0.320078055639E+03   -0.44171E-03   -0.44171E-03  8112   0.113E-02-0.544E-06
CGA:  10    -0.320078246218E+03   -0.19058E-03   -0.19053E-03  8112   0.627E-03 0.134E-05
CGA:  11    -0.320078319511E+03   -0.73293E-04   -0.73315E-04  8112   0.368E-03 0.112E-05
CGA:  12    -0.320078369810E+03   -0.50299E-04   -0.50297E-04  8112   0.199E-03 0.129E-05
[...]
CGA:   6    -0.320080887263E+03   -0.44175E-02   -0.44213E-02  8112   0.142E-01 0.196E-04
CGA:   7    -0.320082836646E+03   -0.19494E-02   -0.19495E-02  8112   0.442E-02-0.154E-04
CGA:   8    -0.320083501429E+03   -0.66478E-03   -0.66463E-03  8112   0.204E-02 0.768E-05
CGA:   9    -0.320083744998E+03   -0.24357E-03   -0.24361E-03  8112   0.902E-03 0.240E-05
CGA:  10    -0.320083855842E+03   -0.11084E-03   -0.11086E-03  8112   0.563E-03 0.637E-06
CGA:  11    -0.320083925013E+03   -0.69171E-04   -0.69177E-04  8112   0.199E-03 0.602E-06
CGA:  12    -0.320083964583E+03   -0.39569E-04   -0.39467E-04  8112   0.126E-03 0.156E-05
CGA:  13    -0.320083981373E+03   -0.16790E-04   -0.16794E-04  8112   0.741E-04 0.875E-06
CGA:  14    -0.320083991026E+03   -0.96530E-05   -0.96559E-05  8112   0.420E-04 0.380E-06
  68 F= -.32008399E+03 E0= -.32007941E+03  d E =-.196617E-02  mag=    44.0000
       N       E                     dE             d eps       ncg     rms          ort
SDA:   1    -0.319917102479E+03    0.16688E+00    0.00000E+00  8112   0.467E+00 0.000E+00
CGA:   2    -0.320019668040E+03   -0.10257E+00   -0.10273E+00  8112   0.427E+00-0.162E-02
CGA:   3    -0.320060668924E+03   -0.41001E-01   -0.41255E-01  8112   0.135E+00 0.817E-05
CGA:   4    -0.320077517977E+03   -0.16849E-01   -0.16853E-01  8112   0.671E-01 0.137E-03
CGA:   5    -0.320083757995E+03   -0.62400E-02   -0.62291E-02  8112   0.149E-01-0.875E-05
CGA:   6    -0.320085798707E+03   -0.20407E-02   -0.20408E-02  8112   0.537E-02-0.199E-04
CGA:   7    -0.320086539214E+03   -0.74051E-03   -0.74050E-03  8112   0.187E-02-0.111E-05
CGA:   8    -0.320086781825E+03   -0.24261E-03   -0.24261E-03  8112   0.106E-02 0.848E-06
CGA:   9    -0.320086892400E+03   -0.11058E-03   -0.11061E-03  8112   0.397E-03 0.993E-06
CGA:  10    -0.320086946835E+03   -0.54435E-04   -0.54433E-04  8112   0.221E-03 0.593E-06
CGA:  11    -0.320086980366E+03   -0.33532E-04   -0.33522E-04  8112   0.830E-04 0.543E-06
CGA:  12    -0.320086995722E+03   -0.15356E-04   -0.15329E-04  8112   0.726E-04 0.538E-06
CGA:  13    -0.320087003559E+03   -0.78365E-05   -0.78452E-05  8112   0.321E-04 0.279E-06
  69 F= -.32008700E+03 E0= -.32008249E+03  d E =-.301253E-02  mag=    44.0000
       N       E                     dE             d eps       ncg     rms          ort
SDA:   1    -0.319903926787E+03    0.18307E+00    0.00000E+00  8112   0.474E+00 0.000E+00
CGA:   2    -0.320021311833E+03   -0.11739E+00   -0.11741E+00  8112   0.417E+00-0.158E-03
CGA:   3    -0.320064223386E+03   -0.42912E-01   -0.43042E-01  8112   0.133E+00 0.215E-03
CGA:   4    -0.320080546451E+03   -0.16323E-01   -0.16314E-01  8112   0.533E-01-0.193E-03
CGA:   5    -0.320085330802E+03   -0.47844E-02   -0.47829E-02  8112   0.154E-01-0.461E-05
CGA:   6    -0.320087229999E+03   -0.18992E-02   -0.18992E-02  8112   0.552E-02-0.525E-06
CGA:   7    -0.320088030340E+03   -0.80034E-03   -0.80034E-03  8112   0.163E-02 0.168E-06
CGA:   8    -0.320088268590E+03   -0.23825E-03   -0.23825E-03  8112   0.941E-03-0.338E-06
CGA:   9    -0.320088364589E+03   -0.95999E-04   -0.96019E-04  8112   0.353E-03 0.202E-07
CGA:  10    -0.320088411389E+03   -0.46800E-04   -0.46802E-04  8112   0.205E-03 0.625E-06
CGA:  11    -0.320088439576E+03   -0.28187E-04   -0.28185E-04  8112   0.721E-04 0.835E-06
CGA:  12    -0.320088454143E+03   -0.14567E-04   -0.14529E-04  8112   0.539E-04 0.581E-06
CGA:  13    -0.320088460224E+03   -0.60812E-05   -0.60830E-05  8112   0.286E-04 0.608E-07
  70 F= -.32008846E+03 E0= -.32008399E+03  d E =-.145667E-02  mag=    44.0000
       N       E                     dE             d eps       ncg     rms          ort
SDA:   1    -0.318708040540E+03    0.13804E+01    0.00000E+00  8112   0.352E+01 0.000E+00
CGA:   2    -0.319589602556E+03   -0.88156E+00   -0.88087E+00  8112   0.339E+01 0.161E-02
CGA:   3    -0.319928420444E+03   -0.33882E+00   -0.34023E+00  8112   0.804E+00 0.798E-02
CGA:   4    -0.320045247923E+03   -0.11683E+00   -0.11686E+00  8112   0.285E+00-0.389E-02
CGA:   5    -0.320073038453E+03   -0.27791E-01   -0.27885E-01  8112   0.101E+00 0.832E-04
CGA:   6    -0.320083123487E+03   -0.10085E-01   -0.10095E-01  8112   0.392E-01 0.376E-04
CGA:   7    -0.320088787378E+03   -0.56639E-02   -0.56639E-02  8112   0.916E-02-0.689E-06
CGA:   8    -0.320090345269E+03   -0.15579E-02   -0.15575E-02  8112   0.497E-02 0.789E-05
CGA:   9    -0.320090872920E+03   -0.52765E-03   -0.52814E-03  8112   0.202E-02 0.240E-05
CGA:  10    -0.320091142400E+03   -0.26948E-03   -0.26949E-03  8112   0.130E-02 0.211E-05
CGA:  11    -0.320091303921E+03   -0.16152E-03   -0.16157E-03  8112   0.477E-03 0.313E-05
CGA:  12    -0.320091397728E+03   -0.93807E-04   -0.93592E-04  8112   0.322E-03 0.354E-05
CGA:  13    -0.320091443933E+03   -0.46204E-04   -0.46200E-04  8112   0.187E-03 0.131E-05
CGA:  14    -0.320091465213E+03   -0.21280E-04   -0.21293E-04  8112   0.938E-04 0.503E-06
CGA:  15    -0.320091479503E+03   -0.14290E-04   -0.14287E-04  8112   0.441E-04 0.197E-06
CGA:  16    -0.320091484470E+03   -0.49670E-05   -0.49728E-05  8112   0.158E-04 0.206E-06
  71 F= -.32009148E+03 E0= -.32008707E+03  d E =-.302425E-02  mag=    44.0000
       N       E                     dE             d eps       ncg     rms          ort
SDA:   1    -0.308270606457E+03    0.11821E+02    0.00000E+00  8112   0.314E+02 0.000E+00
CGA:   2    -0.315175893068E+03   -0.69053E+01   -0.71893E+01  8112   0.437E+02-0.278E+01
CGA:   3    -0.318214808169E+03   -0.30389E+01   -0.28133E+01  8112   0.837E+01 0.521E+01
CGA:   4    -0.319261795773E+03   -0.10470E+01   -0.10307E+01  8112   0.626E+01-0.196E+00
CGA:   5    -0.319786078448E+03   -0.52428E+00   -0.49716E+00  8112   0.178E+01 0.239E+00
CGA:   6    -0.319939089233E+03   -0.15301E+00   -0.15458E+00  8112   0.103E+01-0.273E-02
CGA:   7    -0.320013268090E+03   -0.74179E-01   -0.76620E-01  8112   0.445E+00-0.875E-02
CGA:   8    -0.320059025074E+03   -0.45757E-01   -0.45833E-01  8112   0.217E+00 0.810E-03
CGA:   9    -0.320074855090E+03   -0.15830E-01   -0.15891E-01  8112   0.838E-01-0.471E-03
CGA:  10    -0.320085916313E+03   -0.11061E-01   -0.11054E-01  8112   0.480E-01 0.644E-03
CGA:  11    -0.320089772994E+03   -0.38567E-02   -0.39031E-02  8112   0.197E-01-0.413E-04
CGA:  12    -0.320092683621E+03   -0.29106E-02   -0.29096E-02  8112   0.136E-01 0.352E-04
CGA:  13    -0.320094070529E+03   -0.13869E-02   -0.13916E-02  8112   0.669E-02 0.686E-04
CGA:  14    -0.320094903491E+03   -0.83296E-03   -0.83296E-03  8112   0.416E-02 0.446E-04
CGA:  15    -0.320095465418E+03   -0.56193E-03   -0.56174E-03  8112   0.269E-02 0.150E-04
CGA:  16    -0.320095754814E+03   -0.28940E-03   -0.28972E-03  8112   0.113E-02 0.989E-05
CGA:  17    -0.320095900516E+03   -0.14570E-03   -0.14567E-03  8112   0.670E-03 0.508E-05
CGA:  18    -0.320095981755E+03   -0.81239E-04   -0.81247E-04  8112   0.349E-03 0.218E-05
CGA:  19    -0.320096019684E+03   -0.37929E-04   -0.37965E-04  8112   0.131E-03 0.181E-05
CGA:  20    -0.320096037147E+03   -0.17463E-04   -0.17451E-04  8112   0.776E-04 0.122E-05
CGA:  21    -0.320096046702E+03   -0.95556E-05   -0.95570E-05  8112   0.405E-04 0.952E-06
  72 F= -.32009605E+03 E0= -.32009180E+03  d E =-.456223E-02  mag=    44.0000
       N       E                     dE             d eps       ncg     rms          ort
SDA:   1    -0.308540256822E+03    0.11556E+02    0.00000E+00  8112   0.311E+02 0.000E+00
CGA:   2    -0.315829798947E+03   -0.72895E+01   -0.74575E+01  8112   0.313E+02-0.182E+01
CGA:   3    -0.318307707521E+03   -0.24779E+01   -0.25553E+01  8112   0.828E+01 0.164E+01
CGA:   4    -0.319523973434E+03   -0.12163E+01   -0.12186E+01  8112   0.359E+01-0.109E+00
CGA:   5    -0.319860018436E+03   -0.33605E+00   -0.33819E+00  8112   0.126E+01 0.130E-01
CGA:   6    -0.319980061439E+03   -0.12004E+00   -0.12135E+00  8112   0.488E+00 0.792E-02
CGA:   7    -0.320044228829E+03   -0.64167E-01   -0.64166E-01  8112   0.150E+00 0.214E-03
CGA:   8    -0.320064417074E+03   -0.20188E-01   -0.20158E-01  8112   0.775E-01 0.193E-02
CGA:   9    -0.320073736720E+03   -0.93196E-02   -0.93308E-02  8112   0.294E-01 0.746E-03
CGA:  10    -0.320077577300E+03   -0.38406E-02   -0.38399E-02  8112   0.200E-01 0.916E-04
CGA:  11    -0.320079981889E+03   -0.24046E-02   -0.24052E-02  8112   0.763E-02 0.698E-04
CGA:  12    -0.320081240058E+03   -0.12582E-02   -0.12555E-02  8112   0.565E-02 0.551E-04
CGA:  13    -0.320081922481E+03   -0.68242E-03   -0.68305E-03  8112   0.260E-02 0.447E-04
CGA:  14    -0.320082367945E+03   -0.44546E-03   -0.44509E-03  8112   0.125E-02 0.827E-05
CGA:  15    -0.320082563969E+03   -0.19602E-03   -0.19576E-03  8112   0.626E-03 0.808E-05
CGA:  16    -0.320082645487E+03   -0.81517E-04   -0.81521E-04  8112   0.343E-03 0.457E-05
CGA:  17    -0.320082687045E+03   -0.41559E-04   -0.41586E-04  8112   0.135E-03 0.263E-05
CGA:  18    -0.320082705640E+03   -0.18595E-04   -0.18584E-04  8112   0.671E-04 0.153E-05
CGA:  19    -0.320082714927E+03   -0.92871E-05   -0.92828E-05  8112   0.344E-04 0.615E-06
  73 F= -.32008271E+03 E0= -.32007862E+03  d E =0.133318E-01  mag=    44.0000
       N       E                     dE             d eps       ncg     rms          ort
SDA:   1    -0.305645996910E+03    0.14437E+02    0.00000E+00  8112   0.380E+02 0.000E+00
CGA:   2    -0.314160418526E+03   -0.85144E+01   -0.89161E+01  8112   0.526E+02-0.394E+01
CGA:   3    -0.317855987848E+03   -0.36956E+01   -0.35887E+01  8112   0.104E+02 0.475E+01
CGA:   4    -0.319174591482E+03   -0.13186E+01   -0.13162E+01  8112   0.745E+01-0.843E-01
CGA:   5    -0.319738354142E+03   -0.56376E+00   -0.55892E+00  8112   0.200E+01 0.773E-01
CGA:   6    -0.319935223076E+03   -0.19687E+00   -0.19579E+00  8112   0.915E+00-0.562E-02
CGA:   7    -0.320021876729E+03   -0.86654E-01   -0.87188E-01  8112   0.458E+00 0.305E-02
CGA:   8    -0.320066098447E+03   -0.44222E-01   -0.44350E-01  8112   0.151E+00 0.936E-03
CGA:   9    -0.320082963834E+03   -0.16865E-01   -0.16885E-01  8112   0.991E-01 0.543E-03
CGA:  10    -0.320092741851E+03   -0.97780E-02   -0.98070E-02  8112   0.307E-01 0.268E-03
CGA:  11    -0.320096813218E+03   -0.40714E-02   -0.40708E-02  8112   0.222E-01 0.403E-04
CGA:  12    -0.320099512349E+03   -0.26991E-02   -0.26995E-02  8112   0.984E-02 0.114E-03
CGA:  13    -0.320100624068E+03   -0.11117E-02   -0.11129E-02  8112   0.603E-02 0.518E-04
CGA:  14    -0.320101590635E+03   -0.96657E-03   -0.96575E-03  8112   0.378E-02 0.190E-04
CGA:  15    -0.320101980989E+03   -0.39035E-03   -0.39157E-03  8112   0.164E-02 0.212E-04
CGA:  16    -0.320102255240E+03   -0.27425E-03   -0.27358E-03  8112   0.868E-03 0.139E-04
CGA:  17    -0.320102366667E+03   -0.11143E-03   -0.11142E-03  8112   0.441E-03 0.587E-05
CGA:  18    -0.320102417055E+03   -0.50388E-04   -0.50445E-04  8112   0.180E-03 0.377E-05
CGA:  19    -0.320102444917E+03   -0.27863E-04   -0.27799E-04  8112   0.101E-03 0.213E-05
CGA:  20    -0.320102455698E+03   -0.10781E-04   -0.10795E-04  8112   0.441E-04 0.560E-06
CGA:  21    -0.320102462529E+03   -0.68302E-05   -0.68282E-05  8112   0.243E-04 0.554E-07
  74 F= -.32010246E+03 E0= -.32009825E+03  d E =-.197476E-01  mag=    44.0000
       N       E                     dE             d eps       ncg     rms          ort
SDA:   1    -0.303633649712E+03    0.16469E+02    0.00000E+00  8112   0.442E+02 0.000E+00
CGA:   2    -0.314244519345E+03   -0.10611E+02   -0.10720E+02  8112   0.376E+02-0.119E+01
CGA:   3    -0.317777945433E+03   -0.35334E+01   -0.35067E+01  8112   0.104E+02 0.156E+01
CGA:   4    -0.319429803969E+03   -0.16519E+01   -0.16548E+01  8112   0.341E+01-0.101E+00
CGA:   5    -0.319820930249E+03   -0.39113E+00   -0.38988E+00  8112   0.134E+01-0.281E-01
CGA:   6    -0.319939642686E+03   -0.11871E+00   -0.11924E+00  8112   0.638E+00-0.382E-03
CGA:   7    -0.320011422335E+03   -0.71780E-01   -0.71793E-01  8112   0.157E+00 0.458E-03
CGA:   8    -0.320039272349E+03   -0.27850E-01   -0.27798E-01  8112   0.647E-01 0.831E-03
CGA:   9    -0.320047140413E+03   -0.78681E-02   -0.78719E-02  8112   0.409E-01 0.154E-03
CGA:  10    -0.320052074495E+03   -0.49341E-02   -0.49384E-02  8112   0.205E-01 0.180E-03
CGA:  11    -0.320054517409E+03   -0.24429E-02   -0.24448E-02  8112   0.984E-02 0.752E-04
CGA:  12    -0.320056336068E+03   -0.18187E-02   -0.18131E-02  8112   0.494E-02 0.852E-04
CGA:  13    -0.320057078670E+03   -0.74260E-03   -0.74194E-03  8112   0.358E-02 0.285E-04
CGA:  14    -0.320057480344E+03   -0.40167E-03   -0.40211E-03  8112   0.176E-02 0.107E-04
CGA:  15    -0.320057722315E+03   -0.24197E-03   -0.24193E-03  8112   0.644E-03 0.788E-05
CGA:  16    -0.320057829698E+03   -0.10738E-03   -0.10718E-03  8112   0.345E-03 0.577E-05
CGA:  17    -0.320057868043E+03   -0.38345E-04   -0.38397E-04  8112   0.162E-03 0.193E-05
CGA:  18    -0.320057889531E+03   -0.21488E-04   -0.21489E-04  8112   0.767E-04 0.624E-06
CGA:  19    -0.320057899804E+03   -0.10273E-04   -0.10273E-04  8112   0.416E-04 0.385E-06
CGA:  20    -0.320057905835E+03   -0.60307E-05   -0.60269E-05  8112   0.199E-04 0.320E-06
  75 F= -.32005791E+03 E0= -.32005338E+03  d E =0.445567E-01  mag=    44.0000
       N       E                     dE             d eps       ncg     rms          ort
SDA:   1    -0.305271198982E+03    0.14787E+02    0.00000E+00  8112   0.400E+02 0.000E+00
CGA:   2    -0.314126837251E+03   -0.88556E+01   -0.92020E+01  8112   0.489E+02-0.307E+01
CGA:   3    -0.317614605206E+03   -0.34878E+01   -0.32650E+01  8112   0.108E+02 0.522E+01
CGA:   4    -0.319158005622E+03   -0.15434E+01   -0.15375E+01  8112   0.700E+01-0.325E+00
CGA:   5    -0.319717228602E+03   -0.55922E+00   -0.50126E+00  8112   0.190E+01 0.578E+00
CGA:   6    -0.319929069529E+03   -0.21184E+00   -0.21283E+00  8112   0.995E+00 0.796E-02
CGA:   7    -0.320010534964E+03   -0.81465E-01   -0.84949E-01  8112   0.506E+00 0.200E-02
CGA:   8    -0.320060353079E+03   -0.49818E-01   -0.49940E-01  8112   0.178E+00 0.873E-03
CGA:   9    -0.320077897198E+03   -0.17544E-01   -0.17685E-01  8112   0.117E+00 0.100E-02
CGA:  10    -0.320089775556E+03   -0.11878E-01   -0.11903E-01  8112   0.338E-01 0.254E-03
CGA:  11    -0.320094660626E+03   -0.48851E-02   -0.48691E-02  8112   0.255E-01 0.547E-03
CGA:  12    -0.320097366441E+03   -0.27058E-02   -0.27125E-02  8112   0.110E-01 0.111E-03
CGA:  13    -0.320098986612E+03   -0.16202E-02   -0.16150E-02  8112   0.675E-02 0.161E-03
CGA:  14    -0.320099877865E+03   -0.89125E-03   -0.89106E-03  8112   0.395E-02 0.314E-04
CGA:  15    -0.320100423995E+03   -0.54613E-03   -0.54580E-03  8112   0.196E-02 0.204E-04
CGA:  16    -0.320100687862E+03   -0.26387E-03   -0.26378E-03  8112   0.925E-03 0.102E-04
CGA:  17    -0.320100821139E+03   -0.13328E-03   -0.13319E-03  8112   0.464E-03 0.490E-05
CGA:  18    -0.320100883055E+03   -0.61917E-04   -0.61901E-04  8112   0.189E-03 0.290E-05
CGA:  19    -0.320100906105E+03   -0.23050E-04   -0.23063E-04  8112   0.102E-03 0.165E-05
CGA:  20    -0.320100921304E+03   -0.15198E-04   -0.15177E-04  8112   0.478E-04 0.105E-05
CGA:  21    -0.320100927389E+03   -0.60850E-05   -0.60851E-05  8112   0.295E-04 0.601E-07
  76 F= -.32010093E+03 E0= -.32009669E+03  d E =-.430216E-01  mag=    44.0000
       N       E                     dE             d eps       ncg     rms          ort
SDA:   1    -0.318532149297E+03    0.15688E+01    0.00000E+00  8112   0.420E+01 0.000E+00
CGA:   2    -0.319521173736E+03   -0.98902E+00   -0.98878E+00  8112   0.313E+01 0.246E-02
CGA:   3    -0.319852151363E+03   -0.33098E+00   -0.33031E+00  8112   0.142E+01-0.917E-02
CGA:   4    -0.320015644190E+03   -0.16349E+00   -0.16354E+00  8112   0.443E+00 0.549E-03
CGA:   5    -0.320063911353E+03   -0.48267E-01   -0.48220E-01  8112   0.161E+00-0.606E-03
CGA:   6    -0.320083070275E+03   -0.19159E-01   -0.19161E-01  8112   0.461E-01 0.572E-04
CGA:   7    -0.320089792580E+03   -0.67223E-02   -0.67218E-02  8112   0.192E-01 0.207E-04
CGA:   8    -0.320092052063E+03   -0.22595E-02   -0.22593E-02  8112   0.957E-02-0.114E-05
CGA:   9    -0.320093162912E+03   -0.11108E-02   -0.11108E-02  8112   0.416E-02 0.285E-05
CGA:  10    -0.320093756445E+03   -0.59353E-03   -0.59336E-03  8112   0.169E-02 0.947E-05
CGA:  11    -0.320094023944E+03   -0.26750E-03   -0.26750E-03  8112   0.107E-02 0.499E-06
CGA:  12    -0.320094160854E+03   -0.13691E-03   -0.13691E-03  8112   0.487E-03 0.730E-06
CGA:  13    -0.320094225937E+03   -0.65083E-04   -0.65080E-04  8112   0.331E-03 0.146E-05
CGA:  14    -0.320094270691E+03   -0.44754E-04   -0.44750E-04  8112   0.115E-03 0.146E-05
CGA:  15    -0.320094290049E+03   -0.19358E-04   -0.19344E-04  8112   0.725E-04 0.391E-06
CGA:  16    -0.320094298838E+03   -0.87888E-05   -0.87899E-05  8112   0.291E-04 0.780E-07
  77 F= -.32009430E+03 E0= -.32009004E+03  d E =0.662855E-02  mag=    44.0000
       N       E                     dE             d eps       ncg     rms          ort
SDA:   1    -0.317896911347E+03    0.21974E+01    0.00000E+00  8112   0.588E+01 0.000E+00
CGA:   2    -0.319395520084E+03   -0.14986E+01   -0.14995E+01  8112   0.350E+01-0.677E-02
CGA:   3    -0.319836025177E+03   -0.44051E+00   -0.44028E+00  8112   0.155E+01-0.572E-02
CGA:   4    -0.320012970998E+03   -0.17695E+00   -0.17649E+00  8112   0.525E+00-0.476E-02
CGA:   5    -0.320066483923E+03   -0.53513E-01   -0.53529E-01  8112   0.185E+00 0.677E-04
CGA:   6    -0.320086491454E+03   -0.20008E-01   -0.19967E-01  8112   0.680E-01-0.360E-03
CGA:   7    -0.320095301308E+03   -0.88099E-02   -0.88109E-02  8112   0.201E-01 0.127E-03
CGA:   8    -0.320098638978E+03   -0.33377E-02   -0.33389E-02  8112   0.852E-02-0.272E-04
CGA:   9    -0.320099664093E+03   -0.10251E-02   -0.10254E-02  8112   0.498E-02 0.682E-05
CGA:  10    -0.320100286438E+03   -0.62234E-03   -0.62241E-03  8112   0.225E-02 0.502E-05
CGA:  11    -0.320100581869E+03   -0.29543E-03   -0.29545E-03  8112   0.125E-02 0.358E-05
CGA:  12    -0.320100783518E+03   -0.20165E-03   -0.20161E-03  8112   0.565E-03 0.153E-05
CGA:  13    -0.320100876805E+03   -0.93288E-04   -0.93241E-04  8112   0.370E-03 0.131E-05
CGA:  14    -0.320100922157E+03   -0.45351E-04   -0.45368E-04  8112   0.196E-03 0.980E-06
CGA:  15    -0.320100946447E+03   -0.24290E-04   -0.24301E-04  8112   0.845E-04 0.902E-06
CGA:  16    -0.320100958129E+03   -0.11683E-04   -0.11681E-04  8112   0.384E-04 0.855E-06
CGA:  17    -0.320100963572E+03   -0.54431E-05   -0.54415E-05  8112   0.143E-04 0.298E-06
  78 F= -.32010096E+03 E0= -.32009665E+03  d E =-.666473E-02  mag=    44.0000
       N       E                     dE             d eps       ncg     rms          ort
SDA:   1    -0.319723293797E+03    0.37766E+00    0.00000E+00  8112   0.971E+00 0.000E+00
CGA:   2    -0.319962112938E+03   -0.23882E+00   -0.23875E+00  8112   0.923E+00 0.891E-03
CGA:   3    -0.320055752024E+03   -0.93639E-01   -0.93827E-01  8112   0.235E+00-0.152E-03
CGA:   4    -0.320088230813E+03   -0.32479E-01   -0.32477E-01  8112   0.869E-01-0.601E-03
CGA:   5    -0.320096463800E+03   -0.82330E-02   -0.82437E-02  8112   0.300E-01-0.537E-05
CGA:   6    -0.320099630110E+03   -0.31663E-02   -0.31669E-02  8112   0.109E-01 0.219E-05
CGA:   7    -0.320101206567E+03   -0.15765E-02   -0.15765E-02  8112   0.277E-02-0.260E-05
CGA:   8    -0.320101659967E+03   -0.45340E-03   -0.45332E-03  8112   0.144E-02 0.267E-05
CGA:   9    -0.320101815786E+03   -0.15582E-03   -0.15588E-03  8112   0.567E-03 0.657E-06
CGA:  10    -0.320101893583E+03   -0.77797E-04   -0.77796E-04  8112   0.374E-03 0.482E-06
CGA:  11    -0.320101937910E+03   -0.44327E-04   -0.44342E-04  8112   0.130E-03 0.735E-06
CGA:  12    -0.320101964271E+03   -0.26361E-04   -0.26276E-04  8112   0.897E-04 0.127E-05
CGA:  13    -0.320101976489E+03   -0.12218E-04   -0.12220E-04  8112   0.465E-04 0.424E-06
CGA:  14    -0.320101982769E+03   -0.62796E-05   -0.62803E-05  8112   0.274E-04 0.174E-06
  79 F= -.32010198E+03 E0= -.32009770E+03  d E =-.101920E-02  mag=    44.0000
