       N       E                     dE             d eps       ncg     rms          rms(c)
DAV:   1     0.390907644072E+04    0.39091E+04   -0.15952E+05 88470   0.162E+03
DAV:   2     0.512808123999E+02   -0.38578E+04   -0.37570E+04 90950   0.505E+02
DAV:   3    -0.419850283192E+03   -0.47113E+03   -0.46053E+03106360   0.186E+02
DAV:   4    -0.445326767166E+03   -0.25476E+02   -0.24524E+02127750   0.466E+01
DAV:   5    -0.447656469066E+03   -0.23297E+01   -0.22179E+01162940   0.874E+00    0.455E+01
DAV:   6    -0.365153677461E+03    0.82503E+02   -0.19564E+02121830   0.429E+01    0.311E+01
DAV:   7    -0.370712873676E+03   -0.55592E+01   -0.20541E+01110440   0.148E+01    0.160E+01
DAV:   8    -0.371986888494E+03   -0.12740E+01   -0.44908E+00125170   0.756E+00    0.826E+00
DAV:   9    -0.373043423131E+03   -0.10565E+01   -0.15723E+00115600   0.444E+00    0.299E+00
DAV:  10    -0.373129270144E+03   -0.85847E-01   -0.24078E-01125900   0.178E+00    0.138E+00
DAV:  11    -0.373155762756E+03   -0.26493E-01   -0.63266E-02117960   0.985E-01    0.645E-01
DAV:  12    -0.373164635220E+03   -0.88725E-02   -0.10759E-02112110   0.374E-01    0.357E-01
DAV:  13    -0.373171627533E+03   -0.69923E-02   -0.98423E-03102020   0.373E-01    0.150E-01
DAV:  14    -0.373172562249E+03   -0.93472E-03   -0.26696E-03110950   0.160E-01    0.105E-01
DAV:  15    -0.373173790916E+03   -0.12287E-02   -0.81402E-04114120   0.980E-02    0.625E-02
DAV:  16    -0.373174163836E+03   -0.37292E-03   -0.47035E-04104310   0.615E-02    0.525E-02
DAV:  17    -0.373174598630E+03   -0.43479E-03   -0.25882E-04 97460   0.462E-02    0.387E-02
DAV:  18    -0.373174760445E+03   -0.16182E-03   -0.24811E-04 96610   0.451E-02    0.325E-02
DAV:  19    -0.373174968222E+03   -0.20778E-03   -0.13268E-04 82630   0.314E-02    0.289E-02
DAV:  20    -0.373175328671E+03   -0.36045E-03   -0.57010E-04100100   0.603E-02    0.249E-02
DAV:  21    -0.373175771448E+03   -0.44278E-03   -0.15483E-03109490   0.913E-02    0.231E-02
DAV:  22    -0.373175845841E+03   -0.74393E-04   -0.13867E-04 82510   0.336E-02    0.121E-02
DAV:  23    -0.373175871545E+03   -0.25704E-04   -0.16279E-05 69710   0.128E-02    0.706E-03
DAV:  24    -0.373175911844E+03   -0.40299E-04   -0.10758E-05 69850   0.124E-02    0.486E-03
DAV:  25    -0.373175930720E+03   -0.18876E-04   -0.89986E-06 68850   0.997E-03    0.410E-03
DAV:  26    -0.373175945558E+03   -0.14838E-04   -0.29276E-06 60860   0.654E-03    0.287E-03
DAV:  27    -0.373175949608E+03   -0.40495E-05   -0.28771E-06 54930   0.559E-03
   1 F= -.37317595E+03 E0= -.37317595E+03  d E =-.373176E+03  mag=    24.0000
       N       E                     dE             d eps       ncg     rms          rms(c)
DAV:   1    -0.373237527739E+03   -0.61582E-01   -0.21048E+00 98820   0.550E+00    0.192E+00
DAV:   2    -0.373184733243E+03    0.52794E-01   -0.19002E-01102500   0.156E+00    0.759E-01
DAV:   3    -0.373177452078E+03    0.72812E-02   -0.40743E-02119450   0.689E-01    0.235E-01
DAV:   4    -0.373177960290E+03   -0.50821E-03   -0.18943E-03112410   0.166E-01    0.117E-01
DAV:   5    -0.373177494368E+03    0.46592E-03   -0.50501E-04135510   0.735E-02    0.587E-02
DAV:   6    -0.373177711371E+03   -0.21700E-03   -0.11283E-04125960   0.337E-02    0.313E-02
DAV:   7    -0.373177640023E+03    0.71348E-04   -0.23590E-05 81680   0.166E-02    0.157E-02
DAV:   8    -0.373177623071E+03    0.16952E-04   -0.85878E-06 70690   0.121E-02    0.830E-03
DAV:   9    -0.373177607954E+03    0.15116E-04   -0.65353E-06 67340   0.860E-03    0.576E-03
DAV:  10    -0.373177586252E+03    0.21702E-04   -0.45151E-06 62270   0.722E-03    0.454E-03
DAV:  11    -0.373177572794E+03    0.13458E-04   -0.50483E-06 58200   0.639E-03    0.394E-03
DAV:  12    -0.373177548086E+03    0.24707E-04   -0.81683E-06 63060   0.759E-03    0.346E-03
DAV:  13    -0.373177524018E+03    0.24068E-04   -0.12145E-05 65610   0.808E-03    0.276E-03
DAV:  14    -0.373177508098E+03    0.15921E-04   -0.36709E-06 53960   0.635E-03    0.186E-03
DAV:  15    -0.373177496977E+03    0.11120E-04   -0.47247E-06 52340   0.522E-03    0.174E-03
DAV:  16    -0.373177491183E+03    0.57943E-05   -0.20733E-06 50860   0.359E-03
   2 F= -.37317749E+03 E0= -.37317749E+03  d E =-.154158E-02  mag=    24.0000
