       N       E                     dE             d eps       ncg     rms          ort
DAV:   1     0.653876550401E+04    0.65388E+04   -0.29270E+05  8736   0.162E+03
DAV:   2     0.407079590842E+03   -0.61317E+04   -0.58802E+04  8736   0.478E+02
DAV:   3    -0.370342514482E+03   -0.77742E+03   -0.76005E+03  8736   0.178E+02
DAV:   4    -0.411714022274E+03   -0.41372E+02   -0.40336E+02  8736   0.428E+01
DAV:   5    -0.415111173265E+03   -0.33972E+01   -0.33415E+01  8736   0.870E+00
SDA:   6    -0.275749296251E+03    0.13936E+03   -0.33415E+01  8736   0.116E+04 0.000E+00
CGA:   7    -0.354267690733E+03   -0.78518E+02   -0.11372E+03  8736   0.547E+03 0.730E+02
CGA:   8    -0.367969156772E+03   -0.13701E+02   -0.10869E+02  8736   0.223E+03-0.124E+03
CGA:   9    -0.374470649246E+03   -0.65015E+01   -0.74694E+01  8736   0.909E+02 0.228E+01
CGA:  10    -0.377576709127E+03   -0.31061E+01   -0.23005E+01  8736   0.927E+02-0.359E+02
CGA:  11    -0.372479964558E+03    0.50967E+01   -0.27542E+01  8736   0.442E+03-0.212E+02
CGA:  12    -0.373480216147E+03   -0.10003E+01   -0.61660E+01  8736   0.220E+03-0.145E+03
CGA:  13    -0.377605171639E+03   -0.41250E+01   -0.23650E+01  8736   0.149E+03 0.911E+02
CGA:  14    -0.376288150892E+03    0.13170E+01   -0.76990E+01  8736   0.109E+03-0.121E+03
CGA:  15    -0.378192964444E+03   -0.19048E+01   -0.70462E+01  8736   0.163E+03-0.620E+02
CGA:  16    -0.378136982541E+03    0.55982E-01   -0.89329E+01  8736   0.252E+03-0.816E+02
CGA:  17    -0.383660995633E+03   -0.55240E+01   -0.10367E+02  8736   0.300E+02-0.227E+02
CGA:  18    -0.384475785278E+03   -0.81479E+00   -0.44309E+00  8736   0.207E+02 0.226E+02
CGA:  19    -0.384964887994E+03   -0.48910E+00   -0.25317E+00  8736   0.153E+02 0.194E+02
CGA:  20    -0.385263008315E+03   -0.29812E+00   -0.14245E+00  8736   0.142E+02 0.170E+02
CGA:  21    -0.385546567798E+03   -0.28356E+00   -0.13297E+00  8736   0.122E+02 0.156E+02
CGA:  22    -0.385815301349E+03   -0.26873E+00   -0.14358E+00  8736   0.674E+01 0.971E+01
CGA:  23    -0.386054087978E+03   -0.23879E+00   -0.16532E+00  8736   0.407E+01 0.243E+01
CGA:  24    -0.386629791395E+03   -0.57570E+00   -0.57658E+00  8736   0.144E+02-0.130E+00
CGA:  25    -0.386639845038E+03   -0.10054E-01   -0.41542E+00  8736   0.496E+02-0.123E+02
CGA:  26    -0.386539667393E+03    0.10018E+00   -0.12428E+01  8736   0.748E+02-0.474E+02
CGA:  27    -0.385227212328E+03    0.13125E+01   -0.23972E+01  8736   0.109E+03-0.622E+02
CGA:  28    -0.384330574326E+03    0.89664E+00   -0.29942E+01  8736   0.215E+03-0.168E+03
CGA:  29    -0.383240198934E+03    0.10904E+01   -0.80018E+01  8736   0.101E+03-0.687E+02
CGA:  30    -0.386714568233E+03   -0.34744E+01   -0.16396E+01  8736   0.525E+02 0.557E+02
CGA:  31    -0.387331940731E+03   -0.61737E+00   -0.94444E+00  8736   0.212E+02-0.287E+02
CGA:  32    -0.387329302492E+03    0.26382E-02   -0.40776E+00  8736   0.229E+02-0.200E+02
CGA:  33    -0.387518663463E+03   -0.18936E+00   -0.29896E+00  8736   0.449E+01-0.936E+01
CGA:  34    -0.387574725372E+03   -0.56062E-01   -0.55719E-01  8736   0.602E+00-0.248E-02
CGA:  35    -0.387606701561E+03   -0.31976E-01   -0.31931E-01  8736   0.223E+01-0.112E-02
CGA:  36    -0.387774788478E+03   -0.16809E+00   -0.18325E+00  8736   0.435E+01-0.728E+00
CGA:  37    -0.387815075004E+03   -0.40287E-01   -0.32046E-01  8736   0.222E+01 0.681E+00
CGA:  38    -0.387841858622E+03   -0.26784E-01   -0.25874E-01  8736   0.647E+00 0.901E-01
CGA:  39    -0.387856749389E+03   -0.14891E-01   -0.15527E-01  8736   0.100E+01-0.183E-01
CGA:  40    -0.387878798442E+03   -0.22049E-01   -0.25331E-01  8736   0.113E+01-0.671E-01
CGA:  41    -0.387901374854E+03   -0.22576E-01   -0.28410E-01  8736   0.103E+01-0.980E-01
CGA:  42    -0.387929630098E+03   -0.28255E-01   -0.31392E-01  8736   0.389E+00-0.172E-01
CGA:  43    -0.387940394998E+03   -0.10765E-01   -0.10658E-01  8736   0.224E+00 0.127E-02
CGA:  44    -0.387949958338E+03   -0.95633E-02   -0.96824E-02  8736   0.201E+00 0.135E-02
CGA:  45    -0.387960554526E+03   -0.10596E-01   -0.10659E-01  8736   0.141E+00 0.109E-01
CGA:  46    -0.387968184545E+03   -0.76300E-02   -0.76623E-02  8736   0.155E+00 0.342E-02
CGA:  47    -0.387975828040E+03   -0.76435E-02   -0.77324E-02  8736   0.635E-01 0.535E-02
CGA:  48    -0.387979520055E+03   -0.36920E-02   -0.36868E-02  8736   0.389E-01 0.166E-02
CGA:  49    -0.387982976141E+03   -0.34561E-02   -0.34073E-02  8736   0.303E-01 0.129E-02
CGA:  50    -0.387984996583E+03   -0.20204E-02   -0.20076E-02  8736   0.297E-01 0.997E-03
CGA:  51    -0.387987068201E+03   -0.20716E-02   -0.20689E-02  8736   0.263E-01 0.157E-03
CGA:  52    -0.387988511980E+03   -0.14438E-02   -0.14449E-02  8736   0.207E-01 0.185E-03
CGA:  53    -0.387989610528E+03   -0.10985E-02   -0.11003E-02  8736   0.127E-01 0.125E-03
CGA:  54    -0.387990645399E+03   -0.10349E-02   -0.10356E-02  8736   0.126E-01-0.559E-04
CGA:  55    -0.387991501775E+03   -0.85638E-03   -0.85645E-03  8736   0.776E-02-0.579E-04
CGA:  56    -0.387991911178E+03   -0.40940E-03   -0.40925E-03  8736   0.616E-02-0.573E-04
CGA:  57    -0.387992332254E+03   -0.42108E-03   -0.42158E-03  8736   0.569E-02-0.549E-04
CGA:  58    -0.387992594059E+03   -0.26180E-03   -0.26235E-03  8736   0.249E-02-0.128E-04
CGA:  59    -0.387992798466E+03   -0.20441E-03   -0.20417E-03  8736   0.260E-02 0.647E-05
CGA:  60    -0.387992980865E+03   -0.18240E-03   -0.18212E-03  8736   0.207E-02 0.174E-04
CGA:  61    -0.387993094066E+03   -0.11320E-03   -0.11321E-03  8736   0.129E-02-0.364E-06
CGA:  62    -0.387993161762E+03   -0.67696E-04   -0.67646E-04  8736   0.105E-02-0.515E-05
SDA:  63    -0.387993246070E+03   -0.84308E-04   -0.84177E-04  8736   0.112E-02 0.301E-05
CGA:  64    -0.387993279668E+03   -0.33597E-04   -0.33617E-04  8736   0.405E-03 0.893E-06
CGA:  65    -0.387993305654E+03   -0.25986E-04   -0.25963E-04  8736   0.353E-03 0.383E-05
CGA:  66    -0.387993334097E+03   -0.28443E-04   -0.28238E-04  8736   0.503E-03 0.948E-05
CGA:  67    -0.387993362303E+03   -0.28206E-04   -0.28255E-04  8736   0.250E-03 0.986E-05
CGA:  68    -0.387993405333E+03   -0.43030E-04   -0.40224E-04  8736   0.310E-03 0.289E-04
CGA:  69    -0.387993450250E+03   -0.44917E-04   -0.43342E-04  8736   0.184E-03 0.253E-04
CGA:  70    -0.387993466711E+03   -0.16461E-04   -0.16250E-04  8736   0.356E-03 0.137E-04
CGA:  71    -0.387993495494E+03   -0.28783E-04   -0.29802E-04  8736   0.229E-03-0.644E-04
CGA:  72    -0.387993503444E+03   -0.79501E-05   -0.77189E-05  8736   0.133E-03 0.647E-05
   1 F= -.38799350E+03 E0= -.38798076E+03  d E =-.387994E+03  mag=    34.0000
       N       E                     dE             d eps       ncg     rms          ort
SDA:   1    -0.387992600237E+03    0.89526E-03    0.00000E+00  8736   0.183E-01 0.000E+00
CGA:   2    -0.387992999527E+03   -0.39929E-03   -0.41510E-03  8736   0.163E-02-0.523E-03
CGA:   3    -0.387993131627E+03   -0.13210E-03   -0.13245E-03  8736   0.253E-02-0.170E-04
CGA:   4    -0.387993248268E+03   -0.11664E-03   -0.11638E-03  8736   0.146E-02-0.145E-04
CGA:   5    -0.387993340076E+03   -0.91808E-04   -0.91803E-04  8736   0.494E-03-0.710E-05
CGA:   6    -0.387993381020E+03   -0.40944E-04   -0.40887E-04  8736   0.571E-03 0.314E-05
CGA:   7    -0.387993407084E+03   -0.26064E-04   -0.26139E-04  8736   0.144E-03 0.388E-05
CGA:   8    -0.387993416643E+03   -0.95596E-05   -0.95574E-05  8736   0.103E-03 0.886E-06
   2 F= -.38799342E+03 E0= -.38798069E+03  d E =0.868008E-04  mag=    34.0000
       N       E                     dE             d eps       ncg     rms          ort
SDA:   1    -0.384558176171E+03    0.34352E+01    0.00000E+00  8736   0.113E+02 0.000E+00
CGA:   2    -0.385388303210E+03   -0.83013E+00   -0.85526E+00  8736   0.335E+02-0.124E+01
CGA:   3    -0.386886012058E+03   -0.14977E+01   -0.15036E+01  8736   0.766E+01 0.154E+00
CGA:   4    -0.387124307096E+03   -0.23830E+00   -0.26503E+00  8736   0.771E+01-0.269E+00
CGA:   5    -0.387714927320E+03   -0.59062E+00   -0.58557E+00  8736   0.337E+01 0.203E+00
CGA:   6    -0.387828835673E+03   -0.11391E+00   -0.92133E-01  8736   0.103E+01 0.550E+00
CGA:   7    -0.387882186864E+03   -0.53351E-01   -0.52103E-01  8736   0.818E+00-0.931E-02
CGA:   8    -0.387911620880E+03   -0.29434E-01   -0.30297E-01  8736   0.599E+00-0.261E-02
CGA:   9    -0.387946802169E+03   -0.35181E-01   -0.35173E-01  8736   0.484E+00 0.847E-02
CGA:  10    -0.387958883865E+03   -0.12082E-01   -0.11738E-01  8736   0.105E+00 0.966E-02
CGA:  11    -0.387964645372E+03   -0.57615E-02   -0.57605E-02  8736   0.110E+00-0.148E-03
CGA:  12    -0.387968344065E+03   -0.36987E-02   -0.36485E-02  8736   0.627E-01 0.479E-03
CGA:  13    -0.387972471416E+03   -0.41274E-02   -0.41119E-02  8736   0.920E-01 0.101E-02
CGA:  14    -0.387975461532E+03   -0.29901E-02   -0.30193E-02  8736   0.151E-01-0.303E-03
CGA:  15    -0.387975937433E+03   -0.47590E-03   -0.47184E-03  8736   0.125E-01 0.468E-04
CGA:  16    -0.387977001785E+03   -0.10644E-02   -0.10626E-02  8736   0.139E-01 0.467E-04
CGA:  17    -0.387977512202E+03   -0.51042E-03   -0.51494E-03  8736   0.115E-01 0.667E-05
CGA:  18    -0.387978117534E+03   -0.60533E-03   -0.60554E-03  8736   0.510E-02 0.627E-04
CGA:  19    -0.387978293455E+03   -0.17592E-03   -0.17526E-03  8736   0.378E-02 0.399E-05
CGA:  20    -0.387978622499E+03   -0.32904E-03   -0.32911E-03  8736   0.594E-02-0.336E-05
CGA:  21    -0.387978831495E+03   -0.20900E-03   -0.20968E-03  8736   0.333E-02-0.135E-05
CGA:  22    -0.387979110352E+03   -0.27886E-03   -0.27856E-03  8736   0.461E-02 0.827E-05
CGA:  23    -0.387979250701E+03   -0.14035E-03   -0.14047E-03  8736   0.185E-02-0.312E-05
CGA:  24    -0.387979387395E+03   -0.13669E-03   -0.13688E-03  8736   0.209E-02-0.869E-05
CGA:  25    -0.387979464819E+03   -0.77424E-04   -0.77500E-04  8736   0.148E-02-0.108E-05
CGA:  26    -0.387979561239E+03   -0.96419E-04   -0.96352E-04  8736   0.127E-02 0.394E-05
CGA:  27    -0.387979606291E+03   -0.45052E-04   -0.44985E-04  8736   0.755E-03 0.115E-06
CGA:  28    -0.387979664849E+03   -0.58558E-04   -0.58556E-04  8736   0.991E-03 0.736E-07
CGA:  29    -0.387979694461E+03   -0.29612E-04   -0.29689E-04  8736   0.313E-03-0.130E-06
CGA:  30    -0.387979721301E+03   -0.26840E-04   -0.26810E-04  8736   0.517E-03 0.704E-06
CGA:  31    -0.387979737825E+03   -0.16524E-04   -0.16507E-04  8736   0.202E-03 0.136E-06
SDA:  32    -0.387979758084E+03   -0.20259E-04   -0.20303E-04  8736   0.418E-03-0.113E-05
CGA:  33    -0.387979768128E+03   -0.10045E-04   -0.10086E-04  8736   0.630E-04-0.119E-05
CGA:  34    -0.387979778739E+03   -0.10610E-04   -0.10699E-04  8736   0.227E-03-0.815E-06
CGA:  35    -0.387979787374E+03   -0.86353E-05   -0.86191E-05  8736   0.787E-04-0.691E-06
   3 F= -.38797979E+03 E0= -.38796707E+03  d E =0.136293E-01  mag=    34.0000
       N       E                     dE             d eps       ncg     rms          ort
SDA:   1    -0.382392419474E+03    0.55874E+01    0.00000E+00  8736   0.195E+02 0.000E+00
CGA:   2    -0.383794861045E+03   -0.14024E+01   -0.14264E+01  8736   0.517E+02-0.133E+01
CGA:   3    -0.386099462064E+03   -0.23046E+01   -0.23143E+01  8736   0.940E+01 0.421E+00
CGA:   4    -0.386533844474E+03   -0.43438E+00   -0.41830E+00  8736   0.158E+02-0.360E-01
CGA:   5    -0.387481883045E+03   -0.94804E+00   -0.94838E+00  8736   0.550E+01 0.165E+00
CGA:   6    -0.387677492189E+03   -0.19561E+00   -0.18880E+00  8736   0.348E+01 0.142E+00
CGA:   7    -0.387770885466E+03   -0.93393E-01   -0.85767E-01  8736   0.809E+00 0.202E+00
CGA:   8    -0.387819175505E+03   -0.48290E-01   -0.48332E-01  8736   0.174E+01 0.124E-01
CGA:   9    -0.387883389137E+03   -0.64214E-01   -0.66451E-01  8736   0.837E+00-0.679E-03
CGA:  10    -0.387902253230E+03   -0.18864E-01   -0.20285E-01  8736   0.207E+00-0.362E-01
CGA:  11    -0.387911022386E+03   -0.87692E-02   -0.87200E-02  8736   0.210E+00-0.112E-02
CGA:  12    -0.387918724466E+03   -0.77021E-02   -0.76364E-02  8736   0.945E-01 0.498E-05
CGA:  13    -0.387927378120E+03   -0.86537E-02   -0.83957E-02  8736   0.157E+00 0.634E-02
CGA:  14    -0.387931361884E+03   -0.39838E-02   -0.40630E-02  8736   0.166E-01-0.203E-02
CGA:  15    -0.387933484518E+03   -0.21226E-02   -0.21212E-02  8736   0.195E-01 0.561E-05
CGA:  16    -0.387934953543E+03   -0.14690E-02   -0.14671E-02  8736   0.207E-01 0.873E-04
CGA:  17    -0.387935808050E+03   -0.85451E-03   -0.86066E-03  8736   0.883E-02 0.360E-04
CGA:  18    -0.387936439040E+03   -0.63099E-03   -0.63121E-03  8736   0.107E-01-0.497E-05
CGA:  19    -0.387936871256E+03   -0.43222E-03   -0.43210E-03  8736   0.524E-02 0.378E-05
CGA:  20    -0.387937817649E+03   -0.94639E-03   -0.93831E-03  8736   0.340E-02 0.744E-04
CGA:  21    -0.387938139415E+03   -0.32177E-03   -0.32156E-03  8736   0.494E-02 0.616E-05
CGA:  22    -0.387938329957E+03   -0.19054E-03   -0.19036E-03  8736   0.303E-02-0.164E-06
CGA:  23    -0.387938622876E+03   -0.29292E-03   -0.29270E-03  8736   0.152E-02 0.508E-05
CGA:  24    -0.387938715984E+03   -0.93107E-04   -0.93136E-04  8736   0.164E-02 0.344E-05
CGA:  25    -0.387938829844E+03   -0.11386E-03   -0.11387E-03  8736   0.113E-02-0.433E-06
CGA:  26    -0.387938919005E+03   -0.89162E-04   -0.89124E-04  8736   0.893E-03 0.270E-05
CGA:  27    -0.387938947122E+03   -0.28117E-04   -0.28164E-04  8736   0.412E-03 0.302E-06
CGA:  28    -0.387939021181E+03   -0.74059E-04   -0.74150E-04  8736   0.293E-03-0.997E-06
CGA:  29    -0.387939050857E+03   -0.29676E-04   -0.29650E-04  8736   0.228E-03 0.630E-06
CGA:  30    -0.387939064034E+03   -0.13177E-04   -0.13172E-04  8736   0.350E-03-0.421E-06
CGA:  31    -0.387939088414E+03   -0.24381E-04   -0.24379E-04  8736   0.124E-03-0.123E-05
SDA:  32    -0.387939098878E+03   -0.10464E-04   -0.10466E-04  8736   0.153E-03-0.259E-06
CGA:  33    -0.387939103679E+03   -0.48008E-05   -0.47877E-05  8736   0.604E-04 0.126E-06
   4 F= -.38793910E+03 E0= -.38792633E+03  d E =0.406837E-01  mag=    34.0000
       N       E                     dE             d eps       ncg     rms          ort
SDA:   1    -0.381333047917E+03    0.66061E+01    0.00000E+00  8736   0.221E+02 0.000E+00
CGA:   2    -0.383164414266E+03   -0.18314E+01   -0.18700E+01  8736   0.701E+02-0.198E+01
CGA:   3    -0.385668233677E+03   -0.25038E+01   -0.25370E+01  8736   0.124E+02 0.315E+00
CGA:   4    -0.386185304535E+03   -0.51707E+00   -0.51764E+00  8736   0.175E+02 0.372E-01
CGA:   5    -0.387329388826E+03   -0.11441E+01   -0.11495E+01  8736   0.598E+01 0.490E+00
CGA:   6    -0.387573053157E+03   -0.24366E+00   -0.21820E+00  8736   0.400E+01 0.448E+00
CGA:   7    -0.387688585299E+03   -0.11553E+00   -0.10402E+00  8736   0.956E+00 0.318E+00
CGA:   8    -0.387750841251E+03   -0.62256E-01   -0.62938E-01  8736   0.149E+01 0.565E-01
CGA:   9    -0.387821172835E+03   -0.70332E-01   -0.71470E-01  8736   0.784E+00 0.400E-02
CGA:  10    -0.387842609299E+03   -0.21436E-01   -0.20641E-01  8736   0.239E+00 0.208E-01
CGA:  11    -0.387853827703E+03   -0.11218E-01   -0.11134E-01  8736   0.208E+00-0.606E-03
CGA:  12    -0.387859583410E+03   -0.57557E-02   -0.56913E-02  8736   0.111E+00 0.161E-02
CGA:  13    -0.387869601429E+03   -0.10018E-01   -0.98986E-02  8736   0.208E+00 0.334E-02
CGA:  14    -0.387874293211E+03   -0.46918E-02   -0.47297E-02  8736   0.252E-01-0.125E-02
CGA:  15    -0.387875684356E+03   -0.13911E-02   -0.13932E-02  8736   0.373E-01 0.223E-03
CGA:  16    -0.387877282252E+03   -0.15979E-02   -0.16082E-02  8736   0.220E-01 0.915E-04
CGA:  17    -0.387878441862E+03   -0.11596E-02   -0.11587E-02  8736   0.255E-01-0.503E-04
CGA:  18    -0.387879733158E+03   -0.12913E-02   -0.12923E-02  8736   0.147E-01 0.487E-04
CGA:  19    -0.387880146911E+03   -0.41375E-03   -0.41513E-03  8736   0.715E-02-0.168E-04
CGA:  20    -0.387880884319E+03   -0.73741E-03   -0.73396E-03  8736   0.114E-01 0.728E-04
CGA:  21    -0.387881261105E+03   -0.37679E-03   -0.37731E-03  8736   0.772E-02-0.212E-05
CGA:  22    -0.387881896749E+03   -0.63564E-03   -0.63622E-03  8736   0.783E-02-0.206E-04
CGA:  23    -0.387882192427E+03   -0.29568E-03   -0.29475E-03  8736   0.559E-02 0.237E-05
CGA:  24    -0.387882457778E+03   -0.26535E-03   -0.26548E-03  8736   0.355E-02 0.223E-05
CGA:  25    -0.387882627038E+03   -0.16926E-03   -0.16962E-03  8736   0.324E-02 0.111E-04
CGA:  26    -0.387882830138E+03   -0.20310E-03   -0.20314E-03  8736   0.307E-02-0.466E-05
CGA:  27    -0.387882920544E+03   -0.90406E-04   -0.90312E-04  8736   0.112E-02 0.159E-05
CGA:  28    -0.387883054258E+03   -0.13371E-03   -0.13304E-03  8736   0.259E-02 0.106E-04
CGA:  29    -0.387883122957E+03   -0.68699E-04   -0.68686E-04  8736   0.459E-03 0.307E-05
CGA:  30    -0.387883163542E+03   -0.40585E-04   -0.40619E-04  8736   0.103E-02-0.959E-06
CGA:  31    -0.387883211240E+03   -0.47698E-04   -0.47716E-04  8736   0.604E-03 0.148E-06
SDA:  32    -0.387883238663E+03   -0.27423E-04   -0.27419E-04  8736   0.510E-03-0.230E-06
CGA:  33    -0.387883254826E+03   -0.16163E-04   -0.16134E-04  8736   0.198E-03 0.254E-07
CGA:  34    -0.387883276115E+03   -0.21289E-04   -0.21309E-04  8736   0.213E-03-0.446E-06
CGA:  35    -0.387883291687E+03   -0.15572E-04   -0.15580E-04  8736   0.382E-03-0.602E-06
CGA:  36    -0.387883310550E+03   -0.18863E-04   -0.18851E-04  8736   0.102E-03-0.113E-05
CGA:  37    -0.387883332269E+03   -0.21719E-04   -0.21865E-04  8736   0.102E-03-0.965E-06
CGA:  38    -0.387883338779E+03   -0.65099E-05   -0.65091E-05  8736   0.120E-03-0.474E-06
   5 F= -.38788334E+03 E0= -.38787052E+03  d E =0.557649E-01  mag=    34.0000
       N       E                     dE             d eps       ncg     rms          ort
SDA:   1    -0.386804269446E+03    0.10791E+01    0.00000E+00  8736   0.328E+01 0.000E+00
CGA:   2    -0.387246338102E+03   -0.44207E+00   -0.47157E+00  8736   0.130E+02-0.403E+00
CGA:   3    -0.387563622258E+03   -0.31728E+00   -0.34650E+00  8736   0.227E+01-0.628E+00
CGA:   4    -0.387701527467E+03   -0.13791E+00   -0.13933E+00  8736   0.216E+01 0.138E+00
CGA:   5    -0.387817883209E+03   -0.11636E+00   -0.11144E+00  8736   0.133E+01-0.214E-01
CGA:   6    -0.387876575243E+03   -0.58692E-01   -0.57955E-01  8736   0.500E+00 0.112E-02
CGA:   7    -0.387891999969E+03   -0.15425E-01   -0.15341E-01  8736   0.127E+00 0.209E-02
CGA:   8    -0.387906923573E+03   -0.14924E-01   -0.14953E-01  8736   0.161E+00-0.516E-03
CGA:   9    -0.387911711581E+03   -0.47880E-02   -0.48236E-02  8736   0.594E-01-0.715E-03
CGA:  10    -0.387914876415E+03   -0.31648E-02   -0.31646E-02  8736   0.201E-01-0.463E-05
CGA:  11    -0.387915976689E+03   -0.11003E-02   -0.10971E-02  8736   0.218E-01-0.911E-04
CGA:  12    -0.387917715106E+03   -0.17384E-02   -0.17373E-02  8736   0.121E-01 0.508E-04
CGA:  13    -0.387918035335E+03   -0.32023E-03   -0.32127E-03  8736   0.382E-02-0.223E-04
CGA:  14    -0.387918420669E+03   -0.38533E-03   -0.38406E-03  8736   0.266E-02 0.305E-04
CGA:  15    -0.387918607585E+03   -0.18692E-03   -0.18681E-03  8736   0.370E-02 0.153E-04
CGA:  16    -0.387918785823E+03   -0.17824E-03   -0.17812E-03  8736   0.137E-02 0.183E-05
CGA:  17    -0.387918843585E+03   -0.57762E-04   -0.57734E-04  8736   0.114E-02 0.859E-06
CGA:  18    -0.387918960013E+03   -0.11643E-03   -0.11632E-03  8736   0.754E-03 0.278E-05
CGA:  19    -0.387919040191E+03   -0.80178E-04   -0.80270E-04  8736   0.172E-02-0.174E-05
CGA:  20    -0.387919107041E+03   -0.66850E-04   -0.66851E-04  8736   0.460E-03-0.654E-06
CGA:  21    -0.387919134949E+03   -0.27908E-04   -0.27910E-04  8736   0.649E-03 0.771E-07
CGA:  22    -0.387919193711E+03   -0.58762E-04   -0.58799E-04  8736   0.261E-03-0.133E-05
CGA:  23    -0.387919212253E+03   -0.18541E-04   -0.18539E-04  8736   0.393E-03 0.545E-06
CGA:  24    -0.387919230332E+03   -0.18079E-04   -0.18091E-04  8736   0.216E-03 0.766E-06
CGA:  25    -0.387919244565E+03   -0.14232E-04   -0.14233E-04  8736   0.140E-03 0.102E-05
CGA:  26    -0.387919251473E+03   -0.69085E-05   -0.69188E-05  8736   0.948E-04 0.475E-06
CGA:  27    -0.387919261959E+03   -0.10486E-04   -0.10486E-04  8736   0.116E-03 0.163E-08
CGA:  28    -0.387919266056E+03   -0.40964E-05   -0.40942E-05  8736   0.644E-04-0.717E-07
   6 F= -.38791927E+03 E0= -.38790657E+03  d E =-.359273E-01  mag=    34.0000
       N       E                     dE             d eps       ncg     rms          ort
SDA:   1    -0.383241630753E+03    0.46776E+01    0.00000E+00  8736   0.140E+02 0.000E+00
CGA:   2    -0.384491285416E+03   -0.12497E+01   -0.13131E+01  8736   0.534E+02-0.169E+01
CGA:   3    -0.386571820351E+03   -0.20805E+01   -0.20841E+01  8736   0.112E+02 0.382E+00
CGA:   4    -0.386857084467E+03   -0.28526E+00   -0.33467E+00  8736   0.994E+01-0.955E+00
CGA:   5    -0.387549363636E+03   -0.69228E+00   -0.68746E+00  8736   0.489E+01 0.271E+00
CGA:   6    -0.387723194017E+03   -0.17383E+00   -0.12837E+00  8736   0.146E+01 0.131E+01
CGA:   7    -0.387795784067E+03   -0.72590E-01   -0.68460E-01  8736   0.120E+01 0.369E-01
CGA:   8    -0.387835729378E+03   -0.39945E-01   -0.41053E-01  8736   0.955E+00-0.119E-01
CGA:   9    -0.387872988644E+03   -0.37259E-01   -0.38077E-01  8736   0.105E+01 0.114E-02
CGA:  10    -0.387905619968E+03   -0.32631E-01   -0.33557E-01  8736   0.276E+00-0.106E-01
CGA:  11    -0.387912579596E+03   -0.69596E-02   -0.66832E-02  8736   0.142E+00 0.731E-02
CGA:  12    -0.387919767351E+03   -0.71878E-02   -0.71830E-02  8736   0.152E+00-0.243E-03
CGA:  13    -0.387924295942E+03   -0.45286E-02   -0.45300E-02  8736   0.106E+00-0.138E-04
CGA:  14    -0.387930001112E+03   -0.57052E-02   -0.57070E-02  8736   0.139E+00 0.994E-03
CGA:  15    -0.387933803771E+03   -0.38027E-02   -0.38728E-02  8736   0.236E-01-0.126E-02
CGA:  16    -0.387934384082E+03   -0.58031E-03   -0.56998E-03  8736   0.144E-01 0.249E-03
CGA:  17    -0.387935636887E+03   -0.12528E-02   -0.12534E-02  8736   0.334E-01-0.173E-04
CGA:  18    -0.387936634805E+03   -0.99792E-03   -0.10086E-02  8736   0.145E-01-0.111E-03
CGA:  19    -0.387937176970E+03   -0.54217E-03   -0.54488E-03  8736   0.113E-01 0.226E-04
CGA:  20    -0.387937553807E+03   -0.37684E-03   -0.37809E-03  8736   0.488E-02 0.113E-05
CGA:  21    -0.387937760073E+03   -0.20627E-03   -0.20618E-03  8736   0.645E-02-0.221E-05
CGA:  22    -0.387938171268E+03   -0.41119E-03   -0.41094E-03  8736   0.614E-02 0.116E-04
CGA:  23    -0.387938357531E+03   -0.18626E-03   -0.18682E-03  8736   0.409E-02-0.372E-05
CGA:  24    -0.387938621519E+03   -0.26399E-03   -0.26383E-03  8736   0.492E-02 0.725E-05
CGA:  25    -0.387938774837E+03   -0.15332E-03   -0.15335E-03  8736   0.264E-02-0.225E-05
CGA:  26    -0.387938921220E+03   -0.14638E-03   -0.14649E-03  8736   0.323E-02-0.133E-04
CGA:  27    -0.387939026249E+03   -0.10503E-03   -0.10517E-03  8736   0.144E-02-0.225E-05
CGA:  28    -0.387939097092E+03   -0.70844E-04   -0.70842E-04  8736   0.222E-02 0.557E-05
CGA:  29    -0.387939211812E+03   -0.11472E-03   -0.11470E-03  8736   0.141E-02 0.618E-05
CGA:  30    -0.387939259692E+03   -0.47880E-04   -0.47788E-04  8736   0.120E-02 0.131E-05
CGA:  31    -0.387939326793E+03   -0.67101E-04   -0.67078E-04  8736   0.891E-03 0.300E-05
SDA:  32    -0.387939351228E+03   -0.24435E-04   -0.24509E-04  8736   0.446E-03 0.611E-06
CGA:  33    -0.387939381102E+03   -0.29874E-04   -0.29878E-04  8736   0.480E-03-0.285E-06
CGA:  34    -0.387939403355E+03   -0.22253E-04   -0.22253E-04  8736   0.367E-03-0.273E-06
CGA:  35    -0.387939436826E+03   -0.33470E-04   -0.33547E-04  8736   0.323E-03-0.184E-05
CGA:  36    -0.387939451189E+03   -0.14363E-04   -0.14357E-04  8736   0.184E-03-0.587E-06
CGA:  37    -0.387939469196E+03   -0.18007E-04   -0.17952E-04  8736   0.132E-03 0.109E-05
CGA:  38    -0.387939486057E+03   -0.16861E-04   -0.16824E-04  8736   0.738E-04 0.450E-06
CGA:  39    -0.387939501667E+03   -0.15610E-04   -0.15680E-04  8736   0.149E-03-0.496E-06
CGA:  40    -0.387939506479E+03   -0.48117E-05   -0.48042E-05  8736   0.729E-04-0.215E-06
   7 F= -.38793951E+03 E0= -.38792693E+03  d E =-.202404E-01  mag=    34.0000
       N       E                     dE             d eps       ncg     rms          ort
SDA:   1    -0.380032958117E+03    0.79065E+01    0.00000E+00  8736   0.266E+02 0.000E+00
CGA:   2    -0.382108034588E+03   -0.20751E+01   -0.20902E+01  8736   0.696E+02-0.384E+00
CGA:   3    -0.385417602385E+03   -0.33096E+01   -0.32739E+01  8736   0.105E+02 0.843E+00
CGA:   4    -0.386354363883E+03   -0.93676E+00   -0.97822E+00  8736   0.364E+02-0.112E+01
CGA:   5    -0.387212839561E+03   -0.85848E+00   -0.91291E+00  8736   0.126E+02-0.149E+01
CGA:   6    -0.387478629855E+03   -0.26579E+00   -0.26666E+00  8736   0.387E+01 0.184E+00
CGA:   7    -0.387602058260E+03   -0.12343E+00   -0.11892E+00  8736   0.211E+01 0.628E-01
CGA:   8    -0.387688945998E+03   -0.86888E-01   -0.81998E-01  8736   0.140E+01 0.106E-01
CGA:   9    -0.387774775894E+03   -0.85830E-01   -0.85692E-01  8736   0.228E+01 0.280E-01
CGA:  10    -0.387825108511E+03   -0.50333E-01   -0.54122E-01  8736   0.326E+00-0.109E+00
CGA:  11    -0.387838671673E+03   -0.13563E-01   -0.13610E-01  8736   0.251E+00 0.795E-03
CGA:  12    -0.387850667609E+03   -0.11996E-01   -0.11950E-01  8736   0.220E+00-0.167E-02
CGA:  13    -0.387862695910E+03   -0.12028E-01   -0.12026E-01  8736   0.285E+00-0.125E-02
CGA:  14    -0.387871790819E+03   -0.90949E-02   -0.94314E-02  8736   0.367E-01-0.193E-02
CGA:  15    -0.387873215963E+03   -0.14251E-02   -0.14403E-02  8736   0.485E-01 0.137E-03
CGA:  16    -0.387877098157E+03   -0.38822E-02   -0.38876E-02  8736   0.318E-01-0.169E-03
CGA:  17    -0.387878654164E+03   -0.15560E-02   -0.15566E-02  8736   0.298E-01 0.404E-04
CGA:  18    -0.387880110660E+03   -0.14565E-02   -0.14582E-02  8736   0.118E-01 0.121E-03
CGA:  19    -0.387880575000E+03   -0.46434E-03   -0.46651E-03  8736   0.111E-01 0.209E-04
CGA:  20    -0.387881706319E+03   -0.11313E-02   -0.11282E-02  8736   0.922E-02 0.566E-04
CGA:  21    -0.387882307156E+03   -0.60084E-03   -0.60047E-03  8736   0.139E-01 0.302E-04
CGA:  22    -0.387882864172E+03   -0.55702E-03   -0.55830E-03  8736   0.398E-02 0.913E-05
CGA:  23    -0.387883179518E+03   -0.31535E-03   -0.31489E-03  8736   0.560E-02 0.144E-04
CGA:  24    -0.387883489301E+03   -0.30978E-03   -0.30972E-03  8736   0.405E-02-0.189E-04
CGA:  25    -0.387883747377E+03   -0.25808E-03   -0.25800E-03  8736   0.318E-02 0.684E-05
CGA:  26    -0.387883858429E+03   -0.11105E-03   -0.11144E-03  8736   0.178E-02-0.714E-06
CGA:  27    -0.387884093925E+03   -0.23550E-03   -0.23469E-03  8736   0.114E-02 0.107E-04
CGA:  28    -0.387884146679E+03   -0.52754E-04   -0.52757E-04  8736   0.113E-02 0.806E-06
CGA:  29    -0.387884215415E+03   -0.68736E-04   -0.68727E-04  8736   0.781E-03 0.306E-05
CGA:  30    -0.387884267871E+03   -0.52456E-04   -0.52429E-04  8736   0.104E-02 0.224E-05
CGA:  31    -0.387884324060E+03   -0.56188E-04   -0.56184E-04  8736   0.213E-03-0.728E-06
SDA:  32    -0.387884348199E+03   -0.24139E-04   -0.24182E-04  8736   0.712E-03-0.770E-06
CGA:  33    -0.387884362809E+03   -0.14610E-04   -0.14654E-04  8736   0.101E-03-0.164E-05
CGA:  34    -0.387884379021E+03   -0.16213E-04   -0.16244E-04  8736   0.384E-03-0.357E-06
CGA:  35    -0.387884399657E+03   -0.20635E-04   -0.20623E-04  8736   0.110E-03-0.855E-06
CGA:  36    -0.387884412608E+03   -0.12951E-04   -0.12967E-04  8736   0.853E-04-0.345E-06
CGA:  37    -0.387884419376E+03   -0.67678E-05   -0.67743E-05  8736   0.181E-03-0.598E-06
   8 F= -.38788442E+03 E0= -.38787178E+03  d E =0.550871E-01  mag=    34.0000
       N       E                     dE             d eps       ncg     rms          ort
SDA:   1    -0.377746283393E+03    0.10138E+02    0.00000E+00  8736   0.367E+02 0.000E+00
CGA:   2    -0.380086532682E+03   -0.23402E+01   -0.23403E+01  8736   0.787E+02-0.109E+00
CGA:   3    -0.384586251001E+03   -0.44997E+01   -0.44085E+01  8736   0.132E+02-0.101E+01
CGA:   4    -0.386192055426E+03   -0.16058E+01   -0.17763E+01  8736   0.406E+02-0.239E+01
CGA:   5    -0.387085135676E+03   -0.89308E+00   -0.10763E+01  8736   0.930E+01-0.348E+01
CGA:   6    -0.387267014119E+03   -0.18188E+00   -0.17220E+00  8736   0.398E+01 0.521E+00
CGA:   7    -0.387428967155E+03   -0.16195E+00   -0.15114E+00  8736   0.212E+01 0.776E-01
CGA:   8    -0.387534287852E+03   -0.10532E+00   -0.10489E+00  8736   0.432E+01-0.482E-02
CGA:   9    -0.387663552414E+03   -0.12926E+00   -0.13767E+00  8736   0.135E+01-0.122E+00
CGA:  10    -0.387696047736E+03   -0.32495E-01   -0.35427E-01  8736   0.546E+00-0.650E-01
CGA:  11    -0.387713198073E+03   -0.17150E-01   -0.16378E-01  8736   0.474E+00 0.107E-01
CGA:  12    -0.387737831703E+03   -0.24634E-01   -0.24603E-01  8736   0.450E+00-0.134E-02
CGA:  13    -0.387765613034E+03   -0.27781E-01   -0.27590E-01  8736   0.324E+00 0.315E-01
CGA:  14    -0.387772627017E+03   -0.70140E-02   -0.71530E-02  8736   0.859E-01-0.513E-02
CGA:  15    -0.387778029326E+03   -0.54023E-02   -0.53680E-02  8736   0.631E-01 0.296E-02
CGA:  16    -0.387785927380E+03   -0.78981E-02   -0.75702E-02  8736   0.757E-01 0.522E-02
CGA:  17    -0.387788268492E+03   -0.23411E-02   -0.23132E-02  8736   0.373E-01 0.526E-03
CGA:  18    -0.387790649048E+03   -0.23806E-02   -0.23793E-02  8736   0.143E-01 0.132E-03
CGA:  19    -0.387792231949E+03   -0.15829E-02   -0.15536E-02  8736   0.207E-01 0.552E-03
CGA:  20    -0.387793165339E+03   -0.93339E-03   -0.93418E-03  8736   0.201E-01 0.246E-05
CGA:  21    -0.387794383166E+03   -0.12178E-02   -0.12177E-02  8736   0.921E-02 0.161E-03
CGA:  22    -0.387794855499E+03   -0.47233E-03   -0.47208E-03  8736   0.767E-02-0.953E-05
CGA:  23    -0.387795359736E+03   -0.50424E-03   -0.50409E-03  8736   0.678E-02 0.104E-04
CGA:  24    -0.387795759987E+03   -0.40025E-03   -0.40032E-03  8736   0.935E-02 0.315E-04
CGA:  25    -0.387796208643E+03   -0.44866E-03   -0.44831E-03  8736   0.266E-02-0.105E-04
CGA:  26    -0.387796512517E+03   -0.30387E-03   -0.30361E-03  8736   0.359E-02 0.398E-05
CGA:  27    -0.387796676021E+03   -0.16350E-03   -0.16374E-03  8736   0.382E-02 0.506E-05
CGA:  28    -0.387796904266E+03   -0.22824E-03   -0.22827E-03  8736   0.109E-02 0.110E-04
CGA:  29    -0.387797018279E+03   -0.11401E-03   -0.11379E-03  8736   0.208E-02 0.469E-05
CGA:  30    -0.387797120135E+03   -0.10186E-03   -0.10186E-03  8736   0.119E-02 0.124E-05
CGA:  31    -0.387797178403E+03   -0.58268E-04   -0.58280E-04  8736   0.793E-03 0.535E-06
SDA:  32    -0.387797213376E+03   -0.34973E-04   -0.35020E-04  8736   0.447E-03 0.129E-06
CGA:  33    -0.387797238047E+03   -0.24671E-04   -0.24666E-04  8736   0.403E-03-0.777E-06
CGA:  34    -0.387797263255E+03   -0.25208E-04   -0.25210E-04  8736   0.375E-03-0.798E-06
CGA:  35    -0.387797293558E+03   -0.30303E-04   -0.30316E-04  8736   0.521E-03-0.850E-06
CGA:  36    -0.387797313316E+03   -0.19758E-04   -0.19727E-04  8736   0.157E-03-0.810E-06
CGA:  37    -0.387797331719E+03   -0.18404E-04   -0.18405E-04  8736   0.131E-03-0.867E-07
CGA:  38    -0.387797347535E+03   -0.15816E-04   -0.15764E-04  8736   0.829E-04 0.841E-06
CGA:  39    -0.387797361632E+03   -0.14097E-04   -0.14059E-04  8736   0.173E-03 0.356E-06
CGA:  40    -0.387797368629E+03   -0.69972E-05   -0.69876E-05  8736   0.837E-04-0.192E-06
   9 F= -.38779737E+03 E0= -.38778464E+03  d E =0.870507E-01  mag=    34.0000
       N       E                     dE             d eps       ncg     rms          ort
SDA:   1    -0.381451104918E+03    0.63463E+01    0.00000E+00  8736   0.226E+02 0.000E+00
CGA:   2    -0.382641386478E+03   -0.11903E+01   -0.11396E+01  8736   0.411E+02-0.778E+00
CGA:   3    -0.385972362757E+03   -0.33310E+01   -0.34254E+01  8736   0.140E+02-0.608E+01
CGA:   4    -0.386508815499E+03   -0.53645E+00   -0.56474E+00  8736   0.123E+02 0.434E-01
CGA:   5    -0.387172371578E+03   -0.66356E+00   -0.64138E+00  8736   0.113E+02-0.238E+00
CGA:   6    -0.387495297133E+03   -0.32293E+00   -0.30338E+00  8736   0.267E+01 0.356E+00
CGA:   7    -0.387614204989E+03   -0.11891E+00   -0.12489E+00  8736   0.134E+01 0.108E-01
CGA:   8    -0.387681629651E+03   -0.67425E-01   -0.67555E-01  8736   0.157E+01 0.646E-06
CGA:   9    -0.387738369028E+03   -0.56739E-01   -0.56021E-01  8736   0.576E+00 0.958E-02
CGA:  10    -0.387764026532E+03   -0.25658E-01   -0.26096E-01  8736   0.280E+00 0.271E-02
CGA:  11    -0.387778591788E+03   -0.14565E-01   -0.14397E-01  8736   0.311E+00-0.474E-02
CGA:  12    -0.387789927370E+03   -0.11336E-01   -0.12062E-01  8736   0.172E+00-0.174E-02
CGA:  13    -0.387798196450E+03   -0.82691E-02   -0.82674E-02  8736   0.820E-01-0.577E-04
CGA:  14    -0.387802432286E+03   -0.42358E-02   -0.42966E-02  8736   0.575E-01 0.297E-02
CGA:  15    -0.387804909616E+03   -0.24773E-02   -0.24298E-02  8736   0.471E-01-0.114E-03
CGA:  16    -0.387808136225E+03   -0.32266E-02   -0.31888E-02  8736   0.194E-01 0.253E-02
CGA:  17    -0.387809408730E+03   -0.12725E-02   -0.12728E-02  8736   0.154E-01-0.446E-04
CGA:  18    -0.387810423493E+03   -0.10148E-02   -0.10105E-02  8736   0.934E-02 0.390E-03
CGA:  19    -0.387811352160E+03   -0.92867E-03   -0.93463E-03  8736   0.128E-01-0.146E-03
CGA:  20    -0.387811802966E+03   -0.45081E-03   -0.45865E-03  8736   0.599E-02-0.395E-04
CGA:  21    -0.387812221644E+03   -0.41868E-03   -0.41854E-03  8736   0.643E-02 0.105E-04
CGA:  22    -0.387812619075E+03   -0.39743E-03   -0.39742E-03  8736   0.393E-02 0.297E-05
CGA:  23    -0.387812999936E+03   -0.38086E-03   -0.38089E-03  8736   0.317E-02-0.171E-05
CGA:  24    -0.387813170783E+03   -0.17085E-03   -0.17083E-03  8736   0.272E-02-0.104E-05
CGA:  25    -0.387813314253E+03   -0.14347E-03   -0.14348E-03  8736   0.209E-02 0.470E-06
CGA:  26    -0.387813438879E+03   -0.12463E-03   -0.12466E-03  8736   0.192E-02 0.763E-05
CGA:  27    -0.387813566037E+03   -0.12716E-03   -0.12716E-03  8736   0.644E-03 0.404E-06
CGA:  28    -0.387813631532E+03   -0.65495E-04   -0.65288E-04  8736   0.117E-02 0.477E-05
CGA:  29    -0.387813698788E+03   -0.67257E-04   -0.67248E-04  8736   0.581E-03 0.468E-06
CGA:  30    -0.387813725689E+03   -0.26900E-04   -0.26932E-04  8736   0.525E-03 0.392E-06
CGA:  31    -0.387813760436E+03   -0.34747E-04   -0.34749E-04  8736   0.306E-03-0.516E-06
SDA:  32    -0.387813787970E+03   -0.27534E-04   -0.27556E-04  8736   0.354E-03-0.889E-06
CGA:  33    -0.387813797485E+03   -0.95157E-05   -0.95551E-05  8736   0.916E-04-0.105E-05
CGA:  34    -0.387813811195E+03   -0.13710E-04   -0.13763E-04  8736   0.323E-03-0.644E-06
CGA:  35    -0.387813824863E+03   -0.13668E-04   -0.13649E-04  8736   0.146E-03-0.697E-06
CGA:  36    -0.387813838016E+03   -0.13153E-04   -0.13164E-04  8736   0.424E-04-0.613E-06
CGA:  37    -0.387813847294E+03   -0.92788E-05   -0.93542E-05  8736   0.113E-03-0.543E-06
  10 F= -.38781385E+03 E0= -.38780124E+03  d E =-.164787E-01  mag=    34.0000
       N       E                     dE             d eps       ncg     rms          ort
SDA:   1    -0.378490163296E+03    0.93237E+01    0.00000E+00  8736   0.290E+02 0.000E+00
CGA:   2    -0.381251381840E+03   -0.27612E+01   -0.28053E+01  8736   0.942E+02-0.113E+01
CGA:   3    -0.384976258252E+03   -0.37249E+01   -0.36006E+01  8736   0.125E+02 0.297E+01
CGA:   4    -0.385866009328E+03   -0.88975E+00   -0.88407E+00  8736   0.363E+02-0.607E+00
CGA:   5    -0.387101926183E+03   -0.12359E+01   -0.12537E+01  8736   0.798E+01-0.251E+00
CGA:   6    -0.387337381406E+03   -0.23546E+00   -0.19903E+00  8736   0.402E+01 0.129E+01
CGA:   7    -0.387482007065E+03   -0.14463E+00   -0.12444E+00  8736   0.153E+01 0.572E+00
CGA:   8    -0.387553893349E+03   -0.71886E-01   -0.69799E-01  8736   0.232E+01 0.152E-01
CGA:   9    -0.387625166902E+03   -0.71274E-01   -0.70964E-01  8736   0.267E+01-0.109E-02
CGA:  10    -0.387689643678E+03   -0.64477E-01   -0.68535E-01  8736   0.860E+00-0.981E-01
CGA:  11    -0.387703091706E+03   -0.13448E-01   -0.15901E-01  8736   0.303E+00-0.973E-01
CGA:  12    -0.387720436992E+03   -0.17345E-01   -0.17416E-01  8736   0.400E+00-0.750E-02
CGA:  13    -0.387729059884E+03   -0.86229E-02   -0.85745E-02  8736   0.179E+00 0.154E-02
CGA:  14    -0.387742090496E+03   -0.13031E-01   -0.12952E-01  8736   0.304E+00 0.378E-02
CGA:  15    -0.387748798836E+03   -0.67083E-02   -0.68642E-02  8736   0.637E-01-0.501E-02
CGA:  16    -0.387751063796E+03   -0.22650E-02   -0.22875E-02  8736   0.483E-01-0.506E-04
CGA:  17    -0.387753164591E+03   -0.21008E-02   -0.21151E-02  8736   0.431E-01 0.300E-03
CGA:  18    -0.387754868342E+03   -0.17038E-02   -0.16992E-02  8736   0.358E-01-0.146E-04
CGA:  19    -0.387757061136E+03   -0.21928E-02   -0.21935E-02  8736   0.362E-01-0.861E-04
CGA:  20    -0.387758025962E+03   -0.96483E-03   -0.98197E-03  8736   0.163E-01-0.284E-03
CGA:  21    -0.387758931855E+03   -0.90589E-03   -0.90485E-03  8736   0.991E-02 0.212E-03
CGA:  22    -0.387759286750E+03   -0.35489E-03   -0.35543E-03  8736   0.111E-01 0.457E-05
CGA:  23    -0.387760645095E+03   -0.13583E-02   -0.13552E-02  8736   0.130E-01 0.408E-04
CGA:  24    -0.387760958450E+03   -0.31335E-03   -0.31556E-03  8736   0.479E-02-0.558E-04
CGA:  25    -0.387761323648E+03   -0.36520E-03   -0.36504E-03  8736   0.681E-02 0.454E-05
CGA:  26    -0.387761631869E+03   -0.30822E-03   -0.30800E-03  8736   0.534E-02-0.785E-05
CGA:  27    -0.387761899848E+03   -0.26798E-03   -0.26799E-03  8736   0.499E-02 0.119E-05
CGA:  28    -0.387762080202E+03   -0.18035E-03   -0.18093E-03  8736   0.186E-02 0.954E-06
CGA:  29    -0.387762223914E+03   -0.14371E-03   -0.14370E-03  8736   0.410E-02 0.701E-06
CGA:  30    -0.387762386164E+03   -0.16225E-03   -0.16201E-03  8736   0.170E-02 0.215E-05
CGA:  31    -0.387762490231E+03   -0.10407E-03   -0.10399E-03  8736   0.147E-02 0.799E-05
SDA:  32    -0.387762535261E+03   -0.45030E-04   -0.45141E-04  8736   0.861E-03 0.125E-06
CGA:  33    -0.387762579306E+03   -0.44045E-04   -0.44036E-04  8736   0.883E-03-0.248E-05
CGA:  34    -0.387762621689E+03   -0.42383E-04   -0.42373E-04  8736   0.637E-03-0.189E-05
CGA:  35    -0.387762695732E+03   -0.74043E-04   -0.74141E-04  8736   0.299E-03-0.161E-05
CGA:  36    -0.387762724394E+03   -0.28662E-04   -0.28675E-04  8736   0.409E-03-0.188E-06
CGA:  37    -0.387762748289E+03   -0.23895E-04   -0.23895E-04  8736   0.283E-03 0.120E-05
CGA:  38    -0.387762774798E+03   -0.26509E-04   -0.26466E-04  8736   0.123E-03 0.122E-05
CGA:  39    -0.387762801672E+03   -0.26874E-04   -0.26966E-04  8736   0.227E-03-0.601E-06
CGA:  40    -0.387762809119E+03   -0.74467E-05   -0.74316E-05  8736   0.144E-03-0.319E-06
CGA:  41    -0.387762823384E+03   -0.14266E-04   -0.14302E-04  8736   0.542E-04-0.108E-05
CGA:  42    -0.387762827675E+03   -0.42909E-05   -0.42939E-05  8736   0.101E-03-0.291E-06
  11 F= -.38776283E+03 E0= -.38775021E+03  d E =0.510196E-01  mag=    34.0000
       N       E                     dE             d eps       ncg     rms          ort
SDA:   1    -0.376695962791E+03    0.11067E+02    0.00000E+00  8736   0.383E+02 0.000E+00
CGA:   2    -0.379389775809E+03   -0.26938E+01   -0.26924E+01  8736   0.880E+02 0.741E+00
CGA:   3    -0.384213647068E+03   -0.48239E+01   -0.46095E+01  8736   0.142E+02 0.149E+00
CGA:   4    -0.385956304239E+03   -0.17427E+01   -0.18890E+01  8736   0.492E+02-0.216E+01
CGA:   5    -0.386847377982E+03   -0.89107E+00   -0.10307E+01  8736   0.135E+02-0.689E+01
CGA:   6    -0.387117378849E+03   -0.27000E+00   -0.29842E+00  8736   0.457E+01-0.640E+00
CGA:   7    -0.387298538318E+03   -0.18116E+00   -0.16444E+00  8736   0.195E+01 0.155E+00
CGA:   8    -0.387418897588E+03   -0.12036E+00   -0.11973E+00  8736   0.363E+01-0.412E-01
CGA:   9    -0.387558753765E+03   -0.13986E+00   -0.13804E+00  8736   0.668E+00 0.123E-01
CGA:  10    -0.387583155791E+03   -0.24402E-01   -0.25173E-01  8736   0.421E+00-0.543E-02
CGA:  11    -0.387606574442E+03   -0.23419E-01   -0.23232E-01  8736   0.505E+00-0.987E-02
CGA:  12    -0.387626517373E+03   -0.19943E-01   -0.20712E-01  8736   0.420E+00 0.761E-03
CGA:  13    -0.387644377736E+03   -0.17860E-01   -0.17686E-01  8736   0.107E+00-0.553E-03
CGA:  14    -0.387649104256E+03   -0.47265E-02   -0.48522E-02  8736   0.104E+00 0.154E-02
CGA:  15    -0.387654065486E+03   -0.49612E-02   -0.49516E-02  8736   0.646E-01-0.163E-03
CGA:  16    -0.387658916586E+03   -0.48511E-02   -0.47632E-02  8736   0.551E-01 0.408E-02
CGA:  17    -0.387661408807E+03   -0.24922E-02   -0.24706E-02  8736   0.440E-01-0.106E-03
CGA:  18    -0.387663524323E+03   -0.21155E-02   -0.21412E-02  8736   0.113E-01 0.800E-03
CGA:  19    -0.387664893897E+03   -0.13696E-02   -0.13785E-02  8736   0.259E-01-0.152E-03
CGA:  20    -0.387666049664E+03   -0.11558E-02   -0.11713E-02  8736   0.187E-01 0.199E-03
CGA:  21    -0.387667169932E+03   -0.11203E-02   -0.11200E-02  8736   0.528E-02-0.879E-04
CGA:  22    -0.387667535871E+03   -0.36594E-03   -0.36554E-03  8736   0.967E-02 0.285E-04
CGA:  23    -0.387668158956E+03   -0.62309E-03   -0.62324E-03  8736   0.683E-02-0.302E-04
CGA:  24    -0.387668634400E+03   -0.47544E-03   -0.47476E-03  8736   0.429E-02 0.484E-04
CGA:  25    -0.387668813851E+03   -0.17945E-03   -0.17970E-03  8736   0.307E-02 0.943E-06
CGA:  26    -0.387669081670E+03   -0.26782E-03   -0.26704E-03  8736   0.322E-02 0.245E-04
CGA:  27    -0.387669250388E+03   -0.16872E-03   -0.16865E-03  8736   0.256E-02 0.439E-06
CGA:  28    -0.387669402393E+03   -0.15200E-03   -0.15203E-03  8736   0.129E-02 0.727E-05
CGA:  29    -0.387669481492E+03   -0.79099E-04   -0.79100E-04  8736   0.157E-02 0.135E-05
CGA:  30    -0.387669567330E+03   -0.85838E-04   -0.85888E-04  8736   0.810E-03 0.312E-05
CGA:  31    -0.387669634988E+03   -0.67657E-04   -0.67655E-04  8736   0.734E-03-0.938E-07
SDA:  32    -0.387669663515E+03   -0.28527E-04   -0.28563E-04  8736   0.431E-03-0.495E-06
CGA:  33    -0.387669678086E+03   -0.14571E-04   -0.14566E-04  8736   0.326E-03-0.179E-06
CGA:  34    -0.387669703379E+03   -0.25293E-04   -0.25300E-04  8736   0.238E-03-0.553E-06
CGA:  35    -0.387669738462E+03   -0.35083E-04   -0.35137E-04  8736   0.240E-03-0.656E-06
CGA:  36    -0.387669748557E+03   -0.10095E-04   -0.10074E-04  8736   0.144E-03-0.548E-06
CGA:  37    -0.387669762075E+03   -0.13518E-04   -0.13535E-04  8736   0.187E-03-0.694E-06
CGA:  38    -0.387669770798E+03   -0.87227E-05   -0.87186E-05  8736   0.158E-03-0.303E-06
  12 F= -.38766977E+03 E0= -.38765708E+03  d E =0.930569E-01  mag=    34.0000
       N       E                     dE             d eps       ncg     rms          ort
SDA:   1    -0.380288980167E+03    0.73808E+01    0.00000E+00  8736   0.229E+02 0.000E+00
CGA:   2    -0.382124727620E+03   -0.18357E+01   -0.18807E+01  8736   0.734E+02-0.144E+01
CGA:   3    -0.385580890401E+03   -0.34562E+01   -0.34113E+01  8736   0.108E+02 0.115E+01
CGA:   4    -0.386150604710E+03   -0.56971E+00   -0.59230E+00  8736   0.209E+02 0.634E+00
CGA:   5    -0.387077315401E+03   -0.92671E+00   -0.93848E+00  8736   0.897E+01-0.850E-02
CGA:   6    -0.387362021796E+03   -0.28471E+00   -0.20786E+00  8736   0.155E+01 0.267E+01
CGA:   7    -0.387437279185E+03   -0.75257E-01   -0.71831E-01  8736   0.192E+01 0.270E-01
CGA:   8    -0.387511272593E+03   -0.73993E-01   -0.73664E-01  8736   0.204E+01 0.890E-03
CGA:   9    -0.387560789773E+03   -0.49517E-01   -0.53343E-01  8736   0.134E+01-0.779E-01
CGA:  10    -0.387604792100E+03   -0.44002E-01   -0.45190E-01  8736   0.905E+00-0.558E-02
CGA:  11    -0.387624726354E+03   -0.19934E-01   -0.18746E-01  8736   0.246E+00 0.427E-01
CGA:  12    -0.387630971100E+03   -0.62447E-02   -0.57871E-02  8736   0.179E+00 0.132E-01
CGA:  13    -0.387641653240E+03   -0.10682E-01   -0.10676E-01  8736   0.429E+00 0.793E-03
CGA:  14    -0.387651829646E+03   -0.10176E-01   -0.10112E-01  8736   0.193E+00 0.121E-02
CGA:  15    -0.387656291453E+03   -0.44618E-02   -0.46720E-02  8736   0.134E+00-0.468E-02
CGA:  16    -0.387659912347E+03   -0.36209E-02   -0.36857E-02  8736   0.747E-01-0.717E-03
CGA:  17    -0.387661516698E+03   -0.16044E-02   -0.16126E-02  8736   0.311E-01-0.221E-03
CGA:  18    -0.387662600953E+03   -0.10843E-02   -0.10812E-02  8736   0.401E-01-0.279E-04
CGA:  19    -0.387664320662E+03   -0.17197E-02   -0.17168E-02  8736   0.477E-01-0.329E-03
CGA:  20    -0.387665539278E+03   -0.12186E-02   -0.12287E-02  8736   0.301E-01-0.124E-03
CGA:  21    -0.387666643674E+03   -0.11044E-02   -0.11110E-02  8736   0.320E-01 0.236E-03
CGA:  22    -0.387667443232E+03   -0.79956E-03   -0.80117E-03  8736   0.925E-02-0.101E-04
CGA:  23    -0.387667711175E+03   -0.26794E-03   -0.26738E-03  8736   0.920E-02-0.293E-06
CGA:  24    -0.387668251224E+03   -0.54005E-03   -0.54029E-03  8736   0.157E-01-0.172E-04
CGA:  25    -0.387668725436E+03   -0.47421E-03   -0.47544E-03  8736   0.100E-01 0.146E-05
CGA:  26    -0.387669103680E+03   -0.37824E-03   -0.37858E-03  8736   0.115E-01 0.213E-04
CGA:  27    -0.387669528014E+03   -0.42433E-03   -0.42465E-03  8736   0.654E-02 0.132E-04
CGA:  28    -0.387669677127E+03   -0.14911E-03   -0.14818E-03  8736   0.318E-02 0.156E-04
CGA:  29    -0.387669872201E+03   -0.19507E-03   -0.19551E-03  8736   0.733E-02-0.202E-04
CGA:  30    -0.387670104271E+03   -0.23207E-03   -0.23279E-03  8736   0.341E-02 0.895E-05
CGA:  31    -0.387670194990E+03   -0.90719E-04   -0.91239E-04  8736   0.236E-02-0.123E-05
SDA:  32    -0.387670292673E+03   -0.97683E-04   -0.97682E-04  8736   0.252E-02 0.861E-05
CGA:  33    -0.387670385954E+03   -0.93281E-04   -0.93185E-04  8736   0.132E-02-0.801E-05
CGA:  34    -0.387670532878E+03   -0.14692E-03   -0.14622E-03  8736   0.920E-03 0.105E-04
CGA:  35    -0.387670612674E+03   -0.79797E-04   -0.79524E-04  8736   0.601E-03 0.626E-05
CGA:  36    -0.387670661121E+03   -0.48447E-04   -0.48441E-04  8736   0.133E-02 0.130E-06
CGA:  37    -0.387670725915E+03   -0.64794E-04   -0.64793E-04  8736   0.444E-03 0.308E-06
CGA:  38    -0.387670764510E+03   -0.38595E-04   -0.38539E-04  8736   0.394E-03 0.122E-05
CGA:  39    -0.387670783466E+03   -0.18956E-04   -0.18955E-04  8736   0.270E-03-0.485E-06
CGA:  40    -0.387670834507E+03   -0.51041E-04   -0.51027E-04  8736   0.250E-03-0.104E-06
CGA:  41    -0.387670852782E+03   -0.18275E-04   -0.18268E-04  8736   0.345E-03 0.314E-06
CGA:  42    -0.387670863800E+03   -0.11018E-04   -0.11012E-04  8736   0.749E-04 0.135E-07
CGA:  43    -0.387670880391E+03   -0.16591E-04   -0.16744E-04  8736   0.106E-03-0.100E-05
CGA:  44    -0.387670888056E+03   -0.76651E-05   -0.76681E-05  8736   0.104E-03-0.471E-06
  13 F= -.38767089E+03 E0= -.38765827E+03  d E =-.111726E-02  mag=    34.0000
       N       E                     dE             d eps       ncg     rms          ort
SDA:   1    -0.378672729174E+03    0.89982E+01    0.00000E+00  8736   0.280E+02 0.000E+00
CGA:   2    -0.381176192104E+03   -0.25035E+01   -0.26301E+01  8736   0.102E+03-0.322E+01
CGA:   3    -0.384776397620E+03   -0.36002E+01   -0.35007E+01  8736   0.189E+02 0.309E+01
CGA:   4    -0.385342297194E+03   -0.56590E+00   -0.68705E+00  8736   0.252E+02-0.138E+01
CGA:   5    -0.386704929435E+03   -0.13626E+01   -0.13685E+01  8736   0.111E+02 0.576E+00
CGA:   6    -0.387084083949E+03   -0.37915E+00   -0.22365E+00  8736   0.418E+01 0.689E+01
CGA:   7    -0.387264606479E+03   -0.18052E+00   -0.16836E+00  8736   0.220E+01 0.687E-01
CGA:   8    -0.387373354355E+03   -0.10875E+00   -0.10973E+00  8736   0.152E+01 0.290E-01
CGA:   9    -0.387514331391E+03   -0.14098E+00   -0.13891E+00  8736   0.858E+00 0.548E-01
CGA:  10    -0.387541495441E+03   -0.27164E-01   -0.23882E-01  8736   0.275E+00 0.733E-01
CGA:  11    -0.387558088344E+03   -0.16593E-01   -0.16546E-01  8736   0.320E+00-0.550E-02
CGA:  12    -0.387570490048E+03   -0.12402E-01   -0.12275E-01  8736   0.240E+00 0.782E-04
CGA:  13    -0.387591470756E+03   -0.20981E-01   -0.20541E-01  8736   0.194E+00 0.125E-01
CGA:  14    -0.387596696426E+03   -0.52257E-02   -0.53119E-02  8736   0.522E-01-0.195E-02
CGA:  15    -0.387599639190E+03   -0.29428E-02   -0.29426E-02  8736   0.638E-01-0.959E-04
CGA:  16    -0.387602280524E+03   -0.26413E-02   -0.26587E-02  8736   0.282E-01 0.157E-03
CGA:  17    -0.387604985215E+03   -0.27047E-02   -0.26849E-02  8736   0.231E-01 0.450E-03
CGA:  18    -0.387605690484E+03   -0.70527E-03   -0.70452E-03  8736   0.107E-01 0.272E-04
CGA:  19    -0.387606474938E+03   -0.78445E-03   -0.78445E-03  8736   0.118E-01 0.233E-06
CGA:  20    -0.387607153459E+03   -0.67852E-03   -0.67857E-03  8736   0.130E-01 0.646E-04
CGA:  21    -0.387608282061E+03   -0.11286E-02   -0.11271E-02  8736   0.712E-02 0.446E-04
CGA:  22    -0.387608727590E+03   -0.44553E-03   -0.44558E-03  8736   0.930E-02-0.113E-04
CGA:  23    -0.387609104363E+03   -0.37677E-03   -0.37666E-03  8736   0.416E-02-0.230E-05
CGA:  24    -0.387609494621E+03   -0.39026E-03   -0.38823E-03  8736   0.625E-02 0.507E-04
CGA:  25    -0.387609741764E+03   -0.24714E-03   -0.24688E-03  8736   0.136E-02 0.563E-06
CGA:  26    -0.387609911962E+03   -0.17020E-03   -0.17026E-03  8736   0.323E-02-0.103E-05
CGA:  27    -0.387610015098E+03   -0.10314E-03   -0.10345E-03  8736   0.989E-03-0.491E-06
CGA:  28    -0.387610080709E+03   -0.65611E-04   -0.65587E-04  8736   0.588E-03 0.334E-05
CGA:  29    -0.387610116190E+03   -0.35481E-04   -0.35480E-04  8736   0.746E-03-0.494E-06
CGA:  30    -0.387610191912E+03   -0.75722E-04   -0.75721E-04  8736   0.595E-03-0.317E-06
CGA:  31    -0.387610216617E+03   -0.24706E-04   -0.24727E-04  8736   0.499E-03 0.232E-06
CGA:  32    -0.387610242431E+03   -0.25814E-04   -0.25829E-04  8736   0.233E-03 0.839E-06
CGA:  33    -0.387610279955E+03   -0.37525E-04   -0.37471E-04  8736   0.454E-03 0.317E-06
CGA:  34    -0.387610296874E+03   -0.16919E-04   -0.16938E-04  8736   0.134E-03-0.407E-07
CGA:  35    -0.387610309781E+03   -0.12907E-04   -0.12918E-04  8736   0.162E-03-0.503E-06
CGA:  36    -0.387610316231E+03   -0.64502E-05   -0.64313E-05  8736   0.138E-03-0.588E-06
SDA:  37    -0.387610328229E+03   -0.11998E-04   -0.12031E-04  8736   0.658E-04-0.154E-05
CGA:  38    -0.387610331976E+03   -0.37469E-05   -0.37478E-05  8736   0.491E-04 0.608E-07
  14 F= -.38761033E+03 E0= -.38759770E+03  d E =0.605561E-01  mag=    34.0000
       N       E                     dE             d eps       ncg     rms          ort
SDA:   1    -0.378342281766E+03    0.92680E+01    0.00000E+00  8736   0.303E+02 0.000E+00
CGA:   2    -0.380825884238E+03   -0.24836E+01   -0.24981E+01  8736   0.842E+02-0.230E+00
CGA:   3    -0.384701038098E+03   -0.38752E+01   -0.37399E+01  8736   0.108E+02 0.196E+01
CGA:   4    -0.386418619465E+03   -0.17176E+01   -0.18327E+01  8736   0.421E+02-0.122E+01
CGA:   5    -0.386942388474E+03   -0.52377E+00   -0.77054E+00  8736   0.548E+01-0.111E+02
CGA:   6    -0.387123875288E+03   -0.18149E+00   -0.17281E+00  8736   0.343E+01 0.349E-01
CGA:   7    -0.387254168429E+03   -0.13029E+00   -0.14112E+00  8736   0.237E+01-0.381E-01
CGA:   8    -0.387367546683E+03   -0.11338E+00   -0.11391E+00  8736   0.180E+01 0.231E-02
CGA:   9    -0.387432652238E+03   -0.65106E-01   -0.66164E-01  8736   0.487E+00-0.125E-01
CGA:  10    -0.387451204974E+03   -0.18553E-01   -0.17952E-01  8736   0.430E+00 0.503E-02
CGA:  11    -0.387481964699E+03   -0.30760E-01   -0.30600E-01  8736   0.310E+00 0.115E-01
CGA:  12    -0.387496239856E+03   -0.14275E-01   -0.14240E-01  8736   0.289E+00-0.307E-03
CGA:  13    -0.387507112548E+03   -0.10873E-01   -0.11325E-01  8736   0.578E-01-0.590E-03
CGA:  14    -0.387511923762E+03   -0.48112E-02   -0.48233E-02  8736   0.876E-01-0.415E-03
CGA:  15    -0.387515471464E+03   -0.35477E-02   -0.36372E-02  8736   0.481E-01 0.252E-03
CGA:  16    -0.387518521168E+03   -0.30497E-02   -0.30510E-02  8736   0.424E-01-0.250E-03
CGA:  17    -0.387520040888E+03   -0.15197E-02   -0.15465E-02  8736   0.117E-01-0.124E-03
CGA:  18    -0.387521374335E+03   -0.13334E-02   -0.13386E-02  8736   0.258E-01-0.912E-04
CGA:  19    -0.387522340698E+03   -0.96636E-03   -0.97995E-03  8736   0.124E-01-0.417E-04
CGA:  20    -0.387523379126E+03   -0.10384E-02   -0.10399E-02  8736   0.554E-02-0.481E-04
CGA:  21    -0.387523659000E+03   -0.27987E-03   -0.28041E-03  8736   0.751E-02 0.147E-04
CGA:  22    -0.387524238742E+03   -0.57974E-03   -0.57972E-03  8736   0.554E-02 0.867E-06
CGA:  23    -0.387524673103E+03   -0.43436E-03   -0.43431E-03  8736   0.405E-02 0.199E-05
CGA:  24    -0.387524804020E+03   -0.13092E-03   -0.13079E-03  8736   0.207E-02 0.203E-05
CGA:  25    -0.387525095261E+03   -0.29124E-03   -0.28984E-03  8736   0.254E-02 0.187E-04
CGA:  26    -0.387525220393E+03   -0.12513E-03   -0.12512E-03  8736   0.216E-02 0.137E-05
CGA:  27    -0.387525317143E+03   -0.96750E-04   -0.96952E-04  8736   0.766E-03 0.160E-05
CGA:  28    -0.387525395963E+03   -0.78820E-04   -0.78716E-04  8736   0.160E-02 0.243E-05
CGA:  29    -0.387525469451E+03   -0.73488E-04   -0.73517E-04  8736   0.481E-03 0.586E-06
CGA:  30    -0.387525496495E+03   -0.27044E-04   -0.27048E-04  8736   0.530E-03 0.327E-06
CGA:  31    -0.387525525498E+03   -0.29004E-04   -0.29007E-04  8736   0.296E-03 0.367E-06
SDA:  32    -0.387525559957E+03   -0.34458E-04   -0.34461E-04  8736   0.439E-03-0.120E-06
CGA:  33    -0.387525568665E+03   -0.87081E-05   -0.86988E-05  8736   0.851E-04-0.134E-06
CGA:  34    -0.387525586429E+03   -0.17764E-04   -0.17972E-04  8736   0.165E-03-0.144E-05
CGA:  35    -0.387525602761E+03   -0.16331E-04   -0.16365E-04  8736   0.142E-03-0.121E-05
CGA:  36    -0.387525607547E+03   -0.47861E-05   -0.47747E-05  8736   0.408E-04-0.287E-06
  15 F= -.38752561E+03 E0= -.38751290E+03  d E =0.847244E-01  mag=    34.0000
       N       E                     dE             d eps       ncg     rms          ort
SDA:   1    -0.384879194952E+03    0.26464E+01    0.00000E+00  8736   0.954E+01 0.000E+00
CGA:   2    -0.385394969449E+03   -0.51577E+00   -0.49858E+00  8736   0.175E+02-0.199E+00
CGA:   3    -0.386794876293E+03   -0.13999E+01   -0.14063E+01  8736   0.569E+01-0.536E+00
CGA:   4    -0.387040230009E+03   -0.24535E+00   -0.26740E+00  8736   0.432E+01 0.601E-02
CGA:   5    -0.387402869704E+03   -0.36264E+00   -0.36541E+00  8736   0.220E+01-0.155E+00
CGA:   6    -0.387471085037E+03   -0.68215E-01   -0.71689E-01  8736   0.131E+01-0.491E-01
CGA:   7    -0.387510584849E+03   -0.39500E-01   -0.40894E-01  8736   0.388E+00-0.285E-01
CGA:   8    -0.387538374788E+03   -0.27790E-01   -0.27844E-01  8736   0.395E+00-0.750E-02
CGA:   9    -0.387559598033E+03   -0.21223E-01   -0.21402E-01  8736   0.932E-01 0.281E-02
CGA:  10    -0.387565662563E+03   -0.60645E-02   -0.60565E-02  8736   0.606E-01-0.790E-03
CGA:  11    -0.387568527449E+03   -0.28649E-02   -0.29101E-02  8736   0.606E-01 0.265E-03
CGA:  12    -0.387571657345E+03   -0.31299E-02   -0.31195E-02  8736   0.429E-01-0.130E-03
CGA:  13    -0.387573356824E+03   -0.16995E-02   -0.17134E-02  8736   0.836E-02-0.504E-04
CGA:  14    -0.387574127079E+03   -0.77025E-03   -0.76828E-03  8736   0.996E-02 0.585E-04
CGA:  15    -0.387574818970E+03   -0.69189E-03   -0.69192E-03  8736   0.664E-02-0.164E-04
CGA:  16    -0.387575218411E+03   -0.39944E-03   -0.40027E-03  8736   0.298E-02 0.496E-04
CGA:  17    -0.387575348278E+03   -0.12987E-03   -0.12970E-03  8736   0.320E-02-0.283E-05
CGA:  18    -0.387575646203E+03   -0.29793E-03   -0.29680E-03  8736   0.402E-02 0.322E-04
CGA:  19    -0.387575843121E+03   -0.19692E-03   -0.19755E-03  8736   0.153E-02 0.700E-05
CGA:  20    -0.387575989313E+03   -0.14619E-03   -0.14601E-03  8736   0.144E-02 0.469E-05
CGA:  21    -0.387576103519E+03   -0.11421E-03   -0.11413E-03  8736   0.148E-02 0.377E-05
CGA:  22    -0.387576203409E+03   -0.99890E-04   -0.99889E-04  8736   0.106E-02-0.193E-05
CGA:  23    -0.387576250625E+03   -0.47216E-04   -0.47295E-04  8736   0.854E-03-0.126E-07
CGA:  24    -0.387576291540E+03   -0.40915E-04   -0.40973E-04  8736   0.398E-03 0.992E-06
CGA:  25    -0.387576329478E+03   -0.37938E-04   -0.37949E-04  8736   0.569E-03-0.299E-06
CGA:  26    -0.387576364141E+03   -0.34663E-04   -0.34673E-04  8736   0.146E-03 0.110E-05
CGA:  27    -0.387576379034E+03   -0.14893E-04   -0.14901E-04  8736   0.268E-03-0.373E-06
CGA:  28    -0.387576397688E+03   -0.18654E-04   -0.18654E-04  8736   0.175E-03-0.114E-06
CGA:  29    -0.387576404582E+03   -0.68939E-05   -0.68906E-05  8736   0.118E-03-0.139E-06
  16 F= -.38757640E+03 E0= -.38756383E+03  d E =-.507970E-01  mag=    34.0000
       N       E                     dE             d eps       ncg     rms          ort
SDA:   1    -0.382178568979E+03    0.53978E+01    0.00000E+00  8736   0.161E+02 0.000E+00
CGA:   2    -0.383563701966E+03   -0.13851E+01   -0.15028E+01  8736   0.665E+02-0.336E+01
CGA:   3    -0.385756351194E+03   -0.21926E+01   -0.21459E+01  8736   0.297E+02 0.952E+00
CGA:   4    -0.386071796283E+03   -0.31545E+00   -0.86001E+00  8736   0.193E+02-0.896E+01
CGA:   5    -0.386501769875E+03   -0.42997E+00   -0.46625E+00  8736   0.106E+02-0.451E+00
CGA:   6    -0.386971517457E+03   -0.46975E+00   -0.30846E+00  8736   0.404E+01 0.377E+01
CGA:   7    -0.387184154622E+03   -0.21264E+00   -0.20238E+00  8736   0.571E+01 0.827E-01
CGA:   8    -0.387384174195E+03   -0.20002E+00   -0.19881E+00  8736   0.422E+01 0.141E-01
CGA:   9    -0.387443747254E+03   -0.59573E-01   -0.66206E-01  8736   0.132E+01-0.324E+00
CGA:  10    -0.387479845429E+03   -0.36098E-01   -0.38202E-01  8736   0.941E+00-0.220E-01
CGA:  11    -0.387502546220E+03   -0.22701E-01   -0.23914E-01  8736   0.549E+00-0.240E-01
CGA:  12    -0.387532774636E+03   -0.30228E-01   -0.30288E-01  8736   0.950E+00-0.134E-01
CGA:  13    -0.387564677369E+03   -0.31903E-01   -0.31848E-01  8736   0.274E+00 0.954E-03
CGA:  14    -0.387569923453E+03   -0.52461E-02   -0.59268E-02  8736   0.897E-01-0.201E-01
CGA:  15    -0.387579528813E+03   -0.96054E-02   -0.94535E-02  8736   0.156E+00 0.254E-02
CGA:  16    -0.387584575972E+03   -0.50472E-02   -0.49339E-02  8736   0.611E-01 0.134E-02
CGA:  17    -0.387588258786E+03   -0.36828E-02   -0.36897E-02  8736   0.463E-01-0.676E-03
CGA:  18    -0.387589774287E+03   -0.15155E-02   -0.15228E-02  8736   0.181E-01-0.312E-04
CGA:  19    -0.387591761642E+03   -0.19874E-02   -0.19637E-02  8736   0.231E-01 0.426E-03
CGA:  20    -0.387592577416E+03   -0.81577E-03   -0.81677E-03  8736   0.126E-01 0.394E-05
CGA:  21    -0.387593263030E+03   -0.68561E-03   -0.68560E-03  8736   0.741E-02-0.497E-04
CGA:  22    -0.387593609603E+03   -0.34657E-03   -0.34750E-03  8736   0.653E-02 0.474E-04
CGA:  23    -0.387594217109E+03   -0.60751E-03   -0.60618E-03  8736   0.426E-02 0.310E-04
CGA:  24    -0.387594435972E+03   -0.21886E-03   -0.21883E-03  8736   0.481E-02-0.195E-05
CGA:  25    -0.387594659972E+03   -0.22400E-03   -0.22411E-03  8736   0.230E-02 0.241E-05
CGA:  26    -0.387594829444E+03   -0.16947E-03   -0.16917E-03  8736   0.367E-02 0.123E-04
CGA:  27    -0.387595050154E+03   -0.22071E-03   -0.22071E-03  8736   0.145E-02-0.139E-05
CGA:  28    -0.387595165935E+03   -0.11578E-03   -0.11585E-03  8736   0.240E-02-0.273E-05
CGA:  29    -0.387595257353E+03   -0.91418E-04   -0.91528E-04  8736   0.109E-02 0.254E-06
CGA:  30    -0.387595364111E+03   -0.10676E-03   -0.10643E-03  8736   0.180E-02 0.772E-05
CGA:  31    -0.387595443856E+03   -0.79745E-04   -0.79727E-04  8736   0.626E-03 0.135E-05
SDA:  32    -0.387595496414E+03   -0.52558E-04   -0.52561E-04  8736   0.850E-03-0.102E-06
CGA:  33    -0.387595520485E+03   -0.24071E-04   -0.24139E-04  8736   0.412E-03-0.108E-05
CGA:  34    -0.387595554149E+03   -0.33663E-04   -0.33643E-04  8736   0.550E-03 0.631E-06
CGA:  35    -0.387595593994E+03   -0.39845E-04   -0.39868E-04  8736   0.524E-03-0.139E-05
CGA:  36    -0.387595621883E+03   -0.27889E-04   -0.27884E-04  8736   0.128E-03-0.628E-06
CGA:  37    -0.387595637784E+03   -0.15901E-04   -0.15849E-04  8736   0.117E-03 0.740E-06
CGA:  38    -0.387595649086E+03   -0.11302E-04   -0.11291E-04  8736   0.313E-03 0.329E-06
CGA:  39    -0.387595662930E+03   -0.13844E-04   -0.13848E-04  8736   0.921E-04 0.170E-06
CGA:  40    -0.387595678235E+03   -0.15305E-04   -0.15437E-04  8736   0.886E-04-0.128E-05
CGA:  41    -0.387595692182E+03   -0.13946E-04   -0.14134E-04  8736   0.680E-04-0.206E-05
CGA:  42    -0.387595695049E+03   -0.28673E-05   -0.28594E-05  8736   0.744E-04-0.231E-06
  17 F= -.38759570E+03 E0= -.38758322E+03  d E =-.192905E-01  mag=    34.0000
       N       E                     dE             d eps       ncg     rms          ort
SDA:   1    -0.382074692872E+03    0.55210E+01    0.00000E+00  8736   0.161E+02 0.000E+00
CGA:   2    -0.383810655736E+03   -0.17360E+01   -0.18707E+01  8736   0.719E+02-0.245E+01
CGA:   3    -0.385888064116E+03   -0.20774E+01   -0.20373E+01  8736   0.140E+02 0.126E+01
CGA:   4    -0.386264288996E+03   -0.37622E+00   -0.59977E+00  8736   0.140E+02-0.747E+00
CGA:   5    -0.386930252037E+03   -0.66596E+00   -0.68482E+00  8736   0.107E+02 0.120E+00
CGA:   6    -0.387197561824E+03   -0.26731E+00   -0.16299E+00  8736   0.405E+01 0.645E+01
CGA:   7    -0.387310195680E+03   -0.11263E+00   -0.10175E+00  8736   0.146E+01 0.325E+00
CGA:   8    -0.387399654447E+03   -0.89459E-01   -0.88491E-01  8736   0.215E+01-0.398E-01
CGA:   9    -0.387478333277E+03   -0.78679E-01   -0.83674E-01  8736   0.131E+01-0.129E-01
CGA:  10    -0.387534327365E+03   -0.55994E-01   -0.57186E-01  8736   0.395E+00 0.576E-02
CGA:  11    -0.387543394777E+03   -0.90674E-02   -0.84082E-02  8736   0.109E+00 0.227E-01
CGA:  12    -0.387555396699E+03   -0.12002E-01   -0.12152E-01  8736   0.332E+00-0.311E-02
CGA:  13    -0.387566000936E+03   -0.10604E-01   -0.10849E-01  8736   0.176E+00-0.268E-02
CGA:  14    -0.387571664074E+03   -0.56631E-02   -0.58314E-02  8736   0.108E+00-0.180E-02
CGA:  15    -0.387575580867E+03   -0.39168E-02   -0.39179E-02  8736   0.295E-01 0.297E-05
CGA:  16    -0.387576556810E+03   -0.97594E-03   -0.97951E-03  8736   0.284E-01-0.249E-04
CGA:  17    -0.387579277218E+03   -0.27204E-02   -0.27169E-02  8736   0.329E-01 0.628E-04
CGA:  18    -0.387580256933E+03   -0.97971E-03   -0.98424E-03  8736   0.134E-01-0.589E-04
CGA:  19    -0.387580840093E+03   -0.58316E-03   -0.58345E-03  8736   0.895E-02 0.951E-05
CGA:  20    -0.387581194639E+03   -0.35455E-03   -0.35330E-03  8736   0.569E-02-0.195E-05
CGA:  21    -0.387581683591E+03   -0.48895E-03   -0.48947E-03  8736   0.115E-01-0.166E-04
CGA:  22    -0.387582071824E+03   -0.38823E-03   -0.39123E-03  8736   0.506E-02-0.235E-04
CGA:  23    -0.387582397010E+03   -0.32519E-03   -0.32521E-03  8736   0.503E-02-0.348E-05
CGA:  24    -0.387582591286E+03   -0.19428E-03   -0.19351E-03  8736   0.446E-02-0.236E-05
CGA:  25    -0.387582929448E+03   -0.33816E-03   -0.33857E-03  8736   0.633E-02-0.180E-04
CGA:  26    -0.387583136953E+03   -0.20751E-03   -0.20950E-03  8736   0.169E-02-0.177E-04
CGA:  27    -0.387583222888E+03   -0.85935E-04   -0.85949E-04  8736   0.288E-02 0.289E-05
CGA:  28    -0.387583415180E+03   -0.19229E-03   -0.19225E-03  8736   0.144E-02 0.429E-05
CGA:  29    -0.387583467334E+03   -0.52154E-04   -0.52178E-04  8736   0.106E-02 0.175E-05
CGA:  30    -0.387583515439E+03   -0.48105E-04   -0.48099E-04  8736   0.602E-03 0.583E-06
CGA:  31    -0.387583541804E+03   -0.26366E-04   -0.26385E-04  8736   0.569E-03 0.703E-06
CGA:  32    -0.387583589784E+03   -0.47980E-04   -0.47955E-04  8736   0.704E-03 0.451E-06
CGA:  33    -0.387583610104E+03   -0.20320E-04   -0.20267E-04  8736   0.281E-03-0.292E-07
CGA:  34    -0.387583631541E+03   -0.21437E-04   -0.21452E-04  8736   0.319E-03-0.974E-06
CGA:  35    -0.387583647590E+03   -0.16049E-04   -0.16054E-04  8736   0.382E-03 0.499E-06
CGA:  36    -0.387583667624E+03   -0.20034E-04   -0.20036E-04  8736   0.206E-03 0.619E-06
SDA:  37    -0.387583675398E+03   -0.77736E-05   -0.77724E-05  8736   0.135E-03 0.899E-07
  18 F= -.38758368E+03 E0= -.38757125E+03  d E =0.120197E-01  mag=    34.0000
       N       E                     dE             d eps       ncg     rms          ort
SDA:   1    -0.383477208229E+03    0.41065E+01    0.00000E+00  8736   0.115E+02 0.000E+00
CGA:   2    -0.385492801729E+03   -0.20156E+01   -0.19821E+01  8736   0.311E+02 0.357E+00
CGA:   3    -0.386417078982E+03   -0.92428E+00   -0.87280E+00  8736   0.544E+01 0.459E+00
CGA:   4    -0.387126417636E+03   -0.70934E+00   -0.70608E+00  8736   0.628E+01 0.402E-01
CGA:   5    -0.387359681242E+03   -0.23326E+00   -0.25538E+00  8736   0.267E+01-0.643E-01
CGA:   6    -0.387456012226E+03   -0.96331E-01   -0.92963E-01  8736   0.841E+00 0.384E-01
CGA:   7    -0.387492427697E+03   -0.36415E-01   -0.36141E-01  8736   0.621E+00-0.983E-03
CGA:   8    -0.387547177886E+03   -0.54750E-01   -0.54516E-01  8736   0.172E+00 0.659E-02
CGA:   9    -0.387556989080E+03   -0.98112E-02   -0.97839E-02  8736   0.160E+00-0.307E-02
CGA:  10    -0.387562502580E+03   -0.55135E-02   -0.54391E-02  8736   0.673E-01 0.702E-03
CGA:  11    -0.387567088916E+03   -0.45863E-02   -0.45767E-02  8736   0.797E-01 0.685E-03
CGA:  12    -0.387571373537E+03   -0.42846E-02   -0.42853E-02  8736   0.135E-01 0.531E-04
CGA:  13    -0.387572368116E+03   -0.99458E-03   -0.99600E-03  8736   0.208E-01-0.607E-04
CGA:  14    -0.387573139473E+03   -0.77136E-03   -0.77252E-03  8736   0.984E-02 0.363E-06
CGA:  15    -0.387574130360E+03   -0.99089E-03   -0.99018E-03  8736   0.862E-02 0.142E-04
CGA:  16    -0.387574476823E+03   -0.34646E-03   -0.34861E-03  8736   0.330E-02 0.678E-05
CGA:  17    -0.387574859207E+03   -0.38238E-03   -0.38256E-03  8736   0.764E-02-0.171E-05
CGA:  18    -0.387575171068E+03   -0.31186E-03   -0.31172E-03  8736   0.525E-02 0.519E-05
CGA:  19    -0.387575541194E+03   -0.37013E-03   -0.37004E-03  8736   0.218E-02 0.720E-05
CGA:  20    -0.387575725503E+03   -0.18431E-03   -0.18451E-03  8736   0.281E-02-0.625E-05
CGA:  21    -0.387575874433E+03   -0.14893E-03   -0.14902E-03  8736   0.198E-02 0.279E-05
CGA:  22    -0.387575987371E+03   -0.11294E-03   -0.11295E-03  8736   0.253E-02 0.811E-06
CGA:  23    -0.387576108078E+03   -0.12071E-03   -0.12068E-03  8736   0.492E-03-0.288E-06
CGA:  24    -0.387576180219E+03   -0.72141E-04   -0.71960E-04  8736   0.832E-03 0.221E-05
CGA:  25    -0.387576214064E+03   -0.33845E-04   -0.33791E-04  8736   0.522E-03 0.985E-06
CGA:  26    -0.387576242830E+03   -0.28766E-04   -0.28776E-04  8736   0.429E-03 0.583E-06
CGA:  27    -0.387576262191E+03   -0.19360E-04   -0.19367E-04  8736   0.205E-03 0.201E-06
CGA:  28    -0.387576294811E+03   -0.32620E-04   -0.32656E-04  8736   0.174E-03-0.353E-06
CGA:  29    -0.387576303181E+03   -0.83700E-05   -0.83754E-05  8736   0.175E-03 0.773E-08
CGA:  30    -0.387576313620E+03   -0.10439E-04   -0.10439E-04  8736   0.160E-03-0.808E-07
CGA:  31    -0.387576322730E+03   -0.91101E-05   -0.91058E-05  8736   0.118E-03-0.403E-06
  19 F= -.38757632E+03 E0= -.38756390E+03  d E =0.735267E-02  mag=    34.0000
       N       E                     dE             d eps       ncg     rms          ort
SDA:   1    -0.383878281987E+03    0.36980E+01    0.00000E+00  8736   0.130E+02 0.000E+00
CGA:   2    -0.386138185841E+03   -0.22599E+01   -0.22581E+01  8736   0.687E+01 0.285E-01
CGA:   3    -0.386677401156E+03   -0.53922E+00   -0.53464E+00  8736   0.107E+02 0.423E+00
CGA:   4    -0.387303879800E+03   -0.62648E+00   -0.62536E+00  8736   0.551E+01 0.412E-01
CGA:   5    -0.387515234073E+03   -0.21135E+00   -0.18185E+00  8736   0.143E+01 0.504E+00
CGA:   6    -0.387599317347E+03   -0.84083E-01   -0.83725E-01  8736   0.626E+00-0.376E-02
CGA:   7    -0.387671586722E+03   -0.72269E-01   -0.72146E-01  8736   0.439E+00 0.230E-02
CGA:   8    -0.387686354335E+03   -0.14768E-01   -0.15229E-01  8736   0.123E+00-0.652E-02
CGA:   9    -0.387693975592E+03   -0.76213E-02   -0.76159E-02  8736   0.167E+00-0.333E-03
CGA:  10    -0.387701787382E+03   -0.78118E-02   -0.77042E-02  8736   0.581E-01-0.664E-04
CGA:  11    -0.387706486788E+03   -0.46994E-02   -0.46924E-02  8736   0.247E-01 0.362E-03
CGA:  12    -0.387707494037E+03   -0.10072E-02   -0.99322E-03  8736   0.137E-01 0.116E-03
CGA:  13    -0.387708710055E+03   -0.12160E-02   -0.12160E-02  8736   0.264E-01 0.747E-05
CGA:  14    -0.387709784571E+03   -0.10745E-02   -0.10750E-02  8736   0.374E-02 0.141E-04
CGA:  15    -0.387710148899E+03   -0.36433E-03   -0.36439E-03  8736   0.522E-02-0.115E-05
CGA:  16    -0.387710487232E+03   -0.33833E-03   -0.33836E-03  8736   0.602E-02 0.761E-05
CGA:  17    -0.387710832089E+03   -0.34486E-03   -0.34512E-03  8736   0.456E-02 0.123E-04
CGA:  18    -0.387711023728E+03   -0.19164E-03   -0.19078E-03  8736   0.158E-02 0.591E-05
CGA:  19    -0.387711194097E+03   -0.17037E-03   -0.17047E-03  8736   0.201E-02-0.195E-05
CGA:  20    -0.387711326451E+03   -0.13235E-03   -0.13235E-03  8736   0.255E-02-0.123E-05
CGA:  21    -0.387711432222E+03   -0.10577E-03   -0.10595E-03  8736   0.666E-03-0.929E-06
CGA:  22    -0.387711470587E+03   -0.38366E-04   -0.38385E-04  8736   0.638E-03 0.183E-05
CGA:  23    -0.387711530527E+03   -0.59940E-04   -0.59900E-04  8736   0.435E-03 0.154E-05
CGA:  24    -0.387711551858E+03   -0.21332E-04   -0.21345E-04  8736   0.493E-03 0.618E-06
CGA:  25    -0.387711582434E+03   -0.30575E-04   -0.30576E-04  8736   0.174E-03 0.313E-06
CGA:  26    -0.387711596137E+03   -0.13704E-04   -0.13718E-04  8736   0.274E-03-0.925E-06
CGA:  27    -0.387711618174E+03   -0.22037E-04   -0.22053E-04  8736   0.192E-03-0.121E-05
CGA:  28    -0.387711624914E+03   -0.67398E-05   -0.67301E-05  8736   0.113E-03-0.369E-06
CGA:  29    -0.387711636725E+03   -0.11812E-04   -0.11831E-04  8736   0.110E-03-0.494E-06
CGA:  30    -0.387711645005E+03   -0.82799E-05   -0.82804E-05  8736   0.124E-03-0.703E-07
  20 F= -.38771165E+03 E0= -.38769949E+03  d E =-.135322E+00  mag=    34.0000
       N       E                     dE             d eps       ncg     rms          ort
SDA:   1    -0.385341227841E+03    0.23704E+01    0.00000E+00  8736   0.676E+01 0.000E+00
CGA:   2    -0.386912930142E+03   -0.15717E+01   -0.15715E+01  8736   0.419E+01 0.211E-02
CGA:   3    -0.387204154937E+03   -0.29122E+00   -0.29107E+00  8736   0.852E+01-0.702E-02
CGA:   4    -0.387610013544E+03   -0.40586E+00   -0.41090E+00  8736   0.123E+01-0.123E-01
CGA:   5    -0.387678792281E+03   -0.68779E-01   -0.68839E-01  8736   0.575E+00 0.109E-02
CGA:   6    -0.387715019957E+03   -0.36228E-01   -0.35295E-01  8736   0.491E+00-0.247E-01
CGA:   7    -0.387744541996E+03   -0.29522E-01   -0.29623E-01  8736   0.196E+00 0.382E-02
CGA:   8    -0.387749946994E+03   -0.54050E-02   -0.55040E-02  8736   0.700E-01-0.236E-02
CGA:   9    -0.387756724030E+03   -0.67770E-02   -0.67905E-02  8736   0.418E-01-0.368E-03
CGA:  10    -0.387759582281E+03   -0.28583E-02   -0.28575E-02  8736   0.528E-01-0.128E-03
CGA:  11    -0.387761442597E+03   -0.18603E-02   -0.18574E-02  8736   0.773E-02 0.516E-04
CGA:  12    -0.387761950149E+03   -0.50755E-03   -0.50761E-03  8736   0.112E-01 0.952E-05
CGA:  13    -0.387762867531E+03   -0.91738E-03   -0.91734E-03  8736   0.491E-02 0.293E-05
CGA:  14    -0.387763042997E+03   -0.17547E-03   -0.17533E-03  8736   0.270E-02 0.458E-05
CGA:  15    -0.387763207251E+03   -0.16425E-03   -0.16437E-03  8736   0.203E-02 0.800E-05
CGA:  16    -0.387763530083E+03   -0.32283E-03   -0.32282E-03  8736   0.324E-02 0.168E-06
CGA:  17    -0.387763621758E+03   -0.91675E-04   -0.91609E-04  8736   0.912E-03 0.391E-05
CGA:  18    -0.387763729462E+03   -0.10770E-03   -0.10760E-03  8736   0.136E-02 0.225E-05
CGA:  19    -0.387763807348E+03   -0.77886E-04   -0.77998E-04  8736   0.131E-02 0.278E-05
CGA:  20    -0.387763894512E+03   -0.87165E-04   -0.87158E-04  8736   0.790E-03-0.690E-06
CGA:  21    -0.387763921431E+03   -0.26919E-04   -0.26902E-04  8736   0.339E-03 0.365E-06
CGA:  22    -0.387763967117E+03   -0.45685E-04   -0.45599E-04  8736   0.397E-03 0.127E-05
CGA:  23    -0.387763987069E+03   -0.19953E-04   -0.19955E-04  8736   0.371E-03 0.280E-06
CGA:  24    -0.387764004566E+03   -0.17496E-04   -0.17493E-04  8736   0.119E-03-0.213E-08
CGA:  25    -0.387764018631E+03   -0.14065E-04   -0.14067E-04  8736   0.233E-03-0.185E-07
CGA:  26    -0.387764029058E+03   -0.10428E-04   -0.10429E-04  8736   0.123E-03-0.977E-07
CGA:  27    -0.387764036755E+03   -0.76967E-05   -0.76960E-05  8736   0.105E-03-0.100E-06
  21 F= -.38776404E+03 E0= -.38775197E+03  d E =-.523917E-01  mag=    34.0000
       N       E                     dE             d eps       ncg     rms          ort
SDA:   1    -0.386199089942E+03    0.15649E+01    0.00000E+00  8736   0.460E+01 0.000E+00
CGA:   2    -0.386861318079E+03   -0.66223E+00   -0.70754E+00  8736   0.181E+02-0.542E+00
CGA:   3    -0.387299822288E+03   -0.43850E+00   -0.48137E+00  8736   0.318E+01-0.110E+01
CGA:   4    -0.387510664409E+03   -0.21084E+00   -0.21137E+00  8736   0.253E+01 0.208E+00
CGA:   5    -0.387693853081E+03   -0.18319E+00   -0.17920E+00  8736   0.138E+01-0.311E+00
CGA:   6    -0.387749806937E+03   -0.55954E-01   -0.56971E-01  8736   0.328E+00-0.802E-03
CGA:   7    -0.387761322607E+03   -0.11516E-01   -0.11805E-01  8736   0.266E+00-0.351E-02
CGA:   8    -0.387783727994E+03   -0.22405E-01   -0.22410E-01  8736   0.921E-01-0.186E-03
CGA:   9    -0.387790293415E+03   -0.65654E-02   -0.65617E-02  8736   0.447E-01 0.108E-02
CGA:  10    -0.387791716609E+03   -0.14232E-02   -0.14010E-02  8736   0.250E-01 0.444E-03
CGA:  11    -0.387794739894E+03   -0.30233E-02   -0.30233E-02  8736   0.144E-01 0.608E-05
CGA:  12    -0.387795496673E+03   -0.75678E-03   -0.75905E-03  8736   0.793E-02 0.292E-04
CGA:  13    -0.387795810939E+03   -0.31427E-03   -0.31432E-03  8736   0.425E-02 0.307E-05
CGA:  14    -0.387796126246E+03   -0.31531E-03   -0.31537E-03  8736   0.575E-02-0.534E-05
CGA:  15    -0.387796453760E+03   -0.32751E-03   -0.32746E-03  8736   0.185E-02-0.324E-06
CGA:  16    -0.387796581739E+03   -0.12798E-03   -0.12797E-03  8736   0.138E-02 0.405E-05
CGA:  17    -0.387796645396E+03   -0.63657E-04   -0.63725E-04  8736   0.160E-02 0.149E-05
CGA:  18    -0.387796873679E+03   -0.22828E-03   -0.22783E-03  8736   0.544E-03 0.617E-05
CGA:  19    -0.387796907467E+03   -0.33788E-04   -0.33779E-04  8736   0.100E-02-0.508E-06
CGA:  20    -0.387796994598E+03   -0.87131E-04   -0.87151E-04  8736   0.757E-03-0.130E-05
CGA:  21    -0.387797031021E+03   -0.36423E-04   -0.36439E-04  8736   0.399E-03-0.112E-06
CGA:  22    -0.387797056919E+03   -0.25898E-04   -0.25904E-04  8736   0.272E-03 0.771E-06
CGA:  23    -0.387797075379E+03   -0.18460E-04   -0.18460E-04  8736   0.406E-03 0.521E-06
CGA:  24    -0.387797095185E+03   -0.19806E-04   -0.19829E-04  8736   0.132E-03 0.813E-06
CGA:  25    -0.387797107945E+03   -0.12760E-04   -0.12740E-04  8736   0.104E-03 0.579E-06
CGA:  26    -0.387797113773E+03   -0.58278E-05   -0.58257E-05  8736   0.147E-03-0.162E-06
  22 F= -.38779711E+03 E0= -.38778509E+03  d E =-.330770E-01  mag=    34.0000
       N       E                     dE             d eps       ncg     rms          ort
SDA:   1    -0.384563653713E+03    0.32335E+01    0.00000E+00  8736   0.134E+02 0.000E+00
CGA:   2    -0.386574425252E+03   -0.20108E+01   -0.19959E+01  8736   0.445E+01 0.207E+00
CGA:   3    -0.386947684399E+03   -0.37326E+00   -0.44304E+00  8736   0.189E+02-0.204E+01
CGA:   4    -0.387222662011E+03   -0.27498E+00   -0.27690E+00  8736   0.280E+02 0.597E-01
CGA:   5    -0.387547212131E+03   -0.32455E+00   -0.56008E+00  8736   0.422E+01-0.958E+01
CGA:   6    -0.387610967235E+03   -0.63755E-01   -0.59019E-01  8736   0.158E+01 0.205E+00
CGA:   7    -0.387683407685E+03   -0.72440E-01   -0.68659E-01  8736   0.244E+01 0.206E-01
CGA:   8    -0.387765338666E+03   -0.81931E-01   -0.81130E-01  8736   0.142E+01 0.148E-01
CGA:   9    -0.387798824674E+03   -0.33486E-01   -0.34318E-01  8736   0.108E+01-0.221E-01
CGA:  10    -0.387831969085E+03   -0.33144E-01   -0.34576E-01  8736   0.465E+00-0.193E-01
CGA:  11    -0.387842146075E+03   -0.10177E-01   -0.10467E-01  8736   0.276E+00-0.812E-02
CGA:  12    -0.387859532694E+03   -0.17387E-01   -0.17391E-01  8736   0.528E+00-0.466E-03
CGA:  13    -0.387876077228E+03   -0.16545E-01   -0.16245E-01  8736   0.304E+00 0.476E-02
CGA:  14    -0.387885488811E+03   -0.94116E-02   -0.90841E-02  8736   0.150E+00 0.535E-02
CGA:  15    -0.387890177715E+03   -0.46889E-02   -0.47063E-02  8736   0.130E+00-0.157E-03
CGA:  16    -0.387894710687E+03   -0.45330E-02   -0.45973E-02  8736   0.859E-01-0.136E-03
CGA:  17    -0.387897786181E+03   -0.30755E-02   -0.30966E-02  8736   0.105E+00 0.221E-04
CGA:  18    -0.387903513576E+03   -0.57274E-02   -0.57267E-02  8736   0.698E-01 0.186E-03
CGA:  19    -0.387905021545E+03   -0.15080E-02   -0.14948E-02  8736   0.291E-01 0.421E-03
CGA:  20    -0.387906676756E+03   -0.16552E-02   -0.16531E-02  8736   0.313E-01 0.243E-03
CGA:  21    -0.387907406795E+03   -0.73004E-03   -0.72833E-03  8736   0.121E-01 0.437E-04
CGA:  22    -0.387908387510E+03   -0.98071E-03   -0.97645E-03  8736   0.321E-01 0.120E-03
CGA:  23    -0.387909425656E+03   -0.10381E-02   -0.10433E-02  8736   0.103E-01-0.364E-04
CGA:  24    -0.387909739218E+03   -0.31356E-03   -0.30988E-03  8736   0.558E-02 0.313E-04
CGA:  25    -0.387909951806E+03   -0.21259E-03   -0.21234E-03  8736   0.532E-02-0.809E-05
CGA:  26    -0.387910211597E+03   -0.25979E-03   -0.25980E-03  8736   0.468E-02 0.103E-04
CGA:  27    -0.387910386792E+03   -0.17519E-03   -0.17524E-03  8736   0.520E-02-0.244E-05
CGA:  28    -0.387910664765E+03   -0.27797E-03   -0.27807E-03  8736   0.261E-02-0.162E-04
CGA:  29    -0.387910719654E+03   -0.54889E-04   -0.54873E-04  8736   0.987E-03-0.136E-05
CGA:  30    -0.387910806016E+03   -0.86362E-04   -0.86224E-04  8736   0.231E-02 0.267E-05
CGA:  31    -0.387910878889E+03   -0.72873E-04   -0.72998E-04  8736   0.135E-02 0.803E-06
SDA:  32    -0.387910955712E+03   -0.76823E-04   -0.76833E-04  8736   0.123E-02-0.710E-06
CGA:  33    -0.387910983238E+03   -0.27526E-04   -0.27490E-04  8736   0.310E-03 0.515E-06
CGA:  34    -0.387911020688E+03   -0.37450E-04   -0.37561E-04  8736   0.548E-03-0.169E-05
CGA:  35    -0.387911055269E+03   -0.34581E-04   -0.34561E-04  8736   0.323E-03 0.908E-06
CGA:  36    -0.387911080595E+03   -0.25326E-04   -0.25307E-04  8736   0.959E-04 0.548E-06
CGA:  37    -0.387911094298E+03   -0.13703E-04   -0.13575E-04  8736   0.996E-04 0.136E-05
CGA:  38    -0.387911103944E+03   -0.96452E-05   -0.95992E-05  8736   0.146E-03 0.118E-05
  23 F= -.38791110E+03 E0= -.38789932E+03  d E =-.113990E+00  mag=    34.0000
       N       E                     dE             d eps       ncg     rms          ort
SDA:   1    -0.386628433847E+03    0.12827E+01    0.00000E+00  8736   0.448E+01 0.000E+00
CGA:   2    -0.387357802023E+03   -0.72937E+00   -0.71754E+00  8736   0.430E+01 0.127E+00
CGA:   3    -0.387523076865E+03   -0.16527E+00   -0.16051E+00  8736   0.273E+01 0.758E-01
CGA:   4    -0.387665315525E+03   -0.14224E+00   -0.13353E+00  8736   0.379E+01-0.130E+00
CGA:   5    -0.387864020889E+03   -0.19871E+00   -0.19877E+00  8736   0.208E+01 0.673E-02
CGA:   6    -0.387905008504E+03   -0.40988E-01   -0.43572E-01  8736   0.291E+00-0.981E-01
CGA:   7    -0.387929243238E+03   -0.24235E-01   -0.24219E-01  8736   0.340E+00 0.359E-03
CGA:   8    -0.387944829450E+03   -0.15586E-01   -0.15591E-01  8736   0.203E+00 0.125E-03
CGA:   9    -0.387951279384E+03   -0.64499E-02   -0.65508E-02  8736   0.549E-01-0.134E-02
CGA:  10    -0.387954341934E+03   -0.30626E-02   -0.30566E-02  8736   0.295E-01-0.119E-02
CGA:  11    -0.387957038817E+03   -0.26969E-02   -0.26906E-02  8736   0.360E-01 0.154E-03
CGA:  12    -0.387958144785E+03   -0.11060E-02   -0.11112E-02  8736   0.122E-01-0.685E-04
CGA:  13    -0.387958855525E+03   -0.71074E-03   -0.71071E-03  8736   0.636E-02-0.488E-04
CGA:  14    -0.387959275612E+03   -0.42009E-03   -0.41971E-03  8736   0.426E-02 0.317E-04
CGA:  15    -0.387959636731E+03   -0.36112E-03   -0.36049E-03  8736   0.537E-02 0.207E-04
CGA:  16    -0.387959809219E+03   -0.17249E-03   -0.17252E-03  8736   0.178E-02 0.281E-05
CGA:  17    -0.387959945626E+03   -0.13641E-03   -0.13622E-03  8736   0.132E-02 0.805E-05
CGA:  18    -0.387960047463E+03   -0.10184E-03   -0.10187E-03  8736   0.131E-02-0.118E-05
CGA:  19    -0.387960175240E+03   -0.12778E-03   -0.12756E-03  8736   0.168E-02 0.572E-05
[...]
CGA:  17    -0.388329831384E+03   -0.33708E-02   -0.33701E-02  8736   0.280E-01 0.771E-04
CGA:  18    -0.388330676952E+03   -0.84557E-03   -0.85736E-03  8736   0.155E-01-0.689E-04
CGA:  19    -0.388332646875E+03   -0.19699E-02   -0.19334E-02  8736   0.196E-01 0.500E-03
CGA:  20    -0.388333525120E+03   -0.87824E-03   -0.88170E-03  8736   0.103E-01 0.109E-03
CGA:  21    -0.388334199323E+03   -0.67420E-03   -0.67281E-03  8736   0.396E-02 0.735E-04
CGA:  22    -0.388334520657E+03   -0.32133E-03   -0.32085E-03  8736   0.722E-02 0.171E-04
CGA:  23    -0.388334901254E+03   -0.38060E-03   -0.38084E-03  8736   0.445E-02 0.637E-04
CGA:  24    -0.388335174162E+03   -0.27291E-03   -0.27293E-03  8736   0.187E-02-0.154E-05
CGA:  25    -0.388335289286E+03   -0.11512E-03   -0.11513E-03  8736   0.202E-02-0.139E-05
CGA:  26    -0.388335455593E+03   -0.16631E-03   -0.16617E-03  8736   0.800E-03 0.287E-05
CGA:  27    -0.388335526998E+03   -0.71405E-04   -0.71402E-04  8736   0.628E-03-0.430E-06
CGA:  28    -0.388335565598E+03   -0.38601E-04   -0.38599E-04  8736   0.832E-03 0.348E-06
CGA:  29    -0.388335632821E+03   -0.67222E-04   -0.67159E-04  8736   0.553E-03 0.258E-05
CGA:  30    -0.388335651210E+03   -0.18389E-04   -0.18419E-04  8736   0.223E-03-0.154E-06
CGA:  31    -0.388335679890E+03   -0.28680E-04   -0.28717E-04  8736   0.326E-03-0.686E-06
SDA:  32    -0.388335708678E+03   -0.28788E-04   -0.28772E-04  8736   0.166E-03 0.373E-06
CGA:  33    -0.388335716040E+03   -0.73625E-05   -0.73759E-05  8736   0.111E-03 0.480E-06
CGA:  34    -0.388335728421E+03   -0.12381E-04   -0.12308E-04  8736   0.947E-04 0.140E-05
CGA:  35    -0.388335736050E+03   -0.76284E-05   -0.76233E-05  8736   0.126E-03 0.253E-06
 289 F= -.38833574E+03 E0= -.38832318E+03  d E =-.228901E+00  mag=    34.0000
       N       E                     dE             d eps       ncg     rms          ort
SDA:   1    -0.385579498678E+03    0.27562E+01    0.00000E+00  8736   0.129E+02 0.000E+00
CGA:   2    -0.386348448665E+03   -0.76895E+00   -0.76390E+00  8736   0.164E+02-0.491E+00
CGA:   3    -0.387252207799E+03   -0.90376E+00   -0.90192E+00  8736   0.763E+01-0.116E+00
CGA:   4    -0.387705539006E+03   -0.45333E+00   -0.44716E+00  8736   0.523E+01-0.547E+00
CGA:   5    -0.387935329027E+03   -0.22979E+00   -0.22328E+00  8736   0.403E+01-0.434E-01
CGA:   6    -0.388206762328E+03   -0.27143E+00   -0.27159E+00  8736   0.274E+01-0.154E-01
CGA:   7    -0.388280352918E+03   -0.73591E-01   -0.83256E-01  8736   0.592E+00-0.180E+00
CGA:   8    -0.388314324895E+03   -0.33972E-01   -0.33990E-01  8736   0.262E+00-0.213E-01
CGA:   9    -0.388343206862E+03   -0.28882E-01   -0.28561E-01  8736   0.139E+00 0.586E-02
CGA:  10    -0.388347397797E+03   -0.41909E-02   -0.42258E-02  8736   0.706E-01-0.609E-03
CGA:  11    -0.388352362536E+03   -0.49647E-02   -0.49646E-02  8736   0.374E-01 0.157E-04
CGA:  12    -0.388356026332E+03   -0.36638E-02   -0.36402E-02  8736   0.311E-01 0.573E-03
CGA:  13    -0.388357161743E+03   -0.11354E-02   -0.11424E-02  8736   0.121E-01-0.589E-04
CGA:  14    -0.388357868907E+03   -0.70716E-03   -0.70723E-03  8736   0.109E-01 0.124E-04
CGA:  15    -0.388358481097E+03   -0.61219E-03   -0.61292E-03  8736   0.892E-02 0.551E-04
CGA:  16    -0.388359017750E+03   -0.53665E-03   -0.53684E-03  8736   0.265E-02 0.393E-04
CGA:  17    -0.388359268099E+03   -0.25035E-03   -0.25011E-03  8736   0.388E-02 0.624E-05
CGA:  18    -0.388359421765E+03   -0.15367E-03   -0.15387E-03  8736   0.224E-02-0.803E-06
CGA:  19    -0.388359649341E+03   -0.22758E-03   -0.22706E-03  8736   0.180E-02 0.119E-04
CGA:  20    -0.388359736419E+03   -0.87078E-04   -0.87217E-04  8736   0.115E-02 0.217E-05
CGA:  21    -0.388359828104E+03   -0.91685E-04   -0.91687E-04  8736   0.103E-02-0.348E-06
CGA:  22    -0.388359886530E+03   -0.58426E-04   -0.58440E-04  8736   0.113E-02 0.754E-06
CGA:  23    -0.388359946810E+03   -0.60280E-04   -0.60325E-04  8736   0.402E-03 0.154E-05
CGA:  24    -0.388359979823E+03   -0.33014E-04   -0.33010E-04  8736   0.300E-03 0.121E-06
CGA:  25    -0.388360000540E+03   -0.20717E-04   -0.20714E-04  8736   0.434E-03 0.517E-06
CGA:  26    -0.388360025199E+03   -0.24659E-04   -0.24666E-04  8736   0.193E-03 0.523E-06
CGA:  27    -0.388360034704E+03   -0.95049E-05   -0.95063E-05  8736   0.156E-03-0.434E-07
CGA:  28    -0.388360048588E+03   -0.13884E-04   -0.13882E-04  8736   0.118E-03 0.288E-07
CGA:  29    -0.388360059676E+03   -0.11087E-04   -0.11076E-04  8736   0.147E-03 0.318E-06
CGA:  30    -0.388360064872E+03   -0.51963E-05   -0.52031E-05  8736   0.629E-04 0.125E-06
 290 F= -.38836006E+03 E0= -.38834697E+03  d E =-.243288E-01  mag=    34.0000
       N       E                     dE             d eps       ncg     rms          ort
SDA:   1    -0.388273491795E+03    0.86568E-01    0.00000E+00  8736   0.679E+00 0.000E+00
CGA:   2    -0.388295063510E+03   -0.21572E-01   -0.22976E-01  8736   0.393E+00-0.218E-01
CGA:   3    -0.388325999039E+03   -0.30936E-01   -0.30994E-01  8736   0.376E+00-0.258E-02
CGA:   4    -0.388339637514E+03   -0.13638E-01   -0.13645E-01  8736   0.126E+00 0.131E-03
CGA:   5    -0.388349960933E+03   -0.10323E-01   -0.10313E-01  8736   0.114E+00 0.437E-03
CGA:   6    -0.388359936345E+03   -0.99754E-02   -0.99797E-02  8736   0.461E-01-0.141E-03
CGA:   7    -0.388361270003E+03   -0.13337E-02   -0.13305E-02  8736   0.136E-01 0.792E-04
CGA:   8    -0.388362190102E+03   -0.92010E-03   -0.91984E-03  8736   0.126E-01 0.552E-04
CGA:   9    -0.388362821373E+03   -0.63127E-03   -0.62950E-03  8736   0.544E-02-0.190E-04
CGA:  10    -0.388363149982E+03   -0.32861E-03   -0.32860E-03  8736   0.133E-02-0.156E-05
CGA:  11    -0.388363233893E+03   -0.83911E-04   -0.83909E-04  8736   0.203E-02-0.532E-06
CGA:  12    -0.388363360410E+03   -0.12652E-03   -0.12652E-03  8736   0.873E-03 0.107E-05
CGA:  13    -0.388363397959E+03   -0.37548E-04   -0.37516E-04  8736   0.378E-03-0.661E-07
CGA:  14    -0.388363422718E+03   -0.24759E-04   -0.24760E-04  8736   0.240E-03-0.212E-06
CGA:  15    -0.388363442532E+03   -0.19815E-04   -0.19805E-04  8736   0.260E-03 0.377E-06
CGA:  16    -0.388363452880E+03   -0.10347E-04   -0.10361E-04  8736   0.133E-03 0.335E-06
CGA:  17    -0.388363461894E+03   -0.90140E-05   -0.90121E-05  8736   0.639E-04 0.433E-06
 291 F= -.38836346E+03 E0= -.38835045E+03  d E =-.339702E-02  mag=    34.0000
       N       E                     dE             d eps       ncg     rms          ort
SDA:   1    -0.388285813696E+03    0.77639E-01    0.00000E+00  8736   0.551E+00 0.000E+00
CGA:   2    -0.388303870713E+03   -0.18057E-01   -0.19142E-01  8736   0.334E+00-0.126E-01
CGA:   3    -0.388333295616E+03   -0.29425E-01   -0.29383E-01  8736   0.325E+00 0.119E-02
CGA:   4    -0.388343963387E+03   -0.10668E-01   -0.10614E-01  8736   0.926E-01 0.884E-03
CGA:   5    -0.388356634661E+03   -0.12671E-01   -0.12607E-01  8736   0.891E-01 0.911E-03
CGA:   6    -0.388361385550E+03   -0.47509E-02   -0.47439E-02  8736   0.372E-01-0.136E-03
CGA:   7    -0.388362659884E+03   -0.12743E-02   -0.12761E-02  8736   0.117E-01-0.153E-04
CGA:   8    -0.388363337613E+03   -0.67773E-03   -0.67825E-03  8736   0.107E-01 0.428E-04
CGA:   9    -0.388363944762E+03   -0.60715E-03   -0.60679E-03  8736   0.437E-02-0.190E-04
CGA:  10    -0.388364191952E+03   -0.24719E-03   -0.24713E-03  8736   0.121E-02-0.462E-05
CGA:  11    -0.388364265793E+03   -0.73841E-04   -0.73838E-04  8736   0.176E-02-0.179E-05
CGA:  12    -0.388364378353E+03   -0.11256E-03   -0.11256E-03  8736   0.745E-03-0.238E-05
CGA:  13    -0.388364409381E+03   -0.31028E-04   -0.31041E-04  8736   0.345E-03-0.384E-06
CGA:  14    -0.388364433560E+03   -0.24179E-04   -0.24185E-04  8736   0.179E-03-0.600E-06
CGA:  15    -0.388364449931E+03   -0.16371E-04   -0.16364E-04  8736   0.335E-03 0.106E-06
CGA:  16    -0.388364463697E+03   -0.13766E-04   -0.13769E-04  8736   0.741E-04 0.168E-06
CGA:  17    -0.388364468308E+03   -0.46111E-05   -0.46108E-05  8736   0.780E-04 0.253E-06
 292 F= -.38836447E+03 E0= -.38835149E+03  d E =-.100641E-02  mag=    34.0000
       N       E                     dE             d eps       ncg     rms          ort
SDA:   1    -0.388345147942E+03    0.19316E-01    0.00000E+00  8736   0.230E+00 0.000E+00
CGA:   2    -0.388350660170E+03   -0.55122E-02   -0.57298E-02  8736   0.602E-01-0.608E-02
CGA:   3    -0.388355704818E+03   -0.50446E-02   -0.50662E-02  8736   0.871E-01-0.683E-03
CGA:   4    -0.388359952040E+03   -0.42472E-02   -0.42417E-02  8736   0.364E-01-0.859E-04
CGA:   5    -0.388362006888E+03   -0.20548E-02   -0.20555E-02  8736   0.163E-01 0.461E-04
CGA:   6    -0.388363521921E+03   -0.15150E-02   -0.15180E-02  8736   0.188E-01-0.782E-04
CGA:   7    -0.388364073821E+03   -0.55190E-03   -0.55108E-03  8736   0.371E-02 0.173E-04
CGA:   8    -0.388364334051E+03   -0.26023E-03   -0.26024E-03  8736   0.161E-02 0.811E-07
CGA:   9    -0.388364423635E+03   -0.89584E-04   -0.89547E-04  8736   0.136E-02-0.183E-05
CGA:  10    -0.388364507613E+03   -0.83978E-04   -0.83978E-04  8736   0.612E-03-0.648E-06
CGA:  11    -0.388364533864E+03   -0.26251E-04   -0.26255E-04  8736   0.430E-03-0.201E-06
CGA:  12    -0.388364556737E+03   -0.22874E-04   -0.22874E-04  8736   0.117E-03-0.440E-06
CGA:  13    -0.388364569730E+03   -0.12992E-04   -0.13061E-04  8736   0.170E-03-0.132E-05
CGA:  14    -0.388364577598E+03   -0.78687E-05   -0.78531E-05  8736   0.967E-04-0.905E-06
 293 F= -.38836458E+03 E0= -.38835160E+03  d E =-.109291E-03  mag=    34.0000
       N       E                     dE             d eps       ncg     rms          ort
SDA:   1    -0.388330427905E+03    0.34142E-01    0.00000E+00  8736   0.165E+00 0.000E+00
CGA:   2    -0.388337083284E+03   -0.66554E-02   -0.66674E-02  8736   0.164E+00-0.698E-05
CGA:   3    -0.388351316722E+03   -0.14233E-01   -0.14205E-01  8736   0.123E+00 0.860E-03
CGA:   4    -0.388357375633E+03   -0.60589E-02   -0.60428E-02  8736   0.568E-01-0.283E-03
CGA:   5    -0.388360532536E+03   -0.31569E-02   -0.31505E-02  8736   0.351E-01-0.499E-03
CGA:   6    -0.388363467976E+03   -0.29354E-02   -0.29388E-02  8736   0.109E-01-0.114E-03
CGA:   7    -0.388364009752E+03   -0.54178E-03   -0.54143E-03  8736   0.859E-02-0.853E-05
CGA:   8    -0.388364313243E+03   -0.30349E-03   -0.30452E-03  8736   0.205E-02-0.906E-05
CGA:   9    -0.388364602385E+03   -0.28914E-03   -0.28901E-03  8736   0.997E-03 0.174E-05
CGA:  10    -0.388364652620E+03   -0.50234E-04   -0.50235E-04  8736   0.695E-03-0.444E-08
CGA:  11    -0.388364681045E+03   -0.28426E-04   -0.28400E-04  8736   0.368E-03-0.644E-06
CGA:  12    -0.388364713037E+03   -0.31992E-04   -0.32020E-04  8736   0.288E-03-0.115E-05
CGA:  13    -0.388364726570E+03   -0.13533E-04   -0.13525E-04  8736   0.149E-03-0.802E-06
CGA:  14    -0.388364735452E+03   -0.88823E-05   -0.88793E-05  8736   0.598E-04-0.103E-05
 294 F= -.38836474E+03 E0= -.38835169E+03  d E =-.157854E-03  mag=    34.0000
       N       E                     dE             d eps       ncg     rms          ort
SDA:   1    -0.388325736670E+03    0.38990E-01    0.00000E+00  8736   0.528E+00 0.000E+00
CGA:   2    -0.388336569196E+03   -0.10833E-01   -0.10630E-01  8736   0.878E-01 0.760E-02
CGA:   3    -0.388352436575E+03   -0.15867E-01   -0.15933E-01  8736   0.144E+00-0.645E-03
CGA:   4    -0.388357317130E+03   -0.48806E-02   -0.49797E-02  8736   0.409E-01-0.126E-02
CGA:   5    -0.388361125534E+03   -0.38084E-02   -0.38296E-02  8736   0.493E-01-0.591E-03
CGA:   6    -0.388363020516E+03   -0.18950E-02   -0.18957E-02  8736   0.232E-01-0.121E-04
CGA:   7    -0.388363861473E+03   -0.84096E-03   -0.84666E-03  8736   0.358E-02-0.590E-04
CGA:   8    -0.388364277163E+03   -0.41569E-03   -0.41529E-03  8736   0.262E-02 0.759E-05
CGA:   9    -0.388364410656E+03   -0.13349E-03   -0.13354E-03  8736   0.236E-02 0.170E-05
CGA:  10    -0.388364515177E+03   -0.10452E-03   -0.10469E-03  8736   0.674E-03 0.107E-05
CGA:  11    -0.388364543759E+03   -0.28582E-04   -0.28540E-04  8736   0.460E-03 0.214E-06
CGA:  12    -0.388364584399E+03   -0.40640E-04   -0.40660E-04  8736   0.205E-03-0.774E-06
CGA:  13    -0.388364604297E+03   -0.19898E-04   -0.19915E-04  8736   0.146E-03-0.552E-06
CGA:  14    -0.388364609407E+03   -0.51096E-05   -0.50985E-05  8736   0.732E-04-0.231E-06
 295 F= -.38836461E+03 E0= -.38835152E+03  d E =0.126045E-03  mag=    34.0000
       N       E                     dE             d eps       ncg     rms          ort
SDA:   1    -0.387847276766E+03    0.51733E+00    0.00000E+00  8736   0.186E+01 0.000E+00
CGA:   2    -0.387958529246E+03   -0.11125E+00   -0.11178E+00  8736   0.314E+01 0.552E-01
CGA:   3    -0.388200007586E+03   -0.24148E+00   -0.24145E+00  8736   0.153E+01 0.166E-02
CGA:   4    -0.388254297238E+03   -0.54290E-01   -0.52145E-01  8736   0.629E+00 0.294E-01
CGA:   5    -0.388341691602E+03   -0.87394E-01   -0.87636E-01  8736   0.176E+00-0.378E-02
CGA:   6    -0.388350116459E+03   -0.84249E-02   -0.84029E-02  8736   0.103E+00-0.726E-04
CGA:   7    -0.388356362732E+03   -0.62463E-02   -0.62537E-02  8736   0.579E-01 0.616E-03
CGA:   8    -0.388360270197E+03   -0.39075E-02   -0.39081E-02  8736   0.465E-01-0.210E-03
CGA:   9    -0.388361706072E+03   -0.14359E-02   -0.14437E-02  8736   0.118E-01-0.133E-03
CGA:  10    -0.388362454429E+03   -0.74836E-03   -0.74837E-03  8736   0.766E-02 0.347E-04
CGA:  11    -0.388363076533E+03   -0.62210E-03   -0.62226E-03  8736   0.700E-02-0.491E-05
CGA:  12    -0.388363404903E+03   -0.32837E-03   -0.32875E-03  8736   0.156E-02 0.223E-05
CGA:  13    -0.388363542317E+03   -0.13741E-03   -0.13747E-03  8736   0.138E-02-0.174E-05
CGA:  14    -0.388363600883E+03   -0.58566E-04   -0.58586E-04  8736   0.108E-02 0.271E-06
CGA:  15    -0.388363682205E+03   -0.81322E-04   -0.81280E-04  8736   0.692E-03 0.260E-05
CGA:  16    -0.388363708990E+03   -0.26785E-04   -0.26734E-04  8736   0.263E-03 0.715E-06
CGA:  17    -0.388363744043E+03   -0.35053E-04   -0.34983E-04  8736   0.248E-03 0.822E-06
CGA:  18    -0.388363763624E+03   -0.19581E-04   -0.19590E-04  8736   0.357E-03-0.738E-06
CGA:  19    -0.388363781410E+03   -0.17786E-04   -0.17791E-04  8736   0.154E-03-0.183E-06
CGA:  20    -0.388363788530E+03   -0.71202E-05   -0.71245E-05  8736   0.124E-03-0.234E-08
CGA:  21    -0.388363799027E+03   -0.10497E-04   -0.10490E-04  8736   0.952E-04 0.230E-06
CGA:  22    -0.388363806822E+03   -0.77955E-05   -0.77966E-05  8736   0.537E-04-0.162E-06
 296 F= -.38836381E+03 E0= -.38835069E+03  d E =0.802585E-03  mag=    34.0000
       N       E                     dE             d eps       ncg     rms          ort
SDA:   1    -0.388018850276E+03    0.34495E+00    0.00000E+00  8736   0.127E+01 0.000E+00
CGA:   2    -0.388138045981E+03   -0.11920E+00   -0.12316E+00  8736   0.289E+01-0.107E+00
CGA:   3    -0.388246186521E+03   -0.10814E+00   -0.10995E+00  8736   0.656E+00-0.119E-01
CGA:   4    -0.388280096346E+03   -0.33910E-01   -0.34224E-01  8736   0.753E+00 0.481E-02
CGA:   5    -0.388333220815E+03   -0.53124E-01   -0.53116E-01  8736   0.306E+00 0.127E-02
CGA:   6    -0.388351285507E+03   -0.18065E-01   -0.17962E-01  8736   0.875E-01-0.462E-02
CGA:   7    -0.388355132023E+03   -0.38465E-02   -0.38842E-02  8736   0.642E-01 0.677E-04
CGA:   8    -0.388359421416E+03   -0.42894E-02   -0.42894E-02  8736   0.382E-01 0.118E-04
CGA:   9    -0.388361123084E+03   -0.17017E-02   -0.16968E-02  8736   0.200E-01-0.524E-05
CGA:  10    -0.388361865819E+03   -0.74273E-03   -0.74272E-03  8736   0.533E-02 0.210E-05
CGA:  11    -0.388362600186E+03   -0.73437E-03   -0.73362E-03  8736   0.511E-02 0.108E-04
CGA:  12    -0.388362816469E+03   -0.21628E-03   -0.21542E-03  8736   0.295E-02 0.528E-05
CGA:  13    -0.388363000692E+03   -0.18422E-03   -0.18422E-03  8736   0.124E-02 0.387E-08
CGA:  14    -0.388363060179E+03   -0.59487E-04   -0.59524E-04  8736   0.135E-02 0.544E-06
CGA:  15    -0.388363165413E+03   -0.10523E-03   -0.10519E-03  8736   0.689E-03 0.222E-05
CGA:  16    -0.388363222646E+03   -0.57233E-04   -0.57258E-04  8736   0.510E-03-0.144E-05
CGA:  17    -0.388363247156E+03   -0.24510E-04   -0.24527E-04  8736   0.381E-03-0.112E-08
CGA:  18    -0.388363278019E+03   -0.30863E-04   -0.30858E-04  8736   0.437E-03 0.201E-06
CGA:  19    -0.388363306466E+03   -0.28446E-04   -0.28447E-04  8736   0.480E-03-0.248E-06
CGA:  20    -0.388363326510E+03   -0.20044E-04   -0.20042E-04  8736   0.930E-04-0.374E-06
CGA:  21    -0.388363341782E+03   -0.15272E-04   -0.15291E-04  8736   0.186E-03-0.210E-06
CGA:  22    -0.388363349323E+03   -0.75408E-05   -0.75333E-05  8736   0.892E-04-0.334E-07
 297 F= -.38836335E+03 E0= -.38835019E+03  d E =0.457500E-03  mag=    34.0000
       N       E                     dE             d eps       ncg     rms          ort
SDA:   1    -0.388218358004E+03    0.14498E+00    0.00000E+00  8736   0.614E+00 0.000E+00
CGA:   2    -0.388255780279E+03   -0.37422E-01   -0.37340E-01  8736   0.942E+00-0.434E-02
CGA:   3    -0.388307938191E+03   -0.52158E-01   -0.51980E-01  8736   0.467E+00-0.393E-02
CGA:   4    -0.388330546545E+03   -0.22608E-01   -0.22952E-01  8736   0.213E+00 0.305E-02
CGA:   5    -0.388345476824E+03   -0.14930E-01   -0.14954E-01  8736   0.230E+00-0.362E-02
CGA:   6    -0.388360320235E+03   -0.14843E-01   -0.14844E-01  8736   0.198E-01 0.643E-03
CGA:   7    -0.388362709470E+03   -0.23892E-02   -0.23906E-02  8736   0.327E-01-0.224E-04
CGA:   8    -0.388363728430E+03   -0.10190E-02   -0.10204E-02  8736   0.855E-02-0.308E-04
CGA:   9    -0.388364241430E+03   -0.51300E-03   -0.51292E-03  8736   0.477E-02-0.504E-05
CGA:  10    -0.388364452651E+03   -0.21122E-03   -0.21136E-03  8736   0.240E-02 0.116E-05
CGA:  11    -0.388364734662E+03   -0.28201E-03   -0.28194E-03  8736   0.991E-03 0.179E-05
CGA:  12    -0.388364795251E+03   -0.60588E-04   -0.60590E-04  8736   0.107E-02 0.639E-06
CGA:  13    -0.388364838624E+03   -0.43373E-04   -0.43320E-04  8736   0.395E-03 0.155E-05
CGA:  14    -0.388364870556E+03   -0.31933E-04   -0.31902E-04  8736   0.424E-03 0.179E-05
CGA:  15    -0.388364895874E+03   -0.25318E-04   -0.25322E-04  8736   0.233E-03 0.957E-06
CGA:  16    -0.388364909831E+03   -0.13957E-04   -0.13959E-04  8736   0.969E-04 0.399E-06
CGA:  17    -0.388364920100E+03   -0.10269E-04   -0.10268E-04  8736   0.224E-03-0.809E-07
CGA:  18    -0.388364930176E+03   -0.10076E-04   -0.10073E-04  8736   0.113E-03-0.226E-06
CGA:  19    -0.388364938730E+03   -0.85540E-05   -0.85568E-05  8736   0.454E-04-0.331E-06
 298 F= -.38836494E+03 E0= -.38835189E+03  d E =-.158941E-02  mag=    34.0000
       N       E                     dE             d eps       ncg     rms          ort
SDA:   1    -0.388347049722E+03    0.17880E-01    0.00000E+00  8736   0.173E+00 0.000E+00
CGA:   2    -0.388351531002E+03   -0.44813E-02   -0.44332E-02  8736   0.500E-01 0.134E-02
CGA:   3    -0.388356900596E+03   -0.53696E-02   -0.53780E-02  8736   0.110E+00-0.172E-03
CGA:   4    -0.388361269881E+03   -0.43693E-02   -0.44173E-02  8736   0.242E-01-0.306E-03
CGA:   5    -0.388363338052E+03   -0.20682E-02   -0.20639E-02  8736   0.123E-01 0.159E-03
CGA:   6    -0.388364375076E+03   -0.10370E-02   -0.10369E-02  8736   0.151E-01 0.635E-05
CGA:   7    -0.388364790002E+03   -0.41493E-03   -0.41393E-03  8736   0.181E-02 0.257E-04
CGA:   8    -0.388364929533E+03   -0.13953E-03   -0.13944E-03  8736   0.124E-02 0.586E-05
CGA:   9    -0.388365055439E+03   -0.12591E-03   -0.12597E-03  8736   0.636E-03-0.164E-05
CGA:  10    -0.388365077149E+03   -0.21710E-04   -0.21697E-04  8736   0.301E-03-0.152E-06
CGA:  11    -0.388365096554E+03   -0.19405E-04   -0.19405E-04  8736   0.231E-03-0.706E-07
CGA:  12    -0.388365106765E+03   -0.10212E-04   -0.10213E-04  8736   0.142E-03-0.197E-06
CGA:  13    -0.388365119580E+03   -0.12815E-04   -0.12829E-04  8736   0.392E-04-0.575E-06
CGA:  14    -0.388365123759E+03   -0.41787E-05   -0.41810E-05  8736   0.291E-04-0.785E-07
 299 F= -.38836512E+03 E0= -.38835207E+03  d E =-.185029E-03  mag=    34.0000
