       N       E                     dE             d eps       ncg     rms          ort
DAV:   1     0.643882150995E+04    0.64388E+04   -0.30830E+05 24864   0.173E+03
DAV:   2     0.237130202017E+02   -0.64151E+04   -0.60461E+04 24864   0.504E+02
DAV:   3    -0.769603261095E+03   -0.79332E+03   -0.78395E+03 24864   0.181E+02
DAV:   4    -0.801199168563E+03   -0.31596E+02   -0.31427E+02 24864   0.341E+01
DAV:   5    -0.803650607864E+03   -0.24514E+01   -0.24480E+01 24864   0.686E+00
SDA:   6    -0.648644656862E+03    0.15501E+03   -0.24480E+01 24864   0.497E+02 0.000E+00
CGA:   7    -0.655732100156E+03   -0.70874E+01   -0.71254E+01 24864   0.533E+01 0.361E+00
CGA:   8    -0.656745406611E+03   -0.10133E+01   -0.10145E+01 24864   0.158E+01 0.134E+00
CGA:   9    -0.657071075663E+03   -0.32567E+00   -0.32540E+00 24864   0.520E+00 0.651E-01
CGA:  10    -0.657202119783E+03   -0.13104E+00   -0.12993E+00 24864   0.224E+00 0.254E-01
CGA:  11    -0.657258637547E+03   -0.56518E-01   -0.55942E-01 24864   0.126E+00 0.142E-01
CGA:  12    -0.657294291138E+03   -0.35654E-01   -0.34518E-01 24864   0.473E-01 0.201E-01
CGA:  13    -0.657306801288E+03   -0.12510E-01   -0.12217E-01 24864   0.186E-01 0.152E-01
CGA:  14    -0.657311612307E+03   -0.48110E-02   -0.48685E-02 24864   0.694E-02 0.918E-02
CGA:  15    -0.657313393336E+03   -0.17810E-02   -0.18994E-02 24864   0.373E-02 0.557E-02
CGA:  16    -0.657314328422E+03   -0.93509E-03   -0.87116E-03 24864   0.201E-02 0.212E-02
CGA:  17    -0.657314898843E+03   -0.57042E-03   -0.50185E-03 24864   0.142E-02 0.155E-02
CGA:  18    -0.657315161753E+03   -0.26291E-03   -0.27694E-03 24864   0.108E-02 0.123E-02
CGA:  19    -0.657315350685E+03   -0.18893E-03   -0.20540E-03 24864   0.871E-03 0.993E-03
CGA:  20    -0.657315479495E+03   -0.12881E-03   -0.15321E-03 24864   0.720E-03 0.817E-03
CGA:  21    -0.657315572127E+03   -0.92633E-04   -0.11910E-03 24864   0.605E-03 0.683E-03
CGA:  22    -0.657315640514E+03   -0.68386E-04   -0.94789E-04 24864   0.515E-03 0.579E-03
CGA:  23    -0.657315691784E+03   -0.51270E-04   -0.76627E-04 24864   0.442E-03 0.496E-03
CGA:  24    -0.657315730752E+03   -0.38968E-04   -0.62723E-04 24864   0.382E-03 0.427E-03
CGA:  25    -0.657315760446E+03   -0.29693E-04   -0.51698E-04 24864   0.332E-03 0.371E-03
CGA:  26    -0.657315783147E+03   -0.22701E-04   -0.42883E-04 24864   0.290E-03 0.323E-03
CGA:  27    -0.657315800424E+03   -0.17277E-04   -0.35696E-04 24864   0.253E-03 0.282E-03
CGA:  28    -0.657315813531E+03   -0.13106E-04   -0.29828E-04 24864   0.222E-03 0.247E-03
CGA:  29    -0.657315823388E+03   -0.98573E-05   -0.24987E-04 24864   0.196E-03 0.217E-03
CGA:  30    -0.657315830770E+03   -0.73823E-05   -0.21021E-04 24864   0.173E-03 0.192E-03
CGA:  31    -0.657315836265E+03   -0.54948E-05   -0.17744E-04 24864   0.153E-03 0.170E-03
CGA:  32    -0.657315840400E+03   -0.41356E-05   -0.15062E-04 24864   0.136E-03 0.150E-03
CGA:  33    -0.657315843495E+03   -0.30947E-05   -0.12827E-04 24864   0.120E-03 0.133E-03
CGA:  34    -0.657315845784E+03   -0.22891E-05   -0.10957E-04 24864   0.108E-03 0.119E-03
   1 F= -.65731585E+03 E0= -.65731585E+03  d E =-.657316E+03  mag=    48.0000
