       N       E                     dE             d eps       ncg     rms          rms(c)
DAV:   1     0.691540140330E+04    0.69154E+04   -0.28588E+05 37584   0.160E+03
DAV:   2     0.447147281242E+03   -0.64683E+04   -0.60290E+04 37472   0.482E+02
DAV:   3    -0.388535150995E+03   -0.83568E+03   -0.82302E+03 40368   0.183E+02
DAV:   4    -0.422811466362E+03   -0.34276E+02   -0.33937E+02 48000   0.348E+01
DAV:   5    -0.425058273037E+03   -0.22468E+01   -0.22369E+01 63056   0.645E+00    0.571E+01
DAV:   6    -0.380454854060E+03    0.44603E+02   -0.24807E+02 45936   0.358E+01    0.484E+01
DAV:   7    -0.381733659710E+03   -0.12788E+01   -0.41592E+01 43088   0.179E+01    0.382E+01
DAV:   8    -0.381648370615E+03    0.85289E-01   -0.11897E+01 42304   0.809E+00    0.294E+01
DAV:   9    -0.384211967539E+03   -0.25636E+01   -0.42263E+01 44480   0.121E+01    0.432E+01
DAV:  10    -0.382709375009E+03    0.15026E+01   -0.29542E+01 41920   0.178E+01    0.234E+01
DAV:  11    -0.380168952198E+03    0.25404E+01   -0.69696E+00 43504   0.559E+00    0.206E+01
DAV:  12    -0.380572213366E+03   -0.40326E+00   -0.16387E+00 42784   0.396E+00    0.129E+01
DAV:  13    -0.380566093143E+03    0.61202E-02   -0.39831E+00 44384   0.324E+00    0.115E+01
DAV:  14    -0.380870772371E+03   -0.30468E+00   -0.72149E-01 44544   0.156E+00    0.117E+01
DAV:  15    -0.380943435443E+03   -0.72663E-01   -0.12603E-01 39296   0.839E-01    0.101E+01
DAV:  16    -0.381068715152E+03   -0.12528E+00   -0.12189E-01 46000   0.879E-01    0.952E+00
DAV:  17    -0.381246792278E+03   -0.17808E+00   -0.19251E-01 44176   0.923E-01    0.808E+00
DAV:  18    -0.381326491927E+03   -0.79700E-01   -0.10435E-01 44640   0.822E-01    0.601E+00
DAV:  19    -0.381412827003E+03   -0.86335E-01   -0.30917E-01 45424   0.118E+00    0.485E+00
DAV:  20    -0.381364516784E+03    0.48310E-01   -0.12226E-01 46784   0.895E-01    0.278E+00
DAV:  21    -0.381367588716E+03   -0.30719E-02   -0.36537E-02 41936   0.493E-01    0.314E+00
DAV:  22    -0.381355789078E+03    0.11800E-01   -0.27454E-02 44912   0.423E-01    0.179E+00
DAV:  23    -0.381356812593E+03   -0.10235E-02   -0.83213E-03 42432   0.280E-01    0.173E+00
DAV:  24    -0.381353516784E+03    0.32958E-02   -0.20728E-02 46432   0.357E-01    0.425E-01
DAV:  25    -0.381355244238E+03   -0.17275E-02   -0.79621E-03 41392   0.274E-01    0.363E-01
DAV:  26    -0.381355375261E+03   -0.13102E-03   -0.18857E-03 41888   0.109E-01    0.233E-01
DAV:  27    -0.381355247456E+03    0.12781E-03   -0.10456E-03 40912   0.620E-02    0.394E-01
DAV:  28    -0.381354943895E+03    0.30356E-03   -0.14535E-03 45152   0.849E-02    0.121E-01
DAV:  29    -0.381354935832E+03    0.80633E-05   -0.21659E-04 42480   0.439E-02    0.793E-02
DAV:  30    -0.381354904560E+03    0.31271E-04   -0.29151E-04 41360   0.427E-02    0.126E-01
DAV:  31    -0.381354892967E+03    0.11593E-04   -0.17772E-04 42032   0.313E-02    0.516E-02
DAV:  32    -0.381354887748E+03    0.52188E-05   -0.60386E-05 35984   0.189E-02
   1 F= -.38135489E+03 E0= -.38134766E+03  d E =-.381355E+03  mag=    58.0086
