       N       E                     dE             d eps       ncg     rms          ort
DAV:   1     0.736483386227E+04    0.73648E+04   -0.35082E+05  9568   0.175E+03
DAV:   2     0.487656410250E+03   -0.68772E+04   -0.64506E+04  9568   0.513E+02
DAV:   3    -0.316871056494E+03   -0.80453E+03   -0.78023E+03  9568   0.196E+02
DAV:   4    -0.350269715274E+03   -0.33399E+02   -0.32956E+02  9568   0.385E+01
DAV:   5    -0.352471753456E+03   -0.22020E+01   -0.21730E+01  9568   0.750E+00
SDA:   6    -0.173084488566E+03    0.17939E+03   -0.21730E+01  9568   0.143E+04 0.000E+00
CGA:   7    -0.264407111183E+03   -0.91323E+02   -0.12555E+03  9568   0.913E+03 0.245E+02
CGA:   8    -0.277985896786E+03   -0.13579E+02   -0.35109E+02  9568   0.779E+03-0.102E+03
CGA:   9    -0.283491791560E+03   -0.55059E+01   -0.14611E+02  9568   0.722E+03 0.350E+02
CGA:  10    -0.277245952877E+03    0.62458E+01   -0.16106E+02  9568   0.763E+03-0.826E+02
CGA:  11    -0.285676137732E+03   -0.84302E+01   -0.26791E+02  9568   0.754E+03-0.140E+03
CGA:  12    -0.275154162077E+03    0.10522E+02   -0.16999E+02  9568   0.641E+03-0.330E+03
CGA:  13    -0.281763061339E+03   -0.66089E+01   -0.32651E+01  9568   0.655E+03 0.449E+03
CGA:  14    -0.293640769550E+03   -0.11878E+02   -0.12982E+02  9568   0.148E+03-0.329E+02
CGA:  15    -0.298093052700E+03   -0.44523E+01   -0.58449E+01  9568   0.216E+03-0.604E+02
CGA:  16    -0.304564221676E+03   -0.64712E+01   -0.37427E+01  9568   0.114E+03 0.132E+03
CGA:  17    -0.301444853123E+03    0.31194E+01   -0.45087E+01  9568   0.271E+03-0.790E+02
CGA:  18    -0.302421865171E+03   -0.97701E+00   -0.81965E+01  9568   0.264E+03-0.127E+03
CGA:  19    -0.302353636751E+03    0.68228E-01   -0.20766E+01  9568   0.345E+03-0.143E+03
CGA:  20    -0.303343847534E+03   -0.99021E+00   -0.75926E+01  9568   0.522E+03-0.305E+03
CGA:  21    -0.297305826591E+03    0.60380E+01   -0.26172E+02  9568   0.274E+03-0.151E+02
CGA:  22    -0.302663323642E+03   -0.53575E+01   -0.35560E+01  9568   0.252E+03 0.180E+03
CGA:  23    -0.301183254769E+03    0.14801E+01   -0.50124E+01  9568   0.735E+03-0.160E+03
CGA:  24    -0.303825087354E+03   -0.26418E+01   -0.17263E+02  9568   0.309E+03-0.176E+03
CGA:  25    -0.300829535724E+03    0.29956E+01   -0.73609E+01  9568   0.864E+03-0.393E+01
CGA:  26    -0.284570515028E+03    0.16259E+02   -0.27025E+02  9568   0.219E+03-0.790E+02
CGA:  27    -0.286741876669E+03   -0.21714E+01   -0.90144E+00  9568   0.369E+03 0.364E+03
CGA:  28    -0.300617773961E+03   -0.13876E+02   -0.26381E+01  9568   0.127E+03 0.228E+03
CGA:  29    -0.306259965358E+03   -0.56422E+01   -0.26524E+01  9568   0.184E+03 0.655E+02
CGA:  30    -0.307214847488E+03   -0.95488E+00   -0.46466E+01  9568   0.124E+03-0.700E+02
CGA:  31    -0.308236859319E+03   -0.10220E+01   -0.77899E+00  9568   0.123E+02 0.445E+01
CGA:  32    -0.308341092925E+03   -0.10423E+00   -0.57771E-01  9568   0.100E+02 0.103E+02
CGA:  33    -0.308465822944E+03   -0.12473E+00   -0.63603E-01  9568   0.813E+01 0.961E+01
CGA:  34    -0.308574752597E+03   -0.10893E+00   -0.55322E-01  9568   0.630E+01 0.776E+01
CGA:  35    -0.308687592240E+03   -0.11284E+00   -0.61130E-01  9568   0.363E+01 0.509E+01
CGA:  36    -0.308792713343E+03   -0.10512E+00   -0.72055E-01  9568   0.153E+01 0.133E+01
CGA:  37    -0.308899127885E+03   -0.10641E+00   -0.97147E-01  9568   0.605E+01-0.153E+00
CGA:  38    -0.308954923213E+03   -0.55795E-01   -0.35055E-01  9568   0.988E+01 0.311E+01
CGA:  39    -0.309081663538E+03   -0.12674E+00   -0.23642E+00  9568   0.457E+01-0.209E+01
CGA:  40    -0.309124355056E+03   -0.42692E-01   -0.55603E-01  9568   0.415E+01-0.661E+00
CGA:  41    -0.309251816320E+03   -0.12746E+00   -0.85182E-01  9568   0.137E+01 0.151E+01
CGA:  42    -0.309343564172E+03   -0.91748E-01   -0.90793E-01  9568   0.643E+01-0.195E+00
CGA:  43    -0.309388118553E+03   -0.44554E-01   -0.32443E-01  9568   0.774E+01 0.145E+01
CGA:  44    -0.308049222288E+03    0.13389E+01   -0.10406E+00  9568   0.103E+03-0.660E+02
CGA:  45    -0.308906777934E+03   -0.85756E+00   -0.97071E+00  9568   0.308E+02-0.236E+02
CGA:  46    -0.309210659234E+03   -0.30388E+00   -0.34633E+00  9568   0.666E+01-0.597E+00
CGA:  47    -0.309269681395E+03   -0.59022E-01   -0.54288E-01  9568   0.296E+01 0.467E+00
CGA:  48    -0.309353480864E+03   -0.83799E-01   -0.75556E-01  9568   0.540E+01 0.119E+00
CGA:  49    -0.309462998385E+03   -0.10952E+00   -0.83673E-01  9568   0.867E+01 0.163E+01
CGA:  50    -0.309584626369E+03   -0.12163E+00   -0.85280E-01  9568   0.583E+01 0.380E+01
CGA:  51    -0.309648988361E+03   -0.64362E-01   -0.76526E-01  9568   0.653E+01-0.191E+01
CGA:  52    -0.309652570496E+03   -0.35821E-02   -0.28518E-01  9568   0.601E+01-0.361E+01
CGA:  53    -0.309704898092E+03   -0.52328E-01   -0.59438E-01  9568   0.258E+01-0.582E+00
CGA:  54    -0.309753855436E+03   -0.48957E-01   -0.54146E-01  9568   0.183E+01 0.515E-01
CGA:  55    -0.309802398951E+03   -0.48544E-01   -0.50091E-01  9568   0.234E+01 0.729E-01
CGA:  56    -0.309855931852E+03   -0.53533E-01   -0.54101E-01  9568   0.156E+01 0.224E-01
CGA:  57    -0.309901099870E+03   -0.45168E-01   -0.45250E-01  9568   0.101E+01 0.436E-01
CGA:  58    -0.309922655640E+03   -0.21556E-01   -0.21834E-01  9568   0.751E+00 0.674E-02
CGA:  59    -0.309945495559E+03   -0.22840E-01   -0.22837E-01  9568   0.932E+00 0.396E-02
CGA:  60    -0.309973233234E+03   -0.27738E-01   -0.27109E-01  9568   0.614E+00-0.545E-01
CGA:  61    -0.309983385401E+03   -0.10152E-01   -0.94270E-02  9568   0.279E+00 0.291E-01
CGA:  62    -0.309996563290E+03   -0.13178E-01   -0.13025E-01  9568   0.395E+00 0.695E-02
CGA:  63    -0.310008897470E+03   -0.12334E-01   -0.12308E-01  9568   0.662E+00-0.996E-02
CGA:  64    -0.310017023362E+03   -0.81259E-02   -0.52861E-02  9568   0.352E+00 0.330E+00
CGA:  65    -0.310022767317E+03   -0.57440E-02   -0.55149E-02  9568   0.217E+00 0.204E-01
CGA:  66    -0.310029441854E+03   -0.66745E-02   -0.66730E-02  9568   0.344E+00 0.802E-02
CGA:  67    -0.310034502348E+03   -0.50605E-02   -0.50372E-02  9568   0.225E+00 0.195E-02
CGA:  68    -0.310040347865E+03   -0.58455E-02   -0.58706E-02  9568   0.231E+00 0.447E-02
CGA:  69    -0.310043778653E+03   -0.34308E-02   -0.33679E-02  9568   0.109E+00 0.359E-03
CGA:  70    -0.310046262784E+03   -0.24841E-02   -0.25145E-02  9568   0.101E+00-0.508E-03
CGA:  71    -0.310048280729E+03   -0.20179E-02   -0.20984E-02  9568   0.671E-01-0.165E-03
CGA:  72    -0.310050220577E+03   -0.19398E-02   -0.19229E-02  9568   0.500E-01 0.315E-02
CGA:  73    -0.310051461556E+03   -0.12410E-02   -0.12458E-02  9568   0.334E-01-0.909E-03
CGA:  74    -0.310053032539E+03   -0.15710E-02   -0.15036E-02  9568   0.244E-01 0.254E-02
CGA:  75    -0.310054176546E+03   -0.11440E-02   -0.11208E-02  9568   0.284E-01 0.108E-02
CGA:  76    -0.310054914955E+03   -0.73841E-03   -0.74210E-03  9568   0.192E-01 0.279E-03
CGA:  77    -0.310056209774E+03   -0.12948E-02   -0.12391E-02  9568   0.273E-01 0.157E-02
CGA:  78    -0.310057024208E+03   -0.81443E-03   -0.81500E-03  9568   0.140E-01 0.669E-04
CGA:  79    -0.310057574800E+03   -0.55059E-03   -0.54655E-03  9568   0.824E-02 0.310E-03
CGA:  80    -0.310057910735E+03   -0.33594E-03   -0.33605E-03  9568   0.977E-02-0.258E-04
CGA:  81    -0.310058335804E+03   -0.42507E-03   -0.42346E-03  9568   0.954E-02 0.793E-04
CGA:  82    -0.310058648010E+03   -0.31221E-03   -0.31217E-03  9568   0.543E-02-0.153E-04
SDA:  83    -0.310058802465E+03   -0.15446E-03   -0.15436E-03  9568   0.290E-02-0.399E-04
CGA:  84    -0.310058852434E+03   -0.49969E-04   -0.49989E-04  9568   0.126E-02-0.409E-05
CGA:  85    -0.310058942317E+03   -0.89883E-04   -0.89773E-04  9568   0.270E-02 0.262E-05
CGA:  86    -0.310059081199E+03   -0.13888E-03   -0.13949E-03  9568   0.358E-02-0.338E-04
CGA:  87    -0.310059183035E+03   -0.10184E-03   -0.10180E-03  9568   0.221E-02-0.201E-04
CGA:  88    -0.310059351138E+03   -0.16810E-03   -0.16885E-03  9568   0.163E-02-0.159E-04
CGA:  89    -0.310059450371E+03   -0.99232E-04   -0.99441E-04  9568   0.833E-03-0.106E-04
CGA:  90    -0.310059466839E+03   -0.16468E-04   -0.16379E-04  9568   0.497E-03-0.501E-05
CGA:  91    -0.310059505489E+03   -0.38650E-04   -0.38948E-04  9568   0.781E-03-0.742E-05
CGA:  92    -0.310059547119E+03   -0.41630E-04   -0.41767E-04  9568   0.706E-03-0.898E-05
CGA:  93    -0.310059562544E+03   -0.15425E-04   -0.15378E-04  9568   0.257E-03-0.434E-05
CGA:  94    -0.310059574674E+03   -0.12130E-04   -0.12141E-04  9568   0.238E-03-0.174E-05
CGA:  95    -0.310059589472E+03   -0.14797E-04   -0.14798E-04  9568   0.677E-03-0.521E-06
CGA:  96    -0.310059613458E+03   -0.23987E-04   -0.23978E-04  9568   0.223E-03-0.136E-05
CGA:  97    -0.310059625076E+03   -0.11618E-04   -0.11582E-04  9568   0.108E-03 0.228E-05
CGA:  98    -0.310059628706E+03   -0.36295E-05   -0.36383E-05  9568   0.152E-03 0.938E-06
   1 F= -.31005963E+03 E0= -.31003546E+03  d E =-.310060E+03  mag=    25.2642
       N       E                     dE             d eps       ncg     rms          ort
SDA:   1    -0.310085613412E+03   -0.25988E-01    0.00000E+00  9568   0.509E+00 0.000E+00
CGA:   2    -0.310092586918E+03   -0.69735E-02   -0.67226E-02  9568   0.638E-01 0.142E-01
CGA:   3    -0.310094093533E+03   -0.15066E-02   -0.15228E-02  9568   0.184E-01-0.182E-03
CGA:   4    -0.310095536722E+03   -0.14432E-02   -0.14470E-02  9568   0.352E-01-0.952E-04
CGA:   5    -0.310096606603E+03   -0.10699E-02   -0.10698E-02  9568   0.282E-01 0.203E-05
CGA:   6    -0.310097712118E+03   -0.11055E-02   -0.11057E-02  9568   0.659E-02 0.180E-03
CGA:   7    -0.310097926254E+03   -0.21414E-03   -0.21418E-03  9568   0.777E-02-0.196E-05
CGA:   8    -0.310098146100E+03   -0.21985E-03   -0.21936E-03  9568   0.255E-02-0.143E-04
CGA:   9    -0.310098357479E+03   -0.21138E-03   -0.21192E-03  9568   0.231E-02-0.118E-04
CGA:  10    -0.310098430438E+03   -0.72960E-04   -0.72940E-04  9568   0.140E-02-0.334E-05
CGA:  11    -0.310098464905E+03   -0.34467E-04   -0.34331E-04  9568   0.524E-03-0.130E-05
CGA:  12    -0.310098487652E+03   -0.22747E-04   -0.22749E-04  9568   0.341E-03-0.263E-06
CGA:  13    -0.310098499510E+03   -0.11858E-04   -0.11862E-04  9568   0.413E-03 0.995E-06
CGA:  14    -0.310098512237E+03   -0.12728E-04   -0.12740E-04  9568   0.183E-03 0.127E-05
CGA:  15    -0.310098524076E+03   -0.11839E-04   -0.11778E-04  9568   0.629E-04 0.246E-05
CGA:  16    -0.310098528745E+03   -0.46690E-05   -0.46094E-05  9568   0.119E-03 0.187E-05
   2 F= -.31009853E+03 E0= -.31007438E+03  d E =-.389000E-01  mag=    25.2511
       N       E                     dE             d eps       ncg     rms          ort
SDA:   1    -0.305510536722E+03    0.45880E+01    0.00000E+00  9568   0.161E+02 0.000E+00
CGA:   2    -0.307061769765E+03   -0.15512E+01   -0.15454E+01  9568   0.747E+02 0.416E+00
CGA:   3    -0.309772771339E+03   -0.27110E+01   -0.26693E+01  9568   0.689E+01-0.520E+00
CGA:   4    -0.310166323078E+03   -0.39355E+00   -0.38464E+00  9568   0.931E+01 0.488E+00
CGA:   5    -0.310481936436E+03   -0.31561E+00   -0.30574E+00  9568   0.719E+01-0.397E-01
CGA:   6    -0.310771835916E+03   -0.28990E+00   -0.29013E+00  9568   0.313E+01 0.275E-01
CGA:   7    -0.310869842215E+03   -0.98006E-01   -0.96054E-01  9568   0.121E+01-0.168E-01
CGA:   8    -0.310915415722E+03   -0.45574E-01   -0.45325E-01  9568   0.142E+01-0.177E-01
CGA:   9    -0.310972926524E+03   -0.57511E-01   -0.57562E-01  9568   0.572E+00 0.169E-01
CGA:  10    -0.310990554559E+03   -0.17628E-01   -0.17515E-01  9568   0.422E+00-0.817E-03
CGA:  11    -0.311001469210E+03   -0.10915E-01   -0.11016E-01  9568   0.188E+00-0.528E-03
CGA:  12    -0.311010950642E+03   -0.94814E-02   -0.95363E-02  9568   0.290E+00-0.389E-02
CGA:  13    -0.311020907393E+03   -0.99568E-02   -0.99805E-02  9568   0.170E+00 0.130E-02
CGA:  14    -0.311025939390E+03   -0.50320E-02   -0.50352E-02  9568   0.586E-01 0.866E-04
CGA:  15    -0.311028759235E+03   -0.28198E-02   -0.28085E-02  9568   0.708E-01 0.105E-02
CGA:  16    -0.311031195432E+03   -0.24362E-02   -0.24367E-02  9568   0.668E-01 0.546E-04
CGA:  17    -0.311035089363E+03   -0.38939E-02   -0.38851E-02  9568   0.721E-01 0.408E-03
CGA:  18    -0.311036522703E+03   -0.14333E-02   -0.14274E-02  9568   0.216E-01 0.206E-03
CGA:  19    -0.311037870598E+03   -0.13479E-02   -0.13433E-02  9568   0.327E-01 0.186E-03
CGA:  20    -0.311039233699E+03   -0.13631E-02   -0.13631E-02  9568   0.376E-01-0.332E-04
CGA:  21    -0.311040794401E+03   -0.15607E-02   -0.15607E-02  9568   0.198E-01 0.456E-04
CGA:  22    -0.311041405530E+03   -0.61113E-03   -0.61164E-03  9568   0.147E-01 0.165E-04
CGA:  23    -0.311041919207E+03   -0.51368E-03   -0.51390E-03  9568   0.137E-01 0.196E-04
CGA:  24    -0.311042495905E+03   -0.57670E-03   -0.57661E-03  9568   0.878E-02 0.382E-04
CGA:  25    -0.311042782373E+03   -0.28647E-03   -0.28665E-03  9568   0.857E-02 0.121E-04
CGA:  26    -0.311043255696E+03   -0.47332E-03   -0.47303E-03  9568   0.419E-02 0.215E-04
CGA:  27    -0.311043361759E+03   -0.10606E-03   -0.10612E-03  9568   0.297E-02 0.616E-05
CGA:  28    -0.311043507917E+03   -0.14616E-03   -0.14600E-03  9568   0.306E-02 0.167E-04
CGA:  29    -0.311043620086E+03   -0.11217E-03   -0.11224E-03  9568   0.315E-02 0.121E-04
CGA:  30    -0.311043741793E+03   -0.12171E-03   -0.12171E-03  9568   0.166E-02 0.381E-05
CGA:  31    -0.311043800830E+03   -0.59036E-04   -0.59043E-04  9568   0.111E-02 0.146E-05
SDA:  32    -0.311043844088E+03   -0.43258E-04   -0.43252E-04  9568   0.129E-02-0.439E-05
CGA:  33    -0.311043863308E+03   -0.19221E-04   -0.19221E-04  9568   0.395E-03-0.203E-05
CGA:  34    -0.311043886681E+03   -0.23373E-04   -0.23487E-04  9568   0.698E-03-0.583E-05
CGA:  35    -0.311043934016E+03   -0.47335E-04   -0.47770E-04  9568   0.100E-02-0.148E-04
CGA:  36    -0.311043961372E+03   -0.27356E-04   -0.27278E-04  9568   0.607E-03-0.611E-05
CGA:  37    -0.311043982567E+03   -0.21196E-04   -0.21167E-04  9568   0.119E-03-0.468E-05
CGA:  38    -0.311043999419E+03   -0.16851E-04   -0.16652E-04  9568   0.177E-03 0.178E-05
CGA:  39    -0.311044004663E+03   -0.52441E-05   -0.52489E-05  9568   0.225E-03 0.149E-06
CGA:  40    -0.311044015922E+03   -0.11259E-04   -0.11266E-04  9568   0.110E-03-0.116E-05
CGA:  41    -0.311044022526E+03   -0.66040E-05   -0.66534E-05  9568   0.799E-04-0.316E-05
   3 F= -.31104402E+03 E0= -.31101978E+03  d E =-.945494E+00  mag=    25.2630
       N       E                     dE             d eps       ncg     rms          ort
SDA:   1    -0.291514522738E+03    0.19529E+02    0.00000E+00  9568   0.143E+03 0.000E+00
CGA:   2    -0.294313617316E+03   -0.27991E+01   -0.34826E+01  9568   0.115E+03-0.281E+02
CGA:   3    -0.301510197328E+03   -0.71966E+01   -0.93986E+01  9568   0.246E+03-0.391E+02
CGA:   4    -0.307754157012E+03   -0.62440E+01   -0.54214E+01  9568   0.260E+02-0.781E+01
CGA:   5    -0.308663430079E+03   -0.90927E+00   -0.94722E+00  9568   0.461E+02 0.107E+01
CGA:   6    -0.309584867022E+03   -0.92144E+00   -0.86039E+00  9568   0.326E+02 0.109E+01
CGA:   7    -0.310349156746E+03   -0.76429E+00   -0.60941E+00  9568   0.181E+02 0.491E+01
CGA:   8    -0.310863715518E+03   -0.51456E+00   -0.52627E+00  9568   0.133E+02-0.464E-01
CGA:   9    -0.311060733676E+03   -0.19702E+00   -0.19248E+00  9568   0.618E+01 0.130E+00
CGA:  10    -0.311173844482E+03   -0.11311E+00   -0.10639E+00  9568   0.592E+01 0.238E+00
CGA:  11    -0.311316393684E+03   -0.14255E+00   -0.14966E+00  9568   0.539E+01-0.583E-01
CGA:  12    -0.311433765482E+03   -0.11737E+00   -0.12072E+00  9568   0.622E+01-0.571E-01
CGA:  13    -0.311520077408E+03   -0.86312E-01   -0.78653E-01  9568   0.270E+01 0.400E+00
CGA:  14    -0.311566786723E+03   -0.46709E-01   -0.46032E-01  9568   0.217E+01 0.159E-01
CGA:  15    -0.311604592860E+03   -0.37806E-01   -0.40884E-01  9568   0.197E+01-0.683E-01
CGA:  16    -0.311633972584E+03   -0.29380E-01   -0.30104E-01  9568   0.140E+01-0.293E-01
CGA:  17    -0.311668357582E+03   -0.34385E-01   -0.33760E-01  9568   0.203E+01-0.913E-02
CGA:  18    -0.311708197811E+03   -0.39840E-01   -0.39416E-01  9568   0.164E+01 0.730E-03
CGA:  19    -0.311729329905E+03   -0.21132E-01   -0.23453E-01  9568   0.910E+00-0.102E+00
CGA:  20    -0.311753853536E+03   -0.24524E-01   -0.24721E-01  9568   0.114E+01 0.287E-01
CGA:  21    -0.311771014521E+03   -0.17161E-01   -0.15853E-01  9568   0.361E+00 0.639E-01
CGA:  22    -0.311781021026E+03   -0.10007E-01   -0.99745E-02  9568   0.579E+00-0.214E-02
CGA:  23    -0.311795710376E+03   -0.14689E-01   -0.14906E-01  9568   0.607E+00 0.157E-01
CGA:  24    -0.311811198615E+03   -0.15488E-01   -0.15634E-01  9568   0.448E+00 0.916E-02
CGA:  25    -0.311819917313E+03   -0.87187E-02   -0.87016E-02  9568   0.283E+00 0.777E-03
CGA:  26    -0.311827434369E+03   -0.75171E-02   -0.75542E-02  9568   0.253E+00 0.540E-02
CGA:  27    -0.311832439958E+03   -0.50056E-02   -0.50360E-02  9568   0.106E+00 0.293E-03
CGA:  28    -0.311836304721E+03   -0.38648E-02   -0.39453E-02  9568   0.212E+00-0.695E-02
CGA:  29    -0.311841879007E+03   -0.55743E-02   -0.55740E-02  9568   0.229E+00-0.148E-03
CGA:  30    -0.311846054444E+03   -0.41754E-02   -0.46293E-02  9568   0.748E-01 0.517E-02
CGA:  31    -0.311848345554E+03   -0.22911E-02   -0.22895E-02  9568   0.625E-01 0.768E-03
SDA:  32    -0.311849815302E+03   -0.14697E-02   -0.14578E-02  9568   0.372E-01-0.544E-03
CGA:  33    -0.311850749022E+03   -0.93372E-03   -0.93352E-03  9568   0.278E-01-0.264E-04
CGA:  34    -0.311851950406E+03   -0.12014E-02   -0.12073E-02  9568   0.341E-01-0.333E-03
CGA:  35    -0.311853844720E+03   -0.18943E-02   -0.18885E-02  9568   0.472E-01 0.206E-03
CGA:  36    -0.311855229618E+03   -0.13849E-02   -0.13843E-02  9568   0.215E-01-0.199E-03
CGA:  37    -0.311855922359E+03   -0.69274E-03   -0.69385E-03  9568   0.964E-02-0.295E-03
CGA:  38    -0.311856772591E+03   -0.85023E-03   -0.83871E-03  9568   0.753E-02 0.219E-03
CGA:  39    -0.311857036716E+03   -0.26412E-03   -0.26414E-03  9568   0.103E-01-0.443E-05
CGA:  40    -0.311857573328E+03   -0.53661E-03   -0.53613E-03  9568   0.664E-02 0.168E-04
CGA:  41    -0.311857792920E+03   -0.21959E-03   -0.21974E-03  9568   0.955E-02 0.408E-04
CGA:  42    -0.311858409707E+03   -0.61679E-03   -0.66791E-03  9568   0.790E-02-0.155E-02
CGA:  43    -0.311858618744E+03   -0.20904E-03   -0.21068E-03  9568   0.344E-02 0.127E-03
CGA:  44    -0.311858773405E+03   -0.15466E-03   -0.15551E-03  9568   0.358E-02-0.710E-04
CGA:  45    -0.311858911560E+03   -0.13816E-03   -0.13790E-03  9568   0.303E-02 0.492E-04
CGA:  46    -0.311859065139E+03   -0.15358E-03   -0.15498E-03  9568   0.256E-02-0.765E-04
CGA:  47    -0.311859123927E+03   -0.58788E-04   -0.59371E-04  9568   0.147E-02 0.652E-05
CGA:  48    -0.311859208278E+03   -0.84350E-04   -0.83817E-04  9568   0.213E-02 0.241E-04
CGA:  49    -0.311859273485E+03   -0.65208E-04   -0.64982E-04  9568   0.120E-02 0.954E-06
CGA:  50    -0.311859325416E+03   -0.51931E-04   -0.51867E-04  9568   0.104E-02 0.704E-05
CGA:  51    -0.311859374426E+03   -0.49011E-04   -0.49097E-04  9568   0.102E-02-0.686E-05
CGA:  52    -0.311859425955E+03   -0.51529E-04   -0.51237E-04  9568   0.112E-02 0.164E-04
CGA:  53    -0.311859455886E+03   -0.29931E-04   -0.29759E-04  9568   0.392E-03-0.891E-06
CGA:  54    -0.311859473013E+03   -0.17126E-04   -0.17120E-04  9568   0.639E-03 0.963E-07
CGA:  55    -0.311859497914E+03   -0.24902E-04   -0.24900E-04  9568   0.519E-03 0.179E-05
CGA:  56    -0.311859524116E+03   -0.26202E-04   -0.26150E-04  9568   0.587E-03 0.393E-05
CGA:  57    -0.311859542127E+03   -0.18011E-04   -0.18070E-04  9568   0.261E-03 0.445E-05
CGA:  58    -0.311859554983E+03   -0.12856E-04   -0.12799E-04  9568   0.264E-03 0.500E-05
CGA:  59    -0.311859566555E+03   -0.11572E-04   -0.11543E-04  9568   0.246E-03 0.588E-05
CGA:  60    -0.311859580992E+03   -0.14437E-04   -0.14312E-04  9568   0.383E-03 0.667E-05
CGA:  61    -0.311859595865E+03   -0.14873E-04   -0.14886E-04  9568   0.200E-03 0.571E-05
CGA:  62    -0.311859602366E+03   -0.65001E-05   -0.65214E-05  9568   0.180E-03 0.225E-05
   4 F= -.31185960E+03 E0= -.31183542E+03  d E =-.815580E+00  mag=    25.0612
       N       E                     dE             d eps       ncg     rms          ort
SDA:   1    -0.287217343023E+03    0.24642E+02    0.00000E+00  9568   0.242E+03 0.000E+00
CGA:   2    -0.292545960834E+03   -0.53286E+01   -0.58946E+01  9568   0.116E+03-0.292E+02
CGA:   3    -0.298292709614E+03   -0.57467E+01   -0.52836E+01  9568   0.139E+03 0.284E+02
CGA:   4    -0.302007882351E+03   -0.37152E+01   -0.46466E+01  9568   0.161E+03 0.146E+01
CGA:   5    -0.305127177714E+03   -0.31193E+01   -0.27268E+01  9568   0.825E+02-0.167E+02
CGA:   6    -0.307998294745E+03   -0.28711E+01   -0.16009E+01  9568   0.406E+02 0.261E+02
CGA:   7    -0.308471954501E+03   -0.47366E+00   -0.96473E+00  9568   0.883E+02-0.129E+02
CGA:   8    -0.308935661089E+03   -0.46371E+00   -0.36120E+00  9568   0.504E+02 0.119E+02
CGA:   9    -0.309359569213E+03   -0.42391E+00   -0.84074E+00  9568   0.125E+03-0.180E+02
CGA:  10    -0.309930638438E+03   -0.57107E+00   -0.44013E+00  9568   0.921E+02 0.174E+02
CGA:  11    -0.310293591995E+03   -0.36295E+00   -0.86340E+00  9568   0.120E+03-0.526E+02
CGA:  12    -0.311222002861E+03   -0.92841E+00   -0.15633E+01  9568   0.229E+02-0.396E+02
CGA:  13    -0.311508769242E+03   -0.28677E+00   -0.25971E+00  9568   0.269E+01 0.476E+00
CGA:  14    -0.311584077999E+03   -0.75309E-01   -0.75650E-01  9568   0.385E+01 0.936E-01
CGA:  15    -0.311775657981E+03   -0.19158E+00   -0.19562E+00  9568   0.886E+01-0.173E+00
CGA:  16    -0.311955526478E+03   -0.17987E+00   -0.17832E+00  9568   0.370E+01-0.448E-01
CGA:  17    -0.312022239651E+03   -0.66713E-01   -0.66461E-01  9568   0.184E+01-0.879E-02
CGA:  18    -0.312060623913E+03   -0.38384E-01   -0.38899E-01  9568   0.120E+01 0.107E-01
CGA:  19    -0.312087263985E+03   -0.26640E-01   -0.27084E-01  9568   0.671E+00 0.160E-01
CGA:  20    -0.312117713788E+03   -0.30450E-01   -0.29963E-01  9568   0.163E+01 0.271E-01
CGA:  21    -0.312171504148E+03   -0.53790E-01   -0.53920E-01  9568   0.131E+01-0.288E-01
CGA:  22    -0.312193543472E+03   -0.22039E-01   -0.23871E-01  9568   0.444E+00-0.108E-01
CGA:  23    -0.312204950267E+03   -0.11407E-01   -0.11456E-01  9568   0.371E+00 0.750E-02
CGA:  24    -0.312214318647E+03   -0.93684E-02   -0.93712E-02  9568   0.258E+00 0.462E-03
CGA:  25    -0.312223082510E+03   -0.87639E-02   -0.86109E-02  9568   0.269E+00 0.200E-01
CGA:  26    -0.312233076942E+03   -0.99944E-02   -0.99704E-02  9568   0.244E+00 0.280E-02
CGA:  27    -0.312239519867E+03   -0.64429E-02   -0.64337E-02  9568   0.164E+00-0.132E-02
CGA:  28    -0.312244343474E+03   -0.48236E-02   -0.48156E-02  9568   0.970E-01 0.539E-02
CGA:  29    -0.312247328487E+03   -0.29850E-02   -0.29837E-02  9568   0.588E-01 0.750E-03
CGA:  30    -0.312249105560E+03   -0.17771E-02   -0.17771E-02  9568   0.564E-01 0.147E-04
CGA:  31    -0.312251212162E+03   -0.21066E-02   -0.20963E-02  9568   0.554E-01 0.909E-03
CGA:  32    -0.312253526579E+03   -0.23144E-02   -0.23196E-02  9568   0.477E-01-0.328E-03
CGA:  33    -0.312255193224E+03   -0.16666E-02   -0.16616E-02  9568   0.272E-01 0.647E-03
CGA:  34    -0.312255892685E+03   -0.69946E-03   -0.70067E-03  9568   0.199E-01 0.986E-04
CGA:  35    -0.312256703908E+03   -0.81122E-03   -0.81171E-03  9568   0.200E-01-0.256E-04
CGA:  36    -0.312257505903E+03   -0.80199E-03   -0.79842E-03  9568   0.159E-01 0.286E-03
CGA:  37    -0.312258257669E+03   -0.75177E-03   -0.75024E-03  9568   0.180E-01 0.922E-04
CGA:  38    -0.312258812186E+03   -0.55452E-03   -0.55442E-03  9568   0.132E-01-0.213E-04
CGA:  39    -0.312259172576E+03   -0.36039E-03   -0.36052E-03  9568   0.628E-02 0.245E-04
CGA:  40    -0.312259417732E+03   -0.24516E-03   -0.24479E-03  9568   0.521E-02 0.398E-04
CGA:  41    -0.312259736910E+03   -0.31918E-03   -0.31715E-03  9568   0.878E-02 0.698E-04
SDA:  42    -0.312260085549E+03   -0.34864E-03   -0.34810E-03  9568   0.867E-02 0.696E-04
CGA:  43    -0.312260202847E+03   -0.11730E-03   -0.11686E-03  9568   0.200E-02 0.188E-04
CGA:  44    -0.312260348437E+03   -0.14559E-03   -0.14544E-03  9568   0.138E-02 0.395E-05
CGA:  45    -0.312260484468E+03   -0.13603E-03   -0.13591E-03  9568   0.353E-02 0.299E-05
CGA:  46    -0.312260653813E+03   -0.16935E-03   -0.16940E-03  9568   0.370E-02-0.592E-05
CGA:  47    -0.312260798850E+03   -0.14504E-03   -0.14505E-03  9568   0.227E-02-0.115E-04
CGA:  48    -0.312260933928E+03   -0.13508E-03   -0.13481E-03  9568   0.135E-02 0.114E-04
CGA:  49    -0.312261012506E+03   -0.78578E-04   -0.78399E-04  9568   0.345E-02 0.896E-05
CGA:  50    -0.312261116016E+03   -0.10351E-03   -0.10381E-03  9568   0.119E-02 0.141E-04
CGA:  51    -0.312261255879E+03   -0.13986E-03   -0.14035E-03  9568   0.109E-02-0.939E-05
CGA:  52    -0.312261303780E+03   -0.47901E-04   -0.47900E-04  9568   0.156E-02 0.196E-05
CGA:  53    -0.312261370635E+03   -0.66855E-04   -0.66847E-04  9568   0.126E-02-0.456E-05
CGA:  54    -0.312261408561E+03   -0.37926E-04   -0.37980E-04  9568   0.816E-03 0.130E-05
CGA:  55    -0.312261432808E+03   -0.24248E-04   -0.24326E-04  9568   0.509E-03 0.219E-05
CGA:  56    -0.312261477732E+03   -0.44924E-04   -0.44311E-04  9568   0.473E-03 0.137E-04
CGA:  57    -0.312261506077E+03   -0.28345E-04   -0.28274E-04  9568   0.763E-03 0.472E-05
CGA:  58    -0.312261522973E+03   -0.16896E-04   -0.16997E-04  9568   0.309E-03 0.222E-05
CGA:  59    -0.312261554448E+03   -0.31475E-04   -0.31200E-04  9568   0.187E-03 0.473E-05
CGA:  60    -0.312261560089E+03   -0.56411E-05   -0.56462E-05  9568   0.176E-03 0.143E-06
CGA:  61    -0.312261570453E+03   -0.10364E-04   -0.10383E-04  9568   0.211E-03-0.155E-05
CGA:  62    -0.312261576494E+03   -0.60409E-05   -0.60286E-05  9568   0.189E-03-0.824E-06
   5 F= -.31226158E+03 E0= -.31223947E+03  d E =-.401974E+00  mag=    24.6458
       N       E                     dE             d eps       ncg     rms          ort
SDA:   1    -0.295184491812E+03    0.17077E+02    0.00000E+00  9568   0.163E+03 0.000E+00
CGA:   2    -0.297899521688E+03   -0.27150E+01   -0.42721E+01  9568   0.110E+03-0.284E+02
CGA:   3    -0.302545238236E+03   -0.46457E+01   -0.50536E+01  9568   0.146E+03-0.270E+02
CGA:   4    -0.306503737649E+03   -0.39585E+01   -0.33490E+01  9568   0.973E+02-0.319E+02
CGA:   5    -0.308873710605E+03   -0.23700E+01   -0.24071E+01  9568   0.373E+02-0.136E+01
CGA:   6    -0.309684363625E+03   -0.81065E+00   -0.80734E+00  9568   0.233E+02-0.130E+01
CGA:   7    -0.310678477964E+03   -0.99411E+00   -0.99670E+00  9568   0.344E+02-0.107E+01
CGA:   8    -0.311521107303E+03   -0.84263E+00   -0.83918E+00  9568   0.103E+02-0.540E+00
CGA:   9    -0.311770301512E+03   -0.24919E+00   -0.25954E+00  9568   0.555E+01-0.149E+00
CGA:  10    -0.311962869536E+03   -0.19257E+00   -0.19254E+00  9568   0.396E+01-0.112E-01
CGA:  11    -0.312075706275E+03   -0.11284E+00   -0.10799E+00  9568   0.261E+01 0.463E-02
CGA:  12    -0.312162153018E+03   -0.86447E-01   -0.85481E-01  9568   0.317E+01-0.370E-01
CGA:  13    -0.312256486137E+03   -0.94333E-01   -0.94054E-01  9568   0.154E+01-0.135E-01
CGA:  14    -0.312289428976E+03   -0.32943E-01   -0.33248E-01  9568   0.733E+00-0.823E-02
CGA:  15    -0.312318494374E+03   -0.29065E-01   -0.28988E-01  9568   0.699E+00 0.364E-01
CGA:  16    -0.312338510757E+03   -0.20016E-01   -0.19075E-01  9568   0.757E+00-0.158E-02
CGA:  17    -0.312368493516E+03   -0.29983E-01   -0.29870E-01  9568   0.822E+00 0.416E-01
CGA:  18    -0.312385987614E+03   -0.17494E-01   -0.17913E-01  9568   0.280E+00-0.900E-02
CGA:  19    -0.312396715707E+03   -0.10728E-01   -0.10713E-01  9568   0.231E+00 0.574E-02
CGA:  20    -0.312402648359E+03   -0.59327E-02   -0.59914E-02  9568   0.187E+00 0.159E-03
CGA:  21    -0.312411485936E+03   -0.88376E-02   -0.85880E-02  9568   0.174E+00 0.187E-01
CGA:  22    -0.312416475021E+03   -0.49891E-02   -0.49201E-02  9568   0.110E+00-0.543E-03
CGA:  23    -0.312422743377E+03   -0.62684E-02   -0.59983E-02  9568   0.754E-01 0.119E-01
CGA:  24    -0.312424715258E+03   -0.19719E-02   -0.19954E-02  9568   0.566E-01-0.113E-03
CGA:  25    -0.312427202678E+03   -0.24874E-02   -0.24816E-02  9568   0.380E-01 0.518E-03
CGA:  26    -0.312428668702E+03   -0.14660E-02   -0.14649E-02  9568   0.401E-01 0.604E-03
CGA:  27    -0.312430271205E+03   -0.16025E-02   -0.16032E-02  9568   0.254E-01-0.175E-03
CGA:  28    -0.312431001738E+03   -0.73053E-03   -0.73316E-03  9568   0.182E-01 0.716E-04
CGA:  29    -0.312431676717E+03   -0.67498E-03   -0.67492E-03  9568   0.107E-01 0.315E-03
CGA:  30    -0.312432125864E+03   -0.44915E-03   -0.44882E-03  9568   0.103E-01 0.518E-04
CGA:  31    -0.312432508103E+03   -0.38224E-03   -0.38227E-03  9568   0.966E-02 0.447E-04
SDA:  32    -0.312432901064E+03   -0.39296E-03   -0.39280E-03  9568   0.809E-02 0.377E-04
CGA:  33    -0.312433017832E+03   -0.11677E-03   -0.11662E-03  9568   0.201E-02 0.419E-05
CGA:  34    -0.312433121792E+03   -0.10396E-03   -0.10396E-03  9568   0.269E-02-0.867E-06
CGA:  35    -0.312433260790E+03   -0.13900E-03   -0.13864E-03  9568   0.474E-02 0.190E-04
CGA:  36    -0.312433588917E+03   -0.32813E-03   -0.33056E-03  9568   0.198E-02-0.739E-04
CGA:  37    -0.312433739058E+03   -0.15014E-03   -0.14858E-03  9568   0.224E-02 0.424E-04
CGA:  38    -0.312433790010E+03   -0.50952E-04   -0.51006E-04  9568   0.142E-02 0.695E-05
CGA:  39    -0.312433879581E+03   -0.89572E-04   -0.89424E-04  9568   0.194E-02 0.647E-05
CGA:  40    -0.312433949221E+03   -0.69640E-04   -0.69716E-04  9568   0.170E-02 0.681E-05
CGA:  41    -0.312434078866E+03   -0.12964E-03   -0.12974E-03  9568   0.128E-02-0.294E-05
CGA:  42    -0.312434128986E+03   -0.50120E-04   -0.50095E-04  9568   0.114E-02-0.711E-05
CGA:  43    -0.312434162060E+03   -0.33074E-04   -0.33001E-04  9568   0.100E-02-0.743E-05
CGA:  44    -0.312434214902E+03   -0.52842E-04   -0.53070E-04  9568   0.601E-03-0.182E-04
CGA:  45    -0.312434234103E+03   -0.19200E-04   -0.19201E-04  9568   0.505E-03-0.293E-05
CGA:  46    -0.312434274200E+03   -0.40097E-04   -0.40168E-04  9568   0.430E-03-0.207E-05
CGA:  47    -0.312434289634E+03   -0.15434E-04   -0.15457E-04  9568   0.489E-03 0.231E-05
CGA:  48    -0.312434302405E+03   -0.12771E-04   -0.12836E-04  9568   0.127E-03 0.304E-05
CGA:  49    -0.312434311148E+03   -0.87434E-05   -0.86783E-05  9568   0.231E-03 0.220E-05
   6 F= -.31243431E+03 E0= -.31241237E+03  d E =-.172735E+00  mag=    24.6435
       N       E                     dE             d eps       ncg     rms          ort
SDA:   1    -0.290941067308E+03    0.21493E+02    0.00000E+00  9568   0.141E+03 0.000E+00
CGA:   2    -0.293949983304E+03   -0.30089E+01   -0.37613E+01  9568   0.128E+03-0.261E+02
CGA:   3    -0.302142201748E+03   -0.81922E+01   -0.76517E+01  9568   0.101E+03 0.503E+01
CGA:   4    -0.305951955342E+03   -0.38098E+01   -0.25975E+01  9568   0.596E+02-0.295E+02
CGA:   5    -0.308084959855E+03   -0.21330E+01   -0.30937E+01  9568   0.155E+03-0.264E+02
CGA:   6    -0.310055294700E+03   -0.19703E+01   -0.18901E+01  9568   0.401E+02-0.454E+00
CGA:   7    -0.310768988450E+03   -0.71369E+00   -0.98029E+00  9568   0.116E+02-0.275E+01
CGA:   8    -0.311177631685E+03   -0.40864E+00   -0.41138E+00  9568   0.166E+02 0.194E+00
CGA:   9    -0.311615239760E+03   -0.43761E+00   -0.39229E+00  9568   0.768E+01 0.819E+00
CGA:  10    -0.311850247946E+03   -0.23501E+00   -0.24680E+00  9568   0.852E+01 0.144E+00
CGA:  11    -0.312081544240E+03   -0.23130E+00   -0.24323E+00  9568   0.708E+01 0.379E-01
CGA:  12    -0.312221359956E+03   -0.13982E+00   -0.13010E+00  9568   0.225E+01 0.241E+00
CGA:  13    -0.312266591201E+03   -0.45231E-01   -0.48384E-01  9568   0.104E+01-0.609E-01
CGA:  14    -0.312358257829E+03   -0.91667E-01   -0.10657E+00  9568   0.359E+01-0.298E+00
CGA:  15    -0.312388059153E+03   -0.29801E-01   -0.27060E-01  9568   0.207E+01 0.195E+00
CGA:  16    -0.312415578736E+03   -0.27520E-01   -0.32399E-01  9568   0.190E+01-0.226E+00
CGA:  17    -0.312439476880E+03   -0.23898E-01   -0.26997E-01  9568   0.933E+00-0.124E+00
CGA:  18    -0.312458684081E+03   -0.19207E-01   -0.19036E-01  9568   0.106E+01 0.497E-02
CGA:  19    -0.312472884588E+03   -0.14201E-01   -0.12902E-01  9568   0.413E+00 0.831E-01
CGA:  20    -0.312480142488E+03   -0.72579E-02   -0.73234E-02  9568   0.556E+00-0.265E-02
CGA:  21    -0.312498964319E+03   -0.18822E-01   -0.18835E-01  9568   0.130E+01 0.118E-01
CGA:  22    -0.312517296891E+03   -0.18333E-01   -0.19957E-01  9568   0.424E+00-0.611E-01
CGA:  23    -0.312524999628E+03   -0.77027E-02   -0.80221E-02  9568   0.354E+00-0.426E-02
CGA:  24    -0.312531843359E+03   -0.68437E-02   -0.70034E-02  9568   0.150E+00-0.184E-02
CGA:  25    -0.312534971771E+03   -0.31284E-02   -0.31878E-02  9568   0.120E+00-0.454E-04
CGA:  26    -0.312539200572E+03   -0.42288E-02   -0.42219E-02  9568   0.134E+00 0.123E-02
CGA:  27    -0.312543165848E+03   -0.39653E-02   -0.39645E-02  9568   0.146E+00-0.124E-03
CGA:  28    -0.312548091192E+03   -0.49253E-02   -0.49219E-02  9568   0.867E-01 0.983E-03
CGA:  29    -0.312549766176E+03   -0.16750E-02   -0.16847E-02  9568   0.478E-01-0.129E-03
CGA:  30    -0.312551139709E+03   -0.13735E-02   -0.13749E-02  9568   0.280E-01 0.230E-03
CGA:  31    -0.312552211503E+03   -0.10718E-02   -0.10700E-02  9568   0.422E-01 0.171E-03
SDA:  32    -0.312553443229E+03   -0.12317E-02   -0.12319E-02  9568   0.200E-01 0.265E-04
CGA:  33    -0.312554003531E+03   -0.56030E-03   -0.56036E-03  9568   0.155E-01 0.793E-05
CGA:  34    -0.312554562456E+03   -0.55892E-03   -0.56054E-03  9568   0.107E-01-0.209E-03
CGA:  35    -0.312554967366E+03   -0.40491E-03   -0.40483E-03  9568   0.152E-01 0.123E-04
CGA:  36    -0.312555763700E+03   -0.79633E-03   -0.79465E-03  9568   0.646E-02 0.717E-04
CGA:  37    -0.312556169384E+03   -0.40568E-03   -0.40445E-03  9568   0.599E-02 0.403E-04
CGA:  38    -0.312556420121E+03   -0.25074E-03   -0.25059E-03  9568   0.518E-02 0.147E-04
CGA:  39    -0.312556519679E+03   -0.99558E-04   -0.99492E-04  9568   0.140E-02 0.821E-06
CGA:  40    -0.312556654315E+03   -0.13464E-03   -0.13483E-03  9568   0.333E-02-0.421E-05
CGA:  41    -0.312556785604E+03   -0.13129E-03   -0.13121E-03  9568   0.292E-02 0.165E-04
CGA:  42    -0.312556951700E+03   -0.16610E-03   -0.16644E-03  9568   0.670E-03-0.161E-04
CGA:  43    -0.312556983547E+03   -0.31847E-04   -0.31856E-04  9568   0.182E-02-0.155E-05
CGA:  44    -0.312557096695E+03   -0.11315E-03   -0.11301E-03  9568   0.130E-02 0.398E-05
CGA:  45    -0.312557161180E+03   -0.64485E-04   -0.64616E-04  9568   0.122E-02-0.104E-04
CGA:  46    -0.312557198115E+03   -0.36936E-04   -0.36993E-04  9568   0.466E-03-0.283E-06
CGA:  47    -0.312557221838E+03   -0.23722E-04   -0.23716E-04  9568   0.527E-03-0.385E-08
CGA:  48    -0.312557250280E+03   -0.28442E-04   -0.28454E-04  9568   0.112E-02-0.124E-05
CGA:  49    -0.312557281307E+03   -0.31027E-04   -0.31055E-04  9568   0.188E-03-0.217E-05
CGA:  50    -0.312557299167E+03   -0.17860E-04   -0.18017E-04  9568   0.169E-03-0.305E-05
CGA:  51    -0.312557305386E+03   -0.62184E-05   -0.62103E-05  9568   0.270E-03-0.180E-05
CGA:  52    -0.312557315916E+03   -0.10531E-04   -0.10523E-04  9568   0.162E-03-0.296E-05
CGA:  53    -0.312557326139E+03   -0.10222E-04   -0.10253E-04  9568   0.150E-03-0.168E-05
CGA:  54    -0.312557329632E+03   -0.34929E-05   -0.34941E-05  9568   0.481E-04-0.400E-06
   7 F= -.31255733E+03 E0= -.31253533E+03  d E =-.123018E+00  mag=    24.6476
       N       E                     dE             d eps       ncg     rms          ort
SDA:   1    -0.250998871040E+03    0.61558E+02    0.00000E+00  9568   0.324E+03 0.000E+00
CGA:   2    -0.272712859933E+03   -0.21714E+02   -0.22280E+02  9568   0.309E+03 0.461E+01
CGA:   3    -0.291699441188E+03   -0.18987E+02   -0.17980E+02  9568   0.898E+02 0.199E+02
CGA:   4    -0.293487488573E+03   -0.17880E+01   -0.71971E+01  9568   0.419E+03-0.844E+02
CGA:   5    -0.301639722277E+03   -0.81522E+01   -0.11351E+02  9568   0.578E+02-0.473E+02
CGA:   6    -0.304385212204E+03   -0.27455E+01   -0.22324E+01  9568   0.662E+02-0.324E+02
CGA:   7    -0.305501981415E+03   -0.11168E+01   -0.13413E+01  9568   0.368E+02-0.122E+02
CGA:   8    -0.306675044354E+03   -0.11731E+01   -0.11867E+01  9568   0.454E+02 0.303E+00
CGA:   9    -0.308603943415E+03   -0.19289E+01   -0.19546E+01  9568   0.116E+03 0.257E+01
CGA:  10    -0.309736744055E+03   -0.11328E+01   -0.26806E+01  9568   0.129E+03-0.397E+02
CGA:  11    -0.310217451145E+03   -0.48071E+00   -0.12625E+01  9568   0.101E+03-0.451E+02
CGA:  12    -0.310993997573E+03   -0.77655E+00   -0.94524E+00  9568   0.292E+02-0.122E+02
CGA:  13    -0.311287887310E+03   -0.29389E+00   -0.31485E+00  9568   0.510E+01-0.793E+00
CGA:  14    -0.311400040351E+03   -0.11215E+00   -0.11246E+00  9568   0.691E+01-0.301E-01
CGA:  15    -0.311745094705E+03   -0.34505E+00   -0.34524E+00  9568   0.139E+02-0.990E-02
CGA:  16    -0.311943385025E+03   -0.19829E+00   -0.18672E+00  9568   0.357E+01 0.659E+00
CGA:  17    -0.312023870924E+03   -0.80486E-01   -0.78773E-01  9568   0.392E+01 0.438E-01
CGA:  18    -0.312105224768E+03   -0.81354E-01   -0.72916E-01  9568   0.272E+01 0.255E+00
CGA:  19    -0.312144427970E+03   -0.39203E-01   -0.37733E-01  9568   0.225E+01 0.739E-01
CGA:  20    -0.312212566666E+03   -0.68139E-01   -0.68388E-01  9568   0.568E+01 0.112E-01
CGA:  21    -0.312301586633E+03   -0.89020E-01   -0.92305E-01  9568   0.375E+01-0.173E+00
CGA:  22    -0.312348629333E+03   -0.47043E-01   -0.45157E-01  9568   0.208E+01 0.117E+00
CGA:  23    -0.312375936272E+03   -0.27307E-01   -0.22600E-01  9568   0.144E+01 0.348E+00
CGA:  24    -0.312396337474E+03   -0.20401E-01   -0.19743E-01  9568   0.111E+01 0.363E-01
CGA:  25    -0.312409293426E+03   -0.12956E-01   -0.13658E-01  9568   0.921E+00-0.409E-01
CGA:  26    -0.312420243732E+03   -0.10950E-01   -0.11729E-01  9568   0.784E+00-0.355E-01
CGA:  27    -0.312430011798E+03   -0.97681E-02   -0.10465E-01  9568   0.575E+00-0.269E-01
CGA:  28    -0.312438618928E+03   -0.86071E-02   -0.86404E-02  9568   0.587E+00-0.107E-02
CGA:  29    -0.312452706660E+03   -0.14088E-01   -0.14067E-01  9568   0.959E+00-0.158E-02
CGA:  30    -0.312466618560E+03   -0.13912E-01   -0.14106E-01  9568   0.497E+00-0.596E-02
CGA:  31    -0.312472446688E+03   -0.58281E-02   -0.59594E-02  9568   0.278E+00-0.667E-02
CGA:  32    -0.312478075108E+03   -0.56284E-02   -0.57261E-02  9568   0.289E+00 0.445E-02
CGA:  33    -0.312482247327E+03   -0.41722E-02   -0.42061E-02  9568   0.931E-01-0.820E-03
CGA:  34    -0.312484304257E+03   -0.20569E-02   -0.20598E-02  9568   0.137E+00 0.296E-03
CGA:  35    -0.312488961077E+03   -0.46568E-02   -0.46354E-02  9568   0.157E+00 0.182E-02
CGA:  36    -0.312491376337E+03   -0.24153E-02   -0.24562E-02  9568   0.671E-01-0.614E-03
SDA:  37    -0.312493153563E+03   -0.17772E-02   -0.17769E-02  9568   0.947E-01 0.134E-03
CGA:  38    -0.312495256958E+03   -0.21034E-02   -0.21011E-02  9568   0.462E-01-0.273E-03
CGA:  39    -0.312498021301E+03   -0.27643E-02   -0.27222E-02  9568   0.280E-01 0.131E-02
CGA:  40    -0.312500015712E+03   -0.19944E-02   -0.19861E-02  9568   0.372E-01 0.224E-03
CGA:  41    -0.312502529332E+03   -0.25136E-02   -0.24803E-02  9568   0.298E-01 0.930E-03
CGA:  42    -0.312503562791E+03   -0.10335E-02   -0.10325E-02  9568   0.229E-01 0.186E-03
CGA:  43    -0.312504434526E+03   -0.87173E-03   -0.87231E-03  9568   0.106E-01-0.529E-04
CGA:  44    -0.312504826630E+03   -0.39210E-03   -0.39157E-03  9568   0.139E-01 0.697E-04
CGA:  45    -0.312505295261E+03   -0.46863E-03   -0.46860E-03  9568   0.409E-02 0.176E-04
CGA:  46    -0.312505767932E+03   -0.47267E-03   -0.47141E-03  9568   0.892E-02 0.154E-04
CGA:  47    -0.312506049509E+03   -0.28158E-03   -0.28186E-03  9568   0.572E-02 0.247E-04
CGA:  48    -0.312506280933E+03   -0.23142E-03   -0.23133E-03  9568   0.489E-02 0.127E-04
CGA:  49    -0.312506441145E+03   -0.16021E-03   -0.16023E-03  9568   0.392E-02 0.224E-06
CGA:  50    -0.312506623851E+03   -0.18271E-03   -0.18217E-03  9568   0.326E-02 0.345E-04
CGA:  51    -0.312506808440E+03   -0.18459E-03   -0.18477E-03  9568   0.118E-02-0.892E-05
CGA:  52    -0.312506860161E+03   -0.51721E-04   -0.51718E-04  9568   0.262E-02 0.209E-06
CGA:  53    -0.312507048437E+03   -0.18828E-03   -0.18829E-03  9568   0.216E-02-0.471E-06
CGA:  54    -0.312507098126E+03   -0.49689E-04   -0.49656E-04  9568   0.846E-03-0.131E-05
CGA:  55    -0.312507153197E+03   -0.55070E-04   -0.55331E-04  9568   0.720E-03-0.969E-05
CGA:  56    -0.312507214374E+03   -0.61178E-04   -0.61674E-04  9568   0.138E-02-0.104E-04
CGA:  57    -0.312507244201E+03   -0.29827E-04   -0.29687E-04  9568   0.450E-03-0.524E-05
CGA:  58    -0.312507261803E+03   -0.17602E-04   -0.17602E-04  9568   0.378E-03-0.348E-06
CGA:  59    -0.312507286876E+03   -0.25073E-04   -0.25013E-04  9568   0.622E-03 0.226E-05
CGA:  60    -0.312507310320E+03   -0.23444E-04   -0.23457E-04  9568   0.206E-03 0.261E-05
CGA:  61    -0.312507322713E+03   -0.12393E-04   -0.12353E-04  9568   0.248E-03 0.218E-05
CGA:  62    -0.312507328761E+03   -0.60475E-05   -0.60706E-05  9568   0.165E-03 0.930E-06
CGA:  63    -0.312507346142E+03   -0.17381E-04   -0.17359E-04  9568   0.256E-03 0.283E-06
CGA:  64    -0.312507354186E+03   -0.80439E-05   -0.80410E-05  9568   0.186E-03-0.121E-06
CGA:  65    -0.312507368184E+03   -0.13998E-04   -0.14059E-04  9568   0.654E-04-0.200E-05
CGA:  66    -0.312507369907E+03   -0.17233E-05   -0.17206E-05  9568   0.711E-04-0.242E-06
   8 F= -.31250737E+03 E0= -.31248579E+03  d E =0.499597E-01  mag=    24.6828
       N       E                     dE             d eps       ncg     rms          ort
SDA:   1    -0.295253529856E+03    0.17254E+02    0.00000E+00  9568   0.654E+02 0.000E+00
CGA:   2    -0.299023818742E+03   -0.37703E+01   -0.36021E+01  9568   0.143E+03 0.136E+02
CGA:   3    -0.305886868691E+03   -0.68630E+01   -0.72763E+01  9568   0.113E+03 0.279E+02
CGA:   4    -0.307312466398E+03   -0.14256E+01   -0.23823E+01  9568   0.141E+03-0.651E+02
CGA:   5    -0.307994162957E+03   -0.68170E+00   -0.29599E+01  9568   0.650E+02-0.503E+02
CGA:   6    -0.309565878360E+03   -0.15717E+01   -0.89849E+00  9568   0.125E+02 0.183E+02
CGA:   7    -0.309818701937E+03   -0.25282E+00   -0.25361E+00  9568   0.160E+02-0.424E+00
CGA:   8    -0.310431419580E+03   -0.61272E+00   -0.61814E+00  9568   0.432E+02 0.114E+01
CGA:   9    -0.311800632115E+03   -0.13692E+01   -0.13468E+01  9568   0.150E+02 0.397E+00
CGA:  10    -0.311938504082E+03   -0.13787E+00   -0.18331E+00  9568   0.560E+01-0.336E+01
CGA:  11    -0.312117176038E+03   -0.17867E+00   -0.17811E+00  9568   0.628E+01 0.256E+00
CGA:  12    -0.312239461351E+03   -0.12229E+00   -0.12273E+00  9568   0.374E+01-0.285E-01
CGA:  13    -0.312423505899E+03   -0.18404E+00   -0.18876E+00  9568   0.182E+01-0.295E+00
CGA:  14    -0.312471862106E+03   -0.48356E-01   -0.48268E-01  9568   0.806E+00-0.302E-02
CGA:  15    -0.312497871185E+03   -0.26009E-01   -0.26196E-01  9568   0.665E+00 0.892E-02
CGA:  16    -0.312550857669E+03   -0.52986E-01   -0.52786E-01  9568   0.487E+00 0.473E-02
CGA:  17    -0.312567514265E+03   -0.16657E-01   -0.16650E-01  9568   0.386E+00-0.198E-03
CGA:  18    -0.312580190963E+03   -0.12677E-01   -0.12679E-01  9568   0.228E+00 0.279E-03
CGA:  19    -0.312588324583E+03   -0.81336E-02   -0.81410E-02  9568   0.329E+00 0.832E-03
CGA:  20    -0.312604880149E+03   -0.16556E-01   -0.16570E-01  9568   0.116E+00-0.898E-03
CGA:  21    -0.312609040509E+03   -0.41604E-02   -0.41669E-02  9568   0.107E+00 0.692E-03
CGA:  22    -0.312615440196E+03   -0.63997E-02   -0.63980E-02  9568   0.908E-01 0.881E-04
CGA:  23    -0.312619411324E+03   -0.39711E-02   -0.39687E-02  9568   0.817E-01 0.548E-03
CGA:  24    -0.312621947026E+03   -0.25357E-02   -0.25370E-02  9568   0.614E-01 0.596E-04
CGA:  25    -0.312624387846E+03   -0.24408E-02   -0.24418E-02  9568   0.573E-01 0.586E-03
CGA:  26    -0.312626861439E+03   -0.24736E-02   -0.24731E-02  9568   0.453E-01 0.147E-03
CGA:  27    -0.312629100945E+03   -0.22395E-02   -0.22320E-02  9568   0.312E-01 0.597E-03
CGA:  28    -0.312630834041E+03   -0.17331E-02   -0.17312E-02  9568   0.400E-01 0.107E-03
CGA:  29    -0.312632069508E+03   -0.12355E-02   -0.12377E-02  9568   0.204E-01 0.312E-04
CGA:  30    -0.312632785589E+03   -0.71608E-03   -0.71633E-03  9568   0.232E-01 0.243E-04
CGA:  31    -0.312633944481E+03   -0.11589E-02   -0.11559E-02  9568   0.129E-01 0.244E-03
CGA:  32    -0.312634650366E+03   -0.70588E-03   -0.70651E-03  9568   0.135E-01-0.283E-04
CGA:  33    -0.312635072403E+03   -0.42204E-03   -0.42242E-03  9568   0.561E-02 0.163E-04
CGA:  34    -0.312635365208E+03   -0.29281E-03   -0.29251E-03  9568   0.112E-01 0.223E-04
SDA:  35    -0.312635751864E+03   -0.38666E-03   -0.38651E-03  9568   0.422E-02-0.705E-05
CGA:  36    -0.312635849739E+03   -0.97875E-04   -0.97951E-04  9568   0.255E-02-0.761E-06
CGA:  37    -0.312635965100E+03   -0.11536E-03   -0.11541E-03  9568   0.305E-02-0.761E-05
CGA:  38    -0.312636119540E+03   -0.15444E-03   -0.15455E-03  9568   0.497E-02-0.979E-05
CGA:  39    -0.312636313217E+03   -0.19368E-03   -0.19365E-03  9568   0.173E-02-0.102E-04
CGA:  40    -0.312636393972E+03   -0.80755E-04   -0.80771E-04  9568   0.637E-03-0.278E-05
CGA:  41    -0.312636433016E+03   -0.39044E-04   -0.39024E-04  9568   0.610E-03 0.367E-06
CGA:  42    -0.312636446516E+03   -0.13500E-04   -0.13474E-04  9568   0.427E-03-0.829E-06
CGA:  43    -0.312636502088E+03   -0.55572E-04   -0.55760E-04  9568   0.353E-03-0.231E-05
CGA:  44    -0.312636520397E+03   -0.18309E-04   -0.18322E-04  9568   0.322E-03-0.242E-05
CGA:  45    -0.312636530199E+03   -0.98023E-05   -0.97868E-05  9568   0.196E-03-0.135E-05
CGA:  46    -0.312636550718E+03   -0.20519E-04   -0.20674E-04  9568   0.191E-03-0.275E-05
CGA:  47    -0.312636555913E+03   -0.51955E-05   -0.52009E-05  9568   0.217E-03 0.480E-07
CGA:  48    -0.312636568848E+03   -0.12934E-04   -0.12914E-04  9568   0.815E-04 0.146E-05
CGA:  49    -0.312636575128E+03   -0.62798E-05   -0.62172E-05  9568   0.573E-04 0.207E-05
   9 F= -.31263658E+03 E0= -.31261544E+03  d E =-.129205E+00  mag=    24.6846
       N       E                     dE             d eps       ncg     rms          ort
SDA:   1    -0.311928165659E+03    0.70840E+00    0.00000E+00  9568   0.540E+01 0.000E+00
CGA:   2    -0.312060283795E+03   -0.13212E+00   -0.15386E+00  9568   0.405E+01-0.239E+00
CGA:   3    -0.312311712338E+03   -0.25143E+00   -0.24923E+00  9568   0.473E+01 0.109E+00
CGA:   4    -0.312463657957E+03   -0.15195E+00   -0.15464E+00  9568   0.294E+01-0.211E-01
CGA:   5    -0.312531120114E+03   -0.67462E-01   -0.66572E-01  9568   0.892E+00 0.190E-01
CGA:   6    -0.312580580031E+03   -0.49460E-01   -0.49467E-01  9568   0.112E+01-0.361E-03
CGA:   7    -0.312624073965E+03   -0.43494E-01   -0.43699E-01  9568   0.644E+00 0.577E-02
CGA:   8    -0.312651714063E+03   -0.27640E-01   -0.27535E-01  9568   0.280E+00-0.772E-02
CGA:   9    -0.312657616360E+03   -0.59023E-02   -0.60371E-02  9568   0.162E+00-0.356E-02
CGA:  10    -0.312665941561E+03   -0.83252E-02   -0.83304E-02  9568   0.128E+00-0.491E-03
CGA:  11    -0.312669914527E+03   -0.39730E-02   -0.39661E-02  9568   0.628E-01 0.975E-05
CGA:  12    -0.312672711384E+03   -0.27969E-02   -0.27967E-02  9568   0.261E-01-0.813E-04
CGA:  13    -0.312673947105E+03   -0.12357E-02   -0.12363E-02  9568   0.215E-01-0.155E-03
CGA:  14    -0.312674700690E+03   -0.75359E-03   -0.75298E-03  9568   0.201E-01-0.557E-05
CGA:  15    -0.312675500484E+03   -0.79979E-03   -0.80045E-03  9568   0.173E-01 0.527E-04
CGA:  16    -0.312675994166E+03   -0.49368E-03   -0.49367E-03  9568   0.873E-02-0.714E-06
CGA:  17    -0.312676478708E+03   -0.48454E-03   -0.48315E-03  9568   0.467E-02 0.905E-04
CGA:  18    -0.312676745563E+03   -0.26685E-03   -0.26691E-03  9568   0.800E-02-0.126E-05
CGA:  19    -0.312677186736E+03   -0.44117E-03   -0.44117E-03  9568   0.561E-02 0.906E-06
CGA:  20    -0.312677396423E+03   -0.20969E-03   -0.20974E-03  9568   0.465E-02 0.338E-05
CGA:  21    -0.312677518034E+03   -0.12161E-03   -0.12186E-03  9568   0.276E-02-0.224E-06
CGA:  22    -0.312677698695E+03   -0.18066E-03   -0.18046E-03  9568   0.352E-02 0.776E-05
CGA:  23    -0.312677848461E+03   -0.14977E-03   -0.14978E-03  9568   0.282E-02 0.248E-05
CGA:  24    -0.312677965557E+03   -0.11710E-03   -0.11714E-03  9568   0.101E-02 0.525E-05
CGA:  25    -0.312678016920E+03   -0.51363E-04   -0.51347E-04  9568   0.162E-02 0.239E-05
CGA:  26    -0.312678066122E+03   -0.49202E-04   -0.49194E-04  9568   0.833E-03-0.502E-06
CGA:  27    -0.312678099692E+03   -0.33570E-04   -0.33575E-04  9568   0.767E-03 0.827E-06
CGA:  28    -0.312678129950E+03   -0.30258E-04   -0.30264E-04  9568   0.382E-03 0.973E-06
CGA:  29    -0.312678150380E+03   -0.20430E-04   -0.20427E-04  9568   0.229E-03 0.192E-06
CGA:  30    -0.312678158417E+03   -0.80364E-05   -0.80383E-05  9568   0.206E-03-0.247E-07
  10 F= -.31267816E+03 E0= -.31265693E+03  d E =-.415833E-01  mag=    24.6839
       N       E                     dE             d eps       ncg     rms          ort
SDA:   1    -0.311856417910E+03    0.82173E+00    0.00000E+00  9568   0.746E+01 0.000E+00
CGA:   2    -0.312004984404E+03   -0.14857E+00   -0.17207E+00  9568   0.457E+01-0.459E+00
CGA:   3    -0.312193942500E+03   -0.18896E+00   -0.18893E+00  9568   0.490E+01 0.122E-01
CGA:   4    -0.312445070043E+03   -0.25113E+00   -0.24913E+00  9568   0.332E+01 0.169E+00
CGA:   5    -0.312518241633E+03   -0.73172E-01   -0.70548E-01  9568   0.104E+01 0.604E-01
CGA:   6    -0.312593147366E+03   -0.74906E-01   -0.73806E-01  9568   0.126E+01 0.353E-01
CGA:   7    -0.312631792532E+03   -0.38645E-01   -0.37654E-01  9568   0.938E+00-0.150E-03
CGA:   8    -0.312667980786E+03   -0.36188E-01   -0.36280E-01  9568   0.245E+00 0.875E-02
CGA:   9    -0.312674672341E+03   -0.66916E-02   -0.66683E-02  9568   0.194E+00 0.899E-04
CGA:  10    -0.312685552182E+03   -0.10880E-01   -0.10936E-01  9568   0.133E+00-0.292E-02
CGA:  11    -0.312689109572E+03   -0.35574E-02   -0.35177E-02  9568   0.822E-01 0.218E-03
CGA:  12    -0.312692288447E+03   -0.31789E-02   -0.31780E-02  9568   0.251E-01-0.104E-03
CGA:  13    -0.312693169419E+03   -0.88097E-03   -0.87976E-03  9568   0.309E-01-0.551E-04
CGA:  14    -0.312694563984E+03   -0.13946E-02   -0.13942E-02  9568   0.149E-01 0.618E-04
CGA:  15    -0.312695231763E+03   -0.66778E-03   -0.66760E-03  9568   0.199E-01 0.350E-04
CGA:  16    -0.312695864805E+03   -0.63304E-03   -0.63436E-03  9568   0.656E-02 0.374E-04
CGA:  17    -0.312696113438E+03   -0.24863E-03   -0.24864E-03  9568   0.675E-02 0.331E-05
CGA:  18    -0.312696411696E+03   -0.29826E-03   -0.29811E-03  9568   0.702E-02 0.291E-04
CGA:  19    -0.312696774586E+03   -0.36289E-03   -0.36289E-03  9568   0.648E-02 0.173E-05
CGA:  20    -0.312696963504E+03   -0.18892E-03   -0.18916E-03  9568   0.395E-02 0.585E-05
CGA:  21    -0.312697111422E+03   -0.14792E-03   -0.14791E-03  9568   0.200E-02-0.562E-06
CGA:  22    -0.312697232072E+03   -0.12065E-03   -0.12058E-03  9568   0.491E-02 0.335E-05
CGA:  23    -0.312697435066E+03   -0.20299E-03   -0.20299E-03  9568   0.175E-02-0.461E-05
CGA:  24    -0.312697498213E+03   -0.63146E-04   -0.63183E-04  9568   0.161E-02 0.302E-05
CGA:  25    -0.312697550403E+03   -0.52191E-04   -0.52161E-04  9568   0.738E-03-0.104E-05
CGA:  26    -0.312697595740E+03   -0.45336E-04   -0.45302E-04  9568   0.157E-02 0.166E-05
CGA:  27    -0.312697648070E+03   -0.52330E-04   -0.52320E-04  9568   0.410E-03 0.536E-06
CGA:  28    -0.312697666139E+03   -0.18069E-04   -0.18065E-04  9568   0.559E-03 0.151E-05
CGA:  29    -0.312697683731E+03   -0.17592E-04   -0.17596E-04  9568   0.178E-03 0.679E-06
CGA:  30    -0.312697693286E+03   -0.95547E-05   -0.95431E-05  9568   0.304E-03 0.849E-06
CGA:  31    -0.312697704186E+03   -0.10900E-04   -0.10900E-04  9568   0.163E-03 0.801E-07
SDA:  32    -0.312697711678E+03   -0.74919E-05   -0.74908E-05  9568   0.167E-03 0.190E-06
  11 F= -.31269771E+03 E0= -.31267636E+03  d E =-.195533E-01  mag=    24.6830
       N       E                     dE             d eps       ncg     rms          ort
SDA:   1    -0.311202219444E+03    0.14955E+01    0.00000E+00  9568   0.142E+02 0.000E+00
CGA:   2    -0.311408899338E+03   -0.20668E+00   -0.24440E+00  9568   0.630E+01-0.163E+01
CGA:   3    -0.312053832063E+03   -0.64493E+00   -0.69048E+00  9568   0.155E+02-0.654E+00
CGA:   4    -0.312309435542E+03   -0.25560E+00   -0.29387E+00  9568   0.378E+01-0.103E+01
CGA:   5    -0.312434359558E+03   -0.12492E+00   -0.12183E+00  9568   0.260E+01-0.110E+00
CGA:   6    -0.312544637712E+03   -0.11028E+00   -0.11009E+00  9568   0.288E+01 0.582E-01
CGA:   7    -0.312639489960E+03   -0.94852E-01   -0.93663E-01  9568   0.780E+00-0.228E-01
CGA:   8    -0.312660713851E+03   -0.21224E-01   -0.21834E-01  9568   0.558E+00 0.140E-02
CGA:   9    -0.312680191717E+03   -0.19478E-01   -0.19315E-01  9568   0.281E+00-0.817E-02
CGA:  10    -0.312692946826E+03   -0.12755E-01   -0.12694E-01  9568   0.324E+00 0.715E-02
CGA:  11    -0.312701935807E+03   -0.89890E-02   -0.88502E-02  9568   0.765E-01 0.298E-03
CGA:  12    -0.312704408012E+03   -0.24722E-02   -0.24801E-02  9568   0.611E-01 0.288E-03
CGA:  13    -0.312706895089E+03   -0.24871E-02   -0.24879E-02  9568   0.442E-01-0.506E-03
CGA:  14    -0.312708625126E+03   -0.17300E-02   -0.17303E-02  9568   0.433E-01 0.527E-03
CGA:  15    -0.312710202655E+03   -0.15775E-02   -0.15756E-02  9568   0.173E-01-0.186E-03
CGA:  16    -0.312710639774E+03   -0.43712E-03   -0.43945E-03  9568   0.870E-02 0.138E-05
CGA:  17    -0.312711179861E+03   -0.54009E-03   -0.54201E-03  9568   0.160E-01-0.695E-04
CGA:  18    -0.312711730077E+03   -0.55022E-03   -0.55139E-03  9568   0.642E-02 0.885E-04
CGA:  19    -0.312711940039E+03   -0.20996E-03   -0.20978E-03  9568   0.508E-02-0.530E-05
CGA:  20    -0.312712171423E+03   -0.23138E-03   -0.23093E-03  9568   0.428E-02 0.492E-04
CGA:  21    -0.312712330425E+03   -0.15900E-03   -0.15894E-03  9568   0.390E-02-0.809E-05
CGA:  22    -0.312712521315E+03   -0.19089E-03   -0.19047E-03  9568   0.356E-02 0.319E-04
CGA:  23    -0.312712637982E+03   -0.11667E-03   -0.11656E-03  9568   0.232E-02-0.398E-05
CGA:  24    -0.312712738201E+03   -0.10022E-03   -0.10016E-03  9568   0.208E-02 0.978E-05
CGA:  25    -0.312712815391E+03   -0.77191E-04   -0.77178E-04  9568   0.156E-02-0.176E-05
CGA:  26    -0.312712884002E+03   -0.68611E-04   -0.68584E-04  9568   0.165E-02 0.471E-05
CGA:  27    -0.312712948082E+03   -0.64080E-04   -0.64079E-04  9568   0.935E-03 0.280E-07
CGA:  28    -0.312712974670E+03   -0.26588E-04   -0.26631E-04  9568   0.498E-03 0.183E-05
CGA:  29    -0.312713002824E+03   -0.28153E-04   -0.28123E-04  9568   0.754E-03 0.149E-05
CGA:  30    -0.312713028511E+03   -0.25687E-04   -0.25709E-04  9568   0.357E-03 0.316E-05
CGA:  31    -0.312713042198E+03   -0.13687E-04   -0.13688E-04  9568   0.315E-03 0.607E-06
SDA:  32    -0.312713053280E+03   -0.11082E-04   -0.11087E-04  9568   0.161E-03 0.781E-06
CGA:  33    -0.312713056043E+03   -0.27630E-05   -0.27567E-05  9568   0.782E-04-0.472E-06
  12 F= -.31271306E+03 E0= -.31269165E+03  d E =-.153444E-01  mag=    24.6805
       N       E                     dE             d eps       ncg     rms          ort
SDA:   1    -0.285829147387E+03    0.26884E+02    0.00000E+00  9568   0.167E+03 0.000E+00
CGA:   2    -0.289402906355E+03   -0.35738E+01   -0.46684E+01  9568   0.159E+03 0.495E+01
CGA:   3    -0.295969955314E+03   -0.65670E+01   -0.65684E+01  9568   0.257E+03-0.570E+01
CGA:   4    -0.302658869954E+03   -0.66889E+01   -0.73174E+01  9568   0.183E+03-0.578E+00
CGA:   5    -0.307642359180E+03   -0.49835E+01   -0.51668E+01  9568   0.408E+02-0.119E+02
CGA:   6    -0.309306614013E+03   -0.16643E+01   -0.17248E+01  9568   0.484E+02-0.515E+01
CGA:   7    -0.311027121540E+03   -0.17205E+01   -0.17255E+01  9568   0.249E+02-0.170E+01
CGA:   8    -0.311610698603E+03   -0.58358E+00   -0.63586E+00  9568   0.201E+02-0.148E+00
CGA:   9    -0.312054916544E+03   -0.44422E+00   -0.45569E+00  9568   0.409E+01-0.259E+00
CGA:  10    -0.312240566132E+03   -0.18565E+00   -0.18789E+00  9568   0.571E+01-0.175E+00
CGA:  11    -0.312475587145E+03   -0.23502E+00   -0.23680E+00  9568   0.335E+01-0.212E+00
CGA:  12    -0.312546204025E+03   -0.70617E-01   -0.69001E-01  9568   0.189E+01 0.205E-01
CGA:  13    -0.312593372278E+03   -0.47168E-01   -0.46039E-01  9568   0.834E+00 0.316E-03
CGA:  14    -0.312626405977E+03   -0.33034E-01   -0.32976E-01  9568   0.790E+00 0.134E-01
CGA:  15    -0.312660139969E+03   -0.33734E-01   -0.33989E-01  9568   0.839E+00-0.301E-01
CGA:  16    -0.312685868438E+03   -0.25728E-01   -0.25886E-01  9568   0.679E+00 0.984E-02
CGA:  17    -0.312699804591E+03   -0.13936E-01   -0.13716E-01  9568   0.342E+00 0.486E-02
CGA:  18    -0.312712300162E+03   -0.12496E-01   -0.12496E-01  9568   0.228E+00 0.252E-02
CGA:  19    -0.312718105951E+03   -0.58058E-02   -0.58569E-02  9568   0.179E+00 0.389E-03
CGA:  20    -0.312725730528E+03   -0.76246E-02   -0.76066E-02  9568   0.307E+00 0.176E-02
CGA:  21    -0.312735876825E+03   -0.10146E-01   -0.10188E-01  9568   0.105E+00 0.512E-02
CGA:  22    -0.312739241000E+03   -0.33642E-02   -0.33757E-02  9568   0.966E-01 0.971E-03
CGA:  23    -0.312742384148E+03   -0.31431E-02   -0.31573E-02  9568   0.592E-01 0.175E-02
CGA:  24    -0.312744237049E+03   -0.18529E-02   -0.18595E-02  9568   0.576E-01 0.530E-03
CGA:  25    -0.312747437349E+03   -0.32003E-02   -0.32549E-02  9568   0.407E-01-0.229E-02
CGA:  26    -0.312748814367E+03   -0.13770E-02   -0.13795E-02  9568   0.254E-01 0.116E-02
CGA:  27    -0.312749951482E+03   -0.11371E-02   -0.11344E-02  9568   0.237E-01 0.260E-03
CGA:  28    -0.312750675343E+03   -0.72386E-03   -0.72404E-03  9568   0.148E-01 0.152E-04
CGA:  29    -0.312751151747E+03   -0.47640E-03   -0.47677E-03  9568   0.113E-01 0.389E-04
CGA:  30    -0.312751695316E+03   -0.54357E-03   -0.54338E-03  9568   0.819E-02 0.153E-04
CGA:  31    -0.312752097923E+03   -0.40261E-03   -0.40066E-03  9568   0.799E-02 0.125E-03
SDA:  32    -0.312752409650E+03   -0.31173E-03   -0.31167E-03  9568   0.281E-02 0.360E-04
CGA:  33    -0.312752476524E+03   -0.66874E-04   -0.66877E-04  9568   0.181E-02 0.648E-06
CGA:  34    -0.312752601107E+03   -0.12458E-03   -0.12410E-03  9568   0.249E-02 0.147E-04
CGA:  35    -0.312752703410E+03   -0.10230E-03   -0.10229E-03  9568   0.402E-02 0.593E-05
CGA:  36    -0.312752880056E+03   -0.17665E-03   -0.17659E-03  9568   0.125E-02 0.998E-05
CGA:  37    -0.312753011872E+03   -0.13182E-03   -0.13212E-03  9568   0.137E-02-0.499E-05
CGA:  38    -0.312753080702E+03   -0.68830E-04   -0.68887E-04  9568   0.966E-03-0.715E-05
CGA:  39    -0.312753130288E+03   -0.49586E-04   -0.49590E-04  9568   0.194E-02-0.219E-05
CGA:  40    -0.312753191562E+03   -0.61274E-04   -0.61323E-04  9568   0.818E-03-0.378E-05
CGA:  41    -0.312753257683E+03   -0.66121E-04   -0.66058E-04  9568   0.870E-03 0.134E-05
CGA:  42    -0.312753283157E+03   -0.25474E-04   -0.25481E-04  9568   0.608E-03 0.853E-06
CGA:  43    -0.312753324315E+03   -0.41158E-04   -0.41118E-04  9568   0.281E-03 0.128E-05
CGA:  44    -0.312753334075E+03   -0.97595E-05   -0.97511E-05  9568   0.426E-03-0.101E-05
CGA:  45    -0.312753355903E+03   -0.21829E-04   -0.21847E-04  9568   0.179E-03-0.273E-05
CGA:  46    -0.312753367319E+03   -0.11416E-04   -0.11472E-04  9568   0.219E-03-0.310E-05
CGA:  47    -0.312753374274E+03   -0.69544E-05   -0.69318E-05  9568   0.140E-03-0.187E-05
  13 F= -.31275337E+03 E0= -.31273147E+03  d E =-.403182E-01  mag=    24.6586
       N       E                     dE             d eps       ncg     rms          ort
SDA:   1    -0.252866565953E+03    0.59887E+02    0.00000E+00  9568   0.475E+03 0.000E+00
CGA:   2    -0.266257521437E+03   -0.13391E+02   -0.14765E+02  9568   0.258E+03 0.629E+02
CGA:   3    -0.280289533271E+03   -0.14032E+02   -0.13783E+02  9568   0.463E+03 0.581E+02
CGA:   4    -0.292868064293E+03   -0.12579E+02   -0.17296E+02  9568   0.101E+03 0.748E+02
CGA:   5    -0.299699278174E+03   -0.68312E+01   -0.34817E+01  9568   0.133E+03-0.697E+02
CGA:   6    -0.301736013869E+03   -0.20367E+01   -0.32373E+01  9568   0.626E+02-0.188E+02
CGA:   7    -0.304358232799E+03   -0.26222E+01   -0.30687E+01  9568   0.141E+03-0.234E+02
CGA:   8    -0.306833373276E+03   -0.24751E+01   -0.27228E+01  9568   0.162E+03 0.273E+01
CGA:   9    -0.308761954972E+03   -0.19286E+01   -0.33485E+01  9568   0.406E+02-0.233E+02
CGA:  10    -0.309543606201E+03   -0.78165E+00   -0.73158E+00  9568   0.255E+02-0.248E+00
CGA:  11    -0.310318604157E+03   -0.77500E+00   -0.72673E+00  9568   0.222E+02-0.389E+00
CGA:  12    -0.311050427243E+03   -0.73182E+00   -0.72272E+00  9568   0.155E+02-0.473E+00
CGA:  13    -0.311588185866E+03   -0.53776E+00   -0.53668E+00  9568   0.116E+02-0.129E+00
CGA:  14    -0.311803027453E+03   -0.21484E+00   -0.17488E+00  9568   0.155E+01 0.178E+01
CGA:  15    -0.311864738044E+03   -0.61711E-01   -0.61840E-01  9568   0.315E+01 0.140E-01
CGA:  16    -0.311937139008E+03   -0.72401E-01   -0.72393E-01  9568   0.294E+01-0.706E-02
CGA:  17    -0.312010244565E+03   -0.73106E-01   -0.73555E-01  9568   0.355E+01-0.312E-02
CGA:  18    -0.312076421826E+03   -0.66177E-01   -0.59720E-01  9568   0.146E+01 0.221E+00
CGA:  19    -0.312109038691E+03   -0.32617E-01   -0.32846E-01  9568   0.209E+01-0.543E-02
CGA:  20    -0.312145788636E+03   -0.36750E-01   -0.33645E-01  9568   0.110E+01 0.111E+00
CGA:  21    -0.312160615360E+03   -0.14827E-01   -0.16224E-01  9568   0.822E+00-0.643E-01
CGA:  22    -0.312184996953E+03   -0.24382E-01   -0.24395E-01  9568   0.163E+01 0.439E-02
CGA:  23    -0.312215956719E+03   -0.30960E-01   -0.30777E-01  9568   0.107E+01 0.138E-02
CGA:  24    -0.312240049176E+03   -0.24092E-01   -0.23706E-01  9568   0.106E+01-0.143E-02
CGA:  25    -0.312257594841E+03   -0.17546E-01   -0.17605E-01  9568   0.769E+00-0.182E-02
CGA:  26    -0.312271818572E+03   -0.14224E-01   -0.14393E-01  9568   0.696E+00-0.230E-02
CGA:  27    -0.312285747339E+03   -0.13929E-01   -0.13752E-01  9568   0.488E+00-0.779E-04
CGA:  28    -0.312293040624E+03   -0.72933E-02   -0.73194E-02  9568   0.324E+00-0.106E-02
CGA:  29    -0.312300604116E+03   -0.75635E-02   -0.75464E-02  9568   0.444E+00-0.845E-03
CGA:  30    -0.312308711962E+03   -0.81078E-02   -0.80668E-02  9568   0.277E+00 0.312E-03
CGA:  31    -0.312313126923E+03   -0.44150E-02   -0.44570E-02  9568   0.222E+00-0.982E-03
CGA:  32    -0.312317632141E+03   -0.45052E-02   -0.45199E-02  9568   0.192E+00 0.290E-03
CGA:  33    -0.312320901347E+03   -0.32692E-02   -0.32963E-02  9568   0.150E+00-0.231E-03
CGA:  34    -0.312324875273E+03   -0.39739E-02   -0.39745E-02  9568   0.194E+00 0.135E-02
CGA:  35    -0.312328169634E+03   -0.32944E-02   -0.33191E-02  9568   0.102E+00-0.151E-03
SDA:  36    -0.312330420383E+03   -0.22507E-02   -0.22539E-02  9568   0.969E-01 0.280E-03
CGA:  37    -0.312331786457E+03   -0.13661E-02   -0.13703E-02  9568   0.222E-01-0.119E-03
CGA:  38    -0.312333499835E+03   -0.17134E-02   -0.17218E-02  9568   0.278E-01-0.196E-03
CGA:  39    -0.312334595199E+03   -0.10954E-02   -0.10914E-02  9568   0.233E-01 0.270E-03
CGA:  40    -0.312336471717E+03   -0.18765E-02   -0.18686E-02  9568   0.449E-01 0.169E-03
CGA:  41    -0.312337535448E+03   -0.10637E-02   -0.10668E-02  9568   0.116E-01 0.994E-04
CGA:  42    -0.312338458748E+03   -0.92330E-03   -0.92519E-03  9568   0.140E-01-0.472E-04
CGA:  43    -0.312338989344E+03   -0.53060E-03   -0.53022E-03  9568   0.192E-01 0.606E-04
CGA:  44    -0.312339812866E+03   -0.82352E-03   -0.82074E-03  9568   0.890E-02 0.227E-03
CGA:  45    -0.312340455323E+03   -0.64246E-03   -0.64280E-03  9568   0.173E-01-0.102E-04
CGA:  46    -0.312340910233E+03   -0.45491E-03   -0.46063E-03  9568   0.578E-02 0.115E-03
CGA:  47    -0.312341569745E+03   -0.65951E-03   -0.65911E-03  9568   0.105E-01-0.356E-05
CGA:  48    -0.312341804799E+03   -0.23505E-03   -0.23508E-03  9568   0.553E-02 0.118E-04
CGA:  49    -0.312342135267E+03   -0.33047E-03   -0.32739E-03  9568   0.374E-02 0.129E-03
CGA:  50    -0.312342291897E+03   -0.15663E-03   -0.15669E-03  9568   0.576E-02-0.146E-04
CGA:  51    -0.312342625055E+03   -0.33316E-03   -0.32900E-03  9568   0.273E-02 0.193E-03
CGA:  52    -0.312342922662E+03   -0.29761E-03   -0.29589E-03  9568   0.529E-02 0.226E-04
CGA:  53    -0.312343035945E+03   -0.11328E-03   -0.11302E-03  9568   0.200E-02 0.263E-04
CGA:  54    -0.312343134100E+03   -0.98155E-04   -0.97561E-04  9568   0.198E-02 0.627E-04
CGA:  55    -0.312343288861E+03   -0.15476E-03   -0.15384E-03  9568   0.339E-02 0.252E-04
CGA:  56    -0.312343371681E+03   -0.82820E-04   -0.82299E-04  9568   0.103E-02 0.113E-04
CGA:  57    -0.312343470736E+03   -0.99055E-04   -0.97493E-04  9568   0.745E-03 0.307E-04
CGA:  58    -0.312343498518E+03   -0.27782E-04   -0.27858E-04  9568   0.879E-03 0.637E-05
CGA:  59    -0.312343532768E+03   -0.34251E-04   -0.34318E-04  9568   0.503E-03 0.989E-05
CGA:  60    -0.312343566353E+03   -0.33585E-04   -0.33369E-04  9568   0.958E-03 0.101E-04
CGA:  61    -0.312343591147E+03   -0.24794E-04   -0.25013E-04  9568   0.279E-03 0.706E-05
CGA:  62    -0.312343613261E+03   -0.22114E-04   -0.21968E-04  9568   0.256E-03 0.413E-05
CGA:  63    -0.312343626837E+03   -0.13576E-04   -0.13572E-04  9568   0.424E-03 0.644E-06
CGA:  64    -0.312343639897E+03   -0.13061E-04   -0.13073E-04  9568   0.241E-03 0.129E-07
CGA:  65    -0.312343657839E+03   -0.17942E-04   -0.17870E-04  9568   0.302E-03 0.230E-05
CGA:  66    -0.312343665939E+03   -0.80997E-05   -0.81258E-05  9568   0.183E-03 0.734E-06
SDA:  67    -0.312343677461E+03   -0.11523E-04   -0.11457E-04  9568   0.128E-03 0.394E-05
CGA:  68    -0.312343682286E+03   -0.48245E-05   -0.48262E-05  9568   0.106E-03 0.718E-07
  14 F= -.31234368E+03 E0= -.31232376E+03  d E =0.409692E+00  mag=    24.7130
       N       E                     dE             d eps       ncg     rms          ort
SDA:   1    -0.302106195150E+03    0.10237E+02    0.00000E+00  9568   0.830E+02 0.000E+00
CGA:   2    -0.304724535438E+03   -0.26183E+01   -0.30579E+01  9568   0.353E+02 0.168E+02
CGA:   3    -0.306665608739E+03   -0.19411E+01   -0.19397E+01  9568   0.728E+02 0.186E+01
CGA:   4    -0.309305839798E+03   -0.26402E+01   -0.22961E+01  9568   0.489E+02-0.249E+01
CGA:   5    -0.310301705915E+03   -0.99587E+00   -0.84755E+00  9568   0.197E+02 0.395E+01
CGA:   6    -0.310846480845E+03   -0.54477E+00   -0.60425E+00  9568   0.249E+02-0.227E-01
CGA:   7    -0.311365126373E+03   -0.51865E+00   -0.56725E+00  9568   0.155E+02-0.108E+01
CGA:   8    -0.311817692750E+03   -0.45257E+00   -0.43778E+00  9568   0.240E+02-0.186E+00
CGA:   9    -0.312156533838E+03   -0.33884E+00   -0.34877E+00  9568   0.811E+01-0.107E+01
CGA:  10    -0.312266844053E+03   -0.11031E+00   -0.12007E+00  9568   0.530E+01-0.472E+00
CGA:  11    -0.312407659629E+03   -0.14082E+00   -0.14570E+00  9568   0.343E+01 0.953E-01
CGA:  12    -0.312466014538E+03   -0.58355E-01   -0.55478E-01  9568   0.263E+01 0.103E+00
CGA:  13    -0.312554673237E+03   -0.88659E-01   -0.86382E-01  9568   0.287E+01-0.152E+00
CGA:  14    -0.312593968413E+03   -0.39295E-01   -0.42303E-01  9568   0.170E+01-0.124E+00
CGA:  15    -0.312629402004E+03   -0.35434E-01   -0.36994E-01  9568   0.163E+01-0.928E-02
CGA:  16    -0.312652491290E+03   -0.23089E-01   -0.22137E-01  9568   0.451E+00 0.443E-01
CGA:  17    -0.312662594673E+03   -0.10103E-01   -0.10074E-01  9568   0.508E+00 0.194E-03
CGA:  18    -0.312674653347E+03   -0.12059E-01   -0.12076E-01  9568   0.501E+00 0.252E-03
CGA:  19    -0.312684829898E+03   -0.10177E-01   -0.10161E-01  9568   0.508E+00-0.250E-05
CGA:  20    -0.312698647310E+03   -0.13817E-01   -0.13946E-01  9568   0.478E+00 0.902E-02
CGA:  21    -0.312706542587E+03   -0.78953E-02   -0.80998E-02  9568   0.169E+00-0.525E-02
CGA:  22    -0.312709916856E+03   -0.33743E-02   -0.33907E-02  9568   0.143E+00 0.281E-04
CGA:  23    -0.312713753384E+03   -0.38365E-02   -0.38327E-02  9568   0.117E+00-0.345E-03
CGA:  24    -0.312716634844E+03   -0.28815E-02   -0.28776E-02  9568   0.146E+00-0.119E-03
CGA:  25    -0.312721616178E+03   -0.49813E-02   -0.49477E-02  9568   0.115E+00 0.528E-02
CGA:  26    -0.312723746869E+03   -0.21307E-02   -0.21611E-02  9568   0.763E-01-0.358E-03
CGA:  27    -0.312726386860E+03   -0.26400E-02   -0.26386E-02  9568   0.513E-01 0.172E-03
CGA:  28    -0.312727340919E+03   -0.95406E-03   -0.94984E-03  9568   0.352E-01 0.505E-04
CGA:  29    -0.312728896615E+03   -0.15557E-02   -0.15379E-02  9568   0.410E-01 0.102E-02
CGA:  30    -0.312729855553E+03   -0.95894E-03   -0.96277E-03  9568   0.341E-01 0.113E-03
CGA:  31    -0.312731145232E+03   -0.12897E-02   -0.12891E-02  9568   0.296E-01 0.454E-04
SDA:  32    -0.312731823995E+03   -0.67876E-03   -0.67846E-03  9568   0.198E-01 0.707E-05
CGA:  33    -0.312732201483E+03   -0.37749E-03   -0.37895E-03  9568   0.849E-02 0.579E-05
CGA:  34    -0.312732530910E+03   -0.32943E-03   -0.32915E-03  9568   0.787E-02 0.268E-04
CGA:  35    -0.312733271989E+03   -0.74108E-03   -0.73616E-03  9568   0.838E-02 0.845E-04
CGA:  36    -0.312733605003E+03   -0.33301E-03   -0.33312E-03  9568   0.929E-02-0.845E-05
CGA:  37    -0.312733963351E+03   -0.35835E-03   -0.35815E-03  9568   0.288E-02 0.258E-04
CGA:  38    -0.312734125062E+03   -0.16171E-03   -0.16210E-03  9568   0.554E-02-0.166E-04
CGA:  39    -0.312734270753E+03   -0.14569E-03   -0.14571E-03  9568   0.187E-02-0.845E-05
CGA:  40    -0.312734524339E+03   -0.25359E-03   -0.25497E-03  9568   0.263E-02-0.130E-04
CGA:  41    -0.312734721007E+03   -0.19667E-03   -0.19632E-03  9568   0.349E-02 0.959E-05
CGA:  42    -0.312734803739E+03   -0.82732E-04   -0.82806E-04  9568   0.117E-02 0.394E-05
CGA:  43    -0.312734868667E+03   -0.64928E-04   -0.64747E-04  9568   0.163E-02 0.119E-04
CGA:  44    -0.312734924108E+03   -0.55441E-04   -0.55494E-04  9568   0.137E-02 0.900E-05
CGA:  45    -0.312734972764E+03   -0.48656E-04   -0.48758E-04  9568   0.449E-03 0.117E-04
CGA:  46    -0.312735043731E+03   -0.70966E-04   -0.71559E-04  9568   0.423E-03-0.507E-05
CGA:  47    -0.312735057875E+03   -0.14144E-04   -0.14130E-04  9568   0.376E-03-0.112E-05
CGA:  48    -0.312735066794E+03   -0.89195E-05   -0.88926E-05  9568   0.109E-03-0.128E-05
CGA:  49    -0.312735080095E+03   -0.13301E-04   -0.13316E-04  9568   0.799E-04-0.259E-06
CGA:  50    -0.312735085430E+03   -0.53349E-05   -0.53308E-05  9568   0.937E-04 0.152E-06
  15 F= -.31273509E+03 E0= -.31271449E+03  d E =-.391403E+00  mag=    24.7057
       N       E                     dE             d eps       ncg     rms          ort
SDA:   1    -0.310160972101E+03    0.25741E+01    0.00000E+00  9568   0.111E+02 0.000E+00
CGA:   2    -0.310961986570E+03   -0.80101E+00   -0.74004E+00  9568   0.150E+02 0.239E+01
CGA:   3    -0.311482807567E+03   -0.52082E+00   -0.56676E+00  9568   0.176E+02-0.253E+00
CGA:   4    -0.312144698810E+03   -0.66189E+00   -0.62379E+00  9568   0.392E+01-0.371E+00
CGA:   5    -0.312356689205E+03   -0.21199E+00   -0.21086E+00  9568   0.592E+01 0.948E-01
CGA:   6    -0.312541930182E+03   -0.18524E+00   -0.18787E+00  9568   0.314E+01-0.162E-01
CGA:   7    -0.312655142637E+03   -0.11321E+00   -0.11577E+00  9568   0.251E+01 0.577E-01
CGA:   8    -0.312715249270E+03   -0.60107E-01   -0.58093E-01  9568   0.606E+00 0.406E-01
CGA:   9    -0.312758738992E+03   -0.43490E-01   -0.43423E-01  9568   0.748E+00 0.258E-02
CGA:  10    -0.312784192879E+03   -0.25454E-01   -0.25530E-01  9568   0.344E+00 0.666E-03
CGA:  11    -0.312795056022E+03   -0.10863E-01   -0.10619E-01  9568   0.110E+00-0.140E-03
CGA:  12    -0.312800543204E+03   -0.54872E-02   -0.54726E-02  9568   0.143E+00 0.196E-02
CGA:  13    -0.312804815336E+03   -0.42721E-02   -0.42307E-02  9568   0.998E-01 0.175E-03
CGA:  14    -0.312809155089E+03   -0.43398E-02   -0.43428E-02  9568   0.576E-01 0.134E-02
CGA:  15    -0.312810629977E+03   -0.14749E-02   -0.14820E-02  9568   0.222E-01-0.887E-04
CGA:  16    -0.312812621050E+03   -0.19911E-02   -0.19799E-02  9568   0.297E-01 0.247E-03
CGA:  17    -0.312813694993E+03   -0.10739E-02   -0.10745E-02  9568   0.214E-01 0.203E-04
CGA:  18    -0.312814522590E+03   -0.82760E-03   -0.82795E-03  9568   0.156E-01 0.306E-04
CGA:  19    -0.312815032992E+03   -0.51040E-03   -0.50934E-03  9568   0.141E-01-0.382E-05
CGA:  20    -0.312815621808E+03   -0.58882E-03   -0.58939E-03  9568   0.858E-02 0.110E-03
CGA:  21    -0.312816068251E+03   -0.44644E-03   -0.44649E-03  9568   0.825E-02-0.839E-06
CGA:  22    -0.312816441630E+03   -0.37338E-03   -0.37336E-03  9568   0.779E-02 0.170E-04
CGA:  23    -0.312816839831E+03   -0.39820E-03   -0.39813E-03  9568   0.362E-02 0.103E-04
CGA:  24    -0.312816948378E+03   -0.10855E-03   -0.10866E-03  9568   0.360E-02 0.406E-05
CGA:  25    -0.312817166074E+03   -0.21770E-03   -0.21770E-03  9568   0.488E-02 0.135E-05
CGA:  26    -0.312817311345E+03   -0.14527E-03   -0.14549E-03  9568   0.205E-02 0.699E-05
CGA:  27    -0.312817403790E+03   -0.92445E-04   -0.92441E-04  9568   0.115E-02 0.463E-05
CGA:  28    -0.312817464598E+03   -0.60808E-04   -0.60774E-04  9568   0.139E-02 0.381E-05
CGA:  29    -0.312817521046E+03   -0.56449E-04   -0.56452E-04  9568   0.978E-03 0.101E-05
CGA:  30    -0.312817555624E+03   -0.34578E-04   -0.34606E-04  9568   0.825E-03 0.226E-05
CGA:  31    -0.312817580808E+03   -0.25183E-04   -0.25194E-04  9568   0.450E-03 0.433E-06
SDA:  32    -0.312817605826E+03   -0.25018E-04   -0.25028E-04  9568   0.338E-03-0.785E-06
CGA:  33    -0.312817612092E+03   -0.62662E-05   -0.62634E-05  9568   0.120E-03-0.367E-06
CGA:  34    -0.312817625668E+03   -0.13575E-04   -0.13711E-04  9568   0.360E-03-0.200E-05
CGA:  35    -0.312817635252E+03   -0.95848E-05   -0.95406E-05  9568   0.258E-03-0.206E-05
CGA:  36    -0.312817649951E+03   -0.14698E-04   -0.14729E-04  9568   0.832E-04-0.270E-05
CGA:  37    -0.312817655026E+03   -0.50751E-05   -0.50836E-05  9568   0.681E-04-0.631E-06
  16 F= -.31281766E+03 E0= -.31279659E+03  d E =-.825696E-01  mag=    24.7004
       N       E                     dE             d eps       ncg     rms          ort
SDA:   1    -0.312399373006E+03    0.41828E+00    0.00000E+00  9568   0.242E+01 0.000E+00
CGA:   2    -0.312458449735E+03   -0.59077E-01   -0.54399E-01  9568   0.208E+01 0.105E+00
CGA:   3    -0.312641991736E+03   -0.18354E+00   -0.18079E+00  9568   0.172E+01 0.659E-01
CGA:   4    -0.312721784494E+03   -0.79793E-01   -0.78118E-01  9568   0.923E+00-0.189E+00
CGA:   5    -0.312745872498E+03   -0.24088E-01   -0.23953E-01  9568   0.846E+00 0.704E-03
CGA:   6    -0.312786444126E+03   -0.40572E-01   -0.40598E-01  9568   0.543E+00-0.940E-02
CGA:   7    -0.312801845855E+03   -0.15402E-01   -0.15364E-01  9568   0.306E+00 0.669E-04
CGA:   8    -0.312813630880E+03   -0.11785E-01   -0.11770E-01  9568   0.971E-01-0.681E-03
CGA:   9    -0.312821541028E+03   -0.79101E-02   -0.79108E-02  9568   0.833E-01-0.326E-05
CGA:  10    -0.312823915491E+03   -0.23745E-02   -0.23794E-02  9568   0.607E-01-0.407E-04
CGA:  11    -0.312825551196E+03   -0.16357E-02   -0.16316E-02  9568   0.186E-01 0.471E-04
CGA:  12    -0.312826447486E+03   -0.89629E-03   -0.89644E-03  9568   0.201E-01-0.249E-04
CGA:  13    -0.312827171972E+03   -0.72449E-03   -0.72599E-03  9568   0.127E-01 0.467E-04
CGA:  14    -0.312827813460E+03   -0.64149E-03   -0.64200E-03  9568   0.395E-02-0.502E-04
CGA:  15    -0.312828122567E+03   -0.30911E-03   -0.30869E-03  9568   0.531E-02 0.128E-04
CGA:  16    -0.312828280505E+03   -0.15794E-03   -0.15815E-03  9568   0.396E-02 0.315E-05
CGA:  17    -0.312828445893E+03   -0.16539E-03   -0.16540E-03  9568   0.312E-02 0.206E-05
CGA:  18    -0.312828546487E+03   -0.10059E-03   -0.10058E-03  9568   0.240E-02 0.149E-05
CGA:  19    -0.312828648887E+03   -0.10240E-03   -0.10242E-03  9568   0.119E-02 0.469E-05
CGA:  20    -0.312828749474E+03   -0.10059E-03   -0.10060E-03  9568   0.124E-02-0.492E-06
CGA:  21    -0.312828811338E+03   -0.61864E-04   -0.61860E-04  9568   0.161E-02 0.860E-06
CGA:  22    -0.312828863127E+03   -0.51789E-04   -0.51809E-04  9568   0.678E-03 0.654E-06
CGA:  23    -0.312828890553E+03   -0.27426E-04   -0.27426E-04  9568   0.951E-03-0.579E-07
CGA:  24    -0.312828927676E+03   -0.37124E-04   -0.37145E-04  9568   0.555E-03 0.209E-05
CGA:  25    -0.312828959260E+03   -0.31584E-04   -0.31552E-04  9568   0.306E-03 0.239E-05
CGA:  26    -0.312828977441E+03   -0.18180E-04   -0.18161E-04  9568   0.368E-03 0.143E-05
CGA:  27    -0.312828988598E+03   -0.11158E-04   -0.11171E-04  9568   0.177E-03 0.468E-06
CGA:  28    -0.312828998871E+03   -0.10272E-04   -0.10254E-04  9568   0.230E-03 0.144E-05
CGA:  29    -0.312829004408E+03   -0.55377E-05   -0.55486E-05  9568   0.111E-03 0.331E-06
  17 F= -.31282900E+03 E0= -.31280779E+03  d E =-.113494E-01  mag=    24.6967
       N       E                     dE             d eps       ncg     rms          ort
SDA:   1    -0.312513955970E+03    0.31504E+00    0.00000E+00  9568   0.158E+01 0.000E+00
CGA:   2    -0.312556394112E+03   -0.42438E-01   -0.41609E-01  9568   0.156E+01 0.892E-02
CGA:   3    -0.312702858843E+03   -0.14646E+00   -0.14801E+00  9568   0.236E+01-0.322E-01
CGA:   4    -0.312743514392E+03   -0.40656E-01   -0.41611E-01  9568   0.511E+00-0.424E-01
CGA:   5    -0.312790632086E+03   -0.47118E-01   -0.48011E-01  9568   0.495E+00-0.186E-01
CGA:   6    -0.312808166505E+03   -0.17534E-01   -0.17675E-01  9568   0.411E+00 0.219E-02
CGA:   7    -0.312817801741E+03   -0.96352E-02   -0.93248E-02  9568   0.127E+00 0.762E-02
CGA:   8    -0.312823910055E+03   -0.61083E-02   -0.61075E-02  9568   0.615E-01 0.154E-02
CGA:   9    -0.312828628812E+03   -0.47188E-02   -0.47392E-02  9568   0.708E-01-0.616E-03
CGA:  10    -0.312829824952E+03   -0.11961E-02   -0.12096E-02  9568   0.167E-01-0.560E-03
CGA:  11    -0.312830918842E+03   -0.10939E-02   -0.10963E-02  9568   0.946E-02-0.947E-04
CGA:  12    -0.312831441784E+03   -0.52294E-03   -0.52246E-03  9568   0.142E-01 0.426E-04
CGA:  13    -0.312831823009E+03   -0.38123E-03   -0.37970E-03  9568   0.508E-02 0.246E-04
CGA:  14    -0.312832033446E+03   -0.21044E-03   -0.21058E-03  9568   0.453E-02 0.116E-04
CGA:  15    -0.312832168635E+03   -0.13519E-03   -0.13517E-03  9568   0.214E-02 0.175E-05
CGA:  16    -0.312832274173E+03   -0.10554E-03   -0.10552E-03  9568   0.157E-02 0.276E-05
CGA:  17    -0.312832377065E+03   -0.10289E-03   -0.10289E-03  9568   0.286E-02-0.382E-06
CGA:  18    -0.312832438037E+03   -0.60972E-04   -0.61190E-04  9568   0.509E-03-0.388E-05
CGA:  19    -0.312832481370E+03   -0.43333E-04   -0.43348E-04  9568   0.710E-03-0.559E-06
CGA:  20    -0.312832507641E+03   -0.26271E-04   -0.26286E-04  9568   0.837E-03 0.738E-06
CGA:  21    -0.312832548225E+03   -0.40584E-04   -0.40583E-04  9568   0.514E-03 0.166E-06
CGA:  22    -0.312832561902E+03   -0.13677E-04   -0.13687E-04  9568   0.329E-03 0.149E-06
CGA:  23    -0.312832579129E+03   -0.17227E-04   -0.17224E-04  9568   0.290E-03 0.438E-06
CGA:  24    -0.312832595967E+03   -0.16838E-04   -0.16812E-04  9568   0.234E-03 0.207E-05
CGA:  25    -0.312832602827E+03   -0.68604E-05   -0.68678E-05  9568   0.235E-03 0.475E-06
CGA:  26    -0.312832616280E+03   -0.13452E-04   -0.13433E-04  9568   0.868E-04 0.167E-05
CGA:  27    -0.312832620049E+03   -0.37689E-05   -0.37701E-05  9568   0.113E-03 0.187E-06
  18 F= -.31283262E+03 E0= -.31281138E+03  d E =-.361564E-02  mag=    24.6930
       N       E                     dE             d eps       ncg     rms          ort
SDA:   1    -0.311994703411E+03    0.83791E+00    0.00000E+00  9568   0.322E+01 0.000E+00
CGA:   2    -0.312103521332E+03   -0.10882E+00   -0.11074E+00  9568   0.527E+01 0.208E-01
CGA:   3    -0.312500388114E+03   -0.39687E+00   -0.40060E+00  9568   0.456E+01-0.106E+00
CGA:   4    -0.312644449043E+03   -0.14406E+00   -0.14478E+00  9568   0.226E+01 0.827E-03
CGA:   5    -0.312694323600E+03   -0.49875E-01   -0.49160E-01  9568   0.109E+01 0.117E-01
[...]
       N       E                     dE             d eps       ncg     rms          ort
SDA:   1    -0.312869690022E+03    0.58591E-01    0.00000E+00  9568   0.362E+00 0.000E+00
CGA:   2    -0.312878289872E+03   -0.85999E-02   -0.87288E-02  9568   0.339E+00-0.239E-02
CGA:   3    -0.312897037757E+03   -0.18748E-01   -0.18710E-01  9568   0.275E+00 0.243E-02
CGA:   4    -0.312912359119E+03   -0.15321E-01   -0.15393E-01  9568   0.110E+00-0.453E-02
CGA:   5    -0.312916341654E+03   -0.39825E-02   -0.39741E-02  9568   0.164E+00-0.253E-03
CGA:   6    -0.312923643795E+03   -0.73021E-02   -0.73021E-02  9568   0.783E-01-0.170E-03
CGA:   7    -0.312925961462E+03   -0.23177E-02   -0.23327E-02  9568   0.469E-01-0.254E-05
CGA:   8    -0.312927261769E+03   -0.13003E-02   -0.12968E-02  9568   0.132E-01 0.191E-04
CGA:   9    -0.312928270723E+03   -0.10090E-02   -0.10108E-02  9568   0.243E-01-0.499E-04
CGA:  10    -0.312928724912E+03   -0.45419E-03   -0.45606E-03  9568   0.443E-02-0.585E-04
CGA:  11    -0.312928982158E+03   -0.25725E-03   -0.25750E-03  9568   0.284E-02-0.131E-04
CGA:  12    -0.312929072720E+03   -0.90563E-04   -0.90576E-04  9568   0.271E-02 0.119E-05
CGA:  13    -0.312929181958E+03   -0.10924E-03   -0.10923E-03  9568   0.162E-02-0.167E-06
CGA:  14    -0.312929239557E+03   -0.57600E-04   -0.57591E-04  9568   0.145E-02 0.701E-06
CGA:  15    -0.312929283514E+03   -0.43956E-04   -0.43914E-04  9568   0.424E-03 0.589E-06
CGA:  16    -0.312929310391E+03   -0.26877E-04   -0.26873E-04  9568   0.565E-03 0.148E-06
CGA:  17    -0.312929324494E+03   -0.14103E-04   -0.14088E-04  9568   0.368E-03-0.301E-06
CGA:  18    -0.312929348823E+03   -0.24329E-04   -0.24319E-04  9568   0.225E-03 0.383E-06
CGA:  19    -0.312929355782E+03   -0.69587E-05   -0.69531E-05  9568   0.196E-03-0.443E-06
  53 F= -.31292936E+03 E0= -.31290754E+03  d E =-.106552E-02  mag=    24.6068
       N       E                     dE             d eps       ncg     rms          ort
SDA:   1    -0.312844010790E+03    0.85338E-01    0.00000E+00  9568   0.947E+00 0.000E+00
CGA:   2    -0.312857103837E+03   -0.13093E-01   -0.13683E-01  9568   0.278E+00-0.321E-01
CGA:   3    -0.312889963421E+03   -0.32860E-01   -0.32743E-01  9568   0.614E+00 0.182E-02
CGA:   4    -0.312909041013E+03   -0.19078E-01   -0.19133E-01  9568   0.346E+00-0.121E-04
CGA:   5    -0.312918212043E+03   -0.91710E-02   -0.92007E-02  9568   0.938E-01-0.409E-03
CGA:   6    -0.312922152772E+03   -0.39407E-02   -0.39416E-02  9568   0.149E+00 0.213E-03
CGA:   7    -0.312927413048E+03   -0.52603E-02   -0.52672E-02  9568   0.421E-01 0.204E-03
CGA:   8    -0.312929426140E+03   -0.20131E-02   -0.20148E-02  9568   0.229E-01-0.233E-03
CGA:   9    -0.312929941772E+03   -0.51563E-03   -0.51437E-03  9568   0.128E-01 0.251E-04
CGA:  10    -0.312930642151E+03   -0.70038E-03   -0.70052E-03  9568   0.111E-01-0.740E-05
CGA:  11    -0.312930929496E+03   -0.28734E-03   -0.28709E-03  9568   0.586E-02-0.391E-07
CGA:  12    -0.312931200652E+03   -0.27116E-03   -0.27119E-03  9568   0.165E-02-0.334E-05
CGA:  13    -0.312931257399E+03   -0.56747E-04   -0.56726E-04  9568   0.212E-02-0.107E-05
CGA:  14    -0.312931341908E+03   -0.84508E-04   -0.84519E-04  9568   0.125E-02 0.322E-05
CGA:  15    -0.312931404261E+03   -0.62353E-04   -0.62356E-04  9568   0.975E-03 0.450E-06
CGA:  16    -0.312931428981E+03   -0.24720E-04   -0.24710E-04  9568   0.431E-03 0.378E-06
CGA:  17    -0.312931451344E+03   -0.22363E-04   -0.22364E-04  9568   0.379E-03-0.248E-06
CGA:  18    -0.312931460568E+03   -0.92243E-05   -0.92360E-05  9568   0.255E-03 0.263E-06
CGA:  19    -0.312931482423E+03   -0.21854E-04   -0.21850E-04  9568   0.231E-03 0.507E-07
CGA:  20    -0.312931491295E+03   -0.88727E-05   -0.88751E-05  9568   0.227E-03 0.384E-06
  54 F= -.31293149E+03 E0= -.31290968E+03  d E =-.213551E-02  mag=    24.6071
       N       E                     dE             d eps       ncg     rms          ort
SDA:   1    -0.312856250784E+03    0.75232E-01    0.00000E+00  9568   0.594E+00 0.000E+00
CGA:   2    -0.312865942902E+03   -0.96921E-02   -0.94974E-02  9568   0.267E+00 0.805E-02
CGA:   3    -0.312900889430E+03   -0.34947E-01   -0.35012E-01  9568   0.333E+00-0.905E-03
CGA:   4    -0.312909385406E+03   -0.84960E-02   -0.85505E-02  9568   0.189E+00-0.809E-03
CGA:   5    -0.312918738483E+03   -0.93531E-02   -0.93993E-02  9568   0.113E+00-0.532E-02
CGA:   6    -0.312926198163E+03   -0.74597E-02   -0.73910E-02  9568   0.495E-01 0.253E-02
CGA:   7    -0.312928614522E+03   -0.24164E-02   -0.24164E-02  9568   0.329E-01 0.693E-05
CGA:   8    -0.312929381948E+03   -0.76743E-03   -0.76412E-03  9568   0.166E-01 0.747E-04
CGA:   9    -0.312930273388E+03   -0.89144E-03   -0.89195E-03  9568   0.185E-01-0.376E-04
CGA:  10    -0.312930666134E+03   -0.39275E-03   -0.39345E-03  9568   0.556E-02-0.148E-04
CGA:  11    -0.312930972086E+03   -0.30595E-03   -0.30580E-03  9568   0.167E-02 0.960E-05
CGA:  12    -0.312931159688E+03   -0.18760E-03   -0.18734E-03  9568   0.238E-02 0.416E-05
CGA:  13    -0.312931215528E+03   -0.55840E-04   -0.55853E-04  9568   0.118E-02-0.224E-05
CGA:  14    -0.312931266364E+03   -0.50836E-04   -0.50832E-04  9568   0.810E-03-0.636E-06
CGA:  15    -0.312931286319E+03   -0.19954E-04   -0.19955E-04  9568   0.524E-03-0.437E-06
CGA:  16    -0.312931316803E+03   -0.30484E-04   -0.30458E-04  9568   0.307E-03 0.152E-05
CGA:  17    -0.312931340177E+03   -0.23374E-04   -0.23383E-04  9568   0.260E-03-0.209E-06
CGA:  18    -0.312931348417E+03   -0.82401E-05   -0.82405E-05  9568   0.217E-03 0.271E-07
  55 F= -.31293135E+03 E0= -.31290953E+03  d E =0.142878E-03  mag=    24.6065
       N       E                     dE             d eps       ncg     rms          ort
SDA:   1    -0.312878235027E+03    0.53105E-01    0.00000E+00  9568   0.487E+00 0.000E+00
CGA:   2    -0.312886262281E+03   -0.80273E-02   -0.76714E-02  9568   0.182E+00 0.164E-01
CGA:   3    -0.312901414191E+03   -0.15152E-01   -0.15275E-01  9568   0.332E+00-0.318E-02
CGA:   4    -0.312912301517E+03   -0.10887E-01   -0.10866E-01  9568   0.211E+00-0.171E-03
CGA:   5    -0.312919311055E+03   -0.70095E-02   -0.69379E-02  9568   0.658E-01-0.540E-03
CGA:   6    -0.312923203216E+03   -0.38922E-02   -0.38778E-02  9568   0.129E+00 0.765E-03
CGA:   7    -0.312926223099E+03   -0.30199E-02   -0.30098E-02  9568   0.407E-01 0.212E-03
CGA:   8    -0.312928170956E+03   -0.19479E-02   -0.19491E-02  9568   0.107E-01-0.236E-03
CGA:   9    -0.312928736561E+03   -0.56560E-03   -0.56580E-03  9568   0.158E-01-0.135E-04
CGA:  10    -0.312929248502E+03   -0.51194E-03   -0.51157E-03  9568   0.446E-02-0.301E-05
CGA:  11    -0.312929541423E+03   -0.29292E-03   -0.29303E-03  9568   0.259E-02-0.441E-05
CGA:  12    -0.312929605589E+03   -0.64166E-04   -0.64210E-04  9568   0.205E-02-0.892E-06
CGA:  13    -0.312929693725E+03   -0.88136E-04   -0.88137E-04  9568   0.119E-02-0.626E-06
CGA:  14    -0.312929740416E+03   -0.46691E-04   -0.46683E-04  9568   0.121E-02-0.606E-06
CGA:  15    -0.312929787506E+03   -0.47090E-04   -0.47095E-04  9568   0.512E-03-0.343E-06
CGA:  16    -0.312929814108E+03   -0.26602E-04   -0.26616E-04  9568   0.230E-03-0.116E-05
CGA:  17    -0.312929824888E+03   -0.10780E-04   -0.10781E-04  9568   0.392E-03-0.297E-06
CGA:  18    -0.312929838858E+03   -0.13970E-04   -0.13976E-04  9568   0.244E-03 0.732E-06
CGA:  19    -0.312929848828E+03   -0.99702E-05   -0.99727E-05  9568   0.252E-03 0.668E-06
  56 F= -.31292985E+03 E0= -.31290806E+03  d E =0.149959E-02  mag=    24.6077
       N       E                     dE             d eps       ncg     rms          ort
SDA:   1    -0.312878772005E+03    0.51067E-01    0.00000E+00  9568   0.182E+00 0.000E+00
CGA:   2    -0.312887677610E+03   -0.89056E-02   -0.89186E-02  9568   0.407E+00-0.134E-02
CGA:   3    -0.312908206532E+03   -0.20529E-01   -0.20512E-01  9568   0.226E+00 0.149E-02
CGA:   4    -0.312913944445E+03   -0.57379E-02   -0.57753E-02  9568   0.168E+00-0.466E-03
CGA:   5    -0.312920491997E+03   -0.65476E-02   -0.65437E-02  9568   0.646E-01-0.404E-03
CGA:   6    -0.312926205311E+03   -0.57133E-02   -0.57030E-02  9568   0.304E-01 0.229E-03
CGA:   7    -0.312927522194E+03   -0.13169E-02   -0.13182E-02  9568   0.189E-01 0.341E-03
CGA:   8    -0.312927947412E+03   -0.42522E-03   -0.42341E-03  9568   0.121E-01 0.402E-04
CGA:   9    -0.312928629442E+03   -0.68203E-03   -0.68243E-03  9568   0.544E-02-0.208E-04
CGA:  10    -0.312928902047E+03   -0.27260E-03   -0.27268E-03  9568   0.402E-02-0.852E-05
CGA:  11    -0.312928987326E+03   -0.85279E-04   -0.85187E-04  9568   0.140E-02 0.401E-05
CGA:  12    -0.312929082644E+03   -0.95318E-04   -0.95302E-04  9568   0.251E-02 0.633E-06
CGA:  13    -0.312929138628E+03   -0.55985E-04   -0.55924E-04  9568   0.723E-03 0.178E-05
CGA:  14    -0.312929186289E+03   -0.47660E-04   -0.47636E-04  9568   0.315E-03 0.871E-06
CGA:  15    -0.312929200876E+03   -0.14588E-04   -0.14587E-04  9568   0.528E-03 0.451E-06
CGA:  16    -0.312929215462E+03   -0.14586E-04   -0.14583E-04  9568   0.180E-03 0.261E-07
CGA:  17    -0.312929232320E+03   -0.16858E-04   -0.16835E-04  9568   0.216E-03 0.443E-06
CGA:  18    -0.312929237375E+03   -0.50553E-05   -0.50503E-05  9568   0.961E-04-0.281E-06
  57 F= -.31292924E+03 E0= -.31290741E+03  d E =0.611453E-03  mag=    24.6074
       N       E                     dE             d eps       ncg     rms          ort
SDA:   1    -0.312840593375E+03    0.88639E-01    0.00000E+00  9568   0.103E+01 0.000E+00
CGA:   2    -0.312854313116E+03   -0.13720E-01   -0.15183E-01  9568   0.311E+00-0.769E-01
CGA:   3    -0.312881708569E+03   -0.27395E-01   -0.27917E-01  9568   0.583E+00-0.104E-01
CGA:   4    -0.312904354376E+03   -0.22646E-01   -0.22669E-01  9568   0.419E+00 0.129E-02
CGA:   5    -0.312913025937E+03   -0.86716E-02   -0.83497E-02  9568   0.785E-01 0.983E-02
CGA:   6    -0.312919931419E+03   -0.69055E-02   -0.69634E-02  9568   0.179E+00-0.135E-02
CGA:   7    -0.312923799117E+03   -0.38677E-02   -0.38409E-02  9568   0.390E-01 0.670E-03
CGA:   8    -0.312925396441E+03   -0.15973E-02   -0.15966E-02  9568   0.227E-01-0.524E-04
CGA:   9    -0.312925944319E+03   -0.54788E-03   -0.54675E-03  9568   0.129E-01 0.192E-04
CGA:  10    -0.312926881987E+03   -0.93767E-03   -0.93811E-03  9568   0.979E-02-0.114E-04
CGA:  11    -0.312927071337E+03   -0.18935E-03   -0.18881E-03  9568   0.378E-02 0.183E-04
CGA:  12    -0.312927278229E+03   -0.20689E-03   -0.20673E-03  9568   0.188E-02 0.116E-04
CGA:  13    -0.312927344864E+03   -0.66635E-04   -0.66612E-04  9568   0.233E-02-0.831E-06
CGA:  14    -0.312927431297E+03   -0.86433E-04   -0.86474E-04  9568   0.109E-02 0.247E-05
CGA:  15    -0.312927491427E+03   -0.60130E-04   -0.60139E-04  9568   0.105E-02-0.668E-06
CGA:  16    -0.312927514600E+03   -0.23173E-04   -0.23191E-04  9568   0.406E-03 0.458E-07
CGA:  17    -0.312927533832E+03   -0.19232E-04   -0.19237E-04  9568   0.306E-03-0.788E-06
CGA:  18    -0.312927545088E+03   -0.11256E-04   -0.11256E-04  9568   0.399E-03 0.254E-07
CGA:  19    -0.312927567642E+03   -0.22554E-04   -0.22558E-04  9568   0.236E-03-0.293E-06
CGA:  20    -0.312927575091E+03   -0.74488E-05   -0.74561E-05  9568   0.221E-03 0.356E-06
  58 F= -.31292758E+03 E0= -.31290570E+03  d E =0.166228E-02  mag=    24.6053
       N       E                     dE             d eps       ncg     rms          ort
SDA:   1    -0.312623723665E+03    0.30384E+00    0.00000E+00  9568   0.826E+00 0.000E+00
CGA:   2    -0.312718317836E+03   -0.94594E-01   -0.96024E-01  9568   0.414E+01-0.210E-01
CGA:   3    -0.312821290790E+03   -0.10297E+00   -0.10543E+00  9568   0.125E+01-0.360E-01
CGA:   4    -0.312870229049E+03   -0.48938E-01   -0.48979E-01  9568   0.394E+00 0.230E-02
CGA:   5    -0.312888238660E+03   -0.18010E-01   -0.18012E-01  9568   0.550E+00-0.255E-02
CGA:   6    -0.312907125127E+03   -0.18886E-01   -0.18838E-01  9568   0.216E+00-0.904E-03
CGA:   7    -0.312914360914E+03   -0.72358E-02   -0.72151E-02  9568   0.190E+00-0.310E-03
CGA:   8    -0.312918601219E+03   -0.42403E-02   -0.42250E-02  9568   0.394E-01 0.336E-03
CGA:   9    -0.312922129552E+03   -0.35283E-02   -0.35171E-02  9568   0.276E-01 0.250E-03
CGA:  10    -0.312923383818E+03   -0.12543E-02   -0.12543E-02  9568   0.281E-01-0.221E-04
CGA:  11    -0.312924071859E+03   -0.68804E-03   -0.68948E-03  9568   0.592E-02-0.209E-04
CGA:  12    -0.312924442907E+03   -0.37105E-03   -0.37078E-03  9568   0.127E-01 0.131E-04
CGA:  13    -0.312924739575E+03   -0.29667E-03   -0.29602E-03  9568   0.369E-02 0.148E-04
CGA:  14    -0.312924988279E+03   -0.24870E-03   -0.24857E-03  9568   0.186E-02 0.487E-05
CGA:  15    -0.312925071076E+03   -0.82797E-04   -0.82794E-04  9568   0.182E-02-0.910E-06
CGA:  16    -0.312925124056E+03   -0.52979E-04   -0.52946E-04  9568   0.826E-03-0.773E-07
CGA:  17    -0.312925181770E+03   -0.57714E-04   -0.57644E-04  9568   0.108E-02 0.251E-05
CGA:  18    -0.312925210811E+03   -0.29041E-04   -0.29047E-04  9568   0.900E-03-0.284E-06
CGA:  19    -0.312925246633E+03   -0.35822E-04   -0.35826E-04  9568   0.225E-03 0.528E-06
CGA:  20    -0.312925270451E+03   -0.23818E-04   -0.23762E-04  9568   0.390E-03 0.935E-06
CGA:  21    -0.312925282637E+03   -0.12186E-04   -0.12201E-04  9568   0.364E-03 0.926E-06
CGA:  22    -0.312925306107E+03   -0.23471E-04   -0.23451E-04  9568   0.247E-03 0.113E-05
CGA:  23    -0.312925311052E+03   -0.49450E-05   -0.49534E-05  9568   0.137E-03 0.253E-06
CGA:  24    -0.312925321589E+03   -0.10537E-04   -0.10539E-04  9568   0.108E-03-0.145E-06
CGA:  25    -0.312925330029E+03   -0.84401E-05   -0.84373E-05  9568   0.116E-03 0.882E-07
  59 F= -.31292533E+03 E0= -.31290342E+03  d E =0.224506E-02  mag=    24.6049
       N       E                     dE             d eps       ncg     rms          ort
SDA:   1    -0.312844628314E+03    0.80693E-01    0.00000E+00  9568   0.112E+01 0.000E+00
CGA:   2    -0.312860158864E+03   -0.15531E-01   -0.14591E-01  9568   0.234E+00 0.565E-01
CGA:   3    -0.312881391691E+03   -0.21233E-01   -0.21325E-01  9568   0.501E+00-0.215E-02
CGA:   4    -0.312897651290E+03   -0.16260E-01   -0.16220E-01  9568   0.341E+00-0.878E-04
CGA:   5    -0.312906771207E+03   -0.91199E-02   -0.91873E-02  9568   0.114E+00-0.913E-03
CGA:   6    -0.312910736039E+03   -0.39648E-02   -0.39664E-02  9568   0.168E+00 0.253E-04
CGA:   7    -0.312919531710E+03   -0.87957E-02   -0.88009E-02  9568   0.334E-01-0.534E-03
CGA:   8    -0.312921283366E+03   -0.17517E-02   -0.17537E-02  9568   0.252E-01-0.209E-03
CGA:   9    -0.312922001894E+03   -0.71853E-03   -0.71972E-03  9568   0.187E-01-0.827E-05
CGA:  10    -0.312923142048E+03   -0.11402E-02   -0.11398E-02  9568   0.518E-02 0.157E-04
CGA:  11    -0.312923307625E+03   -0.16558E-03   -0.16570E-03  9568   0.586E-02 0.237E-05
CGA:  12    -0.312923501657E+03   -0.19403E-03   -0.19388E-03  9568   0.286E-02-0.226E-05
CGA:  13    -0.312923644345E+03   -0.14269E-03   -0.14262E-03  9568   0.215E-02 0.927E-05
CGA:  14    -0.312923708968E+03   -0.64622E-04   -0.64650E-04  9568   0.157E-02-0.240E-06
CGA:  15    -0.312923789099E+03   -0.80131E-04   -0.80131E-04  9568   0.489E-03-0.383E-06
CGA:  16    -0.312923825794E+03   -0.36695E-04   -0.36708E-04  9568   0.736E-03-0.294E-06
CGA:  17    -0.312923841226E+03   -0.15432E-04   -0.15459E-04  9568   0.357E-03 0.532E-06
CGA:  18    -0.312923868030E+03   -0.26804E-04   -0.26792E-04  9568   0.390E-03 0.404E-06
CGA:  19    -0.312923877118E+03   -0.90876E-05   -0.90848E-05  9568   0.173E-03 0.100E-06
CGA:  20    -0.312923887350E+03   -0.10232E-04   -0.10230E-04  9568   0.932E-04 0.194E-06
CGA:  21    -0.312923896364E+03   -0.90137E-05   -0.89763E-05  9568   0.266E-03 0.725E-06
  60 F= -.31292390E+03 E0= -.31290201E+03  d E =0.143367E-02  mag=    24.6041
       N       E                     dE             d eps       ncg     rms          ort
SDA:   1    -0.312866204686E+03    0.57683E-01    0.00000E+00  9568   0.392E+00 0.000E+00
CGA:   2    -0.312876502844E+03   -0.10298E-01   -0.10623E-01  9568   0.269E+00-0.391E-02
CGA:   3    -0.312890738863E+03   -0.14236E-01   -0.14178E-01  9568   0.296E+00 0.531E-02
CGA:   4    -0.312908327824E+03   -0.17589E-01   -0.17629E-01  9568   0.221E+00-0.236E-02
CGA:   5    -0.312912178430E+03   -0.38506E-02   -0.37862E-02  9568   0.773E-01 0.259E-02
CGA:   6    -0.312919256808E+03   -0.70784E-02   -0.70538E-02  9568   0.653E-01 0.550E-03
CGA:   7    -0.312921500396E+03   -0.22436E-02   -0.22429E-02  9568   0.420E-01-0.745E-05
CGA:   8    -0.312922615593E+03   -0.11152E-02   -0.11137E-02  9568   0.122E-01 0.259E-04
CGA:   9    -0.312923177128E+03   -0.56154E-03   -0.56154E-03  9568   0.198E-01 0.548E-05
CGA:  10    -0.312923677666E+03   -0.50054E-03   -0.49982E-03  9568   0.422E-02 0.965E-05
CGA:  11    -0.312923956351E+03   -0.27868E-03   -0.27945E-03  9568   0.287E-02-0.290E-04
CGA:  12    -0.312924072890E+03   -0.11654E-03   -0.11660E-03  9568   0.216E-02 0.347E-05
CGA:  13    -0.312924134013E+03   -0.61122E-04   -0.61176E-04  9568   0.796E-03 0.158E-06
CGA:  14    -0.312924214617E+03   -0.80604E-04   -0.80642E-04  9568   0.103E-02-0.699E-06
CGA:  15    -0.312924234033E+03   -0.19416E-04   -0.19392E-04  9568   0.423E-03-0.108E-07
CGA:  16    -0.312924252419E+03   -0.18385E-04   -0.18386E-04  9568   0.244E-03 0.102E-06
CGA:  17    -0.312924262583E+03   -0.10165E-04   -0.10163E-04  9568   0.324E-03-0.271E-06
CGA:  18    -0.312924279920E+03   -0.17337E-04   -0.17334E-04  9568   0.144E-03 0.456E-06
CGA:  19    -0.312924288503E+03   -0.85830E-05   -0.85792E-05  9568   0.849E-04 0.170E-06
  61 F= -.31292429E+03 E0= -.31290239E+03  d E =-.392139E-03  mag=    24.6038
       N       E                     dE             d eps       ncg     rms          ort
SDA:   1    -0.312750465507E+03    0.17381E+00    0.00000E+00  9568   0.163E+01 0.000E+00
CGA:   2    -0.312776378016E+03   -0.25913E-01   -0.26855E-01  9568   0.560E+00-0.462E-01
CGA:   3    -0.312833627202E+03   -0.57249E-01   -0.57431E-01  9568   0.200E+01-0.295E-02
CGA:   4    -0.312880337989E+03   -0.46711E-01   -0.45935E-01  9568   0.239E+00 0.165E-01
CGA:   5    -0.312900526166E+03   -0.20188E-01   -0.20712E-01  9568   0.338E+00-0.129E-01
CGA:   6    -0.312908329918E+03   -0.78038E-02   -0.78431E-02  9568   0.202E+00-0.884E-03
CGA:   7    -0.312916007229E+03   -0.76773E-02   -0.76651E-02  9568   0.798E-01-0.288E-03
CGA:   8    -0.312917946605E+03   -0.19394E-02   -0.19554E-02  9568   0.389E-01-0.291E-03
CGA:   9    -0.312919742991E+03   -0.17964E-02   -0.17964E-02  9568   0.264E-01-0.111E-03
CGA:  10    -0.312920979182E+03   -0.12362E-02   -0.12361E-02  9568   0.308E-01 0.913E-04
CGA:  11    -0.312921605685E+03   -0.62650E-03   -0.62254E-03  9568   0.521E-02 0.121E-03
CGA:  12    -0.312921904041E+03   -0.29836E-03   -0.29811E-03  9568   0.539E-02 0.146E-04
CGA:  13    -0.312922077617E+03   -0.17358E-03   -0.17359E-03  9568   0.446E-02 0.283E-06
CGA:  14    -0.312922290617E+03   -0.21300E-03   -0.21297E-03  9568   0.277E-02 0.636E-05
CGA:  15    -0.312922346722E+03   -0.56105E-04   -0.55883E-04  9568   0.117E-02 0.460E-05
CGA:  16    -0.312922431456E+03   -0.84734E-04   -0.84738E-04  9568   0.670E-03-0.152E-06
CGA:  17    -0.312922455248E+03   -0.23792E-04   -0.23785E-04  9568   0.896E-03-0.594E-06
CGA:  18    -0.312922498723E+03   -0.43475E-04   -0.43471E-04  9568   0.666E-03 0.121E-05
CGA:  19    -0.312922519156E+03   -0.20433E-04   -0.20446E-04  9568   0.531E-03 0.331E-06
CGA:  20    -0.312922540106E+03   -0.20950E-04   -0.20950E-04  9568   0.177E-03 0.163E-06
CGA:  21    -0.312922551959E+03   -0.11854E-04   -0.11854E-04  9568   0.470E-03-0.528E-07
CGA:  22    -0.312922567384E+03   -0.15424E-04   -0.15435E-04  9568   0.252E-03 0.756E-06
CGA:  23    -0.312922580014E+03   -0.12631E-04   -0.12628E-04  9568   0.256E-03 0.484E-06
CGA:  24    -0.312922586819E+03   -0.68050E-05   -0.68168E-05  9568   0.884E-04 0.660E-06
  62 F= -.31292259E+03 E0= -.31290063E+03  d E =0.170168E-02  mag=    24.6018
