       N       E                     dE             d eps       ncg     rms          ort
DAV:   1     0.540643228678E+04    0.54064E+04   -0.27039E+05  7904   0.160E+03
DAV:   2     0.168637818012E+03   -0.52378E+04   -0.48799E+04  7904   0.450E+02
DAV:   3    -0.383892831200E+03   -0.55253E+03   -0.54370E+03  7904   0.161E+02
DAV:   4    -0.396027129060E+03   -0.12134E+02   -0.12070E+02  7904   0.253E+01
DAV:   5    -0.396374087479E+03   -0.34696E+00   -0.34655E+00  7904   0.347E+00
SDA:   6    -0.164243214290E+03    0.23213E+03   -0.34655E+00  7904   0.100E+04 0.000E+00
CGA:   7    -0.268153620952E+03   -0.10391E+03   -0.11719E+03  7904   0.616E+03 0.599E+02
CGA:   8    -0.287224116597E+03   -0.19070E+02   -0.14937E+02  7904   0.121E+04-0.802E+03
CGA:   9    -0.278253393505E+03    0.89707E+01   -0.46320E+02  7904   0.132E+04-0.156E+03
CGA:  10    -0.286836263404E+03   -0.85829E+01   -0.38110E+02  7904   0.659E+03-0.124E+03
CGA:  11    -0.302304900882E+03   -0.15469E+02   -0.11350E+02  7904   0.712E+03-0.359E+03
CGA:  12    -0.279059230461E+03    0.23246E+02   -0.33947E+02  7904   0.412E+03-0.179E+03
CGA:  13    -0.282876907409E+03   -0.38177E+01   -0.17326E+01  7904   0.439E+03 0.354E+03
CGA:  14    -0.291930096979E+03   -0.90532E+01   -0.32547E+01  7904   0.100E+04 0.120E+04
CGA:  15    -0.306616343739E+03   -0.14686E+02   -0.17165E+02  7904   0.738E+03-0.756E+03
CGA:  16    -0.286478695673E+03    0.20138E+02   -0.29498E+02  7904   0.403E+03-0.176E+03
CGA:  17    -0.291947563623E+03   -0.54689E+01   -0.17887E+01  7904   0.101E+04 0.933E+03
CGA:  18    -0.286562096095E+03    0.53855E+01   -0.21102E+02  7904   0.182E+04-0.109E+04
CGA:  19    -0.296301868007E+03   -0.97398E+01   -0.42930E+02  7904   0.147E+04-0.418E+03
CGA:  20    -0.306317160442E+03   -0.10015E+02   -0.26336E+02  7904   0.782E+03-0.485E+03
CGA:  21    -0.312696467924E+03   -0.63793E+01   -0.96516E+01  7904   0.102E+04 0.155E+03
CGA:  22    -0.274088627107E+03    0.38608E+02   -0.54347E+02  7904   0.536E+03-0.383E+02
CGA:  23    -0.305556026953E+03   -0.31467E+02   -0.51792E+01  7904   0.825E+03 0.511E+03
CGA:  24    -0.298751468195E+03    0.68046E+01   -0.33849E+02  7904   0.652E+03-0.351E+03
CGA:  25    -0.323708788585E+03   -0.24957E+02   -0.54960E+01  7904   0.387E+03-0.150E+03
CGA:  26    -0.295049431126E+03    0.28659E+02   -0.76564E+01  7904   0.110E+04-0.272E+03
CGA:  27    -0.317077913159E+03   -0.22028E+02   -0.15939E+02  7904   0.131E+04-0.108E+04
CGA:  28    -0.293759708148E+03    0.23318E+02   -0.46820E+02  7904   0.984E+03-0.386E+03
CGA:  29    -0.325029605938E+03   -0.31270E+02   -0.72309E+01  7904   0.402E+03 0.149E+04
CGA:  30    -0.312649166417E+03    0.12380E+02   -0.10326E+02  7904   0.216E+04-0.693E+02
CGA:  31    -0.296947521077E+03    0.15702E+02   -0.58560E+02  7904   0.391E+03-0.282E+03
CGA:  32    -0.320751283698E+03   -0.23804E+02   -0.15505E+02  7904   0.257E+03 0.516E+03
CGA:  33    -0.326246794054E+03   -0.54955E+01   -0.32027E+01  7904   0.108E+03 0.185E+03
CGA:  34    -0.329592980198E+03   -0.33462E+01   -0.11114E+01  7904   0.168E+03 0.253E+03
CGA:  35    -0.332617341073E+03   -0.30244E+01   -0.27907E+01  7904   0.258E+02-0.186E+02
CGA:  36    -0.333138523415E+03   -0.52118E+00   -0.48954E+00  7904   0.498E+01-0.138E-01
CGA:  37    -0.333476437191E+03   -0.33791E+00   -0.34715E+00  7904   0.884E+01-0.803E+00
CGA:  38    -0.333609939335E+03   -0.13350E+00   -0.11007E+00  7904   0.827E+01 0.137E+01
CGA:  39    -0.333840794238E+03   -0.23085E+00   -0.19647E+00  7904   0.808E+01 0.176E+01
CGA:  40    -0.334086300063E+03   -0.24551E+00   -0.28144E+00  7904   0.911E+01 0.930E-01
CGA:  41    -0.334191193167E+03   -0.10489E+00   -0.58067E-01  7904   0.677E+01 0.733E+01
CGA:  42    -0.334355480475E+03   -0.16429E+00   -0.14580E+00  7904   0.206E+01 0.686E+00
CGA:  43    -0.334413991539E+03   -0.58511E-01   -0.49719E-01  7904   0.165E+01 0.254E+00
CGA:  44    -0.334514516870E+03   -0.10053E+00   -0.99383E-01  7904   0.233E+01 0.240E+00
CGA:  45    -0.334598650462E+03   -0.84134E-01   -0.95072E-01  7904   0.298E+01 0.295E-01
CGA:  46    -0.334617593282E+03   -0.18943E-01   -0.94552E-02  7904   0.271E+01 0.301E+01
CGA:  47    -0.334678325360E+03   -0.60732E-01   -0.49178E-01  7904   0.126E+01 0.492E+00
CGA:  48    -0.334712025703E+03   -0.33700E-01   -0.21174E-01  7904   0.711E+00 0.755E+00
CGA:  49    -0.334728514367E+03   -0.16489E-01   -0.16454E-01  7904   0.655E+00-0.160E-03
CGA:  50    -0.334799109636E+03   -0.70595E-01   -0.78935E-01  7904   0.209E+01-0.153E+00
CGA:  51    -0.334852463082E+03   -0.53353E-01   -0.53589E-01  7904   0.162E+01 0.800E-02
CGA:  52    -0.333924746099E+03    0.92772E+00   -0.14420E+00  7904   0.110E+03-0.294E+02
CGA:  53    -0.334824707770E+03   -0.89996E+00   -0.28723E+01  7904   0.447E+01-0.587E+01
CGA:  54    -0.334975006896E+03   -0.15030E+00   -0.12567E+00  7904   0.238E+01 0.562E+00
CGA:  55    -0.335003946470E+03   -0.28940E-01   -0.19422E-01  7904   0.915E+00 0.123E+01
CGA:  56    -0.335022045328E+03   -0.18099E-01   -0.17373E-01  7904   0.329E+00 0.226E-01
CGA:  57    -0.335032078864E+03   -0.10034E-01   -0.99759E-02  7904   0.316E+00-0.553E-03
CGA:  58    -0.335065745746E+03   -0.33667E-01   -0.34764E-01  7904   0.511E+00-0.250E-01
CGA:  59    -0.335090695268E+03   -0.24950E-01   -0.24197E-01  7904   0.469E+00 0.855E-01
CGA:  60    -0.335117681728E+03   -0.26986E-01   -0.26803E-01  7904   0.106E+01 0.429E-01
CGA:  61    -0.335163117075E+03   -0.45435E-01   -0.41226E-01  7904   0.477E+00-0.892E-01
CGA:  62    -0.335177891690E+03   -0.14775E-01   -0.14747E-01  7904   0.349E+00-0.191E-03
CGA:  63    -0.335196988771E+03   -0.19097E-01   -0.19297E-01  7904   0.471E+00-0.139E-01
CGA:  64    -0.335214380956E+03   -0.17392E-01   -0.17377E-01  7904   0.377E+00-0.753E-03
CGA:  65    -0.335230019305E+03   -0.15638E-01   -0.15658E-01  7904   0.171E+00 0.230E-02
CGA:  66    -0.335237902684E+03   -0.78834E-02   -0.78808E-02  7904   0.217E+00 0.321E-02
CGA:  67    -0.335249401742E+03   -0.11499E-01   -0.11543E-01  7904   0.287E+00-0.401E-02
CGA:  68    -0.335261061008E+03   -0.11659E-01   -0.11642E-01  7904   0.117E+00-0.133E-02
CGA:  69    -0.335270519765E+03   -0.94588E-02   -0.94994E-02  7904   0.289E+00-0.929E-03
CGA:  70    -0.335279386533E+03   -0.88668E-02   -0.82212E-02  7904   0.643E-01 0.898E-02
CGA:  71    -0.335284597889E+03   -0.52114E-02   -0.51823E-02  7904   0.125E+00 0.946E-03
CGA:  72    -0.335289316846E+03   -0.47190E-02   -0.43806E-02  7904   0.147E+00-0.194E-02
CGA:  73    -0.335296220368E+03   -0.69035E-02   -0.69010E-02  7904   0.116E+00 0.376E-02
CGA:  74    -0.335299431484E+03   -0.32111E-02   -0.33154E-02  7904   0.142E+00-0.119E-02
CGA:  75    -0.335305754309E+03   -0.63228E-02   -0.62061E-02  7904   0.177E+00-0.251E-01
CGA:  76    -0.335308410556E+03   -0.26562E-02   -0.29088E-02  7904   0.802E-01-0.716E-02
CGA:  77    -0.335309963717E+03   -0.15532E-02   -0.16186E-02  7904   0.925E-01-0.182E-02
CGA:  78    -0.335313827999E+03   -0.38643E-02   -0.38582E-02  7904   0.127E+00-0.269E-02
CGA:  79    -0.335316496212E+03   -0.26682E-02   -0.24724E-02  7904   0.105E+00 0.575E-02
CGA:  80    -0.335319328569E+03   -0.28324E-02   -0.29860E-02  7904   0.158E+00-0.809E-03
CGA:  81    -0.335323796808E+03   -0.44682E-02   -0.43127E-02  7904   0.664E-01 0.111E-02
CGA:  82    -0.335325472573E+03   -0.16758E-02   -0.16035E-02  7904   0.104E+00 0.822E-03
CGA:  83    -0.335329234899E+03   -0.37623E-02   -0.37829E-02  7904   0.106E+00 0.184E-02
CGA:  84    -0.335330768165E+03   -0.15333E-02   -0.16748E-02  7904   0.480E-01-0.641E-02
CGA:  85    -0.335332799469E+03   -0.20313E-02   -0.20616E-02  7904   0.110E+00-0.293E-02
SDA:  86    -0.335335510250E+03   -0.27108E-02   -0.26379E-02  7904   0.661E-01 0.303E-03
CGA:  87    -0.335336427019E+03   -0.91677E-03   -0.91381E-03  7904   0.348E-01 0.147E-03
CGA:  88    -0.335340177523E+03   -0.37505E-02   -0.40179E-02  7904   0.804E-01-0.420E-02
CGA:  89    -0.335345104946E+03   -0.49274E-02   -0.49495E-02  7904   0.123E+00-0.111E-02
CGA:  90    -0.335347683363E+03   -0.25784E-02   -0.25907E-02  7904   0.708E-01-0.459E-03
CGA:  91    -0.335353367973E+03   -0.56846E-02   -0.77498E-02  7904   0.471E+00-0.369E-01
CGA:  92    -0.335358126795E+03   -0.47588E-02   -0.46289E-02  7904   0.624E-01 0.111E-01
CGA:  93    -0.335360097188E+03   -0.19704E-02   -0.19664E-02  7904   0.248E-01-0.175E-04
CGA:  94    -0.335360561954E+03   -0.46477E-03   -0.46438E-03  7904   0.229E-01 0.242E-04
CGA:  95    -0.335362269125E+03   -0.17072E-02   -0.17190E-02  7904   0.874E-02-0.350E-03
CGA:  96    -0.335362515329E+03   -0.24620E-03   -0.24638E-03  7904   0.201E-01-0.814E-05
CGA:  97    -0.335363953374E+03   -0.14380E-02   -0.16220E-02  7904   0.544E-01-0.558E-02
CGA:  98    -0.335364919189E+03   -0.96581E-03   -0.64071E-03  7904   0.632E-01 0.172E-01
CGA:  99    -0.335366500929E+03   -0.15817E-02   -0.11748E-02  7904   0.424E-01 0.249E-01
CGA: 100    -0.335367468828E+03   -0.96790E-03   -0.88684E-03  7904   0.214E-01 0.415E-02
CGA: 101    -0.335367803902E+03   -0.33507E-03   -0.34391E-03  7904   0.131E-01-0.445E-03
CGA: 102    -0.335368012480E+03   -0.20858E-03   -0.21736E-03  7904   0.120E-01-0.336E-03
CGA: 103    -0.335368306277E+03   -0.29380E-03   -0.29643E-03  7904   0.172E-01-0.180E-04
CGA: 104    -0.335368702245E+03   -0.39597E-03   -0.38128E-03  7904   0.181E-01 0.178E-03
CGA: 105    -0.335368959738E+03   -0.25749E-03   -0.23802E-03  7904   0.994E-02 0.108E-02
CGA: 106    -0.335369110116E+03   -0.15038E-03   -0.14738E-03  7904   0.753E-02 0.139E-03
CGA: 107    -0.335369226621E+03   -0.11650E-03   -0.11676E-03  7904   0.743E-02-0.339E-05
CGA: 108    -0.335369365400E+03   -0.13878E-03   -0.14008E-03  7904   0.897E-02-0.870E-05
CGA: 109    -0.335369509348E+03   -0.14395E-03   -0.14828E-03  7904   0.881E-02-0.102E-03
CGA: 110    -0.335369679331E+03   -0.16998E-03   -0.17039E-03  7904   0.919E-02 0.190E-04
CGA: 111    -0.335369838433E+03   -0.15910E-03   -0.15295E-03  7904   0.925E-02 0.192E-03
CGA: 112    -0.335369982788E+03   -0.14435E-03   -0.14003E-03  7904   0.747E-02 0.203E-03
CGA: 113    -0.335370094168E+03   -0.11138E-03   -0.10911E-03  7904   0.754E-02 0.129E-03
CGA: 114    -0.335370216765E+03   -0.12260E-03   -0.11768E-03  7904   0.903E-02 0.193E-03
CGA: 115    -0.335370353432E+03   -0.13667E-03   -0.13056E-03  7904   0.122E-01 0.285E-03
CGA: 116    -0.335370519634E+03   -0.16620E-03   -0.16650E-03  7904   0.142E-01 0.827E-04
CGA: 117    -0.335370680072E+03   -0.16044E-03   -0.17428E-03  7904   0.120E-01-0.509E-03
CGA: 118    -0.335370829317E+03   -0.14924E-03   -0.15517E-03  7904   0.892E-02-0.103E-03
CGA: 119    -0.335370933297E+03   -0.10398E-03   -0.10209E-03  7904   0.563E-02 0.150E-03
CGA: 120    -0.335371017556E+03   -0.84259E-04   -0.82529E-04  7904   0.627E-02 0.586E-04
CGA: 121    -0.335371114278E+03   -0.96722E-04   -0.93799E-04  7904   0.859E-02 0.659E-04
SDA: 122    -0.335371234343E+03   -0.12007E-03   -0.11394E-03  7904   0.122E-01 0.227E-03
CGA: 123    -0.335371614166E+03   -0.37982E-03   -0.37879E-03  7904   0.106E-01 0.964E-04
CGA: 124    -0.335371808242E+03   -0.19408E-03   -0.19405E-03  7904   0.979E-02-0.990E-05
CGA: 125    -0.335372786688E+03   -0.97845E-03   -0.10793E-02  7904   0.170E-01-0.153E-02
CGA: 126    -0.335373553918E+03   -0.76723E-03   -0.76234E-03  7904   0.227E-01 0.188E-03
CGA: 127    -0.335373896291E+03   -0.34237E-03   -0.34745E-03  7904   0.805E-02-0.168E-03
CGA: 128    -0.335374126257E+03   -0.22997E-03   -0.22983E-03  7904   0.357E-02 0.133E-03
CGA: 129    -0.335374238275E+03   -0.11202E-03   -0.11206E-03  7904   0.693E-02-0.762E-05
CGA: 130    -0.335374518702E+03   -0.28043E-03   -0.28494E-03  7904   0.555E-02-0.297E-03
CGA: 131    -0.335374661263E+03   -0.14256E-03   -0.14241E-03  7904   0.511E-02-0.236E-04
CGA: 132    -0.335374754728E+03   -0.93465E-04   -0.93741E-04  7904   0.252E-02 0.125E-05
CGA: 133    -0.335374927572E+03   -0.17284E-03   -0.17257E-03  7904   0.482E-02-0.258E-05
CGA: 134    -0.335375007784E+03   -0.80212E-04   -0.78456E-04  7904   0.215E-02 0.468E-04
CGA: 135    -0.335375078401E+03   -0.70617E-04   -0.70685E-04  7904   0.135E-02-0.133E-04
CGA: 136    -0.335375137432E+03   -0.59030E-04   -0.58669E-04  7904   0.188E-02 0.213E-04
CGA: 137    -0.335375183704E+03   -0.46272E-04   -0.46581E-04  7904   0.237E-02 0.158E-04
CGA: 138    -0.335375284537E+03   -0.10083E-03   -0.10291E-03  7904   0.130E-02-0.134E-03
CGA: 139    -0.335375302301E+03   -0.17763E-04   -0.17700E-04  7904   0.605E-03 0.632E-05
CGA: 140    -0.335375326965E+03   -0.24665E-04   -0.24724E-04  7904   0.112E-02-0.238E-05
CGA: 141    -0.335375406137E+03   -0.79171E-04   -0.86598E-04  7904   0.492E-02-0.213E-03
CGA: 142    -0.335375438418E+03   -0.32281E-04   -0.21765E-04  7904   0.397E-02 0.192E-02
CGA: 143    -0.335375487887E+03   -0.49469E-04   -0.44022E-04  7904   0.250E-02 0.702E-03
CGA: 144    -0.335375524413E+03   -0.36526E-04   -0.37117E-04  7904   0.280E-02 0.168E-04
CGA: 145    -0.335375547792E+03   -0.23379E-04   -0.24037E-04  7904   0.166E-02-0.130E-04
CGA: 146    -0.335375563427E+03   -0.15635E-04   -0.16059E-04  7904   0.168E-02-0.150E-04
CGA: 147    -0.335375585614E+03   -0.22186E-04   -0.22697E-04  7904   0.187E-02-0.255E-05
CGA: 148    -0.335375601207E+03   -0.15594E-04   -0.15866E-04  7904   0.916E-03-0.394E-05
CGA: 149    -0.335375612135E+03   -0.10928E-04   -0.10963E-04  7904   0.126E-02 0.508E-05
CGA: 150    -0.335375633387E+03   -0.21252E-04   -0.20897E-04  7904   0.176E-02 0.585E-05
CGA: 151    -0.335375648197E+03   -0.14809E-04   -0.14212E-04  7904   0.103E-02 0.575E-04
CGA: 152    -0.335375659826E+03   -0.11629E-04   -0.11533E-04  7904   0.138E-02 0.121E-05
SDA: 153    -0.335375679167E+03   -0.19341E-04   -0.19160E-04  7904   0.198E-02-0.106E-05
CGA: 154    -0.335375706762E+03   -0.27595E-04   -0.27645E-04  7904   0.119E-02 0.176E-05
CGA: 155    -0.335375778633E+03   -0.71871E-04   -0.71111E-04  7904   0.172E-02 0.231E-04
CGA: 156    -0.335375913100E+03   -0.13447E-03   -0.13406E-03  7904   0.453E-02 0.814E-05
CGA: 157    -0.335375983732E+03   -0.70632E-04   -0.70894E-04  7904   0.166E-02-0.242E-04
CGA: 158    -0.335376052526E+03   -0.68794E-04   -0.70614E-04  7904   0.153E-02-0.100E-03
CGA: 159    -0.335376158936E+03   -0.10641E-03   -0.10202E-03  7904   0.335E-02 0.105E-03
CGA: 160    -0.335376210981E+03   -0.52046E-04   -0.52660E-04  7904   0.660E-03-0.200E-04
CGA: 161    -0.335376227055E+03   -0.16074E-04   -0.16116E-04  7904   0.471E-03 0.468E-05
CGA: 162    -0.335376241299E+03   -0.14244E-04   -0.14230E-04  7904   0.575E-03 0.750E-05
CGA: 163    -0.335376267681E+03   -0.26382E-04   -0.26109E-04  7904   0.851E-03 0.160E-04
CGA: 164    -0.335376291629E+03   -0.23948E-04   -0.23951E-04  7904   0.701E-03 0.733E-05
CGA: 165    -0.335376309484E+03   -0.17855E-04   -0.17879E-04  7904   0.337E-03 0.751E-05
CGA: 166    -0.335376320262E+03   -0.10778E-04   -0.10763E-04  7904   0.618E-03 0.617E-05
CGA: 167    -0.335376371719E+03   -0.51456E-04   -0.49874E-04  7904   0.142E-02 0.319E-04
CGA: 168    -0.335376398646E+03   -0.26928E-04   -0.26868E-04  7904   0.499E-03 0.185E-04
CGA: 169    -0.335376414142E+03   -0.15496E-04   -0.15498E-04  7904   0.561E-03 0.604E-05
CGA: 170    -0.335376438530E+03   -0.24388E-04   -0.24284E-04  7904   0.107E-02 0.945E-05
CGA: 171    -0.335376472462E+03   -0.33932E-04   -0.33936E-04  7904   0.573E-03 0.161E-04
CGA: 172    -0.335376484528E+03   -0.12065E-04   -0.12079E-04  7904   0.426E-03 0.372E-05
CGA: 173    -0.335376505979E+03   -0.21452E-04   -0.21487E-04  7904   0.733E-03-0.175E-05
CGA: 174    -0.335376528369E+03   -0.22389E-04   -0.22384E-04  7904   0.948E-03-0.205E-05
CGA: 175    -0.335376565354E+03   -0.36985E-04   -0.36945E-04  7904   0.691E-03 0.281E-05
CGA: 176    -0.335376577693E+03   -0.12339E-04   -0.12364E-04  7904   0.347E-03 0.182E-05
CGA: 177    -0.335376594930E+03   -0.17237E-04   -0.17130E-04  7904   0.662E-03 0.553E-05
CGA: 178    -0.335376615817E+03   -0.20887E-04   -0.20887E-04  7904   0.693E-03 0.268E-05
CGA: 179    -0.335376633537E+03   -0.17720E-04   -0.17728E-04  7904   0.247E-03 0.104E-05
CGA: 180    -0.335376638692E+03   -0.51542E-05   -0.51558E-05  7904   0.195E-03 0.966E-06
   1 F= -.33537664E+03 E0= -.33535039E+03  d E =-.335377E+03  mag=    32.0000
       N       E                     dE             d eps       ncg     rms          ort
SDA:   1    -0.335369725762E+03    0.69078E-02    0.00000E+00  7904   0.554E+00 0.000E+00
CGA:   2    -0.335374894368E+03   -0.51686E-02   -0.50847E-02  7904   0.757E-01 0.707E-02
CGA:   3    -0.335376692829E+03   -0.17985E-02   -0.17362E-02  7904   0.425E-02-0.831E-03
CGA:   4    -0.335376761744E+03   -0.68916E-04   -0.69009E-04  7904   0.232E-02-0.554E-06
CGA:   5    -0.335376827153E+03   -0.65408E-04   -0.65385E-04  7904   0.192E-02-0.707E-05
CGA:   6    -0.335376875358E+03   -0.48205E-04   -0.48215E-04  7904   0.224E-02 0.235E-05
CGA:   7    -0.335376949691E+03   -0.74334E-04   -0.74291E-04  7904   0.818E-03 0.100E-04
CGA:   8    -0.335376984289E+03   -0.34598E-04   -0.34644E-04  7904   0.964E-03-0.349E-05
CGA:   9    -0.335376999692E+03   -0.15403E-04   -0.15401E-04  7904   0.645E-03-0.578E-06
CGA:  10    -0.335377037038E+03   -0.37346E-04   -0.37510E-04  7904   0.113E-03-0.573E-05
CGA:  11    -0.335377039962E+03   -0.29238E-05   -0.29189E-05  7904   0.211E-03-0.933E-06
   2 F= -.33537704E+03 E0= -.33535080E+03  d E =-.401271E-03  mag=    32.0000
       N       E                     dE             d eps       ncg     rms          ort
SDA:   1    -0.335346885004E+03    0.30152E-01    0.00000E+00  7904   0.355E+01 0.000E+00
CGA:   2    -0.335374253848E+03   -0.27369E-01   -0.30587E-01  7904   0.150E+00-0.307E+00
CGA:   3    -0.335376778277E+03   -0.25244E-02   -0.24591E-02  7904   0.325E-01 0.108E-02
CGA:   4    -0.335377165575E+03   -0.38730E-03   -0.38344E-03  7904   0.145E-02 0.225E-03
CGA:   5    -0.335377197205E+03   -0.31629E-04   -0.31565E-04  7904   0.116E-02-0.518E-05
CGA:   6    -0.335377232056E+03   -0.34851E-04   -0.34859E-04  7904   0.133E-02-0.357E-05
CGA:   7    -0.335377308551E+03   -0.76495E-04   -0.76688E-04  7904   0.142E-02-0.658E-05
CGA:   8    -0.335377327066E+03   -0.18515E-04   -0.18553E-04  7904   0.317E-03 0.101E-05
CGA:   9    -0.335377345421E+03   -0.18355E-04   -0.18277E-04  7904   0.657E-03 0.274E-05
CGA:  10    -0.335377360726E+03   -0.15305E-04   -0.15327E-04  7904   0.433E-03 0.271E-05
CGA:  11    -0.335377371239E+03   -0.10513E-04   -0.10506E-04  7904   0.110E-03-0.644E-06
CGA:  12    -0.335377373611E+03   -0.23717E-05   -0.23749E-05  7904   0.116E-03 0.378E-06
   3 F= -.33537737E+03 E0= -.33535114E+03  d E =-.333648E-03  mag=    32.0000
       N       E                     dE             d eps       ncg     rms          ort
SDA:   1    -0.333835858412E+03    0.15415E+01    0.00000E+00  7904   0.145E+02 0.000E+00
CGA:   2    -0.333993443931E+03   -0.15759E+00   -0.15167E+00  7904   0.493E+01 0.286E+00
CGA:   3    -0.334921958074E+03   -0.92851E+00   -0.43196E-01  7904   0.711E+01-0.659E-01
CGA:   4    -0.335024520039E+03   -0.10256E+00   -0.97357E-01  7904   0.401E+01 0.305E+00
CGA:   5    -0.335107182260E+03   -0.82662E-01   -0.52671E-01  7904   0.197E+01 0.209E+01
CGA:   6    -0.335143442003E+03   -0.36260E-01   -0.37230E-01  7904   0.198E+01-0.370E-01
CGA:   7    -0.335238365163E+03   -0.94923E-01   -0.94901E-01  7904   0.238E+01-0.163E+00
CGA:   8    -0.335286074107E+03   -0.47709E-01   -0.45166E-01  7904   0.172E+01 0.794E-01
CGA:   9    -0.335329633707E+03   -0.43560E-01   -0.50158E-01  7904   0.334E+00-0.399E-01
CGA:  10    -0.335341013197E+03   -0.11379E-01   -0.11493E-01  7904   0.746E+00 0.188E-02
CGA:  11    -0.335359647282E+03   -0.18634E-01   -0.17974E-01  7904   0.409E+00 0.131E-01
CGA:  12    -0.335380601474E+03   -0.20954E-01   -0.20905E-01  7904   0.366E+00 0.537E-02
CGA:  13    -0.335386739086E+03   -0.61376E-02   -0.62862E-02  7904   0.174E+00-0.586E-02
CGA:  14    -0.335391765688E+03   -0.50266E-02   -0.49384E-02  7904   0.148E+00 0.120E-03
CGA:  15    -0.335394895244E+03   -0.31296E-02   -0.31241E-02  7904   0.120E+00 0.147E-03
CGA:  16    -0.335399534143E+03   -0.46389E-02   -0.46426E-02  7904   0.213E-01 0.525E-03
CGA:  17    -0.335400024661E+03   -0.49052E-03   -0.48810E-03  7904   0.331E-01 0.302E-04
CGA:  18    -0.335401419752E+03   -0.13951E-02   -0.13958E-02  7904   0.200E-01-0.286E-03
CGA:  19    -0.335402012470E+03   -0.59272E-03   -0.59334E-03  7904   0.220E-01 0.542E-05
CGA:  20    -0.335402494736E+03   -0.48227E-03   -0.47983E-03  7904   0.594E-02 0.352E-04
CGA:  21    -0.335402622526E+03   -0.12779E-03   -0.12784E-03  7904   0.822E-02 0.261E-05
CGA:  22    -0.335403158641E+03   -0.53611E-03   -0.52974E-03  7904   0.800E-02 0.221E-03
CGA:  23    -0.335403549656E+03   -0.39102E-03   -0.39142E-03  7904   0.120E-01-0.340E-04
CGA:  24    -0.335403709760E+03   -0.16010E-03   -0.16063E-03  7904   0.306E-02-0.173E-04
CGA:  25    -0.335403827387E+03   -0.11763E-03   -0.11763E-03  7904   0.513E-02 0.191E-05
CGA:  26    -0.335403990681E+03   -0.16329E-03   -0.16318E-03  7904   0.545E-02-0.146E-05
CGA:  27    -0.335404172549E+03   -0.18187E-03   -0.18216E-03  7904   0.472E-02 0.296E-04
CGA:  28    -0.335404233397E+03   -0.60848E-04   -0.61007E-04  7904   0.127E-02-0.264E-05
CGA:  29    -0.335404327373E+03   -0.93976E-04   -0.94620E-04  7904   0.163E-02-0.171E-04
CGA:  30    -0.335404370596E+03   -0.43223E-04   -0.43296E-04  7904   0.269E-02 0.331E-05
CGA:  31    -0.335404446943E+03   -0.76347E-04   -0.76584E-04  7904   0.643E-03 0.677E-05
CGA:  32    -0.335404461462E+03   -0.14519E-04   -0.14505E-04  7904   0.606E-03-0.612E-06
CGA:  33    -0.335404491126E+03   -0.29664E-04   -0.29690E-04  7904   0.584E-03-0.180E-05
CGA:  34    -0.335404512520E+03   -0.21393E-04   -0.21391E-04  7904   0.134E-02-0.186E-05
CGA:  35    -0.335404543085E+03   -0.30565E-04   -0.30558E-04  7904   0.134E-03 0.713E-07
SDA:  36    -0.335404549971E+03   -0.68869E-05   -0.68781E-05  7904   0.307E-03 0.567E-06
   4 F= -.33540455E+03 E0= -.33537859E+03  d E =-.271764E-01  mag=    32.0000
       N       E                     dE             d eps       ncg     rms          ort
SDA:   1    -0.283134314226E+03    0.52270E+02    0.00000E+00  7904   0.670E+03 0.000E+00
CGA:   2    -0.309061109276E+03   -0.25927E+02   -0.39382E+02  7904   0.290E+03-0.299E+03
CGA:   3     0.900079655894E+03    0.12091E+04   -0.37629E+03  7904   0.977E+05-0.112E+05
CGA:   4    -0.195282739634E+03   -0.10954E+04   -0.31154E+04  7904   0.348E+04-0.111E+05
CGA:   5    -0.308631196532E+03   -0.11335E+03   -0.88460E+02  7904   0.173E+03 0.368E+03
CGA:   6    -0.312994061040E+03   -0.43629E+01   -0.17710E+01  7904   0.302E+03 0.376E+03
CGA:   7    -0.324755739311E+03   -0.11762E+02   -0.35339E+01  7904   0.475E+03-0.796E+03
CGA:   8    -0.316700776861E+03    0.80550E+01   -0.96880E+01  7904   0.965E+03-0.431E+03
CGA:   9    -0.312454078069E+03    0.42467E+01   -0.18964E+02  7904   0.137E+03-0.877E+02
CGA:  10    -0.326071853655E+03   -0.13618E+02   -0.18322E+01  7904   0.761E+03-0.122E+04
CGA:  11    -0.314863074630E+03    0.11209E+02   -0.16957E+02  7904   0.313E+03-0.122E+03
CGA:  12    -0.317273934770E+03   -0.24109E+01   -0.48444E+01  7904   0.164E+04-0.120E+04
CGA:  13    -0.313134673788E+03    0.41393E+01   -0.38098E+02  7904   0.964E+02-0.731E+02
CGA:  14    -0.322629885487E+03   -0.94952E+01   -0.10021E+01  7904   0.124E+04 0.169E+04
CGA:  15    -0.314301014693E+03    0.83289E+01   -0.24746E+02  7904   0.126E+04-0.807E+03
CGA:  16    -0.314440627992E+03   -0.13961E+00   -0.27533E+02  7904   0.134E+03-0.120E+03
CGA:  17    -0.333119234993E+03   -0.18679E+02   -0.13488E+01  7904   0.314E+02 0.433E+00
CGA:  18    -0.332993299658E+03    0.12594E+00   -0.96902E-01  7904   0.798E+02-0.722E+02
CGA:  19    -0.333425478563E+03   -0.43218E+00   -0.65923E+00  7904   0.393E+02-0.310E+02
CGA:  20    -0.333674830860E+03   -0.24935E+00   -0.12658E+00  7904   0.257E+02 0.239E+02
CGA:  21    -0.333890292331E+03   -0.21546E+00   -0.14967E+00  7904   0.129E+02 0.115E+02
CGA:  22    -0.334045937493E+03   -0.15565E+00   -0.74202E-01  7904   0.139E+02 0.199E+02
CGA:  23    -0.334249604661E+03   -0.20367E+00   -0.13763E+00  7904   0.755E+01 0.558E+01
CGA:  24    -0.334330220679E+03   -0.80616E-01   -0.55530E-01  7904   0.195E+01 0.419E+01
CGA:  25    -0.334364343663E+03   -0.34123E-01   -0.34324E-01  7904   0.463E+01-0.615E-02
CGA:  26    -0.334507520507E+03   -0.14318E+00   -0.15018E+00  7904   0.884E+01-0.253E+01
CGA:  27    -0.334614217115E+03   -0.10670E+00   -0.14514E+00  7904   0.134E+01-0.804E+00
CGA:  28    -0.334631999770E+03   -0.17783E-01   -0.17986E-01  7904   0.206E+01-0.763E-02
CGA:  29    -0.334702493072E+03   -0.70493E-01   -0.71512E-01  7904   0.342E+01-0.123E+00
CGA:  30    -0.334827094792E+03   -0.12460E+00   -0.12226E+00  7904   0.535E+01 0.194E+00
CGA:  31    -0.334949488999E+03   -0.12239E+00   -0.11696E+00  7904   0.859E+00 0.126E+00
CGA:  32    -0.334985117589E+03   -0.35629E-01   -0.35526E-01  7904   0.221E+01 0.384E-02
CGA:  33    -0.335015517179E+03   -0.30400E-01   -0.22491E-01  7904   0.715E+00 0.620E+00
CGA:  34    -0.335024857135E+03   -0.93400E-02   -0.91122E-02  7904   0.439E+00 0.169E-01
CGA:  35    -0.335033202129E+03   -0.83450E-02   -0.84478E-02  7904   0.809E+00 0.358E-03
CGA:  36    -0.335050639242E+03   -0.17437E-01   -0.17513E-01  7904   0.121E+01 0.433E-02
CGA:  37    -0.335066080427E+03   -0.15441E-01   -0.15709E-01  7904   0.979E+00 0.741E-03
CGA:  38    -0.335084111612E+03   -0.18031E-01   -0.18320E-01  7904   0.841E+00 0.138E-01
CGA:  39    -0.335093336508E+03   -0.92249E-02   -0.12673E-01  7904   0.523E+00-0.946E-01
CGA:  40    -0.332829261928E+03    0.22641E+01    0.64290E-01  7904   0.148E+03-0.245E-01
CGA:  41    -0.328218830981E+03    0.46104E+01   -0.87680E-01  7904   0.617E+02-0.833E+03
CGA:  42    -0.329144610205E+03   -0.92578E+00   -0.35861E+00  7904   0.939E+02 0.107E+03
CGA:  43    -0.330787141047E+03   -0.16425E+01   -0.66548E+00  7904   0.690E+02 0.113E+03
CGA:  44    -0.331718158942E+03   -0.93102E+00   -0.73397E+00  7904   0.234E+02 0.996E+01
CGA:  45    -0.332461065829E+03   -0.74291E+00   -0.80157E+00  7904   0.203E+02 0.127E+01
CGA:  46    -0.333367635680E+03   -0.90657E+00   -0.77400E+00  7904   0.288E+02-0.191E+02
CGA:  47    -0.333720875531E+03   -0.35324E+00   -0.47171E+00  7904   0.171E+02-0.456E+01
CGA:  48    -0.333936051642E+03   -0.21518E+00   -0.23647E+00  7904   0.927E+01-0.883E+00
CGA:  49    -0.334241832157E+03   -0.30578E+00   -0.30315E+00  7904   0.700E+01-0.530E+00
CGA:  50    -0.334600869517E+03   -0.35904E+00   -0.34311E+00  7904   0.115E+02 0.813E+00
CGA:  51    -0.334839071913E+03   -0.23820E+00   -0.25262E+00  7904   0.841E+01-0.303E+00
CGA:  52    -0.335017014761E+03   -0.17794E+00   -0.15080E+00  7904   0.142E+01 0.763E+00
CGA:  53    -0.335064921665E+03   -0.47907E-01   -0.48670E-01  7904   0.137E+01 0.685E-01
CGA:  54    -0.335110346122E+03   -0.45424E-01   -0.44258E-01  7904   0.179E+01-0.898E-01
CGA:  55    -0.335149944431E+03   -0.39598E-01   -0.39815E-01  7904   0.122E+01 0.598E-02
CGA:  56    -0.335200834180E+03   -0.50890E-01   -0.50831E-01  7904   0.922E+00 0.309E-02
CGA:  57    -0.335216420122E+03   -0.15586E-01   -0.14392E-01  7904   0.765E+00 0.451E-01
CGA:  58    -0.335239882874E+03   -0.23463E-01   -0.23517E-01  7904   0.675E+00 0.516E-02
CGA:  59    -0.335250834113E+03   -0.10951E-01   -0.11905E-01  7904   0.582E+00-0.233E-01
CGA:  60    -0.335265153628E+03   -0.14320E-01   -0.14125E-01  7904   0.538E+00-0.535E-02
CGA:  61    -0.335280056905E+03   -0.14903E-01   -0.14262E-01  7904   0.502E+00-0.314E-01
CGA:  62    -0.335287443057E+03   -0.73862E-02   -0.74727E-02  7904   0.467E+00-0.220E-02
CGA:  63    -0.335306305886E+03   -0.18863E-01   -0.18178E-01  7904   0.735E+00 0.610E-01
CGA:  64    -0.335317825439E+03   -0.11520E-01   -0.10925E-01  7904   0.221E+00 0.303E-01
CGA:  65    -0.335324813621E+03   -0.69882E-02   -0.69796E-02  7904   0.229E+00-0.732E-02
CGA:  66    -0.335330841827E+03   -0.60282E-02   -0.60431E-02  7904   0.197E+00 0.146E-02
CGA:  67    -0.335335635935E+03   -0.47941E-02   -0.47867E-02  7904   0.232E+00-0.380E-03
CGA:  68    -0.335341686215E+03   -0.60503E-02   -0.59593E-02  7904   0.192E+00-0.624E-02
CGA:  69    -0.335347803948E+03   -0.61177E-02   -0.60812E-02  7904   0.272E+00 0.846E-02
CGA:  70    -0.335352839057E+03   -0.50351E-02   -0.50146E-02  7904   0.122E+00 0.475E-03
CGA:  71    -0.335356908399E+03   -0.40693E-02   -0.41098E-02  7904   0.188E+00-0.610E-02
CGA:  72    -0.335362375575E+03   -0.54672E-02   -0.54491E-02  7904   0.943E-01 0.137E-01
CGA:  73    -0.335363939466E+03   -0.15639E-02   -0.15617E-02  7904   0.654E-01 0.690E-04
CGA:  74    -0.335367758550E+03   -0.38191E-02   -0.42404E-02  7904   0.138E+00-0.127E-01
CGA:  75    -0.335369528904E+03   -0.17704E-02   -0.18241E-02  7904   0.717E-01-0.122E-02
CGA:  76    -0.335372174809E+03   -0.26459E-02   -0.26242E-02  7904   0.188E+00 0.218E-02
SDA:  77    -0.335376462817E+03   -0.42880E-02   -0.41665E-02  7904   0.542E-01-0.924E-03
CGA:  78    -0.335377276338E+03   -0.81352E-03   -0.81604E-03  7904   0.351E-01-0.805E-04
CGA:  79    -0.335378972303E+03   -0.16960E-02   -0.17342E-02  7904   0.432E-01-0.174E-02
CGA:  80    -0.335381682374E+03   -0.27101E-02   -0.27152E-02  7904   0.686E-01-0.179E-03
CGA:  81    -0.335382723065E+03   -0.10407E-02   -0.10272E-02  7904   0.356E-01 0.509E-03
CGA:  82    -0.335384914206E+03   -0.21911E-02   -0.21401E-02  7904   0.201E-01 0.173E-02
CGA:  83    -0.335386502521E+03   -0.15883E-02   -0.16272E-02  7904   0.652E-01-0.962E-03
CGA:  84    -0.335387561782E+03   -0.10593E-02   -0.10011E-02  7904   0.346E-01 0.212E-02
CGA:  85    -0.335388527185E+03   -0.96540E-03   -0.96823E-03  7904   0.171E-01 0.115E-03
CGA:  86    -0.335388760692E+03   -0.23351E-03   -0.23488E-03  7904   0.134E-01-0.538E-04
CGA:  87    -0.335390226980E+03   -0.14663E-02   -0.13996E-02  7904   0.464E-01 0.108E-02
CGA:  88    -0.335390878425E+03   -0.65145E-03   -0.61032E-03  7904   0.151E-01 0.259E-02
CGA:  89    -0.335391504962E+03   -0.62654E-03   -0.63095E-03  7904   0.182E-01-0.617E-03
CGA:  90    -0.335391720915E+03   -0.21595E-03   -0.21163E-03  7904   0.857E-02 0.278E-03
CGA:  91    -0.335392065301E+03   -0.34439E-03   -0.34461E-03  7904   0.159E-01-0.249E-04
CGA:  92    -0.335392307755E+03   -0.24245E-03   -0.23847E-03  7904   0.137E-01 0.178E-03
CGA:  93    -0.335392816894E+03   -0.50914E-03   -0.51095E-03  7904   0.188E-01-0.304E-03
CGA:  94    -0.335392995462E+03   -0.17857E-03   -0.18129E-03  7904   0.471E-02-0.204E-03
CGA:  95    -0.335393120367E+03   -0.12491E-03   -0.12513E-03  7904   0.123E-01 0.106E-04
CGA:  96    -0.335393472864E+03   -0.35250E-03   -0.34886E-03  7904   0.942E-02-0.338E-03
CGA:  97    -0.335393583020E+03   -0.11016E-03   -0.10664E-03  7904   0.704E-02 0.217E-03
CGA:  98    -0.335393754231E+03   -0.17121E-03   -0.17188E-03  7904   0.747E-02 0.257E-04
CGA:  99    -0.335393838763E+03   -0.84532E-04   -0.87087E-04  7904   0.472E-02-0.141E-03
CGA: 100    -0.335394000092E+03   -0.16133E-03   -0.16078E-03  7904   0.869E-02 0.696E-04
CGA: 101    -0.335394108368E+03   -0.10828E-03   -0.10165E-03  7904   0.527E-02 0.419E-03
CGA: 102    -0.335394285488E+03   -0.17712E-03   -0.17948E-03  7904   0.170E-01-0.409E-03
CGA: 103    -0.335394438107E+03   -0.15262E-03   -0.13097E-03  7904   0.116E-01 0.234E-02
CGA: 104    -0.335394521412E+03   -0.83305E-04   -0.88216E-04  7904   0.346E-02-0.560E-03
CGA: 105    -0.335394563406E+03   -0.41994E-04   -0.42805E-04  7904   0.523E-02-0.204E-04
CGA: 106    -0.335394655880E+03   -0.92474E-04   -0.92768E-04  7904   0.635E-02 0.201E-04
CGA: 107    -0.335394722134E+03   -0.66255E-04   -0.62925E-04  7904   0.520E-02 0.260E-03
SDA: 108    -0.335394814266E+03   -0.92131E-04   -0.90452E-04  7904   0.978E-02 0.136E-04
CGA: 109    -0.335394918331E+03   -0.10407E-03   -0.10431E-03  7904   0.313E-02-0.153E-04
CGA: 110    -0.335395104405E+03   -0.18607E-03   -0.18972E-03  7904   0.457E-02-0.110E-03
CGA: 111    -0.335395630509E+03   -0.52610E-03   -0.51441E-03  7904   0.698E-02 0.164E-03
CGA: 112    -0.335396010289E+03   -0.37978E-03   -0.37493E-03  7904   0.941E-02 0.198E-03
CGA: 113    -0.335396137634E+03   -0.12735E-03   -0.12967E-03  7904   0.422E-02-0.106E-03
CGA: 114    -0.335396468415E+03   -0.33078E-03   -0.32907E-03  7904   0.452E-02 0.300E-04
CGA: 115    -0.335396523393E+03   -0.54979E-04   -0.54558E-04  7904   0.157E-02 0.253E-04
CGA: 116    -0.335396601197E+03   -0.77803E-04   -0.78656E-04  7904   0.118E-02-0.414E-04
CGA: 117    -0.335396666923E+03   -0.65726E-04   -0.66403E-04  7904   0.407E-02-0.262E-04
CGA: 118    -0.335396754704E+03   -0.87782E-04   -0.87947E-04  7904   0.189E-02 0.995E-05
CGA: 119    -0.335396822833E+03   -0.68129E-04   -0.68012E-04  7904   0.542E-03 0.290E-04
CGA: 120    -0.335396842725E+03   -0.19891E-04   -0.19880E-04  7904   0.175E-02 0.316E-05
CGA: 121    -0.335396946520E+03   -0.10380E-03   -0.10756E-03  7904   0.591E-03-0.148E-03
CGA: 122    -0.335396980146E+03   -0.33627E-04   -0.33308E-04  7904   0.199E-02 0.111E-04
CGA: 123    -0.335397022915E+03   -0.42769E-04   -0.40638E-04  7904   0.119E-02 0.520E-04
CGA: 124    -0.335397081425E+03   -0.58510E-04   -0.59397E-04  7904   0.581E-03-0.553E-04
CGA: 125    -0.335397105322E+03   -0.23897E-04   -0.23906E-04  7904   0.739E-03-0.232E-06
CGA: 126    -0.335397122474E+03   -0.17152E-04   -0.17118E-04  7904   0.105E-02 0.361E-05
CGA: 127    -0.335397195059E+03   -0.72585E-04   -0.74027E-04  7904   0.648E-03-0.476E-04
CGA: 128    -0.335397220963E+03   -0.25905E-04   -0.25830E-04  7904   0.997E-03 0.146E-04
CGA: 129    -0.335397251524E+03   -0.30561E-04   -0.30752E-04  7904   0.165E-02 0.137E-04
CGA: 130    -0.335397321854E+03   -0.70330E-04   -0.70142E-04  7904   0.664E-03 0.337E-04
CGA: 131    -0.335397389675E+03   -0.67821E-04   -0.69365E-04  7904   0.213E-02-0.315E-04
CGA: 132    -0.335397435798E+03   -0.46123E-04   -0.45372E-04  7904   0.228E-02 0.318E-04
CGA: 133    -0.335397494433E+03   -0.58634E-04   -0.59461E-04  7904   0.936E-03 0.190E-04
CGA: 134    -0.335397523767E+03   -0.29334E-04   -0.29594E-04  7904   0.110E-02 0.135E-04
CGA: 135    -0.335397550961E+03   -0.27194E-04   -0.27671E-04  7904   0.905E-03 0.371E-05
CGA: 136    -0.335397585990E+03   -0.35029E-04   -0.35029E-04  7904   0.124E-02 0.235E-05
CGA: 137    -0.335397606376E+03   -0.20386E-04   -0.20086E-04  7904   0.539E-03 0.128E-04
CGA: 138    -0.335397631427E+03   -0.25051E-04   -0.25010E-04  7904   0.681E-03 0.374E-05
SDA: 139    -0.335397659057E+03   -0.27630E-04   -0.27522E-04  7904   0.132E-02 0.245E-04
CGA: 140    -0.335397674380E+03   -0.15323E-04   -0.15274E-04  7904   0.539E-03 0.639E-06
CGA: 141    -0.335397698957E+03   -0.24577E-04   -0.24549E-04  7904   0.509E-03 0.232E-05
CGA: 142    -0.335397745420E+03   -0.46463E-04   -0.45642E-04  7904   0.670E-03 0.162E-04
CGA: 143    -0.335397765255E+03   -0.19835E-04   -0.19774E-04  7904   0.773E-03-0.196E-05
CGA: 144    -0.335397787467E+03   -0.22211E-04   -0.22235E-04  7904   0.414E-03 0.104E-06
CGA: 145    -0.335397804109E+03   -0.16643E-04   -0.16639E-04  7904   0.122E-02 0.716E-06
CGA: 146    -0.335397845917E+03   -0.41807E-04   -0.41984E-04  7904   0.784E-04 0.166E-04
CGA: 147    -0.335397857298E+03   -0.11381E-04   -0.12350E-04  7904   0.311E-03-0.845E-05
CGA: 148    -0.335397862176E+03   -0.48782E-05   -0.48007E-05  7904   0.222E-03-0.263E-05
   5 F= -.33539786E+03 E0= -.33537165E+03  d E =0.668780E-02  mag=    32.0000
       N       E                     dE             d eps       ncg     rms          ort
SDA:   1    -0.335340376887E+03    0.57480E-01    0.00000E+00  7904   0.391E+01 0.000E+00
CGA:   2    -0.335376465240E+03   -0.36088E-01   -0.32247E-01  7904   0.138E+00 0.411E+00
CGA:   3    -0.335378711408E+03   -0.22462E-02   -0.22165E-02  7904   0.986E-01 0.149E-02
CGA:   4    -0.335383838885E+03   -0.51275E-02   -0.51110E-02  7904   0.208E+00 0.968E-03
CGA:   5    -0.335388181627E+03   -0.43427E-02   -0.43438E-02  7904   0.221E+00-0.519E-04
CGA:   6    -0.335393927125E+03   -0.57455E-02   -0.56927E-02  7904   0.668E-01 0.484E-04
CGA:   7    -0.335394794926E+03   -0.86780E-03   -0.86583E-03  7904   0.386E-01 0.118E-03
CGA:   8    -0.335396556316E+03   -0.17614E-02   -0.17575E-02  7904   0.608E-01 0.327E-03
CGA:   9    -0.335397520674E+03   -0.96436E-03   -0.96656E-03  7904   0.283E-01-0.545E-04
CGA:  10    -0.335398368475E+03   -0.84780E-03   -0.84388E-03  7904   0.192E-01-0.167E-03
CGA:  11    -0.335398603379E+03   -0.23490E-03   -0.23235E-03  7904   0.765E-02 0.139E-03
CGA:  12    -0.335399099057E+03   -0.49568E-03   -0.49623E-03  7904   0.215E-01-0.196E-04
CGA:  13    -0.335399368569E+03   -0.26951E-03   -0.27074E-03  7904   0.353E-02-0.745E-04
CGA:  14    -0.335399437727E+03   -0.69158E-04   -0.69084E-04  7904   0.284E-02-0.211E-05
CGA:  15    -0.335399493570E+03   -0.55843E-04   -0.55534E-04  7904   0.156E-02-0.456E-06
CGA:  16    -0.335399550906E+03   -0.57336E-04   -0.57345E-04  7904   0.388E-02-0.243E-05
CGA:  17    -0.335399633504E+03   -0.82598E-04   -0.82638E-04  7904   0.987E-03-0.389E-05
CGA:  18    -0.335399653608E+03   -0.20104E-04   -0.20069E-04  7904   0.981E-03-0.251E-05
CGA:  19    -0.335399671948E+03   -0.18340E-04   -0.18242E-04  7904   0.342E-03-0.211E-05
CGA:  20    -0.335399681196E+03   -0.92487E-05   -0.92394E-05  7904   0.684E-03-0.184E-05
CGA:  21    -0.335399713208E+03   -0.32012E-04   -0.32050E-04  7904   0.698E-03-0.250E-05
CGA:  22    -0.335399721057E+03   -0.78486E-05   -0.78652E-05  7904   0.203E-03 0.367E-06
   6 F= -.33539972E+03 E0= -.33537333E+03  d E =-.185888E-02  mag=    32.0000
       N       E                     dE             d eps       ncg     rms          ort
SDA:   1    -0.306942561687E+03    0.28457E+02    0.00000E+00  7904   0.309E+03 0.000E+00
CGA:   2    -0.316156742539E+03   -0.92142E+01   -0.32234E+01  7904   0.829E+02 0.179E+03
CGA:   3    -0.318354319926E+03   -0.21976E+01   -0.21924E+01  7904   0.115E+03-0.112E+00
CGA:   4    -0.325468993137E+03   -0.71147E+01   -0.64216E+01  7904   0.179E+03 0.235E+02
CGA:   5    -0.328933843125E+03   -0.34648E+01   -0.42192E+01  7904   0.104E+03-0.231E+02
CGA:   6    -0.331715456853E+03   -0.27816E+01   -0.22794E+01  7904   0.392E+02-0.215E+02
CGA:   7    -0.332645589999E+03   -0.93013E+00   -0.92862E+00  7904   0.350E+02-0.118E+01
CGA:   8    -0.333182800321E+03   -0.53721E+00   -0.44298E+00  7904   0.201E+02 0.479E+01
CGA:   9    -0.333646711134E+03   -0.46391E+00   -0.45998E+00  7904   0.253E+02 0.820E-01
CGA:  10    -0.334311926272E+03   -0.66522E+00   -0.68595E+00  7904   0.154E+02 0.434E+01
CGA:  11    -0.334704976891E+03   -0.39305E+00   -0.37124E+00  7904   0.775E+01-0.119E+00
CGA:  12    -0.334827836225E+03   -0.12286E+00   -0.11334E+00  7904   0.623E+01 0.297E+00
CGA:  13    -0.334943431880E+03   -0.11560E+00   -0.90594E-01  7904   0.495E+01 0.105E+01
CGA:  14    -0.334998001279E+03   -0.54569E-01   -0.56939E-01  7904   0.262E+01-0.182E+00
CGA:  15    -0.335029388440E+03   -0.31387E-01   -0.32461E-01  7904   0.319E+01-0.428E-01
CGA:  16    -0.335113082055E+03   -0.83694E-01   -0.83148E-01  7904   0.520E+01 0.332E+00
CGA:  17    -0.335179029299E+03   -0.65947E-01   -0.65553E-01  7904   0.733E+00 0.220E-01
CGA:  18    -0.335203241156E+03   -0.24212E-01   -0.25132E-01  7904   0.118E+01-0.787E-01
CGA:  19    -0.335215876108E+03   -0.12635E-01   -0.12017E-01  7904   0.469E+00 0.339E-01
CGA:  20    -0.335221817378E+03   -0.59413E-02   -0.60202E-02  7904   0.455E+00-0.287E-02
CGA:  21    -0.335235663284E+03   -0.13846E-01   -0.13523E-01  7904   0.863E+00 0.381E-01
CGA:  22    -0.335248779511E+03   -0.13116E-01   -0.13343E-01  7904   0.242E+00-0.323E-02
CGA:  23    -0.335257854410E+03   -0.90749E-02   -0.91690E-02  7904   0.401E+00-0.590E-02
CGA:  24    -0.335263830636E+03   -0.59762E-02   -0.59897E-02  7904   0.138E+00-0.320E-04
CGA:  25    -0.335267021042E+03   -0.31904E-02   -0.31913E-02  7904   0.134E+00 0.394E-03
CGA:  26    -0.335269760877E+03   -0.27398E-02   -0.27386E-02  7904   0.116E+00-0.101E-03
CGA:  27    -0.335272916657E+03   -0.31558E-02   -0.31415E-02  7904   0.935E-01 0.272E-02
CGA:  28    -0.335274508106E+03   -0.15914E-02   -0.16118E-02  7904   0.567E-01 0.258E-03
CGA:  29    -0.335276763391E+03   -0.22553E-02   -0.22829E-02  7904   0.632E-01-0.151E-02
CGA:  30    -0.335277730923E+03   -0.96753E-03   -0.96745E-03  7904   0.407E-01 0.187E-04
CGA:  31    -0.335279596402E+03   -0.18655E-02   -0.18359E-02  7904   0.562E-01 0.135E-02
CGA:  32    -0.335280442390E+03   -0.84599E-03   -0.85735E-03  7904   0.223E-01-0.142E-03
SDA:  33    -0.335281362568E+03   -0.92018E-03   -0.90972E-03  7904   0.247E-01 0.575E-03
CGA:  34    -0.335281654021E+03   -0.29145E-03   -0.29068E-03  7904   0.440E-02 0.195E-04
CGA:  35    -0.335281968844E+03   -0.31482E-03   -0.31464E-03  7904   0.147E-01 0.447E-05
CGA:  36    -0.335282409561E+03   -0.44072E-03   -0.44049E-03  7904   0.168E-01 0.440E-04
CGA:  37    -0.335282917534E+03   -0.50797E-03   -0.50806E-03  7904   0.721E-02-0.153E-04
CGA:  38    -0.335283215019E+03   -0.29749E-03   -0.29437E-03  7904   0.240E-02 0.198E-03
CGA:  39    -0.335283589424E+03   -0.37441E-03   -0.42778E-05  7904   0.943E-02-0.388E-03
CGA:  40    -0.335283684406E+03   -0.94982E-04   -0.94616E-04  7904   0.248E-02 0.682E-04
CGA:  41    -0.335283759206E+03   -0.74800E-04   -0.75055E-04  7904   0.403E-02 0.520E-05
CGA:  42    -0.335283850503E+03   -0.91297E-04   -0.93056E-04  7904   0.333E-02-0.251E-04
CGA:  43    -0.335283940228E+03   -0.89725E-04   -0.90251E-04  7904   0.458E-02 0.111E-05
CGA:  44    -0.335284042730E+03   -0.10250E-03   -0.10226E-03  7904   0.157E-02 0.801E-05
CGA:  45    -0.335284064980E+03   -0.22250E-04   -0.22298E-04  7904   0.110E-02-0.365E-05
CGA:  46    -0.335284134142E+03   -0.69162E-04   -0.69224E-04  7904   0.313E-02-0.327E-05
CGA:  47    -0.335284192508E+03   -0.58366E-04   -0.58709E-04  7904   0.194E-02-0.146E-04
CGA:  48    -0.335284225826E+03   -0.33318E-04   -0.33657E-04  7904   0.490E-03-0.951E-05
CGA:  49    -0.335284235121E+03   -0.92955E-05   -0.93558E-05  7904   0.541E-03 0.273E-06
CGA:  50    -0.335284269810E+03   -0.34689E-04   -0.34549E-04  7904   0.193E-02 0.605E-05
CGA:  51    -0.335284311632E+03   -0.41822E-04   -0.42547E-04  7904   0.625E-03-0.288E-06
CGA:  52    -0.335284325387E+03   -0.13755E-04   -0.13825E-04  7904   0.551E-03 0.298E-05
CGA:  53    -0.335284335114E+03   -0.97262E-05   -0.96995E-05  7904   0.213E-03 0.136E-05
CGA:  54    -0.335284349616E+03   -0.14502E-04   -0.14555E-04  7904   0.104E-02-0.181E-05
CGA:  55    -0.335284372998E+03   -0.23382E-04   -0.23420E-04  7904   0.307E-03-0.137E-05
CGA:  56    -0.335284377697E+03   -0.46990E-05   -0.47350E-05  7904   0.168E-03-0.121E-05
   7 F= -.33528438E+03 E0= -.33525968E+03  d E =0.115343E+00  mag=    32.0000
       N       E                     dE             d eps       ncg     rms          ort
SDA:   1    -0.314750533272E+03    0.20534E+02    0.00000E+00  7904   0.134E+04 0.000E+00
CGA:   2    -0.321714433674E+03   -0.69639E+01   -0.23589E+02  7904   0.228E+03-0.196E+03
CGA:   3    -0.325174254897E+03   -0.34598E+01   -0.34144E+01  7904   0.109E+03 0.276E+02
CGA:   4    -0.326134715977E+03   -0.96046E+00   -0.61658E+00  7904   0.583E+02 0.566E+02
CGA:   5    -0.327078945257E+03   -0.94423E+00   -0.90648E+00  7904   0.308E+02 0.180E+01
CGA:   6    -0.328500904304E+03   -0.14220E+01   -0.16029E+01  7904   0.178E+03-0.877E+01
CGA:   7    -0.330475641526E+03   -0.19747E+01   -0.18931E+01  7904   0.245E+03 0.162E+01
CGA:   8    -0.331972570233E+03   -0.14969E+01   -0.27020E+01  7904   0.150E+03-0.809E+02
CGA:   9    -0.332790394744E+03   -0.81782E+00   -0.12554E+01  7904   0.410E+02-0.226E+02
CGA:  10    -0.333115582094E+03   -0.32519E+00   -0.30323E+00  7904   0.120E+02 0.404E+01
CGA:  11    -0.333350823695E+03   -0.23524E+00   -0.19676E+00  7904   0.139E+02 0.187E+01
CGA:  12    -0.333582264046E+03   -0.23144E+00   -0.14833E+00  7904   0.172E+02 0.797E+01
CGA:  13    -0.333886171660E+03   -0.30391E+00   -0.32358E+00  7904   0.828E+01 0.312E+00
CGA:  14    -0.334487763805E+03   -0.60159E+00   -0.92668E+00  7904   0.622E+02-0.551E+01
CGA:  15    -0.334856988568E+03   -0.36922E+00   -0.80037E+00  7904   0.207E+02-0.216E+02
CGA:  16    -0.335057696948E+03   -0.20071E+00   -0.20473E+00  7904   0.159E+01-0.837E-01
CGA:  17    -0.335092586008E+03   -0.34889E-01   -0.34515E-01  7904   0.119E+01-0.264E-02
CGA:  18    -0.335277522601E+03   -0.18494E+00   -0.13674E-02  7904   0.190E+01-0.219E+00
CGA:  19    -0.335310878664E+03   -0.33356E-01   -0.32698E-01  7904   0.499E+00 0.339E-01
CGA:  20    -0.335321881279E+03   -0.11003E-01   -0.10731E-01  7904   0.293E+00 0.117E-01
CGA:  21    -0.335329165989E+03   -0.72847E-02   -0.71515E-02  7904   0.329E+00 0.380E-02
CGA:  22    -0.335345653527E+03   -0.16488E-01   -0.16468E-01  7904   0.354E+00-0.967E-02
CGA:  23    -0.335355169321E+03   -0.95158E-02   -0.98390E-02  7904   0.137E+00-0.320E-02
CGA:  24    -0.335359195550E+03   -0.40262E-02   -0.41395E-02  7904   0.196E+00-0.578E-03
CGA:  25    -0.335365007292E+03   -0.58117E-02   -0.58104E-02  7904   0.259E+00-0.117E-04
CGA:  26    -0.335374219937E+03   -0.92126E-02   -0.91901E-02  7904   0.135E+00-0.180E-03
CGA:  27    -0.335377027384E+03   -0.28074E-02   -0.27890E-02  7904   0.400E-01 0.627E-03
CGA:  28    -0.335378773999E+03   -0.17466E-02   -0.17443E-02  7904   0.617E-01-0.513E-03
CGA:  29    -0.335381965319E+03   -0.31913E-02   -0.31900E-02  7904   0.914E-01 0.140E-03
CGA:  30    -0.335383414240E+03   -0.14489E-02   -0.14967E-02  7904   0.311E-01-0.199E-02
CGA:  31    -0.335384261096E+03   -0.84686E-03   -0.83868E-03  7904   0.193E-01 0.731E-04
CGA:  32    -0.335385204288E+03   -0.94319E-03   -0.94617E-03  7904   0.330E-01-0.332E-03
CGA:  33    -0.335386218664E+03   -0.10144E-02   -0.10109E-02  7904   0.357E-01-0.263E-04
CGA:  34    -0.335387060547E+03   -0.84188E-03   -0.85587E-03  7904   0.150E-01-0.182E-03
CGA:  35    -0.335387382075E+03   -0.32153E-03   -0.32300E-03  7904   0.689E-02-0.234E-04
CGA:  36    -0.335387643275E+03   -0.26120E-03   -0.26147E-03  7904   0.890E-02 0.386E-04
CGA:  37    -0.335387981907E+03   -0.33863E-03   -0.33860E-03  7904   0.815E-02-0.100E-04
CGA:  38    -0.335388111751E+03   -0.12984E-03   -0.12917E-03  7904   0.251E-02 0.204E-04
CGA:  39    -0.335388206287E+03   -0.94536E-04   -0.94473E-04  7904   0.333E-02-0.188E-04
CGA:  40    -0.335388448708E+03   -0.24242E-03   -0.24275E-03  7904   0.678E-02-0.942E-05
CGA:  41    -0.335388570605E+03   -0.12190E-03   -0.12156E-03  7904   0.208E-02 0.124E-05
CGA:  42    -0.335388611056E+03   -0.40451E-04   -0.40545E-04  7904   0.941E-03-0.324E-05
CGA:  43    -0.335388646798E+03   -0.35742E-04   -0.35737E-04  7904   0.139E-02-0.385E-05
CGA:  44    -0.335388705650E+03   -0.58852E-04   -0.58869E-04  7904   0.140E-02-0.405E-05
SDA:  45    -0.335388745607E+03   -0.39957E-04   -0.39956E-04  7904   0.112E-02-0.119E-05
CGA:  46    -0.335388764323E+03   -0.18717E-04   -0.18798E-04  7904   0.825E-03 0.413E-06
CGA:  47    -0.335388790587E+03   -0.26263E-04   -0.26278E-04  7904   0.569E-03 0.118E-05
CGA:  48    -0.335388819758E+03   -0.29171E-04   -0.29226E-04  7904   0.828E-03-0.373E-05
CGA:  49    -0.335388838874E+03   -0.19116E-04   -0.19076E-04  7904   0.304E-03-0.157E-05
CGA:  50    -0.335388869103E+03   -0.30229E-04   -0.30412E-04  7904   0.591E-03-0.304E-05
CGA:  51    -0.335388904650E+03   -0.35547E-04   -0.35496E-04  7904   0.115E-02 0.235E-05
CGA:  52    -0.335388919405E+03   -0.14755E-04   -0.14753E-04  7904   0.124E-03 0.466E-06
CGA:  53    -0.335388928447E+03   -0.90420E-05   -0.90123E-05  7904   0.509E-03 0.893E-06
CGA:  54    -0.335388951380E+03   -0.22933E-04   -0.22943E-04  7904   0.329E-03-0.228E-05
CGA:  55    -0.335388965944E+03   -0.14564E-04   -0.14569E-04  7904   0.370E-03-0.143E-05
CGA:  56    -0.335388971624E+03   -0.56804E-05   -0.56440E-05  7904   0.187E-03-0.834E-06
CGA:  57    -0.335388993398E+03   -0.21774E-04   -0.22032E-04  7904   0.111E-03-0.331E-05
CGA:  58    -0.335388997041E+03   -0.36433E-05   -0.36383E-05  7904   0.106E-03-0.588E-06
   8 F= -.33538900E+03 E0= -.33536412E+03  d E =-.104619E+00  mag=    32.0000
       N       E                     dE             d eps       ncg     rms          ort
SDA:   1    -0.334412255520E+03    0.97674E+00    0.00000E+00  7904   0.332E+02 0.000E+00
CGA:   2    -0.334732495134E+03   -0.32024E+00   -0.23311E+00  7904   0.447E+01 0.108E+02
CGA:   3    -0.334790127247E+03   -0.57632E-01   -0.49993E-01  7904   0.239E+01 0.793E+00
CGA:   4    -0.334867755150E+03   -0.77628E-01   -0.75564E-01  7904   0.777E+01 0.387E-02
CGA:   5    -0.334987189267E+03   -0.11943E+00   -0.11306E+00  7904   0.128E+02 0.337E+00
CGA:   6    -0.335118254309E+03   -0.13107E+00   -0.14438E+00  7904   0.711E+01-0.941E+00
CGA:   7    -0.335165939442E+03   -0.47685E-01   -0.51002E-01  7904   0.318E+01-0.335E+00
CGA:   8    -0.335198396977E+03   -0.32458E-01   -0.34368E-01  7904   0.295E+01-0.110E+00
CGA:   9    -0.335235714060E+03   -0.37317E-01   -0.33631E-01  7904   0.210E+01 0.284E+00
CGA:  10    -0.335257472441E+03   -0.21758E-01   -0.19372E-01  7904   0.125E+01 0.243E+00
CGA:  11    -0.335283514696E+03   -0.26042E-01   -0.26043E-01  7904   0.331E+01 0.107E-03
CGA:  12    -0.335340963835E+03   -0.57449E-01   -0.57234E-01  7904   0.484E+01 0.640E-02
CGA:  13    -0.335374861123E+03   -0.33897E-01   -0.32916E-01  7904   0.150E+01 0.127E+00
CGA:  14    -0.335384797427E+03   -0.99363E-02   -0.97655E-02  7904   0.641E+00 0.237E-01
CGA:  15    -0.335390853867E+03   -0.60564E-02   -0.61160E-02  7904   0.529E+00-0.349E-02
CGA:  16    -0.335395780081E+03   -0.49262E-02   -0.50252E-02  7904   0.418E+00-0.678E-02
CGA:  17    -0.335400389619E+03   -0.46095E-02   -0.48410E-02  7904   0.470E+00-0.112E-01
CGA:  18    -0.335406335630E+03   -0.59460E-02   -0.61335E-02  7904   0.490E+00-0.573E-02
CGA:  19    -0.335412825490E+03   -0.64899E-02   -0.64794E-02  7904   0.614E+00 0.274E-03
CGA:  20    -0.335422686732E+03   -0.98612E-02   -0.97592E-02  7904   0.691E+00 0.395E-03
CGA:  21    -0.335428428544E+03   -0.57418E-02   -0.54953E-02  7904   0.233E+00 0.238E-01
CGA:  22    -0.335430377251E+03   -0.19487E-02   -0.19535E-02  7904   0.131E+00-0.375E-03
CGA:  23    -0.335431899390E+03   -0.15221E-02   -0.15290E-02  7904   0.113E+00-0.285E-03
CGA:  24    -0.335433026525E+03   -0.11271E-02   -0.11199E-02  7904   0.856E-01 0.409E-03
CGA:  25    -0.335434197094E+03   -0.11706E-02   -0.11594E-02  7904   0.127E+00 0.930E-04
CGA:  26    -0.335435979995E+03   -0.17829E-02   -0.17729E-02  7904   0.169E+00-0.781E-05
CGA:  27    -0.335437889440E+03   -0.19094E-02   -0.19225E-02  7904   0.167E+00-0.411E-03
CGA:  28    -0.335439615322E+03   -0.17259E-02   -0.17459E-02  7904   0.108E+00-0.829E-03
CGA:  29    -0.335440432190E+03   -0.81687E-03   -0.82237E-03  7904   0.440E-01-0.474E-03
CGA:  30    -0.335440916028E+03   -0.48384E-03   -0.48295E-03  7904   0.543E-01 0.165E-04
CGA:  31    -0.335441921539E+03   -0.10055E-02   -0.10055E-02  7904   0.102E+00 0.733E-04
SDA:  32    -0.335442982030E+03   -0.10605E-02   -0.10622E-02  7904   0.680E-01-0.374E-04
CGA:  33    -0.335444007891E+03   -0.10259E-02   -0.10275E-02  7904   0.197E-01 0.166E-03
CGA:  34    -0.335444602949E+03   -0.59506E-03   -0.60498E-03  7904   0.117E-01-0.722E-03
CGA:  35    -0.335444922350E+03   -0.31940E-03   -0.31891E-03  7904   0.212E-01 0.436E-04
CGA:  36    -0.335446009588E+03   -0.10872E-02   -0.10801E-02  7904   0.597E-02 0.242E-03
CGA:  37    -0.335446312735E+03   -0.30315E-03   -0.30553E-03  7904   0.687E-02-0.884E-04
CGA:  38    -0.335446628656E+03   -0.31592E-03   -0.31541E-03  7904   0.131E-01 0.201E-04
CGA:  39    -0.335446916996E+03   -0.28834E-03   -0.28838E-03  7904   0.269E-02 0.131E-04
CGA:  40    -0.335446954914E+03   -0.37919E-04   -0.37822E-04  7904   0.109E-02-0.490E-05
CGA:  41    -0.335447040941E+03   -0.86027E-04   -0.87649E-04  7904   0.139E-02-0.308E-04
CGA:  42    -0.335447144821E+03   -0.10388E-03   -0.10439E-03  7904   0.234E-02-0.966E-05
CGA:  43    -0.335447173613E+03   -0.28792E-04   -0.28869E-04  7904   0.436E-03-0.181E-05
CGA:  44    -0.335447201526E+03   -0.27913E-04   -0.27723E-04  7904   0.152E-02 0.508E-05
CGA:  45    -0.335447253268E+03   -0.51742E-04   -0.51696E-04  7904   0.197E-03 0.101E-04
CGA:  46    -0.335447263717E+03   -0.10450E-04   -0.10451E-04  7904   0.578E-03-0.642E-07
CGA:  47    -0.335447278001E+03   -0.14284E-04   -0.14291E-04  7904   0.351E-03 0.134E-05
CGA:  48    -0.335447292263E+03   -0.14261E-04   -0.14261E-04  7904   0.307E-03 0.186E-07
CGA:  49    -0.335447298795E+03   -0.65318E-05   -0.65441E-05  7904   0.139E-03 0.884E-06
CGA:  50    -0.335447310970E+03   -0.12175E-04   -0.12378E-04  7904   0.278E-03-0.354E-05
CGA:  51    -0.335447320973E+03   -0.10004E-04   -0.10008E-04  7904   0.350E-03-0.138E-05
CGA:  52    -0.335447326109E+03   -0.51354E-05   -0.51039E-05  7904   0.430E-04-0.163E-05
   9 F= -.33544733E+03 E0= -.33542230E+03  d E =-.583291E-01  mag=    32.0000
       N       E                     dE             d eps       ncg     rms          ort
SDA:   1    -0.335099228639E+03    0.34809E+00    0.00000E+00  7904   0.190E+01 0.000E+00
CGA:   2    -0.335141224445E+03   -0.41996E-01   -0.40016E-01  7904   0.225E+01 0.170E-01
CGA:   3    -0.335215429695E+03   -0.74205E-01   -0.74153E-01  7904   0.300E+01-0.106E+00
CGA:   4    -0.335301040678E+03   -0.85611E-01   -0.85951E-01  7904   0.353E+01 0.471E-01
CGA:   5    -0.335362334395E+03   -0.61294E-01   -0.60729E-01  7904   0.106E+01 0.179E-01
CGA:   6    -0.335379694390E+03   -0.17360E-01   -0.17212E-01  7904   0.542E+00 0.544E-02
CGA:   7    -0.335408375866E+03   -0.28681E-01   -0.27963E-01  7904   0.101E+01 0.312E-01
CGA:   8    -0.335425425773E+03   -0.17050E-01   -0.16847E-01  7904   0.496E+00 0.650E-02
CGA:   9    -0.335446820142E+03   -0.21394E-01   -0.22278E-01  7904   0.204E+00-0.556E-01
CGA:  10    -0.335449724954E+03   -0.29048E-02   -0.29273E-02  7904   0.754E-01-0.631E-03
CGA:  11    -0.335453848707E+03   -0.41238E-02   -0.41054E-02  7904   0.177E+00 0.702E-03
CGA:  12    -0.335457102815E+03   -0.32541E-02   -0.32575E-02  7904   0.790E-01-0.382E-04
CGA:  13    -0.335460110406E+03   -0.30076E-02   -0.29977E-02  7904   0.166E-01 0.106E-02
CGA:  14    -0.335460880078E+03   -0.76967E-03   -0.77409E-03  7904   0.152E-01-0.258E-03
CGA:  15    -0.335461361238E+03   -0.48116E-03   -0.48111E-03  7904   0.207E-01-0.504E-04
CGA:  16    -0.335462299576E+03   -0.93834E-03   -0.93570E-03  7904   0.497E-02 0.163E-03
CGA:  17    -0.335462531066E+03   -0.23149E-03   -0.23073E-03  7904   0.103E-01 0.478E-04
CGA:  18    -0.335462743442E+03   -0.21238E-03   -0.21267E-03  7904   0.463E-02-0.469E-05
CGA:  19    -0.335462944460E+03   -0.20102E-03   -0.20109E-03  7904   0.761E-02-0.466E-05
CGA:  20    -0.335463091758E+03   -0.14730E-03   -0.14724E-03  7904   0.107E-02 0.315E-05
CGA:  21    -0.335463165820E+03   -0.74062E-04   -0.74260E-04  7904   0.235E-02-0.563E-05
CGA:  22    -0.335463237266E+03   -0.71446E-04   -0.71423E-04  7904   0.350E-02-0.341E-05
CGA:  23    -0.335463332310E+03   -0.95044E-04   -0.95183E-04  7904   0.882E-03 0.722E-05
CGA:  24    -0.335463350121E+03   -0.17811E-04   -0.17810E-04  7904   0.648E-03-0.653E-08
CGA:  25    -0.335463381420E+03   -0.31299E-04   -0.31384E-04  7904   0.443E-03-0.511E-05
CGA:  26    -0.335463414543E+03   -0.33123E-04   -0.33089E-04  7904   0.133E-02 0.850E-06
CGA:  27    -0.335463434339E+03   -0.19797E-04   -0.19887E-04  7904   0.225E-03 0.457E-06
CGA:  28    -0.335463446763E+03   -0.12424E-04   -0.12445E-04  7904   0.547E-03-0.107E-05
CGA:  29    -0.335463461884E+03   -0.15121E-04   -0.15099E-04  7904   0.303E-03-0.216E-05
CGA:  30    -0.335463474017E+03   -0.12132E-04   -0.12137E-04  7904   0.177E-03-0.115E-05
CGA:  31    -0.335463477170E+03   -0.31533E-05   -0.31618E-05  7904   0.141E-03 0.246E-06
  10 F= -.33546348E+03 E0= -.33543825E+03  d E =-.161511E-01  mag=    32.0000
       N       E                     dE             d eps       ncg     rms          ort
SDA:   1    -0.335086468485E+03    0.37701E+00    0.00000E+00  7904   0.630E+01 0.000E+00
CGA:   2    -0.335165618927E+03   -0.79150E-01   -0.84008E-01  7904   0.137E+01-0.205E+00
CGA:   3    -0.335225607193E+03   -0.59988E-01   -0.66854E-01  7904   0.256E+01-0.361E+00
CGA:   4    -0.335340580596E+03   -0.11497E+00   -0.11433E+00  7904   0.372E+01 0.230E-01
CGA:   5    -0.335401911444E+03   -0.61331E-01   -0.63522E-01  7904   0.996E+00-0.680E-01
CGA:   6    -0.335419847593E+03   -0.17936E-01   -0.18494E-01  7904   0.349E+00-0.107E-01
CGA:   7    -0.335435102834E+03   -0.15255E-01   -0.15180E-01  7904   0.468E+00 0.569E-02
CGA:   8    -0.335447619933E+03   -0.12517E-01   -0.12531E-01  7904   0.516E+00 0.210E-03
CGA:   9    -0.335463343725E+03   -0.15724E-01   -0.15645E-01  7904   0.176E+00-0.566E-02
CGA:  10    -0.335465991106E+03   -0.26474E-02   -0.27266E-02  7904   0.479E-01-0.288E-02
CGA:  11    -0.335467580741E+03   -0.15896E-02   -0.15896E-02  7904   0.663E-01 0.535E-04
CGA:  12    -0.335469852469E+03   -0.22717E-02   -0.22716E-02  7904   0.755E-01 0.194E-03
CGA:  13    -0.335471562338E+03   -0.17099E-02   -0.17072E-02  7904   0.136E-01 0.178E-05
CGA:  14    -0.335471831012E+03   -0.26867E-03   -0.26840E-03  7904   0.986E-02 0.419E-05
CGA:  15    -0.335472296410E+03   -0.46540E-03   -0.46711E-03  7904   0.188E-01-0.955E-04
CGA:  16    -0.335472791669E+03   -0.49526E-03   -0.49581E-03  7904   0.924E-02 0.293E-04
CGA:  17    -0.335472993764E+03   -0.20210E-03   -0.20183E-03  7904   0.347E-02 0.253E-05
CGA:  18    -0.335473088379E+03   -0.94615E-04   -0.94721E-04  7904   0.393E-02 0.984E-05
CGA:  19    -0.335473217749E+03   -0.12937E-03   -0.12936E-03  7904   0.359E-02 0.576E-05
CGA:  20    -0.335473336580E+03   -0.11883E-03   -0.11883E-03  7904   0.335E-02-0.318E-05
CGA:  21    -0.335473412663E+03   -0.76083E-04   -0.75944E-04  7904   0.118E-02-0.580E-05
CGA:  22    -0.335473437349E+03   -0.24686E-04   -0.24726E-04  7904   0.899E-03 0.126E-05
CGA:  23    -0.335473479265E+03   -0.41916E-04   -0.41930E-04  7904   0.160E-02-0.792E-06
CGA:  24    -0.335473539067E+03   -0.59802E-04   -0.59778E-04  7904   0.126E-02 0.433E-05
CGA:  25    -0.335473561354E+03   -0.22287E-04   -0.22233E-04  7904   0.445E-03-0.392E-07
CGA:  26    -0.335473575146E+03   -0.13792E-04   -0.13792E-04  7904   0.555E-03 0.629E-06
CGA:  27    -0.335473596210E+03   -0.21064E-04   -0.21062E-04  7904   0.543E-03 0.195E-06
CGA:  28    -0.335473612603E+03   -0.16393E-04   -0.16396E-04  7904   0.482E-03 0.139E-05
CGA:  29    -0.335473623528E+03   -0.10924E-04   -0.10915E-04  7904   0.269E-03-0.730E-06
CGA:  30    -0.335473631474E+03   -0.79465E-05   -0.79478E-05  7904   0.254E-03 0.752E-06
CGA:  31    -0.335473642472E+03   -0.10998E-04   -0.11007E-04  7904   0.421E-03-0.687E-06
SDA:  32    -0.335473654650E+03   -0.12178E-04   -0.12186E-04  7904   0.223E-03 0.253E-05
CGA:  33    -0.335473657092E+03   -0.24413E-05   -0.24327E-05  7904   0.635E-04-0.393E-06
  11 F= -.33547366E+03 E0= -.33544822E+03  d E =-.101799E-01  mag=    32.0000
       N       E                     dE             d eps       ncg     rms          ort
SDA:   1    -0.335024515204E+03    0.44914E+00    0.00000E+00  7904   0.518E+01 0.000E+00
CGA:   2    -0.335078432495E+03   -0.53917E-01   -0.62200E-01  7904   0.193E+01-0.471E+00
CGA:   3    -0.335188810152E+03   -0.11038E+00   -0.10843E+00  7904   0.443E+01 0.616E-01
CGA:   4    -0.335308256685E+03   -0.11945E+00   -0.11926E+00  7904   0.331E+01-0.106E-01
CGA:   5    -0.335403256808E+03   -0.95000E-01   -0.94359E-01  7904   0.946E+00-0.851E-01
CGA:   6    -0.335417686485E+03   -0.14430E-01   -0.14462E-01  7904   0.468E+00-0.129E-02
CGA:   7    -0.335443313957E+03   -0.25627E-01   -0.25905E-01  7904   0.886E+00-0.107E-01
CGA:   8    -0.335463661627E+03   -0.20348E-01   -0.20473E-01  7904   0.455E+00 0.239E-02
CGA:   9    -0.335475653619E+03   -0.11992E-01   -0.11840E-01  7904   0.201E+00-0.806E-02
CGA:  10    -0.335478411505E+03   -0.27579E-02   -0.27754E-02  7904   0.502E-01-0.751E-03
CGA:  11    -0.335481260063E+03   -0.28486E-02   -0.28407E-02  7904   0.111E+00 0.286E-03
CGA:  12    -0.335484027536E+03   -0.27675E-02   -0.27672E-02  7904   0.529E-01-0.149E-04
CGA:  13    -0.335485305730E+03   -0.12782E-02   -0.12732E-02  7904   0.307E-01-0.159E-03
CGA:  14    -0.335485815006E+03   -0.50928E-03   -0.51027E-03  7904   0.880E-02-0.237E-04
CGA:  15    -0.335486345969E+03   -0.53096E-03   -0.53246E-03  7904   0.228E-01-0.487E-04
CGA:  16    -0.335486869279E+03   -0.52331E-03   -0.52427E-03  7904   0.840E-02 0.214E-04
CGA:  17    -0.335487056990E+03   -0.18771E-03   -0.18744E-03  7904   0.612E-02-0.862E-05
CGA:  18    -0.335487210071E+03   -0.15308E-03   -0.15300E-03  7904   0.323E-02-0.676E-05
CGA:  19    -0.335487384578E+03   -0.17451E-03   -0.17461E-03  7904   0.651E-02-0.430E-05
CGA:  20    -0.335487506344E+03   -0.12177E-03   -0.12195E-03  7904   0.181E-02-0.358E-05
CGA:  21    -0.335487552790E+03   -0.46447E-04   -0.46402E-04  7904   0.178E-02-0.530E-05
CGA:  22    -0.335487610741E+03   -0.57950E-04   -0.57944E-04  7904   0.141E-02 0.242E-05
CGA:  23    -0.335487683486E+03   -0.72745E-04   -0.72712E-04  7904   0.296E-02 0.169E-05
CGA:  24    -0.335487738384E+03   -0.54898E-04   -0.55057E-04  7904   0.689E-03 0.613E-05
CGA:  25    -0.335487756627E+03   -0.18244E-04   -0.18246E-04  7904   0.678E-03 0.689E-06
CGA:  26    -0.335487780199E+03   -0.23572E-04   -0.23567E-04  7904   0.643E-03 0.156E-05
CGA:  27    -0.335487809395E+03   -0.29196E-04   -0.29169E-04  7904   0.122E-02 0.191E-05
CGA:  28    -0.335487832271E+03   -0.22876E-04   -0.22963E-04  7904   0.243E-03 0.381E-05
CGA:  29    -0.335487840020E+03   -0.77496E-05   -0.77499E-05  7904   0.338E-03-0.447E-06
CGA:  30    -0.335487852205E+03   -0.12185E-04   -0.12173E-04  7904   0.300E-03 0.246E-05
CGA:  31    -0.335487861389E+03   -0.91844E-05   -0.91858E-05  7904   0.336E-03 0.127E-05
  12 F= -.33548786E+03 E0= -.33546221E+03  d E =-.142043E-01  mag=    32.0000
       N       E                     dE             d eps       ncg     rms          ort
SDA:   1    -0.331053705021E+03    0.44341E+01    0.00000E+00  7904   0.329E+03 0.000E+00
CGA:   2    -0.334599454312E+03   -0.35457E+01   -0.34328E+01  7904   0.143E+02-0.601E+02
CGA:   3    -0.334756749833E+03   -0.15730E+00   -0.15258E+00  7904   0.219E+01 0.186E+00
CGA:   4    -0.335090035052E+03   -0.33329E+00   -0.22261E-02  7904   0.172E+02-0.419E+00
CGA:   5    -0.335292022131E+03   -0.20199E+00   -0.19284E+00  7904   0.237E+01 0.605E+00
CGA:   6    -0.335320854536E+03   -0.28832E-01   -0.26581E-01  7904   0.112E+01 0.185E+00
CGA:   7    -0.335368528414E+03   -0.47674E-01   -0.46297E-01  7904   0.266E+01-0.239E-01
CGA:   8    -0.335403012534E+03   -0.34484E-01   -0.30678E-01  7904   0.168E+01 0.291E+00
CGA:   9    -0.335428422845E+03   -0.25410E-01   -0.25754E-01  7904   0.175E+01-0.164E-01
CGA:  10    -0.335457497082E+03   -0.29074E-01   -0.27969E-01  7904   0.139E+01 0.554E-01
CGA:  11    -0.335469419123E+03   -0.11922E-01   -0.11340E-01  7904   0.379E+00 0.674E-01
CGA:  12    -0.335473569118E+03   -0.41500E-02   -0.40537E-02  7904   0.279E+00 0.821E-02
CGA:  13    -0.335478210384E+03   -0.46413E-02   -0.49432E-02  7904   0.332E+00-0.105E-01
CGA:  14    -0.335482085420E+03   -0.38750E-02   -0.42276E-02  7904   0.229E+00-0.193E-01
CGA:  15    -0.335486543933E+03   -0.44585E-02   -0.45148E-02  7904   0.386E+00-0.991E-03
CGA:  16    -0.335492837510E+03   -0.62936E-02   -0.59135E-02  7904   0.147E+00 0.161E-01
CGA:  17    -0.335494126459E+03   -0.12889E-02   -0.12577E-02  7904   0.390E-01 0.315E-02
CGA:  18    -0.335494981536E+03   -0.85508E-03   -0.85092E-03  7904   0.808E-01 0.292E-04
CGA:  19    -0.335496810698E+03   -0.18292E-02   -0.18142E-02  7904   0.892E-01 0.604E-04
CGA:  20    -0.335497744531E+03   -0.93383E-03   -0.94017E-03  7904   0.433E-01-0.435E-03
CGA:  21    -0.335498504496E+03   -0.75996E-03   -0.76136E-03  7904   0.532E-01-0.259E-04
CGA:  22    -0.335499195671E+03   -0.69118E-03   -0.67921E-03  7904   0.227E-01 0.616E-03
CGA:  23    -0.335499438921E+03   -0.24325E-03   -0.24229E-03  7904   0.144E-01 0.618E-04
CGA:  24    -0.335499763061E+03   -0.32414E-03   -0.32485E-03  7904   0.253E-01 0.211E-04
CGA:  25    -0.335500129671E+03   -0.36661E-03   -0.37253E-03  7904   0.157E-01-0.190E-03
CGA:  26    -0.335500378589E+03   -0.24892E-03   -0.24888E-03  7904   0.188E-01-0.282E-05
CGA:  27    -0.335500718389E+03   -0.33980E-03   -0.33814E-03  7904   0.117E-01-0.502E-05
CGA:  28    -0.335500821394E+03   -0.10300E-03   -0.10246E-03  7904   0.333E-02 0.379E-04
CGA:  29    -0.335500883552E+03   -0.62158E-04   -0.62165E-04  7904   0.628E-02 0.171E-05
CGA:  30    -0.335501077087E+03   -0.19353E-03   -0.19331E-03  7904   0.117E-01 0.368E-04
CGA:  31    -0.335501201172E+03   -0.12409E-03   -0.12453E-03  7904   0.374E-02 0.239E-05
SDA:  32    -0.335501252383E+03   -0.51211E-04   -0.51291E-04  7904   0.340E-02 0.515E-05
CGA:  33    -0.335501305418E+03   -0.53035E-04   -0.52928E-04  7904   0.148E-02-0.344E-05
CGA:  34    -0.335501365033E+03   -0.59615E-04   -0.59668E-04  7904   0.138E-02-0.310E-05
CGA:  35    -0.335501413985E+03   -0.48952E-04   -0.48961E-04  7904   0.213E-02-0.785E-06
CGA:  36    -0.335501452234E+03   -0.38249E-04   -0.38313E-04  7904   0.645E-03 0.362E-05
CGA:  37    -0.335501501578E+03   -0.49344E-04   -0.49190E-04  7904   0.707E-03 0.271E-05
CGA:  38    -0.335501576608E+03   -0.75030E-04   -0.73992E-04  7904   0.653E-03 0.139E-04
CGA:  39    -0.335501585905E+03   -0.92972E-05   -0.93134E-05  7904   0.241E-03 0.100E-05
CGA:  40    -0.335501610307E+03   -0.24401E-04   -0.24370E-04  7904   0.135E-02 0.391E-06
CGA:  41    -0.335501635652E+03   -0.25346E-04   -0.25430E-04  7904   0.317E-03 0.218E-05
CGA:  42    -0.335501648715E+03   -0.13063E-04   -0.13064E-04  7904   0.236E-03 0.487E-07
CGA:  43    -0.335501666648E+03   -0.17933E-04   -0.17709E-04  7904   0.539E-03 0.539E-05
CGA:  44    -0.335501677790E+03   -0.11142E-04   -0.11160E-04  7904   0.182E-03 0.157E-05
CGA:  45    -0.335501687024E+03   -0.92343E-05   -0.92455E-05  7904   0.938E-04-0.598E-06
  13 F= -.33550169E+03 E0= -.33547607E+03  d E =-.138256E-01  mag=    32.0000
       N       E                     dE             d eps       ncg     rms          ort
SDA:   1    -0.334930184701E+03    0.57149E+00    0.00000E+00  7904   0.148E+02 0.000E+00
CGA:   2    -0.335051356115E+03   -0.12117E+00   -0.16248E+00  7904   0.271E+01-0.293E+01
CGA:   3    -0.335114016773E+03   -0.62661E-01   -0.62466E-01  7904   0.345E+01-0.114E-01
CGA:   4    -0.335253451060E+03   -0.13943E+00   -0.13953E+00  7904   0.486E+01-0.907E-02
CGA:   5    -0.335388452781E+03   -0.13500E+00   -0.13521E+00  7904   0.191E+01 0.784E-02
CGA:   6    -0.335424949191E+03   -0.36496E-01   -0.36237E-01  7904   0.753E+00 0.430E-02
CGA:   7    -0.335444401780E+03   -0.19453E-01   -0.19318E-01  7904   0.754E+00-0.367E-02
CGA:   8    -0.335469652627E+03   -0.25251E-01   -0.25242E-01  7904   0.694E+00 0.580E-02
CGA:   9    -0.335488944769E+03   -0.19292E-01   -0.19225E-01  7904   0.397E+00-0.386E-02
CGA:  10    -0.335497880070E+03   -0.89353E-02   -0.90386E-02  7904   0.160E+00 0.839E-03
CGA:  11    -0.335500808378E+03   -0.29283E-02   -0.29213E-02  7904   0.762E-01 0.969E-04
CGA:  12    -0.335503329615E+03   -0.25212E-02   -0.25213E-02  7904   0.968E-01-0.138E-04
CGA:  13    -0.335506787974E+03   -0.34584E-02   -0.34583E-02  7904   0.594E-01-0.119E-06
CGA:  14    -0.335507894346E+03   -0.11064E-02   -0.11056E-02  7904   0.192E-01 0.102E-04
CGA:  15    -0.335508367727E+03   -0.47338E-03   -0.47308E-03  7904   0.192E-01-0.158E-04
CGA:  16    -0.335509088532E+03   -0.72080E-03   -0.72001E-03  7904   0.200E-01 0.849E-04
CGA:  17    -0.335509566933E+03   -0.47840E-03   -0.47791E-03  7904   0.767E-02-0.146E-04
CGA:  18    -0.335509755814E+03   -0.18888E-03   -0.18901E-03  7904   0.540E-02 0.103E-04
CGA:  19    -0.335509908965E+03   -0.15315E-03   -0.15311E-03  7904   0.536E-02-0.101E-04
CGA:  20    -0.335510067311E+03   -0.15835E-03   -0.15835E-03  7904   0.476E-02 0.387E-07
CGA:  21    -0.335510217235E+03   -0.14992E-03   -0.14992E-03  7904   0.313E-02 0.660E-06
CGA:  22    -0.335510285957E+03   -0.68723E-04   -0.68742E-04  7904   0.134E-02 0.181E-05
CGA:  23    -0.335510319171E+03   -0.33214E-04   -0.33209E-04  7904   0.139E-02-0.508E-06
CGA:  24    -0.335510383850E+03   -0.64679E-04   -0.64519E-04  7904   0.248E-02 0.935E-05
CGA:  25    -0.335510456221E+03   -0.72371E-04   -0.72369E-04  7904   0.104E-02 0.106E-05
CGA:  26    -0.335510476698E+03   -0.20477E-04   -0.20528E-04  7904   0.471E-03 0.371E-05
CGA:  27    -0.335510491458E+03   -0.14760E-04   -0.14759E-04  7904   0.681E-03 0.546E-06
CGA:  28    -0.335510518729E+03   -0.27272E-04   -0.27226E-04  7904   0.835E-03 0.452E-05
CGA:  29    -0.335510542420E+03   -0.23691E-04   -0.23698E-04  7904   0.489E-03 0.262E-05
CGA:  30    -0.335510554724E+03   -0.12304E-04   -0.12312E-04  7904   0.278E-03 0.159E-05
CGA:  31    -0.335510560817E+03   -0.60927E-05   -0.60918E-05  7904   0.185E-03-0.387E-07
  14 F= -.33551056E+03 E0= -.33548506E+03  d E =-.887379E-02  mag=    32.0000
       N       E                     dE             d eps       ncg     rms          ort
SDA:   1    -0.332616783535E+03    0.28938E+01    0.00000E+00  7904   0.158E+02 0.000E+00
CGA:   2    -0.332853765153E+03   -0.23698E+00   -0.22068E+00  7904   0.118E+02 0.592E+00
CGA:   3    -0.334481513539E+03   -0.16277E+01   -0.14669E+01  7904   0.153E+02 0.175E+01
CGA:   4    -0.334749223605E+03   -0.26771E+00   -0.29208E+00  7904   0.724E+01-0.652E+00
CGA:   5    -0.335042117888E+03   -0.29289E+00   -0.30013E+00  7904   0.134E+02-0.602E+00
CGA:   6    -0.335128150293E+03   -0.86032E-01   -0.53197E-01  7904   0.710E+01 0.734E+01
CGA:   7    -0.335197662347E+03   -0.69512E-01   -0.78240E-01  7904   0.196E+01-0.602E+00
CGA:   8    -0.335265594785E+03   -0.67932E-01   -0.70042E-01  7904   0.231E+01-0.185E+00
CGA:   9    -0.335346713807E+03   -0.81119E-01   -0.81157E-01  7904   0.344E+01-0.340E-02
CGA:  10    -0.335423836027E+03   -0.77122E-01   -0.78370E-01  7904   0.740E+00 0.169E-01
CGA:  11    -0.335442652194E+03   -0.18816E-01   -0.18662E-01  7904   0.791E+00-0.605E-02
CGA:  12    -0.335461459135E+03   -0.18807E-01   -0.18396E-01  7904   0.391E+00-0.959E-02
CGA:  13    -0.335495709450E+03   -0.34250E-01   -0.33359E-01  7904   0.876E+00 0.179E-01
CGA:  14    -0.335511018347E+03   -0.15309E-01   -0.15200E-01  7904   0.914E-01 0.385E-02
CGA:  15    -0.335515313184E+03   -0.42948E-02   -0.42697E-02  7904   0.157E+00 0.144E-02
CGA:  16    -0.335520230798E+03   -0.49176E-02   -0.49158E-02  7904   0.122E+00-0.304E-03
CGA:  17    -0.335522945051E+03   -0.27143E-02   -0.26912E-02  7904   0.725E-01-0.595E-05
CGA:  18    -0.335524183246E+03   -0.12382E-02   -0.12449E-02  7904   0.222E-01-0.153E-03
CGA:  19    -0.335525115815E+03   -0.93257E-03   -0.93207E-03  7904   0.270E-01 0.326E-04
CGA:  20    -0.335525914513E+03   -0.79870E-03   -0.79926E-03  7904   0.184E-01 0.901E-04
CGA:  21    -0.335526725120E+03   -0.81061E-03   -0.81407E-03  7904   0.117E-01-0.226E-03
CGA:  22    -0.335526937285E+03   -0.21217E-03   -0.21244E-03  7904   0.613E-02-0.695E-05
CGA:  23    -0.335527269702E+03   -0.33242E-03   -0.33178E-03  7904   0.216E-01 0.272E-04
CGA:  24    -0.335527913028E+03   -0.64333E-03   -0.64356E-03  7904   0.540E-02 0.369E-04
CGA:  25    -0.335528035717E+03   -0.12269E-03   -0.12288E-03  7904   0.383E-02 0.687E-05
CGA:  26    -0.335528231337E+03   -0.19562E-03   -0.19670E-03  7904   0.361E-02-0.499E-04
CGA:  27    -0.335528394046E+03   -0.16271E-03   -0.16246E-03  7904   0.607E-02 0.184E-04
CGA:  28    -0.335528579777E+03   -0.18573E-03   -0.18583E-03  7904   0.153E-02 0.161E-04
CGA:  29    -0.335528612995E+03   -0.33218E-04   -0.33294E-04  7904   0.163E-02 0.389E-05
CGA:  30    -0.335528690918E+03   -0.77923E-04   -0.77838E-04  7904   0.287E-02 0.537E-05
CGA:  31    -0.335528749251E+03   -0.58333E-04   -0.58409E-04  7904   0.721E-03 0.351E-05
CGA:  32    -0.335528775034E+03   -0.25783E-04   -0.25772E-04  7904   0.609E-03 0.373E-05
CGA:  33    -0.335528794937E+03   -0.19903E-04   -0.19903E-04  7904   0.569E-03 0.545E-06
CGA:  34    -0.335528825410E+03   -0.30473E-04   -0.30425E-04  7904   0.778E-03 0.216E-05
CGA:  35    -0.335528846322E+03   -0.20912E-04   -0.20929E-04  7904   0.654E-03 0.221E-05
CGA:  36    -0.335528859739E+03   -0.13417E-04   -0.13429E-04  7904   0.269E-03 0.134E-05
SDA:  37    -0.335528865027E+03   -0.52880E-05   -0.53193E-05  7904   0.150E-03 0.191E-05
  15 F= -.33552887E+03 E0= -.33550363E+03  d E =-.183042E-01  mag=    32.0000
       N       E                     dE             d eps       ncg     rms          ort
SDA:   1    -0.326058283283E+03    0.94706E+01    0.00000E+00  7904   0.237E+03 0.000E+00
CGA:   2    -0.327935619134E+03   -0.18773E+01   -0.33943E+01  7904   0.603E+02-0.547E+02
CGA:   3    -0.329244439161E+03   -0.13088E+01   -0.12350E+01  7904   0.514E+02-0.569E+01
CGA:   4    -0.330804770381E+03   -0.15603E+01   -0.15542E+01  7904   0.772E+02 0.141E+01
CGA:   5    -0.333045079737E+03   -0.22403E+01   -0.22525E+01  7904   0.404E+02 0.187E+01
CGA:   6    -0.333964795718E+03   -0.91972E+00   -0.88901E+00  7904   0.156E+02-0.310E+00
CGA:   7    -0.334370709301E+03   -0.40591E+00   -0.40709E+00  7904   0.153E+02 0.867E-01
CGA:   8    -0.334790761142E+03   -0.42005E+00   -0.42277E+00  7904   0.112E+02 0.407E+00
CGA:   9    -0.335085886075E+03   -0.29512E+00   -0.28920E+00  7904   0.677E+01-0.369E+00
CGA:  10    -0.335293714966E+03   -0.20783E+00   -0.20697E+00  7904   0.414E+01 0.253E+00
CGA:  11    -0.335372397041E+03   -0.78682E-01   -0.76196E-01  7904   0.164E+01 0.346E-01
CGA:  12    -0.335414044439E+03   -0.41647E-01   -0.41584E-01  7904   0.142E+01-0.560E-02
CGA:  13    -0.335468870819E+03   -0.54826E-01   -0.54672E-01  7904   0.145E+01 0.119E-01
CGA:  14    -0.335503882048E+03   -0.35011E-01   -0.34918E-01  7904   0.738E+00-0.228E-02
CGA:  15    -0.335517583698E+03   -0.13702E-01   -0.13660E-01  7904   0.332E+00 0.932E-04
CGA:  16    -0.335526210833E+03   -0.86271E-02   -0.86500E-02  7904   0.243E+00 0.347E-02
CGA:  17    -0.335534915945E+03   -0.87051E-02   -0.87392E-02  7904   0.269E+00-0.338E-02
CGA:  18    -0.335542417679E+03   -0.75017E-02   -0.75032E-02  7904   0.220E+00 0.132E-02
CGA:  19    -0.335547098126E+03   -0.46804E-02   -0.46761E-02  7904   0.107E+00-0.428E-04
CGA:  20    -0.335549672670E+03   -0.25745E-02   -0.25721E-02  7904   0.562E-01-0.146E-03
CGA:  21    -0.335551527197E+03   -0.18545E-02   -0.18537E-02  7904   0.698E-01 0.123E-03
CGA:  22    -0.335553878753E+03   -0.23516E-02   -0.23499E-02  7904   0.826E-01 0.226E-03
CGA:  23    -0.335555710788E+03   -0.18320E-02   -0.18286E-02  7904   0.341E-01-0.950E-04
CGA:  24    -0.335556555234E+03   -0.84445E-03   -0.84554E-03  7904   0.221E-01 0.125E-03
CGA:  25    -0.335557339737E+03   -0.78450E-03   -0.78513E-03  7904   0.298E-01-0.600E-04
CGA:  26    -0.335558178777E+03   -0.83904E-03   -0.83907E-03  7904   0.272E-01 0.554E-04
CGA:  27    -0.335558886876E+03   -0.70810E-03   -0.70825E-03  7904   0.160E-01 0.329E-04
CGA:  28    -0.335559320074E+03   -0.43320E-03   -0.43320E-03  7904   0.103E-01 0.957E-05
CGA:  29    -0.335559608785E+03   -0.28871E-03   -0.28872E-03  7904   0.102E-01 0.195E-04
CGA:  30    -0.335559892485E+03   -0.28370E-03   -0.28373E-03  7904   0.945E-02 0.417E-04
CGA:  31    -0.335560183243E+03   -0.29076E-03   -0.29080E-03  7904   0.732E-02-0.479E-05
SDA:  32    -0.335560385406E+03   -0.20216E-03   -0.20220E-03  7904   0.455E-02 0.284E-04
CGA:  33    -0.335560429385E+03   -0.43979E-04   -0.43838E-04  7904   0.930E-03 0.458E-05
CGA:  34    -0.335560522950E+03   -0.93566E-04   -0.93523E-04  7904   0.510E-02-0.248E-06
CGA:  35    -0.335560659414E+03   -0.13646E-03   -0.13651E-03  7904   0.209E-02 0.577E-05
CGA:  36    -0.335560793441E+03   -0.13403E-03   -0.13471E-03  7904   0.923E-03-0.218E-04
CGA:  37    -0.335560828809E+03   -0.35368E-04   -0.35343E-04  7904   0.225E-02 0.346E-05
CGA:  38    -0.335560878382E+03   -0.49573E-04   -0.49626E-04  7904   0.409E-03 0.234E-05
CGA:  39    -0.335560916800E+03   -0.38418E-04   -0.38581E-04  7904   0.658E-03-0.325E-05
CGA:  40    -0.335560931281E+03   -0.14481E-04   -0.14467E-04  7904   0.625E-03-0.694E-06
CGA:  41    -0.335560953127E+03   -0.21846E-04   -0.21845E-04  7904   0.628E-03 0.431E-05
CGA:  42    -0.335560970001E+03   -0.16874E-04   -0.16895E-04  7904   0.670E-03 0.210E-05
CGA:  43    -0.335560987837E+03   -0.17836E-04   -0.17845E-04  7904   0.116E-03 0.141E-05
CGA:  44    -0.335561010954E+03   -0.23118E-04   -0.55629E-06  7904   0.133E-02-0.120E-04
CGA:  45    -0.335561025509E+03   -0.14555E-04   -0.14567E-04  7904   0.140E-03-0.186E-05
CGA:  46    -0.335561028608E+03   -0.30984E-05   -0.31279E-05  7904   0.220E-03 0.436E-06
  16 F= -.33556103E+03 E0= -.33553581E+03  d E =-.321636E-01  mag=    32.0000
       N       E                     dE             d eps       ncg     rms          ort
SDA:   1    -0.295092996910E+03    0.40468E+02    0.00000E+00  7904   0.155E+04 0.000E+00
CGA:   2    -0.304774346934E+03   -0.96814E+01   -0.45378E+02  7904   0.407E+03-0.111E+03
CGA:   3    -0.309767498181E+03   -0.49932E+01   -0.66920E+01  7904   0.765E+03-0.391E+03
CGA:   4    -0.310662867998E+03   -0.89537E+00   -0.17525E+02  7904   0.631E+03-0.327E+03
CGA:   5    -0.319307538395E+03   -0.86447E+01   -0.77200E+01  7904   0.197E+03 0.482E+02
CGA:   6    -0.320882062036E+03   -0.15745E+01   -0.27379E+01  7904   0.249E+03-0.122E+03
CGA:   7    -0.320299644937E+03    0.58242E+00   -0.50171E+01  7904   0.257E+03-0.124E+03
CGA:   8    -0.326080397614E+03   -0.57808E+01   -0.46377E+01  7904   0.136E+03-0.279E+02
CGA:   9    -0.327891425576E+03   -0.18110E+01   -0.15572E+01  7904   0.351E+02 0.366E+01
CGA:  10    -0.329544977974E+03   -0.16536E+01   -0.16468E+01  7904   0.764E+02 0.261E+01
CGA:  11    -0.332162065957E+03   -0.26171E+01   -0.24355E+01  7904   0.118E+03-0.172E+01
CGA:  12    -0.334407506430E+03   -0.22454E+01   -0.25734E+01  7904   0.446E+02-0.493E+01
CGA:  13    -0.334814900928E+03   -0.40739E+00   -0.57370E+00  7904   0.128E+02-0.940E+01
CGA:  14    -0.335008933755E+03   -0.19403E+00   -0.17382E+00  7904   0.343E+01 0.749E+00
CGA:  15    -0.335070330417E+03   -0.61397E-01   -0.57361E-01  7904   0.276E+01 0.174E+00
CGA:  16    -0.335241392060E+03   -0.17106E+00   -0.16815E+00  7904   0.658E+01 0.122E+00
CGA:  17    -0.335394226507E+03   -0.15283E+00   -0.14676E+00  7904   0.298E+01 0.115E+00
CGA:  18    -0.335438446349E+03   -0.44220E-01   -0.48364E-01  7904   0.143E+01-0.161E+00
CGA:  19    -0.335465706742E+03   -0.27260E-01   -0.28048E-01  7904   0.114E+01-0.141E-01
CGA:  20    -0.335501000017E+03   -0.35293E-01   -0.34634E-01  7904   0.953E+00-0.280E-01
CGA:  21    -0.335516098113E+03   -0.15098E-01   -0.15033E-01  7904   0.386E+00 0.422E-02
CGA:  22    -0.335528811737E+03   -0.12714E-01   -0.12738E-01  7904   0.737E+00 0.398E-02
CGA:  23    -0.335552226443E+03   -0.23415E-01   -0.23524E-01  7904   0.393E+00 0.117E-01
CGA:  24    -0.335560546690E+03   -0.83202E-02   -0.84360E-02  7904   0.306E+00-0.992E-03
CGA:  25    -0.335567515114E+03   -0.69684E-02   -0.69097E-02  7904   0.156E+00 0.387E-03
CGA:  26    -0.335570213593E+03   -0.26985E-02   -0.26614E-02  7904   0.104E+00 0.114E-02
CGA:  27    -0.335577913345E+03   -0.76998E-02   -0.75818E-02  7904   0.278E+00 0.307E-02
CGA:  28    -0.335583588609E+03   -0.56753E-02   -0.56400E-02  7904   0.139E+00 0.698E-03
CGA:  29    -0.335586097715E+03   -0.25091E-02   -0.25525E-02  7904   0.495E-01-0.960E-03
[...]
CGA:  12    -0.335800306531E+03   -0.21520E-03   -0.21521E-03  7904   0.391E-02 0.272E-04
CGA:  13    -0.335800399920E+03   -0.93389E-04   -0.93500E-04  7904   0.252E-02 0.852E-05
CGA:  14    -0.335800455448E+03   -0.55527E-04   -0.55620E-04  7904   0.786E-03 0.725E-05
CGA:  15    -0.335800490375E+03   -0.34928E-04   -0.34887E-04  7904   0.143E-02 0.295E-05
CGA:  16    -0.335800542286E+03   -0.51910E-04   -0.51897E-04  7904   0.431E-03 0.318E-05
CGA:  17    -0.335800550461E+03   -0.81757E-05   -0.81791E-05  7904   0.269E-03 0.366E-06
CGA:  18    -0.335800563206E+03   -0.12744E-04   -0.12684E-04  7904   0.384E-03 0.374E-05
CGA:  19    -0.335800572882E+03   -0.96762E-05   -0.96871E-05  7904   0.198E-03 0.183E-05
 178 F= -.33580057E+03 E0= -.33577688E+03  d E =0.521824E-03  mag=    32.0000
       N       E                     dE             d eps       ncg     rms          ort
SDA:   1    -0.335555426329E+03    0.24514E+00    0.00000E+00  7904   0.710E+01 0.000E+00
CGA:   2    -0.335619173028E+03   -0.63747E-01   -0.72825E-01  7904   0.693E+00-0.680E+00
CGA:   3    -0.335656469701E+03   -0.37297E-01   -0.37671E-01  7904   0.233E+01-0.124E-01
CGA:   4    -0.335743648773E+03   -0.87179E-01   -0.87155E-01  7904   0.817E+00 0.281E-02
CGA:   5    -0.335757322660E+03   -0.13674E-01   -0.13677E-01  7904   0.287E+00-0.194E-03
CGA:   6    -0.335771111960E+03   -0.13789E-01   -0.13672E-01  7904   0.453E+00 0.610E-02
CGA:   7    -0.335782022015E+03   -0.10910E-01   -0.10784E-01  7904   0.188E+00-0.144E-02
CGA:   8    -0.335788086524E+03   -0.60645E-02   -0.60639E-02  7904   0.154E+00 0.847E-03
CGA:   9    -0.335792100828E+03   -0.40143E-02   -0.39946E-02  7904   0.804E-01-0.856E-03
CGA:  10    -0.335794611974E+03   -0.25111E-02   -0.25114E-02  7904   0.634E-01 0.440E-03
CGA:  11    -0.335795994581E+03   -0.13826E-02   -0.13837E-02  7904   0.213E-01 0.243E-04
CGA:  12    -0.335796564284E+03   -0.56970E-03   -0.57003E-03  7904   0.151E-01 0.400E-04
CGA:  13    -0.335797103700E+03   -0.53942E-03   -0.53934E-03  7904   0.171E-01 0.156E-04
CGA:  14    -0.335797702258E+03   -0.59856E-03   -0.59847E-03  7904   0.120E-01 0.233E-04
CGA:  15    -0.335797915015E+03   -0.21276E-03   -0.21215E-03  7904   0.239E-02 0.159E-04
CGA:  16    -0.335797996776E+03   -0.81761E-04   -0.81711E-04  7904   0.359E-02 0.128E-04
CGA:  17    -0.335798172571E+03   -0.17579E-03   -0.17551E-03  7904   0.279E-02 0.166E-04
CGA:  18    -0.335798218728E+03   -0.46157E-04   -0.46295E-04  7904   0.752E-03 0.587E-05
CGA:  19    -0.335798252141E+03   -0.33413E-04   -0.33424E-04  7904   0.143E-02-0.805E-06
CGA:  20    -0.335798301505E+03   -0.49364E-04   -0.49364E-04  7904   0.650E-03 0.275E-06
CGA:  21    -0.335798315124E+03   -0.13619E-04   -0.13619E-04  7904   0.341E-03-0.102E-06
CGA:  22    -0.335798327287E+03   -0.12163E-04   -0.12149E-04  7904   0.359E-03 0.286E-05
CGA:  23    -0.335798339562E+03   -0.12275E-04   -0.12275E-04  7904   0.375E-03 0.438E-06
CGA:  24    -0.335798352601E+03   -0.13038E-04   -0.13032E-04  7904   0.249E-03 0.208E-05
CGA:  25    -0.335798358422E+03   -0.58215E-05   -0.58160E-05  7904   0.135E-03-0.552E-06
 179 F= -.33579836E+03 E0= -.33577464E+03  d E =0.221446E-02  mag=    32.0000
       N       E                     dE             d eps       ncg     rms          ort
SDA:   1    -0.335761512491E+03    0.36840E-01    0.00000E+00  7904   0.262E+01 0.000E+00
CGA:   2    -0.335785119106E+03   -0.23607E-01   -0.24367E-01  7904   0.111E+00-0.654E-01
CGA:   3    -0.335788511282E+03   -0.33922E-02   -0.33949E-02  7904   0.722E-01-0.129E-02
CGA:   4    -0.335790399433E+03   -0.18882E-02   -0.18879E-02  7904   0.709E-01-0.199E-04
CGA:   5    -0.335794253852E+03   -0.38544E-02   -0.39002E-02  7904   0.648E-01-0.176E-02
CGA:   6    -0.335795577442E+03   -0.13236E-02   -0.13269E-02  7904   0.366E-01 0.159E-04
CGA:   7    -0.335796368231E+03   -0.79079E-03   -0.79571E-03  7904   0.998E-02 0.508E-04
CGA:   8    -0.335797500247E+03   -0.11320E-02   -0.11327E-02  7904   0.368E-01-0.684E-05
CGA:   9    -0.335798033269E+03   -0.53302E-03   -0.53168E-03  7904   0.246E-02 0.373E-04
CGA:  10    -0.335798127671E+03   -0.94402E-04   -0.94373E-04  7904   0.428E-02 0.459E-05
CGA:  11    -0.335798281256E+03   -0.15358E-03   -0.15361E-03  7904   0.328E-02-0.720E-05
CGA:  12    -0.335798385029E+03   -0.10377E-03   -0.10383E-03  7904   0.131E-02 0.141E-04
CGA:  13    -0.335798407973E+03   -0.22944E-04   -0.22908E-04  7904   0.717E-03-0.189E-05
CGA:  14    -0.335798442304E+03   -0.34331E-04   -0.34466E-04  7904   0.353E-03-0.828E-05
CGA:  15    -0.335798453511E+03   -0.11207E-04   -0.11205E-04  7904   0.475E-03-0.172E-05
CGA:  16    -0.335798466746E+03   -0.13234E-04   -0.13237E-04  7904   0.210E-03-0.104E-06
CGA:  17    -0.335798476760E+03   -0.10015E-04   -0.10034E-04  7904   0.432E-03-0.133E-05
CGA:  18    -0.335798486572E+03   -0.98118E-05   -0.98192E-05  7904   0.396E-04 0.170E-06
 180 F= -.33579849E+03 E0= -.33577479E+03  d E =-.128150E-03  mag=    32.0000
       N       E                     dE             d eps       ncg     rms          ort
SDA:   1    -0.335725774681E+03    0.72702E-01    0.00000E+00  7904   0.341E+01 0.000E+00
CGA:   2    -0.335756831750E+03   -0.31057E-01   -0.29089E-01  7904   0.126E+00 0.186E+00
CGA:   3    -0.335764632405E+03   -0.78007E-02   -0.78746E-02  7904   0.525E+00-0.263E-02
CGA:   4    -0.335775873757E+03   -0.11241E-01   -0.11087E-01  7904   0.335E+00 0.102E-02
CGA:   5    -0.335784945633E+03   -0.90719E-02   -0.90954E-02  7904   0.419E+00 0.111E-02
CGA:   6    -0.335790634243E+03   -0.56886E-02   -0.57096E-02  7904   0.679E-01-0.588E-03
CGA:   7    -0.335791889260E+03   -0.12550E-02   -0.12523E-02  7904   0.674E-01 0.446E-04
CGA:   8    -0.335793907070E+03   -0.20178E-02   -0.20200E-02  7904   0.775E-01 0.886E-03
CGA:   9    -0.335795683572E+03   -0.17765E-02   -0.17800E-02  7904   0.708E-01 0.556E-04
CGA:  10    -0.335797480487E+03   -0.17969E-02   -0.17889E-02  7904   0.366E-01-0.451E-03
CGA:  11    -0.335797889331E+03   -0.40884E-03   -0.40743E-03  7904   0.768E-02 0.701E-04
CGA:  12    -0.335798226672E+03   -0.33734E-03   -0.33716E-03  7904   0.198E-01 0.923E-05
CGA:  13    -0.335798546424E+03   -0.31975E-03   -0.31714E-03  7904   0.432E-02 0.544E-04
CGA:  14    -0.335798658045E+03   -0.11162E-03   -0.11147E-03  7904   0.617E-02-0.207E-04
CGA:  15    -0.335798779082E+03   -0.12104E-03   -0.12081E-03  7904   0.347E-02-0.650E-05
CGA:  16    -0.335798900002E+03   -0.12092E-03   -0.12079E-03  7904   0.598E-02 0.143E-04
CGA:  17    -0.335798982049E+03   -0.82048E-04   -0.81951E-04  7904   0.668E-03-0.245E-05
CGA:  18    -0.335798996172E+03   -0.14123E-04   -0.14090E-04  7904   0.969E-03-0.414E-05
CGA:  19    -0.335799038037E+03   -0.41865E-04   -0.42072E-04  7904   0.143E-02-0.129E-04
CGA:  20    -0.335799061950E+03   -0.23912E-04   -0.23873E-04  7904   0.703E-03-0.425E-05
CGA:  21    -0.335799076028E+03   -0.14078E-04   -0.14075E-04  7904   0.413E-03-0.128E-05
CGA:  22    -0.335799082422E+03   -0.63942E-05   -0.64001E-05  7904   0.197E-03 0.477E-06
 181 F= -.33579908E+03 E0= -.33577544E+03  d E =-.595850E-03  mag=    32.0000
       N       E                     dE             d eps       ncg     rms          ort
SDA:   1    -0.335695215186E+03    0.10386E+00    0.00000E+00  7904   0.112E+02 0.000E+00
CGA:   2    -0.335792714474E+03   -0.97499E-01   -0.10016E+00  7904   0.924E-01-0.270E+00
CGA:   3    -0.335793920085E+03   -0.12056E-02   -0.12000E-02  7904   0.257E-01 0.212E-03
CGA:   4    -0.335795533647E+03   -0.16136E-02   -0.15698E-02  7904   0.245E-01 0.133E-02
CGA:   5    -0.335797011402E+03   -0.14778E-02   -0.14819E-02  7904   0.605E-01-0.143E-03
CGA:   6    -0.335798050102E+03   -0.10387E-02   -0.10349E-02  7904   0.832E-02 0.777E-04
CGA:   7    -0.335798430524E+03   -0.38042E-03   -0.37758E-03  7904   0.689E-02 0.151E-03
CGA:   8    -0.335798929447E+03   -0.49892E-03   -0.50031E-03  7904   0.144E-01-0.371E-04
CGA:   9    -0.335799130783E+03   -0.20134E-03   -0.20192E-03  7904   0.155E-02-0.835E-05
CGA:  10    -0.335799184115E+03   -0.53331E-04   -0.53326E-04  7904   0.260E-02 0.141E-05
CGA:  11    -0.335799268403E+03   -0.84288E-04   -0.84298E-04  7904   0.988E-03-0.379E-05
CGA:  12    -0.335799320773E+03   -0.52370E-04   -0.52238E-04  7904   0.670E-03 0.582E-05
CGA:  13    -0.335799330538E+03   -0.97654E-05   -0.97725E-05  7904   0.303E-03 0.146E-06
CGA:  14    -0.335799346563E+03   -0.16025E-04   -0.15947E-04  7904   0.247E-03 0.362E-05
CGA:  15    -0.335799359134E+03   -0.12571E-04   -0.12561E-04  7904   0.915E-04 0.616E-06
CGA:  16    -0.335799361486E+03   -0.23523E-05   -0.23554E-05  7904   0.129E-03 0.410E-06
 182 F= -.33579936E+03 E0= -.33577569E+03  d E =-.279065E-03  mag=    32.0000
       N       E                     dE             d eps       ncg     rms          ort
SDA:   1    -0.335722617312E+03    0.76742E-01    0.00000E+00  7904   0.269E+01 0.000E+00
CGA:   2    -0.335748879699E+03   -0.26262E-01   -0.26590E-01  7904   0.251E+00-0.298E-01
CGA:   3    -0.335759889960E+03   -0.11010E-01   -0.10867E-01  7904   0.309E+00 0.938E-02
CGA:   4    -0.335769605232E+03   -0.97153E-02   -0.97340E-02  7904   0.317E+00 0.302E-02
CGA:   5    -0.335786103126E+03   -0.16498E-01   -0.16565E-01  7904   0.204E+00-0.313E-02
CGA:   6    -0.335790111526E+03   -0.40084E-02   -0.39959E-02  7904   0.102E+00 0.242E-03
CGA:   7    -0.335792665718E+03   -0.25542E-02   -0.25352E-02  7904   0.588E-01-0.382E-03
CGA:   8    -0.335795006841E+03   -0.23411E-02   -0.23447E-02  7904   0.843E-01-0.330E-03
CGA:   9    -0.335797259682E+03   -0.22528E-02   -0.22516E-02  7904   0.179E-01-0.423E-04
CGA:  10    -0.335798285015E+03   -0.10253E-02   -0.10228E-02  7904   0.355E-01 0.968E-04
CGA:  11    -0.335798965793E+03   -0.68078E-03   -0.68147E-03  7904   0.603E-02 0.808E-05
CGA:  12    -0.335799096141E+03   -0.13035E-03   -0.13041E-03  7904   0.465E-02 0.418E-05
CGA:  13    -0.335799284663E+03   -0.18852E-03   -0.18885E-03  7904   0.408E-02-0.294E-04
CGA:  14    -0.335799467765E+03   -0.18310E-03   -0.18280E-03  7904   0.384E-02 0.214E-04
CGA:  15    -0.335799542492E+03   -0.74727E-04   -0.74750E-04  7904   0.994E-03 0.262E-05
CGA:  16    -0.335799569238E+03   -0.26746E-04   -0.26773E-04  7904   0.821E-03 0.372E-05
CGA:  17    -0.335799592963E+03   -0.23724E-04   -0.23733E-04  7904   0.825E-03 0.227E-05
CGA:  18    -0.335799638462E+03   -0.45500E-04   -0.45321E-04  7904   0.566E-03 0.794E-05
CGA:  19    -0.335799648277E+03   -0.98146E-05   -0.98381E-05  7904   0.172E-03 0.124E-05
CGA:  20    -0.335799659649E+03   -0.11372E-04   -0.11352E-04  7904   0.394E-03 0.622E-06
CGA:  21    -0.335799666844E+03   -0.71947E-05   -0.71796E-05  7904   0.851E-04-0.548E-06
 183 F= -.33579967E+03 E0= -.33577595E+03  d E =-.305358E-03  mag=    32.0000
       N       E                     dE             d eps       ncg     rms          ort
SDA:   1    -0.335776204430E+03    0.23455E-01    0.00000E+00  7904   0.847E+00 0.000E+00
CGA:   2    -0.335785207139E+03   -0.90027E-02   -0.93033E-02  7904   0.637E-01-0.202E-01
CGA:   3    -0.335788279190E+03   -0.30721E-02   -0.30875E-02  7904   0.144E+00-0.771E-03
CGA:   4    -0.335791512246E+03   -0.32331E-02   -0.32166E-02  7904   0.849E-01-0.404E-04
CGA:   5    -0.335795604080E+03   -0.40918E-02   -0.40954E-02  7904   0.511E-01-0.206E-03
CGA:   6    -0.335796927237E+03   -0.13232E-02   -0.13222E-02  7904   0.443E-01-0.328E-04
CGA:   7    -0.335798209598E+03   -0.12824E-02   -0.12881E-02  7904   0.226E-01 0.512E-03
CGA:   8    -0.335798742403E+03   -0.53281E-03   -0.53240E-03  7904   0.191E-01-0.151E-04
CGA:   9    -0.335799234773E+03   -0.49237E-03   -0.49127E-03  7904   0.625E-02-0.525E-04
CGA:  10    -0.335799781212E+03   -0.54644E-03   -0.54627E-03  7904   0.997E-02 0.573E-05
CGA:  11    -0.335799920841E+03   -0.13963E-03   -0.13905E-03  7904   0.135E-02 0.977E-05
CGA:  12    -0.335799961058E+03   -0.40217E-04   -0.40201E-04  7904   0.175E-02-0.308E-05
CGA:  13    -0.335800016137E+03   -0.55079E-04   -0.55065E-04  7904   0.152E-02-0.568E-05
CGA:  14    -0.335800087878E+03   -0.71741E-04   -0.71736E-04  7904   0.327E-03-0.413E-06
CGA:  15    -0.335800095550E+03   -0.76715E-05   -0.76643E-05  7904   0.318E-03-0.832E-06
CGA:  16    -0.335800109885E+03   -0.14335E-04   -0.14405E-04  7904   0.337E-03-0.593E-05
CGA:  17    -0.335800117555E+03   -0.76698E-05   -0.76395E-05  7904   0.284E-03-0.272E-05
 184 F= -.33580012E+03 E0= -.33577644E+03  d E =-.450711E-03  mag=    32.0000
       N       E                     dE             d eps       ncg     rms          ort
SDA:   1    -0.335735499397E+03    0.64610E-01    0.00000E+00  7904   0.146E+01 0.000E+00
CGA:   2    -0.335753931846E+03   -0.18432E-01   -0.18836E-01  7904   0.324E+00-0.224E-01
CGA:   3    -0.335762148236E+03   -0.82164E-02   -0.83607E-02  7904   0.195E+00 0.603E-02
CGA:   4    -0.335772380194E+03   -0.10232E-01   -0.10296E-01  7904   0.521E+00-0.285E-02
CGA:   5    -0.335786873842E+03   -0.14494E-01   -0.14510E-01  7904   0.116E+00 0.105E-02
CGA:   6    -0.335792166993E+03   -0.52932E-02   -0.51615E-02  7904   0.588E-01 0.862E-02
CGA:   7    -0.335793741919E+03   -0.15749E-02   -0.15756E-02  7904   0.730E-01 0.193E-04
CGA:   8    -0.335796891944E+03   -0.31500E-02   -0.31449E-02  7904   0.285E-01 0.364E-03
CGA:   9    -0.335797481822E+03   -0.58988E-03   -0.59133E-03  7904   0.236E-01-0.182E-04
CGA:  10    -0.335798783905E+03   -0.13021E-02   -0.13172E-02  7904   0.107E-01-0.610E-03
CGA:  11    -0.335799037407E+03   -0.25350E-03   -0.25487E-03  7904   0.485E-02 0.147E-04
CGA:  12    -0.335799129992E+03   -0.92585E-04   -0.92540E-04  7904   0.328E-02-0.216E-05
CGA:  13    -0.335799402874E+03   -0.27288E-03   -0.27203E-03  7904   0.161E-02 0.192E-04
CGA:  14    -0.335799430402E+03   -0.27528E-04   -0.27482E-04  7904   0.954E-03-0.199E-05
CGA:  15    -0.335799491455E+03   -0.61053E-04   -0.61195E-04  7904   0.147E-02-0.482E-05
CGA:  16    -0.335799524239E+03   -0.32784E-04   -0.32722E-04  7904   0.662E-03-0.302E-05
CGA:  17    -0.335799537880E+03   -0.13641E-04   -0.13680E-04  7904   0.192E-03-0.145E-06
CGA:  18    -0.335799556911E+03   -0.19031E-04   -0.19239E-04  7904   0.715E-03-0.320E-05
CGA:  19    -0.335799567563E+03   -0.10652E-04   -0.10638E-04  7904   0.588E-04-0.104E-05
CGA:  20    -0.335799571165E+03   -0.36022E-05   -0.36215E-05  7904   0.114E-03-0.789E-06
 185 F= -.33579957E+03 E0= -.33577590E+03  d E =0.546390E-03  mag=    32.0000
       N       E                     dE             d eps       ncg     rms          ort
SDA:   1    -0.335774134906E+03    0.25433E-01    0.00000E+00  7904   0.211E+01 0.000E+00
CGA:   2    -0.335794069929E+03   -0.19935E-01   -0.20112E-01  7904   0.978E-01-0.183E-01
CGA:   3    -0.335796015874E+03   -0.19459E-02   -0.18419E-02  7904   0.228E-01 0.251E-02
CGA:   4    -0.335796498385E+03   -0.48251E-03   -0.48335E-03  7904   0.161E-01-0.109E-04
CGA:   5    -0.335798630841E+03   -0.21325E-02   -0.21384E-02  7904   0.132E-01-0.794E-04
CGA:   6    -0.335799220593E+03   -0.58975E-03   -0.59088E-03  7904   0.967E-02-0.131E-03
CGA:   7    -0.335799382064E+03   -0.16147E-03   -0.16154E-03  7904   0.575E-02 0.611E-05
CGA:   8    -0.335799639406E+03   -0.25734E-03   -0.25738E-03  7904   0.358E-02-0.176E-05
CGA:   9    -0.335799801109E+03   -0.16170E-03   -0.16144E-03  7904   0.142E-02 0.316E-04
CGA:  10    -0.335799886924E+03   -0.85815E-04   -0.85964E-04  7904   0.270E-02-0.608E-05
CGA:  11    -0.335799932518E+03   -0.45594E-04   -0.45562E-04  7904   0.262E-03 0.984E-06
CGA:  12    -0.335799941462E+03   -0.89439E-05   -0.89522E-05  7904   0.506E-03 0.154E-05
CGA:  13    -0.335799960132E+03   -0.18669E-04   -0.18674E-04  7904   0.343E-03 0.232E-05
CGA:  14    -0.335799972357E+03   -0.12226E-04   -0.12240E-04  7904   0.622E-04 0.376E-05
CGA:  15    -0.335799975981E+03   -0.36235E-05   -0.36244E-05  7904   0.698E-04-0.269E-07
 186 F= -.33579998E+03 E0= -.33577631E+03  d E =-.404816E-03  mag=    32.0000
       N       E                     dE             d eps       ncg     rms          ort
SDA:   1    -0.335679035247E+03    0.12094E+00    0.00000E+00  7904   0.429E+01 0.000E+00
CGA:   2    -0.335720376533E+03   -0.41341E-01   -0.42100E-01  7904   0.341E+00-0.759E-01
CGA:   3    -0.335733765659E+03   -0.13389E-01   -0.13513E-01  7904   0.530E+00-0.260E-01
CGA:   4    -0.335753768893E+03   -0.20003E-01   -0.19984E-01  7904   0.840E+00 0.358E-02
CGA:   5    -0.335784400102E+03   -0.30631E-01   -0.30677E-01  7904   0.793E-01 0.132E-01
CGA:   6    -0.335790363531E+03   -0.59634E-02   -0.60503E-02  7904   0.220E+00-0.237E-02
CGA:   7    -0.335794588044E+03   -0.42245E-02   -0.42329E-02  7904   0.582E-01-0.147E-03
CGA:   8    -0.335797474253E+03   -0.28862E-02   -0.29123E-02  7904   0.486E-01-0.169E-02
CGA:   9    -0.335798289622E+03   -0.81537E-03   -0.81053E-03  7904   0.258E-01 0.184E-03
CGA:  10    -0.335799416928E+03   -0.11273E-02   -0.11256E-02  7904   0.147E-01 0.205E-03
CGA:  11    -0.335799670064E+03   -0.25314E-03   -0.25477E-03  7904   0.765E-02-0.361E-04
CGA:  12    -0.335799950905E+03   -0.28084E-03   -0.28089E-03  7904   0.573E-02 0.495E-04
CGA:  13    -0.335800225507E+03   -0.27460E-03   -0.27510E-03  7904   0.881E-02-0.344E-04
CGA:  14    -0.335800365615E+03   -0.14011E-03   -0.14021E-03  7904   0.104E-02-0.181E-05
CGA:  15    -0.335800420287E+03   -0.54672E-04   -0.54508E-04  7904   0.273E-02 0.952E-05
CGA:  16    -0.335800486325E+03   -0.66039E-04   -0.66155E-04  7904   0.869E-03 0.630E-05
CGA:  17    -0.335800526091E+03   -0.39766E-04   -0.39802E-04  7904   0.881E-03-0.265E-05
CGA:  18    -0.335800540372E+03   -0.14281E-04   -0.14303E-04  7904   0.320E-03 0.920E-06
CGA:  19    -0.335800560982E+03   -0.20610E-04   -0.20543E-04  7904   0.431E-03 0.234E-05
CGA:  20    -0.335800569830E+03   -0.88478E-05   -0.88411E-05  7904   0.247E-03-0.826E-07
 187 F= -.33580057E+03 E0= -.33577687E+03  d E =-.593849E-03  mag=    32.0000
       N       E                     dE             d eps       ncg     rms          ort
SDA:   1    -0.335769083993E+03    0.31477E-01    0.00000E+00  7904   0.574E+00 0.000E+00
CGA:   2    -0.335774856236E+03   -0.57722E-02   -0.55873E-02  7904   0.829E-01 0.153E-01
CGA:   3    -0.335785626625E+03   -0.10770E-01   -0.11281E-01  7904   0.330E+00-0.670E-02
CGA:   4    -0.335790172930E+03   -0.45463E-02   -0.46267E-02  7904   0.932E-01-0.360E-02
CGA:   5    -0.335793280793E+03   -0.31079E-02   -0.31086E-02  7904   0.137E+00 0.504E-04
CGA:   6    -0.335796128000E+03   -0.28472E-02   -0.28596E-02  7904   0.580E-01-0.187E-03
CGA:   7    -0.335797633449E+03   -0.15054E-02   -0.15259E-02  7904   0.366E-01 0.161E-03
CGA:   8    -0.335798196392E+03   -0.56294E-03   -0.56569E-03  7904   0.167E-01-0.117E-03
CGA:   9    -0.335799701757E+03   -0.15054E-02   -0.15112E-02  7904   0.290E-01-0.115E-03
CGA:  10    -0.335800043801E+03   -0.34204E-03   -0.34124E-03  7904   0.296E-02 0.317E-04
CGA:  11    -0.335800139056E+03   -0.95255E-04   -0.95246E-04  7904   0.449E-02-0.144E-05
CGA:  12    -0.335800265598E+03   -0.12654E-03   -0.12674E-03  7904   0.347E-02 0.590E-05
CGA:  13    -0.335800418430E+03   -0.15283E-03   -0.15295E-03  7904   0.220E-02-0.111E-04
CGA:  14    -0.335800446937E+03   -0.28507E-04   -0.28388E-04  7904   0.649E-03 0.103E-05
CGA:  15    -0.335800478153E+03   -0.31216E-04   -0.31227E-04  7904   0.821E-03-0.131E-05
CGA:  16    -0.335800495949E+03   -0.17796E-04   -0.17760E-04  7904   0.651E-03-0.265E-05
CGA:  17    -0.335800523943E+03   -0.27994E-04   -0.28074E-04  7904   0.380E-03-0.100E-04
CGA:  18    -0.335800529371E+03   -0.54283E-05   -0.54061E-05  7904   0.182E-03-0.769E-06
CGA:  19    -0.335800540275E+03   -0.10904E-04   -0.10868E-04  7904   0.227E-03 0.140E-05
CGA:  20    -0.335800545326E+03   -0.50515E-05   -0.50596E-05  7904   0.167E-03 0.526E-06
 188 F= -.33580055E+03 E0= -.33577686E+03  d E =0.245035E-04  mag=    32.0000
