       N       E                     dE             d eps       ncg     rms          rms(c)
DAV:   1     0.834888160090E+04    0.83489E+04   -0.33063E+05 32928   0.163E+03
DAV:   2     0.638170845945E+03   -0.77107E+04   -0.71415E+04 31960   0.488E+02
DAV:   3    -0.415810087295E+03   -0.10540E+04   -0.10274E+04 32896   0.195E+02
DAV:   4    -0.467266172462E+03   -0.51456E+02   -0.50684E+02 39320   0.393E+01
DAV:   5    -0.469571920801E+03   -0.23057E+01   -0.22511E+01 49688   0.645E+00    0.774E+01
DAV:   6    -0.434159957652E+03    0.35412E+02   -0.34851E+02 37760   0.399E+01    0.632E+01
DAV:   7    -0.435222655876E+03   -0.10627E+01   -0.32946E+01 32800   0.168E+01    0.421E+01
DAV:   8    -0.434873610010E+03    0.34905E+00   -0.47186E+00 40208   0.685E+00    0.274E+01
DAV:   9    -0.434898172814E+03   -0.24563E-01   -0.19577E+00 34248   0.435E+00    0.140E+01
DAV:  10    -0.434913426491E+03   -0.15254E-01   -0.27683E+00 38072   0.459E+00    0.810E+00
DAV:  11    -0.434934418382E+03   -0.20992E-01   -0.27685E-01 34912   0.198E+00    0.276E+00
DAV:  12    -0.434918528758E+03    0.15890E-01   -0.62578E-02 38664   0.968E-01    0.147E+00
DAV:  13    -0.434917679815E+03    0.84894E-03   -0.31522E-02 42424   0.647E-01    0.104E+00
DAV:  14    -0.434921699931E+03   -0.40201E-02   -0.12990E-02 34200   0.357E-01    0.845E-01
DAV:  15    -0.434923880851E+03   -0.21809E-02   -0.49972E-03 34992   0.232E-01    0.358E-01
DAV:  16    -0.434925597060E+03   -0.17162E-02   -0.25458E-03 35872   0.150E-01    0.340E-01
DAV:  17    -0.434926414491E+03   -0.81743E-03   -0.14493E-03 33240   0.116E-01    0.163E-01
DAV:  18    -0.434926602353E+03   -0.18786E-03   -0.48603E-04 35856   0.653E-02    0.744E-02
DAV:  19    -0.434926628721E+03   -0.26368E-04   -0.17440E-04 35144   0.392E-02    0.536E-02
DAV:  20    -0.434926632006E+03   -0.32855E-05   -0.54855E-05 30568   0.240E-02
   1 F= -.43492663E+03 E0= -.43491638E+03  d E =-.434927E+03  mag=    77.9994
       N       E                     dE             d eps       ncg     rms          rms(c)
DAV:   1    -0.434987345869E+03   -0.60717E-01   -0.45469E-02 34216   0.329E-01    0.540E-02
DAV:   2    -0.434987498688E+03   -0.15282E-03   -0.16863E-03 32096   0.616E-02    0.561E-02
DAV:   3    -0.434987497863E+03    0.82518E-06   -0.72775E-05 30168   0.226E-02    0.446E-02
DAV:   4    -0.434987493850E+03    0.40128E-05   -0.89992E-06 20840   0.111E-02
   2 F= -.43498749E+03 E0= -.43497725E+03  d E =-.608618E-01  mag=    77.9998
       N       E                     dE             d eps       ncg     rms          rms(c)
DAV:   1    -0.437045362202E+03   -0.20579E+01   -0.15419E+02 34176   0.192E+01    0.310E+00
DAV:   2    -0.437770572123E+03   -0.72521E+00   -0.77295E+00 33848   0.357E+00    0.254E+00
DAV:   3    -0.437755387481E+03    0.15185E-01   -0.18546E-01 40536   0.882E-01    0.181E+00
DAV:   4    -0.437745751646E+03    0.96358E-02   -0.38523E-02 41256   0.503E-01    0.142E+00
DAV:   5    -0.437734679491E+03    0.11072E-01   -0.22655E-02 37408   0.495E-01    0.123E+00
DAV:   6    -0.437732493010E+03    0.21865E-02   -0.13970E-02 39968   0.370E-01    0.471E-01
DAV:   7    -0.437732461830E+03    0.31180E-04   -0.61408E-03 37704   0.202E-01    0.374E-01
DAV:   8    -0.437732213284E+03    0.24855E-03   -0.18259E-03 38424   0.123E-01    0.130E-01
DAV:   9    -0.437732227575E+03   -0.14291E-04   -0.33218E-04 36032   0.561E-02    0.107E-01
DAV:  10    -0.437732217470E+03    0.10105E-04   -0.64998E-05 31920   0.292E-02    0.498E-02
DAV:  11    -0.437732212484E+03    0.49859E-05   -0.40807E-05 27488   0.197E-02
   3 F= -.43773221E+03 E0= -.43772202E+03  d E =-.274472E+01  mag=    78.0000
       N       E                     dE             d eps       ncg     rms          rms(c)
DAV:   1    -0.437124446826E+03    0.60777E+00   -0.37520E+02 35168   0.378E+01    0.715E+00
DAV:   2    -0.440038115933E+03   -0.29137E+01   -0.30002E+01 33688   0.785E+00    0.849E+00
DAV:   3    -0.439976565672E+03    0.61550E-01   -0.89191E-01 38144   0.267E+00    0.340E+00
DAV:   4    -0.439937860089E+03    0.38706E-01   -0.14990E-01 39120   0.925E-01    0.207E+00
DAV:   5    -0.439924309047E+03    0.13551E-01   -0.65552E-02 39024   0.678E-01    0.209E+00
DAV:   6    -0.439908508879E+03    0.15800E-01   -0.33546E-02 37608   0.564E-01    0.149E+00
DAV:   7    -0.439903365969E+03    0.51429E-02   -0.26755E-02 41112   0.462E-01    0.482E-01
DAV:   8    -0.439903064462E+03    0.30151E-03   -0.77196E-03 40000   0.225E-01    0.340E-01
DAV:   9    -0.439903116442E+03   -0.51980E-04   -0.15759E-03 37656   0.109E-01    0.197E-01
DAV:  10    -0.439903105376E+03    0.11066E-04   -0.37840E-04 40112   0.554E-02    0.997E-02
DAV:  11    -0.439903093840E+03    0.11536E-04   -0.15158E-04 32216   0.395E-02    0.798E-02
DAV:  12    -0.439903093180E+03    0.66022E-06   -0.65048E-05 28968   0.245E-02
   4 F= -.43990309E+03 E0= -.43989242E+03  d E =-.217088E+01  mag=    78.0000
       N       E                     dE             d eps       ncg     rms          rms(c)
DAV:   1    -0.438257686588E+03    0.16454E+01   -0.20017E+02 35536   0.401E+01    0.796E+00
DAV:   2    -0.440594843073E+03   -0.23372E+01   -0.22244E+01 33864   0.775E+00    0.939E+00
DAV:   3    -0.440590778135E+03    0.40649E-02   -0.93525E-01 37608   0.289E+00    0.335E+00
DAV:   4    -0.440591333947E+03   -0.55581E-03   -0.11971E-01 37112   0.880E-01    0.171E+00
DAV:   5    -0.440587636183E+03    0.36978E-02   -0.45043E-02 39664   0.513E-01    0.157E+00
DAV:   6    -0.440581973903E+03    0.56623E-02   -0.12449E-02 35624   0.346E-01    0.972E-01
DAV:   7    -0.440579347609E+03    0.26263E-02   -0.19021E-02 38664   0.368E-01    0.703E-01
DAV:   8    -0.440578770104E+03    0.57751E-03   -0.12622E-02 39304   0.271E-01    0.419E-01
DAV:   9    -0.440578763368E+03    0.67356E-05   -0.12952E-03 37208   0.114E-01    0.182E-01
DAV:  10    -0.440578772363E+03   -0.89947E-05   -0.38097E-04 39392   0.447E-02    0.744E-02
DAV:  11    -0.440578770707E+03    0.16552E-05   -0.51158E-05 28632   0.241E-02
   5 F= -.44057877E+03 E0= -.44056825E+03  d E =-.675678E+00  mag=    78.0000
       N       E                     dE             d eps       ncg     rms          rms(c)
DAV:   1    -0.437697413669E+03    0.28814E+01   -0.18583E+02 35632   0.477E+01    0.976E+00
DAV:   2    -0.440808607389E+03   -0.31112E+01   -0.28441E+01 32488   0.891E+00    0.985E+00
DAV:   3    -0.440891310986E+03   -0.82704E-01   -0.14012E+00 38536   0.330E+00    0.490E+00
DAV:   4    -0.440893922955E+03   -0.26120E-02   -0.21121E-01 38704   0.123E+00    0.199E+00
DAV:   5    -0.440890944736E+03    0.29782E-02   -0.35594E-02 35640   0.498E-01    0.160E+00
DAV:   6    -0.440887360309E+03    0.35844E-02   -0.11079E-02 35600   0.312E-01    0.102E+00
DAV:   7    -0.440885137781E+03    0.22225E-02   -0.88493E-03 37136   0.349E-01    0.892E-01
DAV:   8    -0.440884326310E+03    0.81147E-03   -0.54215E-03 36472   0.237E-01    0.313E-01
DAV:   9    -0.440884429088E+03   -0.10278E-03   -0.11140E-03 38424   0.994E-02    0.173E-01
DAV:  10    -0.440884447888E+03   -0.18800E-04   -0.27633E-04 35056   0.422E-02    0.933E-02
DAV:  11    -0.440884446876E+03    0.10114E-05   -0.48938E-05 32696   0.233E-02
   6 F= -.44088445E+03 E0= -.44087416E+03  d E =-.305676E+00  mag=    78.0000
       N       E                     dE             d eps       ncg     rms          rms(c)
DAV:   1    -0.439707691783E+03    0.11768E+01   -0.11831E+02 34952   0.359E+01    0.560E+00
DAV:   2    -0.440979165670E+03   -0.12715E+01   -0.11832E+01 31664   0.645E+00    0.354E+00
DAV:   3    -0.441024896960E+03   -0.45731E-01   -0.41870E-01 39136   0.151E+00    0.248E+00
DAV:   4    -0.441020778684E+03    0.41183E-02   -0.64659E-02 39920   0.681E-01    0.119E+00
DAV:   5    -0.441018429005E+03    0.23497E-02   -0.81507E-03 36160   0.272E-01    0.831E-01
DAV:   6    -0.441016151482E+03    0.22775E-02   -0.29560E-03 36552   0.204E-01    0.549E-01
DAV:   7    -0.441014847466E+03    0.13040E-02   -0.39878E-03 37128   0.237E-01    0.339E-01
DAV:   8    -0.441014900734E+03   -0.53268E-04   -0.27085E-03 36088   0.137E-01    0.205E-01
DAV:   9    -0.441014898209E+03    0.25249E-05   -0.37060E-04 35960   0.567E-02    0.644E-02
DAV:  10    -0.441014899386E+03   -0.11775E-05   -0.67856E-05 32088   0.237E-02
   7 F= -.44101490E+03 E0= -.44100470E+03  d E =-.130453E+00  mag=    78.0000
       N       E                     dE             d eps       ncg     rms          rms(c)
DAV:   1    -0.439262967311E+03    0.17519E+01   -0.28750E+02 34648   0.474E+01    0.613E+00
DAV:   2    -0.441141083642E+03   -0.18781E+01   -0.18190E+01 31744   0.838E+00    0.395E+00
DAV:   3    -0.441174191718E+03   -0.33108E-01   -0.54792E-01 37720   0.184E+00    0.292E+00
DAV:   4    -0.441165031695E+03    0.91600E-02   -0.81891E-02 41280   0.783E-01    0.132E+00
DAV:   5    -0.441158827113E+03    0.62046E-02   -0.15030E-02 35784   0.370E-01    0.110E+00
DAV:   6    -0.441155005062E+03    0.38221E-02   -0.11231E-02 36992   0.333E-01    0.789E-01
DAV:   7    -0.441152760218E+03    0.22448E-02   -0.74827E-03 35744   0.300E-01    0.484E-01
DAV:   8    -0.441152655394E+03    0.10482E-03   -0.36353E-03 37584   0.174E-01    0.152E-01
DAV:   9    -0.441152712336E+03   -0.56942E-04   -0.63025E-04 35192   0.579E-02    0.123E-01
DAV:  10    -0.441152700882E+03    0.11454E-04   -0.20598E-04 35224   0.391E-02    0.453E-02
DAV:  11    -0.441152695890E+03    0.49913E-05   -0.47625E-05 31712   0.243E-02
   8 F= -.44115270E+03 E0= -.44114300E+03  d E =-.137797E+00  mag=    78.0000
       N       E                     dE             d eps       ncg     rms          rms(c)
DAV:   1    -0.438599648303E+03    0.25531E+01   -0.37584E+02 34400   0.518E+01    0.713E+00
DAV:   2    -0.441205469632E+03   -0.26058E+01   -0.25279E+01 32576   0.928E+00    0.495E+00
DAV:   3    -0.441238211608E+03   -0.32742E-01   -0.73934E-01 39272   0.204E+00    0.405E+00
DAV:   4    -0.441220560930E+03    0.17651E-01   -0.20341E-01 38544   0.104E+00    0.175E+00
DAV:   5    -0.441208143758E+03    0.12417E-01   -0.27801E-02 35648   0.474E-01    0.115E+00
DAV:   6    -0.441199261719E+03    0.88820E-02   -0.19783E-02 36328   0.428E-01    0.830E-01
DAV:   7    -0.441197219601E+03    0.20421E-02   -0.11854E-02 37144   0.316E-01    0.501E-01
DAV:   8    -0.441197107422E+03    0.11218E-03   -0.48516E-03 38848   0.181E-01    0.241E-01
DAV:   9    -0.441197077147E+03    0.30274E-04   -0.72313E-04 35840   0.734E-02    0.884E-02
DAV:  10    -0.441197068557E+03    0.85900E-05   -0.18195E-04 37680   0.336E-02    0.516E-02
DAV:  11    -0.441197056539E+03    0.12019E-04   -0.48700E-05 32432   0.220E-02    0.338E-02
DAV:  12    -0.441197050099E+03    0.64393E-05   -0.20638E-05 26120   0.175E-02
   9 F= -.44119705E+03 E0= -.44118822E+03  d E =-.443542E-01  mag=    78.0000
       N       E                     dE             d eps       ncg     rms          rms(c)
DAV:   1    -0.440240660466E+03    0.95640E+00   -0.80057E+01 35968   0.302E+01    0.530E+00
DAV:   2    -0.441256440395E+03   -0.10158E+01   -0.93078E+00 33208   0.530E+00    0.462E+00
DAV:   3    -0.441293459851E+03   -0.37019E-01   -0.56111E-01 39536   0.184E+00    0.330E+00
DAV:   4    -0.441287807129E+03    0.56527E-02   -0.10057E-01 37848   0.795E-01    0.941E-01
DAV:   5    -0.441285985537E+03    0.18216E-02   -0.88289E-03 36360   0.243E-01    0.742E-01
DAV:   6    -0.441283802499E+03    0.21830E-02   -0.46033E-03 38856   0.218E-01    0.510E-01
DAV:   7    -0.441282489428E+03    0.13131E-02   -0.36210E-03 35656   0.207E-01    0.215E-01
DAV:   8    -0.441282506568E+03   -0.17140E-04   -0.23441E-03 36368   0.118E-01    0.236E-01
DAV:   9    -0.441282474495E+03    0.32073E-04   -0.37057E-04 38224   0.557E-02    0.961E-02
DAV:  10    -0.441282462375E+03    0.12120E-04   -0.14063E-04 33472   0.242E-02    0.445E-02
DAV:  11    -0.441282448069E+03    0.14307E-04   -0.73965E-05 31240   0.238E-02    0.358E-02
DAV:  12    -0.441282444127E+03    0.39413E-05   -0.13965E-05 23104   0.129E-02
  10 F= -.44128244E+03 E0= -.44127402E+03  d E =-.853940E-01  mag=    78.0000
       N       E                     dE             d eps       ncg     rms          rms(c)
DAV:   1    -0.441200678987E+03    0.81769E-01   -0.96425E+00 34976   0.951E+00    0.156E+00
DAV:   2    -0.441300940978E+03   -0.10026E+00   -0.93599E-01 32104   0.166E+00    0.982E-01
DAV:   3    -0.441305023736E+03   -0.40828E-02   -0.42844E-02 39880   0.461E-01    0.993E-01
DAV:   4    -0.441304238654E+03    0.78508E-03   -0.80344E-03 38200   0.218E-01    0.286E-01
DAV:   5    -0.441304109656E+03    0.12900E-03   -0.49060E-04 36632   0.571E-02    0.233E-01
DAV:   6    -0.441303883255E+03    0.22640E-03   -0.56572E-04 37264   0.768E-02    0.190E-01
DAV:   7    -0.441303791299E+03    0.91956E-04   -0.39894E-04 37176   0.681E-02    0.970E-02
DAV:   8    -0.441303786895E+03    0.44040E-05   -0.26021E-04 34568   0.369E-02    0.434E-02
DAV:   9    -0.441303789459E+03   -0.25641E-05   -0.25509E-05 23880   0.153E-02
  11 F= -.44130379E+03 E0= -.44129534E+03  d E =-.213453E-01  mag=    78.0000
       N       E                     dE             d eps       ncg     rms          rms(c)
DAV:   1    -0.440428892750E+03    0.87489E+00   -0.21891E+02 33688   0.341E+01    0.364E+00
DAV:   2    -0.441371645090E+03   -0.94275E+00   -0.94130E+00 31392   0.589E+00    0.255E+00
DAV:   3    -0.441372874986E+03   -0.12299E-02   -0.23642E-01 39472   0.126E+00    0.231E+00
DAV:   4    -0.441366122636E+03    0.67523E-02   -0.48218E-02 38752   0.557E-01    0.834E-01
DAV:   5    -0.441361736945E+03    0.43857E-02   -0.67435E-03 36040   0.246E-01    0.683E-01
DAV:   6    -0.441358287802E+03    0.34491E-02   -0.65735E-03 35248   0.261E-01    0.393E-01
DAV:   7    -0.441357859530E+03    0.42827E-03   -0.38490E-03 37344   0.166E-01    0.240E-01
DAV:   8    -0.441357850630E+03    0.88996E-05   -0.11234E-03 39048   0.934E-02    0.961E-02
DAV:   9    -0.441357881308E+03   -0.30678E-04   -0.14280E-04 34080   0.297E-02    0.617E-02
DAV:  10    -0.441357883957E+03   -0.26486E-05   -0.59788E-05 29488   0.189E-02
  12 F= -.44135788E+03 E0= -.44134994E+03  d E =-.540945E-01  mag=    78.0000
       N       E                     dE             d eps       ncg     rms          rms(c)
DAV:   1    -0.437945641558E+03    0.34122E+01   -0.38813E+02 34792   0.582E+01    0.853E+00
DAV:   2    -0.441269199898E+03   -0.33236E+01   -0.31677E+01 32688   0.105E+01    0.505E+00
DAV:   3    -0.441330824891E+03   -0.61625E-01   -0.80282E-01 37376   0.211E+00    0.282E+00
DAV:   4    -0.441319571444E+03    0.11253E-01   -0.11825E-01 36928   0.837E-01    0.169E+00
DAV:   5    -0.441307591698E+03    0.11980E-01   -0.24252E-02 37016   0.470E-01    0.113E+00
DAV:   6    -0.441300968593E+03    0.66231E-02   -0.18834E-02 35984   0.450E-01    0.105E+00
DAV:   7    -0.441298891269E+03    0.20773E-02   -0.88084E-03 37736   0.295E-01    0.324E-01
DAV:   8    -0.441298937635E+03   -0.46366E-04   -0.25731E-03 37752   0.123E-01    0.149E-01
DAV:   9    -0.441298956163E+03   -0.18529E-04   -0.43531E-04 37728   0.561E-02    0.886E-02
DAV:  10    -0.441298951591E+03    0.45722E-05   -0.90107E-05 36104   0.225E-02
  13 F= -.44129895E+03 E0= -.44129151E+03  d E =0.589324E-01  mag=    78.0000
       N       E                     dE             d eps       ncg     rms          rms(c)
DAV:   1    -0.439550073623E+03    0.17489E+01   -0.92628E+01 36432   0.388E+01    0.780E+00
DAV:   2    -0.441367375392E+03   -0.18173E+01   -0.16782E+01 32984   0.717E+00    0.920E+00
DAV:   3    -0.441404522201E+03   -0.37147E-01   -0.92333E-01 36632   0.268E+00    0.268E+00
DAV:   4    -0.441415732733E+03   -0.11211E-01   -0.91846E-02 38688   0.755E-01    0.144E+00
DAV:   5    -0.441414534831E+03    0.11979E-02   -0.26788E-02 36968   0.447E-01    0.119E+00
DAV:   6    -0.441411625854E+03    0.29090E-02   -0.66056E-03 36776   0.268E-01    0.658E-01
DAV:   7    -0.441410520071E+03    0.11058E-02   -0.54482E-03 35904   0.263E-01    0.561E-01
DAV:   8    -0.441410381736E+03    0.13834E-03   -0.31251E-03 40864   0.164E-01    0.129E-01
DAV:   9    -0.441410413121E+03   -0.31385E-04   -0.61508E-04 36464   0.716E-02    0.108E-01
DAV:  10    -0.441410403872E+03    0.92493E-05   -0.10122E-04 34584   0.284E-02    0.492E-02
DAV:  11    -0.441410397479E+03    0.63929E-05   -0.28016E-05 28832   0.150E-02
  14 F= -.44141040E+03 E0= -.44140325E+03  d E =-.111446E+00  mag=    78.0000
       N       E                     dE             d eps       ncg     rms          rms(c)
DAV:   1    -0.441383567693E+03    0.26836E-01   -0.36024E+00 34840   0.595E+00    0.996E-01
DAV:   2    -0.441422902013E+03   -0.39334E-01   -0.36792E-01 33216   0.103E+00    0.471E-01
DAV:   3    -0.441424326477E+03   -0.14245E-02   -0.11721E-02 39520   0.212E-01    0.303E-01
DAV:   4    -0.441424253908E+03    0.72569E-04   -0.11745E-03 37872   0.750E-02    0.185E-01
DAV:   5    -0.441424129219E+03    0.12469E-03   -0.12783E-04 35904   0.363E-02    0.140E-01
DAV:   6    -0.441423979645E+03    0.14957E-03   -0.23055E-04 36664   0.580E-02    0.730E-02
DAV:   7    -0.441423977720E+03    0.19257E-05   -0.15233E-04 36328   0.310E-02    0.223E-02
DAV:   8    -0.441423979211E+03   -0.14909E-05   -0.32256E-05 29120   0.138E-02
  15 F= -.44142398E+03 E0= -.44141683E+03  d E =-.135817E-01  mag=    78.0000
       N       E                     dE             d eps       ncg     rms          rms(c)
DAV:   1    -0.441347461568E+03    0.76516E-01   -0.13198E+01 34336   0.979E+00    0.133E+00
DAV:   2    -0.441433527727E+03   -0.86066E-01   -0.82566E-01 33072   0.170E+00    0.700E-01
DAV:   3    -0.441435721265E+03   -0.21935E-02   -0.25585E-02 40544   0.354E-01    0.596E-01
DAV:   4    -0.441435376449E+03    0.34482E-03   -0.34500E-03 37912   0.142E-01    0.256E-01
DAV:   5    -0.441435008868E+03    0.36758E-03   -0.32181E-04 36976   0.579E-02    0.189E-01
DAV:   6    -0.441434672618E+03    0.33625E-03   -0.66652E-04 37328   0.911E-02    0.130E-01
DAV:   7    -0.441434659710E+03    0.12908E-04   -0.45940E-04 38144   0.533E-02    0.309E-02
DAV:   8    -0.441434664516E+03   -0.48066E-05   -0.71650E-05 33152   0.202E-02
  16 F= -.44143466E+03 E0= -.44142751E+03  d E =-.106853E-01  mag=    78.0000
       N       E                     dE             d eps       ncg     rms          rms(c)
DAV:   1    -0.441398810005E+03    0.35850E-01   -0.12723E+01 32968   0.779E+00    0.783E-01
DAV:   2    -0.441443942381E+03   -0.45132E-01   -0.44687E-01 31792   0.129E+00    0.420E-01
DAV:   3    -0.441444268159E+03   -0.32578E-03   -0.80225E-03 37424   0.206E-01    0.277E-01
DAV:   4    -0.441444086953E+03    0.18121E-03   -0.10562E-03 39176   0.823E-02    0.189E-01
DAV:   5    -0.441443858977E+03    0.22798E-03   -0.32938E-04 34728   0.559E-02    0.131E-01
DAV:   6    -0.441443739479E+03    0.11950E-03   -0.36579E-04 35760   0.586E-02    0.768E-02
DAV:   7    -0.441443743684E+03   -0.42054E-05   -0.16471E-04 35680   0.321E-02    0.288E-02
DAV:   8    -0.441443745475E+03   -0.17912E-05   -0.20794E-05 23936   0.129E-02
  17 F= -.44144375E+03 E0= -.44143667E+03  d E =-.908096E-02  mag=    78.0000
       N       E                     dE             d eps       ncg     rms          rms(c)
DAV:   1    -0.436667394430E+03    0.47763E+01   -0.35791E+02 35232   0.584E+01    0.126E+01
DAV:   2    -0.441244600043E+03   -0.45772E+01   -0.43462E+01 33744   0.115E+01    0.129E+01
DAV:   3    -0.441313979042E+03   -0.69379E-01   -0.19018E+00 34688   0.346E+00    0.431E+00
DAV:   4    -0.441297663768E+03    0.16315E-01   -0.20452E-01 41336   0.122E+00    0.272E+00
DAV:   5    -0.441296876008E+03    0.78776E-03   -0.94300E-02 35080   0.881E-01    0.246E+00
DAV:   6    -0.441284202133E+03    0.12674E-01   -0.18948E-02 35808   0.448E-01    0.148E+00
DAV:   7    -0.441278266232E+03    0.59359E-02   -0.12950E-02 36864   0.413E-01    0.972E-01
DAV:   8    -0.441277239539E+03    0.10267E-02   -0.12094E-02 38080   0.310E-01    0.256E-01
DAV:   9    -0.441277370468E+03   -0.13093E-03   -0.37766E-03 35944   0.160E-01    0.262E-01
DAV:  10    -0.441277313149E+03    0.57319E-04   -0.44944E-04 35784   0.611E-02    0.120E-01
DAV:  11    -0.441277280515E+03    0.32634E-04   -0.17217E-04 35960   0.343E-02    0.509E-02
DAV:  12    -0.441277272705E+03    0.78098E-05   -0.46999E-05 29592   0.217E-02
  18 F= -.44127727E+03 E0= -.44127101E+03  d E =0.166473E+00  mag=    78.0000
       N       E                     dE             d eps       ncg     rms          rms(c)
DAV:   1    -0.438044600890E+03    0.32327E+01   -0.12137E+02 37192   0.448E+01    0.116E+01
DAV:   2    -0.441400349309E+03   -0.33557E+01   -0.30358E+01 32264   0.884E+00    0.110E+01
DAV:   3    -0.441491542763E+03   -0.91193E-01   -0.15100E+00 36568   0.333E+00    0.408E+00
DAV:   4    -0.441503665527E+03   -0.12123E-01   -0.13664E-01 36504   0.975E-01    0.213E+00
DAV:   5    -0.441500478365E+03    0.31872E-02   -0.18550E-02 38080   0.379E-01    0.165E+00
DAV:   6    -0.441494188977E+03    0.62894E-02   -0.70532E-03 37592   0.298E-01    0.108E+00
DAV:   7    -0.441490822099E+03    0.33669E-02   -0.84211E-03 37048   0.371E-01    0.602E-01
DAV:   8    -0.441490821086E+03    0.10129E-05   -0.48699E-03 38592   0.209E-01    0.217E-01
DAV:   9    -0.441490830263E+03   -0.91774E-05   -0.82502E-04 36032   0.806E-02    0.992E-02
DAV:  10    -0.441490780096E+03    0.50167E-04   -0.12942E-04 37144   0.360E-02    0.680E-02
DAV:  11    -0.441490754293E+03    0.25803E-04   -0.64245E-05 33896   0.252E-02    0.333E-02
DAV:  12    -0.441490748397E+03    0.58961E-05   -0.19302E-05 25784   0.169E-02
  19 F= -.44149075E+03 E0= -.44148406E+03  d E =-.213476E+00  mag=    78.0000
       N       E                     dE             d eps       ncg     rms          rms(c)
DAV:   1    -0.441405667232E+03    0.85087E-01   -0.24450E+00 41440   0.743E+00    0.165E+00
DAV:   2    -0.441491372147E+03   -0.85705E-01   -0.75504E-01 32200   0.126E+00    0.981E-01
DAV:   3    -0.441496123278E+03   -0.47511E-02   -0.32568E-02 35120   0.397E-01    0.685E-01
DAV:   4    -0.441495996762E+03    0.12652E-03   -0.47784E-03 35992   0.176E-01    0.276E-01
DAV:   5    -0.441495920278E+03    0.76484E-04   -0.36478E-04 35160   0.490E-02    0.197E-01
DAV:   6    -0.441495788215E+03    0.13206E-03   -0.29507E-04 36144   0.598E-02    0.124E-01
DAV:   7    -0.441495750190E+03    0.38024E-04   -0.17686E-04 35112   0.505E-02    0.542E-02
DAV:   8    -0.441495752722E+03   -0.25319E-05   -0.63560E-05 32864   0.248E-02
  20 F= -.44149575E+03 E0= -.44148921E+03  d E =-.500433E-02  mag=    78.0000
       N       E                     dE             d eps       ncg     rms          rms(c)
DAV:   1    -0.441451810137E+03    0.43940E-01   -0.26762E+00 36160   0.614E+00    0.109E+00
DAV:   2    -0.441493771260E+03   -0.41961E-01   -0.37582E-01 31944   0.104E+00    0.777E-01
DAV:   3    -0.441495890633E+03   -0.21194E-02   -0.20080E-02 39080   0.339E-01    0.599E-01
DAV:   4    -0.441495726557E+03    0.16408E-03   -0.31246E-03 37280   0.147E-01    0.181E-01
DAV:   5    -0.441495682304E+03    0.44253E-04   -0.27683E-04 35504   0.406E-02    0.140E-01
DAV:   6    -0.441495610892E+03    0.71412E-04   -0.20825E-04 35784   0.502E-02    0.855E-02
DAV:   7    -0.441495597814E+03    0.13078E-04   -0.96507E-05 34896   0.337E-02    0.297E-02
DAV:   8    -0.441495599217E+03   -0.14028E-05   -0.38851E-05 29424   0.165E-02
  21 F= -.44149560E+03 E0= -.44148915E+03  d E =0.153505E-03  mag=    78.0000
       N       E                     dE             d eps       ncg     rms          rms(c)
DAV:   1    -0.441468140327E+03    0.27457E-01   -0.34643E+00 34792   0.527E+00    0.750E-01
DAV:   2    -0.441493449473E+03   -0.25309E-01   -0.24000E-01 32616   0.906E-01    0.513E-01
DAV:   3    -0.441494278533E+03   -0.82906E-03   -0.99736E-03 40320   0.246E-01    0.436E-01
DAV:   4    -0.441494118679E+03    0.15985E-03   -0.14390E-03 37448   0.101E-01    0.134E-01
DAV:   5    -0.441494038818E+03    0.79861E-04   -0.16424E-04 36792   0.329E-02    0.107E-01
DAV:   6    -0.441493963702E+03    0.75116E-04   -0.17371E-04 35376   0.470E-02    0.716E-02
DAV:   7    -0.441493956733E+03    0.69698E-05   -0.88776E-05 36576   0.264E-02
  22 F= -.44149396E+03 E0= -.44148755E+03  d E =0.164248E-02  mag=    78.0000
       N       E                     dE             d eps       ncg     rms          rms(c)
DAV:   1    -0.441456098349E+03    0.37865E-01   -0.51265E+00 34024   0.624E+00    0.800E-01
DAV:   2    -0.441488098320E+03   -0.32000E-01   -0.30737E-01 31912   0.108E+00    0.401E-01
DAV:   3    -0.441488942691E+03   -0.84437E-03   -0.82548E-03 39680   0.200E-01    0.282E-01
DAV:   4    -0.441488851857E+03    0.90834E-04   -0.89289E-04 38088   0.744E-02    0.154E-01
DAV:   5    -0.441488727036E+03    0.12482E-03   -0.11520E-04 36824   0.373E-02    0.107E-01
DAV:   6    -0.441488627443E+03    0.99593E-04   -0.20475E-04 37184   0.534E-02    0.548E-02
DAV:   7    -0.441488633826E+03   -0.63827E-05   -0.10808E-04 36264   0.247E-02    0.215E-02
DAV:   8    -0.441488634070E+03   -0.24453E-06   -0.10188E-05 19640   0.987E-03
  23 F= -.44148863E+03 E0= -.44148228E+03  d E =0.532266E-02  mag=    78.0000
       N       E                     dE             d eps       ncg     rms          rms(c)
DAV:   1    -0.441394496981E+03    0.94137E-01   -0.23546E+01 33240   0.110E+01    0.120E+00
DAV:   2    -0.441487423280E+03   -0.92926E-01   -0.91855E-01 31312   0.187E+00    0.645E-01
DAV:   3    -0.441488406199E+03   -0.98292E-03   -0.17163E-02 37976   0.307E-01    0.367E-01
DAV:   4    -0.441488015375E+03    0.39082E-03   -0.15487E-03 38624   0.969E-02    0.241E-01
DAV:   5    -0.441487485074E+03    0.53030E-03   -0.50189E-04 37496   0.787E-02    0.145E-01
DAV:   6    -0.441487357331E+03    0.12774E-03   -0.66426E-04 37144   0.764E-02    0.106E-01
DAV:   7    -0.441487371629E+03   -0.14298E-04   -0.24766E-04 35984   0.390E-02    0.406E-02
DAV:   8    -0.441487372215E+03   -0.58618E-06   -0.24146E-05 23448   0.154E-02
  24 F= -.44148737E+03 E0= -.44148106E+03  d E =0.126186E-02  mag=    78.0000
       N       E                     dE             d eps       ncg     rms          rms(c)
DAV:   1    -0.438012453142E+03    0.34749E+01   -0.39432E+02 34352   0.556E+01    0.929E+00
DAV:   2    -0.441412005958E+03   -0.33996E+01   -0.32630E+01 33304   0.102E+01    0.680E+00
DAV:   3    -0.441464382188E+03   -0.52376E-01   -0.85308E-01 37112   0.229E+00    0.341E+00
DAV:   4    -0.441451842535E+03    0.12540E-01   -0.13649E-01 36544   0.948E-01    0.208E+00
DAV:   5    -0.441439207262E+03    0.12635E-01   -0.25777E-02 36992   0.464E-01    0.148E+00
DAV:   6    -0.441429745923E+03    0.94613E-02   -0.12990E-02 37392   0.405E-01    0.920E-01
DAV:   7    -0.441426292629E+03    0.34533E-02   -0.10832E-02 37952   0.350E-01    0.445E-01
DAV:   8    -0.441426353547E+03   -0.60918E-04   -0.46858E-03 37512   0.181E-01    0.190E-01
DAV:   9    -0.441426332289E+03    0.21259E-04   -0.61918E-04 37112   0.673E-02    0.872E-02
DAV:  10    -0.441426306797E+03    0.25491E-04   -0.14332E-04 38336   0.337E-02    0.565E-02
DAV:  11    -0.441426287273E+03    0.19524E-04   -0.58303E-05 32808   0.275E-02    0.380E-02
DAV:  12    -0.441426282384E+03    0.48895E-05   -0.24059E-05 28280   0.192E-02
  25 F= -.44142628E+03 E0= -.44142014E+03  d E =0.610898E-01  mag=    78.0000
       N       E                     dE             d eps       ncg     rms          rms(c)
DAV:   1    -0.439577274811E+03    0.18490E+01   -0.11721E+02 35568   0.372E+01    0.815E+00
DAV:   2    -0.441518044950E+03   -0.19408E+01   -0.17892E+01 32824   0.716E+00    0.717E+00
DAV:   3    -0.441571164703E+03   -0.53120E-01   -0.84893E-01 37624   0.248E+00    0.343E+00
DAV:   4    -0.441569795741E+03    0.13690E-02   -0.94113E-02 37832   0.855E-01    0.171E+00
DAV:   5    -0.441566496674E+03    0.32991E-02   -0.11893E-02 36104   0.286E-01    0.129E+00
DAV:   6    -0.441561739075E+03    0.47576E-02   -0.69348E-03 35720   0.304E-01    0.102E+00
DAV:   7    -0.441558864060E+03    0.28750E-02   -0.78080E-03 36992   0.318E-01    0.431E-01
DAV:   8    -0.441558716467E+03    0.14759E-03   -0.42116E-03 38664   0.200E-01    0.255E-01
DAV:   9    -0.441558752006E+03   -0.35539E-04   -0.10044E-03 35392   0.885E-02    0.111E-01
DAV:  10    -0.441558720877E+03    0.31129E-04   -0.12619E-04 38032   0.348E-02    0.560E-02
DAV:  11    -0.441558699760E+03    0.21117E-04   -0.74183E-05 33984   0.258E-02    0.512E-02
DAV:  12    -0.441558692878E+03    0.68811E-05   -0.34986E-05 26032   0.207E-02
  26 F= -.44155869E+03 E0= -.44155214E+03  d E =-.132410E+00  mag=    78.0000
       N       E                     dE             d eps       ncg     rms          rms(c)
DAV:   1    -0.441508771292E+03    0.49928E-01   -0.48217E+00 35136   0.720E+00    0.117E+00
DAV:   2    -0.441562906996E+03   -0.54136E-01   -0.49528E-01 32128   0.125E+00    0.710E-01
DAV:   3    -0.441564968212E+03   -0.20612E-02   -0.18331E-02 38480   0.322E-01    0.532E-01
DAV:   4    -0.441564805035E+03    0.16318E-03   -0.23592E-03 37680   0.135E-01    0.226E-01
DAV:   5    -0.441564656115E+03    0.14892E-03   -0.27961E-04 37016   0.455E-02    0.165E-01
DAV:   6    -0.441564528671E+03    0.12744E-03   -0.33590E-04 35792   0.695E-02    0.112E-01
DAV:   7    -0.441564529328E+03   -0.65702E-06   -0.17042E-04 35936   0.393E-02    0.337E-02
DAV:   8    -0.441564529691E+03   -0.36301E-06   -0.34992E-05 27696   0.166E-02
  27 F= -.44156453E+03 E0= -.44155809E+03  d E =-.583681E-02  mag=    78.0000
       N       E                     dE             d eps       ncg     rms          rms(c)
DAV:   1    -0.441325577089E+03    0.23895E+00   -0.17039E+01 34992   0.142E+01    0.237E+00
DAV:   2    -0.441541696445E+03   -0.21612E+00   -0.19950E+00 31960   0.252E+00    0.174E+00
DAV:   3    -0.441549180581E+03   -0.74841E-02   -0.78852E-02 38976   0.720E-01    0.116E+00
DAV:   4    -0.441548561953E+03    0.61863E-03   -0.10925E-02 37064   0.300E-01    0.452E-01
DAV:   5    -0.441548124403E+03    0.43755E-03   -0.13893E-03 37536   0.998E-02    0.338E-01
DAV:   6    -0.441547662309E+03    0.46209E-03   -0.10365E-03 36664   0.120E-01    0.204E-01
DAV:   7    -0.441547627969E+03    0.34340E-04   -0.53994E-04 37256   0.748E-02    0.730E-02
DAV:   8    -0.441547634262E+03   -0.62933E-05   -0.17794E-04 35424   0.372E-02    0.525E-02
DAV:   9    -0.441547632604E+03    0.16587E-05   -0.30139E-05 25496   0.175E-02
  28 F= -.44154763E+03 E0= -.44154143E+03  d E =0.168971E-01  mag=    78.0000
       N       E                     dE             d eps       ncg     rms          rms(c)
DAV:   1    -0.441541516051E+03    0.61182E-02   -0.44185E-01 33960   0.201E+00    0.283E-01
DAV:   2    -0.441545040938E+03   -0.35249E-02   -0.33625E-02 32064   0.359E-01    0.146E-01
DAV:   3    -0.441545137690E+03   -0.96752E-04   -0.88459E-04 38800   0.695E-02    0.843E-02
DAV:   4    -0.441545128895E+03    0.87951E-05   -0.67099E-05 31984   0.198E-02
  29 F= -.44154513E+03 E0= -.44153889E+03  d E =0.250371E-02  mag=    78.0000
       N       E                     dE             d eps       ncg     rms          rms(c)
DAV:   1    -0.441533664241E+03    0.11473E-01   -0.22608E+00 33176   0.384E+00    0.410E-01
DAV:   2    -0.441543809533E+03   -0.10145E-01   -0.99967E-02 31448   0.662E-01    0.244E-01
DAV:   3    -0.441543951796E+03   -0.14226E-03   -0.22124E-03 39040   0.120E-01    0.151E-01
DAV:   4    -0.441543902305E+03    0.49491E-04   -0.21293E-04 39200   0.391E-02    0.984E-02
DAV:   5    -0.441543829647E+03    0.72658E-04   -0.86438E-05 33984   0.355E-02    0.731E-02
DAV:   6    -0.441543809762E+03    0.19885E-04   -0.10763E-04 34528   0.353E-02    0.409E-02
DAV:   7    -0.441543811793E+03   -0.20305E-05   -0.37646E-05 29144   0.187E-02
  30 F= -.44154381E+03 E0= -.44153750E+03  d E =0.131710E-02  mag=    78.0000
       N       E                     dE             d eps       ncg     rms          rms(c)
DAV:   1    -0.441499979830E+03    0.43830E-01   -0.90280E+00 33792   0.811E+00    0.971E-01
DAV:   2    -0.441549563526E+03   -0.49584E-01   -0.47800E-01 31096   0.141E+00    0.525E-01
DAV:   3    -0.441550808450E+03   -0.12449E-02   -0.11873E-02 36272   0.271E-01    0.334E-01
DAV:   4    -0.441550691117E+03    0.11733E-03   -0.12216E-03 39176   0.946E-02    0.184E-01
DAV:   5    -0.441550528569E+03    0.16255E-03   -0.19396E-04 36072   0.454E-02    0.135E-01
DAV:   6    -0.441550403304E+03    0.12526E-03   -0.22607E-04 36264   0.576E-02    0.837E-02
DAV:   7    -0.441550400383E+03    0.29216E-05   -0.14868E-04 35984   0.373E-02    0.356E-02
DAV:   8    -0.441550403103E+03   -0.27197E-05   -0.30723E-05 24392   0.171E-02
  31 F= -.44155040E+03 E0= -.44154408E+03  d E =-.659131E-02  mag=    78.0000
       N       E                     dE             d eps       ncg     rms          rms(c)
DAV:   1    -0.440198297589E+03    0.13521E+01   -0.30740E+02 33000   0.426E+01    0.459E+00
DAV:   2    -0.441591107191E+03   -0.13928E+01   -0.13990E+01 31152   0.757E+00    0.280E+00
DAV:   3    -0.441592204084E+03   -0.10969E-02   -0.25763E-01 35832   0.144E+00    0.165E+00
DAV:   4    -0.441585649869E+03    0.65542E-02   -0.41799E-02 36272   0.509E-01    0.101E+00
DAV:   5    -0.441578934154E+03    0.67157E-02   -0.94672E-03 35560   0.326E-01    0.764E-01
DAV:   6    -0.441576336471E+03    0.25977E-02   -0.84891E-03 36568   0.291E-01    0.485E-01
DAV:   7    -0.441575870613E+03    0.46586E-03   -0.39456E-03 38384   0.198E-01    0.258E-01
DAV:   8    -0.441575957419E+03   -0.86805E-04   -0.10442E-03 35016   0.935E-02    0.919E-02
DAV:   9    -0.441575981150E+03   -0.23731E-04   -0.16578E-04 35448   0.347E-02    0.644E-02
DAV:  10    -0.441575982054E+03   -0.90370E-06   -0.34602E-05 26408   0.203E-02
  32 F= -.44157598E+03 E0= -.44156936E+03  d E =-.255790E-01  mag=    78.0000
       N       E                     dE             d eps       ncg     rms          rms(c)
DAV:   1    -0.440775428854E+03    0.80055E+00   -0.36741E+01 34648   0.258E+01    0.493E+00
DAV:   2    -0.441583268426E+03   -0.80784E+00   -0.74442E+00 31896   0.476E+00    0.295E+00
DAV:   3    -0.441619376417E+03   -0.36108E-01   -0.25763E-01 36392   0.114E+00    0.158E+00
DAV:   4    -0.441618875952E+03    0.50046E-03   -0.25147E-02 38288   0.436E-01    0.929E-01
DAV:   5    -0.441617500480E+03    0.13755E-02   -0.30852E-03 36248   0.172E-01    0.668E-01
DAV:   6    -0.441615992915E+03    0.15076E-02   -0.23274E-03 38976   0.197E-01    0.404E-01
DAV:   7    -0.441615770556E+03    0.22236E-03   -0.21534E-03 38432   0.166E-01    0.260E-01
DAV:   8    -0.441615783590E+03   -0.13034E-04   -0.85593E-04 37992   0.924E-02    0.928E-02
DAV:   9    -0.441615787349E+03   -0.37584E-05   -0.14449E-04 34288   0.353E-02    0.448E-02
DAV:  10    -0.441615781780E+03    0.55683E-05   -0.21596E-05 24376   0.164E-02
  33 F= -.44161578E+03 E0= -.44160933E+03  d E =-.397997E-01  mag=    78.0000
       N       E                     dE             d eps       ncg     rms          rms(c)
DAV:   1    -0.440943343491E+03    0.67244E+00   -0.10207E+02 33880   0.282E+01    0.359E+00
DAV:   2    -0.441594151098E+03   -0.65081E+00   -0.62907E+00 31448   0.505E+00    0.208E+00
DAV:   3    -0.441606632156E+03   -0.12481E-01   -0.15223E-01 35848   0.995E-01    0.128E+00
DAV:   4    -0.441604889688E+03    0.17425E-02   -0.19127E-02 39104   0.371E-01    0.728E-01
DAV:   5    -0.441602631804E+03    0.22579E-02   -0.33766E-03 35408   0.192E-01    0.548E-01
DAV:   6    -0.441601100703E+03    0.15311E-02   -0.29727E-03 36048   0.201E-01    0.334E-01
DAV:   7    -0.441600902326E+03    0.19838E-03   -0.18758E-03 37640   0.143E-01    0.137E-01
DAV:   8    -0.441600960226E+03   -0.57900E-04   -0.57987E-04 34216   0.623E-02    0.609E-02
DAV:   9    -0.441600962248E+03   -0.20220E-05   -0.58329E-05 32520   0.200E-02
  34 F= -.44160096E+03 E0= -.44159464E+03  d E =0.148195E-01  mag=    78.0000
       N       E                     dE             d eps       ncg     rms          rms(c)
DAV:   1    -0.441567266576E+03    0.33694E-01   -0.46599E+00 33888   0.677E+00    0.907E-01
DAV:   2    -0.441604353730E+03   -0.37087E-01   -0.35190E-01 31472   0.121E+00    0.547E-01
DAV:   3    -0.441605511370E+03   -0.11576E-02   -0.10551E-02 36544   0.272E-01    0.358E-01
DAV:   4    -0.441605420366E+03    0.91004E-04   -0.11825E-03 39488   0.987E-02    0.183E-01
DAV:   5    -0.441605317470E+03    0.10290E-03   -0.17230E-04 35376   0.434E-02    0.139E-01
DAV:   6    -0.441605206852E+03    0.11062E-03   -0.17406E-04 35808   0.547E-02    0.809E-02
DAV:   7    -0.441605198922E+03    0.79294E-05   -0.14594E-04 37496   0.397E-02    0.544E-02
DAV:   8    -0.441605200272E+03   -0.13493E-05   -0.40553E-05 26600   0.212E-02
  35 F= -.44160520E+03 E0= -.44159874E+03  d E =-.423802E-02  mag=    78.0000
       N       E                     dE             d eps       ncg     rms          rms(c)
DAV:   1    -0.441602403875E+03    0.27950E-02   -0.58244E-01 34152   0.296E+00    0.474E-01
DAV:   2    -0.441611062195E+03   -0.86583E-02   -0.80704E-02 31736   0.538E-01    0.243E-01
DAV:   3    -0.441611407533E+03   -0.34534E-03   -0.26248E-03 36096   0.120E-01    0.169E-01
DAV:   4    -0.441611395541E+03    0.11992E-04   -0.29623E-04 34544   0.483E-02    0.917E-02
DAV:   5    -0.441611376056E+03    0.19485E-04   -0.29131E-05 26648   0.194E-02    0.675E-02
DAV:   6    -0.441611354392E+03    0.21664E-04   -0.45699E-05 31856   0.276E-02    0.367E-02
DAV:   7    -0.441611354708E+03   -0.31639E-06   -0.20950E-05 24672   0.157E-02
  36 F= -.44161135E+03 E0= -.44160495E+03  d E =-.615444E-02  mag=    78.0000
