       N       E                     dE             d eps       ncg     rms          ort
DAV:   1     0.846256538614E+04    0.84626E+04   -0.38360E+05  7296   0.188E+03
DAV:   2     0.560834267307E+03   -0.79017E+04   -0.73807E+04  7296   0.552E+02
DAV:   3    -0.337685650495E+03   -0.89852E+03   -0.86384E+03  7296   0.208E+02
DAV:   4    -0.368383224012E+03   -0.30698E+02   -0.30380E+02  7296   0.408E+01
DAV:   5    -0.369172009161E+03   -0.78879E+00   -0.78422E+00  7296   0.634E+00
SDA:   6    -0.152570179335E+02    0.35391E+03   -0.78422E+00  7296   0.233E+04 0.000E+00
CGA:   7    -0.156475544488E+03   -0.14122E+03   -0.12383E+03  7296   0.138E+04 0.398E+03
CGA:   8    -0.226405694621E+03   -0.69930E+02   -0.64258E+02  7296   0.286E+03 0.261E+03
CGA:   9    -0.240434104440E+03   -0.14028E+02   -0.12971E+02  7296   0.450E+03-0.143E+03
CGA:  10    -0.238012659870E+03    0.24214E+01   -0.20310E+02  7296   0.675E+03-0.197E+03
CGA:  11    -0.253127220716E+03   -0.15115E+02   -0.91748E+01  7296   0.427E+03-0.264E+03
CGA:  12    -0.253428582504E+03   -0.30136E+00   -0.99791E+01  7296   0.124E+04-0.417E+03
CGA:  13    -0.217301088381E+03    0.36127E+02   -0.39612E+02  7296   0.611E+04-0.773E+03
CGA:  14    -0.860678681319E+02    0.13123E+03   -0.35284E+03  7296   0.914E+04-0.307E+04
CGA:  15    -0.638531737831E+01    0.79683E+02   -0.44920E+03  7296   0.918E+04-0.542E+04
CGA:  16     0.144569676625E+02    0.20842E+02   -0.44393E+03  7296   0.119E+05-0.794E+04
CGA:  17    -0.290008943849E+02   -0.43458E+02   -0.56879E+03  7296   0.988E+04-0.106E+05
CGA:  18    -0.166743692174E+03   -0.13774E+03   -0.41715E+03  7296   0.369E+04-0.350E+04
CGA:  19    -0.172215704751E+03   -0.54720E+01   -0.48205E+02  7296   0.388E+04 0.244E+02
CGA:  20    -0.241714333728E+03   -0.69499E+02   -0.11759E+03  7296   0.296E+04-0.420E+04
CGA:  21    -0.231054697399E+03    0.10660E+02   -0.10833E+03  7296   0.539E+04-0.583E+03
CGA:  22    -0.156768229286E+03    0.74286E+02   -0.20424E+03  7296   0.362E+04-0.966E+03
CGA:  23    -0.243288477119E+03   -0.86520E+02   -0.65400E+02  7296   0.150E+04-0.317E+03
CGA:  24    -0.224741180966E+03    0.18547E+02   -0.33936E+02  7296   0.315E+04-0.643E+03
CGA:  25    -0.136829663002E+03    0.87912E+02   -0.51478E+02  7296   0.681E+04-0.126E+04
CGA:  26    -0.219462130190E+03   -0.82632E+02   -0.17116E+03  7296   0.171E+04-0.638E+03
CGA:  27    -0.246737151286E+03   -0.27275E+02   -0.29116E+02  7296   0.676E+03-0.451E+03
CGA:  28    -0.257805150755E+03   -0.11068E+02   -0.12215E+02  7296   0.286E+03-0.558E+02
CGA:  29    -0.256406049998E+03    0.13991E+01   -0.53658E+01  7296   0.768E+03-0.300E+03
CGA:  30    -0.250481087990E+03    0.59250E+01   -0.16955E+02  7296   0.118E+04-0.746E+03
CGA:  31    -0.235002860958E+03    0.15478E+02   -0.37518E+02  7296   0.748E+03-0.432E+03
CGA:  32    -0.241412250035E+03   -0.64094E+01   -0.28104E+01  7296   0.928E+03 0.692E+03
CGA:  33    -0.266637611524E+03   -0.25225E+02   -0.84597E+01  7296   0.217E+03 0.838E+03
CGA:  34    -0.266663269788E+03   -0.25658E-01   -0.36438E+01  7296   0.304E+03-0.214E+03
CGA:  35    -0.263278105927E+03    0.33852E+01   -0.64080E+01  7296   0.747E+03-0.408E+03
CGA:  36    -0.259493688847E+03    0.37844E+01   -0.13999E+02  7296   0.104E+04-0.773E+03
CGA:  37    -0.246681883992E+03    0.12812E+02   -0.26432E+02  7296   0.771E+03-0.470E+03
CGA:  38    -0.265115420707E+03   -0.18434E+02   -0.42748E+01  7296   0.933E+03 0.138E+04
CGA:  39    -0.257952747455E+03    0.71627E+01   -0.16446E+02  7296   0.129E+04-0.863E+03
CGA:  40    -0.245074030656E+03    0.12879E+02   -0.30299E+02  7296   0.597E+03-0.383E+03
CGA:  41    -0.264002867945E+03   -0.18929E+02   -0.35321E+01  7296   0.128E+04 0.204E+04
CGA:  42    -0.256349833867E+03    0.76530E+01   -0.21401E+02  7296   0.147E+04-0.106E+04
CGA:  43    -0.245596008721E+03    0.10754E+02   -0.31449E+02  7296   0.572E+03-0.401E+03
CGA:  44    -0.260787246291E+03   -0.15191E+02   -0.30136E+01  7296   0.171E+04 0.219E+04
CGA:  45    -0.253777807189E+03    0.70094E+01   -0.26500E+02  7296   0.157E+04-0.125E+04
CGA:  46    -0.246527817503E+03    0.72500E+01   -0.30652E+02  7296   0.563E+03-0.438E+03
CGA:  47    -0.259001735784E+03   -0.12474E+02   -0.25675E+01  7296   0.186E+04 0.216E+04
CGA:  48    -0.254976844689E+03    0.40249E+01   -0.26129E+02  7296   0.163E+04-0.144E+04
CGA:  49    -0.248339846460E+03    0.66370E+01   -0.28705E+02  7296   0.585E+03-0.462E+03
CGA:  50    -0.259915873612E+03   -0.11576E+02   -0.24852E+01  7296   0.183E+04 0.181E+04
CGA:  51    -0.257060288207E+03    0.28556E+01   -0.23161E+02  7296   0.185E+04-0.169E+04
CGA:  52    -0.250236070745E+03    0.68242E+01   -0.29886E+02  7296   0.622E+03-0.487E+03
CGA:  53    -0.263376733446E+03   -0.13141E+02   -0.27222E+01  7296   0.166E+04 0.178E+04
CGA:  54    -0.261984088434E+03    0.13926E+01   -0.18927E+02  7296   0.198E+04-0.186E+04
CGA:  55    -0.253893058183E+03    0.80910E+01   -0.28798E+02  7296   0.100E+04-0.755E+03
CGA:  56    -0.269685200521E+03   -0.15792E+02   -0.43814E+01  7296   0.110E+04 0.122E+04
CGA:  57    -0.271630224537E+03   -0.19450E+01   -0.10314E+02  7296   0.103E+04-0.119E+04
CGA:  58    -0.269056947480E+03    0.25733E+01   -0.11751E+02  7296   0.123E+04-0.976E+03
CGA:  59    -0.271948606176E+03   -0.28917E+01   -0.11319E+02  7296   0.102E+04-0.125E+04
CGA:  60    -0.271059901288E+03    0.88870E+00   -0.10812E+02  7296   0.101E+04-0.904E+03
CGA:  61    -0.274870615846E+03   -0.38107E+01   -0.83716E+01  7296   0.517E+03-0.800E+03
CGA:  62    -0.276336307393E+03   -0.14657E+01   -0.41714E+01  7296   0.225E+03-0.317E+03
CGA:  63    -0.277505874303E+03   -0.11696E+01   -0.12389E+01  7296   0.101E+02-0.224E+02
CGA:  64    -0.277764168770E+03   -0.25829E+00   -0.25680E+00  7296   0.316E+02 0.266E+00
CGA:  65    -0.279685511003E+03   -0.19213E+01   -0.17921E+01  7296   0.882E+02 0.371E+01
CGA:  66    -0.280981518483E+03   -0.12960E+01   -0.16254E+01  7296   0.663E+02-0.755E+01
CGA:  67    -0.282139154848E+03   -0.11576E+01   -0.11967E+01  7296   0.225E+02-0.430E+00
CGA:  68    -0.282545595608E+03   -0.40644E+00   -0.41592E+00  7296   0.101E+02 0.228E+00
CGA:  69    -0.283245384063E+03   -0.69979E+00   -0.66799E+00  7296   0.140E+02 0.730E+00
CGA:  70    -0.283760450370E+03   -0.51507E+00   -0.48701E+00  7296   0.603E+01 0.337E+01
CGA:  71    -0.284335755355E+03   -0.57530E+00   -0.52403E+00  7296   0.211E+01 0.115E+01
CGA:  72    -0.284604228957E+03   -0.26847E+00   -0.25815E+00  7296   0.273E+01 0.161E+00
CGA:  73    -0.284992163132E+03   -0.38793E+00   -0.40138E+00  7296   0.318E+01-0.216E+00
CGA:  74    -0.285176989895E+03   -0.18483E+00   -0.18386E+00  7296   0.124E+01 0.227E-01
CGA:  75    -0.285305175638E+03   -0.12819E+00   -0.12565E+00  7296   0.166E+01 0.406E-01
CGA:  76    -0.285501106794E+03   -0.19593E+00   -0.19985E+00  7296   0.120E+01-0.620E-01
CGA:  77    -0.285582118495E+03   -0.81012E-01   -0.80614E-01  7296   0.627E+00 0.122E-01
CGA:  78    -0.285645785665E+03   -0.63667E-01   -0.62707E-01  7296   0.644E+00 0.178E-01
CGA:  79    -0.285721315408E+03   -0.75530E-01   -0.70012E-01  7296   0.448E+00 0.105E+00
CGA:  80    -0.285684649219E+03    0.36666E-01   -0.13386E+00  7296   0.434E+01-0.883E+00
CGA:  81    -0.285902198464E+03   -0.21755E+00   -0.22076E+00  7296   0.426E+00 0.694E-01
CGA:  82    -0.285984477631E+03   -0.82279E-01   -0.82766E-01  7296   0.722E+00 0.182E-02
CGA:  83    -0.286042207057E+03   -0.57729E-01   -0.17492E+00  7296   0.960E+00-0.572E+00
CGA:  84    -0.286140186052E+03   -0.97979E-01   -0.97807E-01  7296   0.418E+00 0.521E-02
CGA:  85    -0.286185722946E+03   -0.45537E-01   -0.45597E-01  7296   0.620E-01-0.160E-02
CGA:  86    -0.286191300955E+03   -0.55780E-02   -0.55766E-02  7296   0.352E-01 0.786E-04
CGA:  87    -0.286200564079E+03   -0.92631E-02   -0.91851E-02  7296   0.374E-01 0.499E-03
CGA:  88    -0.286204267264E+03   -0.37032E-02   -0.37062E-02  7296   0.202E-01-0.226E-03
CGA:  89    -0.286211062996E+03   -0.67957E-02   -0.67193E-02  7296   0.277E-01 0.267E-03
CGA:  90    -0.286214244967E+03   -0.31820E-02   -0.31853E-02  7296   0.131E-01-0.183E-03
CGA:  91    -0.286216748270E+03   -0.25033E-02   -0.24858E-02  7296   0.126E-01 0.182E-03
CGA:  92    -0.286218079478E+03   -0.13312E-02   -0.13309E-02  7296   0.509E-02-0.566E-04
CGA:  93    -0.286219095728E+03   -0.10163E-02   -0.10104E-02  7296   0.431E-02 0.608E-04
CGA:  94    -0.286219603035E+03   -0.50731E-03   -0.50731E-03  7296   0.266E-02 0.212E-05
CGA:  95    -0.286220249399E+03   -0.64636E-03   -0.64642E-03  7296   0.207E-02-0.101E-05
CGA:  96    -0.286220587966E+03   -0.33857E-03   -0.33818E-03  7296   0.187E-02 0.777E-05
CGA:  97    -0.286220858942E+03   -0.27098E-03   -0.27098E-03  7296   0.485E-03 0.180E-05
CGA:  98    -0.286220954361E+03   -0.95419E-04   -0.95456E-04  7296   0.575E-03-0.651E-06
CGA:  99    -0.286221032385E+03   -0.78024E-04   -0.78056E-04  7296   0.186E-03-0.304E-05
CGA: 100    -0.286221053844E+03   -0.21459E-04   -0.21455E-04  7296   0.161E-03-0.428E-06
CGA: 101    -0.286221089552E+03   -0.35708E-04   -0.35639E-04  7296   0.976E-04 0.665E-06
CGA: 102    -0.286221102789E+03   -0.13237E-04   -0.13234E-04  7296   0.992E-04 0.614E-06
CGA: 103    -0.286221126857E+03   -0.24068E-04   -0.23916E-04  7296   0.452E-04 0.138E-05
CGA: 104    -0.286221133166E+03   -0.63095E-05   -0.63092E-05  7296   0.419E-04 0.229E-06
   1 F= -.28622113E+03 E0= -.28621400E+03  d E =-.286221E+03  mag=    18.0000
       N       E                     dE             d eps       ncg     rms          ort
SDA:   1    -0.286221994398E+03   -0.86754E-03    0.00000E+00  7296   0.672E-02 0.000E+00
CGA:   2    -0.286222312227E+03   -0.31783E-03   -0.31698E-03  7296   0.309E-03 0.169E-04
CGA:   3    -0.286222353378E+03   -0.41151E-04   -0.41150E-04  7296   0.223E-03-0.311E-06
CGA:   4    -0.286222380787E+03   -0.27409E-04   -0.27383E-04  7296   0.764E-04-0.214E-05
CGA:   5    -0.286222391113E+03   -0.10326E-04   -0.10329E-04  7296   0.370E-04-0.159E-05
CGA:   6    -0.286222394588E+03   -0.34751E-05   -0.34906E-05  7296   0.894E-05 0.404E-06
   2 F= -.28622239E+03 E0= -.28621526E+03  d E =-.126142E-02  mag=    18.0000
       N       E                     dE             d eps       ncg     rms          ort
SDA:   1    -0.285955446995E+03    0.26694E+00    0.00000E+00  7296   0.958E+00 0.000E+00
CGA:   2    -0.286173669639E+03   -0.21822E+00   -0.21817E+00  7296   0.635E+00 0.488E-03
CGA:   3    -0.286252501444E+03   -0.78832E-01   -0.78799E-01  7296   0.341E+00-0.935E-03
CGA:   4    -0.286285132504E+03   -0.32631E-01   -0.32693E-01  7296   0.905E-01 0.889E-04
CGA:   5    -0.286295407202E+03   -0.10275E-01   -0.10266E-01  7296   0.387E-01-0.123E-03
CGA:   6    -0.286298882487E+03   -0.34753E-02   -0.34797E-02  7296   0.121E-01 0.207E-05
CGA:   7    -0.286300537743E+03   -0.16553E-02   -0.16553E-02  7296   0.465E-02-0.940E-06
CGA:   8    -0.286301033284E+03   -0.49554E-03   -0.49562E-03  7296   0.205E-02 0.204E-05
CGA:   9    -0.286301327251E+03   -0.29397E-03   -0.29395E-03  7296   0.961E-03 0.179E-05
CGA:  10    -0.286301423109E+03   -0.95857E-04   -0.95917E-04  7296   0.449E-03 0.141E-05
CGA:  11    -0.286301496724E+03   -0.73616E-04   -0.73597E-04  7296   0.264E-03 0.579E-06
CGA:  12    -0.286301523528E+03   -0.26804E-04   -0.26819E-04  7296   0.148E-03 0.455E-06
CGA:  13    -0.286301548854E+03   -0.25326E-04   -0.25324E-04  7296   0.732E-04 0.627E-07
CGA:  14    -0.286301556872E+03   -0.80177E-05   -0.80274E-05  7296   0.389E-04 0.429E-06
   3 F= -.28630156E+03 E0= -.28629444E+03  d E =-.791623E-01  mag=    18.0000
       N       E                     dE             d eps       ncg     rms          ort
SDA:   1    -0.284227793463E+03    0.20738E+01    0.00000E+00  7296   0.625E+01 0.000E+00
CGA:   2    -0.285655385922E+03   -0.14276E+01   -0.14259E+01  7296   0.430E+01 0.167E-01
CGA:   3    -0.286161087932E+03   -0.50570E+00   -0.50466E+00  7296   0.209E+01-0.175E-01
CGA:   4    -0.286383246659E+03   -0.22216E+00   -0.22248E+00  7296   0.510E+00 0.247E-02
CGA:   5    -0.286448527256E+03   -0.65281E-01   -0.65265E-01  7296   0.205E+00-0.106E-02
CGA:   6    -0.286467302067E+03   -0.18775E-01   -0.18838E-01  7296   0.761E-01 0.431E-04
CGA:   7    -0.286476571901E+03   -0.92698E-02   -0.92676E-02  7296   0.308E-01-0.828E-04
CGA:   8    -0.286479729783E+03   -0.31579E-02   -0.31589E-02  7296   0.126E-01 0.139E-04
CGA:   9    -0.286481578181E+03   -0.18484E-02   -0.18483E-02  7296   0.624E-02 0.627E-05
CGA:  10    -0.286482198804E+03   -0.62062E-03   -0.62095E-03  7296   0.268E-02 0.499E-05
CGA:  11    -0.286482678427E+03   -0.47962E-03   -0.47949E-03  7296   0.155E-02 0.292E-05
CGA:  12    -0.286482843455E+03   -0.16503E-03   -0.16512E-03  7296   0.965E-03 0.248E-05
CGA:  13    -0.286482993042E+03   -0.14959E-03   -0.14955E-03  7296   0.507E-03 0.175E-05
CGA:  14    -0.286483044788E+03   -0.51745E-04   -0.51804E-04  7296   0.240E-03 0.189E-05
CGA:  15    -0.286483082177E+03   -0.37390E-04   -0.37329E-04  7296   0.126E-03 0.247E-05
CGA:  16    -0.286483095468E+03   -0.13291E-04   -0.13335E-04  7296   0.454E-04 0.166E-05
CGA:  17    -0.286483103537E+03   -0.80689E-05   -0.80067E-05  7296   0.256E-04 0.141E-05
   4 F= -.28648310E+03 E0= -.28647600E+03  d E =-.181547E+00  mag=    18.0000
       N       E                     dE             d eps       ncg     rms          ort
SDA:   1    -0.285482359823E+03    0.10007E+01    0.00000E+00  7296   0.309E+01 0.000E+00
CGA:   2    -0.286212376812E+03   -0.73002E+00   -0.72960E+00  7296   0.196E+01 0.378E-02
CGA:   3    -0.286451056613E+03   -0.23868E+00   -0.23853E+00  7296   0.105E+01-0.411E-02
CGA:   4    -0.286550336978E+03   -0.99280E-01   -0.99458E-01  7296   0.292E+00 0.142E-03
CGA:   5    -0.286584065252E+03   -0.33728E-01   -0.33712E-01  7296   0.121E+00-0.332E-03
CGA:   6    -0.286595107365E+03   -0.11042E-01   -0.11054E-01  7296   0.374E-01 0.132E-04
CGA:   7    -0.286600171847E+03   -0.50645E-02   -0.50646E-02  7296   0.143E-01-0.137E-04
CGA:   8    -0.286601712389E+03   -0.15405E-02   -0.15409E-02  7296   0.643E-02 0.528E-05
CGA:   9    -0.286602626861E+03   -0.91447E-03   -0.91451E-03  7296   0.302E-02-0.881E-06
CGA:  10    -0.286602926015E+03   -0.29915E-03   -0.29933E-03  7296   0.139E-02 0.290E-05
CGA:  11    -0.286603161269E+03   -0.23525E-03   -0.23517E-03  7296   0.812E-03 0.227E-05
CGA:  12    -0.286603245247E+03   -0.83978E-04   -0.84033E-04  7296   0.480E-03 0.162E-05
CGA:  13    -0.286603325356E+03   -0.80109E-04   -0.80063E-04  7296   0.230E-03 0.126E-05
CGA:  14    -0.286603351558E+03   -0.26202E-04   -0.26218E-04  7296   0.126E-03 0.921E-06
CGA:  15    -0.286603370701E+03   -0.19143E-04   -0.19115E-04  7296   0.583E-04 0.130E-05
CGA:  16    -0.286603376730E+03   -0.60295E-05   -0.60535E-05  7296   0.262E-04 0.837E-06
   5 F= -.28660338E+03 E0= -.28659626E+03  d E =-.120273E+00  mag=    18.0000
       N       E                     dE             d eps       ncg     rms          ort
SDA:   1    -0.274248425961E+03    0.12355E+02    0.00000E+00  7296   0.362E+02 0.000E+00
CGA:   2    -0.282183655902E+03   -0.79352E+01   -0.79068E+01  7296   0.252E+02 0.300E+00
CGA:   3    -0.284937272054E+03   -0.27536E+01   -0.27345E+01  7296   0.115E+02-0.149E+00
CGA:   4    -0.286280366785E+03   -0.13431E+01   -0.13448E+01  7296   0.293E+01 0.388E-01
CGA:   5    -0.286640301733E+03   -0.35993E+00   -0.35974E+00  7296   0.135E+01-0.792E-02
CGA:   6    -0.286759675900E+03   -0.11937E+00   -0.11971E+00  7296   0.420E+00 0.162E-03
CGA:   7    -0.286812572505E+03   -0.52897E-01   -0.52889E-01  7296   0.195E+00-0.611E-03
CGA:   8    -0.286832876298E+03   -0.20304E-01   -0.20333E-01  7296   0.680E-01 0.392E-03
CGA:   9    -0.286843375949E+03   -0.10500E-01   -0.10501E-01  7296   0.421E-01-0.146E-04
CGA:  10    -0.286847342090E+03   -0.39661E-02   -0.39713E-02  7296   0.146E-01 0.342E-04
CGA:  11    -0.286850253964E+03   -0.29119E-02   -0.29106E-02  7296   0.997E-02 0.169E-04
CGA:  12    -0.286851278283E+03   -0.10243E-02   -0.10253E-02  7296   0.532E-02 0.160E-04
CGA:  13    -0.286852175394E+03   -0.89711E-03   -0.89665E-03  7296   0.335E-02 0.131E-04
CGA:  14    -0.286852497398E+03   -0.32200E-03   -0.32241E-03  7296   0.133E-02 0.836E-05
CGA:  15    -0.286852713623E+03   -0.21622E-03   -0.21598E-03  7296   0.857E-03 0.796E-05
CGA:  16    -0.286852801236E+03   -0.87613E-04   -0.87748E-04  7296   0.247E-03 0.420E-05
CGA:  17    -0.286852846669E+03   -0.45432E-04   -0.45273E-04  7296   0.174E-03 0.308E-05
CGA:  18    -0.286852863257E+03   -0.16588E-04   -0.16647E-04  7296   0.592E-04 0.147E-05
CGA:  19    -0.286852873527E+03   -0.10270E-04   -0.10229E-04  7296   0.500E-04 0.101E-05
CGA:  20    -0.286852879532E+03   -0.60052E-05   -0.60111E-05  7296   0.234E-04 0.382E-06
   6 F= -.28685288E+03 E0= -.28684564E+03  d E =-.249503E+00  mag=    18.0000
       N       E                     dE             d eps       ncg     rms          ort
SDA:   1    -0.280753388514E+03    0.60995E+01    0.00000E+00  7296   0.165E+02 0.000E+00
CGA:   2    -0.284885730064E+03   -0.41323E+01   -0.41281E+01  7296   0.104E+02 0.371E-01
CGA:   3    -0.286163729421E+03   -0.12780E+01   -0.12771E+01  7296   0.507E+01-0.171E-01
CGA:   4    -0.286672767676E+03   -0.50904E+00   -0.51000E+00  7296   0.134E+01 0.403E-02
CGA:   5    -0.286838084898E+03   -0.16532E+00   -0.16528E+00  7296   0.490E+00-0.131E-02
CGA:   6    -0.286884083660E+03   -0.45999E-01   -0.46045E-01  7296   0.188E+00 0.110E-03
CGA:   7    -0.286907056003E+03   -0.22972E-01   -0.22968E-01  7296   0.731E-01-0.124E-03
CGA:   8    -0.286914549967E+03   -0.74940E-02   -0.75012E-02  7296   0.315E-01 0.654E-04
CGA:   9    -0.286919075220E+03   -0.45253E-02   -0.45254E-02  7296   0.131E-01-0.418E-05
CGA:  10    -0.286920474429E+03   -0.13992E-02   -0.13997E-02  7296   0.672E-02 0.986E-05
CGA:  11    -0.286921643439E+03   -0.11690E-02   -0.11686E-02  7296   0.330E-02 0.994E-05
CGA:  12    -0.286922066945E+03   -0.42351E-03   -0.42356E-03  7296   0.265E-02 0.870E-05
CGA:  13    -0.286922436323E+03   -0.36938E-03   -0.36934E-03  7296   0.116E-02 0.658E-05
CGA:  14    -0.286922570094E+03   -0.13377E-03   -0.13386E-03  7296   0.697E-03 0.454E-05
CGA:  15    -0.286922669507E+03   -0.99412E-04   -0.99374E-04  7296   0.308E-03 0.396E-05
CGA:  16    -0.286922701637E+03   -0.32130E-04   -0.32187E-04  7296   0.137E-03 0.191E-05
CGA:  17    -0.286922725206E+03   -0.23569E-04   -0.23497E-04  7296   0.657E-04 0.186E-05
CGA:  18    -0.286922732384E+03   -0.71778E-05   -0.71936E-05  7296   0.378E-04 0.613E-06
   7 F= -.28692273E+03 E0= -.28691538E+03  d E =-.698529E-01  mag=    18.0000
       N       E                     dE             d eps       ncg     rms          ort
SDA:   1    -0.273622122829E+03    0.13301E+02    0.00000E+00  7296   0.347E+02 0.000E+00
CGA:   2    -0.282244281978E+03   -0.86222E+01   -0.86190E+01  7296   0.289E+02 0.249E-01
CGA:   3    -0.285092521397E+03   -0.28482E+01   -0.28412E+01  7296   0.112E+02 0.491E-01
CGA:   4    -0.286447491697E+03   -0.13550E+01   -0.13556E+01  7296   0.257E+01 0.142E-01
CGA:   5    -0.286773108834E+03   -0.32562E+00   -0.32546E+00  7296   0.107E+01-0.577E-02
CGA:   6    -0.286873712578E+03   -0.10060E+00   -0.10092E+00  7296   0.353E+00 0.584E-03
CGA:   7    -0.286921421029E+03   -0.47708E-01   -0.47709E-01  7296   0.159E+00-0.217E-03
CGA:   8    -0.286936175214E+03   -0.14754E-01   -0.14776E-01  7296   0.626E-01 0.865E-04
CGA:   9    -0.286945432226E+03   -0.92570E-02   -0.92561E-02  7296   0.281E-01 0.485E-04
CGA:  10    -0.286948307764E+03   -0.28755E-02   -0.28774E-02  7296   0.132E-01 0.287E-04
CGA:  11    -0.286950793562E+03   -0.24858E-02   -0.24841E-02  7296   0.721E-02 0.290E-04
CGA:  12    -0.286951660860E+03   -0.86730E-03   -0.86757E-03  7296   0.510E-02 0.166E-04
CGA:  13    -0.286952479975E+03   -0.81912E-03   -0.81862E-03  7296   0.235E-02 0.186E-04
CGA:  14    -0.286952732930E+03   -0.25296E-03   -0.25319E-03  7296   0.147E-02 0.816E-05
CGA:  15    -0.286952947225E+03   -0.21430E-03   -0.21420E-03  7296   0.600E-03 0.792E-05
CGA:  16    -0.286953010352E+03   -0.63127E-04   -0.63207E-04  7296   0.291E-03 0.286E-05
CGA:  17    -0.286953060474E+03   -0.50122E-04   -0.50011E-04  7296   0.151E-03 0.287E-05
CGA:  18    -0.286953076541E+03   -0.16067E-04   -0.16090E-04  7296   0.896E-04 0.834E-06
CGA:  19    -0.286953094516E+03   -0.17975E-04   -0.17916E-04  7296   0.784E-04 0.891E-06
CGA:  20    -0.286953104032E+03   -0.95159E-05   -0.95188E-05  7296   0.537E-04 0.179E-06
CGA:  21    -0.286953116297E+03   -0.12265E-04   -0.12276E-04  7296   0.605E-04-0.126E-06
CGA:  22    -0.286953123215E+03   -0.69185E-05   -0.69060E-05  7296   0.311E-04-0.478E-06
   8 F= -.28695312E+03 E0= -.28694565E+03  d E =-.303908E-01  mag=    18.0000
       N       E                     dE             d eps       ncg     rms          ort
SDA:   1    -0.267726037824E+03    0.19227E+02    0.00000E+00  7296   0.521E+02 0.000E+00
CGA:   2    -0.279355356612E+03   -0.11629E+02   -0.11579E+02  7296   0.405E+02 0.549E+00
CGA:   3    -0.283906870356E+03   -0.45515E+01   -0.44648E+01  7296   0.207E+02-0.386E+00
CGA:   4    -0.286099496757E+03   -0.21926E+01   -0.22006E+01  7296   0.495E+01 0.263E-01
CGA:   5    -0.286610352550E+03   -0.51086E+00   -0.50902E+00  7296   0.220E+01-0.104E-01
CGA:   6    -0.286818311802E+03   -0.20796E+00   -0.20852E+00  7296   0.593E+00-0.383E-03
CGA:   7    -0.286900788276E+03   -0.82476E-01   -0.82477E-01  7296   0.301E+00 0.709E-04
CGA:   8    -0.286929772991E+03   -0.28985E-01   -0.29054E-01  7296   0.986E-01 0.204E-03
CGA:   9    -0.286944211029E+03   -0.14438E-01   -0.14438E-01  7296   0.614E-01 0.399E-04
CGA:  10    -0.286949715237E+03   -0.55042E-02   -0.55155E-02  7296   0.196E-01 0.250E-04
CGA:  11    -0.286953239386E+03   -0.35241E-02   -0.35220E-02  7296   0.162E-01 0.438E-04
CGA:  12    -0.286954863229E+03   -0.16238E-02   -0.16252E-02  7296   0.640E-02 0.231E-04
CGA:  13    -0.286956120045E+03   -0.12568E-02   -0.12548E-02  7296   0.486E-02 0.324E-04
CGA:  14    -0.286956592318E+03   -0.47227E-03   -0.47283E-03  7296   0.182E-02 0.114E-04
CGA:  15    -0.286956890764E+03   -0.29845E-03   -0.29815E-03  7296   0.134E-02 0.103E-04
CGA:  16    -0.286957013502E+03   -0.12274E-03   -0.12295E-03  7296   0.377E-03 0.389E-05
CGA:  17    -0.286957077346E+03   -0.63844E-04   -0.63756E-04  7296   0.291E-03 0.258E-05
CGA:  18    -0.286957107028E+03   -0.29682E-04   -0.29743E-04  7296   0.937E-04 0.163E-05
CGA:  19    -0.286957123877E+03   -0.16849E-04   -0.16783E-04  7296   0.987E-04 0.151E-05
CGA:  20    -0.286957136416E+03   -0.12539E-04   -0.12550E-04  7296   0.488E-04 0.853E-06
CGA:  21    -0.286957144965E+03   -0.85494E-05   -0.85505E-05  7296   0.603E-04-0.329E-07
   9 F= -.28695714E+03 E0= -.28694960E+03  d E =-.402175E-02  mag=    18.0000
       N       E                     dE             d eps       ncg     rms          ort
SDA:   1    -0.268291562078E+03    0.18666E+02    0.00000E+00  7296   0.494E+02 0.000E+00
CGA:   2    -0.279769078428E+03   -0.11478E+02   -0.11407E+02  7296   0.432E+02 0.694E+00
CGA:   3    -0.284145347452E+03   -0.43763E+01   -0.42228E+01  7296   0.169E+02 0.313E+00
CGA:   4    -0.286194765243E+03   -0.20494E+01   -0.20508E+01  7296   0.435E+01 0.245E-01
CGA:   5    -0.286652118855E+03   -0.45735E+00   -0.45633E+00  7296   0.190E+01-0.409E-02
CGA:   6    -0.286840023918E+03   -0.18791E+00   -0.18812E+00  7296   0.563E+00 0.897E-03
CGA:   7    -0.286912342932E+03   -0.72319E-01   -0.72318E-01  7296   0.282E+00 0.617E-04
CGA:   8    -0.286941494639E+03   -0.29152E-01   -0.29189E-01  7296   0.834E-01 0.287E-03
CGA:   9    -0.286954581163E+03   -0.13087E-01   -0.13084E-01  7296   0.516E-01 0.829E-04
CGA:  10    -0.286959583444E+03   -0.50023E-02   -0.50065E-02  7296   0.177E-01 0.404E-04
CGA:  11    -0.286962868770E+03   -0.32853E-02   -0.32829E-02  7296   0.151E-01 0.435E-04
CGA:  12    -0.286964338955E+03   -0.14702E-02   -0.14718E-02  7296   0.617E-02 0.243E-04
CGA:  13    -0.286965496631E+03   -0.11577E-02   -0.11562E-02  7296   0.453E-02 0.269E-04
CGA:  14    -0.286965938340E+03   -0.44171E-03   -0.44233E-03  7296   0.171E-02 0.115E-04
CGA:  15    -0.286966201841E+03   -0.26350E-03   -0.26335E-03  7296   0.123E-02 0.822E-05
CGA:  16    -0.286966320350E+03   -0.11851E-03   -0.11867E-03  7296   0.324E-03 0.361E-05
CGA:  17    -0.286966371908E+03   -0.51557E-04   -0.51494E-04  7296   0.268E-03 0.251E-05
CGA:  18    -0.286966399261E+03   -0.27354E-04   -0.27405E-04  7296   0.808E-04 0.149E-05
CGA:  19    -0.286966413174E+03   -0.13913E-04   -0.13855E-04  7296   0.831E-04 0.153E-05
CGA:  20    -0.286966425200E+03   -0.12026E-04   -0.12020E-04  7296   0.434E-04 0.931E-06
CGA:  21    -0.286966432851E+03   -0.76506E-05   -0.76453E-05  7296   0.513E-04 0.126E-06
  10 F= -.28696643E+03 E0= -.28695894E+03  d E =-.928789E-02  mag=    18.0000
       N       E                     dE             d eps       ncg     rms          ort
SDA:   1    -0.282441793396E+03    0.45246E+01    0.00000E+00  7296   0.142E+02 0.000E+00
CGA:   2    -0.284828593029E+03   -0.23868E+01   -0.23839E+01  7296   0.118E+02 0.686E-01
CGA:   3    -0.286088719198E+03   -0.12601E+01   -0.12526E+01  7296   0.492E+01-0.238E-01
CGA:   4    -0.286759470741E+03   -0.67075E+00   -0.67074E+00  7296   0.148E+01-0.234E-02
CGA:   5    -0.286905275301E+03   -0.14580E+00   -0.14627E+00  7296   0.651E+00 0.130E-02
CGA:   6    -0.286967656996E+03   -0.62382E-01   -0.62269E-01  7296   0.174E+00-0.129E-03
CGA:   7    -0.286989299878E+03   -0.21643E-01   -0.21646E-01  7296   0.872E-01 0.149E-03
CGA:   8    -0.286998503013E+03   -0.92031E-02   -0.92041E-02  7296   0.261E-01 0.213E-04
CGA:   9    -0.287002223141E+03   -0.37201E-02   -0.37199E-02  7296   0.164E-01 0.224E-04
CGA:  10    -0.287003953007E+03   -0.17299E-02   -0.17305E-02  7296   0.487E-02 0.137E-04
CGA:  11    -0.287004760402E+03   -0.80740E-03   -0.80683E-03  7296   0.423E-02 0.148E-04
CGA:  12    -0.287005184506E+03   -0.42410E-03   -0.42439E-03  7296   0.151E-02 0.757E-05
CGA:  13    -0.287005459741E+03   -0.27524E-03   -0.27488E-03  7296   0.128E-02 0.693E-05
CGA:  14    -0.287005585751E+03   -0.12601E-03   -0.12612E-03  7296   0.449E-03 0.295E-05
CGA:  15    -0.287005656010E+03   -0.70259E-04   -0.70216E-04  7296   0.329E-03 0.176E-05
CGA:  16    -0.287005692643E+03   -0.36633E-04   -0.36656E-04  7296   0.961E-04 0.975E-06
CGA:  17    -0.287005708108E+03   -0.15465E-04   -0.15450E-04  7296   0.776E-04 0.541E-06
CGA:  18    -0.287005716417E+03   -0.83086E-05   -0.83259E-05  7296   0.256E-04 0.623E-06
  11 F= -.28700572E+03 E0= -.28699826E+03  d E =-.392836E-01  mag=    18.0000
       N       E                     dE             d eps       ncg     rms          ort
SDA:   1    -0.286022789804E+03    0.98292E+00    0.00000E+00  7296   0.273E+01 0.000E+00
CGA:   2    -0.286579157704E+03   -0.55637E+00   -0.55550E+00  7296   0.305E+01 0.104E-01
CGA:   3    -0.286870824141E+03   -0.29167E+00   -0.29063E+00  7296   0.779E+00-0.234E-03
CGA:   4    -0.286985241240E+03   -0.11442E+00   -0.11442E+00  7296   0.230E+00-0.506E-04
CGA:   5    -0.287008957629E+03   -0.23716E-01   -0.23740E-01  7296   0.101E+00 0.143E-03
CGA:   6    -0.287019099364E+03   -0.10142E-01   -0.10134E-01  7296   0.297E-01-0.297E-04
CGA:   7    -0.287022486429E+03   -0.33871E-02   -0.33877E-02  7296   0.149E-01 0.141E-04
CGA:   8    -0.287024143556E+03   -0.16571E-02   -0.16570E-02  7296   0.457E-02-0.906E-06
CGA:   9    -0.287024752313E+03   -0.60876E-03   -0.60875E-03  7296   0.289E-02 0.248E-05
CGA:  10    -0.287025076426E+03   -0.32411E-03   -0.32417E-03  7296   0.839E-03 0.288E-05
CGA:  11    -0.287025231745E+03   -0.15532E-03   -0.15514E-03  7296   0.832E-03 0.321E-05
CGA:  12    -0.287025317488E+03   -0.85743E-04   -0.85808E-04  7296   0.306E-03 0.215E-05
CGA:  13    -0.287025372872E+03   -0.55383E-04   -0.55304E-04  7296   0.273E-03 0.161E-05
CGA:  14    -0.287025401585E+03   -0.28713E-04   -0.28743E-04  7296   0.987E-04 0.103E-05
CGA:  15    -0.287025416029E+03   -0.14444E-04   -0.14437E-04  7296   0.770E-04 0.541E-06
CGA:  16    -0.287025424784E+03   -0.87550E-05   -0.87644E-05  7296   0.214E-04 0.477E-06
  12 F= -.28702542E+03 E0= -.28701799E+03  d E =-.197084E-01  mag=    18.0000
       N       E                     dE             d eps       ncg     rms          ort
SDA:   1    -0.286153705339E+03    0.87171E+00    0.00000E+00  7296   0.225E+01 0.000E+00
CGA:   2    -0.286710073045E+03   -0.55637E+00   -0.55554E+00  7296   0.247E+01 0.702E-02
CGA:   3    -0.286921657302E+03   -0.21158E+00   -0.21056E+00  7296   0.605E+00 0.349E-02
CGA:   4    -0.287007741946E+03   -0.86085E-01   -0.86085E-01  7296   0.187E+00-0.609E-04
CGA:   5    -0.287025710817E+03   -0.17969E-01   -0.17977E-01  7296   0.834E-01 0.334E-04
CGA:   6    -0.287034294893E+03   -0.85841E-02   -0.85835E-02  7296   0.230E-01 0.802E-05
CGA:   7    -0.287037080470E+03   -0.27856E-02   -0.27855E-02  7296   0.115E-01-0.470E-05
CGA:   8    -0.287038362528E+03   -0.12821E-02   -0.12821E-02  7296   0.315E-02-0.703E-06
CGA:   9    -0.287038825413E+03   -0.46288E-03   -0.46286E-03  7296   0.205E-02 0.157E-05
CGA:  10    -0.287039035749E+03   -0.21034E-03   -0.21041E-03  7296   0.633E-03 0.251E-05
CGA:  11    -0.287039153558E+03   -0.11781E-03   -0.11764E-03  7296   0.637E-03 0.299E-05
CGA:  12    -0.287039215691E+03   -0.62133E-04   -0.62195E-04  7296   0.230E-03 0.187E-05
CGA:  13    -0.287039259088E+03   -0.43397E-04   -0.43324E-04  7296   0.197E-03 0.130E-05
CGA:  14    -0.287039280286E+03   -0.21198E-04   -0.21213E-04  7296   0.670E-04 0.542E-06
CGA:  15    -0.287039291865E+03   -0.11579E-04   -0.11566E-04  7296   0.503E-04 0.325E-06
CGA:  16    -0.287039296658E+03   -0.47930E-05   -0.47976E-05  7296   0.147E-04 0.110E-06
  13 F= -.28703930E+03 E0= -.28703188E+03  d E =-.138719E-01  mag=    18.0000
       N       E                     dE             d eps       ncg     rms          ort
SDA:   1    -0.283178907607E+03    0.38604E+01    0.00000E+00  7296   0.987E+01 0.000E+00
CGA:   2    -0.285694836677E+03   -0.25159E+01   -0.25112E+01  7296   0.939E+01 0.385E-01
CGA:   3    -0.286530646360E+03   -0.83581E+00   -0.82882E+00  7296   0.304E+01 0.248E-01
CGA:   4    -0.286909307934E+03   -0.37866E+00   -0.37871E+00  7296   0.889E+00 0.136E-02
CGA:   5    -0.286994184416E+03   -0.84876E-01   -0.84729E-01  7296   0.390E+00-0.765E-04
CGA:   6    -0.287035135885E+03   -0.40951E-01   -0.40956E-01  7296   0.982E-01 0.825E-04
CGA:   7    -0.287048988366E+03   -0.13852E-01   -0.13853E-01  7296   0.489E-01-0.348E-04
CGA:   8    -0.287053828270E+03   -0.48399E-02   -0.48427E-02  7296   0.146E-01 0.125E-04
CGA:   9    -0.287056148339E+03   -0.23201E-02   -0.23200E-02  7296   0.807E-02 0.360E-05
CGA:  10    -0.287056929003E+03   -0.78066E-03   -0.78112E-03  7296   0.307E-02 0.788E-05
CGA:  11    -0.287057491064E+03   -0.56206E-03   -0.56156E-03  7296   0.250E-02 0.976E-05
CGA:  12    -0.287057732843E+03   -0.24178E-03   -0.24200E-03  7296   0.106E-02 0.579E-05
CGA:  13    -0.287057947012E+03   -0.21417E-03   -0.21378E-03  7296   0.710E-03 0.572E-05
CGA:  14    -0.287058020219E+03   -0.73206E-04   -0.73284E-04  7296   0.314E-03 0.217E-05
CGA:  15    -0.287058075636E+03   -0.55417E-04   -0.55340E-04  7296   0.158E-03 0.186E-05
CGA:  16    -0.287058090862E+03   -0.15226E-04   -0.15255E-04  7296   0.649E-04 0.700E-06
CGA:  17    -0.287058101506E+03   -0.10644E-04   -0.10623E-04  7296   0.417E-04 0.727E-06
CGA:  18    -0.287058105518E+03   -0.40125E-05   -0.40303E-05  7296   0.161E-04 0.438E-06
  14 F= -.28705811E+03 E0= -.28705072E+03  d E =-.188089E-01  mag=    18.0000
       N       E                     dE             d eps       ncg     rms          ort
SDA:   1    -0.273957464279E+03    0.13101E+02    0.00000E+00  7296   0.339E+02 0.000E+00
CGA:   2    -0.282358578145E+03   -0.84011E+01   -0.83728E+01  7296   0.297E+02 0.234E+00
CGA:   3    -0.285231331607E+03   -0.28728E+01   -0.28160E+01  7296   0.112E+02 0.150E+00
CGA:   4    -0.286567847680E+03   -0.13365E+01   -0.13371E+01  7296   0.281E+01 0.103E-01
CGA:   5    -0.286867382356E+03   -0.29953E+00   -0.29886E+00  7296   0.133E+01-0.297E-02
CGA:   6    -0.286992440117E+03   -0.12506E+00   -0.12528E+00  7296   0.359E+00 0.419E-03
CGA:   7    -0.287042972085E+03   -0.50532E-01   -0.50532E-01  7296   0.170E+00 0.402E-04
CGA:   8    -0.287059358131E+03   -0.16386E-01   -0.16409E-01  7296   0.548E-01 0.761E-04
CGA:   9    -0.287068076303E+03   -0.87182E-02   -0.87179E-02  7296   0.278E-01 0.150E-04
CGA:  10    -0.287070814822E+03   -0.27385E-02   -0.27408E-02  7296   0.115E-01 0.251E-04
CGA:  11    -0.287072951587E+03   -0.21368E-02   -0.21353E-02  7296   0.797E-02 0.272E-04
CGA:  12    -0.287073749533E+03   -0.79795E-03   -0.79888E-03  7296   0.419E-02 0.167E-04
CGA:  13    -0.287074526706E+03   -0.77717E-03   -0.77629E-03  7296   0.249E-02 0.177E-04
CGA:  14    -0.287074778079E+03   -0.25137E-03   -0.25172E-03  7296   0.118E-02 0.778E-05
CGA:  15    -0.287074979754E+03   -0.20168E-03   -0.20142E-03  7296   0.553E-03 0.727E-05
CGA:  16    -0.287075035231E+03   -0.55477E-04   -0.55578E-04  7296   0.232E-03 0.259E-05
CGA:  17    -0.287075074722E+03   -0.39491E-04   -0.39405E-04  7296   0.128E-03 0.249E-05
CGA:  18    -0.287075087525E+03   -0.12803E-04   -0.12847E-04  7296   0.596E-04 0.111E-05
CGA:  19    -0.287075100406E+03   -0.12881E-04   -0.12796E-04  7296   0.562E-04 0.108E-05
CGA:  20    -0.287075107113E+03   -0.67069E-05   -0.67197E-05  7296   0.360E-04 0.579E-06
  15 F= -.28707511E+03 E0= -.28706775E+03  d E =-.170016E-01  mag=    18.0000
       N       E                     dE             d eps       ncg     rms          ort
SDA:   1    -0.286047171423E+03    0.10279E+01    0.00000E+00  7296   0.272E+01 0.000E+00
CGA:   2    -0.286692179975E+03   -0.64501E+00   -0.64552E+00  7296   0.261E+01-0.491E-02
CGA:   3    -0.286919423052E+03   -0.22724E+00   -0.22842E+00  7296   0.949E+00-0.298E-02
CGA:   4    -0.287033550045E+03   -0.11413E+00   -0.11406E+00  7296   0.261E+00-0.829E-03
CGA:   5    -0.287060596165E+03   -0.27046E-01   -0.27059E-01  7296   0.114E+00 0.408E-04
CGA:   6    -0.287072121347E+03   -0.11525E-01   -0.11528E-01  7296   0.286E-01 0.754E-05
CGA:   7    -0.287076180042E+03   -0.40587E-02   -0.40587E-02  7296   0.136E-01 0.102E-04
CGA:   8    -0.287077473765E+03   -0.12937E-02   -0.12935E-02  7296   0.456E-02 0.260E-05
CGA:   9    -0.287078160071E+03   -0.68631E-03   -0.68625E-03  7296   0.234E-02 0.397E-05
CGA:  10    -0.287078383470E+03   -0.22340E-03   -0.22338E-03  7296   0.886E-03 0.253E-06
CGA:  11    -0.287078542740E+03   -0.15927E-03   -0.15921E-03  7296   0.623E-03 0.138E-05
CGA:  12    -0.287078606114E+03   -0.63373E-04   -0.63387E-04  7296   0.299E-03 0.502E-06
CGA:  13    -0.287078662931E+03   -0.56817E-04   -0.56700E-04  7296   0.181E-03 0.218E-05
CGA:  14    -0.287078681731E+03   -0.18800E-04   -0.18835E-04  7296   0.889E-04 0.980E-06
CGA:  15    -0.287078696575E+03   -0.14844E-04   -0.14801E-04  7296   0.403E-04 0.148E-05
CGA:  16    -0.287078700653E+03   -0.40782E-05   -0.40926E-05  7296   0.182E-04 0.371E-06
  16 F= -.28707870E+03 E0= -.28707135E+03  d E =-.359354E-02  mag=    18.0000
       N       E                     dE             d eps       ncg     rms          ort
SDA:   1    -0.286686087617E+03    0.39261E+00    0.00000E+00  7296   0.982E+00 0.000E+00
CGA:   2    -0.286952566537E+03   -0.26648E+00   -0.26671E+00  7296   0.784E+00-0.170E-02
CGA:   3    -0.287029181011E+03   -0.76614E-01   -0.77129E-01  7296   0.312E+00 0.617E-03
CGA:   4    -0.287063745033E+03   -0.34564E-01   -0.34527E-01  7296   0.722E-01-0.248E-03
CGA:   5    -0.287072711640E+03   -0.89666E-02   -0.89660E-02  7296   0.308E-01-0.153E-04
CGA:   6    -0.287075514232E+03   -0.28026E-02   -0.28045E-02  7296   0.104E-01 0.125E-05
CGA:   7    -0.287076842562E+03   -0.13283E-02   -0.13283E-02  7296   0.433E-02-0.989E-06
CGA:   8    -0.287077263111E+03   -0.42055E-03   -0.42068E-03  7296   0.155E-02 0.182E-05
CGA:   9    -0.287077495452E+03   -0.23234E-03   -0.23234E-03  7296   0.689E-03 0.563E-06
CGA:  10    -0.287077565436E+03   -0.69983E-04   -0.70007E-04  7296   0.317E-03 0.542E-06
CGA:  11    -0.287077624182E+03   -0.58746E-04   -0.58732E-04  7296   0.172E-03 0.295E-06
CGA:  12    -0.287077644799E+03   -0.20617E-04   -0.20623E-04  7296   0.123E-03 0.376E-06
CGA:  13    -0.287077664222E+03   -0.19423E-04   -0.19412E-04  7296   0.595E-04 0.510E-06
CGA:  14    -0.287077670805E+03   -0.65836E-05   -0.65963E-05  7296   0.351E-04 0.481E-06
  17 F= -.28707767E+03 E0= -.28707033E+03  d E =0.102985E-02  mag=    18.0000
       N       E                     dE             d eps       ncg     rms          ort
SDA:   1    -0.286943860189E+03    0.13380E+00    0.00000E+00  7296   0.347E+00 0.000E+00
CGA:   2    -0.287028838255E+03   -0.84978E-01   -0.84991E-01  7296   0.352E+00-0.105E-03
CGA:   3    -0.287059396667E+03   -0.30558E-01   -0.30600E-01  7296   0.123E+00-0.860E-04
CGA:   4    -0.287074366707E+03   -0.14970E-01   -0.14969E-01  7296   0.300E-01-0.132E-04
CGA:   5    -0.287077498101E+03   -0.31314E-02   -0.31319E-02  7296   0.138E-01 0.421E-05
CGA:   6    -0.287078823978E+03   -0.13259E-02   -0.13257E-02  7296   0.342E-02-0.190E-05
CGA:   7    -0.287079353646E+03   -0.52967E-03   -0.52966E-03  7296   0.156E-02 0.843E-07
CGA:   8    -0.287079495912E+03   -0.14227E-03   -0.14223E-03  7296   0.574E-03-0.361E-06
CGA:   9    -0.287079584653E+03   -0.88742E-04   -0.88727E-04  7296   0.224E-03 0.636E-06
CGA:  10    -0.287079607423E+03   -0.22770E-04   -0.22774E-04  7296   0.121E-03 0.154E-06
CGA:  11    -0.287079627336E+03   -0.19913E-04   -0.19895E-04  7296   0.641E-04 0.546E-06
CGA:  12    -0.287079634743E+03   -0.74067E-05   -0.74093E-05  7296   0.423E-04 0.135E-06
  18 F= -.28707963E+03 E0= -.28707230E+03  d E =-.196394E-02  mag=    18.0000
       N       E                     dE             d eps       ncg     rms          ort
SDA:   1    -0.285667693027E+03    0.14119E+01    0.00000E+00  7296   0.360E+01 0.000E+00
CGA:   2    -0.286546931815E+03   -0.87924E+00   -0.87844E+00  7296   0.400E+01 0.694E-02
CGA:   3    -0.286878579221E+03   -0.33165E+00   -0.33033E+00  7296   0.115E+01 0.573E-02
CGA:   4    -0.287027644077E+03   -0.14906E+00   -0.14907E+00  7296   0.332E+00 0.159E-03
CGA:   5    -0.287059679278E+03   -0.32035E-01   -0.31999E-01  7296   0.136E+00-0.672E-04
CGA:   6    -0.287074533046E+03   -0.14854E-01   -0.14858E-01  7296   0.341E-01 0.506E-04
CGA:   7    -0.287079376853E+03   -0.48438E-02   -0.48439E-02  7296   0.186E-01-0.907E-05
CGA:   8    -0.287081099414E+03   -0.17226E-02   -0.17230E-02  7296   0.543E-02 0.282E-05
CGA:   9    -0.287081936897E+03   -0.83748E-03   -0.83747E-03  7296   0.297E-02 0.124E-05
CGA:  10    -0.287082227099E+03   -0.29020E-03   -0.29032E-03  7296   0.109E-02 0.262E-05
CGA:  11    -0.287082423298E+03   -0.19620E-03   -0.19611E-03  7296   0.916E-03 0.191E-05
CGA:  12    -0.287082517701E+03   -0.94404E-04   -0.94481E-04  7296   0.374E-03 0.237E-05
CGA:  13    -0.287082591420E+03   -0.73718E-04   -0.73561E-04  7296   0.313E-03 0.248E-05
CGA:  14    -0.287082621236E+03   -0.29817E-04   -0.29887E-04  7296   0.111E-03 0.168E-05
CGA:  15    -0.287082642816E+03   -0.21579E-04   -0.21488E-04  7296   0.633E-04 0.153E-05
CGA:  16    -0.287082648991E+03   -0.61752E-05   -0.61959E-05  7296   0.261E-04 0.516E-06
  19 F= -.28708265E+03 E0= -.28707534E+03  d E =-.301425E-02  mag=    18.0000
       N       E                     dE             d eps       ncg     rms          ort
SDA:   1    -0.286206420061E+03    0.87622E+00    0.00000E+00  7296   0.241E+01 0.000E+00
CGA:   2    -0.286716431727E+03   -0.51001E+00   -0.51017E+00  7296   0.200E+01-0.172E-02
CGA:   3    -0.286922835618E+03   -0.20640E+00   -0.20692E+00  7296   0.108E+01 0.194E-02
CGA:   4    -0.287037985784E+03   -0.11515E+00   -0.11510E+00  7296   0.238E+00-0.324E-03
CGA:   5    -0.287065499314E+03   -0.27514E-01   -0.27521E-01  7296   0.897E-01 0.117E-03
CGA:   6    -0.287074131990E+03   -0.86327E-02   -0.86237E-02  7296   0.273E-01-0.212E-04
CGA:   7    -0.287078145800E+03   -0.40138E-02   -0.40135E-02  7296   0.109E-01 0.172E-04
CGA:   8    -0.287079168145E+03   -0.10223E-02   -0.10221E-02  7296   0.502E-02 0.161E-05
CGA:   9    -0.287079869593E+03   -0.70145E-03   -0.70141E-03  7296   0.173E-02 0.426E-05
CGA:  10    -0.287080060174E+03   -0.19058E-03   -0.19059E-03  7296   0.963E-03 0.651E-06
CGA:  11    -0.287080208073E+03   -0.14790E-03   -0.14786E-03  7296   0.434E-03 0.168E-05
CGA:  12    -0.287080261393E+03   -0.53320E-04   -0.53324E-04  7296   0.333E-03 0.482E-06
CGA:  13    -0.287080311792E+03   -0.50400E-04   -0.50371E-04  7296   0.131E-03 0.150E-05
CGA:  14    -0.287080328626E+03   -0.16834E-04   -0.16837E-04  7296   0.982E-04 0.665E-06
CGA:  15    -0.287080341992E+03   -0.13366E-04   -0.13364E-04  7296   0.307E-04 0.993E-06
CGA:  16    -0.287080345955E+03   -0.39625E-05   -0.39639E-05  7296   0.227E-04 0.255E-06
  20 F= -.28708035E+03 E0= -.28707304E+03  d E =0.230304E-02  mag=    18.0000
       N       E                     dE             d eps       ncg     rms          ort
SDA:   1    -0.286895448316E+03    0.18489E+00    0.00000E+00  7296   0.475E+00 0.000E+00
CGA:   2    -0.287017499334E+03   -0.12205E+00   -0.12199E+00  7296   0.397E+00 0.450E-03
CGA:   3    -0.287056176847E+03   -0.38678E-01   -0.38577E-01  7296   0.157E+00-0.151E-03
CGA:   4    -0.287074050439E+03   -0.17874E-01   -0.17876E-01  7296   0.355E-01 0.381E-04
CGA:   5    -0.287078539038E+03   -0.44886E-02   -0.44887E-02  7296   0.147E-01 0.704E-05
CGA:   6    -0.287079935971E+03   -0.13969E-02   -0.13972E-02  7296   0.481E-02 0.231E-05
CGA:   7    -0.287080610754E+03   -0.67478E-03   -0.67479E-03  7296   0.169E-02-0.831E-06
CGA:   8    -0.287080785296E+03   -0.17454E-03   -0.17455E-03  7296   0.834E-03-0.267E-06
CGA:   9    -0.287080894422E+03   -0.10913E-03   -0.10913E-03  7296   0.317E-03-0.160E-06
CGA:  10    -0.287080927767E+03   -0.33345E-04   -0.33354E-04  7296   0.168E-03 0.294E-06
CGA:  11    -0.287080956625E+03   -0.28859E-04   -0.28837E-04  7296   0.793E-04 0.527E-06
CGA:  12    -0.287080967108E+03   -0.10483E-04   -0.10483E-04  7296   0.626E-04 0.269E-06
CGA:  13    -0.287080976652E+03   -0.95441E-05   -0.95411E-05  7296   0.226E-04 0.147E-06
  21 F= -.28708098E+03 E0= -.28707367E+03  d E =-.630698E-03  mag=    18.0000
