       N       E                     dE             d eps       ncg     rms          rms(c)
DAV:   1     0.872176347864E+04    0.87218E+04   -0.39971E+05 35840   0.176E+03
DAV:   2     0.626202021410E+03   -0.80956E+04   -0.76100E+04 33968   0.539E+02
DAV:   3    -0.303314889206E+03   -0.92952E+03   -0.88979E+03 35360   0.200E+02
DAV:   4    -0.344739751865E+03   -0.41425E+02   -0.41118E+02 37648   0.417E+01
DAV:   5    -0.347216497754E+03   -0.24767E+01   -0.24649E+01 57544   0.746E+00    0.579E+00
DAV:   6    -0.348787300595E+03   -0.15708E+01   -0.21937E+00 42520   0.786E+00    0.112E+01
DAV:   7    -0.348763105802E+03    0.24195E-01   -0.17577E+00 40664   0.659E+00    0.112E+01
DAV:   8    -0.348612534816E+03    0.15057E+00   -0.23166E+00 40280   0.380E+00    0.696E+00
DAV:   9    -0.348598881740E+03    0.13653E-01   -0.76595E-01 40888   0.250E+00    0.549E+00
DAV:  10    -0.348619432627E+03   -0.20551E-01   -0.40375E-01 40056   0.208E+00    0.622E+00
DAV:  11    -0.348581568110E+03    0.37865E-01   -0.15639E-01 38256   0.164E+00    0.229E+00
DAV:  12    -0.348593799646E+03   -0.12232E-01   -0.28664E-02 42376   0.735E-01    0.162E+00
DAV:  13    -0.348597880058E+03   -0.40804E-02   -0.23164E-02 40944   0.681E-01    0.158E+00
DAV:  14    -0.348598984418E+03   -0.11044E-02   -0.18013E-02 40048   0.404E-01    0.176E+00
DAV:  15    -0.348596454981E+03    0.25294E-02   -0.81196E-03 38312   0.318E-01    0.123E+00
DAV:  16    -0.348597362831E+03   -0.90785E-03   -0.15721E-03 41968   0.220E-01    0.103E+00
DAV:  17    -0.348598048374E+03   -0.68554E-03   -0.12144E-03 41168   0.199E-01    0.956E-01
DAV:  18    -0.348598278603E+03   -0.23023E-03   -0.63478E-04 39248   0.117E-01    0.851E-01
DAV:  19    -0.348598373372E+03   -0.94769E-04   -0.31542E-04 40072   0.871E-02    0.738E-01
DAV:  20    -0.348598736306E+03   -0.36293E-03   -0.21204E-04 35616   0.649E-02    0.664E-01
DAV:  21    -0.348599002599E+03   -0.26629E-03   -0.11048E-04 30936   0.503E-02    0.635E-01
DAV:  22    -0.348599184269E+03   -0.18167E-03   -0.13593E-04 32400   0.568E-02    0.540E-01
DAV:  23    -0.348599362362E+03   -0.17809E-03   -0.11420E-04 35088   0.470E-02    0.437E-01
DAV:  24    -0.348599497070E+03   -0.13471E-03   -0.71550E-05 30464   0.343E-02    0.375E-01
DAV:  25    -0.348599649709E+03   -0.15264E-03   -0.54465E-05 29184   0.381E-02    0.293E-01
DAV:  26    -0.348599734360E+03   -0.84651E-04   -0.59684E-05 31696   0.369E-02    0.222E-01
DAV:  27    -0.348599805235E+03   -0.70875E-04   -0.61477E-05 31296   0.364E-02    0.149E-01
DAV:  28    -0.348599839953E+03   -0.34718E-04   -0.43576E-05 25616   0.249E-02    0.102E-01
DAV:  29    -0.348599857155E+03   -0.17202E-04   -0.20708E-05 20520   0.203E-02    0.630E-02
DAV:  30    -0.348599866391E+03   -0.92362E-05   -0.15837E-05 20040   0.158E-02
   1 F= -.34859987E+03 E0= -.34857500E+03  d E =-.348600E+03  mag=    33.3971
