       N       E                     dE             d eps       ncg     rms          rms(c)
DAV:   1     0.640837819953E+04    0.64084E+04   -0.30095E+05 37408   0.170E+03
DAV:   2     0.359916718297E+03   -0.60485E+04   -0.56597E+04 35552   0.512E+02
DAV:   3    -0.291560005512E+03   -0.65148E+03   -0.63128E+03 37352   0.189E+02
DAV:   4    -0.311287236453E+03   -0.19727E+02   -0.19562E+02 38312   0.354E+01
DAV:   5    -0.311736580393E+03   -0.44934E+00   -0.44745E+00 45752   0.522E+00    0.880E+01
DAV:   6    -0.248773872146E+03    0.62963E+02   -0.67502E+02 43168   0.114E+02    0.215E+02
DAV:   7    -0.208111851297E+03    0.40662E+02   -0.13010E+02 41536   0.488E+01    0.104E+02
DAV:   8    -0.292808476306E+03   -0.84697E+02   -0.23137E+02 48624   0.885E+01    0.155E+02
DAV:   9    -0.220190108460E+03    0.72618E+02   -0.17966E+02 44776   0.726E+01    0.107E+02
DAV:  10    -0.195737689327E+03    0.24452E+02   -0.10058E+02 43344   0.436E+01    0.105E+02
DAV:  11    -0.194180260238E+03    0.15574E+01   -0.11992E+02 41568   0.394E+01    0.782E+01
DAV:  12    -0.202197746570E+03   -0.80175E+01   -0.99359E+01 43192   0.390E+01    0.774E+01
DAV:  13    -0.207870244009E+03   -0.56725E+01   -0.28739E+01 40032   0.338E+01    0.841E+01
DAV:  14    -0.206271668778E+03    0.15986E+01   -0.26060E+01 44192   0.220E+01    0.840E+01
DAV:  15    -0.199321358187E+03    0.69503E+01   -0.12075E+01 43496   0.257E+01    0.758E+01
DAV:  16    -0.199810504092E+03   -0.48915E+00   -0.55583E+01 44696   0.183E+01    0.686E+01
DAV:  17    -0.197407530795E+03    0.24030E+01   -0.44406E+00 42784   0.135E+01    0.567E+01
DAV:  18    -0.198700145505E+03   -0.12926E+01   -0.67183E+00 42448   0.139E+01    0.503E+01
DAV:  19    -0.201241732684E+03   -0.25416E+01   -0.18259E+01 44192   0.131E+01    0.536E+01
DAV:  20    -0.203521604404E+03   -0.22799E+01   -0.24081E+01 42616   0.168E+01    0.409E+01
DAV:  21    -0.204198500400E+03   -0.67690E+00   -0.36268E+00 44280   0.913E+00    0.350E+01
DAV:  22    -0.205016308224E+03   -0.81781E+00   -0.11135E+00 42344   0.459E+00    0.317E+01
DAV:  23    -0.206955004361E+03   -0.19387E+01   -0.28434E+00 42136   0.563E+00    0.297E+01
DAV:  24    -0.210303285654E+03   -0.33483E+01   -0.75489E+00 42384   0.967E+00    0.235E+01
DAV:  25    -0.210355317514E+03   -0.52032E-01   -0.17131E+00 40280   0.569E+00    0.174E+01
DAV:  26    -0.211033542454E+03   -0.67822E+00   -0.10294E+00 42256   0.553E+00    0.198E+01
DAV:  27    -0.211945528672E+03   -0.91199E+00   -0.39583E-01 41904   0.289E+00    0.192E+01
DAV:  28    -0.213301160363E+03   -0.13556E+01   -0.32599E-01 40928   0.279E+00    0.180E+01
DAV:  29    -0.214152708826E+03   -0.85155E+00   -0.18313E-01 40912   0.181E+00    0.174E+01
DAV:  30    -0.215456504876E+03   -0.13038E+01   -0.42465E-01 42168   0.294E+00    0.158E+01
DAV:  31    -0.218404315358E+03   -0.29478E+01   -0.15950E+00 42488   0.509E+00    0.155E+01
DAV:  32    -0.221498342302E+03   -0.30940E+01   -0.33407E+00 40904   0.657E+00    0.161E+01
DAV:  33    -0.222024674636E+03   -0.52633E+00   -0.57283E-01 40776   0.328E+00    0.153E+01
DAV:  34    -0.221966055644E+03    0.58619E-01   -0.11548E-01 39488   0.179E+00    0.139E+01
DAV:  35    -0.222313131627E+03   -0.34708E+00   -0.34483E-01 44208   0.283E+00    0.112E+01
DAV:  36    -0.223048511288E+03   -0.73538E+00   -0.56848E-01 42008   0.389E+00    0.109E+01
DAV:  37    -0.223492078866E+03   -0.44357E+00   -0.56496E-01 39888   0.410E+00    0.107E+01
DAV:  38    -0.223549485836E+03   -0.57407E-01   -0.14592E-01 40760   0.226E+00    0.913E+00
DAV:  39    -0.223590225121E+03   -0.40739E-01   -0.44736E-02 40272   0.926E-01    0.828E+00
DAV:  40    -0.223647234832E+03   -0.57010E-01   -0.69694E-02 39872   0.153E+00    0.795E+00
DAV:  41    -0.223641105160E+03    0.61297E-02   -0.74087E-02 43544   0.128E+00    0.692E+00
DAV:  42    -0.223656326769E+03   -0.15222E-01   -0.76829E-02 41904   0.129E+00    0.554E+00
DAV:  43    -0.223644435429E+03    0.11891E-01   -0.54146E-02 44976   0.105E+00    0.455E+00
DAV:  44    -0.223644449150E+03   -0.13721E-04   -0.20458E-02 44552   0.641E-01    0.422E+00
DAV:  45    -0.223630557046E+03    0.13892E-01   -0.20571E-02 43184   0.860E-01    0.341E+00
DAV:  46    -0.223617768286E+03    0.12789E-01   -0.32518E-02 45568   0.935E-01    0.192E+00
DAV:  47    -0.223618959588E+03   -0.11913E-02   -0.16099E-02 44024   0.665E-01    0.184E+00
DAV:  48    -0.223620847034E+03   -0.18874E-02   -0.40112E-03 37592   0.293E-01    0.184E+00
DAV:  49    -0.223621054643E+03   -0.20761E-03   -0.12379E-03 44632   0.153E-01    0.178E+00
DAV:  50    -0.223620738007E+03    0.31664E-03   -0.30089E-04 35936   0.792E-02    0.190E+00
DAV:  51    -0.223616067495E+03    0.46705E-02   -0.23387E-02 43608   0.875E-01    0.137E+00
DAV:  52    -0.223617750136E+03   -0.16826E-02   -0.77214E-03 43648   0.392E-01    0.130E+00
DAV:  53    -0.223615014682E+03    0.27355E-02   -0.61543E-03 43432   0.395E-01    0.934E-01
DAV:  54    -0.223615174189E+03   -0.15951E-03   -0.27810E-03 44464   0.208E-01    0.960E-01
DAV:  55    -0.223615491028E+03   -0.31684E-03   -0.87008E-04 43744   0.120E-01    0.899E-01
DAV:  56    -0.223615728843E+03   -0.23781E-03   -0.68215E-03 44672   0.543E-01    0.135E+00
DAV:  57    -0.223614914766E+03    0.81408E-03   -0.19826E-03 41424   0.339E-01    0.885E-01
DAV:  58    -0.223614704530E+03    0.21024E-03   -0.12021E-03 45736   0.183E-01    0.420E-01
DAV:  59    -0.223615021610E+03   -0.31708E-03   -0.90726E-04 43544   0.172E-01    0.309E-01
DAV:  60    -0.223615066144E+03   -0.44535E-04   -0.48681E-04 43776   0.120E-01    0.239E-01
DAV:  61    -0.223614898655E+03    0.16749E-03   -0.86997E-04 44680   0.204E-01    0.292E-01
DAV:  62    -0.223615024778E+03   -0.12612E-03   -0.32771E-04 40792   0.835E-02    0.224E-01
DAV:  63    -0.223614992337E+03    0.32442E-04   -0.91558E-05 36584   0.553E-02    0.106E-01
DAV:  64    -0.223615024100E+03   -0.31763E-04   -0.42571E-05 30056   0.324E-02    0.629E-02
DAV:  65    -0.223615039034E+03   -0.14934E-04   -0.30497E-05 23840   0.357E-02    0.909E-02
DAV:  66    -0.223615029017E+03    0.10017E-04   -0.30089E-05 21584   0.268E-02    0.703E-02
DAV:  67    -0.223615032021E+03   -0.30042E-05   -0.10285E-05 20960   0.207E-02
   1 F= -.22361503E+03 E0= -.22359754E+03  d E =-.223615E+03  mag=     8.9896
       N       E                     dE             d eps       ncg     rms          rms(c)
DAV:   1    -0.223707233237E+03   -0.92204E-01   -0.25408E-02 33928   0.347E-01    0.780E-02
DAV:   2    -0.223707872812E+03   -0.63957E-03   -0.19495E-03 38152   0.173E-01    0.788E-01
DAV:   3    -0.223706742378E+03    0.11304E-02   -0.80416E-04 37032   0.172E-01    0.184E-01
DAV:   4    -0.223707207974E+03   -0.46560E-03   -0.12122E-04 32744   0.567E-02    0.890E-02
DAV:   5    -0.223707312060E+03   -0.10409E-03   -0.10252E-04 28512   0.482E-02    0.815E-02
DAV:   6    -0.223707323668E+03   -0.11608E-04   -0.38438E-05 22344   0.318E-02    0.707E-02
DAV:   7    -0.223707326395E+03   -0.27264E-05   -0.13374E-05 21032   0.202E-02
   2 F= -.22370733E+03 E0= -.22368985E+03  d E =-.922944E-01  mag=     8.9926
       N       E                     dE             d eps       ncg     rms          rms(c)
DAV:   1    -0.225451631672E+03   -0.17443E+01   -0.13807E+01 33712   0.808E+00    0.118E+00
DAV:   2    -0.225515473563E+03   -0.63842E-01   -0.80640E-01 37272   0.202E+00    0.305E+00
DAV:   3    -0.225511461343E+03    0.40122E-02   -0.93467E-02 44232   0.147E+00    0.321E+00
DAV:   4    -0.225510236688E+03    0.12247E-02   -0.28256E-02 39952   0.132E+00    0.232E+00
DAV:   5    -0.225503133368E+03    0.71033E-02   -0.24873E-02 39424   0.104E+00    0.104E+00
DAV:   6    -0.225505921612E+03   -0.27882E-02   -0.13981E-02 40080   0.980E-01    0.131E+00
DAV:   7    -0.225504422230E+03    0.14994E-02   -0.17540E-02 44360   0.804E-01    0.146E+00
DAV:   8    -0.225505113671E+03   -0.69144E-03   -0.60782E-03 42088   0.464E-01    0.208E+00
DAV:   9    -0.225503559943E+03    0.15537E-02   -0.12900E-03 39464   0.203E-01    0.236E+00
DAV:  10    -0.225502704722E+03    0.85522E-03   -0.44658E-04 37880   0.814E-02    0.267E+00
DAV:  11    -0.225498425069E+03    0.42797E-02   -0.14885E-03 40328   0.209E-01    0.196E+00
DAV:  12    -0.225498125233E+03    0.29984E-03   -0.24648E-03 42648   0.334E-01    0.569E-01
DAV:  13    -0.225501718620E+03   -0.35934E-02   -0.32052E-03 38112   0.338E-01    0.352E-01
DAV:  14    -0.225502623801E+03   -0.90518E-03   -0.11966E-03 41632   0.167E-01    0.368E-01
DAV:  15    -0.225502529820E+03    0.93981E-04   -0.25702E-04 40216   0.804E-02    0.305E-01
DAV:  16    -0.225502517418E+03    0.12402E-04   -0.17904E-04 34616   0.710E-02    0.466E-01
DAV:  17    -0.225502287043E+03    0.23037E-03   -0.30301E-04 35840   0.859E-02    0.477E-01
DAV:  18    -0.225502166075E+03    0.12097E-03   -0.13010E-04 34872   0.691E-02    0.510E-01
DAV:  19    -0.225502164323E+03    0.17526E-05   -0.40883E-05 26952   0.389E-02
   3 F= -.22550216E+03 E0= -.22548466E+03  d E =-.179484E+01  mag=     9.0024
       N       E                     dE             d eps       ncg     rms          rms(c)
DAV:   1    -0.227483974400E+03   -0.19818E+01   -0.67576E+01 33712   0.209E+01    0.235E+00
DAV:   2    -0.227874182312E+03   -0.39021E+00   -0.44936E+00 36600   0.438E+00    0.305E+00
DAV:   3    -0.227920444719E+03   -0.46262E-01   -0.42978E-01 46032   0.295E+00    0.643E+00
DAV:   4    -0.227883910329E+03    0.36534E-01   -0.15269E-01 38712   0.216E+00    0.504E+00
DAV:   5    -0.227847321608E+03    0.36589E-01   -0.56443E-02 38600   0.192E+00    0.134E+00
DAV:   6    -0.227868572886E+03   -0.21251E-01   -0.87970E-02 44296   0.154E+00    0.355E+00
DAV:   7    -0.227857072411E+03    0.11500E-01   -0.32531E-01 43280   0.161E+00    0.206E+00
DAV:   8    -0.227860894434E+03   -0.38220E-02   -0.27925E-02 41360   0.137E+00    0.338E+00
DAV:   9    -0.227860034315E+03    0.86012E-03   -0.12425E-02 41536   0.734E-01    0.379E+00
DAV:  10    -0.227855256680E+03    0.47776E-02   -0.28981E-03 38296   0.252E-01    0.402E+00
DAV:  11    -0.227854687473E+03    0.56921E-03   -0.54642E-03 43752   0.451E-01    0.459E+00
DAV:  12    -0.227847521305E+03    0.71662E-02   -0.44844E-03 41096   0.353E-01    0.447E+00
DAV:  13    -0.227846785891E+03    0.73541E-03   -0.69755E-04 37608   0.661E-02    0.447E+00
DAV:  14    -0.227846866731E+03   -0.80841E-04   -0.15818E-04 36440   0.494E-02    0.459E+00
DAV:  15    -0.227837651065E+03    0.92157E-02   -0.26213E-03 44352   0.338E-01    0.332E+00
DAV:  16    -0.227840206549E+03   -0.25555E-02   -0.68525E-03 43400   0.427E-01    0.165E+00
DAV:  17    -0.227846314945E+03   -0.61084E-02   -0.63919E-03 39256   0.425E-01    0.865E-01
DAV:  18    -0.227849968881E+03   -0.36539E-02   -0.29574E-03 39312   0.342E-01    0.864E-01
DAV:  19    -0.227850379405E+03   -0.41052E-03   -0.16709E-03 42520   0.239E-01    0.554E-01
DAV:  20    -0.227850392431E+03   -0.13026E-04   -0.50113E-04 45024   0.161E-01    0.456E-01
DAV:  21    -0.227850440802E+03   -0.48371E-04   -0.43960E-04 38480   0.148E-01    0.456E-01
DAV:  22    -0.227850398362E+03    0.42439E-04   -0.38472E-04 37520   0.115E-01    0.417E-01
DAV:  23    -0.227850358127E+03    0.40236E-04   -0.29292E-04 34736   0.112E-01    0.407E-01
DAV:  24    -0.227850396596E+03   -0.38469E-04   -0.74997E-05 29336   0.649E-02    0.390E-01
DAV:  25    -0.227850401454E+03   -0.48585E-05   -0.39263E-05 25448   0.516E-02
   4 F= -.22785040E+03 E0= -.22783316E+03  d E =-.234824E+01  mag=     9.0160
       N       E                     dE             d eps       ncg     rms          rms(c)
DAV:   1    -0.228471656188E+03   -0.62126E+00   -0.73264E+01 34384   0.294E+01    0.239E+00
DAV:   2    -0.229059983736E+03   -0.58833E+00   -0.62536E+00 36808   0.581E+00    0.284E+00
DAV:   3    -0.229083844165E+03   -0.23860E-01   -0.32171E-01 45736   0.310E+00    0.437E+00
DAV:   4    -0.229050843036E+03    0.33001E-01   -0.11390E-01 39800   0.207E+00    0.283E+00
DAV:   5    -0.229047192264E+03    0.36508E-02   -0.29642E-02 40640   0.911E-01    0.181E+00
DAV:   6    -0.229052046959E+03   -0.48547E-02   -0.43378E-02 40136   0.121E+00    0.255E+00
DAV:   7    -0.229044667418E+03    0.73795E-02   -0.10726E-02 43408   0.592E-01    0.225E+00
DAV:   8    -0.229042913501E+03    0.17539E-02   -0.14281E-03 37952   0.111E-01    0.242E+00
DAV:   9    -0.229035009415E+03    0.79041E-02   -0.32243E-02 44664   0.738E-01    0.218E+00
DAV:  10    -0.229038968599E+03   -0.39592E-02   -0.38034E-02 43640   0.112E+00    0.149E+00
DAV:  11    -0.229043861154E+03   -0.48926E-02   -0.37019E-02 40128   0.930E-01    0.211E+00
DAV:  12    -0.229041738004E+03    0.21231E-02   -0.11166E-02 41360   0.455E-01    0.227E+00
DAV:  13    -0.229039336860E+03    0.24011E-02   -0.17463E-03 42112   0.182E-01    0.246E+00
DAV:  14    -0.229037476485E+03    0.18604E-02   -0.35287E-04 35632   0.636E-02    0.259E+00
DAV:  15    -0.229035636200E+03    0.18403E-02   -0.56696E-04 42304   0.187E-01    0.225E+00
DAV:  16    -0.229035776493E+03   -0.14029E-03   -0.13146E-03 42048   0.275E-01    0.184E+00
DAV:  17    -0.229037487961E+03   -0.17115E-02   -0.13659E-03 42440   0.219E-01    0.158E+00
DAV:  18    -0.229039667757E+03   -0.21798E-02   -0.15054E-03 42552   0.319E-01    0.175E+00
DAV:  19    -0.229039642390E+03    0.25367E-04   -0.14160E-03 45296   0.279E-01    0.180E+00
DAV:  20    -0.229038296012E+03    0.13464E-02   -0.10665E-03 42936   0.204E-01    0.143E+00
DAV:  21    -0.229038129445E+03    0.16657E-03   -0.65500E-04 40624   0.155E-01    0.107E+00
DAV:  22    -0.229038646740E+03   -0.51729E-03   -0.33068E-04 37800   0.117E-01    0.104E+00
DAV:  23    -0.229038893539E+03   -0.24680E-03   -0.16290E-04 40384   0.837E-02    0.115E+00
DAV:  24    -0.229039120583E+03   -0.22704E-03   -0.12393E-04 35304   0.698E-02    0.134E+00
DAV:  25    -0.229039006655E+03    0.11393E-03   -0.10634E-04 36416   0.787E-02    0.143E+00
DAV:  26    -0.229038804104E+03    0.20255E-03   -0.37650E-05 29104   0.450E-02    0.143E+00
DAV:  27    -0.229038569836E+03    0.23427E-03   -0.19232E-05 24656   0.240E-02    0.141E+00
DAV:  28    -0.229038332193E+03    0.23764E-03   -0.40605E-05 29200   0.318E-02    0.141E+00
DAV:  29    -0.229038247253E+03    0.84939E-04   -0.17402E-05 25424   0.177E-02    0.141E+00
DAV:  30    -0.229038187279E+03    0.59974E-04   -0.10640E-05 21656   0.156E-02    0.146E+00
DAV:  31    -0.229038333614E+03   -0.14633E-03   -0.24599E-05 23664   0.259E-02    0.138E+00
DAV:  32    -0.229038428647E+03   -0.95033E-04   -0.15866E-05 24792   0.153E-02    0.133E+00
DAV:  33    -0.229038948564E+03   -0.51992E-03   -0.15494E-04 38200   0.505E-02    0.119E+00
DAV:  34    -0.229039933126E+03   -0.98456E-03   -0.64473E-04 41768   0.102E-01    0.937E-01
DAV:  35    -0.229040486213E+03   -0.55309E-03   -0.50953E-04 43160   0.787E-02    0.708E-01
DAV:  36    -0.229040983370E+03   -0.49716E-03   -0.39090E-04 40952   0.779E-02    0.471E-01
DAV:  37    -0.229041189936E+03   -0.20657E-03   -0.16844E-04 38144   0.438E-02    0.384E-01
DAV:  38    -0.229041400705E+03   -0.21077E-03   -0.17640E-04 38656   0.558E-02    0.259E-01
DAV:  39    -0.229041482243E+03   -0.81538E-04   -0.24391E-04 39992   0.575E-02    0.107E-01
DAV:  40    -0.229041511223E+03   -0.28980E-04   -0.10824E-04 36880   0.352E-02    0.146E-02
DAV:  41    -0.229041529826E+03   -0.18603E-04   -0.15140E-05 23744   0.130E-02    0.165E-02
DAV:  42    -0.229041530702E+03   -0.87629E-06   -0.26118E-06 19296   0.607E-03
   5 F= -.22904153E+03 E0= -.22902431E+03  d E =-.119113E+01  mag=     9.0102
       N       E                     dE             d eps       ncg     rms          rms(c)
DAV:   1    -0.228169467316E+03    0.87206E+00   -0.12904E+02 36680   0.519E+01    0.407E+00
DAV:   2    -0.229959146818E+03   -0.17897E+01   -0.18092E+01 36544   0.107E+01    0.804E+00
DAV:   3    -0.230082611039E+03   -0.12346E+00   -0.32119E+00 44232   0.628E+00    0.810E+00
DAV:   4    -0.229921319374E+03    0.16129E+00   -0.69506E-01 39712   0.446E+00    0.397E+00
DAV:   5    -0.229898124465E+03    0.23195E-01   -0.23544E-01 38632   0.283E+00    0.348E+00
DAV:   6    -0.229889564344E+03    0.85601E-02   -0.66812E-02 44712   0.127E+00    0.220E+00
DAV:   7    -0.229892146446E+03   -0.25821E-02   -0.38000E-02 43480   0.131E+00    0.211E+00
DAV:   8    -0.229904221161E+03   -0.12075E-01   -0.35177E-02 43568   0.141E+00    0.408E+00
DAV:   9    -0.229893954489E+03    0.10267E-01   -0.21932E-02 40472   0.977E-01    0.324E+00
DAV:  10    -0.229889052353E+03    0.49021E-02   -0.92539E-03 43408   0.686E-01    0.298E+00
DAV:  11    -0.229887983866E+03    0.10685E-02   -0.20013E-03 43624   0.289E-01    0.296E+00
DAV:  12    -0.229885860061E+03    0.21238E-02   -0.32652E-03 43704   0.419E-01    0.237E+00
DAV:  13    -0.229885807712E+03    0.52349E-04   -0.15621E-02 43248   0.867E-01    0.180E+00
DAV:  14    -0.229891166641E+03   -0.53589E-02   -0.13579E-02 40168   0.876E-01    0.234E+00
DAV:  15    -0.229884989828E+03    0.61768E-02   -0.10053E-02 42760   0.649E-01    0.140E+00
DAV:  16    -0.229885821761E+03   -0.83193E-03   -0.41069E-03 43912   0.366E-01    0.521E-01
DAV:  17    -0.229888271356E+03   -0.24496E-02   -0.15577E-03 40448   0.274E-01    0.313E-01
DAV:  18    -0.229888921124E+03   -0.64977E-03   -0.53011E-04 36056   0.103E-01    0.302E-01
DAV:  19    -0.229888991228E+03   -0.70105E-04   -0.20018E-04 38368   0.777E-02    0.512E-01
DAV:  20    -0.229888916199E+03    0.75030E-04   -0.22844E-04 38464   0.739E-02    0.759E-01
DAV:  21    -0.229888622254E+03    0.29394E-03   -0.11716E-04 35192   0.571E-02    0.863E-01
DAV:  22    -0.229888323329E+03    0.29893E-03   -0.66791E-04 43312   0.152E-01    0.787E-01
DAV:  23    -0.229888082288E+03    0.24104E-03   -0.56652E-04 42008   0.148E-01    0.310E-01
DAV:  24    -0.229888645891E+03   -0.56360E-03   -0.33003E-04 39240   0.103E-01    0.147E-01
DAV:  25    -0.229888881651E+03   -0.23576E-03   -0.16086E-04 37728   0.885E-02    0.214E-01
DAV:  26    -0.229888847360E+03    0.34291E-04   -0.85547E-05 34704   0.460E-02    0.151E-01
DAV:  27    -0.229888835491E+03    0.11869E-04   -0.66193E-05 29808   0.350E-02    0.502E-02
DAV:  28    -0.229888862931E+03   -0.27441E-04   -0.22453E-05 25792   0.305E-02    0.737E-02
DAV:  29    -0.229888854057E+03    0.88747E-05   -0.15681E-05 22152   0.287E-02
   6 F= -.22988885E+03 E0= -.22987175E+03  d E =-.847323E+00  mag=     9.0181
       N       E                     dE             d eps       ncg     rms          rms(c)
DAV:   1    -0.227493273476E+03    0.23956E+01   -0.17412E+02 36776   0.673E+01    0.571E+00
DAV:   2    -0.230647960899E+03   -0.31547E+01   -0.30478E+01 35320   0.149E+01    0.160E+01
DAV:   3    -0.230637024811E+03    0.10936E-01   -0.81363E+00 44128   0.851E+00    0.961E+00
DAV:   4    -0.230535114744E+03    0.10191E+00   -0.29704E+00 39872   0.679E+00    0.723E+00
DAV:   5    -0.230408129296E+03    0.12699E+00   -0.58066E-01 38848   0.462E+00    0.427E+00
DAV:   6    -0.230394033378E+03    0.14096E-01   -0.13867E-01 44480   0.199E+00    0.353E+00
DAV:   7    -0.230386578027E+03    0.74554E-02   -0.63808E-02 44840   0.144E+00    0.252E+00
DAV:   8    -0.230383390282E+03    0.31877E-02   -0.27789E-02 43464   0.120E+00    0.209E+00
DAV:   9    -0.230382817616E+03    0.57267E-03   -0.15564E-02 44088   0.773E-01    0.245E+00
DAV:  10    -0.230381914663E+03    0.90295E-03   -0.30452E-03 36832   0.221E-01    0.304E+00
DAV:  11    -0.230387026706E+03   -0.51120E-02   -0.36535E-02 42800   0.148E+00    0.386E+00
DAV:  12    -0.230373102628E+03    0.13924E-01   -0.85294E-02 43344   0.169E+00    0.192E+00
DAV:  13    -0.230385704362E+03   -0.12602E-01   -0.43189E-02 39488   0.947E-01    0.228E+00
DAV:  14    -0.230385598048E+03    0.10631E-03   -0.84109E-03 39688   0.538E-01    0.258E+00
DAV:  15    -0.230381348255E+03    0.42498E-02   -0.25101E-03 36248   0.187E-01    0.297E+00
DAV:  16    -0.230373438232E+03    0.79100E-02   -0.24566E-03 42344   0.317E-01    0.311E+00
DAV:  17    -0.230370654039E+03    0.27842E-02   -0.52095E-03 43200   0.575E-01    0.326E+00
DAV:  18    -0.230374144502E+03   -0.34905E-02   -0.50652E-03 43080   0.534E-01    0.387E+00
DAV:  19    -0.230367859652E+03    0.62849E-02   -0.18815E-03 40840   0.248E-01    0.404E+00
DAV:  20    -0.230362448226E+03    0.54114E-02   -0.97767E-04 43960   0.136E-01    0.395E+00
DAV:  21    -0.230361086934E+03    0.13613E-02   -0.16766E-04 36216   0.448E-02    0.399E+00
DAV:  22    -0.230360127335E+03    0.95960E-03   -0.33302E-04 39800   0.107E-01    0.372E+00
DAV:  23    -0.230363070035E+03   -0.29427E-02   -0.17103E-03 43320   0.257E-01    0.333E+00
DAV:  24    -0.230370542847E+03   -0.74728E-02   -0.16274E-03 43736   0.221E-01    0.294E+00
DAV:  25    -0.230375548845E+03   -0.50060E-02   -0.95282E-04 42000   0.242E-01    0.281E+00
DAV:  26    -0.230378947605E+03   -0.33988E-02   -0.69079E-04 42752   0.148E-01    0.255E+00
DAV:  27    -0.230380705181E+03   -0.17576E-02   -0.36587E-04 38912   0.706E-02    0.232E+00
DAV:  28    -0.230381750463E+03   -0.10453E-02   -0.18029E-04 37168   0.580E-02    0.234E+00
DAV:  29    -0.230382869933E+03   -0.11195E-02   -0.20869E-04 40616   0.655E-02    0.249E+00
DAV:  30    -0.230383266236E+03   -0.39630E-03   -0.22183E-04 41424   0.720E-02    0.246E+00
DAV:  31    -0.230383414698E+03   -0.14846E-03   -0.13993E-04 39008   0.777E-02    0.238E+00
DAV:  32    -0.230383849997E+03   -0.43530E-03   -0.69702E-05 35872   0.446E-02    0.233E+00
DAV:  33    -0.230384757971E+03   -0.90797E-03   -0.10378E-04 37792   0.414E-02    0.227E+00
DAV:  34    -0.230385585409E+03   -0.82744E-03   -0.23718E-04 40048   0.586E-02    0.209E+00
DAV:  35    -0.230386614216E+03   -0.10288E-02   -0.42233E-04 40112   0.766E-02    0.185E+00
DAV:  36    -0.230387522782E+03   -0.90857E-03   -0.59220E-04 40304   0.899E-02    0.153E+00
DAV:  37    -0.230388118879E+03   -0.59610E-03   -0.46266E-04 39704   0.771E-02    0.118E+00
DAV:  38    -0.230389142684E+03   -0.10238E-02   -0.70999E-04 38712   0.105E-01    0.814E-01
DAV:  39    -0.230389859289E+03   -0.71660E-03   -0.53891E-04 39944   0.819E-02    0.413E-01
DAV:  40    -0.230390471572E+03   -0.61228E-03   -0.16970E-04 35824   0.450E-02    0.198E-01
DAV:  41    -0.230390761538E+03   -0.28997E-03   -0.36826E-05 30160   0.249E-02    0.123E-01
DAV:  42    -0.230390845824E+03   -0.84286E-04   -0.69806E-06 22336   0.117E-02    0.100E-01
DAV:  43    -0.230390928119E+03   -0.82296E-04   -0.15873E-05 24008   0.187E-02    0.949E-02
DAV:  44    -0.230390967608E+03   -0.39489E-04   -0.12391E-05 23304   0.139E-02    0.178E-01
DAV:  45    -0.230390971786E+03   -0.41778E-05   -0.78451E-06 21560   0.115E-02
   7 F= -.23039097E+03 E0= -.23037409E+03  d E =-.502118E+00  mag=     9.0152
       N       E                     dE             d eps       ncg     rms          rms(c)
DAV:   1    -0.228510525871E+03    0.18804E+01   -0.20351E+02 34208   0.591E+01    0.512E+00
DAV:   2    -0.230883320587E+03   -0.23728E+01   -0.22492E+01 35688   0.130E+01    0.154E+01
DAV:   3    -0.230785890984E+03    0.97430E-01   -0.53556E+00 41848   0.694E+00    0.831E+00
DAV:   4    -0.230779615146E+03    0.62758E-02   -0.22035E+00 40328   0.582E+00    0.710E+00
DAV:   5    -0.230658930155E+03    0.12068E+00   -0.33222E-01 39584   0.416E+00    0.379E+00
DAV:   6    -0.230645977326E+03    0.12953E-01   -0.78314E-02 44832   0.169E+00    0.332E+00
DAV:   7    -0.230641631451E+03    0.43459E-02   -0.60801E-02 43536   0.160E+00    0.277E+00
DAV:   8    -0.230637851052E+03    0.37804E-02   -0.47542E-02 43024   0.152E+00    0.236E+00
DAV:   9    -0.230640241786E+03   -0.23907E-02   -0.62750E-02 44656   0.149E+00    0.316E+00
DAV:  10    -0.230627437751E+03    0.12804E-01   -0.48996E-02 43680   0.101E+00    0.282E+00
DAV:  11    -0.230620161138E+03    0.72766E-02   -0.16009E-02 44408   0.890E-01    0.232E+00
DAV:  12    -0.230626022420E+03   -0.58613E-02   -0.43189E-02 42600   0.132E+00    0.271E+00
DAV:  13    -0.230638108421E+03   -0.12086E-01   -0.10442E-01 39312   0.145E+00    0.343E+00
DAV:  14    -0.230634652739E+03    0.34557E-02   -0.32919E-02 40024   0.953E-01    0.282E+00
DAV:  15    -0.230634380995E+03    0.27174E-03   -0.56953E-03 41576   0.403E-01    0.294E+00
DAV:  16    -0.230629185876E+03    0.51951E-02   -0.64113E-03 39376   0.382E-01    0.415E+00
DAV:  17    -0.230610340720E+03    0.18845E-01   -0.33879E-03 36768   0.262E-01    0.498E+00
DAV:  18    -0.230613194338E+03   -0.28536E-02   -0.66325E-03 45072   0.444E-01    0.554E+00
DAV:  19    -0.230612329250E+03    0.86509E-03   -0.61599E-03 42936   0.450E-01    0.648E+00
DAV:  20    -0.230596693715E+03    0.15636E-01   -0.17372E-03 36248   0.196E-01    0.666E+00
DAV:  21    -0.230595047849E+03    0.16459E-02   -0.78382E-04 45224   0.155E-01    0.666E+00
DAV:  22    -0.230597018125E+03   -0.19703E-02   -0.57926E-03 43952   0.511E-01    0.596E+00
DAV:  23    -0.230603005649E+03   -0.59875E-02   -0.76425E-03 44864   0.542E-01    0.474E+00
DAV:  24    -0.230625097660E+03   -0.22092E-01   -0.10035E-02 43448   0.578E-01    0.430E+00
DAV:  25    -0.230633343993E+03   -0.82463E-02   -0.51058E-03 44008   0.295E-01    0.398E+00
DAV:  26    -0.230636893256E+03   -0.35493E-02   -0.17670E-03 41864   0.132E-01    0.407E+00
DAV:  27    -0.230636318914E+03    0.57434E-03   -0.43918E-04 36584   0.445E-02    0.412E+00
DAV:  28    -0.230636182233E+03    0.13668E-03   -0.21237E-03 43408   0.207E-01    0.339E+00
DAV:  29    -0.230634394335E+03    0.17879E-02   -0.22811E-03 43824   0.211E-01    0.211E+00
DAV:  30    -0.230637504907E+03   -0.31106E-02   -0.17283E-03 37584   0.197E-01    0.141E+00
DAV:  31    -0.230639629472E+03   -0.21246E-02   -0.10515E-03 38392   0.205E-01    0.124E+00
DAV:  32    -0.230639912817E+03   -0.28334E-03   -0.79708E-04 42400   0.153E-01    0.136E+00
DAV:  33    -0.230639882936E+03    0.29881E-04   -0.26519E-04 39560   0.568E-02    0.144E+00
DAV:  34    -0.230640073525E+03   -0.19059E-03   -0.71662E-05 31008   0.312E-02    0.141E+00
DAV:  35    -0.230639601764E+03    0.47176E-03   -0.40457E-05 29640   0.316E-02    0.148E+00
DAV:  36    -0.230641317562E+03   -0.17158E-02   -0.12132E-03 40816   0.158E-01    0.115E+00
DAV:  37    -0.230642852567E+03   -0.15350E-02   -0.30896E-03 41528   0.215E-01    0.750E-01
DAV:  38    -0.230642979231E+03   -0.12666E-03   -0.12937E-03 41152   0.110E-01    0.548E-01
DAV:  39    -0.230643153193E+03   -0.17396E-03   -0.14775E-04 35200   0.503E-02    0.380E-01
DAV:  40    -0.230643747674E+03   -0.59448E-03   -0.21112E-04 39472   0.612E-02    0.200E-01
DAV:  41    -0.230644017039E+03   -0.26936E-03   -0.23860E-04 37472   0.663E-02    0.142E-01
DAV:  42    -0.230644006718E+03    0.10320E-04   -0.58342E-05 30992   0.280E-02    0.502E-02
DAV:  43    -0.230644019378E+03   -0.12659E-04   -0.12678E-05 22352   0.156E-02    0.238E-02
DAV:  44    -0.230644022840E+03   -0.34623E-05   -0.55068E-06 19840   0.944E-03
   8 F= -.23064402E+03 E0= -.23062784E+03  d E =-.253051E+00  mag=     9.0364
       N       E                     dE             d eps       ncg     rms          rms(c)
DAV:   1    -0.223403778872E+03    0.72402E+01   -0.33361E+02 35208   0.103E+02    0.153E+01
DAV:   2    -0.249740896876E+03   -0.26337E+02   -0.17409E+02 44280   0.495E+01    0.761E+01
DAV:   3    -0.238855163480E+03    0.10886E+02   -0.43436E+01 43896   0.227E+01    0.524E+01
DAV:   4    -0.234097180983E+03    0.47580E+01   -0.25945E+01 42216   0.175E+01    0.401E+01
DAV:   5    -0.231715465186E+03    0.23817E+01   -0.61133E+00 42424   0.181E+01    0.217E+01
DAV:   6    -0.231122059429E+03    0.59341E+00   -0.11362E+01 46304   0.136E+01    0.120E+01
DAV:   7    -0.230877861329E+03    0.24420E+00   -0.10988E+00 44952   0.796E+00    0.763E+00
DAV:   8    -0.230855287321E+03    0.22574E-01   -0.87649E-01 44392   0.505E+00    0.759E+00
DAV:   9    -0.230763185667E+03    0.92102E-01   -0.20298E-01 42504   0.315E+00    0.465E+00
DAV:  10    -0.230768893729E+03   -0.57081E-02   -0.18632E-01 44448   0.295E+00    0.530E+00
DAV:  11    -0.230766644835E+03    0.22489E-02   -0.47222E-01 44360   0.273E+00    0.641E+00
DAV:  12    -0.230748372716E+03    0.18272E-01   -0.16039E-01 41256   0.169E+00    0.524E+00
DAV:  13    -0.230741724533E+03    0.66482E-02   -0.22494E-02 43328   0.850E-01    0.552E+00
DAV:  14    -0.230746758165E+03   -0.50336E-02   -0.11395E-02 41352   0.699E-01    0.583E+00
DAV:  15    -0.230742254718E+03    0.45034E-02   -0.25283E-03 37032   0.190E-01    0.617E+00
DAV:  16    -0.230722190152E+03    0.20065E-01   -0.18945E-02 41704   0.985E-01    0.480E+00
DAV:  17    -0.230736197265E+03   -0.14007E-01   -0.90302E-02 43376   0.956E-01    0.379E+00
DAV:  18    -0.230758150327E+03   -0.21953E-01   -0.20238E-02 38736   0.961E-01    0.363E+00
DAV:  19    -0.230758754517E+03   -0.60419E-03   -0.12885E-02 43480   0.609E-01    0.332E+00
DAV:  20    -0.230762074804E+03   -0.33203E-02   -0.19306E-02 44424   0.626E-01    0.338E+00
DAV:  21    -0.230766882908E+03   -0.48081E-02   -0.27069E-02 43120   0.110E+00    0.399E+00
DAV:  22    -0.230762066244E+03    0.48167E-02   -0.51952E-02 42464   0.151E+00    0.556E+00
DAV:  23    -0.230732780303E+03    0.29286E-01   -0.37152E-02 43512   0.119E+00    0.575E+00
DAV:  24    -0.230744975649E+03   -0.12195E-01   -0.16261E-01 45304   0.120E+00    0.767E+00
DAV:  25    -0.230752611457E+03   -0.76358E-02   -0.93403E-02 37080   0.595E-01    0.750E+00
DAV:  26    -0.230718486325E+03    0.34125E-01   -0.36413E-02 34904   0.469E-01    0.546E+00
DAV:  27    -0.230720972138E+03   -0.24858E-02   -0.19406E-02 44720   0.423E-01    0.397E+00
DAV:  28    -0.230725404515E+03   -0.44324E-02   -0.27647E-02 37984   0.396E-01    0.256E+00
DAV:  29    -0.230738891660E+03   -0.13487E-01   -0.12022E-02 42104   0.652E-01    0.266E+00
DAV:  30    -0.230750222724E+03   -0.11331E-01   -0.18465E-02 46392   0.352E-01    0.469E+00
DAV:  31    -0.230729780114E+03    0.20443E-01   -0.10858E-02 34120   0.306E-01    0.456E+00
DAV:  32    -0.230741100976E+03   -0.11321E-01   -0.10697E-02 42920   0.448E-01    0.578E+00
DAV:  33    -0.230728570151E+03    0.12531E-01   -0.54024E-03 41832   0.547E-01    0.568E+00
DAV:  34    -0.230697462734E+03    0.31107E-01   -0.10084E-01 44064   0.347E-01    0.224E+00
DAV:  35    -0.230724537476E+03   -0.27075E-01   -0.19910E-02 34336   0.399E-01    0.123E+00
DAV:  36    -0.230736829839E+03   -0.12292E-01   -0.77385E-03 37376   0.333E-01    0.184E+00
DAV:  37    -0.230733216804E+03    0.36130E-02   -0.22933E-02 45224   0.303E-01    0.186E+00
DAV:  38    -0.230729223043E+03    0.39938E-02   -0.58991E-03 44696   0.240E-01    0.966E-01
DAV:  39    -0.230731990100E+03   -0.27671E-02   -0.19524E-03 40192   0.171E-01    0.858E-01
DAV:  40    -0.230732622557E+03   -0.63246E-03   -0.73858E-03 45880   0.205E-01    0.949E-01
DAV:  41    -0.230734091708E+03   -0.14692E-02   -0.26059E-03 40480   0.109E-01    0.151E+00
DAV:  42    -0.230732897753E+03    0.11940E-02   -0.22181E-03 41408   0.186E-01    0.149E+00
DAV:  43    -0.230733064103E+03   -0.16635E-03   -0.31771E-03 44576   0.154E-01    0.202E+00
DAV:  44    -0.230730674625E+03    0.23895E-02   -0.11404E-03 42056   0.871E-02    0.234E+00
DAV:  45    -0.230729518737E+03    0.11559E-02   -0.37521E-04 32520   0.617E-02    0.252E+00
DAV:  46    -0.230726686862E+03    0.28319E-02   -0.82050E-04 39464   0.691E-02    0.270E+00
DAV:  47    -0.230716022136E+03    0.10665E-01   -0.12360E-02 44496   0.350E-01    0.269E+00
DAV:  48    -0.230714142582E+03    0.18796E-02   -0.16662E-03 36744   0.120E-01    0.282E+00
DAV:  49    -0.230714144634E+03   -0.20523E-05   -0.16876E-04 33336   0.335E-02    0.268E+00
DAV:  50    -0.230714298138E+03   -0.15350E-03   -0.19273E-05 23344   0.164E-02    0.269E+00
DAV:  51    -0.230717042690E+03   -0.27446E-02   -0.37694E-03 41544   0.104E-01    0.189E+00
DAV:  52    -0.230726392457E+03   -0.93498E-02   -0.13510E-02 44008   0.277E-01    0.832E-01
DAV:  53    -0.230732828516E+03   -0.64361E-02   -0.34164E-03 42240   0.197E-01    0.691E-01
DAV:  54    -0.230735199314E+03   -0.23708E-02   -0.60331E-03 44152   0.167E-01    0.601E-01
DAV:  55    -0.230735623839E+03   -0.42452E-03   -0.90644E-04 39944   0.104E-01    0.520E-01
DAV:  56    -0.230736058959E+03   -0.43512E-03   -0.45531E-03 42504   0.119E-01    0.370E-01
DAV:  57    -0.230735953071E+03    0.10589E-03   -0.50267E-03 43152   0.132E-01    0.423E-01
DAV:  58    -0.230735988512E+03   -0.35442E-04   -0.40341E-04 34528   0.581E-02    0.572E-01
DAV:  59    -0.230736195727E+03   -0.20721E-03   -0.11655E-03 34792   0.587E-02    0.499E-01
DAV:  60    -0.230736729114E+03   -0.53339E-03   -0.52778E-03 41648   0.914E-02    0.447E-01
DAV:  61    -0.230736057351E+03    0.67176E-03   -0.19870E-03 41368   0.962E-02    0.507E-01
DAV:  62    -0.230735651608E+03    0.40574E-03   -0.35306E-04 33608   0.507E-02    0.404E-01
DAV:  63    -0.230735690717E+03   -0.39110E-04   -0.48956E-05 27080   0.257E-02    0.350E-01
DAV:  64    -0.230735837560E+03   -0.14684E-03   -0.14816E-04 28688   0.301E-02    0.250E-01
DAV:  65    -0.230735986161E+03   -0.14860E-03   -0.14231E-04 34560   0.293E-02    0.192E-01
DAV:  66    -0.230736116605E+03   -0.13044E-03   -0.28406E-04 30960   0.289E-02    0.152E-01
DAV:  67    -0.230736134808E+03   -0.18202E-04   -0.11039E-04 31808   0.272E-02    0.177E-01
DAV:  68    -0.230736101227E+03    0.33580E-04   -0.26333E-05 23624   0.217E-02    0.156E-01
DAV:  69    -0.230736081708E+03    0.19519E-04   -0.24523E-05 22136   0.126E-02    0.146E-01
DAV:  70    -0.230736056064E+03    0.25644E-04   -0.19971E-05 21704   0.103E-02    0.142E-01
DAV:  71    -0.230736054923E+03    0.11416E-05   -0.19121E-05 20048   0.938E-03
   9 F= -.23073605E+03 E0= -.23072000E+03  d E =-.920321E-01  mag=     9.1023
       N       E                     dE             d eps       ncg     rms          rms(c)
DAV:   1    -0.228115009795E+03    0.26210E+01   -0.17140E+02 34040   0.686E+01    0.615E+00
DAV:   2    -0.230989848314E+03   -0.28748E+01   -0.29161E+01 35344   0.150E+01    0.810E+00
DAV:   3    -0.231303858768E+03   -0.31401E+00   -0.39138E+00 43776   0.984E+00    0.112E+01
DAV:   4    -0.230926227972E+03    0.37763E+00   -0.87732E-01 38936   0.650E+00    0.412E+00
DAV:   5    -0.230916445973E+03    0.97820E-02   -0.14876E-01 41720   0.260E+00    0.292E+00
DAV:   6    -0.230925764847E+03   -0.93189E-02   -0.68397E-02 43680   0.138E+00    0.276E+00
DAV:   7    -0.230925690146E+03    0.74701E-04   -0.37096E-02 37640   0.145E+00    0.302E+00
DAV:   8    -0.230924940743E+03    0.74940E-03   -0.64797E-02 39456   0.184E+00    0.334E+00
DAV:   9    -0.230932314724E+03   -0.73740E-02   -0.30228E-02 42240   0.124E+00    0.394E+00
DAV:  10    -0.230919505546E+03    0.12809E-01   -0.17866E-02 41536   0.102E+00    0.348E+00
DAV:  11    -0.230911376075E+03    0.81295E-02   -0.82403E-03 43736   0.667E-01    0.261E+00
DAV:  12    -0.230909447901E+03    0.19282E-02   -0.90696E-03 44128   0.700E-01    0.103E+00
DAV:  13    -0.230923511198E+03   -0.14063E-01   -0.20148E-02 40560   0.855E-01    0.286E+00
DAV:  14    -0.230914020744E+03    0.94905E-02   -0.17398E-02 39512   0.670E-01    0.243E+00
DAV:  15    -0.230909768970E+03    0.42518E-02   -0.38858E-03 44968   0.356E-01    0.144E+00
DAV:  16    -0.230911896143E+03   -0.21272E-02   -0.24417E-03 43264   0.323E-01    0.388E-01
DAV:  17    -0.230916663955E+03   -0.47678E-02   -0.20618E-03 36144   0.263E-01    0.383E-01
DAV:  18    -0.230917047137E+03   -0.38318E-03   -0.57388E-04 42656   0.130E-01    0.340E-01
DAV:  19    -0.230917040654E+03    0.64826E-05   -0.10757E-04 34160   0.457E-02    0.462E-01
DAV:  20    -0.230916956522E+03    0.84132E-04   -0.92766E-05 29016   0.625E-02    0.456E-01
DAV:  21    -0.230916799867E+03    0.15666E-03   -0.34876E-04 41064   0.130E-01    0.236E-01
DAV:  22    -0.230916983935E+03   -0.18407E-03   -0.77749E-04 41088   0.186E-01    0.235E-01
DAV:  23    -0.230917050934E+03   -0.66999E-04   -0.55406E-04 41528   0.146E-01    0.411E-01
DAV:  24    -0.230916812359E+03    0.23857E-03   -0.28788E-04 38544   0.103E-01    0.232E-01
DAV:  25    -0.230916912232E+03   -0.99873E-04   -0.11047E-04 35616   0.522E-02    0.153E-01
DAV:  26    -0.230916975738E+03   -0.63506E-04   -0.84602E-05 35816   0.527E-02    0.929E-02
DAV:  27    -0.230916992100E+03   -0.16362E-04   -0.47185E-05 32032   0.515E-02    0.693E-02
DAV:  28    -0.230916991434E+03    0.66579E-06   -0.19849E-05 24016   0.371E-02
  10 F= -.23091699E+03 E0= -.23090186E+03  d E =-.180937E+00  mag=     9.0575
       N       E                     dE             d eps       ncg     rms          rms(c)
DAV:   1    -0.229867674507E+03    0.10493E+01   -0.92877E+01 34048   0.469E+01    0.331E+00
DAV:   2    -0.231015596895E+03   -0.11479E+01   -0.11623E+01 35624   0.960E+00    0.497E+00
DAV:   3    -0.231044507023E+03   -0.28910E-01   -0.69993E-01 40256   0.552E+00    0.525E+00
DAV:   4    -0.230997389812E+03    0.47117E-01   -0.18149E-01 39024   0.307E+00    0.464E+00
DAV:   5    -0.230971811740E+03    0.25578E-01   -0.85013E-02 39376   0.145E+00    0.152E+00
DAV:   6    -0.230983640155E+03   -0.11828E-01   -0.35062E-02 36696   0.122E+00    0.142E+00
DAV:   7    -0.230980784820E+03    0.28553E-02   -0.23283E-02 41368   0.102E+00    0.956E-01
DAV:   8    -0.230983448700E+03   -0.26639E-02   -0.20766E-02 44400   0.908E-01    0.152E+00
DAV:   9    -0.230981504142E+03    0.19446E-02   -0.14736E-02 41008   0.851E-01    0.141E+00
DAV:  10    -0.230980193504E+03    0.13106E-02   -0.43035E-03 42920   0.486E-01    0.130E+00
DAV:  11    -0.230978588575E+03    0.16049E-02   -0.42384E-03 44296   0.404E-01    0.541E-01
DAV:  12    -0.230980243912E+03   -0.16553E-02   -0.41434E-03 42120   0.350E-01    0.806E-01
DAV:  13    -0.230981203992E+03   -0.96008E-03   -0.27826E-03 42016   0.349E-01    0.127E+00
DAV:  14    -0.230979129028E+03    0.20750E-02   -0.19683E-03 41192   0.269E-01    0.107E+00
DAV:  15    -0.230978548249E+03    0.58078E-03   -0.12419E-03 44560   0.187E-01    0.588E-01
DAV:  16    -0.230979625055E+03   -0.10768E-02   -0.75492E-04 40592   0.141E-01    0.412E-01
DAV:  17    -0.230980119384E+03   -0.49433E-03   -0.16489E-04 32832   0.480E-02    0.426E-01
DAV:  18    -0.230980266461E+03   -0.14708E-03   -0.34277E-04 39968   0.115E-01    0.471E-01
DAV:  19    -0.230980532514E+03   -0.26605E-03   -0.52158E-04 40328   0.121E-01    0.800E-01
DAV:  20    -0.230980325661E+03    0.20685E-03   -0.22092E-04 38520   0.788E-02    0.111E+00
DAV:  21    -0.230979758323E+03    0.56734E-03   -0.97710E-05 32328   0.429E-02    0.124E+00
DAV:  22    -0.230979505149E+03    0.25317E-03   -0.44670E-05 28752   0.344E-02    0.140E+00
DAV:  23    -0.230979193865E+03    0.31128E-03   -0.32341E-05 28664   0.240E-02    0.149E+00
DAV:  24    -0.230979054135E+03    0.13973E-03   -0.22411E-05 25920   0.231E-02    0.163E+00
DAV:  25    -0.230979134025E+03   -0.79890E-04   -0.42082E-05 29936   0.368E-02    0.183E+00
DAV:  26    -0.230979380689E+03   -0.24666E-03   -0.10019E-04 37232   0.548E-02    0.212E+00
DAV:  27    -0.230979783762E+03   -0.40307E-03   -0.22564E-04 39416   0.733E-02    0.254E+00
DAV:  28    -0.230979454017E+03    0.32974E-03   -0.23967E-04 36864   0.596E-02    0.284E+00
DAV:  29    -0.230978794454E+03    0.65956E-03   -0.11935E-04 33624   0.471E-02    0.304E+00
DAV:  30    -0.230977679818E+03    0.11146E-02   -0.64600E-05 33240   0.438E-02    0.308E+00
DAV:  31    -0.230977194290E+03    0.48553E-03   -0.25699E-05 28112   0.280E-02    0.310E+00
DAV:  32    -0.230977065272E+03    0.12902E-03   -0.22397E-05 26752   0.191E-02    0.312E+00
DAV:  33    -0.230976178290E+03    0.88698E-03   -0.34617E-05 26728   0.364E-02    0.297E+00
DAV:  34    -0.230975032654E+03    0.11456E-02   -0.15569E-04 40320   0.618E-02    0.256E+00
DAV:  35    -0.230974596128E+03    0.43653E-03   -0.41581E-04 40720   0.947E-02    0.185E+00
DAV:  36    -0.230975824763E+03   -0.12286E-02   -0.75397E-04 38168   0.108E-01    0.964E-01
DAV:  37    -0.230978257586E+03   -0.24328E-02   -0.63811E-04 34672   0.100E-01    0.371E-01
DAV:  38    -0.230979774314E+03   -0.15167E-02   -0.25254E-04 33560   0.753E-02    0.229E-01
DAV:  39    -0.230980207110E+03   -0.43280E-03   -0.63102E-05 35256   0.344E-02    0.222E-01
DAV:  40    -0.230980317562E+03   -0.11045E-03   -0.12273E-05 23928   0.194E-02    0.316E-01
DAV:  41    -0.230980326066E+03   -0.85037E-05   -0.15027E-05 23152   0.150E-02
  11 F= -.23098033E+03 E0= -.23096570E+03  d E =-.633346E-01  mag=     9.0464
       N       E                     dE             d eps       ncg     rms          rms(c)
DAV:   1    -0.230133080713E+03    0.84724E+00   -0.98994E+01 33352   0.438E+01    0.295E+00
DAV:   2    -0.231107729056E+03   -0.97465E+00   -0.96575E+00 35472   0.890E+00    0.723E+00
DAV:   3    -0.231099038030E+03    0.86910E-02   -0.82377E-01 39408   0.498E+00    0.808E+00
DAV:   4    -0.231066355661E+03    0.32682E-01   -0.14065E-01 39328   0.309E+00    0.545E+00
DAV:   5    -0.231030891661E+03    0.35464E-01   -0.16824E-01 37048   0.257E+00    0.226E+00
DAV:   6    -0.231037957804E+03   -0.70661E-02   -0.45672E-02 43888   0.119E+00    0.342E+00
DAV:   7    -0.231032081844E+03    0.58760E-02   -0.61814E-02 40944   0.106E+00    0.261E+00
DAV:   8    -0.231029036947E+03    0.30449E-02   -0.70967E-02 39648   0.118E+00    0.213E+00
DAV:   9    -0.231036753999E+03   -0.77171E-02   -0.40253E-02 42320   0.108E+00    0.303E+00
DAV:  10    -0.231040397801E+03   -0.36438E-02   -0.77294E-03 39576   0.632E-01    0.334E+00
DAV:  11    -0.231039428239E+03    0.96956E-03   -0.39131E-03 35632   0.260E-01    0.420E+00
DAV:  12    -0.231029731061E+03    0.96972E-02   -0.21256E-03 41176   0.283E-01    0.408E+00
DAV:  13    -0.231023086323E+03    0.66447E-02   -0.62076E-03 43072   0.555E-01    0.340E+00
DAV:  14    -0.231025010884E+03   -0.19246E-02   -0.87703E-03 42688   0.546E-01    0.220E+00
DAV:  15    -0.231031465575E+03   -0.64547E-02   -0.48784E-03 40768   0.442E-01    0.159E+00
DAV:  16    -0.231033437316E+03   -0.19717E-02   -0.35460E-03 39400   0.322E-01    0.127E+00
DAV:  17    -0.231033652288E+03   -0.21497E-03   -0.19472E-03 41592   0.221E-01    0.106E+00
DAV:  18    -0.231033899810E+03   -0.24752E-03   -0.69995E-04 42696   0.106E-01    0.101E+00
DAV:  19    -0.231034011292E+03   -0.11148E-03   -0.15886E-04 37440   0.574E-02    0.995E-01
DAV:  20    -0.231033800015E+03    0.21128E-03   -0.32670E-04 41320   0.129E-01    0.950E-01
DAV:  21    -0.231033551573E+03    0.24844E-03   -0.23406E-04 42344   0.921E-02    0.919E-01
DAV:  22    -0.231033860085E+03   -0.30851E-03   -0.20935E-04 40720   0.879E-02    0.870E-01
DAV:  23    -0.231033635992E+03    0.22409E-03   -0.16457E-03 43080   0.300E-01    0.703E-01
DAV:  24    -0.231033740930E+03   -0.10494E-03   -0.22271E-03 44184   0.235E-01    0.930E-01
DAV:  25    -0.231033857722E+03   -0.11679E-03   -0.76486E-04 40816   0.115E-01    0.107E+00
DAV:  26    -0.231033319232E+03    0.53849E-03   -0.24619E-04 41760   0.909E-02    0.923E-01
DAV:  27    -0.231033224581E+03    0.94651E-04   -0.18465E-04 41640   0.790E-02    0.617E-01
DAV:  28    -0.231033640706E+03   -0.41613E-03   -0.13613E-04 39664   0.720E-02    0.385E-01
DAV:  29    -0.231034028315E+03   -0.38761E-03   -0.91400E-05 35816   0.764E-02    0.273E-01
DAV:  30    -0.231034255508E+03   -0.22719E-03   -0.63983E-05 33744   0.626E-02    0.183E-01
DAV:  31    -0.231034389952E+03   -0.13444E-03   -0.42931E-05 31840   0.389E-02    0.109E-01
DAV:  32    -0.231034454391E+03   -0.64439E-04   -0.23240E-05 25672   0.198E-02    0.812E-02
DAV:  33    -0.231034480879E+03   -0.26488E-04   -0.83425E-06 21024   0.134E-02    0.611E-02
DAV:  34    -0.231034490161E+03   -0.92817E-05   -0.51271E-06 18968   0.750E-03
  12 F= -.23103449E+03 E0= -.23101944E+03  d E =-.541641E-01  mag=     9.0453
       N       E                     dE             d eps       ncg     rms          rms(c)
DAV:   1    -0.230350657325E+03    0.68382E+00   -0.49494E+01 33920   0.374E+01    0.256E+00
DAV:   2    -0.231092966206E+03   -0.74231E+00   -0.75955E+00 35208   0.753E+00    0.410E+00
DAV:   3    -0.231195204473E+03   -0.10224E+00   -0.49838E-01 41632   0.425E+00    0.964E+00
DAV:   4    -0.231083567955E+03    0.11164E+00   -0.10618E-01 39176   0.279E+00    0.346E+00
DAV:   5    -0.231077165787E+03    0.64022E-02   -0.80007E-02 37120   0.230E+00    0.118E+00
DAV:   6    -0.231083575570E+03   -0.64098E-02   -0.30999E-02 45048   0.968E-01    0.224E+00
DAV:   7    -0.231080044628E+03    0.35309E-02   -0.27734E-02 40456   0.845E-01    0.155E+00
DAV:   8    -0.231080250143E+03   -0.20551E-03   -0.26801E-02 39080   0.919E-01    0.119E+00
DAV:   9    -0.231081894409E+03   -0.16443E-02   -0.13311E-02 42272   0.603E-01    0.162E+00
DAV:  10    -0.231082155496E+03   -0.26109E-03   -0.20527E-03 38488   0.265E-01    0.207E+00
DAV:  11    -0.231086064099E+03   -0.39086E-02   -0.39277E-03 40888   0.408E-01    0.349E+00
DAV:  12    -0.231086857543E+03   -0.79344E-03   -0.32307E-03 39832   0.295E-01    0.445E+00
DAV:  13    -0.231079384638E+03    0.74729E-02   -0.11124E-03 37408   0.159E-01    0.449E+00
DAV:  14    -0.231070820726E+03    0.85639E-02   -0.25766E-03 43736   0.332E-01    0.384E+00
DAV:  15    -0.231067321573E+03    0.34992E-02   -0.52639E-03 44880   0.465E-01    0.226E+00
DAV:  16    -0.231074399985E+03   -0.70784E-02   -0.98093E-03 41488   0.496E-01    0.874E-01
DAV:  17    -0.231084036443E+03   -0.96365E-02   -0.70031E-03 37872   0.402E-01    0.222E+00
DAV:  18    -0.231079100638E+03    0.49358E-02   -0.33698E-03 35280   0.269E-01    0.236E+00
DAV:  19    -0.231075021375E+03    0.40793E-02   -0.86676E-04 41352   0.116E-01    0.208E+00
DAV:  20    -0.231074758310E+03    0.26307E-03   -0.14215E-04 39024   0.559E-02    0.195E+00
DAV:  21    -0.231074588371E+03    0.16994E-03   -0.37882E-04 38304   0.984E-02    0.175E+00
DAV:  22    -0.231075724347E+03   -0.11360E-02   -0.17179E-04 41464   0.898E-02    0.196E+00
DAV:  23    -0.231074338261E+03    0.13861E-02   -0.21903E-03 45520   0.278E-01    0.475E-01
DAV:  24    -0.231080353386E+03   -0.60151E-02   -0.31729E-03 38416   0.236E-01    0.768E-01
DAV:  25    -0.231081495666E+03   -0.11423E-02   -0.12207E-03 40848   0.207E-01    0.120E+00
DAV:  26    -0.231079660705E+03    0.18350E-02   -0.52940E-04 41200   0.148E-01    0.710E-01
DAV:  27    -0.231079719449E+03   -0.58744E-04   -0.59879E-04 43984   0.993E-02    0.165E-01
DAV:  28    -0.231080534079E+03   -0.81463E-03   -0.23857E-04 36976   0.935E-02    0.131E-01
DAV:  29    -0.231080680360E+03   -0.14628E-03   -0.13837E-04 38024   0.777E-02    0.944E-02
DAV:  30    -0.231080715332E+03   -0.34972E-04   -0.72600E-05 30632   0.354E-02    0.222E-01
DAV:  31    -0.231080657256E+03    0.58076E-04   -0.38579E-05 29224   0.350E-02    0.154E-01
DAV:  32    -0.231080657256E+03    0.17462E-09   -0.22945E-05 25504   0.207E-02
  13 F= -.23108066E+03 E0= -.23106553E+03  d E =-.461671E-01  mag=     9.0432
       N       E                     dE             d eps       ncg     rms          rms(c)
DAV:   1    -0.230441172222E+03    0.63949E+00   -0.52771E+01 33488   0.380E+01    0.244E+00
DAV:   2    -0.231120767503E+03   -0.67960E+00   -0.70517E+00 34792   0.753E+00    0.243E+00
DAV:   3    -0.231172327819E+03   -0.51560E-01   -0.40203E-01 39864   0.371E+00    0.503E+00
DAV:   4    -0.231130383301E+03    0.41945E-01   -0.12074E-01 37728   0.237E+00    0.428E+00
DAV:   5    -0.231109302287E+03    0.21081E-01   -0.56870E-02 38024   0.124E+00    0.999E-01
DAV:   6    -0.231120431196E+03   -0.11129E-01   -0.20433E-02 38984   0.769E-01    0.121E+00
DAV:   7    -0.231120007047E+03    0.42415E-03   -0.24709E-02 38024   0.831E-01    0.868E-01
DAV:   8    -0.231121071612E+03   -0.10646E-02   -0.10797E-02 42624   0.721E-01    0.112E+00
DAV:   9    -0.231120851276E+03    0.22034E-03   -0.64663E-03 41328   0.597E-01    0.132E+00
DAV:  10    -0.231119297569E+03    0.15537E-02   -0.26931E-03 43824   0.394E-01    0.102E+00
DAV:  11    -0.231118582527E+03    0.71504E-03   -0.18674E-03 44344   0.304E-01    0.488E-01
DAV:  12    -0.231119571512E+03   -0.98898E-03   -0.16855E-03 41176   0.267E-01    0.503E-01
DAV:  13    -0.231119955898E+03   -0.38439E-03   -0.35566E-03 42304   0.274E-01    0.652E-01
DAV:  14    -0.231119600629E+03    0.35527E-03   -0.12338E-03 42728   0.216E-01    0.502E-01
DAV:  15    -0.231119582651E+03    0.17979E-04   -0.16281E-03 41800   0.208E-01    0.309E-01
DAV:  16    -0.231119788881E+03   -0.20623E-03   -0.67213E-04 38352   0.141E-01    0.251E-01
DAV:  17    -0.231119832802E+03   -0.43921E-04   -0.17370E-04 32736   0.521E-02    0.289E-01
DAV:  18    -0.231119746890E+03    0.85912E-04   -0.12368E-04 27264   0.550E-02    0.354E-01
DAV:  19    -0.231119678316E+03    0.68574E-04   -0.10296E-04 33480   0.445E-02    0.476E-01
DAV:  20    -0.231119630540E+03    0.47776E-04   -0.51359E-05 26568   0.367E-02    0.520E-01
DAV:  21    -0.231119575429E+03    0.55111E-04   -0.87018E-05 35736   0.610E-02    0.458E-01
DAV:  22    -0.231119623290E+03   -0.47860E-04   -0.21668E-04 40008   0.748E-02    0.212E-01
DAV:  23    -0.231119817622E+03   -0.19433E-03   -0.19184E-04 40288   0.748E-02    0.929E-02
DAV:  24    -0.231119874734E+03   -0.57112E-04   -0.80339E-05 34656   0.562E-02    0.934E-02
DAV:  25    -0.231119870199E+03    0.45351E-05   -0.21582E-05 23560   0.290E-02
  14 F= -.23111987E+03 E0= -.23110475E+03  d E =-.392129E-01  mag=     9.0459
       N       E                     dE             d eps       ncg     rms          rms(c)
DAV:   1    -0.230065895306E+03    0.10540E+01   -0.74895E+01 33616   0.486E+01    0.308E+00
DAV:   2    -0.231156553012E+03   -0.10907E+01   -0.11200E+01 34864   0.946E+00    0.494E+00
DAV:   3    -0.231311140071E+03   -0.15459E+00   -0.89056E-01 40312   0.504E+00    0.117E+01
DAV:   4    -0.231156796628E+03    0.15434E+00   -0.16729E-01 39696   0.320E+00    0.431E+00
DAV:   5    -0.231142262437E+03    0.14534E-01   -0.14619E-01 37368   0.286E+00    0.199E+00
DAV:   6    -0.231139315776E+03    0.29467E-02   -0.31901E-02 45760   0.983E-01    0.192E+00
DAV:   7    -0.231139568199E+03   -0.25242E-03   -0.15653E-02 42360   0.829E-01    0.220E+00
DAV:   8    -0.231136380821E+03    0.31874E-02   -0.29011E-02 44416   0.854E-01    0.164E+00
DAV:   9    -0.231138253098E+03   -0.18723E-02   -0.42451E-02 42376   0.104E+00    0.174E+00
DAV:  10    -0.231140452329E+03   -0.21992E-02   -0.28100E-02 42424   0.836E-01    0.221E+00
DAV:  11    -0.231139769074E+03    0.68325E-03   -0.36405E-03 37520   0.312E-01    0.259E+00
DAV:  12    -0.231135831751E+03    0.39373E-02   -0.10221E-02 41800   0.581E-01    0.308E+00
DAV:  13    -0.231130063098E+03    0.57687E-02   -0.19217E-02 41832   0.749E-01    0.312E+00
DAV:  14    -0.231134593083E+03   -0.45300E-02   -0.12772E-02 42920   0.343E-01    0.372E+00
DAV:  15    -0.231130559069E+03    0.40340E-02   -0.35041E-03 33960   0.159E-01    0.402E+00
DAV:  16    -0.231127724277E+03    0.28348E-02   -0.29909E-03 42456   0.235E-01    0.502E+00
DAV:  17    -0.231118141424E+03    0.95829E-02   -0.99358E-04 35544   0.155E-01    0.504E+00
DAV:  18    -0.231113247714E+03    0.48937E-02   -0.68321E-04 45296   0.143E-01    0.483E+00
DAV:  19    -0.231112898627E+03    0.34909E-03   -0.19276E-03 45048   0.247E-01    0.411E+00
DAV:  20    -0.231121621594E+03   -0.87230E-02   -0.76628E-03 44088   0.488E-01    0.268E+00
DAV:  21    -0.231131690769E+03   -0.10069E-01   -0.86284E-03 41568   0.477E-01    0.192E+00
DAV:  22    -0.231136208357E+03   -0.45176E-02   -0.34143E-03 39144   0.289E-01    0.199E+00
DAV:  23    -0.231137252367E+03   -0.10440E-02   -0.10931E-03 42608   0.247E-01    0.225E+00
DAV:  24    -0.231138682116E+03   -0.14297E-02   -0.69760E-04 43936   0.183E-01    0.270E+00
DAV:  25    -0.231135560417E+03    0.31217E-02   -0.18524E-03 42512   0.230E-01    0.251E+00
DAV:  26    -0.231135888762E+03   -0.32834E-03   -0.67781E-04 44120   0.139E-01    0.234E+00
DAV:  27    -0.231135912412E+03   -0.23650E-04   -0.29886E-04 41888   0.113E-01    0.220E+00
DAV:  28    -0.231136759383E+03   -0.84697E-03   -0.49414E-04 44376   0.117E-01    0.220E+00
DAV:  29    -0.231136922370E+03   -0.16299E-03   -0.21911E-04 42184   0.733E-02    0.210E+00
DAV:  30    -0.231136981668E+03   -0.59298E-04   -0.10321E-04 38656   0.591E-02    0.191E+00
DAV:  31    -0.231137363274E+03   -0.38161E-03   -0.10704E-04 38032   0.437E-02    0.173E+00
DAV:  32    -0.231137897788E+03   -0.53451E-03   -0.96651E-05 36608   0.443E-02    0.159E+00
DAV:  33    -0.231138363107E+03   -0.46532E-03   -0.72059E-05 36712   0.439E-02    0.147E+00
DAV:  34    -0.231139123452E+03   -0.76034E-03   -0.20680E-04 39544   0.640E-02    0.133E+00
DAV:  35    -0.231139763534E+03   -0.64008E-03   -0.30842E-04 41064   0.650E-02    0.115E+00
DAV:  36    -0.231140319136E+03   -0.55560E-03   -0.22851E-04 40352   0.553E-02    0.942E-01
DAV:  37    -0.231141030946E+03   -0.71181E-03   -0.25208E-04 39344   0.631E-02    0.698E-01
DAV:  38    -0.231141718408E+03   -0.68746E-03   -0.27985E-04 39344   0.622E-02    0.454E-01
DAV:  39    -0.231142248085E+03   -0.52968E-03   -0.17605E-04 38808   0.484E-02    0.299E-01
DAV:  40    -0.231142498647E+03   -0.25056E-03   -0.64425E-05 35080   0.294E-02    0.171E-01
DAV:  41    -0.231142621065E+03   -0.12242E-03   -0.21455E-05 26032   0.171E-02    0.106E-01
DAV:  42    -0.231142682275E+03   -0.61210E-04   -0.11786E-05 22544   0.136E-02    0.670E-02
DAV:  43    -0.231142702007E+03   -0.19732E-04   -0.74265E-06 22160   0.771E-03    0.546E-02
DAV:  44    -0.231142710714E+03   -0.87071E-05   -0.23137E-06 19232   0.599E-03
  15 F= -.23114271E+03 E0= -.23112762E+03  d E =-.228405E-01  mag=     9.0375
       N       E                     dE             d eps       ncg     rms          rms(c)
DAV:   1    -0.230548195228E+03    0.59451E+00   -0.29446E+01 34136   0.345E+01    0.235E+00
DAV:   2    -0.231181963268E+03   -0.63377E+00   -0.66148E+00 34872   0.676E+00    0.181E+00
DAV:   3    -0.231225928776E+03   -0.43966E-01   -0.40037E-01 40976   0.307E+00    0.407E+00
DAV:   4    -0.231181523569E+03    0.44405E-01   -0.13904E-01 38584   0.207E+00    0.127E+00
DAV:   5    -0.231182635104E+03   -0.11115E-02   -0.20715E-02 42696   0.880E-01    0.110E+00
DAV:   6    -0.231186023126E+03   -0.33880E-02   -0.18236E-02 39760   0.726E-01    0.201E+00
DAV:   7    -0.231180435087E+03    0.55880E-02   -0.10713E-02 39272   0.688E-01    0.976E-01
DAV:   8    -0.231184552945E+03   -0.41179E-02   -0.95130E-03 38832   0.762E-01    0.152E+00
DAV:   9    -0.231181780258E+03    0.27727E-02   -0.78194E-03 43832   0.595E-01    0.148E+00
DAV:  10    -0.231179666714E+03    0.21135E-02   -0.38301E-03 43384   0.415E-01    0.918E-01
DAV:  11    -0.231180315096E+03   -0.64838E-03   -0.22339E-03 42408   0.341E-01    0.307E-01
DAV:  12    -0.231182121182E+03   -0.18061E-02   -0.15942E-03 39808   0.265E-01    0.612E-01
DAV:  13    -0.231182040656E+03    0.80526E-04   -0.63637E-04 40992   0.176E-01    0.721E-01
DAV:  14    -0.231181598548E+03    0.44211E-03   -0.16479E-04 41568   0.779E-02    0.722E-01
DAV:  15    -0.231181361426E+03    0.23712E-03   -0.77584E-05 32048   0.531E-02    0.671E-01
DAV:  16    -0.231181287890E+03    0.73535E-04   -0.49291E-05 27624   0.464E-02    0.557E-01
DAV:  17    -0.231181303247E+03   -0.15357E-04   -0.17809E-04 38040   0.852E-02    0.128E-01
DAV:  18    -0.231181915994E+03   -0.61275E-03   -0.29236E-04 40064   0.960E-02    0.389E-01
DAV:  19    -0.231181852563E+03    0.63431E-04   -0.25163E-04 36888   0.912E-02    0.408E-01
DAV:  20    -0.231181624821E+03    0.22774E-03   -0.90192E-05 34248   0.524E-02    0.248E-01
DAV:  21    -0.231181715968E+03   -0.91147E-04   -0.19937E-05 23408   0.157E-02    0.216E-01
DAV:  22    -0.231181756795E+03   -0.40826E-04   -0.53454E-06 19976   0.884E-03    0.169E-01
DAV:  23    -0.231181789151E+03   -0.32357E-04   -0.73645E-06 20168   0.189E-02    0.128E-01
DAV:  24    -0.231181815716E+03   -0.26565E-04   -0.14494E-05 21712   0.288E-02    0.121E-01
DAV:  25    -0.231181812578E+03    0.31382E-05   -0.21818E-05 25368   0.256E-02
  16 F= -.23118181E+03 E0= -.23116690E+03  d E =-.391019E-01  mag=     9.0514
       N       E                     dE             d eps       ncg     rms          rms(c)
DAV:   1    -0.230954276268E+03    0.22754E+00   -0.93688E+00 35592   0.210E+01    0.146E+00
DAV:   2    -0.231195341007E+03   -0.24106E+00   -0.25125E+00 34872   0.397E+00    0.160E+00
DAV:   3    -0.231218537755E+03   -0.23197E-01   -0.13841E-01 42712   0.212E+00    0.422E+00
DAV:   4    -0.231194093530E+03    0.24444E-01   -0.53761E-02 38504   0.138E+00    0.201E+00
DAV:   5    -0.231193972396E+03    0.12113E-03   -0.18668E-02 36960   0.100E+00    0.798E-01
DAV:   6    -0.231194837442E+03   -0.86505E-03   -0.31805E-03 43968   0.287E-01    0.715E-01
DAV:   7    -0.231194782615E+03    0.54827E-04   -0.41829E-04 36768   0.735E-02    0.739E-01
DAV:   8    -0.231194053433E+03    0.72918E-03   -0.26628E-03 43512   0.229E-01    0.903E-01
DAV:   9    -0.231195706798E+03   -0.16534E-02   -0.51536E-03 43032   0.458E-01    0.150E+00
DAV:  10    -0.231196391579E+03   -0.68478E-03   -0.32687E-03 42800   0.374E-01    0.202E+00
DAV:  11    -0.231192611727E+03    0.37799E-02   -0.18434E-03 40096   0.297E-01    0.144E+00
DAV:  12    -0.231192437953E+03    0.17377E-03   -0.32960E-03 42664   0.364E-01    0.648E-01
DAV:  13    -0.231195178238E+03   -0.27403E-02   -0.36259E-03 41064   0.343E-01    0.965E-01
DAV:  14    -0.231194406315E+03    0.77192E-03   -0.17270E-03 40384   0.307E-01    0.103E+00
DAV:  15    -0.231193088498E+03    0.13178E-02   -0.64700E-04 45032   0.155E-01    0.797E-01
DAV:  16    -0.231193334738E+03   -0.24624E-03   -0.10973E-03 43224   0.149E-01    0.640E-01
DAV:  17    -0.231193712716E+03   -0.37798E-03   -0.63377E-04 42736   0.136E-01    0.607E-01
DAV:  18    -0.231194256287E+03   -0.54357E-03   -0.31959E-04 41224   0.962E-02    0.695E-01
DAV:  19    -0.231194318775E+03   -0.62488E-04   -0.84956E-05 37208   0.405E-02    0.766E-01
DAV:  20    -0.231194546548E+03   -0.22777E-03   -0.84661E-05 34224   0.529E-02    0.744E-01
DAV:  21    -0.231194882423E+03   -0.33587E-03   -0.35789E-04 42672   0.109E-01    0.706E-01
DAV:  22    -0.231195316411E+03   -0.43399E-03   -0.81383E-04 43880   0.156E-01    0.793E-01
DAV:  23    -0.231194904109E+03    0.41230E-03   -0.52659E-04 44832   0.137E-01    0.537E-01
DAV:  24    -0.231194939253E+03   -0.35144E-04   -0.28660E-04 43768   0.116E-01    0.158E-01
DAV:  25    -0.231195349166E+03   -0.40991E-03   -0.16569E-04 37888   0.941E-02    0.165E-01
DAV:  26    -0.231195399454E+03   -0.50288E-04   -0.94883E-05 33976   0.595E-02    0.648E-02
DAV:  27    -0.231195402197E+03   -0.27427E-05   -0.20458E-05 25632   0.210E-02
  17 F= -.23119540E+03 E0= -.23118049E+03  d E =-.135896E-01  mag=     9.0530
       N       E                     dE             d eps       ncg     rms          rms(c)
DAV:   1    -0.231086417240E+03    0.10898E+00   -0.11731E+01 33432   0.162E+01    0.102E+00
DAV:   2    -0.231208170224E+03   -0.12175E+00   -0.12555E+00 34376   0.315E+00    0.138E+00
DAV:   3    -0.231229011368E+03   -0.20841E-01   -0.74397E-02 39424   0.163E+00    0.424E+00
DAV:   4    -0.231203823319E+03    0.25188E-01   -0.22558E-02 37560   0.118E+00    0.136E+00
DAV:   5    -0.231206105179E+03   -0.22819E-02   -0.94227E-03 37160   0.732E-01    0.365E-01
DAV:   6    -0.231207896490E+03   -0.17913E-02   -0.45151E-03 43744   0.333E-01    0.578E-01
DAV:   7    -0.231207474736E+03    0.42175E-03   -0.54721E-03 40344   0.355E-01    0.308E-01
DAV:   8    -0.231207887553E+03   -0.41282E-03   -0.23805E-03 40912   0.344E-01    0.443E-01
DAV:   9    -0.231207577235E+03    0.31032E-03   -0.12468E-03 42184   0.283E-01    0.399E-01
DAV:  10    -0.231207441048E+03    0.13619E-03   -0.40850E-04 42240   0.131E-01    0.247E-01
DAV:  11    -0.231207473148E+03   -0.32100E-04   -0.25189E-04 37216   0.119E-01    0.158E-01
DAV:  12    -0.231207656008E+03   -0.18286E-03   -0.18180E-04 35896   0.856E-02    0.397E-01
DAV:  13    -0.231207501517E+03    0.15449E-03   -0.10833E-04 33448   0.627E-02    0.467E-01
DAV:  14    -0.231207280387E+03    0.22113E-03   -0.29355E-05 26968   0.264E-02    0.469E-01
DAV:  15    -0.231207205453E+03    0.74934E-04   -0.97645E-06 20824   0.183E-02    0.518E-01
DAV:  16    -0.231207164470E+03    0.40983E-04   -0.19208E-05 20880   0.239E-02    0.627E-01
DAV:  17    -0.231206940279E+03    0.22419E-03   -0.14625E-05 22960   0.180E-02    0.638E-01
DAV:  18    -0.231206761720E+03    0.17856E-03   -0.19132E-05 21704   0.337E-02    0.496E-01
DAV:  19    -0.231206963354E+03   -0.20163E-03   -0.70300E-05 29848   0.437E-02    0.220E-01
DAV:  20    -0.231207371483E+03   -0.40813E-03   -0.11488E-04 32424   0.477E-02    0.644E-02
DAV:  21    -0.231207535793E+03   -0.16431E-03   -0.54848E-05 28880   0.367E-02    0.152E-01
DAV:  22    -0.231207528779E+03    0.70139E-05   -0.23739E-05 24712   0.292E-02
  18 F= -.23120753E+03 E0= -.23119267E+03  d E =-.121266E-01  mag=     9.0583
       N       E                     dE             d eps       ncg     rms          rms(c)
DAV:   1    -0.218272843823E+03    0.12935E+02   -0.42701E+02 36288   0.147E+02    0.241E+01
DAV:   2    -0.281279341093E+03   -0.63006E+02   -0.43435E+02 42744   0.879E+01    0.135E+02
DAV:   3    -0.258549207265E+03    0.22730E+02   -0.59335E+01 44280   0.343E+01    0.819E+01
DAV:   4    -0.255488738178E+03    0.30605E+01   -0.51242E+01 41264   0.252E+01    0.805E+01
DAV:   5    -0.250771476411E+03    0.47173E+01   -0.45813E+01 41256   0.302E+01    0.870E+01
DAV:   6    -0.237863661678E+03    0.12908E+02   -0.14187E+01 45728   0.187E+01    0.598E+01
DAV:   7    -0.231883249935E+03    0.59804E+01   -0.42650E+01 42416   0.224E+01    0.265E+01
DAV:   8    -0.231655926370E+03    0.22732E+00   -0.12161E+01 44336   0.167E+01    0.245E+01
DAV:   9    -0.230790566761E+03    0.86536E+00   -0.45324E+00 44112   0.129E+01    0.144E+01
DAV:  10    -0.230715050470E+03    0.75516E-01   -0.15879E+00 42960   0.914E+00    0.151E+01
DAV:  11    -0.230563640554E+03    0.15141E+00   -0.32014E-01 41864   0.451E+00    0.900E+00
DAV:  12    -0.230519842235E+03    0.43798E-01   -0.23528E-01 43704   0.337E+00    0.693E+00
DAV:  13    -0.230498921080E+03    0.20921E-01   -0.19342E-01 42208   0.349E+00    0.692E+00
DAV:  14    -0.230511839739E+03   -0.12919E-01   -0.88201E-01 43288   0.370E+00    0.843E+00
DAV:  15    -0.230447824284E+03    0.64015E-01   -0.11232E-01 43280   0.238E+00    0.694E+00
DAV:  16    -0.230420145238E+03    0.27679E-01   -0.12187E-01 44456   0.197E+00    0.530E+00
DAV:  17    -0.230427696212E+03   -0.75510E-02   -0.19892E-01 42792   0.164E+00    0.480E+00
DAV:  18    -0.230430123464E+03   -0.24273E-02   -0.19862E-02 41000   0.100E+00    0.470E+00
DAV:  19    -0.230429282620E+03    0.84084E-03   -0.51203E-03 44720   0.405E-01    0.463E+00
DAV:  20    -0.230427654349E+03    0.16283E-02   -0.28559E-03 45016   0.369E-01    0.449E+00
DAV:  21    -0.230427849167E+03   -0.19482E-03   -0.36279E-02 43768   0.127E+00    0.503E+00
DAV:  22    -0.230398120759E+03    0.29728E-01   -0.64794E-02 46672   0.184E+00    0.394E+00
DAV:  23    -0.230380504346E+03    0.17616E-01   -0.93159E-02 48304   0.167E+00    0.332E+00
DAV:  24    -0.230378513440E+03    0.19909E-02   -0.59274E-02 44840   0.111E+00    0.228E+00
DAV:  25    -0.230385816491E+03   -0.73031E-02   -0.33248E-02 46008   0.760E-01    0.355E+00
DAV:  26    -0.230375010729E+03    0.10806E-01   -0.14044E-02 39960   0.781E-01    0.287E+00
DAV:  27    -0.230371878337E+03    0.31324E-02   -0.10255E-02 45096   0.558E-01    0.212E+00
DAV:  28    -0.230378139996E+03   -0.62617E-02   -0.63461E-03 43424   0.566E-01    0.218E+00
DAV:  29    -0.230377271927E+03    0.86807E-03   -0.16280E-02 45664   0.799E-01    0.137E+00
DAV:  30    -0.230378292233E+03   -0.10203E-02   -0.10542E-02 45272   0.514E-01    0.105E+00
DAV:  31    -0.230379953358E+03   -0.16611E-02   -0.51529E-03 41208   0.286E-01    0.909E-01
DAV:  32    -0.230380128588E+03   -0.17523E-03   -0.27859E-03 44944   0.213E-01    0.773E-01
DAV:  33    -0.230380141725E+03   -0.13136E-04   -0.44862E-03 45136   0.196E-01    0.606E-01
DAV:  34    -0.230380334210E+03   -0.19249E-03   -0.14348E-03 45360   0.180E-01    0.572E-01
DAV:  35    -0.230380877118E+03   -0.54291E-03   -0.20104E-03 45016   0.145E-01    0.721E-01
DAV:  36    -0.230380728203E+03    0.14892E-03   -0.48248E-04 39848   0.734E-02    0.789E-01
DAV:  37    -0.230380139646E+03    0.58856E-03   -0.26852E-04 41288   0.748E-02    0.773E-01
DAV:  38    -0.230379918523E+03    0.22112E-03   -0.21502E-04 38984   0.466E-02    0.914E-01
DAV:  39    -0.230379988676E+03   -0.70153E-04   -0.10407E-03 42592   0.106E-01    0.584E-01
DAV:  40    -0.230380696873E+03   -0.70820E-03   -0.58216E-04 43984   0.966E-02    0.462E-01
DAV:  41    -0.230380917051E+03   -0.22018E-03   -0.37744E-04 44064   0.808E-02    0.284E-01
DAV:  42    -0.230381045197E+03   -0.12815E-03   -0.16402E-04 40272   0.702E-02    0.268E-01
DAV:  43    -0.230381031038E+03    0.14159E-04   -0.14310E-04 38112   0.650E-02    0.163E-01
DAV:  44    -0.230381077961E+03   -0.46923E-04   -0.98186E-05 33168   0.417E-02    0.143E-01
DAV:  45    -0.230381088547E+03   -0.10585E-04   -0.52430E-05 28472   0.347E-02    0.128E-01
DAV:  46    -0.230381079492E+03    0.90545E-05   -0.39414E-05 23296   0.283E-02
  19 F= -.23038108E+03 E0= -.23036332E+03  d E =0.826449E+00  mag=     9.3172
       N       E                     dE             d eps       ncg     rms          rms(c)
DAV:   1    -0.222068313152E+03    0.83128E+01   -0.23749E+02 37240   0.111E+02    0.145E+01
DAV:   2    -0.240866319344E+03   -0.18798E+02   -0.12388E+02 41344   0.409E+01    0.649E+01
DAV:   3    -0.232657021093E+03    0.82093E+01   -0.34035E+01 42904   0.256E+01    0.246E+01
DAV:   4    -0.231551997139E+03    0.11050E+01   -0.10574E+01 44104   0.166E+01    0.143E+01
DAV:   5    -0.231385997822E+03    0.16600E+00   -0.31752E+00 43472   0.973E+00    0.115E+01
DAV:   6    -0.231321020949E+03    0.64977E-01   -0.21679E+00 39048   0.719E+00    0.991E+00
DAV:   7    -0.231322318166E+03   -0.12972E-02   -0.51025E-01 40040   0.402E+00    0.868E+00
DAV:   8    -0.231300799577E+03    0.21519E-01   -0.30454E-01 40336   0.395E+00    0.862E+00
DAV:   9    -0.231227367669E+03    0.73432E-01   -0.31362E-01 41424   0.233E+00    0.620E+00
DAV:  10    -0.231230066665E+03   -0.26990E-02   -0.27877E-01 40752   0.288E+00    0.561E+00
DAV:  11    -0.231225253833E+03    0.48128E-02   -0.11694E-01 42384   0.222E+00    0.611E+00
DAV:  12    -0.231223439613E+03    0.18142E-02   -0.32835E-02 42456   0.123E+00    0.616E+00
DAV:  13    -0.231206456160E+03    0.16983E-01   -0.98351E-03 44312   0.689E-01    0.572E+00
DAV:  14    -0.231198819647E+03    0.76365E-02   -0.29585E-02 46200   0.101E+00    0.412E+00
DAV:  15    -0.231226482661E+03   -0.27663E-01   -0.85769E-02 41184   0.195E+00    0.570E+00
DAV:  16    -0.231216151105E+03    0.10332E-01   -0.55106E-02 40592   0.155E+00    0.593E+00
DAV:  17    -0.231196729198E+03    0.19422E-01   -0.34484E-02 43360   0.139E+00    0.534E+00
DAV:  18    -0.231169235776E+03    0.27493E-01   -0.13016E-01 47128   0.117E+00    0.283E+00
DAV:  19    -0.231188974252E+03   -0.19738E-01   -0.24263E-02 37696   0.964E-01    0.236E+00
DAV:  20    -0.231186822725E+03    0.21515E-02   -0.94043E-03 43016   0.596E-01    0.205E+00
DAV:  21    -0.231187982633E+03   -0.11599E-02   -0.42174E-03 41600   0.471E-01    0.180E+00
DAV:  22    -0.231188705875E+03   -0.72324E-03   -0.51898E-03 40664   0.517E-01    0.159E+00
DAV:  23    -0.231188262108E+03    0.44377E-03   -0.24662E-03 41576   0.391E-01    0.142E+00
DAV:  24    -0.231188169066E+03    0.93042E-04   -0.72160E-04 44392   0.196E-01    0.130E+00
DAV:  25    -0.231188206572E+03   -0.37506E-04   -0.12020E-03 42928   0.213E-01    0.112E+00
DAV:  26    -0.231188138983E+03    0.67588E-04   -0.13933E-03 44144   0.288E-01    0.106E+00
DAV:  27    -0.231187521650E+03    0.61733E-03   -0.76955E-04 42976   0.170E-01    0.859E-01
DAV:  28    -0.231187699627E+03   -0.17798E-03   -0.20932E-04 35440   0.515E-02    0.831E-01
DAV:  29    -0.231187679762E+03    0.19865E-04   -0.46631E-05 28768   0.379E-02    0.823E-01
DAV:  30    -0.231187704954E+03   -0.25192E-04   -0.87003E-05 32792   0.465E-02    0.764E-01
DAV:  31    -0.231187455422E+03    0.24953E-03   -0.87230E-04 44504   0.144E-01    0.528E-01
DAV:  32    -0.231187652049E+03   -0.19663E-03   -0.51500E-04 43744   0.675E-02    0.470E-01
DAV:  33    -0.231187725951E+03   -0.73902E-04   -0.19992E-04 38072   0.584E-02    0.401E-01
DAV:  34    -0.231187706934E+03    0.19017E-04   -0.47540E-05 29920   0.262E-02    0.416E-01
DAV:  35    -0.231187722051E+03   -0.15116E-04   -0.13484E-04 31944   0.574E-02    0.385E-01
DAV:  36    -0.231187673591E+03    0.48460E-04   -0.22944E-04 41680   0.600E-02    0.295E-01
DAV:  37    -0.231187812104E+03   -0.13851E-03   -0.24959E-04 40656   0.620E-02    0.237E-01
DAV:  38    -0.231187900139E+03   -0.88035E-04   -0.85465E-05 35344   0.435E-02    0.227E-01
DAV:  39    -0.231187931121E+03   -0.30982E-04   -0.52521E-05 27416   0.314E-02    0.189E-01
DAV:  40    -0.231187988680E+03   -0.57558E-04   -0.90776E-05 30328   0.352E-02    0.145E-01
DAV:  41    -0.231188023575E+03   -0.34896E-04   -0.63150E-05 30448   0.303E-02    0.976E-02
DAV:  42    -0.231188041156E+03   -0.17581E-04   -0.26335E-05 24128   0.212E-02    0.663E-02
DAV:  43    -0.231188059501E+03   -0.18345E-04   -0.16428E-05 22928   0.173E-02    0.636E-02
DAV:  44    -0.231188064482E+03   -0.49815E-05   -0.12303E-05 21760   0.135E-02
  20 F= -.23118806E+03 E0= -.23117091E+03  d E =-.806985E+00  mag=     9.3461
       N       E                     dE             d eps       ncg     rms          rms(c)
DAV:   1    -0.231120746986E+03    0.67313E-01   -0.20444E+00 39504   0.118E+01    0.931E-01
DAV:   2    -0.231216894086E+03   -0.96147E-01   -0.10065E+00 34672   0.210E+00    0.887E-01
DAV:   3    -0.231222746607E+03   -0.58525E-02   -0.54948E-02 41824   0.126E+00    0.157E+00
DAV:   4    -0.231218682262E+03    0.40643E-02   -0.24848E-02 39576   0.852E-01    0.147E+00
DAV:   5    -0.231216165377E+03    0.25169E-02   -0.46429E-03 39400   0.410E-01    0.487E-01
DAV:   6    -0.231217903078E+03   -0.17377E-02   -0.32535E-03 38128   0.342E-01    0.502E-01
DAV:   7    -0.231218178042E+03   -0.27496E-03   -0.35680E-03 40256   0.301E-01    0.583E-01
DAV:   8    -0.231217662976E+03    0.51507E-03   -0.16498E-03 39616   0.281E-01    0.299E-01
DAV:   9    -0.231218080333E+03   -0.41736E-03   -0.70972E-04 40400   0.212E-01    0.502E-01
DAV:  10    -0.231217762060E+03    0.31827E-03   -0.47964E-04 40280   0.175E-01    0.402E-01
DAV:  11    -0.231217665997E+03    0.96063E-04   -0.32149E-04 40152   0.121E-01    0.168E-01
DAV:  12    -0.231217992530E+03   -0.32653E-03   -0.26606E-04 37296   0.129E-01    0.320E-01
DAV:  13    -0.231217842372E+03    0.15016E-03   -0.20084E-04 35624   0.892E-02    0.220E-01
DAV:  14    -0.231217831664E+03    0.10707E-04   -0.54748E-05 27752   0.470E-02    0.139E-01
DAV:  15    -0.231217872306E+03   -0.40641E-04   -0.25161E-05 20920   0.224E-02    0.107E-01
DAV:  16    -0.231217891625E+03   -0.19319E-04   -0.76426E-06 19408   0.904E-03    0.990E-02
DAV:  17    -0.231217898342E+03   -0.67170E-05   -0.10531E-05 20560   0.163E-02
  21 F= -.23121790E+03 E0= -.23120083E+03  d E =-.298339E-01  mag=     9.3526
       N       E                     dE             d eps       ncg     rms          rms(c)
DAV:   1    -0.230605384597E+03    0.61251E+00   -0.14398E+01 37808   0.296E+01    0.269E+00
DAV:   2    -0.231266759273E+03   -0.66137E+00   -0.67663E+00 35408   0.597E+00    0.410E+00
DAV:   3    -0.231318369810E+03   -0.51611E-01   -0.69724E-01 45848   0.421E+00    0.671E+00
DAV:   4    -0.231280498137E+03    0.37872E-01   -0.63544E-01 38960   0.273E+00    0.566E+00
DAV:   5    -0.231241376419E+03    0.39122E-01   -0.21942E-01 37192   0.232E+00    0.280E+00
DAV:   6    -0.231243514004E+03   -0.21376E-02   -0.54394E-02 40504   0.122E+00    0.179E+00
DAV:   7    -0.231246893213E+03   -0.33792E-02   -0.16704E-02 41872   0.673E-01    0.163E+00
DAV:   8    -0.231248816527E+03   -0.19233E-02   -0.21222E-02 39576   0.758E-01    0.163E+00
DAV:   9    -0.231252230446E+03   -0.34139E-02   -0.60509E-03 40072   0.523E-01    0.222E+00
DAV:  10    -0.231249794044E+03    0.24364E-02   -0.17231E-03 39440   0.230E-01    0.258E+00
DAV:  11    -0.231253588179E+03   -0.37941E-02   -0.47060E-03 42360   0.417E-01    0.381E+00
DAV:  12    -0.231252779342E+03    0.80884E-03   -0.48311E-03 40648   0.331E-01    0.444E+00
DAV:  13    -0.231250068443E+03    0.27109E-02   -0.19120E-03 39960   0.172E-01    0.474E+00
DAV:  14    -0.231247002117E+03    0.30663E-02   -0.54036E-04 38832   0.103E-01    0.490E+00
DAV:  15    -0.231245992184E+03    0.10099E-02   -0.55683E-04 42120   0.197E-01    0.506E+00
DAV:  16    -0.231244491330E+03    0.15009E-02   -0.66602E-04 43352   0.162E-01    0.508E+00
DAV:  17    -0.231237363054E+03    0.71283E-02   -0.30994E-03 46056   0.293E-01    0.460E+00
DAV:  18    -0.231232748177E+03    0.46149E-02   -0.30897E-03 45280   0.327E-01    0.349E+00
DAV:  19    -0.231235540561E+03   -0.27924E-02   -0.75252E-03 43520   0.440E-01    0.148E+00
DAV:  20    -0.231247057631E+03   -0.11517E-01   -0.82723E-03 37888   0.460E-01    0.130E+00
DAV:  21    -0.231249947822E+03   -0.28902E-02   -0.55367E-03 40672   0.518E-01    0.968E-01
DAV:  22    -0.231249231890E+03    0.71593E-03   -0.30665E-03 46080   0.331E-01    0.450E-01
DAV:  23    -0.231250506884E+03   -0.12750E-02   -0.12354E-03 43016   0.204E-01    0.832E-01
DAV:  24    -0.231250075002E+03    0.43188E-03   -0.48878E-04 42736   0.141E-01    0.916E-01
DAV:  25    -0.231249097771E+03    0.97723E-03   -0.52391E-04 43200   0.134E-01    0.314E-01
DAV:  26    -0.231249971833E+03   -0.87406E-03   -0.44656E-04 39544   0.905E-02    0.385E-01
DAV:  27    -0.231250121972E+03   -0.15014E-03   -0.25290E-04 34416   0.911E-02    0.355E-01
DAV:  28    -0.231249936858E+03    0.18511E-03   -0.11670E-04 38768   0.705E-02    0.143E-01
DAV:  29    -0.231250064500E+03   -0.12764E-03   -0.57411E-05 28736   0.485E-02    0.640E-02
DAV:  30    -0.231250125392E+03   -0.60892E-04   -0.32726E-05 27312   0.304E-02    0.706E-02
DAV:  31    -0.231250118105E+03    0.72868E-05   -0.68980E-06 20264   0.118E-02
  22 F= -.23125012E+03 E0= -.23123319E+03  d E =-.322198E-01  mag=     9.3538
       N       E                     dE             d eps       ncg     rms          rms(c)
DAV:   1    -0.231245030139E+03    0.50953E-02   -0.41579E-01 34344   0.336E+00    0.241E-01
DAV:   2    -0.231251474321E+03   -0.64442E-02   -0.67170E-02 35432   0.661E-01    0.275E-01
DAV:   3    -0.231252061034E+03   -0.58671E-03   -0.37343E-03 38208   0.357E-01    0.728E-01
DAV:   4    -0.231251297298E+03    0.76374E-03   -0.16405E-03 39224   0.235E-01    0.454E-01
DAV:   5    -0.231251404516E+03   -0.10722E-03   -0.84465E-04 36104   0.210E-01    0.177E-01
DAV:   6    -0.231251485380E+03   -0.80864E-04   -0.41097E-04 37864   0.115E-01    0.188E-01
DAV:   7    -0.231251476433E+03    0.89469E-05   -0.34918E-04 34128   0.996E-02    0.154E-01
DAV:   8    -0.231251453113E+03    0.23320E-04   -0.20009E-04 33256   0.978E-02    0.139E-01
DAV:   9    -0.231251475672E+03   -0.22559E-04   -0.79150E-05 30664   0.674E-02    0.219E-01
DAV:  10    -0.231251423852E+03    0.51820E-04   -0.44402E-05 27760   0.528E-02    0.218E-01
DAV:  11    -0.231251372313E+03    0.51540E-04   -0.34608E-05 23392   0.444E-02    0.789E-02
DAV:  12    -0.231251440365E+03   -0.68052E-04   -0.68575E-05 25600   0.507E-02    0.118E-01
DAV:  13    -0.231251455541E+03   -0.15176E-04   -0.68497E-05 26520   0.455E-02    0.120E-01
DAV:  14    -0.231251439070E+03    0.16471E-04   -0.18211E-05 20256   0.232E-02    0.104E-01
DAV:  15    -0.231251436486E+03    0.25837E-05   -0.61452E-06 17736   0.788E-03
  23 F= -.23125144E+03 E0= -.23123439E+03  d E =-.131838E-02  mag=     9.3463
       N       E                     dE             d eps       ncg     rms          rms(c)
DAV:   1    -0.231199797072E+03    0.51642E-01   -0.72788E+00 33280   0.108E+01    0.729E-01
DAV:   2    -0.231262534509E+03   -0.62737E-01   -0.59999E-01 35416   0.223E+00    0.271E+00
DAV:   3    -0.231252716734E+03    0.98178E-02   -0.52087E-02 39608   0.108E+00    0.147E+00
DAV:   4    -0.231256112676E+03   -0.33959E-02   -0.11195E-02 38104   0.794E-01    0.985E-01
DAV:   5    -0.231254593462E+03    0.15192E-02   -0.64979E-03 40352   0.562E-01    0.625E-01
DAV:   6    -0.231254668877E+03   -0.75415E-04   -0.23619E-03 41352   0.276E-01    0.527E-01
DAV:   7    -0.231254644917E+03    0.23960E-04   -0.23425E-03 42896   0.247E-01    0.444E-01
DAV:   8    -0.231254821304E+03   -0.17639E-03   -0.10187E-03 42872   0.198E-01    0.691E-01
DAV:   9    -0.231254535994E+03    0.28531E-03   -0.28643E-04 35912   0.764E-02    0.854E-01
DAV:  10    -0.231255892157E+03   -0.13562E-02   -0.26353E-03 40552   0.323E-01    0.180E+00
DAV:  11    -0.231255507329E+03    0.38483E-03   -0.32006E-03 40064   0.325E-01    0.239E+00
DAV:  12    -0.231254597112E+03    0.91022E-03   -0.15982E-03 39504   0.189E-01    0.270E+00
DAV:  13    -0.231253382141E+03    0.12150E-02   -0.55964E-04 38216   0.960E-02    0.285E+00
DAV:  14    -0.231253033247E+03    0.34889E-03   -0.21801E-04 34512   0.531E-02    0.304E+00
DAV:  15    -0.231249660550E+03    0.33727E-02   -0.47674E-04 40248   0.141E-01    0.260E+00
DAV:  16    -0.231247984743E+03    0.16758E-02   -0.72293E-04 43616   0.169E-01    0.173E+00
DAV:  17    -0.231249779387E+03   -0.17946E-02   -0.12117E-03 39752   0.174E-01    0.906E-01
DAV:  18    -0.231252510288E+03   -0.27309E-02   -0.97676E-04 37944   0.169E-01    0.186E-01
DAV:  19    -0.231254426489E+03   -0.19162E-02   -0.55647E-04 35680   0.136E-01    0.262E-01
DAV:  20    -0.231254698220E+03   -0.27173E-03   -0.29668E-04 39880   0.888E-02    0.439E-01
DAV:  21    -0.231254372644E+03    0.32558E-03   -0.10198E-04 34600   0.576E-02    0.368E-01
DAV:  22    -0.231254320858E+03    0.51786E-04   -0.44882E-05 29656   0.449E-02    0.209E-01
DAV:  23    -0.231254514569E+03   -0.19371E-03   -0.63466E-05 31872   0.334E-02    0.625E-02
DAV:  24    -0.231254638365E+03   -0.12380E-03   -0.40967E-05 28128   0.301E-02    0.121E-01
DAV:  25    -0.231254626259E+03    0.12106E-04   -0.21160E-05 23336   0.288E-02    0.601E-02
DAV:  26    -0.231254628387E+03   -0.21280E-05   -0.84200E-06 20112   0.161E-02
  24 F= -.23125463E+03 E0= -.23123782E+03  d E =-.319190E-02  mag=     9.3316
       N       E                     dE             d eps       ncg     rms          rms(c)
DAV:   1    -0.231241028817E+03    0.13597E-01   -0.68053E-01 35696   0.560E+00    0.344E-01
DAV:   2    -0.231256031668E+03   -0.15003E-01   -0.15619E-01 34800   0.104E+00    0.386E-01
DAV:   3    -0.231259266463E+03   -0.32348E-02   -0.12618E-02 41720   0.523E-01    0.196E+00
DAV:   4    -0.231252620930E+03    0.66455E-02   -0.62458E-03 36528   0.413E-01    0.618E-01
DAV:   5    -0.231255023713E+03   -0.24028E-02   -0.19456E-03 37856   0.217E-01    0.306E-01
DAV:   6    -0.231255883958E+03   -0.86024E-03   -0.61568E-04 37376   0.143E-01    0.201E-01
DAV:   7    -0.231256151736E+03   -0.26778E-03   -0.36946E-04 40336   0.119E-01    0.279E-01
DAV:   8    -0.231256153429E+03   -0.16923E-05   -0.18727E-04 37248   0.928E-02    0.317E-01
DAV:   9    -0.231256038260E+03    0.11517E-03   -0.68976E-05 32696   0.573E-02    0.255E-01
DAV:  10    -0.231256019140E+03    0.19119E-04   -0.46386E-05 25352   0.443E-02    0.141E-01
DAV:  11    -0.231256081127E+03   -0.61987E-04   -0.70067E-05 29984   0.668E-02    0.105E-01
DAV:  12    -0.231256108394E+03   -0.27267E-04   -0.11760E-04 30656   0.728E-02    0.994E-02
DAV:  13    -0.231256128672E+03   -0.20278E-04   -0.19177E-04 35368   0.908E-02    0.125E-01
[...]
DAV:  21    -0.232294168203E+03   -0.83876E-04   -0.42721E-05 29488   0.370E-02    0.129E-01
DAV:  22    -0.232294212317E+03   -0.44114E-04   -0.55807E-05 33656   0.391E-02    0.116E-01
DAV:  23    -0.232294205140E+03    0.71774E-05   -0.38349E-05 29424   0.364E-02
 189 F= -.23229421E+03 E0= -.23227849E+03  d E =-.120655E-01  mag=     9.1347
       N       E                     dE             d eps       ncg     rms          rms(c)
DAV:   1    -0.232274046380E+03    0.20166E-01   -0.88698E-01 34616   0.723E+00    0.446E-01
DAV:   2    -0.232298677904E+03   -0.24632E-01   -0.25721E-01 34928   0.134E+00    0.646E-01
DAV:   3    -0.232302549267E+03   -0.38714E-02   -0.16196E-02 39952   0.694E-01    0.204E+00
DAV:   4    -0.232296863946E+03    0.56853E-02   -0.49616E-03 38064   0.513E-01    0.590E-01
DAV:   5    -0.232298177899E+03   -0.13140E-02   -0.18207E-03 37864   0.286E-01    0.275E-01
DAV:   6    -0.232298576281E+03   -0.39838E-03   -0.42726E-04 42312   0.107E-01    0.221E-01
DAV:   7    -0.232298631809E+03   -0.55528E-04   -0.13227E-04 34224   0.501E-02    0.226E-01
DAV:   8    -0.232298600995E+03    0.30814E-04   -0.53170E-05 26112   0.469E-02    0.261E-01
DAV:   9    -0.232298552369E+03    0.48626E-04   -0.55105E-05 28048   0.525E-02    0.262E-01
DAV:  10    -0.232298531593E+03    0.20775E-04   -0.58558E-05 29776   0.529E-02    0.318E-01
DAV:  11    -0.232298566629E+03   -0.35035E-04   -0.53608E-05 28264   0.542E-02    0.304E-01
DAV:  12    -0.232298593570E+03   -0.26941E-04   -0.63653E-04 43152   0.127E-01    0.187E-01
DAV:  13    -0.232298716721E+03   -0.12315E-03   -0.12322E-03 44344   0.167E-01    0.265E-01
DAV:  14    -0.232298655743E+03    0.60977E-04   -0.96854E-04 39008   0.157E-01    0.252E-01
DAV:  15    -0.232298674282E+03   -0.18539E-04   -0.34011E-04 37592   0.110E-01    0.212E-01
DAV:  16    -0.232298654998E+03    0.19284E-04   -0.15211E-04 36240   0.706E-02    0.174E-01
DAV:  17    -0.232298668006E+03   -0.13008E-04   -0.65978E-05 34216   0.492E-02    0.189E-01
DAV:  18    -0.232298652037E+03    0.15968E-04   -0.45572E-05 31712   0.433E-02    0.175E-01
DAV:  19    -0.232298635550E+03    0.16487E-04   -0.75492E-05 28960   0.475E-02    0.564E-02
DAV:  20    -0.232298686175E+03   -0.50625E-04   -0.30745E-05 26776   0.477E-02    0.106E-01
DAV:  21    -0.232298677190E+03    0.89849E-05   -0.23005E-05 22904   0.371E-02
 190 F= -.23229868E+03 E0= -.23228298E+03  d E =-.447205E-02  mag=     9.1353
       N       E                     dE             d eps       ncg     rms          rms(c)
DAV:   1    -0.232288541787E+03    0.10144E-01   -0.29896E-01 34496   0.404E+00    0.256E-01
DAV:   2    -0.232296768104E+03   -0.82263E-02   -0.80024E-02 34504   0.787E-01    0.889E-01
DAV:   3    -0.232295815777E+03    0.95233E-03   -0.49581E-03 38840   0.383E-01    0.518E-01
DAV:   4    -0.232296382891E+03   -0.56711E-03   -0.25801E-03 36368   0.281E-01    0.386E-01
DAV:   5    -0.232296161919E+03    0.22097E-03   -0.10190E-03 33760   0.194E-01    0.118E-01
DAV:   6    -0.232296224502E+03   -0.62583E-04   -0.20374E-04 31584   0.931E-02    0.154E-01
DAV:   7    -0.232296197806E+03    0.26696E-04   -0.14423E-04 30568   0.873E-02    0.123E-01
DAV:   8    -0.232296202991E+03   -0.51850E-05   -0.12255E-04 29952   0.793E-02    0.105E-01
DAV:   9    -0.232296186242E+03    0.16749E-04   -0.72228E-05 30264   0.752E-02    0.602E-02
DAV:  10    -0.232296210713E+03   -0.24471E-04   -0.34915E-05 23256   0.453E-02    0.143E-01
DAV:  11    -0.232296187715E+03    0.22998E-04   -0.31405E-05 22304   0.352E-02    0.156E-01
DAV:  12    -0.232296167439E+03    0.20276E-04   -0.86682E-06 19808   0.127E-02    0.158E-01
DAV:  13    -0.232296159789E+03    0.76499E-05   -0.36627E-06 18080   0.100E-02
 191 F= -.23229616E+03 E0= -.23228035E+03  d E =0.251740E-02  mag=     9.1368
       N       E                     dE             d eps       ncg     rms          rms(c)
DAV:   1    -0.232253527453E+03    0.42640E-01   -0.15293E+00 34440   0.883E+00    0.650E-01
DAV:   2    -0.232303810660E+03   -0.50283E-01   -0.37882E-01 35928   0.194E+00    0.435E+00
DAV:   3    -0.232280241613E+03    0.23569E-01   -0.49927E-02 38912   0.120E+00    0.630E-01
DAV:   4    -0.232290233108E+03   -0.99915E-02   -0.16643E-02 37344   0.698E-01    0.106E+00
DAV:   5    -0.232288369432E+03    0.18637E-02   -0.69258E-03 37136   0.487E-01    0.342E-01
DAV:   6    -0.232288957517E+03   -0.58809E-03   -0.71354E-04 40600   0.146E-01    0.546E-01
DAV:   7    -0.232288674947E+03    0.28257E-03   -0.35052E-04 38544   0.898E-02    0.602E-01
DAV:   8    -0.232288366795E+03    0.30815E-03   -0.73898E-05 30240   0.351E-02    0.691E-01
DAV:   9    -0.232288256139E+03    0.11066E-03   -0.62596E-04 40056   0.166E-01    0.394E-01
DAV:  10    -0.232288810327E+03   -0.55419E-03   -0.63963E-04 42408   0.188E-01    0.568E-01
DAV:  11    -0.232288946737E+03   -0.13641E-03   -0.38477E-04 40152   0.112E-01    0.778E-01
DAV:  12    -0.232288540778E+03    0.40596E-03   -0.10763E-04 35760   0.549E-02    0.875E-01
DAV:  13    -0.232288896659E+03   -0.35588E-03   -0.40511E-04 40736   0.120E-01    0.141E+00
DAV:  14    -0.232288334042E+03    0.56262E-03   -0.19269E-04 34192   0.606E-02    0.167E+00
DAV:  15    -0.232286076179E+03    0.22579E-02   -0.12942E-03 44576   0.196E-01    0.871E-01
DAV:  16    -0.232287185387E+03   -0.11092E-02   -0.10990E-03 41504   0.200E-01    0.288E-01
DAV:  17    -0.232288573759E+03   -0.13884E-02   -0.85387E-04 38528   0.159E-01    0.370E-01
DAV:  18    -0.232288732980E+03   -0.15922E-03   -0.36486E-04 39712   0.869E-02    0.392E-01
DAV:  19    -0.232288648547E+03    0.84433E-04   -0.10450E-04 35592   0.465E-02    0.387E-01
DAV:  20    -0.232288615576E+03    0.32971E-04   -0.51834E-05 31432   0.417E-02    0.310E-01
DAV:  21    -0.232288728054E+03   -0.11248E-03   -0.25688E-04 42376   0.880E-02    0.179E-01
DAV:  22    -0.232288879692E+03   -0.15164E-03   -0.19522E-04 41984   0.807E-02    0.417E-01
DAV:  23    -0.232288754609E+03    0.12508E-03   -0.87740E-05 33608   0.724E-02    0.516E-01
DAV:  24    -0.232288514272E+03    0.24034E-03   -0.49231E-05 29464   0.469E-02    0.371E-01
DAV:  25    -0.232288557576E+03   -0.43305E-04   -0.43847E-05 24976   0.379E-02    0.235E-01
DAV:  26    -0.232288676502E+03   -0.11893E-03   -0.23857E-05 25400   0.301E-02    0.163E-01
DAV:  27    -0.232288742387E+03   -0.65884E-04   -0.19853E-05 22008   0.170E-02    0.144E-01
DAV:  28    -0.232288760446E+03   -0.18059E-04   -0.64291E-06 19992   0.146E-02    0.913E-02
DAV:  29    -0.232288778350E+03   -0.17904E-04   -0.45382E-06 19600   0.127E-02    0.436E-02
DAV:  30    -0.232288789987E+03   -0.11637E-04   -0.40681E-06 18880   0.102E-02    0.141E-02
DAV:  31    -0.232288794670E+03   -0.46823E-05   -0.24150E-06 17912   0.619E-03
 192 F= -.23228879E+03 E0= -.23227302E+03  d E =0.736512E-02  mag=     9.1321
       N       E                     dE             d eps       ncg     rms          rms(c)
DAV:   1    -0.232263512450E+03    0.25278E-01   -0.91719E-01 35224   0.706E+00    0.456E-01
DAV:   2    -0.232289694627E+03   -0.26182E-01   -0.25966E-01 34904   0.137E+00    0.134E+00
DAV:   3    -0.232289246716E+03    0.44791E-03   -0.18048E-02 39144   0.740E-01    0.141E+00
DAV:   4    -0.232288179465E+03    0.10673E-02   -0.76361E-03 37488   0.546E-01    0.804E-01
DAV:   5    -0.232288013275E+03    0.16619E-03   -0.31640E-03 36656   0.349E-01    0.344E-01
DAV:   6    -0.232288244503E+03   -0.23123E-03   -0.88344E-04 38968   0.149E-01    0.304E-01
DAV:   7    -0.232288291489E+03   -0.46986E-04   -0.45098E-04 39008   0.141E-01    0.226E-01
DAV:   8    -0.232288385073E+03   -0.93584E-04   -0.30157E-04 42200   0.116E-01    0.305E-01
DAV:   9    -0.232288344609E+03    0.40464E-04   -0.16001E-04 36760   0.770E-02    0.358E-01
DAV:  10    -0.232288343007E+03    0.16018E-05   -0.46448E-05 27088   0.407E-02
 193 F= -.23228834E+03 E0= -.23227287E+03  d E =0.451662E-03  mag=     9.1289
       N       E                     dE             d eps       ncg     rms          rms(c)
DAV:   1    -0.232251706799E+03    0.36638E-01   -0.24638E+00 33952   0.105E+01    0.984E-01
DAV:   2    -0.232366881332E+03   -0.11517E+00   -0.94794E-01 39024   0.287E+00    0.669E+00
DAV:   3    -0.232283068806E+03    0.83813E-01   -0.26469E-01 40384   0.221E+00    0.182E+00
DAV:   4    -0.232294506811E+03   -0.11438E-01   -0.34171E-02 39752   0.991E-01    0.118E+00
DAV:   5    -0.232298636984E+03   -0.41302E-02   -0.14704E-02 39288   0.638E-01    0.691E-01
DAV:   6    -0.232299961072E+03   -0.13241E-02   -0.38045E-03 40088   0.423E-01    0.622E-01
DAV:   7    -0.232300353920E+03   -0.39285E-03   -0.15671E-03 40576   0.246E-01    0.712E-01
DAV:   8    -0.232299933944E+03    0.41998E-03   -0.37706E-04 40864   0.110E-01    0.717E-01
DAV:   9    -0.232299777354E+03    0.15659E-03   -0.10121E-04 34560   0.593E-02    0.879E-01
DAV:  10    -0.232299557983E+03    0.21937E-03   -0.22984E-04 32264   0.837E-02    0.840E-01
DAV:  11    -0.232299449151E+03    0.10883E-03   -0.21841E-03 43368   0.245E-01    0.447E-01
DAV:  12    -0.232300348859E+03   -0.89971E-03   -0.27289E-03 44136   0.294E-01    0.765E-01
DAV:  13    -0.232300348597E+03    0.26201E-06   -0.18802E-03 38864   0.209E-01    0.822E-01
DAV:  14    -0.232299782176E+03    0.56642E-03   -0.67313E-04 41504   0.128E-01    0.807E-01
DAV:  15    -0.232299605783E+03    0.17639E-03   -0.11233E-04 31912   0.284E-02    0.853E-01
DAV:  16    -0.232299250817E+03    0.35497E-03   -0.22453E-04 34920   0.755E-02    0.533E-01
DAV:  17    -0.232299884365E+03   -0.63355E-03   -0.20672E-04 41112   0.106E-01    0.509E-01
DAV:  18    -0.232300001153E+03   -0.11679E-03   -0.12214E-04 38392   0.900E-02    0.497E-01
DAV:  19    -0.232300009471E+03   -0.83175E-05   -0.79062E-05 34512   0.583E-02
 194 F= -.23230001E+03 E0= -.23228430E+03  d E =-.116665E-01  mag=     9.1313
       N       E                     dE             d eps       ncg     rms          rms(c)
DAV:   1    -0.232063163679E+03    0.23684E+00   -0.17185E+01 33656   0.238E+01    0.162E+00
DAV:   2    -0.232332126610E+03   -0.26896E+00   -0.28267E+00 34408   0.465E+00    0.210E+00
DAV:   3    -0.232376768924E+03   -0.44642E-01   -0.34715E-01 39208   0.240E+00    0.598E+00
DAV:   4    -0.232322829955E+03    0.53939E-01   -0.20021E-01 38824   0.180E+00    0.208E+00
DAV:   5    -0.232325562547E+03   -0.27326E-02   -0.18221E-02 39424   0.949E-01    0.115E+00
DAV:   6    -0.232329341770E+03   -0.37792E-02   -0.41655E-03 41736   0.273E-01    0.111E+00
DAV:   7    -0.232330600808E+03   -0.12590E-02   -0.14908E-03 42384   0.183E-01    0.150E+00
DAV:   8    -0.232330099660E+03    0.50115E-03   -0.37560E-04 38384   0.115E-01    0.165E+00
DAV:   9    -0.232327917796E+03    0.21819E-02   -0.29537E-03 42200   0.348E-01    0.131E+00
DAV:  10    -0.232331410377E+03   -0.34926E-02   -0.12321E-02 44312   0.794E-01    0.258E+00
DAV:  11    -0.232333002668E+03   -0.15923E-02   -0.12101E-02 42160   0.727E-01    0.353E+00
DAV:  12    -0.232326358663E+03    0.66440E-02   -0.68623E-03 40016   0.492E-01    0.308E+00
DAV:  13    -0.232323609847E+03    0.27488E-02   -0.38544E-03 44936   0.323E-01    0.239E+00
DAV:  14    -0.232325247919E+03   -0.16381E-02   -0.14288E-03 41760   0.149E-01    0.219E+00
DAV:  15    -0.232326175524E+03   -0.92761E-03   -0.13985E-03 43328   0.183E-01    0.187E+00
DAV:  16    -0.232326172749E+03    0.27744E-05   -0.30629E-03 44760   0.299E-01    0.803E-01
DAV:  17    -0.232330180884E+03   -0.40081E-02   -0.40828E-03 41424   0.377E-01    0.102E+00
DAV:  18    -0.232330543723E+03   -0.36284E-03   -0.23180E-03 39960   0.310E-01    0.116E+00
DAV:  19    -0.232328585651E+03    0.19581E-02   -0.12898E-03 42584   0.221E-01    0.772E-01
DAV:  20    -0.232329159641E+03   -0.57399E-03   -0.34058E-04 43248   0.128E-01    0.514E-01
DAV:  21    -0.232329854899E+03   -0.69526E-03   -0.19420E-04 36424   0.759E-02    0.466E-01
DAV:  22    -0.232329991366E+03   -0.13647E-03   -0.82431E-05 36496   0.559E-02    0.438E-01
DAV:  23    -0.232330068191E+03   -0.76825E-04   -0.63900E-05 34112   0.541E-02    0.387E-01
DAV:  24    -0.232330172316E+03   -0.10412E-03   -0.99618E-05 37600   0.532E-02    0.323E-01
DAV:  25    -0.232330246552E+03   -0.74236E-04   -0.77119E-05 35560   0.588E-02    0.298E-01
DAV:  26    -0.232330290334E+03   -0.43782E-04   -0.69279E-05 31904   0.558E-02    0.289E-01
DAV:  27    -0.232330276535E+03    0.13799E-04   -0.47657E-05 29968   0.458E-02    0.197E-01
DAV:  28    -0.232330306995E+03   -0.30460E-04   -0.28878E-05 26632   0.316E-02    0.127E-01
DAV:  29    -0.232330341271E+03   -0.34276E-04   -0.15511E-05 22920   0.250E-02    0.682E-02
DAV:  30    -0.232330363283E+03   -0.22012E-04   -0.14340E-05 23040   0.183E-02    0.553E-02
DAV:  31    -0.232330367837E+03   -0.45538E-05   -0.12034E-05 22672   0.142E-02
 195 F= -.23233037E+03 E0= -.23231495E+03  d E =-.303584E-01  mag=     9.1205
       N       E                     dE             d eps       ncg     rms          rms(c)
DAV:   1    -0.232102089741E+03    0.22827E+00   -0.54413E+00 38088   0.227E+01    0.140E+00
DAV:   2    -0.232336023285E+03   -0.23393E+00   -0.24518E+00 34728   0.397E+00    0.141E+00
DAV:   3    -0.232354959866E+03   -0.18937E-01   -0.13593E-01 39816   0.194E+00    0.328E+00
DAV:   4    -0.232335861058E+03    0.19099E-01   -0.28280E-02 36976   0.128E+00    0.167E+00
DAV:   5    -0.232336473306E+03   -0.61225E-03   -0.11509E-02 38488   0.633E-01    0.609E-01
DAV:   6    -0.232338449321E+03   -0.19760E-02   -0.40411E-03 40400   0.531E-01    0.761E-01
DAV:   7    -0.232337729824E+03    0.71950E-03   -0.22299E-03 42328   0.471E-01    0.494E-01
DAV:   8    -0.232338088696E+03   -0.35887E-03   -0.37061E-03 45056   0.394E-01    0.542E-01
DAV:   9    -0.232338044758E+03    0.43938E-04   -0.42661E-03 41592   0.386E-01    0.642E-01
DAV:  10    -0.232337817495E+03    0.22726E-03   -0.69632E-04 42496   0.175E-01    0.621E-01
DAV:  11    -0.232337552308E+03    0.26519E-03   -0.40518E-04 44624   0.132E-01    0.489E-01
DAV:  12    -0.232337549307E+03    0.30012E-05   -0.30436E-04 39568   0.123E-01    0.228E-01
DAV:  13    -0.232337857098E+03   -0.30779E-03   -0.25823E-04 38816   0.113E-01    0.334E-01
DAV:  14    -0.232337769692E+03    0.87406E-04   -0.15725E-04 36664   0.736E-02    0.324E-01
DAV:  15    -0.232337690783E+03    0.78909E-04   -0.27370E-05 26168   0.171E-02    0.356E-01
DAV:  16    -0.232337546300E+03    0.14448E-03   -0.47123E-05 23096   0.391E-02    0.245E-01
DAV:  17    -0.232337639665E+03   -0.93364E-04   -0.43106E-05 24784   0.498E-02    0.140E-01
DAV:  18    -0.232337726270E+03   -0.86606E-04   -0.50406E-05 27904   0.592E-02    0.124E-01
DAV:  19    -0.232337731053E+03   -0.47824E-05   -0.28439E-05 24656   0.449E-02
 196 F= -.23233773E+03 E0= -.23232252E+03  d E =-.736322E-02  mag=     9.1186
       N       E                     dE             d eps       ncg     rms          rms(c)
DAV:   1    -0.232257155497E+03    0.80571E-01   -0.34667E+00 34424   0.126E+01    0.798E-01
DAV:   2    -0.232328808964E+03   -0.71653E-01   -0.73318E-01 34480   0.239E+00    0.189E+00
DAV:   3    -0.232331839828E+03   -0.30309E-02   -0.44298E-02 38960   0.114E+00    0.267E+00
DAV:   4    -0.232323593158E+03    0.82467E-02   -0.17770E-02 37696   0.825E-01    0.120E+00
DAV:   5    -0.232324901339E+03   -0.13082E-02   -0.59424E-03 37704   0.483E-01    0.926E-01
DAV:   6    -0.232325357182E+03   -0.45584E-03   -0.10503E-03 43184   0.162E-01    0.741E-01
DAV:   7    -0.232325663828E+03   -0.30665E-03   -0.18809E-04 33904   0.452E-02    0.703E-01
DAV:   8    -0.232325705758E+03   -0.41930E-04   -0.16528E-03 45352   0.258E-01    0.673E-01
DAV:   9    -0.232328824483E+03   -0.31187E-02   -0.30702E-03 40704   0.383E-01    0.185E+00
DAV:  10    -0.232327652975E+03    0.11715E-02   -0.27419E-03 39192   0.321E-01    0.225E+00
DAV:  11    -0.232324677020E+03    0.29760E-02   -0.99566E-04 39472   0.178E-01    0.214E+00
DAV:  12    -0.232324302026E+03    0.37499E-03   -0.23517E-04 36512   0.423E-02    0.218E+00
DAV:  13    -0.232324273853E+03    0.28172E-04   -0.15839E-04 36488   0.814E-02    0.227E+00
DAV:  14    -0.232324561087E+03   -0.28723E-03   -0.33486E-04 40640   0.109E-01    0.241E+00
DAV:  15    -0.232326447006E+03   -0.18859E-02   -0.65330E-04 45192   0.164E-01    0.298E+00
DAV:  16    -0.232326872205E+03   -0.42520E-03   -0.49367E-04 38944   0.105E-01    0.348E+00
DAV:  17    -0.232324961194E+03    0.19110E-02   -0.19116E-04 33464   0.588E-02    0.362E+00
DAV:  18    -0.232325665213E+03   -0.70402E-03   -0.19820E-04 38360   0.823E-02    0.396E+00
DAV:  19    -0.232324681853E+03    0.98336E-03   -0.14079E-04 36432   0.504E-02    0.415E+00
DAV:  20    -0.232323443366E+03    0.12385E-02   -0.33726E-05 30240   0.232E-02    0.421E+00
DAV:  21    -0.232321481736E+03    0.19616E-02   -0.40643E-05 28400   0.422E-02    0.408E+00
DAV:  22    -0.232320623609E+03    0.85813E-03   -0.80766E-05 35928   0.492E-02    0.388E+00
DAV:  23    -0.232320100289E+03    0.52332E-03   -0.16349E-04 40552   0.680E-02    0.356E+00
DAV:  24    -0.232316374116E+03    0.37262E-02   -0.12531E-03 47600   0.192E-01    0.220E+00
DAV:  25    -0.232319582652E+03   -0.32085E-02   -0.20328E-03 38056   0.184E-01    0.919E-01
DAV:  26    -0.232323806985E+03   -0.42243E-02   -0.12206E-03 35416   0.165E-01    0.362E-01
DAV:  27    -0.232325870934E+03   -0.20639E-02   -0.50003E-04 35928   0.105E-01    0.332E-01
DAV:  28    -0.232326411447E+03   -0.54051E-03   -0.17101E-04 38584   0.658E-02    0.394E-01
DAV:  29    -0.232326394048E+03    0.17400E-04   -0.10049E-04 33744   0.474E-02    0.374E-01
DAV:  30    -0.232326332557E+03    0.61490E-04   -0.52782E-05 31152   0.426E-02    0.316E-01
DAV:  31    -0.232326346734E+03   -0.14176E-04   -0.30139E-05 25960   0.331E-02    0.309E-01
DAV:  32    -0.232326348282E+03   -0.15478E-05   -0.81264E-06 20816   0.220E-02
 197 F= -.23232635E+03 E0= -.23231101E+03  d E =0.113828E-01  mag=     9.1122
       N       E                     dE             d eps       ncg     rms          rms(c)
DAV:   1    -0.232318245611E+03    0.81011E-02   -0.84597E-01 33608   0.583E+00    0.530E-01
DAV:   2    -0.232344500757E+03   -0.26255E-01   -0.17053E-01 35896   0.134E+00    0.354E+00
DAV:   3    -0.232329799613E+03    0.14701E-01   -0.14483E-02 39504   0.757E-01    0.176E+00
DAV:   4    -0.232330790288E+03   -0.99067E-03   -0.10944E-03 36616   0.136E-01    0.148E+00
DAV:   5    -0.232331649775E+03   -0.85949E-03   -0.56274E-04 40392   0.124E-01    0.115E+00
DAV:   6    -0.232332739050E+03   -0.10893E-02   -0.85825E-03 39616   0.457E-01    0.109E+00
DAV:   7    -0.232336900046E+03   -0.41610E-02   -0.46265E-03 42560   0.397E-01    0.231E+00
DAV:   8    -0.232332971508E+03    0.39285E-02   -0.41466E-03 35888   0.326E-01    0.263E+00
DAV:   9    -0.232327925724E+03    0.50458E-02   -0.16911E-03 43664   0.263E-01    0.226E+00
DAV:  10    -0.232325620990E+03    0.23047E-02   -0.36125E-03 43144   0.340E-01    0.131E+00
DAV:  11    -0.232328996299E+03   -0.33753E-02   -0.20561E-03 41408   0.302E-01    0.536E-01
DAV:  12    -0.232332348507E+03   -0.33522E-02   -0.14961E-03 38864   0.237E-01    0.247E-01
DAV:  13    -0.232333317299E+03   -0.96879E-03   -0.77639E-04 39432   0.163E-01    0.238E-01
DAV:  14    -0.232333487351E+03   -0.17005E-03   -0.30062E-04 41528   0.946E-02    0.327E-01
DAV:  15    -0.232333445631E+03    0.41721E-04   -0.12708E-04 36600   0.640E-02    0.310E-01
DAV:  16    -0.232333416497E+03    0.29134E-04   -0.64674E-05 33000   0.482E-02    0.254E-01
DAV:  17    -0.232333438300E+03   -0.21803E-04   -0.16522E-04 40640   0.913E-02    0.185E-01
DAV:  18    -0.232333505002E+03   -0.66702E-04   -0.16658E-04 41224   0.875E-02    0.324E-01
DAV:  19    -0.232333386610E+03    0.11839E-03   -0.12841E-04 34272   0.861E-02    0.228E-01
DAV:  20    -0.232333381136E+03    0.54739E-05   -0.60878E-05 32640   0.637E-02
 198 F= -.23233338E+03 E0= -.23231810E+03  d E =-.703285E-02  mag=     9.1157
