       N       E                     dE             d eps       ncg     rms          ort
DAV:   1     0.651027728396E+04    0.65103E+04   -0.30355E+05  9152   0.159E+03
DAV:   2     0.347684601315E+03   -0.61626E+04   -0.57977E+04  9152   0.465E+02
DAV:   3    -0.377246230228E+03   -0.72493E+03   -0.71174E+03  9152   0.171E+02
DAV:   4    -0.408790396019E+03   -0.31544E+02   -0.30911E+02  9152   0.312E+01
DAV:   5    -0.411181491990E+03   -0.23911E+01   -0.23771E+01  9152   0.636E+00
SDA:   6    -0.248789192307E+03    0.16239E+03   -0.23771E+01  9152   0.110E+04 0.000E+00
CGA:   7    -0.355734923689E+03   -0.10695E+03   -0.10809E+03  9152   0.146E+03 0.282E+02
CGA:   8    -0.361519293004E+03   -0.57844E+01   -0.13112E+02  9152   0.891E+02-0.136E+01
CGA:   9    -0.365849793605E+03   -0.43305E+01   -0.10677E+01  9152   0.162E+03 0.212E+03
CGA:  10    -0.361064425167E+03    0.47854E+01   -0.81357E+01  9152   0.592E+03-0.227E+03
CGA:  11    -0.362507531841E+03   -0.14431E+01   -0.34373E+02  9152   0.267E+03-0.247E+03
CGA:  12    -0.365024270942E+03   -0.25167E+01   -0.30452E+01  9152   0.365E+02 0.323E+02
CGA:  13    -0.365613397558E+03   -0.58913E+00   -0.28763E+00  9152   0.465E+02 0.540E+02
CGA:  14    -0.368487900565E+03   -0.28745E+01   -0.40017E+00  9152   0.182E+03 0.252E+03
CGA:  15    -0.366851417120E+03    0.16365E+01   -0.69645E+01  9152   0.395E+03-0.291E+03
CGA:  16    -0.365988359262E+03    0.86306E+00   -0.21487E+02  9152   0.431E+02-0.244E+02
CGA:  17    -0.366895231505E+03   -0.90687E+00   -0.50106E+00  9152   0.371E+02 0.391E+02
CGA:  18    -0.370051684707E+03   -0.31565E+01   -0.38054E+00  9152   0.170E+03 0.245E+03
CGA:  19    -0.369418062570E+03    0.63362E+00   -0.64917E+01  9152   0.288E+03-0.238E+03
CGA:  20    -0.368160490561E+03    0.12576E+01   -0.12057E+02  9152   0.107E+03-0.808E+02
CGA:  21    -0.373232669937E+03   -0.50722E+01   -0.14538E+01  9152   0.441E+02 0.877E+02
CGA:  22    -0.374082987293E+03   -0.85032E+00   -0.88116E+00  9152   0.563E+01-0.412E+01
CGA:  23    -0.374579466004E+03   -0.49648E+00   -0.50139E+00  9152   0.121E+02 0.245E+00
CGA:  24    -0.375968024505E+03   -0.13886E+01   -0.14530E+01  9152   0.206E+02-0.435E+01
CGA:  25    -0.376514782945E+03   -0.54676E+00   -0.37604E+00  9152   0.717E+01 0.616E+01
CGA:  26    -0.376722350137E+03   -0.20757E+00   -0.38632E+00  9152   0.211E+01-0.188E+01
CGA:  27    -0.376861469261E+03   -0.13912E+00   -0.14009E+00  9152   0.272E+01 0.471E-01
CGA:  28    -0.376944024897E+03   -0.82556E-01   -0.92362E-01  9152   0.974E+00-0.224E+00
CGA:  29    -0.377028845042E+03   -0.84820E-01   -0.84986E-01  9152   0.487E+00 0.124E+00
CGA:  30    -0.377061733432E+03   -0.32888E-01   -0.32943E-01  9152   0.353E+00 0.163E-02
CGA:  31    -0.377087636018E+03   -0.25903E-01   -0.26402E-01  9152   0.192E+00 0.812E-02
CGA:  32    -0.377107821122E+03   -0.20185E-01   -0.19934E-01  9152   0.108E+00 0.167E-01
CGA:  33    -0.377115167298E+03   -0.73462E-02   -0.75712E-02  9152   0.727E-01 0.372E-03
CGA:  34    -0.377123625290E+03   -0.84580E-02   -0.84173E-02  9152   0.436E-01 0.955E-03
CGA:  35    -0.377130227253E+03   -0.66020E-02   -0.64712E-02  9152   0.331E-01 0.197E-02
CGA:  36    -0.377133749219E+03   -0.35220E-02   -0.35112E-02  9152   0.280E-01 0.957E-03
CGA:  37    -0.377136685504E+03   -0.29363E-02   -0.29370E-02  9152   0.188E-01-0.163E-03
CGA:  38    -0.377139045446E+03   -0.23599E-02   -0.23467E-02  9152   0.154E-01 0.273E-03
CGA:  39    -0.377140324445E+03   -0.12790E-02   -0.12756E-02  9152   0.694E-02-0.155E-03
CGA:  40    -0.377141373044E+03   -0.10486E-02   -0.10527E-02  9152   0.502E-02-0.799E-04
CGA:  41    -0.377142191785E+03   -0.81874E-03   -0.82129E-03  9152   0.263E-02-0.432E-04
CGA:  42    -0.377142649061E+03   -0.45728E-03   -0.45924E-03  9152   0.214E-02-0.278E-04
CGA:  43    -0.377142910117E+03   -0.26106E-03   -0.26147E-03  9152   0.216E-02-0.222E-04
CGA:  44    -0.377143084860E+03   -0.17474E-03   -0.17495E-03  9152   0.114E-02-0.583E-05
CGA:  45    -0.377143252813E+03   -0.16795E-03   -0.16847E-03  9152   0.644E-03-0.108E-04
CGA:  46    -0.377143333502E+03   -0.80689E-04   -0.80568E-04  9152   0.583E-03 0.752E-05
CGA:  47    -0.377143398286E+03   -0.64784E-04   -0.64778E-04  9152   0.436E-03 0.132E-04
CGA:  48    -0.377143455188E+03   -0.56902E-04   -0.56598E-04  9152   0.186E-03 0.174E-04
CGA:  49    -0.377143486353E+03   -0.31164E-04   -0.30725E-04  9152   0.264E-03 0.910E-05
CGA:  50    -0.377143511772E+03   -0.25419E-04   -0.25561E-04  9152   0.179E-03 0.664E-05
CGA:  51    -0.377143532628E+03   -0.20856E-04   -0.20851E-04  9152   0.782E-04 0.278E-05
SDA:  52    -0.377143549788E+03   -0.17161E-04   -0.16904E-04  9152   0.753E-04 0.251E-05
CGA:  53    -0.377143554387E+03   -0.45986E-05   -0.45710E-05  9152   0.307E-04-0.334E-06
   1 F= -.37714355E+03 E0= -.37713817E+03  d E =-.377144E+03  mag=    46.0000
       N       E                     dE             d eps       ncg     rms          ort
SDA:   1    -0.377213427881E+03   -0.69878E-01    0.00000E+00  9152   0.510E-01 0.000E+00
CGA:   2    -0.377216506026E+03   -0.30781E-02   -0.31440E-02  9152   0.274E-01-0.470E-03
CGA:   3    -0.377220051757E+03   -0.35457E-02   -0.35531E-02  9152   0.245E-01-0.260E-03
CGA:   4    -0.377222080662E+03   -0.20289E-02   -0.20383E-02  9152   0.349E-02 0.502E-04
CGA:   5    -0.377222835675E+03   -0.75501E-03   -0.75584E-03  9152   0.608E-03-0.784E-05
CGA:   6    -0.377222950676E+03   -0.11500E-03   -0.11500E-03  9152   0.557E-03-0.853E-07
CGA:   7    -0.377222981360E+03   -0.30683E-04   -0.30649E-04  9152   0.166E-03 0.154E-05
CGA:   8    -0.377223011441E+03   -0.30081E-04   -0.29815E-04  9152   0.965E-04 0.428E-05
CGA:   9    -0.377223020290E+03   -0.88490E-05   -0.88769E-05  9152   0.832E-04 0.968E-06
CGA:  10    -0.377223032589E+03   -0.12299E-04   -0.12273E-04  9152   0.379E-04 0.951E-06
CGA:  11    -0.377223038503E+03   -0.59144E-05   -0.59124E-05  9152   0.415E-04 0.721E-07
   2 F= -.37722304E+03 E0= -.37721768E+03  d E =-.794841E-01  mag=    46.0000
       N       E                     dE             d eps       ncg     rms          ort
SDA:   1    -0.366448896574E+03    0.10774E+02    0.00000E+00  9152   0.337E+02 0.000E+00
CGA:   2    -0.376245244138E+03   -0.97963E+01   -0.10038E+02  9152   0.251E+02-0.181E+01
CGA:   3    -0.377925192351E+03   -0.16799E+01   -0.19315E+01  9152   0.745E+01 0.951E+00
CGA:   4    -0.378906435641E+03   -0.98124E+00   -0.97949E+00  9152   0.491E+01-0.621E+00
CGA:   5    -0.379217356062E+03   -0.31092E+00   -0.25894E+00  9152   0.724E+00 0.705E+00
CGA:   6    -0.379360343688E+03   -0.14299E+00   -0.14322E+00  9152   0.118E+01-0.348E-02
CGA:   7    -0.379416299114E+03   -0.55955E-01   -0.57803E-01  9152   0.269E+00-0.256E-01
CGA:   8    -0.379446620649E+03   -0.30322E-01   -0.30404E-01  9152   0.226E+00 0.500E-02
CGA:   9    -0.379468030022E+03   -0.21409E-01   -0.21412E-01  9152   0.144E+00 0.222E-03
CGA:  10    -0.379478672480E+03   -0.10642E-01   -0.10639E-01  9152   0.577E-01 0.297E-04
CGA:  11    -0.379488371007E+03   -0.96985E-02   -0.96510E-02  9152   0.631E-01 0.792E-03
CGA:  12    -0.379492890818E+03   -0.45198E-02   -0.46320E-02  9152   0.198E-01-0.420E-04
CGA:  13    -0.379496583030E+03   -0.36922E-02   -0.36794E-02  9152   0.270E-01 0.169E-03
CGA:  14    -0.379498445405E+03   -0.18624E-02   -0.18507E-02  9152   0.771E-02 0.891E-04
CGA:  15    -0.379500176341E+03   -0.17309E-02   -0.17265E-02  9152   0.476E-02 0.416E-04
CGA:  16    -0.379500569533E+03   -0.39319E-03   -0.39451E-03  9152   0.369E-02 0.718E-05
CGA:  17    -0.379501077270E+03   -0.50774E-03   -0.50764E-03  9152   0.220E-02 0.847E-05
CGA:  18    -0.379501306555E+03   -0.22928E-03   -0.22930E-03  9152   0.860E-03 0.182E-05
CGA:  19    -0.379501451951E+03   -0.14540E-03   -0.14550E-03  9152   0.129E-02-0.170E-05
CGA:  20    -0.379501569453E+03   -0.11750E-03   -0.11751E-03  9152   0.312E-03-0.339E-06
CGA:  21    -0.379501611460E+03   -0.42007E-04   -0.42003E-04  9152   0.467E-03-0.941E-07
CGA:  22    -0.379501665731E+03   -0.54271E-04   -0.54252E-04  9152   0.942E-04-0.234E-05
CGA:  23    -0.379501690378E+03   -0.24646E-04   -0.24764E-04  9152   0.848E-04-0.816E-06
CGA:  24    -0.379501696996E+03   -0.66183E-05   -0.65877E-05  9152   0.620E-04-0.716E-06
CGA:  25    -0.379501707006E+03   -0.10010E-04   -0.10097E-04  9152   0.243E-04-0.240E-05
CGA:  26    -0.379501712943E+03   -0.59375E-05   -0.62113E-05  9152   0.301E-04-0.200E-05
   3 F= -.37950171E+03 E0= -.37949672E+03  d E =-.227867E+01  mag=    46.0000
       N       E                     dE             d eps       ncg     rms          ort
SDA:   1    -0.333743273558E+03    0.45758E+02    0.00000E+00  9152   0.183E+03 0.000E+00
CGA:   2    -0.359663200998E+03   -0.25920E+02   -0.25425E+02  9152   0.800E+02 0.502E+02
CGA:   3    -0.369122926810E+03   -0.94597E+01   -0.10774E+02  9152   0.157E+03-0.221E+02
CGA:   4    -0.377763524263E+03   -0.86406E+01   -0.57820E+01  9152   0.224E+02 0.261E+02
CGA:   5    -0.377470728123E+03    0.29280E+00   -0.14255E+01  9152   0.624E+02-0.158E+02
CGA:   6    -0.375483309154E+03    0.19874E+01   -0.29327E+01  9152   0.118E+03-0.537E+02
CGA:   7    -0.377756606255E+03   -0.22733E+01   -0.42490E+01  9152   0.233E+02-0.258E+02
CGA:   8    -0.380094650797E+03   -0.23380E+01   -0.55974E+00  9152   0.414E+01 0.136E+02
CGA:   9    -0.380239839405E+03   -0.14519E+00   -0.10307E+00  9152   0.331E+01 0.144E+01
CGA:  10    -0.380538054188E+03   -0.29821E+00   -0.28191E+00  9152   0.956E+01-0.107E+00
CGA:  11    -0.380794835009E+03   -0.25678E+00   -0.29657E+00  9152   0.859E+01-0.484E+00
CGA:  12    -0.381013802870E+03   -0.21897E+00   -0.29254E+00  9152   0.603E+01-0.140E+01
CGA:  13    -0.381120683032E+03   -0.10688E+00   -0.96389E-01  9152   0.187E+01 0.561E+00
CGA:  14    -0.381161596874E+03   -0.40914E-01   -0.37299E-01  9152   0.127E+01 0.131E+00
CGA:  15    -0.381222262915E+03   -0.60666E-01   -0.64678E-01  9152   0.324E+01-0.373E-01
CGA:  16    -0.381314839202E+03   -0.92576E-01   -0.99413E-01  9152   0.227E+01-0.949E-01
CGA:  17    -0.381356366032E+03   -0.41527E-01   -0.60461E-01  9152   0.807E+00-0.400E+00
CGA:  18    -0.381385833285E+03   -0.29467E-01   -0.30245E-01  9152   0.597E+00 0.226E-02
CGA:  19    -0.381414754644E+03   -0.28921E-01   -0.26506E-01  9152   0.330E+00 0.358E-01
CGA:  20    -0.381430576212E+03   -0.15822E-01   -0.14987E-01  9152   0.308E+00 0.112E-01
CGA:  21    -0.381447799139E+03   -0.17223E-01   -0.17340E-01  9152   0.286E+00 0.595E-03
CGA:  22    -0.381458346474E+03   -0.10547E-01   -0.11291E-01  9152   0.162E+00-0.642E-02
CGA:  23    -0.381467974592E+03   -0.96281E-02   -0.97363E-02  9152   0.160E+00 0.298E-02
CGA:  24    -0.381478280135E+03   -0.10306E-01   -0.10303E-01  9152   0.864E-01-0.225E-04
CGA:  25    -0.381483191428E+03   -0.49113E-02   -0.49498E-02  9152   0.605E-01 0.596E-03
CGA:  26    -0.381488549102E+03   -0.53577E-02   -0.53795E-02  9152   0.570E-01-0.962E-03
CGA:  27    -0.381491905582E+03   -0.33565E-02   -0.33416E-02  9152   0.315E-01-0.230E-03
CGA:  28    -0.381493949894E+03   -0.20443E-02   -0.20431E-02  9152   0.287E-01-0.289E-04
CGA:  29    -0.381495897523E+03   -0.19476E-02   -0.19486E-02  9152   0.214E-01 0.132E-03
CGA:  30    -0.381497080597E+03   -0.11831E-02   -0.11890E-02  9152   0.133E-01 0.784E-04
CGA:  31    -0.381498011666E+03   -0.93107E-03   -0.93100E-03  9152   0.132E-01-0.331E-04
CGA:  32    -0.381498858538E+03   -0.84687E-03   -0.84606E-03  9152   0.842E-02-0.695E-04
CGA:  33    -0.381499300601E+03   -0.44206E-03   -0.44120E-03  9152   0.507E-02-0.304E-04
CGA:  34    -0.381499676863E+03   -0.37626E-03   -0.37637E-03  9152   0.494E-02-0.259E-04
CGA:  35    -0.381500042848E+03   -0.36598E-03   -0.36622E-03  9152   0.483E-02-0.431E-04
CGA:  36    -0.381500394771E+03   -0.35192E-03   -0.35204E-03  9152   0.300E-02-0.348E-04
CGA:  37    -0.381500527590E+03   -0.13282E-03   -0.13243E-03  9152   0.106E-02-0.990E-05
CGA:  38    -0.381500610541E+03   -0.82952E-04   -0.82936E-04  9152   0.150E-02 0.510E-06
SDA:  39    -0.381500736495E+03   -0.12595E-03   -0.12586E-03  9152   0.138E-02 0.512E-05
CGA:  40    -0.381500857350E+03   -0.12086E-03   -0.12089E-03  9152   0.563E-03-0.582E-06
CGA:  41    -0.381500908424E+03   -0.51074E-04   -0.51037E-04  9152   0.258E-03 0.204E-05
CGA:  42    -0.381500951526E+03   -0.43101E-04   -0.42616E-04  9152   0.281E-03 0.527E-05
CGA:  43    -0.381500974792E+03   -0.23267E-04   -0.23243E-04  9152   0.844E-04 0.486E-05
CGA:  44    -0.381500988498E+03   -0.13706E-04   -0.13511E-04  9152   0.592E-04 0.241E-05
CGA:  45    -0.381500999872E+03   -0.11374E-04   -0.11414E-04  9152   0.320E-04-0.380E-06
CGA:  46    -0.381501009482E+03   -0.96095E-05   -0.99350E-05  9152   0.311E-04-0.144E-05
   4 F= -.38150101E+03 E0= -.38149598E+03  d E =-.199930E+01  mag=    46.0000
       N       E                     dE             d eps       ncg     rms          ort
SDA:   1    -0.352307267306E+03    0.29194E+02    0.00000E+00  9152   0.903E+02 0.000E+00
CGA:   2    -0.370104903850E+03   -0.17798E+02   -0.16886E+02  9152   0.768E+02 0.615E+01
CGA:   3    -0.375999678285E+03   -0.58948E+01   -0.53825E+01  9152   0.328E+02 0.768E+00
CGA:   4    -0.379808565882E+03   -0.38089E+01   -0.42026E+01  9152   0.409E+02-0.133E+02
CGA:   5    -0.380740453354E+03   -0.93189E+00   -0.97708E+00  9152   0.879E+01-0.115E+01
CGA:   6    -0.381307546496E+03   -0.56709E+00   -0.50619E+00  9152   0.758E+01 0.490E+00
CGA:   7    -0.381575376804E+03   -0.26783E+00   -0.30216E+00  9152   0.601E+01-0.696E+00
CGA:   8    -0.381874140384E+03   -0.29876E+00   -0.28913E+00  9152   0.175E+01 0.608E-01
CGA:   9    -0.381980810484E+03   -0.10667E+00   -0.10917E+00  9152   0.175E+01 0.821E-02
CGA:  10    -0.382078071097E+03   -0.97261E-01   -0.92872E-01  9152   0.106E+01 0.128E+00
CGA:  11    -0.382135941840E+03   -0.57871E-01   -0.57967E-01  9152   0.729E+00 0.445E-04
CGA:  12    -0.382177202859E+03   -0.41261E-01   -0.43634E-01  9152   0.390E+00 0.709E-02
CGA:  13    -0.382205561741E+03   -0.28359E-01   -0.29355E-01  9152   0.122E+00 0.305E-01
CGA:  14    -0.382219531394E+03   -0.13970E-01   -0.13905E-01  9152   0.151E+00 0.217E-02
CGA:  15    -0.382232450642E+03   -0.12919E-01   -0.12956E-01  9152   0.531E-01 0.611E-02
CGA:  16    -0.382236945797E+03   -0.44952E-02   -0.44974E-02  9152   0.300E-01 0.184E-03
CGA:  17    -0.382240255427E+03   -0.33096E-02   -0.32677E-02  9152   0.254E-01 0.132E-02
CGA:  18    -0.382242980361E+03   -0.27249E-02   -0.27138E-02  9152   0.876E-02 0.496E-03
CGA:  19    -0.382244042949E+03   -0.10626E-02   -0.10616E-02  9152   0.870E-02 0.250E-04
CGA:  20    -0.382244791819E+03   -0.74887E-03   -0.74921E-03  9152   0.404E-02 0.432E-04
CGA:  21    -0.382245441675E+03   -0.64986E-03   -0.64423E-03  9152   0.257E-02 0.755E-04
CGA:  22    -0.382245714860E+03   -0.27319E-03   -0.27291E-03  9152   0.203E-02 0.171E-04
CGA:  23    -0.382245965624E+03   -0.25076E-03   -0.25046E-03  9152   0.158E-02 0.847E-05
CGA:  24    -0.382246134943E+03   -0.16932E-03   -0.16936E-03  9152   0.791E-03-0.224E-05
CGA:  25    -0.382246236573E+03   -0.10163E-03   -0.10161E-03  9152   0.884E-03 0.890E-06
CGA:  26    -0.382246347854E+03   -0.11128E-03   -0.11104E-03  9152   0.293E-03 0.659E-05
CGA:  27    -0.382246394789E+03   -0.46935E-04   -0.46921E-04  9152   0.435E-03 0.185E-06
CGA:  28    -0.382246435207E+03   -0.40419E-04   -0.40394E-04  9152   0.190E-03-0.204E-05
CGA:  29    -0.382246459739E+03   -0.24532E-04   -0.24605E-04  9152   0.107E-03-0.242E-05
CGA:  30    -0.382246473862E+03   -0.14122E-04   -0.14144E-04  9152   0.906E-04-0.779E-06
CGA:  31    -0.382246483327E+03   -0.94651E-05   -0.94656E-05  9152   0.675E-04-0.662E-06
   5 F= -.38224648E+03 E0= -.38224119E+03  d E =-.745474E+00  mag=    46.0000
       N       E                     dE             d eps       ncg     rms          ort
SDA:   1    -0.352502091292E+03    0.29744E+02    0.00000E+00  9152   0.165E+03 0.000E+00
CGA:   2    -0.363448305499E+03   -0.10946E+02   -0.13283E+02  9152   0.674E+02 0.322E+02
CGA:   3    -0.371908725034E+03   -0.84604E+01   -0.84871E+01  9152   0.119E+03-0.532E+01
CGA:   4    -0.374717809383E+03   -0.28091E+01   -0.43858E+01  9152   0.142E+03-0.535E+02
CGA:   5    -0.378000256920E+03   -0.32824E+01   -0.19819E+01  9152   0.593E+02-0.118E+02
CGA:   6    -0.379579978708E+03   -0.15797E+01   -0.25743E+01  9152   0.200E+02-0.303E+01
CGA:   7    -0.380267139936E+03   -0.68716E+00   -0.59242E+00  9152   0.156E+02 0.572E-01
CGA:   8    -0.380792281496E+03   -0.52514E+00   -0.29321E+00  9152   0.154E+02 0.106E+02
CGA:   9    -0.381165612000E+03   -0.37333E+00   -0.59073E+00  9152   0.106E+02-0.449E+01
CGA:  10    -0.382204362447E+03   -0.10388E+01   -0.11028E+01  9152   0.456E+01-0.973E+00
CGA:  11    -0.382312706519E+03   -0.10834E+00   -0.11463E+00  9152   0.835E+00-0.240E+00
CGA:  12    -0.382363892269E+03   -0.51186E-01   -0.50498E-01  9152   0.131E+01-0.687E-02
CGA:  13    -0.382465834305E+03   -0.10194E+00   -0.10142E+00  9152   0.779E+00-0.411E-01
CGA:  14    -0.382499087157E+03   -0.33253E-01   -0.34706E-01  9152   0.339E+00-0.138E-01
CGA:  15    -0.382526082507E+03   -0.26995E-01   -0.27014E-01  9152   0.304E+00 0.140E-01
CGA:  16    -0.382548199817E+03   -0.22117E-01   -0.22946E-01  9152   0.166E+00 0.345E-01
CGA:  17    -0.382559220371E+03   -0.11021E-01   -0.11286E-01  9152   0.113E+00 0.173E-02
CGA:  18    -0.382570547274E+03   -0.11327E-01   -0.11089E-01  9152   0.420E-01 0.896E-02
CGA:  19    -0.382574858689E+03   -0.43114E-02   -0.42474E-02  9152   0.406E-01 0.321E-02
CGA:  20    -0.382578531987E+03   -0.36733E-02   -0.36690E-02  9152   0.153E-01 0.106E-02
CGA:  21    -0.382580215211E+03   -0.16832E-02   -0.16465E-02  9152   0.898E-02 0.114E-02
CGA:  22    -0.382581192755E+03   -0.97754E-03   -0.97629E-03  9152   0.876E-02 0.516E-04
CGA:  23    -0.382582236445E+03   -0.10437E-02   -0.10321E-02  9152   0.231E-02 0.273E-03
CGA:  24    -0.382582544028E+03   -0.30758E-03   -0.30567E-03  9152   0.299E-02 0.380E-04
CGA:  25    -0.382582926268E+03   -0.38224E-03   -0.38056E-03  9152   0.137E-02 0.360E-04
CGA:  26    -0.382583097627E+03   -0.17136E-03   -0.17167E-03  9152   0.117E-02-0.736E-05
CGA:  27    -0.382583241750E+03   -0.14412E-03   -0.14386E-03  9152   0.650E-03 0.641E-05
CGA:  28    -0.382583314259E+03   -0.72509E-04   -0.72452E-04  9152   0.599E-03 0.292E-05
CGA:  29    -0.382583391741E+03   -0.77482E-04   -0.77390E-04  9152   0.260E-03 0.251E-05
CGA:  30    -0.382583434805E+03   -0.43064E-04   -0.43310E-04  9152   0.340E-03-0.337E-05
CGA:  31    -0.382583461874E+03   -0.27069E-04   -0.27044E-04  9152   0.822E-04-0.120E-05
CGA:  32    -0.382583482718E+03   -0.20844E-04   -0.21060E-04  9152   0.126E-03-0.142E-05
CGA:  33    -0.382583491598E+03   -0.88801E-05   -0.88467E-05  9152   0.445E-04-0.753E-06
   6 F= -.38258349E+03 E0= -.38257729E+03  d E =-.337008E+00  mag=    46.0000
       N       E                     dE             d eps       ncg     rms          ort
SDA:   1    -0.342540408069E+03    0.40043E+02    0.00000E+00  9152   0.178E+03 0.000E+00
CGA:   2    -0.356585428147E+03   -0.14045E+02   -0.14898E+02  9152   0.119E+03 0.137E+02
CGA:   3    -0.371755964255E+03   -0.15171E+02   -0.15179E+02  9152   0.106E+03-0.289E+02
CGA:   4    -0.376882302405E+03   -0.51263E+01   -0.43373E+01  9152   0.662E+02 0.261E+02
CGA:   5    -0.378007117774E+03   -0.11248E+01   -0.30668E+01  9152   0.931E+02-0.681E+02
CGA:   6    -0.380287009170E+03   -0.22799E+01   -0.25847E+01  9152   0.102E+02 0.815E+01
CGA:   7    -0.380780892515E+03   -0.49388E+00   -0.55375E+00  9152   0.137E+02-0.964E+00
CGA:   8    -0.381719872169E+03   -0.93898E+00   -0.82660E+00  9152   0.124E+02 0.839E+00
CGA:   9    -0.382083072912E+03   -0.36320E+00   -0.29533E+00  9152   0.578E+01 0.144E+01
CGA:  10    -0.382174901622E+03   -0.91829E-01   -0.11166E+00  9152   0.389E+01-0.130E+01
CGA:  11    -0.382318973983E+03   -0.14407E+00   -0.16017E+00  9152   0.911E+01 0.349E-01
CGA:  12    -0.382443980550E+03   -0.12501E+00   -0.17939E+00  9152   0.453E+01-0.318E+01
CGA:  13    -0.382559187987E+03   -0.11521E+00   -0.14361E+00  9152   0.395E+01-0.652E-01
CGA:  14    -0.382658535780E+03   -0.99348E-01   -0.12589E+00  9152   0.676E+00-0.611E+00
CGA:  15    -0.382697585173E+03   -0.39049E-01   -0.39144E-01  9152   0.743E+00 0.375E-02
CGA:  16    -0.382749693455E+03   -0.52108E-01   -0.51967E-01  9152   0.549E+00-0.722E-02
CGA:  17    -0.382774812405E+03   -0.25119E-01   -0.25846E-01  9152   0.136E+00-0.160E-02
CGA:  18    -0.382786738045E+03   -0.11926E-01   -0.11870E-01  9152   0.171E+00 0.289E-02
CGA:  19    -0.382800366716E+03   -0.13629E-01   -0.13627E-01  9152   0.117E+00 0.509E-03
CGA:  20    -0.382808548460E+03   -0.81817E-02   -0.81851E-02  9152   0.390E-01 0.242E-03
CGA:  21    -0.382812703313E+03   -0.41549E-02   -0.41207E-02  9152   0.592E-01 0.883E-03
CGA:  22    -0.382816744558E+03   -0.40412E-02   -0.40390E-02  9152   0.183E-01-0.834E-04
CGA:  23    -0.382818106114E+03   -0.13616E-02   -0.13610E-02  9152   0.865E-02-0.110E-03
CGA:  24    -0.382819022814E+03   -0.91670E-03   -0.91292E-03  9152   0.968E-02 0.100E-03
CGA:  25    -0.382819633715E+03   -0.61090E-03   -0.61112E-03  9152   0.373E-02 0.978E-05
CGA:  26    -0.382820038384E+03   -0.40467E-03   -0.40462E-03  9152   0.311E-02 0.407E-05
CGA:  27    -0.382820386770E+03   -0.34839E-03   -0.34696E-03  9152   0.243E-02 0.384E-04
CGA:  28    -0.382820561545E+03   -0.17477E-03   -0.17486E-03  9152   0.201E-02 0.833E-05
CGA:  29    -0.382820796390E+03   -0.23485E-03   -0.23495E-03  9152   0.121E-02-0.149E-05
CGA:  30    -0.382820926937E+03   -0.13055E-03   -0.13040E-03  9152   0.964E-03 0.415E-05
CGA:  31    -0.382821027189E+03   -0.10025E-03   -0.10038E-03  9152   0.125E-02-0.601E-05
CGA:  32    -0.382821114659E+03   -0.87470E-04   -0.87247E-04  9152   0.386E-03-0.963E-05
CGA:  33    -0.382821172880E+03   -0.58221E-04   -0.58435E-04  9152   0.550E-03-0.309E-05
CGA:  34    -0.382821219269E+03   -0.46389E-04   -0.46383E-04  9152   0.415E-03-0.330E-05
CGA:  35    -0.382821244676E+03   -0.25408E-04   -0.25330E-04  9152   0.176E-03-0.229E-05
SDA:  36    -0.382821277482E+03   -0.32806E-04   -0.33067E-04  9152   0.233E-03-0.255E-05
CGA:  37    -0.382821288374E+03   -0.10892E-04   -0.10864E-04  9152   0.746E-04-0.915E-07
CGA:  38    -0.382821299363E+03   -0.10989E-04   -0.11006E-04  9152   0.155E-03-0.296E-06
CGA:  39    -0.382821313259E+03   -0.13895E-04   -0.13896E-04  9152   0.330E-04 0.187E-06
CGA:  40    -0.382821318340E+03   -0.50819E-05   -0.50355E-05  9152   0.290E-04 0.756E-06
   7 F= -.38282132E+03 E0= -.38281427E+03  d E =-.237827E+00  mag=    46.0000
       N       E                     dE             d eps       ncg     rms          ort
SDA:   1    -0.328812840524E+03    0.54008E+02    0.00000E+00  9152   0.192E+03 0.000E+00
CGA:   2    -0.353446648520E+03   -0.24634E+02   -0.22946E+02  9152   0.138E+03 0.483E+02
CGA:   3    -0.367702368630E+03   -0.14256E+02   -0.15105E+02  9152   0.902E+02 0.307E+02
CGA:   4    -0.373830506812E+03   -0.61281E+01   -0.40608E+01  9152   0.754E+02 0.428E+02
CGA:   5    -0.374075626880E+03   -0.24512E+00   -0.46943E+01  9152   0.715E+02-0.346E+01
CGA:   6    -0.377084376029E+03   -0.30087E+01   -0.15797E+01  9152   0.795E+02 0.894E+02
CGA:   7    -0.380134856355E+03   -0.30505E+01   -0.14188E+01  9152   0.125E+02 0.228E+02
CGA:   8    -0.380410027083E+03   -0.27517E+00   -0.35356E+00  9152   0.162E+02-0.482E+01
CGA:   9    -0.380453635645E+03   -0.43609E-01   -0.15893E+00  9152   0.368E+02-0.739E+01
CGA:  10    -0.380834979214E+03   -0.38134E+00   -0.54929E+00  9152   0.466E+02-0.265E+00
CGA:  11    -0.380968546150E+03   -0.13357E+00   -0.11275E+01  9152   0.269E+02-0.220E+02
CGA:  12    -0.381613878250E+03   -0.64533E+00   -0.20405E+00  9152   0.190E+02 0.236E+02
CGA:  13    -0.382031606376E+03   -0.41773E+00   -0.46938E+00  9152   0.777E+01-0.458E+01
CGA:  14    -0.382414440452E+03   -0.38283E+00   -0.38369E+00  9152   0.395E+01 0.989E-01
CGA:  15    -0.382695169998E+03   -0.28073E+00   -0.28065E+00  9152   0.122E+01 0.263E-01
CGA:  16    -0.382742515381E+03   -0.47345E-01   -0.46726E-01  9152   0.972E+00 0.313E-02
CGA:  17    -0.382787336154E+03   -0.44821E-01   -0.45291E-01  9152   0.378E+00 0.109E-02
CGA:  18    -0.382823406228E+03   -0.36070E-01   -0.35527E-01  9152   0.356E+00 0.162E-01
CGA:  19    -0.382837301809E+03   -0.13896E-01   -0.14091E-01  9152   0.215E+00-0.216E-02
CGA:  20    -0.382853662383E+03   -0.16361E-01   -0.16213E-01  9152   0.146E+00 0.927E-02
CGA:  21    -0.382872040018E+03   -0.18378E-01   -0.16779E-01  9152   0.128E+00 0.318E-01
CGA:  22    -0.382879553088E+03   -0.75131E-02   -0.75744E-02  9152   0.791E-01 0.291E-03
CGA:  23    -0.382888764630E+03   -0.92115E-02   -0.89327E-02  9152   0.401E-01 0.531E-02
CGA:  24    -0.382892124123E+03   -0.33595E-02   -0.33451E-02  9152   0.144E-01 0.107E-02
CGA:  25    -0.382894921321E+03   -0.27972E-02   -0.28445E-02  9152   0.217E-01-0.447E-03
CGA:  26    -0.382896627869E+03   -0.17065E-02   -0.17015E-02  9152   0.966E-02 0.658E-03
CGA:  27    -0.382897311134E+03   -0.68327E-03   -0.68428E-03  9152   0.668E-02 0.512E-04
CGA:  28    -0.382898562774E+03   -0.12516E-02   -0.12483E-02  9152   0.511E-02 0.287E-04
CGA:  29    -0.382899104551E+03   -0.54178E-03   -0.53924E-03  9152   0.317E-02 0.816E-04
CGA:  30    -0.382899604946E+03   -0.50039E-03   -0.50338E-03  9152   0.208E-02-0.398E-04
CGA:  31    -0.382899850615E+03   -0.24567E-03   -0.24591E-03  9152   0.212E-02-0.685E-05
CGA:  32    -0.382900057982E+03   -0.20737E-03   -0.20778E-03  9152   0.178E-02-0.279E-04
CGA:  33    -0.382900197473E+03   -0.13949E-03   -0.13937E-03  9152   0.793E-03-0.958E-05
CGA:  34    -0.382900317268E+03   -0.11980E-03   -0.12020E-03  9152   0.763E-03-0.624E-05
CGA:  35    -0.382900405423E+03   -0.88155E-04   -0.88477E-04  9152   0.400E-03-0.103E-04
CGA:  36    -0.382900457065E+03   -0.51642E-04   -0.51796E-04  9152   0.423E-03-0.331E-05
CGA:  37    -0.382900502207E+03   -0.45142E-04   -0.45190E-04  9152   0.347E-03-0.271E-05
CGA:  38    -0.382900524412E+03   -0.22206E-04   -0.22179E-04  9152   0.154E-03-0.416E-06
CGA:  39    -0.382900550109E+03   -0.25697E-04   -0.25681E-04  9152   0.198E-03 0.271E-06
CGA:  40    -0.382900571205E+03   -0.21096E-04   -0.21100E-04  9152   0.772E-04-0.118E-06
CGA:  41    -0.382900583629E+03   -0.12423E-04   -0.12380E-04  9152   0.131E-03 0.727E-06
CGA:  42    -0.382900594938E+03   -0.11309E-04   -0.11318E-04  9152   0.713E-04 0.652E-06
SDA:  43    -0.382900599952E+03   -0.50146E-05   -0.50235E-05  9152   0.389E-04 0.264E-06
   8 F= -.38290060E+03 E0= -.38289390E+03  d E =-.792816E-01  mag=    46.0000
       N       E                     dE             d eps       ncg     rms          ort
SDA:   1    -0.371363154563E+03    0.11537E+02    0.00000E+00  9152   0.423E+02 0.000E+00
CGA:   2    -0.376824205993E+03   -0.54611E+01   -0.50467E+01  9152   0.291E+02 0.112E+02
CGA:   3    -0.379993417204E+03   -0.31692E+01   -0.27134E+01  9152   0.198E+02-0.509E+01
CGA:   4    -0.381648402586E+03   -0.16550E+01   -0.16926E+01  9152   0.183E+02-0.338E+01
CGA:   5    -0.381982561186E+03   -0.33416E+00   -0.41035E+00  9152   0.151E+02-0.426E+01
CGA:   6    -0.382255625633E+03   -0.27306E+00   -0.35353E+00  9152   0.660E+01-0.189E+01
CGA:   7    -0.382440658882E+03   -0.18503E+00   -0.18918E+00  9152   0.595E+01-0.273E+00
CGA:   8    -0.382647205229E+03   -0.20655E+00   -0.18414E+00  9152   0.373E+01 0.441E+00
CGA:   9    -0.382727770426E+03   -0.80565E-01   -0.77724E-01  9152   0.226E+01 0.663E-01
CGA:  10    -0.382820528981E+03   -0.92759E-01   -0.10122E+00  9152   0.297E+01-0.818E-01
CGA:  11    -0.382878877025E+03   -0.58348E-01   -0.77067E-01  9152   0.114E+01-0.470E+00
CGA:  12    -0.382914285978E+03   -0.35409E-01   -0.34391E-01  9152   0.756E+00 0.130E-01
CGA:  13    -0.382935254763E+03   -0.20969E-01   -0.20819E-01  9152   0.341E+00 0.313E-02
CGA:  14    -0.382956626244E+03   -0.21371E-01   -0.21631E-01  9152   0.633E+00 0.985E-02
CGA:  15    -0.382987652741E+03   -0.31026E-01   -0.33876E-01  9152   0.214E+00 0.263E-01
CGA:  16    -0.382998232386E+03   -0.10580E-01   -0.10742E-01  9152   0.139E+00 0.496E-03
CGA:  17    -0.383005795664E+03   -0.75633E-02   -0.75152E-02  9152   0.653E-01-0.579E-03
CGA:  18    -0.383012461644E+03   -0.66660E-02   -0.65521E-02  9152   0.102E+00 0.287E-02
CGA:  19    -0.383018605956E+03   -0.61443E-02   -0.62033E-02  9152   0.356E-01 0.153E-02
CGA:  20    -0.383020964662E+03   -0.23587E-02   -0.23570E-02  9152   0.157E-01-0.148E-03
CGA:  21    -0.383024143532E+03   -0.31789E-02   -0.31330E-02  9152   0.300E-01 0.397E-03
CGA:  22    -0.383025484105E+03   -0.13406E-02   -0.13401E-02  9152   0.554E-02 0.221E-04
CGA:  23    -0.383026860847E+03   -0.13767E-02   -0.13749E-02  9152   0.926E-02 0.100E-04
CGA:  24    -0.383027546272E+03   -0.68542E-03   -0.68653E-03  9152   0.442E-02 0.511E-04
CGA:  25    -0.383027918565E+03   -0.37229E-03   -0.37230E-03  9152   0.473E-02 0.129E-05
CGA:  26    -0.383028393845E+03   -0.47528E-03   -0.47527E-03  9152   0.203E-02 0.261E-05
CGA:  27    -0.383028727543E+03   -0.33370E-03   -0.33313E-03  9152   0.158E-02 0.694E-05
CGA:  28    -0.383028856491E+03   -0.12895E-03   -0.12886E-03  9152   0.152E-02-0.693E-05
CGA:  29    -0.383028972708E+03   -0.11622E-03   -0.11612E-03  9152   0.673E-03-0.570E-05
CGA:  30    -0.383029065333E+03   -0.92624E-04   -0.92841E-04  9152   0.645E-03-0.405E-05
CGA:  31    -0.383029117861E+03   -0.52528E-04   -0.52497E-04  9152   0.241E-03-0.326E-05
SDA:  32    -0.383029133344E+03   -0.15484E-04   -0.15465E-04  9152   0.216E-03-0.842E-06
CGA:  33    -0.383029144547E+03   -0.11202E-04   -0.11201E-04  9152   0.129E-03 0.294E-06
CGA:  34    -0.383029163539E+03   -0.18993E-04   -0.19003E-04  9152   0.143E-03-0.169E-06
CGA:  35    -0.383029174987E+03   -0.11447E-04   -0.11440E-04  9152   0.458E-04-0.669E-06
CGA:  36    -0.383029180510E+03   -0.55229E-05   -0.55311E-05  9152   0.224E-04-0.266E-06
   9 F= -.38302918E+03 E0= -.38302231E+03  d E =-.128581E+00  mag=    46.0000
       N       E                     dE             d eps       ncg     rms          ort
SDA:   1    -0.382723196395E+03    0.30598E+00    0.00000E+00  9152   0.106E+01 0.000E+00
CGA:   2    -0.382933802449E+03   -0.21061E+00   -0.21148E+00  9152   0.657E+00-0.871E-02
CGA:   3    -0.382978510006E+03   -0.44708E-01   -0.45494E-01  9152   0.495E+00 0.207E-02
CGA:   4    -0.383021613274E+03   -0.43103E-01   -0.43264E-01  9152   0.262E+00 0.521E-02
CGA:   5    -0.383040045014E+03   -0.18432E-01   -0.18107E-01  9152   0.725E-01-0.629E-03
CGA:   6    -0.383049001219E+03   -0.89562E-02   -0.89460E-02  9152   0.398E-01 0.270E-03
CGA:   7    -0.383051638881E+03   -0.26377E-02   -0.26290E-02  9152   0.215E-01-0.122E-04
CGA:   8    -0.383053181623E+03   -0.15427E-02   -0.15470E-02  9152   0.850E-02 0.219E-04
CGA:   9    -0.383054202378E+03   -0.10208E-02   -0.10204E-02  9152   0.617E-02 0.110E-04
CGA:  10    -0.383054705846E+03   -0.50347E-03   -0.50330E-03  9152   0.263E-02-0.250E-05
CGA:  11    -0.383054990121E+03   -0.28428E-03   -0.28435E-03  9152   0.393E-02-0.235E-05
CGA:  12    -0.383055328023E+03   -0.33790E-03   -0.33813E-03  9152   0.104E-02 0.112E-04
CGA:  13    -0.383055537303E+03   -0.20928E-03   -0.20932E-03  9152   0.151E-02-0.461E-06
CGA:  14    -0.383055639423E+03   -0.10212E-03   -0.10231E-03  9152   0.857E-03 0.870E-06
CGA:  15    -0.383055718880E+03   -0.79457E-04   -0.79471E-04  9152   0.497E-03 0.153E-05
CGA:  16    -0.383055774058E+03   -0.55178E-04   -0.55171E-04  9152   0.367E-03 0.484E-06
CGA:  17    -0.383055810720E+03   -0.36662E-04   -0.36662E-04  9152   0.192E-03 0.933E-06
CGA:  18    -0.383055823562E+03   -0.12842E-04   -0.12845E-04  9152   0.128E-03-0.119E-07
CGA:  19    -0.383055839512E+03   -0.15950E-04   -0.15966E-04  9152   0.622E-04-0.602E-06
CGA:  20    -0.383055845064E+03   -0.55526E-05   -0.55522E-05  9152   0.435E-04-0.808E-07
  10 F= -.38305585E+03 E0= -.38304899E+03  d E =-.266646E-01  mag=    46.0000
       N       E                     dE             d eps       ncg     rms          ort
SDA:   1    -0.381928264099E+03    0.11276E+01    0.00000E+00  9152   0.321E+01 0.000E+00
CGA:   2    -0.382527480422E+03   -0.59922E+00   -0.57382E+00  9152   0.443E+01 0.311E+00
CGA:   3    -0.382822983117E+03   -0.29550E+00   -0.24533E+00  9152   0.978E+00 0.497E+00
CGA:   4    -0.383013752558E+03   -0.19077E+00   -0.19198E+00  9152   0.548E+00-0.163E-01
CGA:   5    -0.383049520638E+03   -0.35768E-01   -0.36511E-01  9152   0.183E+00 0.177E-03
CGA:   6    -0.383071314851E+03   -0.21794E-01   -0.21825E-01  9152   0.694E-01-0.120E-02
CGA:   7    -0.383076458066E+03   -0.51432E-02   -0.51594E-02  9152   0.456E-01 0.678E-04
CGA:   8    -0.383079562524E+03   -0.31045E-02   -0.30838E-02  9152   0.215E-01 0.103E-04
CGA:   9    -0.383081761607E+03   -0.21991E-02   -0.21994E-02  9152   0.931E-02-0.751E-04
CGA:  10    -0.383082579743E+03   -0.81814E-03   -0.82039E-03  9152   0.416E-02 0.738E-04
CGA:  11    -0.383083246900E+03   -0.66716E-03   -0.66761E-03  9152   0.385E-02-0.617E-05
CGA:  12    -0.383083447193E+03   -0.20029E-03   -0.19955E-03  9152   0.174E-02 0.975E-05
CGA:  13    -0.383083756719E+03   -0.30953E-03   -0.30852E-03  9152   0.132E-02 0.125E-04
CGA:  14    -0.383083874069E+03   -0.11735E-03   -0.11732E-03  9152   0.886E-03-0.106E-07
CGA:  15    -0.383084007129E+03   -0.13306E-03   -0.13282E-03  9152   0.670E-03 0.478E-05
CGA:  16    -0.383084048265E+03   -0.41136E-04   -0.41180E-04  9152   0.413E-03 0.166E-05
CGA:  17    -0.383084095583E+03   -0.47318E-04   -0.47299E-04  9152   0.244E-03 0.158E-05
CGA:  18    -0.383084125729E+03   -0.30146E-04   -0.30116E-04  9152   0.121E-03 0.150E-05
CGA:  19    -0.383084136583E+03   -0.10854E-04   -0.10855E-04  9152   0.902E-04 0.673E-07
CGA:  20    -0.383084145465E+03   -0.88819E-05   -0.88816E-05  9152   0.932E-04 0.164E-07
  11 F= -.38308415E+03 E0= -.38307730E+03  d E =-.283004E-01  mag=    46.0000
       N       E                     dE             d eps       ncg     rms          ort
SDA:   1    -0.372583738410E+03    0.10500E+02    0.00000E+00  9152   0.416E+02 0.000E+00
CGA:   2    -0.375937458832E+03   -0.33537E+01   -0.36448E+01  9152   0.319E+02 0.793E+01
CGA:   3    -0.379816485579E+03   -0.38790E+01   -0.39217E+01  9152   0.433E+02-0.131E+02
CGA:   4    -0.381567640034E+03   -0.17512E+01   -0.16648E+01  9152   0.261E+02 0.172E+01
CGA:   5    -0.381857094385E+03   -0.28945E+00   -0.68537E+00  9152   0.192E+02-0.203E+02
CGA:   6    -0.382062696320E+03   -0.20560E+00   -0.73405E+00  9152   0.207E+02-0.114E+02
CGA:   7    -0.382449193603E+03   -0.38650E+00   -0.55048E+00  9152   0.729E+01-0.781E+01
CGA:   8    -0.382849860446E+03   -0.40067E+00   -0.40100E+00  9152   0.325E+01 0.108E+00
CGA:   9    -0.382965025593E+03   -0.11517E+00   -0.12820E+00  9152   0.113E+01-0.261E+00
CGA:  10    -0.383027240678E+03   -0.62215E-01   -0.64282E-01  9152   0.783E+00 0.817E-02
CGA:  11    -0.383074995942E+03   -0.47755E-01   -0.48762E-01  9152   0.353E+00 0.431E-02
CGA:  12    -0.383097072664E+03   -0.22077E-01   -0.22755E-01  9152   0.226E+00 0.665E-02
CGA:  13    -0.383112677241E+03   -0.15605E-01   -0.15945E-01  9152   0.151E+00 0.701E-02
CGA:  14    -0.383124734118E+03   -0.12057E-01   -0.12058E-01  9152   0.950E-01 0.117E-03
CGA:  15    -0.383132452578E+03   -0.77185E-02   -0.77365E-02  9152   0.532E-01 0.608E-02
CGA:  16    -0.383136134093E+03   -0.36815E-02   -0.36715E-02  9152   0.301E-01-0.840E-04
CGA:  17    -0.383139504796E+03   -0.33707E-02   -0.32859E-02  9152   0.192E-01 0.228E-02
CGA:  18    -0.383140807695E+03   -0.13029E-02   -0.12961E-02  9152   0.988E-02-0.484E-04
CGA:  19    -0.383141988922E+03   -0.11812E-02   -0.11517E-02  9152   0.858E-02 0.674E-03
CGA:  20    -0.383142705348E+03   -0.71643E-03   -0.71601E-03  9152   0.493E-02-0.241E-04
CGA:  21    -0.383143196731E+03   -0.49138E-03   -0.48751E-03  9152   0.404E-02 0.165E-03
CGA:  22    -0.383143562845E+03   -0.36611E-03   -0.36624E-03  9152   0.245E-02-0.156E-04
CGA:  23    -0.383143797880E+03   -0.23504E-03   -0.23436E-03  9152   0.156E-02 0.385E-04
CGA:  24    -0.383143925331E+03   -0.12745E-03   -0.12746E-03  9152   0.893E-03 0.304E-05
CGA:  25    -0.383144009214E+03   -0.83883E-04   -0.83808E-04  9152   0.562E-03 0.600E-05
CGA:  26    -0.383144060858E+03   -0.51643E-04   -0.51634E-04  9152   0.359E-03 0.185E-05
CGA:  27    -0.383144094659E+03   -0.33801E-04   -0.33794E-04  9152   0.286E-03 0.768E-06
CGA:  28    -0.383144124731E+03   -0.30072E-04   -0.30069E-04  9152   0.212E-03 0.391E-06
CGA:  29    -0.383144145879E+03   -0.21149E-04   -0.21159E-04  9152   0.167E-03-0.851E-06
CGA:  30    -0.383144161948E+03   -0.16069E-04   -0.16083E-04  9152   0.126E-03-0.122E-05
CGA:  31    -0.383144174260E+03   -0.12312E-04   -0.12323E-04  9152   0.815E-04-0.121E-05
CGA:  32    -0.383144181645E+03   -0.73846E-05   -0.73882E-05  9152   0.542E-04-0.938E-06
  12 F= -.38314418E+03 E0= -.38313741E+03  d E =-.600362E-01  mag=    46.0000
       N       E                     dE             d eps       ncg     rms          ort
SDA:   1    -0.352468942079E+03    0.30675E+02    0.00000E+00  9152   0.118E+03 0.000E+00
CGA:   2    -0.363454585484E+03   -0.10986E+02   -0.10860E+02  9152   0.983E+02 0.197E+02
CGA:   3    -0.374504712262E+03   -0.11050E+02   -0.10837E+02  9152   0.310E+02 0.224E+02
CGA:   4    -0.378371534013E+03   -0.38668E+01   -0.18348E+01  9152   0.125E+02 0.987E+01
CGA:   5    -0.378965792616E+03   -0.59426E+00   -0.73486E+00  9152   0.546E+02-0.211E+01
CGA:   6    -0.379761452007E+03   -0.79566E+00   -0.97409E+00  9152   0.889E+02-0.517E+01
CGA:   7    -0.380983569282E+03   -0.12221E+01   -0.96015E+00  9152   0.688E+02 0.207E+02
CGA:   8    -0.381017066076E+03   -0.33497E-01   -0.11653E+01  9152   0.183E+02-0.922E+02
CGA:   9    -0.381540072524E+03   -0.52301E+00   -0.51225E+00  9152   0.134E+02-0.198E+01
CGA:  10    -0.382643697304E+03   -0.11036E+01   -0.11033E+01  9152   0.413E+01 0.739E-02
CGA:  11    -0.382751947807E+03   -0.10825E+00   -0.12387E+00  9152   0.238E+01-0.367E+00
CGA:  12    -0.382850160378E+03   -0.98213E-01   -0.98289E-01  9152   0.136E+01-0.379E-02
CGA:  13    -0.382931995082E+03   -0.81835E-01   -0.81649E-01  9152   0.882E+00-0.698E-02
CGA:  14    -0.382979963441E+03   -0.47968E-01   -0.49289E-01  9152   0.107E+01 0.258E-01
CGA:  15    -0.383019734488E+03   -0.39771E-01   -0.41816E-01  9152   0.122E+00-0.242E-01
CGA:  16    -0.383035819941E+03   -0.16085E-01   -0.15922E-01  9152   0.190E+00 0.235E-02
CGA:  17    -0.383043783593E+03   -0.79637E-02   -0.81735E-02  9152   0.975E-01-0.151E-02
CGA:  18    -0.383051580908E+03   -0.77973E-02   -0.76988E-02  9152   0.569E-01 0.604E-02
CGA:  19    -0.383057330498E+03   -0.57496E-02   -0.57252E-02  9152   0.452E-01 0.750E-03
CGA:  20    -0.383064451736E+03   -0.71212E-02   -0.69310E-02  9152   0.472E-01 0.214E-02
CGA:  21    -0.383066873274E+03   -0.24215E-02   -0.25000E-02  9152   0.263E-01 0.724E-04
CGA:  22    -0.383071099273E+03   -0.42260E-02   -0.41724E-02  9152   0.128E-01 0.645E-03
CGA:  23    -0.383073052867E+03   -0.19536E-02   -0.19205E-02  9152   0.811E-02 0.460E-03
CGA:  24    -0.383073964977E+03   -0.91211E-03   -0.91109E-03  9152   0.731E-02 0.285E-04
CGA:  25    -0.383074684916E+03   -0.71994E-03   -0.71902E-03  9152   0.380E-02 0.405E-04
CGA:  26    -0.383074972037E+03   -0.28712E-03   -0.28684E-03  9152   0.313E-02-0.117E-04
CGA:  27    -0.383075442568E+03   -0.47053E-03   -0.47140E-03  9152   0.916E-03-0.125E-04
CGA:  28    -0.383075631071E+03   -0.18850E-03   -0.18651E-03  9152   0.114E-02 0.180E-04
CGA:  29    -0.383075760268E+03   -0.12920E-03   -0.12967E-03  9152   0.108E-02-0.172E-04
CGA:  30    -0.383075819081E+03   -0.58813E-04   -0.58394E-04  9152   0.302E-03 0.797E-06
CGA:  31    -0.383075872372E+03   -0.53291E-04   -0.53752E-04  9152   0.427E-03-0.536E-05
CGA:  32    -0.383075912765E+03   -0.40394E-04   -0.40396E-04  9152   0.170E-03-0.512E-05
CGA:  33    -0.383075933687E+03   -0.20922E-04   -0.20974E-04  9152   0.999E-04-0.174E-05
CGA:  34    -0.383075945278E+03   -0.11591E-04   -0.11603E-04  9152   0.176E-03-0.555E-06
CGA:  35    -0.383075957489E+03   -0.12211E-04   -0.12211E-04  9152   0.405E-04 0.151E-06
CGA:  36    -0.383075968829E+03   -0.11340E-04   -0.11414E-04  9152   0.348E-04-0.408E-06
CGA:  37    -0.383075974203E+03   -0.53738E-05   -0.53738E-05  9152   0.432E-04 0.122E-07
  13 F= -.38307597E+03 E0= -.38306931E+03  d E =0.682074E-01  mag=    46.0000
       N       E                     dE             d eps       ncg     rms          ort
SDA:   1    -0.382253350941E+03    0.82262E+00    0.00000E+00  9152   0.298E+01 0.000E+00
CGA:   2    -0.382868563755E+03   -0.61521E+00   -0.61563E+00  9152   0.130E+01-0.395E-02
CGA:   3    -0.382990236571E+03   -0.12167E+00   -0.12303E+00  9152   0.159E+01 0.237E-01
CGA:   4    -0.383109875153E+03   -0.11964E+00   -0.11826E+00  9152   0.406E+00 0.234E-02
CGA:   5    -0.383144281849E+03   -0.34407E-01   -0.34110E-01  9152   0.238E+00-0.160E-02
CGA:   6    -0.383165614044E+03   -0.21332E-01   -0.21345E-01  9152   0.811E-01 0.205E-03
CGA:   7    -0.383172451542E+03   -0.68375E-02   -0.68361E-02  9152   0.541E-01-0.191E-04
CGA:   8    -0.383175832167E+03   -0.33806E-02   -0.33748E-02  9152   0.242E-01 0.238E-04
CGA:   9    -0.383178925974E+03   -0.30938E-02   -0.30916E-02  9152   0.926E-02 0.661E-04
CGA:  10    -0.383179984982E+03   -0.10590E-02   -0.10593E-02  9152   0.114E-01-0.178E-04
CGA:  11    -0.383180888812E+03   -0.90383E-03   -0.90456E-03  9152   0.702E-02 0.119E-04
CGA:  12    -0.383181527537E+03   -0.63872E-03   -0.63967E-03  9152   0.410E-02 0.306E-04
CGA:  13    -0.383181968361E+03   -0.44082E-03   -0.44083E-03  9152   0.343E-02-0.523E-06
CGA:  14    -0.383182428967E+03   -0.46061E-03   -0.46056E-03  9152   0.246E-02 0.200E-05
CGA:  15    -0.383182564319E+03   -0.13535E-03   -0.13570E-03  9152   0.127E-02-0.242E-05
CGA:  16    -0.383182792819E+03   -0.22850E-03   -0.22812E-03  9152   0.742E-03 0.486E-05
CGA:  17    -0.383182855118E+03   -0.62299E-04   -0.62313E-04  9152   0.532E-03 0.439E-06
CGA:  18    -0.383182901214E+03   -0.46095E-04   -0.46091E-04  9152   0.371E-03 0.354E-06
CGA:  19    -0.383182934000E+03   -0.32786E-04   -0.32778E-04  9152   0.230E-03-0.523E-06
CGA:  20    -0.383182955000E+03   -0.21000E-04   -0.21007E-04  9152   0.847E-04 0.316E-06
CGA:  21    -0.383182967048E+03   -0.12048E-04   -0.12068E-04  9152   0.147E-03-0.508E-06
CGA:  22    -0.383182977159E+03   -0.10112E-04   -0.10108E-04  9152   0.508E-04 0.229E-07
CGA:  23    -0.383182983153E+03   -0.59936E-05   -0.59950E-05  9152   0.371E-04-0.107E-06
  14 F= -.38318298E+03 E0= -.38317636E+03  d E =-.107009E+00  mag=    46.0000
       N       E                     dE             d eps       ncg     rms          ort
SDA:   1    -0.383113126289E+03    0.69851E-01    0.00000E+00  9152   0.317E+00 0.000E+00
CGA:   2    -0.383157790809E+03   -0.44665E-01   -0.44818E-01  9152   0.484E+00-0.323E-02
CGA:   3    -0.383181110195E+03   -0.23319E-01   -0.23846E-01  9152   0.101E+00-0.569E-02
CGA:   4    -0.383195466961E+03   -0.14357E-01   -0.14350E-01  9152   0.895E-01 0.142E-03
CGA:   5    -0.383201841429E+03   -0.63745E-02   -0.63526E-02  9152   0.204E-01 0.260E-04
CGA:   6    -0.383204295180E+03   -0.24538E-02   -0.24499E-02  9152   0.109E-01 0.160E-03
CGA:   7    -0.383205226585E+03   -0.93140E-03   -0.92945E-03  9152   0.633E-02-0.284E-04
CGA:   8    -0.383205560634E+03   -0.33405E-03   -0.33391E-03  9152   0.230E-02 0.611E-07
CGA:   9    -0.383205930459E+03   -0.36982E-03   -0.36953E-03  9152   0.108E-02 0.442E-05
CGA:  10    -0.383206029174E+03   -0.98715E-04   -0.98710E-04  9152   0.800E-03 0.545E-06
CGA:  11    -0.383206145238E+03   -0.11606E-03   -0.11596E-03  9152   0.521E-03 0.260E-05
CGA:  12    -0.383206192806E+03   -0.47568E-04   -0.47602E-04  9152   0.486E-03 0.172E-05
CGA:  13    -0.383206227834E+03   -0.35028E-04   -0.35035E-04  9152   0.286E-03 0.579E-07
CGA:  14    -0.383206274455E+03   -0.46621E-04   -0.46579E-04  9152   0.139E-03 0.718E-06
CGA:  15    -0.383206288998E+03   -0.14543E-04   -0.14543E-04  9152   0.128E-03 0.151E-06
CGA:  16    -0.383206303492E+03   -0.14494E-04   -0.14488E-04  9152   0.953E-04 0.951E-06
CGA:  17    -0.383206309483E+03   -0.59908E-05   -0.59949E-05  9152   0.457E-04 0.558E-07
  15 F= -.38320631E+03 E0= -.38319969E+03  d E =-.233263E-01  mag=    46.0000
       N       E                     dE             d eps       ncg     rms          ort
SDA:   1    -0.381605203014E+03    0.16011E+01    0.00000E+00  9152   0.539E+01 0.000E+00
CGA:   2    -0.382498747952E+03   -0.89354E+00   -0.88258E+00  9152   0.621E+01 0.165E+00
CGA:   3    -0.382832046556E+03   -0.33330E+00   -0.29809E+00  9152   0.153E+01 0.446E+00
CGA:   4    -0.383097823662E+03   -0.26578E+00   -0.26801E+00  9152   0.158E+01-0.342E-01
CGA:   5    -0.383187094350E+03   -0.89271E-01   -0.90089E-01  9152   0.333E+00-0.700E-02
CGA:   6    -0.383224961437E+03   -0.37867E-01   -0.37891E-01  9152   0.342E+00-0.143E-02
CGA:   7    -0.383241959211E+03   -0.16998E-01   -0.16988E-01  9152   0.807E-01 0.363E-03
CGA:   8    -0.383249714529E+03   -0.77553E-02   -0.77948E-02  9152   0.438E-01 0.301E-02
CGA:   9    -0.383256144610E+03   -0.64301E-02   -0.64422E-02  9152   0.209E-01-0.241E-03
CGA:  10    -0.383257436513E+03   -0.12919E-02   -0.12902E-02  9152   0.161E-01 0.129E-04
CGA:  11    -0.383259580975E+03   -0.21445E-02   -0.21419E-02  9152   0.147E-01 0.677E-04
CGA:  12    -0.383260518861E+03   -0.93789E-03   -0.94173E-03  9152   0.512E-02-0.411E-05
CGA:  13    -0.383261539545E+03   -0.10207E-02   -0.10224E-02  9152   0.545E-02-0.173E-04
CGA:  14    -0.383262101029E+03   -0.56148E-03   -0.56176E-03  9152   0.340E-02 0.465E-04
CGA:  15    -0.383262309649E+03   -0.20862E-03   -0.20889E-03  9152   0.239E-02-0.171E-06
CGA:  16    -0.383262710365E+03   -0.40072E-03   -0.40033E-03  9152   0.763E-03 0.590E-05
CGA:  17    -0.383262835479E+03   -0.12511E-03   -0.12489E-03  9152   0.681E-03 0.354E-05
CGA:  18    -0.383262905448E+03   -0.69969E-04   -0.69977E-04  9152   0.557E-03 0.971E-06
CGA:  19    -0.383262940795E+03   -0.35347E-04   -0.35272E-04  9152   0.220E-03-0.207E-06
CGA:  20    -0.383262964160E+03   -0.23365E-04   -0.23365E-04  9152   0.230E-03-0.184E-06
CGA:  21    -0.383262986941E+03   -0.22781E-04   -0.22780E-04  9152   0.764E-04-0.167E-06
CGA:  22    -0.383262999919E+03   -0.12978E-04   -0.12999E-04  9152   0.744E-04-0.319E-06
CGA:  23    -0.383263007645E+03   -0.77266E-05   -0.77252E-05  9152   0.761E-04-0.252E-06
  16 F= -.38326301E+03 E0= -.38325640E+03  d E =-.566982E-01  mag=    46.0000
       N       E                     dE             d eps       ncg     rms          ort
SDA:   1    -0.382711208617E+03    0.55179E+00    0.00000E+00  9152   0.188E+01 0.000E+00
CGA:   2    -0.382915017058E+03   -0.20381E+00   -0.20367E+00  9152   0.259E+01 0.503E-01
CGA:   3    -0.383147055244E+03   -0.23204E+00   -0.22994E+00  9152   0.919E+00-0.240E-01
CGA:   4    -0.383201627252E+03   -0.54572E-01   -0.53157E-01  9152   0.429E+00 0.138E-01
CGA:   5    -0.383260841814E+03   -0.59215E-01   -0.59206E-01  9152   0.840E-01 0.169E-03
CGA:   6    -0.383269188369E+03   -0.83466E-02   -0.83444E-02  9152   0.679E-01-0.161E-03
CGA:   7    -0.383273985864E+03   -0.47975E-02   -0.47989E-02  9152   0.255E-01 0.103E-04
CGA:   8    -0.383275649110E+03   -0.16632E-02   -0.16584E-02  9152   0.114E-01 0.590E-05
CGA:   9    -0.383276792241E+03   -0.11431E-02   -0.11431E-02  9152   0.650E-02-0.128E-04
CGA:  10    -0.383277485210E+03   -0.69297E-03   -0.69275E-03  9152   0.221E-02 0.231E-04
CGA:  11    -0.383277690677E+03   -0.20547E-03   -0.20546E-03  9152   0.265E-02 0.144E-05
CGA:  12    -0.383277939768E+03   -0.24909E-03   -0.24910E-03  9152   0.135E-02 0.166E-05
CGA:  13    -0.383278059780E+03   -0.12001E-03   -0.12010E-03  9152   0.823E-03 0.437E-05
CGA:  14    -0.383278167673E+03   -0.10789E-03   -0.10790E-03  9152   0.804E-03-0.194E-06
CGA:  15    -0.383278257769E+03   -0.90096E-04   -0.90075E-04  9152   0.616E-03 0.175E-05
CGA:  16    -0.383278293185E+03   -0.35416E-04   -0.35446E-04  9152   0.262E-03-0.242E-06
CGA:  17    -0.383278344221E+03   -0.51036E-04   -0.50875E-04  9152   0.213E-03 0.171E-05
CGA:  18    -0.383278358504E+03   -0.14283E-04   -0.14299E-04  9152   0.885E-04 0.336E-06
CGA:  19    -0.383278369530E+03   -0.11026E-04   -0.11014E-04  9152   0.113E-03 0.562E-06
CGA:  20    -0.383278377149E+03   -0.76185E-05   -0.76176E-05  9152   0.339E-04-0.271E-07
  17 F= -.38327838E+03 E0= -.38327177E+03  d E =-.153695E-01  mag=    46.0000
       N       E                     dE             d eps       ncg     rms          ort
SDA:   1    -0.380509191631E+03    0.27692E+01    0.00000E+00  9152   0.102E+02 0.000E+00
CGA:   2    -0.381366693953E+03   -0.85750E+00   -0.87992E+00  9152   0.105E+02 0.314E+00
CGA:   3    -0.382683877095E+03   -0.13172E+01   -0.13462E+01  9152   0.817E+01-0.111E+01
CGA:   4    -0.382995878604E+03   -0.31200E+00   -0.29395E+00  9152   0.133E+01 0.482E+00
CGA:   5    -0.383169401478E+03   -0.17352E+00   -0.17342E+00  9152   0.195E+01 0.266E-02
CGA:   6    -0.383256204425E+03   -0.86803E-01   -0.82842E-01  9152   0.314E+00 0.723E-01
CGA:   7    -0.383277596157E+03   -0.21392E-01   -0.21323E-01  9152   0.223E+00-0.227E-03
CGA:   8    -0.383293314439E+03   -0.15718E-01   -0.16096E-01  9152   0.151E+00 0.276E-02
CGA:   9    -0.383301889508E+03   -0.85751E-02   -0.86706E-02  9152   0.538E-01-0.427E-03
CGA:  10    -0.383305920740E+03   -0.40312E-02   -0.40069E-02  9152   0.267E-01-0.316E-03
CGA:  11    -0.383307726137E+03   -0.18054E-02   -0.18209E-02  9152   0.257E-01 0.109E-03
CGA:  12    -0.383309769415E+03   -0.20433E-02   -0.20518E-02  9152   0.432E-02 0.257E-03
CGA:  13    -0.383310230441E+03   -0.46103E-03   -0.46130E-03  9152   0.738E-02-0.103E-04
CGA:  14    -0.383310831082E+03   -0.60064E-03   -0.60131E-03  9152   0.297E-02 0.297E-04
CGA:  15    -0.383311029752E+03   -0.19867E-03   -0.19965E-03  9152   0.167E-02 0.902E-05
CGA:  16    -0.383311310017E+03   -0.28026E-03   -0.27997E-03  9152   0.204E-02 0.376E-05
CGA:  17    -0.383311410685E+03   -0.10067E-03   -0.10066E-03  9152   0.884E-03 0.202E-06
CGA:  18    -0.383311545016E+03   -0.13433E-03   -0.13402E-03  9152   0.775E-03 0.477E-05
CGA:  19    -0.383311610962E+03   -0.65947E-04   -0.65964E-04  9152   0.541E-03 0.168E-05
CGA:  20    -0.383311644239E+03   -0.33276E-04   -0.33266E-04  9152   0.306E-03 0.411E-06
CGA:  21    -0.383311681255E+03   -0.37016E-04   -0.36952E-04  9152   0.311E-03 0.209E-05
CGA:  22    -0.383311708278E+03   -0.27024E-04   -0.27030E-04  9152   0.105E-03 0.915E-06
CGA:  23    -0.383311716003E+03   -0.77248E-05   -0.77230E-05  9152   0.131E-03-0.128E-06
CGA:  24    -0.383311735572E+03   -0.19569E-04   -0.19528E-04  9152   0.671E-04 0.705E-06
CGA:  25    -0.383311741525E+03   -0.59534E-05   -0.59537E-05  9152   0.495E-04 0.326E-07
  18 F= -.38331174E+03 E0= -.38330515E+03  d E =-.333644E-01  mag=    46.0000
       N       E                     dE             d eps       ncg     rms          ort
SDA:   1    -0.335528405087E+03    0.47783E+02    0.00000E+00  9152   0.149E+03 0.000E+00
CGA:   2    -0.355623634665E+03   -0.20095E+02   -0.20767E+02  9152   0.237E+03-0.103E+02
CGA:   3    -0.371810241892E+03   -0.16187E+02   -0.16090E+02  9152   0.754E+02 0.140E+02
CGA:   4    -0.377060611309E+03   -0.52504E+01   -0.42088E+01  9152   0.308E+02 0.244E+02
CGA:   5    -0.378509666459E+03   -0.14491E+01   -0.13596E+01  9152   0.367E+02-0.195E+01
CGA:   6    -0.379545959786E+03   -0.10363E+01   -0.13033E+01  9152   0.104E+03-0.871E+01
CGA:   7    -0.380590699624E+03   -0.10447E+01   -0.10473E+01  9152   0.634E+02-0.221E+01
CGA:   8    -0.380889869093E+03   -0.29917E+00   -0.95188E+00  9152   0.281E+02-0.330E+02
CGA:   9    -0.382212739852E+03   -0.13229E+01   -0.13672E+01  9152   0.678E+01-0.258E+01
CGA:  10    -0.382651450369E+03   -0.43871E+00   -0.43796E+00  9152   0.835E+01-0.463E-01
CGA:  11    -0.382936173069E+03   -0.28472E+00   -0.27137E+00  9152   0.124E+01 0.116E+00
CGA:  12    -0.383048270222E+03   -0.11210E+00   -0.11100E+00  9152   0.560E+00 0.578E-01
CGA:  13    -0.383104665121E+03   -0.56395E-01   -0.55655E-01  9152   0.141E+01 0.292E-01
CGA:  14    -0.383169973954E+03   -0.65309E-01   -0.59294E-01  9152   0.415E+00 0.533E-01
CGA:  15    -0.383208613676E+03   -0.38640E-01   -0.38127E-01  9152   0.192E+00 0.261E-01
CGA:  16    -0.383235467991E+03   -0.26854E-01   -0.25836E-01  9152   0.106E+00 0.180E-01
CGA:  17    -0.383252870017E+03   -0.17402E-01   -0.16837E-01  9152   0.856E-01 0.764E-02
CGA:  18    -0.383256870919E+03   -0.40009E-02   -0.41262E-02  9152   0.645E-01-0.122E-02
CGA:  19    -0.383262861877E+03   -0.59910E-02   -0.59362E-02  9152   0.445E-01 0.270E-02
CGA:  20    -0.383267855811E+03   -0.49939E-02   -0.49391E-02  9152   0.225E-01 0.159E-02
CGA:  21    -0.383269519843E+03   -0.16640E-02   -0.16710E-02  9152   0.283E-01 0.225E-03
CGA:  22    -0.383271934847E+03   -0.24150E-02   -0.24135E-02  9152   0.116E-01 0.345E-03
CGA:  23    -0.383273340008E+03   -0.14052E-02   -0.13974E-02  9152   0.116E-01 0.174E-03
CGA:  24    -0.383274010593E+03   -0.67058E-03   -0.67332E-03  9152   0.773E-02 0.705E-05
CGA:  25    -0.383274793816E+03   -0.78322E-03   -0.78281E-03  9152   0.488E-02 0.176E-04
CGA:  26    -0.383275389899E+03   -0.59608E-03   -0.59516E-03  9152   0.424E-02 0.201E-04
CGA:  27    -0.383275613576E+03   -0.22368E-03   -0.22320E-03  9152   0.261E-02-0.257E-05
CGA:  28    -0.383275968393E+03   -0.35482E-03   -0.35503E-03  9152   0.167E-02-0.453E-05
CGA:  29    -0.383276132360E+03   -0.16397E-03   -0.16405E-03  9152   0.161E-02-0.507E-05
CGA:  30    -0.383276226084E+03   -0.93724E-04   -0.93129E-04  9152   0.982E-03-0.349E-05
CGA:  31    -0.383276337273E+03   -0.11119E-03   -0.11142E-03  9152   0.567E-03-0.707E-05
CGA:  32    -0.383276401574E+03   -0.64301E-04   -0.64412E-04  9152   0.649E-03-0.373E-05
CGA:  33    -0.383276433684E+03   -0.32110E-04   -0.31841E-04  9152   0.291E-03-0.202E-05
CGA:  34    -0.383276474266E+03   -0.40582E-04   -0.40898E-04  9152   0.246E-03-0.565E-05
CGA:  35    -0.383276494740E+03   -0.20474E-04   -0.20465E-04  9152   0.234E-03-0.173E-05
CGA:  36    -0.383276506992E+03   -0.12252E-04   -0.12171E-04  9152   0.101E-03-0.135E-05
CGA:  37    -0.383276520567E+03   -0.13576E-04   -0.13592E-04  9152   0.839E-04-0.329E-06
CGA:  38    -0.383276527712E+03   -0.71443E-05   -0.71479E-05  9152   0.110E-03 0.903E-06
  19 F= -.38327653E+03 E0= -.38326999E+03  d E =0.352138E-01  mag=    46.0000
       N       E                     dE             d eps       ncg     rms          ort
SDA:   1    -0.377451452203E+03    0.58251E+01    0.00000E+00  9152   0.208E+02 0.000E+00
CGA:   2    -0.380541340970E+03   -0.30899E+01   -0.31202E+01  9152   0.324E+02-0.699E+00
CGA:   3    -0.381809912935E+03   -0.12686E+01   -0.13932E+01  9152   0.677E+01-0.172E+01
CGA:   4    -0.382869504480E+03   -0.10596E+01   -0.10704E+01  9152   0.472E+01-0.140E+00
CGA:   5    -0.383157049105E+03   -0.28754E+00   -0.28893E+00  9152   0.206E+01 0.422E-03
CGA:   6    -0.383286168780E+03   -0.12912E+00   -0.12778E+00  9152   0.124E+01 0.126E-02
CGA:   7    -0.383392239424E+03   -0.10607E+00   -0.10615E+00  9152   0.299E+00 0.758E-02
CGA:   8    -0.383427436227E+03   -0.35197E-01   -0.35015E-01  9152   0.185E+00 0.488E-02
CGA:   9    -0.383440771965E+03   -0.13336E-01   -0.13313E-01  9152   0.174E+00-0.240E-03
CGA:  10    -0.383454576562E+03   -0.13805E-01   -0.13769E-01  9152   0.421E-01-0.121E-02
CGA:  11    -0.383461110912E+03   -0.65343E-02   -0.65198E-02  9152   0.627E-01 0.207E-03
CGA:  12    -0.383465637344E+03   -0.45264E-02   -0.45338E-02  9152   0.359E-01 0.103E-03
CGA:  13    -0.383467913591E+03   -0.22762E-02   -0.22788E-02  9152   0.174E-01 0.303E-04
CGA:  14    -0.383471457880E+03   -0.35443E-02   -0.35444E-02  9152   0.150E-01-0.244E-05
CGA:  15    -0.383472280714E+03   -0.82283E-03   -0.82325E-03  9152   0.940E-02 0.845E-05
CGA:  16    -0.383473387801E+03   -0.11071E-02   -0.11069E-02  9152   0.666E-02 0.793E-05
CGA:  17    -0.383474118999E+03   -0.73120E-03   -0.73093E-03  9152   0.455E-02 0.135E-04
CGA:  18    -0.383474397234E+03   -0.27824E-03   -0.27789E-03  9152   0.259E-02 0.232E-06
CGA:  19    -0.383474635481E+03   -0.23825E-03   -0.23825E-03  9152   0.180E-02 0.271E-05
CGA:  20    -0.383474864287E+03   -0.22881E-03   -0.22884E-03  9152   0.960E-03-0.134E-05
CGA:  21    -0.383474915101E+03   -0.50814E-04   -0.50844E-04  9152   0.597E-03 0.101E-05
CGA:  22    -0.383475022458E+03   -0.10736E-03   -0.10738E-03  9152   0.485E-03-0.236E-06
CGA:  23    -0.383475059669E+03   -0.37211E-04   -0.37219E-04  9152   0.325E-03 0.122E-06
CGA:  24    -0.383475085694E+03   -0.26026E-04   -0.26009E-04  9152   0.297E-03-0.123E-05
CGA:  25    -0.383475121385E+03   -0.35690E-04   -0.35699E-04  9152   0.169E-03-0.450E-06
CGA:  26    -0.383475137591E+03   -0.16206E-04   -0.16205E-04  9152   0.147E-03-0.109E-05
CGA:  27    -0.383475146651E+03   -0.90602E-05   -0.90594E-05  9152   0.819E-04-0.351E-07
CGA:  28    -0.383475161029E+03   -0.14378E-04   -0.14429E-04  9152   0.568E-04-0.658E-06
CGA:  29    -0.383475164403E+03   -0.33743E-05   -0.33811E-05  9152   0.348E-04 0.148E-06
  20 F= -.38347516E+03 E0= -.38346876E+03  d E =-.198637E+00  mag=    46.0000
       N       E                     dE             d eps       ncg     rms          ort
SDA:   1    -0.383340582591E+03    0.13458E+00    0.00000E+00  9152   0.570E+00 0.000E+00
CGA:   2    -0.383396137650E+03   -0.55555E-01   -0.55554E-01  9152   0.560E+00-0.102E-01
CGA:   3    -0.383445988920E+03   -0.49851E-01   -0.49822E-01  9152   0.419E+00-0.179E-02
CGA:   4    -0.383466331062E+03   -0.20342E-01   -0.20175E-01  9152   0.101E+00 0.169E-02
CGA:   5    -0.383484109915E+03   -0.17779E-01   -0.17775E-01  9152   0.263E-01 0.464E-04
CGA:   6    -0.383486307881E+03   -0.21980E-02   -0.21988E-02  9152   0.268E-01 0.135E-04
CGA:   7    -0.383487869206E+03   -0.15613E-02   -0.15627E-02  9152   0.652E-02 0.179E-06
CGA:   8    -0.383488615251E+03   -0.74604E-03   -0.74719E-03  9152   0.279E-02-0.419E-04
CGA:   9    -0.383488835162E+03   -0.21991E-03   -0.21993E-03  9152   0.250E-02 0.543E-07
CGA:  10    -0.383489022579E+03   -0.18742E-03   -0.18739E-03  9152   0.133E-02-0.216E-05
CGA:  11    -0.383489119323E+03   -0.96744E-04   -0.96817E-04  9152   0.405E-03 0.172E-05
CGA:  12    -0.383489194450E+03   -0.75128E-04   -0.75107E-04  9152   0.736E-03 0.223E-06
CGA:  13    -0.383489228246E+03   -0.33795E-04   -0.33855E-04  9152   0.163E-03 0.126E-05
CGA:  14    -0.383489264902E+03   -0.36657E-04   -0.36681E-04  9152   0.192E-03-0.153E-06
CGA:  15    -0.383489278215E+03   -0.13312E-04   -0.13319E-04  9152   0.169E-03 0.257E-06
CGA:  16    -0.383489292289E+03   -0.14074E-04   -0.14060E-04  9152   0.527E-04-0.604E-06
CGA:  17    -0.383489303053E+03   -0.10763E-04   -0.10721E-04  9152   0.939E-04 0.401E-06
CGA:  18    -0.383489307203E+03   -0.41508E-05   -0.41415E-05  9152   0.181E-04-0.167E-06
  21 F= -.38348931E+03 E0= -.38348291E+03  d E =-.141428E-01  mag=    46.0000
       N       E                     dE             d eps       ncg     rms          ort
SDA:   1    -0.382081071422E+03    0.14082E+01    0.00000E+00  9152   0.485E+01 0.000E+00
CGA:   2    -0.382666415615E+03   -0.58534E+00   -0.58887E+00  9152   0.587E+01-0.148E+00
CGA:   3    -0.383181060253E+03   -0.51464E+00   -0.51315E+00  9152   0.325E+01-0.184E-01
CGA:   4    -0.383330394724E+03   -0.14933E+00   -0.14983E+00  9152   0.973E+00-0.297E-01
CGA:   5    -0.383481185205E+03   -0.15079E+00   -0.15148E+00  9152   0.340E+00-0.114E-01
CGA:   6    -0.383499401981E+03   -0.18217E-01   -0.18432E-01  9152   0.192E+00-0.161E-02
CGA:   7    -0.383513448237E+03   -0.14046E-01   -0.14015E-01  9152   0.759E-01-0.133E-03
CGA:   8    -0.383520695154E+03   -0.72469E-02   -0.72486E-02  9152   0.422E-01 0.112E-03
CGA:   9    -0.383523125731E+03   -0.24306E-02   -0.24217E-02  9152   0.189E-01 0.482E-04
CGA:  10    -0.383524641466E+03   -0.15157E-02   -0.15168E-02  9152   0.123E-01 0.112E-04
CGA:  11    -0.383525977777E+03   -0.13363E-02   -0.13361E-02  9152   0.543E-02 0.900E-05
CGA:  12    -0.383526258285E+03   -0.28051E-03   -0.28027E-03  9152   0.321E-02 0.679E-05
CGA:  13    -0.383526885705E+03   -0.62742E-03   -0.62697E-03  9152   0.231E-02 0.456E-05
CGA:  14    -0.383527010770E+03   -0.12507E-03   -0.12518E-03  9152   0.149E-02 0.243E-05
CGA:  15    -0.383527256374E+03   -0.24560E-03   -0.24556E-03  9152   0.162E-02 0.735E-06
CGA:  16    -0.383527377371E+03   -0.12100E-03   -0.12107E-03  9152   0.987E-03 0.177E-05
CGA:  17    -0.383527448618E+03   -0.71247E-04   -0.71223E-04  9152   0.612E-03-0.718E-06
CGA:  18    -0.383527516992E+03   -0.68375E-04   -0.68361E-04  9152   0.513E-03 0.960E-06
CGA:  19    -0.383527559930E+03   -0.42937E-04   -0.42935E-04  9152   0.355E-03-0.117E-06
CGA:  20    -0.383527580967E+03   -0.21037E-04   -0.21073E-04  9152   0.120E-03 0.896E-06
CGA:  21    -0.383527601405E+03   -0.20438E-04   -0.20463E-04  9152   0.193E-03-0.358E-06
CGA:  22    -0.383527611019E+03   -0.96139E-05   -0.96306E-05  9152   0.482E-04 0.258E-06
  22 F= -.38352761E+03 E0= -.38352126E+03  d E =-.383038E-01  mag=    46.0000
       N       E                     dE             d eps       ncg     rms          ort
SDA:   1    -0.382334717058E+03    0.11929E+01    0.00000E+00  9152   0.396E+01 0.000E+00
CGA:   2    -0.382822525981E+03   -0.48781E+00   -0.50059E+00  9152   0.548E+01-0.358E+00
CGA:   3    -0.383277716833E+03   -0.45519E+00   -0.45490E+00  9152   0.302E+01-0.949E-02
CGA:   4    -0.383410733988E+03   -0.13302E+00   -0.12923E+00  9152   0.695E+00 0.567E-01
CGA:   5    -0.383517778564E+03   -0.10704E+00   -0.10677E+00  9152   0.391E+00 0.462E-02
CGA:   6    -0.383542615976E+03   -0.24837E-01   -0.24550E-01  9152   0.115E+00 0.956E-03
CGA:   7    -0.383549775081E+03   -0.71591E-02   -0.72125E-02  9152   0.826E-01-0.105E-03
CGA:   8    -0.383556603265E+03   -0.68282E-02   -0.68244E-02  9152   0.291E-01-0.702E-04
CGA:   9    -0.383559561934E+03   -0.29587E-02   -0.29595E-02  9152   0.130E-01-0.117E-03
CGA:  10    -0.383560265123E+03   -0.70319E-03   -0.70314E-03  9152   0.811E-02-0.867E-05
CGA:  11    -0.383561156942E+03   -0.89182E-03   -0.89166E-03  9152   0.482E-02 0.537E-05
CGA:  12    -0.383561513457E+03   -0.35651E-03   -0.35663E-03  9152   0.160E-02 0.142E-05
CGA:  13    -0.383561684976E+03   -0.17152E-03   -0.17149E-03  9152   0.291E-02 0.361E-05
CGA:  14    -0.383561924068E+03   -0.23909E-03   -0.23912E-03  9152   0.737E-03 0.267E-05
CGA:  15    -0.383562020304E+03   -0.96236E-04   -0.96135E-04  9152   0.998E-03 0.252E-05
CGA:  16    -0.383562100480E+03   -0.80176E-04   -0.80148E-04  9152   0.871E-03-0.804E-06
CGA:  17    -0.383562169790E+03   -0.69310E-04   -0.69327E-04  9152   0.396E-03 0.858E-06
CGA:  18    -0.383562212213E+03   -0.42424E-04   -0.42442E-04  9152   0.276E-03-0.135E-05
CGA:  19    -0.383562235876E+03   -0.23662E-04   -0.23667E-04  9152   0.324E-03 0.518E-06
CGA:  20    -0.383562260478E+03   -0.24603E-04   -0.24599E-04  9152   0.833E-04-0.514E-07
CGA:  21    -0.383562272574E+03   -0.12095E-04   -0.12064E-04  9152   0.120E-03 0.626E-06
CGA:  22    -0.383562279973E+03   -0.73991E-05   -0.73909E-05  9152   0.583E-04-0.254E-06
  23 F= -.38356228E+03 E0= -.38355598E+03  d E =-.346690E-01  mag=    46.0000
       N       E                     dE             d eps       ncg     rms          ort
SDA:   1    -0.346452613156E+03    0.37110E+02    0.00000E+00  9152   0.107E+03 0.000E+00
CGA:   2    -0.367658943248E+03   -0.21206E+02   -0.23666E+02  9152   0.150E+03-0.186E+02
CGA:   3    -0.376556307692E+03   -0.88974E+01   -0.83784E+01  9152   0.429E+02-0.207E+01
CGA:   4    -0.379740641683E+03   -0.31843E+01   -0.33715E+01  9152   0.349E+02 0.187E+01
CGA:   5    -0.381761108290E+03   -0.20205E+01   -0.16741E+01  9152   0.144E+02 0.284E+01
CGA:   6    -0.382915659986E+03   -0.11546E+01   -0.11023E+01  9152   0.307E+01 0.178E+00
CGA:   7    -0.383249597086E+03   -0.33394E+00   -0.32984E+00  9152   0.488E+01 0.217E+00
CGA:   8    -0.383437711457E+03   -0.18811E+00   -0.20042E+00  9152   0.123E+01-0.171E+00
CGA:   9    -0.383558631036E+03   -0.12092E+00   -0.12104E+00  9152   0.618E+00-0.718E-02
CGA:  10    -0.383591122368E+03   -0.32491E-01   -0.33363E-01  9152   0.633E+00-0.409E-02
CGA:  11    -0.383648682848E+03   -0.57560E-01   -0.57531E-01  9152   0.995E-01 0.254E-01
CGA:  12    -0.383663184923E+03   -0.14502E-01   -0.14428E-01  9152   0.237E+00 0.131E-02
CGA:  13    -0.383675510837E+03   -0.12326E-01   -0.12499E-01  9152   0.539E-01-0.961E-03
CGA:  14    -0.383681397992E+03   -0.58872E-02   -0.58682E-02  9152   0.293E-01 0.694E-03
CGA:  15    -0.383684969927E+03   -0.35719E-02   -0.35585E-02  9152   0.623E-01 0.359E-03
CGA:  16    -0.383688719453E+03   -0.37495E-02   -0.37589E-02  9152   0.864E-02 0.154E-04
CGA:  17    -0.383690473860E+03   -0.17544E-02   -0.17465E-02  9152   0.210E-01 0.741E-04
CGA:  18    -0.383691479037E+03   -0.10052E-02   -0.10124E-02  9152   0.591E-02-0.815E-04
CGA:  19    -0.383692110160E+03   -0.63112E-03   -0.62998E-03  9152   0.322E-02 0.608E-04
CGA:  20    -0.383692448427E+03   -0.33827E-03   -0.33815E-03  9152   0.566E-02 0.103E-04
CGA:  21    -0.383692875273E+03   -0.42685E-03   -0.42723E-03  9152   0.162E-02 0.121E-04
CGA:  22    -0.383693078867E+03   -0.20359E-03   -0.20325E-03  9152   0.165E-02 0.929E-05
CGA:  23    -0.383693186046E+03   -0.10718E-03   -0.10721E-03  9152   0.153E-02 0.240E-05
CGA:  24    -0.383693422510E+03   -0.23646E-03   -0.23649E-03  9152   0.598E-03-0.520E-06
CGA:  25    -0.383693464162E+03   -0.41652E-04   -0.41617E-04  9152   0.787E-03-0.663E-06
CGA:  26    -0.383693593157E+03   -0.12899E-03   -0.12942E-03  9152   0.291E-03-0.639E-05
CGA:  27    -0.383693613205E+03   -0.20048E-04   -0.20009E-04  9152   0.333E-03-0.114E-05
CGA:  28    -0.383693650568E+03   -0.37363E-04   -0.37423E-04  9152   0.191E-03-0.412E-05
CGA:  29    -0.383693669032E+03   -0.18464E-04   -0.18463E-04  9152   0.149E-03-0.122E-05
CGA:  30    -0.383693677152E+03   -0.81194E-05   -0.80717E-05  9152   0.823E-04-0.115E-05
CGA:  31    -0.383693690136E+03   -0.12985E-04   -0.13089E-04  9152   0.539E-04-0.166E-05
SDA:  32    -0.383693693332E+03   -0.31952E-05   -0.31733E-05  9152   0.485E-04-0.577E-06
  24 F= -.38369369E+03 E0= -.38368783E+03  d E =-.131413E+00  mag=    46.0000
       N       E                     dE             d eps       ncg     rms          ort
SDA:   1    -0.381418675056E+03    0.22750E+01    0.00000E+00  9152   0.854E+01 0.000E+00
CGA:   2    -0.382326565062E+03   -0.90789E+00   -0.90714E+00  9152   0.128E+02 0.128E-01
CGA:   3    -0.382985401149E+03   -0.65884E+00   -0.64923E+00  9152   0.283E+01 0.104E+00
CGA:   4    -0.383489092159E+03   -0.50369E+00   -0.49596E+00  9152   0.143E+01 0.822E-01
CGA:   5    -0.383648949094E+03   -0.15986E+00   -0.16024E+00  9152   0.893E+00-0.215E-01
CGA:   6    -0.383686192510E+03   -0.37243E-01   -0.38426E-01  9152   0.427E+00-0.175E-01
CGA:   7    -0.383730144458E+03   -0.43952E-01   -0.43891E-01  9152   0.898E-01 0.372E-02
CGA:   8    -0.383743927651E+03   -0.13783E-01   -0.13900E-01  9152   0.482E-01-0.178E-02
CGA:   9    -0.383750350245E+03   -0.64226E-02   -0.63924E-02  9152   0.215E-01 0.635E-03
CGA:  10    -0.383751602625E+03   -0.12524E-02   -0.12576E-02  9152   0.215E-01-0.291E-04
CGA:  11    -0.383754018434E+03   -0.24158E-02   -0.24157E-02  9152   0.491E-02 0.756E-05
CGA:  12    -0.383754897232E+03   -0.87880E-03   -0.87712E-03  9152   0.469E-02 0.202E-04
CGA:  13    -0.383755221261E+03   -0.32403E-03   -0.32373E-03  9152   0.488E-02 0.100E-05
CGA:  14    -0.383755581893E+03   -0.36063E-03   -0.36022E-03  9152   0.124E-02-0.518E-05
CGA:  15    -0.383755851672E+03   -0.26978E-03   -0.26932E-03  9152   0.122E-02 0.404E-05
CGA:  16    -0.383755935548E+03   -0.83877E-04   -0.83849E-04  9152   0.119E-02-0.108E-05
CGA:  17    -0.383756019420E+03   -0.83871E-04   -0.83875E-04  9152   0.434E-03 0.167E-06
CGA:  18    -0.383756110103E+03   -0.90683E-04   -0.90492E-04  9152   0.252E-03 0.181E-05
CGA:  19    -0.383756127683E+03   -0.17580E-04   -0.17593E-04  9152   0.300E-03 0.561E-06
CGA:  20    -0.383756154694E+03   -0.27011E-04   -0.27006E-04  9152   0.134E-03-0.243E-06
CGA:  21    -0.383756177195E+03   -0.22501E-04   -0.22475E-04  9152   0.692E-04 0.396E-06
CGA:  22    -0.383756182434E+03   -0.52388E-05   -0.52287E-05  9152   0.101E-03-0.330E-06
CGA:  23    -0.383756193603E+03   -0.11169E-04   -0.11170E-04  9152   0.424E-04-0.154E-06
CGA:  24    -0.383756199307E+03   -0.57048E-05   -0.57044E-05  9152   0.268E-04 0.190E-07
  25 F= -.38375620E+03 E0= -.38375035E+03  d E =-.625060E-01  mag=    46.0000
       N       E                     dE             d eps       ncg     rms          ort
SDA:   1    -0.383624519979E+03    0.13167E+00    0.00000E+00  9152   0.568E+00 0.000E+00
CGA:   2    -0.383659591667E+03   -0.35072E-01   -0.34502E-01  9152   0.691E+00 0.164E-02
CGA:   3    -0.383733600392E+03   -0.74009E-01   -0.74013E-01  9152   0.153E+00-0.101E-02
CGA:   4    -0.383755853900E+03   -0.22254E-01   -0.22223E-01  9152   0.699E-01 0.552E-03
CGA:   5    -0.383764868785E+03   -0.90149E-02   -0.90257E-02  9152   0.134E-01-0.331E-03
CGA:   6    -0.383766594990E+03   -0.17262E-02   -0.17254E-02  9152   0.998E-02 0.257E-04
CGA:   7    -0.383767069945E+03   -0.47496E-03   -0.47357E-03  9152   0.532E-02 0.199E-04
CGA:   8    -0.383767525450E+03   -0.45550E-03   -0.45486E-03  9152   0.127E-02-0.114E-04
CGA:   9    -0.383767748351E+03   -0.22290E-03   -0.22276E-03  9152   0.665E-03 0.170E-05
CGA:  10    -0.383767794215E+03   -0.45864E-04   -0.45861E-04  9152   0.712E-03-0.992E-06
CGA:  11    -0.383767846456E+03   -0.52241E-04   -0.52248E-04  9152   0.251E-03 0.417E-06
CGA:  12    -0.383767896223E+03   -0.49767E-04   -0.49582E-04  9152   0.136E-03 0.198E-05
CGA:  13    -0.383767907691E+03   -0.11468E-04   -0.11479E-04  9152   0.230E-03 0.482E-06
CGA:  14    -0.383767931104E+03   -0.23413E-04   -0.23412E-04  9152   0.806E-04-0.197E-06
CGA:  15    -0.383767941997E+03   -0.10893E-04   -0.10883E-04  9152   0.539E-04 0.346E-06
CGA:  16    -0.383767946701E+03   -0.47035E-05   -0.46923E-05  9152   0.806E-04-0.487E-06
  26 F= -.38376795E+03 E0= -.38376213E+03  d E =-.117474E-01  mag=    46.0000
       N       E                     dE             d eps       ncg     rms          ort
SDA:   1    -0.378991673958E+03    0.47763E+01    0.00000E+00  9152   0.146E+02 0.000E+00
CGA:   2    -0.381171691361E+03   -0.21800E+01   -0.21275E+01  9152   0.243E+02 0.126E+01
CGA:   3    -0.382494967007E+03   -0.13233E+01   -0.95161E+00  9152   0.440E+01 0.714E+01
CGA:   4    -0.383026797855E+03   -0.53183E+00   -0.52473E+00  9152   0.964E+01-0.173E+00
CGA:   5    -0.383406115294E+03   -0.37932E+00   -0.39950E+00  9152   0.443E+01-0.303E+00
CGA:   6    -0.383543003110E+03   -0.13689E+00   -0.14318E+00  9152   0.355E+01-0.153E+00
CGA:   7    -0.383695760826E+03   -0.15276E+00   -0.12538E+00  9152   0.145E+01 0.628E+00
CGA:   8    -0.383732542902E+03   -0.36782E-01   -0.35027E-01  9152   0.319E+00 0.727E-01
CGA:   9    -0.383758623617E+03   -0.26081E-01   -0.26152E-01  9152   0.770E+00 0.191E-02
CGA:  10    -0.383788561489E+03   -0.29938E-01   -0.30814E-01  9152   0.236E+00-0.116E-01
CGA:  11    -0.383795913665E+03   -0.73522E-02   -0.74571E-02  9152   0.168E+00-0.234E-02
CGA:  12    -0.383806014192E+03   -0.10101E-01   -0.99290E-02  9152   0.105E+00-0.335E-03
CGA:  13    -0.383808868941E+03   -0.28547E-02   -0.28659E-02  9152   0.484E-01-0.342E-03
CGA:  14    -0.383813168521E+03   -0.42996E-02   -0.42983E-02  9152   0.106E+00 0.811E-04
CGA:  15    -0.383816762858E+03   -0.35943E-02   -0.36832E-02  9152   0.226E-01-0.149E-02
CGA:  16    -0.383817596231E+03   -0.83337E-03   -0.84049E-03  9152   0.201E-01-0.916E-04
CGA:  17    -0.383819025419E+03   -0.14292E-02   -0.14304E-02  9152   0.164E-01 0.106E-03
CGA:  18    -0.383819657289E+03   -0.63187E-03   -0.63774E-03  9152   0.129E-01-0.662E-04
CGA:  19    -0.383820838268E+03   -0.11810E-02   -0.11821E-02  9152   0.138E-01-0.371E-04
CGA:  20    -0.383821216236E+03   -0.37797E-03   -0.37898E-03  9152   0.289E-02-0.366E-05
CGA:  21    -0.383821455965E+03   -0.23973E-03   -0.23962E-03  9152   0.679E-02 0.868E-05
CGA:  22    -0.383821857195E+03   -0.40123E-03   -0.40132E-03  9152   0.316E-02 0.234E-05
CGA:  23    -0.383822006206E+03   -0.14901E-03   -0.14920E-03  9152   0.295E-02-0.311E-05
CGA:  24    -0.383822172591E+03   -0.16638E-03   -0.16632E-03  9152   0.134E-02-0.253E-05
CGA:  25    -0.383822237222E+03   -0.64632E-04   -0.64634E-04  9152   0.154E-02 0.894E-06
CGA:  26    -0.383822382509E+03   -0.14529E-03   -0.14520E-03  9152   0.120E-02 0.305E-05
CGA:  27    -0.383822419609E+03   -0.37100E-04   -0.37147E-04  9152   0.477E-03-0.197E-05
CGA:  28    -0.383822485338E+03   -0.65729E-04   -0.65789E-04  9152   0.130E-02-0.876E-06
CGA:  29    -0.383822533353E+03   -0.48015E-04   -0.48035E-04  9152   0.281E-03 0.112E-06
CGA:  30    -0.383822552633E+03   -0.19280E-04   -0.19280E-04  9152   0.471E-03 0.152E-06
CGA:  31    -0.383822580519E+03   -0.27886E-04   -0.27873E-04  9152   0.182E-03-0.839E-06
SDA:  32    -0.383822589997E+03   -0.94779E-05   -0.94655E-05  9152   0.231E-03-0.704E-06
  27 F= -.38382259E+03 E0= -.38381700E+03  d E =-.546433E-01  mag=    46.0000
       N       E                     dE             d eps       ncg     rms          ort
SDA:   1    -0.354007522570E+03    0.29815E+02    0.00000E+00  9152   0.944E+02 0.000E+00
CGA:   2    -0.368081745385E+03   -0.14074E+02   -0.11609E+02  9152   0.430E+02 0.370E+02
CGA:   3    -0.370680754097E+03   -0.25990E+01   -0.66018E+01  9152   0.778E+02 0.182E+00
CGA:   4    -0.233783964433E+03    0.13690E+03   -0.17947E+02  9152   0.268E+05-0.650E+04
CGA:   5    -0.350864600776E+03   -0.11708E+03   -0.10856E+04  9152   0.225E+03-0.422E+03
CGA:   6    -0.365545690098E+03   -0.14681E+02   -0.12623E+02  9152   0.133E+03-0.103E+03
CGA:   7    -0.364118556581E+03    0.14271E+01   -0.17565E+02  9152   0.300E+03-0.122E+03
CGA:   8    -0.376473318163E+03   -0.12355E+02   -0.15359E+02  9152   0.945E+02-0.444E+02
CGA:   9    -0.380560790142E+03   -0.40875E+01   -0.32425E+01  9152   0.154E+02 0.222E+02
CGA:  10    -0.381282290573E+03   -0.72150E+00   -0.65299E+00  9152   0.202E+02-0.760E+00
CGA:  11    -0.382350240885E+03   -0.10680E+01   -0.10965E+01  9152   0.222E+02 0.584E+00
CGA:  12    -0.382598721118E+03   -0.24848E+00   -0.43052E+00  9152   0.734E+01-0.941E+01
CGA:  13    -0.382825000749E+03   -0.22628E+00   -0.22464E+00  9152   0.941E+01 0.179E-01
CGA:  14    -0.383036763797E+03   -0.21176E+00   -0.18897E+00  9152   0.202E+01 0.452E+00
CGA:  15    -0.383140387664E+03   -0.10362E+00   -0.10660E+00  9152   0.458E+01 0.111E-01
CGA:  16    -0.383386946777E+03   -0.24656E+00   -0.23459E+00  9152   0.161E+01-0.100E+00
CGA:  17    -0.383436564472E+03   -0.49618E-01   -0.52821E-01  9152   0.135E+01-0.634E-01
CGA:  18    -0.383516565228E+03   -0.80001E-01   -0.80645E-01  9152   0.135E+01 0.523E-01
CGA:  19    -0.383570416809E+03   -0.53852E-01   -0.59354E-01  9152   0.607E+00-0.270E-01
CGA:  20    -0.383637208672E+03   -0.66792E-01   -0.78482E-01  9152   0.575E+00-0.199E+00
CGA:  21    -0.383654343285E+03   -0.17135E-01   -0.18765E-01  9152   0.279E+00 0.813E-02
CGA:  22    -0.383708326436E+03   -0.53983E-01   -0.60154E-01  9152   0.523E+00-0.113E+00
CGA:  23    -0.383725818155E+03   -0.17492E-01   -0.15835E-01  9152   0.214E+00 0.169E-01
CGA:  24    -0.383742524339E+03   -0.16706E-01   -0.16802E-01  9152   0.699E+00-0.299E-01
CGA:  25    -0.383754881948E+03   -0.12358E-01   -0.14977E-01  9152   0.892E+00-0.138E+00
CGA:  26    -0.383765828268E+03   -0.10946E-01   -0.18374E-01  9152   0.511E+00-0.100E+00
CGA:  27    -0.383774058679E+03   -0.82304E-02   -0.10973E-01  9152   0.157E+00-0.800E-01
CGA:  28    -0.383780267205E+03   -0.62085E-02   -0.64131E-02  9152   0.159E+00 0.172E-02
CGA:  29    -0.383789580762E+03   -0.93136E-02   -0.92768E-02  9152   0.955E-01-0.147E-02
CGA:  30    -0.383794231906E+03   -0.46511E-02   -0.46724E-02  9152   0.763E-01 0.261E-03
CGA:  31    -0.383801098242E+03   -0.68663E-02   -0.68497E-02  9152   0.113E+00 0.344E-03
CGA:  32    -0.383807031528E+03   -0.59333E-02   -0.59800E-02  9152   0.493E-01 0.419E-03
CGA:  33    -0.383811335462E+03   -0.43039E-02   -0.43570E-02  9152   0.101E+00-0.226E-02
CGA:  34    -0.383817293118E+03   -0.59577E-02   -0.56285E-02  9152   0.102E+00-0.137E-01
CGA:  35    -0.383819075596E+03   -0.17825E-02   -0.17719E-02  9152   0.796E-01-0.168E-02
CGA:  36    -0.383821306486E+03   -0.22309E-02   -0.24812E-02  9152   0.119E+00-0.498E-02
CGA:  37    -0.383825659962E+03   -0.43535E-02   -0.44018E-02  9152   0.126E+00 0.176E-02
SDA:  38    -0.383828549707E+03   -0.28897E-02   -0.31964E-02  9152   0.505E-01-0.851E-02
CGA:  39    -0.383831753851E+03   -0.32041E-02   -0.32183E-02  9152   0.408E-01-0.188E-02
CGA:  40    -0.383839324115E+03   -0.75703E-02   -0.76223E-02  9152   0.317E-01-0.609E-03
CGA:  41    -0.383843552127E+03   -0.42280E-02   -0.42819E-02  9152   0.156E-01-0.786E-03
CGA:  42    -0.383844661117E+03   -0.11090E-02   -0.11106E-02  9152   0.145E-01-0.293E-03
CGA:  43    -0.383846500705E+03   -0.18396E-02   -0.19376E-02  9152   0.687E-02-0.160E-02
CGA:  44    -0.383847403954E+03   -0.90325E-03   -0.88716E-03  9152   0.280E-02 0.221E-03
CGA:  45    -0.383847669875E+03   -0.26592E-03   -0.26785E-03  9152   0.413E-02-0.789E-04
CGA:  46    -0.383848004741E+03   -0.33487E-03   -0.33435E-03  9152   0.860E-03 0.639E-04
CGA:  47    -0.383848100007E+03   -0.95266E-04   -0.95176E-04  9152   0.616E-03 0.310E-05
CGA:  48    -0.383848128248E+03   -0.28241E-04   -0.28087E-04  9152   0.300E-03 0.335E-06
CGA:  49    -0.383848178081E+03   -0.49833E-04   -0.50277E-04  9152   0.182E-03-0.505E-05
CGA:  50    -0.383848189644E+03   -0.11563E-04   -0.11570E-04  9152   0.177E-03 0.151E-06
CGA:  51    -0.383848203654E+03   -0.14010E-04   -0.14008E-04  9152   0.894E-04 0.979E-07
CGA:  52    -0.383848218600E+03   -0.14946E-04   -0.14700E-04  9152   0.843E-04 0.295E-05
CGA:  53    -0.383848222405E+03   -0.38048E-05   -0.38623E-05  9152   0.430E-04 0.910E-06
  28 F= -.38384822E+03 E0= -.38384301E+03  d E =-.256324E-01  mag=    46.0000
       N       E                     dE             d eps       ncg     rms          ort
SDA:   1    -0.364115859679E+03    0.19732E+02    0.00000E+00  9152   0.617E+02 0.000E+00
CGA:   2    -0.376934980798E+03   -0.12819E+02   -0.12653E+02  9152   0.373E+02 0.181E+01
CGA:   3    -0.379004486776E+03   -0.20695E+01   -0.18296E+01  9152   0.239E+02 0.450E+01
CGA:   4    -0.382452992701E+03   -0.34485E+01   -0.34573E+01  9152   0.623E+01-0.241E+00
CGA:   5    -0.383292469799E+03   -0.83948E+00   -0.83068E+00  9152   0.224E+01 0.170E+00
CGA:   6    -0.383497102461E+03   -0.20463E+00   -0.20370E+00  9152   0.268E+01-0.469E-01
CGA:   7    -0.383609089295E+03   -0.11199E+00   -0.11527E+00  9152   0.569E+00-0.440E-01
CGA:   8    -0.383702744107E+03   -0.93655E-01   -0.92295E-01  9152   0.253E+00 0.175E-01
CGA:   9    -0.383720713790E+03   -0.17970E-01   -0.17783E-01  9152   0.328E+00-0.439E-03
CGA:  10    -0.383745214856E+03   -0.24501E-01   -0.24523E-01  9152   0.957E-01 0.318E-03
CGA:  11    -0.383759609570E+03   -0.14395E-01   -0.14187E-01  9152   0.829E-01 0.325E-02
CGA:  12    -0.383764034682E+03   -0.44251E-02   -0.43638E-02  9152   0.648E-01 0.552E-03
CGA:  13    -0.383771720964E+03   -0.76863E-02   -0.77032E-02  9152   0.227E-01-0.509E-03
CGA:  14    -0.383776063337E+03   -0.43424E-02   -0.43016E-02  9152   0.176E-01 0.422E-03
[...]
CGA:   8    -0.384336271410E+03   -0.39485E-02   -0.40013E-02  9152   0.184E-01-0.340E-03
CGA:   9    -0.384338868583E+03   -0.25972E-02   -0.25943E-02  9152   0.673E-02 0.493E-04
CGA:  10    -0.384339390083E+03   -0.52150E-03   -0.52055E-03  9152   0.926E-02-0.222E-04
CGA:  11    -0.384340087409E+03   -0.69733E-03   -0.69762E-03  9152   0.176E-02 0.368E-05
CGA:  12    -0.384340392540E+03   -0.30513E-03   -0.30451E-03  9152   0.145E-02 0.741E-05
CGA:  13    -0.384340506699E+03   -0.11416E-03   -0.11404E-03  9152   0.193E-02-0.300E-05
CGA:  14    -0.384340654975E+03   -0.14828E-03   -0.14829E-03  9152   0.449E-03 0.147E-05
CGA:  15    -0.384340779966E+03   -0.12499E-03   -0.12364E-03  9152   0.425E-03 0.751E-05
CGA:  16    -0.384340802996E+03   -0.23030E-04   -0.22981E-04  9152   0.352E-03 0.488E-06
CGA:  17    -0.384340848461E+03   -0.45465E-04   -0.45444E-04  9152   0.156E-03 0.767E-06
CGA:  18    -0.384340875461E+03   -0.26999E-04   -0.26882E-04  9152   0.894E-04 0.163E-05
CGA:  19    -0.384340882139E+03   -0.66780E-05   -0.66665E-05  9152   0.126E-03-0.270E-06
CGA:  20    -0.384340896364E+03   -0.14225E-04   -0.14224E-04  9152   0.380E-04 0.108E-06
CGA:  21    -0.384340903559E+03   -0.71951E-05   -0.71531E-05  9152   0.277E-04 0.499E-06
 129 F= -.38434090E+03 E0= -.38433610E+03  d E =-.270948E-02  mag=    46.0000
       N       E                     dE             d eps       ncg     rms          ort
SDA:   1    -0.373289202229E+03    0.11052E+02    0.00000E+00  9152   0.282E+02 0.000E+00
CGA:   2    -0.381258657150E+03   -0.79695E+01   -0.79207E+01  9152   0.206E+02 0.354E+00
CGA:   3    -0.382759127591E+03   -0.15005E+01   -0.18433E+01  9152   0.836E+01 0.308E+01
CGA:   4    -0.383569081995E+03   -0.80995E+00   -0.43983E+00  9152   0.330E+01 0.665E+01
CGA:   5    -0.383776032589E+03   -0.20695E+00   -0.17272E+00  9152   0.286E+01 0.266E+00
CGA:   6    -0.384136870497E+03   -0.36084E+00   -0.36085E+00  9152   0.696E+00-0.342E-03
CGA:   7    -0.384220091657E+03   -0.83221E-01   -0.83529E-01  9152   0.647E+00-0.203E-01
CGA:   8    -0.384257600353E+03   -0.37509E-01   -0.35304E-01  9152   0.518E+00 0.175E-01
CGA:   9    -0.384312175168E+03   -0.54575E-01   -0.54648E-01  9152   0.759E-01 0.521E-02
CGA:  10    -0.384318160700E+03   -0.59855E-02   -0.60609E-02  9152   0.114E+00 0.317E-03
CGA:  11    -0.384326294290E+03   -0.81336E-02   -0.81015E-02  9152   0.137E-01-0.397E-04
CGA:  12    -0.384328347972E+03   -0.20537E-02   -0.20507E-02  9152   0.191E-01 0.527E-04
CGA:  13    -0.384329272639E+03   -0.92467E-03   -0.94047E-03  9152   0.109E-01-0.176E-03
CGA:  14    -0.384330662764E+03   -0.13901E-02   -0.13905E-02  9152   0.431E-02-0.894E-05
CGA:  15    -0.384331518787E+03   -0.85602E-03   -0.85653E-03  9152   0.102E-01-0.517E-05
CGA:  16    -0.384331928584E+03   -0.40980E-03   -0.41441E-03  9152   0.185E-02-0.699E-04
CGA:  17    -0.384332309792E+03   -0.38121E-03   -0.38050E-03  9152   0.101E-02 0.705E-05
CGA:  18    -0.384332410788E+03   -0.10100E-03   -0.10103E-03  9152   0.143E-02 0.340E-05
CGA:  19    -0.384332491061E+03   -0.80273E-04   -0.80685E-04  9152   0.514E-03 0.336E-05
CGA:  20    -0.384332589193E+03   -0.98132E-04   -0.98031E-04  9152   0.219E-03 0.127E-05
CGA:  21    -0.384332646126E+03   -0.56933E-04   -0.56960E-04  9152   0.670E-03-0.180E-06
CGA:  22    -0.384332675061E+03   -0.28935E-04   -0.29098E-04  9152   0.154E-03-0.131E-05
CGA:  23    -0.384332700248E+03   -0.25187E-04   -0.25213E-04  9152   0.105E-03-0.535E-06
CGA:  24    -0.384332725682E+03   -0.25434E-04   -0.25496E-04  9152   0.616E-04-0.505E-06
CGA:  25    -0.384332729811E+03   -0.41289E-05   -0.41096E-05  9152   0.820E-04-0.421E-06
CGA:  26    -0.384332740986E+03   -0.11175E-04   -0.11218E-04  9152   0.294E-04-0.275E-05
CGA:  27    -0.384332745721E+03   -0.47354E-05   -0.47676E-05  9152   0.217E-04-0.718E-06
 130 F= -.38433275E+03 E0= -.38432789E+03  d E =0.815784E-02  mag=    46.0000
       N       E                     dE             d eps       ncg     rms          ort
SDA:   1    -0.376161353369E+03    0.81714E+01    0.00000E+00  9152   0.221E+02 0.000E+00
CGA:   2    -0.381746292438E+03   -0.55849E+01   -0.55171E+01  9152   0.123E+02 0.544E+00
CGA:   3    -0.382762023151E+03   -0.10157E+01   -0.96780E+00  9152   0.183E+02-0.206E+01
CGA:   4    -0.383727037644E+03   -0.96501E+00   -0.95634E+00  9152   0.571E+01 0.633E-01
CGA:   5    -0.383887948143E+03   -0.16091E+00   -0.32017E+00  9152   0.438E+01-0.155E+01
CGA:   6    -0.384127051014E+03   -0.23910E+00   -0.22034E+00  9152   0.105E+01 0.119E+00
CGA:   7    -0.384171902447E+03   -0.44851E-01   -0.39744E-01  9152   0.785E+00 0.972E-01
CGA:   8    -0.384236133881E+03   -0.64231E-01   -0.63018E-01  9152   0.458E+00 0.251E-02
CGA:   9    -0.384251796291E+03   -0.15662E-01   -0.18300E-01  9152   0.307E+00-0.484E-01
CGA:  10    -0.384275362937E+03   -0.23567E-01   -0.23712E-01  9152   0.184E+00 0.166E-02
CGA:  11    -0.384281170706E+03   -0.58078E-02   -0.52607E-02  9152   0.546E-01 0.156E-01
CGA:  12    -0.384287828216E+03   -0.66575E-02   -0.66627E-02  9152   0.139E+00-0.344E-03
CGA:  13    -0.384292546144E+03   -0.47179E-02   -0.48175E-02  9152   0.230E-01-0.210E-02
CGA:  14    -0.384293363943E+03   -0.81780E-03   -0.84270E-03  9152   0.192E-01-0.458E-03
CGA:  15    -0.384295227605E+03   -0.18637E-02   -0.18635E-02  9152   0.224E-01 0.631E-04
CGA:  16    -0.384295993718E+03   -0.76611E-03   -0.75075E-03  9152   0.990E-02 0.347E-03
CGA:  17    -0.384296835171E+03   -0.84145E-03   -0.84093E-03  9152   0.119E-01-0.158E-04
CGA:  18    -0.384297209223E+03   -0.37405E-03   -0.37901E-03  9152   0.333E-02-0.104E-03
CGA:  19    -0.384297497977E+03   -0.28875E-03   -0.28882E-03  9152   0.777E-02 0.127E-04
CGA:  20    -0.384297917069E+03   -0.41909E-03   -0.41945E-03  9152   0.212E-02 0.223E-05
CGA:  21    -0.384298002367E+03   -0.85298E-04   -0.84818E-04  9152   0.188E-02 0.730E-05
CGA:  22    -0.384298212935E+03   -0.21057E-03   -0.21054E-03  9152   0.216E-02 0.218E-05
CGA:  23    -0.384298280931E+03   -0.67997E-04   -0.68729E-04  9152   0.786E-03-0.927E-05
CGA:  24    -0.384298362473E+03   -0.81542E-04   -0.81443E-04  9152   0.136E-02 0.472E-05
CGA:  25    -0.384298415345E+03   -0.52872E-04   -0.52761E-04  9152   0.507E-03 0.292E-05
CGA:  26    -0.384298469253E+03   -0.53908E-04   -0.53957E-04  9152   0.109E-02-0.186E-05
CGA:  27    -0.384298513624E+03   -0.44371E-04   -0.44400E-04  9152   0.241E-03-0.287E-06
CGA:  28    -0.384298530764E+03   -0.17139E-04   -0.17152E-04  9152   0.478E-03 0.771E-06
CGA:  29    -0.384298572530E+03   -0.41766E-04   -0.41767E-04  9152   0.238E-03-0.195E-06
CGA:  30    -0.384298581681E+03   -0.91518E-05   -0.90961E-05  9152   0.164E-03-0.662E-06
CGA:  31    -0.384298599837E+03   -0.18156E-04   -0.18230E-04  9152   0.188E-03-0.230E-05
SDA:  32    -0.384298606862E+03   -0.70245E-05   -0.70174E-05  9152   0.109E-03-0.517E-06
 131 F= -.38429861E+03 E0= -.38429377E+03  d E =0.341389E-01  mag=    46.0000
       N       E                     dE             d eps       ncg     rms          ort
SDA:   1    -0.375286596854E+03    0.90120E+01    0.00000E+00  9152   0.243E+02 0.000E+00
CGA:   2    -0.380071432006E+03   -0.47848E+01   -0.46324E+01  9152   0.389E+02 0.264E+01
CGA:   3    -0.382292196869E+03   -0.22208E+01   -0.25149E+01  9152   0.126E+02-0.295E+01
CGA:   4    -0.383014835504E+03   -0.72264E+00   -0.12015E+01  9152   0.466E+02-0.189E+02
CGA:   5    -0.383525860454E+03   -0.51102E+00   -0.20178E+01  9152   0.654E+01-0.559E+01
CGA:   6    -0.383862932200E+03   -0.33707E+00   -0.15453E+00  9152   0.397E+01 0.601E+01
CGA:   7    -0.383993643196E+03   -0.13071E+00   -0.83888E-01  9152   0.992E+00 0.181E+01
CGA:   8    -0.384036633499E+03   -0.42990E-01   -0.36449E-01  9152   0.105E+01 0.187E+00
CGA:   9    -0.384108430784E+03   -0.71797E-01   -0.71350E-01  9152   0.405E+01-0.629E-02
CGA:  10    -0.384189790832E+03   -0.81360E-01   -0.82285E-01  9152   0.311E+01-0.261E-01
CGA:  11    -0.384221868385E+03   -0.32078E-01   -0.44417E-01  9152   0.586E+00-0.730E+00
CGA:  12    -0.384228296700E+03   -0.64283E-02   -0.82236E-02  9152   0.357E+00-0.786E-01
CGA:  13    -0.384243676533E+03   -0.15380E-01   -0.15748E-01  9152   0.762E+00 0.607E-02
CGA:  14    -0.384285128795E+03   -0.41452E-01   -0.41515E-01  9152   0.489E+00 0.183E-02
CGA:  15    -0.384297016131E+03   -0.11887E-01   -0.10900E-01  9152   0.142E+00 0.318E-01
CGA:  16    -0.384302760460E+03   -0.57443E-02   -0.55960E-02  9152   0.174E+00 0.103E-02
CGA:  17    -0.384309680478E+03   -0.69200E-02   -0.68227E-02  9152   0.140E+00 0.359E-03
CGA:  18    -0.384312712584E+03   -0.30321E-02   -0.30879E-02  9152   0.629E-01-0.183E-02
CGA:  19    -0.384315122281E+03   -0.24097E-02   -0.24374E-02  9152   0.942E-01 0.687E-04
CGA:  20    -0.384319224329E+03   -0.41020E-02   -0.41166E-02  9152   0.775E-01 0.242E-03
CGA:  21    -0.384320944084E+03   -0.17198E-02   -0.16978E-02  9152   0.236E-01 0.647E-03
CGA:  22    -0.384321813338E+03   -0.86925E-03   -0.86406E-03  9152   0.331E-01-0.542E-05
CGA:  23    -0.384323951952E+03   -0.21386E-02   -0.21383E-02  9152   0.579E-01 0.201E-04
CGA:  24    -0.384325347054E+03   -0.13951E-02   -0.14076E-02  9152   0.159E-01-0.281E-03
CGA:  25    -0.384325761210E+03   -0.41416E-03   -0.41843E-03  9152   0.116E-01-0.752E-04
CGA:  26    -0.384326415668E+03   -0.65446E-03   -0.65461E-03  9152   0.191E-01-0.207E-04
CGA:  27    -0.384326984012E+03   -0.56834E-03   -0.56647E-03  9152   0.843E-02-0.459E-05
CGA:  28    -0.384327239820E+03   -0.25581E-03   -0.25419E-03  9152   0.763E-02-0.351E-06
CGA:  29    -0.384327612830E+03   -0.37301E-03   -0.37301E-03  9152   0.913E-02-0.795E-05
CGA:  30    -0.384327832185E+03   -0.21935E-03   -0.21968E-03  9152   0.271E-02-0.122E-04
CGA:  31    -0.384327910658E+03   -0.78472E-04   -0.78734E-04  9152   0.248E-02-0.127E-05
CGA:  32    -0.384328087053E+03   -0.17640E-03   -0.17633E-03  9152   0.543E-02 0.206E-05
CGA:  33    -0.384328248731E+03   -0.16168E-03   -0.16149E-03  9152   0.172E-02-0.295E-05
CGA:  34    -0.384328292196E+03   -0.43464E-04   -0.43288E-04  9152   0.107E-02 0.959E-06
CGA:  35    -0.384328371157E+03   -0.78961E-04   -0.78991E-04  9152   0.292E-02-0.790E-06
CGA:  36    -0.384328482504E+03   -0.11135E-03   -0.11141E-03  9152   0.123E-02 0.645E-05
SDA:  37    -0.384328508953E+03   -0.26449E-04   -0.26593E-04  9152   0.433E-03 0.683E-06
CGA:  38    -0.384328596504E+03   -0.87551E-04   -0.88144E-04  9152   0.306E-03-0.410E-05
CGA:  39    -0.384328639615E+03   -0.43111E-04   -0.42947E-04  9152   0.420E-03 0.198E-05
CGA:  40    -0.384328658564E+03   -0.18949E-04   -0.18929E-04  9152   0.108E-03-0.103E-05
CGA:  41    -0.384328679313E+03   -0.20749E-04   -0.20701E-04  9152   0.476E-04 0.336E-06
CGA:  42    -0.384328687973E+03   -0.86600E-05   -0.85802E-05  9152   0.137E-03 0.684E-06
 132 F= -.38432869E+03 E0= -.38432388E+03  d E =-.300811E-01  mag=    46.0000
       N       E                     dE             d eps       ncg     rms          ort
SDA:   1    -0.376485466658E+03    0.78432E+01    0.00000E+00  9152   0.209E+02 0.000E+00
CGA:   2    -0.381125291302E+03   -0.46398E+01   -0.46992E+01  9152   0.326E+02 0.628E+00
CGA:   3    -0.382542383121E+03   -0.14171E+01   -0.16883E+01  9152   0.121E+02-0.354E+01
CGA:   4    -0.383382843523E+03   -0.84046E+00   -0.13330E+01  9152   0.312E+02-0.111E+02
CGA:   5    -0.383786300367E+03   -0.40346E+00   -0.12585E+01  9152   0.582E+01-0.567E+01
CGA:   6    -0.384109197204E+03   -0.32290E+00   -0.19981E+00  9152   0.650E+00 0.133E+01
CGA:   7    -0.384170450665E+03   -0.61253E-01   -0.61380E-01  9152   0.195E+01-0.339E-01
CGA:   8    -0.384257340622E+03   -0.86890E-01   -0.87071E-01  9152   0.161E+01 0.337E-03
CGA:   9    -0.384283806932E+03   -0.26466E-01   -0.34282E-01  9152   0.199E+00-0.284E+00
CGA:  10    -0.384293601633E+03   -0.97947E-02   -0.99111E-02  9152   0.313E+00 0.367E-02
CGA:  11    -0.384320435570E+03   -0.26834E-01   -0.26823E-01  9152   0.113E+00 0.523E-03
CGA:  12    -0.384327637512E+03   -0.72019E-02   -0.71749E-02  9152   0.122E+00-0.129E-02
CGA:  13    -0.384334411494E+03   -0.67740E-02   -0.67729E-02  9152   0.310E-01 0.563E-05
CGA:  14    -0.384337114518E+03   -0.27030E-02   -0.26957E-02  9152   0.464E-01 0.308E-03
CGA:  15    -0.384339442162E+03   -0.23276E-02   -0.23237E-02  9152   0.711E-02-0.121E-04
CGA:  16    -0.384340221173E+03   -0.77901E-03   -0.78009E-03  9152   0.162E-01-0.229E-04
CGA:  17    -0.384341179039E+03   -0.95787E-03   -0.95905E-03  9152   0.401E-02 0.355E-04
CGA:  18    -0.384341578639E+03   -0.39960E-03   -0.39971E-03  9152   0.530E-02-0.328E-05
CGA:  19    -0.384341811895E+03   -0.23326E-03   -0.23237E-03  9152   0.158E-02-0.163E-05
CGA:  20    -0.384342091933E+03   -0.28004E-03   -0.28067E-03  9152   0.372E-02-0.616E-05
CGA:  21    -0.384342230178E+03   -0.13825E-03   -0.13883E-03  9152   0.712E-03-0.750E-05
CGA:  22    -0.384342346591E+03   -0.11641E-03   -0.11634E-03  9152   0.184E-02 0.834E-06
CGA:  23    -0.384342423013E+03   -0.76422E-04   -0.76229E-04  9152   0.331E-03-0.205E-06
CGA:  24    -0.384342472803E+03   -0.49790E-04   -0.49729E-04  9152   0.853E-03 0.806E-06
CGA:  25    -0.384342512493E+03   -0.39690E-04   -0.39803E-04  9152   0.203E-03 0.215E-05
CGA:  26    -0.384342539844E+03   -0.27351E-04   -0.27336E-04  9152   0.345E-03 0.260E-06
CGA:  27    -0.384342556550E+03   -0.16705E-04   -0.16665E-04  9152   0.180E-03-0.646E-06
CGA:  28    -0.384342586271E+03   -0.29721E-04   -0.29742E-04  9152   0.169E-03-0.258E-06
CGA:  29    -0.384342592669E+03   -0.63976E-05   -0.64147E-05  9152   0.733E-04-0.452E-07
CGA:  30    -0.384342607590E+03   -0.14921E-04   -0.15162E-04  9152   0.899E-04-0.193E-05
CGA:  31    -0.384342611590E+03   -0.40007E-05   -0.39679E-05  9152   0.564E-04-0.620E-06
 133 F= -.38434261E+03 E0= -.38433783E+03  d E =-.139236E-01  mag=    46.0000
       N       E                     dE             d eps       ncg     rms          ort
SDA:   1    -0.380319198665E+03    0.40234E+01    0.00000E+00  9152   0.105E+02 0.000E+00
CGA:   2    -0.383070640801E+03   -0.27514E+01   -0.27087E+01  9152   0.743E+01 0.294E+00
CGA:   3    -0.383580027253E+03   -0.50939E+00   -0.43355E+00  9152   0.598E+01-0.925E-01
CGA:   4    -0.384095227242E+03   -0.51520E+00   -0.51480E+00  9152   0.150E+01-0.258E-01
CGA:   5    -0.384210582564E+03   -0.11536E+00   -0.11705E+00  9152   0.122E+01 0.332E-01
CGA:   6    -0.384277780100E+03   -0.67198E-01   -0.61786E-01  9152   0.264E+00 0.449E-01
CGA:   7    -0.384316259588E+03   -0.38479E-01   -0.38829E-01  9152   0.780E-01-0.596E-02
CGA:   8    -0.384323769307E+03   -0.75097E-02   -0.74995E-02  9152   0.117E+00 0.108E-02
CGA:   9    -0.384330750252E+03   -0.69809E-02   -0.69006E-02  9152   0.154E-01 0.226E-03
CGA:  10    -0.384333459312E+03   -0.27091E-02   -0.27155E-02  9152   0.103E-01-0.760E-04
CGA:  11    -0.384334251728E+03   -0.79242E-03   -0.79053E-03  9152   0.108E-01-0.279E-04
CGA:  12    -0.384334968088E+03   -0.71636E-03   -0.71757E-03  9152   0.279E-02 0.971E-05
CGA:  13    -0.384335615705E+03   -0.64762E-03   -0.64734E-03  9152   0.262E-02 0.153E-05
CGA:  14    -0.384335747985E+03   -0.13228E-03   -0.13324E-03  9152   0.169E-02-0.359E-05
CGA:  15    -0.384335987243E+03   -0.23926E-03   -0.23892E-03  9152   0.852E-03 0.716E-05
CGA:  16    -0.384336101220E+03   -0.11398E-03   -0.11388E-03  9152   0.857E-03 0.286E-05
CGA:  17    -0.384336140981E+03   -0.39762E-04   -0.39655E-04  9152   0.311E-03 0.157E-05
CGA:  18    -0.384336199941E+03   -0.58960E-04   -0.58644E-04  9152   0.137E-03 0.354E-05
CGA:  19    -0.384336211587E+03   -0.11646E-04   -0.11639E-04  9152   0.187E-03-0.270E-06
CGA:  20    -0.384336227305E+03   -0.15718E-04   -0.15727E-04  9152   0.700E-04 0.435E-06
CGA:  21    -0.384336239219E+03   -0.11914E-04   -0.11882E-04  9152   0.527E-04 0.470E-06
CGA:  22    -0.384336242549E+03   -0.33294E-05   -0.33430E-05  9152   0.519E-04 0.265E-06
 134 F= -.38433624E+03 E0= -.38433145E+03  d E =0.636904E-02  mag=    46.0000
       N       E                     dE             d eps       ncg     rms          ort
SDA:   1    -0.383531793679E+03    0.80445E+00    0.00000E+00  9152   0.229E+01 0.000E+00
CGA:   2    -0.383988188083E+03   -0.45639E+00   -0.46000E+00  9152   0.362E+01-0.324E-01
CGA:   3    -0.384117175741E+03   -0.12899E+00   -0.17317E+00  9152   0.150E+01-0.580E+00
CGA:   4    -0.384248176987E+03   -0.13100E+00   -0.13072E+00  9152   0.615E+00-0.443E-01
CGA:   5    -0.384285001865E+03   -0.36825E-01   -0.38609E-01  9152   0.364E+00-0.702E-02
CGA:   6    -0.384309709403E+03   -0.24708E-01   -0.24202E-01  9152   0.937E-01 0.490E-03
CGA:   7    -0.384317030466E+03   -0.73211E-02   -0.73857E-02  9152   0.742E-01 0.513E-03
CGA:   8    -0.384322069820E+03   -0.50394E-02   -0.49865E-02  9152   0.193E-01 0.119E-04
CGA:   9    -0.384323596619E+03   -0.15268E-02   -0.15323E-02  9152   0.176E-01 0.661E-04
CGA:  10    -0.384325031528E+03   -0.14349E-02   -0.14319E-02  9152   0.600E-02-0.515E-04
CGA:  11    -0.384325420620E+03   -0.38909E-03   -0.39102E-03  9152   0.403E-02 0.404E-05
CGA:  12    -0.384325828933E+03   -0.40831E-03   -0.40839E-03  9152   0.247E-02-0.807E-05
CGA:  13    -0.384325984413E+03   -0.15548E-03   -0.15600E-03  9152   0.136E-02 0.313E-05
CGA:  14    -0.384326130791E+03   -0.14638E-03   -0.14644E-03  9152   0.120E-02-0.308E-05
CGA:  15    -0.384326217081E+03   -0.86290E-04   -0.86434E-04  9152   0.736E-03 0.266E-05
CGA:  16    -0.384326292396E+03   -0.75315E-04   -0.75332E-04  9152   0.638E-03-0.154E-05
CGA:  17    -0.384326339778E+03   -0.47382E-04   -0.47448E-04  9152   0.419E-03 0.183E-05
CGA:  18    -0.384326385345E+03   -0.45567E-04   -0.45579E-04  9152   0.392E-03-0.522E-06
CGA:  19    -0.384326411760E+03   -0.26414E-04   -0.26465E-04  9152   0.194E-03 0.129E-05
CGA:  20    -0.384326433258E+03   -0.21498E-04   -0.21506E-04  9152   0.219E-03-0.328E-06
CGA:  21    -0.384326448704E+03   -0.15446E-04   -0.15474E-04  9152   0.935E-04 0.944E-06
CGA:  22    -0.384326457814E+03   -0.91105E-05   -0.91106E-05  9152   0.101E-03-0.456E-07
 135 F= -.38432646E+03 E0= -.38432163E+03  d E =0.978473E-02  mag=    46.0000
       N       E                     dE             d eps       ncg     rms          ort
SDA:   1    -0.383791320489E+03    0.53513E+00    0.00000E+00  9152   0.150E+01 0.000E+00
CGA:   2    -0.384095282833E+03   -0.30396E+00   -0.29591E+00  9152   0.229E+01 0.803E-01
CGA:   3    -0.384208537335E+03   -0.11325E+00   -0.93893E-01  9152   0.466E+00 0.293E+00
CGA:   4    -0.384300304826E+03   -0.91767E-01   -0.91927E-01  9152   0.360E+00-0.194E-02
CGA:   5    -0.384313272876E+03   -0.12968E-01   -0.14307E-01  9152   0.153E+00-0.228E-01
CGA:   6    -0.384327155417E+03   -0.13883E-01   -0.13881E-01  9152   0.370E-01 0.539E-03
CGA:   7    -0.384331475192E+03   -0.43198E-02   -0.43257E-02  9152   0.247E-01-0.193E-03
CGA:   8    -0.384332462975E+03   -0.98778E-03   -0.10108E-02  9152   0.100E-01-0.348E-03
CGA:   9    -0.384333965811E+03   -0.15028E-02   -0.15019E-02  9152   0.218E-02 0.143E-04
CGA:  10    -0.384334319100E+03   -0.35329E-03   -0.35387E-03  9152   0.359E-02-0.856E-05
CGA:  11    -0.384334470134E+03   -0.15103E-03   -0.15209E-03  9152   0.899E-03-0.147E-04
CGA:  12    -0.384334596504E+03   -0.12637E-03   -0.12619E-03  9152   0.449E-03 0.372E-05
CGA:  13    -0.384334693915E+03   -0.97411E-04   -0.97446E-04  9152   0.414E-03-0.315E-06
CGA:  14    -0.384334712380E+03   -0.18465E-04   -0.18565E-04  9152   0.236E-03-0.286E-06
CGA:  15    -0.384334757110E+03   -0.44731E-04   -0.44755E-04  9152   0.111E-03-0.283E-06
CGA:  16    -0.384334775426E+03   -0.18316E-04   -0.18380E-04  9152   0.613E-04-0.107E-05
CGA:  17    -0.384334786243E+03   -0.10816E-04   -0.10794E-04  9152   0.101E-03 0.323E-06
CGA:  18    -0.384334790466E+03   -0.42231E-05   -0.42007E-05  9152   0.221E-04-0.108E-06
 136 F= -.38433479E+03 E0= -.38432999E+03  d E =-.833265E-02  mag=    46.0000
