       N       E                     dE             d eps       ncg     rms          ort
DAV:   1     0.694681119790E+04    0.69468E+04   -0.30587E+05  9360   0.164E+03
DAV:   2     0.466766073148E+03   -0.64800E+04   -0.60196E+04  9360   0.472E+02
DAV:   3    -0.374588579134E+03   -0.84135E+03   -0.82609E+03  9360   0.184E+02
DAV:   4    -0.414483546946E+03   -0.39895E+02   -0.39406E+02  9360   0.359E+01
DAV:   5    -0.416746173899E+03   -0.22626E+01   -0.22390E+01  9360   0.632E+00
SDA:   6    -0.272640818787E+03    0.14411E+03   -0.22390E+01  9360   0.866E+03 0.000E+00
CGA:   7    -0.349701861267E+03   -0.77061E+02   -0.93339E+02  9360   0.595E+03-0.109E+03
CGA:   8    -0.360641694030E+03   -0.10940E+02   -0.28082E+02  9360   0.120E+03-0.105E+03
CGA:   9    -0.357446518705E+03    0.31952E+01   -0.68581E+01  9360   0.374E+03-0.785E+02
CGA:  10    -0.362853720191E+03   -0.54072E+01   -0.24334E+02  9360   0.123E+03-0.474E+02
CGA:  11    -0.367945290316E+03   -0.50916E+01   -0.76690E+01  9360   0.885E+02 0.395E+02
CGA:  12    -0.370333683729E+03   -0.23884E+01   -0.98740E+01  9360   0.543E+02-0.115E+02
CGA:  13    -0.372068217944E+03   -0.17345E+01   -0.26013E+01  9360   0.857E+02-0.597E+02
CGA:  14    -0.371763575447E+03    0.30464E+00   -0.53118E+01  9360   0.222E+03-0.115E+03
CGA:  15    -0.369826503719E+03    0.19371E+01   -0.15409E+02  9360   0.526E+02-0.313E+02
CGA:  16    -0.375782386418E+03   -0.59559E+01   -0.21171E+01  9360   0.585E+02-0.111E+03
CGA:  17    -0.375379524234E+03    0.40286E+00   -0.30976E+01  9360   0.602E+02-0.401E+02
CGA:  18    -0.375670504833E+03   -0.29098E+00   -0.28862E+01  9360   0.650E+02-0.628E+02
CGA:  19    -0.375616957445E+03    0.53547E-01   -0.33943E+01  9360   0.596E+02-0.502E+02
CGA:  20    -0.376544735350E+03   -0.92778E+00   -0.27127E+01  9360   0.283E+02-0.368E+02
CGA:  21    -0.377268833312E+03   -0.72410E+00   -0.10625E+01  9360   0.799E+01-0.130E+02
CGA:  22    -0.377582053601E+03   -0.31322E+00   -0.26999E+00  9360   0.145E+01 0.187E+00
CGA:  23    -0.377765024760E+03   -0.18297E+00   -0.18239E+00  9360   0.253E+01 0.202E+00
CGA:  24    -0.378043833448E+03   -0.27881E+00   -0.26219E+00  9360   0.208E+01-0.330E-01
CGA:  25    -0.378220502928E+03   -0.17667E+00   -0.13360E+00  9360   0.841E+00 0.603E+00
CGA:  26    -0.378263312148E+03   -0.42809E-01   -0.44607E-01  9360   0.808E+00-0.385E-01
CGA:  27    -0.378307414376E+03   -0.44102E-01   -0.42114E-01  9360   0.633E+00 0.236E-01
CGA:  28    -0.378350945302E+03   -0.43531E-01   -0.43840E-01  9360   0.669E+00-0.115E-02
CGA:  29    -0.378374280913E+03   -0.23336E-01   -0.27368E-01  9360   0.198E+00-0.642E-01
CGA:  30    -0.378382728728E+03   -0.84478E-02   -0.91371E-02  9360   0.121E+00-0.599E-02
CGA:  31    -0.378388042672E+03   -0.53139E-02   -0.58509E-02  9360   0.398E-01-0.487E-02
CGA:  32    -0.378391274603E+03   -0.32319E-02   -0.32618E-02  9360   0.378E-01 0.775E-03
CGA:  33    -0.378393854011E+03   -0.25794E-02   -0.26707E-02  9360   0.236E-01 0.265E-03
CGA:  34    -0.378396223195E+03   -0.23692E-02   -0.23639E-02  9360   0.165E-01 0.116E-02
CGA:  35    -0.378397719973E+03   -0.14968E-02   -0.14956E-02  9360   0.112E-01-0.702E-04
CGA:  36    -0.378399045386E+03   -0.13254E-02   -0.13227E-02  9360   0.121E-01 0.510E-04
CGA:  37    -0.378399825231E+03   -0.77984E-03   -0.78126E-03  9360   0.468E-02-0.808E-04
CGA:  38    -0.378400513605E+03   -0.68837E-03   -0.68939E-03  9360   0.371E-02-0.357E-04
CGA:  39    -0.378400871787E+03   -0.35818E-03   -0.35809E-03  9360   0.364E-02-0.726E-04
CGA:  40    -0.378401184215E+03   -0.31243E-03   -0.31134E-03  9360   0.185E-02-0.862E-04
CGA:  41    -0.378401335766E+03   -0.15155E-03   -0.15104E-03  9360   0.128E-02-0.382E-04
CGA:  42    -0.378401503765E+03   -0.16800E-03   -0.16887E-03  9360   0.705E-03-0.274E-04
CGA:  43    -0.378401562264E+03   -0.58499E-04   -0.58308E-04  9360   0.709E-03-0.122E-04
CGA:  44    -0.378401630387E+03   -0.68123E-04   -0.68111E-04  9360   0.358E-03-0.148E-04
CGA:  45    -0.378401671810E+03   -0.41423E-04   -0.41493E-04  9360   0.309E-03-0.395E-05
CGA:  46    -0.378401699079E+03   -0.27269E-04   -0.27285E-04  9360   0.158E-03 0.147E-05
CGA:  47    -0.378401714298E+03   -0.15219E-04   -0.15233E-04  9360   0.168E-03 0.427E-05
CGA:  48    -0.378401728794E+03   -0.14495E-04   -0.14603E-04  9360   0.660E-04 0.749E-05
CGA:  49    -0.378401738582E+03   -0.97884E-05   -0.94520E-05  9360   0.580E-04 0.865E-05
   1 F= -.37840174E+03 E0= -.37839547E+03  d E =-.378402E+03  mag=    58.0000
       N       E                     dE             d eps       ncg     rms          ort
SDA:   1    -0.378415614999E+03   -0.13886E-01    0.00000E+00  9360   0.403E-01 0.000E+00
CGA:   2    -0.378416956557E+03   -0.13416E-02   -0.13307E-02  9360   0.247E-02 0.214E-03
CGA:   3    -0.378417345909E+03   -0.38935E-03   -0.38701E-03  9360   0.162E-02 0.346E-04
CGA:   4    -0.378417572939E+03   -0.22703E-03   -0.22730E-03  9360   0.464E-03-0.500E-05
CGA:   5    -0.378417634017E+03   -0.61078E-04   -0.61055E-04  9360   0.613E-03 0.708E-06
CGA:   6    -0.378417669306E+03   -0.35289E-04   -0.35336E-04  9360   0.725E-04 0.853E-06
CGA:   7    -0.378417682620E+03   -0.13315E-04   -0.13379E-04  9360   0.651E-04-0.760E-06
CGA:   8    -0.378417687042E+03   -0.44216E-05   -0.44277E-05  9360   0.255E-04 0.124E-06
   2 F= -.37841769E+03 E0= -.37841142E+03  d E =-.159485E-01  mag=    58.0000
       N       E                     dE             d eps       ncg     rms          ort
SDA:   1    -0.378202897674E+03    0.21478E+00    0.00000E+00  9360   0.184E+01 0.000E+00
CGA:   2    -0.378572410186E+03   -0.36951E+00   -0.36515E+00  9360   0.175E+01 0.479E-01
CGA:   3    -0.378671998456E+03   -0.99588E-01   -0.95826E-01  9360   0.569E+00-0.509E-02
CGA:   4    -0.378758842626E+03   -0.86844E-01   -0.87871E-01  9360   0.493E+00-0.178E-01
CGA:   5    -0.378785999456E+03   -0.27157E-01   -0.28093E-01  9360   0.896E-01-0.686E-02
CGA:   6    -0.378798835095E+03   -0.12836E-01   -0.12825E-01  9360   0.355E-01 0.211E-03
CGA:   7    -0.378802186604E+03   -0.33515E-02   -0.33573E-02  9360   0.262E-01 0.125E-03
CGA:   8    -0.378804166163E+03   -0.19796E-02   -0.19686E-02  9360   0.103E-01-0.649E-05
CGA:   9    -0.378805165096E+03   -0.99893E-03   -0.99850E-03  9360   0.756E-02-0.110E-04
CGA:  10    -0.378805846273E+03   -0.68118E-03   -0.68286E-03  9360   0.304E-02 0.412E-04
CGA:  11    -0.378806486557E+03   -0.64028E-03   -0.64159E-03  9360   0.209E-02-0.126E-04
CGA:  12    -0.378806699708E+03   -0.21315E-03   -0.21320E-03  9360   0.176E-02 0.361E-05
CGA:  13    -0.378806941378E+03   -0.24167E-03   -0.24169E-03  9360   0.961E-03 0.467E-06
CGA:  14    -0.378807049603E+03   -0.10823E-03   -0.10822E-03  9360   0.959E-03 0.111E-05
CGA:  15    -0.378807120117E+03   -0.70514E-04   -0.70611E-04  9360   0.426E-03 0.163E-05
CGA:  16    -0.378807183526E+03   -0.63409E-04   -0.63307E-04  9360   0.306E-03 0.270E-05
CGA:  17    -0.378807207580E+03   -0.24055E-04   -0.24100E-04  9360   0.127E-03 0.106E-05
CGA:  18    -0.378807233370E+03   -0.25790E-04   -0.25656E-04  9360   0.691E-04 0.147E-05
CGA:  19    -0.378807240800E+03   -0.74294E-05   -0.74304E-05  9360   0.544E-04 0.774E-07
   3 F= -.37880724E+03 E0= -.37880108E+03  d E =-.389554E+00  mag=    58.0000
       N       E                     dE             d eps       ncg     rms          ort
SDA:   1    -0.376376308737E+03    0.24309E+01    0.00000E+00  9360   0.948E+01 0.000E+00
CGA:   2    -0.378329209545E+03   -0.19529E+01   -0.19206E+01  9360   0.653E+01 0.354E+00
CGA:   3    -0.378758939918E+03   -0.42973E+00   -0.44007E+00  9360   0.386E+01-0.739E+00
CGA:   4    -0.379220088167E+03   -0.46115E+00   -0.46597E+00  9360   0.173E+01-0.158E+00
CGA:   5    -0.379320984853E+03   -0.10090E+00   -0.10707E+00  9360   0.623E+00-0.406E-01
CGA:   6    -0.379391102860E+03   -0.70118E-01   -0.70127E-01  9360   0.282E+00-0.820E-02
CGA:   7    -0.379407153173E+03   -0.16050E-01   -0.15976E-01  9360   0.132E+00-0.431E-03
CGA:   8    -0.379423095837E+03   -0.15943E-01   -0.15930E-01  9360   0.683E-01 0.819E-03
CGA:   9    -0.379428312244E+03   -0.52164E-02   -0.51788E-02  9360   0.279E-01 0.223E-05
CGA:  10    -0.379433029279E+03   -0.47170E-02   -0.46993E-02  9360   0.199E-01 0.261E-03
CGA:  11    -0.379434762876E+03   -0.17336E-02   -0.17318E-02  9360   0.155E-01 0.157E-05
CGA:  12    -0.379436306616E+03   -0.15437E-02   -0.15430E-02  9360   0.108E-01-0.150E-04
CGA:  13    -0.379437278614E+03   -0.97200E-03   -0.97350E-03  9360   0.680E-02 0.237E-04
CGA:  14    -0.379438189723E+03   -0.91111E-03   -0.91129E-03  9360   0.336E-02-0.346E-05
CGA:  15    -0.379438650088E+03   -0.46037E-03   -0.45967E-03  9360   0.342E-02 0.191E-04
CGA:  16    -0.379438995447E+03   -0.34536E-03   -0.34538E-03  9360   0.151E-02 0.378E-05
CGA:  17    -0.379439134498E+03   -0.13905E-03   -0.13904E-03  9360   0.148E-02 0.119E-05
CGA:  18    -0.379439281038E+03   -0.14654E-03   -0.14660E-03  9360   0.649E-03 0.422E-05
CGA:  19    -0.379439353790E+03   -0.72752E-04   -0.72749E-04  9360   0.459E-03 0.232E-05
CGA:  20    -0.379439405828E+03   -0.52038E-04   -0.52035E-04  9360   0.219E-03 0.916E-06
CGA:  21    -0.379439440345E+03   -0.34518E-04   -0.34509E-04  9360   0.187E-03 0.225E-06
CGA:  22    -0.379439455889E+03   -0.15544E-04   -0.15526E-04  9360   0.946E-04-0.752E-06
CGA:  23    -0.379439466651E+03   -0.10762E-04   -0.10763E-04  9360   0.109E-03-0.529E-06
CGA:  24    -0.379439475887E+03   -0.92365E-05   -0.92115E-05  9360   0.328E-04-0.912E-06
   4 F= -.37943948E+03 E0= -.37943349E+03  d E =-.632235E+00  mag=    58.0000
       N       E                     dE             d eps       ncg     rms          ort
SDA:   1    -0.376270249668E+03    0.31692E+01    0.00000E+00  9360   0.116E+02 0.000E+00
CGA:   2    -0.378411132064E+03   -0.21409E+01   -0.20851E+01  9360   0.707E+01 0.695E+00
CGA:   3    -0.378996901236E+03   -0.58577E+00   -0.55284E+00  9360   0.489E+01-0.577E+00
CGA:   4    -0.379533699778E+03   -0.53680E+00   -0.53926E+00  9360   0.265E+01-0.200E+00
CGA:   5    -0.379679367815E+03   -0.14567E+00   -0.15730E+00  9360   0.986E+00-0.836E-01
CGA:   6    -0.379774015694E+03   -0.94648E-01   -0.94511E-01  9360   0.588E+00-0.525E-02
CGA:   7    -0.379804652003E+03   -0.30636E-01   -0.29031E-01  9360   0.141E+00 0.163E-01
CGA:   8    -0.379827208329E+03   -0.22556E-01   -0.22497E-01  9360   0.124E+00 0.101E-02
CGA:   9    -0.379834468259E+03   -0.72599E-02   -0.71446E-02  9360   0.398E-01 0.835E-03
CGA:  10    -0.379838300076E+03   -0.38318E-02   -0.38271E-02  9360   0.450E-01-0.145E-03
CGA:  11    -0.379842654947E+03   -0.43549E-02   -0.43584E-02  9360   0.124E-01 0.171E-03
CGA:  12    -0.379844067226E+03   -0.14123E-02   -0.14130E-02  9360   0.187E-01-0.517E-04
CGA:  13    -0.379845700012E+03   -0.16328E-02   -0.16315E-02  9360   0.880E-02-0.131E-04
CGA:  14    -0.379846449549E+03   -0.74954E-03   -0.75112E-03  9360   0.568E-02 0.220E-04
CGA:  15    -0.379847161526E+03   -0.71198E-03   -0.71138E-03  9360   0.439E-02 0.204E-04
CGA:  16    -0.379847552976E+03   -0.39145E-03   -0.39135E-03  9360   0.420E-02-0.161E-05
CGA:  17    -0.379847898580E+03   -0.34560E-03   -0.34556E-03  9360   0.131E-02 0.209E-05
CGA:  18    -0.379848073980E+03   -0.17540E-03   -0.17533E-03  9360   0.171E-02 0.275E-05
CGA:  19    -0.379848234261E+03   -0.16028E-03   -0.16037E-03  9360   0.774E-03 0.437E-05
CGA:  20    -0.379848283217E+03   -0.48956E-04   -0.49094E-04  9360   0.447E-03 0.110E-05
CGA:  21    -0.379848353618E+03   -0.70401E-04   -0.70299E-04  9360   0.288E-03 0.187E-05
CGA:  22    -0.379848381335E+03   -0.27717E-04   -0.27719E-04  9360   0.239E-03-0.134E-06
CGA:  23    -0.379848402621E+03   -0.21286E-04   -0.21283E-04  9360   0.143E-03-0.889E-07
CGA:  24    -0.379848413857E+03   -0.11236E-04   -0.11220E-04  9360   0.921E-04-0.559E-06
CGA:  25    -0.379848428988E+03   -0.15131E-04   -0.15224E-04  9360   0.503E-04-0.148E-05
CGA:  26    -0.379848432677E+03   -0.36884E-05   -0.36803E-05  9360   0.370E-04-0.255E-06
   5 F= -.37984843E+03 E0= -.37984251E+03  d E =-.408957E+00  mag=    58.0000
       N       E                     dE             d eps       ncg     rms          ort
SDA:   1    -0.371907767341E+03    0.79407E+01    0.00000E+00  9360   0.278E+02 0.000E+00
CGA:   2    -0.376140490261E+03   -0.42327E+01   -0.42359E+01  9360   0.273E+02 0.738E-01
CGA:   3    -0.377825952953E+03   -0.16855E+01   -0.20211E+01  9360   0.119E+02-0.440E+00
CGA:   4    -0.379377053417E+03   -0.15511E+01   -0.16653E+01  9360   0.762E+01-0.203E+01
CGA:   5    -0.379781855374E+03   -0.40480E+00   -0.38561E+00  9360   0.236E+01-0.258E+00
CGA:   6    -0.380074676565E+03   -0.29282E+00   -0.29261E+00  9360   0.511E+00 0.676E-02
CGA:   7    -0.380127293986E+03   -0.52617E-01   -0.52593E-01  9360   0.559E+00-0.291E-02
CGA:   8    -0.380167567060E+03   -0.40273E-01   -0.40099E-01  9360   0.109E+00-0.777E-03
CGA:   9    -0.380185000203E+03   -0.17433E-01   -0.17387E-01  9360   0.852E-01 0.705E-03
CGA:  10    -0.380190442875E+03   -0.54427E-02   -0.53916E-02  9360   0.395E-01 0.220E-03
CGA:  11    -0.380195666931E+03   -0.52241E-02   -0.52283E-02  9360   0.204E-01-0.970E-04
CGA:  12    -0.380197681662E+03   -0.20147E-02   -0.20176E-02  9360   0.196E-01 0.168E-03
CGA:  13    -0.380199723040E+03   -0.20414E-02   -0.20417E-02  9360   0.756E-02 0.610E-04
CGA:  14    -0.380200629228E+03   -0.90619E-03   -0.90671E-03  9360   0.103E-01-0.229E-04
CGA:  15    -0.380201608583E+03   -0.97936E-03   -0.97963E-03  9360   0.288E-02 0.122E-04
CGA:  16    -0.380202124874E+03   -0.51629E-03   -0.51585E-03  9360   0.471E-02 0.553E-05
CGA:  17    -0.380202442953E+03   -0.31808E-03   -0.31877E-03  9360   0.140E-02 0.280E-05
CGA:  18    -0.380202677584E+03   -0.23463E-03   -0.23436E-03  9360   0.124E-02 0.442E-05
CGA:  19    -0.380202775650E+03   -0.98066E-04   -0.98126E-04  9360   0.806E-03 0.318E-05
CGA:  20    -0.380202875555E+03   -0.99905E-04   -0.99866E-04  9360   0.407E-03 0.235E-05
CGA:  21    -0.380202913737E+03   -0.38182E-04   -0.38208E-04  9360   0.381E-03 0.106E-05
CGA:  22    -0.380202964886E+03   -0.51149E-04   -0.51159E-04  9360   0.159E-03-0.359E-06
CGA:  23    -0.380202979696E+03   -0.14810E-04   -0.14802E-04  9360   0.170E-03-0.456E-06
CGA:  24    -0.380203001994E+03   -0.22298E-04   -0.22351E-04  9360   0.673E-04-0.240E-05
CGA:  25    -0.380203009642E+03   -0.76484E-05   -0.76514E-05  9360   0.747E-04-0.669E-06
   6 F= -.38020301E+03 E0= -.38019707E+03  d E =-.354577E+00  mag=    58.0000
       N       E                     dE             d eps       ncg     rms          ort
SDA:   1    -0.363444282658E+03    0.16759E+02    0.00000E+00  9360   0.522E+02 0.000E+00
CGA:   2    -0.371850955860E+03   -0.84067E+01   -0.85950E+01  9360   0.627E+02-0.483E+00
CGA:   3    -0.376199280974E+03   -0.43483E+01   -0.49189E+01  9360   0.194E+02 0.280E+01
CGA:   4    -0.378697506360E+03   -0.24982E+01   -0.32699E+01  9360   0.303E+02-0.114E+02
CGA:   5    -0.379533729696E+03   -0.83622E+00   -0.17845E+01  9360   0.498E+01-0.102E+01
CGA:   6    -0.379927709077E+03   -0.39398E+00   -0.17965E+00  9360   0.407E+01 0.603E+01
CGA:   7    -0.380089319219E+03   -0.16161E+00   -0.11071E+00  9360   0.838E+00 0.998E+00
CGA:   8    -0.380168040469E+03   -0.78721E-01   -0.78604E-01  9360   0.283E+01-0.678E-02
CGA:   9    -0.380302493803E+03   -0.13445E+00   -0.13474E+00  9360   0.295E+01-0.907E-03
CGA:  10    -0.380351783944E+03   -0.49290E-01   -0.68156E-01  9360   0.505E+00-0.802E+00
CGA:  11    -0.380366812002E+03   -0.15028E-01   -0.15651E-01  9360   0.591E+00-0.112E-01
CGA:  12    -0.380407933786E+03   -0.41122E-01   -0.41691E-01  9360   0.477E+00 0.674E-02
CGA:  13    -0.380427595461E+03   -0.19662E-01   -0.20738E-01  9360   0.246E+00-0.155E-01
CGA:  14    -0.380442884545E+03   -0.15289E-01   -0.15430E-01  9360   0.174E+00 0.791E-03
CGA:  15    -0.380454358857E+03   -0.11474E-01   -0.11401E-01  9360   0.114E+00-0.430E-03
CGA:  16    -0.380460235314E+03   -0.58765E-02   -0.58932E-02  9360   0.578E-01-0.667E-04
CGA:  17    -0.380465555643E+03   -0.53203E-02   -0.53138E-02  9360   0.612E-01 0.536E-03
CGA:  18    -0.380468259346E+03   -0.27037E-02   -0.27943E-02  9360   0.154E-01-0.855E-03
CGA:  19    -0.380470141911E+03   -0.18826E-02   -0.18788E-02  9360   0.335E-01 0.773E-04
CGA:  20    -0.380472392307E+03   -0.22504E-02   -0.22527E-02  9360   0.874E-02 0.184E-04
CGA:  21    -0.380473019317E+03   -0.62701E-03   -0.62820E-03  9360   0.821E-02 0.268E-04
CGA:  22    -0.380473749408E+03   -0.73009E-03   -0.72987E-03  9360   0.646E-02 0.253E-04
CGA:  23    -0.380474202625E+03   -0.45322E-03   -0.45306E-03  9360   0.309E-02-0.237E-05
CGA:  24    -0.380474446119E+03   -0.24349E-03   -0.24352E-03  9360   0.284E-02 0.305E-05
CGA:  25    -0.380474649880E+03   -0.20376E-03   -0.20389E-03  9360   0.141E-02 0.571E-05
CGA:  26    -0.380474828528E+03   -0.17865E-03   -0.17847E-03  9360   0.222E-02 0.440E-05
CGA:  27    -0.380474954337E+03   -0.12581E-03   -0.12564E-03  9360   0.561E-03 0.283E-05
CGA:  28    -0.380475031342E+03   -0.77005E-04   -0.76909E-04  9360   0.114E-02 0.169E-05
CGA:  29    -0.380475122125E+03   -0.90783E-04   -0.90785E-04  9360   0.547E-03 0.142E-05
CGA:  30    -0.380475159203E+03   -0.37078E-04   -0.37061E-04  9360   0.292E-03-0.228E-06
CGA:  31    -0.380475200011E+03   -0.40808E-04   -0.40974E-04  9360   0.531E-03-0.298E-05
CGA:  32    -0.380475233508E+03   -0.33497E-04   -0.33446E-04  9360   0.183E-03-0.201E-05
CGA:  33    -0.380475255130E+03   -0.21622E-04   -0.21662E-04  9360   0.215E-03-0.120E-05
CGA:  34    -0.380475267315E+03   -0.12185E-04   -0.12141E-04  9360   0.969E-04-0.112E-05
CGA:  35    -0.380475279749E+03   -0.12435E-04   -0.12469E-04  9360   0.122E-03-0.822E-06
CGA:  36    -0.380475287327E+03   -0.75778E-05   -0.75811E-05  9360   0.525E-04 0.131E-06
   7 F= -.38047529E+03 E0= -.38046934E+03  d E =-.272278E+00  mag=    58.0000
       N       E                     dE             d eps       ncg     rms          ort
SDA:   1    -0.355058845928E+03    0.25416E+02    0.00000E+00  9360   0.677E+02 0.000E+00
CGA:   2    -0.371409527909E+03   -0.16351E+02   -0.16969E+02  9360   0.704E+02-0.147E+00
CGA:   3    -0.376544922688E+03   -0.51354E+01   -0.54105E+01  9360   0.185E+02 0.431E+01
CGA:   4    -0.377942242362E+03   -0.13973E+01   -0.35590E+01  9360   0.365E+02-0.132E+02
CGA:   5    -0.379600935058E+03   -0.16587E+01   -0.21876E+01  9360   0.692E+01-0.240E+01
CGA:   6    -0.380303367357E+03   -0.70243E+00   -0.43321E+00  9360   0.213E+01 0.353E+01
CGA:   7    -0.380381075473E+03   -0.77708E-01   -0.80482E-01  9360   0.102E+01-0.134E+00
CGA:   8    -0.380495399844E+03   -0.11432E+00   -0.11355E+00  9360   0.942E+00 0.209E-01
CGA:   9    -0.380569141788E+03   -0.73742E-01   -0.72930E-01  9360   0.460E+00-0.136E-01
CGA:  10    -0.380608803688E+03   -0.39662E-01   -0.39952E-01  9360   0.756E-01 0.324E-01
CGA:  11    -0.380620130130E+03   -0.11326E-01   -0.10965E-01  9360   0.172E+00 0.673E-02
CGA:  12    -0.380633297066E+03   -0.13167E-01   -0.13229E-01  9360   0.456E-01 0.202E-03
CGA:  13    -0.380637167409E+03   -0.38703E-02   -0.38633E-02  9360   0.340E-01-0.310E-03
CGA:  14    -0.380640363893E+03   -0.31965E-02   -0.31951E-02  9360   0.180E-01 0.377E-03
CGA:  15    -0.380642171090E+03   -0.18072E-02   -0.18006E-02  9360   0.158E-01 0.585E-03
CGA:  16    -0.380643413469E+03   -0.12424E-02   -0.12478E-02  9360   0.436E-02 0.957E-04
CGA:  17    -0.380644144564E+03   -0.73110E-03   -0.72754E-03  9360   0.852E-02 0.461E-04
CGA:  18    -0.380644780041E+03   -0.63548E-03   -0.63747E-03  9360   0.186E-02 0.220E-04
CGA:  19    -0.380645071424E+03   -0.29138E-03   -0.28898E-03  9360   0.226E-02 0.364E-04
CGA:  20    -0.380645251668E+03   -0.18024E-03   -0.18064E-03  9360   0.104E-02 0.101E-04
CGA:  21    -0.380645374187E+03   -0.12252E-03   -0.12244E-03  9360   0.716E-03 0.443E-05
CGA:  22    -0.380645429866E+03   -0.55679E-04   -0.55695E-04  9360   0.351E-03-0.870E-08
CGA:  23    -0.380645500959E+03   -0.71093E-04   -0.71470E-04  9360   0.419E-03-0.354E-05
CGA:  24    -0.380645525882E+03   -0.24924E-04   -0.24783E-04  9360   0.143E-03-0.179E-05
CGA:  25    -0.380645560751E+03   -0.34869E-04   -0.35205E-04  9360   0.161E-03-0.232E-05
CGA:  26    -0.380645571548E+03   -0.10797E-04   -0.10731E-04  9360   0.901E-04-0.151E-05
CGA:  27    -0.380645584919E+03   -0.13371E-04   -0.13476E-04  9360   0.534E-04-0.231E-05
CGA:  28    -0.380645590404E+03   -0.54854E-05   -0.54816E-05  9360   0.571E-04-0.146E-05
   8 F= -.38064559E+03 E0= -.38063963E+03  d E =-.170303E+00  mag=    58.0000
       N       E                     dE             d eps       ncg     rms          ort
SDA:   1    -0.351289501369E+03    0.29356E+02    0.00000E+00  9360   0.805E+02 0.000E+00
CGA:   2    -0.370450162538E+03   -0.19161E+02   -0.18628E+02  9360   0.536E+02 0.653E+01
CGA:   3    -0.375422715330E+03   -0.49726E+01   -0.47914E+01  9360   0.385E+02-0.946E+01
CGA:   4    -0.378948623444E+03   -0.35259E+01   -0.35210E+01  9360   0.899E+01-0.324E+01
CGA:   5    -0.379958175645E+03   -0.10096E+01   -0.73785E+00  9360   0.522E+01-0.216E+01
CGA:   6    -0.380296950790E+03   -0.33878E+00   -0.32660E+00  9360   0.502E+01-0.365E-01
CGA:   7    -0.380443837091E+03   -0.14689E+00   -0.23770E+00  9360   0.170E+01-0.115E+01
CGA:   8    -0.380577773956E+03   -0.13394E+00   -0.13281E+00  9360   0.836E+00-0.110E+00
CGA:   9    -0.380634492881E+03   -0.56719E-01   -0.57318E-01  9360   0.685E+00 0.484E-03
CGA:  10    -0.380670319746E+03   -0.35827E-01   -0.37900E-01  9360   0.261E+00-0.211E-01
CGA:  11    -0.380698297251E+03   -0.27978E-01   -0.27846E-01  9360   0.231E+00 0.902E-02
CGA:  12    -0.380710917922E+03   -0.12621E-01   -0.13027E-01  9360   0.102E+00-0.439E-02
CGA:  13    -0.380721391147E+03   -0.10473E-01   -0.10466E-01  9360   0.684E-01 0.925E-03
CGA:  14    -0.380725742638E+03   -0.43515E-02   -0.45280E-02  9360   0.374E-01-0.894E-04
CGA:  15    -0.380729616558E+03   -0.38739E-02   -0.38664E-02  9360   0.269E-01 0.820E-03
CGA:  16    -0.380731663818E+03   -0.20473E-02   -0.20729E-02  9360   0.127E-01 0.216E-03
CGA:  17    -0.380732905781E+03   -0.12420E-02   -0.12421E-02  9360   0.920E-02 0.102E-03
CGA:  18    -0.380733682436E+03   -0.77665E-03   -0.78131E-03  9360   0.391E-02 0.122E-03
CGA:  19    -0.380734059702E+03   -0.37727E-03   -0.37734E-03  9360   0.313E-02 0.237E-04
CGA:  20    -0.380734371103E+03   -0.31140E-03   -0.31129E-03  9360   0.158E-02 0.263E-04
CGA:  21    -0.380734516631E+03   -0.14553E-03   -0.14560E-03  9360   0.108E-02 0.718E-05
CGA:  22    -0.380734639524E+03   -0.12289E-03   -0.12269E-03  9360   0.828E-03 0.867E-05
CGA:  23    -0.380734720007E+03   -0.80483E-04   -0.80489E-04  9360   0.487E-03 0.528E-05
CGA:  24    -0.380734772739E+03   -0.52732E-04   -0.52684E-04  9360   0.414E-03 0.341E-05
CGA:  25    -0.380734821813E+03   -0.49073E-04   -0.49015E-04  9360   0.319E-03 0.265E-05
CGA:  26    -0.380734852010E+03   -0.30198E-04   -0.30193E-04  9360   0.190E-03-0.830E-06
CGA:  27    -0.380734875662E+03   -0.23652E-04   -0.23689E-04  9360   0.202E-03-0.133E-05
CGA:  28    -0.380734895163E+03   -0.19500E-04   -0.19493E-04  9360   0.954E-04-0.272E-05
CGA:  29    -0.380734905277E+03   -0.10114E-04   -0.10126E-04  9360   0.923E-04-0.146E-05
CGA:  30    -0.380734915606E+03   -0.10329E-04   -0.10363E-04  9360   0.557E-04-0.240E-05
CGA:  31    -0.380734920368E+03   -0.47623E-05   -0.47528E-05  9360   0.348E-04-0.692E-06
   9 F= -.38073492E+03 E0= -.38072884E+03  d E =-.893300E-01  mag=    58.0000
       N       E                     dE             d eps       ncg     rms          ort
SDA:   1    -0.376521211584E+03    0.42137E+01    0.00000E+00  9360   0.143E+02 0.000E+00
CGA:   2    -0.378420812339E+03   -0.18996E+01   -0.18334E+01  9360   0.141E+02 0.167E+01
CGA:   3    -0.379681989051E+03   -0.12612E+01   -0.12761E+01  9360   0.622E+01-0.517E+00
CGA:   4    -0.380410295461E+03   -0.72831E+00   -0.77245E+00  9360   0.430E+01-0.104E+01
CGA:   5    -0.380623609531E+03   -0.21331E+00   -0.22013E+00  9360   0.107E+01-0.110E+00
CGA:   6    -0.380736338847E+03   -0.11273E+00   -0.11236E+00  9360   0.651E+00 0.317E-01
CGA:   7    -0.380783498402E+03   -0.47160E-01   -0.45729E-01  9360   0.189E+00-0.159E-02
CGA:   8    -0.380801474602E+03   -0.17976E-01   -0.17959E-01  9360   0.160E+00-0.167E-02
CGA:   9    -0.380814265531E+03   -0.12791E-01   -0.12849E-01  9360   0.349E-01 0.847E-03
CGA:  10    -0.380818352214E+03   -0.40867E-02   -0.40857E-02  9360   0.434E-01 0.415E-04
CGA:  11    -0.380821621516E+03   -0.32693E-02   -0.32692E-02  9360   0.902E-02 0.150E-04
CGA:  12    -0.380822797750E+03   -0.11762E-02   -0.11731E-02  9360   0.109E-01 0.751E-04
CGA:  13    -0.380823655891E+03   -0.85814E-03   -0.85822E-03  9360   0.367E-02 0.740E-05
CGA:  14    -0.380824009419E+03   -0.35353E-03   -0.35348E-03  9360   0.296E-02-0.881E-05
CGA:  15    -0.380824362935E+03   -0.35352E-03   -0.35326E-03  9360   0.180E-02 0.936E-05
CGA:  16    -0.380824502211E+03   -0.13928E-03   -0.13942E-03  9360   0.113E-02 0.126E-05
CGA:  17    -0.380824640638E+03   -0.13843E-03   -0.13839E-03  9360   0.680E-03 0.198E-05
CGA:  18    -0.380824709299E+03   -0.68661E-04   -0.68659E-04  9360   0.610E-03 0.133E-05
CGA:  19    -0.380824761717E+03   -0.52418E-04   -0.52455E-04  9360   0.240E-03 0.238E-05
CGA:  20    -0.380824793269E+03   -0.31553E-04   -0.31530E-04  9360   0.274E-03 0.781E-06
CGA:  21    -0.380824817108E+03   -0.23839E-04   -0.23865E-04  9360   0.124E-03 0.173E-05
CGA:  22    -0.380824829687E+03   -0.12579E-04   -0.12579E-04  9360   0.110E-03 0.150E-06
CGA:  23    -0.380824844040E+03   -0.14353E-04   -0.14345E-04  9360   0.749E-04 0.266E-06
CGA:  24    -0.380824850200E+03   -0.61596E-05   -0.61494E-05  9360   0.542E-04-0.520E-06
  10 F= -.38082485E+03 E0= -.38081875E+03  d E =-.899298E-01  mag=    58.0000
       N       E                     dE             d eps       ncg     rms          ort
SDA:   1    -0.380567201234E+03    0.25764E+00    0.00000E+00  9360   0.796E+00 0.000E+00
CGA:   2    -0.380673094482E+03   -0.10589E+00   -0.10498E+00  9360   0.143E+01 0.243E-01
CGA:   3    -0.380784129772E+03   -0.11104E+00   -0.11049E+00  9360   0.245E+00-0.622E-02
CGA:   4    -0.380820664208E+03   -0.36534E-01   -0.36738E-01  9360   0.157E+00-0.343E-02
CGA:   5    -0.380829239914E+03   -0.85757E-02   -0.88167E-02  9360   0.516E-01-0.184E-02
CGA:   6    -0.380833968040E+03   -0.47281E-02   -0.47354E-02  9360   0.268E-01 0.310E-03
CGA:   7    -0.380836011045E+03   -0.20430E-02   -0.20355E-02  9360   0.662E-02-0.479E-04
CGA:   8    -0.380836777679E+03   -0.76663E-03   -0.76665E-03  9360   0.658E-02 0.168E-07
CGA:   9    -0.380837190526E+03   -0.41285E-03   -0.41352E-03  9360   0.135E-02-0.404E-05
CGA:  10    -0.380837380774E+03   -0.19025E-03   -0.19015E-03  9360   0.103E-02 0.238E-05
CGA:  11    -0.380837451759E+03   -0.70985E-04   -0.71080E-04  9360   0.487E-03 0.413E-06
CGA:  12    -0.380837503111E+03   -0.51352E-04   -0.51339E-04  9360   0.309E-03 0.211E-05
CGA:  13    -0.380837534100E+03   -0.30989E-04   -0.30989E-04  9360   0.183E-03 0.160E-06
CGA:  14    -0.380837555770E+03   -0.21671E-04   -0.21655E-04  9360   0.187E-03 0.805E-06
CGA:  15    -0.380837570237E+03   -0.14466E-04   -0.14468E-04  9360   0.719E-04-0.263E-06
CGA:  16    -0.380837582363E+03   -0.12127E-04   -0.12120E-04  9360   0.781E-04 0.109E-06
CGA:  17    -0.380837587834E+03   -0.54702E-05   -0.54627E-05  9360   0.362E-04-0.244E-06
  11 F= -.38083759E+03 E0= -.38083150E+03  d E =-.127376E-01  mag=    58.0000
       N       E                     dE             d eps       ncg     rms          ort
SDA:   1    -0.361303321066E+03    0.19534E+02    0.00000E+00  9360   0.505E+02 0.000E+00
CGA:   2    -0.375044452560E+03   -0.13741E+02   -0.13674E+02  9360   0.405E+02 0.601E+00
CGA:   3    -0.377828707437E+03   -0.27843E+01   -0.29903E+01  9360   0.209E+02-0.173E+01
CGA:   4    -0.380013763848E+03   -0.21851E+01   -0.21855E+01  9360   0.520E+01-0.583E+00
CGA:   5    -0.380467888580E+03   -0.45412E+00   -0.39268E+00  9360   0.331E+01-0.277E+00
CGA:   6    -0.380725072769E+03   -0.25718E+00   -0.25544E+00  9360   0.166E+01-0.181E-01
CGA:   7    -0.380810790970E+03   -0.85718E-01   -0.99244E-01  9360   0.485E+00-0.517E-01
CGA:   8    -0.380871456276E+03   -0.60665E-01   -0.60927E-01  9360   0.378E+00-0.677E-02
CGA:   9    -0.380890326666E+03   -0.18870E-01   -0.19017E-01  9360   0.120E+00-0.304E-02
CGA:  10    -0.380903560561E+03   -0.13234E-01   -0.13219E-01  9360   0.630E-01 0.105E-02
CGA:  11    -0.380910291403E+03   -0.67308E-02   -0.67336E-02  9360   0.466E-01-0.446E-03
CGA:  12    -0.380913200398E+03   -0.29090E-02   -0.29142E-02  9360   0.195E-01-0.428E-05
CGA:  13    -0.380915837438E+03   -0.26370E-02   -0.25971E-02  9360   0.141E-01 0.904E-03
CGA:  14    -0.380917612128E+03   -0.17747E-02   -0.17743E-02  9360   0.993E-02 0.224E-04
CGA:  15    -0.380918319511E+03   -0.70738E-03   -0.71032E-03  9360   0.665E-02 0.862E-05
CGA:  16    -0.380919184404E+03   -0.86489E-03   -0.86351E-03  9360   0.375E-02 0.380E-04
CGA:  17    -0.380919595751E+03   -0.41135E-03   -0.41151E-03  9360   0.223E-02-0.135E-04
CGA:  18    -0.380919816156E+03   -0.22040E-03   -0.22046E-03  9360   0.215E-02 0.872E-05
CGA:  19    -0.380919998380E+03   -0.18222E-03   -0.18269E-03  9360   0.720E-03 0.939E-05
CGA:  20    -0.380920106259E+03   -0.10788E-03   -0.10779E-03  9360   0.607E-03 0.257E-05
CGA:  21    -0.380920167672E+03   -0.61413E-04   -0.61430E-04  9360   0.507E-03 0.332E-05
CGA:  22    -0.380920211408E+03   -0.43736E-04   -0.43800E-04  9360   0.305E-03 0.257E-05
CGA:  23    -0.380920256797E+03   -0.45390E-04   -0.45415E-04  9360   0.209E-03-0.526E-06
CGA:  24    -0.380920283459E+03   -0.26661E-04   -0.26676E-04  9360   0.230E-03-0.752E-06
CGA:  25    -0.380920301762E+03   -0.18303E-04   -0.18247E-04  9360   0.118E-03-0.197E-05
CGA:  26    -0.380920316081E+03   -0.14319E-04   -0.14357E-04  9360   0.788E-04-0.196E-05
CGA:  27    -0.380920326630E+03   -0.10549E-04   -0.10614E-04  9360   0.640E-04-0.210E-05
CGA:  28    -0.380920331048E+03   -0.44181E-05   -0.43953E-05  9360   0.356E-04-0.609E-06
  12 F= -.38092033E+03 E0= -.38091418E+03  d E =-.827432E-01  mag=    58.0000
       N       E                     dE             d eps       ncg     rms          ort
SDA:   1    -0.357645361638E+03    0.23275E+02    0.00000E+00  9360   0.622E+02 0.000E+00
CGA:   2    -0.371422419425E+03   -0.13777E+02   -0.13447E+02  9360   0.481E+02 0.732E+01
CGA:   3    -0.377072806707E+03   -0.56504E+01   -0.56564E+01  9360   0.270E+02-0.266E+00
CGA:   4    -0.378959257620E+03   -0.18865E+01   -0.20190E+01  9360   0.139E+02-0.370E+00
CGA:   5    -0.379987355036E+03   -0.10281E+01   -0.69911E+00  9360   0.103E+02-0.299E+01
CGA:   6    -0.380229084343E+03   -0.24173E+00   -0.21277E+00  9360   0.615E+01 0.667E+00
CGA:   7    -0.380404016022E+03   -0.17493E+00   -0.18578E+00  9360   0.655E+01-0.872E+00
CGA:   8    -0.380474071041E+03   -0.70055E-01   -0.20648E+00  9360   0.130E+02-0.312E+01
CGA:   9    -0.380551701240E+03   -0.77630E-01   -0.10066E+00  9360   0.753E+01-0.158E+01
CGA:  10    -0.380631406275E+03   -0.79705E-01   -0.11312E+00  9360   0.415E+01-0.170E+01
CGA:  11    -0.380681541017E+03   -0.50135E-01   -0.40234E-01  9360   0.312E+01 0.552E+00
CGA:  12    -0.380730452737E+03   -0.48912E-01   -0.48123E-01  9360   0.270E+01-0.186E+00
CGA:  13    -0.380755706304E+03   -0.25254E-01   -0.32394E-01  9360   0.274E+01-0.568E+00
CGA:  14    -0.380772497550E+03   -0.16791E-01   -0.24306E-01  9360   0.212E+01-0.612E+00
CGA:  15    -0.380785299126E+03   -0.12802E-01   -0.16313E-01  9360   0.155E+01-0.352E+00
CGA:  16    -0.380797677295E+03   -0.12378E-01   -0.17951E-01  9360   0.192E+01-0.376E+00
CGA:  17    -0.380814416433E+03   -0.16739E-01   -0.30930E-01  9360   0.317E+01-0.543E+00
CGA:  18    -0.380840534231E+03   -0.26118E-01   -0.29196E-01  9360   0.240E+01-0.205E+00
CGA:  19    -0.380865040154E+03   -0.24506E-01   -0.31068E-01  9360   0.115E+01-0.407E+00
CGA:  20    -0.380877033659E+03   -0.11994E-01   -0.12699E-01  9360   0.674E+00-0.675E-01
CGA:  21    -0.380886081821E+03   -0.90482E-02   -0.86816E-02  9360   0.554E+00 0.143E-01
CGA:  22    -0.380895406441E+03   -0.93246E-02   -0.95843E-02  9360   0.578E+00-0.138E-01
CGA:  23    -0.380904011648E+03   -0.86052E-02   -0.87706E-02  9360   0.448E+00-0.913E-02
CGA:  24    -0.380909759721E+03   -0.57481E-02   -0.55450E-02  9360   0.309E+00 0.125E-01
CGA:  25    -0.380914882510E+03   -0.51228E-02   -0.53780E-02  9360   0.375E+00-0.122E-01
CGA:  26    -0.380922725416E+03   -0.78429E-02   -0.83906E-02  9360   0.603E+00-0.135E-01
CGA:  27    -0.380932854875E+03   -0.10129E-01   -0.10669E-01  9360   0.481E+00-0.207E-01
CGA:  28    -0.380939339989E+03   -0.64851E-02   -0.74129E-02  9360   0.226E+00-0.427E-01
CGA:  29    -0.380942545444E+03   -0.32055E-02   -0.32505E-02  9360   0.129E+00-0.255E-02
CGA:  30    -0.380945110771E+03   -0.25653E-02   -0.25402E-02  9360   0.118E+00 0.630E-03
CGA:  31    -0.380947791700E+03   -0.26809E-02   -0.26957E-02  9360   0.109E+00-0.210E-03
SDA:  32    -0.380949788717E+03   -0.19970E-02   -0.19705E-02  9360   0.703E-01 0.904E-03
CGA:  33    -0.380953532792E+03   -0.37441E-02   -0.37182E-02  9360   0.274E-01 0.150E-02
CGA:  34    -0.380956203030E+03   -0.26702E-02   -0.26357E-02  9360   0.295E-01 0.693E-03
CGA:  35    -0.380959780990E+03   -0.35780E-02   -0.35817E-02  9360   0.351E-02-0.631E-04
CGA:  36    -0.380960919154E+03   -0.11382E-02   -0.89969E-04  9360   0.253E-02 0.224E-03
CGA:  37    -0.380961406670E+03   -0.48752E-03   -0.48698E-03  9360   0.132E-02 0.586E-05
CGA:  38    -0.380961517637E+03   -0.11097E-03   -0.11100E-03  9360   0.151E-02 0.201E-05
CGA:  39    -0.380961696762E+03   -0.17912E-03   -0.17814E-03  9360   0.753E-03 0.272E-04
CGA:  40    -0.380961773775E+03   -0.77013E-04   -0.77036E-04  9360   0.443E-03-0.113E-05
CGA:  41    -0.380961895552E+03   -0.12178E-03   -0.12206E-03  9360   0.263E-03-0.152E-05
CGA:  42    -0.380961921610E+03   -0.26058E-04   -0.26056E-04  9360   0.363E-03-0.161E-05
CGA:  43    -0.380961955053E+03   -0.33443E-04   -0.33401E-04  9360   0.132E-03-0.517E-05
CGA:  44    -0.380961988576E+03   -0.33522E-04   -0.34665E-04  9360   0.726E-04-0.690E-05
CGA:  45    -0.380962000469E+03   -0.11894E-04   -0.11982E-04  9360   0.124E-03-0.135E-05
CGA:  46    -0.380962008162E+03   -0.76932E-05   -0.76363E-05  9360   0.469E-04-0.890E-06
  13 F= -.38096201E+03 E0= -.38095579E+03  d E =-.416771E-01  mag=    58.0000
       N       E                     dE             d eps       ncg     rms          ort
SDA:   1    -0.378144462875E+03    0.28175E+01    0.00000E+00  9360   0.844E+01 0.000E+00
CGA:   2    -0.379909124254E+03   -0.17647E+01   -0.17589E+01  9360   0.491E+01 0.603E-01
CGA:   3    -0.380472988858E+03   -0.56386E+00   -0.56220E+00  9360   0.531E+01-0.214E+00
CGA:   4    -0.380787590723E+03   -0.31460E+00   -0.31550E+00  9360   0.138E+01-0.130E+00
CGA:   5    -0.380911922701E+03   -0.12433E+00   -0.12682E+00  9360   0.562E+00 0.353E-01
CGA:   6    -0.380976255827E+03   -0.64333E-01   -0.64309E-01  9360   0.133E+00-0.569E-02
CGA:   7    -0.380996414451E+03   -0.20159E-01   -0.20127E-01  9360   0.801E-01 0.624E-03
CGA:   8    -0.381001291924E+03   -0.48775E-02   -0.47900E-02  9360   0.362E-01 0.619E-03
CGA:   9    -0.381005306291E+03   -0.40144E-02   -0.40129E-02  9360   0.215E-01-0.254E-03
CGA:  10    -0.381007513087E+03   -0.22068E-02   -0.22091E-02  9360   0.582E-02 0.117E-03
CGA:  11    -0.381008721788E+03   -0.12087E-02   -0.12099E-02  9360   0.420E-02-0.120E-04
CGA:  12    -0.381009033924E+03   -0.31214E-03   -0.31393E-03  9360   0.274E-02-0.118E-05
CGA:  13    -0.381009307411E+03   -0.27349E-03   -0.27371E-03  9360   0.197E-02 0.742E-05
CGA:  14    -0.381009537508E+03   -0.23010E-03   -0.23010E-03  9360   0.661E-03 0.677E-07
CGA:  15    -0.381009660536E+03   -0.12303E-03   -0.12275E-03  9360   0.710E-03 0.378E-05
CGA:  16    -0.381009713848E+03   -0.53311E-04   -0.53301E-04  9360   0.424E-03 0.855E-06
CGA:  17    -0.381009754764E+03   -0.40916E-04   -0.40935E-04  9360   0.215E-03 0.131E-05
CGA:  18    -0.381009785227E+03   -0.30463E-04   -0.30427E-04  9360   0.128E-03 0.122E-05
CGA:  19    -0.381009803753E+03   -0.18526E-04   -0.18510E-04  9360   0.111E-03 0.653E-06
CGA:  20    -0.381009811698E+03   -0.79453E-05   -0.79419E-05  9360   0.698E-04-0.144E-07
CGA:  21    -0.381009822535E+03   -0.10837E-04   -0.10827E-04  9360   0.482E-04 0.218E-06
CGA:  22    -0.381009828428E+03   -0.58927E-05   -0.58948E-05  9360   0.282E-04-0.359E-06
  14 F= -.38100983E+03 E0= -.38100376E+03  d E =-.478203E-01  mag=    58.0000
       N       E                     dE             d eps       ncg     rms          ort
SDA:   1    -0.380892382250E+03    0.11744E+00    0.00000E+00  9360   0.353E+00 0.000E+00
CGA:   2    -0.380951130981E+03   -0.58749E-01   -0.58211E-01  9360   0.581E+00 0.931E-02
CGA:   3    -0.380988339792E+03   -0.37209E-01   -0.36602E-01  9360   0.121E+00 0.204E-02
CGA:   4    -0.381007065107E+03   -0.18725E-01   -0.18787E-01  9360   0.560E-01-0.124E-02
CGA:   5    -0.381011174540E+03   -0.41094E-02   -0.41854E-02  9360   0.248E-01-0.143E-03
CGA:   6    -0.381013167762E+03   -0.19932E-02   -0.20003E-02  9360   0.125E-01 0.136E-04
CGA:   7    -0.381014127738E+03   -0.95998E-03   -0.95677E-03  9360   0.286E-02 0.127E-06
CGA:   8    -0.381014570801E+03   -0.44306E-03   -0.44286E-03  9360   0.217E-02 0.422E-05
CGA:   9    -0.381014692344E+03   -0.12154E-03   -0.12143E-03  9360   0.701E-03 0.203E-06
CGA:  10    -0.381014795595E+03   -0.10325E-03   -0.10322E-03  9360   0.405E-03 0.116E-05
CGA:  11    -0.381014832254E+03   -0.36659E-04   -0.36691E-04  9360   0.238E-03 0.564E-06
CGA:  12    -0.381014855046E+03   -0.22791E-04   -0.22806E-04  9360   0.188E-03 0.794E-06
CGA:  13    -0.381014874427E+03   -0.19381E-04   -0.19378E-04  9360   0.838E-04-0.240E-06
CGA:  14    -0.381014887452E+03   -0.13025E-04   -0.13027E-04  9360   0.883E-04-0.561E-07
CGA:  15    -0.381014893734E+03   -0.62816E-05   -0.62685E-05  9360   0.452E-04-0.347E-06
  15 F= -.38101489E+03 E0= -.38100881E+03  d E =-.506531E-02  mag=    58.0000
       N       E                     dE             d eps       ncg     rms          ort
SDA:   1    -0.380358479146E+03    0.65641E+00    0.00000E+00  9360   0.172E+01 0.000E+00
CGA:   2    -0.380829415911E+03   -0.47094E+00   -0.47089E+00  9360   0.890E+00 0.376E-03
CGA:   3    -0.380966361617E+03   -0.13695E+00   -0.13675E+00  9360   0.440E+00 0.429E-02
CGA:   4    -0.380992582685E+03   -0.26221E-01   -0.25809E-01  9360   0.202E+00 0.180E-02
CGA:   5    -0.381013348746E+03   -0.20766E-01   -0.20726E-01  9360   0.523E-01-0.721E-03
CGA:   6    -0.381018460777E+03   -0.51120E-02   -0.51224E-02  9360   0.251E-01 0.143E-03
CGA:   7    -0.381021307527E+03   -0.28468E-02   -0.28458E-02  9360   0.125E-01-0.816E-04
CGA:   8    -0.381022041561E+03   -0.73403E-03   -0.73062E-03  9360   0.527E-02 0.322E-04
CGA:   9    -0.381022793105E+03   -0.75154E-03   -0.75107E-03  9360   0.157E-02 0.124E-04
CGA:  10    -0.381022986941E+03   -0.19384E-03   -0.19388E-03  9360   0.157E-02-0.292E-05
CGA:  11    -0.381023114452E+03   -0.12751E-03   -0.12750E-03  9360   0.847E-03 0.243E-06
CGA:  12    -0.381023195950E+03   -0.81498E-04   -0.81549E-04  9360   0.448E-03 0.135E-05
CGA:  13    -0.381023267899E+03   -0.71948E-04   -0.72003E-04  9360   0.340E-03-0.110E-05
CGA:  14    -0.381023301327E+03   -0.33428E-04   -0.33438E-04  9360   0.335E-03 0.356E-06
CGA:  15    -0.381023331247E+03   -0.29921E-04   -0.29927E-04  9360   0.126E-03-0.595E-07
CGA:  16    -0.381023352844E+03   -0.21597E-04   -0.21536E-04  9360   0.106E-03 0.109E-05
CGA:  17    -0.381023361667E+03   -0.88229E-05   -0.88436E-05  9360   0.588E-04 0.459E-06
  16 F= -.38102336E+03 E0= -.38101725E+03  d E =-.846793E-02  mag=    58.0000
       N       E                     dE             d eps       ncg     rms          ort
SDA:   1    -0.379489311028E+03    0.15340E+01    0.00000E+00  9360   0.390E+01 0.000E+00
CGA:   2    -0.380544789743E+03   -0.10555E+01   -0.10364E+01  9360   0.379E+01 0.144E+00
CGA:   3    -0.380784351083E+03   -0.23956E+00   -0.21683E+00  9360   0.139E+01-0.620E-01
CGA:   4    -0.380975865214E+03   -0.19151E+00   -0.19202E+00  9360   0.322E+00-0.147E-01
CGA:   5    -0.381013817028E+03   -0.37952E-01   -0.37953E-01  9360   0.137E+00 0.389E-02
CGA:   6    -0.381028125497E+03   -0.14308E-01   -0.14263E-01  9360   0.369E-01-0.924E-03
CGA:   7    -0.381034263130E+03   -0.61376E-02   -0.61301E-02  9360   0.122E-01 0.120E-03
CGA:   8    -0.381035614311E+03   -0.13512E-02   -0.13497E-02  9360   0.983E-02-0.528E-04
CGA:   9    -0.381036265192E+03   -0.65088E-03   -0.64935E-03  9360   0.395E-02 0.709E-05
CGA:  10    -0.381036685100E+03   -0.41991E-03   -0.42006E-03  9360   0.191E-02 0.699E-05
CGA:  11    -0.381036955478E+03   -0.27038E-03   -0.27048E-03  9360   0.991E-03-0.248E-05
CGA:  12    -0.381037135234E+03   -0.17976E-03   -0.17959E-03  9360   0.972E-03 0.253E-05
CGA:  13    -0.381037201293E+03   -0.66059E-04   -0.65963E-04  9360   0.598E-03-0.738E-08
CGA:  14    -0.381037289967E+03   -0.88675E-04   -0.88695E-04  9360   0.414E-03-0.231E-06
CGA:  15    -0.381037336848E+03   -0.46881E-04   -0.46892E-04  9360   0.178E-03 0.107E-05
CGA:  16    -0.381037368594E+03   -0.31747E-04   -0.31670E-04  9360   0.169E-03 0.137E-05
CGA:  17    -0.381037379077E+03   -0.10482E-04   -0.10493E-04  9360   0.777E-04 0.288E-06
CGA:  18    -0.381037389537E+03   -0.10461E-04   -0.10450E-04  9360   0.420E-04 0.747E-06
CGA:  19    -0.381037395750E+03   -0.62129E-05   -0.62111E-05  9360   0.315E-04 0.660E-07
  17 F= -.38103740E+03 E0= -.38103127E+03  d E =-.140341E-01  mag=    58.0000
       N       E                     dE             d eps       ncg     rms          ort
SDA:   1    -0.367478031465E+03    0.13559E+02    0.00000E+00  9360   0.347E+02 0.000E+00
CGA:   2    -0.377167116116E+03   -0.96891E+01   -0.97255E+01  9360   0.223E+02-0.197E+00
CGA:   3    -0.379481302069E+03   -0.23142E+01   -0.22967E+01  9360   0.950E+01 0.570E+00
CGA:   4    -0.380564608559E+03   -0.10833E+01   -0.10711E+01  9360   0.287E+01-0.123E+00
CGA:   5    -0.380810086384E+03   -0.24548E+00   -0.24875E+00  9360   0.230E+01-0.176E-01
CGA:   6    -0.380966462085E+03   -0.15638E+00   -0.16335E+00  9360   0.416E+00-0.543E-01
CGA:   7    -0.381024814268E+03   -0.58352E-01   -0.58506E-01  9360   0.271E+00-0.460E-02
CGA:   8    -0.381044485415E+03   -0.19671E-01   -0.20240E-01  9360   0.117E+00-0.204E-02
CGA:   9    -0.381053973567E+03   -0.94882E-02   -0.96532E-02  9360   0.601E-01 0.206E-03
CGA:  10    -0.381061247565E+03   -0.72740E-02   -0.72745E-02  9360   0.188E-01-0.215E-03
CGA:  11    -0.381063252351E+03   -0.20048E-02   -0.20086E-02  9360   0.204E-01 0.123E-03
CGA:  12    -0.381065185354E+03   -0.19330E-02   -0.19381E-02  9360   0.756E-02 0.604E-04
CGA:  13    -0.381066092058E+03   -0.90670E-03   -0.90679E-03  9360   0.546E-02-0.215E-04
CGA:  14    -0.381066718083E+03   -0.62602E-03   -0.62612E-03  9360   0.462E-02 0.202E-04
CGA:  15    -0.381067097382E+03   -0.37930E-03   -0.38145E-03  9360   0.173E-02 0.664E-05
CGA:  16    -0.381067369334E+03   -0.27195E-03   -0.27192E-03  9360   0.136E-02 0.861E-06
CGA:  17    -0.381067476123E+03   -0.10679E-03   -0.10680E-03  9360   0.761E-03-0.269E-06
CGA:  18    -0.381067560653E+03   -0.84530E-04   -0.84543E-04  9360   0.369E-03 0.225E-05
CGA:  19    -0.381067607625E+03   -0.46973E-04   -0.46968E-04  9360   0.298E-03 0.763E-06
CGA:  20    -0.381067635187E+03   -0.27562E-04   -0.27606E-04  9360   0.201E-03 0.164E-05
CGA:  21    -0.381067658968E+03   -0.23781E-04   -0.23779E-04  9360   0.117E-03 0.991E-06
CGA:  22    -0.381067677883E+03   -0.18915E-04   -0.18908E-04  9360   0.143E-03 0.185E-06
CGA:  23    -0.381067689436E+03   -0.11552E-04   -0.11528E-04  9360   0.634E-04-0.512E-06
CGA:  24    -0.381067699484E+03   -0.10048E-04   -0.10072E-04  9360   0.605E-04-0.558E-06
CGA:  25    -0.381067705962E+03   -0.64784E-05   -0.64683E-05  9360   0.415E-04-0.100E-05
  18 F= -.38106771E+03 E0= -.38106176E+03  d E =-.303102E-01  mag=    58.0000
       N       E                     dE             d eps       ncg     rms          ort
SDA:   1    -0.380395690317E+03    0.67201E+00    0.00000E+00  9360   0.271E+01 0.000E+00
CGA:   2    -0.380625653950E+03   -0.22996E+00   -0.23883E+00  9360   0.284E+01 0.610E-01
CGA:   3    -0.380902828363E+03   -0.27717E+00   -0.27927E+00  9360   0.917E+00 0.299E-01
CGA:   4    -0.381014057548E+03   -0.11123E+00   -0.11155E+00  9360   0.492E+00-0.259E-01
CGA:   5    -0.381062904839E+03   -0.48847E-01   -0.48928E-01  9360   0.154E+00 0.266E-02
CGA:   6    -0.381074351300E+03   -0.11446E-01   -0.11506E-01  9360   0.979E-01-0.143E-03
CGA:   7    -0.381083608303E+03   -0.92570E-02   -0.92407E-02  9360   0.179E-01-0.308E-03
CGA:   8    -0.381086272611E+03   -0.26643E-02   -0.26645E-02  9360   0.161E-01-0.403E-05
CGA:   9    -0.381087211531E+03   -0.93892E-03   -0.94229E-03  9360   0.450E-02-0.235E-04
CGA:  10    -0.381087935335E+03   -0.72380E-03   -0.72379E-03  9360   0.249E-02 0.703E-06
CGA:  11    -0.381088151549E+03   -0.21621E-03   -0.21655E-03  9360   0.169E-02 0.513E-05
CGA:  12    -0.381088316593E+03   -0.16504E-03   -0.16506E-03  9360   0.887E-03 0.627E-06
CGA:  13    -0.381088413726E+03   -0.97133E-04   -0.97129E-04  9360   0.481E-03-0.207E-05
CGA:  14    -0.381088476398E+03   -0.62672E-04   -0.62667E-04  9360   0.445E-03-0.287E-06
CGA:  15    -0.381088508708E+03   -0.32310E-04   -0.32351E-04  9360   0.174E-03 0.109E-06
CGA:  16    -0.381088543190E+03   -0.34482E-04   -0.34456E-04  9360   0.131E-03 0.284E-06
CGA:  17    -0.381088552389E+03   -0.91995E-05   -0.92406E-05  9360   0.767E-04 0.818E-06
CGA:  18    -0.381088563997E+03   -0.11608E-04   -0.11558E-04  9360   0.482E-04 0.127E-05
CGA:  19    -0.381088569026E+03   -0.50290E-05   -0.50355E-05  9360   0.310E-04 0.656E-06
  19 F= -.38108857E+03 E0= -.38108256E+03  d E =-.208631E-01  mag=    58.0000
       N       E                     dE             d eps       ncg     rms          ort
SDA:   1    -0.381051987022E+03    0.36577E-01    0.00000E+00  9360   0.134E+00 0.000E+00
CGA:   2    -0.381064596986E+03   -0.12610E-01   -0.12585E-01  9360   0.178E+00-0.469E-03
CGA:   3    -0.381083208504E+03   -0.18612E-01   -0.18616E-01  9360   0.330E-01 0.268E-03
CGA:   4    -0.381089105380E+03   -0.58969E-02   -0.58979E-02  9360   0.972E-02-0.147E-04
CGA:   5    -0.381090475146E+03   -0.13698E-02   -0.13691E-02  9360   0.408E-02 0.177E-04
CGA:   6    -0.381090798873E+03   -0.32373E-03   -0.32247E-03  9360   0.193E-02 0.943E-07
CGA:   7    -0.381090947218E+03   -0.14834E-03   -0.14806E-03  9360   0.101E-02-0.117E-05
CGA:   8    -0.381091047687E+03   -0.10047E-03   -0.10048E-03  9360   0.263E-03 0.740E-06
CGA:   9    -0.381091094901E+03   -0.47214E-04   -0.47155E-04  9360   0.118E-03 0.898E-06
CGA:  10    -0.381091108728E+03   -0.13826E-04   -0.13824E-04  9360   0.122E-03 0.941E-06
CGA:  11    -0.381091117969E+03   -0.92412E-05   -0.92475E-05  9360   0.492E-04 0.159E-06
  20 F= -.38109112E+03 E0= -.38108509E+03  d E =-.254894E-02  mag=    58.0000
       N       E                     dE             d eps       ncg     rms          ort
SDA:   1    -0.379909271103E+03    0.11818E+01    0.00000E+00  9360   0.312E+01 0.000E+00
CGA:   2    -0.380740862676E+03   -0.83159E+00   -0.83107E+00  9360   0.160E+01 0.380E-02
CGA:   3    -0.380990609964E+03   -0.24975E+00   -0.25057E+00  9360   0.642E+00-0.176E-01
CGA:   4    -0.381053433316E+03   -0.62823E-01   -0.63890E-01  9360   0.264E+00 0.128E-01
CGA:   5    -0.381077403468E+03   -0.23970E-01   -0.23807E-01  9360   0.140E+00-0.588E-03
CGA:   6    -0.381086379402E+03   -0.89759E-02   -0.87139E-02  9360   0.381E-01 0.184E-02
CGA:   7    -0.381092448742E+03   -0.60693E-02   -0.60676E-02  9360   0.109E-01 0.355E-04
CGA:   8    -0.381094067064E+03   -0.16183E-02   -0.16200E-02  9360   0.693E-02-0.388E-04
CGA:   9    -0.381094802798E+03   -0.73573E-03   -0.73671E-03  9360   0.294E-02 0.263E-04
CGA:  10    -0.381095037701E+03   -0.23490E-03   -0.23545E-03  9360   0.247E-02 0.300E-05
CGA:  11    -0.381095337142E+03   -0.29944E-03   -0.29945E-03  9360   0.743E-03-0.116E-05
CGA:  12    -0.381095472583E+03   -0.13544E-03   -0.13537E-03  9360   0.700E-03 0.916E-06
CGA:  13    -0.381095562880E+03   -0.90297E-04   -0.90307E-04  9360   0.406E-03-0.119E-05
CGA:  14    -0.381095596545E+03   -0.33665E-04   -0.33710E-04  9360   0.351E-03 0.104E-05
CGA:  15    -0.381095639179E+03   -0.42634E-04   -0.42632E-04  9360   0.137E-03 0.183E-05
CGA:  16    -0.381095660339E+03   -0.21161E-04   -0.21103E-04  9360   0.794E-04 0.175E-05
CGA:  17    -0.381095671861E+03   -0.11522E-04   -0.11498E-04  9360   0.628E-04 0.107E-05
CGA:  18    -0.381095677752E+03   -0.58910E-05   -0.59092E-05  9360   0.529E-04 0.600E-06
  21 F= -.38109568E+03 E0= -.38108962E+03  d E =-.455978E-02  mag=    58.0000
       N       E                     dE             d eps       ncg     rms          ort
SDA:   1    -0.380868265215E+03    0.22741E+00    0.00000E+00  9360   0.581E+00 0.000E+00
CGA:   2    -0.381020791310E+03   -0.15253E+00   -0.15327E+00  9360   0.667E+00-0.518E-02
CGA:   3    -0.381056331148E+03   -0.35540E-01   -0.38611E-01  9360   0.284E+00-0.362E-01
CGA:   4    -0.381086255466E+03   -0.29924E-01   -0.29955E-01  9360   0.601E-01 0.950E-03
CGA:   5    -0.381092870061E+03   -0.66146E-02   -0.65909E-02  9360   0.375E-01-0.628E-03
CGA:   6    -0.381095524594E+03   -0.26545E-02   -0.26569E-02  9360   0.129E-01-0.213E-04
CGA:   7    -0.381096588187E+03   -0.10636E-02   -0.10681E-02  9360   0.552E-02 0.765E-05
CGA:   8    -0.381097287373E+03   -0.69919E-03   -0.69929E-03  9360   0.196E-02-0.735E-05
CGA:   9    -0.381097436373E+03   -0.14900E-03   -0.14916E-03  9360   0.134E-02 0.155E-05
CGA:  10    -0.381097583026E+03   -0.14665E-03   -0.14666E-03  9360   0.356E-03 0.969E-06
CGA:  11    -0.381097629231E+03   -0.46205E-04   -0.46199E-04  9360   0.357E-03 0.454E-06
CGA:  12    -0.381097658790E+03   -0.29559E-04   -0.29547E-04  9360   0.170E-03-0.375E-06
CGA:  13    -0.381097679922E+03   -0.21132E-04   -0.21127E-04  9360   0.120E-03 0.472E-06
CGA:  14    -0.381097694977E+03   -0.15055E-04   -0.15056E-04  9360   0.907E-04-0.942E-07
CGA:  15    -0.381097703308E+03   -0.83302E-05   -0.83413E-05  9360   0.698E-04 0.457E-06
  22 F= -.38109770E+03 E0= -.38109164E+03  d E =-.202556E-02  mag=    58.0000
       N       E                     dE             d eps       ncg     rms          ort
SDA:   1    -0.366863441848E+03    0.14234E+02    0.00000E+00  9360   0.366E+02 0.000E+00
CGA:   2    -0.376267992359E+03   -0.94046E+01   -0.90903E+01  9360   0.239E+02 0.348E+01
CGA:   3    -0.378908074742E+03   -0.26401E+01   -0.26611E+01  9360   0.143E+02 0.606E-02
CGA:   4    -0.380300220195E+03   -0.13921E+01   -0.12839E+01  9360   0.614E+01 0.147E+01
CGA:   5    -0.380558475298E+03   -0.25826E+00   -0.25417E+00  9360   0.520E+01-0.431E+00
CGA:   6    -0.380746539378E+03   -0.18806E+00   -0.15205E+00  9360   0.346E+01 0.915E+00
CGA:   7    -0.380836042996E+03   -0.89504E-01   -0.11050E+00  9360   0.270E+01-0.937E+00
CGA:   8    -0.380905912256E+03   -0.69869E-01   -0.88385E-01  9360   0.359E+01-0.269E+00
CGA:   9    -0.380976560022E+03   -0.70648E-01   -0.86935E-01  9360   0.109E+01-0.486E+00
CGA:  10    -0.381000068850E+03   -0.23509E-01   -0.22928E-01  9360   0.534E+00 0.624E-03
CGA:  11    -0.381020478206E+03   -0.20409E-01   -0.19651E-01  9360   0.592E+00 0.122E-01
CGA:  12    -0.381041151300E+03   -0.20673E-01   -0.20946E-01  9360   0.376E+00-0.621E-02
CGA:  13    -0.381051776896E+03   -0.10626E-01   -0.11387E-01  9360   0.293E+00-0.199E-01
CGA:  14    -0.381063387740E+03   -0.11611E-01   -0.11944E-01  9360   0.243E+00-0.415E-02
CGA:  15    -0.381069714428E+03   -0.63267E-02   -0.70479E-02  9360   0.752E-01-0.183E-01
CGA:  16    -0.381072379372E+03   -0.26649E-02   -0.26048E-02  9360   0.711E-01 0.770E-03
CGA:  17    -0.381076981799E+03   -0.46024E-02   -0.45923E-02  9360   0.919E-01-0.193E-03
CGA:  18    -0.381079972916E+03   -0.29911E-02   -0.30700E-02  9360   0.392E-01-0.144E-02
CGA:  19    -0.381081704424E+03   -0.17315E-02   -0.17653E-02  9360   0.345E-01-0.201E-03
CGA:  20    -0.381083093140E+03   -0.13887E-02   -0.14290E-02  9360   0.148E-01-0.356E-03
CGA:  21    -0.381083706507E+03   -0.61337E-03   -0.62349E-03  9360   0.124E-01-0.787E-04
CGA:  22    -0.381084787010E+03   -0.10805E-02   -0.10765E-02  9360   0.162E-01 0.181E-03
CGA:  23    -0.381085427855E+03   -0.64084E-03   -0.64741E-03  9360   0.587E-02-0.534E-04
CGA:  24    -0.381085775474E+03   -0.34762E-03   -0.34787E-03  9360   0.487E-02 0.935E-05
CGA:  25    -0.381085993123E+03   -0.21765E-03   -0.21964E-03  9360   0.204E-02-0.670E-05
CGA:  26    -0.381086129759E+03   -0.13664E-03   -0.13666E-03  9360   0.278E-02 0.208E-05
CGA:  27    -0.381086324672E+03   -0.19491E-03   -0.19491E-03  9360   0.163E-02-0.645E-06
CGA:  28    -0.381086395653E+03   -0.70981E-04   -0.71291E-04  9360   0.932E-03-0.108E-07
CGA:  29    -0.381086462383E+03   -0.66730E-04   -0.66712E-04  9360   0.730E-03 0.350E-05
CGA:  30    -0.381086500267E+03   -0.37884E-04   -0.37954E-04  9360   0.554E-03 0.149E-05
CGA:  31    -0.381086555924E+03   -0.55657E-04   -0.55553E-04  9360   0.726E-03 0.313E-05
SDA:  32    -0.381086588638E+03   -0.32714E-04   -0.32745E-04  9360   0.283E-03 0.258E-05
CGA:  33    -0.381086614815E+03   -0.26177E-04   -0.26195E-04  9360   0.141E-03-0.846E-06
CGA:  34    -0.381086651569E+03   -0.36754E-04   -0.37616E-04  9360   0.918E-04-0.440E-05
CGA:  35    -0.381086671413E+03   -0.19845E-04   -0.19949E-04  9360   0.680E-04-0.773E-06
CGA:  36    -0.381086678494E+03   -0.70805E-05   -0.70863E-05  9360   0.988E-04-0.268E-06
CGA:  37    -0.381086691204E+03   -0.12710E-04   -0.12704E-04  9360   0.448E-04 0.187E-06
CGA:  38    -0.381086699450E+03   -0.82466E-05   -0.83388E-05  9360   0.226E-04-0.956E-06
  23 F= -.38108670E+03 E0= -.38108052E+03  d E =0.110039E-01  mag=    58.0000
       N       E                     dE             d eps       ncg     rms          ort
SDA:   1    -0.378935215191E+03    0.21515E+01    0.00000E+00  9360   0.589E+01 0.000E+00
CGA:   2    -0.380444457307E+03   -0.15092E+01   -0.15059E+01  9360   0.313E+01 0.241E-01
CGA:   3    -0.380810911130E+03   -0.36645E+00   -0.37013E+00  9360   0.312E+01-0.166E+00
CGA:   4    -0.380983946859E+03   -0.17304E+00   -0.17795E+00  9360   0.750E+00-0.659E-01
CGA:   5    -0.381064159552E+03   -0.80213E-01   -0.80052E-01  9360   0.295E+00 0.158E-01
CGA:   6    -0.381095618204E+03   -0.31459E-01   -0.31464E-01  9360   0.759E-01-0.312E-02
CGA:   7    -0.381106347672E+03   -0.10729E-01   -0.10701E-01  9360   0.552E-01 0.582E-03
CGA:   8    -0.381109509729E+03   -0.31621E-02   -0.31386E-02  9360   0.187E-01 0.149E-03
CGA:   9    -0.381112257282E+03   -0.27476E-02   -0.27530E-02  9360   0.860E-02-0.964E-04
CGA:  10    -0.381113293677E+03   -0.10364E-02   -0.10351E-02  9360   0.393E-02 0.574E-04
CGA:  11    -0.381113901931E+03   -0.60825E-03   -0.60831E-03  9360   0.237E-02 0.104E-06
CGA:  12    -0.381114124680E+03   -0.22275E-03   -0.22280E-03  9360   0.217E-02 0.128E-05
CGA:  13    -0.381114317820E+03   -0.19314E-03   -0.19330E-03  9360   0.834E-03 0.346E-05
CGA:  14    -0.381114470081E+03   -0.15226E-03   -0.15228E-03  9360   0.552E-03-0.293E-06
CGA:  15    -0.381114536874E+03   -0.66792E-04   -0.66765E-04  9360   0.322E-03 0.241E-05
CGA:  16    -0.381114575437E+03   -0.38563E-04   -0.38553E-04  9360   0.372E-03 0.139E-05
CGA:  17    -0.381114604318E+03   -0.28881E-04   -0.28947E-04  9360   0.101E-03 0.231E-05
CGA:  18    -0.381114625981E+03   -0.21663E-04   -0.21489E-04  9360   0.860E-04 0.171E-05
CGA:  19    -0.381114637242E+03   -0.11261E-04   -0.11253E-04  9360   0.617E-04 0.613E-06
CGA:  20    -0.381114643639E+03   -0.63972E-05   -0.63961E-05  9360   0.633E-04-0.697E-07
  24 F= -.38111464E+03 E0= -.38110849E+03  d E =-.279442E-01  mag=    58.0000
       N       E                     dE             d eps       ncg     rms          ort
SDA:   1    -0.381093497590E+03    0.21140E-01    0.00000E+00  9360   0.671E-01 0.000E+00
CGA:   2    -0.381105294458E+03   -0.11797E-01   -0.11772E-01  9360   0.717E-01 0.353E-03
CGA:   3    -0.381110806386E+03   -0.55119E-02   -0.54325E-02  9360   0.361E-01 0.744E-04
CGA:   4    -0.381113945269E+03   -0.31389E-02   -0.31302E-02  9360   0.148E-01-0.481E-04
CGA:   5    -0.381115420543E+03   -0.14753E-02   -0.14774E-02  9360   0.355E-02 0.531E-04
CGA:   6    -0.381115902495E+03   -0.48195E-03   -0.48226E-03  9360   0.168E-02-0.925E-05
CGA:   7    -0.381116011164E+03   -0.10867E-03   -0.10846E-03  9360   0.847E-03-0.140E-06
CGA:   8    -0.381116101068E+03   -0.89904E-04   -0.89915E-04  9360   0.227E-03 0.146E-05
CGA:   9    -0.381116134399E+03   -0.33332E-04   -0.33323E-04  9360   0.145E-03 0.298E-06
CGA:  10    -0.381116146082E+03   -0.11682E-04   -0.11706E-04  9360   0.739E-04 0.587E-06
CGA:  11    -0.381116152567E+03   -0.64853E-05   -0.64852E-05  9360   0.440E-04-0.531E-07
  25 F= -.38111615E+03 E0= -.38111000E+03  d E =-.150893E-02  mag=    58.0000
       N       E                     dE             d eps       ncg     rms          ort
SDA:   1    -0.381079934503E+03    0.36212E-01    0.00000E+00  9360   0.102E+00 0.000E+00
CGA:   2    -0.381100056292E+03   -0.20122E-01   -0.20200E-01  9360   0.176E+00-0.817E-03
CGA:   3    -0.381110231049E+03   -0.10175E-01   -0.10082E-01  9360   0.369E-01 0.556E-03
CGA:   4    -0.381115327806E+03   -0.50968E-02   -0.50930E-02  9360   0.154E-01 0.105E-03
CGA:   5    -0.381116761196E+03   -0.14334E-02   -0.14317E-02  9360   0.463E-02-0.217E-04
CGA:   6    -0.381117334696E+03   -0.57350E-03   -0.57337E-03  9360   0.269E-02 0.741E-05
CGA:   7    -0.381117482397E+03   -0.14770E-03   -0.14779E-03  9360   0.771E-03-0.248E-05
CGA:   8    -0.381117609446E+03   -0.12705E-03   -0.12701E-03  9360   0.242E-03 0.765E-06
CGA:   9    -0.381117638263E+03   -0.28818E-04   -0.28814E-04  9360   0.198E-03 0.628E-06
CGA:  10    -0.381117654142E+03   -0.15879E-04   -0.15906E-04  9360   0.948E-04 0.831E-06
CGA:  11    -0.381117662937E+03   -0.87942E-05   -0.87940E-05  9360   0.421E-04 0.284E-07
  26 F= -.38111766E+03 E0= -.38111151E+03  d E =-.151037E-02  mag=    58.0000
       N       E                     dE             d eps       ncg     rms          ort
SDA:   1    -0.380929465491E+03    0.18819E+00    0.00000E+00  9360   0.503E+00 0.000E+00
CGA:   2    -0.381035926306E+03   -0.10646E+00   -0.10435E+00  9360   0.723E+00 0.222E-01
CGA:   3    -0.381083878914E+03   -0.47953E-01   -0.44467E-01  9360   0.170E+00 0.230E-01
CGA:   4    -0.381109000201E+03   -0.25121E-01   -0.25157E-01  9360   0.662E-01-0.904E-03
CGA:   5    -0.381115127503E+03   -0.61273E-02   -0.61726E-02  9360   0.245E-01 0.504E-03
CGA:   6    -0.381117446854E+03   -0.23194E-02   -0.23185E-02  9360   0.143E-01-0.967E-05
CGA:   7    -0.381118401931E+03   -0.95508E-03   -0.94672E-03  9360   0.380E-02 0.363E-04
CGA:   8    -0.381118977619E+03   -0.57569E-03   -0.57535E-03  9360   0.138E-02 0.712E-05
CGA:   9    -0.381119135338E+03   -0.15772E-03   -0.15772E-03  9360   0.108E-02-0.174E-05
CGA:  10    -0.381119208644E+03   -0.73306E-04   -0.73425E-04  9360   0.368E-03 0.107E-05
CGA:  11    -0.381119260674E+03   -0.52030E-04   -0.51999E-04  9360   0.213E-03 0.842E-06
CGA:  12    -0.381119285179E+03   -0.24506E-04   -0.24506E-04  9360   0.125E-03 0.161E-06
CGA:  13    -0.381119299355E+03   -0.14176E-04   -0.14176E-04  9360   0.144E-03-0.248E-06
CGA:  14    -0.381119313026E+03   -0.13671E-04   -0.13682E-04  9360   0.425E-04 0.491E-06
CGA:  15    -0.381119322097E+03   -0.90703E-05   -0.90440E-05  9360   0.425E-04 0.264E-06
  27 F= -.38111932E+03 E0= -.38111318E+03  d E =-.165916E-02  mag=    58.0000
       N       E                     dE             d eps       ncg     rms          ort
SDA:   1    -0.380056132736E+03    0.10632E+01    0.00000E+00  9360   0.261E+01 0.000E+00
CGA:   2    -0.380843132971E+03   -0.78700E+00   -0.78777E+00  9360   0.149E+01-0.463E-02
CGA:   3    -0.381001669105E+03   -0.15854E+00   -0.16004E+00  9360   0.114E+01 0.303E-01
CGA:   4    -0.381072729250E+03   -0.71060E-01   -0.74696E-01  9360   0.271E+00-0.357E-01
CGA:   5    -0.381101123309E+03   -0.28394E-01   -0.28293E-01  9360   0.107E+00-0.287E-02
CGA:   6    -0.381111500520E+03   -0.10377E-01   -0.10408E-01  9360   0.348E-01 0.377E-03
CGA:   7    -0.381114756881E+03   -0.32564E-02   -0.32500E-02  9360   0.279E-01-0.566E-04
CGA:   8    -0.381117076129E+03   -0.23192E-02   -0.23147E-02  9360   0.519E-02-0.638E-05
CGA:   9    -0.381117894226E+03   -0.81810E-03   -0.81773E-03  9360   0.379E-02 0.658E-05
CGA:  10    -0.381118144109E+03   -0.24988E-03   -0.25003E-03  9360   0.146E-02 0.414E-06
CGA:  11    -0.381118324731E+03   -0.18062E-03   -0.18066E-03  9360   0.973E-03-0.311E-05
CGA:  12    -0.381118442164E+03   -0.11743E-03   -0.11742E-03  9360   0.533E-03 0.208E-05
CGA:  13    -0.381118498459E+03   -0.56294E-04   -0.56281E-04  9360   0.530E-03-0.454E-06
CGA:  14    -0.381118555899E+03   -0.57440E-04   -0.57444E-04  9360   0.235E-03 0.111E-05
CGA:  15    -0.381118594145E+03   -0.38247E-04   -0.38188E-04  9360   0.202E-03 0.114E-05
CGA:  16    -0.381118610207E+03   -0.16061E-04   -0.16099E-04  9360   0.123E-03 0.775E-06
CGA:  17    -0.381118626583E+03   -0.16376E-04   -0.16375E-04  9360   0.664E-04 0.166E-06
CGA:  18    -0.381118633674E+03   -0.70905E-05   -0.70945E-05  9360   0.376E-04 0.392E-06
  28 F= -.38111863E+03 E0= -.38111247E+03  d E =0.688423E-03  mag=    58.0000
       N       E                     dE             d eps       ncg     rms          ort
SDA:   1    -0.367935561292E+03    0.13183E+02    0.00000E+00  9360   0.361E+02 0.000E+00
CGA:   2    -0.375308731947E+03   -0.73732E+01   -0.69591E+01  9360   0.253E+02 0.601E+01
CGA:   3    -0.378414192451E+03   -0.31055E+01   -0.29929E+01  9360   0.191E+02-0.327E+01
CGA:   4    -0.380166722746E+03   -0.17525E+01   -0.16982E+01  9360   0.673E+01-0.519E-01
CGA:   5    -0.380479658569E+03   -0.31294E+00   -0.21178E+00  9360   0.414E+01 0.204E+01
CGA:   6    -0.380667014729E+03   -0.18736E+00   -0.15878E+00  9360   0.250E+01 0.737E+00
CGA:   7    -0.380753328799E+03   -0.86314E-01   -0.10104E+00  9360   0.316E+01-0.377E+00
CGA:   8    -0.380859510824E+03   -0.10618E+00   -0.11388E+00  9360   0.391E+01-0.111E+00
CGA:   9    -0.380938585595E+03   -0.79075E-01   -0.82522E-01  9360   0.891E+00-0.932E-01
CGA:  10    -0.380957383951E+03   -0.18798E-01   -0.19778E-01  9360   0.457E+00-0.374E-01
CGA:  11    -0.380983350086E+03   -0.25966E-01   -0.25558E-01  9360   0.807E+00 0.311E-02
CGA:  12    -0.381010849115E+03   -0.27499E-01   -0.28652E-01  9360   0.401E+00-0.218E-01
CGA:  13    -0.381022129494E+03   -0.11280E-01   -0.12479E-01  9360   0.230E+00-0.254E-01
CGA:  14    -0.381031826356E+03   -0.96969E-02   -0.98993E-02  9360   0.146E+00-0.123E-02
CGA:  15    -0.381038144672E+03   -0.63183E-02   -0.64340E-02  9360   0.135E+00-0.144E-02
CGA:  16    -0.381046020577E+03   -0.78759E-02   -0.78805E-02  9360   0.904E-01-0.818E-05
CGA:  17    -0.381049856757E+03   -0.38362E-02   -0.39593E-02  9360   0.613E-01-0.120E-02
CGA:  18    -0.381053528349E+03   -0.36716E-02   -0.36680E-02  9360   0.355E-01-0.299E-04
CGA:  19    -0.381054848196E+03   -0.13198E-02   -0.13062E-02  9360   0.164E-01 0.194E-03
CGA:  20    -0.381056643521E+03   -0.17953E-02   -0.17929E-02  9360   0.406E-01 0.647E-04
CGA:  21    -0.381058700601E+03   -0.20571E-02   -0.20708E-02  9360   0.991E-02 0.560E-05
CGA:  22    -0.381059060512E+03   -0.35991E-03   -0.36585E-03  9360   0.517E-02-0.790E-04
CGA:  23    -0.381059667945E+03   -0.60743E-03   -0.60703E-03  9360   0.911E-02 0.896E-05
CGA:  24    -0.381060072486E+03   -0.40454E-03   -0.40528E-03  9360   0.301E-02-0.548E-05
CGA:  25    -0.381060278906E+03   -0.20642E-03   -0.20631E-03  9360   0.346E-02-0.724E-05
CGA:  26    -0.381060482521E+03   -0.20362E-03   -0.20364E-03  9360   0.174E-02 0.799E-06
CGA:  27    -0.381060580693E+03   -0.98172E-04   -0.98296E-04  9360   0.149E-02 0.157E-05
CGA:  28    -0.381060687430E+03   -0.10674E-03   -0.10675E-03  9360   0.132E-02 0.184E-05
CGA:  29    -0.381060779210E+03   -0.91779E-04   -0.91764E-04  9360   0.128E-02-0.317E-05
CGA:  30    -0.381060849803E+03   -0.70594E-04   -0.70546E-04  9360   0.560E-03-0.915E-06
CGA:  31    -0.381060886448E+03   -0.36644E-04   -0.36638E-04  9360   0.684E-03 0.142E-06
SDA:  32    -0.381060946485E+03   -0.60038E-04   -0.60028E-04  9360   0.470E-03 0.536E-06
CGA:  33    -0.381060974525E+03   -0.28039E-04   -0.28021E-04  9360   0.287E-03-0.124E-05
CGA:  34    -0.381061016794E+03   -0.42269E-04   -0.42328E-04  9360   0.130E-03-0.798E-06
CGA:  35    -0.381061047374E+03   -0.30580E-04   -0.30748E-04  9360   0.717E-04-0.107E-05
CGA:  36    -0.381061057445E+03   -0.10071E-04   -0.10065E-04  9360   0.943E-04 0.931E-07
CGA:  37    -0.381061065355E+03   -0.79096E-05   -0.79075E-05  9360   0.598E-04-0.612E-06
CGA:  38    -0.381061077017E+03   -0.11662E-04   -0.11721E-04  9360   0.720E-04-0.533E-06
CGA:  39    -0.381061084846E+03   -0.78291E-05   -0.78408E-05  9360   0.184E-04-0.660E-06
  29 F= -.38106108E+03 E0= -.38105463E+03  d E =0.575488E-01  mag=    58.0000
       N       E                     dE             d eps       ncg     rms          ort
SDA:   1    -0.380727356215E+03    0.33372E+00    0.00000E+00  9360   0.107E+01 0.000E+00
CGA:   2    -0.380951341372E+03   -0.22399E+00   -0.22398E+00  9360   0.520E+00 0.540E-04
CGA:   3    -0.381047320149E+03   -0.95979E-01   -0.95924E-01  9360   0.207E+00 0.639E-03
CGA:   4    -0.381065690530E+03   -0.18370E-01   -0.18223E-01  9360   0.180E+00-0.211E-02
CGA:   5    -0.381078495368E+03   -0.12805E-01   -0.12848E-01  9360   0.298E-01-0.315E-04
CGA:   6    -0.381082802259E+03   -0.43069E-02   -0.43001E-02  9360   0.146E-01 0.133E-03
CGA:   7    -0.381084104226E+03   -0.13020E-02   -0.12985E-02  9360   0.593E-02-0.520E-04
CGA:   8    -0.381084696219E+03   -0.59199E-03   -0.59185E-03  9360   0.526E-02-0.915E-05
CGA:   9    -0.381085082686E+03   -0.38647E-03   -0.38759E-03  9360   0.110E-02 0.706E-05
CGA:  10    -0.381085312493E+03   -0.22981E-03   -0.22965E-03  9360   0.692E-03 0.149E-05
CGA:  11    -0.381085366939E+03   -0.54446E-04   -0.54561E-04  9360   0.489E-03 0.131E-05
CGA:  12    -0.381085420361E+03   -0.53422E-04   -0.53422E-04  9360   0.313E-03-0.548E-06
CGA:  13    -0.381085454402E+03   -0.34041E-04   -0.34041E-04  9360   0.133E-03-0.390E-06
CGA:  14    -0.381085474904E+03   -0.20502E-04   -0.20505E-04  9360   0.143E-03-0.790E-07
CGA:  15    -0.381085485552E+03   -0.10648E-04   -0.10675E-04  9360   0.765E-04 0.582E-06
CGA:  16    -0.381085494719E+03   -0.91670E-05   -0.91637E-05  9360   0.312E-04 0.326E-06
  30 F= -.38108549E+03 E0= -.38107905E+03  d E =-.244099E-01  mag=    58.0000
       N       E                     dE             d eps       ncg     rms          ort
SDA:   1    -0.381062212157E+03    0.23273E-01    0.00000E+00  9360   0.146E+00 0.000E+00
CGA:   2    -0.381071767712E+03   -0.95556E-02   -0.97615E-02  9360   0.117E+00-0.104E-02
CGA:   3    -0.381086264526E+03   -0.14497E-01   -0.14506E-01  9360   0.289E-01-0.374E-03
CGA:   4    -0.381091588499E+03   -0.53240E-02   -0.53213E-02  9360   0.127E-01 0.342E-04
CGA:   5    -0.381092561001E+03   -0.97250E-03   -0.97079E-03  9360   0.865E-02-0.277E-05
CGA:   6    -0.381093252989E+03   -0.69199E-03   -0.69270E-03  9360   0.162E-02 0.305E-05
CGA:   7    -0.381093492089E+03   -0.23910E-03   -0.23919E-03  9360   0.794E-03-0.237E-05
CGA:   8    -0.381093550992E+03   -0.58903E-04   -0.59037E-04  9360   0.528E-03 0.679E-06
CGA:   9    -0.381093605763E+03   -0.54771E-04   -0.54773E-04  9360   0.170E-03 0.236E-06
CGA:  10    -0.381093626703E+03   -0.20940E-04   -0.20930E-04  9360   0.140E-03 0.903E-06
CGA:  11    -0.381093641519E+03   -0.14816E-04   -0.14820E-04  9360   0.895E-04 0.580E-06
CGA:  12    -0.381093648796E+03   -0.72765E-05   -0.72991E-05  9360   0.541E-04 0.651E-06
  31 F= -.38109365E+03 E0= -.38108722E+03  d E =-.815408E-02  mag=    58.0000
       N       E                     dE             d eps       ncg     rms          ort
SDA:   1    -0.379682580070E+03    0.14111E+01    0.00000E+00  9360   0.450E+01 0.000E+00
CGA:   2    -0.380496417569E+03   -0.81384E+00   -0.82593E+00  9360   0.390E+01-0.138E+00
CGA:   3    -0.380843881642E+03   -0.34746E+00   -0.35557E+00  9360   0.146E+01 0.100E+00
CGA:   4    -0.381015747671E+03   -0.17187E+00   -0.17185E+00  9360   0.100E+01 0.295E-01
CGA:   5    -0.381084522703E+03   -0.68775E-01   -0.61471E-01  9360   0.207E+00 0.445E-01
CGA:   6    -0.381118866711E+03   -0.34344E-01   -0.34348E-01  9360   0.539E-01-0.772E-04
CGA:   7    -0.381127615275E+03   -0.87486E-02   -0.87301E-02  9360   0.220E-01 0.295E-03
CGA:   8    -0.381130081601E+03   -0.24663E-02   -0.24656E-02  9360   0.220E-01-0.681E-04
CGA:   9    -0.381131534489E+03   -0.14529E-02   -0.14593E-02  9360   0.492E-02-0.235E-04
CGA:  10    -0.381132615297E+03   -0.10808E-02   -0.10790E-02  9360   0.188E-02 0.173E-04
CGA:  11    -0.381133057820E+03   -0.44252E-03   -0.44263E-03  9360   0.144E-02-0.911E-06
CGA:  12    -0.381133253597E+03   -0.19578E-03   -0.19573E-03  9360   0.955E-03 0.262E-05
CGA:  13    -0.381133403512E+03   -0.14991E-03   -0.14988E-03  9360   0.543E-03 0.782E-06
CGA:  14    -0.381133507041E+03   -0.10353E-03   -0.10341E-03  9360   0.262E-03 0.175E-05
CGA:  15    -0.381133538189E+03   -0.31148E-04   -0.31165E-04  9360   0.389E-03 0.137E-05
CGA:  16    -0.381133575292E+03   -0.37103E-04   -0.37119E-04  9360   0.925E-04 0.774E-06
CGA:  17    -0.381133595318E+03   -0.20025E-04   -0.19974E-04  9360   0.767E-04 0.590E-06
CGA:  18    -0.381133606603E+03   -0.11286E-04   -0.11289E-04  9360   0.621E-04-0.216E-06
CGA:  19    -0.381133612964E+03   -0.63606E-05   -0.63606E-05  9360   0.457E-04-0.354E-07
  32 F= -.38113361E+03 E0= -.38112733E+03  d E =-.399642E-01  mag=    58.0000
       N       E                     dE             d eps       ncg     rms          ort
SDA:   1    -0.381089296142E+03    0.44310E-01    0.00000E+00  9360   0.152E+00 0.000E+00
CGA:   2    -0.381105898840E+03   -0.16603E-01   -0.16762E-01  9360   0.136E+00 0.269E-02
CGA:   3    -0.381117997466E+03   -0.12099E-01   -0.12131E-01  9360   0.687E-01-0.101E-04
CGA:   4    -0.381123837736E+03   -0.58403E-02   -0.57676E-02  9360   0.277E-01-0.413E-05
CGA:   5    -0.381127587531E+03   -0.37498E-02   -0.37492E-02  9360   0.672E-02 0.314E-04
CGA:   6    -0.381128520367E+03   -0.93284E-03   -0.93295E-03  9360   0.287E-02-0.565E-05
CGA:   7    -0.381128738745E+03   -0.21838E-03   -0.21945E-03  9360   0.172E-02-0.140E-05
CGA:   8    -0.381128883555E+03   -0.14481E-03   -0.14484E-03  9360   0.537E-03-0.245E-07
CGA:   9    -0.381128950506E+03   -0.66951E-04   -0.66955E-04  9360   0.281E-03-0.414E-06
CGA:  10    -0.381128985196E+03   -0.34689E-04   -0.34689E-04  9360   0.115E-03-0.225E-06
CGA:  11    -0.381128996911E+03   -0.11715E-04   -0.11715E-04  9360   0.126E-03-0.100E-06
CGA:  12    -0.381129009093E+03   -0.12183E-04   -0.12162E-04  9360   0.345E-04-0.781E-06
CGA:  13    -0.381129015177E+03   -0.60833E-05   -0.60763E-05  9360   0.322E-04 0.112E-06
  33 F= -.38112902E+03 E0= -.38112270E+03  d E =0.459779E-02  mag=    58.0000
       N       E                     dE             d eps       ncg     rms          ort
SDA:   1    -0.381112133562E+03    0.16876E-01    0.00000E+00  9360   0.580E-01 0.000E+00
CGA:   2    -0.381119559115E+03   -0.74256E-02   -0.74385E-02  9360   0.938E-01-0.109E-02
CGA:   3    -0.381126996387E+03   -0.74373E-02   -0.74622E-02  9360   0.234E-01-0.162E-04
CGA:   4    -0.381129492834E+03   -0.24964E-02   -0.25001E-02  9360   0.109E-01 0.108E-03
CGA:   5    -0.381130682656E+03   -0.11898E-02   -0.11897E-02  9360   0.243E-02-0.595E-05
CGA:   6    -0.381130968799E+03   -0.28614E-03   -0.28615E-03  9360   0.202E-02 0.291E-05
CGA:   7    -0.381131085404E+03   -0.11661E-03   -0.11643E-03  9360   0.398E-03-0.655E-06
CGA:   8    -0.381131149267E+03   -0.63863E-04   -0.63867E-04  9360   0.168E-03-0.433E-07
CGA:   9    -0.381131169131E+03   -0.19864E-04   -0.19864E-04  9360   0.717E-04 0.677E-06
CGA:  10    -0.381131178493E+03   -0.93622E-05   -0.93556E-05  9360   0.300E-04 0.573E-06
  34 F= -.38113118E+03 E0= -.38112488E+03  d E =-.216332E-02  mag=    58.0000
       N       E                     dE             d eps       ncg     rms          ort
SDA:   1    -0.380594170052E+03    0.53700E+00    0.00000E+00  9360   0.136E+01 0.000E+00
CGA:   2    -0.380950326934E+03   -0.35616E+00   -0.35843E+00  9360   0.140E+01-0.158E-01
CGA:   3    -0.381043969187E+03   -0.93642E-01   -0.10533E+00  9360   0.723E+00-0.455E-01
CGA:   4    -0.381099457431E+03   -0.55488E-01   -0.56033E-01  9360   0.225E+00-0.156E-02
CGA:   5    -0.381120351953E+03   -0.20895E-01   -0.20613E-01  9360   0.653E-01-0.160E-02
CGA:   6    -0.381129573141E+03   -0.92212E-02   -0.92157E-02  9360   0.156E-01 0.164E-03
CGA:   7    -0.381131805641E+03   -0.22325E-02   -0.22346E-02  9360   0.111E-01-0.637E-04
CGA:   8    -0.381132592776E+03   -0.78714E-03   -0.78854E-03  9360   0.464E-02-0.670E-05
CGA:   9    -0.381132989097E+03   -0.39632E-03   -0.39734E-03  9360   0.196E-02 0.646E-05
CGA:  10    -0.381133245257E+03   -0.25616E-03   -0.25619E-03  9360   0.599E-03-0.779E-06
CGA:  11    -0.381133338407E+03   -0.93150E-04   -0.93085E-04  9360   0.473E-03 0.145E-05
CGA:  12    -0.381133377289E+03   -0.38883E-04   -0.38814E-04  9360   0.305E-03-0.629E-06
CGA:  13    -0.381133410658E+03   -0.33369E-04   -0.33368E-04  9360   0.163E-03 0.243E-06
CGA:  14    -0.381133433176E+03   -0.22518E-04   -0.22501E-04  9360   0.902E-04 0.748E-06
CGA:  15    -0.381133447726E+03   -0.14550E-04   -0.14508E-04  9360   0.812E-04 0.999E-06
CGA:  16    -0.381133453501E+03   -0.57749E-05   -0.57789E-05  9360   0.405E-04 0.135E-06
  35 F= -.38113345E+03 E0= -.38112717E+03  d E =-.227501E-02  mag=    58.0000
       N       E                     dE             d eps       ncg     rms          ort
SDA:   1    -0.380016031712E+03    0.11174E+01    0.00000E+00  9360   0.286E+01 0.000E+00
CGA:   2    -0.380763875416E+03   -0.74784E+00   -0.74473E+00  9360   0.189E+01 0.228E-01
CGA:   3    -0.380994241989E+03   -0.23037E+00   -0.22926E+00  9360   0.100E+01-0.717E-01
CGA:   4    -0.381075542927E+03   -0.81301E-01   -0.83673E-01  9360   0.363E+00 0.279E-02
CGA:   5    -0.381099206513E+03   -0.23664E-01   -0.25270E-01  9360   0.170E+00-0.955E-02
CGA:   6    -0.381116268443E+03   -0.17062E-01   -0.16985E-01  9360   0.316E-01-0.124E-02
CGA:   7    -0.381121532153E+03   -0.52637E-02   -0.52502E-02  9360   0.217E-01 0.229E-03
CGA:   8    -0.381122846873E+03   -0.13147E-02   -0.12926E-02  9360   0.739E-02 0.193E-03
CGA:   9    -0.381123838932E+03   -0.99206E-03   -0.99210E-03  9360   0.336E-02-0.102E-05
CGA:  10    -0.381124197674E+03   -0.35874E-03   -0.35904E-03  9360   0.169E-02 0.736E-05
CGA:  11    -0.381124372154E+03   -0.17448E-03   -0.17452E-03  9360   0.132E-02 0.122E-05
CGA:  12    -0.381124496241E+03   -0.12409E-03   -0.12391E-03  9360   0.724E-03-0.211E-05
CGA:  13    -0.381124595860E+03   -0.99619E-04   -0.99563E-04  9360   0.357E-03 0.236E-05
CGA:  14    -0.381124651456E+03   -0.55596E-04   -0.55597E-04  9360   0.538E-03 0.176E-06
CGA:  15    -0.381124693501E+03   -0.42045E-04   -0.42135E-04  9360   0.143E-03 0.162E-05
CGA:  16    -0.381124719645E+03   -0.26144E-04   -0.26111E-04  9360   0.153E-03 0.482E-06
CGA:  17    -0.381124734667E+03   -0.15023E-04   -0.15030E-04  9360   0.725E-04 0.377E-06
CGA:  18    -0.381124740919E+03   -0.62511E-05   -0.62414E-05  9360   0.506E-04-0.192E-06
  36 F= -.38112474E+03 E0= -.38111838E+03  d E =0.871258E-02  mag=    58.0000
       N       E                     dE             d eps       ncg     rms          ort
SDA:   1    -0.361990764037E+03    0.19134E+02    0.00000E+00  9360   0.618E+02 0.000E+00
CGA:   2    -0.370527464256E+03   -0.85367E+01   -0.83118E+01  9360   0.462E+02 0.104E+02
CGA:   3    -0.376328105902E+03   -0.58006E+01   -0.56181E+01  9360   0.335E+02-0.696E+01
CGA:   4    -0.379422684835E+03   -0.30946E+01   -0.28750E+01  9360   0.846E+01-0.228E+01
CGA:   5    -0.380173912419E+03   -0.75123E+00   -0.47695E+00  9360   0.323E+01 0.279E+01
CGA:   6    -0.380527769623E+03   -0.35386E+00   -0.35753E+00  9360   0.496E+01 0.235E-01
CGA:   7    -0.380758152392E+03   -0.23038E+00   -0.24969E+00  9360   0.215E+01-0.209E+00
CGA:   8    -0.380829986618E+03   -0.71834E-01   -0.71448E-01  9360   0.695E+00 0.726E-01
CGA:   9    -0.380885463707E+03   -0.55477E-01   -0.55585E-01  9360   0.852E+00 0.186E-02
CGA:  10    -0.380932633917E+03   -0.47170E-01   -0.48172E-01  9360   0.646E+00-0.936E-02
CGA:  11    -0.380970826940E+03   -0.38193E-01   -0.39013E-01  9360   0.252E+00-0.290E-03
CGA:  12    -0.380986273663E+03   -0.15447E-01   -0.14969E-01  9360   0.152E+00 0.251E-02
CGA:  13    -0.380996327951E+03   -0.10054E-01   -0.10184E-01  9360   0.167E+00-0.176E-03
CGA:  14    -0.381009365935E+03   -0.13038E-01   -0.13094E-01  9360   0.104E+00 0.752E-03
CGA:  15    -0.381015231085E+03   -0.58652E-02   -0.57551E-02  9360   0.648E-01 0.578E-03
CGA:  16    -0.381019829003E+03   -0.45979E-02   -0.46204E-02  9360   0.481E-01 0.170E-03
CGA:  17    -0.381022921920E+03   -0.30929E-02   -0.30804E-02  9360   0.284E-01-0.256E-04
CGA:  18    -0.381025209179E+03   -0.22873E-02   -0.22970E-02  9360   0.314E-01 0.327E-03
CGA:  19    -0.381027445110E+03   -0.22359E-02   -0.22385E-02  9360   0.118E-01 0.345E-04
CGA:  20    -0.381028168433E+03   -0.72332E-03   -0.72595E-03  9360   0.840E-02 0.582E-05
CGA:  21    -0.381029071299E+03   -0.90287E-03   -0.90177E-03  9360   0.853E-02 0.403E-04
CGA:  22    -0.381029602253E+03   -0.53095E-03   -0.53126E-03  9360   0.339E-02 0.267E-05
CGA:  23    -0.381029886300E+03   -0.28405E-03   -0.28414E-03  9360   0.328E-02 0.100E-04
CGA:  24    -0.381030158785E+03   -0.27248E-03   -0.27250E-03  9360   0.206E-02 0.118E-05
CGA:  25    -0.381030345371E+03   -0.18659E-03   -0.18657E-03  9360   0.194E-02 0.338E-05
CGA:  26    -0.381030501135E+03   -0.15576E-03   -0.15578E-03  9360   0.128E-02 0.154E-05
CGA:  27    -0.381030617546E+03   -0.11641E-03   -0.11640E-03  9360   0.117E-02 0.148E-05
CGA:  28    -0.381030722701E+03   -0.10516E-03   -0.10516E-03  9360   0.695E-03-0.329E-05
CGA:  29    -0.381030775647E+03   -0.52946E-04   -0.52898E-04  9360   0.650E-03-0.211E-05
CGA:  30    -0.381030860260E+03   -0.84613E-04   -0.84712E-04  9360   0.611E-03-0.241E-05
CGA:  31    -0.381030898276E+03   -0.38016E-04   -0.37980E-04  9360   0.268E-03-0.128E-05
SDA:  32    -0.381030925028E+03   -0.26752E-04   -0.26753E-04  9360   0.309E-03-0.208E-06
CGA:  33    -0.381030946126E+03   -0.21097E-04   -0.21070E-04  9360   0.132E-03-0.740E-06
CGA:  34    -0.381030964928E+03   -0.18802E-04   -0.18787E-04  9360   0.213E-03 0.252E-06
CGA:  35    -0.381030981425E+03   -0.16497E-04   -0.16490E-04  9360   0.513E-04-0.760E-06
CGA:  36    -0.381030989698E+03   -0.82730E-05   -0.82975E-05  9360   0.283E-04-0.341E-06
  37 F= -.38103099E+03 E0= -.38102412E+03  d E =0.937512E-01  mag=    58.0000
       N       E                     dE             d eps       ncg     rms          ort
SDA:   1    -0.379896850268E+03    0.11341E+01    0.00000E+00  9360   0.384E+01 0.000E+00
CGA:   2    -0.380461121000E+03   -0.56427E+00   -0.56351E+00  9360   0.499E+01 0.430E-01
CGA:   3    -0.380783775408E+03   -0.32265E+00   -0.30924E+00  9360   0.131E+01-0.597E-01
CGA:   4    -0.380975511789E+03   -0.19174E+00   -0.18803E+00  9360   0.677E+00 0.673E-01
CGA:   5    -0.381034861621E+03   -0.59350E-01   -0.57279E-01  9360   0.272E+00-0.238E-01
[...]
 108 F= -.38098667E+03 E0= -.38097923E+03  d E =0.293416E+00  mag=    58.0000
       N       E                     dE             d eps       ncg     rms          ort
SDA:   1    -0.373741493530E+03    0.72452E+01    0.00000E+00  9360   0.265E+02 0.000E+00
CGA:   2    -0.377398794777E+03   -0.36573E+01   -0.35700E+01  9360   0.178E+02 0.187E+01
CGA:   3    -0.379244792875E+03   -0.18460E+01   -0.18167E+01  9360   0.107E+02-0.102E+01
CGA:   4    -0.380645576652E+03   -0.14008E+01   -0.14777E+01  9360   0.456E+01-0.174E+01
CGA:   5    -0.380895208603E+03   -0.24963E+00   -0.25859E+00  9360   0.250E+01 0.655E-02
CGA:   6    -0.381097168802E+03   -0.20196E+00   -0.20652E+00  9360   0.978E+00 0.438E-01
CGA:   7    -0.381162426396E+03   -0.65258E-01   -0.69109E-01  9360   0.503E+00 0.803E-03
CGA:   8    -0.381208894879E+03   -0.46468E-01   -0.46487E-01  9360   0.221E+00 0.539E-03
CGA:   9    -0.381227033552E+03   -0.18139E-01   -0.18409E-01  9360   0.111E+00 0.435E-02
CGA:  10    -0.381237513547E+03   -0.10480E-01   -0.10566E-01  9360   0.514E-01 0.500E-02
CGA:  11    -0.381244192036E+03   -0.66785E-02   -0.66209E-02  9360   0.289E-01 0.169E-02
CGA:  12    -0.381246707457E+03   -0.25154E-02   -0.25410E-02  9360   0.151E-01 0.515E-03
CGA:  13    -0.381248668261E+03   -0.19608E-02   -0.19588E-02  9360   0.712E-02 0.582E-04
CGA:  14    -0.381249450808E+03   -0.78255E-03   -0.78347E-03  9360   0.493E-02-0.658E-04
CGA:  15    -0.381250061361E+03   -0.61055E-03   -0.60876E-03  9360   0.200E-02 0.569E-04
CGA:  16    -0.381250344949E+03   -0.28359E-03   -0.28293E-03  9360   0.164E-02 0.141E-04
CGA:  17    -0.381250517660E+03   -0.17271E-03   -0.17272E-03  9360   0.764E-03 0.821E-05
CGA:  18    -0.381250619096E+03   -0.10144E-03   -0.10149E-03  9360   0.428E-03-0.175E-05
CGA:  19    -0.381250675140E+03   -0.56044E-04   -0.56026E-04  9360   0.294E-03 0.443E-06
CGA:  20    -0.381250704966E+03   -0.29826E-04   -0.29815E-04  9360   0.139E-03-0.128E-05
CGA:  21    -0.381250728015E+03   -0.23049E-04   -0.22990E-04  9360   0.103E-03 0.939E-06
CGA:  22    -0.381250739354E+03   -0.11339E-04   -0.11339E-04  9360   0.670E-04-0.204E-06
CGA:  23    -0.381250749354E+03   -0.10000E-04   -0.99728E-05  9360   0.438E-04 0.694E-06
CGA:  24    -0.381250755022E+03   -0.56678E-05   -0.56719E-05  9360   0.328E-04-0.236E-06
 109 F= -.38125076E+03 E0= -.38124370E+03  d E =-.264082E+00  mag=    58.0000
       N       E                     dE             d eps       ncg     rms          ort
SDA:   1    -0.379735941915E+03    0.15148E+01    0.00000E+00  9360   0.497E+01 0.000E+00
CGA:   2    -0.380606075917E+03   -0.87013E+00   -0.85592E+00  9360   0.250E+01 0.196E+00
CGA:   3    -0.380957518084E+03   -0.35144E+00   -0.39347E+00  9360   0.437E+01-0.870E+00
CGA:   4    -0.381118358604E+03   -0.16084E+00   -0.16559E+00  9360   0.142E+01-0.464E-01
CGA:   5    -0.381183506092E+03   -0.65147E-01   -0.90816E-01  9360   0.631E+00-0.101E+00
CGA:   6    -0.381247628035E+03   -0.64122E-01   -0.64064E-01  9360   0.179E+00-0.749E-02
CGA:   7    -0.381262750281E+03   -0.15122E-01   -0.14288E-01  9360   0.157E+00-0.291E-02
CGA:   8    -0.381277783391E+03   -0.15033E-01   -0.15038E-01  9360   0.467E-01 0.131E-03
CGA:   9    -0.381281038593E+03   -0.32552E-02   -0.33986E-02  9360   0.328E-01-0.566E-04
CGA:  10    -0.381285239152E+03   -0.42006E-02   -0.42023E-02  9360   0.146E-01-0.528E-04
CGA:  11    -0.381286424342E+03   -0.11852E-02   -0.11706E-02  9360   0.888E-02-0.692E-04
CGA:  12    -0.381287350304E+03   -0.92596E-03   -0.92614E-03  9360   0.509E-02 0.278E-04
CGA:  13    -0.381287880532E+03   -0.53023E-03   -0.53014E-03  9360   0.229E-02-0.941E-05
CGA:  14    -0.381288078641E+03   -0.19811E-03   -0.19779E-03  9360   0.148E-02-0.420E-05
CGA:  15    -0.381288276717E+03   -0.19808E-03   -0.19791E-03  9360   0.961E-03 0.511E-05
CGA:  16    -0.381288358688E+03   -0.81970E-04   -0.82011E-04  9360   0.398E-03 0.101E-05
CGA:  17    -0.381288410830E+03   -0.52142E-04   -0.52198E-04  9360   0.430E-03-0.201E-05
CGA:  18    -0.381288450731E+03   -0.39901E-04   -0.39892E-04  9360   0.152E-03-0.615E-06
CGA:  19    -0.381288471279E+03   -0.20548E-04   -0.20542E-04  9360   0.131E-03 0.160E-06
CGA:  20    -0.381288482862E+03   -0.11583E-04   -0.11573E-04  9360   0.825E-04-0.308E-06
CGA:  21    -0.381288495696E+03   -0.12833E-04   -0.12812E-04  9360   0.393E-04 0.449E-06
CGA:  22    -0.381288499471E+03   -0.37753E-05   -0.37833E-05  9360   0.368E-04 0.522E-06
 110 F= -.38128850E+03 E0= -.38128159E+03  d E =-.377444E-01  mag=    58.0000
       N       E                     dE             d eps       ncg     rms          ort
SDA:   1    -0.380980663889E+03    0.30783E+00    0.00000E+00  9360   0.984E+00 0.000E+00
CGA:   2    -0.381160549993E+03   -0.17989E+00   -0.17920E+00  9360   0.586E+00 0.857E-02
CGA:   3    -0.381233207994E+03   -0.72658E-01   -0.73375E-01  9360   0.533E+00-0.439E-01
CGA:   4    -0.381273051890E+03   -0.39844E-01   -0.41164E-01  9360   0.106E+00 0.496E-02
CGA:   5    -0.381288813995E+03   -0.15762E-01   -0.15750E-01  9360   0.418E-01 0.264E-03
CGA:   6    -0.381292572326E+03   -0.37583E-02   -0.37301E-02  9360   0.200E-01-0.223E-03
CGA:   7    -0.381294544137E+03   -0.19718E-02   -0.19791E-02  9360   0.699E-02 0.179E-03
CGA:   8    -0.381295426986E+03   -0.88285E-03   -0.88269E-03  9360   0.258E-02 0.892E-05
CGA:   9    -0.381295794317E+03   -0.36733E-03   -0.36754E-03  9360   0.189E-02-0.477E-05
CGA:  10    -0.381295954654E+03   -0.16034E-03   -0.16075E-03  9360   0.623E-03 0.393E-05
CGA:  11    -0.381296057039E+03   -0.10239E-03   -0.10245E-03  9360   0.497E-03-0.899E-06
CGA:  12    -0.381296106849E+03   -0.49810E-04   -0.49820E-04  9360   0.190E-03 0.765E-06
CGA:  13    -0.381296143589E+03   -0.36739E-04   -0.36705E-04  9360   0.149E-03 0.454E-06
CGA:  14    -0.381296161497E+03   -0.17909E-04   -0.17909E-04  9360   0.965E-04-0.433E-06
CGA:  15    -0.381296172083E+03   -0.10586E-04   -0.10590E-04  9360   0.612E-04 0.344E-06
CGA:  16    -0.381296182565E+03   -0.10482E-04   -0.10497E-04  9360   0.232E-04-0.293E-06
CGA:  17    -0.381296186762E+03   -0.41966E-05   -0.41870E-05  9360   0.235E-04 0.161E-06
 111 F= -.38129619E+03 E0= -.38128929E+03  d E =-.768729E-02  mag=    58.0000
       N       E                     dE             d eps       ncg     rms          ort
SDA:   1    -0.381153736023E+03    0.14245E+00    0.00000E+00  9360   0.444E+00 0.000E+00
CGA:   2    -0.381244727795E+03   -0.90992E-01   -0.90936E-01  9360   0.233E+00 0.622E-03
CGA:   3    -0.381281974664E+03   -0.37247E-01   -0.37350E-01  9360   0.124E+00-0.225E-02
CGA:   4    -0.381293062469E+03   -0.11088E-01   -0.11214E-01  9360   0.483E-01 0.280E-03
CGA:   5    -0.381298459615E+03   -0.53971E-02   -0.53794E-02  9360   0.145E-01-0.384E-03
CGA:   6    -0.381300041807E+03   -0.15822E-02   -0.15894E-02  9360   0.583E-02 0.155E-03
CGA:   7    -0.381300723619E+03   -0.68181E-03   -0.68095E-03  9360   0.249E-02-0.352E-04
CGA:   8    -0.381301015798E+03   -0.29218E-03   -0.29228E-03  9360   0.964E-03 0.731E-05
CGA:   9    -0.381301171758E+03   -0.15596E-03   -0.15603E-03  9360   0.473E-03-0.147E-05
CGA:  10    -0.381301225104E+03   -0.53346E-04   -0.53407E-04  9360   0.340E-03 0.234E-05
CGA:  11    -0.381301272952E+03   -0.47848E-04   -0.47867E-04  9360   0.147E-03-0.886E-06
CGA:  12    -0.381301297287E+03   -0.24335E-04   -0.24317E-04  9360   0.125E-03 0.419E-06
CGA:  13    -0.381301314258E+03   -0.16971E-04   -0.16972E-04  9360   0.740E-04-0.212E-06
CGA:  14    -0.381301324968E+03   -0.10710E-04   -0.10706E-04  9360   0.456E-04 0.240E-06
CGA:  15    -0.381301332005E+03   -0.70368E-05   -0.70436E-05  9360   0.307E-04-0.262E-06
 112 F= -.38130133E+03 E0= -.38129437E+03  d E =-.514524E-02  mag=    58.0000
       N       E                     dE             d eps       ncg     rms          ort
SDA:   1    -0.381258728016E+03    0.42597E-01    0.00000E+00  9360   0.134E+00 0.000E+00
CGA:   2    -0.381287466221E+03   -0.28738E-01   -0.28739E-01  9360   0.679E-01-0.792E-05
CGA:   3    -0.381298719238E+03   -0.11253E-01   -0.11251E-01  9360   0.313E-01 0.497E-04
CGA:   4    -0.381301890320E+03   -0.31711E-02   -0.31737E-02  9360   0.135E-01 0.138E-04
CGA:   5    -0.381303269513E+03   -0.13792E-02   -0.13764E-02  9360   0.377E-02-0.181E-04
CGA:   6    -0.381303696858E+03   -0.42734E-03   -0.42779E-03  9360   0.171E-02 0.930E-05
CGA:   7    -0.381303884645E+03   -0.18779E-03   -0.18747E-03  9360   0.708E-03-0.486E-05
CGA:   8    -0.381303967626E+03   -0.82981E-04   -0.83031E-04  9360   0.291E-03 0.185E-05
CGA:   9    -0.381304014797E+03   -0.47172E-04   -0.47190E-04  9360   0.122E-03-0.436E-06
CGA:  10    -0.381304033663E+03   -0.18866E-04   -0.18846E-04  9360   0.113E-03 0.676E-06
CGA:  11    -0.381304046536E+03   -0.12873E-04   -0.12863E-04  9360   0.498E-04-0.318E-06
CGA:  12    -0.381304055136E+03   -0.86004E-05   -0.85892E-05  9360   0.448E-04 0.258E-06
 113 F= -.38130406E+03 E0= -.38129706E+03  d E =-.272313E-02  mag=    58.0000
       N       E                     dE             d eps       ncg     rms          ort
SDA:   1    -0.381224741120E+03    0.79305E-01    0.00000E+00  9360   0.265E+00 0.000E+00
CGA:   2    -0.381262920290E+03   -0.38179E-01   -0.38433E-01  9360   0.332E+00-0.123E-01
CGA:   3    -0.381288448148E+03   -0.25528E-01   -0.26741E-01  9360   0.877E-01-0.212E-02
CGA:   4    -0.381302718069E+03   -0.14270E-01   -0.14269E-01  9360   0.264E-01 0.204E-04
CGA:   5    -0.381305527954E+03   -0.28099E-02   -0.28032E-02  9360   0.158E-01-0.648E-04
CGA:   6    -0.381306888170E+03   -0.13602E-02   -0.13676E-02  9360   0.310E-02-0.313E-05
CGA:   7    -0.381307356666E+03   -0.46850E-03   -0.46894E-03  9360   0.198E-02-0.141E-04
CGA:   8    -0.381307530617E+03   -0.17395E-03   -0.17402E-03  9360   0.568E-03 0.340E-07
CGA:   9    -0.381307636352E+03   -0.10574E-03   -0.10573E-03  9360   0.245E-03 0.196E-06
CGA:  10    -0.381307669473E+03   -0.33121E-04   -0.33120E-04  9360   0.170E-03 0.319E-06
CGA:  11    -0.381307692358E+03   -0.22885E-04   -0.22882E-04  9360   0.118E-03 0.868E-06
CGA:  12    -0.381307705656E+03   -0.13298E-04   -0.13290E-04  9360   0.614E-04-0.241E-06
CGA:  13    -0.381307718605E+03   -0.12950E-04   -0.12952E-04  9360   0.496E-04-0.316E-07
CGA:  14    -0.381307724130E+03   -0.55250E-05   -0.55166E-05  9360   0.284E-04-0.347E-06
 114 F= -.38130772E+03 E0= -.38130072E+03  d E =-.366899E-02  mag=    58.0000
       N       E                     dE             d eps       ncg     rms          ort
SDA:   1    -0.381273827015E+03    0.33892E-01    0.00000E+00  9360   0.100E+00 0.000E+00
CGA:   2    -0.381297359379E+03   -0.23532E-01   -0.23565E-01  9360   0.641E-01-0.304E-03
CGA:   3    -0.381306088198E+03   -0.87288E-02   -0.87322E-02  9360   0.233E-01 0.352E-03
CGA:   4    -0.381309114833E+03   -0.30266E-02   -0.30257E-02  9360   0.685E-02-0.288E-04
CGA:   5    -0.381309838864E+03   -0.72403E-03   -0.72330E-03  9360   0.277E-02-0.520E-05
CGA:   6    -0.381310139238E+03   -0.30037E-03   -0.30047E-03  9360   0.810E-03-0.148E-05
CGA:   7    -0.381310270887E+03   -0.13165E-03   -0.13166E-03  9360   0.268E-03-0.565E-06
CGA:   8    -0.381310308586E+03   -0.37699E-04   -0.37701E-04  9360   0.175E-03-0.413E-06
CGA:   9    -0.381310324989E+03   -0.16403E-04   -0.16466E-04  9360   0.731E-04 0.768E-06
CGA:  10    -0.381310336462E+03   -0.11473E-04   -0.11470E-04  9360   0.449E-04 0.167E-06
CGA:  11    -0.381310342921E+03   -0.64583E-05   -0.64567E-05  9360   0.311E-04 0.217E-06
 115 F= -.38131034E+03 E0= -.38130336E+03  d E =-.261879E-02  mag=    58.0000
       N       E                     dE             d eps       ncg     rms          ort
SDA:   1    -0.371843241377E+03    0.94671E+01    0.00000E+00  9360   0.255E+02 0.000E+00
CGA:   2    -0.377399567802E+03   -0.55563E+01   -0.55815E+01  9360   0.288E+02 0.691E+00
CGA:   3    -0.379657499298E+03   -0.22579E+01   -0.27608E+01  9360   0.848E+01 0.935E+00
CGA:   4    -0.380898455133E+03   -0.12410E+01   -0.12441E+01  9360   0.275E+01-0.791E+00
CGA:   5    -0.381124195335E+03   -0.22574E+00   -0.23984E+00  9360   0.142E+01 0.628E-01
CGA:   6    -0.381244188548E+03   -0.11999E+00   -0.12642E+00  9360   0.490E+00-0.696E-02
CGA:   7    -0.381283776349E+03   -0.39588E-01   -0.37244E-01  9360   0.266E+00 0.945E-02
CGA:   8    -0.381309526568E+03   -0.25750E-01   -0.26125E-01  9360   0.156E+00 0.154E-02
CGA:   9    -0.381319937040E+03   -0.10410E-01   -0.11265E-01  9360   0.681E-01-0.444E-02
CGA:  10    -0.381325506873E+03   -0.55698E-02   -0.55950E-02  9360   0.333E-01 0.492E-04
CGA:  11    -0.381329031683E+03   -0.35248E-02   -0.35017E-02  9360   0.255E-01-0.333E-03
CGA:  12    -0.381330891345E+03   -0.18597E-02   -0.19206E-02  9360   0.106E-01-0.153E-03
CGA:  13    -0.381332216965E+03   -0.13256E-02   -0.13249E-02  9360   0.858E-02 0.110E-03
CGA:  14    -0.381333136241E+03   -0.91928E-03   -0.91090E-03  9360   0.620E-02-0.167E-03
CGA:  15    -0.381333757271E+03   -0.62103E-03   -0.62458E-03  9360   0.366E-02 0.635E-04
CGA:  16    -0.381334228098E+03   -0.47083E-03   -0.47047E-03  9360   0.241E-02 0.287E-04
CGA:  17    -0.381334499350E+03   -0.27125E-03   -0.27096E-03  9360   0.204E-02-0.138E-04
CGA:  18    -0.381334707301E+03   -0.20795E-03   -0.20838E-03  9360   0.816E-03 0.944E-05
CGA:  19    -0.381334815119E+03   -0.10782E-03   -0.10771E-03  9360   0.740E-03 0.625E-05
CGA:  20    -0.381334897161E+03   -0.82042E-04   -0.82022E-04  9360   0.444E-03-0.183E-06
CGA:  21    -0.381334944296E+03   -0.47135E-04   -0.47167E-04  9360   0.249E-03 0.175E-05
CGA:  22    -0.381334984161E+03   -0.39864E-04   -0.39854E-04  9360   0.246E-03 0.292E-06
CGA:  23    -0.381335009426E+03   -0.25265E-04   -0.25207E-04  9360   0.143E-03-0.180E-05
CGA:  24    -0.381335026611E+03   -0.17186E-04   -0.17187E-04  9360   0.935E-04-0.106E-05
CGA:  25    -0.381335040698E+03   -0.14087E-04   -0.14117E-04  9360   0.776E-04-0.916E-06
CGA:  26    -0.381335047610E+03   -0.69116E-05   -0.68651E-05  9360   0.388E-04-0.917E-06
 116 F= -.38133505E+03 E0= -.38132823E+03  d E =-.247047E-01  mag=    58.0000
       N       E                     dE             d eps       ncg     rms          ort
SDA:   1    -0.378848166182E+03    0.24869E+01    0.00000E+00  9360   0.696E+01 0.000E+00
CGA:   2    -0.380411459811E+03   -0.15633E+01   -0.15545E+01  9360   0.391E+01 0.781E-01
CGA:   3    -0.381035248963E+03   -0.62379E+00   -0.63782E+00  9360   0.219E+01-0.296E+00
CGA:   4    -0.381216005625E+03   -0.18076E+00   -0.18470E+00  9360   0.570E+00 0.159E-01
CGA:   5    -0.381293615001E+03   -0.77609E-01   -0.77829E-01  9360   0.149E+00-0.129E-01
CGA:   6    -0.381311690727E+03   -0.18076E-01   -0.18104E-01  9360   0.836E-01 0.594E-02
CGA:   7    -0.381320092064E+03   -0.84013E-02   -0.82420E-02  9360   0.262E-01-0.848E-03
CGA:   8    -0.381323813704E+03   -0.37216E-02   -0.37169E-02  9360   0.117E-01 0.163E-03
CGA:   9    -0.381325247521E+03   -0.14338E-02   -0.14334E-02  9360   0.536E-02-0.561E-04
CGA:  10    -0.381325962867E+03   -0.71535E-03   -0.71509E-03  9360   0.311E-02 0.181E-04
CGA:  11    -0.381326371419E+03   -0.40855E-03   -0.40872E-03  9360   0.169E-02-0.176E-04
CGA:  12    -0.381326627721E+03   -0.25630E-03   -0.25560E-03  9360   0.133E-02 0.193E-04
CGA:  13    -0.381326791604E+03   -0.16388E-03   -0.16383E-03  9360   0.681E-03-0.380E-05
CGA:  14    -0.381326917031E+03   -0.12543E-03   -0.12503E-03  9360   0.418E-03 0.641E-05
CGA:  15    -0.381326969625E+03   -0.52595E-04   -0.52582E-04  9360   0.286E-03-0.610E-06
CGA:  16    -0.381327010549E+03   -0.40923E-04   -0.40887E-04  9360   0.139E-03 0.213E-05
CGA:  17    -0.381327029427E+03   -0.18878E-04   -0.18880E-04  9360   0.105E-03-0.346E-06
CGA:  18    -0.381327044402E+03   -0.14976E-04   -0.14971E-04  9360   0.560E-04 0.306E-06
CGA:  19    -0.381327053301E+03   -0.88984E-05   -0.89056E-05  9360   0.403E-04-0.244E-06
 117 F= -.38132705E+03 E0= -.38132019E+03  d E =0.799431E-02  mag=    58.0000
       N       E                     dE             d eps       ncg     rms          ort
SDA:   1    -0.381153668993E+03    0.17338E+00    0.00000E+00  9360   0.492E+00 0.000E+00
CGA:   2    -0.381251412613E+03   -0.97744E-01   -0.94963E-01  9360   0.365E+00 0.372E-01
CGA:   3    -0.381294000383E+03   -0.42588E-01   -0.37759E-01  9360   0.160E+00-0.796E-02
CGA:   4    -0.381316601589E+03   -0.22601E-01   -0.22596E-01  9360   0.391E-01 0.321E-03
CGA:   5    -0.381321624674E+03   -0.50231E-02   -0.50181E-02  9360   0.193E-01-0.297E-03
CGA:   6    -0.381323402502E+03   -0.17778E-02   -0.17839E-02  9360   0.463E-02 0.138E-04
CGA:   7    -0.381324167101E+03   -0.76460E-03   -0.76423E-03  9360   0.186E-02 0.937E-05
CGA:   8    -0.381324354551E+03   -0.18745E-03   -0.18671E-03  9360   0.110E-02-0.431E-05
CGA:   9    -0.381324486920E+03   -0.13237E-03   -0.13246E-03  9360   0.408E-03 0.288E-05
CGA:  10    -0.381324537397E+03   -0.50477E-04   -0.50467E-04  9360   0.240E-03-0.917E-06
CGA:  11    -0.381324570768E+03   -0.33372E-04   -0.33371E-04  9360   0.118E-03 0.148E-07
CGA:  12    -0.381324588637E+03   -0.17869E-04   -0.17867E-04  9360   0.704E-04 0.197E-06
CGA:  13    -0.381324600590E+03   -0.11953E-04   -0.11923E-04  9360   0.399E-04 0.808E-06
CGA:  14    -0.381324606732E+03   -0.61417E-05   -0.61334E-05  9360   0.252E-04 0.483E-06
 118 F= -.38132461E+03 E0= -.38131763E+03  d E =0.244657E-02  mag=    58.0000
       N       E                     dE             d eps       ncg     rms          ort
SDA:   1    -0.381235925747E+03    0.88675E-01    0.00000E+00  9360   0.241E+00 0.000E+00
CGA:   2    -0.381293668629E+03   -0.57743E-01   -0.57958E-01  9360   0.245E+00-0.193E-02
CGA:   3    -0.381313415279E+03   -0.19747E-01   -0.20761E-01  9360   0.805E-01-0.261E-02
CGA:   4    -0.381323418745E+03   -0.10003E-01   -0.99762E-02  9360   0.278E-01-0.848E-03
CGA:   5    -0.381325787902E+03   -0.23692E-02   -0.23985E-02  9360   0.104E-01-0.426E-04
CGA:   6    -0.381327006731E+03   -0.12188E-02   -0.12178E-02  9360   0.274E-02-0.240E-04
CGA:   7    -0.381327384480E+03   -0.37775E-03   -0.37768E-03  9360   0.125E-02 0.741E-05
CGA:   8    -0.381327532202E+03   -0.14772E-03   -0.14765E-03  9360   0.449E-03-0.189E-05
CGA:   9    -0.381327589307E+03   -0.57105E-04   -0.57111E-04  9360   0.211E-03 0.945E-06
CGA:  10    -0.381327616171E+03   -0.26864E-04   -0.26867E-04  9360   0.965E-04 0.481E-06
CGA:  11    -0.381327628583E+03   -0.12412E-04   -0.12416E-04  9360   0.711E-04 0.732E-06
CGA:  12    -0.381327637410E+03   -0.88264E-05   -0.88230E-05  9360   0.339E-04-0.278E-06
 119 F= -.38132764E+03 E0= -.38132070E+03  d E =-.303068E-02  mag=    58.0000
       N       E                     dE             d eps       ncg     rms          ort
SDA:   1    -0.381185996586E+03    0.14163E+00    0.00000E+00  9360   0.368E+00 0.000E+00
CGA:   2    -0.381280865238E+03   -0.94869E-01   -0.92679E-01  9360   0.322E+00 0.178E-01
CGA:   3    -0.381311418390E+03   -0.30553E-01   -0.26582E-01  9360   0.882E-01 0.184E-01
CGA:   4    -0.381325972418E+03   -0.14554E-01   -0.14534E-01  9360   0.239E-01 0.662E-03
CGA:   5    -0.381328769210E+03   -0.27968E-02   -0.27915E-02  9360   0.129E-01-0.772E-04
CGA:   6    -0.381329960767E+03   -0.11916E-02   -0.11936E-02  9360   0.303E-02 0.315E-06
CGA:   7    -0.381330471723E+03   -0.51096E-03   -0.51107E-03  9360   0.118E-02-0.301E-05
CGA:   8    -0.381330585522E+03   -0.11380E-03   -0.11428E-03  9360   0.632E-03 0.208E-05
CGA:   9    -0.381330661326E+03   -0.75804E-04   -0.75758E-04  9360   0.188E-03-0.111E-05
CGA:  10    -0.381330694956E+03   -0.33630E-04   -0.33570E-04  9360   0.121E-03 0.122E-05
CGA:  11    -0.381330710308E+03   -0.15352E-04   -0.15347E-04  9360   0.878E-04-0.223E-06
CGA:  12    -0.381330722296E+03   -0.11988E-04   -0.11987E-04  9360   0.561E-04 0.268E-06
CGA:  13    -0.381330730831E+03   -0.85345E-05   -0.85434E-05  9360   0.307E-04-0.527E-06
 120 F= -.38133073E+03 E0= -.38132381E+03  d E =-.309342E-02  mag=    58.0000
