       N       E                     dE             d eps       ncg     rms          rms(c)
DAV:   1     0.247942458940E+04    0.24794E+04   -0.11451E+05141184   0.179E+03
DAV:   2     0.319339717087E+02   -0.24475E+04   -0.23107E+04130456   0.547E+02
DAV:   3    -0.251861000869E+03   -0.28379E+03   -0.27781E+03142304   0.205E+02
DAV:   4    -0.263809984447E+03   -0.11949E+02   -0.11626E+02177336   0.392E+01
DAV:   5    -0.264633717411E+03   -0.82373E+00   -0.81411E+00220224   0.759E+00    0.337E+01
DAV:   6    -0.208747319150E+03    0.55886E+02   -0.15996E+02165192   0.683E+01    0.545E+01
DAV:   7    -0.207719191005E+03    0.10281E+01   -0.12980E+01154392   0.312E+01    0.306E+01
DAV:   8    -0.207142771179E+03    0.57642E+00   -0.37489E+00169256   0.162E+01    0.179E+01
DAV:   9    -0.207238963442E+03   -0.96192E-01   -0.14234E+00164552   0.745E+00    0.390E+00
DAV:  10    -0.207258779830E+03   -0.19816E-01   -0.17379E-01177792   0.329E+00    0.132E+00
DAV:  11    -0.207266494412E+03   -0.77146E-02   -0.52882E-02159912   0.125E+00    0.784E-01
DAV:  12    -0.207269968429E+03   -0.34740E-02   -0.79933E-03174016   0.636E-01    0.471E-01
DAV:  13    -0.207271415584E+03   -0.14472E-02   -0.13652E-03151680   0.304E-01    0.206E-01
DAV:  14    -0.207271338897E+03    0.76687E-04   -0.50279E-04175600   0.151E-01    0.697E-02
DAV:  15    -0.207271256777E+03    0.82120E-04   -0.12314E-04146352   0.592E-02    0.290E-02
DAV:  16    -0.207271287338E+03   -0.30561E-04   -0.11216E-05 91536   0.203E-02    0.135E-02
DAV:  17    -0.207271315425E+03   -0.28088E-04   -0.58117E-06 91720   0.159E-02    0.921E-03
DAV:  18    -0.207271311987E+03    0.34387E-05   -0.27161E-06 80848   0.827E-03
   1 F= -.20727131E+03 E0= -.20727131E+03  d E =-.207271E+03  mag=     8.0000
       N       E                     dE             d eps       ncg     rms          rms(c)
DAV:   1    -0.207263586875E+03    0.77286E-02   -0.24181E-01139848   0.634E+00    0.411E-01
DAV:   2    -0.207271967102E+03   -0.83802E-02   -0.86127E-02131840   0.112E+00    0.227E-01
DAV:   3    -0.207271951904E+03    0.15198E-04   -0.24806E-03151416   0.208E-01    0.131E-01
DAV:   4    -0.207271765445E+03    0.18646E-03   -0.15121E-04153160   0.791E-02    0.715E-02
DAV:   5    -0.207271727185E+03    0.38260E-04   -0.47446E-05133288   0.419E-02    0.251E-02
DAV:   6    -0.207271720683E+03    0.65014E-05   -0.10775E-05 76864   0.232E-02
   2 F= -.20727172E+03 E0= -.20727172E+03  d E =-.408697E-03  mag=     8.0000
       N       E                     dE             d eps       ncg     rms          rms(c)
DAV:   1    -0.207271470663E+03    0.25652E-03   -0.70187E-03140064   0.108E+00    0.690E-02
DAV:   2    -0.207271742304E+03   -0.27164E-03   -0.25241E-03132168   0.191E-01    0.388E-02
DAV:   3    -0.207271740674E+03    0.16295E-05   -0.70241E-05104960   0.356E-02    0.227E-02
DAV:   4    -0.207271719475E+03    0.21200E-04   -0.51631E-06 70392   0.151E-02    0.132E-02
DAV:   5    -0.207271722445E+03   -0.29704E-05   -0.28655E-06 67448   0.891E-03    0.509E-03
DAV:   6    -0.207271719513E+03    0.29322E-05   -0.87100E-07 66640   0.527E-03
   3 F= -.20727172E+03 E0= -.20727172E+03  d E =-.407526E-03  mag=     8.0000
       N       E                     dE             d eps       ncg     rms          rms(c)
DAV:   1    -0.207271558225E+03    0.16422E-03   -0.14182E-01130384   0.269E+00    0.310E-01
DAV:   2    -0.207272332115E+03   -0.77389E-03   -0.16361E-02132632   0.635E-01    0.192E-01
DAV:   3    -0.207272034947E+03    0.29717E-03   -0.50372E-04171392   0.132E-01    0.102E-01
DAV:   4    -0.207271986660E+03    0.48286E-04   -0.11767E-04152312   0.639E-02    0.374E-02
DAV:   5    -0.207271994305E+03   -0.76443E-05   -0.16034E-05 91256   0.281E-02    0.177E-02
DAV:   6    -0.207271990958E+03    0.33465E-05   -0.61034E-06 70328   0.174E-02
   4 F= -.20727199E+03 E0= -.20727199E+03  d E =-.271445E-03  mag=     8.0000
       N       E                     dE             d eps       ncg     rms          rms(c)
DAV:   1    -0.207271264877E+03    0.72943E-03   -0.23325E-01129776   0.345E+00    0.398E-01
DAV:   2    -0.207272577483E+03   -0.13126E-02   -0.27124E-02132480   0.816E-01    0.247E-01
DAV:   3    -0.207272088384E+03    0.48910E-03   -0.83679E-04171704   0.170E-01    0.130E-01
DAV:   4    -0.207272011108E+03    0.77276E-04   -0.19465E-04160352   0.823E-02    0.482E-02
DAV:   5    -0.207272020062E+03   -0.89540E-05   -0.27073E-05102776   0.361E-02    0.228E-02
DAV:   6    -0.207272014753E+03    0.53090E-05   -0.94775E-06 72408   0.220E-02
   5 F= -.20727201E+03 E0= -.20727201E+03  d E =-.295241E-03  mag=     8.0000
       N       E                     dE             d eps       ncg     rms          rms(c)
DAV:   1    -0.207269312824E+03    0.27072E-02   -0.11048E-01137408   0.376E+00    0.218E-01
DAV:   2    -0.207272135817E+03   -0.28230E-02   -0.28595E-02127464   0.671E-01    0.122E-01
DAV:   3    -0.207272140920E+03   -0.51026E-05   -0.75863E-04160368   0.110E-01    0.694E-02
DAV:   4    -0.207272121547E+03    0.19372E-04   -0.37509E-05104728   0.427E-02    0.363E-02
DAV:   5    -0.207272120878E+03    0.66991E-06   -0.17580E-05 76840   0.254E-02    0.119E-02
DAV:   6    -0.207272120162E+03    0.71580E-06   -0.48608E-06 67784   0.134E-02
   6 F= -.20727212E+03 E0= -.20727212E+03  d E =-.105408E-03  mag=     8.0000
