       N       E                     dE             d eps       ncg     rms          ort
DAV:   1     0.582296710964E+04    0.58230E+04   -0.23437E+05  7072   0.164E+03
DAV:   2     0.575731846562E+03   -0.52472E+04   -0.49091E+04  7072   0.474E+02
DAV:   3    -0.368037239594E+03   -0.94377E+03   -0.92581E+03  7072   0.206E+02
DAV:   4    -0.412532992530E+03   -0.44496E+02   -0.42688E+02  7072   0.488E+01
DAV:   5    -0.414533857577E+03   -0.20009E+01   -0.19493E+01  7072   0.955E+00
SDA:   6    -0.110413748664E+03    0.30412E+03   -0.19493E+01  7072   0.579E+04 0.000E+00
CGA:   7    -0.710964756341E+02    0.39317E+02   -0.53682E+03  7072   0.174E+04-0.215E+03
CGA:   8    -0.247177721450E+03   -0.17608E+03   -0.10711E+03  7072   0.144E+04-0.169E+03
CGA:   9    -0.254491661140E+03   -0.73139E+01   -0.12001E+03  7072   0.752E+03-0.171E+03
CGA:  10    -0.278692940981E+03   -0.24201E+02   -0.32862E+02  7072   0.194E+04-0.211E+04
CGA:  11    -0.266795324392E+03    0.11898E+02   -0.13789E+03  7072   0.696E+03-0.444E+03
CGA:  12    -0.332266135577E+03   -0.65471E+02   -0.20359E+02  7072   0.483E+03 0.171E+04
CGA:  13    -0.319292246999E+03    0.12974E+02   -0.16286E+02  7072   0.190E+04-0.912E+03
CGA:  14    -0.283769195365E+03    0.35523E+02   -0.13158E+03  7072   0.123E+04-0.606E+03
CGA:  15    -0.317646522955E+03   -0.33877E+02   -0.34946E+02  7072   0.184E+04-0.289E+04
CGA:  16    -0.273390747040E+03    0.44256E+02   -0.10645E+03  7072   0.378E+03-0.197E+03
CGA:  17    -0.336628163929E+03   -0.63237E+02   -0.75027E+01  7072   0.495E+03 0.186E+04
CGA:  18    -0.335668481307E+03    0.95968E+00   -0.13655E+02  7072   0.487E+03-0.413E+03
CGA:  19    -0.299509829972E+03    0.36159E+02   -0.21097E+02  7072   0.226E+04-0.911E+03
CGA:  20    -0.227062088352E+03    0.72448E+02   -0.10274E+03  7072   0.503E+04-0.225E+04
CGA:  21    -0.279122247101E+03   -0.52060E+02   -0.31427E+03  7072   0.244E+03-0.228E+03
CGA:  22    -0.289104145915E+03   -0.99819E+01   -0.48011E+01  7072   0.300E+03 0.343E+03
CGA:  23    -0.311117737385E+03   -0.22014E+02   -0.50205E+01  7072   0.919E+03 0.143E+04
CGA:  24    -0.333056843912E+03   -0.21939E+02   -0.25221E+02  7072   0.400E+03 0.583E+02
CGA:  25    -0.337642295129E+03   -0.45855E+01   -0.18119E+02  7072   0.394E+03-0.555E+02
CGA:  26    -0.322625094870E+03    0.15017E+02   -0.96224E+01  7072   0.163E+04-0.105E+04
CGA:  27    -0.289934640851E+03    0.32690E+02   -0.70648E+02  7072   0.535E+03-0.215E+03
CGA:  28    -0.314988561846E+03   -0.25054E+02   -0.12099E+02  7072   0.197E+04-0.261E+04
CGA:  29    -0.289266842520E+03    0.25722E+02   -0.67069E+02  7072   0.390E+03-0.275E+03
CGA:  30    -0.343577918040E+03   -0.54311E+02   -0.64796E+01  7072   0.180E+03-0.108E+04
CGA:  31    -0.343019712116E+03    0.55821E+00   -0.29035E+01  7072   0.321E+03-0.240E+03
CGA:  32    -0.337026621754E+03    0.59931E+01   -0.70509E+01  7072   0.930E+03-0.465E+03
CGA:  33    -0.304252976401E+03    0.32774E+02   -0.26019E+02  7072   0.213E+04-0.945E+03
CGA:  34    -0.293550415635E+03    0.10703E+02   -0.66897E+02  7072   0.564E+03-0.449E+03
CGA:  35    -0.344016941265E+03   -0.50467E+02   -0.85981E+01  7072   0.146E+03 0.845E+03
CGA:  36    -0.344838945206E+03   -0.82200E+00   -0.19395E+01  7072   0.105E+03-0.953E+02
CGA:  37    -0.345523146840E+03   -0.68420E+00   -0.97288E+00  7072   0.193E+02-0.356E+02
CGA:  38    -0.345742901219E+03   -0.21975E+00   -0.23929E+00  7072   0.534E+01-0.680E+00
CGA:  39    -0.345845080059E+03   -0.10218E+00   -0.10221E+00  7072   0.526E+01-0.117E-01
CGA:  40    -0.346102469454E+03   -0.25739E+00   -0.26157E+00  7072   0.702E+01 0.138E+00
CGA:  41    -0.346363502037E+03   -0.26103E+00   -0.31216E+00  7072   0.114E+02 0.533E+00
CGA:  42    -0.346810865023E+03   -0.44736E+00   -0.48615E+00  7072   0.485E+01 0.251E+00
CGA:  43    -0.347028427323E+03   -0.21756E+00   -0.23142E+00  7072   0.209E+01 0.291E+00
CGA:  44    -0.347113784788E+03   -0.85357E-01   -0.86078E-01  7072   0.987E+00 0.503E-02
CGA:  45    -0.347156199405E+03   -0.42415E-01   -0.43298E-01  7072   0.556E+00 0.128E-01
CGA:  46    -0.347230678499E+03   -0.74479E-01   -0.73007E-01  7072   0.125E+01 0.206E-01
CGA:  47    -0.347302140327E+03   -0.71462E-01   -0.70942E-01  7072   0.105E+01-0.298E-01
CGA:  48    -0.347384272489E+03   -0.82132E-01   -0.83300E-01  7072   0.734E+00-0.605E-01
CGA:  49    -0.347417001268E+03   -0.32729E-01   -0.31077E-01  7072   0.601E+00-0.130E-01
CGA:  50    -0.347470489948E+03   -0.53489E-01   -0.52057E-01  7072   0.614E+00 0.415E-01
CGA:  51    -0.347531320700E+03   -0.60831E-01   -0.58675E-01  7072   0.100E+01 0.627E-01
CGA:  52    -0.347576768020E+03   -0.45447E-01   -0.43044E-01  7072   0.524E+00 0.536E-02
CGA:  53    -0.347601535519E+03   -0.24767E-01   -0.24786E-01  7072   0.505E+00 0.809E-03
CGA:  54    -0.347640343284E+03   -0.38808E-01   -0.39248E-01  7072   0.535E+00-0.215E-01
CGA:  55    -0.347667648438E+03   -0.27305E-01   -0.27124E-01  7072   0.717E+00-0.788E-02
CGA:  56    -0.347703076336E+03   -0.35428E-01   -0.35775E-01  7072   0.460E+00 0.109E-01
CGA:  57    -0.347723440284E+03   -0.20364E-01   -0.20558E-01  7072   0.347E+00 0.301E-02
CGA:  58    -0.347743001188E+03   -0.19561E-01   -0.19497E-01  7072   0.343E+00-0.605E-02
CGA:  59    -0.347762727907E+03   -0.19727E-01   -0.19744E-01  7072   0.419E+00 0.578E-02
CGA:  60    -0.347789987328E+03   -0.27259E-01   -0.27624E-01  7072   0.340E+00-0.439E-01
CGA:  61    -0.347801552196E+03   -0.11565E-01   -0.11278E-01  7072   0.280E+00 0.780E-03
CGA:  62    -0.347813879699E+03   -0.12328E-01   -0.12418E-01  7072   0.280E+00 0.641E-03
CGA:  63    -0.347825570092E+03   -0.11690E-01   -0.11598E-01  7072   0.207E+00 0.513E-03
CGA:  64    -0.347834446923E+03   -0.88768E-02   -0.86479E-02  7072   0.279E+00-0.138E-02
CGA:  65    -0.347848091757E+03   -0.13645E-01   -0.13473E-01  7072   0.436E+00-0.695E-02
CGA:  66    -0.347860022373E+03   -0.11931E-01   -0.12833E-01  7072   0.283E+00-0.114E-01
SDA:  67    -0.347867894213E+03   -0.78718E-02   -0.84246E-02  7072   0.140E+00-0.586E-02
CGA:  68    -0.347877996392E+03   -0.10102E-01   -0.10191E-01  7072   0.197E+00-0.357E-02
CGA:  69    -0.347890158297E+03   -0.12162E-01   -0.12165E-01  7072   0.245E+00-0.120E-03
CGA:  70    -0.347921391530E+03   -0.31233E-01   -0.32713E-01  7072   0.332E+00-0.232E-01
CGA:  71    -0.347942386111E+03   -0.20995E-01   -0.21144E-01  7072   0.160E+00-0.938E-02
CGA:  72    -0.347949080998E+03   -0.66949E-02   -0.67093E-02  7072   0.635E-01 0.215E-03
CGA:  73    -0.347952549444E+03   -0.34684E-02   -0.34650E-02  7072   0.738E-01-0.287E-03
CGA:  74    -0.347958794043E+03   -0.62446E-02   -0.62507E-02  7072   0.433E-01-0.176E-03
CGA:  75    -0.347961131348E+03   -0.23373E-02   -0.23380E-02  7072   0.144E-01 0.104E-03
CGA:  76    -0.347962270496E+03   -0.11391E-02   -0.11403E-02  7072   0.158E-01-0.375E-04
CGA:  77    -0.347963560685E+03   -0.12902E-02   -0.12929E-02  7072   0.101E-01-0.995E-04
CGA:  78    -0.347964522738E+03   -0.96205E-03   -0.96779E-03  7072   0.990E-02-0.150E-03
CGA:  79    -0.347964940745E+03   -0.41801E-03   -0.41699E-03  7072   0.475E-02-0.124E-04
CGA:  80    -0.347965252023E+03   -0.31128E-03   -0.31145E-03  7072   0.673E-02-0.383E-04
CGA:  81    -0.347965827617E+03   -0.57559E-03   -0.57599E-03  7072   0.785E-02-0.248E-04
CGA:  82    -0.347966339107E+03   -0.51149E-03   -0.51181E-03  7072   0.237E-02-0.128E-03
CGA:  83    -0.347966472165E+03   -0.13306E-03   -0.13258E-03  7072   0.151E-02-0.417E-04
CGA:  84    -0.347966584227E+03   -0.11206E-03   -0.11255E-03  7072   0.150E-02-0.363E-04
CGA:  85    -0.347966733709E+03   -0.14948E-03   -0.15290E-03  7072   0.206E-02-0.823E-04
CGA:  86    -0.347966831291E+03   -0.97582E-04   -0.96734E-04  7072   0.108E-02-0.332E-04
CGA:  87    -0.347966871302E+03   -0.40011E-04   -0.39727E-04  7072   0.449E-03-0.607E-05
CGA:  88    -0.347966911043E+03   -0.39741E-04   -0.39562E-04  7072   0.909E-03 0.614E-05
CGA:  89    -0.347966989389E+03   -0.78346E-04   -0.78134E-04  7072   0.543E-03 0.140E-04
CGA:  90    -0.347967019098E+03   -0.29709E-04   -0.29832E-04  7072   0.326E-03 0.140E-04
CGA:  91    -0.347967039073E+03   -0.19976E-04   -0.20044E-04  7072   0.279E-03 0.133E-04
CGA:  92    -0.347967059027E+03   -0.19953E-04   -0.19910E-04  7072   0.337E-03 0.144E-04
CGA:  93    -0.347967080456E+03   -0.21429E-04   -0.21506E-04  7072   0.348E-03 0.171E-04
CGA:  94    -0.347967099731E+03   -0.19275E-04   -0.19489E-04  7072   0.147E-03 0.176E-04
CGA:  95    -0.347967107239E+03   -0.75080E-05   -0.76134E-05  7072   0.967E-04 0.635E-05
   1 F= -.34796711E+03 E0= -.34795183E+03  d E =-.347967E+03  mag=     8.0000
       N       E                     dE             d eps       ncg     rms          ort
SDA:   1    -0.348063032333E+03   -0.95933E-01    0.00000E+00  7072   0.163E+00 0.000E+00
CGA:   2    -0.348067472861E+03   -0.44405E-02   -0.44613E-02  7072   0.353E-01-0.470E-03
CGA:   3    -0.348068681450E+03   -0.12086E-02   -0.12125E-02  7072   0.170E-01-0.276E-04
CGA:   4    -0.348070197196E+03   -0.15157E-02   -0.15138E-02  7072   0.123E-01 0.625E-04
CGA:   5    -0.348071052201E+03   -0.85501E-03   -0.85518E-03  7072   0.478E-02-0.163E-04
CGA:   6    -0.348071359394E+03   -0.30719E-03   -0.30720E-03  7072   0.332E-02-0.487E-05
CGA:   7    -0.348071555539E+03   -0.19615E-03   -0.19615E-03  7072   0.244E-02-0.141E-05
CGA:   8    -0.348071668903E+03   -0.11336E-03   -0.11326E-03  7072   0.200E-02-0.526E-05
CGA:   9    -0.348071765766E+03   -0.96863E-04   -0.96806E-04  7072   0.309E-03-0.500E-05
CGA:  10    -0.348071788685E+03   -0.22918E-04   -0.22938E-04  7072   0.266E-03-0.161E-05
CGA:  11    -0.348071810476E+03   -0.21791E-04   -0.21845E-04  7072   0.195E-03-0.263E-05
CGA:  12    -0.348071818387E+03   -0.79116E-05   -0.78881E-05  7072   0.152E-03-0.946E-06
   2 F= -.34807182E+03 E0= -.34805662E+03  d E =-.104711E+00  mag=     8.0000
       N       E                     dE             d eps       ncg     rms          ort
SDA:   1    -0.347388102883E+03    0.68371E+00    0.00000E+00  7072   0.925E+01 0.000E+00
CGA:   2    -0.349078759773E+03   -0.16907E+01   -0.16754E+01  7072   0.114E+02 0.154E+00
CGA:   3    -0.349508544894E+03   -0.42979E+00   -0.40039E+00  7072   0.331E+01 0.436E+00
CGA:   4    -0.349676218374E+03   -0.16767E+00   -0.16925E+00  7072   0.411E+01 0.134E-01
CGA:   5    -0.349985244212E+03   -0.30903E+00   -0.30902E+00  7072   0.189E+01-0.381E-02
CGA:   6    -0.350080858645E+03   -0.95614E-01   -0.94864E-01  7072   0.656E+00-0.772E-02
CGA:   7    -0.350113950526E+03   -0.33092E-01   -0.33043E-01  7072   0.472E+00-0.101E-02
CGA:   8    -0.350134375999E+03   -0.20425E-01   -0.20381E-01  7072   0.384E+00-0.297E-03
CGA:   9    -0.350159879163E+03   -0.25503E-01   -0.25467E-01  7072   0.118E+00 0.598E-02
CGA:  10    -0.350168030416E+03   -0.81513E-02   -0.81510E-02  7072   0.546E-01-0.104E-04
CGA:  11    -0.350170787537E+03   -0.27571E-02   -0.27545E-02  7072   0.842E-01-0.562E-04
CGA:  12    -0.350178219742E+03   -0.74322E-02   -0.74145E-02  7072   0.370E-01 0.534E-03
CGA:  13    -0.350179891678E+03   -0.16719E-02   -0.16745E-02  7072   0.196E-01 0.292E-04
CGA:  14    -0.350181985817E+03   -0.20941E-02   -0.20949E-02  7072   0.387E-01-0.174E-04
CGA:  15    -0.350183673714E+03   -0.16879E-02   -0.16926E-02  7072   0.253E-01 0.202E-04
CGA:  16    -0.350185056124E+03   -0.13824E-02   -0.13839E-02  7072   0.128E-01 0.652E-04
CGA:  17    -0.350185912544E+03   -0.85642E-03   -0.85634E-03  7072   0.606E-02 0.265E-04
CGA:  18    -0.350186695542E+03   -0.78300E-03   -0.78092E-03  7072   0.151E-01 0.339E-04
CGA:  19    -0.350187223881E+03   -0.52834E-03   -0.52898E-03  7072   0.548E-02 0.977E-05
CGA:  20    -0.350187555636E+03   -0.33176E-03   -0.33202E-03  7072   0.150E-02 0.321E-04
CGA:  21    -0.350187805762E+03   -0.25013E-03   -0.24833E-03  7072   0.309E-02 0.184E-04
CGA:  22    -0.350187923276E+03   -0.11751E-03   -0.11772E-03  7072   0.152E-02 0.713E-05
CGA:  23    -0.350187995142E+03   -0.71866E-04   -0.72008E-04  7072   0.848E-03 0.438E-05
CGA:  24    -0.350188048616E+03   -0.53474E-04   -0.53477E-04  7072   0.424E-03 0.544E-06
CGA:  25    -0.350188104328E+03   -0.55712E-04   -0.55695E-04  7072   0.677E-03 0.268E-06
CGA:  26    -0.350188137602E+03   -0.33274E-04   -0.33303E-04  7072   0.192E-03 0.104E-05
CGA:  27    -0.350188146309E+03   -0.87074E-05   -0.86967E-05  7072   0.211E-03-0.533E-06
CGA:  28    -0.350188162765E+03   -0.16456E-04   -0.16468E-04  7072   0.160E-03-0.134E-05
CGA:  29    -0.350188178115E+03   -0.15350E-04   -0.15425E-04  7072   0.726E-04-0.268E-05
CGA:  30    -0.350188183464E+03   -0.53495E-05   -0.53537E-05  7072   0.420E-04-0.934E-06
   3 F= -.35018818E+03 E0= -.35017309E+03  d E =-.211637E+01  mag=     8.0000
       N       E                     dE             d eps       ncg     rms          ort
SDA:   1    -0.343133295648E+03    0.70549E+01    0.00000E+00  7072   0.310E+02 0.000E+00
CGA:   2    -0.348601302023E+03   -0.54680E+01   -0.53523E+01  7072   0.461E+02 0.128E+01
CGA:   3    -0.350157397420E+03   -0.15561E+01   -0.14123E+01  7072   0.119E+02 0.281E+01
CGA:   4    -0.350694933945E+03   -0.53754E+00   -0.51115E+00  7072   0.944E+01 0.187E+00
CGA:   5    -0.351728906234E+03   -0.10340E+01   -0.10319E+01  7072   0.924E+01-0.183E-01
CGA:   6    -0.351968098556E+03   -0.23919E+00   -0.23239E+00  7072   0.279E+01 0.225E+00
CGA:   7    -0.352085178050E+03   -0.11708E+00   -0.11332E+00  7072   0.169E+01 0.425E-01
CGA:   8    -0.352171860870E+03   -0.86683E-01   -0.86148E-01  7072   0.159E+01-0.510E-02
CGA:   9    -0.352224591742E+03   -0.52731E-01   -0.51927E-01  7072   0.117E+01 0.121E-01
CGA:  10    -0.352288574531E+03   -0.63983E-01   -0.64457E-01  7072   0.630E+00 0.942E-02
CGA:  11    -0.352302055559E+03   -0.13481E-01   -0.14065E-01  7072   0.173E+00-0.203E-01
CGA:  12    -0.352321062334E+03   -0.19007E-01   -0.18899E-01  7072   0.400E+00 0.205E-02
CGA:  13    -0.352338461412E+03   -0.17399E-01   -0.17411E-01  7072   0.213E+00-0.989E-04
CGA:  14    -0.352345303519E+03   -0.68421E-02   -0.69576E-02  7072   0.922E-01-0.154E-02
CGA:  15    -0.352353080643E+03   -0.77771E-02   -0.77375E-02  7072   0.873E-01 0.144E-02
CGA:  16    -0.352357576885E+03   -0.44962E-02   -0.44916E-02  7072   0.117E+00-0.692E-04
CGA:  17    -0.352364617290E+03   -0.70404E-02   -0.70457E-02  7072   0.545E-01 0.602E-03
CGA:  18    -0.352367318299E+03   -0.27010E-02   -0.27093E-02  7072   0.311E-01 0.141E-03
CGA:  19    -0.352368818143E+03   -0.14998E-02   -0.15016E-02  7072   0.340E-01 0.450E-04
CGA:  20    -0.352370983468E+03   -0.21653E-02   -0.21651E-02  7072   0.317E-01 0.136E-03
CGA:  21    -0.352373128325E+03   -0.21449E-02   -0.21440E-02  7072   0.134E-01 0.119E-03
CGA:  22    -0.352373567425E+03   -0.43910E-03   -0.43880E-03  7072   0.854E-02 0.172E-04
CGA:  23    -0.352374210731E+03   -0.64331E-03   -0.64306E-03  7072   0.885E-02 0.221E-04
CGA:  24    -0.352374824828E+03   -0.61410E-03   -0.61385E-03  7072   0.652E-02 0.315E-04
CGA:  25    -0.352375109771E+03   -0.28494E-03   -0.28501E-03  7072   0.506E-02 0.558E-05
CGA:  26    -0.352375319142E+03   -0.20937E-03   -0.20959E-03  7072   0.158E-02 0.697E-05
CGA:  27    -0.352375473329E+03   -0.15419E-03   -0.15407E-03  7072   0.293E-02 0.300E-05
CGA:  28    -0.352375644014E+03   -0.17069E-03   -0.17070E-03  7072   0.251E-02 0.294E-05
CGA:  29    -0.352375723558E+03   -0.79544E-04   -0.79566E-04  7072   0.508E-03 0.336E-05
CGA:  30    -0.352375774342E+03   -0.50783E-04   -0.50804E-04  7072   0.737E-03-0.767E-06
CGA:  31    -0.352375811999E+03   -0.37657E-04   -0.37621E-04  7072   0.695E-03-0.299E-05
SDA:  32    -0.352375845827E+03   -0.33828E-04   -0.33792E-04  7072   0.445E-03-0.238E-05
CGA:  33    -0.352375860083E+03   -0.14256E-04   -0.14242E-04  7072   0.127E-03-0.601E-06
CGA:  34    -0.352375869343E+03   -0.92603E-05   -0.92743E-05  7072   0.210E-03-0.116E-05
CGA:  35    -0.352375881502E+03   -0.12159E-04   -0.12153E-04  7072   0.178E-03-0.303E-05
CGA:  36    -0.352375900602E+03   -0.19099E-04   -0.19314E-04  7072   0.102E-03-0.441E-05
CGA:  37    -0.352375905531E+03   -0.49295E-05   -0.49210E-05  7072   0.330E-04-0.745E-06
   4 F= -.35237591E+03 E0= -.35236087E+03  d E =-.218772E+01  mag=     8.0000
       N       E                     dE             d eps       ncg     rms          ort
SDA:   1    -0.346820986081E+03    0.55549E+01    0.00000E+00  7072   0.217E+02 0.000E+00
CGA:   2    -0.351078346958E+03   -0.42574E+01   -0.42205E+01  7072   0.172E+02 0.373E+00
CGA:   3    -0.351800458945E+03   -0.72211E+00   -0.64158E+00  7072   0.623E+01 0.975E+00
CGA:   4    -0.352227358012E+03   -0.42690E+00   -0.42639E+00  7072   0.109E+02-0.365E-01
CGA:   5    -0.352852864455E+03   -0.62551E+00   -0.62535E+00  7072   0.283E+01-0.535E-02
CGA:   6    -0.352981928301E+03   -0.12906E+00   -0.12929E+00  7072   0.140E+01 0.441E-02
CGA:   7    -0.353064570091E+03   -0.82642E-01   -0.82314E-01  7072   0.132E+01-0.918E-02
CGA:   8    -0.353115680004E+03   -0.51110E-01   -0.50392E-01  7072   0.730E+00 0.772E-02
CGA:   9    -0.353166393899E+03   -0.50714E-01   -0.50706E-01  7072   0.193E+00 0.427E-02
CGA:  10    -0.353176126937E+03   -0.97330E-02   -0.97763E-02  7072   0.241E+00 0.306E-03
CGA:  11    -0.353191103603E+03   -0.14977E-01   -0.15004E-01  7072   0.208E+00 0.210E-02
CGA:  12    -0.353203413681E+03   -0.12310E-01   -0.12283E-01  7072   0.913E-01-0.111E-02
CGA:  13    -0.353208555007E+03   -0.51413E-02   -0.51355E-02  7072   0.675E-01-0.185E-03
CGA:  14    -0.353213345445E+03   -0.47904E-02   -0.47877E-02  7072   0.110E+00 0.322E-03
CGA:  15    -0.353219001816E+03   -0.56564E-02   -0.56732E-02  7072   0.641E-01 0.268E-03
CGA:  16    -0.353222816280E+03   -0.38145E-02   -0.38149E-02  7072   0.321E-01 0.354E-04
CGA:  17    -0.353225410390E+03   -0.25941E-02   -0.25958E-02  7072   0.230E-01-0.655E-04
CGA:  18    -0.353226987683E+03   -0.15773E-02   -0.15772E-02  7072   0.391E-01 0.300E-04
CGA:  19    -0.353229120049E+03   -0.21324E-02   -0.21354E-02  7072   0.204E-01 0.104E-03
CGA:  20    -0.353230051423E+03   -0.93137E-03   -0.93302E-03  7072   0.565E-02 0.286E-04
CGA:  21    -0.353230688013E+03   -0.63659E-03   -0.63559E-03  7072   0.886E-02 0.210E-04
CGA:  22    -0.353231211208E+03   -0.52320E-03   -0.52323E-03  7072   0.511E-02 0.102E-04
CGA:  23    -0.353231475298E+03   -0.26409E-03   -0.26423E-03  7072   0.440E-02 0.495E-05
CGA:  24    -0.353231645250E+03   -0.16995E-03   -0.17041E-03  7072   0.115E-02 0.227E-05
CGA:  25    -0.353231872173E+03   -0.22692E-03   -0.22630E-03  7072   0.163E-02 0.444E-05
CGA:  26    -0.353231961030E+03   -0.88857E-04   -0.88888E-04  7072   0.626E-03 0.131E-05
CGA:  27    -0.353231998232E+03   -0.37202E-04   -0.37228E-04  7072   0.553E-03 0.136E-05
CGA:  28    -0.353232028939E+03   -0.30707E-04   -0.30680E-04  7072   0.626E-03-0.184E-05
CGA:  29    -0.353232071888E+03   -0.42949E-04   -0.42948E-04  7072   0.339E-03-0.368E-05
CGA:  30    -0.353232091273E+03   -0.19385E-04   -0.19364E-04  7072   0.168E-03-0.166E-05
CGA:  31    -0.353232103319E+03   -0.12046E-04   -0.12047E-04  7072   0.820E-04-0.351E-06
SDA:  32    -0.353232120852E+03   -0.17533E-04   -0.18194E-04  7072   0.823E-04-0.434E-05
CGA:  33    -0.353232124497E+03   -0.36447E-05   -0.36514E-05  7072   0.341E-04 0.210E-06
   5 F= -.35323212E+03 E0= -.35321695E+03  d E =-.856219E+00  mag=     8.0000
       N       E                     dE             d eps       ncg     rms          ort
SDA:   1    -0.347117935055E+03    0.61142E+01    0.00000E+00  7072   0.280E+02 0.000E+00
CGA:   2    -0.348967429791E+03   -0.18495E+01   -0.18877E+01  7072   0.484E+02 0.196E+01
CGA:   3    -0.351643650553E+03   -0.26762E+01   -0.25288E+01  7072   0.135E+02 0.126E+01
CGA:   4    -0.352355215497E+03   -0.71156E+00   -0.70195E+00  7072   0.645E+01 0.194E+00
CGA:   5    -0.352770237114E+03   -0.41502E+00   -0.41056E+00  7072   0.113E+02-0.174E+00
CGA:   6    -0.353241044008E+03   -0.47081E+00   -0.48086E+00  7072   0.425E+01-0.102E+00
CGA:   7    -0.353402878544E+03   -0.16183E+00   -0.15414E+00  7072   0.101E+01 0.135E+00
CGA:   8    -0.353476725252E+03   -0.73847E-01   -0.73853E-01  7072   0.142E+01-0.183E-02
CGA:   9    -0.353552404793E+03   -0.75680E-01   -0.75608E-01  7072   0.975E+00-0.136E-02
CGA:  10    -0.353578592790E+03   -0.26188E-01   -0.27548E-01  7072   0.205E+00-0.304E-01
CGA:  11    -0.353596829306E+03   -0.18237E-01   -0.18175E-01  7072   0.170E+00 0.191E-02
CGA:  12    -0.353607876707E+03   -0.11047E-01   -0.11060E-01  7072   0.283E+00 0.218E-02
CGA:  13    -0.353621566268E+03   -0.13690E-01   -0.13659E-01  7072   0.654E-01-0.109E-03
CGA:  14    -0.353626684998E+03   -0.51187E-02   -0.51050E-02  7072   0.882E-01 0.756E-03
CGA:  15    -0.353632103255E+03   -0.54183E-02   -0.54203E-02  7072   0.109E+00 0.148E-03
CGA:  16    -0.353638124922E+03   -0.60217E-02   -0.60417E-02  7072   0.425E-01 0.586E-03
CGA:  17    -0.353641156017E+03   -0.30311E-02   -0.30326E-02  7072   0.361E-01-0.165E-03
CGA:  18    -0.353642942552E+03   -0.17865E-02   -0.17898E-02  7072   0.370E-01 0.621E-04
CGA:  19    -0.353645519877E+03   -0.25773E-02   -0.25767E-02  7072   0.216E-01 0.101E-03
CGA:  20    -0.353647096604E+03   -0.15767E-02   -0.15760E-02  7072   0.161E-01 0.705E-04
CGA:  21    -0.353647624813E+03   -0.52821E-03   -0.52668E-03  7072   0.619E-02 0.244E-04
CGA:  22    -0.353648234740E+03   -0.60993E-03   -0.60886E-03  7072   0.915E-02 0.291E-04
CGA:  23    -0.353648782452E+03   -0.54771E-03   -0.54772E-03  7072   0.399E-02 0.476E-05
CGA:  24    -0.353648910985E+03   -0.12853E-03   -0.12866E-03  7072   0.161E-02 0.221E-05
CGA:  25    -0.353649080969E+03   -0.16998E-03   -0.17007E-03  7072   0.278E-02-0.178E-05
CGA:  26    -0.353649240874E+03   -0.15990E-03   -0.15996E-03  7072   0.129E-02 0.525E-05
CGA:  27    -0.353649295316E+03   -0.54442E-04   -0.54428E-04  7072   0.844E-03 0.786E-06
CGA:  28    -0.353649347422E+03   -0.52106E-04   -0.52110E-04  7072   0.562E-03 0.175E-05
CGA:  29    -0.353649397191E+03   -0.49769E-04   -0.49805E-04  7072   0.838E-03-0.137E-05
CGA:  30    -0.353649439836E+03   -0.42645E-04   -0.42651E-04  7072   0.481E-03 0.176E-06
CGA:  31    -0.353649459345E+03   -0.19509E-04   -0.19476E-04  7072   0.180E-03-0.955E-06
SDA:  32    -0.353649479640E+03   -0.20295E-04   -0.20241E-04  7072   0.313E-03 0.104E-05
CGA:  33    -0.353649486760E+03   -0.71202E-05   -0.70991E-05  7072   0.906E-04-0.450E-06
   6 F= -.35364949E+03 E0= -.35363402E+03  d E =-.417362E+00  mag=     8.0000
       N       E                     dE             d eps       ncg     rms          ort
SDA:   1    -0.340563719982E+03    0.13086E+02    0.00000E+00  7072   0.788E+02 0.000E+00
CGA:   2    -0.343155827854E+03   -0.25921E+01   -0.29335E+01  7072   0.768E+02-0.934E+01
CGA:   3    -0.347749090606E+03   -0.45933E+01   -0.47726E+01  7072   0.106E+03-0.177E+02
CGA:   4    -0.349574907198E+03   -0.18258E+01   -0.14421E+01  7072   0.711E+02 0.122E+02
CGA:   5    -0.350971436280E+03   -0.13965E+01   -0.13240E+01  7072   0.240E+02 0.248E+01
CGA:   6    -0.351707918018E+03   -0.73648E+00   -0.70568E+00  7072   0.243E+02 0.463E+00
CGA:   7    -0.352018123003E+03   -0.31020E+00   -0.33992E+00  7072   0.177E+02-0.371E+01
CGA:   8    -0.352391864050E+03   -0.37374E+00   -0.35538E+00  7072   0.405E+02 0.467E+00
CGA:   9    -0.353111618604E+03   -0.71975E+00   -0.74127E+00  7072   0.275E+02-0.215E+01
CGA:  10    -0.353336093739E+03   -0.22448E+00   -0.35814E+00  7072   0.101E+02-0.772E+01
CGA:  11    -0.353551283989E+03   -0.21519E+00   -0.21396E+00  7072   0.570E+01 0.498E-02
CGA:  12    -0.353630899020E+03   -0.79615E-01   -0.75015E-01  7072   0.189E+01 0.257E+00
CGA:  13    -0.353681573195E+03   -0.50674E-01   -0.51462E-01  7072   0.189E+01-0.708E-02
CGA:  14    -0.353734699187E+03   -0.53126E-01   -0.55711E-01  7072   0.261E+01-0.110E-01
CGA:  15    -0.353821951553E+03   -0.87252E-01   -0.89322E-01  7072   0.134E+01 0.361E-01
CGA:  16    -0.353861795018E+03   -0.39843E-01   -0.40073E-01  7072   0.102E+01-0.664E-03
CGA:  17    -0.353884110954E+03   -0.22316E-01   -0.23734E-01  7072   0.291E+00-0.245E-01
CGA:  18    -0.353899626112E+03   -0.15515E-01   -0.15158E-01  7072   0.387E+00 0.244E-01
CGA:  19    -0.353912727974E+03   -0.13102E-01   -0.12986E-01  7072   0.290E+00-0.915E-03
CGA:  20    -0.353933438517E+03   -0.20711E-01   -0.20444E-01  7072   0.249E+00 0.805E-02
CGA:  21    -0.353942651276E+03   -0.92128E-02   -0.93504E-02  7072   0.130E+00 0.505E-02
CGA:  22    -0.353946865705E+03   -0.42144E-02   -0.42152E-02  7072   0.590E-01 0.986E-05
CGA:  23    -0.353953725039E+03   -0.68593E-02   -0.68608E-02  7072   0.812E-01-0.492E-04
CGA:  24    -0.353958459446E+03   -0.47344E-02   -0.47090E-02  7072   0.790E-01 0.162E-02
CGA:  25    -0.353961674964E+03   -0.32155E-02   -0.32222E-02  7072   0.438E-01 0.267E-03
CGA:  26    -0.353963731507E+03   -0.20565E-02   -0.20568E-02  7072   0.203E-01 0.244E-03
CGA:  27    -0.353968109858E+03   -0.43784E-02   -0.43580E-02  7072   0.234E-01 0.147E-03
CGA:  28    -0.353969294266E+03   -0.11844E-02   -0.11846E-02  7072   0.126E-01 0.109E-04
CGA:  29    -0.353969910277E+03   -0.61601E-03   -0.61585E-03  7072   0.136E-01-0.102E-04
CGA:  30    -0.353970768216E+03   -0.85794E-03   -0.85814E-03  7072   0.120E-01-0.213E-04
CGA:  31    -0.353971780461E+03   -0.10122E-02   -0.10112E-02  7072   0.683E-02 0.303E-04
SDA:  32    -0.353972218784E+03   -0.43832E-03   -0.43829E-03  7072   0.278E-02 0.641E-05
CGA:  33    -0.353972378652E+03   -0.15987E-03   -0.15987E-03  7072   0.248E-02-0.220E-05
CGA:  34    -0.353972646621E+03   -0.26797E-03   -0.26767E-03  7072   0.469E-02 0.615E-05
CGA:  35    -0.353972814079E+03   -0.16746E-03   -0.16739E-03  7072   0.176E-02 0.658E-05
CGA:  36    -0.353972902929E+03   -0.88850E-04   -0.88919E-04  7072   0.832E-03 0.742E-05
CGA:  37    -0.353972990826E+03   -0.87897E-04   -0.87782E-04  7072   0.112E-02 0.233E-05
CGA:  38    -0.353973137987E+03   -0.14716E-03   -0.14719E-03  7072   0.747E-03-0.578E-06
CGA:  39    -0.353973189427E+03   -0.51440E-04   -0.51446E-04  7072   0.496E-03-0.102E-05
CGA:  40    -0.353973211722E+03   -0.22295E-04   -0.22326E-04  7072   0.635E-03 0.157E-05
CGA:  41    -0.353973284013E+03   -0.72291E-04   -0.72077E-04  7072   0.592E-03 0.428E-05
CGA:  42    -0.353973324400E+03   -0.40387E-04   -0.40384E-04  7072   0.222E-03 0.201E-05
CGA:  43    -0.353973349643E+03   -0.25242E-04   -0.25170E-04  7072   0.307E-03 0.148E-05
CGA:  44    -0.353973365144E+03   -0.15501E-04   -0.15499E-04  7072   0.293E-03-0.810E-07
CGA:  45    -0.353973382107E+03   -0.16964E-04   -0.16970E-04  7072   0.286E-03 0.762E-06
CGA:  46    -0.353973395121E+03   -0.13014E-04   -0.13016E-04  7072   0.518E-04 0.204E-06
CGA:  47    -0.353973408039E+03   -0.12917E-04   -0.12817E-04  7072   0.832E-04 0.511E-06
CGA:  48    -0.353973412297E+03   -0.42583E-05   -0.42678E-05  7072   0.633E-04 0.359E-06
   7 F= -.35397341E+03 E0= -.35395753E+03  d E =-.323926E+00  mag=     8.0000
       N       E                     dE             d eps       ncg     rms          ort
SDA:   1    -0.336114377173E+03    0.17859E+02    0.00000E+00  7072   0.745E+02 0.000E+00
CGA:   2    -0.339706026776E+03   -0.35916E+01   -0.37377E+01  7072   0.110E+03-0.269E+01
CGA:   3    -0.346966010647E+03   -0.72600E+01   -0.70613E+01  7072   0.121E+03-0.210E+02
CGA:   4    -0.349100640836E+03   -0.21346E+01   -0.23387E+01  7072   0.108E+03-0.136E+02
CGA:   5    -0.350358954845E+03   -0.12583E+01   -0.14895E+01  7072   0.487E+02-0.194E+02
CGA:   6    -0.351176854898E+03   -0.81790E+00   -0.77595E+00  7072   0.370E+02 0.843E+00
CGA:   7    -0.351671528552E+03   -0.49467E+00   -0.44853E+00  7072   0.225E+02 0.244E+01
CGA:   8    -0.352240898304E+03   -0.56937E+00   -0.54245E+00  7072   0.433E+02 0.106E+01
CGA:   9    -0.352947617787E+03   -0.70672E+00   -0.85135E+00  7072   0.311E+02-0.659E+01
CGA:  10    -0.353252121458E+03   -0.30450E+00   -0.35408E+00  7072   0.210E+02-0.309E+01
CGA:  11    -0.353580907015E+03   -0.32879E+00   -0.30537E+00  7072   0.117E+02 0.111E+01
CGA:  12    -0.353703865050E+03   -0.12296E+00   -0.11346E+00  7072   0.345E+01 0.840E+00
CGA:  13    -0.353759651747E+03   -0.55787E-01   -0.55322E-01  7072   0.337E+01 0.204E-01
CGA:  14    -0.353816730295E+03   -0.57079E-01   -0.59409E-01  7072   0.334E+01-0.841E-01
CGA:  15    -0.353879355342E+03   -0.62625E-01   -0.67531E-01  7072   0.520E+01-0.161E+00
CGA:  16    -0.353988579601E+03   -0.10922E+00   -0.11727E+00  7072   0.427E+01-0.144E+00
CGA:  17    -0.354047422205E+03   -0.58843E-01   -0.61615E-01  7072   0.245E+01-0.137E+00
CGA:  18    -0.354088259175E+03   -0.40837E-01   -0.43644E-01  7072   0.116E+01-0.951E-01
CGA:  19    -0.354103780289E+03   -0.15521E-01   -0.17857E-01  7072   0.598E+00-0.981E-01
CGA:  20    -0.354128460398E+03   -0.24680E-01   -0.24342E-01  7072   0.716E+00 0.519E-01
CGA:  21    -0.354146087084E+03   -0.17627E-01   -0.17484E-01  7072   0.442E+00 0.158E-02
CGA:  22    -0.354168827073E+03   -0.22740E-01   -0.22658E-01  7072   0.507E+00 0.484E-02
CGA:  23    -0.354184591818E+03   -0.15765E-01   -0.16413E-01  7072   0.313E+00 0.199E-01
CGA:  24    -0.354195478071E+03   -0.10886E-01   -0.10880E-01  7072   0.691E-01-0.181E-03
CGA:  25    -0.354200436303E+03   -0.49582E-02   -0.49859E-02  7072   0.905E-01-0.823E-03
CGA:  26    -0.354207944592E+03   -0.75083E-02   -0.72734E-02  7072   0.130E+00 0.555E-02
CGA:  27    -0.354212060746E+03   -0.41162E-02   -0.41283E-02  7072   0.222E-01 0.399E-04
CGA:  28    -0.354213752909E+03   -0.16922E-02   -0.16793E-02  7072   0.297E-01 0.365E-03
CGA:  29    -0.354216056281E+03   -0.23034E-02   -0.23030E-02  7072   0.355E-01 0.123E-04
CGA:  30    -0.354217715112E+03   -0.16588E-02   -0.16585E-02  7072   0.248E-01 0.213E-03
CGA:  31    -0.354219088615E+03   -0.13735E-02   -0.13744E-02  7072   0.770E-02-0.671E-04
SDA:  32    -0.354219659144E+03   -0.57053E-03   -0.56975E-03  7072   0.134E-01 0.256E-04
CGA:  33    -0.354219986278E+03   -0.32713E-03   -0.32680E-03  7072   0.547E-02 0.235E-05
CGA:  34    -0.354220594027E+03   -0.60775E-03   -0.60530E-03  7072   0.906E-02 0.407E-04
CGA:  35    -0.354221319655E+03   -0.72563E-03   -0.72545E-03  7072   0.599E-02 0.643E-05
CGA:  36    -0.354221819497E+03   -0.49984E-03   -0.50043E-03  7072   0.396E-02-0.161E-04
CGA:  37    -0.354222080099E+03   -0.26060E-03   -0.26073E-03  7072   0.343E-02-0.670E-05
CGA:  38    -0.354222457686E+03   -0.37759E-03   -0.37778E-03  7072   0.778E-02-0.404E-05
CGA:  39    -0.354222752190E+03   -0.29450E-03   -0.29450E-03  7072   0.355E-02 0.787E-05
CGA:  40    -0.354222972004E+03   -0.21981E-03   -0.21981E-03  7072   0.210E-02 0.141E-05
CGA:  41    -0.354223174447E+03   -0.20244E-03   -0.20222E-03  7072   0.184E-02 0.511E-05
CGA:  42    -0.354223401085E+03   -0.22664E-03   -0.22602E-03  7072   0.111E-02 0.937E-05
CGA:  43    -0.354223456324E+03   -0.55238E-04   -0.55245E-04  7072   0.432E-03 0.116E-05
CGA:  44    -0.354223487065E+03   -0.30741E-04   -0.30743E-04  7072   0.107E-02-0.187E-06
CGA:  45    -0.354223562924E+03   -0.75859E-04   -0.75828E-04  7072   0.231E-03 0.279E-05
CGA:  46    -0.354223588563E+03   -0.25639E-04   -0.25577E-04  7072   0.188E-03 0.118E-05
CGA:  47    -0.354223605621E+03   -0.17058E-04   -0.17018E-04  7072   0.267E-03 0.151E-05
CGA:  48    -0.354223623790E+03   -0.18169E-04   -0.18164E-04  7072   0.182E-03 0.183E-05
CGA:  49    -0.354223630475E+03   -0.66849E-05   -0.66960E-05  7072   0.118E-03 0.383E-06
   8 F= -.35422363E+03 E0= -.35420749E+03  d E =-.250218E+00  mag=     8.0000
       N       E                     dE             d eps       ncg     rms          ort
SDA:   1    -0.333836042480E+03    0.20388E+02    0.00000E+00  7072   0.665E+02 0.000E+00
CGA:   2    -0.339117976453E+03   -0.52819E+01   -0.53185E+01  7072   0.153E+03-0.518E+00
CGA:   3    -0.347763203264E+03   -0.86452E+01   -0.76596E+01  7072   0.921E+02-0.258E+01
CGA:   4    -0.349588530598E+03   -0.18253E+01   -0.22262E+01  7072   0.693E+02-0.143E+02
CGA:   5    -0.350556491494E+03   -0.96796E+00   -0.95550E+00  7072   0.387E+02 0.511E+00
CGA:   6    -0.351569315397E+03   -0.10128E+01   -0.85382E+00  7072   0.341E+02 0.602E+01
CGA:   7    -0.352194586765E+03   -0.62527E+00   -0.56148E+00  7072   0.231E+02 0.251E+01
CGA:   8    -0.352786129456E+03   -0.59154E+00   -0.58585E+00  7072   0.385E+02 0.215E+00
CGA:   9    -0.353378879903E+03   -0.59275E+00   -0.70530E+00  7072   0.237E+02-0.450E+01
CGA:  10    -0.353652112738E+03   -0.27323E+00   -0.29216E+00  7072   0.155E+02-0.121E+01
CGA:  11    -0.353875233409E+03   -0.22312E+00   -0.18923E+00  7072   0.612E+01 0.226E+01
CGA:  12    -0.353945113305E+03   -0.69880E-01   -0.68765E-01  7072   0.196E+01 0.761E-01
CGA:  13    -0.353991063040E+03   -0.45950E-01   -0.47335E-01  7072   0.334E+01-0.267E-01
CGA:  14    -0.354065518823E+03   -0.74456E-01   -0.78969E-01  7072   0.354E+01-0.755E-01
CGA:  15    -0.354146544343E+03   -0.81026E-01   -0.88552E-01  7072   0.349E+01-0.892E-01
CGA:  16    -0.354205967535E+03   -0.59423E-01   -0.60402E-01  7072   0.108E+01-0.340E-01
CGA:  17    -0.354228871115E+03   -0.22904E-01   -0.23424E-01  7072   0.766E+00-0.104E-01
CGA:  18    -0.354245684259E+03   -0.16813E-01   -0.17748E-01  7072   0.378E+00-0.126E-01
CGA:  19    -0.354259506441E+03   -0.13822E-01   -0.13931E-01  7072   0.513E+00 0.179E-01
CGA:  20    -0.354276453113E+03   -0.16947E-01   -0.16823E-01  7072   0.269E+00-0.332E-02
CGA:  21    -0.354288226094E+03   -0.11773E-01   -0.11741E-01  7072   0.212E+00 0.432E-02
CGA:  22    -0.354295812359E+03   -0.75863E-02   -0.76625E-02  7072   0.154E+00 0.703E-02
CGA:  23    -0.354301376850E+03   -0.55645E-02   -0.55653E-02  7072   0.541E-01 0.102E-03
CGA:  24    -0.354305271732E+03   -0.38949E-02   -0.38990E-02  7072   0.647E-01-0.120E-03
CGA:  25    -0.354309134574E+03   -0.38628E-02   -0.37782E-02  7072   0.646E-01 0.378E-02
CGA:  26    -0.354311394849E+03   -0.22603E-02   -0.22598E-02  7072   0.224E-01-0.815E-06
CGA:  27    -0.354312809780E+03   -0.14149E-02   -0.14075E-02  7072   0.143E-01 0.290E-03
CGA:  28    -0.354314152969E+03   -0.13432E-02   -0.13357E-02  7072   0.187E-01 0.152E-03
CGA:  29    -0.354315365209E+03   -0.12122E-02   -0.12062E-02  7072   0.234E-01 0.261E-03
CGA:  30    -0.354316308167E+03   -0.94296E-03   -0.94251E-03  7072   0.486E-02-0.178E-04
CGA:  31    -0.354316685273E+03   -0.37711E-03   -0.37537E-03  7072   0.682E-02 0.497E-04
SDA:  32    -0.354317290578E+03   -0.60531E-03   -0.60624E-03  7072   0.932E-02-0.220E-04
CGA:  33    -0.354317514962E+03   -0.22438E-03   -0.22510E-03  7072   0.330E-02-0.608E-05
CGA:  34    -0.354317739578E+03   -0.22462E-03   -0.22435E-03  7072   0.211E-02 0.119E-04
CGA:  35    -0.354318021159E+03   -0.28158E-03   -0.28170E-03  7072   0.328E-02-0.197E-05
CGA:  36    -0.354318332142E+03   -0.31098E-03   -0.31088E-03  7072   0.213E-02 0.229E-05
CGA:  37    -0.354318467010E+03   -0.13487E-03   -0.13488E-03  7072   0.174E-02-0.458E-06
CGA:  38    -0.354318533548E+03   -0.66538E-04   -0.66586E-04  7072   0.129E-02 0.362E-05
CGA:  39    -0.354318664262E+03   -0.13071E-03   -0.13044E-03  7072   0.158E-02 0.588E-05
CGA:  40    -0.354318748112E+03   -0.83850E-04   -0.83889E-04  7072   0.571E-03 0.801E-05
CGA:  41    -0.354318813632E+03   -0.65520E-04   -0.65296E-04  7072   0.550E-03 0.389E-05
CGA:  42    -0.354318857941E+03   -0.44309E-04   -0.44258E-04  7072   0.459E-03 0.240E-05
CGA:  43    -0.354318890751E+03   -0.32810E-04   -0.32780E-04  7072   0.346E-03 0.285E-05
CGA:  44    -0.354318901779E+03   -0.11028E-04   -0.11030E-04  7072   0.182E-03 0.166E-06
CGA:  45    -0.354318920179E+03   -0.18400E-04   -0.18371E-04  7072   0.178E-03 0.621E-06
CGA:  46    -0.354318938329E+03   -0.18150E-04   -0.18112E-04  7072   0.140E-03 0.926E-06
CGA:  47    -0.354318949930E+03   -0.11601E-04   -0.11577E-04  7072   0.579E-04 0.119E-05
CGA:  48    -0.354318954456E+03   -0.45266E-05   -0.45187E-05  7072   0.852E-04 0.599E-06
   9 F= -.35431895E+03 E0= -.35430309E+03  d E =-.953240E-01  mag=     8.0000
       N       E                     dE             d eps       ncg     rms          ort
SDA:   1    -0.321450529820E+03    0.32868E+02    0.00000E+00  7072   0.121E+03 0.000E+00
CGA:   2    -0.330142291219E+03   -0.86918E+01   -0.88792E+01  7072   0.241E+03-0.182E+02
CGA:   3    -0.341163550255E+03   -0.11021E+02   -0.90119E+01  7072   0.174E+03 0.306E+02
CGA:   4    -0.344254858434E+03   -0.30913E+01   -0.67899E+01  7072   0.207E+03-0.171E+02
CGA:   5    -0.346778249918E+03   -0.25234E+01   -0.28670E+01  7072   0.106E+03-0.416E+02
CGA:   6    -0.348120949236E+03   -0.13427E+01   -0.10820E+01  7072   0.128E+03-0.123E+02
CGA:   7    -0.348302334249E+03   -0.18139E+00   -0.12560E+01  7072   0.201E+03-0.819E+02
CGA:   8    -0.349957524215E+03   -0.16552E+01   -0.35338E+01  7072   0.112E+03-0.107E+03
CGA:   9    -0.351032141753E+03   -0.10746E+01   -0.14696E+01  7072   0.313E+02-0.353E+02
CGA:  10    -0.351911768141E+03   -0.87963E+00   -0.86860E+00  7072   0.284E+02-0.206E+00
CGA:  11    -0.352767338686E+03   -0.85557E+00   -0.89933E+00  7072   0.207E+02-0.298E+00
CGA:  12    -0.353296336243E+03   -0.52900E+00   -0.54369E+00  7072   0.137E+02-0.434E+00
CGA:  13    -0.353650715876E+03   -0.35438E+00   -0.35166E+00  7072   0.561E+01-0.895E-01
CGA:  14    -0.353827574052E+03   -0.17686E+00   -0.18233E+00  7072   0.514E+01-0.137E-01
CGA:  15    -0.353986396348E+03   -0.15882E+00   -0.16238E+00  7072   0.458E+01-0.368E-01
CGA:  16    -0.354159742288E+03   -0.17335E+00   -0.17551E+00  7072   0.296E+01 0.666E-01
CGA:  17    -0.354253477551E+03   -0.93735E-01   -0.99703E-01  7072   0.207E+01 0.312E-01
CGA:  18    -0.354325397682E+03   -0.71920E-01   -0.73833E-01  7072   0.137E+01 0.339E-01
CGA:  19    -0.354393277963E+03   -0.67880E-01   -0.67139E-01  7072   0.708E+00 0.181E+00
CGA:  20    -0.354422557390E+03   -0.29279E-01   -0.29612E-01  7072   0.529E+00 0.988E-02
CGA:  21    -0.354451322274E+03   -0.28765E-01   -0.28226E-01  7072   0.375E+00 0.474E-01
CGA:  22    -0.354466048501E+03   -0.14726E-01   -0.14702E-01  7072   0.135E+00-0.614E-03
CGA:  23    -0.354473888932E+03   -0.78404E-02   -0.77424E-02  7072   0.126E+00 0.567E-02
CGA:  24    -0.354480498409E+03   -0.66095E-02   -0.66084E-02  7072   0.992E-01 0.169E-03
CGA:  25    -0.354486449732E+03   -0.59513E-02   -0.58395E-02  7072   0.576E-01 0.625E-02
CGA:  26    -0.354489636833E+03   -0.31871E-02   -0.31839E-02  7072   0.542E-01 0.381E-03
CGA:  27    -0.354493723506E+03   -0.40867E-02   -0.40210E-02  7072   0.637E-01 0.209E-02
CGA:  28    -0.354497083955E+03   -0.33604E-02   -0.33607E-02  7072   0.327E-01-0.417E-04
CGA:  29    -0.354499028830E+03   -0.19449E-02   -0.19393E-02  7072   0.319E-01 0.373E-03
CGA:  30    -0.354500978497E+03   -0.19497E-02   -0.19482E-02  7072   0.258E-01 0.102E-03
CGA:  31    -0.354502425289E+03   -0.14468E-02   -0.14447E-02  7072   0.148E-01 0.221E-03
CGA:  32    -0.354503190662E+03   -0.76537E-03   -0.76533E-03  7072   0.114E-01 0.249E-04
CGA:  33    -0.354503911873E+03   -0.72121E-03   -0.72067E-03  7072   0.968E-02 0.350E-04
CGA:  34    -0.354504504095E+03   -0.59222E-03   -0.59243E-03  7072   0.714E-02-0.109E-04
CGA:  35    -0.354504858797E+03   -0.35470E-03   -0.35470E-03  7072   0.477E-02 0.589E-05
CGA:  36    -0.354505169015E+03   -0.31022E-03   -0.31004E-03  7072   0.428E-02 0.116E-04
CGA:  37    -0.354505441890E+03   -0.27288E-03   -0.27292E-03  7072   0.386E-02 0.879E-06
CGA:  38    -0.354505643964E+03   -0.20207E-03   -0.20207E-03  7072   0.256E-02-0.207E-05
SDA:  39    -0.354505811333E+03   -0.16737E-03   -0.16726E-03  7072   0.227E-02 0.814E-05
CGA:  40    -0.354505861383E+03   -0.50050E-04   -0.49974E-04  7072   0.686E-03-0.552E-06
CGA:  41    -0.354506012726E+03   -0.15134E-03   -0.15157E-03  7072   0.220E-02-0.181E-05
CGA:  42    -0.354506119921E+03   -0.10719E-03   -0.10713E-03  7072   0.536E-03-0.187E-05
CGA:  43    -0.354506183230E+03   -0.63310E-04   -0.63549E-04  7072   0.624E-03-0.417E-05
CGA:  44    -0.354506214186E+03   -0.30956E-04   -0.30955E-04  7072   0.862E-03 0.130E-06
CGA:  45    -0.354506283510E+03   -0.69324E-04   -0.69356E-04  7072   0.399E-03-0.144E-05
CGA:  46    -0.354506307130E+03   -0.23620E-04   -0.23618E-04  7072   0.162E-03-0.636E-06
CGA:  47    -0.354506330231E+03   -0.23101E-04   -0.23023E-04  7072   0.221E-03 0.896E-06
CGA:  48    -0.354506347174E+03   -0.16944E-04   -0.16925E-04  7072   0.270E-03 0.185E-05
CGA:  49    -0.354506356687E+03   -0.95127E-05   -0.95456E-05  7072   0.981E-04 0.113E-05
  10 F= -.35450636E+03 E0= -.35449064E+03  d E =-.187402E+00  mag=     8.0000
       N       E                     dE             d eps       ncg     rms          ort
SDA:   1    -0.330209463137E+03    0.24297E+02    0.00000E+00  7072   0.805E+02 0.000E+00
CGA:   2    -0.338957360626E+03   -0.87479E+01   -0.88569E+01  7072   0.183E+03 0.657E+00
CGA:   3    -0.346402475183E+03   -0.74451E+01   -0.57168E+01  7072   0.515E+02 0.424E+02
CGA:   4    -0.348837419859E+03   -0.24349E+01   -0.27414E+01  7072   0.513E+02-0.156E+01
CGA:   5    -0.350491651072E+03   -0.16542E+01   -0.16528E+01  7072   0.458E+02 0.179E+01
CGA:   6    -0.351830760072E+03   -0.13391E+01   -0.92575E+00  7072   0.325E+02 0.142E+02
CGA:   7    -0.352705491436E+03   -0.87473E+00   -0.77035E+00  7072   0.250E+02 0.378E+01
CGA:   8    -0.353116749907E+03   -0.41126E+00   -0.44479E+00  7072   0.223E+02-0.183E+01
CGA:   9    -0.353446861088E+03   -0.33011E+00   -0.35429E+00  7072   0.195E+02-0.740E+00
CGA:  10    -0.353730995821E+03   -0.28413E+00   -0.29601E+00  7072   0.146E+02-0.725E+00
CGA:  11    -0.353980670767E+03   -0.24967E+00   -0.22089E+00  7072   0.108E+02 0.174E+01
CGA:  12    -0.354114936068E+03   -0.13427E+00   -0.10355E+00  7072   0.430E+01 0.325E+01
CGA:  13    -0.354178327485E+03   -0.63391E-01   -0.63976E-01  7072   0.326E+01-0.723E-01
CGA:  14    -0.354233089113E+03   -0.54762E-01   -0.55803E-01  7072   0.464E+01-0.482E-01
CGA:  15    -0.354284751346E+03   -0.51662E-01   -0.56971E-01  7072   0.280E+01-0.332E+00
CGA:  16    -0.354313776217E+03   -0.29025E-01   -0.32735E-01  7072   0.228E+01-0.231E+00
CGA:  17    -0.354355859132E+03   -0.42083E-01   -0.43883E-01  7072   0.330E+01-0.410E-01
CGA:  18    -0.354407110105E+03   -0.51251E-01   -0.55990E-01  7072   0.170E+01-0.159E+00
CGA:  19    -0.354429034764E+03   -0.21925E-01   -0.22487E-01  7072   0.927E+00-0.259E-01
CGA:  20    -0.354449369504E+03   -0.20335E-01   -0.20384E-01  7072   0.895E+00-0.665E-03
CGA:  21    -0.354463051932E+03   -0.13682E-01   -0.13668E-01  7072   0.362E+00 0.818E-03
CGA:  22    -0.354469277237E+03   -0.62253E-02   -0.64196E-02  7072   0.331E+00-0.563E-02
CGA:  23    -0.354480367278E+03   -0.11090E-01   -0.11124E-01  7072   0.489E+00 0.999E-02
CGA:  24    -0.354490678489E+03   -0.10311E-01   -0.10572E-01  7072   0.263E+00-0.273E-02
CGA:  25    -0.354498935860E+03   -0.82574E-02   -0.82558E-02  7072   0.332E+00-0.222E-03
CGA:  26    -0.354507143911E+03   -0.82081E-02   -0.82812E-02  7072   0.147E+00 0.801E-03
CGA:  27    -0.354509892663E+03   -0.27488E-02   -0.27707E-02  7072   0.842E-01-0.421E-03
CGA:  28    -0.354513934409E+03   -0.40417E-02   -0.40181E-02  7072   0.152E+00 0.129E-02
CGA:  29    -0.354517786019E+03   -0.38516E-02   -0.38578E-02  7072   0.764E-01 0.153E-03
CGA:  30    -0.354520480735E+03   -0.26947E-02   -0.26942E-02  7072   0.104E+00 0.177E-03
CGA:  31    -0.354523916467E+03   -0.34357E-02   -0.34370E-02  7072   0.691E-01 0.856E-03
SDA:  32    -0.354525791618E+03   -0.18752E-02   -0.18812E-02  7072   0.552E-01 0.239E-03
CGA:  33    -0.354527308919E+03   -0.15173E-02   -0.15160E-02  7072   0.194E-01-0.559E-04
CGA:  34    -0.354528493046E+03   -0.11841E-02   -0.11815E-02  7072   0.244E-01 0.929E-04
CGA:  35    -0.354531344681E+03   -0.28516E-02   -0.28514E-02  7072   0.126E-01-0.314E-05
CGA:  36    -0.354532516059E+03   -0.11714E-02   -0.11710E-02  7072   0.113E-01 0.739E-05
CGA:  37    -0.354533496173E+03   -0.98011E-03   -0.97589E-03  7072   0.186E-01 0.961E-04
CGA:  38    -0.354534498533E+03   -0.10024E-02   -0.10030E-02  7072   0.152E-01-0.344E-04
CGA:  39    -0.354535186182E+03   -0.68765E-03   -0.68760E-03  7072   0.461E-02 0.290E-04
CGA:  40    -0.354535594762E+03   -0.40858E-03   -0.40806E-03  7072   0.691E-02 0.124E-04
CGA:  41    -0.354536399288E+03   -0.80453E-03   -0.80469E-03  7072   0.500E-02-0.258E-05
CGA:  42    -0.354536768822E+03   -0.36953E-03   -0.36959E-03  7072   0.189E-02-0.229E-05
CGA:  43    -0.354536940018E+03   -0.17120E-03   -0.17078E-03  7072   0.187E-02 0.101E-04
CGA:  44    -0.354537116112E+03   -0.17609E-03   -0.17576E-03  7072   0.244E-02 0.820E-05
CGA:  45    -0.354537199046E+03   -0.82934E-04   -0.82898E-04  7072   0.102E-02-0.606E-06
CGA:  46    -0.354537267941E+03   -0.68895E-04   -0.68929E-04  7072   0.281E-03-0.227E-05
CGA:  47    -0.354537329888E+03   -0.61946E-04   -0.61574E-04  7072   0.331E-03 0.226E-05
CGA:  48    -0.354537342563E+03   -0.12676E-04   -0.12686E-04  7072   0.163E-03 0.526E-06
CGA:  49    -0.354537356371E+03   -0.13808E-04   -0.13815E-04  7072   0.347E-03-0.354E-06
CGA:  50    -0.354537376578E+03   -0.20206E-04   -0.20212E-04  7072   0.188E-03 0.119E-05
CGA:  51    -0.354537396698E+03   -0.20120E-04   -0.20040E-04  7072   0.888E-04 0.179E-05
CGA:  52    -0.354537407454E+03   -0.10756E-04   -0.10716E-04  7072   0.160E-03 0.695E-06
CGA:  53    -0.354537428057E+03   -0.20603E-04   -0.20397E-04  7072   0.649E-04 0.347E-05
CGA:  54    -0.354537437013E+03   -0.89559E-05   -0.88307E-05  7072   0.849E-04 0.197E-05
  11 F= -.35453744E+03 E0= -.35452185E+03  d E =-.310803E-01  mag=     8.0000
       N       E                     dE             d eps       ncg     rms          ort
SDA:   1    -0.325598608017E+03    0.28939E+02    0.00000E+00  7072   0.942E+02 0.000E+00
CGA:   2    -0.337585865744E+03   -0.11987E+02   -0.11709E+02  7072   0.178E+03 0.620E+01
CGA:   3    -0.344476467880E+03   -0.68906E+01   -0.52261E+01  7072   0.463E+02 0.449E+02
CGA:   4    -0.348476014332E+03   -0.39995E+01   -0.39429E+01  7072   0.633E+02-0.386E+01
CGA:   5    -0.350194970863E+03   -0.17190E+01   -0.16254E+01  7072   0.541E+02 0.319E+01
CGA:   6    -0.352155014693E+03   -0.19600E+01   -0.18289E+01  7072   0.405E+02 0.239E+01
CGA:   7    -0.353022636687E+03   -0.86762E+00   -0.73036E+00  7072   0.152E+02 0.610E+01
CGA:   8    -0.353522394197E+03   -0.49976E+00   -0.43363E+00  7072   0.174E+02 0.182E+01
CGA:   9    -0.353845738472E+03   -0.32334E+00   -0.40734E+00  7072   0.737E+01-0.348E+01
CGA:  10    -0.353946945996E+03   -0.10121E+00   -0.11285E+00  7072   0.731E+01-0.490E+00
CGA:  11    -0.354185381404E+03   -0.23844E+00   -0.23521E+00  7072   0.723E+01-0.139E-01
CGA:  12    -0.354338592136E+03   -0.15321E+00   -0.16548E+00  7072   0.402E+01-0.394E+00
CGA:  13    -0.354407842906E+03   -0.69251E-01   -0.76542E-01  7072   0.138E+01-0.234E+00
CGA:  14    -0.354438570840E+03   -0.30728E-01   -0.32000E-01  7072   0.116E+01-0.307E-01
CGA:  15    -0.354482384355E+03   -0.43814E-01   -0.43578E-01  7072   0.876E+00-0.222E-02
CGA:  16    -0.354505724675E+03   -0.23340E-01   -0.23575E-01  7072   0.746E+00-0.353E-02
CGA:  17    -0.354533094990E+03   -0.27370E-01   -0.27770E-01  7072   0.658E+00 0.337E-02
CGA:  18    -0.354555807422E+03   -0.22712E-01   -0.23292E-01  7072   0.538E+00 0.237E-02
CGA:  19    -0.354569958423E+03   -0.14151E-01   -0.14349E-01  7072   0.134E+00-0.316E-02
CGA:  20    -0.354575116336E+03   -0.51579E-02   -0.51481E-02  7072   0.171E+00-0.201E-03
CGA:  21    -0.354583213200E+03   -0.80969E-02   -0.81020E-02  7072   0.129E+00 0.199E-02
CGA:  22    -0.354588124828E+03   -0.49116E-02   -0.49382E-02  7072   0.122E+00 0.547E-03
CGA:  23    -0.354593538113E+03   -0.54133E-02   -0.54222E-02  7072   0.995E-01 0.924E-03
CGA:  24    -0.354597246479E+03   -0.37084E-02   -0.37196E-02  7072   0.452E-01 0.223E-03
CGA:  25    -0.354598735781E+03   -0.14893E-02   -0.14924E-02  7072   0.348E-01 0.328E-04
CGA:  26    -0.354601115507E+03   -0.23797E-02   -0.23711E-02  7072   0.468E-01 0.333E-03
CGA:  27    -0.354603211889E+03   -0.20964E-02   -0.20979E-02  7072   0.417E-01 0.209E-03
CGA:  28    -0.354604830336E+03   -0.16184E-02   -0.16236E-02  7072   0.232E-01 0.182E-03
CGA:  29    -0.354606202663E+03   -0.13723E-02   -0.13703E-02  7072   0.238E-01 0.122E-03
CGA:  30    -0.354606938391E+03   -0.73573E-03   -0.73674E-03  7072   0.114E-01-0.740E-05
CGA:  31    -0.354608098488E+03   -0.11601E-02   -0.11558E-02  7072   0.226E-01 0.799E-04
SDA:  32    -0.354608816035E+03   -0.71755E-03   -0.71968E-03  7072   0.944E-02 0.186E-05
CGA:  33    -0.354609244794E+03   -0.42876E-03   -0.42835E-03  7072   0.534E-02-0.575E-04
CGA:  34    -0.354609474091E+03   -0.22930E-03   -0.22935E-03  7072   0.397E-02 0.391E-05
CGA:  35    -0.354610052650E+03   -0.57856E-03   -0.57791E-03  7072   0.769E-02 0.634E-05
CGA:  36    -0.354610455433E+03   -0.40278E-03   -0.40279E-03  7072   0.175E-02 0.577E-05
CGA:  37    -0.354610581028E+03   -0.12559E-03   -0.12571E-03  7072   0.221E-02-0.454E-05
CGA:  38    -0.354610845617E+03   -0.26459E-03   -0.26493E-03  7072   0.271E-02-0.539E-05
CGA:  39    -0.354610922210E+03   -0.76592E-04   -0.76579E-04  7072   0.759E-03 0.255E-05
CGA:  40    -0.354611042362E+03   -0.12015E-03   -0.12043E-03  7072   0.832E-03-0.341E-05
CGA:  41    -0.354611125841E+03   -0.83480E-04   -0.83393E-04  7072   0.998E-03 0.218E-05
CGA:  42    -0.354611196940E+03   -0.71099E-04   -0.71066E-04  7072   0.802E-03 0.400E-05
CGA:  43    -0.354611223941E+03   -0.27000E-04   -0.27019E-04  7072   0.321E-03 0.772E-06
CGA:  44    -0.354611264855E+03   -0.40914E-04   -0.40844E-04  7072   0.666E-03 0.110E-05
CGA:  45    -0.354611303704E+03   -0.38849E-04   -0.38842E-04  7072   0.224E-03-0.884E-06
CGA:  46    -0.354611323201E+03   -0.19497E-04   -0.19501E-04  7072   0.136E-03-0.221E-06
CGA:  47    -0.354611331370E+03   -0.81694E-05   -0.81761E-05  7072   0.130E-03 0.109E-05
  12 F= -.35461133E+03 E0= -.35459608E+03  d E =-.738944E-01  mag=     8.0000
       N       E                     dE             d eps       ncg     rms          ort
SDA:   1    -0.348997666183E+03    0.56137E+01    0.00000E+00  7072   0.178E+02 0.000E+00
CGA:   2    -0.351581388627E+03   -0.25837E+01   -0.25035E+01  7072   0.296E+02 0.991E+00
CGA:   3    -0.353134574184E+03   -0.15532E+01   -0.15207E+01  7072   0.132E+02 0.344E+00
CGA:   4    -0.353655088924E+03   -0.52051E+00   -0.50711E+00  7072   0.674E+01 0.110E+00
CGA:   5    -0.354195786178E+03   -0.54070E+00   -0.54274E+00  7072   0.574E+01-0.107E+00
CGA:   6    -0.354485263089E+03   -0.28948E+00   -0.28219E+00  7072   0.158E+01-0.334E-01
CGA:   7    -0.354591821738E+03   -0.10656E+00   -0.10649E+00  7072   0.650E+00 0.270E-01
CGA:   8    -0.354625782090E+03   -0.33960E-01   -0.33799E-01  7072   0.763E+00-0.212E-02
CGA:   9    -0.354666648663E+03   -0.40867E-01   -0.40907E-01  7072   0.242E+00 0.985E-03
CGA:  10    -0.354679110071E+03   -0.12461E-01   -0.12415E-01  7072   0.839E-01-0.758E-03
CGA:  11    -0.354688220761E+03   -0.91107E-02   -0.91289E-02  7072   0.865E-01-0.374E-03
CGA:  12    -0.354693227441E+03   -0.50067E-02   -0.50157E-02  7072   0.728E-01 0.375E-03
CGA:  13    -0.354695943532E+03   -0.27161E-02   -0.27078E-02  7072   0.281E-01 0.665E-04
CGA:  14    -0.354697920217E+03   -0.19767E-02   -0.19758E-02  7072   0.175E-01 0.856E-04
CGA:  15    -0.354700289558E+03   -0.23693E-02   -0.23570E-02  7072   0.198E-01 0.181E-03
CGA:  16    -0.354701384303E+03   -0.10947E-02   -0.10959E-02  7072   0.945E-02 0.187E-04
CGA:  17    -0.354702078645E+03   -0.69434E-03   -0.69448E-03  7072   0.900E-02-0.148E-04
CGA:  18    -0.354702725785E+03   -0.64714E-03   -0.64696E-03  7072   0.154E-01 0.373E-04
CGA:  19    -0.354703594527E+03   -0.86874E-03   -0.86939E-03  7072   0.367E-02 0.334E-04
CGA:  20    -0.354703909355E+03   -0.31483E-03   -0.31448E-03  7072   0.329E-02 0.172E-04
CGA:  21    -0.354704262455E+03   -0.35310E-03   -0.35260E-03  7072   0.411E-02 0.129E-04
CGA:  22    -0.354704407274E+03   -0.14482E-03   -0.14516E-03  7072   0.176E-02 0.859E-05
CGA:  23    -0.354704529318E+03   -0.12204E-03   -0.12204E-03  7072   0.944E-03 0.723E-05
CGA:  24    -0.354704609928E+03   -0.80609E-04   -0.80511E-04  7072   0.105E-02 0.569E-05
CGA:  25    -0.354704692845E+03   -0.82917E-04   -0.82894E-04  7072   0.728E-03 0.240E-05
CGA:  26    -0.354704720622E+03   -0.27777E-04   -0.27836E-04  7072   0.400E-03 0.120E-05
CGA:  27    -0.354704752695E+03   -0.32073E-04   -0.32076E-04  7072   0.440E-03-0.166E-06
CGA:  28    -0.354704784043E+03   -0.31348E-04   -0.31348E-04  7072   0.249E-03-0.592E-08
CGA:  29    -0.354704807335E+03   -0.23292E-04   -0.23340E-04  7072   0.246E-03-0.196E-05
CGA:  30    -0.354704817421E+03   -0.10085E-04   -0.10072E-04  7072   0.145E-03-0.535E-06
CGA:  31    -0.354704826253E+03   -0.88327E-05   -0.88221E-05  7072   0.111E-03-0.133E-05
SDA:  32    -0.354704840393E+03   -0.14140E-04   -0.14249E-04  7072   0.730E-04-0.184E-05
CGA:  33    -0.354704843230E+03   -0.28376E-05   -0.28303E-05  7072   0.445E-04-0.282E-06
  13 F= -.35470484E+03 E0= -.35468990E+03  d E =-.935119E-01  mag=     8.0000
       N       E                     dE             d eps       ncg     rms          ort
SDA:   1    -0.353552745493E+03    0.11521E+01    0.00000E+00  7072   0.345E+01 0.000E+00
CGA:   2    -0.354085354266E+03   -0.53261E+00   -0.51813E+00  7072   0.757E+01 0.184E+00
CGA:   3    -0.354393607941E+03   -0.30825E+00   -0.29648E+00  7072   0.244E+01 0.136E+00
CGA:   4    -0.354519099126E+03   -0.12549E+00   -0.12418E+00  7072   0.146E+01-0.590E-02
CGA:   5    -0.354631879929E+03   -0.11278E+00   -0.11286E+00  7072   0.823E+00-0.622E-02
CGA:   6    -0.354685902741E+03   -0.54023E-01   -0.54023E-01  7072   0.304E+00-0.438E-04
CGA:   7    -0.354702212744E+03   -0.16310E-01   -0.16328E-01  7072   0.113E+00 0.209E-03
CGA:   8    -0.354710540018E+03   -0.83273E-02   -0.83227E-02  7072   0.161E+00 0.690E-03
CGA:   9    -0.354716900915E+03   -0.63609E-02   -0.63202E-02  7072   0.344E-01 0.415E-03
CGA:  10    -0.354718881596E+03   -0.19807E-02   -0.19831E-02  7072   0.181E-01 0.735E-04
CGA:  11    -0.354720555414E+03   -0.16738E-02   -0.16759E-02  7072   0.163E-01-0.663E-04
CGA:  12    -0.354721518422E+03   -0.96301E-03   -0.96487E-03  7072   0.117E-01 0.661E-04
CGA:  13    -0.354721939221E+03   -0.42080E-03   -0.42084E-03  7072   0.425E-02-0.497E-05
CGA:  14    -0.354722275969E+03   -0.33675E-03   -0.33667E-03  7072   0.459E-02 0.383E-05
CGA:  15    -0.354722646490E+03   -0.37052E-03   -0.37062E-03  7072   0.282E-02-0.730E-05
CGA:  16    -0.354722867015E+03   -0.22052E-03   -0.22046E-03  7072   0.284E-02 0.357E-05
CGA:  17    -0.354722969422E+03   -0.10241E-03   -0.10234E-03  7072   0.132E-02-0.184E-05
CGA:  18    -0.354723140069E+03   -0.17065E-03   -0.17031E-03  7072   0.201E-02 0.578E-05
CGA:  19    -0.354723274382E+03   -0.13431E-03   -0.13432E-03  7072   0.915E-03 0.367E-05
CGA:  20    -0.354723326130E+03   -0.51748E-04   -0.51806E-04  7072   0.940E-03 0.296E-05
CGA:  21    -0.354723377692E+03   -0.51562E-04   -0.51572E-04  7072   0.610E-03 0.557E-06
CGA:  22    -0.354723419557E+03   -0.41865E-04   -0.41865E-04  7072   0.477E-03 0.186E-05
CGA:  23    -0.354723456189E+03   -0.36632E-04   -0.36618E-04  7072   0.193E-03 0.190E-05
CGA:  24    -0.354723466380E+03   -0.10191E-04   -0.10212E-04  7072   0.225E-03 0.129E-05
CGA:  25    -0.354723481744E+03   -0.15363E-04   -0.15363E-04  7072   0.148E-03 0.919E-06
CGA:  26    -0.354723491327E+03   -0.95836E-05   -0.95879E-05  7072   0.918E-04 0.118E-05
  14 F= -.35472349E+03 E0= -.35470850E+03  d E =-.186481E-01  mag=     8.0000
       N       E                     dE             d eps       ncg     rms          ort
SDA:   1    -0.351739699713E+03    0.29838E+01    0.00000E+00  7072   0.895E+01 0.000E+00
CGA:   2    -0.352574962090E+03   -0.83526E+00   -0.84456E+00  7072   0.277E+02-0.226E+00
CGA:   3    -0.354019563047E+03   -0.14446E+01   -0.14292E+01  7072   0.384E+01-0.531E-01
CGA:   4    -0.354357089008E+03   -0.33753E+00   -0.33366E+00  7072   0.304E+01 0.150E+00
CGA:   5    -0.354597889734E+03   -0.24080E+00   -0.24179E+00  7072   0.207E+01-0.898E-01
CGA:   6    -0.354656055302E+03   -0.58166E-01   -0.58548E-01  7072   0.707E+00-0.117E-01
CGA:   7    -0.354692757968E+03   -0.36703E-01   -0.36814E-01  7072   0.270E+00 0.137E-02
CGA:   8    -0.354718648693E+03   -0.25891E-01   -0.25867E-01  7072   0.216E+00 0.664E-03
CGA:   9    -0.354727720929E+03   -0.90722E-02   -0.91388E-02  7072   0.116E+00-0.286E-03
CGA:  10    -0.354732338336E+03   -0.46174E-02   -0.45944E-02  7072   0.561E-01 0.200E-03
CGA:  11    -0.354735824748E+03   -0.34864E-02   -0.34882E-02  7072   0.282E-01 0.198E-03
CGA:  12    -0.354738288664E+03   -0.24639E-02   -0.24616E-02  7072   0.242E-01 0.798E-04
CGA:  13    -0.354739493000E+03   -0.12043E-02   -0.12055E-02  7072   0.111E-01 0.623E-05
CGA:  14    -0.354739960669E+03   -0.46767E-03   -0.46770E-03  7072   0.865E-02 0.622E-06
CGA:  15    -0.354740611718E+03   -0.65105E-03   -0.65101E-03  7072   0.546E-02-0.344E-05
CGA:  16    -0.354741141129E+03   -0.52941E-03   -0.52973E-03  7072   0.437E-02-0.115E-04
CGA:  17    -0.354741472217E+03   -0.33109E-03   -0.33078E-03  7072   0.257E-02 0.208E-04
CGA:  18    -0.354741619484E+03   -0.14727E-03   -0.14733E-03  7072   0.390E-02 0.363E-05
CGA:  19    -0.354741920802E+03   -0.30132E-03   -0.30121E-03  7072   0.227E-02 0.933E-05
CGA:  20    -0.354742102231E+03   -0.18143E-03   -0.18133E-03  7072   0.163E-02 0.671E-05
CGA:  21    -0.354742203445E+03   -0.10121E-03   -0.10122E-03  7072   0.932E-03 0.102E-05
CGA:  22    -0.354742294376E+03   -0.90931E-04   -0.90935E-04  7072   0.133E-02-0.170E-06
CGA:  23    -0.354742352175E+03   -0.57799E-04   -0.57791E-04  7072   0.813E-03-0.594E-06
CGA:  24    -0.354742393268E+03   -0.41093E-04   -0.41146E-04  7072   0.280E-03 0.236E-05
CGA:  25    -0.354742427901E+03   -0.34634E-04   -0.34526E-04  7072   0.296E-03 0.183E-05
CGA:  26    -0.354742457931E+03   -0.30030E-04   -0.30016E-04  7072   0.232E-03 0.478E-06
CGA:  27    -0.354742466948E+03   -0.90162E-05   -0.90394E-05  7072   0.138E-03 0.567E-06
CGA:  28    -0.354742477005E+03   -0.10058E-04   -0.10057E-04  7072   0.186E-03 0.336E-07
CGA:  29    -0.354742491646E+03   -0.14641E-04   -0.14632E-04  7072   0.899E-04 0.939E-06
CGA:  30    -0.354742498656E+03   -0.70107E-05   -0.70096E-05  7072   0.597E-04 0.898E-07
  15 F= -.35474250E+03 E0= -.35472761E+03  d E =-.190073E-01  mag=     8.0000
       N       E                     dE             d eps       ncg     rms          ort
SDA:   1    -0.329700835261E+03    0.25042E+02    0.00000E+00  7072   0.645E+02 0.000E+00
CGA:   2    -0.346888398392E+03   -0.17188E+02   -0.17013E+02  7072   0.648E+02 0.972E+00
CGA:   3    -0.350093793773E+03   -0.32054E+01   -0.32179E+01  7072   0.322E+02 0.135E+01
CGA:   4    -0.351910521011E+03   -0.18167E+01   -0.17938E+01  7072   0.467E+02-0.422E+00
CGA:   5    -0.353437534163E+03   -0.15270E+01   -0.14873E+01  7072   0.166E+02 0.152E+01
CGA:   6    -0.353872647965E+03   -0.43511E+00   -0.43506E+00  7072   0.895E+01 0.521E-01
CGA:   7    -0.354187900699E+03   -0.31525E+00   -0.27312E+00  7072   0.460E+01 0.935E+00
CGA:   8    -0.354370895996E+03   -0.18300E+00   -0.17224E+00  7072   0.385E+01 0.182E+00
CGA:   9    -0.354485367333E+03   -0.11447E+00   -0.12313E+00  7072   0.228E+01-0.121E+00
CGA:  10    -0.354573564679E+03   -0.88197E-01   -0.90850E-01  7072   0.268E+01-0.126E-01
CGA:  11    -0.354648816091E+03   -0.75251E-01   -0.69826E-01  7072   0.816E+00 0.146E+00
CGA:  12    -0.354675996389E+03   -0.27180E-01   -0.26909E-01  7072   0.626E+00 0.460E-02
CGA:  13    -0.354694325126E+03   -0.18329E-01   -0.19147E-01  7072   0.333E+00-0.135E-01
CGA:  14    -0.354708817131E+03   -0.14492E-01   -0.14698E-01  7072   0.418E+00 0.216E-02
CGA:  15    -0.354722175572E+03   -0.13358E-01   -0.13465E-01  7072   0.170E+00-0.118E-02
CGA:  16    -0.354730037368E+03   -0.78618E-02   -0.78587E-02  7072   0.170E+00-0.576E-04
CGA:  17    -0.354735134654E+03   -0.50973E-02   -0.51862E-02  7072   0.608E-01-0.127E-02
CGA:  18    -0.354737770801E+03   -0.26361E-02   -0.26468E-02  7072   0.493E-01 0.173E-03
CGA:  19    -0.354739679114E+03   -0.19083E-02   -0.19088E-02  7072   0.465E-01-0.948E-05
CGA:  20    -0.354742979196E+03   -0.33001E-02   -0.32882E-02  7072   0.479E-01 0.545E-03
CGA:  21    -0.354744502406E+03   -0.15232E-02   -0.15383E-02  7072   0.232E-01-0.162E-03
CGA:  22    -0.354745441853E+03   -0.93945E-03   -0.94007E-03  7072   0.127E-01 0.852E-05
CGA:  23    -0.354746323378E+03   -0.88152E-03   -0.87986E-03  7072   0.242E-01 0.845E-04
CGA:  24    -0.354747418905E+03   -0.10955E-02   -0.10990E-02  7072   0.149E-01 0.120E-03
CGA:  25    -0.354748319195E+03   -0.90029E-03   -0.89951E-03  7072   0.135E-01 0.896E-04
CGA:  26    -0.354748766324E+03   -0.44713E-03   -0.44714E-03  7072   0.727E-02 0.639E-05
CGA:  27    -0.354749219000E+03   -0.45268E-03   -0.45240E-03  7072   0.616E-02 0.233E-04
CGA:  28    -0.354749527594E+03   -0.30859E-03   -0.30872E-03  7072   0.832E-02 0.208E-04
CGA:  29    -0.354750002185E+03   -0.47459E-03   -0.47454E-03  7072   0.408E-02 0.141E-04
CGA:  30    -0.354750166364E+03   -0.16418E-03   -0.16427E-03  7072   0.278E-02 0.376E-05
CGA:  31    -0.354750284319E+03   -0.11796E-03   -0.11808E-03  7072   0.216E-02 0.579E-05
SDA:  32    -0.354750489265E+03   -0.20495E-03   -0.20477E-03  7072   0.341E-02 0.400E-05
CGA:  33    -0.354750571509E+03   -0.82244E-04   -0.82093E-04  7072   0.617E-03 0.917E-06
CGA:  34    -0.354750619783E+03   -0.48274E-04   -0.48243E-04  7072   0.996E-03 0.944E-06
CGA:  35    -0.354750729262E+03   -0.10948E-03   -0.10973E-03  7072   0.919E-03-0.469E-05
CGA:  36    -0.354750823595E+03   -0.94333E-04   -0.94512E-04  7072   0.627E-03-0.386E-05
CGA:  37    -0.354750863806E+03   -0.40211E-04   -0.40229E-04  7072   0.357E-03-0.293E-05
CGA:  38    -0.354750889701E+03   -0.25895E-04   -0.25893E-04  7072   0.525E-03-0.574E-07
CGA:  39    -0.354750921656E+03   -0.31955E-04   -0.31956E-04  7072   0.458E-03-0.352E-05
CGA:  40    -0.354750961511E+03   -0.39855E-04   -0.39964E-04  7072   0.141E-03-0.389E-05
CGA:  41    -0.354750976373E+03   -0.14863E-04   -0.14877E-04  7072   0.148E-03-0.347E-06
CGA:  42    -0.354750989275E+03   -0.12902E-04   -0.12878E-04  7072   0.184E-03 0.101E-05
CGA:  43    -0.354750998421E+03   -0.91459E-05   -0.91415E-05  7072   0.156E-03-0.249E-06
CGA:  44    -0.354751010520E+03   -0.12099E-04   -0.12102E-04  7072   0.613E-04-0.254E-06
CGA:  45    -0.354751015285E+03   -0.47651E-05   -0.47566E-05  7072   0.819E-04 0.651E-06
CGA:  46    -0.354751026107E+03   -0.10823E-04   -0.10648E-04  7072   0.584E-04 0.277E-05
CGA:  47    -0.354751029029E+03   -0.29218E-05   -0.29208E-05  7072   0.453E-04-0.725E-07
  16 F= -.35475103E+03 E0= -.35473685E+03  d E =-.853037E-02  mag=     8.0000
       N       E                     dE             d eps       ncg     rms          ort
SDA:   1    -0.312373751251E+03    0.42377E+02    0.00000E+00  7072   0.179E+03 0.000E+00
CGA:   2    -0.325499148409E+03   -0.13125E+02   -0.14092E+02  7072   0.374E+03-0.632E+02
CGA:   3    -0.332691013595E+03   -0.71919E+01   -0.64816E+01  7072   0.258E+03 0.629E+02
CGA:   4    -0.338363846793E+03   -0.56728E+01   -0.52539E+01  7072   0.157E+03-0.174E+00
CGA:   5    -0.339901192043E+03   -0.15373E+01   -0.29429E+01  7072   0.206E+03-0.847E+02
CGA:   6    -0.343415741674E+03   -0.35145E+01   -0.27758E+01  7072   0.429E+02 0.630E+02
CGA:   7    -0.345215244080E+03   -0.17995E+01   -0.15636E+01  7072   0.487E+02 0.524E+01
CGA:   8    -0.347321685921E+03   -0.21064E+01   -0.21454E+01  7072   0.576E+02-0.115E+01
CGA:   9    -0.348283767252E+03   -0.96208E+00   -0.10258E+01  7072   0.315E+02 0.151E+01
CGA:  10    -0.349736016823E+03   -0.14522E+01   -0.12635E+01  7072   0.736E+02-0.110E+01
CGA:  11    -0.350551758090E+03   -0.81574E+00   -0.13338E+01  7072   0.599E+02-0.183E+02
CGA:  12    -0.351037802158E+03   -0.48604E+00   -0.49477E+00  7072   0.268E+02 0.173E+01
CGA:  13    -0.351387559604E+03   -0.34976E+00   -0.30734E+00  7072   0.141E+02 0.363E+01
CGA:  14    -0.351727587698E+03   -0.34003E+00   -0.36045E+00  7072   0.243E+02-0.364E+00
CGA:  15    -0.352284281160E+03   -0.55669E+00   -0.46881E+00  7072   0.219E+02 0.344E+01
CGA:  16    -0.352516192500E+03   -0.23191E+00   -0.20934E+00  7072   0.993E+01 0.165E+01
CGA:  17    -0.352632145954E+03   -0.11595E+00   -0.11455E+00  7072   0.104E+02 0.116E+00
CGA:  18    -0.352762349270E+03   -0.13020E+00   -0.11609E+00  7072   0.119E+02 0.113E+01
CGA:  19    -0.352883101145E+03   -0.12075E+00   -0.11110E+00  7072   0.818E+01 0.998E+00
CGA:  20    -0.352954145543E+03   -0.71044E-01   -0.78085E-01  7072   0.561E+01-0.696E+00
CGA:  21    -0.353003850609E+03   -0.49705E-01   -0.53047E-01  7072   0.612E+01-0.271E+00
CGA:  22    -0.353067946344E+03   -0.64096E-01   -0.67517E-01  7072   0.615E+01-0.218E+00
CGA:  23    -0.353120764701E+03   -0.52818E-01   -0.51318E-01  7072   0.346E+01 0.189E+00
CGA:  24    -0.353150496044E+03   -0.29731E-01   -0.28060E-01  7072   0.221E+01 0.177E+00
CGA:  25    -0.353177937659E+03   -0.27442E-01   -0.26887E-01  7072   0.316E+01 0.289E-01
CGA:  26    -0.353220797371E+03   -0.42860E-01   -0.42748E-01  7072   0.500E+01-0.701E-02
CGA:  27    -0.353265544794E+03   -0.44747E-01   -0.47731E-01  7072   0.365E+01-0.270E+00
CGA:  28    -0.353289542531E+03   -0.23998E-01   -0.28652E-01  7072   0.195E+01-0.463E+00
CGA:  29    -0.353306402193E+03   -0.16860E-01   -0.19528E-01  7072   0.197E+01-0.155E+00
CGA:  30    -0.353339073784E+03   -0.32672E-01   -0.34104E-01  7072   0.221E+01 0.128E-01
CGA:  31    -0.353369610993E+03   -0.30537E-01   -0.30174E-01  7072   0.128E+01 0.127E-01
CGA:  32    -0.353389299608E+03   -0.19689E-01   -0.19863E-01  7072   0.103E+01-0.325E-02
CGA:  33    -0.353406535967E+03   -0.17236E-01   -0.17383E-01  7072   0.834E+00-0.432E-03
CGA:  34    -0.353419920126E+03   -0.13384E-01   -0.13734E-01  7072   0.593E+00-0.765E-03
CGA:  35    -0.353432163472E+03   -0.12243E-01   -0.12372E-01  7072   0.592E+00 0.107E-01
SDA:  36    -0.353448447960E+03   -0.16284E-01   -0.16245E-01  7072   0.587E+00 0.946E-02
CGA:  37    -0.353464819251E+03   -0.16371E-01   -0.16344E-01  7072   0.928E-01 0.520E-02
CGA:  38    -0.353475093626E+03   -0.10274E-01   -0.10009E-01  7072   0.183E+00 0.403E-02
CGA:  39    -0.353491747772E+03   -0.16654E-01   -0.16764E-01  7072   0.166E+00-0.224E-02
CGA:  40    -0.353496237208E+03   -0.44894E-02   -0.44984E-02  7072   0.518E-01 0.695E-03
CGA:  41    -0.353499484451E+03   -0.32472E-02   -0.32526E-02  7072   0.199E-01-0.165E-03
CGA:  42    -0.353501571943E+03   -0.20875E-02   -0.20851E-02  7072   0.215E-01 0.369E-04
CGA:  43    -0.353503141827E+03   -0.15699E-02   -0.15513E-02  7072   0.185E-01 0.516E-03
CGA:  44    -0.353503728944E+03   -0.58712E-03   -0.58687E-03  7072   0.920E-02-0.171E-04
CGA:  45    -0.353505032931E+03   -0.13040E-02   -0.12942E-02  7072   0.708E-02 0.115E-03
CGA:  46    -0.353505645551E+03   -0.61262E-03   -0.61122E-03  7072   0.733E-02 0.335E-04
CGA:  47    -0.353506070105E+03   -0.42455E-03   -0.42397E-03  7072   0.384E-02 0.340E-04
CGA:  48    -0.353506255293E+03   -0.18519E-03   -0.18522E-03  7072   0.362E-02-0.127E-04
CGA:  49    -0.353506468521E+03   -0.21323E-03   -0.21293E-03  7072   0.292E-02 0.151E-04
CGA:  50    -0.353506687785E+03   -0.21926E-03   -0.21968E-03  7072   0.181E-02-0.145E-04
CGA:  51    -0.353506849267E+03   -0.16148E-03   -0.16135E-03  7072   0.982E-03 0.266E-05
CGA:  52    -0.353506921831E+03   -0.72564E-04   -0.72523E-04  7072   0.142E-02 0.157E-05
CGA:  53    -0.353506992701E+03   -0.70870E-04   -0.70881E-04  7072   0.138E-02 0.578E-05
CGA:  54    -0.353507106825E+03   -0.11412E-03   -0.11397E-03  7072   0.418E-03 0.481E-05
CGA:  55    -0.353507155030E+03   -0.48206E-04   -0.48095E-04  7072   0.412E-03 0.172E-05
CGA:  56    -0.353507194721E+03   -0.39691E-04   -0.39653E-04  7072   0.668E-03 0.931E-06
CGA:  57    -0.353507228344E+03   -0.33622E-04   -0.33646E-04  7072   0.600E-03 0.284E-05
CGA:  58    -0.353507256814E+03   -0.28471E-04   -0.28474E-04  7072   0.162E-03 0.805E-06
CGA:  59    -0.353507270580E+03   -0.13766E-04   -0.13725E-04  7072   0.257E-03 0.148E-05
CGA:  60    -0.353507302558E+03   -0.31977E-04   -0.31856E-04  7072   0.179E-03 0.186E-05
CGA:  61    -0.353507311179E+03   -0.86212E-05   -0.86373E-05  7072   0.695E-04 0.111E-05
  17 F= -.35350731E+03 E0= -.35349179E+03  d E =0.124372E+01  mag=     8.0000
       N       E                     dE             d eps       ncg     rms          ort
SDA:   1    -0.343724548075E+03    0.97828E+01    0.00000E+00  7072   0.462E+02 0.000E+00
CGA:   2    -0.347250112248E+03   -0.35256E+01   -0.40556E+01  7072   0.820E+02-0.128E+02
CGA:   3    -0.349303487919E+03   -0.20534E+01   -0.15415E+01  7072   0.361E+02 0.144E+02
CGA:   4    -0.350541391301E+03   -0.12379E+01   -0.91199E+00  7072   0.325E+02 0.121E+02
CGA:   5    -0.351184832438E+03   -0.64344E+00   -0.97527E+00  7072   0.568E+02-0.184E+02
CGA:   6    -0.352260025229E+03   -0.10752E+01   -0.12958E+01  7072   0.135E+02-0.947E+01
CGA:   7    -0.352720456180E+03   -0.46043E+00   -0.44816E+00  7072   0.106E+02-0.135E+00
CGA:   8    -0.353411303269E+03   -0.69085E+00   -0.67699E+00  7072   0.668E+01 0.879E+00
CGA:   9    -0.353939849239E+03   -0.52855E+00   -0.53941E+00  7072   0.590E+01-0.383E+00
CGA:  10    -0.354270772539E+03   -0.33092E+00   -0.33170E+00  7072   0.251E+01-0.121E+00
CGA:  11    -0.354404525308E+03   -0.13375E+00   -0.13398E+00  7072   0.227E+01 0.717E-01
CGA:  12    -0.354484217819E+03   -0.79693E-01   -0.78310E-01  7072   0.627E+00 0.873E-02
CGA:  13    -0.354512913783E+03   -0.28696E-01   -0.28979E-01  7072   0.263E+00 0.999E-02
CGA:  14    -0.354534126100E+03   -0.21212E-01   -0.21226E-01  7072   0.194E+00-0.449E-03
CGA:  15    -0.354543284069E+03   -0.91580E-02   -0.92004E-02  7072   0.139E+00 0.175E-02
CGA:  16    -0.354549955337E+03   -0.66713E-02   -0.66798E-02  7072   0.105E+00 0.407E-03
CGA:  17    -0.354556776463E+03   -0.68211E-02   -0.67907E-02  7072   0.503E-01 0.210E-02
CGA:  18    -0.354560731528E+03   -0.39551E-02   -0.39510E-02  7072   0.559E-01 0.170E-03
CGA:  19    -0.354563541061E+03   -0.28095E-02   -0.28147E-02  7072   0.370E-01 0.356E-03
CGA:  20    -0.354565031533E+03   -0.14905E-02   -0.14879E-02  7072   0.147E-01 0.123E-04
CGA:  21    -0.354566294010E+03   -0.12625E-02   -0.12561E-02  7072   0.111E-01 0.186E-03
CGA:  22    -0.354566887639E+03   -0.59363E-03   -0.59345E-03  7072   0.917E-02-0.147E-04
CGA:  23    -0.354567374591E+03   -0.48695E-03   -0.48714E-03  7072   0.772E-02 0.291E-04
CGA:  24    -0.354567860910E+03   -0.48632E-03   -0.48633E-03  7072   0.353E-02 0.274E-06
CGA:  25    -0.354568111215E+03   -0.25031E-03   -0.25010E-03  7072   0.362E-02 0.107E-04
CGA:  26    -0.354568295133E+03   -0.18392E-03   -0.18387E-03  7072   0.278E-02-0.620E-05
CGA:  27    -0.354568430128E+03   -0.13499E-03   -0.13504E-03  7072   0.121E-02-0.238E-06
CGA:  28    -0.354568538934E+03   -0.10881E-03   -0.10902E-03  7072   0.132E-02-0.637E-05
CGA:  29    -0.354568606032E+03   -0.67098E-04   -0.67090E-04  7072   0.931E-03-0.281E-05
CGA:  30    -0.354568648363E+03   -0.42331E-04   -0.42259E-04  7072   0.550E-03-0.603E-05
CGA:  31    -0.354568690170E+03   -0.41806E-04   -0.41905E-04  7072   0.323E-03-0.535E-05
CGA:  32    -0.354568709731E+03   -0.19562E-04   -0.19573E-04  7072   0.350E-03-0.384E-05
CGA:  33    -0.354568728783E+03   -0.19052E-04   -0.19047E-04  7072   0.280E-03-0.144E-05
CGA:  34    -0.354568743951E+03   -0.15168E-04   -0.15162E-04  7072   0.117E-03-0.158E-05
CGA:  35    -0.354568753929E+03   -0.99778E-05   -0.99754E-05  7072   0.154E-03 0.184E-07
  18 F= -.35456875E+03 E0= -.35455346E+03  d E =-.106144E+01  mag=     8.0000
       N       E                     dE             d eps       ncg     rms          ort
SDA:   1    -0.352768329668E+03    0.18004E+01    0.00000E+00  7072   0.688E+01 0.000E+00
CGA:   2    -0.353694822931E+03   -0.92649E+00   -0.91392E+00  7072   0.667E+01 0.286E+00
CGA:   3    -0.353989637331E+03   -0.29481E+00   -0.29461E+00  7072   0.716E+01-0.210E-01
CGA:   4    -0.354360435992E+03   -0.37080E+00   -0.37574E+00  7072   0.280E+01 0.171E+00
CGA:   5    -0.354522951699E+03   -0.16252E+00   -0.16275E+00  7072   0.300E+01 0.225E-01
CGA:   6    -0.354633659151E+03   -0.11071E+00   -0.10409E+00  7072   0.124E+01 0.686E-01
CGA:   7    -0.354689532291E+03   -0.55873E-01   -0.55966E-01  7072   0.469E+00 0.206E-02
CGA:   8    -0.354708175241E+03   -0.18643E-01   -0.18786E-01  7072   0.315E+00 0.418E-03
CGA:   9    -0.354720726134E+03   -0.12551E-01   -0.12440E-01  7072   0.209E+00-0.107E-03
CGA:  10    -0.354735089050E+03   -0.14363E-01   -0.14351E-01  7072   0.108E+00 0.670E-03
CGA:  11    -0.354738295701E+03   -0.32067E-02   -0.32159E-02  7072   0.575E-01-0.127E-03
CGA:  12    -0.354741424815E+03   -0.31291E-02   -0.31294E-02  7072   0.348E-01 0.746E-04
CGA:  13    -0.354743961283E+03   -0.25365E-02   -0.25372E-02  7072   0.411E-01-0.222E-04
CGA:  14    -0.354745201658E+03   -0.12404E-02   -0.12469E-02  7072   0.158E-01-0.850E-04
CGA:  15    -0.354746208887E+03   -0.10072E-02   -0.10066E-02  7072   0.863E-02 0.454E-04
CGA:  16    -0.354746541767E+03   -0.33288E-03   -0.33263E-03  7072   0.599E-02-0.362E-05
CGA:  17    -0.354746838142E+03   -0.29638E-03   -0.29657E-03  7072   0.548E-02 0.172E-04
CGA:  18    -0.354747230037E+03   -0.39189E-03   -0.39176E-03  7072   0.278E-02 0.802E-05
CGA:  19    -0.354747331731E+03   -0.10169E-03   -0.10170E-03  7072   0.203E-02 0.673E-06
CGA:  20    -0.354747434096E+03   -0.10237E-03   -0.10239E-03  7072   0.112E-02 0.379E-05
CGA:  21    -0.354747513317E+03   -0.79220E-04   -0.79172E-04  7072   0.109E-02 0.191E-05
CGA:  22    -0.354747567757E+03   -0.54441E-04   -0.54447E-04  7072   0.124E-02 0.724E-06
CGA:  23    -0.354747629067E+03   -0.61309E-04   -0.61343E-04  7072   0.502E-03 0.455E-05
CGA:  24    -0.354747662165E+03   -0.33099E-04   -0.33083E-04  7072   0.451E-03 0.108E-05
CGA:  25    -0.354747679164E+03   -0.16999E-04   -0.16969E-04  7072   0.351E-03-0.149E-05
CGA:  26    -0.354747705643E+03   -0.26479E-04   -0.26503E-04  7072   0.254E-03-0.124E-05
CGA:  27    -0.354747717719E+03   -0.12076E-04   -0.12083E-04  7072   0.172E-03 0.599E-06
CGA:  28    -0.354747724262E+03   -0.65435E-05   -0.65406E-05  7072   0.112E-03-0.254E-06
  19 F= -.35474772E+03 E0= -.35473270E+03  d E =-.178970E+00  mag=     8.0000
       N       E                     dE             d eps       ncg     rms          ort
SDA:   1    -0.354029513734E+03    0.71820E+00    0.00000E+00  7072   0.247E+01 0.000E+00
CGA:   2    -0.354343050359E+03   -0.31354E+00   -0.31062E+00  7072   0.371E+01 0.398E-01
CGA:   3    -0.354552036892E+03   -0.20899E+00   -0.20836E+00  7072   0.141E+01-0.871E-01
CGA:   4    -0.354659681349E+03   -0.10764E+00   -0.10579E+00  7072   0.155E+01 0.728E-01
CGA:   5    -0.354721507015E+03   -0.61826E-01   -0.62011E-01  7072   0.716E+00-0.185E-02
CGA:   6    -0.354763922771E+03   -0.42416E-01   -0.42409E-01  7072   0.204E+00 0.288E-02
CGA:   7    -0.354776019952E+03   -0.12097E-01   -0.12100E-01  7072   0.109E+00-0.185E-02
CGA:   8    -0.354782163696E+03   -0.61437E-02   -0.61466E-02  7072   0.108E+00 0.961E-03
CGA:   9    -0.354787080351E+03   -0.49167E-02   -0.49118E-02  7072   0.385E-01-0.841E-04
CGA:  10    -0.354789311537E+03   -0.22312E-02   -0.22310E-02  7072   0.144E-01 0.213E-03
CGA:  11    -0.354790361435E+03   -0.10499E-02   -0.10519E-02  7072   0.196E-01-0.950E-04
CGA:  12    -0.354791322634E+03   -0.96120E-03   -0.96185E-03  7072   0.101E-01 0.201E-04
CGA:  13    -0.354791794129E+03   -0.47149E-03   -0.47126E-03  7072   0.346E-02-0.127E-04
CGA:  14    -0.354792057393E+03   -0.26326E-03   -0.26340E-03  7072   0.282E-02-0.804E-05
CGA:  15    -0.354792205063E+03   -0.14767E-03   -0.14760E-03  7072   0.203E-02-0.106E-04
CGA:  16    -0.354792302123E+03   -0.97059E-04   -0.97085E-04  7072   0.138E-02-0.369E-07
CGA:  17    -0.354792405437E+03   -0.10331E-03   -0.10333E-03  7072   0.486E-03-0.832E-06
CGA:  18    -0.354792437707E+03   -0.32270E-04   -0.32257E-04  7072   0.581E-03 0.122E-05
CGA:  19    -0.354792468077E+03   -0.30370E-04   -0.30368E-04  7072   0.432E-03-0.190E-06
CGA:  20    -0.354792499401E+03   -0.31324E-04   -0.31258E-04  7072   0.282E-03 0.447E-05
CGA:  21    -0.354792519652E+03   -0.20251E-04   -0.20221E-04  7072   0.197E-03 0.250E-05
CGA:  22    -0.354792528776E+03   -0.91234E-05   -0.91516E-05  7072   0.160E-03 0.201E-05
CGA:  23    -0.354792540475E+03   -0.11699E-04   -0.11677E-04  7072   0.124E-03 0.170E-05
CGA:  24    -0.354792547680E+03   -0.72050E-05   -0.72094E-05  7072   0.541E-04 0.177E-05
  20 F= -.35479255E+03 E0= -.35477774E+03  d E =-.448234E-01  mag=     8.0000
       N       E                     dE             d eps       ncg     rms          ort
SDA:   1    -0.354616813338E+03    0.17573E+00    0.00000E+00  7072   0.658E+00 0.000E+00
CGA:   2    -0.354652335258E+03   -0.35522E-01   -0.35503E-01  7072   0.113E+01-0.118E-02
CGA:   3    -0.354748769882E+03   -0.96435E-01   -0.96012E-01  7072   0.381E+00 0.133E-01
CGA:   4    -0.354770750558E+03   -0.21981E-01   -0.21977E-01  7072   0.218E+00-0.421E-03
CGA:   5    -0.354790749127E+03   -0.19999E-01   -0.20006E-01  7072   0.151E+00-0.190E-03
CGA:   6    -0.354796478442E+03   -0.57293E-02   -0.57634E-02  7072   0.631E-01-0.215E-03
CGA:   7    -0.354798972951E+03   -0.24945E-02   -0.24943E-02  7072   0.286E-01-0.305E-04
CGA:   8    -0.354800860762E+03   -0.18878E-02   -0.18874E-02  7072   0.154E-01 0.380E-04
CGA:   9    -0.354802124029E+03   -0.12633E-02   -0.12636E-02  7072   0.616E-02-0.126E-04
CGA:  10    -0.354802492352E+03   -0.36832E-03   -0.36831E-03  7072   0.258E-02-0.741E-05
CGA:  11    -0.354802734043E+03   -0.24169E-03   -0.24186E-03  7072   0.398E-02-0.652E-05
CGA:  12    -0.354802872455E+03   -0.13841E-03   -0.13803E-03  7072   0.128E-02-0.128E-04
CGA:  13    -0.354802957781E+03   -0.85326E-04   -0.85378E-04  7072   0.546E-03-0.980E-05
CGA:  14    -0.354803005680E+03   -0.47899E-04   -0.48119E-04  7072   0.385E-03-0.843E-05
CGA:  15    -0.354803034114E+03   -0.28434E-04   -0.28480E-04  7072   0.299E-03-0.403E-05
CGA:  16    -0.354803059620E+03   -0.25507E-04   -0.25573E-04  7072   0.158E-03-0.311E-05
CGA:  17    -0.354803067442E+03   -0.78218E-05   -0.78022E-05  7072   0.100E-03-0.131E-05
  21 F= -.35480307E+03 E0= -.35478835E+03  d E =-.105198E-01  mag=     8.0000
       N       E                     dE             d eps       ncg     rms          ort
SDA:   1    -0.353624948108E+03    0.11781E+01    0.00000E+00  7072   0.357E+01 0.000E+00
CGA:   2    -0.353938152942E+03   -0.31320E+00   -0.30640E+00  7072   0.842E+01 0.232E+00
CGA:   3    -0.354477521742E+03   -0.53937E+00   -0.53811E+00  7072   0.320E+01-0.112E+00
CGA:   4    -0.354603808728E+03   -0.12629E+00   -0.12949E+00  7072   0.119E+01-0.957E-02
CGA:   5    -0.354719668340E+03   -0.11586E+00   -0.11608E+00  7072   0.150E+01-0.512E-02
CGA:   6    -0.354769016276E+03   -0.49348E-01   -0.50329E-01  7072   0.324E+00-0.142E-01
CGA:   7    -0.354784645265E+03   -0.15629E-01   -0.15556E-01  7072   0.155E+00-0.977E-03
CGA:   8    -0.354796607994E+03   -0.11963E-01   -0.11915E-01  7072   0.123E+00 0.228E-02
CGA:   9    -0.354802391154E+03   -0.57832E-02   -0.57712E-02  7072   0.640E-01-0.948E-04
CGA:  10    -0.354805002265E+03   -0.26111E-02   -0.26152E-02  7072   0.216E-01 0.399E-05
CGA:  11    -0.354806633406E+03   -0.16311E-02   -0.16329E-02  7072   0.175E-01-0.900E-04
CGA:  12    -0.354807840128E+03   -0.12067E-02   -0.12063E-02  7072   0.148E-01 0.247E-04
CGA:  13    -0.354808375104E+03   -0.53498E-03   -0.53407E-03  7072   0.436E-02-0.232E-04
[...]
CGA:  22    -0.354696125686E+03   -0.12348E-01   -0.12046E-01  7072   0.774E+00 0.205E-01
CGA:  23    -0.354704300558E+03   -0.81749E-02   -0.82911E-02  7072   0.612E+00-0.992E-02
CGA:  24    -0.354710599763E+03   -0.62992E-02   -0.64614E-02  7072   0.526E+00-0.115E-01
CGA:  25    -0.354716951731E+03   -0.63520E-02   -0.65511E-02  7072   0.602E+00-0.957E-02
CGA:  26    -0.354725739427E+03   -0.87877E-02   -0.89997E-02  7072   0.775E+00-0.563E-02
CGA:  27    -0.354736501754E+03   -0.10762E-01   -0.10790E-01  7072   0.770E+00-0.766E-03
CGA:  28    -0.354746384767E+03   -0.98830E-02   -0.98597E-02  7072   0.696E+00 0.652E-03
CGA:  29    -0.354755521500E+03   -0.91367E-02   -0.91388E-02  7072   0.620E+00-0.557E-03
CGA:  30    -0.354762896978E+03   -0.73755E-02   -0.74130E-02  7072   0.437E+00-0.200E-02
CGA:  31    -0.354767903746E+03   -0.50068E-02   -0.51170E-02  7072   0.300E+00-0.503E-02
CGA:  32    -0.354772214034E+03   -0.43103E-02   -0.43613E-02  7072   0.306E+00-0.654E-03
CGA:  33    -0.354777767804E+03   -0.55538E-02   -0.55526E-02  7072   0.364E+00 0.168E-04
SDA:  34    -0.354783313334E+03   -0.55455E-02   -0.55277E-02  7072   0.295E+00 0.169E-03
CGA:  35    -0.354795582542E+03   -0.12269E-01   -0.12503E-01  7072   0.177E+00-0.118E-01
CGA:  36    -0.354804468750E+03   -0.88862E-02   -0.87649E-02  7072   0.109E+00 0.451E-02
CGA:  37    -0.354810492076E+03   -0.60233E-02   -0.60269E-02  7072   0.735E-01-0.116E-03
CGA:  38    -0.354817220403E+03   -0.67283E-02   -0.67002E-02  7072   0.294E-01 0.484E-03
CGA:  39    -0.354819347164E+03   -0.21268E-02   -0.20962E-02  7072   0.237E-01 0.796E-03
CGA:  40    -0.354820424649E+03   -0.10775E-02   -0.10783E-02  7072   0.220E-01-0.525E-04
CGA:  41    -0.354822510644E+03   -0.20860E-02   -0.20948E-02  7072   0.103E-01-0.155E-03
CGA:  42    -0.354823304344E+03   -0.79370E-03   -0.79363E-03  7072   0.493E-02 0.175E-05
CGA:  43    -0.354823589965E+03   -0.28562E-03   -0.28553E-03  7072   0.570E-02 0.296E-05
CGA:  44    -0.354823910544E+03   -0.32058E-03   -0.32009E-03  7072   0.401E-02 0.241E-04
CGA:  45    -0.354824217763E+03   -0.30722E-03   -0.30678E-03  7072   0.302E-02 0.115E-04
CGA:  46    -0.354824404905E+03   -0.18714E-03   -0.18707E-03  7072   0.623E-03 0.303E-05
CGA:  47    -0.354824454973E+03   -0.50068E-04   -0.50146E-04  7072   0.104E-02-0.230E-05
CGA:  48    -0.354824526176E+03   -0.71203E-04   -0.71356E-04  7072   0.139E-02-0.647E-05
CGA:  49    -0.354824613068E+03   -0.86893E-04   -0.86919E-04  7072   0.637E-03-0.228E-05
CGA:  50    -0.354824660644E+03   -0.47576E-04   -0.47641E-04  7072   0.389E-03-0.282E-05
CGA:  51    -0.354824687437E+03   -0.26793E-04   -0.26900E-04  7072   0.485E-03-0.517E-05
CGA:  52    -0.354824727955E+03   -0.40518E-04   -0.40741E-04  7072   0.890E-03-0.630E-05
CGA:  53    -0.354824769417E+03   -0.41463E-04   -0.41434E-04  7072   0.128E-03-0.781E-05
CGA:  54    -0.354824796527E+03   -0.27110E-04   -0.27607E-04  7072   0.277E-03-0.319E-05
CGA:  55    -0.354824808626E+03   -0.12099E-04   -0.12098E-04  7072   0.233E-03-0.150E-06
CGA:  56    -0.354824823101E+03   -0.14475E-04   -0.14478E-04  7072   0.118E-03-0.895E-06
CGA:  57    -0.354824830357E+03   -0.72556E-05   -0.72569E-05  7072   0.623E-04-0.615E-06
  50 F= -.35482483E+03 E0= -.35481070E+03  d E =-.168167E-02  mag=     8.0000
       N       E                     dE             d eps       ncg     rms          ort
SDA:   1    -0.339484072345E+03    0.15341E+02    0.00000E+00  7072   0.397E+02 0.000E+00
CGA:   2    -0.346868585584E+03   -0.73845E+01   -0.76729E+01  7072   0.128E+03-0.356E+01
CGA:   3    -0.351307118948E+03   -0.44385E+01   -0.38953E+01  7072   0.258E+02 0.200E+02
CGA:   4    -0.352202789978E+03   -0.89567E+00   -0.73743E+00  7072   0.151E+02 0.495E+01
CGA:   5    -0.353258072967E+03   -0.10553E+01   -0.10514E+01  7072   0.259E+02-0.381E+00
CGA:   6    -0.353801901577E+03   -0.54383E+00   -0.51378E+00  7072   0.162E+02 0.973E+00
CGA:   7    -0.354226285621E+03   -0.42438E+00   -0.42564E+00  7072   0.106E+02 0.124E+00
CGA:   8    -0.354406891118E+03   -0.18061E+00   -0.17936E+00  7072   0.299E+01 0.106E+00
CGA:   9    -0.354480262348E+03   -0.73371E-01   -0.68756E-01  7072   0.292E+01 0.133E+00
CGA:  10    -0.354580179912E+03   -0.99918E-01   -0.99030E-01  7072   0.333E+01 0.748E-02
CGA:  11    -0.354648837572E+03   -0.68658E-01   -0.70384E-01  7072   0.228E+01-0.585E-01
CGA:  12    -0.354717444470E+03   -0.68607E-01   -0.71533E-01  7072   0.210E+01-0.179E-01
CGA:  13    -0.354752985749E+03   -0.35541E-01   -0.36205E-01  7072   0.487E+00-0.273E-01
CGA:  14    -0.354764545907E+03   -0.11560E-01   -0.11554E-01  7072   0.421E+00 0.321E-03
CGA:  15    -0.354779871085E+03   -0.15325E-01   -0.15337E-01  7072   0.424E+00 0.187E-03
CGA:  16    -0.354790743022E+03   -0.10872E-01   -0.11033E-01  7072   0.314E+00-0.261E-02
CGA:  17    -0.354801730719E+03   -0.10988E-01   -0.11127E-01  7072   0.265E+00 0.245E-02
CGA:  18    -0.354808393575E+03   -0.66629E-02   -0.67593E-02  7072   0.123E+00-0.147E-02
CGA:  19    -0.354812010088E+03   -0.36165E-02   -0.36494E-02  7072   0.716E-01-0.349E-04
CGA:  20    -0.354814384608E+03   -0.23745E-02   -0.23854E-02  7072   0.582E-01 0.164E-03
CGA:  21    -0.354816772163E+03   -0.23876E-02   -0.23902E-02  7072   0.530E-01 0.384E-03
CGA:  22    -0.354819059266E+03   -0.22871E-02   -0.22872E-02  7072   0.465E-01 0.110E-03
CGA:  23    -0.354820403802E+03   -0.13445E-02   -0.13541E-02  7072   0.209E-01 0.124E-04
CGA:  24    -0.354821469245E+03   -0.10654E-02   -0.10632E-02  7072   0.244E-01 0.184E-03
CGA:  25    -0.354822161110E+03   -0.69186E-03   -0.69319E-03  7072   0.734E-02-0.841E-05
CGA:  26    -0.354822562743E+03   -0.40163E-03   -0.40149E-03  7072   0.132E-01 0.749E-05
CGA:  27    -0.354823198341E+03   -0.63560E-03   -0.63500E-03  7072   0.928E-02 0.708E-04
CGA:  28    -0.354823535628E+03   -0.33729E-03   -0.33769E-03  7072   0.534E-02 0.171E-04
CGA:  29    -0.354823720193E+03   -0.18457E-03   -0.18475E-03  7072   0.324E-02 0.880E-05
CGA:  30    -0.354823854785E+03   -0.13459E-03   -0.13461E-03  7072   0.226E-02 0.121E-04
CGA:  31    -0.354823967940E+03   -0.11315E-03   -0.11304E-03  7072   0.309E-02 0.120E-04
SDA:  32    -0.354824118609E+03   -0.15067E-03   -0.15063E-03  7072   0.214E-02 0.571E-05
CGA:  33    -0.354824203581E+03   -0.84972E-04   -0.84949E-04  7072   0.593E-03-0.280E-05
CGA:  34    -0.354824244161E+03   -0.40580E-04   -0.40554E-04  7072   0.750E-03 0.937E-06
CGA:  35    -0.354824281645E+03   -0.37484E-04   -0.37495E-04  7072   0.572E-03-0.168E-05
CGA:  36    -0.354824358836E+03   -0.77191E-04   -0.76825E-04  7072   0.684E-03 0.398E-05
CGA:  37    -0.354824390709E+03   -0.31873E-04   -0.31880E-04  7072   0.192E-03 0.211E-05
CGA:  38    -0.354824414595E+03   -0.23886E-04   -0.23694E-04  7072   0.290E-03 0.247E-05
CGA:  39    -0.354824439389E+03   -0.24795E-04   -0.24771E-04  7072   0.447E-03 0.668E-06
CGA:  40    -0.354824458743E+03   -0.19353E-04   -0.19335E-04  7072   0.209E-03-0.131E-05
CGA:  41    -0.354824472696E+03   -0.13953E-04   -0.13941E-04  7072   0.856E-04 0.810E-06
CGA:  42    -0.354824481046E+03   -0.83506E-05   -0.83266E-05  7072   0.562E-04 0.491E-06
  51 F= -.35482448E+03 E0= -.35480993E+03  d E =0.349311E-03  mag=     8.0000
       N       E                     dE             d eps       ncg     rms          ort
SDA:   1    -0.340000595133E+03    0.14824E+02    0.00000E+00  7072   0.393E+02 0.000E+00
CGA:   2    -0.347623537947E+03   -0.76229E+01   -0.74286E+01  7072   0.686E+02 0.236E+01
CGA:   3    -0.351251103851E+03   -0.36276E+01   -0.31578E+01  7072   0.220E+02 0.759E+01
CGA:   4    -0.352895292994E+03   -0.16442E+01   -0.16439E+01  7072   0.164E+02 0.290E+00
CGA:   5    -0.353753752924E+03   -0.85846E+00   -0.82308E+00  7072   0.124E+02-0.126E-01
CGA:   6    -0.354278646363E+03   -0.52489E+00   -0.52959E+00  7072   0.526E+01 0.475E-01
CGA:   7    -0.354512027596E+03   -0.23338E+00   -0.22883E+00  7072   0.260E+01 0.238E-01
CGA:   8    -0.354587962552E+03   -0.75935E-01   -0.74199E-01  7072   0.120E+01 0.304E-01
CGA:   9    -0.354667397383E+03   -0.79435E-01   -0.79351E-01  7072   0.146E+01 0.131E-01
CGA:  10    -0.354715851049E+03   -0.48454E-01   -0.50814E-01  7072   0.508E+00-0.238E-01
CGA:  11    -0.354744921958E+03   -0.29071E-01   -0.29061E-01  7072   0.349E+00-0.174E-02
CGA:  12    -0.354755730714E+03   -0.10809E-01   -0.10632E-01  7072   0.166E+00 0.319E-02
CGA:  13    -0.354765513687E+03   -0.97830E-02   -0.97864E-02  7072   0.127E+00 0.237E-02
CGA:  14    -0.354771773070E+03   -0.62594E-02   -0.63072E-02  7072   0.103E+00 0.141E-02
CGA:  15    -0.354776415177E+03   -0.46421E-02   -0.46397E-02  7072   0.507E-01-0.550E-04
CGA:  16    -0.354778647487E+03   -0.22323E-02   -0.22514E-02  7072   0.286E-01 0.294E-03
CGA:  17    -0.354780192781E+03   -0.15453E-02   -0.15466E-02  7072   0.189E-01 0.169E-03
CGA:  18    -0.354781660086E+03   -0.14673E-02   -0.14645E-02  7072   0.270E-01 0.111E-03
CGA:  19    -0.354782678130E+03   -0.10180E-02   -0.10264E-02  7072   0.820E-02-0.733E-06
CGA:  20    -0.354783344186E+03   -0.66606E-03   -0.66305E-03  7072   0.745E-02 0.999E-04
CGA:  21    -0.354783697604E+03   -0.35342E-03   -0.35429E-03  7072   0.485E-02 0.194E-04
CGA:  22    -0.354784147963E+03   -0.45036E-03   -0.44859E-03  7072   0.778E-02 0.471E-04
CGA:  23    -0.354784439979E+03   -0.29202E-03   -0.29232E-03  7072   0.179E-02 0.341E-05
CGA:  24    -0.354784571004E+03   -0.13102E-03   -0.13096E-03  7072   0.165E-02 0.254E-05
CGA:  25    -0.354784702301E+03   -0.13130E-03   -0.13116E-03  7072   0.158E-02 0.511E-05
CGA:  26    -0.354784781854E+03   -0.79553E-04   -0.79552E-04  7072   0.919E-03 0.149E-06
CGA:  27    -0.354784827610E+03   -0.45756E-04   -0.45801E-04  7072   0.595E-03 0.333E-05
CGA:  28    -0.354784859064E+03   -0.31454E-04   -0.31461E-04  7072   0.342E-03 0.101E-05
CGA:  29    -0.354784894595E+03   -0.35531E-04   -0.35543E-04  7072   0.401E-03-0.523E-06
CGA:  30    -0.354784919791E+03   -0.25196E-04   -0.25194E-04  7072   0.311E-03 0.907E-06
CGA:  31    -0.354784935195E+03   -0.15404E-04   -0.15404E-04  7072   0.209E-03 0.179E-06
SDA:  32    -0.354784947475E+03   -0.12280E-04   -0.12283E-04  7072   0.159E-03 0.121E-05
CGA:  33    -0.354784953763E+03   -0.62871E-05   -0.62756E-05  7072   0.770E-04-0.437E-06
  52 F= -.35478495E+03 E0= -.35477078E+03  d E =0.395273E-01  mag=     8.0000
       N       E                     dE             d eps       ncg     rms          ort
SDA:   1    -0.338669715622E+03    0.16115E+02    0.00000E+00  7072   0.439E+02 0.000E+00
CGA:   2    -0.345295128864E+03   -0.66254E+01   -0.61922E+01  7072   0.818E+02 0.670E+01
CGA:   3    -0.350437054110E+03   -0.51419E+01   -0.42986E+01  7072   0.396E+02-0.104E+00
CGA:   4    -0.351971753257E+03   -0.15347E+01   -0.16814E+01  7072   0.289E+02 0.957E+00
CGA:   5    -0.353239582607E+03   -0.12678E+01   -0.11069E+01  7072   0.185E+02 0.225E+01
CGA:   6    -0.353780567644E+03   -0.54099E+00   -0.45174E+00  7072   0.988E+01 0.282E+01
CGA:   7    -0.354130608765E+03   -0.35004E+00   -0.34374E+00  7072   0.992E+01 0.137E+00
CGA:   8    -0.354378912690E+03   -0.24830E+00   -0.24725E+00  7072   0.567E+01 0.499E-01
CGA:   9    -0.354548339001E+03   -0.16943E+00   -0.17546E+00  7072   0.461E+01-0.744E-01
CGA:  10    -0.354639361967E+03   -0.91023E-01   -0.91550E-01  7072   0.190E+01-0.156E-01
CGA:  11    -0.354689015882E+03   -0.49654E-01   -0.51242E-01  7072   0.132E+01-0.292E-01
CGA:  12    -0.354724003807E+03   -0.34988E-01   -0.36621E-01  7072   0.868E+00-0.208E-01
CGA:  13    -0.354761005586E+03   -0.37002E-01   -0.37254E-01  7072   0.830E+00 0.120E-01
CGA:  14    -0.354783599778E+03   -0.22594E-01   -0.22647E-01  7072   0.468E+00-0.246E-03
CGA:  15    -0.354798986807E+03   -0.15387E-01   -0.15740E-01  7072   0.218E+00 0.111E-02
CGA:  16    -0.354805588439E+03   -0.66016E-02   -0.67135E-02  7072   0.168E+00-0.427E-03
CGA:  17    -0.354812908956E+03   -0.73205E-02   -0.73272E-02  7072   0.113E+00 0.701E-03
CGA:  18    -0.354817448004E+03   -0.45390E-02   -0.45587E-02  7072   0.939E-01 0.909E-03
CGA:  19    -0.354820742857E+03   -0.32949E-02   -0.33253E-02  7072   0.490E-01 0.412E-03
CGA:  20    -0.354823067552E+03   -0.23247E-02   -0.23233E-02  7072   0.294E-01 0.995E-03
CGA:  21    -0.354824207611E+03   -0.11401E-02   -0.11415E-02  7072   0.268E-01 0.460E-04
CGA:  22    -0.354825825674E+03   -0.16181E-02   -0.16100E-02  7072   0.205E-01 0.419E-03
CGA:  23    -0.354826799965E+03   -0.97429E-03   -0.97434E-03  7072   0.142E-01 0.405E-03
CGA:  24    -0.354827318441E+03   -0.51848E-03   -0.51870E-03  7072   0.801E-02 0.969E-05
CGA:  25    -0.354827811911E+03   -0.49347E-03   -0.49161E-03  7072   0.578E-02 0.929E-04
CGA:  26    -0.354828175111E+03   -0.36320E-03   -0.36109E-03  7072   0.812E-02 0.109E-03
CGA:  27    -0.354828541545E+03   -0.36643E-03   -0.36650E-03  7072   0.371E-02 0.160E-04
CGA:  28    -0.354828744511E+03   -0.20297E-03   -0.20263E-03  7072   0.194E-02 0.350E-04
CGA:  29    -0.354828856285E+03   -0.11177E-03   -0.11155E-03  7072   0.222E-02 0.186E-04
CGA:  30    -0.354828961646E+03   -0.10536E-03   -0.10536E-03  7072   0.137E-02 0.303E-05
CGA:  31    -0.354829052314E+03   -0.90668E-04   -0.90477E-04  7072   0.781E-03 0.995E-05
SDA:  32    -0.354829092803E+03   -0.40489E-04   -0.40469E-04  7072   0.606E-03 0.746E-05
CGA:  33    -0.354829107359E+03   -0.14556E-04   -0.14527E-04  7072   0.193E-03-0.396E-06
CGA:  34    -0.354829145308E+03   -0.37950E-04   -0.37452E-04  7072   0.405E-03 0.324E-05
CGA:  35    -0.354829189782E+03   -0.44474E-04   -0.44194E-04  7072   0.160E-03 0.529E-05
CGA:  36    -0.354829201080E+03   -0.11298E-04   -0.11307E-04  7072   0.211E-03-0.783E-06
CGA:  37    -0.354829213509E+03   -0.12429E-04   -0.12429E-04  7072   0.209E-03-0.529E-06
CGA:  38    -0.354829226604E+03   -0.13095E-04   -0.13099E-04  7072   0.115E-03-0.958E-06
CGA:  39    -0.354829235117E+03   -0.85127E-05   -0.85031E-05  7072   0.855E-04 0.613E-06
  53 F= -.35482924E+03 E0= -.35481473E+03  d E =-.442814E-01  mag=     8.0000
       N       E                     dE             d eps       ncg     rms          ort
SDA:   1    -0.349342034208E+03    0.54872E+01    0.00000E+00  7072   0.135E+02 0.000E+00
CGA:   2    -0.352870215363E+03   -0.35282E+01   -0.35184E+01  7072   0.282E+02 0.101E+00
CGA:   3    -0.353667657703E+03   -0.79744E+00   -0.79651E+00  7072   0.843E+01-0.730E+00
CGA:   4    -0.354216791797E+03   -0.54913E+00   -0.55036E+00  7072   0.550E+01 0.372E+00
CGA:   5    -0.354620958347E+03   -0.40417E+00   -0.40436E+00  7072   0.171E+01-0.542E-01
CGA:   6    -0.354712537124E+03   -0.91579E-01   -0.90486E-01  7072   0.107E+01-0.141E-01
CGA:   7    -0.354756499567E+03   -0.43962E-01   -0.44288E-01  7072   0.567E+00-0.223E-02
CGA:   8    -0.354786365398E+03   -0.29866E-01   -0.29590E-01  7072   0.376E+00-0.424E-02
CGA:   9    -0.354811126557E+03   -0.24761E-01   -0.24758E-01  7072   0.128E+00 0.279E-02
CGA:  10    -0.354818253300E+03   -0.71267E-02   -0.71442E-02  7072   0.660E-01 0.519E-03
CGA:  11    -0.354823045503E+03   -0.47922E-02   -0.47937E-02  7072   0.917E-01-0.134E-03
CGA:  12    -0.354826529880E+03   -0.34844E-02   -0.35033E-02  7072   0.213E-01-0.146E-03
CGA:  13    -0.354827969066E+03   -0.14392E-02   -0.14391E-02  7072   0.117E-01-0.122E-05
CGA:  14    -0.354829016519E+03   -0.10475E-02   -0.10477E-02  7072   0.895E-02-0.984E-05
CGA:  15    -0.354829401937E+03   -0.38542E-03   -0.38594E-03  7072   0.767E-02 0.986E-06
CGA:  16    -0.354829905769E+03   -0.50383E-03   -0.50385E-03  7072   0.332E-02-0.127E-04
CGA:  17    -0.354830131480E+03   -0.22571E-03   -0.22567E-03  7072   0.197E-02 0.692E-05
CGA:  18    -0.354830302106E+03   -0.17063E-03   -0.17043E-03  7072   0.216E-02 0.692E-05
CGA:  19    -0.354830461155E+03   -0.15905E-03   -0.15902E-03  7072   0.172E-02 0.350E-05
CGA:  20    -0.354830542083E+03   -0.80928E-04   -0.81054E-04  7072   0.127E-02 0.480E-05
CGA:  21    -0.354830604093E+03   -0.62010E-04   -0.62051E-04  7072   0.513E-03 0.257E-05
CGA:  22    -0.354830663006E+03   -0.58913E-04   -0.58735E-04  7072   0.570E-03 0.344E-05
CGA:  23    -0.354830705082E+03   -0.42076E-04   -0.42054E-04  7072   0.248E-03 0.322E-05
CGA:  24    -0.354830716126E+03   -0.11044E-04   -0.11065E-04  7072   0.221E-03 0.820E-06
CGA:  25    -0.354830730340E+03   -0.14214E-04   -0.14220E-04  7072   0.158E-03 0.264E-05
CGA:  26    -0.354830744951E+03   -0.14611E-04   -0.14567E-04  7072   0.932E-04 0.171E-05
CGA:  27    -0.354830752491E+03   -0.75405E-05   -0.75301E-05  7072   0.763E-04 0.789E-06
  54 F= -.35483075E+03 E0= -.35481633E+03  d E =-.151737E-02  mag=     8.0000
       N       E                     dE             d eps       ncg     rms          ort
SDA:   1    -0.354667703832E+03    0.16304E+00    0.00000E+00  7072   0.603E+00 0.000E+00
CGA:   2    -0.354701728599E+03   -0.34025E-01   -0.34180E-01  7072   0.966E+00 0.485E-02
CGA:   3    -0.354776057440E+03   -0.74329E-01   -0.74400E-01  7072   0.468E+00-0.461E-02
CGA:   4    -0.354801311449E+03   -0.25254E-01   -0.25326E-01  7072   0.199E+00 0.154E-02
CGA:   5    -0.354819931983E+03   -0.18621E-01   -0.18681E-01  7072   0.144E+00-0.176E-02
CGA:   6    -0.354825794289E+03   -0.58623E-02   -0.58783E-02  7072   0.702E-01-0.414E-04
CGA:   7    -0.354828908325E+03   -0.31140E-02   -0.31021E-02  7072   0.291E-01 0.135E-04
CGA:   8    -0.354830566321E+03   -0.16580E-02   -0.16597E-02  7072   0.139E-01 0.839E-04
CGA:   9    -0.354831603451E+03   -0.10371E-02   -0.10377E-02  7072   0.923E-02-0.294E-04
CGA:  10    -0.354832070173E+03   -0.46672E-03   -0.46740E-03  7072   0.496E-02 0.165E-04
CGA:  11    -0.354832285320E+03   -0.21515E-03   -0.21493E-03  7072   0.291E-02 0.338E-06
CGA:  12    -0.354832478525E+03   -0.19320E-03   -0.19319E-03  7072   0.155E-02 0.536E-05
CGA:  13    -0.354832610674E+03   -0.13215E-03   -0.13201E-03  7072   0.864E-03 0.622E-05
CGA:  14    -0.354832651626E+03   -0.40952E-04   -0.41021E-04  7072   0.673E-03 0.339E-05
CGA:  15    -0.354832684362E+03   -0.32736E-04   -0.32740E-04  7072   0.257E-03 0.119E-05
CGA:  16    -0.354832710910E+03   -0.26548E-04   -0.26452E-04  7072   0.251E-03 0.236E-05
CGA:  17    -0.354832727534E+03   -0.16624E-04   -0.16624E-04  7072   0.214E-03 0.542E-06
CGA:  18    -0.354832735573E+03   -0.80390E-05   -0.80584E-05  7072   0.723E-04 0.499E-06
  55 F= -.35483274E+03 E0= -.35481829E+03  d E =-.198308E-02  mag=     8.0000
       N       E                     dE             d eps       ncg     rms          ort
SDA:   1    -0.354785158027E+03    0.47570E-01    0.00000E+00  7072   0.305E+00 0.000E+00
CGA:   2    -0.354794572335E+03   -0.94143E-02   -0.94036E-02  7072   0.149E+00 0.717E-04
CGA:   3    -0.354811000794E+03   -0.16428E-01   -0.16368E-01  7072   0.313E+00 0.123E-02
CGA:   4    -0.354825755977E+03   -0.14755E-01   -0.14663E-01  7072   0.426E-01-0.370E-03
CGA:   5    -0.354829945029E+03   -0.41891E-02   -0.41835E-02  7072   0.266E-01 0.143E-03
CGA:   6    -0.354831860897E+03   -0.19159E-02   -0.19164E-02  7072   0.163E-01-0.524E-04
CGA:   7    -0.354832458435E+03   -0.59754E-03   -0.59693E-03  7072   0.719E-02 0.143E-04
CGA:   8    -0.354832791669E+03   -0.33323E-03   -0.33250E-03  7072   0.237E-02-0.498E-05
CGA:   9    -0.354833035711E+03   -0.24404E-03   -0.24393E-03  7072   0.214E-02 0.291E-05
CGA:  10    -0.354833141067E+03   -0.10536E-03   -0.10538E-03  7072   0.677E-03 0.578E-06
CGA:  11    -0.354833181199E+03   -0.40132E-04   -0.40145E-04  7072   0.678E-03 0.206E-05
CGA:  12    -0.354833213439E+03   -0.32240E-04   -0.32236E-04  7072   0.317E-03 0.391E-06
CGA:  13    -0.354833233022E+03   -0.19584E-04   -0.19586E-04  7072   0.189E-03 0.762E-06
CGA:  14    -0.354833247313E+03   -0.14291E-04   -0.14295E-04  7072   0.658E-04-0.395E-06
CGA:  15    -0.354833251507E+03   -0.41937E-05   -0.41937E-05  7072   0.874E-04 0.131E-06
  56 F= -.35483325E+03 E0= -.35481875E+03  d E =-.515933E-03  mag=     8.0000
