       N       E                     dE             d eps       ncg     rms          rms(c)
DAV:   1     0.652989583117E+04    0.65299E+04   -0.26931E+05 35504   0.155E+03
DAV:   2     0.410818361190E+03   -0.61191E+04   -0.58714E+04 35760   0.476E+02
DAV:   3    -0.366160164028E+03   -0.77698E+03   -0.75944E+03 38160   0.179E+02
DAV:   4    -0.408819104244E+03   -0.42659E+02   -0.41402E+02 50848   0.433E+01
DAV:   5    -0.412160207976E+03   -0.33411E+01   -0.32735E+01 63424   0.850E+00    0.667E+01
DAV:   6    -0.339602852332E+03    0.72557E+02   -0.33269E+02 46296   0.415E+01    0.405E+01
DAV:   7    -0.372072155907E+03   -0.32469E+02   -0.10813E+02 48304   0.228E+01    0.744E+01
DAV:   8    -0.359210230231E+03    0.12862E+02   -0.52739E+01 48280   0.163E+01    0.303E+01
DAV:   9    -0.360597635405E+03   -0.13874E+01   -0.13039E+01 47960   0.869E+00    0.383E+01
DAV:  10    -0.361614159328E+03   -0.10165E+01   -0.31687E+01 48960   0.989E+00    0.355E+01
DAV:  11    -0.363254142857E+03   -0.16400E+01   -0.12960E+01 44952   0.601E+00    0.219E+01
DAV:  12    -0.366084184667E+03   -0.28300E+01   -0.59022E+00 46664   0.391E+00    0.143E+01
DAV:  13    -0.369924893929E+03   -0.38407E+01   -0.28546E+00 45376   0.403E+00    0.185E+01
DAV:  14    -0.375453043936E+03   -0.55282E+01   -0.14602E+01 45304   0.497E+00    0.158E+01
DAV:  15    -0.377841322851E+03   -0.23883E+01   -0.13433E+01 45656   0.368E+00    0.988E+00
DAV:  16    -0.379436173921E+03   -0.15949E+01   -0.18401E+00 44840   0.257E+00    0.107E+01
DAV:  17    -0.379981134003E+03   -0.54496E+00   -0.25905E+00 46472   0.195E+00    0.969E+00
DAV:  18    -0.380716953178E+03   -0.73582E+00   -0.48605E-01 44168   0.179E+00    0.565E+00
DAV:  19    -0.381295729254E+03   -0.57878E+00   -0.49592E-01 45912   0.114E+00    0.508E+00
DAV:  20    -0.381376825575E+03   -0.81096E-01   -0.36658E-02 40384   0.534E-01    0.442E+00
DAV:  21    -0.381903946771E+03   -0.52712E+00   -0.42778E-01 45016   0.942E-01    0.455E+00
DAV:  22    -0.382712091622E+03   -0.80814E+00   -0.71389E-01 43056   0.158E+00    0.374E+00
DAV:  23    -0.382915500535E+03   -0.20341E+00   -0.31590E-01 44592   0.874E-01    0.223E+00
DAV:  24    -0.383166955288E+03   -0.25145E+00   -0.16366E-01 40376   0.699E-01    0.326E+00
DAV:  25    -0.383176362250E+03   -0.94070E-02   -0.10182E-02 44752   0.265E-01    0.320E+00
DAV:  26    -0.383171967972E+03    0.43943E-02   -0.71110E-04 43064   0.660E-02    0.336E+00
DAV:  27    -0.383306118427E+03   -0.13415E+00   -0.12841E-01 42528   0.643E-01    0.152E+00
DAV:  28    -0.383390376768E+03   -0.84258E-01   -0.71414E-02 43240   0.573E-01    0.175E+00
DAV:  29    -0.383410605538E+03   -0.20229E-01   -0.25156E-02 44624   0.429E-01    0.155E+00
DAV:  30    -0.383420014271E+03   -0.94087E-02   -0.30251E-02 42608   0.332E-01    0.132E+00
DAV:  31    -0.383419833824E+03    0.18045E-03   -0.97918E-03 48672   0.246E-01    0.553E-01
DAV:  32    -0.383420705792E+03   -0.87197E-03   -0.25186E-03 41152   0.133E-01    0.368E-01
DAV:  33    -0.383420721662E+03   -0.15870E-04   -0.30485E-03 46920   0.106E-01    0.219E-01
DAV:  34    -0.383420852564E+03   -0.13090E-03   -0.51072E-04 42432   0.657E-02    0.211E-01
DAV:  35    -0.383420783765E+03    0.68799E-04   -0.31951E-04 46272   0.481E-02    0.779E-02
DAV:  36    -0.383420812255E+03   -0.28491E-04   -0.72801E-05 37352   0.283E-02    0.548E-02
DAV:  37    -0.383420817303E+03   -0.50480E-05   -0.45124E-05 30168   0.181E-02
   1 F= -.38342082E+03 E0= -.38340848E+03  d E =-.383421E+03  mag=    34.0055
       N       E                     dE             d eps       ncg     rms          rms(c)
DAV:   1    -0.383473358434E+03   -0.52546E-01   -0.60469E-02 37968   0.435E-01    0.637E-02
DAV:   2    -0.383473554792E+03   -0.19636E-03   -0.23434E-03 39128   0.852E-02    0.140E-01
DAV:   3    -0.383473537374E+03    0.17418E-04   -0.31419E-04 47400   0.340E-02    0.976E-02
DAV:   4    -0.383473538924E+03   -0.15495E-05   -0.18555E-04 33248   0.248E-02    0.960E-02
DAV:   5    -0.383473527417E+03    0.11506E-04   -0.12733E-04 31512   0.207E-02    0.588E-02
DAV:   6    -0.383473526586E+03    0.83143E-06   -0.95924E-05 29496   0.186E-02
   2 F= -.38347353E+03 E0= -.38346121E+03  d E =-.527093E-01  mag=    34.0029
       N       E                     dE             d eps       ncg     rms          rms(c)
DAV:   1    -0.384512151159E+03   -0.10386E+01   -0.64925E+01 37784   0.144E+01    0.189E+00
DAV:   2    -0.384750166778E+03   -0.23802E+00   -0.27303E+00 39640   0.279E+00    0.343E+00
DAV:   3    -0.384762872874E+03   -0.12706E-01   -0.56504E-01 57104   0.101E+00    0.396E+00
DAV:   4    -0.384755841852E+03    0.70310E-02   -0.40991E-01 49696   0.725E-01    0.352E+00
DAV:   5    -0.384733718945E+03    0.22123E-01   -0.11263E-01 49312   0.575E-01    0.117E+00
DAV:   6    -0.384737626411E+03   -0.39075E-02   -0.47418E-02 49944   0.549E-01    0.163E+00
DAV:   7    -0.384734781337E+03    0.28451E-02   -0.38485E-02 50456   0.425E-01    0.153E+00
DAV:   8    -0.384733932456E+03    0.84888E-03   -0.14809E-02 51008   0.324E-01    0.158E+00
DAV:   9    -0.384730247703E+03    0.36848E-02   -0.17430E-02 50896   0.266E-01    0.893E-01
DAV:  10    -0.384730528112E+03   -0.28041E-03   -0.95094E-03 47304   0.177E-01    0.319E-01
DAV:  11    -0.384731239398E+03   -0.71129E-03   -0.21704E-03 46760   0.104E-01    0.389E-01
DAV:  12    -0.384731192832E+03    0.46566E-04   -0.50672E-04 46512   0.727E-02    0.304E-01
DAV:  13    -0.384731058653E+03    0.13418E-03   -0.10254E-03 46232   0.668E-02    0.109E-01
DAV:  14    -0.384731197792E+03   -0.13914E-03   -0.57353E-04 40808   0.386E-02    0.201E-01
DAV:  15    -0.384731185965E+03    0.11827E-04   -0.18045E-04 33088   0.277E-02    0.113E-01
DAV:  16    -0.384731192077E+03   -0.61120E-05   -0.30326E-05 28752   0.117E-02
   3 F= -.38473119E+03 E0= -.38471832E+03  d E =-.125767E+01  mag=    34.0006
       N       E                     dE             d eps       ncg     rms          rms(c)
DAV:   1    -0.384976629888E+03   -0.24544E+00   -0.16776E+02 37832   0.281E+01    0.327E+00
DAV:   2    -0.385870209551E+03   -0.89358E+00   -0.93707E+00 36840   0.548E+00    0.818E+00
DAV:   3    -0.385794392947E+03    0.75817E-01   -0.23304E+00 55264   0.210E+00    0.327E+00
DAV:   4    -0.385792087495E+03    0.23055E-02   -0.15092E-01 50392   0.931E-01    0.273E+00
DAV:   5    -0.385777553108E+03    0.14534E-01   -0.10988E-01 48576   0.556E-01    0.228E+00
DAV:   6    -0.385777809570E+03   -0.25646E-03   -0.17443E-01 50256   0.651E-01    0.309E+00
DAV:   7    -0.385790463421E+03   -0.12654E-01   -0.22764E-01 50760   0.853E-01    0.496E+00
DAV:   8    -0.385752634432E+03    0.37829E-01   -0.20034E-01 45928   0.578E-01    0.162E+00
DAV:   9    -0.385763584128E+03   -0.10950E-01   -0.27891E-02 48864   0.434E-01    0.153E+00
DAV:  10    -0.385761533143E+03    0.20510E-02   -0.26180E-02 50488   0.271E-01    0.695E-01
DAV:  11    -0.385764126838E+03   -0.25937E-02   -0.33796E-03 46184   0.195E-01    0.101E+00
DAV:  12    -0.385762600026E+03    0.15268E-02   -0.28876E-03 48592   0.128E-01    0.631E-01
DAV:  13    -0.385762631284E+03   -0.31258E-04   -0.54154E-03 48128   0.136E-01    0.346E-01
DAV:  14    -0.385763368316E+03   -0.73703E-03   -0.30624E-03 42600   0.108E-01    0.422E-01
DAV:  15    -0.385763312725E+03    0.55591E-04   -0.85971E-04 44288   0.640E-02    0.357E-01
DAV:  16    -0.385763266870E+03    0.45855E-04   -0.10551E-04 39672   0.270E-02    0.284E-01
DAV:  17    -0.385763308744E+03   -0.41874E-04   -0.12925E-04 34448   0.314E-02    0.333E-01
DAV:  18    -0.385763262982E+03    0.45762E-04   -0.16333E-04 41112   0.293E-02    0.250E-01
DAV:  19    -0.385763240132E+03    0.22850E-04   -0.57510E-05 31264   0.229E-02    0.174E-01
DAV:  20    -0.385763236493E+03    0.36386E-05   -0.10217E-04 29888   0.198E-02    0.557E-02
DAV:  21    -0.385763262243E+03   -0.25750E-04   -0.46028E-05 27424   0.145E-02    0.377E-02
DAV:  22    -0.385763268220E+03   -0.59776E-05   -0.81029E-06 22416   0.999E-03
   4 F= -.38576327E+03 E0= -.38575005E+03  d E =-.103208E+01  mag=    34.0000
       N       E                     dE             d eps       ncg     rms          rms(c)
DAV:   1    -0.385087775830E+03    0.67549E+00   -0.19409E+02 36800   0.351E+01    0.429E+00
DAV:   2    -0.386371378189E+03   -0.12836E+01   -0.12897E+01 35648   0.658E+00    0.100E+01
DAV:   3    -0.386317129012E+03    0.54249E-01   -0.46425E+00 54280   0.266E+00    0.487E+00
DAV:   4    -0.386450994476E+03   -0.13387E+00   -0.18780E+00 51888   0.157E+00    0.822E+00
DAV:   5    -0.386300243804E+03    0.15075E+00   -0.68541E-01 48096   0.124E+00    0.263E+00
DAV:   6    -0.386304453657E+03   -0.42099E-02   -0.97178E-02 49936   0.712E-01    0.240E+00
DAV:   7    -0.386293830041E+03    0.10624E-01   -0.61246E-02 50280   0.713E-01    0.195E+00
DAV:   8    -0.386292063173E+03    0.17669E-02   -0.85118E-02 50920   0.606E-01    0.177E+00
DAV:   9    -0.386289631238E+03    0.24319E-02   -0.22629E-02 48448   0.429E-01    0.109E+00
DAV:  10    -0.386290707509E+03   -0.10763E-02   -0.16366E-02 48776   0.276E-01    0.975E-01
DAV:  11    -0.386289958102E+03    0.74941E-03   -0.11146E-02 50944   0.239E-01    0.520E-01
DAV:  12    -0.386290857665E+03   -0.89956E-03   -0.27898E-03 48160   0.164E-01    0.605E-01
DAV:  13    -0.386290498955E+03    0.35871E-03   -0.21232E-03 48496   0.120E-01    0.578E-01
DAV:  14    -0.386290322996E+03    0.17596E-03   -0.63624E-03 49352   0.150E-01    0.472E-01
DAV:  15    -0.386290799450E+03   -0.47645E-03   -0.44632E-03 46816   0.112E-01    0.684E-01
DAV:  16    -0.386290566659E+03    0.23279E-03   -0.86750E-04 43136   0.764E-02    0.409E-01
DAV:  17    -0.386290572513E+03   -0.58542E-05   -0.96394E-04 46560   0.443E-02    0.185E-01
DAV:  18    -0.386290669776E+03   -0.97263E-04   -0.23291E-04 39088   0.355E-02    0.208E-01
DAV:  19    -0.386290640372E+03    0.29404E-04   -0.28725E-04 41784   0.387E-02    0.796E-02
DAV:  20    -0.386290650075E+03   -0.97028E-05   -0.81916E-05 34872   0.254E-02
   5 F= -.38629065E+03 E0= -.38627740E+03  d E =-.527382E+00  mag=    34.0000
       N       E                     dE             d eps       ncg     rms          rms(c)
DAV:   1    -0.385754621587E+03    0.53602E+00   -0.12175E+02 36216   0.294E+01    0.336E+00
DAV:   2    -0.386486797313E+03   -0.73218E+00   -0.73205E+00 35792   0.521E+00    0.642E+00
DAV:   3    -0.386552728718E+03   -0.65931E-01   -0.26411E+00 54640   0.198E+00    0.671E+00
DAV:   4    -0.386500409191E+03    0.52320E-01   -0.82987E-01 51352   0.145E+00    0.479E+00
DAV:   5    -0.386471991507E+03    0.28418E-01   -0.29874E-01 49200   0.894E-01    0.281E+00
DAV:   6    -0.386469771048E+03    0.22205E-02   -0.76697E-02 49400   0.552E-01    0.122E+00
DAV:   7    -0.386474417159E+03   -0.46461E-02   -0.27183E-02 47736   0.374E-01    0.133E+00
DAV:   8    -0.386475491622E+03   -0.10745E-02   -0.19177E-02 49488   0.382E-01    0.167E+00
DAV:   9    -0.386476565606E+03   -0.10740E-02   -0.49062E-02 50384   0.385E-01    0.179E+00
DAV:  10    -0.386472678620E+03    0.38870E-02   -0.31210E-02 48328   0.362E-01    0.758E-01
DAV:  11    -0.386474158365E+03   -0.14797E-02   -0.44524E-03 46112   0.200E-01    0.618E-01
DAV:  12    -0.386473968797E+03    0.18957E-03   -0.19770E-03 49856   0.109E-01    0.393E-01
DAV:  13    -0.386473948798E+03    0.19999E-04   -0.21762E-03 48880   0.712E-02    0.243E-01
DAV:  14    -0.386474060523E+03   -0.11173E-03   -0.12172E-03 44776   0.750E-02    0.198E-01
DAV:  15    -0.386474140424E+03   -0.79900E-04   -0.57960E-04 46072   0.610E-02    0.194E-01
DAV:  16    -0.386474162784E+03   -0.22360E-04   -0.70723E-04 36104   0.386E-02    0.138E-01
DAV:  17    -0.386474193205E+03   -0.30420E-04   -0.61744E-05 32688   0.209E-02    0.153E-01
DAV:  18    -0.386474171944E+03    0.21261E-04   -0.18642E-05 26992   0.120E-02    0.115E-01
DAV:  19    -0.386474171300E+03    0.64410E-06   -0.50121E-05 30016   0.161E-02
   6 F= -.38647417E+03 E0= -.38646097E+03  d E =-.183521E+00  mag=    34.0000
       N       E                     dE             d eps       ncg     rms          rms(c)
DAV:   1    -0.386119006859E+03    0.35517E+00   -0.12530E+02 36568   0.281E+01    0.244E+00
DAV:   2    -0.386595378238E+03   -0.47637E+00   -0.49330E+00 35912   0.499E+00    0.313E+00
DAV:   3    -0.386628641957E+03   -0.33264E-01   -0.66248E-01 54064   0.152E+00    0.477E+00
DAV:   4    -0.386612661711E+03    0.15980E-01   -0.57457E-01 53080   0.977E-01    0.470E+00
DAV:   5    -0.386584308166E+03    0.28354E-01   -0.17340E-01 49264   0.717E-01    0.109E+00
DAV:   6    -0.386591040655E+03   -0.67325E-02   -0.22790E-02 49224   0.438E-01    0.109E+00
DAV:   7    -0.386592203069E+03   -0.11624E-02   -0.30132E-02 49352   0.379E-01    0.180E+00
DAV:   8    -0.386591158201E+03    0.10449E-02   -0.66097E-02 49288   0.414E-01    0.170E+00
DAV:   9    -0.386587378014E+03    0.37802E-02   -0.28586E-02 47152   0.323E-01    0.700E-01
DAV:  10    -0.386588930605E+03   -0.15526E-02   -0.68603E-03 48528   0.179E-01    0.359E-01
DAV:  11    -0.386589333110E+03   -0.40251E-03   -0.70201E-04 42192   0.670E-02    0.359E-01
DAV:  12    -0.386589291103E+03    0.42008E-04   -0.14015E-04 38832   0.346E-02    0.409E-01
DAV:  13    -0.386589238044E+03    0.53059E-04   -0.89983E-05 37248   0.342E-02    0.356E-01
DAV:  14    -0.386589022972E+03    0.21507E-03   -0.19065E-03 49616   0.104E-01    0.113E-01
DAV:  15    -0.386589160775E+03   -0.13780E-03   -0.56962E-04 44424   0.525E-02    0.180E-01
DAV:  16    -0.386589120435E+03    0.40341E-04   -0.14310E-04 41672   0.376E-02    0.716E-02
DAV:  17    -0.386589133784E+03   -0.13349E-04   -0.64972E-05 35000   0.187E-02    0.323E-02
DAV:  18    -0.386589139161E+03   -0.53768E-05   -0.14173E-05 24664   0.115E-02
   7 F= -.38658914E+03 E0= -.38657573E+03  d E =-.114968E+00  mag=    34.0000
       N       E                     dE             d eps       ncg     rms          rms(c)
DAV:   1    -0.385047181975E+03    0.15420E+01   -0.29857E+02 36824   0.490E+01    0.497E+00
DAV:   2    -0.386756564530E+03   -0.17094E+01   -0.17383E+01 35136   0.908E+00    0.129E+01
DAV:   3    -0.386798841912E+03   -0.42277E-01   -0.79189E+00 49400   0.276E+00    0.825E+00
DAV:   4    -0.386819832074E+03   -0.20990E-01   -0.25259E+00 50080   0.217E+00    0.101E+01
DAV:   5    -0.386690999537E+03    0.12883E+00   -0.14300E+00 49472   0.144E+00    0.632E+00
DAV:   6    -0.386650533679E+03    0.40466E-01   -0.39435E-01 49240   0.986E-01    0.359E+00
DAV:   7    -0.386651438619E+03   -0.90494E-03   -0.12328E-01 50096   0.840E-01    0.216E+00
DAV:   8    -0.386678912113E+03   -0.27473E-01   -0.20144E-01 49728   0.680E-01    0.399E+00
DAV:   9    -0.386663557264E+03    0.15355E-01   -0.30225E-02 47792   0.533E-01    0.312E+00
DAV:  10    -0.386655135047E+03    0.84222E-02   -0.17660E-02 50280   0.261E-01    0.135E+00
DAV:  11    -0.386665734768E+03   -0.10600E-01   -0.66633E-02 48360   0.501E-01    0.232E+00
DAV:  12    -0.386659741615E+03    0.59932E-02   -0.53851E-02 49744   0.472E-01    0.174E+00
DAV:  13    -0.386662527516E+03   -0.27859E-02   -0.75987E-02 50048   0.412E-01    0.199E+00
DAV:  14    -0.386662563152E+03   -0.35636E-04   -0.86499E-03 45024   0.268E-01    0.206E+00
DAV:  15    -0.386658288512E+03    0.42746E-02   -0.42913E-03 44408   0.116E-01    0.122E+00
DAV:  16    -0.386659073912E+03   -0.78540E-03   -0.93169E-04 43440   0.574E-02    0.879E-01
DAV:  17    -0.386659367172E+03   -0.29326E-03   -0.28710E-03 47552   0.109E-01    0.716E-01
DAV:  18    -0.386659622614E+03   -0.25544E-03   -0.32738E-03 46640   0.108E-01    0.481E-01
DAV:  19    -0.386659847783E+03   -0.22517E-03   -0.15063E-03 44592   0.804E-02    0.268E-01
DAV:  20    -0.386659942857E+03   -0.95074E-04   -0.41760E-04 44144   0.532E-02    0.222E-01
DAV:  21    -0.386659947483E+03   -0.46261E-05   -0.53718E-04 43984   0.525E-02    0.179E-01
DAV:  22    -0.386659931669E+03    0.15815E-04   -0.14548E-04 36592   0.288E-02    0.885E-02
DAV:  23    -0.386659928575E+03    0.30941E-05   -0.10362E-04 32648   0.252E-02    0.769E-02
DAV:  24    -0.386659933021E+03   -0.44462E-05   -0.29687E-05 27168   0.174E-02
   8 F= -.38665993E+03 E0= -.38664640E+03  d E =-.707939E-01  mag=    34.0000
       N       E                     dE             d eps       ncg     rms          rms(c)
DAV:   1    -0.378664328992E+03    0.79956E+01   -0.60453E+02 37784   0.748E+01    0.197E+01
DAV:   2    -0.418428524611E+03   -0.39764E+02   -0.18387E+02 45264   0.230E+01    0.763E+01
DAV:   3    -0.385862118453E+03    0.32566E+02   -0.29959E+01 46896   0.156E+01    0.294E+01
DAV:   4    -0.385925388748E+03   -0.63270E-01   -0.44571E+01 49848   0.720E+00    0.238E+01
DAV:   5    -0.385208629513E+03    0.71676E+00   -0.24501E+01 49312   0.573E+00    0.204E+01
DAV:   6    -0.385561437242E+03   -0.35281E+00   -0.54915E+00 48704   0.303E+00    0.142E+01
DAV:   7    -0.385732022850E+03   -0.17059E+00   -0.37936E-01 47136   0.145E+00    0.100E+01
DAV:   8    -0.385966869929E+03   -0.23485E+00   -0.10760E+00 51320   0.162E+00    0.107E+01
DAV:   9    -0.386091436071E+03   -0.12457E+00   -0.12960E-01 45704   0.875E-01    0.872E+00
DAV:  10    -0.386097866341E+03   -0.64303E-02   -0.26219E-01 50824   0.141E+00    0.664E+00
DAV:  11    -0.386146641497E+03   -0.48775E-01   -0.47928E-01 49160   0.116E+00    0.631E+00
DAV:  12    -0.386170185700E+03   -0.23544E-01   -0.23446E-01 48168   0.106E+00    0.459E+00
DAV:  13    -0.386196717713E+03   -0.26532E-01   -0.42053E-01 49320   0.103E+00    0.555E+00
DAV:  14    -0.386163039716E+03    0.33678E-01   -0.41427E-01 48760   0.828E-01    0.445E+00
DAV:  15    -0.386151995443E+03    0.11044E-01   -0.86379E-02 48936   0.676E-01    0.408E+00
DAV:  16    -0.386135291446E+03    0.16704E-01   -0.70669E-02 50216   0.645E-01    0.526E+00
DAV:  17    -0.386101624113E+03    0.33667E-01   -0.12895E-01 49104   0.600E-01    0.269E+00
DAV:  18    -0.386103548058E+03   -0.19239E-02   -0.33649E-02 46880   0.489E-01    0.217E+00
DAV:  19    -0.386101709572E+03    0.18385E-02   -0.25460E-02 48912   0.388E-01    0.170E+00
DAV:  20    -0.386106950721E+03   -0.52411E-02   -0.51902E-03 43912   0.171E-01    0.168E+00
DAV:  21    -0.386107230289E+03   -0.27957E-03   -0.46493E-03 49960   0.190E-01    0.121E+00
DAV:  22    -0.386108796435E+03   -0.15661E-02   -0.96886E-03 48688   0.285E-01    0.110E+00
DAV:  23    -0.386111969540E+03   -0.31731E-02   -0.44074E-02 49144   0.336E-01    0.167E+00
DAV:  24    -0.386111989477E+03   -0.19937E-04   -0.27842E-03 37216   0.132E-01    0.194E+00
DAV:  25    -0.386114573378E+03   -0.25839E-02   -0.68868E-03 51248   0.147E-01    0.284E+00
DAV:  26    -0.386112122142E+03    0.24512E-02   -0.11661E-03 37744   0.805E-02    0.308E+00
DAV:  27    -0.386110161305E+03    0.19608E-02   -0.15274E-04 39504   0.298E-02    0.297E+00
DAV:  28    -0.386106364865E+03    0.37964E-02   -0.11294E-02 50424   0.192E-01    0.175E+00
DAV:  29    -0.386107547087E+03   -0.11822E-02   -0.17911E-02 48168   0.209E-01    0.506E-01
DAV:  30    -0.386110209080E+03   -0.26620E-02   -0.39073E-03 41016   0.141E-01    0.670E-01
DAV:  31    -0.386110220327E+03   -0.11247E-04   -0.15672E-03 41712   0.944E-02    0.330E-01
DAV:  32    -0.386110307890E+03   -0.87564E-04   -0.73047E-04 47464   0.653E-02    0.225E-01
DAV:  33    -0.386110346960E+03   -0.39069E-04   -0.18488E-04 38848   0.359E-02    0.163E-01
DAV:  34    -0.386110364617E+03   -0.17657E-04   -0.56916E-05 37368   0.243E-02    0.171E-01
DAV:  35    -0.386110349979E+03    0.14637E-04   -0.77770E-05 31480   0.215E-02    0.949E-02
DAV:  36    -0.386110357513E+03   -0.75332E-05   -0.31856E-05 32408   0.146E-02
   9 F= -.38611036E+03 E0= -.38609442E+03  d E =0.549576E+00  mag=    33.9975
       N       E                     dE             d eps       ncg     rms          rms(c)
DAV:   1    -0.383834402728E+03    0.22759E+01   -0.21539E+02 38392   0.461E+01    0.112E+01
DAV:   2    -0.395703655884E+03   -0.11869E+02   -0.64789E+01 45360   0.143E+01    0.626E+01
DAV:   3    -0.385927743496E+03    0.97759E+01   -0.22127E+01 47296   0.983E+00    0.913E+00
DAV:   4    -0.386624847710E+03   -0.69710E+00   -0.27609E+00 48744   0.268E+00    0.125E+01
DAV:   5    -0.386530566507E+03    0.94281E-01   -0.23645E+00 48488   0.201E+00    0.695E+00
DAV:   6    -0.386613063588E+03   -0.82497E-01   -0.45659E-01 49528   0.112E+00    0.588E+00
DAV:   7    -0.386675707909E+03   -0.62644E-01   -0.97470E-01 49848   0.137E+00    0.707E+00
DAV:   8    -0.386674611958E+03    0.10960E-02   -0.27103E-01 48392   0.857E-01    0.523E+00
DAV:   9    -0.386720768675E+03   -0.46157E-01   -0.52195E-01 49200   0.103E+00    0.470E+00
DAV:  10    -0.386699587771E+03    0.21181E-01   -0.17667E-01 47952   0.860E-01    0.344E+00
DAV:  11    -0.386700533735E+03   -0.94596E-03   -0.34247E-02 48640   0.489E-01    0.323E+00
DAV:  12    -0.386698877627E+03    0.16561E-02   -0.66441E-02 50184   0.465E-01    0.304E+00
DAV:  13    -0.386712046687E+03   -0.13169E-01   -0.67810E-02 49272   0.627E-01    0.208E+00
DAV:  14    -0.386725163906E+03   -0.13117E-01   -0.52618E-02 49792   0.645E-01    0.232E+00
DAV:  15    -0.386722342579E+03    0.28213E-02   -0.96719E-03 42768   0.222E-01    0.245E+00
DAV:  16    -0.386719405070E+03    0.29375E-02   -0.11633E-02 45200   0.225E-01    0.285E+00
DAV:  17    -0.386716598698E+03    0.28064E-02   -0.94541E-04 37328   0.779E-02    0.290E+00
DAV:  18    -0.386713012814E+03    0.35859E-02   -0.39948E-03 50688   0.128E-01    0.241E+00
DAV:  19    -0.386709934840E+03    0.30780E-02   -0.51410E-02 49352   0.455E-01    0.155E+00
DAV:  20    -0.386722823191E+03   -0.12888E-01   -0.36666E-02 48080   0.444E-01    0.232E+00
DAV:  21    -0.386725255212E+03   -0.24320E-02   -0.10877E-02 44912   0.249E-01    0.279E+00
DAV:  22    -0.386723398669E+03    0.18565E-02   -0.10068E-03 45376   0.937E-02    0.276E+00
DAV:  23    -0.386724349918E+03   -0.95125E-03   -0.17911E-03 48288   0.998E-02    0.255E+00
DAV:  24    -0.386726334005E+03   -0.19841E-02   -0.49250E-03 47248   0.135E-01    0.251E+00
DAV:  25    -0.386727732134E+03   -0.13981E-02   -0.20716E-03 46552   0.998E-02    0.264E+00
DAV:  26    -0.386726551265E+03    0.11809E-02   -0.50940E-04 44688   0.629E-02    0.269E+00
DAV:  27    -0.386729298808E+03   -0.27475E-02   -0.15113E-03 48240   0.134E-01    0.292E+00
DAV:  28    -0.386732121244E+03   -0.28224E-02   -0.12875E-03 48440   0.105E-01    0.310E+00
DAV:  29    -0.386727794788E+03    0.43265E-02   -0.15176E-03 47432   0.134E-01    0.288E+00
DAV:  30    -0.386720648208E+03    0.71466E-02   -0.56098E-03 52096   0.274E-01    0.243E+00
DAV:  31    -0.386716990523E+03    0.36577E-02   -0.74460E-03 49416   0.261E-01    0.185E+00
DAV:  32    -0.386719500709E+03   -0.25102E-02   -0.13678E-03 39920   0.110E-01    0.184E+00
DAV:  33    -0.386719620683E+03   -0.11997E-03   -0.60733E-04 47992   0.669E-02    0.176E+00
DAV:  34    -0.386719903132E+03   -0.28245E-03   -0.77690E-04 48000   0.756E-02    0.164E+00
DAV:  35    -0.386718641275E+03    0.12619E-02   -0.13555E-03 47576   0.122E-01    0.130E+00
DAV:  36    -0.386717587647E+03    0.10536E-02   -0.53967E-03 48616   0.208E-01    0.809E-01
DAV:  37    -0.386718706796E+03   -0.11191E-02   -0.80615E-04 37920   0.706E-02    0.755E-01
DAV:  38    -0.386718642816E+03    0.63980E-04   -0.45165E-04 47152   0.480E-02    0.596E-01
DAV:  39    -0.386718659659E+03   -0.16843E-04   -0.13732E-03 47720   0.816E-02    0.465E-01
DAV:  40    -0.386718615544E+03    0.44115E-04   -0.13857E-03 44720   0.892E-02    0.294E-01
DAV:  41    -0.386718703028E+03   -0.87484E-04   -0.51220E-04 40472   0.523E-02    0.256E-01
DAV:  42    -0.386718742985E+03   -0.39956E-04   -0.33644E-04 43664   0.470E-02    0.110E-01
DAV:  43    -0.386718780156E+03   -0.37171E-04   -0.22608E-04 40248   0.413E-02    0.887E-02
DAV:  44    -0.386718774060E+03    0.60955E-05   -0.29891E-05 27824   0.185E-02
  10 F= -.38671877E+03 E0= -.38670509E+03  d E =-.608417E+00  mag=    33.9936
       N       E                     dE             d eps       ncg     rms          rms(c)
DAV:   1    -0.386596228895E+03    0.12255E+00   -0.13030E+01 37840   0.114E+01    0.177E+00
DAV:   2    -0.386745689403E+03   -0.14946E+00   -0.14659E+00 35224   0.215E+00    0.168E+00
DAV:   3    -0.386774834002E+03   -0.29145E-01   -0.32176E-01 52080   0.899E-01    0.333E+00
DAV:   4    -0.386755712693E+03    0.19121E-01   -0.15288E-01 48552   0.645E-01    0.226E+00
DAV:   5    -0.386754683060E+03    0.10296E-02   -0.41832E-02 48544   0.351E-01    0.106E+00
DAV:   6    -0.386756326174E+03   -0.16431E-02   -0.13138E-02 46472   0.251E-01    0.659E-01
DAV:   7    -0.386758917572E+03   -0.25914E-02   -0.15340E-02 49624   0.255E-01    0.105E+00
DAV:   8    -0.386756717942E+03    0.21996E-02   -0.73754E-03 49384   0.216E-01    0.393E-01
DAV:   9    -0.386757334481E+03   -0.61654E-03   -0.37402E-03 48368   0.142E-01    0.335E-01
DAV:  10    -0.386757385923E+03   -0.51442E-04   -0.12990E-03 48352   0.877E-02    0.226E-01
DAV:  11    -0.386757369407E+03    0.16516E-04   -0.67149E-04 43240   0.470E-02    0.158E-01
DAV:  12    -0.386757373439E+03   -0.40328E-05   -0.38611E-05 31464   0.162E-02
  11 F= -.38675737E+03 E0= -.38674390E+03  d E =-.385994E-01  mag=    33.9980
       N       E                     dE             d eps       ncg     rms          rms(c)
DAV:   1    -0.386740939752E+03    0.16430E-01   -0.49935E+00 36880   0.601E+00    0.884E-01
DAV:   2    -0.386795987231E+03   -0.55047E-01   -0.51945E-01 38304   0.122E+00    0.473E+00
DAV:   3    -0.386761448295E+03    0.34539E-01   -0.17622E-01 48616   0.646E-01    0.702E-01
DAV:   4    -0.386772729273E+03   -0.11281E-01   -0.19672E-02 44224   0.297E-01    0.110E+00
DAV:   5    -0.386770940378E+03    0.17889E-02   -0.10059E-02 46960   0.204E-01    0.487E-01
DAV:   6    -0.386771665055E+03   -0.72468E-03   -0.35877E-03 46912   0.133E-01    0.502E-01
DAV:   7    -0.386771402237E+03    0.26282E-03   -0.36878E-03 49160   0.152E-01    0.476E-01
DAV:   8    -0.386771824344E+03   -0.42211E-03   -0.37033E-03 50248   0.127E-01    0.448E-01
DAV:   9    -0.386771942556E+03   -0.11821E-03   -0.93973E-04 45704   0.619E-02    0.404E-01
DAV:  10    -0.386771899411E+03    0.43145E-04   -0.73191E-05 35312   0.214E-02    0.412E-01
DAV:  11    -0.386771769280E+03    0.13013E-03   -0.13473E-04 31544   0.248E-02    0.418E-01
DAV:  12    -0.386771866660E+03   -0.97380E-04   -0.87283E-04 44232   0.659E-02    0.345E-01
DAV:  13    -0.386771952618E+03   -0.85958E-04   -0.61760E-04 46664   0.683E-02    0.381E-01
DAV:  14    -0.386771791581E+03    0.16104E-03   -0.53731E-04 45040   0.489E-02    0.941E-02
DAV:  15    -0.386771852478E+03   -0.60897E-04   -0.10738E-04 33536   0.272E-02    0.627E-02
DAV:  16    -0.386771865114E+03   -0.12636E-04   -0.74258E-05 28832   0.209E-02    0.688E-02
DAV:  17    -0.386771860563E+03    0.45512E-05   -0.42915E-05 26352   0.155E-02
  12 F= -.38677186E+03 E0= -.38675841E+03  d E =-.144871E-01  mag=    33.9997
       N       E                     dE             d eps       ncg     rms          rms(c)
DAV:   1    -0.386743772724E+03    0.28092E-01   -0.12343E+01 36456   0.825E+00    0.745E-01
DAV:   2    -0.386787826362E+03   -0.44054E-01   -0.45045E-01 35968   0.148E+00    0.169E+00
DAV:   3    -0.386789323640E+03   -0.14973E-02   -0.71943E-02 55600   0.431E-01    0.208E+00
DAV:   4    -0.386785954080E+03    0.33696E-02   -0.32802E-02 48144   0.295E-01    0.783E-01
DAV:   5    -0.386786263348E+03   -0.30927E-03   -0.52260E-03 48432   0.185E-01    0.482E-01
DAV:   6    -0.386786637807E+03   -0.37446E-03   -0.57231E-03 50136   0.150E-01    0.641E-01
DAV:   7    -0.386785919615E+03    0.71819E-03   -0.41083E-03 49904   0.140E-01    0.393E-01
DAV:   8    -0.386785965748E+03   -0.46134E-04   -0.17437E-03 50704   0.119E-01    0.308E-01
DAV:   9    -0.386785933023E+03    0.32725E-04   -0.99427E-04 49240   0.850E-02    0.148E-01
DAV:  10    -0.386786021156E+03   -0.88132E-04   -0.44679E-04 43648   0.498E-02    0.130E-01
DAV:  11    -0.386786038191E+03   -0.17035E-04   -0.11171E-04 31944   0.189E-02    0.127E-01
DAV:  12    -0.386786021656E+03    0.16534E-04   -0.81312E-06 23864   0.791E-03    0.131E-01
DAV:  13    -0.386786004153E+03    0.17504E-04   -0.10580E-05 19616   0.785E-03    0.126E-01
DAV:  14    -0.386785995038E+03    0.91145E-05   -0.25149E-05 25976   0.110E-02
  13 F= -.38678600E+03 E0= -.38677244E+03  d E =-.141345E-01  mag=    33.9999
       N       E                     dE             d eps       ncg     rms          rms(c)
DAV:   1    -0.386623013954E+03    0.16299E+00   -0.50759E+01 36032   0.173E+01    0.167E+00
DAV:   2    -0.386848858428E+03   -0.22584E+00   -0.23527E+00 37192   0.319E+00    0.572E+00
DAV:   3    -0.386798753786E+03    0.50105E-01   -0.44482E-01 51584   0.110E+00    0.221E+00
DAV:   4    -0.386808534930E+03   -0.97811E-02   -0.86470E-02 48768   0.566E-01    0.158E+00
DAV:   5    -0.386805681305E+03    0.28536E-02   -0.32842E-02 51376   0.365E-01    0.102E+00
DAV:   6    -0.386808175909E+03   -0.24946E-02   -0.30372E-02 49856   0.334E-01    0.168E+00
DAV:   7    -0.386805200385E+03    0.29755E-02   -0.72859E-03 48160   0.229E-01    0.121E+00
DAV:   8    -0.386804127201E+03    0.10732E-02   -0.10451E-02 52024   0.200E-01    0.520E-01
DAV:   9    -0.386805495437E+03   -0.13682E-02   -0.60901E-03 47312   0.135E-01    0.752E-01
DAV:  10    -0.386805116887E+03    0.37855E-03   -0.96667E-04 43248   0.846E-02    0.559E-01
DAV:  11    -0.386805058952E+03    0.57934E-04   -0.53015E-05 35184   0.187E-02    0.542E-01
DAV:  12    -0.386804970223E+03    0.88730E-04   -0.20586E-03 48952   0.770E-02    0.465E-01
DAV:  13    -0.386805004484E+03   -0.34261E-04   -0.16783E-03 44160   0.825E-02    0.530E-01
DAV:  14    -0.386805016501E+03   -0.12017E-04   -0.18326E-03 50304   0.793E-02    0.678E-01
DAV:  15    -0.386805302053E+03   -0.28555E-03   -0.69662E-04 46448   0.568E-02    0.938E-01
DAV:  16    -0.386804844918E+03    0.45714E-03   -0.17977E-04 37720   0.371E-02    0.944E-01
DAV:  17    -0.386804890031E+03   -0.45113E-04   -0.11869E-04 34232   0.221E-02    0.107E+00
DAV:  18    -0.386804841679E+03    0.48352E-04   -0.36937E-05 30864   0.138E-02    0.113E+00
DAV:  19    -0.386804748380E+03    0.93299E-04   -0.61933E-06 23080   0.683E-03    0.114E+00
DAV:  20    -0.386804713694E+03    0.34686E-04   -0.24786E-06 20064   0.436E-03    0.115E+00
DAV:  21    -0.386804668471E+03    0.45223E-04   -0.19261E-05 25848   0.114E-02    0.110E+00
DAV:  22    -0.386804388691E+03    0.27978E-03   -0.49714E-04 44520   0.454E-02    0.820E-01
DAV:  23    -0.386804563905E+03   -0.17521E-03   -0.56048E-04 43640   0.494E-02    0.544E-01
DAV:  24    -0.386804771888E+03   -0.20798E-03   -0.32694E-04 42296   0.336E-02    0.340E-01
DAV:  25    -0.386804926218E+03   -0.15433E-03   -0.48038E-05 28904   0.163E-02    0.287E-01
DAV:  26    -0.386804944980E+03   -0.18762E-04   -0.60928E-05 36768   0.177E-02    0.208E-01
DAV:  27    -0.386804958624E+03   -0.13644E-04   -0.48091E-05 27856   0.122E-02    0.128E-01
DAV:  28    -0.386804979843E+03   -0.21219E-04   -0.12786E-05 23536   0.834E-03    0.968E-02
DAV:  29    -0.386804985801E+03   -0.59574E-05   -0.76602E-06 20256   0.621E-03
  14 F= -.38680499E+03 E0= -.38679151E+03  d E =-.189908E-01  mag=    34.0000
       N       E                     dE             d eps       ncg     rms          rms(c)
DAV:   1    -0.378286364565E+03    0.85186E+01   -0.78419E+02 37440   0.782E+01    0.133E+01
DAV:   2    -0.394064897053E+03   -0.15779E+02   -0.10969E+02 42264   0.195E+01    0.636E+01
DAV:   3    -0.385170164690E+03    0.88947E+01   -0.21159E+01 48240   0.112E+01    0.112E+01
DAV:   4    -0.386095129963E+03   -0.92497E+00   -0.40831E+00 51232   0.341E+00    0.207E+01
DAV:   5    -0.385635443711E+03    0.45969E+00   -0.68622E+00 48400   0.249E+00    0.899E+00
DAV:   6    -0.385761825818E+03   -0.12638E+00   -0.79016E-01 48232   0.134E+00    0.797E+00
DAV:   7    -0.385745462905E+03    0.16363E-01   -0.30575E-01 49304   0.851E-01    0.612E+00
DAV:   8    -0.385869744461E+03   -0.12428E+00   -0.66985E-01 49472   0.144E+00    0.652E+00
DAV:   9    -0.385860534279E+03    0.92102E-02   -0.19671E-01 48880   0.978E-01    0.544E+00
DAV:  10    -0.385828370748E+03    0.32164E-01   -0.10806E-01 49504   0.698E-01    0.343E+00
DAV:  11    -0.385852021716E+03   -0.23651E-01   -0.26786E-01 49736   0.924E-01    0.401E+00
DAV:  12    -0.385874979294E+03   -0.22958E-01   -0.18829E-01 49792   0.101E+00    0.443E+00
DAV:  13    -0.385857121039E+03    0.17858E-01   -0.26127E-01 50256   0.869E-01    0.241E+00
DAV:  14    -0.385863233225E+03   -0.61122E-02   -0.59453E-02 49448   0.590E-01    0.223E+00
DAV:  15    -0.385860097939E+03    0.31353E-02   -0.22624E-02 46792   0.322E-01    0.138E+00
DAV:  16    -0.385859076887E+03    0.10211E-02   -0.11321E-02 49272   0.293E-01    0.103E+00
DAV:  17    -0.385861319186E+03   -0.22423E-02   -0.34721E-02 48872   0.343E-01    0.172E+00
DAV:  18    -0.385859184489E+03    0.21347E-02   -0.93116E-03 42632   0.214E-01    0.949E-01
DAV:  19    -0.385858968352E+03    0.21614E-03   -0.44382E-03 48800   0.125E-01    0.470E-01
DAV:  20    -0.385859226541E+03   -0.25819E-03   -0.16729E-03 45312   0.107E-01    0.528E-01
DAV:  21    -0.385859002959E+03    0.22358E-03   -0.67718E-04 46600   0.568E-02    0.451E-01
DAV:  22    -0.385858970729E+03    0.32230E-04   -0.30157E-04 40424   0.411E-02    0.334E-01
DAV:  23    -0.385859288486E+03   -0.31776E-03   -0.60675E-04 44952   0.726E-02    0.344E-01
DAV:  24    -0.385859193950E+03    0.94536E-04   -0.38257E-04 45400   0.639E-02    0.169E-01
DAV:  25    -0.385859200020E+03   -0.60698E-05   -0.24190E-04 41880   0.382E-02    0.128E-01
DAV:  26    -0.385859229367E+03   -0.29347E-04   -0.48047E-05 32240   0.210E-02    0.998E-02
DAV:  27    -0.385859260103E+03   -0.30736E-04   -0.83712E-05 31464   0.227E-02    0.103E-01
DAV:  28    -0.385859257321E+03    0.27820E-05   -0.54109E-05 28768   0.192E-02
  15 F= -.38585926E+03 E0= -.38584495E+03  d E =0.945728E+00  mag=    33.9860
       N       E                     dE             d eps       ncg     rms          rms(c)
DAV:   1    -0.384308554383E+03    0.15507E+01   -0.26078E+02 37640   0.467E+01    0.134E+01
DAV:   2    -0.407336613795E+03   -0.23028E+02   -0.93445E+01 45424   0.164E+01    0.701E+01
DAV:   3    -0.385775949464E+03    0.21561E+02   -0.16997E+01 48024   0.124E+01    0.195E+01
DAV:   4    -0.386831739380E+03   -0.10558E+01   -0.18423E+01 49080   0.490E+00    0.148E+01
DAV:   5    -0.387023780669E+03   -0.19204E+00   -0.75672E+00 48472   0.325E+00    0.127E+01
DAV:   6    -0.386820511194E+03    0.20327E+00   -0.89977E-01 49952   0.200E+00    0.800E+00
DAV:   7    -0.386821616440E+03   -0.11052E-02   -0.58225E-01 50008   0.134E+00    0.754E+00
DAV:   8    -0.386867871562E+03   -0.46255E-01   -0.11659E+00 52144   0.165E+00    0.771E+00
DAV:   9    -0.386767057975E+03    0.10081E+00   -0.35247E-01 49440   0.126E+00    0.460E+00
DAV:  10    -0.386749628734E+03    0.17429E-01   -0.82965E-02 50280   0.853E-01    0.365E+00
DAV:  11    -0.386732231555E+03    0.17397E-01   -0.23614E-01 51000   0.856E-01    0.301E+00
DAV:  12    -0.386756736558E+03   -0.24505E-01   -0.12065E-01 49872   0.710E-01    0.388E+00
DAV:  13    -0.386747931651E+03    0.88049E-02   -0.29600E-02 48272   0.426E-01    0.273E+00
DAV:  14    -0.386749852765E+03   -0.19211E-02   -0.11347E-02 49384   0.309E-01    0.239E+00
DAV:  15    -0.386741639313E+03    0.82135E-02   -0.55013E-02 51176   0.552E-01    0.128E+00
DAV:  16    -0.386747629006E+03   -0.59897E-02   -0.28891E-02 49760   0.446E-01    0.185E+00
DAV:  17    -0.386743203755E+03    0.44253E-02   -0.26583E-02 47536   0.306E-01    0.861E-01
DAV:  18    -0.386744649888E+03   -0.14461E-02   -0.56425E-03 45496   0.182E-01    0.518E-01
DAV:  19    -0.386744928485E+03   -0.27860E-03   -0.32521E-03 47872   0.118E-01    0.283E-01
DAV:  20    -0.386745011636E+03   -0.83151E-04   -0.52108E-04 40880   0.667E-02    0.138E-01
DAV:  21    -0.386744993596E+03    0.18039E-04   -0.28628E-04 46704   0.432E-02    0.120E-01
DAV:  22    -0.386745057274E+03   -0.63678E-04   -0.85988E-04 40248   0.364E-02    0.147E-01
DAV:  23    -0.386745081193E+03   -0.23919E-04   -0.10845E-04 32312   0.249E-02    0.116E-01
DAV:  24    -0.386745073479E+03    0.77141E-05   -0.33592E-05 32640   0.183E-02
  16 F= -.38674507E+03 E0= -.38673128E+03  d E =-.885816E+00  mag=    33.9971
       N       E                     dE             d eps       ncg     rms          rms(c)
DAV:   1    -0.386195845371E+03    0.54924E+00   -0.58170E+01 37664   0.225E+01    0.605E+00
DAV:   2    -0.387912408302E+03   -0.17166E+01   -0.20409E+01 44624   0.715E+00    0.228E+01
DAV:   3    -0.386790411537E+03    0.11220E+01   -0.12464E+01 48256   0.515E+00    0.603E+00
DAV:   4    -0.386798540627E+03   -0.81291E-02   -0.21352E-01 48136   0.154E+00    0.422E+00
DAV:   5    -0.386763534599E+03    0.35006E-01   -0.22700E-01 49664   0.970E-01    0.441E+00
DAV:   6    -0.386795894696E+03   -0.32360E-01   -0.21414E-01 48648   0.707E-01    0.487E+00
DAV:   7    -0.386828383732E+03   -0.32489E-01   -0.71671E-02 44184   0.445E-01    0.562E+00
DAV:   8    -0.386818872932E+03    0.95108E-02   -0.42560E-03 39944   0.169E-01    0.605E+00
DAV:   9    -0.386816275796E+03    0.25971E-02   -0.12034E-02 51104   0.263E-01    0.504E+00
DAV:  10    -0.386837509075E+03   -0.21233E-01   -0.45947E-02 50824   0.609E-01    0.332E+00
DAV:  11    -0.386845351629E+03   -0.78426E-02   -0.13554E-01 50048   0.793E-01    0.174E+00
DAV:  12    -0.386856506930E+03   -0.11155E-01   -0.59773E-02 46352   0.510E-01    0.254E+00
DAV:  13    -0.386846260799E+03    0.10246E-01   -0.57706E-02 48328   0.391E-01    0.143E+00
DAV:  14    -0.386847270636E+03   -0.10098E-02   -0.26299E-02 49648   0.331E-01    0.672E-01
DAV:  15    -0.386849006147E+03   -0.17355E-02   -0.28536E-03 41256   0.149E-01    0.666E-01
DAV:  16    -0.386848762219E+03    0.24393E-03   -0.52564E-04 46880   0.673E-02    0.554E-01
DAV:  17    -0.386848534992E+03    0.22723E-03   -0.42998E-04 48144   0.525E-02    0.496E-01
DAV:  18    -0.386848575558E+03   -0.40566E-04   -0.25824E-03 48104   0.874E-02    0.203E-01
DAV:  19    -0.386848786211E+03   -0.21065E-03   -0.55553E-04 41872   0.646E-02    0.138E-01
DAV:  20    -0.386848815076E+03   -0.28865E-04   -0.87833E-05 37960   0.274E-02    0.932E-02
DAV:  21    -0.386848816169E+03   -0.10926E-05   -0.73571E-05 35776   0.262E-02
  17 F= -.38684882E+03 E0= -.38683517E+03  d E =-.103743E+00  mag=    33.9960
       N       E                     dE             d eps       ncg     rms          rms(c)
DAV:   1    -0.386839944710E+03    0.88704E-02   -0.21553E+00 37104   0.503E+00    0.766E-01
DAV:   2    -0.386883376647E+03   -0.43432E-01   -0.36565E-01 39384   0.106E+00    0.467E+00
DAV:   3    -0.386853724421E+03    0.29652E-01   -0.21450E-01 45776   0.556E-01    0.902E-01
DAV:   4    -0.386866668392E+03   -0.12944E-01   -0.57968E-02 44824   0.358E-01    0.167E+00
DAV:   5    -0.386861581282E+03    0.50871E-02   -0.29607E-02 46584   0.270E-01    0.384E-01
DAV:   6    -0.386863184628E+03   -0.16033E-02   -0.28047E-03 47360   0.109E-01    0.379E-01
DAV:   7    -0.386863559094E+03   -0.37447E-03   -0.21798E-03 47432   0.950E-02    0.587E-01
DAV:   8    -0.386863389096E+03    0.17000E-03   -0.41591E-04 44032   0.583E-02    0.573E-01
DAV:   9    -0.386863117965E+03    0.27113E-03   -0.74458E-04 44168   0.480E-02    0.277E-01
DAV:  10    -0.386863277741E+03   -0.15978E-03   -0.10475E-03 43080   0.526E-02    0.173E-01
DAV:  11    -0.386863355702E+03   -0.77961E-04   -0.33390E-04 37016   0.451E-02    0.132E-01
DAV:  12    -0.386863374139E+03   -0.18437E-04   -0.99923E-05 31176   0.187E-02    0.199E-01
DAV:  13    -0.386863347709E+03    0.26430E-04   -0.14288E-05 24704   0.112E-02    0.196E-01
DAV:  14    -0.386863343992E+03    0.37165E-05   -0.21801E-06 18824   0.429E-03
  18 F= -.38686334E+03 E0= -.38684986E+03  d E =-.145278E-01  mag=    33.9986
       N       E                     dE             d eps       ncg     rms          rms(c)
DAV:   1    -0.386795406749E+03    0.67941E-01   -0.12053E+01 36280   0.107E+01    0.121E+00
DAV:   2    -0.386885722374E+03   -0.90316E-01   -0.88260E-01 35608   0.201E+00    0.368E+00
DAV:   3    -0.386878366547E+03    0.73558E-02   -0.33133E-01 51152   0.677E-01    0.285E+00
DAV:   4    -0.386878974801E+03   -0.60825E-03   -0.83186E-02 47320   0.478E-01    0.175E+00
DAV:   5    -0.386875903519E+03    0.30713E-02   -0.36552E-02 51552   0.312E-01    0.809E-01
DAV:   6    -0.386876840871E+03   -0.93735E-03   -0.73078E-03 48040   0.210E-01    0.431E-01
DAV:   7    -0.386878105403E+03   -0.12645E-02   -0.57553E-03 49496   0.163E-01    0.951E-01
DAV:   8    -0.386877660369E+03    0.44503E-03   -0.23160E-03 48320   0.129E-01    0.967E-01
DAV:   9    -0.386876857642E+03    0.80273E-03   -0.20936E-03 49192   0.984E-02    0.506E-01
DAV:  10    -0.386876991902E+03   -0.13426E-03   -0.22907E-03 46464   0.812E-02    0.244E-01
DAV:  11    -0.386877215821E+03   -0.22392E-03   -0.45240E-04 41712   0.612E-02    0.239E-01
DAV:  12    -0.386877227705E+03   -0.11884E-04   -0.13168E-03 47536   0.624E-02    0.236E-01
DAV:  13    -0.386877299188E+03   -0.71483E-04   -0.67393E-04 42184   0.471E-02    0.274E-01
DAV:  14    -0.386877255292E+03    0.43896E-04   -0.29791E-04 32064   0.284E-02    0.140E-01
DAV:  15    -0.386877273614E+03   -0.18322E-04   -0.30782E-05 27608   0.130E-02    0.130E-01
DAV:  16    -0.386877269348E+03    0.42662E-05   -0.15078E-05 24832   0.117E-02
  19 F= -.38687727E+03 E0= -.38686384E+03  d E =-.139254E-01  mag=    33.9997
       N       E                     dE             d eps       ncg     rms          rms(c)
DAV:   1    -0.386861227210E+03    0.16046E-01   -0.53703E+00 36304   0.609E+00    0.621E-01
DAV:   2    -0.386889486707E+03   -0.28259E-01   -0.27013E-01 35736   0.113E+00    0.238E+00
DAV:   3    -0.386883157869E+03    0.63288E-02   -0.61568E-02 50112   0.364E-01    0.999E-01
DAV:   4    -0.386885498524E+03   -0.23407E-02   -0.10882E-02 46232   0.210E-01    0.716E-01
DAV:   5    -0.386884806620E+03    0.69190E-03   -0.46582E-03 51328   0.140E-01    0.390E-01
DAV:   6    -0.386884956517E+03   -0.14990E-03   -0.19115E-03 47624   0.103E-01    0.292E-01
DAV:   7    -0.386885054961E+03   -0.98444E-04   -0.16325E-03 50248   0.984E-02    0.451E-01
DAV:   8    -0.386884902478E+03    0.15248E-03   -0.78561E-04 48728   0.807E-02    0.424E-01
DAV:   9    -0.386884717181E+03    0.18530E-03   -0.63007E-04 48480   0.605E-02    0.165E-01
DAV:  10    -0.386884862432E+03   -0.14525E-03   -0.69477E-04 38456   0.437E-02    0.171E-01
DAV:  11    -0.386884908225E+03   -0.45794E-04   -0.24282E-04 34832   0.283E-02    0.130E-01
DAV:  12    -0.386884897907E+03    0.10318E-04   -0.22237E-05 25392   0.992E-03    0.136E-01
DAV:  13    -0.386884883990E+03    0.13917E-04   -0.54795E-06 21560   0.697E-03    0.149E-01
DAV:  14    -0.386884891433E+03   -0.74437E-05   -0.23693E-05 26376   0.122E-02
  20 F= -.38688489E+03 E0= -.38687141E+03  d E =-.762209E-02  mag=    33.9999
       N       E                     dE             d eps       ncg     rms          rms(c)
DAV:   1    -0.385715511109E+03    0.11694E+01   -0.25154E+02 36608   0.405E+01    0.399E+00
DAV:   2    -0.386924051826E+03   -0.12085E+01   -0.12810E+01 35192   0.754E+00    0.404E+00
DAV:   3    -0.387066929218E+03   -0.14288E+00   -0.20497E+00 50912   0.231E+00    0.936E+00
DAV:   4    -0.386962138592E+03    0.10479E+00   -0.20718E+00 51272   0.137E+00    0.670E+00
DAV:   5    -0.386922164802E+03    0.39974E-01   -0.60926E-01 50640   0.105E+00    0.297E+00
DAV:   6    -0.386916826821E+03    0.53380E-02   -0.13426E-01 50288   0.717E-01    0.193E+00
DAV:   7    -0.386918451399E+03   -0.16246E-02   -0.65129E-02 50472   0.607E-01    0.177E+00
DAV:   8    -0.386917880442E+03    0.57096E-03   -0.28036E-02 50128   0.387E-01    0.224E+00
DAV:   9    -0.386912900440E+03    0.49800E-02   -0.18049E-02 50744   0.336E-01    0.199E+00
DAV:  10    -0.386909810561E+03    0.30899E-02   -0.27833E-02 50536   0.353E-01    0.160E+00
DAV:  11    -0.386916778880E+03   -0.69683E-02   -0.65784E-02 49736   0.463E-01    0.221E+00
DAV:  12    -0.386915959378E+03    0.81950E-03   -0.33133E-02 47424   0.328E-01    0.148E+00
DAV:  13    -0.386916417574E+03   -0.45820E-03   -0.29621E-03 47264   0.128E-01    0.129E+00
DAV:  14    -0.386916363746E+03    0.53828E-04   -0.37292E-04 41488   0.446E-02    0.127E+00
DAV:  15    -0.386915775518E+03    0.58823E-03   -0.23081E-04 39976   0.390E-02    0.133E+00
DAV:  16    -0.386918101254E+03   -0.23257E-02   -0.72568E-03 46408   0.266E-01    0.882E-01
DAV:  17    -0.386917397610E+03    0.70364E-03   -0.53111E-03 48496   0.218E-01    0.552E-01
DAV:  18    -0.386917224968E+03    0.17264E-03   -0.11425E-03 47624   0.109E-01    0.453E-01
DAV:  19    -0.386917274161E+03   -0.49193E-04   -0.16797E-03 47328   0.806E-02    0.171E-01
DAV:  20    -0.386917547141E+03   -0.27298E-03   -0.25721E-04 38032   0.439E-02    0.156E-01
DAV:  21    -0.386917539584E+03    0.75564E-05   -0.11524E-04 34496   0.293E-02    0.110E-01
DAV:  22    -0.386917543537E+03   -0.39524E-05   -0.11577E-04 32200   0.269E-02    0.670E-02
DAV:  23    -0.386917561006E+03   -0.17469E-04   -0.45298E-05 27696   0.170E-02    0.407E-02
DAV:  24    -0.386917567285E+03   -0.62794E-05   -0.13955E-05 23528   0.111E-02
  21 F= -.38691757E+03 E0= -.38690419E+03  d E =-.326759E-01  mag=    34.0000
       N       E                     dE             d eps       ncg     rms          rms(c)
DAV:   1    -0.381839984100E+03    0.50776E+01   -0.44018E+02 37056   0.727E+01    0.136E+01
DAV:   2    -0.396785487974E+03   -0.14946E+02   -0.89079E+01 44200   0.186E+01    0.643E+01
DAV:   3    -0.385692865020E+03    0.11093E+02   -0.28585E+01 46616   0.108E+01    0.990E+00
DAV:   4    -0.386487758062E+03   -0.79489E+00   -0.48508E+00 48112   0.347E+00    0.125E+01
DAV:   5    -0.386374120276E+03    0.11364E+00   -0.51416E-01 49224   0.235E+00    0.775E+00
DAV:   6    -0.386454284103E+03   -0.80164E-01   -0.61167E-01 52880   0.112E+00    0.746E+00
DAV:   7    -0.386531633420E+03   -0.77349E-01   -0.12880E+00 49752   0.136E+00    0.999E+00
DAV:   8    -0.386534313001E+03   -0.26796E-02   -0.12529E+00 49576   0.148E+00    0.586E+00
DAV:   9    -0.386522933103E+03    0.11380E-01   -0.32288E-01 50576   0.145E+00    0.318E+00
DAV:  10    -0.386528238261E+03   -0.53052E-02   -0.19412E-01 49720   0.935E-01    0.298E+00
DAV:  11    -0.386522377476E+03    0.58608E-02   -0.14565E-01 50320   0.676E-01    0.215E+00
DAV:  12    -0.386528030081E+03   -0.56526E-02   -0.12751E-01 50128   0.697E-01    0.252E+00
DAV:  13    -0.386527899515E+03    0.13057E-03   -0.69893E-02 50560   0.596E-01    0.283E+00
DAV:  14    -0.386523736380E+03    0.41631E-02   -0.16700E-02 48712   0.336E-01    0.211E+00
DAV:  15    -0.386526140070E+03   -0.24037E-02   -0.36346E-02 50976   0.357E-01    0.205E+00
DAV:  16    -0.386526191121E+03   -0.51052E-04   -0.12670E-01 50064   0.439E-01    0.236E+00
DAV:  17    -0.386528170310E+03   -0.19792E-02   -0.47701E-03 36808   0.180E-01    0.256E+00
DAV:  18    -0.386530358450E+03   -0.21881E-02   -0.13970E-02 47616   0.177E-01    0.352E+00
DAV:  19    -0.386522149816E+03    0.82086E-02   -0.75187E-03 44320   0.154E-01    0.270E+00
DAV:  20    -0.386522432288E+03   -0.28247E-03   -0.18105E-03 48408   0.116E-01    0.233E+00
DAV:  21    -0.386523027252E+03   -0.59496E-03   -0.16003E-03 48280   0.131E-01    0.215E+00
DAV:  22    -0.386523545052E+03   -0.51780E-03   -0.10206E-03 47056   0.894E-02    0.233E+00
DAV:  23    -0.386522703583E+03    0.84147E-03   -0.23666E-03 45784   0.874E-02    0.173E+00
DAV:  24    -0.386524040934E+03   -0.13374E-02   -0.56516E-03 47368   0.194E-01    0.880E-01
DAV:  25    -0.386525290407E+03   -0.12495E-02   -0.30802E-03 45856   0.126E-01    0.384E-01
DAV:  26    -0.386525610886E+03   -0.32048E-03   -0.88357E-04 42064   0.725E-02    0.139E-01
DAV:  27    -0.386525754303E+03   -0.14342E-03   -0.41226E-04 42272   0.514E-02    0.144E-01
DAV:  28    -0.386525772674E+03   -0.18371E-04   -0.10572E-04 38408   0.276E-02    0.556E-02
DAV:  29    -0.386525771030E+03    0.16444E-05   -0.41819E-05 30896   0.202E-02
  22 F= -.38652577E+03 E0= -.38651047E+03  d E =0.391796E+00  mag=    33.9919
       N       E                     dE             d eps       ncg     rms          rms(c)
DAV:   1    -0.386040304031E+03    0.48547E+00   -0.58588E+01 37600   0.280E+01    0.398E+00
DAV:   2    -0.386821216583E+03   -0.78091E+00   -0.76161E+00 35648   0.545E+00    0.436E+00
DAV:   3    -0.387007061585E+03   -0.18585E+00   -0.28200E+00 50280   0.210E+00    0.681E+00
DAV:   4    -0.386886384384E+03    0.12068E+00   -0.29817E-01 50368   0.145E+00    0.415E+00
DAV:   5    -0.386868271850E+03    0.18113E-01   -0.10227E-01 49928   0.677E-01    0.248E+00
DAV:   6    -0.386883555825E+03   -0.15284E-01   -0.20904E-01 51400   0.612E-01    0.407E+00
DAV:   7    -0.386873343920E+03    0.10212E-01   -0.12834E-01 48192   0.605E-01    0.196E+00
DAV:   8    -0.386876919027E+03   -0.35751E-02   -0.93894E-02 49384   0.563E-01    0.206E+00
DAV:   9    -0.386874237556E+03    0.26815E-02   -0.15537E-02 49024   0.346E-01    0.140E+00
DAV:  10    -0.386873218792E+03    0.10188E-02   -0.10766E-02 50520   0.217E-01    0.422E-01
DAV:  11    -0.386875875117E+03   -0.26563E-02   -0.10573E-02 46600   0.158E-01    0.104E+00
DAV:  12    -0.386874491843E+03    0.13833E-02   -0.65062E-03 44512   0.147E-01    0.219E-01
DAV:  13    -0.386875042757E+03   -0.55091E-03   -0.10934E-03 43608   0.587E-02    0.354E-01
DAV:  14    -0.386875031844E+03    0.10913E-04   -0.10563E-04 34648   0.283E-02    0.392E-01
DAV:  15    -0.386875042488E+03   -0.10644E-04   -0.23122E-04 41072   0.387E-02    0.497E-01
DAV:  16    -0.386874966769E+03    0.75719E-04   -0.39948E-04 42064   0.376E-02    0.578E-01
DAV:  17    -0.386875010264E+03   -0.43495E-04   -0.89473E-05 34864   0.289E-02    0.632E-01
DAV:  18    -0.386875159776E+03   -0.14951E-03   -0.13236E-04 32176   0.188E-02    0.782E-01
DAV:  19    -0.386874936494E+03    0.22328E-03   -0.30642E-05 29064   0.164E-02    0.744E-01
DAV:  20    -0.386875002328E+03   -0.65835E-04   -0.25854E-05 28832   0.139E-02    0.801E-01
DAV:  21    -0.386874920889E+03    0.81439E-04   -0.62297E-06 21072   0.738E-03    0.784E-01
DAV:  22    -0.386874947825E+03   -0.26936E-04   -0.25817E-06 18768   0.396E-03    0.798E-01
DAV:  23    -0.386874761395E+03    0.18643E-03   -0.72342E-05 22024   0.176E-02    0.671E-01
DAV:  24    -0.386874593856E+03    0.16754E-03   -0.93369E-04 46216   0.549E-02    0.258E-01
DAV:  25    -0.386874855204E+03   -0.26135E-03   -0.27179E-04 38888   0.318E-02    0.787E-02
DAV:  26    -0.386874929478E+03   -0.74274E-04   -0.41277E-05 31328   0.162E-02    0.544E-02
DAV:  27    -0.386874939218E+03   -0.97406E-05   -0.26014E-05 26984   0.114E-02
  23 F= -.38687494E+03 E0= -.38686079E+03  d E =-.349168E+00  mag=    33.9993
       N       E                     dE             d eps       ncg     rms          rms(c)
DAV:   1    -0.386769086694E+03    0.10584E+00   -0.13144E+01 37784   0.136E+01    0.188E+00
DAV:   2    -0.386936123589E+03   -0.16704E+00   -0.16489E+00 35736   0.258E+00    0.188E+00
DAV:   3    -0.387000411461E+03   -0.64288E-01   -0.74758E-01 51088   0.107E+00    0.677E+00
DAV:   4    -0.386944497594E+03    0.55914E-01   -0.63208E-01 48184   0.733E-01    0.314E+00
DAV:   5    -0.386945574225E+03   -0.10766E-02   -0.11883E-01 46872   0.513E-01    0.106E+00
DAV:   6    -0.386949428813E+03   -0.38546E-02   -0.12740E-02 47440   0.307E-01    0.757E-01
DAV:   7    -0.386950733357E+03   -0.13045E-02   -0.86656E-03 50848   0.199E-01    0.799E-01
DAV:   8    -0.386951694782E+03   -0.96142E-03   -0.52823E-03 48256   0.159E-01    0.105E+00
DAV:   9    -0.386951145681E+03    0.54910E-03   -0.17090E-03 46352   0.106E-01    0.101E+00
DAV:  10    -0.386950258611E+03    0.88707E-03   -0.21615E-03 48408   0.893E-02    0.572E-01
DAV:  11    -0.386950956261E+03   -0.69765E-03   -0.65350E-03 49496   0.128E-01    0.663E-01
DAV:  12    -0.386951144113E+03   -0.18785E-03   -0.27276E-03 44856   0.118E-01    0.578E-01
DAV:  13    -0.386950829413E+03    0.31470E-03   -0.11640E-03 48872   0.715E-02    0.102E-01
DAV:  14    -0.386951031401E+03   -0.20199E-03   -0.20144E-04 40808   0.362E-02    0.654E-02
DAV:  15    -0.386951052842E+03   -0.21441E-04   -0.36999E-05 31992   0.216E-02    0.373E-02
DAV:  16    -0.386951052078E+03    0.76403E-06   -0.21554E-05 26280   0.113E-02
  24 F= -.38695105E+03 E0= -.38693729E+03  d E =-.761129E-01  mag=    33.9999
       N       E                     dE             d eps       ncg     rms          rms(c)
DAV:   1    -0.386861337443E+03    0.89715E-01   -0.95176E+00 36416   0.114E+01    0.148E+00
DAV:   2    -0.386973911958E+03   -0.11257E+00   -0.11183E+00 35680   0.218E+00    0.314E+00
DAV:   3    -0.386996904624E+03   -0.22993E-01   -0.52340E-01 51144   0.892E-01    0.517E+00
DAV:   4    -0.386969007728E+03    0.27897E-01   -0.29748E-01 48712   0.640E-01    0.185E+00
DAV:   5    -0.386974081569E+03   -0.50738E-02   -0.42981E-02 46672   0.376E-01    0.128E+00
DAV:   6    -0.386973864997E+03    0.21657E-03   -0.14096E-02 47496   0.275E-01    0.750E-01
DAV:   7    -0.386975109466E+03   -0.12445E-02   -0.95031E-03 49904   0.183E-01    0.903E-01
DAV:   8    -0.386975565780E+03   -0.45631E-03   -0.23347E-03 44448   0.128E-01    0.981E-01
DAV:   9    -0.386974829877E+03    0.73590E-03   -0.17135E-03 47672   0.881E-02    0.706E-01
DAV:  10    -0.386974576987E+03    0.25289E-03   -0.26052E-03 48104   0.103E-01    0.224E-01
DAV:  11    -0.386975266399E+03   -0.68941E-03   -0.19233E-03 44920   0.915E-02    0.440E-01
DAV:  12    -0.386975131953E+03    0.13445E-03   -0.12442E-03 46944   0.810E-02    0.294E-01
DAV:  13    -0.386975073668E+03    0.58285E-04   -0.76333E-04 47184   0.545E-02    0.115E-01
DAV:  14    -0.386975085142E+03   -0.11474E-04   -0.83467E-05 37072   0.299E-02    0.634E-02
DAV:  15    -0.386975127227E+03   -0.42085E-04   -0.41321E-04 33376   0.253E-02    0.107E-01
DAV:  16    -0.386975153526E+03   -0.26299E-04   -0.12386E-04 31320   0.251E-02    0.947E-02
DAV:  17    -0.386975149157E+03    0.43692E-05   -0.25263E-05 27944   0.163E-02
  25 F= -.38697515E+03 E0= -.38696157E+03  d E =-.240971E-01  mag=    34.0000
       N       E                     dE             d eps       ncg     rms          rms(c)
DAV:   1    -0.386962058584E+03    0.13095E-01   -0.26782E+00 36000   0.501E+00    0.551E-01
DAV:   2    -0.386982146804E+03   -0.20088E-01   -0.19432E-01 36912   0.952E-01    0.237E+00
DAV:   3    -0.386975656516E+03    0.64903E-02   -0.63139E-02 47920   0.381E-01    0.956E-01
DAV:   4    -0.386977908286E+03   -0.22518E-02   -0.98941E-03 46320   0.220E-01    0.540E-01
DAV:   5    -0.386977696216E+03    0.21207E-03   -0.36298E-03 49784   0.129E-01    0.312E-01
DAV:   6    -0.386977796701E+03   -0.10048E-03   -0.13506E-03 48384   0.899E-02    0.307E-01
DAV:   7    -0.386977713004E+03    0.83697E-04   -0.83094E-04 49464   0.788E-02    0.265E-01
DAV:   8    -0.386977719301E+03   -0.62966E-05   -0.10264E-03 50080   0.723E-02    0.215E-01
DAV:   9    -0.386977691677E+03    0.27623E-04   -0.68485E-04 46192   0.549E-02    0.127E-01
DAV:  10    -0.386977733465E+03   -0.41787E-04   -0.12485E-04 33280   0.313E-02    0.137E-01
DAV:  11    -0.386977722756E+03    0.10709E-04   -0.13818E-05 25480   0.113E-02    0.137E-01
DAV:  12    -0.386977719762E+03    0.29946E-05   -0.59171E-06 20424   0.654E-03
  26 F= -.38697772E+03 E0= -.38696416E+03  d E =-.257060E-02  mag=    34.0000
       N       E                     dE             d eps       ncg     rms          rms(c)
DAV:   1    -0.386964560304E+03    0.13162E-01   -0.43414E+00 36424   0.518E+00    0.458E-01
DAV:   2    -0.386980860989E+03   -0.16301E-01   -0.16385E-01 36848   0.934E-01    0.140E+00
DAV:   3    -0.386979171825E+03    0.16892E-02   -0.25967E-02 52312   0.244E-01    0.890E-01
DAV:   4    -0.386979211009E+03   -0.39184E-04   -0.54673E-03 48512   0.167E-01    0.409E-01
DAV:   5    -0.386979166769E+03    0.44240E-04   -0.19523E-03 50288   0.997E-02    0.293E-01
DAV:   6    -0.386979253339E+03   -0.86570E-04   -0.12311E-03 50968   0.985E-02    0.425E-01
DAV:   7    -0.386978987281E+03    0.26606E-03   -0.23088E-03 48768   0.107E-01    0.419E-01
DAV:   8    -0.386978994679E+03   -0.73982E-05   -0.22569E-03 50936   0.107E-01    0.405E-01
DAV:   9    -0.386979053182E+03   -0.58503E-04   -0.10925E-03 46576   0.659E-02    0.319E-01
DAV:  10    -0.386979106501E+03   -0.53319E-04   -0.17847E-04 32496   0.261E-02    0.320E-01
DAV:  11    -0.386979025817E+03    0.80684E-04   -0.31886E-05 30072   0.162E-02    0.317E-01
DAV:  12    -0.386979029386E+03   -0.35686E-05   -0.89891E-06 22096   0.849E-03
  27 F= -.38697903E+03 E0= -.38696555E+03  d E =-.130962E-02  mag=    34.0000
       N       E                     dE             d eps       ncg     rms          rms(c)
DAV:   1    -0.386968501645E+03    0.10524E-01   -0.31263E+00 36064   0.449E+00    0.499E-01
DAV:   2    -0.386990162622E+03   -0.21661E-01   -0.20155E-01 39552   0.875E-01    0.330E+00
DAV:   3    -0.386974556349E+03    0.15606E-01   -0.76583E-02 45512   0.417E-01    0.448E-01
DAV:   4    -0.386979990503E+03   -0.54342E-02   -0.54170E-03 44272   0.172E-01    0.636E-01
DAV:   5    -0.386979638508E+03    0.35199E-03   -0.15601E-03 45592   0.966E-02    0.449E-01
DAV:   6    -0.386979688557E+03   -0.50049E-04   -0.83424E-05 40064   0.239E-02    0.453E-01
DAV:   7    -0.386979863514E+03   -0.17496E-03   -0.25756E-03 48096   0.991E-02    0.586E-01
DAV:   8    -0.386979901117E+03   -0.37602E-04   -0.20425E-03 47352   0.950E-02    0.569E-01
DAV:   9    -0.386979585346E+03    0.31577E-03   -0.12141E-03 47008   0.732E-02    0.414E-01
DAV:  10    -0.386979546191E+03    0.39156E-04   -0.10378E-03 47872   0.743E-02    0.370E-01
DAV:  11    -0.386979627226E+03   -0.81035E-04   -0.62743E-04 49304   0.692E-02    0.378E-01
DAV:  12    -0.386979533027E+03    0.94199E-04   -0.18991E-04 45912   0.440E-02    0.228E-01
DAV:  13    -0.386979584733E+03   -0.51706E-04   -0.14507E-04 33464   0.273E-02    0.117E-01
DAV:  14    -0.386979646440E+03   -0.61707E-04   -0.65837E-05 32816   0.247E-02    0.116E-01
DAV:  15    -0.386979639063E+03    0.73769E-05   -0.37082E-05 28000   0.173E-02
  28 F= -.38697964E+03 E0= -.38696617E+03  d E =-.609678E-03  mag=    34.0000
       N       E                     dE             d eps       ncg     rms          rms(c)
DAV:   1    -0.386860562410E+03    0.11908E+00   -0.24098E+01 36648   0.133E+01    0.169E+00
DAV:   2    -0.387157629437E+03   -0.29707E+00   -0.26793E+00 40280   0.271E+00    0.139E+01
DAV:   3    -0.386887780282E+03    0.26985E+00   -0.17038E+00 45992   0.125E+00    0.189E+00
DAV:   4    -0.386982180918E+03   -0.94401E-01   -0.14381E-01 47464   0.755E-01    0.289E+00
DAV:   5    -0.386974006668E+03    0.81743E-02   -0.58954E-02 47536   0.464E-01    0.113E+00
DAV:   6    -0.386976473171E+03   -0.24665E-02   -0.50472E-03 43776   0.137E-01    0.123E+00
DAV:   7    -0.386975633768E+03    0.83940E-03   -0.67042E-04 41640   0.734E-02    0.129E+00
DAV:   8    -0.386975235811E+03    0.39796E-03   -0.73699E-03 49688   0.182E-01    0.181E+00
DAV:   9    -0.386975326394E+03   -0.90584E-04   -0.20296E-02 49320   0.270E-01    0.273E+00
DAV:  10    -0.386973911728E+03    0.14147E-02   -0.28569E-02 46088   0.251E-01    0.327E+00
DAV:  11    -0.386976239832E+03   -0.23281E-02   -0.11744E-02 46624   0.175E-01    0.329E+00
DAV:  12    -0.386975917647E+03    0.32219E-03   -0.28876E-03 45808   0.111E-01    0.299E+00
DAV:  13    -0.386973692326E+03    0.22253E-02   -0.45086E-03 48576   0.148E-01    0.201E+00
DAV:  14    -0.386975158144E+03   -0.14658E-02   -0.22460E-02 49128   0.296E-01    0.561E-01
DAV:  15    -0.386978605716E+03   -0.34476E-02   -0.77293E-03 44152   0.215E-01    0.937E-01
DAV:  16    -0.386977117891E+03    0.14878E-02   -0.28415E-03 45624   0.126E-01    0.723E-01
DAV:  17    -0.386977051052E+03    0.66838E-04   -0.38430E-04 43784   0.485E-02    0.748E-01
DAV:  18    -0.386977616402E+03   -0.56535E-03   -0.13574E-04 38120   0.343E-02    0.650E-01
DAV:  19    -0.386978276822E+03   -0.66042E-03   -0.36589E-03 42840   0.144E-01    0.209E-01
DAV:  20    -0.386978359521E+03   -0.82699E-04   -0.10901E-03 42920   0.713E-02    0.142E-01
DAV:  21    -0.386978420555E+03   -0.61034E-04   -0.17077E-04 36936   0.306E-02    0.109E-01
DAV:  22    -0.386978454290E+03   -0.33735E-04   -0.47424E-05 32784   0.172E-02    0.705E-02
DAV:  23    -0.386978472000E+03   -0.17710E-04   -0.35191E-05 28072   0.142E-02    0.407E-02
DAV:  24    -0.386978475990E+03   -0.39894E-05   -0.13111E-05 23592   0.962E-03
  29 F= -.38697848E+03 E0= -.38696500E+03  d E =0.116307E-02  mag=    34.0000
       N       E                     dE             d eps       ncg     rms          rms(c)
DAV:   1    -0.385749477258E+03    0.12290E+01   -0.22723E+02 35752   0.401E+01    0.792E+00
DAV:   2    -0.390812805170E+03   -0.50633E+01   -0.38382E+01 45064   0.108E+01    0.448E+01
DAV:   3    -0.386413668280E+03    0.43991E+01   -0.20793E+01 47512   0.760E+00    0.925E+00
DAV:   4    -0.386847495233E+03   -0.43383E+00   -0.49984E+00 47744   0.237E+00    0.157E+01
DAV:   5    -0.386851766770E+03   -0.42715E-02   -0.31509E+00 48616   0.220E+00    0.118E+01
DAV:   6    -0.386799506603E+03    0.52260E-01   -0.70806E-01 49432   0.147E+00    0.759E+00
DAV:   7    -0.386965854602E+03   -0.16635E+00   -0.17854E-01 48704   0.913E-01    0.783E+00
DAV:   8    -0.386969417269E+03   -0.35627E-02   -0.91144E-02 48904   0.593E-01    0.710E+00
DAV:   9    -0.386997785015E+03   -0.28368E-01   -0.12542E-01 49424   0.669E-01    0.674E+00
DAV:  10    -0.386958218872E+03    0.39566E-01   -0.13608E-01 50000   0.801E-01    0.454E+00
DAV:  11    -0.386934260241E+03    0.23959E-01   -0.82551E-02 49600   0.739E-01    0.337E+00
DAV:  12    -0.386906157955E+03    0.28102E-01   -0.14242E-01 51328   0.787E-01    0.245E+00
DAV:  13    -0.386917519728E+03   -0.11362E-01   -0.33922E-02 48712   0.509E-01    0.281E+00
DAV:  14    -0.386920617018E+03   -0.30973E-02   -0.43600E-03 44352   0.198E-01    0.248E+00
DAV:  15    -0.386924832043E+03   -0.42150E-02   -0.10737E-02 52424   0.290E-01    0.119E+00
DAV:  16    -0.386932204856E+03   -0.73728E-02   -0.14753E-02 47624   0.319E-01    0.103E+00
DAV:  17    -0.386933250638E+03   -0.10458E-02   -0.12145E-02 46608   0.208E-01    0.939E-01
DAV:  18    -0.386933119291E+03    0.13135E-03   -0.13782E-03 39888   0.710E-02    0.990E-01
DAV:  19    -0.386930847528E+03    0.22718E-02   -0.10308E-02 49008   0.172E-01    0.186E+00
DAV:  20    -0.386932101675E+03   -0.12541E-02   -0.25536E-03 42608   0.115E-01    0.226E+00
DAV:  21    -0.386930970734E+03    0.11309E-02   -0.41811E-04 44080   0.582E-02    0.220E+00
DAV:  22    -0.386932335659E+03   -0.13649E-02   -0.23407E-03 45672   0.127E-01    0.174E+00
DAV:  23    -0.386933307837E+03   -0.97218E-03   -0.42160E-03 48008   0.183E-01    0.117E+00
DAV:  24    -0.386934050697E+03   -0.74286E-03   -0.18506E-03 45712   0.106E-01    0.827E-01
DAV:  25    -0.386934465793E+03   -0.41510E-03   -0.46728E-04 43992   0.590E-02    0.593E-01
DAV:  26    -0.386934735439E+03   -0.26965E-03   -0.46252E-04 42512   0.509E-02    0.364E-01
DAV:  27    -0.386934901513E+03   -0.16607E-03   -0.28235E-04 41312   0.384E-02    0.143E-01
DAV:  28    -0.386935001214E+03   -0.99701E-04   -0.98862E-05 35256   0.253E-02    0.462E-02
DAV:  29    -0.386935028580E+03   -0.27366E-04   -0.30295E-05 30720   0.154E-02    0.270E-02
DAV:  30    -0.386935031265E+03   -0.26845E-05   -0.61240E-06 24296   0.809E-03
  30 F= -.38693503E+03 E0= -.38692113E+03  d E =0.434447E-01  mag=    34.0036
       N       E                     dE             d eps       ncg     rms          rms(c)
DAV:   1    -0.386539246966E+03    0.39578E+00   -0.77713E+01 36896   0.249E+01    0.374E+00
DAV:   2    -0.387641208403E+03   -0.11020E+01   -0.96966E+00 41400   0.536E+00    0.173E+01
DAV:   3    -0.386929246597E+03    0.71196E+00   -0.38178E+00 46032   0.249E+00    0.534E+00
DAV:   4    -0.387016783439E+03   -0.87537E-01   -0.58318E-01 49360   0.132E+00    0.439E+00
DAV:   5    -0.387005568432E+03    0.11215E-01   -0.41758E-01 49032   0.847E-01    0.331E+00
DAV:   6    -0.387001870444E+03    0.36980E-02   -0.34760E-02 47080   0.409E-01    0.310E+00
DAV:   7    -0.386996691265E+03    0.51792E-02   -0.24442E-03 41416   0.130E-01    0.334E+00
DAV:   8    -0.387004023664E+03   -0.73324E-02   -0.12674E-01 50280   0.701E-01    0.225E+00
DAV:   9    -0.387010155290E+03   -0.61316E-02   -0.70939E-02 47944   0.534E-01    0.191E+00
DAV:  10    -0.387007144179E+03    0.30111E-02   -0.14268E-02 49680   0.344E-01    0.137E+00
DAV:  11    -0.387008679167E+03   -0.15350E-02   -0.11726E-02 48832   0.321E-01    0.150E+00
DAV:  12    -0.387013147589E+03   -0.44684E-02   -0.38186E-02 49240   0.382E-01    0.209E+00
DAV:  13    -0.387007025351E+03    0.61222E-02   -0.47348E-02 49336   0.472E-01    0.176E+00
DAV:  14    -0.387006560042E+03    0.46531E-03   -0.14043E-02 48720   0.309E-01    0.176E+00
DAV:  15    -0.387003544730E+03    0.30153E-02   -0.11238E-02 47208   0.216E-01    0.993E-01
DAV:  16    -0.387005340426E+03   -0.17957E-02   -0.96806E-04 38280   0.888E-02    0.986E-01
DAV:  17    -0.387005997136E+03   -0.65671E-03   -0.13710E-03 47880   0.765E-02    0.109E+00
DAV:  18    -0.387005357944E+03    0.63919E-03   -0.63331E-03 46920   0.109E-01    0.647E-01
DAV:  19    -0.387006160580E+03   -0.80264E-03   -0.85747E-04 41112   0.707E-02    0.589E-01
DAV:  20    -0.387006219173E+03   -0.58593E-04   -0.20690E-04 38880   0.372E-02    0.500E-01
DAV:  21    -0.387006454093E+03   -0.23492E-03   -0.24336E-04 44728   0.375E-02    0.416E-01
DAV:  22    -0.387006616420E+03   -0.16233E-03   -0.16149E-04 36992   0.284E-02    0.348E-01
DAV:  23    -0.387006876793E+03   -0.26037E-03   -0.46245E-04 39840   0.411E-02    0.241E-01
DAV:  24    -0.387006996505E+03   -0.11971E-03   -0.56262E-04 43016   0.460E-02    0.178E-01
DAV:  25    -0.387006980464E+03    0.16040E-04   -0.27420E-04 39312   0.356E-02    0.928E-02
DAV:  26    -0.387007033853E+03   -0.53388E-04   -0.69458E-05 30456   0.185E-02    0.558E-02
DAV:  27    -0.387007043238E+03   -0.93850E-05   -0.91255E-06 23592   0.924E-03
  31 F= -.38700704E+03 E0= -.38699378E+03  d E =-.720120E-01  mag=    34.0000
       N       E                     dE             d eps       ncg     rms          rms(c)
DAV:   1    -0.386888700405E+03    0.11833E+00   -0.18358E+01 36224   0.144E+01    0.166E+00
DAV:   2    -0.387067980950E+03   -0.17928E+00   -0.17947E+00 36224   0.276E+00    0.625E+00
DAV:   3    -0.387031364495E+03    0.36616E-01   -0.99805E-01 48664   0.105E+00    0.373E+00
DAV:   4    -0.387042337737E+03   -0.10973E-01   -0.63427E-02 48032   0.599E-01    0.276E+00
DAV:   5    -0.387034935191E+03    0.74025E-02   -0.45027E-02 49568   0.451E-01    0.186E+00
DAV:   6    -0.387033798929E+03    0.11363E-02   -0.16116E-02 48392   0.278E-01    0.954E-01
DAV:   7    -0.387036503803E+03   -0.27049E-02   -0.14240E-02 48432   0.195E-01    0.114E+00
DAV:   8    -0.387036377044E+03    0.12676E-03   -0.18476E-03 41840   0.124E-01    0.107E+00
DAV:   9    -0.387035986413E+03    0.39063E-03   -0.33241E-04 41880   0.418E-02    0.121E+00
DAV:  10    -0.387035452202E+03    0.53421E-03   -0.13509E-03 46352   0.837E-02    0.103E+00
DAV:  11    -0.387035770555E+03   -0.31835E-03   -0.12600E-02 51936   0.212E-01    0.593E-01
DAV:  12    -0.387037007151E+03   -0.12366E-02   -0.58012E-03 43552   0.166E-01    0.615E-01
DAV:  13    -0.387037018875E+03   -0.11724E-04   -0.12131E-03 43664   0.769E-02    0.600E-01
DAV:  14    -0.387036822111E+03    0.19676E-03   -0.84497E-05 36192   0.220E-02    0.643E-01
DAV:  15    -0.387037147272E+03   -0.32516E-03   -0.19465E-03 50040   0.105E-01    0.712E-01
DAV:  16    -0.387036718964E+03    0.42831E-03   -0.13424E-03 48816   0.860E-02    0.470E-01
DAV:  17    -0.387036821978E+03   -0.10301E-03   -0.27260E-04 44160   0.422E-02    0.314E-01
DAV:  18    -0.387036901963E+03   -0.79985E-04   -0.12395E-04 40048   0.250E-02    0.251E-01
DAV:  19    -0.387036939165E+03   -0.37202E-04   -0.86437E-05 31512   0.185E-02    0.201E-01
DAV:  20    -0.387036972493E+03   -0.33328E-04   -0.44474E-05 30496   0.145E-02    0.177E-01
DAV:  21    -0.387036985049E+03   -0.12556E-04   -0.64397E-05 30560   0.143E-02    0.124E-01
DAV:  22    -0.387036993582E+03   -0.85331E-05   -0.67215E-05 30480   0.133E-02
  32 F= -.38703699E+03 E0= -.38702344E+03  d E =-.299503E-01  mag=    34.0000
       N       E                     dE             d eps       ncg     rms          rms(c)
DAV:   1    -0.386976648448E+03    0.60337E-01   -0.17561E+01 36576   0.113E+01    0.111E+00
DAV:   2    -0.387074883941E+03   -0.98235E-01   -0.99189E-01 37608   0.208E+00    0.488E+00
DAV:   3    -0.387039808684E+03    0.35075E-01   -0.27459E-01 47536   0.770E-01    0.150E+00
DAV:   4    -0.387051342744E+03   -0.11534E-01   -0.47170E-02 48320   0.418E-01    0.125E+00
DAV:   5    -0.387049246477E+03    0.20963E-02   -0.14312E-02 50664   0.272E-01    0.655E-01
DAV:   6    -0.387049900534E+03   -0.65406E-03   -0.61643E-03 49104   0.183E-01    0.707E-01
DAV:   7    -0.387049684028E+03    0.21651E-03   -0.27922E-03 48072   0.139E-01    0.684E-01
DAV:   8    -0.387049290711E+03    0.39332E-03   -0.28763E-03 50000   0.109E-01    0.348E-01
DAV:   9    -0.387049259641E+03    0.31070E-04   -0.15881E-03 47768   0.104E-01    0.209E-01
DAV:  10    -0.387049305077E+03   -0.45436E-04   -0.90683E-04 49640   0.847E-02    0.251E-01
DAV:  11    -0.387049411718E+03   -0.10664E-03   -0.12312E-03 48832   0.616E-02    0.231E-01
DAV:  12    -0.387049477465E+03   -0.65747E-04   -0.48533E-04 36816   0.377E-02    0.245E-01
DAV:  13    -0.387049455201E+03    0.22264E-04   -0.72008E-05 29840   0.178E-02    0.249E-01
DAV:  14    -0.387049375921E+03    0.79280E-04   -0.49895E-05 28264   0.154E-02    0.258E-01
DAV:  15    -0.387049417467E+03   -0.41546E-04   -0.10687E-05 23408   0.888E-03    0.245E-01
DAV:  16    -0.387049484833E+03   -0.67366E-04   -0.21169E-04 40248   0.390E-02    0.162E-01
DAV:  17    -0.387049495814E+03   -0.10981E-04   -0.13020E-04 39816   0.294E-02    0.102E-01
DAV:  18    -0.387049495224E+03    0.59046E-06   -0.63023E-05 31624   0.155E-02
  33 F= -.38704950E+03 E0= -.38703580E+03  d E =-.125016E-01  mag=    34.0000
       N       E                     dE             d eps       ncg     rms          rms(c)
DAV:   1    -0.386567757487E+03    0.48174E+00   -0.11364E+02 36344   0.296E+01    0.281E+00
DAV:   2    -0.387173448690E+03   -0.60569E+00   -0.63916E+00 38008   0.540E+00    0.719E+00
DAV:   3    -0.387058773022E+03    0.11468E+00   -0.80556E-01 48048   0.198E+00    0.405E+00
DAV:   4    -0.387065831235E+03   -0.70582E-02   -0.41224E-01 51080   0.986E-01    0.352E+00
DAV:   5    -0.387052185045E+03    0.13646E-01   -0.74594E-02 50344   0.517E-01    0.187E+00
DAV:   6    -0.387053931496E+03   -0.17465E-02   -0.26621E-02 49696   0.306E-01    0.165E+00
DAV:   7    -0.387053755516E+03    0.17598E-03   -0.65671E-03 47248   0.172E-01    0.183E+00
DAV:   8    -0.387054064856E+03   -0.30934E-03   -0.11229E-02 49880   0.192E-01    0.257E+00
DAV:   9    -0.387052421215E+03    0.16436E-02   -0.69864E-04 37096   0.749E-02    0.260E+00
DAV:  10    -0.387052299721E+03    0.12149E-03   -0.50599E-03 48344   0.119E-01    0.250E+00
DAV:  11    -0.387063246913E+03   -0.10947E-01   -0.54637E-02 50424   0.315E-01    0.416E+00
DAV:  12    -0.387048045057E+03    0.15202E-01   -0.44479E-02 47296   0.272E-01    0.221E+00
DAV:  13    -0.387054614738E+03   -0.65697E-02   -0.12067E-02 47160   0.325E-01    0.253E+00
DAV:  14    -0.387049713466E+03    0.49013E-02   -0.11666E-02 48280   0.327E-01    0.255E+00
DAV:  15    -0.387052496245E+03   -0.27828E-02   -0.20103E-03 41328   0.100E-01    0.273E+00
DAV:  16    -0.387053667977E+03   -0.11717E-02   -0.86712E-03 44680   0.243E-01    0.195E+00
DAV:  17    -0.387049501382E+03    0.41666E-02   -0.53579E-02 47600   0.531E-01    0.164E+00
DAV:  18    -0.387054661396E+03   -0.51600E-02   -0.14618E-02 41040   0.288E-01    0.171E+00
DAV:  19    -0.387053043289E+03    0.16181E-02   -0.55236E-03 46512   0.191E-01    0.179E+00
DAV:  20    -0.387051286748E+03    0.17565E-02   -0.39374E-03 44200   0.133E-01    0.151E+00
DAV:  21    -0.387052518096E+03   -0.12313E-02   -0.34638E-04 36712   0.436E-02    0.148E+00
DAV:  22    -0.387054296465E+03   -0.17784E-02   -0.18429E-03 44848   0.109E-01    0.143E+00
DAV:  23    -0.387054308158E+03   -0.11693E-04   -0.65376E-03 43344   0.195E-01    0.887E-01
DAV:  24    -0.387055546062E+03   -0.12379E-02   -0.54120E-03 44848   0.172E-01    0.128E+00
DAV:  25    -0.387053579685E+03    0.19664E-02   -0.37583E-03 45896   0.101E-01    0.626E-01
DAV:  26    -0.387054248094E+03   -0.66841E-03   -0.30372E-04 38808   0.454E-02    0.561E-01
DAV:  27    -0.387054525876E+03   -0.27778E-03   -0.25269E-04 45272   0.456E-02    0.621E-01
DAV:  28    -0.387054545458E+03   -0.19582E-04   -0.12934E-04 40936   0.258E-02    0.594E-01
DAV:  29    -0.387054500490E+03    0.44967E-04   -0.40180E-05 29720   0.175E-02    0.571E-01
DAV:  30    -0.387054577569E+03   -0.77078E-04   -0.26529E-05 27824   0.129E-02    0.557E-01
DAV:  31    -0.387054596369E+03   -0.18800E-04   -0.96325E-06 20224   0.714E-03    0.554E-01
DAV:  32    -0.387054625025E+03   -0.28657E-04   -0.45351E-06 19712   0.465E-03    0.552E-01
DAV:  33    -0.387054643959E+03   -0.18934E-04   -0.24526E-06 19432   0.300E-03    0.556E-01
DAV:  34    -0.387054645290E+03   -0.13309E-05   -0.95615E-07 18888   0.231E-03
  34 F= -.38705465E+03 E0= -.38704023E+03  d E =-.515007E-02  mag=    34.0000
       N       E                     dE             d eps       ncg     rms          rms(c)
DAV:   1    -0.379952849756E+03    0.71018E+01   -0.52256E+02 38224   0.696E+01    0.160E+01
DAV:   2    -0.413855018347E+03   -0.33902E+02   -0.14556E+02 46920   0.213E+01    0.733E+01
DAV:   3    -0.385250879687E+03    0.28604E+02   -0.23205E+01 47240   0.153E+01    0.197E+01
DAV:   4    -0.386273614868E+03   -0.10227E+01   -0.98571E+00 49448   0.580E+00    0.120E+01
DAV:   5    -0.386165826903E+03    0.10779E+00   -0.11073E+00 49104   0.283E+00    0.795E+00
DAV:   6    -0.386259439907E+03   -0.93613E-01   -0.16178E+00 49544   0.190E+00    0.110E+01
DAV:   7    -0.386275261616E+03   -0.15822E-01   -0.19498E-01 49184   0.992E-01    0.894E+00
DAV:   8    -0.386322309445E+03   -0.47048E-01   -0.80792E-02 51648   0.701E-01    0.841E+00
DAV:   9    -0.386490502073E+03   -0.16819E+00   -0.87781E-01 51016   0.151E+00    0.896E+00
DAV:  10    -0.386441241154E+03    0.49261E-01   -0.42498E-01 48560   0.124E+00    0.562E+00
DAV:  11    -0.386448201250E+03   -0.69601E-02   -0.10352E+00 51208   0.146E+00    0.859E+00
DAV:  12    -0.386315199685E+03    0.13300E+00   -0.93103E-01 48424   0.106E+00    0.395E+00
DAV:  13    -0.386317467469E+03   -0.22678E-02   -0.73457E-02 48144   0.785E-01    0.278E+00
DAV:  14    -0.386337275528E+03   -0.19808E-01   -0.16194E-01 49192   0.574E-01    0.331E+00
DAV:  15    -0.386351271542E+03   -0.13996E-01   -0.27777E-02 47504   0.491E-01    0.298E+00
DAV:  16    -0.386352438711E+03   -0.11672E-02   -0.58197E-03 47480   0.241E-01    0.254E+00
DAV:  17    -0.386358112666E+03   -0.56740E-02   -0.70972E-02 51240   0.526E-01    0.203E+00
DAV:  18    -0.386360990141E+03   -0.28775E-02   -0.35140E-02 48488   0.494E-01    0.236E+00
DAV:  19    -0.386358040585E+03    0.29496E-02   -0.11916E-01 51408   0.475E-01    0.210E+00
DAV:  20    -0.386360839728E+03   -0.27991E-02   -0.12086E-02 45120   0.280E-01    0.113E+00
DAV:  21    -0.386360284697E+03    0.55503E-03   -0.30367E-03 48056   0.130E-01    0.701E-01
DAV:  22    -0.386360319914E+03   -0.35218E-04   -0.16549E-03 46752   0.108E-01    0.384E-01
DAV:  23    -0.386360805306E+03   -0.48539E-03   -0.73428E-04 44632   0.647E-02    0.337E-01
DAV:  24    -0.386361019367E+03   -0.21406E-03   -0.28701E-04 40504   0.432E-02    0.271E-01
DAV:  25    -0.386361135247E+03   -0.11588E-03   -0.85202E-04 45224   0.702E-02    0.243E-01
DAV:  26    -0.386361100280E+03    0.34967E-04   -0.30150E-04 38328   0.439E-02    0.115E-01
DAV:  27    -0.386361123711E+03   -0.23431E-04   -0.58949E-05 31352   0.234E-02    0.891E-02
DAV:  28    -0.386361141019E+03   -0.17308E-04   -0.80946E-05 31432   0.222E-02    0.647E-02
DAV:  29    -0.386361148861E+03   -0.78420E-05   -0.17631E-05 25088   0.122E-02
  35 F= -.38636115E+03 E0= -.38634631E+03  d E =0.693496E+00  mag=    33.9961
       N       E                     dE             d eps       ncg     rms          rms(c)
DAV:   1    -0.385382890101E+03    0.97825E+00   -0.90295E+01 38240   0.320E+01    0.793E+00
DAV:   2    -0.389103620982E+03   -0.37207E+01   -0.33548E+01 45968   0.988E+00    0.339E+01
DAV:   3    -0.386629914139E+03    0.24737E+01   -0.24884E+01 47384   0.679E+00    0.718E+00
DAV:   4    -0.386789794341E+03   -0.15988E+00   -0.41280E-01 47560   0.198E+00    0.571E+00
DAV:   5    -0.386746747731E+03    0.43047E-01   -0.34250E-01 49552   0.117E+00    0.423E+00
DAV:   6    -0.386766442616E+03   -0.19695E-01   -0.34200E-01 49824   0.104E+00    0.507E+00
DAV:   7    -0.386813255859E+03   -0.46813E-01   -0.76442E-02 44280   0.559E-01    0.574E+00
DAV:   8    -0.386799884400E+03    0.13371E-01   -0.37218E-02 44424   0.385E-01    0.687E+00
DAV:   9    -0.386801096376E+03   -0.12120E-02   -0.11840E-02 44384   0.240E-01    0.716E+00
DAV:  10    -0.386784872480E+03    0.16224E-01   -0.74933E-02 53744   0.575E-01    0.460E+00
DAV:  11    -0.386816988367E+03   -0.32116E-01   -0.84929E-02 49648   0.723E-01    0.246E+00
DAV:  12    -0.386833412180E+03   -0.16424E-01   -0.92925E-02 47584   0.663E-01    0.179E+00
DAV:  13    -0.386838562287E+03   -0.51501E-02   -0.54506E-02 47824   0.465E-01    0.194E+00
DAV:  14    -0.386837161916E+03    0.14004E-02   -0.28590E-02 48664   0.351E-01    0.203E+00
DAV:  15    -0.386834611206E+03    0.25507E-02   -0.14008E-02 49352   0.329E-01    0.105E+00
DAV:  16    -0.386838150368E+03   -0.35392E-02   -0.16758E-02 49816   0.261E-01    0.954E-01
DAV:  17    -0.386838553752E+03   -0.40338E-03   -0.12113E-02 45624   0.207E-01    0.642E-01
DAV:  18    -0.386838438999E+03    0.11475E-03   -0.19937E-03 45272   0.108E-01    0.294E-01
DAV:  19    -0.386838549456E+03   -0.11046E-03   -0.10232E-03 47680   0.601E-02    0.259E-01
DAV:  20    -0.386838592523E+03   -0.43068E-04   -0.12806E-03 45880   0.689E-02    0.244E-01
DAV:  21    -0.386838571424E+03    0.21099E-04   -0.29847E-04 36112   0.442E-02    0.114E-01
DAV:  22    -0.386838588393E+03   -0.16969E-04   -0.33969E-05 29680   0.151E-02    0.114E-01
DAV:  23    -0.386838589254E+03   -0.86136E-06   -0.12814E-05 23912   0.108E-02
  36 F= -.38683859E+03 E0= -.38682468E+03  d E =-.477440E+00  mag=    33.9940
       N       E                     dE             d eps       ncg     rms          rms(c)
DAV:   1    -0.386647536373E+03    0.19105E+00   -0.23305E+01 38144   0.148E+01    0.406E+00
DAV:   2    -0.387464549599E+03   -0.81701E+00   -0.10556E+01 46456   0.493E+00    0.110E+01
DAV:   3    -0.387186215956E+03    0.27833E+00   -0.33446E+00 48104   0.285E+00    0.933E+00
DAV:   4    -0.387011556625E+03    0.17466E+00   -0.91835E-01 48616   0.140E+00    0.578E+00
DAV:   5    -0.386972392514E+03    0.39164E-01   -0.19942E-01 49104   0.859E-01    0.416E+00
DAV:   6    -0.386960500079E+03    0.11892E-01   -0.18879E-01 51392   0.780E-01    0.190E+00
DAV:   7    -0.386978100702E+03   -0.17601E-01   -0.76890E-02 46304   0.636E-01    0.150E+00
DAV:   8    -0.386976999302E+03    0.11014E-02   -0.28044E-02 48064   0.390E-01    0.945E-01
DAV:   9    -0.386977544279E+03   -0.54498E-03   -0.78521E-03 48008   0.210E-01    0.671E-01
[...]
DAV:  11    -0.387045230698E+03   -0.51870E-02   -0.19446E-02 48216   0.177E-01    0.301E+00
DAV:  12    -0.387036550033E+03    0.86807E-02   -0.10055E-02 45280   0.176E-01    0.214E+00
DAV:  13    -0.387036536019E+03    0.14014E-04   -0.23620E-03 45928   0.958E-02    0.160E+00
DAV:  14    -0.387037655164E+03   -0.11191E-02   -0.36066E-04 38688   0.435E-02    0.140E+00
DAV:  15    -0.387037094167E+03    0.56100E-03   -0.47780E-03 47592   0.900E-02    0.406E-01
DAV:  16    -0.387040008737E+03   -0.29146E-02   -0.97483E-03 45896   0.149E-01    0.113E+00
DAV:  17    -0.387038632842E+03    0.13759E-02   -0.42670E-03 39704   0.129E-01    0.259E-01
DAV:  18    -0.387039158124E+03   -0.52528E-03   -0.38841E-04 39320   0.408E-02    0.788E-02
DAV:  19    -0.387039262943E+03   -0.10482E-03   -0.11747E-04 37824   0.290E-02    0.964E-02
DAV:  20    -0.387039251822E+03    0.11121E-04   -0.13134E-04 30568   0.198E-02    0.942E-02
DAV:  21    -0.387039245499E+03    0.63234E-05   -0.35397E-05 28080   0.134E-02
  46 F= -.38703925E+03 E0= -.38702533E+03  d E =-.249405E-01  mag=    34.0000
       N       E                     dE             d eps       ncg     rms          rms(c)
DAV:   1    -0.387033896635E+03    0.53552E-02   -0.18327E+00 36880   0.406E+00    0.431E-01
DAV:   2    -0.387045088202E+03   -0.11192E-01   -0.11213E-01 35392   0.753E-01    0.117E+00
DAV:   3    -0.387045442606E+03   -0.35440E-03   -0.37177E-02 49872   0.266E-01    0.144E+00
DAV:   4    -0.387044449457E+03    0.99315E-03   -0.12068E-02 47064   0.188E-01    0.804E-01
DAV:   5    -0.387044121791E+03    0.32767E-03   -0.30183E-03 44240   0.125E-01    0.392E-01
DAV:   6    -0.387044378637E+03   -0.25685E-03   -0.43655E-04 42712   0.504E-02    0.449E-01
DAV:   7    -0.387044213284E+03    0.16535E-03   -0.62606E-04 40400   0.540E-02    0.390E-01
DAV:   8    -0.387044398707E+03   -0.18542E-03   -0.55005E-05 29392   0.170E-02    0.373E-01
DAV:   9    -0.387044410490E+03   -0.11783E-04   -0.12580E-03 46808   0.905E-02    0.265E-01
DAV:  10    -0.387044450713E+03   -0.40223E-04   -0.14306E-03 49496   0.748E-02    0.276E-01
DAV:  11    -0.387044350368E+03    0.10035E-03   -0.66914E-04 45432   0.632E-02    0.196E-01
DAV:  12    -0.387044354582E+03   -0.42143E-05   -0.28365E-04 48728   0.446E-02    0.159E-01
DAV:  13    -0.387044352751E+03    0.18310E-05   -0.14010E-04 36320   0.337E-02    0.829E-02
DAV:  14    -0.387044370539E+03   -0.17788E-04   -0.38339E-05 30832   0.203E-02    0.565E-02
DAV:  15    -0.387044383557E+03   -0.13018E-04   -0.26554E-05 26128   0.117E-02    0.948E-02
DAV:  16    -0.387044377699E+03    0.58587E-05   -0.60261E-06 22200   0.742E-03
  47 F= -.38704438E+03 E0= -.38703028E+03  d E =-.513220E-02  mag=    34.0000
       N       E                     dE             d eps       ncg     rms          rms(c)
DAV:   1    -0.387039898876E+03    0.44847E-02   -0.87850E-01 37336   0.280E+00    0.311E-01
DAV:   2    -0.387048928945E+03   -0.90301E-02   -0.73551E-02 38880   0.538E-01    0.225E+00
DAV:   3    -0.387041891946E+03    0.70370E-02   -0.36339E-02 43400   0.253E-01    0.348E-01
DAV:   4    -0.387045011761E+03   -0.31198E-02   -0.38437E-03 42208   0.150E-01    0.596E-01
DAV:   5    -0.387044395549E+03    0.61621E-03   -0.17716E-03 45176   0.105E-01    0.172E-01
DAV:   6    -0.387044551867E+03   -0.15632E-03   -0.42846E-04 42464   0.424E-02    0.136E-01
DAV:   7    -0.387044578066E+03   -0.26199E-04   -0.31035E-04 40440   0.354E-02    0.164E-01
DAV:   8    -0.387044571198E+03    0.68677E-05   -0.82888E-05 29432   0.196E-02
  48 F= -.38704457E+03 E0= -.38703069E+03  d E =-.193500E-03  mag=    34.0000
       N       E                     dE             d eps       ncg     rms          rms(c)
DAV:   1    -0.386953762320E+03    0.90816E-01   -0.19316E+01 36240   0.122E+01    0.118E+00
DAV:   2    -0.387052294931E+03   -0.98533E-01   -0.97591E-01 36216   0.220E+00    0.404E+00
DAV:   3    -0.387036750398E+03    0.15545E-01   -0.29249E-01 48760   0.738E-01    0.281E+00
DAV:   4    -0.387037791258E+03   -0.10409E-02   -0.84744E-02 48048   0.450E-01    0.124E+00
DAV:   5    -0.387038551485E+03   -0.76023E-03   -0.64658E-03 47232   0.227E-01    0.866E-01
DAV:   6    -0.387038668093E+03   -0.11661E-03   -0.60540E-04 44608   0.651E-02    0.952E-01
DAV:   7    -0.387038443051E+03    0.22504E-03   -0.90408E-05 37720   0.274E-02    0.944E-01
DAV:   8    -0.387038723960E+03   -0.28091E-03   -0.63334E-04 46312   0.751E-02    0.979E-01
DAV:   9    -0.387038010729E+03    0.71323E-03   -0.66833E-03 47600   0.200E-01    0.702E-01
DAV:  10    -0.387038284334E+03   -0.27360E-03   -0.74899E-03 50344   0.164E-01    0.578E-01
DAV:  11    -0.387038563739E+03   -0.27941E-03   -0.34900E-03 46192   0.117E-01    0.641E-01
DAV:  12    -0.387038353556E+03    0.21018E-03   -0.87073E-04 45640   0.842E-02    0.482E-01
DAV:  13    -0.387038214174E+03    0.13938E-03   -0.59755E-04 47912   0.670E-02    0.354E-01
DAV:  14    -0.387038175997E+03    0.38177E-04   -0.52746E-04 48048   0.617E-02    0.138E-01
DAV:  15    -0.387038340824E+03   -0.16483E-03   -0.30447E-04 38864   0.460E-02    0.159E-01
DAV:  16    -0.387038322890E+03    0.17934E-04   -0.63040E-05 36816   0.268E-02    0.148E-01
DAV:  17    -0.387038303618E+03    0.19272E-04   -0.30016E-05 28912   0.150E-02    0.870E-02
DAV:  18    -0.387038320532E+03   -0.16914E-04   -0.50972E-05 26984   0.137E-02    0.578E-02
DAV:  19    -0.387038328939E+03   -0.84073E-05   -0.22722E-05 25904   0.125E-02
  49 F= -.38703833E+03 E0= -.38702440E+03  d E =0.624226E-02  mag=    34.0000
       N       E                     dE             d eps       ncg     rms          rms(c)
DAV:   1    -0.386236357529E+03    0.80196E+00   -0.18394E+02 36552   0.367E+01    0.328E+00
DAV:   2    -0.387011361852E+03   -0.77500E+00   -0.79883E+00 34960   0.653E+00    0.237E+00
DAV:   3    -0.387077617343E+03   -0.66255E-01   -0.70931E-01 50800   0.153E+00    0.709E+00
DAV:   4    -0.387023497221E+03    0.54120E-01   -0.75293E-01 51120   0.818E-01    0.399E+00
DAV:   5    -0.387024290797E+03   -0.79358E-03   -0.20755E-01 48360   0.666E-01    0.235E+00
DAV:   6    -0.387024223054E+03    0.67743E-04   -0.11990E-02 49256   0.302E-01    0.251E+00
DAV:   7    -0.387020381433E+03    0.38416E-02   -0.24707E-03 41200   0.126E-01    0.253E+00
DAV:   8    -0.387020174282E+03    0.20715E-03   -0.23961E-04 47136   0.361E-02    0.250E+00
DAV:   9    -0.387016451712E+03    0.37226E-02   -0.42793E-02 49128   0.487E-01    0.107E+00
DAV:  10    -0.387025464241E+03   -0.90125E-02   -0.55829E-02 49168   0.459E-01    0.167E+00
DAV:  11    -0.387021287059E+03    0.41772E-02   -0.15957E-02 48032   0.358E-01    0.123E+00
DAV:  12    -0.387021153971E+03    0.13309E-03   -0.48481E-03 49344   0.219E-01    0.106E+00
DAV:  13    -0.387020602404E+03    0.55157E-03   -0.41151E-03 48720   0.164E-01    0.722E-01
DAV:  14    -0.387021923136E+03   -0.13207E-02   -0.60062E-03 47696   0.143E-01    0.113E+00
DAV:  15    -0.387021109123E+03    0.81401E-03   -0.13671E-03 41024   0.110E-01    0.980E-01
DAV:  16    -0.387020454097E+03    0.65503E-03   -0.28108E-03 49360   0.977E-02    0.364E-01
DAV:  17    -0.387021161503E+03   -0.70741E-03   -0.51551E-04 37728   0.795E-02    0.267E-01
DAV:  18    -0.387021368877E+03   -0.20737E-03   -0.24700E-04 39344   0.407E-02    0.226E-01
DAV:  19    -0.387021420328E+03   -0.51451E-04   -0.82673E-05 37000   0.252E-02    0.201E-01
DAV:  20    -0.387021476406E+03   -0.56078E-04   -0.11362E-04 33648   0.218E-02    0.165E-01
DAV:  21    -0.387021502470E+03   -0.26064E-04   -0.77847E-05 32472   0.207E-02    0.102E-01
DAV:  22    -0.387021526077E+03   -0.23607E-04   -0.58390E-05 31768   0.163E-02    0.771E-02
DAV:  23    -0.387021537897E+03   -0.11820E-04   -0.29172E-05 23520   0.101E-02    0.769E-02
DAV:  24    -0.387021543129E+03   -0.52327E-05   -0.20666E-05 23592   0.847E-03
  50 F= -.38702154E+03 E0= -.38700767E+03  d E =0.167858E-01  mag=    34.0000
       N       E                     dE             d eps       ncg     rms          rms(c)
DAV:   1    -0.386947640015E+03    0.73898E-01   -0.11696E+01 37464   0.106E+01    0.117E+00
DAV:   2    -0.387027529445E+03   -0.79889E-01   -0.79661E-01 35456   0.196E+00    0.239E+00
DAV:   3    -0.387043426288E+03   -0.15897E-01   -0.38716E-01 50336   0.669E-01    0.446E+00
DAV:   4    -0.387018419170E+03    0.25007E-01   -0.93098E-02 48192   0.537E-01    0.160E+00
DAV:   5    -0.387023982129E+03   -0.55630E-02   -0.10154E-02 50360   0.267E-01    0.800E-01
DAV:   6    -0.387025864472E+03   -0.18823E-02   -0.48907E-03 49064   0.165E-01    0.483E-01
DAV:   7    -0.387026999179E+03   -0.11347E-02   -0.62994E-03 48624   0.154E-01    0.774E-01
DAV:   8    -0.387026546979E+03    0.45220E-03   -0.13809E-03 43768   0.112E-01    0.624E-01
DAV:   9    -0.387026359284E+03    0.18769E-03   -0.45048E-04 43720   0.459E-02    0.536E-01
DAV:  10    -0.387026458031E+03   -0.98747E-04   -0.10305E-04 32712   0.227E-02    0.618E-01
DAV:  11    -0.387026311702E+03    0.14633E-03   -0.26829E-04 36768   0.408E-02    0.497E-01
DAV:  12    -0.387026423588E+03   -0.11189E-03   -0.19453E-03 49968   0.115E-01    0.506E-01
DAV:  13    -0.387026355993E+03    0.67595E-04   -0.18191E-03 49056   0.971E-02    0.343E-01
DAV:  14    -0.387026471354E+03   -0.11536E-03   -0.53307E-04 44920   0.601E-02    0.209E-01
DAV:  15    -0.387026573958E+03   -0.10260E-03   -0.31370E-04 40720   0.425E-02    0.193E-01
DAV:  16    -0.387026543632E+03    0.30326E-04   -0.17754E-04 36816   0.302E-02    0.942E-02
DAV:  17    -0.387026562444E+03   -0.18812E-04   -0.37755E-05 29128   0.129E-02    0.673E-02
DAV:  18    -0.387026570721E+03   -0.82768E-05   -0.33396E-05 26328   0.116E-02
  51 F= -.38702657E+03 E0= -.38701250E+03  d E =-.502759E-02  mag=    34.0000
       N       E                     dE             d eps       ncg     rms          rms(c)
DAV:   1    -0.386926772421E+03    0.99790E-01   -0.22605E+01 36648   0.139E+01    0.126E+00
DAV:   2    -0.387035349782E+03   -0.10858E+00   -0.10848E+00 34944   0.247E+00    0.239E+00
DAV:   3    -0.387059178498E+03   -0.23829E-01   -0.42811E-01 51288   0.742E-01    0.536E+00
DAV:   4    -0.387024528739E+03    0.34650E-01   -0.25511E-01 48704   0.569E-01    0.148E+00
DAV:   5    -0.387035224512E+03   -0.10696E-01   -0.16752E-02 45128   0.298E-01    0.143E+00
DAV:   6    -0.387033723099E+03    0.15014E-02   -0.54553E-03 45288   0.188E-01    0.112E+00
DAV:   7    -0.387033215084E+03    0.50802E-03   -0.25213E-03 49864   0.969E-02    0.798E-01
DAV:   8    -0.387033545254E+03   -0.33017E-03   -0.21943E-04 37400   0.365E-02    0.799E-01
DAV:   9    -0.387032847792E+03    0.69746E-03   -0.58448E-03 48856   0.129E-01    0.817E-01
DAV:  10    -0.387035070539E+03   -0.22227E-02   -0.13785E-02 48240   0.184E-01    0.141E+00
DAV:  11    -0.387035135363E+03   -0.64824E-04   -0.27561E-03 40720   0.118E-01    0.156E+00
DAV:  12    -0.387033746470E+03    0.13889E-02   -0.26399E-04 35968   0.439E-02    0.161E+00
DAV:  13    -0.387034988136E+03   -0.12417E-02   -0.13656E-03 47336   0.828E-02    0.239E+00
DAV:  14    -0.387030077055E+03    0.49111E-02   -0.24736E-03 46192   0.117E-01    0.140E+00
DAV:  15    -0.387031875837E+03   -0.17988E-02   -0.63367E-03 49920   0.146E-01    0.229E-01
DAV:  16    -0.387034436257E+03   -0.25604E-02   -0.20151E-03 37744   0.962E-02    0.475E-01
DAV:  17    -0.387034424167E+03    0.12090E-04   -0.11170E-03 41712   0.857E-02    0.966E-02
DAV:  18    -0.387034504697E+03   -0.80529E-04   -0.16920E-04 39160   0.351E-02    0.736E-02
DAV:  19    -0.387034503394E+03    0.13028E-05   -0.29009E-05 29016   0.169E-02
  52 F= -.38703450E+03 E0= -.38702048E+03  d E =-.793267E-02  mag=    34.0000
       N       E                     dE             d eps       ncg     rms          rms(c)
DAV:   1    -0.387027809747E+03    0.66949E-02   -0.10087E+00 37168   0.316E+00    0.322E-01
DAV:   2    -0.387034913019E+03   -0.71033E-02   -0.63569E-02 36000   0.584E-01    0.133E+00
DAV:   3    -0.387032846546E+03    0.20665E-02   -0.16621E-02 46088   0.206E-01    0.680E-01
DAV:   4    -0.387033672482E+03   -0.82594E-03   -0.33082E-03 42232   0.126E-01    0.380E-01
DAV:   5    -0.387033572226E+03    0.10026E-03   -0.50482E-04 45816   0.554E-02    0.268E-01
DAV:   6    -0.387033556759E+03    0.15467E-04   -0.25859E-04 35912   0.306E-02    0.279E-01
DAV:   7    -0.387033550407E+03    0.63519E-05   -0.34852E-04 34064   0.377E-02    0.250E-01
DAV:   8    -0.387033581611E+03   -0.31204E-04   -0.77915E-05 29984   0.229E-02    0.259E-01
DAV:   9    -0.387033606349E+03   -0.24737E-04   -0.99840E-06 23344   0.864E-03    0.252E-01
DAV:  10    -0.387033620336E+03   -0.13988E-04   -0.14439E-04 35224   0.337E-02    0.180E-01
DAV:  11    -0.387033619313E+03    0.10234E-05   -0.22834E-04 43048   0.468E-02    0.141E-01
DAV:  12    -0.387033613619E+03    0.56937E-05   -0.18762E-04 42152   0.380E-02    0.137E-01
DAV:  13    -0.387033609357E+03    0.42617E-05   -0.94267E-05 32744   0.287E-02
  53 F= -.38703361E+03 E0= -.38701964E+03  d E =0.894036E-03  mag=    34.0000
       N       E                     dE             d eps       ncg     rms          rms(c)
DAV:   1    -0.387023521459E+03    0.10092E-01   -0.20111E+00 36288   0.414E+00    0.389E-01
DAV:   2    -0.387033697401E+03   -0.10176E-01   -0.99365E-02 34944   0.735E-01    0.765E-01
DAV:   3    -0.387035761986E+03   -0.20646E-02   -0.30040E-02 49808   0.224E-01    0.166E+00
DAV:   4    -0.387032190370E+03    0.35716E-02   -0.10860E-02 43832   0.187E-01    0.415E-01
DAV:   5    -0.387033305245E+03   -0.11149E-02   -0.93273E-04 45056   0.713E-02    0.182E-01
DAV:   6    -0.387033605107E+03   -0.29986E-03   -0.39488E-04 38736   0.519E-02    0.198E-01
DAV:   7    -0.387033618246E+03   -0.13139E-04   -0.19594E-04 38192   0.413E-02    0.196E-01
DAV:   8    -0.387033595566E+03    0.22679E-04   -0.59726E-05 30072   0.193E-02    0.171E-01
DAV:   9    -0.387033592568E+03    0.29984E-05   -0.13981E-05 24896   0.908E-03
  54 F= -.38703359E+03 E0= -.38701976E+03  d E =0.167896E-04  mag=    34.0000
       N       E                     dE             d eps       ncg     rms          rms(c)
DAV:   1    -0.386772736727E+03    0.26086E+00   -0.58927E+01 36408   0.220E+01    0.193E+00
DAV:   2    -0.387034041436E+03   -0.26130E+00   -0.26136E+00 34944   0.383E+00    0.350E+00
DAV:   3    -0.387087279395E+03   -0.53238E-01   -0.86610E-01 50184   0.114E+00    0.801E+00
DAV:   4    -0.387013933341E+03    0.73346E-01   -0.75290E-01 48912   0.875E-01    0.236E+00
DAV:   5    -0.387031077297E+03   -0.17144E-01   -0.37851E-02 47016   0.597E-01    0.163E+00
DAV:   6    -0.387029902658E+03    0.11746E-02   -0.27316E-02 50760   0.294E-01    0.127E+00
DAV:   7    -0.387029983503E+03   -0.80845E-04   -0.15204E-02 46720   0.226E-01    0.126E+00
DAV:   8    -0.387029662691E+03    0.32081E-03   -0.11557E-03 38352   0.870E-02    0.144E+00
DAV:   9    -0.387029366257E+03    0.29643E-03   -0.18269E-02 48456   0.217E-01    0.225E+00
DAV:  10    -0.387028311536E+03    0.10547E-02   -0.32957E-02 47168   0.284E-01    0.264E+00
DAV:  11    -0.387027708979E+03    0.60256E-03   -0.63615E-03 42576   0.138E-01    0.248E+00
DAV:  12    -0.387028505944E+03   -0.79696E-03   -0.59244E-04 39856   0.672E-02    0.275E+00
DAV:  13    -0.387026244476E+03    0.22615E-02   -0.12289E-03 52992   0.140E-01    0.234E+00
DAV:  14    -0.387026182985E+03    0.61490E-04   -0.34539E-03 48352   0.193E-01    0.172E+00
DAV:  15    -0.387026405096E+03   -0.22211E-03   -0.69476E-03 46640   0.162E-01    0.969E-01
DAV:  16    -0.387028811264E+03   -0.24062E-02   -0.33185E-03 41912   0.138E-01    0.102E+00
DAV:  17    -0.387029134299E+03   -0.32304E-03   -0.12335E-03 47952   0.741E-02    0.105E+00
DAV:  18    -0.387028735304E+03    0.39900E-03   -0.86784E-04 42528   0.419E-02    0.101E+00
DAV:  19    -0.387027995844E+03    0.73946E-03   -0.13027E-03 43224   0.502E-02    0.109E+00
DAV:  20    -0.387030543722E+03   -0.25479E-02   -0.31367E-03 40448   0.112E-01    0.787E-01
DAV:  21    -0.387030587605E+03   -0.43883E-04   -0.59459E-03 44736   0.130E-01    0.322E-01
DAV:  22    -0.387031138098E+03   -0.55049E-03   -0.13357E-03 42408   0.857E-02    0.189E-01
DAV:  23    -0.387031279492E+03   -0.14139E-03   -0.76370E-04 46784   0.552E-02    0.169E-01
DAV:  24    -0.387031308626E+03   -0.29134E-04   -0.65360E-04 40120   0.392E-02    0.134E-01
DAV:  25    -0.387031349920E+03   -0.41294E-04   -0.26118E-04 38136   0.241E-02    0.578E-02
DAV:  26    -0.387031389068E+03   -0.39148E-04   -0.49239E-05 29400   0.160E-02    0.343E-02
DAV:  27    -0.387031393861E+03   -0.47924E-05   -0.15175E-05 23696   0.789E-03
  55 F= -.38703139E+03 E0= -.38701748E+03  d E =0.219871E-02  mag=    34.0000
       N       E                     dE             d eps       ncg     rms          rms(c)
DAV:   1    -0.387003680834E+03    0.27708E-01   -0.49669E+00 37416   0.703E+00    0.746E-01
DAV:   2    -0.387034010155E+03   -0.30329E-01   -0.29981E-01 35168   0.124E+00    0.880E-01
DAV:   3    -0.387046457892E+03   -0.12448E-01   -0.12112E-01 50752   0.403E-01    0.345E+00
DAV:   4    -0.387028406172E+03    0.18052E-01   -0.59670E-02 46856   0.370E-01    0.616E-01
DAV:   5    -0.387034836292E+03   -0.64301E-02   -0.35283E-03 43984   0.152E-01    0.372E-01
DAV:   6    -0.387035574074E+03   -0.73778E-03   -0.12655E-03 43032   0.903E-02    0.318E-01
DAV:   7    -0.387035608429E+03   -0.34356E-04   -0.26357E-04 40416   0.384E-02    0.336E-01
DAV:   8    -0.387035533508E+03    0.74922E-04   -0.12794E-04 34544   0.316E-02    0.402E-01
DAV:   9    -0.387035439925E+03    0.93582E-04   -0.23249E-04 35408   0.341E-02    0.454E-01
DAV:  10    -0.387035428459E+03    0.11466E-04   -0.35060E-05 27488   0.153E-02    0.481E-01
DAV:  11    -0.387035471013E+03   -0.42554E-04   -0.85318E-05 33456   0.254E-02    0.458E-01
DAV:  12    -0.387035535137E+03   -0.64125E-04   -0.13606E-03 46136   0.106E-01    0.352E-01
DAV:  13    -0.387035608263E+03   -0.73126E-04   -0.11564E-03 48136   0.816E-02    0.309E-01
DAV:  14    -0.387035618212E+03   -0.99482E-05   -0.29657E-04 44600   0.547E-02    0.157E-01
DAV:  15    -0.387035673163E+03   -0.54951E-04   -0.30579E-04 44280   0.386E-02    0.111E-01
DAV:  16    -0.387035706547E+03   -0.33384E-04   -0.97671E-05 34584   0.217E-02    0.112E-01
DAV:  17    -0.387035697150E+03    0.93970E-05   -0.19753E-05 26632   0.122E-02
  56 F= -.38703570E+03 E0= -.38702175E+03  d E =-.430329E-02  mag=    34.0000
       N       E                     dE             d eps       ncg     rms          rms(c)
DAV:   1    -0.386988344242E+03    0.47362E-01   -0.11048E+01 36616   0.961E+00    0.842E-01
DAV:   2    -0.387036166539E+03   -0.47822E-01   -0.48008E-01 34944   0.166E+00    0.444E-01
DAV:   3    -0.387038641786E+03   -0.24752E-02   -0.11053E-02 48392   0.274E-01    0.625E-01
DAV:   4    -0.387038292306E+03    0.34948E-03   -0.59701E-03 54024   0.149E-01    0.620E-01
DAV:   5    -0.387038117254E+03    0.17505E-03   -0.25234E-03 47600   0.859E-02    0.467E-01
DAV:   6    -0.387038067026E+03    0.50228E-04   -0.10229E-03 42656   0.702E-02    0.333E-01
DAV:   7    -0.387038041750E+03    0.25276E-04   -0.93704E-05 34912   0.210E-02    0.354E-01
DAV:   8    -0.387037801902E+03    0.23985E-03   -0.22529E-03 45624   0.712E-02    0.370E-01
DAV:   9    -0.387037952240E+03   -0.15034E-03   -0.17640E-03 47520   0.110E-01    0.326E-01
DAV:  10    -0.387038042864E+03   -0.90624E-04   -0.80415E-04 46624   0.841E-02    0.287E-01
DAV:  11    -0.387038076577E+03   -0.33713E-04   -0.36425E-04 47256   0.476E-02    0.313E-01
DAV:  12    -0.387038051787E+03    0.24790E-04   -0.82058E-05 33320   0.239E-02    0.288E-01
DAV:  13    -0.387038021184E+03    0.30604E-04   -0.45210E-05 29032   0.186E-02    0.225E-01
DAV:  14    -0.387038021529E+03   -0.34497E-06   -0.83395E-05 28920   0.199E-02
  57 F= -.38703802E+03 E0= -.38702398E+03  d E =-.232438E-02  mag=    34.0000
