       N       E                     dE             d eps       ncg     rms          rms(c)
DAV:   1     0.651439476737E+04    0.65144E+04   -0.26963E+05 35360   0.155E+03
DAV:   2     0.399130070674E+03   -0.61153E+04   -0.58692E+04 35848   0.476E+02
DAV:   3    -0.370225063518E+03   -0.76936E+03   -0.75224E+03 38224   0.178E+02
DAV:   4    -0.411454278125E+03   -0.41229E+02   -0.40197E+02 48936   0.427E+01
DAV:   5    -0.414828437723E+03   -0.33742E+01   -0.33125E+01 64088   0.861E+00    0.656E+01
DAV:   6    -0.343690978248E+03    0.71137E+02   -0.31375E+02 46296   0.397E+01    0.366E+01
DAV:   7    -0.368722561463E+03   -0.25032E+02   -0.76773E+01 47152   0.199E+01    0.563E+01
DAV:   8    -0.367036202264E+03    0.16864E+01   -0.45801E+01 48016   0.155E+01    0.328E+01
DAV:   9    -0.364564232341E+03    0.24720E+01   -0.41188E+00 47624   0.726E+00    0.194E+01
DAV:  10    -0.372042119531E+03   -0.74779E+01   -0.29356E+01 46144   0.609E+00    0.304E+01
DAV:  11    -0.371083384320E+03    0.95874E+00   -0.21309E+01 48168   0.596E+00    0.172E+01
DAV:  12    -0.376430399637E+03   -0.53470E+01   -0.16611E+01 46488   0.536E+00    0.230E+01
DAV:  13    -0.377294531759E+03   -0.86413E+00   -0.12995E+01 47440   0.392E+00    0.147E+01
DAV:  14    -0.379528395770E+03   -0.22339E+01   -0.76254E+00 45464   0.340E+00    0.126E+01
DAV:  15    -0.381956240680E+03   -0.24278E+01   -0.44057E+00 46352   0.318E+00    0.120E+01
DAV:  16    -0.382430492413E+03   -0.47425E+00   -0.15364E+00 48408   0.215E+00    0.666E+00
DAV:  17    -0.383109668257E+03   -0.67918E+00   -0.71228E-01 45352   0.162E+00    0.706E+00
DAV:  18    -0.383277824219E+03   -0.16816E+00   -0.10331E-01 47840   0.996E-01    0.574E+00
DAV:  19    -0.384184203334E+03   -0.90638E+00   -0.10699E+00 45104   0.131E+00    0.687E+00
DAV:  20    -0.384961807111E+03   -0.77760E+00   -0.21942E-01 43048   0.122E+00    0.527E+00
DAV:  21    -0.385779265976E+03   -0.81746E+00   -0.69359E-01 45904   0.133E+00    0.413E+00
DAV:  22    -0.386647328862E+03   -0.86806E+00   -0.63743E-01 43064   0.148E+00    0.294E+00
DAV:  23    -0.386868911144E+03   -0.22158E+00   -0.14407E-01 44952   0.802E-01    0.208E+00
DAV:  24    -0.387123821049E+03   -0.25491E+00   -0.12651E-01 43560   0.701E-01    0.172E+00
DAV:  25    -0.387487818904E+03   -0.36400E+00   -0.35173E-01 42432   0.903E-01    0.331E+00
DAV:  26    -0.387585830790E+03   -0.98012E-01   -0.21099E-01 45104   0.825E-01    0.147E+00
DAV:  27    -0.387613309068E+03   -0.27478E-01   -0.57667E-02 43328   0.514E-01    0.169E+00
DAV:  28    -0.387616260148E+03   -0.29511E-02   -0.28593E-02 45040   0.348E-01    0.754E-01
DAV:  29    -0.387617214350E+03   -0.95420E-03   -0.67618E-03 46752   0.215E-01    0.544E-01
DAV:  30    -0.387616898094E+03    0.31626E-03   -0.29807E-03 44952   0.139E-01    0.342E-01
DAV:  31    -0.387617548356E+03   -0.65026E-03   -0.31167E-03 43968   0.102E-01    0.433E-01
DAV:  32    -0.387617280962E+03    0.26739E-03   -0.10732E-03 45792   0.768E-02    0.274E-01
DAV:  33    -0.387617286127E+03   -0.51645E-05   -0.25614E-04 45904   0.437E-02    0.204E-01
DAV:  34    -0.387617314708E+03   -0.28582E-04   -0.19030E-04 42624   0.356E-02    0.148E-01
DAV:  35    -0.387617323980E+03   -0.92719E-05   -0.10284E-04 37936   0.261E-02    0.845E-02
DAV:  36    -0.387617356144E+03   -0.32164E-04   -0.57159E-05 34576   0.211E-02    0.512E-02
DAV:  37    -0.387617366135E+03   -0.99904E-05   -0.21198E-05 27552   0.136E-02
   1 F= -.38761737E+03 E0= -.38760495E+03  d E =-.387617E+03  mag=    34.0060
       N       E                     dE             d eps       ncg     rms          rms(c)
DAV:   1    -0.387618640804E+03   -0.12847E-02   -0.12249E-03 37096   0.979E-02    0.267E-02
DAV:   2    -0.387618715849E+03   -0.75045E-04   -0.57698E-04 38896   0.350E-02    0.203E-01
DAV:   3    -0.387618640453E+03    0.75396E-04   -0.13905E-04 29888   0.218E-02    0.937E-02
DAV:   4    -0.387618647197E+03   -0.67442E-05   -0.14686E-05 21440   0.911E-03
   2 F= -.38761865E+03 E0= -.38760621E+03  d E =-.128106E-02  mag=    34.0043
       N       E                     dE             d eps       ncg     rms          rms(c)
DAV:   1    -0.387649743862E+03   -0.31103E-01   -0.13653E+00 36848   0.325E+00    0.415E-01
DAV:   2    -0.387659154617E+03   -0.94108E-02   -0.92950E-02 35920   0.599E-01    0.863E-01
DAV:   3    -0.387659474792E+03   -0.32017E-03   -0.20389E-02 54632   0.260E-01    0.937E-01
DAV:   4    -0.387658804298E+03    0.67049E-03   -0.11279E-02 47456   0.175E-01    0.459E-01
DAV:   5    -0.387658663335E+03    0.14096E-03   -0.23459E-03 48536   0.947E-02    0.135E-01
DAV:   6    -0.387658821793E+03   -0.15846E-03   -0.48561E-04 46728   0.589E-02    0.173E-01
DAV:   7    -0.387658780591E+03    0.41202E-04   -0.38920E-04 47344   0.532E-02    0.954E-02
DAV:   8    -0.387658795021E+03   -0.14430E-04   -0.25888E-04 43280   0.386E-02    0.890E-02
DAV:   9    -0.387658788001E+03    0.70203E-05   -0.12053E-04 33216   0.272E-02    0.429E-02
DAV:  10    -0.387658788822E+03   -0.82074E-06   -0.20299E-05 27016   0.143E-02
   3 F= -.38765879E+03 E0= -.38764639E+03  d E =-.401416E-01  mag=    34.0012
       N       E                     dE             d eps       ncg     rms          rms(c)
DAV:   1    -0.387682501749E+03   -0.23714E-01   -0.92290E+00 36584   0.838E+00    0.107E+00
DAV:   2    -0.387744747310E+03   -0.62246E-01   -0.62964E-01 35848   0.152E+00    0.194E+00
DAV:   3    -0.387751093158E+03   -0.63458E-02   -0.16591E-01 54360   0.647E-01    0.267E+00
DAV:   4    -0.387742511912E+03    0.85812E-02   -0.96667E-02 48736   0.440E-01    0.940E-01
DAV:   5    -0.387743466581E+03   -0.95467E-03   -0.79762E-03 49640   0.218E-01    0.504E-01
DAV:   6    -0.387743996973E+03   -0.53039E-03   -0.48792E-03 49048   0.166E-01    0.501E-01
DAV:   7    -0.387743732919E+03    0.26405E-03   -0.40755E-03 49216   0.140E-01    0.353E-01
DAV:   8    -0.387743699925E+03    0.32994E-04   -0.14065E-03 48968   0.907E-02    0.240E-01
DAV:   9    -0.387743703173E+03   -0.32482E-05   -0.94322E-04 49104   0.661E-02    0.170E-01
DAV:  10    -0.387743723225E+03   -0.20052E-04   -0.35982E-04 42552   0.471E-02    0.128E-01
DAV:  11    -0.387743712998E+03    0.10227E-04   -0.11596E-04 34400   0.312E-02    0.838E-02
DAV:  12    -0.387743720321E+03   -0.73227E-05   -0.18944E-04 31520   0.211E-02    0.577E-02
DAV:  13    -0.387743730623E+03   -0.10302E-04   -0.32569E-05 30104   0.178E-02    0.411E-02
DAV:  14    -0.387743731476E+03   -0.85319E-06   -0.14383E-05 22392   0.103E-02
   4 F= -.38774373E+03 E0= -.38773127E+03  d E =-.849427E-01  mag=    34.0003
       N       E                     dE             d eps       ncg     rms          rms(c)
DAV:   1    -0.387701254366E+03    0.42476E-01   -0.18754E+01 36776   0.118E+01    0.149E+00
DAV:   2    -0.387821586821E+03   -0.12033E+00   -0.12259E+00 35848   0.213E+00    0.212E+00
DAV:   3    -0.387845463812E+03   -0.23877E-01   -0.36266E-01 54720   0.910E-01    0.414E+00
DAV:   4    -0.387823641680E+03    0.21822E-01   -0.30154E-01 49376   0.660E-01    0.197E+00
DAV:   5    -0.387821644354E+03    0.19973E-02   -0.21657E-02 47680   0.387E-01    0.708E-01
DAV:   6    -0.387823624675E+03   -0.19803E-02   -0.10678E-02 49440   0.251E-01    0.736E-01
DAV:   7    -0.387823550912E+03    0.73763E-04   -0.12370E-02 49896   0.209E-01    0.610E-01
DAV:   8    -0.387823375952E+03    0.17496E-03   -0.25240E-03 47824   0.143E-01    0.481E-01
DAV:   9    -0.387823108418E+03    0.26753E-03   -0.21286E-03 50048   0.957E-02    0.208E-01
DAV:  10    -0.387823313094E+03   -0.20468E-03   -0.13076E-03 48456   0.857E-02    0.247E-01
DAV:  11    -0.387823315010E+03   -0.19159E-05   -0.60188E-04 47456   0.621E-02    0.205E-01
DAV:  12    -0.387823278964E+03    0.36046E-04   -0.45150E-04 39632   0.429E-02    0.942E-02
DAV:  13    -0.387823316834E+03   -0.37870E-04   -0.13660E-04 33288   0.300E-02    0.838E-02
DAV:  14    -0.387823317278E+03   -0.44400E-06   -0.48882E-05 28968   0.188E-02
   5 F= -.38782332E+03 E0= -.38781078E+03  d E =-.795858E-01  mag=    34.0001
       N       E                     dE             d eps       ncg     rms          rms(c)
DAV:   1    -0.387758722683E+03    0.64594E-01   -0.22574E+01 36960   0.127E+01    0.138E+00
DAV:   2    -0.387869825407E+03   -0.11110E+00   -0.11462E+00 35344   0.224E+00    0.135E+00
DAV:   3    -0.387894066026E+03   -0.24241E-01   -0.29384E-01 54688   0.756E-01    0.363E+00
DAV:   4    -0.387869261774E+03    0.24804E-01   -0.12257E-01 48384   0.582E-01    0.107E+00
DAV:   5    -0.387872784950E+03   -0.35232E-02   -0.12777E-02 50584   0.276E-01    0.439E-01
DAV:   6    -0.387873909291E+03   -0.11243E-02   -0.67053E-03 49368   0.192E-01    0.678E-01
DAV:   7    -0.387873419172E+03    0.49012E-03   -0.42402E-03 49184   0.173E-01    0.480E-01
DAV:   8    -0.387873615761E+03   -0.19659E-03   -0.36746E-03 50200   0.144E-01    0.506E-01
DAV:   9    -0.387873290274E+03    0.32549E-03   -0.21640E-03 47488   0.114E-01    0.181E-01
DAV:  10    -0.387873400118E+03   -0.10984E-03   -0.38126E-04 45496   0.549E-02    0.134E-01
DAV:  11    -0.387873388481E+03    0.11638E-04   -0.16899E-04 35144   0.344E-02    0.801E-02
DAV:  12    -0.387873405866E+03   -0.17385E-04   -0.24148E-04 33096   0.281E-02    0.986E-02
DAV:  13    -0.387873404845E+03    0.10208E-05   -0.77769E-05 31008   0.239E-02
   6 F= -.38787340E+03 E0= -.38786078E+03  d E =-.500876E-01  mag=    34.0000
       N       E                     dE             d eps       ncg     rms          rms(c)
DAV:   1    -0.387767623694E+03    0.10578E+00   -0.40887E+01 36880   0.160E+01    0.147E+00
DAV:   2    -0.387924565006E+03   -0.15694E+00   -0.15899E+00 35832   0.283E+00    0.336E+00
DAV:   3    -0.387931303739E+03   -0.67387E-02   -0.58434E-01 53776   0.991E-01    0.337E+00
DAV:   4    -0.387918091760E+03    0.13212E-01   -0.11731E-01 48744   0.624E-01    0.179E+00
DAV:   5    -0.387915429834E+03    0.26619E-02   -0.21231E-02 50736   0.354E-01    0.984E-01
DAV:   6    -0.387915608249E+03   -0.17841E-03   -0.14621E-02 50496   0.252E-01    0.808E-01
DAV:   7    -0.387916543554E+03   -0.93530E-03   -0.12827E-02 48328   0.224E-01    0.104E+00
DAV:   8    -0.387915742613E+03    0.80094E-03   -0.59702E-03 47584   0.181E-01    0.892E-01
DAV:   9    -0.387914720280E+03    0.10223E-02   -0.77736E-03 50144   0.144E-01    0.260E-01
DAV:  10    -0.387915330419E+03   -0.61014E-03   -0.16120E-03 46480   0.102E-01    0.295E-01
DAV:  11    -0.387915263852E+03    0.66567E-04   -0.90573E-04 49344   0.713E-02    0.971E-02
DAV:  12    -0.387915309830E+03   -0.45978E-04   -0.26996E-04 40840   0.317E-02    0.128E-01
DAV:  13    -0.387915299725E+03    0.10105E-04   -0.57926E-05 31952   0.234E-02    0.102E-01
DAV:  14    -0.387915294804E+03    0.49211E-05   -0.30284E-05 26704   0.150E-02
   7 F= -.38791529E+03 E0= -.38790247E+03  d E =-.418900E-01  mag=    34.0000
       N       E                     dE             d eps       ncg     rms          rms(c)
DAV:   1    -0.387351841319E+03    0.56346E+00   -0.14233E+02 36720   0.319E+01    0.286E+00
DAV:   2    -0.387949849101E+03   -0.59801E+00   -0.61103E+00 34944   0.565E+00    0.251E+00
DAV:   3    -0.388018943265E+03   -0.69094E-01   -0.89579E-01 53048   0.167E+00    0.591E+00
DAV:   4    -0.387959770176E+03    0.59173E-01   -0.67190E-01 50000   0.110E+00    0.299E+00
DAV:   5    -0.387957622630E+03    0.21475E-02   -0.12048E-01 50576   0.619E-01    0.108E+00
DAV:   6    -0.387960034675E+03   -0.24120E-02   -0.25908E-02 50144   0.413E-01    0.118E+00
DAV:   7    -0.387958447760E+03    0.15869E-02   -0.21295E-02 48160   0.347E-01    0.101E+00
DAV:   8    -0.387958087992E+03    0.35977E-03   -0.13358E-02 48816   0.307E-01    0.850E-01
DAV:   9    -0.387957575293E+03    0.51270E-03   -0.96409E-03 48280   0.200E-01    0.252E-01
DAV:  10    -0.387958144565E+03   -0.56927E-03   -0.13571E-03 44912   0.990E-02    0.229E-01
DAV:  11    -0.387958077029E+03    0.67536E-04   -0.56035E-04 48576   0.608E-02    0.154E-01
DAV:  12    -0.387958065678E+03    0.11351E-04   -0.46242E-04 41272   0.471E-02    0.139E-01
DAV:  13    -0.387958107469E+03   -0.41791E-04   -0.45178E-04 44456   0.465E-02    0.169E-01
DAV:  14    -0.387958094839E+03    0.12630E-04   -0.25462E-04 32136   0.374E-02    0.548E-02
DAV:  15    -0.387958117468E+03   -0.22628E-04   -0.48247E-05 29056   0.187E-02    0.614E-02
DAV:  16    -0.387958114139E+03    0.33288E-05   -0.11105E-05 24064   0.126E-02
   8 F= -.38795811E+03 E0= -.38794477E+03  d E =-.428193E-01  mag=    34.0000
       N       E                     dE             d eps       ncg     rms          rms(c)
DAV:   1    -0.387579608455E+03    0.37851E+00   -0.74149E+01 37104   0.237E+01    0.243E+00
DAV:   2    -0.387970470180E+03   -0.39086E+00   -0.39772E+00 35896   0.427E+00    0.320E+00
DAV:   3    -0.388029104999E+03   -0.58635E-01   -0.11923E+00 49408   0.155E+00    0.462E+00
DAV:   4    -0.387980299884E+03    0.48805E-01   -0.27074E-01 49696   0.101E+00    0.249E+00
DAV:   5    -0.387975431934E+03    0.48679E-02   -0.42198E-02 51256   0.463E-01    0.123E+00
DAV:   6    -0.387977120086E+03   -0.16882E-02   -0.43878E-02 51640   0.367E-01    0.140E+00
DAV:   7    -0.387980803840E+03   -0.36838E-02   -0.37325E-02 48184   0.382E-01    0.217E+00
DAV:   8    -0.387975177860E+03    0.56260E-02   -0.14146E-02 47720   0.294E-01    0.142E+00
DAV:   9    -0.387973226403E+03    0.19515E-02   -0.28713E-02 51584   0.288E-01    0.452E-01
DAV:  10    -0.387975242603E+03   -0.20162E-02   -0.34981E-03 45704   0.174E-01    0.513E-01
DAV:  11    -0.387974875770E+03    0.36683E-03   -0.31482E-03 49448   0.124E-01    0.242E-01
DAV:  12    -0.387974940325E+03   -0.64555E-04   -0.71678E-04 46992   0.675E-02    0.225E-01
DAV:  13    -0.387974860624E+03    0.79701E-04   -0.47707E-04 44704   0.470E-02    0.926E-02
DAV:  14    -0.387974906356E+03   -0.45733E-04   -0.33644E-04 38456   0.399E-02    0.101E-01
DAV:  15    -0.387974899604E+03    0.67525E-05   -0.15456E-04 33176   0.316E-02    0.574E-02
DAV:  16    -0.387974900964E+03   -0.13600E-05   -0.27856E-05 27504   0.162E-02
   9 F= -.38797490E+03 E0= -.38796164E+03  d E =-.167868E-01  mag=    34.0000
       N       E                     dE             d eps       ncg     rms          rms(c)
DAV:   1    -0.387904246408E+03    0.70653E-01   -0.69362E+00 38552   0.846E+00    0.148E+00
DAV:   2    -0.388028348408E+03   -0.12410E+00   -0.12521E+00 39192   0.183E+00    0.422E+00
DAV:   3    -0.387994875029E+03    0.33473E-01   -0.39007E-01 46896   0.105E+00    0.195E+00
DAV:   4    -0.388001810300E+03   -0.69353E-02   -0.87631E-02 49792   0.593E-01    0.133E+00
DAV:   5    -0.388001119379E+03    0.69092E-03   -0.18494E-02 48912   0.317E-01    0.608E-01
DAV:   6    -0.388001589233E+03   -0.46985E-03   -0.65032E-03 48712   0.182E-01    0.551E-01
DAV:   7    -0.388002764399E+03   -0.11752E-02   -0.16564E-02 49872   0.205E-01    0.894E-01
DAV:   8    -0.388001426375E+03    0.13380E-02   -0.39211E-03 46448   0.145E-01    0.406E-01
DAV:   9    -0.388001650300E+03   -0.22392E-03   -0.40426E-03 47128   0.103E-01    0.243E-01
DAV:  10    -0.388001771922E+03   -0.12162E-03   -0.68720E-04 46296   0.754E-02    0.176E-01
DAV:  11    -0.388001755047E+03    0.16875E-04   -0.41998E-04 46824   0.450E-02    0.997E-02
DAV:  12    -0.388001765840E+03   -0.10793E-04   -0.16617E-04 34112   0.316E-02    0.710E-02
DAV:  13    -0.388001773323E+03   -0.74824E-05   -0.47939E-05 31888   0.221E-02
  10 F= -.38800177E+03 E0= -.38798848E+03  d E =-.268724E-01  mag=    34.0000
       N       E                     dE             d eps       ncg     rms          rms(c)
DAV:   1    -0.387993726681E+03    0.80392E-02   -0.10013E+00 38184   0.315E+00    0.502E-01
DAV:   2    -0.388007576150E+03   -0.13849E-01   -0.13279E-01 36968   0.626E-01    0.145E+00
DAV:   3    -0.388005102391E+03    0.24738E-02   -0.42645E-02 46904   0.333E-01    0.815E-01
DAV:   4    -0.388005761303E+03   -0.65891E-03   -0.10104E-02 45128   0.191E-01    0.375E-01
DAV:   5    -0.388005759682E+03    0.16205E-05   -0.20923E-03 49360   0.975E-02    0.229E-01
DAV:   6    -0.388005816043E+03   -0.56361E-04   -0.88820E-04 46088   0.667E-02    0.197E-01
DAV:   7    -0.388005824643E+03   -0.86001E-05   -0.66756E-04 46904   0.632E-02    0.148E-01
DAV:   8    -0.388005820641E+03    0.40020E-05   -0.25849E-04 42792   0.432E-02    0.886E-02
DAV:   9    -0.388005821601E+03   -0.95941E-06   -0.12480E-04 32872   0.281E-02    0.492E-02
DAV:  10    -0.388005820924E+03    0.67712E-06   -0.38381E-05 29624   0.178E-02
  11 F= -.38800582E+03 E0= -.38799248E+03  d E =-.404760E-02  mag=    34.0000
       N       E                     dE             d eps       ncg     rms          rms(c)
DAV:   1    -0.388004545709E+03    0.12759E-02   -0.59225E-01 37656   0.241E+00    0.258E-01
DAV:   2    -0.388008333563E+03   -0.37879E-02   -0.37787E-02 35512   0.427E-01    0.422E-01
DAV:   3    -0.388008872735E+03   -0.53917E-03   -0.10295E-02 49320   0.158E-01    0.707E-01
DAV:   4    -0.388008178498E+03    0.69424E-03   -0.56619E-03 44928   0.123E-01    0.179E-01
DAV:   5    -0.388008352770E+03   -0.17427E-03   -0.47483E-04 43944   0.513E-02    0.913E-02
DAV:   6    -0.388008369920E+03   -0.17150E-04   -0.10489E-04 36912   0.294E-02    0.861E-02
DAV:   7    -0.388008381821E+03   -0.11901E-04   -0.20106E-04 33216   0.336E-02    0.113E-01
DAV:   8    -0.388008370079E+03    0.11742E-04   -0.14407E-04 31432   0.301E-02    0.623E-02
DAV:   9    -0.388008371231E+03   -0.11521E-05   -0.38102E-05 27112   0.188E-02
  12 F= -.38800837E+03 E0= -.38799503E+03  d E =-.255031E-02  mag=    34.0000
       N       E                     dE             d eps       ncg     rms          rms(c)
DAV:   1    -0.388000411197E+03    0.79589E-02   -0.29651E+00 36976   0.504E+00    0.449E-01
DAV:   2    -0.388013355824E+03   -0.12945E-01   -0.13233E-01 35024   0.875E-01    0.239E-01
DAV:   3    -0.388014022476E+03   -0.66665E-03   -0.34531E-03 48728   0.159E-01    0.304E-01
DAV:   4    -0.388013946711E+03    0.75764E-04   -0.25066E-03 52936   0.947E-02    0.256E-01
DAV:   5    -0.388013969309E+03   -0.22598E-04   -0.21000E-03 47208   0.735E-02    0.294E-01
DAV:   6    -0.388013923224E+03    0.46085E-04   -0.12020E-03 47016   0.715E-02    0.240E-01
DAV:   7    -0.388013868065E+03    0.55160E-04   -0.65524E-04 45840   0.603E-02    0.128E-01
DAV:   8    -0.388013908049E+03   -0.39985E-04   -0.26396E-04 40704   0.398E-02    0.825E-02
DAV:   9    -0.388013902514E+03    0.55354E-05   -0.85136E-05 31728   0.233E-02
  13 F= -.38801390E+03 E0= -.38800056E+03  d E =-.553128E-02  mag=    34.0000
       N       E                     dE             d eps       ncg     rms          rms(c)
DAV:   1    -0.387936465488E+03    0.77443E-01   -0.20333E+01 37128   0.130E+01    0.116E+00
DAV:   2    -0.388024579669E+03   -0.88114E-01   -0.89887E-01 34944   0.226E+00    0.126E+00
DAV:   3    -0.388042990110E+03   -0.18410E-01   -0.25220E-01 49728   0.715E-01    0.326E+00
DAV:   4    -0.388022552358E+03    0.20438E-01   -0.10514E-01 49608   0.528E-01    0.879E-01
DAV:   5    -0.388026298415E+03   -0.37461E-02   -0.76964E-03 51352   0.206E-01    0.360E-01
DAV:   6    -0.388027289522E+03   -0.99111E-03   -0.41033E-03 48376   0.168E-01    0.654E-01
DAV:   7    -0.388026997869E+03    0.29165E-03   -0.61388E-03 49376   0.184E-01    0.586E-01
DAV:   8    -0.388026746497E+03    0.25137E-03   -0.17223E-03 47376   0.126E-01    0.312E-01
DAV:   9    -0.388026776358E+03   -0.29861E-04   -0.12493E-03 46704   0.790E-02    0.133E-01
DAV:  10    -0.388026850348E+03   -0.73990E-04   -0.31290E-04 43160   0.470E-02    0.927E-02
DAV:  11    -0.388026845887E+03    0.44603E-05   -0.11670E-04 32280   0.269E-02    0.645E-02
DAV:  12    -0.388026846741E+03   -0.85394E-06   -0.41158E-05 30024   0.191E-02
  14 F= -.38802685E+03 E0= -.38801353E+03  d E =-.129442E-01  mag=    34.0000
       N       E                     dE             d eps       ncg     rms          rms(c)
DAV:   1    -0.387675731750E+03    0.35111E+00   -0.48099E+01 37752   0.195E+01    0.235E+00
DAV:   2    -0.388002164183E+03   -0.32643E+00   -0.32419E+00 35496   0.354E+00    0.207E+00
DAV:   3    -0.388045166340E+03   -0.43002E-01   -0.46061E-01 50512   0.118E+00    0.393E+00
DAV:   4    -0.388015302659E+03    0.29864E-01   -0.24439E-01 48712   0.854E-01    0.162E+00
DAV:   5    -0.388018251450E+03   -0.29488E-02   -0.39520E-02 50872   0.402E-01    0.103E+00
DAV:   6    -0.388018964257E+03   -0.71281E-03   -0.14848E-02 48952   0.303E-01    0.896E-01
DAV:   7    -0.388019500336E+03   -0.53608E-03   -0.17572E-02 49288   0.313E-01    0.103E+00
DAV:   8    -0.388018080189E+03    0.14201E-02   -0.19321E-02 49152   0.245E-01    0.423E-01
DAV:   9    -0.388018806756E+03   -0.72657E-03   -0.29127E-03 49552   0.157E-01    0.345E-01
DAV:  10    -0.388018661336E+03    0.14542E-03   -0.11634E-03 48912   0.961E-02    0.217E-01
DAV:  11    -0.388018596658E+03    0.64677E-04   -0.77643E-04 49312   0.642E-02    0.138E-01
DAV:  12    -0.388018623798E+03   -0.27140E-04   -0.32319E-04 44576   0.412E-02    0.111E-01
DAV:  13    -0.388018617481E+03    0.63174E-05   -0.28638E-04 34184   0.361E-02    0.796E-02
DAV:  14    -0.388018621980E+03   -0.44994E-05   -0.73925E-05 31528   0.259E-02
  15 F= -.38801862E+03 E0= -.38800542E+03  d E =0.822476E-02  mag=    34.0000
       N       E                     dE             d eps       ncg     rms          rms(c)
DAV:   1    -0.387927554389E+03    0.91063E-01   -0.81608E+00 38184   0.879E+00    0.161E+00
DAV:   2    -0.388075209541E+03   -0.14766E+00   -0.14904E+00 38664   0.194E+00    0.427E+00
DAV:   3    -0.388042049208E+03    0.33160E-01   -0.45583E-01 47272   0.113E+00    0.223E+00
DAV:   4    -0.388047037389E+03   -0.49882E-02   -0.11057E-01 49368   0.646E-01    0.139E+00
DAV:   5    -0.388046737174E+03    0.30022E-03   -0.21595E-02 49464   0.367E-01    0.792E-01
DAV:   6    -0.388046928137E+03   -0.19096E-03   -0.10738E-02 48888   0.215E-01    0.645E-01
DAV:   7    -0.388047700412E+03   -0.77228E-03   -0.15977E-02 49296   0.215E-01    0.801E-01
DAV:   8    -0.388047034083E+03    0.66633E-03   -0.27706E-03 46968   0.145E-01    0.478E-01
DAV:   9    -0.388046936951E+03    0.97132E-04   -0.45933E-03 48952   0.118E-01    0.209E-01
DAV:  10    -0.388047174444E+03   -0.23749E-03   -0.75330E-04 45832   0.752E-02    0.239E-01
DAV:  11    -0.388047102771E+03    0.71673E-04   -0.50289E-04 48200   0.553E-02    0.903E-02
DAV:  12    -0.388047124014E+03   -0.21242E-04   -0.16263E-04 36288   0.292E-02    0.648E-02
DAV:  13    -0.388047127199E+03   -0.31851E-05   -0.46940E-05 31320   0.198E-02
  16 F= -.38804713E+03 E0= -.38803382E+03  d E =-.285052E-01  mag=    34.0000
       N       E                     dE             d eps       ncg     rms          rms(c)
DAV:   1    -0.388028704408E+03    0.18420E-01   -0.15793E+00 38056   0.367E+00    0.658E-01
DAV:   2    -0.388053012646E+03   -0.24308E-01   -0.23216E-01 38304   0.773E-01    0.197E+00
DAV:   3    -0.388047470296E+03    0.55423E-02   -0.76859E-02 46872   0.456E-01    0.982E-01
DAV:   4    -0.388049052476E+03   -0.15822E-02   -0.16014E-02 46480   0.256E-01    0.520E-01
DAV:   5    -0.388048966266E+03    0.86210E-04   -0.34340E-03 49240   0.133E-01    0.303E-01
DAV:   6    -0.388049039411E+03   -0.73145E-04   -0.14831E-03 47592   0.862E-02    0.251E-01
DAV:   7    -0.388049067785E+03   -0.28374E-04   -0.11390E-03 47176   0.811E-02    0.212E-01
DAV:   8    -0.388049040929E+03    0.26855E-04   -0.40777E-04 46856   0.596E-02    0.118E-01
DAV:   9    -0.388049053302E+03   -0.12372E-04   -0.29204E-04 38448   0.385E-02    0.704E-02
DAV:  10    -0.388049053185E+03    0.11669E-06   -0.73801E-05 32912   0.239E-02
  17 F= -.38804905E+03 E0= -.38803572E+03  d E =-.192599E-02  mag=    34.0000
       N       E                     dE             d eps       ncg     rms          rms(c)
DAV:   1    -0.388048012793E+03    0.10405E-02   -0.90032E-02 38000   0.106E+00    0.121E-01
DAV:   2    -0.388048822673E+03   -0.80988E-03   -0.78723E-03 35744   0.201E-01    0.201E-01
DAV:   3    -0.388048880147E+03   -0.57474E-04   -0.10400E-03 48032   0.812E-02    0.247E-01
DAV:   4    -0.388048822417E+03    0.57730E-04   -0.62018E-04 38792   0.542E-02    0.145E-01
DAV:   5    -0.388048825495E+03   -0.30772E-05   -0.26547E-04 30904   0.284E-02    0.599E-02
DAV:   6    -0.388048834518E+03   -0.90231E-05   -0.84952E-05 28352   0.181E-02
  18 F= -.38804883E+03 E0= -.38803551E+03  d E =0.218667E-03  mag=    34.0000
       N       E                     dE             d eps       ncg     rms          rms(c)
DAV:   1    -0.388041700044E+03    0.71255E-02   -0.10046E+00 37216   0.311E+00    0.297E-01
DAV:   2    -0.388047137347E+03   -0.54373E-02   -0.55156E-02 34992   0.559E-01    0.217E-01
DAV:   3    -0.388047847655E+03   -0.71031E-03   -0.34495E-03 50136   0.150E-01    0.577E-01
DAV:   4    -0.388047175634E+03    0.67202E-03   -0.21394E-03 46456   0.116E-01    0.157E-01
DAV:   5    -0.388047404374E+03   -0.22874E-03   -0.79597E-04 42888   0.536E-02    0.203E-01
DAV:   6    -0.388047380462E+03    0.23913E-04   -0.93687E-04 40600   0.470E-02    0.165E-01
DAV:   7    -0.388047358737E+03    0.21725E-04   -0.44433E-04 41848   0.451E-02    0.796E-02
DAV:   8    -0.388047377743E+03   -0.19006E-04   -0.20124E-04 38032   0.331E-02    0.820E-02
DAV:   9    -0.388047369249E+03    0.84940E-05   -0.69210E-05 30416   0.237E-02
  19 F= -.38804737E+03 E0= -.38803406E+03  d E =0.146527E-02  mag=    34.0000
       N       E                     dE             d eps       ncg     rms          rms(c)
DAV:   1    -0.388043199353E+03    0.41784E-02   -0.81586E-01 36928   0.262E+00    0.235E-01
DAV:   2    -0.388046858933E+03   -0.36596E-02   -0.36940E-02 34976   0.462E-01    0.277E-01
DAV:   3    -0.388047611657E+03   -0.75272E-03   -0.93200E-03 49408   0.152E-01    0.727E-01
DAV:   4    -0.388046617831E+03    0.99383E-03   -0.46532E-03 46136   0.115E-01    0.110E-01
DAV:   5    -0.388046898912E+03   -0.28108E-03   -0.22749E-04 43768   0.414E-02    0.861E-02
DAV:   6    -0.388046924598E+03   -0.25686E-04   -0.17350E-04 36928   0.321E-02    0.101E-01
DAV:   7    -0.388046919396E+03    0.52028E-05   -0.15422E-04 34816   0.327E-02    0.897E-02
DAV:   8    -0.388046916331E+03    0.30650E-05   -0.93120E-05 31280   0.260E-02
  20 F= -.38804692E+03 E0= -.38803355E+03  d E =0.452918E-03  mag=    34.0000
       N       E                     dE             d eps       ncg     rms          rms(c)
DAV:   1    -0.387828191801E+03    0.21873E+00   -0.50992E+01 36816   0.201E+01    0.178E+00
DAV:   2    -0.388046073414E+03   -0.21788E+00   -0.22155E+00 34944   0.353E+00    0.190E+00
DAV:   3    -0.388084269548E+03   -0.38196E-01   -0.57755E-01 50696   0.112E+00    0.399E+00
DAV:   4    -0.388047731464E+03    0.36538E-01   -0.16957E-01 49664   0.794E-01    0.155E+00
DAV:   5    -0.388050089072E+03   -0.23576E-02   -0.21308E-02 52408   0.334E-01    0.669E-01
DAV:   6    -0.388052779835E+03   -0.26908E-02   -0.26406E-02 51360   0.283E-01    0.126E+00
DAV:   7    -0.388051858403E+03    0.92143E-03   -0.91619E-03 48024   0.244E-01    0.103E+00
DAV:   8    -0.388050903697E+03    0.95471E-03   -0.53672E-03 49344   0.195E-01    0.643E-01
DAV:   9    -0.388050966697E+03   -0.63000E-04   -0.82080E-03 48984   0.159E-01    0.319E-01
DAV:  10    -0.388051212659E+03   -0.24596E-03   -0.10419E-03 43800   0.887E-02    0.243E-01
DAV:  11    -0.388051123877E+03    0.88782E-04   -0.70578E-04 46656   0.558E-02    0.112E-01
DAV:  12    -0.388051144191E+03   -0.20314E-04   -0.16026E-04 37688   0.331E-02    0.856E-02
DAV:  13    -0.388051148913E+03   -0.47224E-05   -0.10827E-04 32440   0.250E-02    0.396E-02
DAV:  14    -0.388051167936E+03   -0.19022E-04   -0.60215E-05 30504   0.187E-02    0.462E-02
DAV:  15    -0.388051167699E+03    0.23685E-06   -0.24211E-05 26488   0.149E-02
  21 F= -.38805117E+03 E0= -.38803777E+03  d E =-.425137E-02  mag=    34.0000
       N       E                     dE             d eps       ncg     rms          rms(c)
DAV:   1    -0.386865304448E+03    0.11859E+01   -0.79600E+01 37856   0.329E+01    0.486E+00
DAV:   2    -0.388108092092E+03   -0.12428E+01   -0.12565E+01 36120   0.688E+00    0.126E+01
DAV:   3    -0.387972509952E+03    0.13558E+00   -0.69797E+00 47496   0.295E+00    0.565E+00
DAV:   4    -0.388032550712E+03   -0.60041E-01   -0.81963E-01 49136   0.198E+00    0.656E+00
DAV:   5    -0.388033595315E+03   -0.10446E-02   -0.16298E+00 48824   0.146E+00    0.582E+00
DAV:   6    -0.387983644844E+03    0.49950E-01   -0.43475E-01 47840   0.919E-01    0.275E+00
DAV:   7    -0.387980771533E+03    0.28733E-02   -0.78183E-02 50080   0.781E-01    0.181E+00
DAV:   8    -0.387980187480E+03    0.58405E-03   -0.36580E-02 49776   0.542E-01    0.998E-01
DAV:   9    -0.387984147758E+03   -0.39603E-02   -0.24851E-02 50080   0.360E-01    0.119E+00
DAV:  10    -0.387983792701E+03    0.35506E-03   -0.29378E-02 50240   0.374E-01    0.944E-01
DAV:  11    -0.387983674893E+03    0.11781E-03   -0.15421E-02 50656   0.314E-01    0.778E-01
DAV:  12    -0.387983204165E+03    0.47073E-03   -0.76108E-03 49616   0.210E-01    0.307E-01
DAV:  13    -0.387983469515E+03   -0.26535E-03   -0.29222E-03 49024   0.145E-01    0.346E-01
DAV:  14    -0.387983361151E+03    0.10836E-03   -0.86304E-04 47104   0.844E-02    0.181E-01
DAV:  15    -0.387983337788E+03    0.23363E-04   -0.50039E-04 43584   0.568E-02    0.145E-01
DAV:  16    -0.387983336148E+03    0.16397E-05   -0.20067E-04 39696   0.384E-02    0.654E-02
DAV:  17    -0.387983323060E+03    0.13089E-04   -0.49336E-05 36016   0.237E-02    0.466E-02
DAV:  18    -0.387983317660E+03    0.53999E-05   -0.38233E-05 28912   0.165E-02
  22 F= -.38798332E+03 E0= -.38796880E+03  d E =0.678500E-01  mag=    34.0000
       N       E                     dE             d eps       ncg     rms          rms(c)
DAV:   1    -0.387843386215E+03    0.13994E+00   -0.14861E+01 38576   0.144E+01    0.209E+00
DAV:   2    -0.388055948021E+03   -0.21256E+00   -0.20815E+00 36464   0.283E+00    0.270E+00
DAV:   3    -0.388080817771E+03   -0.24870E-01   -0.55041E-01 49120   0.132E+00    0.351E+00
DAV:   4    -0.388061760375E+03    0.19057E-01   -0.24252E-01 49000   0.850E-01    0.146E+00
DAV:   5    -0.388064017054E+03   -0.22567E-02   -0.25741E-02 48888   0.376E-01    0.702E-01
DAV:   6    -0.388065600440E+03   -0.15834E-02   -0.10630E-02 49768   0.250E-01    0.802E-01
DAV:   7    -0.388066541927E+03   -0.94149E-03   -0.24082E-02 49552   0.259E-01    0.109E+00
DAV:   8    -0.388066682223E+03   -0.14030E-03   -0.38132E-02 49600   0.299E-01    0.111E+00
DAV:   9    -0.388064952295E+03    0.17299E-02   -0.84004E-03 46208   0.217E-01    0.272E-01
DAV:  10    -0.388065515801E+03   -0.56351E-03   -0.20440E-03 47728   0.101E-01    0.229E-01
DAV:  11    -0.388065525517E+03   -0.97157E-05   -0.73687E-04 47992   0.650E-02    0.112E-01
DAV:  12    -0.388065521467E+03    0.40501E-05   -0.11672E-04 39104   0.329E-02    0.680E-02
DAV:  13    -0.388065516105E+03    0.53617E-05   -0.66673E-05 32296   0.222E-02
  23 F= -.38806552E+03 E0= -.38805157E+03  d E =-.821984E-01  mag=    34.0000
       N       E                     dE             d eps       ncg     rms          rms(c)
DAV:   1    -0.388034577238E+03    0.30944E-01   -0.28580E+00 38584   0.642E+00    0.934E-01
DAV:   2    -0.388076714284E+03   -0.42137E-01   -0.40992E-01 36408   0.126E+00    0.138E+00
DAV:   3    -0.388081603884E+03   -0.48896E-02   -0.10529E-01 48816   0.601E-01    0.181E+00
DAV:   4    -0.388077157849E+03    0.44460E-02   -0.48200E-02 47784   0.395E-01    0.613E-01
DAV:   5    -0.388078322784E+03   -0.11649E-02   -0.65354E-03 48248   0.176E-01    0.358E-01
DAV:   6    -0.388078814074E+03   -0.49129E-03   -0.52824E-03 48936   0.122E-01    0.577E-01
DAV:   7    -0.388078389014E+03    0.42506E-03   -0.29028E-03 47680   0.113E-01    0.269E-01
DAV:   8    -0.388078560913E+03   -0.17190E-03   -0.15455E-03 48280   0.986E-02    0.202E-01
DAV:   9    -0.388078549939E+03    0.10974E-04   -0.53437E-04 48456   0.688E-02    0.103E-01
DAV:  10    -0.388078557254E+03   -0.73150E-05   -0.20553E-04 44648   0.364E-02    0.721E-02
DAV:  11    -0.388078548739E+03    0.85146E-05   -0.67618E-05 32008   0.221E-02
  24 F= -.38807855E+03 E0= -.38806482E+03  d E =-.130326E-01  mag=    34.0000
       N       E                     dE             d eps       ncg     rms          rms(c)
DAV:   1    -0.388058454950E+03    0.20102E-01   -0.14666E+00 38272   0.454E+00    0.628E-01
DAV:   2    -0.388077772075E+03   -0.19317E-01   -0.19014E-01 36120   0.882E-01    0.855E-01
DAV:   3    -0.388080670424E+03   -0.28983E-02   -0.37798E-02 49512   0.391E-01    0.129E+00
DAV:   4    -0.388078125529E+03    0.25449E-02   -0.18897E-02 48608   0.271E-01    0.383E-01
DAV:   5    -0.388078845927E+03   -0.72040E-03   -0.31602E-03 48136   0.115E-01    0.270E-01
DAV:   6    -0.388079002811E+03   -0.15688E-03   -0.21911E-03 47960   0.806E-02    0.357E-01
DAV:   7    -0.388078866077E+03    0.13673E-03   -0.99629E-04 47432   0.735E-02    0.157E-01
DAV:   8    -0.388078935421E+03   -0.69344E-04   -0.56849E-04 48368   0.622E-02    0.123E-01
DAV:   9    -0.388078936021E+03   -0.59966E-06   -0.22996E-04 41304   0.426E-02    0.731E-02
DAV:  10    -0.388078933289E+03    0.27313E-05   -0.78579E-05 31888   0.222E-02
  25 F= -.38807893E+03 E0= -.38806533E+03  d E =-.384550E-03  mag=    34.0000
       N       E                     dE             d eps       ncg     rms          rms(c)
DAV:   1    -0.388074741225E+03    0.41948E-02   -0.39980E-01 36800   0.165E+00    0.192E-01
DAV:   2    -0.388076947641E+03   -0.22064E-02   -0.22653E-02 35728   0.312E-01    0.330E-01
DAV:   3    -0.388077176780E+03   -0.22914E-03   -0.60071E-03 50744   0.121E-01    0.472E-01
DAV:   4    -0.388076889256E+03    0.28752E-03   -0.28189E-03 47496   0.884E-02    0.206E-01
DAV:   5    -0.388076908344E+03   -0.19088E-04   -0.34401E-04 38192   0.468E-02    0.846E-02
DAV:   6    -0.388076938558E+03   -0.30214E-04   -0.12832E-04 33032   0.293E-02    0.943E-02
DAV:   7    -0.388076923135E+03    0.15423E-04   -0.11447E-04 34384   0.295E-02    0.625E-02
DAV:   8    -0.388076922920E+03    0.21484E-06   -0.58623E-05 33704   0.227E-02
  26 F= -.38807692E+03 E0= -.38806332E+03  d E =0.201037E-02  mag=    34.0000
       N       E                     dE             d eps       ncg     rms          rms(c)
DAV:   1    -0.388070405903E+03    0.65172E-02   -0.88680E-01 36424   0.218E+00    0.225E-01
DAV:   2    -0.388073790286E+03   -0.33844E-02   -0.35650E-02 35240   0.402E-01    0.346E-01
DAV:   3    -0.388074192919E+03   -0.40263E-03   -0.80661E-03 51784   0.147E-01    0.602E-01
DAV:   4    -0.388073581756E+03    0.61116E-03   -0.39381E-03 47960   0.106E-01    0.182E-01
DAV:   5    -0.388073693888E+03   -0.11213E-03   -0.31044E-04 43704   0.500E-02    0.826E-02
DAV:   6    -0.388073727632E+03   -0.33744E-04   -0.27248E-04 36768   0.428E-02    0.165E-01
DAV:   7    -0.388073677704E+03    0.49928E-04   -0.27695E-04 42048   0.458E-02    0.113E-01
DAV:   8    -0.388073673702E+03    0.40015E-05   -0.14916E-04 34712   0.291E-02    0.594E-02
DAV:   9    -0.388073676264E+03   -0.25615E-05   -0.48941E-05 28528   0.173E-02
  27 F= -.38807368E+03 E0= -.38806007E+03  d E =0.324666E-02  mag=    34.0000
       N       E                     dE             d eps       ncg     rms          rms(c)
DAV:   1    -0.388067938856E+03    0.57348E-02   -0.72532E-01 36704   0.209E+00    0.202E-01
DAV:   2    -0.388070599879E+03   -0.26610E-02   -0.28186E-02 35024   0.375E-01    0.172E-01
DAV:   3    -0.388070734959E+03   -0.13508E-03   -0.14604E-03 51000   0.105E-01    0.244E-01
DAV:   4    -0.388070640576E+03    0.94384E-04   -0.58177E-04 50080   0.678E-02    0.159E-01
DAV:   5    -0.388070624038E+03    0.16538E-04   -0.22664E-04 35040   0.389E-02    0.917E-02
DAV:   6    -0.388070669166E+03   -0.45129E-04   -0.50891E-04 36840   0.376E-02    0.204E-01
DAV:   7    -0.388070598671E+03    0.70495E-04   -0.66024E-04 41216   0.413E-02    0.898E-02
DAV:   8    -0.388070611051E+03   -0.12380E-04   -0.16526E-04 34408   0.268E-02    0.517E-02
DAV:   9    -0.388070611234E+03   -0.18381E-06   -0.28068E-05 27456   0.158E-02
  28 F= -.38807061E+03 E0= -.38805699E+03  d E =0.306503E-02  mag=    34.0000
       N       E                     dE             d eps       ncg     rms          rms(c)
DAV:   1    -0.388042387096E+03    0.28224E-01   -0.57939E+00 36816   0.627E+00    0.551E-01
DAV:   2    -0.388063330709E+03   -0.20944E-01   -0.22030E-01 34944   0.110E+00    0.407E-01
DAV:   3    -0.388064933991E+03   -0.16033E-02   -0.15664E-02 50648   0.270E-01    0.952E-01
DAV:   4    -0.388063555441E+03    0.13786E-02   -0.14966E-02 50560   0.193E-01    0.497E-01
DAV:   5    -0.388063594499E+03   -0.39058E-04   -0.39898E-03 48712   0.122E-01    0.226E-01
DAV:   6    -0.388063838463E+03   -0.24396E-03   -0.16266E-03 49832   0.102E-01    0.451E-01
DAV:   7    -0.388063409984E+03    0.42848E-03   -0.11688E-03 48336   0.942E-02    0.149E-01
DAV:   8    -0.388063537758E+03   -0.12777E-03   -0.54764E-04 46728   0.610E-02    0.146E-01
DAV:   9    -0.388063518519E+03    0.19238E-04   -0.21907E-04 36504   0.374E-02    0.503E-02
DAV:  10    -0.388063527257E+03   -0.87379E-05   -0.27519E-05 28480   0.174E-02
  29 F= -.38806353E+03 E0= -.38804985E+03  d E =0.708398E-02  mag=    34.0000
       N       E                     dE             d eps       ncg     rms          rms(c)
DAV:   1    -0.387866716324E+03    0.19680E+00   -0.48940E+01 36832   0.188E+01    0.161E+00
DAV:   2    -0.388047625884E+03   -0.18091E+00   -0.18884E+00 34944   0.328E+00    0.171E+00
DAV:   3    -0.388073334432E+03   -0.25709E-01   -0.38707E-01 50864   0.961E-01    0.409E+00
DAV:   4    -0.388045198598E+03    0.28136E-01   -0.23693E-01 49552   0.729E-01    0.166E+00
DAV:   5    -0.388047470280E+03   -0.22717E-02   -0.41421E-02 50448   0.397E-01    0.619E-01
DAV:   6    -0.388050469748E+03   -0.29995E-02   -0.22575E-02 50856   0.291E-01    0.137E+00
DAV:   7    -0.388047386560E+03    0.30832E-02   -0.14506E-02 48808   0.253E-01    0.620E-01
DAV:   8    -0.388047995079E+03   -0.60852E-03   -0.53609E-03 49056   0.209E-01    0.649E-01
DAV:   9    -0.388047439124E+03    0.55595E-03   -0.36142E-03 49568   0.142E-01    0.325E-01
DAV:  10    -0.388047594870E+03   -0.15575E-03   -0.11377E-03 47688   0.794E-02    0.191E-01
DAV:  11    -0.388047604357E+03   -0.94868E-05   -0.48335E-04 45392   0.523E-02    0.120E-01
DAV:  12    -0.388047633109E+03   -0.28752E-04   -0.15574E-04 35304   0.341E-02    0.114E-01
DAV:  13    -0.388047618446E+03    0.14662E-04   -0.16668E-04 31528   0.267E-02    0.411E-02
DAV:  14    -0.388047630140E+03   -0.11693E-04   -0.32517E-05 26864   0.141E-02    0.318E-02
DAV:  15    -0.388047629857E+03    0.28210E-06   -0.12447E-05 19880   0.902E-03
  30 F= -.38804763E+03 E0= -.38803362E+03  d E =0.158974E-01  mag=    34.0000
       N       E                     dE             d eps       ncg     rms          rms(c)
DAV:   1    -0.387996422170E+03    0.51208E-01   -0.98762E+00 36696   0.970E+00    0.924E-01
DAV:   2    -0.388049012351E+03   -0.52590E-01   -0.52867E-01 34944   0.170E+00    0.922E-01
DAV:   3    -0.388056703417E+03   -0.76911E-02   -0.87508E-02 50016   0.554E-01    0.166E+00
DAV:   4    -0.388049982848E+03    0.67206E-02   -0.16196E-02 50000   0.361E-01    0.442E-01
DAV:   5    -0.388051042461E+03   -0.10596E-02   -0.41760E-03 52240   0.153E-01    0.465E-01
DAV:   6    -0.388051780805E+03   -0.73834E-03   -0.71451E-03 48576   0.138E-01    0.722E-01
DAV:   7    -0.388051131836E+03    0.64897E-03   -0.76418E-03 47592   0.132E-01    0.512E-01
DAV:   8    -0.388050964117E+03    0.16772E-03   -0.30015E-03 48528   0.119E-01    0.215E-01
DAV:   9    -0.388051249912E+03   -0.28579E-03   -0.75149E-04 45048   0.736E-02    0.238E-01
DAV:  10    -0.388051108239E+03    0.14167E-03   -0.33169E-04 37152   0.494E-02    0.715E-02
DAV:  11    -0.388051145457E+03   -0.37218E-04   -0.93189E-05 30120   0.234E-02    0.487E-02
DAV:  12    -0.388051152844E+03   -0.73872E-05   -0.33015E-05 28192   0.167E-02
  31 F= -.38805115E+03 E0= -.38803691E+03  d E =-.352299E-02  mag=    34.0000
       N       E                     dE             d eps       ncg     rms          rms(c)
DAV:   1    -0.388037061577E+03    0.14084E-01   -0.49875E+00 37120   0.616E+00    0.676E-01
DAV:   2    -0.388063985518E+03   -0.26924E-01   -0.27541E-01 35496   0.115E+00    0.107E+00
DAV:   3    -0.388066326375E+03   -0.23409E-02   -0.57760E-02 50880   0.448E-01    0.139E+00
DAV:   4    -0.388064098252E+03    0.22281E-02   -0.32158E-02 48344   0.296E-01    0.804E-01
DAV:   5    -0.388063903150E+03    0.19510E-03   -0.82319E-03 50272   0.174E-01    0.429E-01
DAV:   6    -0.388063978483E+03   -0.75333E-04   -0.18115E-03 46728   0.107E-01    0.222E-01
DAV:   7    -0.388063950042E+03    0.28441E-04   -0.10110E-03 45960   0.909E-02    0.189E-01
DAV:   8    -0.388063958892E+03   -0.88496E-05   -0.13967E-03 49408   0.763E-02    0.179E-01
DAV:   9    -0.388063938515E+03    0.20376E-04   -0.26908E-04 47824   0.520E-02    0.754E-02
DAV:  10    -0.388063939749E+03   -0.12340E-05   -0.92429E-05 36840   0.249E-02
  32 F= -.38806394E+03 E0= -.38804981E+03  d E =-.127869E-01  mag=    34.0000
       N       E                     dE             d eps       ncg     rms          rms(c)
DAV:   1    -0.388049471053E+03    0.14467E-01   -0.41276E+00 36624   0.545E+00    0.456E-01
DAV:   2    -0.388064122348E+03   -0.14651E-01   -0.15221E-01 34944   0.943E-01    0.637E-01
DAV:   3    -0.388066276692E+03   -0.21543E-02   -0.36090E-02 50104   0.293E-01    0.132E+00
DAV:   4    -0.388063382833E+03    0.28939E-02   -0.19906E-02 49120   0.223E-01    0.421E-01
DAV:   5    -0.388063930637E+03   -0.54780E-03   -0.23243E-03 49336   0.113E-01    0.203E-01
DAV:   6    -0.388064074084E+03   -0.14345E-03   -0.88307E-04 48896   0.818E-02    0.288E-01
DAV:   7    -0.388063921800E+03    0.15228E-03   -0.67930E-04 48376   0.700E-02    0.153E-01
DAV:   8    -0.388063945146E+03   -0.23346E-04   -0.40224E-04 47528   0.513E-02    0.130E-01
DAV:   9    -0.388063936273E+03    0.88727E-05   -0.17654E-04 34528   0.307E-02    0.585E-02
DAV:  10    -0.388063942153E+03   -0.58802E-05   -0.61804E-05 29584   0.188E-02
  33 F= -.38806394E+03 E0= -.38804973E+03  d E =-.240405E-05  mag=    34.0000
       N       E                     dE             d eps       ncg     rms          rms(c)
DAV:   1    -0.387924093620E+03    0.13984E+00   -0.37141E+01 36528   0.169E+01    0.148E+00
DAV:   2    -0.388072463447E+03   -0.14837E+00   -0.15295E+00 34944   0.297E+00    0.185E+00
DAV:   3    -0.388087368900E+03   -0.14905E-01   -0.25933E-01 49608   0.951E-01    0.329E+00
DAV:   4    -0.388076189154E+03    0.11180E-01   -0.19584E-01 51008   0.651E-01    0.218E+00
DAV:   5    -0.388070086180E+03    0.61030E-02   -0.59312E-02 49696   0.418E-01    0.558E-01
DAV:   6    -0.388073041019E+03   -0.29548E-02   -0.89930E-03 50024   0.235E-01    0.821E-01
DAV:   7    -0.388072755676E+03    0.28534E-03   -0.12233E-02 50040   0.211E-01    0.768E-01
DAV:   8    -0.388072062910E+03    0.69277E-03   -0.51923E-03 48712   0.185E-01    0.405E-01
DAV:   9    -0.388072207859E+03   -0.14495E-03   -0.33398E-03 48512   0.119E-01    0.287E-01
DAV:  10    -0.388072208307E+03   -0.44832E-06   -0.60598E-04 48208   0.704E-02    0.187E-01
DAV:  11    -0.388072205770E+03    0.25374E-05   -0.43153E-04 38992   0.459E-02    0.127E-01
DAV:  12    -0.388072213704E+03   -0.79347E-05   -0.17650E-04 36032   0.343E-02    0.873E-02
DAV:  13    -0.388072220926E+03   -0.72218E-05   -0.81491E-05 29920   0.201E-02
  34 F= -.38807222E+03 E0= -.38805762E+03  d E =-.827877E-02  mag=    34.0000
       N       E                     dE             d eps       ncg     rms          rms(c)
DAV:   1    -0.387288377365E+03    0.78384E+00   -0.65544E+01 37968   0.275E+01    0.350E+00
DAV:   2    -0.387980527956E+03   -0.69215E+00   -0.68366E+00 35736   0.531E+00    0.429E+00
DAV:   3    -0.388071999021E+03   -0.91471E-01   -0.16485E+00 50208   0.201E+00    0.719E+00
DAV:   4    -0.388023981444E+03    0.48018E-01   -0.15045E+00 49336   0.137E+00    0.450E+00
DAV:   5    -0.388013176528E+03    0.10805E-01   -0.43892E-01 49880   0.973E-01    0.268E+00
DAV:   6    -0.388003445116E+03    0.97314E-02   -0.45239E-02 49016   0.569E-01    0.135E+00
DAV:   7    -0.388007344874E+03   -0.38998E-02   -0.43582E-02 50912   0.462E-01    0.169E+00
DAV:   8    -0.388005947660E+03    0.13972E-02   -0.47126E-02 49872   0.413E-01    0.135E+00
DAV:   9    -0.388006529681E+03   -0.58202E-03   -0.35623E-02 49336   0.352E-01    0.122E+00
DAV:  10    -0.388005841040E+03    0.68864E-03   -0.16080E-02 49608   0.359E-01    0.852E-01
DAV:  11    -0.388005142959E+03    0.69808E-03   -0.81201E-03 49840   0.221E-01    0.639E-01
DAV:  12    -0.388005382250E+03   -0.23929E-03   -0.73617E-03 48344   0.192E-01    0.562E-01
DAV:  13    -0.388005037710E+03    0.34454E-03   -0.38000E-03 48448   0.125E-01    0.160E-01
DAV:  14    -0.388005230097E+03   -0.19239E-03   -0.63333E-04 47560   0.725E-02    0.197E-01
DAV:  15    -0.388005161600E+03    0.68497E-04   -0.25041E-04 47232   0.502E-02    0.804E-02
DAV:  16    -0.388005164469E+03   -0.28692E-05   -0.10043E-04 34208   0.210E-02    0.566E-02
DAV:  17    -0.388005154605E+03    0.98643E-05   -0.27279E-05 29320   0.146E-02
  35 F= -.38800515E+03 E0= -.38799106E+03  d E =0.670663E-01  mag=    34.0000
       N       E                     dE             d eps       ncg     rms          rms(c)
DAV:   1    -0.387838397185E+03    0.16677E+00   -0.15661E+01 38352   0.143E+01    0.217E+00
DAV:   2    -0.388079631195E+03   -0.24123E+00   -0.24369E+00 36240   0.284E+00    0.408E+00
DAV:   3    -0.388079982921E+03   -0.35173E-03   -0.93679E-01 49848   0.135E+00    0.213E+00
DAV:   4    -0.388093445476E+03   -0.13463E-01   -0.11694E-01 48656   0.693E-01    0.309E+00
DAV:   5    -0.388077976990E+03    0.15468E-01   -0.10846E-01 48264   0.461E-01    0.143E+00
DAV:   6    -0.388077433672E+03    0.54332E-03   -0.22442E-02 49200   0.347E-01    0.871E-01
DAV:   7    -0.388082139141E+03   -0.47055E-02   -0.38806E-02 50376   0.362E-01    0.161E+00
DAV:   8    -0.388077350244E+03    0.47889E-02   -0.13600E-02 46368   0.267E-01    0.718E-01
DAV:   9    -0.388078188360E+03   -0.83812E-03   -0.54224E-03 49984   0.188E-01    0.378E-01
DAV:  10    -0.388078803722E+03   -0.61536E-03   -0.28554E-03 45608   0.156E-01    0.299E-01
DAV:  11    -0.388078709466E+03    0.94256E-04   -0.17955E-03 48528   0.874E-02    0.223E-01
DAV:  12    -0.388078699356E+03    0.10110E-04   -0.53298E-04 45832   0.585E-02    0.802E-02
DAV:  13    -0.388078715320E+03   -0.15964E-04   -0.16506E-04 34016   0.312E-02    0.808E-02
DAV:  14    -0.388078709332E+03    0.59873E-05   -0.88956E-05 31752   0.257E-02
  36 F= -.38807871E+03 E0= -.38806427E+03  d E =-.735547E-01  mag=    34.0000
       N       E                     dE             d eps       ncg     rms          rms(c)
DAV:   1    -0.388054714741E+03    0.24001E-01   -0.23065E+00 38136   0.546E+00    0.818E-01
DAV:   2    -0.388088231168E+03   -0.33516E-01   -0.32890E-01 36368   0.108E+00    0.125E+00
DAV:   3    -0.388091451509E+03   -0.32203E-02   -0.71117E-02 49712   0.511E-01    0.136E+00
DAV:   4    -0.388089003828E+03    0.24477E-02   -0.14101E-02 48192   0.298E-01    0.553E-01
DAV:   5    -0.388089281660E+03   -0.27783E-03   -0.52673E-03 49432   0.112E-01    0.364E-01
DAV:   6    -0.388089479816E+03   -0.19816E-03   -0.20405E-03 46288   0.987E-02    0.280E-01
DAV:   7    -0.388089695695E+03   -0.21588E-03   -0.18988E-03 49336   0.105E-01    0.381E-01
DAV:   8    -0.388089461529E+03    0.23417E-03   -0.19950E-03 47608   0.970E-02    0.225E-01
DAV:   9    -0.388089534229E+03   -0.72699E-04   -0.80742E-04 46328   0.668E-02    0.173E-01
DAV:  10    -0.388089489736E+03    0.44492E-04   -0.22566E-04 41232   0.423E-02    0.836E-02
DAV:  11    -0.388089490907E+03   -0.11703E-05   -0.77057E-05 31840   0.226E-02
  37 F= -.38808949E+03 E0= -.38807494E+03  d E =-.107816E-01  mag=    34.0000
       N       E                     dE             d eps       ncg     rms          rms(c)
DAV:   1    -0.388069006154E+03    0.20484E-01   -0.18660E+00 37664   0.476E+00    0.681E-01
DAV:   2    -0.388092422387E+03   -0.23416E-01   -0.23245E-01 35840   0.937E-01    0.915E-01
DAV:   3    -0.388095693779E+03   -0.32714E-02   -0.42134E-02 49352   0.417E-01    0.133E+00
DAV:   4    -0.388093238073E+03    0.24557E-02   -0.19136E-02 49656   0.269E-01    0.664E-01
DAV:   5    -0.388093249739E+03   -0.11666E-04   -0.47374E-03 48992   0.111E-01    0.209E-01
DAV:   6    -0.388093613140E+03   -0.36340E-03   -0.68728E-04 46896   0.725E-02    0.230E-01
DAV:   7    -0.388093687381E+03   -0.74241E-04   -0.11035E-03 49984   0.783E-02    0.271E-01
DAV:   8    -0.388093625270E+03    0.62111E-04   -0.14756E-03 48832   0.791E-02    0.196E-01
DAV:   9    -0.388093610191E+03    0.15079E-04   -0.41973E-04 46048   0.529E-02    0.966E-02
DAV:  10    -0.388093604865E+03    0.53262E-05   -0.57034E-05 33000   0.253E-02
  38 F= -.38809360E+03 E0= -.38807899E+03  d E =-.411396E-02  mag=    34.0000
       N       E                     dE             d eps       ncg     rms          rms(c)
DAV:   1    -0.388094628057E+03   -0.10179E-02   -0.19516E-01 37080   0.133E+00    0.145E-01
DAV:   2    -0.388095778324E+03   -0.11503E-02   -0.11804E-02 35560   0.247E-01    0.192E-01
DAV:   3    -0.388095928707E+03   -0.15038E-03   -0.17892E-03 49424   0.914E-02    0.325E-01
DAV:   4    -0.388095793595E+03    0.13511E-03   -0.15631E-03 43336   0.682E-02    0.203E-01
DAV:   5    -0.388095785088E+03    0.85067E-05   -0.52835E-04 35088   0.417E-02    0.916E-02
DAV:   6    -0.388095795834E+03   -0.10746E-04   -0.13869E-04 31256   0.250E-02    0.595E-02
DAV:   7    -0.388095795392E+03    0.44209E-06   -0.45921E-05 30320   0.212E-02
  39 F= -.38809580E+03 E0= -.38808117E+03  d E =-.219053E-02  mag=    34.0000
       N       E                     dE             d eps       ncg     rms          rms(c)
DAV:   1    -0.388095505090E+03    0.29074E-03   -0.60539E-01 37096   0.229E+00    0.237E-01
DAV:   2    -0.388098864131E+03   -0.33590E-02   -0.34125E-02 35056   0.424E-01    0.366E-01
DAV:   3    -0.388099023227E+03   -0.15910E-03   -0.39575E-03 50064   0.157E-01    0.439E-01
DAV:   4    -0.388098810668E+03    0.21256E-03   -0.17876E-03 48360   0.100E-01    0.231E-01
DAV:   5    -0.388098847159E+03   -0.36491E-04   -0.11438E-03 41704   0.567E-02    0.182E-01
DAV:   6    -0.388098824713E+03    0.22447E-04   -0.53890E-04 37152   0.383E-02    0.955E-02
DAV:   7    -0.388098825337E+03   -0.62489E-06   -0.16035E-04 41912   0.326E-02    0.780E-02
DAV:   8    -0.388098824930E+03    0.40751E-06   -0.19872E-04 35720   0.281E-02    0.682E-02
DAV:   9    -0.388098822197E+03    0.27325E-05   -0.51563E-05 28888   0.199E-02
  40 F= -.38809882E+03 E0= -.38808428E+03  d E =-.302681E-02  mag=    34.0000
       N       E                     dE             d eps       ncg     rms          rms(c)
DAV:   1    -0.388099698452E+03   -0.87352E-03   -0.14764E-01 36368   0.959E-01    0.847E-02
DAV:   2    -0.388100199822E+03   -0.50137E-03   -0.52897E-03 35008   0.168E-01    0.753E-02
DAV:   3    -0.388100250125E+03   -0.50303E-04   -0.57997E-04 47448   0.468E-02    0.179E-01
DAV:   4    -0.388100200062E+03    0.50063E-04   -0.50343E-04 34752   0.349E-02    0.928E-02
DAV:   5    -0.388100201574E+03   -0.15120E-05   -0.10416E-04 28912   0.212E-02    0.455E-02
DAV:   6    -0.388100205413E+03   -0.38385E-05   -0.42326E-05 26272   0.163E-02
  41 F= -.38810021E+03 E0= -.38808567E+03  d E =-.138322E-02  mag=    34.0000
       N       E                     dE             d eps       ncg     rms          rms(c)
DAV:   1    -0.388096551208E+03    0.36504E-02   -0.19160E+00 36288   0.339E+00    0.279E-01
DAV:   2    -0.388102929729E+03   -0.63785E-02   -0.64575E-02 34944   0.589E-01    0.451E-01
DAV:   3    -0.388103557407E+03   -0.62768E-03   -0.12756E-02 51192   0.198E-01    0.733E-01
DAV:   4    -0.388102786883E+03    0.77052E-03   -0.75269E-03 48240   0.133E-01    0.402E-01
DAV:   5    -0.388102731357E+03    0.55526E-04   -0.15902E-03 48584   0.789E-02    0.116E-01
DAV:   6    -0.388102840227E+03   -0.10887E-03   -0.38114E-04 42144   0.447E-02    0.163E-01
DAV:   7    -0.388102810470E+03    0.29757E-04   -0.39492E-04 43576   0.472E-02    0.132E-01
DAV:   8    -0.388102793118E+03    0.17352E-04   -0.17594E-04 41368   0.383E-02    0.806E-02
DAV:   9    -0.388102794611E+03   -0.14930E-05   -0.58765E-05 30872   0.205E-02
  42 F= -.38810279E+03 E0= -.38808825E+03  d E =-.258920E-02  mag=    34.0000
       N       E                     dE             d eps       ncg     rms          rms(c)
DAV:   1    -0.388096229519E+03    0.65636E-02   -0.10858E+00 36216   0.266E+00    0.258E-01
DAV:   2    -0.388100722683E+03   -0.44932E-02   -0.46361E-02 34960   0.471E-01    0.214E-01
DAV:   3    -0.388101308358E+03   -0.58567E-03   -0.37288E-03 51568   0.138E-01    0.573E-01
DAV:   4    -0.388100700814E+03    0.60754E-03   -0.25807E-03 48080   0.108E-01    0.201E-01
DAV:   5    -0.388100857459E+03   -0.15665E-03   -0.95103E-04 40432   0.503E-02    0.146E-01
DAV:   6    -0.388100867015E+03   -0.95559E-05   -0.59479E-04 40096   0.436E-02    0.152E-01
DAV:   7    -0.388100832715E+03    0.34300E-04   -0.31332E-04 43240   0.390E-02    0.788E-02
DAV:   8    -0.388100837771E+03   -0.50562E-05   -0.12915E-04 34464   0.280E-02    0.714E-02
DAV:   9    -0.388100835760E+03    0.20111E-05   -0.50380E-05 29128   0.202E-02
  43 F= -.38810084E+03 E0= -.38808628E+03  d E =0.195885E-02  mag=    34.0000
       N       E                     dE             d eps       ncg     rms          rms(c)
DAV:   1    -0.388064178600E+03    0.36659E-01   -0.82120E+00 36736   0.701E+00    0.629E-01
DAV:   2    -0.388092259736E+03   -0.28081E-01   -0.29627E-01 34944   0.122E+00    0.413E-01
DAV:   3    -0.388093525210E+03   -0.12655E-02   -0.12761E-02 51688   0.274E-01    0.668E-01
DAV:   4    -0.388092892008E+03    0.63320E-03   -0.10670E-02 51560   0.182E-01    0.504E-01
DAV:   5    -0.388092748362E+03    0.14365E-03   -0.57776E-03 49392   0.116E-01    0.398E-01
DAV:   6    -0.388092738482E+03    0.98807E-05   -0.26155E-03 49880   0.104E-01    0.370E-01
DAV:   7    -0.388092466902E+03    0.27158E-03   -0.15484E-03 49464   0.100E-01    0.129E-01
DAV:   8    -0.388092575267E+03   -0.10837E-03   -0.59627E-04 47352   0.526E-02    0.163E-01
DAV:   9    -0.388092532386E+03    0.42881E-04   -0.16361E-04 36368   0.347E-02    0.504E-02
DAV:  10    -0.388092542893E+03   -0.10507E-04   -0.43393E-05 28360   0.164E-02    0.488E-02
DAV:  11    -0.388092539524E+03    0.33694E-05   -0.22731E-05 22832   0.138E-02
  44 F= -.38809254E+03 E0= -.38807800E+03  d E =0.829624E-02  mag=    34.0000
       N       E                     dE             d eps       ncg     rms          rms(c)
DAV:   1    -0.387792507217E+03    0.30004E+00   -0.68916E+01 36752   0.219E+01    0.199E+00
DAV:   2    -0.388060446580E+03   -0.26794E+00   -0.28140E+00 34944   0.388E+00    0.175E+00
DAV:   3    -0.388084190889E+03   -0.23744E-01   -0.31388E-01 50728   0.113E+00    0.331E+00
DAV:   4    -0.388071091733E+03    0.13099E-01   -0.23543E-01 51808   0.744E-01    0.269E+00
DAV:   5    -0.388060915639E+03    0.10176E-01   -0.89382E-02 49152   0.466E-01    0.786E-01
DAV:   6    -0.388063994750E+03   -0.30791E-02   -0.15419E-02 51032   0.313E-01    0.868E-01
DAV:   7    -0.388062854176E+03    0.11406E-02   -0.79073E-03 48312   0.249E-01    0.592E-01
DAV:   8    -0.388062721795E+03    0.13238E-03   -0.39354E-03 49320   0.199E-01    0.469E-01
DAV:   9    -0.388062742528E+03   -0.20732E-04   -0.36957E-03 51696   0.145E-01    0.346E-01
DAV:  10    -0.388062657064E+03    0.85463E-04   -0.88659E-04 44392   0.767E-02    0.203E-01
DAV:  11    -0.388062650282E+03    0.67827E-05   -0.74135E-04 45344   0.549E-02    0.180E-01
DAV:  12    -0.388062669624E+03   -0.19342E-04   -0.74772E-04 46728   0.637E-02    0.168E-01
DAV:  13    -0.388062669306E+03    0.31805E-06   -0.62268E-04 36504   0.498E-02    0.112E-01
DAV:  14    -0.388062690192E+03   -0.20886E-04   -0.15666E-04 33672   0.324E-02    0.699E-02
DAV:  15    -0.388062692310E+03   -0.21182E-05   -0.49065E-05 30072   0.201E-02
  45 F= -.38806269E+03 E0= -.38804776E+03  d E =0.298472E-01  mag=    34.0000
       N       E                     dE             d eps       ncg     rms          rms(c)
DAV:   1    -0.388047779317E+03    0.14911E-01   -0.62902E+00 37776   0.611E+00    0.714E-01
DAV:   2    -0.388078554733E+03   -0.30775E-01   -0.31404E-01 35760   0.114E+00    0.143E+00
DAV:   3    -0.388081390532E+03   -0.28358E-02   -0.11375E-01 50688   0.487E-01    0.190E+00
DAV:   4    -0.388077063529E+03    0.43270E-02   -0.46731E-02 48304   0.342E-01    0.925E-01
DAV:   5    -0.388076975555E+03    0.87975E-04   -0.86581E-03 48096   0.204E-01    0.336E-01
DAV:   6    -0.388077342460E+03   -0.36691E-03   -0.23406E-03 48352   0.114E-01    0.305E-01
DAV:   7    -0.388077243470E+03    0.98991E-04   -0.11528E-03 48472   0.992E-02    0.257E-01
DAV:   8    -0.388077323257E+03   -0.79788E-04   -0.23328E-03 49216   0.103E-01    0.325E-01
DAV:   9    -0.388077188555E+03    0.13470E-03   -0.10820E-03 48496   0.710E-02    0.142E-01
DAV:  10    -0.388077194988E+03   -0.64336E-05   -0.17632E-04 39736   0.372E-02    0.543E-02
DAV:  11    -0.388077210666E+03   -0.15678E-04   -0.57889E-05 32712   0.215E-02    0.622E-02
DAV:  12    -0.388077206978E+03    0.36883E-05   -0.37585E-05 30080   0.186E-02
  46 F= -.38807721E+03 E0= -.38806239E+03  d E =-.145147E-01  mag=    34.0000
       N       E                     dE             d eps       ncg     rms          rms(c)
DAV:   1    -0.388075171240E+03    0.20394E-02   -0.23964E+00 36488   0.388E+00    0.397E-01
DAV:   2    -0.388085442399E+03   -0.10271E-01   -0.10708E-01 35088   0.698E-01    0.551E-01
DAV:   3    -0.388087360899E+03   -0.19185E-02   -0.28413E-02 50792   0.252E-01    0.123E+00
DAV:   4    -0.388084931627E+03    0.24293E-02   -0.18893E-02 47992   0.195E-01    0.449E-01
DAV:   5    -0.388085268928E+03   -0.33730E-03   -0.20154E-03 48272   0.992E-02    0.179E-01
DAV:   6    -0.388085383054E+03   -0.11413E-03   -0.79695E-04 47112   0.662E-02    0.176E-01
DAV:   7    -0.388085329452E+03    0.53603E-04   -0.60108E-04 48408   0.603E-02    0.122E-01
DAV:   8    -0.388085326684E+03    0.27674E-05   -0.25187E-04 44008   0.411E-02    0.817E-02
DAV:   9    -0.388085333074E+03   -0.63893E-05   -0.15045E-04 31520   0.241E-02    0.671E-02
DAV:  10    -0.388085327877E+03    0.51969E-05   -0.24971E-05 25816   0.148E-02
  47 F= -.38808533E+03 E0= -.38807056E+03  d E =-.812090E-02  mag=    34.0000
       N       E                     dE             d eps       ncg     rms          rms(c)
DAV:   1    -0.388084972308E+03    0.36077E-03   -0.14572E+00 36672   0.305E+00    0.295E-01
DAV:   2    -0.388090958381E+03   -0.59861E-02   -0.61455E-02 35272   0.534E-01    0.495E-01
DAV:   3    -0.388091682910E+03   -0.72453E-03   -0.16030E-02 50896   0.190E-01    0.846E-01
DAV:   4    -0.388090593285E+03    0.10896E-02   -0.84631E-03 47592   0.136E-01    0.305E-01
DAV:   5    -0.388090740502E+03   -0.14722E-03   -0.85298E-04 46496   0.686E-02    0.110E-01
DAV:   6    -0.388090817025E+03   -0.76524E-04   -0.39700E-04 46424   0.485E-02    0.156E-01
DAV:   7    -0.388090770949E+03    0.46077E-04   -0.35105E-04 46656   0.453E-02    0.789E-02
DAV:   8    -0.388090775517E+03   -0.45685E-05   -0.11087E-04 33720   0.290E-02    0.571E-02
DAV:   9    -0.388090776192E+03   -0.67511E-06   -0.38374E-05 28856   0.197E-02
  48 F= -.38809078E+03 E0= -.38807604E+03  d E =-.544832E-02  mag=    34.0000
       N       E                     dE             d eps       ncg     rms          rms(c)
DAV:   1    -0.388040092048E+03    0.50683E-01   -0.17483E+01 36608   0.108E+01    0.899E-01
DAV:   2    -0.388099920930E+03   -0.59829E-01   -0.61778E-01 34944   0.184E+00    0.784E-01
DAV:   3    -0.388109445388E+03   -0.95245E-02   -0.10066E-01 51064   0.558E-01    0.228E+00
DAV:   4    -0.388098082908E+03    0.11362E-01   -0.74317E-02 49168   0.417E-01    0.782E-01
DAV:   5    -0.388100258402E+03   -0.21755E-02   -0.79620E-03 51152   0.190E-01    0.357E-01
DAV:   6    -0.388100443823E+03   -0.18542E-03   -0.28088E-03 48608   0.145E-01    0.420E-01
DAV:   7    -0.388100219785E+03    0.22404E-03   -0.30888E-03 49224   0.148E-01    0.346E-01
DAV:   8    -0.388100182074E+03    0.37712E-04   -0.20374E-03 48520   0.101E-01    0.246E-01
DAV:   9    -0.388100180552E+03    0.15217E-05   -0.50680E-04 46400   0.570E-02    0.103E-01
DAV:  10    -0.388100183565E+03   -0.30125E-05   -0.71364E-05 32824   0.248E-02
  49 F= -.38810018E+03 E0= -.38808545E+03  d E =-.940737E-02  mag=    34.0000
       N       E                     dE             d eps       ncg     rms          rms(c)
DAV:   1    -0.387402233491E+03    0.69795E+00   -0.16244E+02 36776   0.346E+01    0.316E+00
DAV:   2    -0.388134704135E+03   -0.73247E+00   -0.75011E+00 34944   0.618E+00    0.506E+00
DAV:   3    -0.388188223535E+03   -0.53519E-01   -0.22096E+00 50168   0.220E+00    0.676E+00
DAV:   4    -0.388148294620E+03    0.39929E-01   -0.13377E+00 49688   0.141E+00    0.407E+00
DAV:   5    -0.388120167676E+03    0.28127E-01   -0.82576E-02 50504   0.899E-01    0.212E+00
DAV:   6    -0.388112314863E+03    0.78528E-02   -0.38070E-02 52504   0.522E-01    0.154E+00
DAV:   7    -0.388125495011E+03   -0.13180E-01   -0.25067E-01 52544   0.747E-01    0.306E+00
DAV:   8    -0.388111611115E+03    0.13884E-01   -0.49760E-02 45960   0.470E-01    0.181E+00
DAV:   9    -0.388108268001E+03    0.33431E-02   -0.15371E-02 50064   0.321E-01    0.917E-01
DAV:  10    -0.388110840220E+03   -0.25722E-02   -0.18495E-02 49392   0.297E-01    0.850E-01
DAV:  11    -0.388110374954E+03    0.46527E-03   -0.11666E-02 47744   0.259E-01    0.521E-01
DAV:  12    -0.388110832924E+03   -0.45797E-03   -0.41648E-03 48584   0.162E-01    0.502E-01
DAV:  13    -0.388110778567E+03    0.54356E-04   -0.17566E-03 48920   0.133E-01    0.281E-01
DAV:  14    -0.388110902223E+03   -0.12366E-03   -0.10600E-03 48168   0.789E-02    0.256E-01
DAV:  15    -0.388110833087E+03    0.69135E-04   -0.34833E-04 46152   0.550E-02    0.119E-01
DAV:  16    -0.388110868716E+03   -0.35629E-04   -0.13138E-04 37120   0.294E-02    0.122E-01
DAV:  17    -0.388110857598E+03    0.11118E-04   -0.24859E-04 33472   0.313E-02    0.709E-02
DAV:  18    -0.388110879717E+03   -0.22119E-04   -0.10884E-04 29672   0.213E-02    0.488E-02
DAV:  19    -0.388110881421E+03   -0.17038E-05   -0.32396E-05 24288   0.135E-02
  50 F= -.38811088E+03 E0= -.38809603E+03  d E =-.106979E-01  mag=    34.0000
       N       E                     dE             d eps       ncg     rms          rms(c)
DAV:   1    -0.387984120976E+03    0.12676E+00   -0.15852E+01 38056   0.124E+01    0.148E+00
DAV:   2    -0.388108517712E+03   -0.12440E+00   -0.12255E+00 34960   0.226E+00    0.151E+00
DAV:   3    -0.388135657904E+03   -0.27140E-01   -0.27955E-01 50784   0.835E-01    0.414E+00
DAV:   4    -0.388112158855E+03    0.23499E-01   -0.27343E-01 48896   0.631E-01    0.191E+00
DAV:   5    -0.388112380983E+03   -0.22213E-03   -0.39049E-02 47904   0.342E-01    0.606E-01
DAV:   6    -0.388114762444E+03   -0.23815E-02   -0.66538E-03 47112   0.207E-01    0.635E-01
DAV:   7    -0.388114656498E+03    0.10595E-03   -0.78108E-03 49384   0.172E-01    0.542E-01
DAV:   8    -0.388114854081E+03   -0.19758E-03   -0.85857E-03 49552   0.176E-01    0.541E-01
DAV:   9    -0.388114506627E+03    0.34745E-03   -0.20502E-03 47288   0.110E-01    0.269E-01
DAV:  10    -0.388114496307E+03    0.10320E-04   -0.86060E-04 48680   0.679E-02    0.125E-01
DAV:  11    -0.388114583779E+03   -0.87471E-04   -0.49927E-04 44424   0.439E-02    0.142E-01
DAV:  12    -0.388114593008E+03   -0.92296E-05   -0.15166E-04 36568   0.392E-02    0.997E-02
DAV:  13    -0.388114585594E+03    0.74141E-05   -0.83555E-05 30504   0.218E-02
  51 F= -.38811459E+03 E0= -.38810006E+03  d E =-.370417E-02  mag=    34.0000
       N       E                     dE             d eps       ncg     rms          rms(c)
DAV:   1    -0.388013838875E+03    0.10075E+00   -0.23264E+01 36608   0.132E+01    0.117E+00
DAV:   2    -0.388106951693E+03   -0.93113E-01   -0.95353E-01 34944   0.227E+00    0.136E+00
DAV:   3    -0.388129818753E+03   -0.22867E-01   -0.32487E-01 50664   0.766E-01    0.375E+00
DAV:   4    -0.388100265541E+03    0.29553E-01   -0.13951E-01 48392   0.586E-01    0.679E-01
DAV:   5    -0.388106890931E+03   -0.66254E-02   -0.76296E-03 50048   0.225E-01    0.467E-01
DAV:   6    -0.388107847858E+03   -0.95693E-03   -0.59768E-03 49864   0.197E-01    0.649E-01
DAV:   7    -0.388107194976E+03    0.65288E-03   -0.57329E-03 49208   0.183E-01    0.401E-01
DAV:   8    -0.388107364633E+03   -0.16966E-03   -0.18305E-03 48736   0.115E-01    0.349E-01
DAV:   9    -0.388107243146E+03    0.12149E-03   -0.82685E-04 47768   0.748E-02    0.171E-01
DAV:  10    -0.388107276211E+03   -0.33065E-04   -0.46562E-04 42920   0.484E-02    0.175E-01
DAV:  11    -0.388107236596E+03    0.39616E-04   -0.28036E-04 35032   0.345E-02    0.859E-02
DAV:  12    -0.388107273238E+03   -0.36642E-04   -0.35042E-04 34752   0.363E-02    0.119E-01
DAV:  13    -0.388107278576E+03   -0.53383E-05   -0.15545E-04 33336   0.333E-02    0.618E-02
DAV:  14    -0.388107282498E+03   -0.39214E-05   -0.36811E-05 30160   0.185E-02
  52 F= -.38810728E+03 E0= -.38809256E+03  d E =0.730310E-02  mag=    34.0000
       N       E                     dE             d eps       ncg     rms          rms(c)
DAV:   1    -0.388099080900E+03    0.81977E-02   -0.12967E+00 36576   0.315E+00    0.302E-01
DAV:   2    -0.388105294644E+03   -0.62137E-02   -0.62932E-02 35880   0.576E-01    0.805E-01
DAV:   3    -0.388104914674E+03    0.37997E-03   -0.20682E-02 48464   0.211E-01    0.682E-01
DAV:   4    -0.388104578387E+03    0.33629E-03   -0.54676E-03 46976   0.133E-01    0.293E-01
DAV:   5    -0.388104579604E+03   -0.12177E-05   -0.84316E-04 48248   0.711E-02    0.126E-01
DAV:   6    -0.388104641439E+03   -0.61834E-04   -0.47758E-04 44008   0.503E-02    0.175E-01
DAV:   7    -0.388104596152E+03    0.45287E-04   -0.41873E-04 46584   0.488E-02    0.113E-01
DAV:   8    -0.388104602679E+03   -0.65269E-05   -0.19471E-04 35872   0.334E-02    0.951E-02
DAV:   9    -0.388104592696E+03    0.99830E-05   -0.75590E-05 29472   0.224E-02
  53 F= -.38810459E+03 E0= -.38808987E+03  d E =0.268980E-02  mag=    34.0000
       N       E                     dE             d eps       ncg     rms          rms(c)
DAV:   1    -0.388098693611E+03    0.59091E-02   -0.15026E+00 36928   0.358E+00    0.329E-01
DAV:   2    -0.388105454618E+03   -0.67610E-02   -0.68230E-02 34944   0.617E-01    0.278E-01
DAV:   3    -0.388106427739E+03   -0.97312E-03   -0.76264E-03 51968   0.184E-01    0.706E-01
DAV:   4    -0.388105548770E+03    0.87897E-03   -0.58426E-03 47904   0.133E-01    0.285E-01
DAV:   5    -0.388105688090E+03   -0.13932E-03   -0.13434E-03 44040   0.654E-02    0.158E-01
DAV:   6    -0.388105739756E+03   -0.51666E-04   -0.39283E-04 43424   0.495E-02    0.148E-01
DAV:   7    -0.388105707526E+03    0.32230E-04   -0.22096E-04 43648   0.408E-02    0.749E-02
DAV:   8    -0.388105737072E+03   -0.29546E-04   -0.27111E-04 33888   0.329E-02    0.120E-01
DAV:   9    -0.388105714015E+03    0.23057E-04   -0.11750E-04 30432   0.268E-02    0.352E-02
DAV:  10    -0.388105721119E+03   -0.71043E-05   -0.14589E-05 21544   0.985E-03
  54 F= -.38810572E+03 E0= -.38809096E+03  d E =-.112842E-02  mag=    34.0000
       N       E                     dE             d eps       ncg     rms          rms(c)
DAV:   1    -0.387917583352E+03    0.18813E+00   -0.47367E+01 37120   0.192E+01    0.165E+00
DAV:   2    -0.388106288585E+03   -0.18871E+00   -0.19144E+00 34944   0.331E+00    0.125E+00
DAV:   3    -0.388126448663E+03   -0.20160E-01   -0.21101E-01 51080   0.902E-01    0.241E+00
DAV:   4    -0.388115743506E+03    0.10705E-01   -0.13166E-01 50288   0.611E-01    0.213E+00
DAV:   5    -0.388109442828E+03    0.63007E-02   -0.40141E-02 51064   0.342E-01    0.602E-01
DAV:   6    -0.388113113690E+03   -0.36709E-02   -0.19011E-02 50464   0.249E-01    0.116E+00
DAV:   7    -0.388112165746E+03    0.94794E-03   -0.76306E-03 47128   0.215E-01    0.960E-01
DAV:   8    -0.388110662431E+03    0.15033E-02   -0.89957E-03 50208   0.217E-01    0.408E-01
DAV:   9    -0.388111780257E+03   -0.11178E-02   -0.41831E-03 46152   0.140E-01    0.402E-01
DAV:  10    -0.388111604063E+03    0.17619E-03   -0.83022E-04 44320   0.761E-02    0.232E-01
DAV:  11    -0.388111546035E+03    0.58029E-04   -0.35115E-04 40000   0.444E-02    0.989E-02
DAV:  12    -0.388111597286E+03   -0.51251E-04   -0.11905E-04 40504   0.351E-02    0.101E-01
DAV:  13    -0.388111619472E+03   -0.22187E-04   -0.18759E-04 32168   0.320E-02    0.115E-01
DAV:  14    -0.388111614716E+03    0.47565E-05   -0.25626E-04 31256   0.319E-02    0.786E-02
DAV:  15    -0.388111618221E+03   -0.35047E-05   -0.44952E-05 28072   0.193E-02
  55 F= -.38811162E+03 E0= -.38809682E+03  d E =-.589710E-02  mag=    34.0000
       N       E                     dE             d eps       ncg     rms          rms(c)
DAV:   1    -0.388091467707E+03    0.20147E-01   -0.38226E+00 36448   0.621E+00    0.607E-01
DAV:   2    -0.388113980954E+03   -0.22513E-01   -0.22416E-01 34960   0.111E+00    0.441E-01
DAV:   3    -0.388117875982E+03   -0.38950E-02   -0.33641E-02 50072   0.313E-01    0.139E+00
DAV:   4    -0.388114372987E+03    0.35030E-02   -0.25900E-02 47872   0.232E-01    0.467E-01
DAV:   5    -0.388115032683E+03   -0.65970E-03   -0.29419E-03 48760   0.114E-01    0.258E-01
DAV:   6    -0.388115140737E+03   -0.10805E-03   -0.99814E-04 45968   0.813E-02    0.217E-01
DAV:   7    -0.388115105070E+03    0.35667E-04   -0.72572E-04 49464   0.726E-02    0.136E-01
DAV:   8    -0.388115192395E+03   -0.87325E-04   -0.89060E-04 48984   0.617E-02    0.212E-01
DAV:   9    -0.388115114501E+03    0.77893E-04   -0.50667E-04 42384   0.466E-02    0.635E-02
DAV:  10    -0.388115128753E+03   -0.14252E-04   -0.32686E-05 29512   0.186E-02    0.310E-02
DAV:  11    -0.388115128018E+03    0.73548E-06   -0.12061E-05 21984   0.111E-02
  56 F= -.38811513E+03 E0= -.38810043E+03  d E =-.350980E-02  mag=    34.0000
       N       E                     dE             d eps       ncg     rms          rms(c)
DAV:   1    -0.388074235243E+03    0.40894E-01   -0.98472E+00 36880   0.854E+00    0.717E-01
DAV:   2    -0.388110605603E+03   -0.36370E-01   -0.37278E-01 34944   0.146E+00    0.521E-01
DAV:   3    -0.388114695299E+03   -0.40897E-02   -0.30353E-02 51672   0.342E-01    0.160E+00
DAV:   4    -0.388111149830E+03    0.35455E-02   -0.35908E-02 50256   0.246E-01    0.607E-01
DAV:   5    -0.388111536283E+03   -0.38645E-03   -0.60410E-03 45904   0.146E-01    0.326E-01
DAV:   6    -0.388111618012E+03   -0.81729E-04   -0.29004E-03 49320   0.111E-01    0.344E-01
DAV:   7    -0.388111369779E+03    0.24823E-03   -0.13505E-03 49456   0.951E-02    0.116E-01
DAV:   8    -0.388111529424E+03   -0.15965E-03   -0.59220E-04 49104   0.638E-02    0.222E-01
DAV:   9    -0.388111443306E+03    0.86118E-04   -0.39598E-04 43864   0.500E-02    0.826E-02
DAV:  10    -0.388111458854E+03   -0.15547E-04   -0.61518E-05 30864   0.239E-02    0.451E-02
DAV:  11    -0.388111458284E+03    0.57017E-06   -0.14846E-05 25608   0.139E-02
  57 F= -.38811146E+03 E0= -.38809677E+03  d E =0.366973E-02  mag=    34.0000
