       N       E                     dE             d eps       ncg     rms          ort
DAV:   1     0.651973625883E+04    0.65197E+04   -0.29242E+05  8736   0.161E+03
DAV:   2     0.413267696961E+03   -0.61065E+04   -0.58562E+04  8736   0.477E+02
DAV:   3    -0.368010744125E+03   -0.78128E+03   -0.76374E+03  8736   0.179E+02
DAV:   4    -0.410265452584E+03   -0.42255E+02   -0.41100E+02  8736   0.430E+01
DAV:   5    -0.413669730299E+03   -0.34043E+01   -0.33571E+01  8736   0.879E+00
SDA:   6    -0.263795469663E+03    0.14987E+03   -0.33571E+01  8736   0.114E+04 0.000E+00
CGA:   7    -0.347106417792E+03   -0.83311E+02   -0.11895E+03  8736   0.102E+04-0.119E+02
CGA:   8    -0.325399224411E+03    0.21707E+02   -0.25914E+02  8736   0.451E+04-0.139E+04
CGA:   9    -0.338592640267E+03   -0.13193E+02   -0.16655E+03  8736   0.838E+03-0.440E+03
CGA:  10    -0.360689793506E+03   -0.22097E+02   -0.12520E+02  8736   0.454E+03-0.560E+03
CGA:  11    -0.369879854095E+03   -0.91901E+01   -0.11135E+02  8736   0.227E+03-0.159E+03
CGA:  12    -0.369256504639E+03    0.62335E+00   -0.23969E+01  8736   0.548E+03-0.185E+03
CGA:  13    -0.359505600821E+03    0.97509E+01   -0.29531E+02  8736   0.813E+03-0.132E+03
CGA:  14    -0.363402973631E+03   -0.38974E+01   -0.10794E+02  8736   0.798E+03-0.185E+03
CGA:  15    -0.351802397902E+03    0.11601E+02   -0.17582E+02  8736   0.134E+04-0.383E+03
CGA:  16    -0.369431528228E+03   -0.17629E+02   -0.11995E+02  8736   0.681E+03 0.545E+03
CGA:  17    -0.360704488570E+03    0.87270E+01   -0.31548E+02  8736   0.604E+03-0.134E+03
CGA:  18    -0.370647010453E+03   -0.99425E+01   -0.52634E+01  8736   0.361E+03 0.133E+03
CGA:  19    -0.365450778793E+03    0.51962E+01   -0.12228E+02  8736   0.727E+03-0.321E+03
CGA:  20    -0.359676928162E+03    0.57739E+01   -0.21925E+02  8736   0.113E+04-0.515E+03
CGA:  21    -0.376893827379E+03   -0.17217E+02   -0.20280E+02  8736   0.201E+03-0.175E+03
CGA:  22    -0.380929241487E+03   -0.40354E+01   -0.44353E+01  8736   0.680E+02-0.724E+01
CGA:  23    -0.380429723458E+03    0.49952E+00   -0.10084E+01  8736   0.219E+03-0.103E+03
CGA:  24    -0.378080596718E+03    0.23491E+01   -0.65539E+01  8736   0.156E+03-0.704E+02
CGA:  25    -0.381432331390E+03   -0.33517E+01   -0.15323E+01  8736   0.101E+03 0.127E+03
CGA:  26    -0.381387370684E+03    0.44961E-01   -0.16055E+01  8736   0.179E+03-0.140E+03
CGA:  27    -0.378229918298E+03    0.31575E+01   -0.56466E+01  8736   0.173E+03-0.699E+02
CGA:  28    -0.380867288988E+03   -0.26374E+01   -0.12836E+01  8736   0.147E+03 0.138E+03
CGA:  29    -0.381231793613E+03   -0.36450E+00   -0.20237E+01  8736   0.250E+03-0.267E+03
CGA:  30    -0.378047299144E+03    0.31845E+01   -0.73162E+01  8736   0.183E+03-0.833E+02
CGA:  31    -0.380710631709E+03   -0.26633E+01   -0.13571E+01  8736   0.155E+03 0.160E+03
CGA:  32    -0.382092576805E+03   -0.13819E+01   -0.18211E+01  8736   0.133E+03-0.216E+03
CGA:  33    -0.379911564291E+03    0.21810E+01   -0.31180E+01  8736   0.175E+03-0.851E+02
CGA:  34    -0.382458646444E+03   -0.25471E+01   -0.19826E+01  8736   0.830E+02-0.202E+03
CGA:  35    -0.381280200115E+03    0.11784E+01   -0.16792E+01  8736   0.170E+03-0.889E+02
CGA:  36    -0.382666567428E+03   -0.13864E+01   -0.17551E+01  8736   0.606E+02-0.129E+03
CGA:  37    -0.382071125950E+03    0.59544E+00   -0.10909E+01  8736   0.119E+03-0.690E+02
CGA:  38    -0.382979738622E+03   -0.90861E+00   -0.10852E+01  8736   0.175E+02-0.502E+02
CGA:  39    -0.383104842289E+03   -0.12510E+00   -0.16230E+00  8736   0.315E+01-0.191E+01
CGA:  40    -0.383147777023E+03   -0.42935E-01   -0.41961E-01  8736   0.209E+01 0.416E-01
CGA:  41    -0.383395278123E+03   -0.24750E+00   -0.22044E+00  8736   0.104E+02 0.415E+00
CGA:  42    -0.383675011887E+03   -0.27973E+00   -0.24279E+00  8736   0.118E+01 0.317E+01
CGA:  43    -0.383722434700E+03   -0.47423E-01   -0.46964E-01  8736   0.222E+01 0.706E-02
CGA:  44    -0.383804779945E+03   -0.82345E-01   -0.87000E-01  8736   0.188E+01 0.923E-01
CGA:  45    -0.383881883097E+03   -0.77103E-01   -0.63299E-01  8736   0.147E+01 0.209E+00
CGA:  46    -0.383913471962E+03   -0.31589E-01   -0.26060E-01  8736   0.919E+00 0.286E+00
CGA:  47    -0.383935241932E+03   -0.21770E-01   -0.24920E-01  8736   0.750E+00-0.696E-01
CGA:  48    -0.383952216859E+03   -0.16975E-01   -0.17883E-01  8736   0.772E+00-0.125E-01
CGA:  49    -0.383976608888E+03   -0.24392E-01   -0.25012E-01  8736   0.102E+01 0.586E-02
CGA:  50    -0.384008775709E+03   -0.32167E-01   -0.32239E-01  8736   0.585E+00 0.424E-02
CGA:  51    -0.384019351201E+03   -0.10575E-01   -0.11714E-01  8736   0.228E+00-0.322E-01
CGA:  52    -0.384030306073E+03   -0.10955E-01   -0.10769E-01  8736   0.186E+00 0.168E-01
CGA:  53    -0.384036363565E+03   -0.60575E-02   -0.61113E-02  8736   0.106E+00 0.198E-03
CGA:  54    -0.384045561361E+03   -0.91978E-02   -0.89169E-02  8736   0.113E+00 0.637E-02
CGA:  55    -0.384052311915E+03   -0.67506E-02   -0.66599E-02  8736   0.151E+00 0.573E-02
CGA:  56    -0.384057308231E+03   -0.49963E-02   -0.52123E-02  8736   0.774E-01 0.227E-02
CGA:  57    -0.384060567295E+03   -0.32591E-02   -0.32594E-02  8736   0.698E-01-0.683E-04
CGA:  58    -0.384063605412E+03   -0.30381E-02   -0.30397E-02  8736   0.381E-01 0.636E-03
CGA:  59    -0.384066053759E+03   -0.24483E-02   -0.24175E-02  8736   0.649E-01 0.127E-02
CGA:  60    -0.384068682860E+03   -0.26291E-02   -0.26498E-02  8736   0.339E-01 0.107E-02
CGA:  61    -0.384070405718E+03   -0.17229E-02   -0.17208E-02  8736   0.279E-01 0.163E-03
CGA:  62    -0.384071365468E+03   -0.95975E-03   -0.95604E-03  8736   0.175E-01-0.164E-03
CGA:  63    -0.384072657118E+03   -0.12917E-02   -0.12753E-02  8736   0.180E-01 0.481E-03
CGA:  64    -0.384073265417E+03   -0.60830E-03   -0.60592E-03  8736   0.116E-01-0.963E-04
CGA:  65    -0.384074072605E+03   -0.80719E-03   -0.79680E-03  8736   0.123E-01 0.346E-03
CGA:  66    -0.384074540390E+03   -0.46779E-03   -0.46449E-03  8736   0.768E-02-0.107E-03
CGA:  67    -0.384074996084E+03   -0.45569E-03   -0.45292E-03  8736   0.886E-02 0.139E-03
SDA:  68    -0.384075355531E+03   -0.35945E-03   -0.35714E-03  8736   0.504E-02-0.997E-04
CGA:  69    -0.384075465480E+03   -0.10995E-03   -0.10975E-03  8736   0.221E-02 0.865E-05
CGA:  70    -0.384075579606E+03   -0.11413E-03   -0.11384E-03  8736   0.186E-02 0.421E-04
CGA:  71    -0.384075967152E+03   -0.38755E-03   -0.36132E-03  8736   0.515E-02 0.177E-03
CGA:  72    -0.384076223160E+03   -0.25601E-03   -0.25635E-03  8736   0.208E-02 0.988E-04
CGA:  73    -0.384076370961E+03   -0.14780E-03   -0.14736E-03  8736   0.476E-02 0.415E-04
CGA:  74    -0.384076536909E+03   -0.16595E-03   -0.16967E-03  8736   0.131E-02 0.891E-04
CGA:  75    -0.384076615943E+03   -0.79033E-04   -0.78697E-04  8736   0.987E-03 0.485E-04
CGA:  76    -0.384076701940E+03   -0.85997E-04   -0.85921E-04  8736   0.194E-02 0.464E-05
CGA:  77    -0.384076764201E+03   -0.62261E-04   -0.63060E-04  8736   0.996E-03 0.670E-05
CGA:  78    -0.384076801276E+03   -0.37076E-04   -0.36956E-04  8736   0.503E-03 0.455E-05
CGA:  79    -0.384076874310E+03   -0.73034E-04   -0.74748E-04  8736   0.850E-03-0.189E-04
CGA:  80    -0.384076904006E+03   -0.29695E-04   -0.29786E-04  8736   0.857E-03-0.151E-04
CGA:  81    -0.384076940480E+03   -0.36475E-04   -0.35458E-04  8736   0.431E-03-0.229E-04
CGA:  82    -0.384076983496E+03   -0.43016E-04   -0.44584E-04  8736   0.519E-03-0.326E-04
CGA:  83    -0.384077007449E+03   -0.23953E-04   -0.23857E-04  8736   0.300E-03-0.119E-04
CGA:  84    -0.384077032021E+03   -0.24572E-04   -0.26661E-04  8736   0.489E-03-0.593E-04
CGA:  85    -0.384077040087E+03   -0.80666E-05   -0.78180E-05  8736   0.209E-03-0.277E-05
CGA:  86    -0.384077051229E+03   -0.11142E-04   -0.11126E-04  8736   0.529E-03-0.486E-05
CGA:  87    -0.384077062349E+03   -0.11120E-04   -0.89430E-05  8736   0.219E-03 0.984E-04
CGA:  88    -0.384077066837E+03   -0.44885E-05   -0.42896E-05  8736   0.186E-03 0.921E-05
   1 F= -.38407707E+03 E0= -.38406177E+03  d E =-.384077E+03  mag=    34.0000
       N       E                     dE             d eps       ncg     rms          ort
SDA:   1    -0.383778775301E+03    0.29829E+00    0.00000E+00  8736   0.193E+02 0.000E+00
CGA:   2    -0.384072641689E+03   -0.29387E+00   -0.24918E+00  8736   0.237E+00 0.192E+01
CGA:   3    -0.384076429750E+03   -0.37881E-02   -0.36689E-02  8736   0.346E-01 0.644E-02
CGA:   4    -0.384077595353E+03   -0.11656E-02   -0.11646E-02  8736   0.168E-01-0.762E-06
CGA:   5    -0.384078393755E+03   -0.79840E-03   -0.79841E-03  8736   0.218E-01 0.271E-04
CGA:   6    -0.384079054161E+03   -0.66041E-03   -0.65975E-03  8736   0.127E-01-0.152E-05
CGA:   7    -0.384079595094E+03   -0.54093E-03   -0.54098E-03  8736   0.558E-02-0.420E-05
CGA:   8    -0.384079771777E+03   -0.17668E-03   -0.17671E-03  8736   0.664E-02-0.899E-06
CGA:   9    -0.384080164345E+03   -0.39257E-03   -0.39314E-03  8736   0.328E-02-0.416E-04
CGA:  10    -0.384080288235E+03   -0.12389E-03   -0.12375E-03  8736   0.326E-02-0.153E-04
CGA:  11    -0.384080373738E+03   -0.85503E-04   -0.85520E-04  8736   0.903E-03-0.182E-05
CGA:  12    -0.384080420841E+03   -0.47103E-04   -0.47091E-04  8736   0.815E-03 0.156E-05
CGA:  13    -0.384080444398E+03   -0.23557E-04   -0.23484E-04  8736   0.527E-03-0.361E-05
CGA:  14    -0.384080465396E+03   -0.20998E-04   -0.20998E-04  8736   0.389E-03-0.343E-06
CGA:  15    -0.384080491477E+03   -0.26081E-04   -0.26018E-04  8736   0.385E-03 0.274E-05
CGA:  16    -0.384080500075E+03   -0.85979E-05   -0.85462E-05  8736   0.164E-03-0.214E-05
CGA:  17    -0.384080511424E+03   -0.11349E-04   -0.11443E-04  8736   0.145E-03-0.361E-05
CGA:  18    -0.384080519719E+03   -0.82954E-05   -0.83185E-05  8736   0.287E-03-0.174E-05
   2 F= -.38408052E+03 E0= -.38406534E+03  d E =-.345288E-02  mag=    34.0000
       N       E                     dE             d eps       ncg     rms          ort
SDA:   1    -0.301838167759E+03    0.82242E+02    0.00000E+00  8736   0.594E+03 0.000E+00
CGA:   2    -0.351265130736E+03   -0.49427E+02   -0.17513E+02  8736   0.275E+03-0.122E+03
CGA:   3    -0.360798233023E+03   -0.95331E+01   -0.15995E+02  8736   0.340E+03-0.121E+03
CGA:   4    -0.367512721909E+03   -0.67145E+01   -0.12940E+02  8736   0.181E+03-0.123E+03
CGA:   5    -0.374194697841E+03   -0.66820E+01   -0.71884E+01  8736   0.755E+02-0.179E+02
CGA:   6    -0.379387824892E+03   -0.51931E+01   -0.58147E+01  8736   0.616E+02-0.127E+02
CGA:   7    -0.380697712149E+03   -0.13099E+01   -0.77773E+00  8736   0.301E+02 0.314E+02
CGA:   8    -0.381653978623E+03   -0.95627E+00   -0.10053E+01  8736   0.771E+01-0.212E+00
CGA:   9    -0.382324176718E+03   -0.67020E+00   -0.67068E+00  8736   0.945E+01 0.273E-01
CGA:  10    -0.382868484913E+03   -0.54431E+00   -0.62064E+00  8736   0.287E+02-0.362E+01
CGA:  11    -0.382995793202E+03   -0.12731E+00   -0.71629E-01  8736   0.224E+02 0.131E+02
CGA:  12    -0.383173642070E+03   -0.17785E+00   -0.15612E+00  8736   0.462E+01 0.170E+01
CGA:  13    -0.383212833063E+03   -0.39191E-01   -0.40498E-01  8736   0.519E+01-0.125E+00
CGA:  14    -0.383273076040E+03   -0.60243E-01   -0.60846E-01  8736   0.876E+01-0.720E-02
CGA:  15    -0.383354002320E+03   -0.80926E-01   -0.95880E-01  8736   0.812E+01-0.104E+01
CGA:  16    -0.383407717652E+03   -0.53715E-01   -0.40992E-01  8736   0.625E+01 0.201E+01
CGA:  17    -0.383471381058E+03   -0.63663E-01   -0.52547E-01  8736   0.638E+01 0.128E+01
CGA:  18    -0.383528624538E+03   -0.57243E-01   -0.50545E-01  8736   0.749E+01 0.682E+00
CGA:  19    -0.383569197344E+03   -0.40573E-01   -0.38912E-01  8736   0.698E+01 0.144E+00
CGA:  20    -0.383598237020E+03   -0.29040E-01   -0.35099E-01  8736   0.756E+01-0.122E+01
CGA:  21    -0.383622454924E+03   -0.24218E-01   -0.29990E-01  8736   0.928E+01-0.112E+01
CGA:  22    -0.383653111752E+03   -0.30657E-01   -0.37162E-01  8736   0.943E+01-0.129E+01
CGA:  23    -0.383678918394E+03   -0.25807E-01   -0.45386E-01  8736   0.902E+01-0.300E+01
CGA:  24    -0.383703382017E+03   -0.24464E-01   -0.45751E-01  8736   0.100E+02-0.196E+01
CGA:  25    -0.383764609116E+03   -0.61227E-01   -0.62316E-01  8736   0.632E+01 0.162E-01
CGA:  26    -0.383809744453E+03   -0.45135E-01   -0.49827E-01  8736   0.263E+01-0.412E+00
CGA:  27    -0.383832545121E+03   -0.22801E-01   -0.23988E-01  8736   0.169E+01-0.661E-01
CGA:  28    -0.383852471443E+03   -0.19926E-01   -0.20102E-01  8736   0.138E+01-0.759E-03
CGA:  29    -0.383870480229E+03   -0.18009E-01   -0.18794E-01  8736   0.107E+01-0.191E-01
CGA:  30    -0.383886386638E+03   -0.15906E-01   -0.16185E-01  8736   0.100E+01-0.114E-03
CGA:  31    -0.383909588417E+03   -0.23202E-01   -0.23181E-01  8736   0.210E+01-0.333E-01
CGA:  32    -0.383946553998E+03   -0.36966E-01   -0.35780E-01  8736   0.414E+01-0.564E-01
CGA:  33    -0.383992424376E+03   -0.45870E-01   -0.51364E-01  8736   0.355E+01-0.132E+00
CGA:  34    -0.384020292881E+03   -0.27869E-01   -0.27420E-01  8736   0.171E+01 0.587E-01
CGA:  35    -0.384038028129E+03   -0.17735E-01   -0.17963E-01  8736   0.141E+01-0.123E-01
CGA:  36    -0.384055355425E+03   -0.17327E-01   -0.17077E-01  8736   0.141E+01 0.810E-02
CGA:  37    -0.384070074095E+03   -0.14719E-01   -0.14467E-01  8736   0.110E+01 0.180E-01
SDA:  38    -0.384081456071E+03   -0.11382E-01   -0.11470E-01  8736   0.918E+00-0.240E-02
CGA:  39    -0.384115643518E+03   -0.34187E-01   -0.33557E-01  8736   0.353E+00 0.319E-01
CGA:  40    -0.384145355750E+03   -0.29712E-01   -0.30109E-01  8736   0.979E+00-0.771E-02
CGA:  41    -0.384192823099E+03   -0.47467E-01   -0.48337E-01  8736   0.621E+00-0.404E-01
CGA:  42    -0.384211882708E+03   -0.19060E-01   -0.18894E-01  8736   0.148E+00 0.171E-01
CGA:  43    -0.384223455524E+03   -0.11573E-01   -0.11612E-01  8736   0.369E+00-0.915E-03
CGA:  44    -0.384234969784E+03   -0.11514E-01   -0.11525E-01  8736   0.172E+00-0.223E-02
CGA:  45    -0.384249608826E+03   -0.14639E-01   -0.14873E-01  8736   0.264E+00-0.782E-02
CGA:  46    -0.384259206259E+03   -0.95974E-02   -0.95263E-02  8736   0.213E+00 0.686E-02
CGA:  47    -0.384265584602E+03   -0.63783E-02   -0.63059E-02  8736   0.147E+00-0.115E-01
CGA:  48    -0.384270568907E+03   -0.49843E-02   -0.49854E-02  8736   0.802E-01-0.179E-03
CGA:  49    -0.384275711410E+03   -0.51425E-02   -0.50909E-02  8736   0.134E+00 0.146E-02
CGA:  50    -0.384279831450E+03   -0.41200E-02   -0.41454E-02  8736   0.682E-01 0.385E-02
CGA:  51    -0.384281675326E+03   -0.18439E-02   -0.18391E-02  8736   0.355E-01-0.174E-03
CGA:  52    -0.384283635773E+03   -0.19604E-02   -0.19542E-02  8736   0.333E-01 0.251E-03
CGA:  53    -0.384285208073E+03   -0.15723E-02   -0.15831E-02  8736   0.320E-01-0.641E-03
CGA:  54    -0.384286060051E+03   -0.85198E-03   -0.85372E-03  8736   0.155E-01 0.430E-04
CGA:  55    -0.384286797966E+03   -0.73792E-03   -0.74012E-03  8736   0.247E-01-0.123E-03
CGA:  56    -0.384288946206E+03   -0.21482E-02   -0.20726E-02  8736   0.234E-01 0.155E-02
CGA:  57    -0.384289810892E+03   -0.86469E-03   -0.86593E-03  8736   0.111E-01 0.223E-03
CGA:  58    -0.384290598030E+03   -0.78714E-03   -0.79227E-03  8736   0.157E-01-0.155E-03
CGA:  59    -0.384291523865E+03   -0.92584E-03   -0.91304E-03  8736   0.289E-01 0.532E-03
CGA:  60    -0.384292414850E+03   -0.89098E-03   -0.85870E-03  8736   0.154E-01-0.217E-03
CGA:  61    -0.384293031390E+03   -0.61654E-03   -0.61605E-03  8736   0.131E-01 0.275E-03
CGA:  62    -0.384294049949E+03   -0.10186E-02   -0.98743E-03  8736   0.150E-01 0.784E-03
CGA:  63    -0.384294591996E+03   -0.54205E-03   -0.53001E-03  8736   0.180E-01-0.391E-03
CGA:  64    -0.384295089005E+03   -0.49701E-03   -0.50645E-03  8736   0.102E-01 0.132E-03
CGA:  65    -0.384295395254E+03   -0.30625E-03   -0.31697E-03  8736   0.136E-01 0.244E-03
CGA:  66    -0.384296083827E+03   -0.68857E-03   -0.70900E-03  8736   0.139E-01-0.135E-02
CGA:  67    -0.384296514059E+03   -0.43023E-03   -0.42834E-03  8736   0.848E-02-0.518E-04
CGA:  68    -0.384296807888E+03   -0.29383E-03   -0.29739E-03  8736   0.116E-01 0.295E-03
SDA:  69    -0.384297431945E+03   -0.62406E-03   -0.65010E-03  8736   0.616E-02-0.144E-02
CGA:  70    -0.384297742319E+03   -0.31037E-03   -0.30999E-03  8736   0.789E-02 0.225E-04
CGA:  71    -0.384298083758E+03   -0.34144E-03   -0.34145E-03  8736   0.737E-02-0.281E-05
CGA:  72    -0.384298640159E+03   -0.55640E-03   -0.55438E-03  8736   0.574E-02 0.547E-04
CGA:  73    -0.384298985127E+03   -0.34497E-03   -0.34433E-03  8736   0.484E-02 0.268E-04
CGA:  74    -0.384299411303E+03   -0.42618E-03   -0.42932E-03  8736   0.219E-02-0.761E-04
CGA:  75    -0.384299593547E+03   -0.18224E-03   -0.17907E-03  8736   0.359E-02 0.801E-04
CGA:  76    -0.384299712307E+03   -0.11876E-03   -0.11760E-03  8736   0.184E-02 0.116E-04
CGA:  77    -0.384299829384E+03   -0.11708E-03   -0.11653E-03  8736   0.849E-03 0.272E-04
CGA:  78    -0.384299899851E+03   -0.70468E-04   -0.70269E-04  8736   0.789E-03 0.530E-05
CGA:  79    -0.384299937763E+03   -0.37912E-04   -0.37915E-04  8736   0.413E-03 0.171E-05
CGA:  80    -0.384299961837E+03   -0.24074E-04   -0.24088E-04  8736   0.654E-03-0.873E-07
CGA:  81    -0.384299992006E+03   -0.30169E-04   -0.30210E-04  8736   0.313E-03 0.404E-05
CGA:  82    -0.384300015393E+03   -0.23386E-04   -0.23397E-04  8736   0.136E-03-0.278E-06
CGA:  83    -0.384300037964E+03   -0.22572E-04   -0.21691E-04  8736   0.187E-03 0.868E-05
CGA:  84    -0.384300047331E+03   -0.93670E-05   -0.93881E-05  8736   0.135E-03 0.353E-05
CGA:  85    -0.384300060795E+03   -0.13464E-04   -0.13133E-04  8736   0.308E-03 0.800E-05
CGA:  86    -0.384300071844E+03   -0.11048E-04   -0.11040E-04  8736   0.101E-03 0.606E-05
CGA:  87    -0.384300082637E+03   -0.10794E-04   -0.10623E-04  8736   0.121E-03 0.358E-05
CGA:  88    -0.384300089649E+03   -0.70118E-05   -0.70118E-05  8736   0.129E-03 0.104E-05
   3 F= -.38430009E+03 E0= -.38428565E+03  d E =-.219570E+00  mag=    34.0000
       N       E                     dE             d eps       ncg     rms          ort
SDA:   1    -0.316997186825E+03    0.67303E+02    0.00000E+00  8736   0.161E+04 0.000E+00
CGA:   2    -0.355635268671E+03   -0.38638E+02   -0.43111E+02  8736   0.317E+03-0.181E+03
CGA:   3    -0.367787250700E+03   -0.12152E+02   -0.73930E+01  8736   0.139E+03 0.886E+02
CGA:   4    -0.368326240851E+03   -0.53899E+00   -0.27548E+01  8736   0.329E+03-0.226E+03
CGA:   5    -0.371992171338E+03   -0.36659E+01   -0.55343E+01  8736   0.766E+02-0.753E+02
CGA:   6    -0.374790503496E+03   -0.27983E+01   -0.26282E+01  8736   0.788E+02-0.878E+01
CGA:   7    -0.378795810171E+03   -0.40053E+01   -0.39806E+01  8736   0.830E+02 0.185E+01
CGA:   8    -0.380860441113E+03   -0.20646E+01   -0.20584E+01  8736   0.342E+02-0.243E+01
CGA:   9    -0.382126344432E+03   -0.12659E+01   -0.13047E+01  8736   0.246E+02 0.811E+00
CGA:  10    -0.382911327867E+03   -0.78498E+00   -0.75570E+00  8736   0.158E+02 0.347E+00
CGA:  11    -0.383546051781E+03   -0.63472E+00   -0.65026E+00  8736   0.863E+01 0.692E+00
CGA:  12    -0.383866211646E+03   -0.32016E+00   -0.31282E+00  8736   0.674E+01-0.590E-01
CGA:  13    -0.384101994365E+03   -0.23578E+00   -0.23880E+00  8736   0.337E+01 0.489E-01
CGA:  14    -0.384218077718E+03   -0.11608E+00   -0.11791E+00  8736   0.176E+01 0.218E-01
CGA:  15    -0.384277805943E+03   -0.59728E-01   -0.60708E-01  8736   0.109E+01 0.144E-01
CGA:  16    -0.384327652454E+03   -0.49847E-01   -0.49848E-01  8736   0.116E+01-0.434E-02
CGA:  17    -0.384376595818E+03   -0.48943E-01   -0.49139E-01  8736   0.494E+00 0.303E-01
CGA:  18    -0.384393050196E+03   -0.16454E-01   -0.16698E-01  8736   0.318E+00 0.258E-02
CGA:  19    -0.384407339741E+03   -0.14290E-01   -0.14288E-01  8736   0.193E+00 0.101E-01
CGA:  20    -0.384417887475E+03   -0.10548E-01   -0.10540E-01  8736   0.211E+00 0.592E-03
CGA:  21    -0.384425790792E+03   -0.79033E-02   -0.79567E-02  8736   0.108E+00 0.230E-02
CGA:  22    -0.384431989998E+03   -0.61992E-02   -0.61923E-02  8736   0.100E+00 0.376E-03
CGA:  23    -0.384436024693E+03   -0.40347E-02   -0.40579E-02  8736   0.628E-01 0.180E-02
CGA:  24    -0.384439117502E+03   -0.30928E-02   -0.30925E-02  8736   0.515E-01 0.823E-04
CGA:  25    -0.384441976796E+03   -0.28593E-02   -0.28436E-02  8736   0.526E-01 0.107E-02
CGA:  26    -0.384444547265E+03   -0.25705E-02   -0.25749E-02  8736   0.399E-01-0.995E-03
CGA:  27    -0.384446098901E+03   -0.15516E-02   -0.15597E-02  8736   0.198E-01 0.500E-03
CGA:  28    -0.384447302922E+03   -0.12040E-02   -0.12051E-02  8736   0.220E-01-0.401E-04
CGA:  29    -0.384448195777E+03   -0.89285E-03   -0.89512E-03  8736   0.146E-01 0.162E-03
CGA:  30    -0.384449177492E+03   -0.98171E-03   -0.98373E-03  8736   0.138E-01-0.751E-04
CGA:  31    -0.384449684396E+03   -0.50690E-03   -0.50898E-03  8736   0.793E-02 0.479E-04
CGA:  32    -0.384450123961E+03   -0.43957E-03   -0.44070E-03  8736   0.733E-02-0.790E-04
CGA:  33    -0.384450505349E+03   -0.38139E-03   -0.38061E-03  8736   0.693E-02 0.853E-04
CGA:  34    -0.384450872067E+03   -0.36672E-03   -0.36691E-03  8736   0.543E-02-0.186E-04
SDA:  35    -0.384451084427E+03   -0.21236E-03   -0.21272E-03  8736   0.306E-02 0.110E-04
CGA:  36    -0.384451154083E+03   -0.69656E-04   -0.69630E-04  8736   0.144E-02 0.219E-05
CGA:  37    -0.384451265211E+03   -0.11113E-03   -0.11126E-03  8736   0.229E-02-0.538E-05
CGA:  38    -0.384451521392E+03   -0.25618E-03   -0.25893E-03  8736   0.342E-02-0.444E-04
CGA:  39    -0.384451676548E+03   -0.15516E-03   -0.15531E-03  8736   0.132E-02 0.110E-04
CGA:  40    -0.384451788998E+03   -0.11245E-03   -0.11268E-03  8736   0.176E-02-0.640E-05
CGA:  41    -0.384451847508E+03   -0.58510E-04   -0.58610E-04  8736   0.143E-02-0.621E-05
CGA:  42    -0.384451954360E+03   -0.10685E-03   -0.10767E-03  8736   0.717E-03-0.295E-04
CGA:  43    -0.384452014382E+03   -0.60022E-04   -0.59882E-04  8736   0.819E-03 0.306E-05
CGA:  44    -0.384452040856E+03   -0.26474E-04   -0.26349E-04  8736   0.543E-03 0.324E-05
CGA:  45    -0.384452073188E+03   -0.32332E-04   -0.32317E-04  8736   0.519E-03 0.144E-05
CGA:  46    -0.384452120615E+03   -0.47427E-04   -0.47392E-04  8736   0.803E-03 0.280E-06
CGA:  47    -0.384452159733E+03   -0.39118E-04   -0.39137E-04  8736   0.263E-03-0.436E-06
CGA:  48    -0.384452169538E+03   -0.98042E-05   -0.98050E-05  8736   0.339E-03 0.113E-05
CGA:  49    -0.384452209361E+03   -0.39824E-04   -0.39559E-04  8736   0.207E-03 0.409E-05
CGA:  50    -0.384452228143E+03   -0.18781E-04   -0.18739E-04  8736   0.243E-03 0.109E-05
CGA:  51    -0.384452236305E+03   -0.81628E-05   -0.81912E-05  8736   0.210E-03-0.434E-06
CGA:  52    -0.384452249866E+03   -0.13561E-04   -0.13546E-04  8736   0.787E-04 0.216E-05
CGA:  53    -0.384452258046E+03   -0.81796E-05   -0.80905E-05  8736   0.155E-03 0.169E-05
   4 F= -.38445226E+03 E0= -.38443647E+03  d E =-.152168E+00  mag=    34.0000
       N       E                     dE             d eps       ncg     rms          ort
SDA:   1    -0.353627563741E+03    0.30825E+02    0.00000E+00  8736   0.160E+04 0.000E+00
CGA:   2    -0.365933915430E+03   -0.12306E+02   -0.41163E+02  8736   0.288E+03-0.189E+03
CGA:   3    -0.374137675260E+03   -0.82038E+01   -0.53094E+01  8736   0.490E+02 0.556E+02
CGA:   4    -0.375377992143E+03   -0.12403E+01   -0.90580E+00  8736   0.410E+02 0.193E+02
CGA:   5    -0.376792287872E+03   -0.14143E+01   -0.12908E+01  8736   0.762E+02-0.165E+00
CGA:   6    -0.377616074059E+03   -0.82379E+00   -0.98866E+00  8736   0.111E+03-0.148E+02
CGA:   7    -0.377966684200E+03   -0.35061E+00   -0.11621E+01  8736   0.252E+03-0.581E+02
CGA:   8    -0.380281548568E+03   -0.23149E+01   -0.50843E+01  8736   0.121E+03-0.113E+03
CGA:   9    -0.381371462590E+03   -0.10899E+01   -0.15030E+01  8736   0.574E+02-0.846E+01
CGA:  10    -0.382191274475E+03   -0.81981E+00   -0.99450E+00  8736   0.186E+02-0.611E+01
CGA:  11    -0.382509753893E+03   -0.31848E+00   -0.30936E+00  8736   0.107E+02 0.342E+00
CGA:  12    -0.382972750336E+03   -0.46300E+00   -0.46247E+00  8736   0.149E+02-0.553E+00
CGA:  13    -0.383504920121E+03   -0.53217E+00   -0.53273E+00  8736   0.239E+02 0.337E-01
CGA:  14    -0.384015098468E+03   -0.51018E+00   -0.51587E+00  8736   0.813E+01-0.916E-01
CGA:  15    -0.384305540031E+03   -0.29044E+00   -0.29571E+00  8736   0.230E+01 0.383E+00
CGA:  16    -0.384375889838E+03   -0.70350E-01   -0.70560E-01  8736   0.164E+01 0.350E-03
CGA:  17    -0.384434792024E+03   -0.58902E-01   -0.59148E-01  8736   0.127E+01 0.203E-01
CGA:  18    -0.384501119307E+03   -0.66327E-01   -0.66043E-01  8736   0.605E+00 0.184E-01
CGA:  19    -0.384525039989E+03   -0.23921E-01   -0.23909E-01  8736   0.145E+00-0.249E-02
CGA:  20    -0.384533999628E+03   -0.89596E-02   -0.89104E-02  8736   0.227E+00 0.200E-02
CGA:  21    -0.384544362401E+03   -0.10363E-01   -0.10348E-01  8736   0.265E+00 0.285E-02
CGA:  22    -0.384555173635E+03   -0.10811E-01   -0.10819E-01  8736   0.109E+00 0.214E-02
CGA:  23    -0.384560489426E+03   -0.53158E-02   -0.52968E-02  8736   0.540E-01 0.194E-02
CGA:  24    -0.384563767442E+03   -0.32780E-02   -0.32597E-02  8736   0.755E-01 0.850E-03
CGA:  25    -0.384566315898E+03   -0.25485E-02   -0.25483E-02  8736   0.388E-01 0.463E-04
CGA:  26    -0.384568351011E+03   -0.20351E-02   -0.20280E-02  8736   0.300E-01 0.513E-03
CGA:  27    -0.384570470498E+03   -0.21195E-02   -0.21123E-02  8736   0.217E-01 0.243E-03
CGA:  28    -0.384571288915E+03   -0.81842E-03   -0.82053E-03  8736   0.196E-01 0.978E-04
CGA:  29    -0.384572208082E+03   -0.91917E-03   -0.91904E-03  8736   0.121E-01 0.384E-04
CGA:  30    -0.384572806855E+03   -0.59877E-03   -0.59809E-03  8736   0.644E-02 0.869E-04
CGA:  31    -0.384573290809E+03   -0.48395E-03   -0.48241E-03  8736   0.104E-01 0.500E-04
CGA:  32    -0.384573676136E+03   -0.38533E-03   -0.38694E-03  8736   0.645E-02 0.528E-04
CGA:  33    -0.384573976735E+03   -0.30060E-03   -0.30061E-03  8736   0.291E-02-0.324E-05
CGA:  34    -0.384574136900E+03   -0.16017E-03   -0.15996E-03  8736   0.225E-02 0.131E-04
CGA:  35    -0.384574246775E+03   -0.10988E-03   -0.10990E-03  8736   0.303E-02-0.451E-05
CGA:  36    -0.384574411956E+03   -0.16518E-03   -0.16508E-03  8736   0.218E-02 0.818E-05
CGA:  37    -0.384574538068E+03   -0.12611E-03   -0.12609E-03  8736   0.142E-02 0.184E-05
SDA:  38    -0.384574614789E+03   -0.76721E-04   -0.76674E-04  8736   0.159E-02 0.300E-05
CGA:  39    -0.384574642378E+03   -0.27589E-04   -0.27628E-04  8736   0.403E-03 0.309E-05
CGA:  40    -0.384574711304E+03   -0.68926E-04   -0.68391E-04  8736   0.931E-03 0.437E-05
CGA:  41    -0.384574791429E+03   -0.80124E-04   -0.79950E-04  8736   0.549E-03 0.512E-05
CGA:  42    -0.384574826409E+03   -0.34981E-04   -0.34944E-04  8736   0.578E-03 0.198E-05
CGA:  43    -0.384574864300E+03   -0.37890E-04   -0.37930E-04  8736   0.697E-03-0.300E-05
CGA:  44    -0.384574895289E+03   -0.30989E-04   -0.30956E-04  8736   0.822E-03-0.534E-05
CGA:  45    -0.384574934664E+03   -0.39375E-04   -0.39315E-04  8736   0.296E-03-0.777E-05
CGA:  46    -0.384574972258E+03   -0.37594E-04   -0.37502E-04  8736   0.228E-03 0.962E-06
CGA:  47    -0.384574988201E+03   -0.15943E-04   -0.15915E-04  8736   0.372E-03 0.229E-05
CGA:  48    -0.384574999893E+03   -0.11692E-04   -0.11773E-04  8736   0.159E-03 0.365E-06
CGA:  49    -0.384575010170E+03   -0.10277E-04   -0.10258E-04  8736   0.135E-03 0.234E-05
CGA:  50    -0.384575019093E+03   -0.89225E-05   -0.89068E-05  8736   0.143E-03 0.152E-05
CGA:  51    -0.384575030126E+03   -0.11033E-04   -0.10990E-04  8736   0.141E-03 0.238E-05
CGA:  52    -0.384575034047E+03   -0.39211E-05   -0.39344E-05  8736   0.775E-04-0.315E-06
   5 F= -.38457503E+03 E0= -.38455905E+03  d E =-.122776E+00  mag=    34.0000
       N       E                     dE             d eps       ncg     rms          ort
SDA:   1    -0.379536639460E+03    0.50384E+01    0.00000E+00  8736   0.443E+02 0.000E+00
CGA:   2    -0.380741743771E+03   -0.12051E+01   -0.11600E+01  8736   0.229E+02 0.316E+00
CGA:   3    -0.382233378582E+03   -0.14916E+01   -0.15849E+01  8736   0.271E+02-0.604E+01
CGA:   4    -0.383043497510E+03   -0.81012E+00   -0.79993E+00  8736   0.111E+02 0.677E-02
CGA:   5    -0.383603872377E+03   -0.56037E+00   -0.48989E+00  8736   0.763E+01-0.431E+00
CGA:   6    -0.384105640961E+03   -0.50177E+00   -0.48438E+00  8736   0.437E+01 0.115E+01
CGA:   7    -0.384477690902E+03   -0.37205E+00   -0.38902E+00  8736   0.163E+01-0.102E+01
CGA:   8    -0.384504349656E+03   -0.26659E-01   -0.25331E-01  8736   0.160E+01 0.518E-01
CGA:   9    -0.384552991329E+03   -0.48642E-01   -0.50034E-01  8736   0.878E+00-0.141E-01
CGA:  10    -0.384576185363E+03   -0.23194E-01   -0.27009E-01  8736   0.778E+00-0.363E-01
CGA:  11    -0.384599026890E+03   -0.22842E-01   -0.22840E-01  8736   0.556E+00 0.491E-03
CGA:  12    -0.384620653062E+03   -0.21626E-01   -0.21047E-01  8736   0.212E+00-0.306E-02
CGA:  13    -0.384624652712E+03   -0.39997E-02   -0.41828E-02  8736   0.106E+00-0.613E-02
CGA:  14    -0.384631224387E+03   -0.65717E-02   -0.65685E-02  8736   0.663E-01 0.171E-03
CGA:  15    -0.384634120469E+03   -0.28961E-02   -0.28805E-02  8736   0.100E+00-0.630E-03
CGA:  16    -0.384637233428E+03   -0.31130E-02   -0.32114E-02  8736   0.373E-01-0.900E-04
CGA:  17    -0.384638954916E+03   -0.17215E-02   -0.17304E-02  8736   0.418E-01 0.119E-02
CGA:  18    -0.384640126498E+03   -0.11716E-02   -0.11585E-02  8736   0.184E-01 0.213E-03
CGA:  19    -0.384640977732E+03   -0.85123E-03   -0.85110E-03  8736   0.142E-01-0.340E-04
CGA:  20    -0.384641741887E+03   -0.76416E-03   -0.75960E-03  8736   0.143E-01 0.524E-03
CGA:  21    -0.384642131486E+03   -0.38960E-03   -0.38960E-03  8736   0.737E-02 0.155E-04
CGA:  22    -0.384642890923E+03   -0.75944E-03   -0.75579E-03  8736   0.737E-02 0.607E-04
CGA:  23    -0.384643253130E+03   -0.36221E-03   -0.36239E-03  8736   0.839E-02 0.620E-04
CGA:  24    -0.384643493925E+03   -0.24080E-03   -0.24036E-03  8736   0.282E-02 0.213E-04
CGA:  25    -0.384643768803E+03   -0.27488E-03   -0.27452E-03  8736   0.385E-02 0.613E-05
CGA:  26    -0.384643989933E+03   -0.22113E-03   -0.22090E-03  8736   0.430E-02 0.243E-04
CGA:  27    -0.384644150355E+03   -0.16042E-03   -0.16024E-03  8736   0.271E-02 0.273E-05
CGA:  28    -0.384644236595E+03   -0.86240E-04   -0.86200E-04  8736   0.777E-03-0.448E-06
CGA:  29    -0.384644351060E+03   -0.11447E-03   -0.11386E-03  8736   0.134E-02 0.692E-05
CGA:  30    -0.384644394820E+03   -0.43759E-04   -0.43776E-04  8736   0.110E-02 0.312E-05
CGA:  31    -0.384644447570E+03   -0.52750E-04   -0.52736E-04  8736   0.486E-03-0.231E-05
SDA:  32    -0.384644482419E+03   -0.34849E-04   -0.34860E-04  8736   0.557E-03-0.107E-05
CGA:  33    -0.384644497293E+03   -0.14874E-04   -0.14919E-04  8736   0.191E-03 0.166E-05
CGA:  34    -0.384644510777E+03   -0.13484E-04   -0.13481E-04  8736   0.474E-03-0.505E-07
CGA:  35    -0.384644537212E+03   -0.26435E-04   -0.26434E-04  8736   0.283E-03 0.629E-06
CGA:  36    -0.384644561787E+03   -0.24575E-04   -0.24684E-04  8736   0.123E-03-0.340E-05
CGA:  37    -0.384644578736E+03   -0.16948E-04   -0.17133E-04  8736   0.200E-03-0.230E-05
CGA:  38    -0.384644592621E+03   -0.13885E-04   -0.13894E-04  8736   0.362E-03-0.105E-05
CGA:  39    -0.384644603657E+03   -0.11035E-04   -0.11015E-04  8736   0.110E-03 0.689E-06
CGA:  40    -0.384644616133E+03   -0.12477E-04   -0.12561E-04  8736   0.581E-04-0.161E-05
CGA:  41    -0.384644623239E+03   -0.71061E-05   -0.70507E-05  8736   0.166E-03 0.820E-06
   6 F= -.38464462E+03 E0= -.38462871E+03  d E =-.695892E-01  mag=    34.0000
       N       E                     dE             d eps       ncg     rms          ort
SDA:   1    -0.351125614072E+03    0.33519E+02    0.00000E+00  8736   0.142E+04 0.000E+00
CGA:   2    -0.363358526578E+03   -0.12233E+02   -0.38919E+02  8736   0.322E+03-0.166E+03
CGA:   3    -0.373526265479E+03   -0.10168E+02   -0.70080E+01  8736   0.715E+02-0.454E+02
CGA:   4    -0.375644871379E+03   -0.21186E+01   -0.17904E+01  8736   0.802E+02 0.459E+01
CGA:   5    -0.376958241156E+03   -0.13134E+01   -0.11082E+01  8736   0.539E+02 0.494E+01
CGA:   6    -0.378181427350E+03   -0.12232E+01   -0.13164E+01  8736   0.158E+03-0.675E+01
CGA:   7    -0.379131015839E+03   -0.94959E+00   -0.22411E+01  8736   0.188E+03-0.696E+02
CGA:   8    -0.379400938233E+03   -0.26992E+00   -0.11276E+01  8736   0.182E+03-0.685E+02
CGA:   9    -0.380219999791E+03   -0.81906E+00   -0.69529E+00  8736   0.139E+03 0.593E+01
CGA:  10    -0.380204628771E+03    0.15371E-01   -0.13493E+01  8736   0.226E+03-0.181E+03
CGA:  11    -0.380121073403E+03    0.83555E-01   -0.39193E+01  8736   0.232E+03-0.171E+03
CGA:  12    -0.382112178004E+03   -0.19911E+01   -0.26839E+01  8736   0.645E+02-0.117E+03
CGA:  13    -0.382619737928E+03   -0.50756E+00   -0.72995E+00  8736   0.221E+02-0.193E+02
CGA:  14    -0.383395930123E+03   -0.77619E+00   -0.79391E+00  8736   0.370E+02-0.123E+01
CGA:  15    -0.384047271807E+03   -0.65134E+00   -0.71506E+00  8736   0.159E+02-0.198E+01
CGA:  16    -0.384291129478E+03   -0.24386E+00   -0.24782E+00  8736   0.410E+01-0.294E+00
CGA:  17    -0.384378074675E+03   -0.86945E-01   -0.87134E-01  8736   0.307E+01-0.797E-02
CGA:  18    -0.384476661328E+03   -0.98587E-01   -0.98250E-01  8736   0.353E+01-0.162E-01
CGA:  19    -0.384568726677E+03   -0.92065E-01   -0.94112E-01  8736   0.226E+01 0.673E-02
CGA:  20    -0.384609900771E+03   -0.41174E-01   -0.42693E-01  8736   0.969E+00-0.470E-01
CGA:  21    -0.384637737896E+03   -0.27837E-01   -0.28183E-01  8736   0.103E+01 0.116E-01
CGA:  22    -0.384670318786E+03   -0.32581E-01   -0.33009E-01  8736   0.913E+00 0.290E-01
CGA:  23    -0.384696520152E+03   -0.26201E-01   -0.26865E-01  8736   0.620E+00 0.201E-01
CGA:  24    -0.384713809317E+03   -0.17289E-01   -0.17798E-01  8736   0.404E+00 0.143E-01
CGA:  25    -0.384727773447E+03   -0.13964E-01   -0.14007E-01  8736   0.339E+00 0.108E-01
CGA:  26    -0.384740217183E+03   -0.12444E-01   -0.12435E-01  8736   0.228E+00 0.221E-01
CGA:  27    -0.384747855363E+03   -0.76382E-02   -0.76974E-02  8736   0.148E+00 0.591E-02
CGA:  28    -0.384754519919E+03   -0.66646E-02   -0.65504E-02  8736   0.134E+00 0.988E-02
CGA:  29    -0.384760089133E+03   -0.55692E-02   -0.55492E-02  8736   0.928E-01 0.369E-02
CGA:  30    -0.384763841819E+03   -0.37527E-02   -0.37348E-02  8736   0.616E-01 0.323E-02
CGA:  31    -0.384766504343E+03   -0.26625E-02   -0.26503E-02  8736   0.496E-01 0.143E-02
CGA:  32    -0.384769068102E+03   -0.25638E-02   -0.25306E-02  8736   0.424E-01 0.191E-02
CGA:  33    -0.384770753913E+03   -0.16858E-02   -0.16844E-02  8736   0.244E-01 0.627E-03
CGA:  34    -0.384771952854E+03   -0.11989E-02   -0.11924E-02  8736   0.234E-01 0.446E-03
CGA:  35    -0.384773209639E+03   -0.12568E-02   -0.12476E-02  8736   0.200E-01 0.498E-03
CGA:  36    -0.384774054047E+03   -0.84441E-03   -0.84357E-03  8736   0.122E-01 0.182E-03
CGA:  37    -0.384774689932E+03   -0.63588E-03   -0.63280E-03  8736   0.125E-01 0.182E-03
CGA:  38    -0.384775367736E+03   -0.67780E-03   -0.67587E-03  8736   0.104E-01 0.113E-03
CGA:  39    -0.384775830947E+03   -0.46321E-03   -0.46257E-03  8736   0.679E-02 0.945E-04
CGA:  40    -0.384776167304E+03   -0.33636E-03   -0.33605E-03  8736   0.608E-02 0.309E-04
CGA:  41    -0.384776502750E+03   -0.33545E-03   -0.33414E-03  8736   0.523E-02 0.720E-04
CGA:  42    -0.384776740307E+03   -0.23756E-03   -0.23754E-03  8736   0.359E-02 0.807E-05
SDA:  43    -0.384776920927E+03   -0.18062E-03   -0.18042E-03  8736   0.311E-02 0.153E-04
CGA:  44    -0.384776977115E+03   -0.56188E-04   -0.56252E-04  8736   0.890E-03 0.240E-05
CGA:  45    -0.384777203265E+03   -0.22615E-03   -0.91326E-05  8736   0.319E-02-0.351E-04
CGA:  46    -0.384777335635E+03   -0.13237E-03   -0.13195E-03  8736   0.133E-02 0.873E-06
CGA:  47    -0.384777441247E+03   -0.10561E-03   -0.10565E-03  8736   0.119E-02-0.466E-05
CGA:  48    -0.384777543220E+03   -0.10197E-03   -0.10192E-03  8736   0.198E-02 0.262E-05
CGA:  49    -0.384777603076E+03   -0.59857E-04   -0.59438E-04  8736   0.111E-02 0.142E-04
CGA:  50    -0.384777711633E+03   -0.10856E-03   -0.10861E-03  8736   0.131E-02-0.852E-06
CGA:  51    -0.384777788056E+03   -0.76423E-04   -0.76510E-04  8736   0.827E-03 0.192E-05
CGA:  52    -0.384777834963E+03   -0.46907E-04   -0.46868E-04  8736   0.664E-03 0.109E-06
CGA:  53    -0.384777929604E+03   -0.94640E-04   -0.94149E-04  8736   0.646E-03 0.704E-05
CGA:  54    -0.384777949614E+03   -0.20011E-04   -0.19954E-04  8736   0.509E-03 0.387E-05
CGA:  55    -0.384777982160E+03   -0.32546E-04   -0.32590E-04  8736   0.514E-03 0.270E-05
CGA:  56    -0.384778022549E+03   -0.40389E-04   -0.40386E-04  8736   0.469E-03 0.196E-05
CGA:  57    -0.384778045505E+03   -0.22956E-04   -0.23074E-04  8736   0.323E-03 0.173E-05
CGA:  58    -0.384778081996E+03   -0.36491E-04   -0.36020E-04  8736   0.696E-03 0.106E-04
CGA:  59    -0.384778099484E+03   -0.17488E-04   -0.17264E-04  8736   0.173E-03 0.164E-04
CGA:  60    -0.384778124363E+03   -0.24879E-04   -0.24625E-04  8736   0.212E-03 0.372E-05
CGA:  61    -0.384778141195E+03   -0.16832E-04   -0.16821E-04  8736   0.305E-03 0.215E-05
CGA:  62    -0.384778160183E+03   -0.18988E-04   -0.19005E-04  8736   0.976E-04 0.135E-05
CGA:  63    -0.384778170731E+03   -0.10548E-04   -0.10486E-04  8736   0.762E-04 0.189E-05
CGA:  64    -0.384778176487E+03   -0.57562E-05   -0.57578E-05  8736   0.160E-03 0.146E-05
   7 F= -.38477818E+03 E0= -.38476224E+03  d E =-.133553E+00  mag=    34.0000
       N       E                     dE             d eps       ncg     rms          ort
SDA:   1    -0.370921815371E+03    0.13856E+02    0.00000E+00  8736   0.399E+03 0.000E+00
CGA:   2    -0.373573458701E+03   -0.26516E+01   -0.13380E+02  8736   0.250E+03-0.144E+03
CGA:   3    -0.378465715106E+03   -0.48923E+01   -0.39025E+01  8736   0.267E+02 0.323E+02
CGA:   4    -0.379432234713E+03   -0.96652E+00   -0.79442E+00  8736   0.300E+02 0.520E+01
CGA:   5    -0.380797022943E+03   -0.13648E+01   -0.13180E+01  8736   0.412E+02-0.845E-01
CGA:   6    -0.382965026531E+03   -0.21680E+01   -0.22026E+01  8736   0.214E+02 0.146E+01
CGA:   7    -0.383368278642E+03   -0.40325E+00   -0.46632E+00  8736   0.167E+02-0.282E+01
CGA:   8    -0.383714371143E+03   -0.34609E+00   -0.19165E+00  8736   0.139E+02 0.115E+02
CGA:   9    -0.384026097927E+03   -0.31173E+00   -0.32064E+00  8736   0.662E+01-0.327E+00
CGA:  10    -0.384248471513E+03   -0.22237E+00   -0.18814E+00  8736   0.716E+01 0.613E+00
CGA:  11    -0.384509120731E+03   -0.26065E+00   -0.26331E+00  8736   0.381E+01-0.423E-02
CGA:  12    -0.384656101571E+03   -0.14698E+00   -0.14975E+00  8736   0.268E+01 0.128E-01
CGA:  13    -0.384703797420E+03   -0.47696E-01   -0.48828E-01  8736   0.643E+00-0.426E-01
CGA:  14    -0.384738186574E+03   -0.34389E-01   -0.34348E-01  8736   0.828E+00 0.185E-01
CGA:  15    -0.384802676724E+03   -0.64490E-01   -0.63329E-01  8736   0.124E+01 0.418E-01
CGA:  16    -0.384835114079E+03   -0.32437E-01   -0.32111E-01  8736   0.427E+00 0.100E-01
CGA:  17    -0.384853120543E+03   -0.18006E-01   -0.18201E-01  8736   0.184E+00 0.497E-02
CGA:  18    -0.384862498370E+03   -0.93778E-02   -0.93727E-02  8736   0.972E-01-0.103E-02
CGA:  19    -0.384869072125E+03   -0.65738E-02   -0.64875E-02  8736   0.127E+00 0.420E-02
CGA:  20    -0.384873977176E+03   -0.49051E-02   -0.49121E-02  8736   0.936E-01 0.106E-03
CGA:  21    -0.384877579293E+03   -0.36021E-02   -0.36178E-02  8736   0.303E-01 0.206E-03
CGA:  22    -0.384879166404E+03   -0.15871E-02   -0.15869E-02  8736   0.191E-01 0.139E-03
CGA:  23    -0.384880837292E+03   -0.16709E-02   -0.16643E-02  8736   0.383E-01 0.173E-03
CGA:  24    -0.384882417270E+03   -0.15800E-02   -0.15781E-02  8736   0.301E-01 0.209E-05
CGA:  25    -0.384883574444E+03   -0.11572E-02   -0.11752E-02  8736   0.120E-01 0.231E-03
CGA:  26    -0.384884526598E+03   -0.95215E-03   -0.95175E-03  8736   0.130E-01 0.218E-04
CGA:  27    -0.384885364357E+03   -0.83776E-03   -0.83480E-03  8736   0.107E-01 0.186E-03
CGA:  28    -0.384885803948E+03   -0.43959E-03   -0.43839E-03  8736   0.110E-01-0.290E-05
CGA:  29    -0.384886365466E+03   -0.56152E-03   -0.56171E-03  8736   0.743E-02 0.434E-04
CGA:  30    -0.384886758743E+03   -0.39328E-03   -0.39329E-03  8736   0.310E-02 0.232E-04
CGA:  31    -0.384887002004E+03   -0.24326E-03   -0.24312E-03  8736   0.475E-02 0.654E-05
CGA:  32    -0.384887278160E+03   -0.27616E-03   -0.27638E-03  8736   0.640E-02-0.280E-04
CGA:  33    -0.384887506800E+03   -0.22864E-03   -0.23034E-03  8736   0.298E-02-0.268E-05
CGA:  34    -0.384887722496E+03   -0.21570E-03   -0.21649E-03  8736   0.287E-02-0.302E-04
CGA:  35    -0.384887944682E+03   -0.22219E-03   -0.22065E-03  8736   0.269E-02 0.532E-04
CGA:  36    -0.384888075055E+03   -0.13037E-03   -0.12999E-03  8736   0.276E-02-0.977E-05
CGA:  37    -0.384888183361E+03   -0.10831E-03   -0.10855E-03  8736   0.220E-02 0.250E-05
CGA:  38    -0.384888356070E+03   -0.17271E-03   -0.17271E-03  8736   0.178E-02-0.851E-08
SDA:  39    -0.384888454119E+03   -0.98049E-04   -0.98045E-04  8736   0.905E-03-0.368E-05
CGA:  40    -0.384888486554E+03   -0.32436E-04   -0.32445E-04  8736   0.648E-03-0.102E-06
CGA:  41    -0.384888553653E+03   -0.67099E-04   -0.67037E-04  8736   0.179E-02 0.113E-05
CGA:  42    -0.384888610677E+03   -0.57024E-04   -0.56818E-04  8736   0.722E-03 0.604E-05
CGA:  43    -0.384888699054E+03   -0.88377E-04   -0.88383E-04  8736   0.558E-03-0.365E-07
CGA:  44    -0.384888743852E+03   -0.44798E-04   -0.44830E-04  8736   0.473E-03-0.972E-06
CGA:  45    -0.384888816942E+03   -0.73091E-04   -0.73089E-04  8736   0.577E-03-0.226E-06
CGA:  46    -0.384888867459E+03   -0.50517E-04   -0.50471E-04  8736   0.679E-03 0.122E-05
CGA:  47    -0.384888905131E+03   -0.37672E-04   -0.37656E-04  8736   0.681E-03-0.877E-06
CGA:  48    -0.384888932285E+03   -0.27154E-04   -0.27262E-04  8736   0.507E-03-0.128E-05
CGA:  49    -0.384888950572E+03   -0.18287E-04   -0.18191E-04  8736   0.282E-03 0.409E-05
CGA:  50    -0.384888985213E+03   -0.34641E-04   -0.34584E-04  8736   0.384E-03 0.110E-05
CGA:  51    -0.384889027453E+03   -0.42241E-04   -0.42232E-04  8736   0.987E-04 0.884E-07
CGA:  52    -0.384889038804E+03   -0.11351E-04   -0.11237E-04  8736   0.380E-03 0.245E-05
CGA:  53    -0.384889052441E+03   -0.13637E-04   -0.13644E-04  8736   0.163E-03 0.677E-05
CGA:  54    -0.384889063815E+03   -0.11373E-04   -0.11373E-04  8736   0.835E-04 0.337E-05
CGA:  55    -0.384889068714E+03   -0.48987E-05   -0.49004E-05  8736   0.114E-03 0.178E-06
   8 F= -.38488907E+03 E0= -.38487213E+03  d E =-.110892E+00  mag=    34.0000
       N       E                     dE             d eps       ncg     rms          ort
SDA:   1    -0.375747184664E+03    0.91419E+01    0.00000E+00  8736   0.111E+03 0.000E+00
CGA:   2    -0.378400066099E+03   -0.26529E+01   -0.31538E+01  8736   0.384E+02 0.606E+01
CGA:   3    -0.380542245812E+03   -0.21422E+01   -0.21035E+01  8736   0.300E+02-0.394E+00
CGA:   4    -0.382154342398E+03   -0.16121E+01   -0.15859E+01  8736   0.247E+02-0.491E+00
CGA:   5    -0.383397156342E+03   -0.12428E+01   -0.12923E+01  8736   0.108E+02 0.229E+01
CGA:   6    -0.383619893230E+03   -0.22274E+00   -0.21998E+00  8736   0.134E+02-0.386E-01
CGA:   7    -0.384323800214E+03   -0.70391E+00   -0.68192E+00  8736   0.253E+02-0.562E+00
CGA:   8    -0.384637566142E+03   -0.31377E+00   -0.31516E+00  8736   0.515E+01 0.811E-01
CGA:   9    -0.384714655106E+03   -0.77089E-01   -0.74407E-01  8736   0.407E+01 0.134E+00
CGA:  10    -0.384789986109E+03   -0.75331E-01   -0.64656E-01  8736   0.152E+01 0.586E+00
CGA:  11    -0.384813090414E+03   -0.23104E-01   -0.23701E-01  8736   0.132E+01-0.372E-01
CGA:  12    -0.384853379388E+03   -0.40289E-01   -0.41329E-01  8736   0.206E+01-0.634E-02
CGA:  13    -0.384884778914E+03   -0.31400E-01   -0.40049E-01  8736   0.143E+01-0.284E+00
CGA:  14    -0.384919459453E+03   -0.34681E-01   -0.34489E-01  8736   0.889E+00 0.416E-02
CGA:  15    -0.384934572628E+03   -0.15113E-01   -0.14299E-01  8736   0.462E+00 0.389E-01
CGA:  16    -0.384947915249E+03   -0.13343E-01   -0.13600E-01  8736   0.357E+00-0.175E-02
CGA:  17    -0.384953778270E+03   -0.58630E-02   -0.64932E-02  8736   0.164E+00-0.222E-01
CGA:  18    -0.384960296059E+03   -0.65178E-02   -0.65182E-02  8736   0.163E+00 0.101E-03
CGA:  19    -0.384964319773E+03   -0.40237E-02   -0.40185E-02  8736   0.157E+00 0.155E-03
CGA:  20    -0.384971575515E+03   -0.72557E-02   -0.72416E-02  8736   0.136E+00 0.319E-02
CGA:  21    -0.384974025177E+03   -0.24497E-02   -0.25222E-02  8736   0.530E-01-0.224E-02
CGA:  22    -0.384977690092E+03   -0.36649E-02   -0.36742E-02  8736   0.549E-01-0.372E-03
CGA:  23    -0.384978748038E+03   -0.10579E-02   -0.10577E-02  8736   0.244E-01 0.635E-04
CGA:  24    -0.384979734028E+03   -0.98599E-03   -0.98727E-03  8736   0.217E-01 0.272E-03
CGA:  25    -0.384980594596E+03   -0.86057E-03   -0.86102E-03  8736   0.282E-01 0.572E-04
CGA:  26    -0.384981635751E+03   -0.10412E-02   -0.10406E-02  8736   0.286E-01-0.188E-04
CGA:  27    -0.384983032593E+03   -0.13968E-02   -0.13958E-02  8736   0.180E-01 0.915E-04
CGA:  28    -0.384983335556E+03   -0.30296E-03   -0.30214E-03  8736   0.536E-02 0.946E-05
CGA:  29    -0.384983855709E+03   -0.52015E-03   -0.51573E-03  8736   0.123E-01 0.845E-04
CGA:  30    -0.384984131146E+03   -0.27544E-03   -0.27473E-03  8736   0.623E-02 0.408E-04
CGA:  31    -0.384984591460E+03   -0.46031E-03   -0.45873E-03  8736   0.971E-02 0.486E-04
SDA:  32    -0.384984907799E+03   -0.31634E-03   -0.31647E-03  8736   0.879E-02 0.238E-05
CGA:  33    -0.384985079691E+03   -0.17189E-03   -0.17179E-03  8736   0.316E-02 0.623E-05
CGA:  34    -0.384985215095E+03   -0.13540E-03   -0.13541E-03  8736   0.198E-02-0.130E-04
CGA:  35    -0.384985429968E+03   -0.21487E-03   -0.21621E-03  8736   0.245E-02-0.210E-04
CGA:  36    -0.384985574405E+03   -0.14444E-03   -0.14456E-03  8736   0.246E-02-0.681E-05
CGA:  37    -0.384985744598E+03   -0.17019E-03   -0.17027E-03  8736   0.159E-02-0.324E-05
CGA:  38    -0.384985876591E+03   -0.13199E-03   -0.13212E-03  8736   0.144E-02-0.400E-05
CGA:  39    -0.384985934523E+03   -0.57931E-04   -0.57888E-04  8736   0.235E-02 0.264E-05
CGA:  40    -0.384986082183E+03   -0.14766E-03   -0.14726E-03  8736   0.764E-03 0.235E-04
CGA:  41    -0.384986166335E+03   -0.84152E-04   -0.83816E-04  8736   0.931E-03 0.569E-05
CGA:  42    -0.384986237483E+03   -0.71148E-04   -0.71417E-04  8736   0.222E-02-0.921E-05
CGA:  43    -0.384986298804E+03   -0.61321E-04   -0.61759E-04  8736   0.815E-03-0.150E-04
CGA:  44    -0.384986386347E+03   -0.87543E-04   -0.88441E-04  8736   0.674E-03-0.163E-04
CGA:  45    -0.384986411512E+03   -0.25165E-04   -0.25128E-04  8736   0.421E-03-0.203E-05
CGA:  46    -0.384986439218E+03   -0.27706E-04   -0.27727E-04  8736   0.797E-03-0.245E-05
CGA:  47    -0.384986463866E+03   -0.24648E-04   -0.24435E-04  8736   0.478E-03 0.440E-05
CGA:  48    -0.384986495762E+03   -0.31896E-04   -0.31848E-04  8736   0.270E-03 0.377E-05
CGA:  49    -0.384986514891E+03   -0.19129E-04   -0.19058E-04  8736   0.305E-03 0.418E-05
CGA:  50    -0.384986521939E+03   -0.70479E-05   -0.70834E-05  8736   0.147E-03 0.292E-05
   9 F= -.38498652E+03 E0= -.38496792E+03  d E =-.974532E-01  mag=    34.0000
       N       E                     dE             d eps       ncg     rms          ort
SDA:   1    -0.375983764000E+03    0.90028E+01    0.00000E+00  8736   0.742E+02 0.000E+00
CGA:   2    -0.378592187141E+03   -0.26084E+01   -0.20496E+01  8736   0.336E+02 0.193E+02
CGA:   3    -0.380453131500E+03   -0.18609E+01   -0.19200E+01  8736   0.330E+02 0.262E+01
CGA:   4    -0.381188186782E+03   -0.73506E+00   -0.67492E+00  8736   0.357E+02 0.227E+01
CGA:   5    -0.382581878664E+03   -0.13937E+01   -0.12885E+01  8736   0.489E+02 0.129E+01
CGA:   6    -0.383117838643E+03   -0.53596E+00   -0.78752E+00  8736   0.220E+02-0.130E+02
CGA:   7    -0.383494858287E+03   -0.37702E+00   -0.39965E+00  8736   0.129E+02-0.164E+00
CGA:   8    -0.383916590227E+03   -0.42173E+00   -0.43071E+00  8736   0.182E+02 0.516E-01
CGA:   9    -0.384339909693E+03   -0.42332E+00   -0.30717E+00  8736   0.117E+02 0.534E+01
CGA:  10    -0.384575933331E+03   -0.23602E+00   -0.21578E+00  8736   0.532E+01 0.105E+01
CGA:  11    -0.384691368802E+03   -0.11544E+00   -0.11331E+00  8736   0.729E+01 0.519E-01
CGA:  12    -0.384812040233E+03   -0.12067E+00   -0.11670E+00  8736   0.353E+01 0.191E+00
CGA:  13    -0.384861114992E+03   -0.49075E-01   -0.52216E-01  8736   0.282E+01-0.162E+00
CGA:  14    -0.384904384667E+03   -0.43270E-01   -0.44408E-01  8736   0.172E+01-0.500E-01
CGA:  15    -0.384930161351E+03   -0.25777E-01   -0.27035E-01  8736   0.142E+01-0.511E-01
CGA:  16    -0.384955709914E+03   -0.25549E-01   -0.23617E-01  8736   0.997E+00 0.652E-01
CGA:  17    -0.384973844661E+03   -0.18135E-01   -0.17784E-01  8736   0.123E+01 0.119E-01
CGA:  18    -0.385000308781E+03   -0.26464E-01   -0.26350E-01  8736   0.127E+01 0.181E-02
CGA:  19    -0.385015757583E+03   -0.15449E-01   -0.17688E-01  8736   0.725E+00-0.105E+00
CGA:  20    -0.385033236341E+03   -0.17479E-01   -0.17799E-01  8736   0.886E+00 0.124E-01
CGA:  21    -0.385047597870E+03   -0.14362E-01   -0.14384E-01  8736   0.238E+00-0.480E-03
CGA:  22    -0.385052250303E+03   -0.46524E-02   -0.45494E-02  8736   0.205E+00 0.150E-02
CGA:  23    -0.385058083063E+03   -0.58328E-02   -0.58497E-02  8736   0.249E+00 0.197E-02
CGA:  24    -0.385064544982E+03   -0.64619E-02   -0.65310E-02  8736   0.239E+00 0.382E-02
CGA:  25    -0.385070129565E+03   -0.55846E-02   -0.56015E-02  8736   0.168E+00 0.464E-03
CGA:  26    -0.385075446630E+03   -0.53171E-02   -0.53174E-02  8736   0.147E+00-0.234E-03
CGA:  27    -0.385077776317E+03   -0.23297E-02   -0.23356E-02  8736   0.405E-01-0.184E-03
CGA:  28    -0.385079198634E+03   -0.14223E-02   -0.14226E-02  8736   0.791E-01-0.631E-04
CGA:  29    -0.385081827892E+03   -0.26293E-02   -0.26310E-02  8736   0.694E-01-0.356E-03
CGA:  30    -0.385083525582E+03   -0.16977E-02   -0.16998E-02  8736   0.560E-01 0.115E-03
CGA:  31    -0.385084921755E+03   -0.13962E-02   -0.14016E-02  8736   0.408E-01 0.323E-03
SDA:  32    -0.385085924236E+03   -0.10025E-02   -0.10031E-02  8736   0.185E-01 0.570E-04
CGA:  33    -0.385086348484E+03   -0.42425E-03   -0.42321E-03  8736   0.119E-01-0.267E-04
CGA:  34    -0.385086923421E+03   -0.57494E-03   -0.57644E-03  8736   0.130E-01-0.743E-04
CGA:  35    -0.385087918248E+03   -0.99483E-03   -0.99192E-03  8736   0.151E-01 0.700E-04
CGA:  36    -0.385088515524E+03   -0.59728E-03   -0.59726E-03  8736   0.339E-02 0.801E-05
CGA:  37    -0.385088911349E+03   -0.39583E-03   -0.39649E-03  8736   0.288E-02-0.584E-05
CGA:  38    -0.385088986957E+03   -0.75608E-04   -0.75538E-04  8736   0.296E-02 0.298E-06
CGA:  39    -0.385089259153E+03   -0.27220E-03   -0.27325E-03  8736   0.406E-02-0.190E-04
CGA:  40    -0.385089547121E+03   -0.28797E-03   -0.28738E-03  8736   0.337E-02 0.177E-04
CGA:  41    -0.385089694369E+03   -0.14725E-03   -0.14731E-03  8736   0.441E-02-0.102E-04
CGA:  42    -0.385089819625E+03   -0.12526E-03   -0.12541E-03  8736   0.167E-02-0.518E-05
CGA:  43    -0.385089884933E+03   -0.65309E-04   -0.65315E-04  8736   0.131E-02 0.301E-05
CGA:  44    -0.385090038267E+03   -0.15333E-03   -0.15272E-03  8736   0.178E-02 0.683E-05
CGA:  45    -0.385090078969E+03   -0.40702E-04   -0.40683E-04  8736   0.113E-02-0.195E-05
CGA:  46    -0.385090134093E+03   -0.55124E-04   -0.55120E-04  8736   0.555E-03 0.606E-06
CGA:  47    -0.385090189203E+03   -0.55110E-04   -0.55189E-04  8736   0.552E-03-0.154E-05
CGA:  48    -0.385090205715E+03   -0.16512E-04   -0.16482E-04  8736   0.650E-03-0.261E-05
CGA:  49    -0.385090246878E+03   -0.41163E-04   -0.41202E-04  8736   0.560E-03-0.166E-05
CGA:  50    -0.385090262585E+03   -0.15707E-04   -0.15698E-04  8736   0.100E-03-0.169E-06
CGA:  51    -0.385090282962E+03   -0.20376E-04   -0.19557E-04  8736   0.514E-03 0.556E-05
CGA:  52    -0.385090293777E+03   -0.10816E-04   -0.10880E-04  8736   0.116E-03 0.629E-05
CGA:  53    -0.385090304472E+03   -0.10695E-04   -0.10700E-04  8736   0.186E-03-0.177E-06
CGA:  54    -0.385090311438E+03   -0.69655E-05   -0.69864E-05  8736   0.154E-03 0.189E-05
  10 F= -.38509031E+03 E0= -.38507033E+03  d E =-.103789E+00  mag=    34.0000
       N       E                     dE             d eps       ncg     rms          ort
SDA:   1    -0.376947906659E+03    0.81424E+01    0.00000E+00  8736   0.511E+02 0.000E+00
CGA:   2    -0.379437334845E+03   -0.24894E+01   -0.32010E+01  8736   0.961E+02-0.388E+02
CGA:   3    -0.380763652460E+03   -0.13263E+01   -0.18122E+01  8736   0.485E+02-0.276E+02
CGA:   4    -0.381838087865E+03   -0.10744E+01   -0.11764E+01  8736   0.157E+02-0.269E+01
CGA:   5    -0.383282634307E+03   -0.14445E+01   -0.17080E+01  8736   0.378E+02-0.403E+01
CGA:   6    -0.383887296980E+03   -0.60466E+00   -0.59547E+00  8736   0.208E+02-0.659E-02
CGA:   7    -0.384676531027E+03   -0.78923E+00   -0.73175E+00  8736   0.345E+01-0.617E+00
CGA:   8    -0.384814190516E+03   -0.13766E+00   -0.13893E+00  8736   0.533E+01 0.404E-01
CGA:   9    -0.384951648809E+03   -0.13746E+00   -0.14018E+00  8736   0.247E+01-0.541E-01
CGA:  10    -0.385098751241E+03   -0.14710E+00   -0.14735E+00  8736   0.795E+00-0.139E-01
CGA:  11    -0.385114292414E+03   -0.15541E-01   -0.16071E-01  8736   0.534E+00-0.170E-01
CGA:  12    -0.385134931140E+03   -0.20639E-01   -0.20844E-01  8736   0.306E+00 0.790E-02
CGA:  13    -0.385151920793E+03   -0.16990E-01   -0.17015E-01  8736   0.393E+00-0.215E-02
CGA:  14    -0.385166616297E+03   -0.14696E-01   -0.14653E-01  8736   0.293E+00-0.874E-03
CGA:  15    -0.385171942354E+03   -0.53261E-02   -0.55677E-02  8736   0.745E-01-0.804E-02
CGA:  16    -0.385175674491E+03   -0.37321E-02   -0.37288E-02  8736   0.284E-01 0.390E-03
CGA:  17    -0.385178085631E+03   -0.24111E-02   -0.24229E-02  8736   0.769E-01-0.308E-03
CGA:  18    -0.385179898660E+03   -0.18130E-02   -0.18249E-02  8736   0.360E-01-0.258E-03
CGA:  19    -0.385181652148E+03   -0.17535E-02   -0.17532E-02  8736   0.114E-01 0.107E-03
CGA:  20    -0.385182339065E+03   -0.68692E-03   -0.68635E-03  8736   0.131E-01 0.326E-04
CGA:  21    -0.385182683860E+03   -0.34479E-03   -0.34512E-03  8736   0.123E-01-0.161E-04
CGA:  22    -0.385183560620E+03   -0.87676E-03   -0.87649E-03  8736   0.732E-02 0.108E-04
CGA:  23    -0.385184132864E+03   -0.57224E-03   -0.57070E-03  8736   0.684E-02 0.476E-04
CGA:  24    -0.385184318815E+03   -0.18595E-03   -0.18617E-03  8736   0.564E-02-0.654E-05
CGA:  25    -0.385184545986E+03   -0.22717E-03   -0.22692E-03  8736   0.438E-02-0.577E-05
CGA:  26    -0.385184731544E+03   -0.18556E-03   -0.18567E-03  8736   0.257E-02 0.120E-04
CGA:  27    -0.385184942889E+03   -0.21134E-03   -0.21103E-03  8736   0.212E-02 0.968E-05
CGA:  28    -0.385185036364E+03   -0.93475E-04   -0.93451E-04  8736   0.318E-02-0.136E-05
CGA:  29    -0.385185119507E+03   -0.83143E-04   -0.83049E-04  8736   0.983E-03-0.106E-04
CGA:  30    -0.385185184149E+03   -0.64642E-04   -0.64585E-04  8736   0.778E-03 0.367E-05
CGA:  31    -0.385185259193E+03   -0.75043E-04   -0.75133E-04  8736   0.129E-02-0.200E-05
CGA:  32    -0.385185290735E+03   -0.31542E-04   -0.31443E-04  8736   0.949E-03-0.571E-05
SDA:  33    -0.385185335633E+03   -0.44898E-04   -0.44891E-04  8736   0.412E-03-0.205E-05
CGA:  34    -0.385185350110E+03   -0.14477E-04   -0.14506E-04  8736   0.240E-03 0.166E-05
CGA:  35    -0.385185364518E+03   -0.14408E-04   -0.14378E-04  8736   0.507E-03 0.275E-05
CGA:  36    -0.385185386237E+03   -0.21720E-04   -0.21711E-04  8736   0.656E-03-0.166E-05
CGA:  37    -0.385185412403E+03   -0.26165E-04   -0.26156E-04  8736   0.173E-03-0.622E-06
CGA:  38    -0.385185439508E+03   -0.27105E-04   -0.27363E-04  8736   0.215E-03-0.233E-05
CGA:  39    -0.385185453693E+03   -0.14185E-04   -0.14205E-04  8736   0.555E-03-0.127E-05
CGA:  40    -0.385185468695E+03   -0.15003E-04   -0.14954E-04  8736   0.181E-03-0.496E-05
CGA:  41    -0.385185479793E+03   -0.11098E-04   -0.11123E-04  8736   0.159E-03-0.299E-05
CGA:  42    -0.385185487451E+03   -0.76574E-05   -0.76497E-05  8736   0.113E-03-0.167E-05
  11 F= -.38518549E+03 E0= -.38516462E+03  d E =-.951760E-01  mag=    34.0000
       N       E                     dE             d eps       ncg     rms          ort
SDA:   1    -0.378804841968E+03    0.63806E+01    0.00000E+00  8736   0.524E+02 0.000E+00
CGA:   2    -0.380485299125E+03   -0.16805E+01   -0.10168E+01  8736   0.243E+02 0.178E+02
CGA:   3    -0.381377744418E+03   -0.89245E+00   -0.11147E+01  8736   0.451E+02-0.534E+00
CGA:   4    -0.381938164943E+03   -0.56042E+00   -0.51211E+00  8736   0.260E+02 0.346E+01
CGA:   5    -0.382647699639E+03   -0.70953E+00   -0.61218E+00  8736   0.505E+02 0.324E+01
CGA:   6    -0.383384390017E+03   -0.73669E+00   -0.54973E+00  8736   0.425E+02 0.143E+02
CGA:   7    -0.383679543907E+03   -0.29515E+00   -0.65298E+00  8736   0.218E+02-0.262E+02
CGA:   8    -0.384134686950E+03   -0.45514E+00   -0.53100E+00  8736   0.130E+02-0.156E+01
CGA:   9    -0.384356688783E+03   -0.22200E+00   -0.22308E+00  8736   0.641E+01-0.143E+00
CGA:  10    -0.384845254439E+03   -0.48857E+00   -0.49572E+00  8736   0.550E+01-0.152E+00
CGA:  11    -0.384931587874E+03   -0.86333E-01   -0.87720E-01  8736   0.219E+01-0.616E-01
CGA:  12    -0.385003432190E+03   -0.71844E-01   -0.71072E-01  8736   0.113E+01-0.206E-01
CGA:  13    -0.385107476451E+03   -0.10404E+00   -0.10294E+00  8736   0.277E+01 0.227E-01
CGA:  14    -0.385197705771E+03   -0.90229E-01   -0.89812E-01  8736   0.148E+01-0.256E-02
CGA:  15    -0.385227221316E+03   -0.29516E-01   -0.28509E-01  8736   0.364E+00 0.306E-01
CGA:  16    -0.385246989389E+03   -0.19768E-01   -0.19773E-01  8736   0.191E+00-0.361E-03
CGA:  17    -0.385257925660E+03   -0.10936E-01   -0.10886E-01  8736   0.118E+00 0.269E-02
CGA:  18    -0.385260648018E+03   -0.27224E-02   -0.27320E-02  8736   0.946E-01-0.111E-03
CGA:  19    -0.385265554919E+03   -0.49069E-02   -0.48997E-02  8736   0.557E-01 0.527E-03
CGA:  20    -0.385268749648E+03   -0.31947E-02   -0.31977E-02  8736   0.498E-01-0.150E-03
CGA:  21    -0.385270683365E+03   -0.19337E-02   -0.19349E-02  8736   0.360E-01 0.117E-03
CGA:  22    -0.385271622878E+03   -0.93951E-03   -0.94047E-03  8736   0.266E-01-0.244E-04
CGA:  23    -0.385272747262E+03   -0.11244E-02   -0.11243E-02  8736   0.203E-01-0.101E-03
CGA:  24    -0.385274644557E+03   -0.18973E-02   -0.18872E-02  8736   0.104E-01 0.202E-03
CGA:  25    -0.385275147049E+03   -0.50249E-03   -0.50260E-03  8736   0.570E-02-0.295E-04
CGA:  26    -0.385275302019E+03   -0.15497E-03   -0.15515E-03  8736   0.625E-02 0.122E-04
CGA:  27    -0.385275667816E+03   -0.36580E-03   -0.36519E-03  8736   0.548E-02 0.392E-04
CGA:  28    -0.385275964120E+03   -0.29630E-03   -0.29648E-03  8736   0.310E-02-0.143E-04
CGA:  29    -0.385276079112E+03   -0.11499E-03   -0.11502E-03  8736   0.144E-02 0.105E-05
CGA:  30    -0.385276188459E+03   -0.10935E-03   -0.10911E-03  8736   0.268E-02 0.704E-05
CGA:  31    -0.385276249547E+03   -0.61088E-04   -0.61066E-04  8736   0.151E-02 0.895E-05
CGA:  32    -0.385276337874E+03   -0.88327E-04   -0.88415E-04  8736   0.118E-02-0.769E-05
CGA:  33    -0.385276449997E+03   -0.11212E-03   -0.11187E-03  8736   0.592E-03 0.489E-05
CGA:  34    -0.385276486770E+03   -0.36773E-04   -0.36799E-04  8736   0.708E-03-0.216E-05
CGA:  35    -0.385276515622E+03   -0.28852E-04   -0.28843E-04  8736   0.116E-02-0.187E-05
CGA:  36    -0.385276558172E+03   -0.42549E-04   -0.42532E-04  8736   0.618E-03 0.545E-05
CGA:  37    -0.385276584117E+03   -0.25946E-04   -0.25960E-04  8736   0.434E-03 0.165E-05
SDA:  38    -0.385276615102E+03   -0.30985E-04   -0.31058E-04  8736   0.312E-03-0.333E-05
CGA:  39    -0.385276625394E+03   -0.10291E-04   -0.10346E-04  8736   0.142E-03 0.318E-05
CGA:  40    -0.385276634001E+03   -0.86078E-05   -0.86291E-05  8736   0.386E-03-0.199E-05
CGA:  41    -0.385276648442E+03   -0.14441E-04   -0.14413E-04  8736   0.326E-03-0.173E-05
CGA:  42    -0.385276664653E+03   -0.16211E-04   -0.16216E-04  8736   0.287E-03-0.348E-05
CGA:  43    -0.385276678803E+03   -0.14150E-04   -0.14151E-04  8736   0.118E-03-0.116E-05
CGA:  44    -0.385276683933E+03   -0.51303E-05   -0.51366E-05  8736   0.269E-03 0.139E-05
CGA:  45    -0.385276696485E+03   -0.12552E-04   -0.12554E-04  8736   0.147E-03 0.300E-06
CGA:  46    -0.385276715336E+03   -0.18851E-04   -0.18925E-04  8736   0.146E-03-0.106E-05
CGA:  47    -0.385276724616E+03   -0.92799E-05   -0.92685E-05  8736   0.118E-03 0.106E-05
  12 F= -.38527672E+03 E0= -.38525501E+03  d E =-.912372E-01  mag=    34.0000
       N       E                     dE             d eps       ncg     rms          ort
SDA:   1    -0.378537348296E+03    0.67394E+01    0.00000E+00  8736   0.147E+03 0.000E+00
CGA:   2    -0.380733003027E+03   -0.21957E+01   -0.27425E+01  8736   0.611E+02-0.682E+02
CGA:   3    -0.382227318919E+03   -0.14943E+01   -0.14673E+01  8736   0.235E+02-0.163E+01
CGA:   4    -0.383201194563E+03   -0.97388E+00   -0.92858E+00  8736   0.260E+02-0.128E+01
CGA:   5    -0.383606336610E+03   -0.40514E+00   -0.48560E+00  8736   0.158E+02-0.317E+01
CGA:   6    -0.384387259629E+03   -0.78092E+00   -0.78182E+00  8736   0.174E+02-0.926E-01
CGA:   7    -0.384712836174E+03   -0.32558E+00   -0.26010E+00  8736   0.559E+01 0.334E+01
CGA:   8    -0.384887687132E+03   -0.17485E+00   -0.17011E+00  8736   0.499E+01 0.694E-01
CGA:   9    -0.384988437660E+03   -0.10075E+00   -0.99936E-01  8736   0.547E+01 0.104E-01
CGA:  10    -0.385135385888E+03   -0.14695E+00   -0.15046E+00  8736   0.420E+01-0.323E-01
CGA:  11    -0.385232133393E+03   -0.96748E-01   -0.98349E-01  8736   0.368E+01-0.378E-01
CGA:  12    -0.385287796207E+03   -0.55663E-01   -0.57446E-01  8736   0.698E+00-0.895E-01
CGA:  13    -0.385298571180E+03   -0.10775E-01   -0.10657E-01  8736   0.485E+00 0.507E-02
CGA:  14    -0.385312130066E+03   -0.13559E-01   -0.13568E-01  8736   0.350E+00 0.403E-04
CGA:  15    -0.385320454731E+03   -0.83247E-02   -0.83258E-02  8736   0.512E+00-0.506E-04
CGA:  16    -0.385338431320E+03   -0.17977E-01   -0.18005E-01  8736   0.388E+00 0.303E-02
CGA:  17    -0.385343976309E+03   -0.55450E-02   -0.56017E-02  8736   0.159E+00-0.279E-02
CGA:  18    -0.385347623822E+03   -0.36475E-02   -0.36634E-02  8736   0.718E-01-0.413E-04
CGA:  19    -0.385348817758E+03   -0.11939E-02   -0.11957E-02  8736   0.416E-01 0.192E-04
CGA:  20    -0.385350002294E+03   -0.11845E-02   -0.11906E-02  8736   0.440E-01 0.233E-03
CGA:  21    -0.385351669312E+03   -0.16670E-02   -0.16659E-02  8736   0.829E-01 0.291E-03
CGA:  22    -0.385353546719E+03   -0.18774E-02   -0.18577E-02  8736   0.346E-01 0.133E-03
CGA:  23    -0.385354498421E+03   -0.95170E-03   -0.95108E-03  8736   0.391E-01 0.977E-05
CGA:  24    -0.385355222734E+03   -0.72431E-03   -0.73580E-03  8736   0.121E-01-0.201E-03
CGA:  25    -0.385355601808E+03   -0.37907E-03   -0.37913E-03  8736   0.187E-01 0.357E-05
CGA:  26    -0.385356034446E+03   -0.43264E-03   -0.43193E-03  8736   0.924E-02-0.901E-05
CGA:  27    -0.385356360915E+03   -0.32647E-03   -0.32653E-03  8736   0.158E-01-0.144E-04
CGA:  28    -0.385356729327E+03   -0.36841E-03   -0.36937E-03  8736   0.982E-02 0.146E-04
CGA:  29    -0.385357069980E+03   -0.34065E-03   -0.34040E-03  8736   0.132E-01 0.815E-04
CGA:  30    -0.385357364844E+03   -0.29486E-03   -0.29510E-03  8736   0.871E-02 0.145E-04
CGA:  31    -0.385357588152E+03   -0.22331E-03   -0.22318E-03  8736   0.425E-02-0.770E-05
SDA:  32    -0.385357674603E+03   -0.86451E-04   -0.86433E-04  8736   0.368E-02-0.327E-05
CGA:  33    -0.385357735798E+03   -0.61194E-04   -0.61350E-04  8736   0.128E-02 0.109E-04
CGA:  34    -0.385357787551E+03   -0.51753E-04   -0.51715E-04  8736   0.194E-02 0.364E-05
CGA:  35    -0.385357962375E+03   -0.17482E-03   -0.17463E-03  8736   0.214E-02 0.313E-05
CGA:  36    -0.385358054332E+03   -0.91956E-04   -0.91979E-04  8736   0.940E-03-0.337E-05
CGA:  37    -0.385358142062E+03   -0.87731E-04   -0.87215E-04  8736   0.972E-03 0.869E-05
CGA:  38    -0.385358192404E+03   -0.50341E-04   -0.50460E-04  8736   0.126E-02-0.915E-05
CGA:  39    -0.385358220824E+03   -0.28420E-04   -0.28356E-04  8736   0.871E-03 0.474E-06
CGA:  40    -0.385358330178E+03   -0.10935E-03   -0.10961E-03  8736   0.478E-03-0.379E-05
CGA:  41    -0.385358360076E+03   -0.29898E-04   -0.29941E-04  8736   0.119E-02-0.251E-05
CGA:  42    -0.385358399847E+03   -0.39771E-04   -0.39659E-04  8736   0.116E-02 0.550E-06
CGA:  43    -0.385358443887E+03   -0.44039E-04   -0.44070E-04  8736   0.794E-03 0.573E-05
CGA:  44    -0.385358480740E+03   -0.36853E-04   -0.36845E-04  8736   0.353E-03 0.240E-05
CGA:  45    -0.385358502478E+03   -0.21738E-04   -0.21792E-04  8736   0.104E-02-0.269E-05
CGA:  46    -0.385358538016E+03   -0.35537E-04   -0.35768E-04  8736   0.798E-03 0.166E-05
CGA:  47    -0.385358576455E+03   -0.38440E-04   -0.38576E-04  8736   0.364E-03-0.142E-04
CGA:  48    -0.385358603608E+03   -0.27153E-04   -0.27246E-04  8736   0.311E-03-0.295E-05
CGA:  49    -0.385358633279E+03   -0.29671E-04   -0.29737E-04  8736   0.414E-03-0.118E-05
CGA:  50    -0.385358646061E+03   -0.12782E-04   -0.12702E-04  8736   0.300E-03 0.186E-05
CGA:  51    -0.385358657470E+03   -0.11409E-04   -0.11429E-04  8736   0.509E-03 0.101E-06
CGA:  52    -0.385358684457E+03   -0.26987E-04   -0.27046E-04  8736   0.391E-03-0.426E-05
CGA:  53    -0.385358709538E+03   -0.25081E-04   -0.24948E-04  8736   0.159E-03 0.581E-05
CGA:  54    -0.385358723767E+03   -0.14229E-04   -0.14311E-04  8736   0.822E-03-0.187E-05
CGA:  55    -0.385358751654E+03   -0.27887E-04   -0.28336E-04  8736   0.337E-03 0.466E-05
CGA:  56    -0.385358766032E+03   -0.14378E-04   -0.14414E-04  8736   0.328E-03-0.206E-06
CGA:  57    -0.385358774382E+03   -0.83495E-05   -0.82568E-05  8736   0.236E-03 0.210E-05
  13 F= -.38535877E+03 E0= -.38533588E+03  d E =-.820498E-01  mag=    34.0000
       N       E                     dE             d eps       ncg     rms          ort
SDA:   1    -0.381755919176E+03    0.36028E+01    0.00000E+00  8736   0.289E+02 0.000E+00
CGA:   2    -0.382560299489E+03   -0.80438E+00   -0.83619E+00  8736   0.225E+02-0.232E+01
CGA:   3    -0.383113532251E+03   -0.55323E+00   -0.56073E+00  8736   0.224E+02-0.181E+00
CGA:   4    -0.384241011741E+03   -0.11275E+01   -0.11252E+01  8736   0.121E+02 0.268E+00
CGA:   5    -0.384520245269E+03   -0.27923E+00   -0.27379E+00  8736   0.817E+01 0.656E-01
CGA:   6    -0.384731509359E+03   -0.21126E+00   -0.20952E+00  8736   0.696E+01-0.167E-01
CGA:   7    -0.385120749987E+03   -0.38924E+00   -0.38848E+00  8736   0.574E+01 0.416E-01
CGA:   8    -0.385289910708E+03   -0.16916E+00   -0.15949E+00  8736   0.318E+01 0.527E-01
CGA:   9    -0.385338111907E+03   -0.48201E-01   -0.47098E-01  8736   0.447E+00 0.508E-01
CGA:  10    -0.385368986981E+03   -0.30875E-01   -0.31008E-01  8736   0.826E+00-0.436E-02
CGA:  11    -0.385386400603E+03   -0.17414E-01   -0.17656E-01  8736   0.607E+00-0.524E-02
CGA:  12    -0.385407669126E+03   -0.21269E-01   -0.21267E-01  8736   0.213E+00-0.675E-04
CGA:  13    -0.385414788490E+03   -0.71194E-02   -0.70145E-02  8736   0.196E+00-0.306E-02
CGA:  14    -0.385418134837E+03   -0.33463E-02   -0.33505E-02  8736   0.652E-01-0.276E-03
CGA:  15    -0.385420719620E+03   -0.25848E-02   -0.25847E-02  8736   0.777E-01 0.340E-03
CGA:  16    -0.385423124854E+03   -0.24052E-02   -0.24072E-02  8736   0.973E-01 0.103E-03
CGA:  17    -0.385425557757E+03   -0.24329E-02   -0.24291E-02  8736   0.372E-01 0.743E-05
CGA:  18    -0.385426712080E+03   -0.11543E-02   -0.11539E-02  8736   0.264E-01-0.516E-04
CGA:  19    -0.385427150298E+03   -0.43822E-03   -0.43992E-03  8736   0.123E-01-0.380E-04
CGA:  20    -0.385427973850E+03   -0.82355E-03   -0.82310E-03  8736   0.181E-01 0.136E-04
CGA:  21    -0.385428323265E+03   -0.34942E-03   -0.34976E-03  8736   0.124E-01-0.282E-04
CGA:  22    -0.385428758225E+03   -0.43496E-03   -0.43507E-03  8736   0.668E-02 0.106E-04
CGA:  23    -0.385429030099E+03   -0.27187E-03   -0.27188E-03  8736   0.146E-01 0.978E-05
CGA:  24    -0.385429419390E+03   -0.38929E-03   -0.39019E-03  8736   0.495E-02 0.232E-04
CGA:  25    -0.385429620190E+03   -0.20080E-03   -0.20076E-03  8736   0.647E-02-0.127E-05
CGA:  26    -0.385429734448E+03   -0.11426E-03   -0.11472E-03  8736   0.259E-02 0.127E-05
CGA:  27    -0.385429921928E+03   -0.18748E-03   -0.18759E-03  8736   0.537E-02-0.374E-05
CGA:  28    -0.385430050297E+03   -0.12837E-03   -0.12879E-03  8736   0.549E-02-0.631E-05
CGA:  29    -0.385430268703E+03   -0.21841E-03   -0.21833E-03  8736   0.201E-02 0.145E-04
CGA:  30    -0.385430328511E+03   -0.59808E-04   -0.59770E-04  8736   0.264E-02 0.719E-05
CGA:  31    -0.385430396413E+03   -0.67902E-04   -0.68053E-04  8736   0.122E-02 0.311E-05
SDA:  32    -0.385430486232E+03   -0.89819E-04   -0.89519E-04  8736   0.328E-02 0.732E-05
CGA:  33    -0.385430526094E+03   -0.39862E-04   -0.40053E-04  8736   0.634E-03 0.813E-05
CGA:  34    -0.385430559347E+03   -0.33253E-04   -0.33178E-04  8736   0.769E-03 0.448E-05
CGA:  35    -0.385430613358E+03   -0.54011E-04   -0.54409E-04  8736   0.115E-02-0.124E-04
CGA:  36    -0.385430711091E+03   -0.97733E-04   -0.98221E-04  8736   0.194E-02-0.105E-04
CGA:  37    -0.385430777365E+03   -0.66275E-04   -0.66332E-04  8736   0.965E-03-0.130E-05
CGA:  38    -0.385430795915E+03   -0.18550E-04   -0.18474E-04  8736   0.622E-03 0.566E-05
CGA:  39    -0.385430872548E+03   -0.76633E-04   -0.76449E-04  8736   0.825E-03 0.381E-05
CGA:  40    -0.385430964824E+03   -0.92276E-04   -0.93466E-04  8736   0.171E-02-0.206E-04
CGA:  41    -0.385431014844E+03   -0.50019E-04   -0.49069E-04  8736   0.184E-02 0.628E-05
CGA:  42    -0.385431083601E+03   -0.68758E-04   -0.70080E-04  8736   0.202E-02 0.307E-04
CGA:  43    -0.385431159884E+03   -0.76283E-04   -0.74991E-04  8736   0.830E-03-0.264E-04
CGA:  44    -0.385431210190E+03   -0.50306E-04   -0.50250E-04  8736   0.100E-02 0.242E-05
CGA:  45    -0.385431261883E+03   -0.51693E-04   -0.51996E-04  8736   0.280E-02-0.365E-04
CGA:  46    -0.385431363749E+03   -0.10187E-03   -0.10469E-03  8736   0.124E-02 0.103E-03
CGA:  47    -0.385431405883E+03   -0.42134E-04   -0.42330E-04  8736   0.105E-02 0.113E-06
CGA:  48    -0.385431429653E+03   -0.23770E-04   -0.23014E-04  8736   0.967E-03 0.234E-04
CGA:  49    -0.385431495387E+03   -0.65733E-04   -0.65518E-04  8736   0.107E-02 0.663E-05
CGA:  50    -0.385431513744E+03   -0.18357E-04   -0.19009E-04  8736   0.724E-03-0.311E-04
CGA:  51    -0.385431564508E+03   -0.50764E-04   -0.52247E-04  8736   0.102E-02-0.450E-04
CGA:  52    -0.385431616080E+03   -0.51572E-04   -0.51722E-04  8736   0.924E-03-0.119E-04
CGA:  53    -0.385431629799E+03   -0.13719E-04   -0.14175E-04  8736   0.265E-03-0.309E-04
CGA:  54    -0.385431644237E+03   -0.14438E-04   -0.14482E-04  8736   0.305E-03-0.281E-05
CGA:  55    -0.385431663611E+03   -0.19373E-04   -0.19382E-04  8736   0.599E-03-0.109E-05
CGA:  56    -0.385431682041E+03   -0.18431E-04   -0.18185E-04  8736   0.514E-03-0.721E-06
CGA:  57    -0.385431695297E+03   -0.13256E-04   -0.13344E-04  8736   0.177E-03-0.692E-05
CGA:  58    -0.385431702476E+03   -0.71788E-05   -0.71812E-05  8736   0.101E-03 0.116E-05
  14 F= -.38543170E+03 E0= -.38540776E+03  d E =-.729281E-01  mag=    34.0000
       N       E                     dE             d eps       ncg     rms          ort
SDA:   1    -0.382954101066E+03    0.24776E+01    0.00000E+00  8736   0.545E+02 0.000E+00
CGA:   2    -0.383621777937E+03   -0.66768E+00   -0.74111E+00  8736   0.137E+02-0.111E+02
CGA:   3    -0.384078687540E+03   -0.45691E+00   -0.45673E+00  8736   0.110E+02-0.310E-01
CGA:   4    -0.384635132362E+03   -0.55644E+00   -0.55663E+00  8736   0.125E+02-0.557E-02
CGA:   5    -0.384887832210E+03   -0.25270E+00   -0.25924E+00  8736   0.546E+01-0.268E+00
CGA:   6    -0.385083909432E+03   -0.19608E+00   -0.19554E+00  8736   0.375E+01-0.338E-01
CGA:   7    -0.385242828331E+03   -0.15892E+00   -0.15894E+00  8736   0.417E+01 0.188E-01
CGA:   8    -0.385360357055E+03   -0.11753E+00   -0.11440E+00  8736   0.240E+01 0.153E-01
CGA:   9    -0.385417524753E+03   -0.57168E-01   -0.56106E-01  8736   0.608E+00 0.169E-01
CGA:  10    -0.385441772622E+03   -0.24248E-01   -0.24263E-01  8736   0.553E+00 0.373E-02
CGA:  11    -0.385454688022E+03   -0.12915E-01   -0.13061E-01  8736   0.354E+00-0.205E-02
CGA:  12    -0.385470111713E+03   -0.15424E-01   -0.15438E-01  8736   0.190E+00-0.241E-02
CGA:  13    -0.385475427873E+03   -0.53162E-02   -0.53299E-02  8736   0.146E+00 0.119E-03
CGA:  14    -0.385478984593E+03   -0.35567E-02   -0.35612E-02  8736   0.606E-01-0.106E-03
CGA:  15    -0.385482150031E+03   -0.31654E-02   -0.31646E-02  8736   0.798E-01 0.807E-04
CGA:  16    -0.385484267946E+03   -0.21179E-02   -0.21217E-02  8736   0.479E-01-0.239E-05
CGA:  17    -0.385485591849E+03   -0.13239E-02   -0.13262E-02  8736   0.210E-01 0.383E-04
CGA:  18    -0.385486240205E+03   -0.64836E-03   -0.64793E-03  8736   0.133E-01-0.403E-04
CGA:  19    -0.385486711963E+03   -0.47176E-03   -0.47179E-03  8736   0.175E-01 0.240E-04
CGA:  20    -0.385487366707E+03   -0.65474E-03   -0.65480E-03  8736   0.991E-02 0.486E-04
CGA:  21    -0.385487716100E+03   -0.34939E-03   -0.34952E-03  8736   0.725E-02 0.235E-04
CGA:  22    -0.385487882358E+03   -0.16626E-03   -0.16614E-03  8736   0.447E-02-0.129E-04
CGA:  23    -0.385488170006E+03   -0.28765E-03   -0.28747E-03  8736   0.562E-02 0.793E-05
CGA:  24    -0.385488340971E+03   -0.17097E-03   -0.17105E-03  8736   0.543E-02-0.309E-05
CGA:  25    -0.385488506172E+03   -0.16520E-03   -0.16532E-03  8736   0.235E-02 0.119E-04
CGA:  26    -0.385488600193E+03   -0.94020E-04   -0.93993E-04  8736   0.269E-02 0.976E-05
CGA:  27    -0.385488690700E+03   -0.90507E-04   -0.90492E-04  8736   0.273E-02 0.855E-05
CGA:  28    -0.385488799159E+03   -0.10846E-03   -0.10842E-03  8736   0.226E-02 0.665E-05
CGA:  29    -0.385488876218E+03   -0.77059E-04   -0.77048E-04  8736   0.148E-02 0.412E-05
CGA:  30    -0.385488916322E+03   -0.40104E-04   -0.40155E-04  8736   0.122E-02-0.107E-05
CGA:  31    -0.385488968966E+03   -0.52643E-04   -0.52673E-04  8736   0.108E-02-0.506E-06
SDA:  32    -0.385489022262E+03   -0.53296E-04   -0.53174E-04  8736   0.173E-02 0.547E-05
CGA:  33    -0.385489040048E+03   -0.17787E-04   -0.17902E-04  8736   0.182E-03 0.353E-05
CGA:  34    -0.385489098119E+03   -0.58070E-04   -0.15997E-04  8736   0.514E-03 0.619E-04
CGA:  35    -0.385489129857E+03   -0.31739E-04   -0.31744E-04  8736   0.740E-03-0.306E-05
CGA:  36    -0.385489158158E+03   -0.28301E-04   -0.27996E-04  8736   0.895E-03 0.367E-05
CGA:  37    -0.385489178625E+03   -0.20467E-04   -0.20593E-04  8736   0.497E-03-0.838E-05
CGA:  38    -0.385489211771E+03   -0.33146E-04   -0.33135E-04  8736   0.499E-03-0.104E-05
CGA:  39    -0.385489229935E+03   -0.18164E-04   -0.17919E-04  8736   0.106E-02 0.377E-05
CGA:  40    -0.385489271763E+03   -0.41827E-04   -0.42020E-04  8736   0.558E-03-0.137E-05
CGA:  41    -0.385489304044E+03   -0.32281E-04   -0.32329E-04  8736   0.143E-02 0.812E-05
CGA:  42    -0.385489333930E+03   -0.29886E-04   -0.27695E-04  8736   0.485E-03 0.901E-04
CGA:  43    -0.385489352605E+03   -0.18675E-04   -0.18634E-04  8736   0.446E-03 0.686E-06
CGA:  44    -0.385489371476E+03   -0.18871E-04   -0.18984E-04  8736   0.979E-03 0.852E-06
CGA:  45    -0.385489399030E+03   -0.27554E-04   -0.26048E-04  8736   0.628E-03 0.359E-04
CGA:  46    -0.385489423502E+03   -0.24472E-04   -0.24619E-04  8736   0.638E-03-0.216E-05
CGA:  47    -0.385489438121E+03   -0.14619E-04   -0.15134E-04  8736   0.590E-03-0.181E-04
CGA:  48    -0.385489454530E+03   -0.16409E-04   -0.15901E-04  8736   0.278E-03 0.119E-04
CGA:  49    -0.385489471251E+03   -0.16722E-04   -0.16787E-04  8736   0.791E-03-0.478E-05
CGA:  50    -0.385489487009E+03   -0.15758E-04   -0.16706E-04  8736   0.348E-03-0.347E-04
CGA:  51    -0.385489512388E+03   -0.25378E-04   -0.25207E-04  8736   0.416E-03 0.493E-05
CGA:  52    -0.385489517764E+03   -0.53764E-05   -0.52523E-05  8736   0.119E-03 0.123E-04
  15 F= -.38548952E+03 E0= -.38546541E+03  d E =-.578153E-01  mag=    34.0000
       N       E                     dE             d eps       ncg     rms          ort
SDA:   1    -0.384351585222E+03    0.11379E+01    0.00000E+00  8736   0.833E+01 0.000E+00
CGA:   2    -0.384529086619E+03   -0.17750E+00   -0.18519E+00  8736   0.687E+01-0.401E+00
CGA:   3    -0.384763479417E+03   -0.23439E+00   -0.23713E+00  8736   0.842E+01 0.274E-01
CGA:   4    -0.385185973820E+03   -0.42249E+00   -0.42243E+00  8736   0.277E+01 0.220E-01
CGA:   5    -0.385264822975E+03   -0.78849E-01   -0.78413E-01  8736   0.207E+01-0.238E-04
CGA:   6    -0.385357776505E+03   -0.92954E-01   -0.93059E-01  8736   0.458E+01 0.204E-01
CGA:   7    -0.385479954001E+03   -0.12218E+00   -0.12297E+00  8736   0.658E+00-0.119E-01
CGA:   8    -0.385499960578E+03   -0.20007E-01   -0.19656E-01  8736   0.190E+00 0.116E-02
CGA:   9    -0.385506734856E+03   -0.67743E-02   -0.67754E-02  8736   0.357E+00 0.667E-04
CGA:  10    -0.385518398539E+03   -0.11664E-01   -0.11678E-01  8736   0.175E+00 0.974E-04
CGA:  11    -0.385526301244E+03   -0.79027E-02   -0.79020E-02  8736   0.534E-01 0.430E-03
CGA:  12    -0.385527850825E+03   -0.15496E-02   -0.15554E-02  8736   0.414E-01 0.199E-04
CGA:  13    -0.385528810562E+03   -0.95974E-03   -0.96060E-03  8736   0.274E-01-0.491E-04
CGA:  14    -0.385529863921E+03   -0.10534E-02   -0.10524E-02  8736   0.243E-01-0.902E-04
CGA:  15    -0.385531145602E+03   -0.12817E-02   -0.12796E-02  8736   0.126E-01 0.150E-03
CGA:  16    -0.385531581773E+03   -0.43617E-03   -0.43609E-03  8736   0.644E-02-0.232E-04
CGA:  17    -0.385531709713E+03   -0.12794E-03   -0.12834E-03  8736   0.497E-02 0.106E-05
CGA:  18    -0.385532014994E+03   -0.30528E-03   -0.30497E-03  8736   0.363E-02 0.139E-04
CGA:  19    -0.385532214559E+03   -0.19957E-03   -0.19967E-03  8736   0.227E-02-0.899E-05
CGA:  20    -0.385532310449E+03   -0.95889E-04   -0.95897E-04  8736   0.280E-02 0.122E-04
CGA:  21    -0.385532389365E+03   -0.78917E-04   -0.78998E-04  8736   0.266E-02-0.251E-06
CGA:  22    -0.385532474653E+03   -0.85288E-04   -0.85302E-04  8736   0.134E-02 0.216E-05
CGA:  23    -0.385532524956E+03   -0.50303E-04   -0.50318E-04  8736   0.738E-03 0.211E-05
CGA:  24    -0.385532603037E+03   -0.78081E-04   -0.77463E-04  8736   0.105E-02 0.915E-05
CGA:  25    -0.385532659680E+03   -0.56643E-04   -0.56619E-04  8736   0.147E-02 0.357E-05
CGA:  26    -0.385532687193E+03   -0.27513E-04   -0.27576E-04  8736   0.604E-03-0.772E-05
CGA:  27    -0.385532711820E+03   -0.24627E-04   -0.24633E-04  8736   0.394E-03 0.229E-05
CGA:  28    -0.385532744232E+03   -0.32412E-04   -0.32470E-04  8736   0.618E-03-0.185E-05
CGA:  29    -0.385532765687E+03   -0.21455E-04   -0.21435E-04  8736   0.295E-03-0.321E-05
CGA:  30    -0.385532782398E+03   -0.16711E-04   -0.16706E-04  8736   0.710E-03-0.297E-06
CGA:  31    -0.385532798873E+03   -0.16475E-04   -0.16352E-04  8736   0.290E-03 0.718E-05
SDA:  32    -0.385532811812E+03   -0.12939E-04   -0.12939E-04  8736   0.179E-03-0.242E-05
CGA:  33    -0.385532817571E+03   -0.57583E-05   -0.57864E-05  8736   0.106E-03 0.211E-05
CGA:  34    -0.385532829962E+03   -0.12392E-04   -0.12503E-04  8736   0.268E-03-0.168E-05
CGA:  35    -0.385532838803E+03   -0.88408E-05   -0.88522E-05  8736   0.255E-03 0.137E-05
  16 F= -.38553284E+03 E0= -.38550878E+03  d E =-.433210E-01  mag=    34.0000
       N       E                     dE             d eps       ncg     rms          ort
SDA:   1    -0.377414094393E+03    0.81187E+01    0.00000E+00  8736   0.437E+03 0.000E+00
CGA:   2    -0.381711120004E+03   -0.42970E+01   -0.73581E+01  8736   0.119E+03-0.192E+03
CGA:   3    -0.383708801745E+03   -0.19977E+01   -0.13000E+01  8736   0.123E+02 0.114E+02
CGA:   4    -0.383897359033E+03   -0.18856E+00   -0.17165E+00  8736   0.778E+01 0.100E+01
[...]
CGA:  22    -0.387005363310E+03   -0.20928E-02   -0.21078E-02  8736   0.123E+00-0.166E-03
CGA:  23    -0.387008661930E+03   -0.32986E-02   -0.33421E-02  8736   0.194E+00 0.258E-02
CGA:  24    -0.387013431116E+03   -0.47692E-02   -0.48233E-02  8736   0.122E+00 0.136E-02
CGA:  25    -0.387015807871E+03   -0.23768E-02   -0.23730E-02  8736   0.885E-01 0.567E-04
CGA:  26    -0.387018465275E+03   -0.26574E-02   -0.26519E-02  8736   0.102E+00-0.182E-02
CGA:  27    -0.387020086884E+03   -0.16216E-02   -0.16364E-02  8736   0.343E-01-0.358E-03
CGA:  28    -0.387020593848E+03   -0.50696E-03   -0.51146E-03  8736   0.190E-01-0.155E-03
CGA:  29    -0.387021267854E+03   -0.67401E-03   -0.67323E-03  8736   0.370E-01 0.821E-04
CGA:  30    -0.387022228916E+03   -0.96106E-03   -0.96267E-03  8736   0.308E-01 0.123E-03
CGA:  31    -0.387023012135E+03   -0.78322E-03   -0.78298E-03  8736   0.370E-01-0.154E-04
SDA:  32    -0.387024034461E+03   -0.10223E-02   -0.10223E-02  8736   0.248E-01 0.358E-05
CGA:  33    -0.387024495109E+03   -0.46065E-03   -0.46192E-03  8736   0.489E-02-0.677E-05
CGA:  34    -0.387025199980E+03   -0.70487E-03   -0.19766E-05  8736   0.105E-01-0.114E-02
CGA:  35    -0.387025637293E+03   -0.43731E-03   -0.43729E-03  8736   0.316E-02 0.126E-04
CGA:  36    -0.387025778651E+03   -0.14136E-03   -0.14134E-03  8736   0.248E-02 0.845E-07
CGA:  37    -0.387025924991E+03   -0.14634E-03   -0.14617E-03  8736   0.282E-02 0.158E-04
CGA:  38    -0.387026071343E+03   -0.14635E-03   -0.14633E-03  8736   0.156E-02-0.960E-05
CGA:  39    -0.387026173695E+03   -0.10235E-03   -0.10230E-03  8736   0.130E-02 0.210E-05
CGA:  40    -0.387026238052E+03   -0.64357E-04   -0.64330E-04  8736   0.898E-03-0.409E-05
CGA:  41    -0.387026279085E+03   -0.41033E-04   -0.41053E-04  8736   0.760E-03 0.464E-07
CGA:  42    -0.387026338359E+03   -0.59274E-04   -0.59398E-04  8736   0.839E-03-0.416E-05
CGA:  43    -0.387026387357E+03   -0.48998E-04   -0.48981E-04  8736   0.546E-03 0.255E-05
CGA:  44    -0.387026417770E+03   -0.30413E-04   -0.30413E-04  8736   0.536E-03 0.112E-05
CGA:  45    -0.387026450109E+03   -0.32339E-04   -0.32304E-04  8736   0.562E-03 0.431E-05
CGA:  46    -0.387026477578E+03   -0.27469E-04   -0.27470E-04  8736   0.271E-03 0.912E-06
CGA:  47    -0.387026489648E+03   -0.12070E-04   -0.12070E-04  8736   0.152E-03 0.754E-07
CGA:  48    -0.387026500715E+03   -0.11067E-04   -0.11093E-04  8736   0.231E-03-0.103E-05
CGA:  49    -0.387026517910E+03   -0.17195E-04   -0.17198E-04  8736   0.261E-03-0.243E-06
CGA:  50    -0.387026527738E+03   -0.98287E-05   -0.98263E-05  8736   0.851E-04-0.265E-06
 290 F= -.38702653E+03 E0= -.38701161E+03  d E =-.308788E-01  mag=    34.0000
       N       E                     dE             d eps       ncg     rms          ort
SDA:   1    -0.386890108399E+03    0.13641E+00    0.00000E+00  8736   0.505E+00 0.000E+00
CGA:   2    -0.386962153000E+03   -0.72045E-01   -0.72315E-01  8736   0.746E+00-0.334E-02
CGA:   3    -0.386984371995E+03   -0.22219E-01   -0.22293E-01  8736   0.204E+00-0.158E-02
CGA:   4    -0.387014409037E+03   -0.30037E-01   -0.30123E-01  8736   0.268E+00-0.105E-02
CGA:   5    -0.387023238135E+03   -0.88291E-02   -0.88827E-02  8736   0.129E+00-0.633E-03
CGA:   6    -0.387027560939E+03   -0.43228E-02   -0.43286E-02  8736   0.248E-01-0.424E-04
CGA:   7    -0.387030388608E+03   -0.28277E-02   -0.28321E-02  8736   0.228E-01-0.774E-04
CGA:   8    -0.387031204788E+03   -0.81618E-03   -0.81723E-03  8736   0.893E-02-0.155E-04
CGA:   9    -0.387031715937E+03   -0.51115E-03   -0.51116E-03  8736   0.315E-02-0.128E-05
CGA:  10    -0.387031991195E+03   -0.27526E-03   -0.27551E-03  8736   0.402E-02-0.702E-05
CGA:  11    -0.387032127706E+03   -0.13651E-03   -0.13676E-03  8736   0.229E-02-0.645E-06
CGA:  12    -0.387032258877E+03   -0.13117E-03   -0.13115E-03  8736   0.665E-03-0.351E-06
CGA:  13    -0.387032294971E+03   -0.36094E-04   -0.36095E-04  8736   0.648E-03 0.126E-05
CGA:  14    -0.387032332670E+03   -0.37699E-04   -0.37699E-04  8736   0.358E-03 0.135E-05
CGA:  15    -0.387032368320E+03   -0.35649E-04   -0.35469E-04  8736   0.240E-03 0.438E-05
CGA:  16    -0.387032374140E+03   -0.58200E-05   -0.58258E-05  8736   0.812E-04 0.361E-06
CGA:  17    -0.387032389156E+03   -0.15016E-04   -0.15205E-04  8736   0.183E-03-0.151E-05
CGA:  18    -0.387032396603E+03   -0.74476E-05   -0.74340E-05  8736   0.775E-04-0.668E-06
 291 F= -.38703240E+03 E0= -.38701760E+03  d E =-.586886E-02  mag=    34.0000
       N       E                     dE             d eps       ncg     rms          ort
SDA:   1    -0.386916854872E+03    0.11553E+00    0.00000E+00  8736   0.481E+00 0.000E+00
CGA:   2    -0.386948267848E+03   -0.31413E-01   -0.31410E-01  8736   0.793E+00 0.987E-03
CGA:   3    -0.386990943792E+03   -0.42676E-01   -0.42532E-01  8736   0.318E+00-0.402E-02
CGA:   4    -0.387003307683E+03   -0.12364E-01   -0.12631E-01  8736   0.244E+00-0.872E-03
CGA:   5    -0.387016861247E+03   -0.13554E-01   -0.13539E-01  8736   0.168E+00-0.633E-03
CGA:   6    -0.387029119192E+03   -0.12258E-01   -0.12251E-01  8736   0.582E-01 0.434E-03
CGA:   7    -0.387030670329E+03   -0.15511E-02   -0.15103E-02  8736   0.201E-01 0.105E-02
CGA:   8    -0.387032267048E+03   -0.15967E-02   -0.16011E-02  8736   0.161E-01-0.177E-03
CGA:   9    -0.387033075405E+03   -0.80836E-03   -0.80907E-03  8736   0.112E-01 0.142E-04
CGA:  10    -0.387033514250E+03   -0.43885E-03   -0.44528E-03  8736   0.264E-02-0.111E-04
CGA:  11    -0.387033653216E+03   -0.13897E-03   -0.13891E-03  8736   0.300E-02-0.245E-05
CGA:  12    -0.387033798600E+03   -0.14538E-03   -0.14558E-03  8736   0.170E-02 0.560E-05
CGA:  13    -0.387033928857E+03   -0.13026E-03   -0.13021E-03  8736   0.693E-03 0.261E-05
CGA:  14    -0.387033955082E+03   -0.26225E-04   -0.26271E-04  8736   0.537E-03 0.494E-06
CGA:  15    -0.387033988557E+03   -0.33475E-04   -0.33481E-04  8736   0.301E-03-0.218E-06
CGA:  16    -0.387034005469E+03   -0.16913E-04   -0.16914E-04  8736   0.391E-03 0.488E-06
CGA:  17    -0.387034031741E+03   -0.26271E-04   -0.26266E-04  8736   0.977E-04 0.762E-06
CGA:  18    -0.387034036341E+03   -0.46004E-05   -0.45999E-05  8736   0.132E-03-0.755E-07
CGA:  19    -0.387034048734E+03   -0.12393E-04   -0.12400E-04  8736   0.154E-03-0.203E-06
CGA:  20    -0.387034057751E+03   -0.90164E-05   -0.90159E-05  8736   0.650E-04-0.240E-06
 292 F= -.38703406E+03 E0= -.38701937E+03  d E =-.166115E-02  mag=    34.0000
       N       E                     dE             d eps       ncg     rms          ort
SDA:   1    -0.386956594078E+03    0.77455E-01    0.00000E+00  8736   0.343E+01 0.000E+00
CGA:   2    -0.387005719145E+03   -0.49125E-01   -0.66244E-01  8736   0.279E+00-0.666E+00
CGA:   3    -0.387012546895E+03   -0.68278E-02   -0.67182E-02  8736   0.914E-01 0.166E-02
CGA:   4    -0.387021244177E+03   -0.86973E-02   -0.87081E-02  8736   0.170E+00-0.234E-03
CGA:   5    -0.387028800404E+03   -0.75562E-02   -0.75584E-02  8736   0.353E-01 0.298E-04
CGA:   6    -0.387030460854E+03   -0.16605E-02   -0.16656E-02  8736   0.376E-01 0.162E-03
CGA:   7    -0.387032781151E+03   -0.23203E-02   -0.23222E-02  8736   0.212E-01-0.207E-03
CGA:   8    -0.387033508470E+03   -0.72732E-03   -0.73119E-03  8736   0.655E-02-0.179E-04
CGA:   9    -0.387033882980E+03   -0.37451E-03   -0.37473E-03  8736   0.386E-02-0.693E-04
CGA:  10    -0.387034025312E+03   -0.14233E-03   -0.14258E-03  8736   0.193E-02 0.238E-06
CGA:  11    -0.387034147355E+03   -0.12204E-03   -0.12206E-03  8736   0.193E-02-0.116E-05
CGA:  12    -0.387034232471E+03   -0.85116E-04   -0.85175E-04  8736   0.598E-03 0.170E-06
CGA:  13    -0.387034261747E+03   -0.29276E-04   -0.29263E-04  8736   0.414E-03-0.120E-05
CGA:  14    -0.387034281050E+03   -0.19302E-04   -0.19302E-04  8736   0.276E-03-0.613E-06
CGA:  15    -0.387034298300E+03   -0.17251E-04   -0.17261E-04  8736   0.301E-03-0.105E-05
CGA:  16    -0.387034314358E+03   -0.16058E-04   -0.16058E-04  8736   0.117E-03-0.658E-06
CGA:  17    -0.387034319589E+03   -0.52306E-05   -0.52285E-05  8736   0.887E-04-0.874E-07
 293 F= -.38703432E+03 E0= -.38701967E+03  d E =-.261838E-03  mag=    34.0000
       N       E                     dE             d eps       ncg     rms          ort
SDA:   1    -0.386954073211E+03    0.80241E-01    0.00000E+00  8736   0.106E+01 0.000E+00
CGA:   2    -0.386974027123E+03   -0.19954E-01   -0.20441E-01  8736   0.215E+00-0.201E-01
CGA:   3    -0.387004007660E+03   -0.29981E-01   -0.29815E-01  8736   0.292E+00 0.202E-02
CGA:   4    -0.387020078180E+03   -0.16071E-01   -0.16072E-01  8736   0.164E+00 0.261E-03
CGA:   5    -0.387025261905E+03   -0.51837E-02   -0.51227E-02  8736   0.538E-01 0.765E-03
CGA:   6    -0.387029982886E+03   -0.47210E-02   -0.47230E-02  8736   0.937E-01-0.526E-04
CGA:   7    -0.387033068558E+03   -0.30857E-02   -0.30769E-02  8736   0.776E-02 0.972E-04
CGA:   8    -0.387033728598E+03   -0.66004E-03   -0.65579E-03  8736   0.771E-02 0.126E-03
CGA:   9    -0.387034035873E+03   -0.30727E-03   -0.30604E-03  8736   0.599E-02-0.204E-05
CGA:  10    -0.387034348160E+03   -0.31229E-03   -0.31223E-03  8736   0.167E-02-0.701E-05
CGA:  11    -0.387034457368E+03   -0.10921E-03   -0.10929E-03  8736   0.986E-03-0.648E-05
CGA:  12    -0.387034495636E+03   -0.38268E-04   -0.38330E-04  8736   0.728E-03-0.116E-05
CGA:  13    -0.387034555161E+03   -0.59525E-04   -0.59600E-04  8736   0.707E-03-0.291E-05
CGA:  14    -0.387034579725E+03   -0.24564E-04   -0.24522E-04  8736   0.307E-03-0.148E-05
CGA:  15    -0.387034598460E+03   -0.18735E-04   -0.18748E-04  8736   0.121E-03-0.173E-05
CGA:  16    -0.387034610107E+03   -0.11647E-04   -0.11673E-04  8736   0.278E-03-0.654E-06
CGA:  17    -0.387034621244E+03   -0.11137E-04   -0.11132E-04  8736   0.138E-03-0.130E-06
CGA:  18    -0.387034631980E+03   -0.10736E-04   -0.10718E-04  8736   0.604E-04 0.794E-06
CGA:  19    -0.387034635837E+03   -0.38567E-05   -0.38536E-05  8736   0.109E-03 0.606E-06
 294 F= -.38703464E+03 E0= -.38702002E+03  d E =-.316248E-03  mag=    34.0000
       N       E                     dE             d eps       ncg     rms          ort
SDA:   1    -0.386973529157E+03    0.61103E-01    0.00000E+00  8736   0.456E+00 0.000E+00
CGA:   2    -0.386984236799E+03   -0.10708E-01   -0.10868E-01  8736   0.215E+00-0.475E-02
CGA:   3    -0.387015250071E+03   -0.31013E-01   -0.31218E-01  8736   0.172E+00-0.261E-02
CGA:   4    -0.387022668778E+03   -0.74187E-02   -0.74637E-02  8736   0.101E+00 0.182E-03
CGA:   5    -0.387027672021E+03   -0.50032E-02   -0.50013E-02  8736   0.649E-01-0.319E-04
CGA:   6    -0.387031887345E+03   -0.42153E-02   -0.42139E-02  8736   0.500E-01 0.213E-03
CGA:   7    -0.387033289459E+03   -0.14021E-02   -0.13995E-02  8736   0.114E-01 0.480E-04
CGA:   8    -0.387034093434E+03   -0.80398E-03   -0.80467E-03  8736   0.484E-02-0.411E-04
CGA:   9    -0.387034421819E+03   -0.32838E-03   -0.32849E-03  8736   0.698E-02-0.642E-05
CGA:  10    -0.387034675285E+03   -0.25347E-03   -0.25392E-03  8736   0.178E-02-0.565E-06
CGA:  11    -0.387034771426E+03   -0.96141E-04   -0.96135E-04  8736   0.107E-02-0.726E-06
CGA:  12    -0.387034816618E+03   -0.45192E-04   -0.45270E-04  8736   0.640E-03-0.126E-05
CGA:  13    -0.387034874369E+03   -0.57750E-04   -0.58027E-04  8736   0.584E-03-0.803E-05
CGA:  14    -0.387034894109E+03   -0.19741E-04   -0.19696E-04  8736   0.348E-03-0.212E-05
CGA:  15    -0.387034914509E+03   -0.20400E-04   -0.20401E-04  8736   0.956E-04-0.207E-05
CGA:  16    -0.387034925478E+03   -0.10969E-04   -0.11008E-04  8736   0.299E-03-0.705E-06
CGA:  17    -0.387034939625E+03   -0.14147E-04   -0.14141E-04  8736   0.930E-04-0.205E-06
CGA:  18    -0.387034943492E+03   -0.38667E-05   -0.38724E-05  8736   0.732E-04 0.185E-06
 295 F= -.38703494E+03 E0= -.38702035E+03  d E =-.307655E-03  mag=    34.0000
       N       E                     dE             d eps       ncg     rms          ort
SDA:   1    -0.385980552891E+03    0.10544E+01    0.00000E+00  8736   0.303E+01 0.000E+00
CGA:   2    -0.386486645675E+03   -0.50609E+00   -0.48876E+00  8736   0.534E+01 0.176E+00
CGA:   3    -0.386731422137E+03   -0.24478E+00   -0.23445E+00  8736   0.319E+01 0.646E-01
CGA:   4    -0.386854818692E+03   -0.12340E+00   -0.12308E+00  8736   0.123E+01 0.550E-02
CGA:   5    -0.386926439797E+03   -0.71621E-01   -0.71762E-01  8736   0.154E+01 0.133E-01
CGA:   6    -0.386997537813E+03   -0.71098E-01   -0.71282E-01  8736   0.328E+00 0.129E-02
CGA:   7    -0.387009607814E+03   -0.12070E-01   -0.11885E-01  8736   0.236E+00 0.166E-02
CGA:   8    -0.387018800345E+03   -0.91925E-02   -0.92383E-02  8736   0.938E-01-0.605E-04
CGA:   9    -0.387028175647E+03   -0.93753E-02   -0.94147E-02  8736   0.446E-01-0.878E-03
CGA:  10    -0.387029802566E+03   -0.16269E-02   -0.16288E-02  8736   0.295E-01-0.136E-04
CGA:  11    -0.387031229922E+03   -0.14274E-02   -0.14349E-02  8736   0.158E-01 0.170E-03
CGA:  12    -0.387031908951E+03   -0.67903E-03   -0.67756E-03  8736   0.138E-01-0.143E-04
CGA:  13    -0.387032830643E+03   -0.92169E-03   -0.92185E-03  8736   0.483E-02-0.173E-04
CGA:  14    -0.387033180620E+03   -0.34998E-03   -0.34998E-03  8736   0.209E-02-0.301E-05
CGA:  15    -0.387033293022E+03   -0.11240E-03   -0.11244E-03  8736   0.312E-02 0.242E-05
CGA:  16    -0.387033470600E+03   -0.17758E-03   -0.17759E-03  8736   0.192E-02 0.152E-05
CGA:  17    -0.387033566347E+03   -0.95748E-04   -0.95713E-04  8736   0.136E-02-0.125E-05
CGA:  18    -0.387033627303E+03   -0.60955E-04   -0.61001E-04  8736   0.604E-03 0.122E-05
CGA:  19    -0.387033726354E+03   -0.99051E-04   -0.98371E-04  8736   0.685E-03 0.653E-05
CGA:  20    -0.387033775828E+03   -0.49473E-04   -0.49451E-04  8736   0.770E-03 0.310E-05
CGA:  21    -0.387033801290E+03   -0.25463E-04   -0.25496E-04  8736   0.340E-03 0.147E-05
CGA:  22    -0.387033831014E+03   -0.29724E-04   -0.29698E-04  8736   0.583E-03 0.108E-05
CGA:  23    -0.387033856288E+03   -0.25274E-04   -0.25308E-04  8736   0.215E-03 0.632E-06
CGA:  24    -0.387033873683E+03   -0.17395E-04   -0.17402E-04  8736   0.115E-03-0.356E-06
CGA:  25    -0.387033889052E+03   -0.15369E-04   -0.15365E-04  8736   0.159E-03 0.584E-07
CGA:  26    -0.387033894810E+03   -0.57580E-05   -0.57520E-05  8736   0.884E-04-0.273E-06
 296 F= -.38703389E+03 E0= -.38701931E+03  d E =0.104868E-02  mag=    34.0000
       N       E                     dE             d eps       ncg     rms          ort
SDA:   1    -0.386551261594E+03    0.48263E+00    0.00000E+00  8736   0.164E+01 0.000E+00
CGA:   2    -0.386674673135E+03   -0.12341E+00   -0.12274E+00  8736   0.363E+01 0.441E-01
CGA:   3    -0.386871135253E+03   -0.19646E+00   -0.19260E+00  8736   0.122E+01-0.614E-01
CGA:   4    -0.386930038985E+03   -0.58904E-01   -0.59272E-01  8736   0.869E+00 0.418E-02
CGA:   5    -0.386979011326E+03   -0.48972E-01   -0.49306E-01  8736   0.639E+00 0.168E-01
CGA:   6    -0.387015684524E+03   -0.36673E-01   -0.36461E-01  8736   0.245E+00-0.981E-02
CGA:   7    -0.387022077366E+03   -0.63928E-02   -0.60950E-02  8736   0.638E-01 0.806E-02
CGA:   8    -0.387028509708E+03   -0.64323E-02   -0.63967E-02  8736   0.603E-01 0.865E-03
CGA:   9    -0.387031129590E+03   -0.26199E-02   -0.26121E-02  8736   0.311E-01 0.517E-05
CGA:  10    -0.387032653119E+03   -0.15235E-02   -0.15308E-02  8736   0.106E-01 0.140E-03
CGA:  11    -0.387033124183E+03   -0.47106E-03   -0.46990E-03  8736   0.104E-01-0.510E-05
CGA:  12    -0.387033653824E+03   -0.52964E-03   -0.52963E-03  8736   0.539E-02 0.251E-06
CGA:  13    -0.387034111363E+03   -0.45754E-03   -0.45732E-03  8736   0.274E-02 0.670E-05
CGA:  14    -0.387034200428E+03   -0.89066E-04   -0.89093E-04  8736   0.102E-02-0.971E-07
CGA:  15    -0.387034332060E+03   -0.13163E-03   -0.13190E-03  8736   0.166E-02-0.380E-05
CGA:  16    -0.387034385959E+03   -0.53898E-04   -0.54020E-04  8736   0.854E-03-0.866E-06
CGA:  17    -0.387034434538E+03   -0.48579E-04   -0.48584E-04  8736   0.407E-03 0.721E-06
CGA:  18    -0.387034464762E+03   -0.30224E-04   -0.30204E-04  8736   0.537E-03 0.110E-05
CGA:  19    -0.387034498409E+03   -0.33647E-04   -0.33648E-04  8736   0.419E-03-0.195E-06
CGA:  20    -0.387034536878E+03   -0.38470E-04   -0.38523E-04  8736   0.314E-03-0.156E-05
CGA:  21    -0.387034545993E+03   -0.91143E-05   -0.90895E-05  8736   0.160E-03-0.114E-06
CGA:  22    -0.387034563736E+03   -0.17744E-04   -0.17804E-04  8736   0.263E-03-0.124E-05
CGA:  23    -0.387034576738E+03   -0.13001E-04   -0.12989E-04  8736   0.141E-03-0.794E-06
CGA:  24    -0.387034583701E+03   -0.69629E-05   -0.69534E-05  8736   0.488E-04-0.591E-06
 297 F= -.38703458E+03 E0= -.38702007E+03  d E =-.688891E-03  mag=    34.0000
       N       E                     dE             d eps       ncg     rms          ort
SDA:   1    -0.386897587368E+03    0.13699E+00    0.00000E+00  8736   0.113E+01 0.000E+00
CGA:   2    -0.386923173645E+03   -0.25586E-01   -0.25392E-01  8736   0.445E+00 0.406E-02
CGA:   3    -0.386984763726E+03   -0.61590E-01   -0.61205E-01  8736   0.626E+00 0.543E-02
CGA:   4    -0.387004131235E+03   -0.19368E-01   -0.19358E-01  8736   0.167E+00-0.190E-03
CGA:   5    -0.387019522863E+03   -0.15392E-01   -0.15459E-01  8736   0.157E+00-0.216E-02
CGA:   6    -0.387029803131E+03   -0.10280E-01   -0.10278E-01  8736   0.570E-01-0.755E-03
CGA:   7    -0.387031396309E+03   -0.15932E-02   -0.15764E-02  8736   0.272E-01 0.397E-03
CGA:   8    -0.387033128753E+03   -0.17324E-02   -0.17372E-02  8736   0.998E-02 0.962E-03
CGA:   9    -0.387033830865E+03   -0.70211E-03   -0.70207E-03  8736   0.130E-01 0.377E-05
CGA:  10    -0.387034426813E+03   -0.59595E-03   -0.58834E-03  8736   0.168E-02-0.110E-04
CGA:  11    -0.387034593214E+03   -0.16640E-03   -0.16614E-03  8736   0.140E-02 0.688E-05
CGA:  12    -0.387034696497E+03   -0.10328E-03   -0.10325E-03  8736   0.165E-02 0.450E-05
CGA:  13    -0.387034748053E+03   -0.51556E-04   -0.51596E-04  8736   0.650E-03 0.307E-05
CGA:  14    -0.387034791015E+03   -0.42962E-04   -0.42960E-04  8736   0.171E-03 0.179E-05
CGA:  15    -0.387034815147E+03   -0.24133E-04   -0.24074E-04  8736   0.300E-03 0.763E-06
CGA:  16    -0.387034829754E+03   -0.14607E-04   -0.14614E-04  8736   0.195E-03 0.177E-06
CGA:  17    -0.387034837947E+03   -0.81926E-05   -0.81911E-05  8736   0.806E-04-0.955E-07
 298 F= -.38703484E+03 E0= -.38702025E+03  d E =-.254246E-03  mag=    34.0000
       N       E                     dE             d eps       ncg     rms          ort
SDA:   1    -0.386966231158E+03    0.68599E-01    0.00000E+00  8736   0.692E+00 0.000E+00
CGA:   2    -0.386980591504E+03   -0.14360E-01   -0.14116E-01  8736   0.173E+00 0.834E-02
CGA:   3    -0.387005890306E+03   -0.25299E-01   -0.25478E-01  8736   0.523E+00-0.231E-02
CGA:   4    -0.387023344562E+03   -0.17454E-01   -0.17543E-01  8736   0.777E-01-0.138E-02
CGA:   5    -0.387028471345E+03   -0.51268E-02   -0.51268E-02  8736   0.499E-01-0.965E-05
CGA:   6    -0.387031644239E+03   -0.31729E-02   -0.31715E-02  8736   0.718E-01-0.207E-03
CGA:   7    -0.387033886204E+03   -0.22420E-02   -0.22401E-02  8736   0.559E-02 0.393E-04
CGA:   8    -0.387034258699E+03   -0.37250E-03   -0.37245E-03  8736   0.749E-02 0.121E-04
CGA:   9    -0.387034666160E+03   -0.40746E-03   -0.40754E-03  8736   0.391E-02 0.315E-05
CGA:  10    -0.387034877695E+03   -0.21154E-03   -0.21164E-03  8736   0.118E-02 0.285E-05
CGA:  11    -0.387034919953E+03   -0.42257E-04   -0.42146E-04  8736   0.100E-02 0.119E-05
CGA:  12    -0.387034981404E+03   -0.61451E-04   -0.61452E-04  8736   0.484E-03 0.457E-06
CGA:  13    -0.387035038091E+03   -0.56687E-04   -0.56565E-04  8736   0.211E-03 0.214E-05
CGA:  14    -0.387035045519E+03   -0.74286E-05   -0.74312E-05  8736   0.143E-03 0.171E-06
CGA:  15    -0.387035056775E+03   -0.11256E-04   -0.11254E-04  8736   0.163E-03 0.107E-06
CGA:  16    -0.387035064026E+03   -0.72508E-05   -0.72511E-05  8736   0.153E-03 0.114E-06
 299 F= -.38703506E+03 E0= -.38702046E+03  d E =-.226079E-03  mag=    34.0000
