       N       E                     dE             d eps       ncg     rms          ort
DAV:   1     0.581739463042E+04    0.58174E+04   -0.23505E+05  7072   0.165E+03
DAV:   2     0.572913983970E+03   -0.52445E+04   -0.49083E+04  7072   0.474E+02
DAV:   3    -0.371959735097E+03   -0.94487E+03   -0.92709E+03  7072   0.206E+02
DAV:   4    -0.415816628647E+03   -0.43857E+02   -0.42337E+02  7072   0.487E+01
DAV:   5    -0.417726564614E+03   -0.19099E+01   -0.18634E+01  7072   0.950E+00
SDA:   6    -0.142764099628E+03    0.27496E+03   -0.18634E+01  7072   0.513E+04 0.000E+00
CGA:   7    -0.833458410725E+02    0.59418E+02   -0.46956E+03  7072   0.197E+04-0.178E+03
CGA:   8    -0.221486782963E+03   -0.13814E+03   -0.11884E+03  7072   0.563E+04 0.737E+02
CGA:   9    -0.139133791056E+03    0.82353E+02   -0.34567E+03  7072   0.114E+04-0.218E+04
CGA:  10    -0.256613434911E+03   -0.11748E+03   -0.48409E+02  7072   0.151E+04 0.263E+04
CGA:  11    -0.284342810499E+03   -0.27729E+02   -0.95922E+02  7072   0.521E+03-0.216E+03
CGA:  12    -0.288106259576E+03   -0.37634E+01   -0.30970E+02  7072   0.869E+03-0.329E+03
CGA:  13    -0.206887165649E+03    0.81219E+02   -0.38747E+02  7072   0.551E+04-0.280E+04
CGA:  14    -0.268809515764E+03   -0.61922E+02   -0.44384E+03  7072   0.463E+03-0.479E+03
CGA:  15    -0.284014524488E+03   -0.15205E+02   -0.13024E+02  7072   0.188E+03 0.207E+03
CGA:  16    -0.293524679197E+03   -0.95102E+01   -0.49614E+01  7072   0.157E+03 0.257E+03
CGA:  17    -0.315133941976E+03   -0.21609E+02   -0.18092E+01  7072   0.476E+03 0.868E+03
CGA:  18    -0.331107898492E+03   -0.15974E+02   -0.11151E+02  7072   0.315E+03-0.528E+03
CGA:  19    -0.318941047126E+03    0.12167E+02   -0.14704E+02  7072   0.139E+04-0.261E+03
CGA:  20    -0.299734246903E+03    0.19207E+02   -0.52003E+02  7072   0.805E+03-0.679E+03
CGA:  21    -0.303901333490E+03   -0.41671E+01   -0.22176E+02  7072   0.241E+03-0.980E+02
CGA:  22    -0.312127361277E+03   -0.82260E+01   -0.23098E+01  7072   0.394E+03 0.421E+03
CGA:  23    -0.342519071284E+03   -0.30392E+02   -0.62535E+01  7072   0.455E+03-0.107E+04
CGA:  24    -0.319596096637E+03    0.22923E+02   -0.17744E+02  7072   0.155E+04-0.391E+03
CGA:  25    -0.282143283361E+03    0.37453E+02   -0.47911E+02  7072   0.137E+04-0.722E+03
CGA:  26    -0.307266870515E+03   -0.25124E+02   -0.41943E+02  7072   0.131E+03-0.597E+02
CGA:  27    -0.309171001239E+03   -0.19041E+01   -0.71142E+00  7072   0.277E+03 0.274E+03
CGA:  28    -0.319073689186E+03   -0.99027E+01   -0.28290E+01  7072   0.466E+03 0.633E+03
CGA:  29    -0.340376910778E+03   -0.21303E+02   -0.68755E+01  7072   0.186E+03-0.324E+03
CGA:  30    -0.345962761526E+03   -0.55859E+01   -0.48385E+01  7072   0.338E+03 0.131E+02
CGA:  31    -0.332960558960E+03    0.13002E+02   -0.57572E+01  7072   0.577E+03-0.548E+03
CGA:  32    -0.320303336782E+03    0.12657E+02   -0.19473E+02  7072   0.995E+03-0.193E+03
CGA:  33    -0.333436326243E+03   -0.13133E+02   -0.11998E+02  7072   0.882E+03-0.109E+04
CGA:  34    -0.334016360698E+03   -0.58003E+00   -0.32517E+02  7072   0.484E+03-0.299E+02
CGA:  35    -0.342882257359E+03   -0.88659E+01   -0.66950E+01  7072   0.176E+03 0.315E+03
CGA:  36    -0.346310617473E+03   -0.34284E+01   -0.14447E+01  7072   0.117E+03 0.191E+03
CGA:  37    -0.348292279477E+03   -0.19817E+01   -0.19855E+01  7072   0.104E+03-0.347E+02
CGA:  38    -0.347887107946E+03    0.40517E+00   -0.10759E+01  7072   0.996E+02-0.132E+03
CGA:  39    -0.348796003232E+03   -0.90890E+00   -0.22982E+01  7072   0.569E+02-0.417E+02
CGA:  40    -0.349140623525E+03   -0.34462E+00   -0.37876E+00  7072   0.131E+02-0.255E+01
CGA:  41    -0.349452558020E+03   -0.31193E+00   -0.24726E+00  7072   0.848E+01 0.264E+01
CGA:  42    -0.349567225416E+03   -0.11467E+00   -0.95838E-01  7072   0.246E+01 0.196E+01
CGA:  43    -0.349679996737E+03   -0.11277E+00   -0.11311E+00  7072   0.134E+02 0.215E-01
CGA:  44    -0.350390032793E+03   -0.71004E+00   -0.70884E+00  7072   0.245E+02 0.276E+01
CGA:  45    -0.350804916623E+03   -0.41488E+00   -0.64595E+00  7072   0.634E+01-0.480E+01
CGA:  46    -0.350952849649E+03   -0.14793E+00   -0.16591E+00  7072   0.347E+01-0.824E-02
CGA:  47    -0.351123625738E+03   -0.17078E+00   -0.17092E+00  7072   0.147E+01 0.111E+00
CGA:  48    -0.351196038370E+03   -0.72413E-01   -0.72451E-01  7072   0.611E+00 0.840E-02
CGA:  49    -0.351251000673E+03   -0.54962E-01   -0.54117E-01  7072   0.923E+00 0.190E-01
CGA:  50    -0.351334912020E+03   -0.83911E-01   -0.85692E-01  7072   0.964E+00-0.597E-01
CGA:  51    -0.351397527739E+03   -0.62616E-01   -0.65153E-01  7072   0.114E+01-0.100E+00
CGA:  52    -0.351433165894E+03   -0.35638E-01   -0.33122E-01  7072   0.572E+00 0.256E-01
CGA:  53    -0.351452545443E+03   -0.19380E-01   -0.19134E-01  7072   0.439E+00-0.637E-03
CGA:  54    -0.351469670974E+03   -0.17126E-01   -0.17280E-01  7072   0.427E+00 0.200E-02
CGA:  55    -0.351491129698E+03   -0.21459E-01   -0.21504E-01  7072   0.607E+00 0.128E-01
CGA:  56    -0.351521367627E+03   -0.30238E-01   -0.30006E-01  7072   0.444E+00-0.269E-01
CGA:  57    -0.351538050049E+03   -0.16682E-01   -0.17024E-01  7072   0.338E+00 0.532E-02
CGA:  58    -0.351550708440E+03   -0.12658E-01   -0.12852E-01  7072   0.166E+00 0.145E-02
CGA:  59    -0.351562478702E+03   -0.11770E-01   -0.11927E-01  7072   0.260E+00-0.645E-02
CGA:  60    -0.351570657979E+03   -0.81793E-02   -0.69665E-02  7072   0.151E+00 0.224E-01
CGA:  61    -0.351575292741E+03   -0.46348E-02   -0.43996E-02  7072   0.177E+00 0.391E-02
CGA:  62    -0.351582917584E+03   -0.76248E-02   -0.75005E-02  7072   0.418E+00-0.482E-02
CGA:  63    -0.351591480456E+03   -0.85629E-02   -0.76917E-02  7072   0.444E+00 0.311E-01
CGA:  64    -0.351598658469E+03   -0.71780E-02   -0.64618E-02  7072   0.283E+00 0.517E-01
CGA:  65    -0.351603295895E+03   -0.46374E-02   -0.46260E-02  7072   0.181E+00 0.162E-02
CGA:  66    -0.351606218046E+03   -0.29222E-02   -0.31087E-02  7072   0.140E+00-0.783E-02
CGA:  67    -0.351608621229E+03   -0.24032E-02   -0.24919E-02  7072   0.129E+00-0.293E-02
CGA:  68    -0.351611641664E+03   -0.30204E-02   -0.30137E-02  7072   0.173E+00 0.411E-03
SDA:  69    -0.351615624747E+03   -0.39831E-02   -0.38200E-02  7072   0.179E+00 0.382E-02
CGA:  70    -0.351621465575E+03   -0.58408E-02   -0.58088E-02  7072   0.757E-01-0.124E-02
CGA:  71    -0.351626322206E+03   -0.48566E-02   -0.49815E-02  7072   0.533E-01-0.425E-02
CGA:  72    -0.351641536416E+03   -0.15214E-01   -0.15757E-02  7072   0.548E-01 0.569E-02
CGA:  73    -0.351644914629E+03   -0.33782E-02   -0.33594E-02  7072   0.553E-01-0.623E-04
CGA:  74    -0.351647568518E+03   -0.26539E-02   -0.25824E-02  7072   0.302E-01 0.267E-03
CGA:  75    -0.351650768069E+03   -0.31996E-02   -0.31757E-02  7072   0.563E-01 0.635E-03
CGA:  76    -0.351654306809E+03   -0.35387E-02   -0.32959E-02  7072   0.293E-01-0.278E-02
CGA:  77    -0.351657005347E+03   -0.26985E-02   -0.26754E-02  7072   0.349E-01 0.748E-03
CGA:  78    -0.351657992827E+03   -0.98748E-03   -0.90725E-03  7072   0.131E-01 0.266E-02
CGA:  79    -0.351659518339E+03   -0.15255E-02   -0.15275E-02  7072   0.304E-01-0.108E-03
CGA:  80    -0.351661906167E+03   -0.23878E-02   -0.29596E-02  7072   0.864E-01-0.166E-01
CGA:  81    -0.351664047461E+03   -0.21413E-02   -0.22404E-02  7072   0.221E-01-0.284E-02
CGA:  82    -0.351665038569E+03   -0.99111E-03   -0.98667E-03  7072   0.187E-01-0.109E-04
CGA:  83    -0.351665945195E+03   -0.90663E-03   -0.90052E-03  7072   0.331E-01-0.263E-04
CGA:  84    -0.351670172391E+03   -0.42272E-02   -0.42685E-02  7072   0.656E-01-0.972E-03
CGA:  85    -0.351670295928E+03   -0.12354E-03   -0.12426E-01  7072   0.897E+00-0.111E+00
CGA:  86    -0.351686461761E+03   -0.16166E-01   -0.17993E-01  7072   0.251E+00-0.774E-01
CGA:  87    -0.351693733169E+03   -0.72714E-02   -0.73631E-02  7072   0.814E-01-0.178E-02
CGA:  88    -0.351702261482E+03   -0.85283E-02   -0.86570E-02  7072   0.200E+00-0.310E-02
CGA:  89    -0.351713534425E+03   -0.11273E-01   -0.11399E-01  7072   0.161E+00 0.165E-02
CGA:  90    -0.351722381793E+03   -0.88474E-02   -0.85643E-02  7072   0.292E+00-0.628E-03
CGA:  91    -0.351735554217E+03   -0.13172E-01   -0.12226E-01  7072   0.139E+00 0.151E-01
CGA:  92    -0.351741120092E+03   -0.55659E-02   -0.59902E-02  7072   0.214E+00-0.260E-02
CGA:  93    -0.351749101361E+03   -0.79813E-02   -0.68297E-02  7072   0.126E+00 0.196E-01
CGA:  94    -0.351758616570E+03   -0.95152E-02   -0.95260E-02  7072   0.362E+00-0.747E-02
CGA:  95    -0.351766675778E+03   -0.80592E-02   -0.87795E-02  7072   0.148E+00-0.130E-01
CGA:  96    -0.351769590778E+03   -0.29150E-02   -0.29818E-02  7072   0.977E-01-0.211E-02
CGA:  97    -0.351772192500E+03   -0.26017E-02   -0.26115E-02  7072   0.468E-01-0.231E-03
CGA:  98    -0.351773399024E+03   -0.12065E-02   -0.12106E-02  7072   0.548E-01-0.919E-04
CGA:  99    -0.351776746110E+03   -0.33471E-02   -0.33449E-02  7072   0.104E+00 0.136E-02
CGA: 100    -0.351779425106E+03   -0.26790E-02   -0.26930E-02  7072   0.497E-01-0.215E-03
CGA: 101    -0.351780892439E+03   -0.14673E-02   -0.14404E-02  7072   0.354E-01 0.457E-03
CGA: 102    -0.351782382786E+03   -0.14903E-02   -0.14783E-02  7072   0.487E-01-0.102E-03
CGA: 103    -0.351783628035E+03   -0.12452E-02   -0.12915E-02  7072   0.203E-01-0.948E-03
CGA: 104    -0.351784470049E+03   -0.84201E-03   -0.84749E-03  7072   0.362E-01 0.725E-04
CGA: 105    -0.351785935585E+03   -0.14655E-02   -0.14629E-02  7072   0.298E-01-0.354E-04
CGA: 106    -0.351787494148E+03   -0.15586E-02   -0.15563E-02  7072   0.452E-01-0.821E-03
CGA: 107    -0.351788454034E+03   -0.95989E-03   -0.96630E-03  7072   0.132E-01-0.240E-03
CGA: 108    -0.351788828291E+03   -0.37426E-03   -0.37439E-03  7072   0.122E-01-0.256E-04
CGA: 109    -0.351789274993E+03   -0.44670E-03   -0.44677E-03  7072   0.144E-01-0.134E-04
CGA: 110    -0.351789843661E+03   -0.56867E-03   -0.56849E-03  7072   0.135E-01-0.193E-04
CGA: 111    -0.351790189696E+03   -0.34604E-03   -0.34709E-03  7072   0.101E-01-0.375E-04
CGA: 112    -0.351790583537E+03   -0.39384E-03   -0.39286E-03  7072   0.713E-02-0.306E-04
CGA: 113    -0.351790737375E+03   -0.15384E-03   -0.15439E-03  7072   0.451E-02-0.106E-04
CGA: 114    -0.351790977228E+03   -0.23985E-03   -0.23993E-03  7072   0.615E-02-0.644E-05
CGA: 115    -0.351791123983E+03   -0.14675E-03   -0.14710E-03  7072   0.412E-02-0.757E-05
SDA: 116    -0.351791343652E+03   -0.21967E-03   -0.21964E-03  7072   0.705E-02 0.540E-05
CGA: 117    -0.351791505069E+03   -0.16142E-03   -0.16202E-03  7072   0.231E-02-0.469E-05
CGA: 118    -0.351791614210E+03   -0.10914E-03   -0.10916E-03  7072   0.257E-02-0.182E-05
CGA: 119    -0.351791764442E+03   -0.15023E-03   -0.15025E-03  7072   0.193E-02 0.257E-05
CGA: 120    -0.351792035886E+03   -0.27144E-03   -0.26971E-03  7072   0.239E-02 0.157E-04
CGA: 121    -0.351792198812E+03   -0.16293E-03   -0.16282E-03  7072   0.896E-03 0.882E-05
CGA: 122    -0.351792256673E+03   -0.57861E-04   -0.57767E-04  7072   0.144E-02 0.762E-05
CGA: 123    -0.351792309923E+03   -0.53250E-04   -0.53140E-04  7072   0.119E-02 0.458E-05
CGA: 124    -0.351792468722E+03   -0.15880E-03   -0.15805E-03  7072   0.968E-03 0.555E-05
CGA: 125    -0.351792510290E+03   -0.41568E-04   -0.41530E-04  7072   0.509E-03 0.440E-06
CGA: 126    -0.351792536145E+03   -0.25856E-04   -0.25833E-04  7072   0.473E-03-0.423E-05
CGA: 127    -0.351792553734E+03   -0.17589E-04   -0.17578E-04  7072   0.467E-03-0.106E-05
CGA: 128    -0.351792593607E+03   -0.39873E-04   -0.40204E-04  7072   0.632E-03-0.976E-05
CGA: 129    -0.351792660727E+03   -0.67120E-04   -0.67872E-04  7072   0.323E-03-0.143E-04
CGA: 130    -0.351792674384E+03   -0.13656E-04   -0.13650E-04  7072   0.434E-03-0.907E-06
CGA: 131    -0.351792697714E+03   -0.23330E-04   -0.23315E-04  7072   0.564E-03-0.368E-05
CGA: 132    -0.351792774764E+03   -0.77050E-04   -0.77425E-04  7072   0.750E-03-0.579E-05
CGA: 133    -0.351792805328E+03   -0.30564E-04   -0.30532E-04  7072   0.351E-03-0.147E-05
CGA: 134    -0.351792833733E+03   -0.28405E-04   -0.28622E-04  7072   0.145E-03-0.824E-05
CGA: 135    -0.351792850148E+03   -0.16415E-04   -0.16329E-04  7072   0.446E-03 0.145E-05
CGA: 136    -0.351792868636E+03   -0.18487E-04   -0.18394E-04  7072   0.407E-03-0.442E-06
CGA: 137    -0.351792884573E+03   -0.15937E-04   -0.16007E-04  7072   0.737E-04 0.514E-06
CGA: 138    -0.351792893043E+03   -0.84699E-05   -0.83573E-05  7072   0.169E-03 0.210E-05
CGA: 139    -0.351792905362E+03   -0.12319E-04   -0.12294E-04  7072   0.172E-03 0.368E-05
CGA: 140    -0.351792917613E+03   -0.12251E-04   -0.12243E-04  7072   0.175E-03 0.169E-05
CGA: 141    -0.351792922078E+03   -0.44655E-05   -0.45404E-05  7072   0.825E-04 0.770E-06
   1 F= -.35179292E+03 E0= -.35177436E+03  d E =-.351793E+03  mag=     4.4552
       N       E                     dE             d eps       ncg     rms          ort
SDA:   1    -0.351805620323E+03   -0.12703E-01    0.00000E+00  7072   0.486E-01 0.000E+00
CGA:   2    -0.351806710460E+03   -0.10901E-02   -0.10917E-02  7072   0.942E-02-0.568E-04
CGA:   3    -0.351806913754E+03   -0.20329E-03   -0.20443E-03  7072   0.253E-02-0.273E-04
CGA:   4    -0.351807133426E+03   -0.21967E-03   -0.21951E-03  7072   0.241E-02 0.506E-05
CGA:   5    -0.351807249311E+03   -0.11589E-03   -0.11591E-03  7072   0.168E-02 0.128E-05
CGA:   6    -0.351807374658E+03   -0.12535E-03   -0.12539E-03  7072   0.668E-03-0.253E-05
CGA:   7    -0.351807393427E+03   -0.18768E-04   -0.18778E-04  7072   0.474E-03 0.110E-06
CGA:   8    -0.351807416548E+03   -0.23121E-04   -0.23088E-04  7072   0.281E-03-0.292E-05
CGA:   9    -0.351807441307E+03   -0.24759E-04   -0.24870E-04  7072   0.114E-03-0.363E-05
CGA:  10    -0.351807445292E+03   -0.39844E-05   -0.39552E-05  7072   0.824E-04-0.107E-05
   2 F= -.35180745E+03 E0= -.35178886E+03  d E =-.145232E-01  mag=     4.4562
       N       E                     dE             d eps       ncg     rms          ort
SDA:   1    -0.351739185901E+03    0.68255E-01    0.00000E+00  7072   0.124E+01 0.000E+00
CGA:   2    -0.351911233764E+03   -0.17205E+00   -0.17137E+00  7072   0.508E+01 0.106E-01
CGA:   3    -0.352037039105E+03   -0.12581E+00   -0.12488E+00  7072   0.544E+00 0.959E-02
CGA:   4    -0.352075673983E+03   -0.38635E-01   -0.38356E-01  7072   0.543E+00 0.170E-01
CGA:   5    -0.352121706717E+03   -0.46033E-01   -0.46225E-01  7072   0.405E+00-0.667E-02
CGA:   6    -0.352133778157E+03   -0.12071E-01   -0.12024E-01  7072   0.109E+00 0.148E-03
CGA:   7    -0.352137249586E+03   -0.34714E-02   -0.34265E-02  7072   0.864E-01 0.587E-03
CGA:   8    -0.352142110358E+03   -0.48608E-02   -0.48602E-02  7072   0.513E-01-0.948E-04
CGA:   9    -0.352145457398E+03   -0.33470E-02   -0.33465E-02  7072   0.175E-01 0.555E-04
CGA:  10    -0.352146500279E+03   -0.10429E-02   -0.10429E-02  7072   0.150E-01 0.120E-04
CGA:  11    -0.352146907041E+03   -0.40676E-03   -0.40652E-03  7072   0.900E-02-0.172E-05
CGA:  12    -0.352147623970E+03   -0.71693E-03   -0.71587E-03  7072   0.773E-02 0.391E-04
CGA:  13    -0.352148169438E+03   -0.54547E-03   -0.54578E-03  7072   0.347E-02-0.172E-04
CGA:  14    -0.352148329527E+03   -0.16009E-03   -0.16028E-03  7072   0.394E-02 0.691E-05
CGA:  15    -0.352148492742E+03   -0.16322E-03   -0.16311E-03  7072   0.373E-02-0.211E-05
CGA:  16    -0.352148759393E+03   -0.26665E-03   -0.26649E-03  7072   0.369E-02 0.837E-05
CGA:  17    -0.352148921402E+03   -0.16201E-03   -0.16196E-03  7072   0.143E-02-0.178E-05
CGA:  18    -0.352149046555E+03   -0.12515E-03   -0.12488E-03  7072   0.212E-02 0.919E-05
CGA:  19    -0.352149104277E+03   -0.57721E-04   -0.57737E-04  7072   0.125E-02 0.227E-05
CGA:  20    -0.352149241694E+03   -0.13742E-03   -0.13697E-03  7072   0.110E-02 0.859E-05
CGA:  21    -0.352149297878E+03   -0.56184E-04   -0.56244E-04  7072   0.399E-03 0.589E-05
CGA:  22    -0.352149312562E+03   -0.14684E-04   -0.14758E-04  7072   0.534E-03 0.330E-05
CGA:  23    -0.352149360138E+03   -0.47576E-04   -0.47368E-04  7072   0.376E-03 0.705E-05
CGA:  24    -0.352149374287E+03   -0.14150E-04   -0.14226E-04  7072   0.136E-03 0.300E-05
CGA:  25    -0.352149381933E+03   -0.76464E-05   -0.76484E-05  7072   0.148E-03 0.708E-06
   3 F= -.35214938E+03 E0= -.35213073E+03  d E =-.341937E+00  mag=     4.4658
       N       E                     dE             d eps       ncg     rms          ort
SDA:   1    -0.349962582773E+03    0.21868E+01    0.00000E+00  7072   0.104E+02 0.000E+00
CGA:   2    -0.350564129929E+03   -0.60155E+00   -0.60154E+00  7072   0.256E+02 0.286E+00
CGA:   3    -0.352031635583E+03   -0.14675E+01   -0.14652E+01  7072   0.789E+01-0.458E+00
CGA:   4    -0.352257999486E+03   -0.22636E+00   -0.24466E+00  7072   0.320E+01-0.210E+00
CGA:   5    -0.352493026772E+03   -0.23503E+00   -0.23659E+00  7072   0.652E+01-0.590E-01
CGA:   6    -0.352692511620E+03   -0.19948E+00   -0.20330E+00  7072   0.229E+01-0.619E-01
CGA:   7    -0.352762776308E+03   -0.70265E-01   -0.71673E-01  7072   0.389E+00-0.288E-01
CGA:   8    -0.352805914842E+03   -0.43139E-01   -0.43003E-01  7072   0.448E+00 0.239E-02
CGA:   9    -0.352823713519E+03   -0.17799E-01   -0.17722E-01  7072   0.260E+00-0.419E-03
CGA:  10    -0.352832764310E+03   -0.90508E-02   -0.91303E-02  7072   0.171E+00-0.380E-03
CGA:  11    -0.352838447356E+03   -0.56830E-02   -0.56829E-02  7072   0.590E-01-0.501E-05
CGA:  12    -0.352843094342E+03   -0.46470E-02   -0.46352E-02  7072   0.633E-01 0.399E-03
CGA:  13    -0.352847187410E+03   -0.40931E-02   -0.40954E-02  7072   0.767E-01-0.213E-03
CGA:  14    -0.352849161938E+03   -0.19745E-02   -0.19825E-02  7072   0.230E-01-0.127E-03
CGA:  15    -0.352850571187E+03   -0.14092E-02   -0.14108E-02  7072   0.214E-01-0.138E-03
CGA:  16    -0.352852219334E+03   -0.16481E-02   -0.16458E-02  7072   0.310E-01 0.826E-04
CGA:  17    -0.352853559947E+03   -0.13406E-02   -0.13416E-02  7072   0.241E-01 0.514E-05
CGA:  18    -0.352854330179E+03   -0.77023E-03   -0.77279E-03  7072   0.115E-01-0.153E-04
CGA:  19    -0.352855188879E+03   -0.85870E-03   -0.85983E-03  7072   0.976E-02-0.410E-04
CGA:  20    -0.352855838280E+03   -0.64940E-03   -0.64862E-03  7072   0.148E-01 0.549E-04
CGA:  21    -0.352856349413E+03   -0.51113E-03   -0.51150E-03  7072   0.922E-02 0.104E-04
CGA:  22    -0.352856839548E+03   -0.49014E-03   -0.49022E-03  7072   0.353E-02 0.320E-04
CGA:  23    -0.352857004329E+03   -0.16478E-03   -0.16478E-03  7072   0.327E-02 0.342E-05
CGA:  24    -0.352857214355E+03   -0.21003E-03   -0.20984E-03  7072   0.545E-02 0.186E-04
CGA:  25    -0.352857402198E+03   -0.18784E-03   -0.18794E-03  7072   0.135E-02 0.116E-04
CGA:  26    -0.352857464569E+03   -0.62371E-04   -0.62415E-04  7072   0.764E-03 0.565E-05
CGA:  27    -0.352857527036E+03   -0.62467E-04   -0.62450E-04  7072   0.210E-02 0.562E-06
CGA:  28    -0.352857604657E+03   -0.77621E-04   -0.77711E-04  7072   0.445E-03 0.528E-05
CGA:  29    -0.352857625808E+03   -0.21151E-04   -0.21154E-04  7072   0.357E-03 0.526E-06
CGA:  30    -0.352857648957E+03   -0.23149E-04   -0.23128E-04  7072   0.451E-03 0.190E-05
CGA:  31    -0.352857665634E+03   -0.16677E-04   -0.16648E-04  7072   0.355E-03-0.151E-05
SDA:  32    -0.352857685877E+03   -0.20243E-04   -0.20246E-04  7072   0.195E-03-0.107E-05
CGA:  33    -0.352857691164E+03   -0.52874E-05   -0.52643E-05  7072   0.824E-04-0.755E-06
   4 F= -.35285769E+03 E0= -.35283891E+03  d E =-.708309E+00  mag=     4.4871
       N       E                     dE             d eps       ncg     rms          ort
SDA:   1    -0.348992009389E+03    0.38657E+01    0.00000E+00  7072   0.144E+02 0.000E+00
CGA:   2    -0.350182766874E+03   -0.11908E+01   -0.11662E+01  7072   0.458E+02 0.877E+00
CGA:   3    -0.352283824483E+03   -0.21011E+01   -0.20769E+01  7072   0.659E+01-0.593E+00
CGA:   4    -0.352548250180E+03   -0.26443E+00   -0.26425E+00  7072   0.730E+01-0.405E-01
CGA:   5    -0.352950010663E+03   -0.40176E+00   -0.40257E+00  7072   0.721E+01-0.133E+00
CGA:   6    -0.353220733624E+03   -0.27072E+00   -0.27342E+00  7072   0.185E+01 0.186E-01
CGA:   7    -0.353272217207E+03   -0.51484E-01   -0.50749E-01  7072   0.864E+00 0.875E-02
CGA:   8    -0.353321435001E+03   -0.49218E-01   -0.49220E-01  7072   0.893E+00-0.288E-03
CGA:   9    -0.353358447704E+03   -0.37013E-01   -0.36903E-01  7072   0.517E+00-0.351E-02
CGA:  10    -0.353377923815E+03   -0.19476E-01   -0.19577E-01  7072   0.245E+00 0.159E-02
CGA:  11    -0.353385555679E+03   -0.76319E-02   -0.76263E-02  7072   0.113E+00-0.368E-04
CGA:  12    -0.353392667596E+03   -0.71119E-02   -0.70739E-02  7072   0.118E+00 0.200E-02
CGA:  13    -0.353397469589E+03   -0.48020E-02   -0.47982E-02  7072   0.107E+00-0.115E-03
CGA:  14    -0.353403191002E+03   -0.57214E-02   -0.57181E-02  7072   0.466E-01 0.437E-03
CGA:  15    -0.353404885837E+03   -0.16948E-02   -0.16938E-02  7072   0.362E-01-0.206E-04
CGA:  16    -0.353406625698E+03   -0.17399E-02   -0.17400E-02  7072   0.298E-01 0.205E-03
CGA:  17    -0.353409109930E+03   -0.24842E-02   -0.24868E-02  7072   0.502E-01-0.678E-04
CGA:  18    -0.353410696101E+03   -0.15862E-02   -0.15902E-02  7072   0.185E-01-0.794E-05
CGA:  19    -0.353411566421E+03   -0.87032E-03   -0.87025E-03  7072   0.136E-01-0.128E-04
CGA:  20    -0.353412391090E+03   -0.82467E-03   -0.82390E-03  7072   0.224E-01 0.554E-04
CGA:  21    -0.353413428489E+03   -0.10374E-02   -0.10374E-02  7072   0.110E-01 0.874E-05
CGA:  22    -0.353414003787E+03   -0.57530E-03   -0.57511E-03  7072   0.125E-01 0.481E-04
CGA:  23    -0.353414485598E+03   -0.48181E-03   -0.48172E-03  7072   0.441E-02 0.661E-05
CGA:  24    -0.353414654242E+03   -0.16864E-03   -0.16883E-03  7072   0.403E-02 0.134E-04
CGA:  25    -0.353415051403E+03   -0.39716E-03   -0.39618E-03  7072   0.568E-02 0.200E-04
CGA:  26    -0.353415187679E+03   -0.13628E-03   -0.13673E-03  7072   0.106E-02 0.814E-05
CGA:  27    -0.353415260214E+03   -0.72535E-04   -0.72528E-04  7072   0.178E-02 0.445E-06
CGA:  28    -0.353415347576E+03   -0.87362E-04   -0.87371E-04  7072   0.175E-02 0.674E-05
CGA:  29    -0.353415430671E+03   -0.83094E-04   -0.83100E-04  7072   0.688E-03 0.190E-05
CGA:  30    -0.353415454258E+03   -0.23587E-04   -0.23632E-04  7072   0.485E-03 0.255E-05
CGA:  31    -0.353415481714E+03   -0.27456E-04   -0.27461E-04  7072   0.467E-03-0.753E-06
SDA:  32    -0.353415508193E+03   -0.26479E-04   -0.26468E-04  7072   0.516E-03 0.160E-05
CGA:  33    -0.353415517653E+03   -0.94605E-05   -0.94161E-05  7072   0.151E-03-0.152E-05
CGA:  34    -0.353415527668E+03   -0.10015E-04   -0.10030E-04  7072   0.129E-03-0.977E-06
CGA:  35    -0.353415538149E+03   -0.10480E-04   -0.10561E-04  7072   0.221E-03-0.253E-05
CGA:  36    -0.353415555157E+03   -0.17008E-04   -0.17095E-04  7072   0.164E-03-0.316E-05
CGA:  37    -0.353415562123E+03   -0.69659E-05   -0.69547E-05  7072   0.882E-04-0.122E-05
   5 F= -.35341556E+03 E0= -.35339667E+03  d E =-.557871E+00  mag=     4.5090
       N       E                     dE             d eps       ncg     rms          ort
SDA:   1    -0.346036482579E+03    0.73791E+01    0.00000E+00  7072   0.809E+02 0.000E+00
CGA:   2    -0.347441577671E+03   -0.14051E+01   -0.16454E+01  7072   0.349E+02-0.156E+02
CGA:   3    -0.350853431823E+03   -0.34119E+01   -0.31333E+01  7072   0.242E+02 0.307E+01
CGA:   4    -0.352104188334E+03   -0.12508E+01   -0.11652E+01  7072   0.164E+02-0.299E+01
CGA:   5    -0.352560262318E+03   -0.45607E+00   -0.45113E+00  7072   0.109E+02-0.168E+00
CGA:   6    -0.353152237640E+03   -0.59198E+00   -0.60290E+00  7072   0.910E+01-0.135E+01
CGA:   7    -0.353505020895E+03   -0.35278E+00   -0.35518E+00  7072   0.363E+01 0.129E+00
CGA:   8    -0.353592958576E+03   -0.87938E-01   -0.90101E-01  7072   0.173E+01-0.556E-01
CGA:   9    -0.353648434522E+03   -0.55476E-01   -0.55018E-01  7072   0.106E+01-0.815E-03
CGA:  10    -0.353709251118E+03   -0.60817E-01   -0.60619E-01  7072   0.979E+00 0.147E-01
CGA:  11    -0.353743585486E+03   -0.34334E-01   -0.34338E-01  7072   0.833E+00-0.611E-03
CGA:  12    -0.353766641914E+03   -0.23056E-01   -0.24388E-01  7072   0.195E+00-0.101E-01
CGA:  13    -0.353776777953E+03   -0.10136E-01   -0.10158E-01  7072   0.184E+00-0.254E-02
CGA:  14    -0.353783404465E+03   -0.66265E-02   -0.67784E-02  7072   0.189E+00 0.329E-02
CGA:  15    -0.353792270917E+03   -0.88665E-02   -0.88549E-02  7072   0.134E+00-0.564E-02
CGA:  16    -0.353797842280E+03   -0.55714E-02   -0.56295E-02  7072   0.608E-01 0.650E-02
CGA:  17    -0.353800162132E+03   -0.23199E-02   -0.23106E-02  7072   0.403E-01-0.181E-03
CGA:  18    -0.353801971994E+03   -0.18099E-02   -0.18118E-02  7072   0.432E-01 0.719E-03
CGA:  19    -0.353804912233E+03   -0.29402E-02   -0.29626E-02  7072   0.395E-01-0.917E-03
CGA:  20    -0.353806621343E+03   -0.17091E-02   -0.17131E-02  7072   0.260E-01 0.585E-03
CGA:  21    -0.353807497121E+03   -0.87578E-03   -0.87594E-03  7072   0.133E-01 0.928E-05
CGA:  22    -0.353808304260E+03   -0.80714E-03   -0.80653E-03  7072   0.164E-01 0.308E-04
CGA:  23    -0.353809388248E+03   -0.10840E-02   -0.10839E-02  7072   0.191E-01 0.131E-04
CGA:  24    -0.353809994099E+03   -0.60585E-03   -0.60705E-03  7072   0.727E-02 0.132E-04
CGA:  25    -0.353810346881E+03   -0.35278E-03   -0.35275E-03  7072   0.424E-02 0.254E-04
CGA:  26    -0.353810544066E+03   -0.19719E-03   -0.19719E-03  7072   0.496E-02 0.280E-05
CGA:  27    -0.353810829339E+03   -0.28527E-03   -0.28524E-03  7072   0.452E-02 0.694E-05
CGA:  28    -0.353811038646E+03   -0.20931E-03   -0.20935E-03  7072   0.232E-02 0.159E-04
CGA:  29    -0.353811126562E+03   -0.87916E-04   -0.87993E-04  7072   0.169E-02 0.727E-05
CGA:  30    -0.353811204670E+03   -0.78108E-04   -0.78107E-04  7072   0.118E-02-0.102E-05
CGA:  31    -0.353811290097E+03   -0.85427E-04   -0.85346E-04  7072   0.174E-02 0.333E-05
SDA:  32    -0.353811358156E+03   -0.68059E-04   -0.68055E-04  7072   0.981E-03-0.106E-06
CGA:  33    -0.353811378250E+03   -0.20093E-04   -0.20139E-04  7072   0.331E-03 0.169E-05
CGA:  34    -0.353811393981E+03   -0.15732E-04   -0.15732E-04  7072   0.291E-03-0.631E-06
CGA:  35    -0.353811439284E+03   -0.45302E-04   -0.45386E-04  7072   0.475E-03-0.911E-06
CGA:  36    -0.353811463916E+03   -0.24632E-04   -0.24632E-04  7072   0.353E-03-0.151E-05
CGA:  37    -0.353811486773E+03   -0.22857E-04   -0.22854E-04  7072   0.260E-03 0.861E-07
CGA:  38    -0.353811497235E+03   -0.10462E-04   -0.10442E-04  7072   0.247E-03-0.140E-05
CGA:  39    -0.353811507126E+03   -0.98916E-05   -0.98959E-05  7072   0.187E-03 0.342E-06
CGA:  40    -0.353811528089E+03   -0.20962E-04   -0.20993E-04  7072   0.465E-04-0.569E-06
CGA:  41    -0.353811533234E+03   -0.51452E-05   -0.51410E-05  7072   0.979E-04 0.208E-07
   6 F= -.35381153E+03 E0= -.35379257E+03  d E =-.395971E+00  mag=     4.5379
       N       E                     dE             d eps       ncg     rms          ort
SDA:   1    -0.339051958547E+03    0.14760E+02    0.00000E+00  7072   0.141E+03 0.000E+00
CGA:   2    -0.341735015083E+03   -0.26831E+01   -0.39057E+01  7072   0.925E+02-0.331E+02
CGA:   3    -0.345751270131E+03   -0.40163E+01   -0.40660E+01  7072   0.117E+03-0.139E+02
CGA:   4    -0.349830840609E+03   -0.40796E+01   -0.40481E+01  7072   0.542E+02-0.311E+01
CGA:   5    -0.351586751804E+03   -0.17559E+01   -0.15385E+01  7072   0.247E+02 0.278E+01
CGA:   6    -0.352026495085E+03   -0.43974E+00   -0.38927E+00  7072   0.965E+01 0.246E+01
CGA:   7    -0.352701866372E+03   -0.67537E+00   -0.67641E+00  7072   0.279E+02-0.421E-01
CGA:   8    -0.353284052126E+03   -0.58219E+00   -0.64851E+00  7072   0.199E+02-0.182E+01
CGA:   9    -0.353716286861E+03   -0.43223E+00   -0.41188E+00  7072   0.443E+01 0.358E+00
CGA:  10    -0.353800843444E+03   -0.84557E-01   -0.77662E-01  7072   0.286E+01 0.287E+00
CGA:  11    -0.353874343205E+03   -0.73500E-01   -0.75190E-01  7072   0.150E+01-0.331E-01
CGA:  12    -0.353908220307E+03   -0.33877E-01   -0.35091E-01  7072   0.193E+01-0.269E-01
CGA:  13    -0.353974578613E+03   -0.66358E-01   -0.65990E-01  7072   0.126E+01-0.836E-02
CGA:  14    -0.354007369965E+03   -0.32791E-01   -0.32943E-01  7072   0.125E+01-0.125E-02
CGA:  15    -0.354035802094E+03   -0.28432E-01   -0.30001E-01  7072   0.545E+00-0.221E-01
CGA:  16    -0.354049605215E+03   -0.13803E-01   -0.14478E-01  7072   0.323E+00-0.318E-02
CGA:  17    -0.354056623645E+03   -0.70184E-02   -0.70048E-02  7072   0.206E+00 0.396E-03
CGA:  18    -0.354069588357E+03   -0.12965E-01   -0.13008E-01  7072   0.288E+00-0.180E-02
CGA:  19    -0.354076909879E+03   -0.73215E-02   -0.78521E-02  7072   0.210E+00-0.229E-05
CGA:  20    -0.354084992165E+03   -0.80823E-02   -0.80810E-02  7072   0.541E-01-0.184E-03
CGA:  21    -0.354088257771E+03   -0.32656E-02   -0.32768E-02  7072   0.398E-01-0.493E-03
CGA:  22    -0.354090434198E+03   -0.21764E-02   -0.21502E-02  7072   0.416E-01 0.153E-02
CGA:  23    -0.354092467309E+03   -0.20331E-02   -0.20358E-02  7072   0.499E-01-0.391E-03
CGA:  24    -0.354094229577E+03   -0.17623E-02   -0.17680E-02  7072   0.197E-01 0.245E-03
CGA:  25    -0.354095293036E+03   -0.10635E-02   -0.10608E-02  7072   0.102E-01 0.172E-03
CGA:  26    -0.354095975432E+03   -0.68240E-03   -0.68277E-03  7072   0.172E-01-0.118E-04
CGA:  27    -0.354096650069E+03   -0.67464E-03   -0.67548E-03  7072   0.148E-01 0.794E-04
CGA:  28    -0.354097312277E+03   -0.66221E-03   -0.66221E-03  7072   0.463E-02 0.110E-04
CGA:  29    -0.354097552232E+03   -0.23995E-03   -0.24000E-03  7072   0.435E-02-0.388E-05
CGA:  30    -0.354097902558E+03   -0.35033E-03   -0.34952E-03  7072   0.709E-02 0.216E-04
CGA:  31    -0.354098122553E+03   -0.21999E-03   -0.22013E-03  7072   0.474E-02-0.172E-05
SDA:  32    -0.354098444118E+03   -0.32157E-03   -0.32112E-03  7072   0.205E-02 0.185E-04
CGA:  33    -0.354098518560E+03   -0.74442E-04   -0.74459E-04  7072   0.890E-03 0.158E-05
CGA:  34    -0.354098600655E+03   -0.82095E-04   -0.81979E-04  7072   0.169E-02 0.240E-05
CGA:  35    -0.354098738081E+03   -0.13743E-03   -0.13723E-03  7072   0.123E-02 0.595E-05
CGA:  36    -0.354098773523E+03   -0.35442E-04   -0.35388E-04  7072   0.849E-03-0.202E-05
CGA:  37    -0.354098822445E+03   -0.48922E-04   -0.48929E-04  7072   0.575E-03-0.111E-05
CGA:  38    -0.354098875413E+03   -0.52969E-04   -0.53113E-04  7072   0.410E-03-0.342E-05
CGA:  39    -0.354098905038E+03   -0.29625E-04   -0.29595E-04  7072   0.558E-03 0.128E-05
CGA:  40    -0.354098922044E+03   -0.17006E-04   -0.16996E-04  7072   0.336E-03-0.485E-06
CGA:  41    -0.354098945890E+03   -0.23847E-04   -0.23797E-04  7072   0.326E-03 0.253E-05
CGA:  42    -0.354098969128E+03   -0.23238E-04   -0.23223E-04  7072   0.411E-03 0.915E-06
CGA:  43    -0.354098991825E+03   -0.22698E-04   -0.22693E-04  7072   0.155E-03 0.269E-05
CGA:  44    -0.354098997183E+03   -0.53579E-05   -0.53549E-05  7072   0.152E-03-0.172E-06
   7 F= -.35409900E+03 E0= -.35407999E+03  d E =-.287464E+00  mag=     4.5520
       N       E                     dE             d eps       ncg     rms          ort
SDA:   1    -0.336416703482E+03    0.17682E+02    0.00000E+00  7072   0.690E+02 0.000E+00
CGA:   2    -0.339332336241E+03   -0.29156E+01   -0.30678E+01  7072   0.105E+03 0.472E+01
CGA:   3    -0.346468986745E+03   -0.71367E+01   -0.77012E+01  7072   0.172E+03-0.329E+02
CGA:   4    -0.350298006103E+03   -0.38290E+01   -0.38654E+01  7072   0.485E+02-0.121E+01
CGA:   5    -0.351351477602E+03   -0.10535E+01   -0.91559E+00  7072   0.280E+02 0.402E+01
CGA:   6    -0.352011896534E+03   -0.66042E+00   -0.56858E+00  7072   0.169E+02 0.264E+01
CGA:   7    -0.352417398110E+03   -0.40550E+00   -0.35866E+00  7072   0.245E+02 0.140E+01
CGA:   8    -0.352987731023E+03   -0.57033E+00   -0.57818E+00  7072   0.325E+02-0.237E+00
CGA:   9    -0.353387157523E+03   -0.39943E+00   -0.46393E+00  7072   0.180E+02-0.345E+01
CGA:  10    -0.353662497673E+03   -0.27534E+00   -0.27947E+00  7072   0.990E+01-0.237E+00
CGA:  11    -0.353758785739E+03   -0.96288E-01   -0.78018E-01  7072   0.360E+01 0.211E+01
CGA:  12    -0.353817252915E+03   -0.58467E-01   -0.53632E-01  7072   0.390E+01 0.325E+00
CGA:  13    -0.353889779588E+03   -0.72527E-01   -0.71360E-01  7072   0.515E+01 0.250E-01
CGA:  14    -0.353936180293E+03   -0.46401E-01   -0.51609E-01  7072   0.265E+01-0.436E+00
CGA:  15    -0.353966005435E+03   -0.29825E-01   -0.32949E-01  7072   0.353E+01-0.167E+00
CGA:  16    -0.354043506843E+03   -0.77501E-01   -0.80731E-01  7072   0.525E+01 0.471E-02
CGA:  17    -0.354103502905E+03   -0.59996E-01   -0.57323E-01  7072   0.200E+01 0.181E+00
CGA:  18    -0.354131218837E+03   -0.27716E-01   -0.27249E-01  7072   0.167E+01 0.209E-01
CGA:  19    -0.354156479125E+03   -0.25260E-01   -0.25326E-01  7072   0.117E+01-0.184E-02
CGA:  20    -0.354168612796E+03   -0.12134E-01   -0.13233E-01  7072   0.541E+00-0.690E-01
CGA:  21    -0.354177839121E+03   -0.92263E-02   -0.96230E-02  7072   0.622E+00-0.450E-02
CGA:  22    -0.354189835630E+03   -0.11997E-01   -0.11917E-01  7072   0.473E+00 0.111E-02
CGA:  23    -0.354199780009E+03   -0.99444E-02   -0.98948E-02  7072   0.597E+00-0.466E-03
CGA:  24    -0.354213533281E+03   -0.13753E-01   -0.13791E-01  7072   0.626E+00 0.113E-02
CGA:  25    -0.354223324084E+03   -0.97908E-02   -0.10340E-01  7072   0.340E+00-0.961E-02
CGA:  26    -0.354230231968E+03   -0.69079E-02   -0.70236E-02  7072   0.211E+00 0.209E-02
CGA:  27    -0.354233782805E+03   -0.35508E-02   -0.35242E-02  7072   0.939E-01 0.408E-03
CGA:  28    -0.354236487834E+03   -0.27050E-02   -0.27063E-02  7072   0.131E+00-0.724E-03
CGA:  29    -0.354239429305E+03   -0.29415E-02   -0.29480E-02  7072   0.749E-01 0.357E-03
CGA:  30    -0.354240940255E+03   -0.15109E-02   -0.15141E-02  7072   0.755E-01 0.940E-04
CGA:  31    -0.354244283100E+03   -0.33428E-02   -0.33174E-02  7072   0.126E+00 0.132E-02
SDA:  32    -0.354246473062E+03   -0.21900E-02   -0.21921E-02  7072   0.431E-01-0.575E-04
CGA:  33    -0.354247909672E+03   -0.14366E-02   -0.14380E-02  7072   0.113E-01-0.165E-03
CGA:  34    -0.354248662222E+03   -0.75255E-03   -0.75175E-03  7072   0.164E-01 0.229E-04
CGA:  35    -0.354250130358E+03   -0.14681E-02   -0.14664E-02  7072   0.161E-01 0.386E-04
CGA:  36    -0.354250581440E+03   -0.45108E-03   -0.45114E-03  7072   0.890E-02 0.104E-04
CGA:  37    -0.354250962692E+03   -0.38125E-03   -0.38169E-03  7072   0.332E-02-0.315E-04
CGA:  38    -0.354251302625E+03   -0.33993E-03   -0.33802E-03  7072   0.360E-02 0.300E-04
CGA:  39    -0.354251609221E+03   -0.30660E-03   -0.30601E-03  7072   0.300E-02 0.123E-04
CGA:  40    -0.354251752635E+03   -0.14341E-03   -0.14328E-03  7072   0.330E-02 0.134E-04
CGA:  41    -0.354251853531E+03   -0.10090E-03   -0.10086E-03  7072   0.126E-02-0.141E-05
CGA:  42    -0.354252055862E+03   -0.20233E-03   -0.20218E-03  7072   0.296E-02 0.175E-05
CGA:  43    -0.354252193587E+03   -0.13772E-03   -0.13774E-03  7072   0.152E-02-0.913E-05
CGA:  44    -0.354252270571E+03   -0.76984E-04   -0.77000E-04  7072   0.833E-03-0.264E-05
CGA:  45    -0.354252302055E+03   -0.31484E-04   -0.31475E-04  7072   0.943E-03-0.130E-05
CGA:  46    -0.354252362054E+03   -0.59999E-04   -0.59879E-04  7072   0.940E-03 0.628E-05
CGA:  47    -0.354252493010E+03   -0.13096E-03   -0.12979E-03  7072   0.430E-03 0.127E-04
CGA:  48    -0.354252514875E+03   -0.21864E-04   -0.21865E-04  7072   0.394E-03 0.234E-05
CGA:  49    -0.354252533545E+03   -0.18670E-04   -0.18661E-04  7072   0.596E-03-0.259E-05
CGA:  50    -0.354252567019E+03   -0.33474E-04   -0.33499E-04  7072   0.202E-03-0.399E-05
CGA:  51    -0.354252593945E+03   -0.26926E-04   -0.27180E-04  7072   0.998E-04-0.311E-05
CGA:  52    -0.354252599614E+03   -0.56693E-05   -0.56673E-05  7072   0.210E-03 0.640E-06
CGA:  53    -0.354252611435E+03   -0.11821E-04   -0.11820E-04  7072   0.188E-03-0.386E-08
CGA:  54    -0.354252620880E+03   -0.94454E-05   -0.94526E-05  7072   0.526E-04 0.151E-05
   8 F= -.35425262E+03 E0= -.35423332E+03  d E =-.153624E+00  mag=     4.5833
       N       E                     dE             d eps       ncg     rms          ort
SDA:   1    -0.338329526314E+03    0.15923E+02    0.00000E+00  7072   0.474E+02 0.000E+00
CGA:   2    -0.342353256874E+03   -0.40237E+01   -0.37529E+01  7072   0.105E+03 0.908E+01
CGA:   3    -0.348410162281E+03   -0.60569E+01   -0.58195E+01  7072   0.881E+02-0.567E+01
CGA:   4    -0.351336653258E+03   -0.29265E+01   -0.29762E+01  7072   0.312E+02-0.256E+01
CGA:   5    -0.352258231989E+03   -0.92158E+00   -0.93463E+00  7072   0.208E+02-0.505E+00
CGA:   6    -0.352770523220E+03   -0.51229E+00   -0.47651E+00  7072   0.176E+02 0.824E+00
CGA:   7    -0.353564099589E+03   -0.79358E+00   -0.79257E+00  7072   0.160E+02-0.382E-01
CGA:   8    -0.353834255947E+03   -0.27016E+00   -0.30636E+00  7072   0.800E+01-0.141E+01
CGA:   9    -0.354010170832E+03   -0.17591E+00   -0.17133E+00  7072   0.208E+01 0.795E-01
CGA:  10    -0.354076955327E+03   -0.66784E-01   -0.65504E-01  7072   0.234E+01 0.244E-02
CGA:  11    -0.354140284715E+03   -0.63329E-01   -0.65615E-01  7072   0.169E+01-0.219E-01
CGA:  12    -0.354217428350E+03   -0.77144E-01   -0.77159E-01  7072   0.112E+01 0.597E-01
CGA:  13    -0.354243193366E+03   -0.25765E-01   -0.25903E-01  7072   0.614E+00-0.422E-02
CGA:  14    -0.354262395374E+03   -0.19202E-01   -0.19400E-01  7072   0.315E+00 0.145E-02
CGA:  15    -0.354276316167E+03   -0.13921E-01   -0.13925E-01  7072   0.281E+00 0.121E-01
CGA:  16    -0.354283311231E+03   -0.69951E-02   -0.70123E-02  7072   0.155E+00-0.331E-03
CGA:  17    -0.354292028710E+03   -0.87175E-02   -0.86853E-02  7072   0.146E+00 0.183E-02
CGA:  18    -0.354297833998E+03   -0.58053E-02   -0.58507E-02  7072   0.878E-01 0.435E-02
CGA:  19    -0.354299892531E+03   -0.20585E-02   -0.20554E-02  7072   0.320E-01 0.541E-04
CGA:  20    -0.354301810686E+03   -0.19182E-02   -0.19159E-02  7072   0.305E-01 0.993E-04
CGA:  21    -0.354303712473E+03   -0.19018E-02   -0.18778E-02  7072   0.319E-01 0.105E-02
CGA:  22    -0.354304737835E+03   -0.10254E-02   -0.10253E-02  7072   0.210E-01-0.129E-04
CGA:  23    -0.354305553594E+03   -0.81576E-03   -0.81587E-03  7072   0.851E-02 0.857E-05
CGA:  24    -0.354306051136E+03   -0.49754E-03   -0.49553E-03  7072   0.711E-02 0.103E-03
CGA:  25    -0.354306472997E+03   -0.42186E-03   -0.42199E-03  7072   0.108E-01-0.599E-05
CGA:  26    -0.354306864274E+03   -0.39128E-03   -0.39180E-03  7072   0.732E-02 0.258E-04
CGA:  27    -0.354307216893E+03   -0.35262E-03   -0.35240E-03  7072   0.272E-02 0.369E-04
CGA:  28    -0.354307356736E+03   -0.13984E-03   -0.13987E-03  7072   0.257E-02-0.325E-05
CGA:  29    -0.354307484134E+03   -0.12740E-03   -0.12734E-03  7072   0.375E-02 0.921E-05
CGA:  30    -0.354307639957E+03   -0.15582E-03   -0.15585E-03  7072   0.180E-02 0.282E-05
CGA:  31    -0.354307752828E+03   -0.11287E-03   -0.11279E-03  7072   0.127E-02 0.434E-05
SDA:  32    -0.354307807585E+03   -0.54757E-04   -0.54776E-04  7072   0.896E-03 0.481E-05
CGA:  33    -0.354307825496E+03   -0.17911E-04   -0.17864E-04  7072   0.396E-03-0.177E-05
CGA:  34    -0.354307884460E+03   -0.58964E-04   -0.59047E-04  7072   0.918E-03-0.974E-06
CGA:  35    -0.354307938597E+03   -0.54136E-04   -0.54134E-04  7072   0.672E-03 0.148E-06
CGA:  36    -0.354307970813E+03   -0.32216E-04   -0.32220E-04  7072   0.337E-03 0.155E-05
CGA:  37    -0.354307988954E+03   -0.18141E-04   -0.18126E-04  7072   0.468E-03 0.391E-05
CGA:  38    -0.354308006650E+03   -0.17696E-04   -0.17718E-04  7072   0.329E-03 0.183E-05
CGA:  39    -0.354308046384E+03   -0.39734E-04   -0.39379E-04  7072   0.274E-03 0.498E-05
CGA:  40    -0.354308065243E+03   -0.18858E-04   -0.18828E-04  7072   0.177E-03 0.191E-05
CGA:  41    -0.354308081903E+03   -0.16660E-04   -0.16622E-04  7072   0.244E-03 0.893E-06
CGA:  42    -0.354308089378E+03   -0.74749E-05   -0.74541E-05  7072   0.188E-03-0.815E-06
CGA:  43    -0.354308103786E+03   -0.14409E-04   -0.14411E-04  7072   0.983E-04-0.192E-06
CGA:  44    -0.354308110009E+03   -0.62222E-05   -0.62328E-05  7072   0.765E-04-0.143E-05
   9 F= -.35430811E+03 E0= -.35428902E+03  d E =-.554891E-01  mag=     4.5788
       N       E                     dE             d eps       ncg     rms          ort
SDA:   1    -0.324916689720E+03    0.29391E+02    0.00000E+00  7072   0.974E+02 0.000E+00
CGA:   2    -0.330592540484E+03   -0.56759E+01   -0.56397E+01  7072   0.185E+03 0.113E+02
CGA:   3    -0.341856285749E+03   -0.11264E+02   -0.10724E+02  7072   0.210E+03-0.464E+02
CGA:   4    -0.348578787333E+03   -0.67225E+01   -0.68197E+01  7072   0.830E+02 0.164E+01
CGA:   5    -0.349534485856E+03   -0.95570E+00   -0.12776E+01  7072   0.456E+02-0.185E+02
CGA:   6    -0.351361008284E+03   -0.18265E+01   -0.18247E+01  7072   0.332E+02-0.463E+00
CGA:   7    -0.352362317459E+03   -0.10013E+01   -0.94818E+00  7072   0.317E+02 0.510E+00
CGA:   8    -0.352978744976E+03   -0.61643E+00   -0.71540E+00  7072   0.178E+02-0.286E+01
CGA:   9    -0.353469019748E+03   -0.49027E+00   -0.45935E+00  7072   0.530E+01 0.388E+00
CGA:  10    -0.353756957611E+03   -0.28794E+00   -0.28850E+00  7072   0.289E+01-0.843E-01
CGA:  11    -0.353931561808E+03   -0.17460E+00   -0.17761E+00  7072   0.533E+01-0.169E+00
CGA:  12    -0.354082846691E+03   -0.15128E+00   -0.15567E+00  7072   0.280E+01-0.500E-01
CGA:  13    -0.354142141670E+03   -0.59295E-01   -0.58021E-01  7072   0.153E+01 0.385E-01
CGA:  14    -0.354195014437E+03   -0.52873E-01   -0.55367E-01  7072   0.994E+00 0.338E-01
CGA:  15    -0.354242231913E+03   -0.47217E-01   -0.47124E-01  7072   0.118E+01-0.504E-01
CGA:  16    -0.354274603056E+03   -0.32371E-01   -0.34518E-01  7072   0.809E+00-0.711E-03
CGA:  17    -0.354303487134E+03   -0.28884E-01   -0.28501E-01  7072   0.620E+00-0.526E-02
CGA:  18    -0.354324971793E+03   -0.21485E-01   -0.22373E-01  7072   0.219E+00 0.251E-01
CGA:  19    -0.354335547292E+03   -0.10575E-01   -0.10574E-01  7072   0.157E+00 0.105E-02
CGA:  20    -0.354344202792E+03   -0.86555E-02   -0.86055E-02  7072   0.174E+00 0.352E-02
CGA:  21    -0.354353806005E+03   -0.96032E-02   -0.95776E-02  7072   0.110E+00 0.199E-02
CGA:  22    -0.354357516087E+03   -0.37101E-02   -0.37830E-02  7072   0.655E-01 0.982E-03
CGA:  23    -0.354359805351E+03   -0.22893E-02   -0.22844E-02  7072   0.330E-01-0.103E-03
CGA:  24    -0.354362112960E+03   -0.23076E-02   -0.22822E-02  7072   0.290E-01 0.875E-03
CGA:  25    -0.354363594458E+03   -0.14815E-02   -0.14810E-02  7072   0.308E-01 0.813E-04
CGA:  26    -0.354365242113E+03   -0.16477E-02   -0.16411E-02  7072   0.236E-01 0.615E-03
CGA:  27    -0.354366029232E+03   -0.78712E-03   -0.78616E-03  7072   0.976E-02-0.744E-05
CGA:  28    -0.354366471916E+03   -0.44268E-03   -0.44277E-03  7072   0.690E-02 0.597E-04
CGA:  29    -0.354367141497E+03   -0.66958E-03   -0.66946E-03  7072   0.126E-01 0.170E-05
CGA:  30    -0.354367601387E+03   -0.45989E-03   -0.46124E-03  7072   0.626E-02 0.203E-04
CGA:  31    -0.354367840272E+03   -0.23889E-03   -0.23864E-03  7072   0.276E-02-0.121E-04
SDA:  32    -0.354368004195E+03   -0.16392E-03   -0.16361E-03  7072   0.411E-02 0.193E-04
CGA:  33    -0.354368105212E+03   -0.10102E-03   -0.10088E-03  7072   0.155E-02 0.229E-05
CGA:  34    -0.354368195722E+03   -0.90511E-04   -0.90406E-04  7072   0.293E-02 0.844E-05
CGA:  35    -0.354368476288E+03   -0.28057E-03   -0.28015E-03  7072   0.361E-02 0.853E-05
CGA:  36    -0.354368625291E+03   -0.14900E-03   -0.14904E-03  7072   0.789E-03 0.507E-05
CGA:  37    -0.354368713826E+03   -0.88535E-04   -0.88445E-04  7072   0.111E-02 0.123E-05
CGA:  38    -0.354368809649E+03   -0.95823E-04   -0.95687E-04  7072   0.101E-02 0.372E-05
CGA:  39    -0.354368849822E+03   -0.40174E-04   -0.40127E-04  7072   0.134E-02-0.129E-05
CGA:  40    -0.354368938649E+03   -0.88826E-04   -0.88740E-04  7072   0.406E-03 0.583E-05
CGA:  41    -0.354368990725E+03   -0.52077E-04   -0.52101E-04  7072   0.663E-03-0.573E-06
CGA:  42    -0.354369031791E+03   -0.41065E-04   -0.41050E-04  7072   0.412E-03 0.294E-05
CGA:  43    -0.354369049406E+03   -0.17616E-04   -0.17606E-04  7072   0.356E-03 0.104E-06
CGA:  44    -0.354369065317E+03   -0.15911E-04   -0.15933E-04  7072   0.320E-03 0.150E-05
CGA:  45    -0.354369079669E+03   -0.14352E-04   -0.14341E-04  7072   0.194E-03-0.860E-06
CGA:  46    -0.354369100425E+03   -0.20756E-04   -0.20832E-04  7072   0.192E-03-0.158E-05
CGA:  47    -0.354369112204E+03   -0.11779E-04   -0.11786E-04  7072   0.835E-04-0.188E-05
CGA:  48    -0.354369119562E+03   -0.73575E-05   -0.73385E-05  7072   0.172E-03 0.556E-06
  10 F= -.35436912E+03 E0= -.35434984E+03  d E =-.610096E-01  mag=     4.5970
       N       E                     dE             d eps       ncg     rms          ort
SDA:   1    -0.337031536558E+03    0.17338E+02    0.00000E+00  7072   0.722E+02 0.000E+00
CGA:   2    -0.339742126571E+03   -0.27106E+01   -0.29711E+01  7072   0.109E+03-0.259E+01
CGA:   3    -0.346383239730E+03   -0.66411E+01   -0.69849E+01  7072   0.144E+03-0.290E+02
CGA:   4    -0.350390993491E+03   -0.40078E+01   -0.39237E+01  7072   0.614E+02 0.153E+01
CGA:   5    -0.351187218002E+03   -0.79622E+00   -0.12274E+01  7072   0.309E+02-0.136E+02
CGA:   6    -0.352143775826E+03   -0.95656E+00   -0.93789E+00  7072   0.217E+02-0.120E+00
CGA:   7    -0.353228460005E+03   -0.10847E+01   -0.10841E+01  7072   0.210E+02-0.585E-01
CGA:   8    -0.353630820993E+03   -0.40236E+00   -0.45311E+00  7072   0.824E+01-0.142E+01
CGA:   9    -0.353805682455E+03   -0.17486E+00   -0.14016E+00  7072   0.220E+01 0.141E+01
CGA:  10    -0.353945177495E+03   -0.13950E+00   -0.13984E+00  7072   0.542E+01-0.571E-01
CGA:  11    -0.354048534329E+03   -0.10336E+00   -0.11089E+00  7072   0.327E+01-0.228E+00
CGA:  12    -0.354161108098E+03   -0.11257E+00   -0.11629E+00  7072   0.379E+01 0.553E-01
CGA:  13    -0.354217195803E+03   -0.56088E-01   -0.47942E-01  7072   0.886E+00 0.536E+00
CGA:  14    -0.354242033917E+03   -0.24838E-01   -0.24209E-01  7072   0.124E+01 0.130E-01
CGA:  15    -0.354269333113E+03   -0.27299E-01   -0.30064E-01  7072   0.106E+01-0.479E-01
CGA:  16    -0.354295604288E+03   -0.26271E-01   -0.28940E-01  7072   0.119E+01-0.599E-02
CGA:  17    -0.354319729792E+03   -0.24126E-01   -0.21099E-01  7072   0.756E+00 0.112E+00
CGA:  18    -0.354343579428E+03   -0.23850E-01   -0.22789E-01  7072   0.920E+00 0.512E-02
CGA:  19    -0.354358877369E+03   -0.15298E-01   -0.18143E-01  7072   0.525E+00-0.634E-01
CGA:  20    -0.354369838001E+03   -0.10961E-01   -0.12147E-01  7072   0.303E+00-0.610E-02
CGA:  21    -0.354375931854E+03   -0.60939E-02   -0.59853E-02  7072   0.112E+00 0.247E-02
CGA:  22    -0.354381563927E+03   -0.56321E-02   -0.56491E-02  7072   0.176E+00-0.114E-02
CGA:  23    -0.354387021808E+03   -0.54579E-02   -0.55943E-02  7072   0.144E+00 0.508E-02
CGA:  24    -0.354393984120E+03   -0.69623E-02   -0.69564E-02  7072   0.719E-01 0.465E-03
CGA:  25    -0.354396891226E+03   -0.29071E-02   -0.29073E-02  7072   0.756E-01-0.196E-03
CGA:  26    -0.354399086162E+03   -0.21949E-02   -0.22078E-02  7072   0.249E-01 0.180E-03
CGA:  27    -0.354400326664E+03   -0.12405E-02   -0.12357E-02  7072   0.257E-01 0.329E-03
CGA:  28    -0.354401516754E+03   -0.11901E-02   -0.11907E-02  7072   0.357E-01-0.646E-04
CGA:  29    -0.354402948866E+03   -0.14321E-02   -0.14321E-02  7072   0.179E-01 0.143E-03
CGA:  30    -0.354403672978E+03   -0.72411E-03   -0.72406E-03  7072   0.127E-01 0.991E-04
CGA:  31    -0.354404155110E+03   -0.48213E-03   -0.48214E-03  7072   0.119E-01-0.503E-06
SDA:  32    -0.354404588136E+03   -0.43303E-03   -0.43345E-03  7072   0.530E-02 0.509E-04
CGA:  33    -0.354404869276E+03   -0.28114E-03   -0.28111E-03  7072   0.353E-02 0.156E-05
CGA:  34    -0.354405120189E+03   -0.25091E-03   -0.25092E-03  7072   0.418E-02-0.820E-06
CGA:  35    -0.354405420093E+03   -0.29990E-03   -0.29925E-03  7072   0.433E-02 0.198E-04
CGA:  36    -0.354405613987E+03   -0.19389E-03   -0.19391E-03  7072   0.459E-02 0.139E-05
CGA:  37    -0.354405776860E+03   -0.16287E-03   -0.16302E-03  7072   0.142E-02 0.685E-05
CGA:  38    -0.354405893490E+03   -0.11663E-03   -0.11616E-03  7072   0.158E-02 0.118E-04
CGA:  39    -0.354406088727E+03   -0.19524E-03   -0.19398E-03  7072   0.116E-02 0.161E-04
CGA:  40    -0.354406183721E+03   -0.94995E-04   -0.94772E-04  7072   0.234E-02 0.679E-05
CGA:  41    -0.354406251897E+03   -0.68176E-04   -0.68092E-04  7072   0.811E-03 0.997E-06
CGA:  42    -0.354406340475E+03   -0.88578E-04   -0.88458E-04  7072   0.139E-02 0.179E-05
CGA:  43    -0.354406410442E+03   -0.69967E-04   -0.69963E-04  7072   0.500E-03-0.192E-05
CGA:  44    -0.354406432261E+03   -0.21818E-04   -0.21805E-04  7072   0.232E-03-0.139E-05
CGA:  45    -0.354406455173E+03   -0.22912E-04   -0.23158E-04  7072   0.698E-03-0.525E-05
CGA:  46    -0.354406477257E+03   -0.22084E-04   -0.22042E-04  7072   0.227E-03-0.282E-05
CGA:  47    -0.354406490550E+03   -0.13294E-04   -0.13302E-04  7072   0.119E-03-0.168E-05
CGA:  48    -0.354406499616E+03   -0.90659E-05   -0.90885E-05  7072   0.111E-03-0.108E-05
  11 F= -.35440650E+03 E0= -.35438745E+03  d E =-.373801E-01  mag=     4.5088
       N       E                     dE             d eps       ncg     rms          ort
SDA:   1    -0.333360293782E+03    0.21046E+02    0.00000E+00  7072   0.827E+02 0.000E+00
CGA:   2    -0.336929538662E+03   -0.35692E+01   -0.35982E+01  7072   0.114E+03-0.223E+01
CGA:   3    -0.344707374723E+03   -0.77778E+01   -0.11503E+02  7072   0.360E+03-0.883E+02
CGA:   4    -0.346879437733E+03   -0.21721E+01   -0.79018E+01  7072   0.229E+03-0.188E+03
CGA:   5    -0.350210546146E+03   -0.33311E+01   -0.28057E+01  7072   0.187E+02-0.136E+02
CGA:   6    -0.351160532323E+03   -0.94999E+00   -0.84997E+00  7072   0.370E+02-0.129E+02
CGA:   7    -0.351664078908E+03   -0.50355E+00   -0.78550E+00  7072   0.166E+02-0.878E+01
CGA:   8    -0.352199004445E+03   -0.53493E+00   -0.54371E+00  7072   0.212E+02 0.396E+00
CGA:   9    -0.352998276366E+03   -0.79927E+00   -0.79547E+00  7072   0.143E+02 0.137E-02
CGA:  10    -0.353671624901E+03   -0.67335E+00   -0.67426E+00  7072   0.743E+01 0.243E+00
CGA:  11    -0.353916026886E+03   -0.24440E+00   -0.25415E+00  7072   0.590E+01 0.855E-02
CGA:  12    -0.354086977142E+03   -0.17095E+00   -0.17555E+00  7072   0.389E+01-0.505E-01
CGA:  13    -0.354258339107E+03   -0.17136E+00   -0.17229E+00  7072   0.190E+01 0.169E+00
CGA:  14    -0.354332076719E+03   -0.73738E-01   -0.72973E-01  7072   0.111E+01-0.176E-01
CGA:  15    -0.354365056564E+03   -0.32980E-01   -0.33254E-01  7072   0.627E+00-0.117E-02
CGA:  16    -0.354392892774E+03   -0.27836E-01   -0.27891E-01  7072   0.306E+00 0.214E-01
CGA:  17    -0.354407151041E+03   -0.14258E-01   -0.14261E-01  7072   0.215E+00 0.179E-02
CGA:  18    -0.354414363039E+03   -0.72120E-02   -0.72900E-02  7072   0.157E+00 0.987E-03
CGA:  19    -0.354422284487E+03   -0.79214E-02   -0.78912E-02  7072   0.983E-01 0.355E-02
CGA:  20    -0.354427426015E+03   -0.51415E-02   -0.51407E-02  7072   0.752E-01 0.919E-04
CGA:  21    -0.354430821972E+03   -0.33960E-02   -0.33963E-02  7072   0.783E-01 0.383E-03
CGA:  22    -0.354434241675E+03   -0.34197E-02   -0.34259E-02  7072   0.407E-01 0.139E-02
CGA:  23    -0.354436553396E+03   -0.23117E-02   -0.23078E-02  7072   0.288E-01 0.274E-03
CGA:  24    -0.354437792855E+03   -0.12395E-02   -0.12407E-02  7072   0.272E-01 0.171E-03
CGA:  25    -0.354439104209E+03   -0.13114E-02   -0.13107E-02  7072   0.200E-01 0.176E-03
CGA:  26    -0.354440217793E+03   -0.11136E-02   -0.11141E-02  7072   0.133E-01-0.341E-04
CGA:  27    -0.354440854238E+03   -0.63644E-03   -0.63632E-03  7072   0.121E-01 0.490E-04
CGA:  28    -0.354441328737E+03   -0.47450E-03   -0.47485E-03  7072   0.766E-02 0.159E-04
CGA:  29    -0.354441793946E+03   -0.46521E-03   -0.46521E-03  7072   0.534E-02 0.230E-05
CGA:  30    -0.354442049907E+03   -0.25596E-03   -0.25594E-03  7072   0.454E-02 0.889E-05
CGA:  31    -0.354442219214E+03   -0.16931E-03   -0.16944E-03  7072   0.266E-02 0.103E-04
CGA:  32    -0.354442374209E+03   -0.15500E-03   -0.15503E-03  7072   0.213E-02-0.206E-05
CGA:  33    -0.354442491649E+03   -0.11744E-03   -0.11736E-03  7072   0.189E-02 0.832E-05
CGA:  34    -0.354442564740E+03   -0.73091E-04   -0.73102E-04  7072   0.142E-02 0.596E-06
CGA:  35    -0.354442648552E+03   -0.83812E-04   -0.83711E-04  7072   0.107E-02 0.767E-05
CGA:  36    -0.354442717909E+03   -0.69357E-04   -0.69364E-04  7072   0.125E-02-0.110E-06
SDA:  37    -0.354442766778E+03   -0.48869E-04   -0.48898E-04  7072   0.862E-03 0.372E-05
CGA:  38    -0.354442782990E+03   -0.16212E-04   -0.16158E-04  7072   0.227E-03-0.982E-06
CGA:  39    -0.354442804303E+03   -0.21313E-04   -0.21259E-04  7072   0.637E-03 0.101E-05
CGA:  40    -0.354442872318E+03   -0.68015E-04   -0.68101E-04  7072   0.560E-03-0.157E-05
CGA:  41    -0.354442895761E+03   -0.23443E-04   -0.23426E-04  7072   0.192E-03-0.145E-05
CGA:  42    -0.354442909025E+03   -0.13264E-04   -0.13293E-04  7072   0.497E-03-0.162E-05
CGA:  43    -0.354442935427E+03   -0.26402E-04   -0.26402E-04  7072   0.280E-03 0.146E-06
CGA:  44    -0.354442949688E+03   -0.14260E-04   -0.14259E-04  7072   0.992E-04-0.106E-05
CGA:  45    -0.354442962871E+03   -0.13183E-04   -0.13225E-04  7072   0.129E-03-0.589E-06
CGA:  46    -0.354442968765E+03   -0.58944E-05   -0.58910E-05  7072   0.122E-03-0.352E-06
  12 F= -.35444297E+03 E0= -.35442377E+03  d E =-.364691E-01  mag=     4.5368
       N       E                     dE             d eps       ncg     rms          ort
SDA:   1    -0.351853777771E+03    0.25892E+01    0.00000E+00  7072   0.214E+02 0.000E+00
CGA:   2    -0.352299203813E+03   -0.44543E+00   -0.45976E+00  7072   0.983E+01-0.125E+01
CGA:   3    -0.353258367122E+03   -0.95916E+00   -0.93137E+00  7072   0.150E+02 0.677E+00
CGA:   4    -0.353850242252E+03   -0.59188E+00   -0.60306E+00  7072   0.677E+01 0.659E-01
CGA:   5    -0.354014901946E+03   -0.16466E+00   -0.16387E+00  7072   0.385E+01-0.585E-01
CGA:   6    -0.354186092819E+03   -0.17119E+00   -0.17346E+00  7072   0.295E+01 0.887E-01
CGA:   7    -0.354345452238E+03   -0.15936E+00   -0.15935E+00  7072   0.322E+01-0.168E-01
CGA:   8    -0.354409125841E+03   -0.63674E-01   -0.61657E-01  7072   0.558E+00 0.663E-01
CGA:   9    -0.354430850516E+03   -0.21725E-01   -0.21843E-01  7072   0.433E+00 0.149E-02
CGA:  10    -0.354444091647E+03   -0.13241E-01   -0.13277E-01  7072   0.389E+00-0.360E-03
CGA:  11    -0.354463837223E+03   -0.19746E-01   -0.19750E-01  7072   0.219E+00-0.284E-02
CGA:  12    -0.354469888893E+03   -0.60517E-02   -0.60938E-02  7072   0.128E+00-0.480E-03
CGA:  13    -0.354473425004E+03   -0.35361E-02   -0.35734E-02  7072   0.531E-01-0.395E-03
CGA:  14    -0.354476194201E+03   -0.27692E-02   -0.27679E-02  7072   0.610E-01 0.165E-03
CGA:  15    -0.354478231002E+03   -0.20368E-02   -0.20478E-02  7072   0.550E-01 0.486E-04
CGA:  16    -0.354480553554E+03   -0.23226E-02   -0.23239E-02  7072   0.218E-01 0.910E-04
CGA:  17    -0.354481420094E+03   -0.86654E-03   -0.86626E-03  7072   0.239E-01-0.139E-04
CGA:  18    -0.354482154244E+03   -0.73415E-03   -0.73387E-03  7072   0.975E-02-0.196E-04
CGA:  19    -0.354482788550E+03   -0.63431E-03   -0.63385E-03  7072   0.157E-01 0.167E-04
CGA:  20    -0.354483342947E+03   -0.55440E-03   -0.55451E-03  7072   0.135E-01 0.246E-05
CGA:  21    -0.354483908868E+03   -0.56592E-03   -0.56591E-03  7072   0.743E-02-0.723E-05
CGA:  22    -0.354484236787E+03   -0.32792E-03   -0.32793E-03  7072   0.668E-02 0.247E-05
CGA:  23    -0.354484428750E+03   -0.19196E-03   -0.19234E-03  7072   0.412E-02 0.491E-05
CGA:  24    -0.354484734502E+03   -0.30575E-03   -0.30560E-03  7072   0.483E-02 0.454E-05
CGA:  25    -0.354484908226E+03   -0.17372E-03   -0.17375E-03  7072   0.477E-02-0.111E-06
CGA:  26    -0.354485087843E+03   -0.17962E-03   -0.17983E-03  7072   0.215E-02 0.112E-04
CGA:  27    -0.354485191077E+03   -0.10323E-03   -0.10323E-03  7072   0.194E-02 0.119E-05
CGA:  28    -0.354485248481E+03   -0.57404E-04   -0.57380E-04  7072   0.132E-02-0.219E-05
CGA:  29    -0.354485323427E+03   -0.74946E-04   -0.74878E-04  7072   0.120E-02 0.535E-05
CGA:  30    -0.354485375433E+03   -0.52006E-04   -0.52018E-04  7072   0.112E-02 0.488E-05
CGA:  31    -0.354485407227E+03   -0.31795E-04   -0.31776E-04  7072   0.494E-03-0.583E-06
SDA:  32    -0.354485433595E+03   -0.26368E-04   -0.26368E-04  7072   0.376E-03-0.472E-07
CGA:  33    -0.354485442737E+03   -0.91416E-05   -0.91650E-05  7072   0.175E-03 0.951E-06
CGA:  34    -0.354485454047E+03   -0.11310E-04   -0.11322E-04  7072   0.299E-03-0.701E-06
CGA:  35    -0.354485481105E+03   -0.27058E-04   -0.27050E-04  7072   0.317E-03 0.900E-07
CGA:  36    -0.354485496611E+03   -0.15506E-04   -0.15508E-04  7072   0.133E-03-0.107E-05
CGA:  37    -0.354485509768E+03   -0.13156E-04   -0.13133E-04  7072   0.139E-03 0.362E-06
CGA:  38    -0.354485518383E+03   -0.86155E-05   -0.86140E-05  7072   0.198E-03 0.216E-07
  13 F= -.35448552E+03 E0= -.35446675E+03  d E =-.425496E-01  mag=     4.5698
       N       E                     dE             d eps       ncg     rms          ort
SDA:   1    -0.353695190304E+03    0.79032E+00    0.00000E+00  7072   0.271E+01 0.000E+00
CGA:   2    -0.353919092657E+03   -0.22390E+00   -0.22474E+00  7072   0.733E+01-0.161E-01
CGA:   3    -0.354213263348E+03   -0.29417E+00   -0.29437E+00  7072   0.326E+01-0.148E-02
CGA:   4    -0.354335124124E+03   -0.12186E+00   -0.12124E+00  7072   0.853E+00-0.226E-01
CGA:   5    -0.354436551302E+03   -0.10143E+00   -0.10112E+00  7072   0.103E+01 0.524E-02
CGA:   6    -0.354475184863E+03   -0.38634E-01   -0.38257E-01  7072   0.248E+00-0.968E-03
CGA:   7    -0.354490698508E+03   -0.15514E-01   -0.15505E-01  7072   0.172E+00 0.640E-03
CGA:   8    -0.354495907335E+03   -0.52088E-02   -0.52203E-02  7072   0.115E+00-0.146E-03
CGA:   9    -0.354502093882E+03   -0.61865E-02   -0.61856E-02  7072   0.511E-01 0.353E-03
CGA:  10    -0.354505618509E+03   -0.35246E-02   -0.35236E-02  7072   0.156E-01 0.470E-04
CGA:  11    -0.354506598769E+03   -0.98026E-03   -0.98101E-03  7072   0.170E-01-0.533E-04
CGA:  12    -0.354507833096E+03   -0.12343E-02   -0.12348E-02  7072   0.105E-01-0.191E-04
CGA:  13    -0.354508268914E+03   -0.43582E-03   -0.43578E-03  7072   0.769E-02-0.427E-05
CGA:  14    -0.354508549918E+03   -0.28100E-03   -0.28154E-03  7072   0.577E-02 0.249E-05
CGA:  15    -0.354508897298E+03   -0.34738E-03   -0.34747E-03  7072   0.258E-02-0.117E-04
CGA:  16    -0.354509265557E+03   -0.36826E-03   -0.36836E-03  7072   0.392E-02-0.653E-06
CGA:  17    -0.354509476876E+03   -0.21132E-03   -0.21132E-03  7072   0.158E-02 0.304E-06
CGA:  18    -0.354509566842E+03   -0.89966E-04   -0.89968E-04  7072   0.221E-02 0.256E-05
CGA:  19    -0.354509696506E+03   -0.12966E-03   -0.12966E-03  7072   0.292E-02-0.409E-06
CGA:  20    -0.354509806652E+03   -0.11015E-03   -0.11032E-03  7072   0.111E-02 0.350E-05
CGA:  21    -0.354509894724E+03   -0.88072E-04   -0.88047E-04  7072   0.732E-03 0.110E-05
CGA:  22    -0.354509943585E+03   -0.48861E-04   -0.48843E-04  7072   0.403E-03 0.186E-05
CGA:  23    -0.354509987422E+03   -0.43837E-04   -0.43930E-04  7072   0.745E-03-0.184E-05
CGA:  24    -0.354510007525E+03   -0.20103E-04   -0.20150E-04  7072   0.222E-03 0.950E-06
CGA:  25    -0.354510016463E+03   -0.89379E-05   -0.89500E-05  7072   0.161E-03 0.588E-06
CGA:  26    -0.354510029441E+03   -0.12978E-04   -0.12936E-04  7072   0.131E-03 0.190E-05
CGA:  27    -0.354510039189E+03   -0.97481E-05   -0.97471E-05  7072   0.736E-04 0.835E-07
  14 F= -.35451004E+03 E0= -.35449116E+03  d E =-.245208E-01  mag=     4.5955
       N       E                     dE             d eps       ncg     rms          ort
SDA:   1    -0.352027973076E+03    0.24821E+01    0.00000E+00  7072   0.705E+01 0.000E+00
CGA:   2    -0.353203041499E+03   -0.11751E+01   -0.11773E+01  7072   0.196E+02 0.826E-02
CGA:   3    -0.353936585089E+03   -0.73354E+00   -0.71308E+00  7072   0.320E+01 0.113E+00
CGA:   4    -0.354169865594E+03   -0.23328E+00   -0.23212E+00  7072   0.364E+01 0.948E-01
CGA:   5    -0.354354635388E+03   -0.18477E+00   -0.18434E+00  7072   0.365E+01-0.816E-02
CGA:   6    -0.354454181588E+03   -0.99546E-01   -0.10044E+00  7072   0.458E+00-0.290E-01
CGA:   7    -0.354495197135E+03   -0.41016E-01   -0.41374E-01  7072   0.289E+00-0.105E-01
CGA:   8    -0.354510686934E+03   -0.15490E-01   -0.15483E-01  7072   0.170E+00-0.249E-03
CGA:   9    -0.354518911715E+03   -0.82248E-02   -0.82485E-02  7072   0.177E+00 0.342E-03
CGA:  10    -0.354525097734E+03   -0.61860E-02   -0.61663E-02  7072   0.670E-01 0.194E-03
CGA:  11    -0.354527307410E+03   -0.22097E-02   -0.22289E-02  7072   0.240E-01-0.224E-03
CGA:  12    -0.354530246347E+03   -0.29389E-02   -0.29341E-02  7072   0.211E-01 0.794E-04
CGA:  13    -0.354531357690E+03   -0.11113E-02   -0.11107E-02  7072   0.105E-01-0.271E-04
CGA:  14    -0.354531909778E+03   -0.55209E-03   -0.55211E-03  7072   0.134E-01 0.204E-05
CGA:  15    -0.354532360238E+03   -0.45046E-03   -0.45000E-03  7072   0.540E-02-0.375E-05
CGA:  16    -0.354532798008E+03   -0.43777E-03   -0.43773E-03  7072   0.769E-02 0.137E-05
CGA:  17    -0.354533268137E+03   -0.47013E-03   -0.47013E-03  7072   0.352E-02 0.352E-05
CGA:  18    -0.354533486148E+03   -0.21801E-03   -0.21801E-03  7072   0.238E-02 0.527E-05
CGA:  19    -0.354533772802E+03   -0.28665E-03   -0.28598E-03  7072   0.384E-02 0.116E-04
CGA:  20    -0.354533899583E+03   -0.12678E-03   -0.12670E-03  7072   0.307E-02-0.652E-06
CGA:  21    -0.354534076594E+03   -0.17701E-03   -0.17705E-03  7072   0.152E-02 0.381E-05
CGA:  22    -0.354534148076E+03   -0.71482E-04   -0.71475E-04  7072   0.879E-03-0.143E-06
CGA:  23    -0.354534226865E+03   -0.78789E-04   -0.78781E-04  7072   0.109E-02 0.244E-06
CGA:  24    -0.354534294403E+03   -0.67538E-04   -0.67540E-04  7072   0.308E-03 0.203E-05
CGA:  25    -0.354534308075E+03   -0.13672E-04   -0.13654E-04  7072   0.477E-03-0.982E-06
CGA:  26    -0.354534336367E+03   -0.28291E-04   -0.28293E-04  7072   0.230E-03 0.688E-06
CGA:  27    -0.354534349237E+03   -0.12870E-04   -0.12873E-04  7072   0.168E-03 0.625E-06
CGA:  28    -0.354534361989E+03   -0.12752E-04   -0.12736E-04  7072   0.149E-03 0.116E-05
CGA:  29    -0.354534369863E+03   -0.78742E-05   -0.78838E-05  7072   0.578E-04 0.955E-06
  15 F= -.35453437E+03 E0= -.35451535E+03  d E =-.243307E-01  mag=     4.6209
       N       E                     dE             d eps       ncg     rms          ort
SDA:   1    -0.333422096345E+03    0.21112E+02    0.00000E+00  7072   0.615E+02 0.000E+00
CGA:   2    -0.342214516219E+03   -0.87924E+01   -0.78617E+01  7072   0.751E+02 0.143E+02
CGA:   3    -0.348061830918E+03   -0.58473E+01   -0.47401E+01  7072   0.719E+02-0.171E+02
CGA:   4    -0.350526865808E+03   -0.24650E+01   -0.25057E+01  7072   0.433E+02 0.821E+00
CGA:   5    -0.352151225097E+03   -0.16244E+01   -0.12620E+01  7072   0.277E+02 0.822E+01
CGA:   6    -0.352893621852E+03   -0.74240E+00   -0.65601E+00  7072   0.136E+02 0.165E+01
CGA:   7    -0.353265770041E+03   -0.37215E+00   -0.34971E+00  7072   0.161E+02 0.575E+00
CGA:   8    -0.353704792724E+03   -0.43902E+00   -0.44977E+00  7072   0.165E+02-0.320E+00
CGA:   9    -0.354072085183E+03   -0.36729E+00   -0.38581E+00  7072   0.127E+02-0.492E+00
CGA:  10    -0.354249376859E+03   -0.17729E+00   -0.18287E+00  7072   0.309E+01-0.447E+00
CGA:  11    -0.354298434834E+03   -0.49058E-01   -0.47727E-01  7072   0.183E+01 0.550E-01
CGA:  12    -0.354341221842E+03   -0.42787E-01   -0.42291E-01  7072   0.149E+01 0.115E-01
CGA:  13    -0.354374776397E+03   -0.33555E-01   -0.33665E-01  7072   0.181E+01-0.399E-02
CGA:  14    -0.354439220756E+03   -0.64444E-01   -0.65813E-01  7072   0.228E+01 0.178E-01
CGA:  15    -0.354475098422E+03   -0.35878E-01   -0.37110E-01  7072   0.709E+00-0.581E-01
CGA:  16    -0.354491124251E+03   -0.16026E-01   -0.15876E-01  7072   0.479E+00 0.298E-02
CGA:  17    -0.354499778158E+03   -0.86539E-02   -0.88144E-02  7072   0.187E+00-0.566E-02
CGA:  18    -0.354506316831E+03   -0.65387E-02   -0.65563E-02  7072   0.383E+00 0.495E-03
CGA:  19    -0.354521306492E+03   -0.14990E-01   -0.15014E-01  7072   0.251E+00 0.183E-02
CGA:  20    -0.354525872909E+03   -0.45664E-02   -0.45941E-02  7072   0.124E+00-0.114E-02
CGA:  21    -0.354529776647E+03   -0.39037E-02   -0.39155E-02  7072   0.884E-01 0.145E-03
CGA:  22    -0.354531809061E+03   -0.20324E-02   -0.20422E-02  7072   0.663E-01-0.165E-03
CGA:  23    -0.354534797606E+03   -0.29885E-02   -0.29871E-02  7072   0.925E-01 0.203E-03
CGA:  24    -0.354537409709E+03   -0.26121E-02   -0.26032E-02  7072   0.699E-01-0.358E-04
CGA:  25    -0.354539299833E+03   -0.18901E-02   -0.19021E-02  7072   0.404E-01 0.330E-04
CGA:  26    -0.354540511385E+03   -0.12116E-02   -0.12171E-02  7072   0.412E-01 0.126E-03
CGA:  27    -0.354541744113E+03   -0.12327E-02   -0.12359E-02  7072   0.184E-01 0.792E-04
CGA:  28    -0.354542321760E+03   -0.57765E-03   -0.57773E-03  7072   0.245E-01 0.527E-05
CGA:  29    -0.354543436569E+03   -0.11148E-02   -0.11138E-02  7072   0.227E-01 0.104E-03
CGA:  30    -0.354544100843E+03   -0.66427E-03   -0.66644E-03  7072   0.252E-01 0.630E-04
CGA:  31    -0.354545176093E+03   -0.10753E-02   -0.10749E-02  7072   0.149E-01 0.634E-04
SDA:  32    -0.354545496585E+03   -0.32049E-03   -0.32062E-03  7072   0.932E-02-0.466E-05
CGA:  33    -0.354545761653E+03   -0.26507E-03   -0.26522E-03  7072   0.531E-02 0.632E-05
CGA:  34    -0.354546007580E+03   -0.24593E-03   -0.24609E-03  7072   0.513E-02-0.149E-04
CGA:  35    -0.354546522378E+03   -0.51480E-03   -0.51365E-03  7072   0.349E-02 0.193E-04
CGA:  36    -0.354546776510E+03   -0.25413E-03   -0.25389E-03  7072   0.337E-02 0.774E-05
CGA:  37    -0.354546939662E+03   -0.16315E-03   -0.16313E-03  7072   0.174E-02 0.435E-05
CGA:  38    -0.354547057158E+03   -0.11750E-03   -0.11720E-03  7072   0.314E-02 0.117E-04
CGA:  39    -0.354547181906E+03   -0.12475E-03   -0.12477E-03  7072   0.170E-02 0.502E-05
CGA:  40    -0.354547271556E+03   -0.89650E-04   -0.89553E-04  7072   0.894E-03 0.960E-05
CGA:  41    -0.354547379671E+03   -0.10812E-03   -0.10751E-03  7072   0.743E-03 0.775E-05
CGA:  42    -0.354547449820E+03   -0.70149E-04   -0.70099E-04  7072   0.118E-02 0.105E-05
CGA:  43    -0.354547512868E+03   -0.63048E-04   -0.63053E-04  7072   0.127E-02-0.155E-05
CGA:  44    -0.354547554041E+03   -0.41173E-04   -0.41223E-04  7072   0.416E-03 0.167E-05
CGA:  45    -0.354547575721E+03   -0.21680E-04   -0.21681E-04  7072   0.405E-03-0.454E-06
CGA:  46    -0.354547616797E+03   -0.41076E-04   -0.41042E-04  7072   0.375E-03 0.597E-06
CGA:  47    -0.354547643700E+03   -0.26903E-04   -0.26917E-04  7072   0.236E-03-0.820E-06
CGA:  48    -0.354547664112E+03   -0.20412E-04   -0.20486E-04  7072   0.876E-04-0.224E-05
CGA:  49    -0.354547668271E+03   -0.41584E-05   -0.41626E-05  7072   0.163E-03 0.557E-06
CGA:  50    -0.354547682294E+03   -0.14023E-04   -0.14013E-04  7072   0.105E-03 0.289E-06
CGA:  51    -0.354547685565E+03   -0.32705E-05   -0.32771E-05  7072   0.313E-04 0.197E-06
  16 F= -.35454769E+03 E0= -.35452889E+03  d E =-.133157E-01  mag=     4.6584
       N       E                     dE             d eps       ncg     rms          ort
SDA:   1    -0.290515839060E+03    0.64032E+02    0.00000E+00  7072   0.267E+03 0.000E+00
CGA:   2    -0.317601567015E+03   -0.27086E+02   -0.26536E+02  7072   0.360E+03 0.215E+02
CGA:   3    -0.330608531642E+03   -0.13007E+02   -0.10665E+02  7072   0.101E+03-0.379E+01
CGA:   4    -0.336834728659E+03   -0.62262E+01   -0.67515E+01  7072   0.273E+03-0.371E+02
CGA:   5    -0.341071762388E+03   -0.42370E+01   -0.51296E+01  7072   0.345E+03-0.182E+02
CGA:   6    -0.342354920980E+03   -0.12832E+01   -0.64758E+01  7072   0.200E+03-0.215E+03
CGA:   7    -0.346288823589E+03   -0.39339E+01   -0.24198E+01  7072   0.460E+02 0.763E+02
CGA:   8    -0.347284908892E+03   -0.99609E+00   -0.82625E+00  7072   0.535E+02 0.708E+01
CGA:   9    -0.348068195033E+03   -0.78329E+00   -0.10761E+01  7072   0.117E+03-0.147E+02
CGA:  10    -0.348551538875E+03   -0.48334E+00   -0.72186E+00  7072   0.840E+02-0.177E+02
CGA:  11    -0.348914964886E+03   -0.36343E+00   -0.66160E+00  7072   0.653E+02-0.276E+02
CGA:  12    -0.349370408542E+03   -0.45544E+00   -0.47540E+00  7072   0.706E+02-0.157E+01
CGA:  13    -0.349973858187E+03   -0.60345E+00   -0.45432E+00  7072   0.429E+02 0.214E+02
CGA:  14    -0.350397769324E+03   -0.42391E+00   -0.31732E+00  7072   0.245E+02 0.160E+02
CGA:  15    -0.350634245017E+03   -0.23648E+00   -0.19937E+00  7072   0.217E+02 0.432E+01
CGA:  16    -0.350784478637E+03   -0.15023E+00   -0.16046E+00  7072   0.290E+02-0.212E+01
CGA:  17    -0.350890292281E+03   -0.10581E+00   -0.14742E+00  7072   0.369E+02-0.711E+01
CGA:  18    -0.350931227685E+03   -0.40935E-01   -0.16365E+00  7072   0.368E+02-0.189E+02
CGA:  19    -0.351584763376E+03   -0.65354E+00   -0.69544E+00  7072   0.781E+01-0.109E+01
CGA:  20    -0.351777654811E+03   -0.19289E+00   -0.18616E+00  7072   0.432E+01-0.112E+00
CGA:  21    -0.351900043066E+03   -0.12239E+00   -0.12383E+00  7072   0.386E+01 0.135E+00
CGA:  22    -0.352044516650E+03   -0.14447E+00   -0.14521E+00  7072   0.294E+01-0.122E+00
CGA:  23    -0.352153741745E+03   -0.10923E+00   -0.10816E+00  7072   0.116E+01 0.133E+00
CGA:  24    -0.352243811967E+03   -0.90070E-01   -0.82613E-01  7072   0.132E+01 0.206E+00
CGA:  25    -0.352282396962E+03   -0.38585E-01   -0.38088E-01  7072   0.107E+01-0.561E-02
CGA:  26    -0.352345099247E+03   -0.62702E-01   -0.59343E-01  7072   0.861E+00 0.128E+00
CGA:  27    -0.352378542788E+03   -0.33444E-01   -0.33519E-01  7072   0.541E+00 0.504E-01
CGA:  28    -0.352397211345E+03   -0.18669E-01   -0.18608E-01  7072   0.473E+00-0.906E-02
CGA:  29    -0.352435079791E+03   -0.37868E-01   -0.35805E-01  7072   0.436E+00 0.461E-01
CGA:  30    -0.352454350723E+03   -0.19271E-01   -0.19208E-01  7072   0.270E+00 0.132E-01
CGA:  31    -0.352463587767E+03   -0.92370E-02   -0.92401E-02  7072   0.154E+00 0.346E-03
CGA:  32    -0.352470009914E+03   -0.64221E-02   -0.64052E-02  7072   0.815E-01 0.245E-02
CGA:  33    -0.352475572172E+03   -0.55623E-02   -0.55138E-02  7072   0.557E-01 0.154E-02
CGA:  34    -0.352479924310E+03   -0.43521E-02   -0.43578E-02  7072   0.711E-01-0.160E-03
CGA:  35    -0.352481996348E+03   -0.20720E-02   -0.20725E-02  7072   0.366E-01-0.258E-04
CGA:  36    -0.352484604691E+03   -0.26083E-02   -0.26119E-02  7072   0.329E-01-0.120E-03
CGA:  37    -0.352486589723E+03   -0.19850E-02   -0.19865E-02  7072   0.211E-01-0.674E-04
CGA:  38    -0.352487612253E+03   -0.10225E-02   -0.10220E-02  7072   0.210E-01 0.388E-04
CGA:  39    -0.352488458086E+03   -0.84583E-03   -0.84534E-03  7072   0.166E-01-0.923E-04
CGA:  40    -0.352489365161E+03   -0.90707E-03   -0.90707E-03  7072   0.840E-02-0.854E-05
CGA:  41    -0.352489966054E+03   -0.60089E-03   -0.60002E-03  7072   0.638E-02 0.232E-04
CGA:  42    -0.352490198057E+03   -0.23200E-03   -0.23191E-03  7072   0.570E-02-0.162E-04
CGA:  43    -0.352490491948E+03   -0.29389E-03   -0.29418E-03  7072   0.401E-02-0.318E-04
CGA:  44    -0.352490807005E+03   -0.31506E-03   -0.31568E-03  7072   0.289E-02-0.184E-04
CGA:  45    -0.352490940399E+03   -0.13339E-03   -0.13339E-03  7072   0.206E-02-0.372E-05
CGA:  46    -0.352491033816E+03   -0.93417E-04   -0.93419E-04  7072   0.270E-02 0.354E-05
CGA:  47    -0.352491200864E+03   -0.16705E-03   -0.16733E-03  7072   0.172E-02-0.128E-04
CGA:  48    -0.352491291787E+03   -0.90922E-04   -0.90893E-04  7072   0.116E-02 0.548E-05
SDA:  49    -0.352491368952E+03   -0.77165E-04   -0.77207E-04  7072   0.149E-02-0.346E-06
CGA:  50    -0.352491396977E+03   -0.28025E-04   -0.27934E-04  7072   0.380E-03-0.807E-06
CGA:  51    -0.352491429234E+03   -0.32257E-04   -0.32230E-04  7072   0.453E-03 0.381E-06
CGA:  52    -0.352491474046E+03   -0.44812E-04   -0.44634E-04  7072   0.413E-03 0.320E-05
CGA:  53    -0.352491510148E+03   -0.36101E-04   -0.35998E-04  7072   0.594E-03 0.253E-05
CGA:  54    -0.352491542094E+03   -0.31946E-04   -0.31945E-04  7072   0.335E-03 0.136E-05
CGA:  55    -0.352491555549E+03   -0.13456E-04   -0.13493E-04  7072   0.335E-03 0.237E-05
CGA:  56    -0.352491571680E+03   -0.16131E-04   -0.16135E-04  7072   0.153E-03 0.139E-05
CGA:  57    -0.352491583677E+03   -0.11997E-04   -0.11938E-04  7072   0.171E-03 0.203E-05
CGA:  58    -0.352491601167E+03   -0.17490E-04   -0.17391E-04  7072   0.622E-04 0.182E-05
CGA:  59    -0.352491606201E+03   -0.50348E-05   -0.50203E-05  7072   0.734E-04 0.351E-06
  17 F= -.35249161E+03 E0= -.35247292E+03  d E =0.205608E+01  mag=     4.6431
       N       E                     dE             d eps       ncg     rms          ort
SDA:   1    -0.329595951437E+03    0.22896E+02    0.00000E+00  7072   0.128E+03 0.000E+00
CGA:   2    -0.334453523476E+03   -0.48576E+01   -0.50952E+01  7072   0.183E+03-0.431E+01
CGA:   3    -0.345615570927E+03   -0.11162E+02   -0.11363E+02  7072   0.448E+02-0.270E+02
CGA:   4    -0.347694589095E+03   -0.20790E+01   -0.20736E+01  7072   0.813E+02-0.368E+00
CGA:   5    -0.351231795775E+03   -0.35372E+01   -0.32932E+01  7072   0.510E+02 0.213E+00
CGA:   6    -0.352580004041E+03   -0.13482E+01   -0.13927E+01  7072   0.191E+02-0.388E+00
CGA:   7    -0.353130215533E+03   -0.55021E+00   -0.54010E+00  7072   0.115E+02 0.241E+00
CGA:   8    -0.353537220073E+03   -0.40700E+00   -0.42123E+00  7072   0.828E+01-0.182E-02
CGA:   9    -0.353810812554E+03   -0.27359E+00   -0.27001E+00  7072   0.511E+01 0.101E-01
CGA:  10    -0.353963729279E+03   -0.15292E+00   -0.16014E+00  7072   0.350E+01-0.619E-01
CGA:  11    -0.354105797319E+03   -0.14207E+00   -0.14189E+00  7072   0.242E+01-0.583E-02
CGA:  12    -0.354172966813E+03   -0.67169E-01   -0.71770E-01  7072   0.107E+01-0.372E-01
CGA:  13    -0.354216040991E+03   -0.43074E-01   -0.43030E-01  7072   0.110E+01-0.149E-02
CGA:  14    -0.354273694933E+03   -0.57654E-01   -0.57380E-01  7072   0.813E+00 0.633E-01
CGA:  15    -0.354297976824E+03   -0.24282E-01   -0.23995E-01  7072   0.366E+00 0.313E-02
CGA:  16    -0.354317635689E+03   -0.19659E-01   -0.19534E-01  7072   0.363E+00 0.170E-01
CGA:  17    -0.354330593393E+03   -0.12958E-01   -0.12821E-01  7072   0.188E+00-0.439E-03
CGA:  18    -0.354339348563E+03   -0.87552E-02   -0.87792E-02  7072   0.142E+00 0.641E-02
CGA:  19    -0.354345439497E+03   -0.60909E-02   -0.60679E-02  7072   0.128E+00-0.106E-02
CGA:  20    -0.354353196641E+03   -0.77571E-02   -0.76018E-02  7072   0.794E-01 0.911E-02
CGA:  21    -0.354355933176E+03   -0.27365E-02   -0.27263E-02  7072   0.515E-01 0.219E-04
CGA:  22    -0.354359839691E+03   -0.39065E-02   -0.38040E-02  7072   0.482E-01 0.328E-02
CGA:  23    -0.354361612017E+03   -0.17723E-02   -0.17662E-02  7072   0.270E-01-0.274E-04
CGA:  24    -0.354363052186E+03   -0.14402E-02   -0.14361E-02  7072   0.235E-01 0.471E-03
CGA:  25    -0.354364366948E+03   -0.13148E-02   -0.13165E-02  7072   0.226E-01-0.171E-03
CGA:  26    -0.354365276779E+03   -0.90983E-03   -0.91258E-03  7072   0.108E-01 0.823E-04
CGA:  27    -0.354365793905E+03   -0.51713E-03   -0.51711E-03  7072   0.945E-02-0.204E-04
CGA:  28    -0.354366382439E+03   -0.58853E-03   -0.58777E-03  7072   0.109E-01 0.332E-04
CGA:  29    -0.354366832690E+03   -0.45025E-03   -0.45028E-03  7072   0.450E-02-0.393E-05
CGA:  30    -0.354367059143E+03   -0.22645E-03   -0.22647E-03  7072   0.468E-02-0.114E-04
CGA:  31    -0.354367314852E+03   -0.25571E-03   -0.25572E-03  7072   0.429E-02-0.345E-05
SDA:  32    -0.354367559410E+03   -0.24456E-03   -0.24454E-03  7072   0.293E-02-0.266E-05
CGA:  33    -0.354367610781E+03   -0.51371E-04   -0.51438E-04  7072   0.700E-03 0.347E-05
CGA:  34    -0.354367765628E+03   -0.15485E-03   -0.19782E-08  7072   0.319E-02-0.214E-03
CGA:  35    -0.354367844846E+03   -0.79218E-04   -0.79249E-04  7072   0.162E-02 0.383E-05
CGA:  36    -0.354367921220E+03   -0.76374E-04   -0.76500E-04  7072   0.143E-02 0.412E-06
CGA:  37    -0.354367979618E+03   -0.58397E-04   -0.58511E-04  7072   0.806E-03-0.240E-05
CGA:  38    -0.354368010815E+03   -0.31197E-04   -0.31219E-04  7072   0.535E-03-0.407E-06
CGA:  39    -0.354368049996E+03   -0.39181E-04   -0.39171E-04  7072   0.120E-02-0.794E-06
CGA:  40    -0.354368125141E+03   -0.75146E-04   -0.75084E-04  7072   0.658E-03 0.107E-05
CGA:  41    -0.354368144192E+03   -0.19051E-04   -0.19151E-04  7072   0.276E-03-0.101E-05
CGA:  42    -0.354368162986E+03   -0.18794E-04   -0.18794E-04  7072   0.462E-03-0.664E-06
CGA:  43    -0.354368188817E+03   -0.25831E-04   -0.25829E-04  7072   0.408E-03-0.104E-05
CGA:  44    -0.354368204037E+03   -0.15220E-04   -0.15189E-04  7072   0.229E-03-0.123E-05
CGA:  45    -0.354368216342E+03   -0.12305E-04   -0.12320E-04  7072   0.194E-03-0.337E-07
CGA:  46    -0.354368224241E+03   -0.78995E-05   -0.79192E-05  7072   0.141E-03 0.149E-06
CGA:  47    -0.354368235659E+03   -0.11418E-04   -0.11415E-04  7072   0.225E-03-0.446E-06
CGA:  48    -0.354368245119E+03   -0.94600E-05   -0.94565E-05  7072   0.136E-03-0.893E-06
  18 F= -.35436825E+03 E0= -.35434939E+03  d E =-.187664E+01  mag=     4.6594
       N       E                     dE             d eps       ncg     rms          ort
SDA:   1    -0.351956695717E+03    0.24115E+01    0.00000E+00  7072   0.117E+02 0.000E+00
CGA:   2    -0.352626283127E+03   -0.66959E+00   -0.66987E+00  7072   0.211E+02 0.740E-02
CGA:   3    -0.353437829976E+03   -0.81155E+00   -0.81920E+00  7072   0.644E+01-0.163E+00
CGA:   4    -0.353796680405E+03   -0.35885E+00   -0.36126E+00  7072   0.604E+01 0.916E-01
CGA:   5    -0.354197504438E+03   -0.40082E+00   -0.40080E+00  7072   0.289E+01 0.302E-01
CGA:   6    -0.354363115250E+03   -0.16561E+00   -0.16025E+00  7072   0.258E+01-0.172E+00
CGA:   7    -0.354444626686E+03   -0.81511E-01   -0.82089E-01  7072   0.151E+01-0.117E-01
CGA:   8    -0.354498098514E+03   -0.53472E-01   -0.54380E-01  7072   0.268E+00-0.894E-02
CGA:   9    -0.354513940030E+03   -0.15842E-01   -0.15845E-01  7072   0.355E+00 0.841E-03
CGA:  10    -0.354529145125E+03   -0.15205E-01   -0.15200E-01  7072   0.290E+00 0.414E-04
CGA:  11    -0.354538433345E+03   -0.92882E-02   -0.93175E-02  7072   0.716E-01-0.441E-03
CGA:  12    -0.354542195342E+03   -0.37620E-02   -0.37615E-02  7072   0.563E-01-0.168E-04
CGA:  13    -0.354545611141E+03   -0.34158E-02   -0.34155E-02  7072   0.755E-01 0.995E-04
CGA:  14    -0.354547952330E+03   -0.23412E-02   -0.23398E-02  7072   0.316E-01 0.865E-05
CGA:  15    -0.354549550055E+03   -0.15977E-02   -0.15980E-02  7072   0.127E-01 0.149E-04
CGA:  16    -0.354550239898E+03   -0.68984E-03   -0.68996E-03  7072   0.105E-01 0.165E-04
CGA:  17    -0.354550607454E+03   -0.36756E-03   -0.36757E-03  7072   0.926E-02-0.612E-05
CGA:  18    -0.354551243408E+03   -0.63595E-03   -0.63559E-03  7072   0.772E-02 0.228E-04
CGA:  19    -0.354551534600E+03   -0.29119E-03   -0.29141E-03  7072   0.196E-02 0.319E-05
CGA:  20    -0.354551673757E+03   -0.13916E-03   -0.13917E-03  7072   0.384E-02-0.952E-06
CGA:  21    -0.354551803842E+03   -0.13008E-03   -0.13031E-03  7072   0.161E-02 0.421E-05
CGA:  22    -0.354551914478E+03   -0.11064E-03   -0.11059E-03  7072   0.139E-02 0.315E-05
CGA:  23    -0.354551995569E+03   -0.81090E-04   -0.81084E-04  7072   0.105E-02 0.279E-05
CGA:  24    -0.354552029383E+03   -0.33815E-04   -0.33917E-04  7072   0.577E-03 0.241E-05
CGA:  25    -0.354552054882E+03   -0.25498E-04   -0.25497E-04  7072   0.529E-03-0.243E-06
CGA:  26    -0.354552107226E+03   -0.52344E-04   -0.52245E-04  7072   0.345E-03 0.220E-05
CGA:  27    -0.354552123455E+03   -0.16230E-04   -0.16250E-04  7072   0.292E-03 0.153E-05
CGA:  28    -0.354552133922E+03   -0.10467E-04   -0.10453E-04  7072   0.214E-03-0.745E-06
CGA:  29    -0.354552147584E+03   -0.13662E-04   -0.13662E-04  7072   0.162E-03-0.348E-07
CGA:  30    -0.354552156638E+03   -0.90546E-05   -0.90547E-05  7072   0.132E-03-0.721E-06
  19 F= -.35455216E+03 E0= -.35453341E+03  d E =-.183912E+00  mag=     4.6528
       N       E                     dE             d eps       ncg     rms          ort
[...]
CGA:   3    -0.347755129018E+03   -0.64341E+01   -0.46885E+01  7072   0.547E+02 0.514E+02
CGA:   4    -0.349560194264E+03   -0.18051E+01   -0.21070E+01  7072   0.537E+02-0.187E+02
CGA:   5    -0.350924525532E+03   -0.13643E+01   -0.14669E+01  7072   0.693E+02 0.333E+00
CGA:   6    -0.352147734559E+03   -0.12232E+01   -0.78196E+00  7072   0.416E+02 0.327E+02
CGA:   7    -0.352885157578E+03   -0.73742E+00   -0.50941E+00  7072   0.283E+02 0.226E+02
CGA:   8    -0.353431511569E+03   -0.54635E+00   -0.71845E+00  7072   0.140E+02-0.445E+01
CGA:   9    -0.353652800272E+03   -0.22129E+00   -0.19234E+00  7072   0.406E+01 0.127E+01
CGA:  10    -0.353852955364E+03   -0.20016E+00   -0.20055E+00  7072   0.105E+02-0.344E-02
CGA:  11    -0.354164749147E+03   -0.31179E+00   -0.33921E+00  7072   0.810E+01-0.142E+00
CGA:  12    -0.354367513617E+03   -0.20276E+00   -0.22896E+00  7072   0.503E+01-0.378E+00
CGA:  13    -0.354473589806E+03   -0.10608E+00   -0.11150E+00  7072   0.102E+01-0.139E+00
CGA:  14    -0.354513649209E+03   -0.40059E-01   -0.40195E-01  7072   0.142E+01 0.235E-02
CGA:  15    -0.354579557345E+03   -0.65908E-01   -0.65446E-01  7072   0.130E+01-0.243E-01
CGA:  16    -0.354629236842E+03   -0.49679E-01   -0.50595E-01  7072   0.100E+01 0.150E-01
CGA:  17    -0.354656409570E+03   -0.27173E-01   -0.27834E-01  7072   0.264E+00-0.101E-01
CGA:  18    -0.354669180444E+03   -0.12771E-01   -0.12784E-01  7072   0.155E+00 0.492E-02
CGA:  19    -0.354673853211E+03   -0.46728E-02   -0.46497E-02  7072   0.564E-01 0.247E-03
CGA:  20    -0.354679232907E+03   -0.53797E-02   -0.53631E-02  7072   0.838E-01 0.352E-03
CGA:  21    -0.354682629086E+03   -0.33962E-02   -0.34129E-02  7072   0.502E-01 0.329E-03
CGA:  22    -0.354684332802E+03   -0.17037E-02   -0.16968E-02  7072   0.196E-01-0.268E-04
CGA:  23    -0.354685294918E+03   -0.96212E-03   -0.96227E-03  7072   0.234E-01 0.916E-04
CGA:  24    -0.354686610964E+03   -0.13160E-02   -0.13146E-02  7072   0.165E-01 0.152E-03
CGA:  25    -0.354687791037E+03   -0.11801E-02   -0.11762E-02  7072   0.144E-01 0.152E-03
CGA:  26    -0.354688435451E+03   -0.64441E-03   -0.64438E-03  7072   0.100E-01 0.124E-04
CGA:  27    -0.354689034477E+03   -0.59903E-03   -0.59807E-03  7072   0.607E-02 0.767E-04
CGA:  28    -0.354689488321E+03   -0.45384E-03   -0.45311E-03  7072   0.817E-02 0.258E-04
CGA:  29    -0.354689775864E+03   -0.28754E-03   -0.28808E-03  7072   0.272E-02 0.601E-05
CGA:  30    -0.354689903975E+03   -0.12811E-03   -0.12808E-03  7072   0.284E-02-0.169E-05
CGA:  31    -0.354690025265E+03   -0.12129E-03   -0.12139E-03  7072   0.161E-02 0.970E-05
CGA:  32    -0.354690121048E+03   -0.95783E-04   -0.95709E-04  7072   0.115E-02 0.922E-05
CGA:  33    -0.354690187870E+03   -0.66822E-04   -0.66727E-04  7072   0.141E-02 0.144E-04
CGA:  34    -0.354690276145E+03   -0.88275E-04   -0.88070E-04  7072   0.474E-03 0.199E-04
CGA:  35    -0.354690299114E+03   -0.22969E-04   -0.22993E-04  7072   0.411E-03 0.509E-05
CGA:  36    -0.354690322786E+03   -0.23672E-04   -0.23657E-04  7072   0.553E-03 0.291E-05
CGA:  37    -0.354690362830E+03   -0.40044E-04   -0.39944E-04  7072   0.754E-03 0.513E-05
SDA:  38    -0.354690387479E+03   -0.24649E-04   -0.24650E-04  7072   0.223E-03 0.492E-06
CGA:  39    -0.354690398026E+03   -0.10547E-04   -0.10545E-04  7072   0.177E-03-0.681E-06
CGA:  40    -0.354690406042E+03   -0.80160E-05   -0.79940E-05  7072   0.222E-03-0.329E-05
CGA:  41    -0.354690419388E+03   -0.13346E-04   -0.13396E-04  7072   0.161E-03-0.515E-05
CGA:  42    -0.354690434948E+03   -0.15560E-04   -0.15915E-04  7072   0.289E-03-0.724E-05
CGA:  43    -0.354690447823E+03   -0.12876E-04   -0.12825E-04  7072   0.814E-04-0.611E-05
CGA:  44    -0.354690456366E+03   -0.85429E-05   -0.87620E-05  7072   0.179E-03-0.397E-05
  51 F= -.35469046E+03 E0= -.35467151E+03  d E =-.389143E-01  mag=     4.6764
       N       E                     dE             d eps       ncg     rms          ort
SDA:   1    -0.330876112738E+03    0.23814E+02    0.00000E+00  7072   0.701E+02 0.000E+00
CGA:   2    -0.339448227943E+03   -0.85721E+01   -0.84964E+01  7072   0.147E+03 0.173E+01
CGA:   3    -0.347776482305E+03   -0.83283E+01   -0.74656E+01  7072   0.666E+02-0.157E+02
CGA:   4    -0.350269047142E+03   -0.24926E+01   -0.23947E+01  7072   0.336E+02 0.103E+01
CGA:   5    -0.351537375625E+03   -0.12683E+01   -0.10378E+01  7072   0.333E+02 0.415E+01
CGA:   6    -0.352793818028E+03   -0.12564E+01   -0.12336E+01  7072   0.292E+02-0.187E-01
CGA:   7    -0.353337528945E+03   -0.54371E+00   -0.58006E+00  7072   0.178E+02-0.167E+01
CGA:   8    -0.353842057386E+03   -0.50453E+00   -0.46164E+00  7072   0.129E+02 0.604E+00
CGA:   9    -0.354039538470E+03   -0.19748E+00   -0.20384E+00  7072   0.501E+01-0.443E+00
CGA:  10    -0.354187257480E+03   -0.14772E+00   -0.15500E+00  7072   0.487E+01-0.358E-01
CGA:  11    -0.354275894482E+03   -0.88637E-01   -0.97524E-01  7072   0.228E+01-0.287E+00
CGA:  12    -0.354379347649E+03   -0.10345E+00   -0.10345E+00  7072   0.287E+01-0.173E-01
CGA:  13    -0.354442294820E+03   -0.62947E-01   -0.66447E-01  7072   0.121E+01-0.762E-01
CGA:  14    -0.354483683240E+03   -0.41388E-01   -0.42102E-01  7072   0.718E+00 0.126E-01
CGA:  15    -0.354501440781E+03   -0.17758E-01   -0.17912E-01  7072   0.375E+00-0.296E-02
CGA:  16    -0.354524426341E+03   -0.22986E-01   -0.22826E-01  7072   0.409E+00 0.760E-02
CGA:  17    -0.354538744910E+03   -0.14319E-01   -0.14695E-01  7072   0.332E+00 0.659E-02
CGA:  18    -0.354551156178E+03   -0.12411E-01   -0.12462E-01  7072   0.106E+00 0.177E-02
CGA:  19    -0.354554383827E+03   -0.32276E-02   -0.32599E-02  7072   0.746E-01 0.121E-03
CGA:  20    -0.354559978700E+03   -0.55949E-02   -0.54742E-02  7072   0.565E-01 0.367E-02
CGA:  21    -0.354564775336E+03   -0.47966E-02   -0.48070E-02  7072   0.514E-01-0.270E-03
CGA:  22    -0.354566753524E+03   -0.19782E-02   -0.20138E-02  7072   0.272E-01 0.127E-02
CGA:  23    -0.354568007780E+03   -0.12543E-02   -0.12540E-02  7072   0.195E-01-0.520E-04
CGA:  24    -0.354568845163E+03   -0.83738E-03   -0.83789E-03  7072   0.213E-01 0.657E-04
CGA:  25    -0.354570413818E+03   -0.15687E-02   -0.15487E-02  7072   0.133E-01 0.646E-03
CGA:  26    -0.354571332545E+03   -0.91873E-03   -0.91956E-03  7072   0.717E-02-0.350E-04
CGA:  27    -0.354571700441E+03   -0.36790E-03   -0.36781E-03  7072   0.927E-02 0.191E-04
CGA:  28    -0.354572081184E+03   -0.38074E-03   -0.38132E-03  7072   0.530E-02 0.268E-04
CGA:  29    -0.354572556328E+03   -0.47514E-03   -0.47560E-03  7072   0.581E-02-0.111E-04
CGA:  30    -0.354572790506E+03   -0.23418E-03   -0.23478E-03  7072   0.222E-02 0.174E-04
CGA:  31    -0.354572907976E+03   -0.11747E-03   -0.11747E-03  7072   0.269E-02 0.106E-05
SDA:  32    -0.354573032444E+03   -0.12447E-03   -0.12453E-03  7072   0.240E-02 0.105E-04
CGA:  33    -0.354573095178E+03   -0.62734E-04   -0.62536E-04  7072   0.907E-03-0.985E-06
CGA:  34    -0.354573134647E+03   -0.39468E-04   -0.39479E-04  7072   0.982E-03 0.134E-05
CGA:  35    -0.354573257789E+03   -0.12314E-03   -0.12318E-03  7072   0.222E-02-0.902E-06
CGA:  36    -0.354573376045E+03   -0.11826E-03   -0.11826E-03  7072   0.751E-03-0.681E-06
CGA:  37    -0.354573427995E+03   -0.51950E-04   -0.51961E-04  7072   0.624E-03-0.270E-06
CGA:  38    -0.354573468713E+03   -0.40718E-04   -0.40735E-04  7072   0.875E-03-0.115E-05
CGA:  39    -0.354573497266E+03   -0.28553E-04   -0.28594E-04  7072   0.482E-03 0.161E-05
CGA:  40    -0.354573549033E+03   -0.51767E-04   -0.51887E-04  7072   0.161E-03-0.225E-05
CGA:  41    -0.354573565315E+03   -0.16282E-04   -0.16326E-04  7072   0.239E-03-0.975E-06
CGA:  42    -0.354573577565E+03   -0.12250E-04   -0.12257E-04  7072   0.336E-03 0.115E-05
CGA:  43    -0.354573590357E+03   -0.12792E-04   -0.12786E-04  7072   0.793E-04-0.284E-06
CGA:  44    -0.354573600341E+03   -0.99839E-05   -0.10083E-04  7072   0.906E-04-0.142E-05
  52 F= -.35457360E+03 E0= -.35455499E+03  d E =0.116856E+00  mag=     4.7094
       N       E                     dE             d eps       ncg     rms          ort
SDA:   1    -0.329282030823E+03    0.25292E+02    0.00000E+00  7072   0.772E+02 0.000E+00
CGA:   2    -0.336514553728E+03   -0.72325E+01   -0.74917E+01  7072   0.204E+03-0.335E+01
CGA:   3    -0.345082878207E+03   -0.85683E+01   -0.87793E+01  7072   0.128E+03 0.569E+01
CGA:   4    -0.348916486384E+03   -0.38336E+01   -0.31060E+01  7072   0.704E+02 0.173E+01
CGA:   5    -0.350470223576E+03   -0.15537E+01   -0.12247E+01  7072   0.330E+02 0.140E+02
CGA:   6    -0.351174061177E+03   -0.70384E+00   -0.70130E+00  7072   0.393E+02-0.160E+01
CGA:   7    -0.352038922224E+03   -0.86486E+00   -0.90560E+00  7072   0.631E+02-0.150E+01
CGA:   8    -0.352918583991E+03   -0.87966E+00   -0.89253E+00  7072   0.508E+02-0.831E+00
CGA:   9    -0.353497595164E+03   -0.57901E+00   -0.48940E+00  7072   0.287E+02 0.781E+01
CGA:  10    -0.353826804682E+03   -0.32921E+00   -0.31992E+00  7072   0.141E+02 0.303E+00
CGA:  11    -0.353975477336E+03   -0.14867E+00   -0.15426E+00  7072   0.105E+02-0.512E+00
CGA:  12    -0.354099258224E+03   -0.12378E+00   -0.13861E+00  7072   0.974E+01-0.941E+00
CGA:  13    -0.354193785011E+03   -0.94527E-01   -0.99258E-01  7072   0.716E+01-0.468E+00
CGA:  14    -0.354273063299E+03   -0.79278E-01   -0.82166E-01  7072   0.602E+01-0.219E+00
CGA:  15    -0.354341691648E+03   -0.68628E-01   -0.69334E-01  7072   0.491E+01-0.594E-01
CGA:  16    -0.354399750107E+03   -0.58058E-01   -0.62141E-01  7072   0.403E+01-0.232E+00
CGA:  17    -0.354453216000E+03   -0.53466E-01   -0.56699E-01  7072   0.447E+01-0.150E+00
CGA:  18    -0.354525620829E+03   -0.72405E-01   -0.79305E-01  7072   0.375E+01-0.189E+00
CGA:  19    -0.354567001360E+03   -0.41381E-01   -0.44056E-01  7072   0.143E+01-0.170E+00
CGA:  20    -0.354585353574E+03   -0.18352E-01   -0.18811E-01  7072   0.868E+00-0.237E-01
CGA:  21    -0.354601743637E+03   -0.16390E-01   -0.16534E-01  7072   0.912E+00-0.274E-02
CGA:  22    -0.354619411614E+03   -0.17668E-01   -0.18117E-01  7072   0.773E+00-0.567E-02
CGA:  23    -0.354632813007E+03   -0.13401E-01   -0.14221E-01  7072   0.465E+00-0.152E-01
CGA:  24    -0.354643843674E+03   -0.11031E-01   -0.11097E-01  7072   0.508E+00 0.146E-02
CGA:  25    -0.354656611933E+03   -0.12768E-01   -0.12803E-01  7072   0.338E+00 0.108E-02
CGA:  26    -0.354663951533E+03   -0.73396E-02   -0.73352E-02  7072   0.288E+00-0.960E-04
CGA:  27    -0.354671482548E+03   -0.75310E-02   -0.75808E-02  7072   0.161E+00 0.343E-02
CGA:  28    -0.354674124485E+03   -0.26419E-02   -0.26554E-02  7072   0.683E-01-0.310E-03
CGA:  29    -0.354676999970E+03   -0.28755E-02   -0.28605E-02  7072   0.127E+00 0.986E-03
CGA:  30    -0.354680629176E+03   -0.36292E-02   -0.36296E-02  7072   0.942E-01 0.243E-04
CGA:  31    -0.354683473085E+03   -0.28439E-02   -0.28458E-02  7072   0.749E-01 0.256E-02
SDA:  32    -0.354685184845E+03   -0.17118E-02   -0.17188E-02  7072   0.311E-01 0.134E-03
CGA:  33    -0.354686260312E+03   -0.10755E-02   -0.10757E-02  7072   0.157E-01-0.227E-04
CGA:  34    -0.354687137799E+03   -0.87749E-03   -0.87540E-03  7072   0.131E-01 0.775E-04
CGA:  35    -0.354687806126E+03   -0.66833E-03   -0.66816E-03  7072   0.219E-01 0.685E-05
CGA:  36    -0.354689316651E+03   -0.15105E-02   -0.15116E-02  7072   0.143E-01-0.297E-04
CGA:  37    -0.354690151255E+03   -0.83460E-03   -0.83244E-03  7072   0.349E-02 0.813E-04
CGA:  38    -0.354690647218E+03   -0.49596E-03   -0.49266E-03  7072   0.802E-02 0.367E-04
CGA:  39    -0.354690923113E+03   -0.27590E-03   -0.27608E-03  7072   0.561E-02 0.172E-04
CGA:  40    -0.354691233125E+03   -0.31001E-03   -0.30988E-03  7072   0.473E-02 0.817E-05
CGA:  41    -0.354691475879E+03   -0.24275E-03   -0.24240E-03  7072   0.240E-02 0.262E-04
CGA:  42    -0.354691616775E+03   -0.14090E-03   -0.14094E-03  7072   0.219E-02-0.192E-05
CGA:  43    -0.354691888453E+03   -0.27168E-03   -0.27120E-03  7072   0.691E-03 0.582E-05
CGA:  44    -0.354691942475E+03   -0.54022E-04   -0.53922E-04  7072   0.111E-02 0.285E-05
CGA:  45    -0.354692052886E+03   -0.11041E-03   -0.11041E-03  7072   0.187E-02-0.109E-06
CGA:  46    -0.354692103270E+03   -0.50384E-04   -0.50475E-04  7072   0.464E-03 0.130E-05
CGA:  47    -0.354692124132E+03   -0.20863E-04   -0.20856E-04  7072   0.408E-03-0.144E-05
CGA:  48    -0.354692159452E+03   -0.35320E-04   -0.35278E-04  7072   0.352E-03 0.101E-05
CGA:  49    -0.354692187445E+03   -0.27993E-04   -0.27950E-04  7072   0.192E-03 0.143E-05
CGA:  50    -0.354692199242E+03   -0.11797E-04   -0.11786E-04  7072   0.316E-03 0.109E-05
CGA:  51    -0.354692211185E+03   -0.11944E-04   -0.11924E-04  7072   0.158E-03-0.113E-05
CGA:  52    -0.354692233311E+03   -0.22126E-04   -0.22189E-04  7072   0.160E-03-0.757E-06
CGA:  53    -0.354692241519E+03   -0.82084E-05   -0.82040E-05  7072   0.102E-03-0.894E-06
  53 F= -.35469224E+03 E0= -.35467356E+03  d E =-.118641E+00  mag=     4.6906
       N       E                     dE             d eps       ncg     rms          ort
SDA:   1    -0.347306567302E+03    0.73857E+01    0.00000E+00  7072   0.267E+02 0.000E+00
CGA:   2    -0.348460749343E+03   -0.11542E+01   -0.11516E+01  7072   0.429E+02-0.398E+00
CGA:   3    -0.352028132383E+03   -0.35674E+01   -0.36819E+01  7072   0.381E+02-0.456E+01
CGA:   4    -0.353263849237E+03   -0.12357E+01   -0.12793E+01  7072   0.984E+01-0.819E+00
CGA:   5    -0.353653748962E+03   -0.38990E+00   -0.40141E+00  7072   0.139E+02 0.116E+00
CGA:   6    -0.354159663804E+03   -0.50591E+00   -0.49526E+00  7072   0.782E+01-0.407E-01
CGA:   7    -0.354412964213E+03   -0.25330E+00   -0.24453E+00  7072   0.202E+01 0.655E-01
CGA:   8    -0.354519694837E+03   -0.10673E+00   -0.10678E+00  7072   0.128E+01 0.517E-01
CGA:   9    -0.354556024316E+03   -0.36329E-01   -0.36030E-01  7072   0.112E+01 0.375E-02
CGA:  10    -0.354610069578E+03   -0.54045E-01   -0.54100E-01  7072   0.427E+00 0.661E-02
CGA:  11    -0.354640952257E+03   -0.30883E-01   -0.30461E-01  7072   0.363E+00 0.166E-01
CGA:  12    -0.354649538677E+03   -0.85864E-02   -0.84491E-02  7072   0.169E+00 0.387E-02
CGA:  13    -0.354658179859E+03   -0.86412E-02   -0.86421E-02  7072   0.125E+00 0.166E-02
CGA:  14    -0.354667850160E+03   -0.96703E-02   -0.93710E-02  7072   0.772E-01 0.990E-02
CGA:  15    -0.354670048873E+03   -0.21987E-02   -0.21853E-02  7072   0.410E-01 0.243E-03
CGA:  16    -0.354672115018E+03   -0.20661E-02   -0.20665E-02  7072   0.387E-01 0.324E-03
CGA:  17    -0.354673805057E+03   -0.16900E-02   -0.16904E-02  7072   0.135E-01 0.106E-04
CGA:  18    -0.354674755367E+03   -0.95031E-03   -0.95354E-03  7072   0.181E-01-0.126E-03
CGA:  19    -0.354675356969E+03   -0.60160E-03   -0.61011E-03  7072   0.129E-01-0.517E-05
CGA:  20    -0.354676034060E+03   -0.67709E-03   -0.67702E-03  7072   0.371E-02 0.177E-04
CGA:  21    -0.354676280894E+03   -0.24683E-03   -0.24679E-03  7072   0.436E-02-0.243E-05
CGA:  22    -0.354676565582E+03   -0.28469E-03   -0.28400E-03  7072   0.383E-02 0.373E-04
CGA:  23    -0.354676721298E+03   -0.15572E-03   -0.15572E-03  7072   0.362E-02 0.737E-05
CGA:  24    -0.354676890086E+03   -0.16879E-03   -0.16884E-03  7072   0.208E-02 0.582E-05
CGA:  25    -0.354677010347E+03   -0.12026E-03   -0.12021E-03  7072   0.955E-03 0.628E-05
CGA:  26    -0.354677096203E+03   -0.85856E-04   -0.85806E-04  7072   0.163E-02 0.106E-05
CGA:  27    -0.354677162311E+03   -0.66108E-04   -0.66147E-04  7072   0.124E-02 0.703E-06
CGA:  28    -0.354677207075E+03   -0.44764E-04   -0.44852E-04  7072   0.420E-03 0.420E-05
CGA:  29    -0.354677230706E+03   -0.23631E-04   -0.23628E-04  7072   0.420E-03 0.589E-06
CGA:  30    -0.354677268379E+03   -0.37673E-04   -0.37655E-04  7072   0.245E-03 0.401E-06
CGA:  31    -0.354677279365E+03   -0.10985E-04   -0.11000E-04  7072   0.312E-03 0.137E-05
SDA:  32    -0.354677294302E+03   -0.14937E-04   -0.14936E-04  7072   0.200E-03-0.237E-06
CGA:  33    -0.354677300473E+03   -0.61711E-05   -0.61772E-05  7072   0.950E-04 0.298E-06
  54 F= -.35467730E+03 E0= -.35465846E+03  d E =0.149410E-01  mag=     4.6707
       N       E                     dE             d eps       ncg     rms          ort
SDA:   1    -0.354128800546E+03    0.54849E+00    0.00000E+00  7072   0.773E+01 0.000E+00
CGA:   2    -0.354259186108E+03   -0.13039E+00   -0.13138E+00  7072   0.142E+01-0.141E+00
CGA:   3    -0.354499569535E+03   -0.24038E+00   -0.24245E+00  7072   0.200E+01-0.207E-01
CGA:   4    -0.354561434409E+03   -0.61865E-01   -0.63746E-01  7072   0.879E+00-0.206E-01
CGA:   5    -0.354607408842E+03   -0.45974E-01   -0.45934E-01  7072   0.110E+01-0.710E-02
CGA:   6    -0.354654327933E+03   -0.46919E-01   -0.47090E-01  7072   0.469E+00 0.324E-02
CGA:   7    -0.354672664124E+03   -0.18336E-01   -0.18345E-01  7072   0.107E+00 0.921E-04
CGA:   8    -0.354680761715E+03   -0.80976E-02   -0.80906E-02  7072   0.114E+00 0.279E-03
CGA:   9    -0.354684092724E+03   -0.33310E-02   -0.33343E-02  7072   0.551E-01-0.305E-04
CGA:  10    -0.354687298882E+03   -0.32062E-02   -0.32045E-02  7072   0.341E-01 0.229E-03
CGA:  11    -0.354688862326E+03   -0.15634E-02   -0.15635E-02  7072   0.144E-01-0.308E-05
CGA:  12    -0.354689533924E+03   -0.67160E-03   -0.67208E-03  7072   0.105E-01 0.292E-04
CGA:  13    -0.354690064793E+03   -0.53087E-03   -0.53083E-03  7072   0.131E-01-0.618E-05
CGA:  14    -0.354690611249E+03   -0.54646E-03   -0.54718E-03  7072   0.316E-02 0.268E-04
CGA:  15    -0.354690905191E+03   -0.29394E-03   -0.29351E-03  7072   0.268E-02 0.105E-04
CGA:  16    -0.354690984784E+03   -0.79594E-04   -0.79840E-04  7072   0.111E-02 0.306E-05
CGA:  17    -0.354691047751E+03   -0.62966E-04   -0.62962E-04  7072   0.169E-02 0.172E-05
CGA:  18    -0.354691146552E+03   -0.98801E-04   -0.98745E-04  7072   0.633E-03 0.109E-04
CGA:  19    -0.354691181779E+03   -0.35228E-04   -0.35226E-04  7072   0.398E-03 0.649E-06
CGA:  20    -0.354691200487E+03   -0.18708E-04   -0.18716E-04  7072   0.403E-03 0.100E-05
CGA:  21    -0.354691216249E+03   -0.15762E-04   -0.15733E-04  7072   0.196E-03-0.205E-05
CGA:  22    -0.354691232362E+03   -0.16114E-04   -0.16196E-04  7072   0.282E-03-0.274E-05
CGA:  23    -0.354691247380E+03   -0.15017E-04   -0.15016E-04  7072   0.136E-03-0.416E-05
CGA:  24    -0.354691251936E+03   -0.45568E-05   -0.45404E-05  7072   0.829E-04-0.861E-06
  55 F= -.35469125E+03 E0= -.35467248E+03  d E =-.139515E-01  mag=     4.6807
       N       E                     dE             d eps       ncg     rms          ort
SDA:   1    -0.354635509712E+03    0.55738E-01    0.00000E+00  7072   0.192E+00 0.000E+00
CGA:   2    -0.354649269460E+03   -0.13760E-01   -0.13715E-01  7072   0.397E+00 0.187E-02
CGA:   3    -0.354666764317E+03   -0.17495E-01   -0.17490E-01  7072   0.328E+00-0.143E-03
CGA:   4    -0.354683186465E+03   -0.16422E-01   -0.16429E-01  7072   0.624E-01 0.865E-03
CGA:   5    -0.354687953773E+03   -0.47673E-02   -0.47748E-02  7072   0.545E-01-0.267E-03
CGA:   6    -0.354691325357E+03   -0.33716E-02   -0.33693E-02  7072   0.347E-01 0.175E-03
CGA:   7    -0.354692135164E+03   -0.80981E-03   -0.81062E-03  7072   0.982E-02-0.521E-04
CGA:   8    -0.354692751130E+03   -0.61597E-03   -0.61596E-03  7072   0.713E-02-0.493E-06
CGA:   9    -0.354693049148E+03   -0.29802E-03   -0.29778E-03  7072   0.326E-02-0.915E-05
CGA:  10    -0.354693292464E+03   -0.24332E-03   -0.24317E-03  7072   0.258E-02 0.521E-05
CGA:  11    -0.354693377510E+03   -0.85046E-04   -0.84980E-04  7072   0.139E-02-0.330E-05
CGA:  12    -0.354693426455E+03   -0.48945E-04   -0.48953E-04  7072   0.594E-03 0.745E-06
CGA:  13    -0.354693492982E+03   -0.66527E-04   -0.66637E-04  7072   0.367E-03-0.183E-05
CGA:  14    -0.354693510887E+03   -0.17905E-04   -0.17897E-04  7072   0.327E-03-0.113E-05
CGA:  15    -0.354693521330E+03   -0.10443E-04   -0.10393E-04  7072   0.141E-03-0.213E-05
CGA:  16    -0.354693529491E+03   -0.81608E-05   -0.81606E-05  7072   0.908E-04 0.385E-07
  56 F= -.35469353E+03 E0= -.35467478E+03  d E =-.227755E-02  mag=     4.6860
