       N       E                     dE             d eps       ncg     rms          ort
DAV:   1     0.580711499553E+04    0.58071E+04   -0.23448E+05  7072   0.164E+03
DAV:   2     0.568623055762E+03   -0.52385E+04   -0.49022E+04  7072   0.474E+02
DAV:   3    -0.374836021121E+03   -0.94346E+03   -0.92572E+03  7072   0.205E+02
DAV:   4    -0.416989073966E+03   -0.42153E+02   -0.41107E+02  7072   0.484E+01
DAV:   5    -0.418898048470E+03   -0.19090E+01   -0.18358E+01  7072   0.959E+00
SDA:   6    -0.173152930933E+03    0.24575E+03   -0.18358E+01  7072   0.299E+04 0.000E+00
CGA:   7    -0.123137410814E+03    0.50016E+02   -0.25942E+03  7072   0.817E+04-0.826E+03
CGA:   8    -0.241382888503E+03   -0.11825E+03   -0.32465E+03  7072   0.158E+04-0.201E+04
CGA:   9    -0.271536035775E+03   -0.30153E+02   -0.11105E+03  7072   0.116E+04-0.477E+03
CGA:  10    -0.309068386403E+03   -0.37532E+02   -0.57965E+02  7072   0.112E+04-0.321E+03
CGA:  11    -0.297870349552E+03    0.11198E+02   -0.47794E+02  7072   0.131E+04-0.515E+03
CGA:  12    -0.325430961042E+03   -0.27561E+02   -0.23204E+02  7072   0.251E+03-0.392E+03
CGA:  13    -0.330401261814E+03   -0.49703E+01   -0.10219E+02  7072   0.397E+03-0.101E+03
CGA:  14    -0.332771350981E+03   -0.23701E+01   -0.12870E+02  7072   0.434E+03-0.945E+02
CGA:  15    -0.342476343745E+03   -0.97050E+01   -0.10933E+02  7072   0.396E+03-0.360E+03
CGA:  16    -0.324602820605E+03    0.17874E+02   -0.19911E+02  7072   0.665E+03-0.277E+03
CGA:  17    -0.307724478688E+03    0.16878E+02   -0.28163E+02  7072   0.115E+04-0.697E+03
CGA:  18    -0.293793672502E+03    0.13931E+02   -0.62374E+02  7072   0.370E+03-0.300E+03
CGA:  19    -0.333041762839E+03   -0.39248E+02   -0.57721E+01  7072   0.730E+03 0.126E+04
CGA:  20    -0.330640542285E+03    0.24012E+01   -0.24327E+02  7072   0.132E+04-0.126E+04
CGA:  21    -0.296470231176E+03    0.34170E+02   -0.69846E+02  7072   0.501E+03-0.302E+03
CGA:  22    -0.349297205087E+03   -0.52827E+02   -0.85491E+01  7072   0.200E+03 0.817E+03
CGA:  23    -0.351126214800E+03   -0.18290E+01   -0.42545E+01  7072   0.108E+03-0.149E+03
CGA:  24    -0.352190349426E+03   -0.10641E+01   -0.20244E+01  7072   0.388E+02-0.592E+02
CGA:  25    -0.352695138311E+03   -0.50479E+00   -0.51847E+00  7072   0.394E+01-0.206E+01
CGA:  26    -0.353050919162E+03   -0.35578E+00   -0.32630E+00  7072   0.602E+01-0.656E+00
CGA:  27    -0.353151044535E+03   -0.10013E+00   -0.86200E-01  7072   0.385E+01 0.695E+00
CGA:  28    -0.353484779641E+03   -0.33374E+00   -0.35705E+00  7072   0.172E+02 0.599E+00
CGA:  29    -0.353412838492E+03    0.71941E-01   -0.58116E+00  7072   0.330E+02-0.240E+02
CGA:  30    -0.353908547453E+03   -0.49571E+00   -0.50991E+00  7072   0.226E+01-0.220E+01
CGA:  31    -0.354022979156E+03   -0.11443E+00   -0.11916E+00  7072   0.195E+01-0.336E-02
CGA:  32    -0.354136885985E+03   -0.11391E+00   -0.11649E+00  7072   0.263E+01-0.590E-03
CGA:  33    -0.354231576763E+03   -0.94691E-01   -0.85735E-01  7072   0.625E+00 0.324E+00
CGA:  34    -0.354306160352E+03   -0.74584E-01   -0.73487E-01  7072   0.143E+01 0.344E-01
CGA:  35    -0.354365819578E+03   -0.59659E-01   -0.61189E-01  7072   0.108E+01 0.304E-02
CGA:  36    -0.354426795215E+03   -0.60976E-01   -0.62997E-01  7072   0.466E+00 0.445E-01
CGA:  37    -0.354456558118E+03   -0.29763E-01   -0.29395E-01  7072   0.609E+00-0.200E-02
CGA:  38    -0.354498885644E+03   -0.42328E-01   -0.42823E-01  7072   0.338E+00 0.246E-01
CGA:  39    -0.354525929800E+03   -0.27044E-01   -0.26995E-01  7072   0.344E+00-0.101E-01
CGA:  40    -0.354538215517E+03   -0.12286E-01   -0.12135E-01  7072   0.202E+00 0.546E-02
CGA:  41    -0.354555948255E+03   -0.17733E-01   -0.17740E-01  7072   0.258E+00-0.693E-03
CGA:  42    -0.354568460104E+03   -0.12512E-01   -0.12952E-01  7072   0.131E+00 0.867E-03
CGA:  43    -0.354577576541E+03   -0.91164E-02   -0.91878E-02  7072   0.104E+00 0.465E-02
CGA:  44    -0.354583043975E+03   -0.54674E-02   -0.54598E-02  7072   0.118E+00 0.132E-03
CGA:  45    -0.354592485855E+03   -0.94419E-02   -0.94368E-02  7072   0.782E-01 0.340E-03
CGA:  46    -0.354598004856E+03   -0.55190E-02   -0.55390E-02  7072   0.793E-01 0.221E-02
CGA:  47    -0.354602465802E+03   -0.44609E-02   -0.44523E-02  7072   0.615E-01-0.102E-03
CGA:  48    -0.354606013186E+03   -0.35474E-02   -0.35597E-02  7072   0.585E-01 0.224E-03
CGA:  49    -0.354609826186E+03   -0.38130E-02   -0.38028E-02  7072   0.233E-01-0.457E-03
CGA:  50    -0.354612401009E+03   -0.25748E-02   -0.26043E-02  7072   0.339E-01-0.660E-03
CGA:  51    -0.354614246761E+03   -0.18458E-02   -0.18562E-02  7072   0.335E-01 0.137E-03
CGA:  52    -0.354616524607E+03   -0.22778E-02   -0.22608E-02  7072   0.236E-01-0.109E-02
CGA:  53    -0.354617657629E+03   -0.11330E-02   -0.11286E-02  7072   0.130E-01 0.289E-05
CGA:  54    -0.354618741116E+03   -0.10835E-02   -0.10853E-02  7072   0.157E-01-0.110E-03
CGA:  55    -0.354619420940E+03   -0.67982E-03   -0.66635E-03  7072   0.106E-01 0.925E-04
CGA:  56    -0.354620065788E+03   -0.64485E-03   -0.64090E-03  7072   0.887E-02-0.115E-03
CGA:  57    -0.354620595394E+03   -0.52961E-03   -0.52875E-03  7072   0.113E-01-0.211E-04
CGA:  58    -0.354621166980E+03   -0.57159E-03   -0.56958E-03  7072   0.849E-02 0.445E-05
CGA:  59    -0.354621568261E+03   -0.40128E-03   -0.39642E-03  7072   0.608E-02 0.111E-04
SDA:  60    -0.354621891080E+03   -0.32282E-03   -0.32028E-03  7072   0.623E-02-0.219E-04
CGA:  61    -0.354622148730E+03   -0.25765E-03   -0.25681E-03  7072   0.442E-02 0.974E-05
CGA:  62    -0.354622435234E+03   -0.28650E-03   -0.28643E-03  7072   0.422E-02-0.258E-04
CGA:  63    -0.354622791605E+03   -0.35637E-03   -0.35612E-03  7072   0.591E-02 0.142E-04
CGA:  64    -0.354623404944E+03   -0.61334E-03   -0.62014E-03  7072   0.482E-02-0.153E-03
CGA:  65    -0.354623865814E+03   -0.46087E-03   -0.46159E-03  7072   0.325E-02-0.164E-04
CGA:  66    -0.354623965422E+03   -0.99608E-04   -0.99703E-04  7072   0.126E-02 0.674E-05
CGA:  67    -0.354624081899E+03   -0.11648E-03   -0.11675E-03  7072   0.165E-02-0.945E-05
CGA:  68    -0.354624234670E+03   -0.15277E-03   -0.15341E-03  7072   0.787E-03-0.229E-04
CGA:  69    -0.354624267591E+03   -0.32921E-04   -0.32716E-04  7072   0.373E-03-0.587E-05
CGA:  70    -0.354624294127E+03   -0.26536E-04   -0.26570E-04  7072   0.481E-03-0.128E-04
CGA:  71    -0.354624315927E+03   -0.21800E-04   -0.21540E-04  7072   0.231E-03-0.994E-05
CGA:  72    -0.354624341888E+03   -0.25961E-04   -0.26671E-04  7072   0.316E-03-0.156E-04
CGA:  73    -0.354624361057E+03   -0.19169E-04   -0.19137E-04  7072   0.363E-03-0.754E-05
CGA:  74    -0.354624377582E+03   -0.16524E-04   -0.16201E-04  7072   0.230E-03-0.286E-05
CGA:  75    -0.354624398294E+03   -0.20712E-04   -0.20861E-04  7072   0.276E-03-0.664E-05
CGA:  76    -0.354624414353E+03   -0.16059E-04   -0.15830E-04  7072   0.271E-03-0.486E-05
CGA:  77    -0.354624424513E+03   -0.10160E-04   -0.91984E-05  7072   0.151E-03 0.194E-04
CGA:  78    -0.354624429461E+03   -0.49478E-05   -0.49168E-05  7072   0.799E-04 0.317E-05
   1 F= -.35462443E+03 E0= -.35461014E+03  d E =-.354624E+03  mag=     3.7877
       N       E                     dE             d eps       ncg     rms          ort
SDA:   1    -0.354622384319E+03    0.20402E-02    0.00000E+00  7072   0.135E+00 0.000E+00
CGA:   2    -0.354625295834E+03   -0.29115E-02   -0.28949E-02  7072   0.744E-02 0.607E-03
CGA:   3    -0.354625486836E+03   -0.19100E-03   -0.19180E-03  7072   0.941E-03-0.147E-04
CGA:   4    -0.354625526584E+03   -0.39748E-04   -0.39781E-04  7072   0.211E-03 0.147E-05
CGA:   5    -0.354625544148E+03   -0.17564E-04   -0.17518E-04  7072   0.182E-03 0.200E-05
CGA:   6    -0.354625560931E+03   -0.16783E-04   -0.16698E-04  7072   0.748E-04 0.279E-05
CGA:   7    -0.354625565257E+03   -0.43266E-05   -0.43279E-05  7072   0.750E-04 0.222E-06
   2 F= -.35462557E+03 E0= -.35461109E+03  d E =-.113580E-02  mag=     3.7837
       N       E                     dE             d eps       ncg     rms          ort
SDA:   1    -0.354624585409E+03    0.97552E-03    0.00000E+00  7072   0.132E+00 0.000E+00
CGA:   2    -0.354629636413E+03   -0.50510E-02   -0.50511E-02  7072   0.122E+00-0.136E-04
CGA:   3    -0.354640400524E+03   -0.10764E-01   -0.10759E-01  7072   0.100E+00 0.161E-03
CGA:   4    -0.354645399807E+03   -0.49993E-02   -0.49998E-02  7072   0.285E-01 0.152E-04
CGA:   5    -0.354648174181E+03   -0.27744E-02   -0.27769E-02  7072   0.238E-01-0.608E-04
CGA:   6    -0.354649518961E+03   -0.13448E-02   -0.13450E-02  7072   0.128E-01 0.118E-04
CGA:   7    -0.354650096397E+03   -0.57744E-03   -0.57825E-03  7072   0.491E-02 0.109E-04
CGA:   8    -0.354650274992E+03   -0.17859E-03   -0.17841E-03  7072   0.245E-02 0.209E-05
CGA:   9    -0.354650474913E+03   -0.19992E-03   -0.19998E-03  7072   0.166E-02-0.290E-05
CGA:  10    -0.354650573466E+03   -0.98553E-04   -0.98551E-04  7072   0.567E-03-0.145E-05
CGA:  11    -0.354650611525E+03   -0.38059E-04   -0.38051E-04  7072   0.419E-03 0.123E-05
CGA:  12    -0.354650629475E+03   -0.17950E-04   -0.17949E-04  7072   0.341E-03 0.559E-08
CGA:  13    -0.354650658426E+03   -0.28951E-04   -0.28934E-04  7072   0.191E-03 0.714E-06
CGA:  14    -0.354650668600E+03   -0.10174E-04   -0.10174E-04  7072   0.799E-04-0.128E-07
CGA:  15    -0.354650677156E+03   -0.85559E-05   -0.85661E-05  7072   0.125E-03-0.225E-06
   3 F= -.35465068E+03 E0= -.35463620E+03  d E =-.251119E-01  mag=     3.7799
       N       E                     dE             d eps       ncg     rms          ort
SDA:   1    -0.354490658862E+03    0.16001E+00    0.00000E+00  7072   0.860E+00 0.000E+00
CGA:   2    -0.354540918040E+03   -0.50259E-01   -0.50246E-01  7072   0.155E+01-0.132E-02
CGA:   3    -0.354654197136E+03   -0.11328E+00   -0.11323E+00  7072   0.404E+00 0.331E-02
CGA:   4    -0.354678744934E+03   -0.24548E-01   -0.24543E-01  7072   0.319E+00-0.957E-03
CGA:   5    -0.354704334230E+03   -0.25589E-01   -0.25639E-01  7072   0.160E+00-0.199E-02
CGA:   6    -0.354713605031E+03   -0.92708E-02   -0.92700E-02  7072   0.559E-01-0.553E-04
CGA:   7    -0.354716783417E+03   -0.31784E-02   -0.31813E-02  7072   0.230E-01 0.166E-03
CGA:   8    -0.354719255487E+03   -0.24721E-02   -0.24798E-02  7072   0.162E-01-0.161E-03
CGA:   9    -0.354719880118E+03   -0.62463E-03   -0.62435E-03  7072   0.866E-02 0.548E-05
CGA:  10    -0.354720276300E+03   -0.39618E-03   -0.39558E-03  7072   0.431E-02-0.416E-06
CGA:  11    -0.354720596963E+03   -0.32066E-03   -0.32061E-03  7072   0.293E-02 0.490E-05
CGA:  12    -0.354720860157E+03   -0.26319E-03   -0.26328E-03  7072   0.200E-02-0.235E-05
CGA:  13    -0.354720951945E+03   -0.91788E-04   -0.91841E-04  7072   0.819E-03-0.205E-06
CGA:  14    -0.354721035050E+03   -0.83105E-04   -0.83107E-04  7072   0.158E-02-0.105E-07
CGA:  15    -0.354721101722E+03   -0.66671E-04   -0.66674E-04  7072   0.796E-03 0.424E-06
CGA:  16    -0.354721166512E+03   -0.64791E-04   -0.64841E-04  7072   0.495E-03-0.297E-05
CGA:  17    -0.354721197955E+03   -0.31443E-04   -0.31444E-04  7072   0.321E-03 0.608E-06
CGA:  18    -0.354721257014E+03   -0.59059E-04   -0.58654E-04  7072   0.553E-03 0.349E-05
CGA:  19    -0.354721273493E+03   -0.16479E-04   -0.16530E-04  7072   0.170E-03 0.163E-05
CGA:  20    -0.354721287938E+03   -0.14445E-04   -0.14431E-04  7072   0.226E-03 0.961E-06
CGA:  21    -0.354721302600E+03   -0.14662E-04   -0.14671E-04  7072   0.126E-03 0.151E-05
CGA:  22    -0.354721313361E+03   -0.10760E-04   -0.10735E-04  7072   0.710E-04 0.169E-05
CGA:  23    -0.354721316825E+03   -0.34646E-05   -0.34768E-05  7072   0.579E-04 0.533E-06
   4 F= -.35472132E+03 E0= -.35470687E+03  d E =-.706397E-01  mag=     3.7778
       N       E                     dE             d eps       ncg     rms          ort
SDA:   1    -0.354243324262E+03    0.47799E+00    0.00000E+00  7072   0.171E+01 0.000E+00
CGA:   2    -0.354521942227E+03   -0.27862E+00   -0.28157E+00  7072   0.478E+01-0.320E-01
CGA:   3    -0.354662362678E+03   -0.14042E+00   -0.14281E+00  7072   0.862E+00-0.663E-01
CGA:   4    -0.354718849194E+03   -0.56487E-01   -0.56263E-01  7072   0.882E+00-0.177E-01
CGA:   5    -0.354790408338E+03   -0.71559E-01   -0.71444E-01  7072   0.213E+00 0.629E-02
CGA:   6    -0.354800045104E+03   -0.96368E-02   -0.96660E-02  7072   0.159E+00-0.143E-03
CGA:   7    -0.354807849414E+03   -0.78043E-02   -0.78214E-02  7072   0.820E-01 0.436E-04
CGA:   8    -0.354812947981E+03   -0.50986E-02   -0.50965E-02  7072   0.436E-01-0.116E-03
CGA:   9    -0.354815401928E+03   -0.24539E-02   -0.24551E-02  7072   0.170E-01 0.219E-04
CGA:  10    -0.354816252173E+03   -0.85025E-03   -0.84783E-03  7072   0.116E-01-0.141E-04
CGA:  11    -0.354817064196E+03   -0.81202E-03   -0.81196E-03  7072   0.137E-01 0.157E-04
CGA:  12    -0.354817671830E+03   -0.60763E-03   -0.60787E-03  7072   0.340E-02-0.267E-06
CGA:  13    -0.354817968211E+03   -0.29638E-03   -0.29646E-03  7072   0.261E-02-0.323E-05
CGA:  14    -0.354818132282E+03   -0.16407E-03   -0.16405E-03  7072   0.330E-02-0.421E-05
CGA:  15    -0.354818335010E+03   -0.20273E-03   -0.20274E-03  7072   0.243E-02 0.457E-06
CGA:  16    -0.354818462964E+03   -0.12795E-03   -0.12796E-03  7072   0.923E-03 0.116E-05
CGA:  17    -0.354818563560E+03   -0.10060E-03   -0.10050E-03  7072   0.124E-02 0.211E-05
CGA:  18    -0.354818629385E+03   -0.65824E-04   -0.65821E-04  7072   0.136E-02 0.187E-06
CGA:  19    -0.354818730910E+03   -0.10153E-03   -0.10149E-03  7072   0.739E-03 0.449E-05
CGA:  20    -0.354818766643E+03   -0.35733E-04   -0.35777E-04  7072   0.334E-03 0.211E-05
CGA:  21    -0.354818810062E+03   -0.43419E-04   -0.43204E-04  7072   0.705E-03 0.350E-05
CGA:  22    -0.354818837918E+03   -0.27856E-04   -0.27879E-04  7072   0.233E-03 0.121E-05
CGA:  23    -0.354818851804E+03   -0.13886E-04   -0.13893E-04  7072   0.188E-03 0.757E-06
CGA:  24    -0.354818863233E+03   -0.11429E-04   -0.11434E-04  7072   0.929E-04 0.575E-06
CGA:  25    -0.354818872933E+03   -0.96997E-05   -0.96734E-05  7072   0.167E-03 0.727E-06
   5 F= -.35481887E+03 E0= -.35480449E+03  d E =-.975561E-01  mag=     3.7768
       N       E                     dE             d eps       ncg     rms          ort
SDA:   1    -0.353323042486E+03    0.14958E+01    0.00000E+00  7072   0.470E+01 0.000E+00
CGA:   2    -0.354243947650E+03   -0.92091E+00   -0.93621E+00  7072   0.102E+02-0.134E+00
CGA:   3    -0.354536493078E+03   -0.29255E+00   -0.32673E+00  7072   0.236E+01-0.514E+00
CGA:   4    -0.354668942716E+03   -0.13245E+00   -0.13189E+00  7072   0.303E+01-0.132E-01
CGA:   5    -0.354850848112E+03   -0.18191E+00   -0.18155E+00  7072   0.753E+00-0.112E-01
CGA:   6    -0.354893086980E+03   -0.42239E-01   -0.42478E-01  7072   0.309E+00 0.378E-02
CGA:   7    -0.354913736431E+03   -0.20649E-01   -0.20650E-01  7072   0.228E+00-0.416E-05
CGA:   8    -0.354924971602E+03   -0.11235E-01   -0.11208E-01  7072   0.160E+00-0.128E-03
CGA:   9    -0.354932103546E+03   -0.71319E-02   -0.71508E-02  7072   0.467E-01-0.369E-04
CGA:  10    -0.354934866972E+03   -0.27634E-02   -0.27567E-02  7072   0.332E-01-0.249E-03
CGA:  11    -0.354937652145E+03   -0.27852E-02   -0.27834E-02  7072   0.191E-01 0.803E-04
CGA:  12    -0.354938794700E+03   -0.11426E-02   -0.11426E-02  7072   0.169E-01 0.159E-06
CGA:  13    -0.354939569360E+03   -0.77466E-03   -0.77479E-03  7072   0.841E-02-0.153E-05
CGA:  14    -0.354940024560E+03   -0.45520E-03   -0.45496E-03  7072   0.601E-02-0.853E-05
CGA:  15    -0.354940763926E+03   -0.73937E-03   -0.73817E-03  7072   0.492E-02 0.202E-04
CGA:  16    -0.354941025849E+03   -0.26192E-03   -0.26212E-03  7072   0.389E-02 0.222E-05
CGA:  17    -0.354941267744E+03   -0.24189E-03   -0.24195E-03  7072   0.355E-02 0.483E-05
CGA:  18    -0.354941466946E+03   -0.19920E-03   -0.19913E-03  7072   0.301E-02-0.447E-06
CGA:  19    -0.354941797515E+03   -0.33057E-03   -0.33008E-03  7072   0.184E-02 0.116E-04
CGA:  20    -0.354941890189E+03   -0.92674E-04   -0.92679E-04  7072   0.119E-02 0.293E-05
CGA:  21    -0.354941989843E+03   -0.99654E-04   -0.99604E-04  7072   0.208E-02 0.344E-05
CGA:  22    -0.354942093366E+03   -0.10352E-03   -0.10352E-03  7072   0.676E-03 0.147E-05
CGA:  23    -0.354942143016E+03   -0.49649E-04   -0.49636E-04  7072   0.485E-03 0.235E-05
CGA:  24    -0.354942173083E+03   -0.30067E-04   -0.30070E-04  7072   0.357E-03 0.310E-06
CGA:  25    -0.354942199336E+03   -0.26253E-04   -0.26248E-04  7072   0.484E-03 0.920E-06
CGA:  26    -0.354942223036E+03   -0.23700E-04   -0.23704E-04  7072   0.186E-03 0.444E-06
CGA:  27    -0.354942233478E+03   -0.10442E-04   -0.10449E-04  7072   0.107E-03 0.597E-06
CGA:  28    -0.354942245552E+03   -0.12073E-04   -0.12057E-04  7072   0.134E-03 0.379E-06
CGA:  29    -0.354942252248E+03   -0.66966E-05   -0.67006E-05  7072   0.114E-03 0.190E-06
   6 F= -.35494225E+03 E0= -.35492794E+03  d E =-.123379E+00  mag=     3.7727
       N       E                     dE             d eps       ncg     rms          ort
SDA:   1    -0.350981900113E+03    0.39603E+01    0.00000E+00  7072   0.119E+02 0.000E+00
CGA:   2    -0.352985669204E+03   -0.20038E+01   -0.19519E+01  7072   0.248E+02 0.579E+00
CGA:   3    -0.354078947679E+03   -0.10933E+01   -0.10936E+01  7072   0.570E+01-0.125E-01
CGA:   4    -0.354452134950E+03   -0.37319E+00   -0.37218E+00  7072   0.649E+01-0.799E-01
CGA:   5    -0.354732117696E+03   -0.27998E+00   -0.26906E+00  7072   0.335E+01 0.644E-01
CGA:   6    -0.354920566184E+03   -0.18845E+00   -0.18878E+00  7072   0.112E+01 0.352E-02
CGA:   7    -0.354985151290E+03   -0.64585E-01   -0.64292E-01  7072   0.339E+00-0.762E-02
CGA:   8    -0.355015422065E+03   -0.30271E-01   -0.30227E-01  7072   0.498E+00 0.144E-02
CGA:   9    -0.355032546445E+03   -0.17124E-01   -0.17201E-01  7072   0.141E+00-0.128E-02
CGA:  10    -0.355041114855E+03   -0.85684E-02   -0.85726E-02  7072   0.603E-01 0.272E-03
CGA:  11    -0.355046105215E+03   -0.49904E-02   -0.49728E-02  7072   0.374E-01 0.798E-03
CGA:  12    -0.355050411985E+03   -0.43068E-02   -0.43108E-02  7072   0.213E-01-0.810E-04
CGA:  13    -0.355051499151E+03   -0.10872E-02   -0.10904E-02  7072   0.148E-01 0.294E-04
CGA:  14    -0.355052520085E+03   -0.10209E-02   -0.10209E-02  7072   0.167E-01 0.157E-04
CGA:  15    -0.355053379357E+03   -0.85927E-03   -0.86040E-03  7072   0.109E-01 0.128E-04
CGA:  16    -0.355054152447E+03   -0.77309E-03   -0.77314E-03  7072   0.895E-02-0.844E-05
CGA:  17    -0.355054697670E+03   -0.54522E-03   -0.54547E-03  7072   0.397E-02 0.140E-04
CGA:  18    -0.355055237100E+03   -0.53943E-03   -0.53861E-03  7072   0.736E-02 0.121E-04
CGA:  19    -0.355055665735E+03   -0.42863E-03   -0.42905E-03  7072   0.432E-02 0.151E-04
CGA:  20    -0.355055828246E+03   -0.16251E-03   -0.16240E-03  7072   0.228E-02 0.180E-05
CGA:  21    -0.355056030013E+03   -0.20177E-03   -0.20171E-03  7072   0.168E-02 0.218E-05
CGA:  22    -0.355056198823E+03   -0.16881E-03   -0.16880E-03  7072   0.140E-02 0.305E-06
CGA:  23    -0.355056284902E+03   -0.86079E-04   -0.86129E-04  7072   0.707E-03 0.381E-05
CGA:  24    -0.355056313858E+03   -0.28956E-04   -0.28960E-04  7072   0.598E-03 0.166E-06
CGA:  25    -0.355056382141E+03   -0.68282E-04   -0.68266E-04  7072   0.393E-03 0.349E-06
CGA:  26    -0.355056413479E+03   -0.31338E-04   -0.31328E-04  7072   0.251E-03 0.131E-05
CGA:  27    -0.355056428489E+03   -0.15010E-04   -0.15018E-04  7072   0.226E-03 0.594E-06
CGA:  28    -0.355056440409E+03   -0.11920E-04   -0.11915E-04  7072   0.214E-03-0.187E-06
CGA:  29    -0.355056460003E+03   -0.19593E-04   -0.19585E-04  7072   0.105E-03 0.373E-06
CGA:  30    -0.355056465728E+03   -0.57253E-05   -0.57164E-05  7072   0.643E-04-0.453E-06
   7 F= -.35505647E+03 E0= -.35504213E+03  d E =-.114213E+00  mag=     3.7608
       N       E                     dE             d eps       ncg     rms          ort
SDA:   1    -0.348957240710E+03    0.60992E+01    0.00000E+00  7072   0.175E+02 0.000E+00
CGA:   2    -0.351227513167E+03   -0.22703E+01   -0.22363E+01  7072   0.488E+02 0.633E+00
CGA:   3    -0.353611758086E+03   -0.23842E+01   -0.22988E+01  7072   0.130E+02 0.138E+01
CGA:   4    -0.354125103646E+03   -0.51335E+00   -0.53484E+00  7072   0.750E+01-0.951E-01
CGA:   5    -0.354637535684E+03   -0.51243E+00   -0.50749E+00  7072   0.477E+01-0.681E+00
CGA:   6    -0.354945493701E+03   -0.30796E+00   -0.30804E+00  7072   0.189E+01 0.137E+00
CGA:   7    -0.355009730751E+03   -0.64237E-01   -0.62194E-01  7072   0.704E+00 0.340E-01
CGA:   8    -0.355047692364E+03   -0.37962E-01   -0.38330E-01  7072   0.546E+00 0.510E-02
CGA:   9    -0.355084784103E+03   -0.37092E-01   -0.37084E-01  7072   0.254E+00-0.316E-02
CGA:  10    -0.355101265029E+03   -0.16481E-01   -0.16495E-01  7072   0.129E+00 0.212E-02
CGA:  11    -0.355106714171E+03   -0.54491E-02   -0.53605E-02  7072   0.625E-01 0.537E-03
CGA:  12    -0.355110614414E+03   -0.39002E-02   -0.39071E-02  7072   0.630E-01 0.625E-03
CGA:  13    -0.355114349419E+03   -0.37350E-02   -0.37351E-02  7072   0.323E-01-0.456E-05
CGA:  14    -0.355115933616E+03   -0.15842E-02   -0.15902E-02  7072   0.167E-01 0.613E-04
CGA:  15    -0.355117060876E+03   -0.11273E-02   -0.11274E-02  7072   0.910E-02-0.383E-04
CGA:  16    -0.355117620760E+03   -0.55988E-03   -0.56014E-03  7072   0.118E-01 0.328E-04
CGA:  17    -0.355118383868E+03   -0.76311E-03   -0.76309E-03  7072   0.828E-02-0.978E-05
CGA:  18    -0.355118846873E+03   -0.46301E-03   -0.46359E-03  7072   0.302E-02 0.215E-04
CGA:  19    -0.355119104445E+03   -0.25757E-03   -0.25751E-03  7072   0.478E-02 0.243E-05
CGA:  20    -0.355119381748E+03   -0.27730E-03   -0.27750E-03  7072   0.403E-02 0.138E-04
CGA:  21    -0.355119645587E+03   -0.26384E-03   -0.26384E-03  7072   0.237E-02 0.278E-05
CGA:  22    -0.355119759844E+03   -0.11426E-03   -0.11433E-03  7072   0.116E-02 0.197E-05
CGA:  23    -0.355119855378E+03   -0.95534E-04   -0.95574E-04  7072   0.161E-02-0.184E-05
CGA:  24    -0.355119949486E+03   -0.94108E-04   -0.94118E-04  7072   0.102E-02 0.577E-06
CGA:  25    -0.355119997635E+03   -0.48149E-04   -0.48151E-04  7072   0.554E-03-0.137E-06
CGA:  26    -0.355120033424E+03   -0.35789E-04   -0.35788E-04  7072   0.328E-03 0.269E-05
CGA:  27    -0.355120062939E+03   -0.29516E-04   -0.29487E-04  7072   0.514E-03 0.114E-05
CGA:  28    -0.355120088950E+03   -0.26010E-04   -0.26021E-04  7072   0.300E-03 0.787E-06
CGA:  29    -0.355120104442E+03   -0.15492E-04   -0.15480E-04  7072   0.113E-03-0.758E-06
CGA:  30    -0.355120116476E+03   -0.12034E-04   -0.12004E-04  7072   0.210E-03 0.667E-06
CGA:  31    -0.355120127608E+03   -0.11132E-04   -0.11132E-04  7072   0.144E-03 0.298E-07
SDA:  32    -0.355120136176E+03   -0.85681E-05   -0.85706E-05  7072   0.839E-04 0.380E-06
   8 F= -.35512014E+03 E0= -.35510574E+03  d E =-.636704E-01  mag=     3.7459
       N       E                     dE             d eps       ncg     rms          ort
SDA:   1    -0.347064765006E+03    0.80554E+01    0.00000E+00  7072   0.201E+02 0.000E+00
CGA:   2    -0.352302682193E+03   -0.52379E+01   -0.53666E+01  7072   0.534E+02-0.734E+00
CGA:   3    -0.353562105854E+03   -0.12594E+01   -0.15063E+01  7072   0.101E+02-0.373E+01
CGA:   4    -0.354219351705E+03   -0.65725E+00   -0.65703E+00  7072   0.122E+02-0.846E-01
CGA:   5    -0.354795940223E+03   -0.57659E+00   -0.56623E+00  7072   0.305E+01-0.142E-01
CGA:   6    -0.354958640247E+03   -0.16270E+00   -0.16310E+00  7072   0.140E+01 0.478E-02
CGA:   7    -0.355033211509E+03   -0.74571E-01   -0.75387E-01  7072   0.105E+01 0.103E-01
CGA:   8    -0.355081927482E+03   -0.48716E-01   -0.48403E-01  7072   0.522E+00-0.167E-03
CGA:   9    -0.355116539733E+03   -0.34612E-01   -0.34614E-01  7072   0.221E+00 0.628E-03
CGA:  10    -0.355126811562E+03   -0.10272E-01   -0.10217E-01  7072   0.155E+00-0.859E-04
CGA:  11    -0.355135978502E+03   -0.91669E-02   -0.91828E-02  7072   0.942E-01 0.906E-03
CGA:  12    -0.355140581993E+03   -0.46035E-02   -0.46077E-02  7072   0.512E-01 0.385E-04
CGA:  13    -0.355143962837E+03   -0.33808E-02   -0.33809E-02  7072   0.327E-01-0.457E-04
CGA:  14    -0.355145355263E+03   -0.13924E-02   -0.13940E-02  7072   0.145E-01-0.218E-05
CGA:  15    -0.355146220470E+03   -0.86521E-03   -0.86551E-03  7072   0.146E-01 0.361E-04
CGA:  16    -0.355147207459E+03   -0.98699E-03   -0.98723E-03  7072   0.668E-02-0.343E-04
CGA:  17    -0.355147581960E+03   -0.37450E-03   -0.37467E-03  7072   0.599E-02 0.802E-05
CGA:  18    -0.355147887184E+03   -0.30522E-03   -0.30525E-03  7072   0.304E-02-0.104E-05
CGA:  19    -0.355148099420E+03   -0.21224E-03   -0.21216E-03  7072   0.359E-02 0.875E-05
CGA:  20    -0.355148392124E+03   -0.29270E-03   -0.29259E-03  7072   0.257E-02 0.563E-05
CGA:  21    -0.355148486043E+03   -0.93919E-04   -0.94003E-04  7072   0.119E-02 0.201E-05
CGA:  22    -0.355148598892E+03   -0.11285E-03   -0.11285E-03  7072   0.152E-02 0.105E-06
CGA:  23    -0.355148680453E+03   -0.81561E-04   -0.81583E-04  7072   0.921E-03 0.109E-05
CGA:  24    -0.355148736735E+03   -0.56281E-04   -0.56282E-04  7072   0.735E-03 0.580E-06
CGA:  25    -0.355148771974E+03   -0.35239E-04   -0.35268E-04  7072   0.409E-03 0.186E-05
CGA:  26    -0.355148800699E+03   -0.28725E-04   -0.28723E-04  7072   0.412E-03 0.204E-06
CGA:  27    -0.355148834418E+03   -0.33719E-04   -0.33709E-04  7072   0.380E-03 0.587E-06
CGA:  28    -0.355148848300E+03   -0.13881E-04   -0.13879E-04  7072   0.164E-03 0.262E-06
CGA:  29    -0.355148867749E+03   -0.19449E-04   -0.19310E-04  7072   0.229E-03 0.254E-05
CGA:  30    -0.355148880031E+03   -0.12282E-04   -0.12293E-04  7072   0.207E-03 0.996E-06
CGA:  31    -0.355148895259E+03   -0.15228E-04   -0.15218E-04  7072   0.157E-03 0.125E-05
SDA:  32    -0.355148902712E+03   -0.74530E-05   -0.74571E-05  7072   0.105E-03 0.235E-06
   9 F= -.35514890E+03 E0= -.35513421E+03  d E =-.287665E-01  mag=     3.7329
       N       E                     dE             d eps       ncg     rms          ort
SDA:   1    -0.339516076742E+03    0.15633E+02    0.00000E+00  7072   0.390E+02 0.000E+00
CGA:   2    -0.348770304179E+03   -0.92542E+01   -0.95992E+01  7072   0.116E+03-0.140E+01
CGA:   3    -0.352110458904E+03   -0.33402E+01   -0.32288E+01  7072   0.194E+02 0.612E+00
CGA:   4    -0.353232423705E+03   -0.11220E+01   -0.11363E+01  7072   0.181E+02 0.364E+00
CGA:   5    -0.354409508561E+03   -0.11771E+01   -0.11627E+01  7072   0.105E+02-0.902E+00
CGA:   6    -0.354752376795E+03   -0.34287E+00   -0.35781E+00  7072   0.307E+01-0.200E+00
CGA:   7    -0.354902536588E+03   -0.15016E+00   -0.14896E+00  7072   0.214E+01-0.130E-01
CGA:   8    -0.355006382971E+03   -0.10385E+00   -0.10450E+00  7072   0.930E+00 0.642E-02
CGA:   9    -0.355095088970E+03   -0.88706E-01   -0.89428E-01  7072   0.571E+00-0.192E-01
CGA:  10    -0.355114984768E+03   -0.19896E-01   -0.20322E-01  7072   0.242E+00-0.481E-02
CGA:  11    -0.355127813589E+03   -0.12829E-01   -0.12794E-01  7072   0.217E+00-0.794E-03
CGA:  12    -0.355140957070E+03   -0.13143E-01   -0.13158E-01  7072   0.766E-01 0.153E-02
CGA:  13    -0.355147194275E+03   -0.62372E-02   -0.62490E-02  7072   0.672E-01-0.512E-03
CGA:  14    -0.355149862940E+03   -0.26687E-02   -0.26792E-02  7072   0.315E-01-0.545E-04
CGA:  15    -0.355151300849E+03   -0.14379E-02   -0.14385E-02  7072   0.181E-01 0.572E-05
CGA:  16    -0.355153237462E+03   -0.19366E-02   -0.19339E-02  7072   0.138E-01 0.573E-04
CGA:  17    -0.355153962016E+03   -0.72455E-03   -0.72409E-03  7072   0.127E-01-0.894E-05
CGA:  18    -0.355154526690E+03   -0.56467E-03   -0.56544E-03  7072   0.393E-02 0.132E-05
CGA:  19    -0.355154907434E+03   -0.38074E-03   -0.38035E-03  7072   0.802E-02 0.102E-04
CGA:  20    -0.355155397374E+03   -0.48994E-03   -0.49007E-03  7072   0.327E-02 0.163E-04
CGA:  21    -0.355155565725E+03   -0.16835E-03   -0.16835E-03  7072   0.275E-02 0.173E-06
CGA:  22    -0.355155705591E+03   -0.13987E-03   -0.13993E-03  7072   0.152E-02 0.988E-06
CGA:  23    -0.355155811348E+03   -0.10576E-03   -0.10577E-03  7072   0.146E-02-0.146E-05
CGA:  24    -0.355155930574E+03   -0.11923E-03   -0.11911E-03  7072   0.943E-03 0.577E-05
CGA:  25    -0.355155961490E+03   -0.30917E-04   -0.30972E-04  7072   0.422E-03 0.663E-06
CGA:  26    -0.355156001863E+03   -0.40373E-04   -0.40282E-04  7072   0.551E-03 0.267E-05
CGA:  27    -0.355156040353E+03   -0.38490E-04   -0.38486E-04  7072   0.322E-03 0.953E-06
CGA:  28    -0.355156057804E+03   -0.17451E-04   -0.17469E-04  7072   0.367E-03 0.161E-05
CGA:  29    -0.355156079277E+03   -0.21473E-04   -0.21485E-04  7072   0.152E-03 0.184E-05
CGA:  30    -0.355156098531E+03   -0.19254E-04   -0.19143E-04  7072   0.319E-03 0.175E-05
CGA:  31    -0.355156112709E+03   -0.14178E-04   -0.14195E-04  7072   0.166E-03 0.705E-06
SDA:  32    -0.355156123242E+03   -0.10534E-04   -0.10536E-04  7072   0.136E-03 0.812E-06
CGA:  33    -0.355156127415E+03   -0.41724E-05   -0.41541E-05  7072   0.617E-04-0.483E-06
  10 F= -.35515613E+03 E0= -.35514127E+03  d E =-.722470E-02  mag=     3.7521
       N       E                     dE             d eps       ncg     rms          ort
SDA:   1    -0.346754381944E+03    0.84017E+01    0.00000E+00  7072   0.235E+02 0.000E+00
CGA:   2    -0.349905099680E+03   -0.31507E+01   -0.34129E+01  7072   0.809E+02-0.292E+01
CGA:   3    -0.352761559874E+03   -0.28565E+01   -0.27582E+01  7072   0.295E+02 0.180E+01
CGA:   4    -0.353755612841E+03   -0.99405E+00   -0.10397E+01  7072   0.919E+01-0.427E+00
CGA:   5    -0.354326968909E+03   -0.57136E+00   -0.57233E+00  7072   0.107E+02 0.184E+00
CGA:   6    -0.354829114908E+03   -0.50215E+00   -0.50236E+00  7072   0.374E+01 0.276E-01
CGA:   7    -0.354966995667E+03   -0.13788E+00   -0.14279E+00  7072   0.226E+01-0.450E-01
CGA:   8    -0.355063534083E+03   -0.96538E-01   -0.96101E-01  7072   0.698E+00-0.141E-02
CGA:   9    -0.355105574447E+03   -0.42040E-01   -0.42029E-01  7072   0.712E+00-0.265E-02
CGA:  10    -0.355140901216E+03   -0.35327E-01   -0.35570E-01  7072   0.528E+00 0.540E-02
CGA:  11    -0.355159079105E+03   -0.18178E-01   -0.18184E-01  7072   0.123E+00-0.115E-03
CGA:  12    -0.355166792186E+03   -0.77131E-02   -0.77079E-02  7072   0.132E+00 0.115E-02
CGA:  13    -0.355173691041E+03   -0.68989E-02   -0.68995E-02  7072   0.704E-01 0.279E-04
CGA:  14    -0.355176781081E+03   -0.30900E-02   -0.30875E-02  7072   0.491E-01-0.325E-04
CGA:  15    -0.355179538841E+03   -0.27578E-02   -0.27588E-02  7072   0.341E-01 0.159E-03
CGA:  16    -0.355180963326E+03   -0.14245E-02   -0.14236E-02  7072   0.992E-02-0.533E-05
CGA:  17    -0.355182080588E+03   -0.11173E-02   -0.11163E-02  7072   0.164E-01 0.163E-04
CGA:  18    -0.355182740672E+03   -0.66008E-03   -0.66165E-03  7072   0.951E-02 0.465E-05
CGA:  19    -0.355183254243E+03   -0.51357E-03   -0.51385E-03  7072   0.544E-02 0.200E-04
CGA:  20    -0.355183548453E+03   -0.29421E-03   -0.29427E-03  7072   0.400E-02 0.389E-05
CGA:  21    -0.355183833463E+03   -0.28501E-03   -0.28486E-03  7072   0.423E-02 0.837E-05
CGA:  22    -0.355184252126E+03   -0.41866E-03   -0.41811E-03  7072   0.307E-02 0.126E-04
CGA:  23    -0.355184343888E+03   -0.91762E-04   -0.92038E-04  7072   0.142E-02-0.339E-05
CGA:  24    -0.355184488304E+03   -0.14442E-03   -0.14444E-03  7072   0.179E-02-0.589E-06
CGA:  25    -0.355184594513E+03   -0.10621E-03   -0.10623E-03  7072   0.155E-02 0.658E-05
CGA:  26    -0.355184691347E+03   -0.96834E-04   -0.96833E-04  7072   0.590E-03 0.952E-05
CGA:  27    -0.355184727774E+03   -0.36427E-04   -0.36428E-04  7072   0.600E-03 0.125E-05
CGA:  28    -0.355184765182E+03   -0.37408E-04   -0.37408E-04  7072   0.784E-03 0.117E-05
CGA:  29    -0.355184810274E+03   -0.45092E-04   -0.45094E-04  7072   0.349E-03 0.391E-06
CGA:  30    -0.355184833554E+03   -0.23279E-04   -0.23275E-04  7072   0.298E-03 0.903E-06
CGA:  31    -0.355184851677E+03   -0.18123E-04   -0.18124E-04  7072   0.174E-03 0.845E-06
SDA:  32    -0.355184864419E+03   -0.12743E-04   -0.12742E-04  7072   0.213E-03 0.670E-07
CGA:  33    -0.355184871473E+03   -0.70532E-05   -0.70588E-05  7072   0.797E-04-0.935E-07
  11 F= -.35518487E+03 E0= -.35516987E+03  d E =-.287441E-01  mag=     3.7016
       N       E                     dE             d eps       ncg     rms          ort
SDA:   1    -0.345523967472E+03    0.96609E+01    0.00000E+00  7072   0.261E+02 0.000E+00
CGA:   2    -0.350497773325E+03   -0.49738E+01   -0.52966E+01  7072   0.786E+02-0.225E+01
CGA:   3    -0.352854681519E+03   -0.23569E+01   -0.23543E+01  7072   0.146E+02-0.460E+00
CGA:   4    -0.353908793529E+03   -0.10541E+01   -0.10583E+01  7072   0.125E+02-0.419E+00
CGA:   5    -0.354532884683E+03   -0.62409E+00   -0.62413E+00  7072   0.847E+01-0.442E-02
CGA:   6    -0.354833352287E+03   -0.30047E+00   -0.30556E+00  7072   0.386E+01-0.626E-01
CGA:   7    -0.355033682196E+03   -0.20033E+00   -0.20106E+00  7072   0.113E+01 0.622E-02
CGA:   8    -0.355079417953E+03   -0.45736E-01   -0.45295E-01  7072   0.894E+00 0.180E-02
CGA:   9    -0.355144358240E+03   -0.64940E-01   -0.64931E-01  7072   0.858E+00 0.632E-03
CGA:  10    -0.355171333245E+03   -0.26975E-01   -0.27118E-01  7072   0.210E+00-0.282E-02
CGA:  11    -0.355181834775E+03   -0.10502E-01   -0.10547E-01  7072   0.128E+00 0.116E-02
CGA:  12    -0.355192802854E+03   -0.10968E-01   -0.10951E-01  7072   0.104E+00 0.572E-03
CGA:  13    -0.355197171527E+03   -0.43687E-02   -0.43681E-02  7072   0.830E-01-0.956E-05
CGA:  14    -0.355201196853E+03   -0.40253E-02   -0.40310E-02  7072   0.207E-01 0.945E-04
CGA:  15    -0.355202644725E+03   -0.14479E-02   -0.14454E-02  7072   0.270E-01 0.178E-03
CGA:  16    -0.355204315008E+03   -0.16703E-02   -0.16703E-02  7072   0.139E-01 0.688E-04
CGA:  17    -0.355205243411E+03   -0.92840E-03   -0.92817E-03  7072   0.175E-01 0.244E-04
CGA:  18    -0.355205921418E+03   -0.67801E-03   -0.67721E-03  7072   0.562E-02 0.214E-05
CGA:  19    -0.355206328064E+03   -0.40665E-03   -0.40654E-03  7072   0.599E-02 0.631E-05
CGA:  20    -0.355207041645E+03   -0.71358E-03   -0.71252E-03  7072   0.445E-02 0.178E-04
CGA:  21    -0.355207266323E+03   -0.22468E-03   -0.22465E-03  7072   0.522E-02-0.130E-05
CGA:  22    -0.355207534002E+03   -0.26768E-03   -0.26785E-03  7072   0.170E-02 0.492E-05
CGA:  23    -0.355207710313E+03   -0.17631E-03   -0.17597E-03  7072   0.280E-02 0.771E-05
CGA:  24    -0.355207917035E+03   -0.20672E-03   -0.20669E-03  7072   0.171E-02 0.433E-05
CGA:  25    -0.355207980180E+03   -0.63146E-04   -0.63256E-04  7072   0.844E-03 0.190E-05
CGA:  26    -0.355208039211E+03   -0.59031E-04   -0.59017E-04  7072   0.113E-02 0.190E-05
CGA:  27    -0.355208109237E+03   -0.70026E-04   -0.70030E-04  7072   0.745E-03 0.269E-05
CGA:  28    -0.355208171504E+03   -0.62268E-04   -0.62218E-04  7072   0.556E-03 0.237E-05
CGA:  29    -0.355208205327E+03   -0.33823E-04   -0.33831E-04  7072   0.242E-03 0.168E-05
CGA:  30    -0.355208223002E+03   -0.17675E-04   -0.17673E-04  7072   0.538E-03 0.148E-06
CGA:  31    -0.355208260109E+03   -0.37107E-04   -0.37115E-04  7072   0.180E-03-0.168E-05
SDA:  32    -0.355208274459E+03   -0.14350E-04   -0.14347E-04  7072   0.133E-03 0.188E-06
CGA:  33    -0.355208280291E+03   -0.58313E-05   -0.58373E-05  7072   0.544E-04 0.220E-06
CGA:  34    -0.355208292490E+03   -0.12199E-04   -0.12415E-04  7072   0.171E-03-0.134E-05
CGA:  35    -0.355208297790E+03   -0.52997E-05   -0.52823E-05  7072   0.603E-04-0.512E-06
  12 F= -.35520830E+03 E0= -.35519359E+03  d E =-.234263E-01  mag=     3.7818
       N       E                     dE             d eps       ncg     rms          ort
SDA:   1    -0.353841006756E+03    0.13673E+01    0.00000E+00  7072   0.369E+01 0.000E+00
CGA:   2    -0.354476877058E+03   -0.63587E+00   -0.64522E+00  7072   0.102E+02-0.933E-01
CGA:   3    -0.354921977004E+03   -0.44510E+00   -0.44298E+00  7072   0.199E+01 0.268E-01
CGA:   4    -0.355033592816E+03   -0.11162E+00   -0.11254E+00  7072   0.185E+01 0.766E-02
CGA:   5    -0.355143939166E+03   -0.11035E+00   -0.11034E+00  7072   0.137E+01-0.691E-03
CGA:   6    -0.355189174105E+03   -0.45235E-01   -0.44158E-01  7072   0.203E+00 0.186E-01
CGA:   7    -0.355208750647E+03   -0.19577E-01   -0.19580E-01  7072   0.138E+00-0.918E-04
CGA:   8    -0.355219168878E+03   -0.10418E-01   -0.10420E-01  7072   0.863E-01-0.291E-03
CGA:   9    -0.355222927409E+03   -0.37585E-02   -0.37652E-02  7072   0.462E-01-0.385E-04
CGA:  10    -0.355224825435E+03   -0.18980E-02   -0.18942E-02  7072   0.221E-01 0.311E-04
CGA:  11    -0.355226442340E+03   -0.16169E-02   -0.16170E-02  7072   0.224E-01-0.137E-04
CGA:  12    -0.355227532476E+03   -0.10901E-02   -0.10929E-02  7072   0.654E-02 0.394E-06
CGA:  13    -0.355228057344E+03   -0.52487E-03   -0.52482E-03  7072   0.378E-02 0.211E-05
CGA:  14    -0.355228233591E+03   -0.17625E-03   -0.17643E-03  7072   0.303E-02 0.617E-06
CGA:  15    -0.355228426637E+03   -0.19305E-03   -0.19303E-03  7072   0.318E-02-0.367E-05
CGA:  16    -0.355228596181E+03   -0.16954E-03   -0.16957E-03  7072   0.697E-03-0.199E-05
CGA:  17    -0.355228662946E+03   -0.66766E-04   -0.66782E-04  7072   0.892E-03-0.403E-06
CGA:  18    -0.355228707001E+03   -0.44054E-04   -0.44096E-04  7072   0.628E-03 0.168E-05
CGA:  19    -0.355228751817E+03   -0.44817E-04   -0.44814E-04  7072   0.782E-03 0.587E-06
CGA:  20    -0.355228790355E+03   -0.38538E-04   -0.38565E-04  7072   0.275E-03 0.447E-06
CGA:  21    -0.355228806302E+03   -0.15947E-04   -0.15949E-04  7072   0.201E-03 0.295E-06
CGA:  22    -0.355228825178E+03   -0.18876E-04   -0.18829E-04  7072   0.161E-03 0.170E-05
CGA:  23    -0.355228834730E+03   -0.95520E-05   -0.95544E-05  7072   0.212E-03 0.260E-06
CGA:  24    -0.355228845081E+03   -0.10352E-04   -0.10363E-04  7072   0.462E-04 0.526E-06
CGA:  25    -0.355228848731E+03   -0.36499E-05   -0.36451E-05  7072   0.495E-04 0.354E-06
  13 F= -.35522885E+03 E0= -.35521397E+03  d E =-.205509E-01  mag=     3.7596
       N       E                     dE             d eps       ncg     rms          ort
SDA:   1    -0.354884206780E+03    0.34464E+00    0.00000E+00  7072   0.101E+01 0.000E+00
CGA:   2    -0.354982475631E+03   -0.98269E-01   -0.98300E-01  7072   0.308E+01-0.215E-03
CGA:   3    -0.355147799105E+03   -0.16532E+00   -0.16501E+00  7072   0.795E+00-0.461E-02
CGA:   4    -0.355186159436E+03   -0.38360E-01   -0.38429E-01  7072   0.302E+00 0.164E-03
CGA:   5    -0.355221005795E+03   -0.34846E-01   -0.34884E-01  7072   0.201E+00-0.716E-03
CGA:   6    -0.355229452764E+03   -0.84470E-02   -0.85132E-02  7072   0.539E-01-0.385E-03
CGA:   7    -0.355232242565E+03   -0.27898E-02   -0.27936E-02  7072   0.591E-01 0.323E-04
CGA:   8    -0.355235207705E+03   -0.29651E-02   -0.29752E-02  7072   0.204E-01 0.853E-04
CGA:   9    -0.355236576782E+03   -0.13691E-02   -0.13691E-02  7072   0.107E-01-0.724E-05
CGA:  10    -0.355237099879E+03   -0.52310E-03   -0.52380E-03  7072   0.504E-02 0.819E-05
CGA:  11    -0.355237479617E+03   -0.37974E-03   -0.37975E-03  7072   0.451E-02-0.937E-06
CGA:  12    -0.355237726551E+03   -0.24693E-03   -0.24696E-03  7072   0.231E-02-0.239E-05
CGA:  13    -0.355237809510E+03   -0.82959E-04   -0.82968E-04  7072   0.121E-02-0.222E-05
CGA:  14    -0.355237896103E+03   -0.86593E-04   -0.86560E-04  7072   0.491E-03 0.362E-05
CGA:  15    -0.355237957864E+03   -0.61761E-04   -0.61899E-04  7072   0.576E-03-0.231E-05
CGA:  16    -0.355237986132E+03   -0.28269E-04   -0.28278E-04  7072   0.342E-03 0.442E-07
CGA:  17    -0.355238000723E+03   -0.14591E-04   -0.14589E-04  7072   0.213E-03-0.122E-06
CGA:  18    -0.355238016281E+03   -0.15558E-04   -0.15554E-04  7072   0.184E-03 0.448E-06
CGA:  19    -0.355238032363E+03   -0.16082E-04   -0.16091E-04  7072   0.222E-03-0.414E-06
CGA:  20    -0.355238047111E+03   -0.14748E-04   -0.14748E-04  7072   0.111E-03-0.343E-06
CGA:  21    -0.355238052396E+03   -0.52846E-05   -0.52794E-05  7072   0.688E-04-0.271E-06
  14 F= -.35523805E+03 E0= -.35522322E+03  d E =-.920366E-02  mag=     3.7601
       N       E                     dE             d eps       ncg     rms          ort
SDA:   1    -0.354178880078E+03    0.10592E+01    0.00000E+00  7072   0.295E+01 0.000E+00
CGA:   2    -0.354541968065E+03   -0.36309E+00   -0.35944E+00  7072   0.997E+01 0.700E-01
CGA:   3    -0.354990732603E+03   -0.44876E+00   -0.44553E+00  7072   0.188E+01-0.811E-02
CGA:   4    -0.355090189541E+03   -0.99457E-01   -0.10138E+00  7072   0.111E+01 0.323E-01
CGA:   5    -0.355183742583E+03   -0.93553E-01   -0.93859E-01  7072   0.792E+00-0.135E-01
CGA:   6    -0.355214559115E+03   -0.30817E-01   -0.30401E-01  7072   0.282E+00 0.311E-02
CGA:   7    -0.355227233964E+03   -0.12675E-01   -0.12592E-01  7072   0.153E+00 0.547E-04
CGA:   8    -0.355234006414E+03   -0.67725E-02   -0.68416E-02  7072   0.739E-01 0.996E-04
CGA:   9    -0.355239883292E+03   -0.58769E-02   -0.58753E-02  7072   0.438E-01 0.810E-04
CGA:  10    -0.355242227051E+03   -0.23438E-02   -0.23462E-02  7072   0.182E-01 0.630E-04
CGA:  11    -0.355243467690E+03   -0.12406E-02   -0.12406E-02  7072   0.143E-01 0.828E-05
CGA:  12    -0.355243959909E+03   -0.49222E-03   -0.49274E-03  7072   0.631E-02-0.389E-05
CGA:  13    -0.355244479135E+03   -0.51923E-03   -0.51924E-03  7072   0.550E-02-0.181E-07
CGA:  14    -0.355244800783E+03   -0.32165E-03   -0.32173E-03  7072   0.195E-02 0.840E-05
CGA:  15    -0.355244901354E+03   -0.10057E-03   -0.10056E-03  7072   0.153E-02-0.116E-05
CGA:  16    -0.355245022518E+03   -0.12116E-03   -0.12117E-03  7072   0.170E-02-0.890E-06
CGA:  17    -0.355245097435E+03   -0.74917E-04   -0.74864E-04  7072   0.115E-02-0.419E-06
CGA:  18    -0.355245183470E+03   -0.86034E-04   -0.85984E-04  7072   0.436E-03 0.384E-05
CGA:  19    -0.355245222459E+03   -0.38990E-04   -0.39010E-04  7072   0.668E-03-0.804E-06
CGA:  20    -0.355245279627E+03   -0.57168E-04   -0.57164E-04  7072   0.865E-03-0.145E-06
CGA:  21    -0.355245310180E+03   -0.30553E-04   -0.30535E-04  7072   0.229E-03-0.104E-05
CGA:  22    -0.355245328173E+03   -0.17993E-04   -0.17985E-04  7072   0.314E-03 0.484E-06
CGA:  23    -0.355245350603E+03   -0.22430E-04   -0.22431E-04  7072   0.151E-03-0.201E-06
CGA:  24    -0.355245360375E+03   -0.97716E-05   -0.97720E-05  7072   0.144E-03 0.264E-06
  15 F= -.35524536E+03 E0= -.35523057E+03  d E =-.730798E-02  mag=     3.7581
       N       E                     dE             d eps       ncg     rms          ort
SDA:   1    -0.346770138813E+03    0.84752E+01    0.00000E+00  7072   0.243E+02 0.000E+00
CGA:   2    -0.349818678965E+03   -0.30485E+01   -0.30849E+01  7072   0.660E+02-0.146E+00
CGA:   3    -0.353029988017E+03   -0.32113E+01   -0.29382E+01  7072   0.176E+02 0.226E+00
CGA:   4    -0.353854364770E+03   -0.82438E+00   -0.80912E+00  7072   0.995E+01-0.701E-01
CGA:   5    -0.354641347618E+03   -0.78698E+00   -0.78622E+00  7072   0.827E+01 0.350E-01
CGA:   6    -0.354954481114E+03   -0.31313E+00   -0.29618E+00  7072   0.232E+01 0.186E+00
CGA:   7    -0.355073342842E+03   -0.11886E+00   -0.11842E+00  7072   0.177E+01-0.841E-02
CGA:   8    -0.355145219688E+03   -0.71877E-01   -0.72613E-01  7072   0.563E+00 0.339E-03
CGA:   9    -0.355197932308E+03   -0.52713E-01   -0.52547E-01  7072   0.451E+00 0.431E-02
CGA:  10    -0.355216548238E+03   -0.18616E-01   -0.18751E-01  7072   0.230E+00-0.356E-03
CGA:  11    -0.355225913335E+03   -0.93651E-02   -0.93945E-02  7072   0.116E+00-0.107E-03
CGA:  12    -0.355235129596E+03   -0.92163E-02   -0.92002E-02  7072   0.639E-01 0.666E-03
CGA:  13    -0.355238914653E+03   -0.37851E-02   -0.37884E-02  7072   0.538E-01 0.320E-03
CGA:  14    -0.355241624304E+03   -0.27097E-02   -0.27147E-02  7072   0.289E-01 0.865E-04
CGA:  15    -0.355242883716E+03   -0.12594E-02   -0.12620E-02  7072   0.156E-01-0.152E-06
CGA:  16    -0.355244076111E+03   -0.11924E-02   -0.11912E-02  7072   0.150E-01 0.479E-04
CGA:  17    -0.355245032822E+03   -0.95671E-03   -0.95662E-03  7072   0.112E-01 0.345E-04
CGA:  18    -0.355245740581E+03   -0.70776E-03   -0.70771E-03  7072   0.739E-02 0.392E-04
CGA:  19    -0.355246028806E+03   -0.28823E-03   -0.28888E-03  7072   0.471E-02-0.251E-06
CGA:  20    -0.355246726251E+03   -0.69744E-03   -0.69650E-03  7072   0.493E-02 0.112E-04
CGA:  21    -0.355246985000E+03   -0.25875E-03   -0.25910E-03  7072   0.355E-02 0.956E-05
CGA:  22    -0.355247180828E+03   -0.19583E-03   -0.19588E-03  7072   0.285E-02 0.348E-05
CGA:  23    -0.355247340733E+03   -0.15990E-03   -0.15993E-03  7072   0.176E-02 0.385E-05
CGA:  24    -0.355247485954E+03   -0.14522E-03   -0.14511E-03  7072   0.188E-02 0.530E-05
CGA:  25    -0.355247577812E+03   -0.91857E-04   -0.91950E-04  7072   0.607E-03 0.409E-05
CGA:  26    -0.355247617590E+03   -0.39778E-04   -0.39777E-04  7072   0.898E-03 0.937E-06
CGA:  27    -0.355247671688E+03   -0.54098E-04   -0.54114E-04  7072   0.435E-03 0.329E-05
CGA:  28    -0.355247703122E+03   -0.31434E-04   -0.31418E-04  7072   0.330E-03 0.205E-05
CGA:  29    -0.355247728639E+03   -0.25517E-04   -0.25498E-04  7072   0.341E-03 0.146E-05
CGA:  30    -0.355247742422E+03   -0.13783E-04   -0.13786E-04  7072   0.171E-03 0.485E-07
CGA:  31    -0.355247758924E+03   -0.16501E-04   -0.16478E-04  7072   0.228E-03 0.682E-06
SDA:  32    -0.355247771188E+03   -0.12265E-04   -0.12267E-04  7072   0.956E-04 0.145E-06
CGA:  33    -0.355247774654E+03   -0.34662E-05   -0.34662E-05  7072   0.631E-04-0.351E-07
  16 F= -.35524777E+03 E0= -.35523310E+03  d E =-.241428E-02  mag=     3.7476
       N       E                     dE             d eps       ncg     rms          ort
SDA:   1    -0.339566804652E+03    0.15681E+02    0.00000E+00  7072   0.591E+02 0.000E+00
CGA:   2    -0.346731516678E+03   -0.71647E+01   -0.73391E+01  7072   0.452E+02 0.176E+00
CGA:   3    -0.349455475718E+03   -0.27240E+01   -0.27235E+01  7072   0.435E+02-0.132E+00
CGA:   4    -0.352221109515E+03   -0.27656E+01   -0.27164E+01  7072   0.217E+02-0.483E+01
CGA:   5    -0.353285237339E+03   -0.10641E+01   -0.10015E+01  7072   0.216E+02-0.793E+00
CGA:   6    -0.354110261415E+03   -0.82502E+00   -0.79603E+00  7072   0.782E+01 0.389E+00
CGA:   7    -0.354350925577E+03   -0.24066E+00   -0.23200E+00  7072   0.401E+01 0.129E+00
CGA:   8    -0.354466105252E+03   -0.11518E+00   -0.11098E+00  7072   0.241E+01 0.861E-01
CGA:   9    -0.354601064309E+03   -0.13496E+00   -0.13528E+00  7072   0.247E+01 0.194E-01
CGA:  10    -0.354663490547E+03   -0.62426E-01   -0.62985E-01  7072   0.117E+01-0.185E-01
CGA:  11    -0.354721661846E+03   -0.58171E-01   -0.58182E-01  7072   0.780E+00 0.178E-03
CGA:  12    -0.354743795919E+03   -0.22134E-01   -0.23478E-01  7072   0.408E+00-0.190E-01
CGA:  13    -0.354760709071E+03   -0.16913E-01   -0.17061E-01  7072   0.383E+00 0.184E-02
CGA:  14    -0.354780673412E+03   -0.19964E-01   -0.20018E-01  7072   0.282E+00 0.523E-02
CGA:  15    -0.354790896998E+03   -0.10224E-01   -0.10534E-01  7072   0.112E+00 0.125E-03
CGA:  16    -0.354795394758E+03   -0.44978E-02   -0.45367E-02  7072   0.985E-01 0.389E-03
CGA:  17    -0.354800821449E+03   -0.54267E-02   -0.54262E-02  7072   0.383E-01 0.488E-03
CGA:  18    -0.354803777617E+03   -0.29562E-02   -0.29285E-02  7072   0.465E-01 0.984E-03
CGA:  19    -0.354805534028E+03   -0.17564E-02   -0.17573E-02  7072   0.235E-01 0.119E-04
CGA:  20    -0.354806802840E+03   -0.12688E-02   -0.12688E-02  7072   0.174E-01 0.376E-04
CGA:  21    -0.354807849804E+03   -0.10470E-02   -0.10437E-02  7072   0.820E-02 0.365E-03
CGA:  22    -0.354808320344E+03   -0.47054E-03   -0.47054E-03  7072   0.580E-02-0.182E-05
CGA:  23    -0.354808753324E+03   -0.43298E-03   -0.43275E-03  7072   0.896E-02 0.388E-05
CGA:  24    -0.354809105366E+03   -0.35204E-03   -0.35233E-03  7072   0.302E-02-0.135E-04
CGA:  25    -0.354809319767E+03   -0.21440E-03   -0.21451E-03  7072   0.229E-02-0.839E-05
CGA:  26    -0.354809466527E+03   -0.14676E-03   -0.14665E-03  7072   0.119E-02 0.444E-05
CGA:  27    -0.354809564491E+03   -0.97963E-04   -0.98255E-04  7072   0.186E-02-0.112E-04
CGA:  28    -0.354809654269E+03   -0.89778E-04   -0.89684E-04  7072   0.907E-03-0.116E-04
CGA:  29    -0.354809684445E+03   -0.30176E-04   -0.30154E-04  7072   0.342E-03-0.342E-05
CGA:  30    -0.354809725376E+03   -0.40931E-04   -0.40851E-04  7072   0.319E-03 0.120E-05
CGA:  31    -0.354809753833E+03   -0.28457E-04   -0.28478E-04  7072   0.401E-03-0.827E-06
SDA:  32    -0.354809774291E+03   -0.20458E-04   -0.20462E-04  7072   0.232E-03 0.459E-06
CGA:  33    -0.354809780335E+03   -0.60440E-05   -0.60621E-05  7072   0.103E-03 0.497E-06
  17 F= -.35480978E+03 E0= -.35479507E+03  d E =0.437994E+00  mag=     3.8593
       N       E                     dE             d eps       ncg     rms          ort
SDA:   1    -0.352803062662E+03    0.20067E+01    0.00000E+00  7072   0.823E+01 0.000E+00
CGA:   2    -0.353905334971E+03   -0.11023E+01   -0.10892E+01  7072   0.915E+01 0.209E+00
CGA:   3    -0.354292765821E+03   -0.38743E+00   -0.36149E+00  7072   0.500E+01 0.873E-01
CGA:   4    -0.354654074100E+03   -0.36131E+00   -0.36267E+00  7072   0.575E+01-0.934E-01
CGA:   5    -0.354898810598E+03   -0.24474E+00   -0.24465E+00  7072   0.225E+01-0.772E-02
CGA:   6    -0.355030901065E+03   -0.13209E+00   -0.13210E+00  7072   0.926E+00 0.185E-02
CGA:   7    -0.355081886751E+03   -0.50986E-01   -0.51049E-01  7072   0.374E+00 0.358E-02
CGA:   8    -0.355097368114E+03   -0.15481E-01   -0.15597E-01  7072   0.317E+00 0.106E-03
CGA:   9    -0.355118064952E+03   -0.20697E-01   -0.20685E-01  7072   0.120E+00 0.149E-02
CGA:  10    -0.355124889204E+03   -0.68243E-02   -0.68194E-02  7072   0.707E-01-0.477E-03
CGA:  11    -0.355128854626E+03   -0.39654E-02   -0.39661E-02  7072   0.515E-01 0.782E-04
CGA:  12    -0.355131690983E+03   -0.28364E-02   -0.28373E-02  7072   0.369E-01 0.784E-04
CGA:  13    -0.355133654956E+03   -0.19640E-02   -0.19636E-02  7072   0.264E-01-0.205E-04
CGA:  14    -0.355134719168E+03   -0.10642E-02   -0.10674E-02  7072   0.623E-02 0.685E-07
CGA:  15    -0.355135566369E+03   -0.84720E-03   -0.84468E-03  7072   0.854E-02 0.340E-04
CGA:  16    -0.355135869007E+03   -0.30264E-03   -0.30268E-03  7072   0.476E-02 0.558E-05
CGA:  17    -0.355136236297E+03   -0.36729E-03   -0.36756E-03  7072   0.253E-02-0.108E-04
CGA:  18    -0.355136353599E+03   -0.11730E-03   -0.11747E-03  7072   0.168E-02 0.447E-05
CGA:  19    -0.355136503290E+03   -0.14969E-03   -0.14954E-03  7072   0.212E-02 0.571E-05
CGA:  20    -0.355136603549E+03   -0.10026E-03   -0.10040E-03  7072   0.121E-02 0.524E-05
CGA:  21    -0.355136668915E+03   -0.65366E-04   -0.65369E-04  7072   0.961E-03 0.921E-06
CGA:  22    -0.355136734829E+03   -0.65914E-04   -0.65889E-04  7072   0.517E-03 0.311E-05
CGA:  23    -0.355136771977E+03   -0.37149E-04   -0.37128E-04  7072   0.636E-03 0.209E-05
CGA:  24    -0.355136806572E+03   -0.34594E-04   -0.34617E-04  7072   0.509E-03 0.245E-05
CGA:  25    -0.355136831365E+03   -0.24794E-04   -0.24796E-04  7072   0.151E-03 0.226E-06
CGA:  26    -0.355136847844E+03   -0.16479E-04   -0.16506E-04  7072   0.258E-03-0.593E-06
CGA:  27    -0.355136857697E+03   -0.98525E-05   -0.98377E-05  7072   0.107E-03-0.610E-06
  18 F= -.35513686E+03 E0= -.35512221E+03  d E =-.327077E+00  mag=     3.8160
       N       E                     dE             d eps       ncg     rms          ort
SDA:   1    -0.354129322741E+03    0.10075E+01    0.00000E+00  7072   0.384E+01 0.000E+00
CGA:   2    -0.354705731873E+03   -0.57641E+00   -0.57634E+00  7072   0.371E+01 0.234E-02
CGA:   3    -0.354866011636E+03   -0.16028E+00   -0.15958E+00  7072   0.262E+01 0.232E-02
CGA:   4    -0.355030936474E+03   -0.16492E+00   -0.16494E+00  7072   0.263E+01 0.222E-02
CGA:   5    -0.355159129754E+03   -0.12819E+00   -0.12772E+00  7072   0.952E+00-0.434E-02
CGA:   6    -0.355206325621E+03   -0.47196E-01   -0.47132E-01  7072   0.440E+00-0.104E-02
CGA:   7    -0.355230923780E+03   -0.24598E-01   -0.24633E-01  7072   0.134E+00 0.143E-02
CGA:   8    -0.355239084008E+03   -0.81602E-02   -0.81673E-02  7072   0.178E+00 0.842E-03
CGA:   9    -0.355247479828E+03   -0.83958E-02   -0.83850E-02  7072   0.481E-01-0.108E-03
CGA:  10    -0.355250387224E+03   -0.29074E-02   -0.29084E-02  7072   0.258E-01 0.171E-03
CGA:  11    -0.355252525055E+03   -0.21378E-02   -0.21404E-02  7072   0.264E-01-0.950E-04
CGA:  12    -0.355253570190E+03   -0.10451E-02   -0.10458E-02  7072   0.149E-01-0.526E-05
CGA:  13    -0.355254433601E+03   -0.86341E-03   -0.86309E-03  7072   0.593E-02-0.324E-04
CGA:  14    -0.355254785244E+03   -0.35164E-03   -0.35171E-03  7072   0.327E-02 0.735E-05
CGA:  15    -0.355255061346E+03   -0.27610E-03   -0.27610E-03  7072   0.490E-02-0.737E-06
CGA:  16    -0.355255245157E+03   -0.18381E-03   -0.18388E-03  7072   0.151E-02-0.348E-06
CGA:  17    -0.355255376716E+03   -0.13156E-03   -0.13161E-03  7072   0.924E-03-0.152E-05
CGA:  18    -0.355255419857E+03   -0.43141E-04   -0.43187E-04  7072   0.698E-03 0.137E-05
CGA:  19    -0.355255481814E+03   -0.61957E-04   -0.61870E-04  7072   0.852E-03 0.327E-05
CGA:  20    -0.355255516988E+03   -0.35175E-04   -0.35269E-04  7072   0.398E-03 0.340E-05
CGA:  21    -0.355255545018E+03   -0.28030E-04   -0.28008E-04  7072   0.289E-03 0.294E-05
CGA:  22    -0.355255564184E+03   -0.19166E-04   -0.19161E-04  7072   0.173E-03 0.181E-05
CGA:  23    -0.355255575455E+03   -0.11271E-04   -0.11269E-04  7072   0.272E-03 0.119E-05
CGA:  24    -0.355255591289E+03   -0.15834E-04   -0.15849E-04  7072   0.625E-04 0.263E-05
CGA:  25    -0.355255595793E+03   -0.45044E-05   -0.45019E-05  7072   0.621E-04 0.312E-06
  19 F= -.35525560E+03 E0= -.35524102E+03  d E =-.118738E+00  mag=     3.7868
       N       E                     dE             d eps       ncg     rms          ort
SDA:   1    -0.354846472277E+03    0.40912E+00    0.00000E+00  7072   0.167E+01 0.000E+00
CGA:   2    -0.354958754812E+03   -0.11228E+00   -0.11210E+00  7072   0.291E+01 0.357E-01
CGA:   3    -0.355117413760E+03   -0.15866E+00   -0.15850E+00  7072   0.916E+00-0.482E-02
CGA:   4    -0.355168183865E+03   -0.50770E-01   -0.50876E-01  7072   0.874E+00 0.450E-02
CGA:   5    -0.355242213511E+03   -0.74030E-01   -0.74065E-01  7072   0.420E+00-0.121E-02
CGA:   6    -0.355260540223E+03   -0.18327E-01   -0.18221E-01  7072   0.165E+00-0.197E-03
CGA:   7    -0.355268066697E+03   -0.75265E-02   -0.75121E-02  7072   0.114E+00-0.109E-03
CGA:   8    -0.355273469678E+03   -0.54030E-02   -0.54191E-02  7072   0.382E-01 0.207E-03
CGA:   9    -0.355277242953E+03   -0.37733E-02   -0.37785E-02  7072   0.264E-01-0.124E-03
CGA:  10    -0.355278177731E+03   -0.93478E-03   -0.93861E-03  7072   0.110E-01-0.430E-04
CGA:  11    -0.355278989805E+03   -0.81207E-03   -0.81243E-03  7072   0.134E-01-0.233E-04
CGA:  12    -0.355279592409E+03   -0.60260E-03   -0.60266E-03  7072   0.448E-02-0.451E-05
CGA:  13    -0.355279940700E+03   -0.34829E-03   -0.34844E-03  7072   0.296E-02-0.893E-05
CGA:  14    -0.355280082000E+03   -0.14130E-03   -0.14136E-03  7072   0.156E-02-0.209E-05
CGA:  15    -0.355280161528E+03   -0.79529E-04   -0.79479E-04  7072   0.141E-02-0.482E-05
CGA:  16    -0.355280256865E+03   -0.95336E-04   -0.95361E-04  7072   0.724E-03-0.499E-05
CGA:  17    -0.355280299380E+03   -0.42516E-04   -0.42510E-04  7072   0.428E-03-0.157E-05
CGA:  18    -0.355280323500E+03   -0.24119E-04   -0.24130E-04  7072   0.296E-03 0.195E-05
CGA:  19    -0.355280337856E+03   -0.14357E-04   -0.14372E-04  7072   0.226E-03 0.109E-05
CGA:  20    -0.355280356559E+03   -0.18702E-04   -0.18659E-04  7072   0.199E-03 0.198E-05
CGA:  21    -0.355280366917E+03   -0.10359E-04   -0.10372E-04  7072   0.982E-04 0.129E-05
CGA:  22    -0.355280374010E+03   -0.70927E-05   -0.70662E-05  7072   0.902E-04 0.257E-05
  20 F= -.35528037E+03 E0= -.35526582E+03  d E =-.247782E-01  mag=     3.7652
       N       E                     dE             d eps       ncg     rms          ort
SDA:   1    -0.355246431617E+03    0.33935E-01    0.00000E+00  7072   0.252E+00 0.000E+00
CGA:   2    -0.355253010126E+03   -0.65785E-02   -0.65342E-02  7072   0.112E+00 0.953E-03
CGA:   3    -0.355268470996E+03   -0.15461E-01   -0.15407E-01  7072   0.113E+00 0.738E-03
CGA:   4    -0.355273996052E+03   -0.55251E-02   -0.55109E-02  7072   0.467E-01-0.211E-03
CGA:   5    -0.355278201408E+03   -0.42054E-02   -0.42056E-02  7072   0.356E-01-0.151E-04
CGA:   6    -0.355279959104E+03   -0.17577E-02   -0.17570E-02  7072   0.134E-01-0.323E-04
CGA:   7    -0.355280786649E+03   -0.82755E-03   -0.82755E-03  7072   0.421E-02-0.487E-05
CGA:   8    -0.355281091070E+03   -0.30442E-03   -0.30453E-03  7072   0.387E-02-0.104E-04
CGA:   9    -0.355281268055E+03   -0.17699E-03   -0.17698E-03  7072   0.264E-02-0.352E-05
CGA:  10    -0.355281381742E+03   -0.11369E-03   -0.11361E-03  7072   0.697E-03-0.443E-05
CGA:  11    -0.355281449489E+03   -0.67747E-04   -0.67909E-04  7072   0.490E-03-0.446E-05
CGA:  12    -0.355281479777E+03   -0.30287E-04   -0.30282E-04  7072   0.335E-03-0.394E-05
CGA:  13    -0.355281502694E+03   -0.22917E-04   -0.22948E-04  7072   0.230E-03-0.551E-05
CGA:  14    -0.355281512652E+03   -0.99586E-05   -0.98867E-05  7072   0.105E-03-0.355E-05
  21 F= -.35528151E+03 E0= -.35526696E+03  d E =-.113864E-02  mag=     3.7618
       N       E                     dE             d eps       ncg     rms          ort
SDA:   1    -0.355144663673E+03    0.13684E+00    0.00000E+00  7072   0.513E+00 0.000E+00
CGA:   2    -0.355170980600E+03   -0.26317E-01   -0.26298E-01  7072   0.742E+00-0.587E-03
CGA:   3    -0.355232858312E+03   -0.61878E-01   -0.61970E-01  7072   0.616E+00-0.314E-02
CGA:   4    -0.355258765933E+03   -0.25908E-01   -0.26100E-01  7072   0.129E+00 0.302E-03
CGA:   5    -0.355269474597E+03   -0.10709E-01   -0.10724E-01  7072   0.142E+00-0.526E-03
CGA:   6    -0.355277196680E+03   -0.77221E-02   -0.77176E-02  7072   0.372E-01-0.244E-03
CGA:   7    -0.355279434421E+03   -0.22377E-02   -0.22379E-02  7072   0.209E-01 0.441E-04
CGA:   8    -0.355280554353E+03   -0.11199E-02   -0.11196E-02  7072   0.127E-01-0.150E-04
CGA:   9    -0.355281048733E+03   -0.49438E-03   -0.49487E-03  7072   0.709E-02-0.411E-06
CGA:  10    -0.355281547526E+03   -0.49879E-03   -0.49895E-03  7072   0.293E-02-0.113E-04
CGA:  11    -0.355281739442E+03   -0.19192E-03   -0.19195E-03  7072   0.139E-02-0.727E-05
CGA:  12    -0.355281856763E+03   -0.11732E-03   -0.11764E-03  7072   0.860E-03-0.131E-04
CGA:  13    -0.355281906854E+03   -0.50091E-04   -0.50071E-04  7072   0.930E-03-0.630E-05
CGA:  14    -0.355281948835E+03   -0.41981E-04   -0.41857E-04  7072   0.285E-03-0.750E-05
CGA:  15    -0.355281962169E+03   -0.13334E-04   -0.13290E-04  7072   0.213E-03-0.307E-05
CGA:  16    -0.355281982825E+03   -0.20656E-04   -0.20923E-04  7072   0.138E-03-0.691E-05
CGA:  17    -0.355281993300E+03   -0.10475E-04   -0.10502E-04  7072   0.105E-03-0.169E-05
CGA:  18    -0.355281998100E+03   -0.48004E-05   -0.47923E-05  7072   0.555E-04-0.488E-06
  22 F= -.35528200E+03 E0= -.35526742E+03  d E =-.485448E-03  mag=     3.7624
       N       E                     dE             d eps       ncg     rms          ort
SDA:   1    -0.355246285751E+03    0.35708E-01    0.00000E+00  7072   0.231E+00 0.000E+00
CGA:   2    -0.355253283504E+03   -0.69978E-02   -0.71137E-02  7072   0.132E+00-0.194E-02
CGA:   3    -0.355266080872E+03   -0.12797E-01   -0.12829E-01  7072   0.182E+00-0.753E-03
CGA:   4    -0.355274240576E+03   -0.81597E-02   -0.81945E-02  7072   0.490E-01 0.265E-03
CGA:   5    -0.355278034729E+03   -0.37942E-02   -0.37959E-02  7072   0.377E-01-0.803E-04
CGA:   6    -0.355279983571E+03   -0.19488E-02   -0.19497E-02  7072   0.176E-01 0.296E-04
CGA:   7    -0.355281162467E+03   -0.11789E-02   -0.11789E-02  7072   0.927E-02 0.764E-05
CGA:   8    -0.355281426090E+03   -0.26362E-03   -0.26414E-03  7072   0.294E-02-0.458E-05
CGA:   9    -0.355281729324E+03   -0.30323E-03   -0.30339E-03  7072   0.174E-02-0.331E-05
CGA:  10    -0.355281842836E+03   -0.11351E-03   -0.11351E-03  7072   0.105E-02-0.384E-06
CGA:  11    -0.355281892012E+03   -0.49177E-04   -0.49161E-04  7072   0.661E-03-0.214E-06
CGA:  12    -0.355281923469E+03   -0.31456E-04   -0.31466E-04  7072   0.387E-03 0.451E-06
CGA:  13    -0.355281951237E+03   -0.27768E-04   -0.27784E-04  7072   0.346E-03-0.132E-05
CGA:  14    -0.355281968728E+03   -0.17491E-04   -0.17487E-04  7072   0.989E-04-0.377E-06
CGA:  15    -0.355281976779E+03   -0.80502E-05   -0.80544E-05  7072   0.114E-03-0.216E-06
  23 F= -.35528198E+03 E0= -.35526738E+03  d E =0.213215E-04  mag=     3.7642
       N       E                     dE             d eps       ncg     rms          ort
SDA:   1    -0.354500466909E+03    0.78150E+00    0.00000E+00  7072   0.237E+01 0.000E+00
CGA:   2    -0.354726518391E+03   -0.22605E+00   -0.21988E+00  7072   0.505E+01 0.164E+00
CGA:   3    -0.355072442900E+03   -0.34592E+00   -0.34624E+00  7072   0.226E+01-0.149E+00
CGA:   4    -0.355140957883E+03   -0.68515E-01   -0.66598E-01  7072   0.731E+00 0.273E-01
CGA:   5    -0.355220330244E+03   -0.79372E-01   -0.79941E-01  7072   0.710E+00-0.114E-01
CGA:   6    -0.355252229424E+03   -0.31899E-01   -0.31946E-01  7072   0.171E+00 0.246E-03
CGA:   7    -0.355262782799E+03   -0.10553E-01   -0.10554E-01  7072   0.726E-01 0.134E-03
CGA:   8    -0.355267706158E+03   -0.49234E-02   -0.49271E-02  7072   0.606E-01-0.422E-03
CGA:   9    -0.355271551204E+03   -0.38450E-02   -0.38446E-02  7072   0.305E-01 0.342E-03
CGA:  10    -0.355272553776E+03   -0.10026E-02   -0.10036E-02  7072   0.128E-01-0.153E-04
CGA:  11    -0.355273425973E+03   -0.87220E-03   -0.87198E-03  7072   0.969E-02 0.223E-04
CGA:  12    -0.355273969310E+03   -0.54334E-03   -0.54337E-03  7072   0.485E-02 0.316E-05
CGA:  13    -0.355274409872E+03   -0.44056E-03   -0.44053E-03  7072   0.235E-02 0.124E-05
CGA:  14    -0.355274517863E+03   -0.10799E-03   -0.10805E-03  7072   0.137E-02-0.125E-05
CGA:  15    -0.355274669730E+03   -0.15187E-03   -0.15203E-03  7072   0.266E-02-0.331E-05
CGA:  16    -0.355274761024E+03   -0.91294E-04   -0.91136E-04  7072   0.608E-03-0.235E-05
CGA:  17    -0.355274814375E+03   -0.53351E-04   -0.53282E-04  7072   0.879E-03 0.228E-05
CGA:  18    -0.355274880200E+03   -0.65825E-04   -0.65806E-04  7072   0.513E-03 0.177E-05
CGA:  19    -0.355274942693E+03   -0.62493E-04   -0.62366E-04  7072   0.622E-03 0.224E-05
CGA:  20    -0.355274970520E+03   -0.27828E-04   -0.27806E-04  7072   0.285E-03-0.627E-07
CGA:  21    -0.355274989484E+03   -0.18964E-04   -0.18964E-04  7072   0.430E-03-0.745E-07
CGA:  22    -0.355275015251E+03   -0.25767E-04   -0.25758E-04  7072   0.202E-03-0.138E-05
CGA:  23    -0.355275030357E+03   -0.15106E-04   -0.15115E-04  7072   0.150E-03-0.112E-05
CGA:  24    -0.355275039068E+03   -0.87114E-05   -0.87044E-05  7072   0.672E-04-0.940E-06
  24 F= -.35527504E+03 E0= -.35526043E+03  d E =0.693771E-02  mag=     3.7782
       N       E                     dE             d eps       ncg     rms          ort
SDA:   1    -0.354627292128E+03    0.64774E+00    0.00000E+00  7072   0.190E+01 0.000E+00
CGA:   2    -0.354844186466E+03   -0.21689E+00   -0.21723E+00  7072   0.598E+01-0.293E-02
CGA:   3    -0.355094110025E+03   -0.24992E+00   -0.24917E+00  7072   0.988E+00-0.356E-02
CGA:   4    -0.355166390213E+03   -0.72280E-01   -0.72261E-01  7072   0.808E+00 0.236E-02
CGA:   5    -0.355237129855E+03   -0.70740E-01   -0.70940E-01  7072   0.240E+00-0.769E-02
CGA:   6    -0.355248990580E+03   -0.11861E-01   -0.11928E-01  7072   0.167E+00 0.364E-03
CGA:   7    -0.355256229173E+03   -0.72386E-02   -0.72405E-02  7072   0.900E-01-0.117E-04
CGA:   8    -0.355260648222E+03   -0.44190E-02   -0.44439E-02  7072   0.402E-01 0.198E-03
CGA:   9    -0.355263608092E+03   -0.29599E-02   -0.29607E-02  7072   0.204E-01-0.666E-04
CGA:  10    -0.355264639074E+03   -0.10310E-02   -0.10327E-02  7072   0.104E-01 0.280E-04
CGA:  11    -0.355265424814E+03   -0.78574E-03   -0.78585E-03  7072   0.878E-02-0.524E-05
CGA:  12    -0.355265854520E+03   -0.42971E-03   -0.42995E-03  7072   0.467E-02 0.198E-05
CGA:  13    -0.355266052533E+03   -0.19801E-03   -0.19792E-03  7072   0.315E-02-0.246E-05
CGA:  14    -0.355266280701E+03   -0.22817E-03   -0.22812E-03  7072   0.101E-02 0.276E-05
CGA:  15    -0.355266436318E+03   -0.15562E-03   -0.15648E-03  7072   0.152E-02-0.964E-05
CGA:  16    -0.355266500040E+03   -0.63722E-04   -0.63719E-04  7072   0.938E-03-0.609E-06
CGA:  17    -0.355266546672E+03   -0.46632E-04   -0.46641E-04  7072   0.619E-03 0.663E-06
CGA:  18    -0.355266605698E+03   -0.59026E-04   -0.58950E-04  7072   0.596E-03 0.259E-05
CGA:  19    -0.355266650504E+03   -0.44806E-04   -0.44800E-04  7072   0.626E-03 0.118E-05
CGA:  20    -0.355266690565E+03   -0.40062E-04   -0.40072E-04  7072   0.297E-03 0.169E-05
CGA:  21    -0.355266706883E+03   -0.16318E-04   -0.16318E-04  7072   0.304E-03 0.102E-06
CGA:  22    -0.355266724827E+03   -0.17943E-04   -0.17948E-04  7072   0.264E-03 0.518E-06
CGA:  23    -0.355266742256E+03   -0.17429E-04   -0.17429E-04  7072   0.128E-03-0.450E-06
CGA:  24    -0.355266751652E+03   -0.93955E-05   -0.94003E-05  7072   0.690E-04-0.816E-06
  25 F= -.35526675E+03 E0= -.35525207E+03  d E =0.828742E-02  mag=     3.7584
       N       E                     dE             d eps       ncg     rms          ort
SDA:   1    -0.346673995694E+03    0.85927E+01    0.00000E+00  7072   0.269E+02 0.000E+00
CGA:   2    -0.349404209942E+03   -0.27302E+01   -0.27788E+01  7072   0.584E+02-0.866E+00
CGA:   3    -0.352791653472E+03   -0.33874E+01   -0.32887E+01  7072   0.241E+02-0.211E+01
CGA:   4    -0.353583443315E+03   -0.79179E+00   -0.78424E+00  7072   0.118E+02-0.195E+00
CGA:   5    -0.354345348122E+03   -0.76190E+00   -0.76370E+00  7072   0.106E+02 0.414E+00
CGA:   6    -0.354864276135E+03   -0.51893E+00   -0.47713E+00  7072   0.315E+01 0.117E+00
CGA:   7    -0.354999435812E+03   -0.13516E+00   -0.13755E+00  7072   0.250E+01 0.101E-02
CGA:   8    -0.355105226326E+03   -0.10579E+00   -0.10734E+00  7072   0.837E+00-0.337E-02
CGA:   9    -0.355144955124E+03   -0.39729E-01   -0.39439E-01  7072   0.712E+00-0.238E-02
CGA:  10    -0.355189107303E+03   -0.44152E-01   -0.44182E-01  7072   0.270E+00 0.173E-01
CGA:  11    -0.355200666513E+03   -0.11559E-01   -0.11575E-01  7072   0.207E+00 0.198E-04
CGA:  12    -0.355211405823E+03   -0.10739E-01   -0.10722E-01  7072   0.123E+00-0.483E-03
CGA:  13    -0.355217794712E+03   -0.63889E-02   -0.64305E-02  7072   0.728E-01 0.161E-02
CGA:  14    -0.355222334680E+03   -0.45400E-02   -0.45400E-02  7072   0.484E-01-0.335E-04
CGA:  15    -0.355225030260E+03   -0.26956E-02   -0.27037E-02  7072   0.212E-01 0.658E-03
CGA:  16    -0.355226224250E+03   -0.11940E-02   -0.11941E-02  7072   0.257E-01 0.284E-05
CGA:  17    -0.355227700879E+03   -0.14766E-02   -0.14762E-02  7072   0.152E-01-0.743E-04
CGA:  18    -0.355228682923E+03   -0.98204E-03   -0.98047E-03  7072   0.109E-01 0.202E-03
CGA:  19    -0.355229421225E+03   -0.73830E-03   -0.73841E-03  7072   0.625E-02-0.623E-05
CGA:  20    -0.355229928255E+03   -0.50703E-03   -0.50482E-03  7072   0.788E-02 0.833E-04
CGA:  21    -0.355230474326E+03   -0.54607E-03   -0.54599E-03  7072   0.696E-02 0.959E-05
CGA:  22    -0.355230771722E+03   -0.29740E-03   -0.29721E-03  7072   0.477E-02 0.240E-05
CGA:  23    -0.355231133012E+03   -0.36129E-03   -0.36076E-03  7072   0.208E-02 0.277E-04
CGA:  24    -0.355231311209E+03   -0.17820E-03   -0.17825E-03  7072   0.282E-02-0.146E-05
CGA:  25    -0.355231509937E+03   -0.19873E-03   -0.19868E-03  7072   0.108E-02 0.276E-05
CGA:  26    -0.355231571762E+03   -0.61825E-04   -0.61826E-04  7072   0.105E-02-0.287E-06
CGA:  27    -0.355231632522E+03   -0.60760E-04   -0.60743E-04  7072   0.994E-03-0.280E-05
CGA:  28    -0.355231684663E+03   -0.52142E-04   -0.52132E-04  7072   0.436E-03-0.141E-05
CGA:  29    -0.355231725404E+03   -0.40740E-04   -0.40764E-04  7072   0.352E-03-0.724E-06
CGA:  30    -0.355231747499E+03   -0.22095E-04   -0.22096E-04  7072   0.253E-03 0.313E-06
CGA:  31    -0.355231770966E+03   -0.23467E-04   -0.23448E-04  7072   0.259E-03 0.701E-06
SDA:  32    -0.355231784371E+03   -0.13406E-04   -0.13412E-04  7072   0.176E-03 0.488E-06
CGA:  33    -0.355231788967E+03   -0.45951E-05   -0.46108E-05  7072   0.739E-04 0.291E-06
  26 F= -.35523179E+03 E0= -.35521718E+03  d E =0.349627E-01  mag=     3.7441
       N       E                     dE             d eps       ncg     rms          ort
SDA:   1    -0.353387142450E+03    0.18446E+01    0.00000E+00  7072   0.559E+01 0.000E+00
CGA:   2    -0.353915001789E+03   -0.52786E+00   -0.52015E+00  7072   0.133E+02 0.236E+00
CGA:   3    -0.354746717337E+03   -0.83172E+00   -0.82741E+00  7072   0.417E+01-0.231E+00
CGA:   4    -0.354919405395E+03   -0.17269E+00   -0.16148E+00  7072   0.217E+01 0.581E-01
CGA:   5    -0.355095073414E+03   -0.17567E+00   -0.17584E+00  7072   0.151E+01-0.791E-02
CGA:   6    -0.355174482506E+03   -0.79409E-01   -0.79796E-01  7072   0.718E+00 0.803E-02
CGA:   7    -0.355202459081E+03   -0.27977E-01   -0.28086E-01  7072   0.330E+00-0.123E-02
CGA:   8    -0.355217667327E+03   -0.15208E-01   -0.15202E-01  7072   0.116E+00-0.425E-04
CGA:   9    -0.355228870606E+03   -0.11203E-01   -0.11191E-01  7072   0.137E+00 0.331E-03
CGA:  10    -0.355233835414E+03   -0.49648E-02   -0.49813E-02  7072   0.337E-01-0.137E-03
CGA:  11    -0.355235421722E+03   -0.15863E-02   -0.15910E-02  7072   0.252E-01 0.527E-04
CGA:  12    -0.355237674518E+03   -0.22528E-02   -0.22522E-02  7072   0.208E-01 0.161E-04
CGA:  13    -0.355238534175E+03   -0.85966E-03   -0.86252E-03  7072   0.658E-02 0.473E-05
CGA:  14    -0.355238959283E+03   -0.42511E-03   -0.42510E-03  7072   0.796E-02 0.286E-05
CGA:  15    -0.355239376540E+03   -0.41726E-03   -0.41721E-03  7072   0.341E-02 0.883E-06
CGA:  16    -0.355239659473E+03   -0.28293E-03   -0.28296E-03  7072   0.383E-02-0.171E-05
CGA:  17    -0.355239871795E+03   -0.21232E-03   -0.21240E-03  7072   0.211E-02 0.499E-05
CGA:  18    -0.355239968128E+03   -0.96333E-04   -0.96334E-04  7072   0.147E-02 0.719E-06
CGA:  19    -0.355240095324E+03   -0.12720E-03   -0.12707E-03  7072   0.121E-02 0.454E-05
CGA:  20    -0.355240180162E+03   -0.84838E-04   -0.84851E-04  7072   0.147E-02-0.180E-05
CGA:  21    -0.355240264545E+03   -0.84383E-04   -0.84391E-04  7072   0.540E-03-0.684E-06
CGA:  22    -0.355240285597E+03   -0.21052E-04   -0.21034E-04  7072   0.335E-03-0.101E-05
CGA:  23    -0.355240326713E+03   -0.41116E-04   -0.41139E-04  7072   0.296E-03-0.422E-06
CGA:  24    -0.355240342997E+03   -0.16284E-04   -0.16268E-04  7072   0.263E-03-0.161E-05
CGA:  25    -0.355240354442E+03   -0.11445E-04   -0.11425E-04  7072   0.734E-04-0.111E-05
CGA:  26    -0.355240361773E+03   -0.73316E-05   -0.73621E-05  7072   0.153E-03-0.838E-06
  27 F= -.35524036E+03 E0= -.35522599E+03  d E =-.857281E-02  mag=     3.8027
       N       E                     dE             d eps       ncg     rms          ort
SDA:   1    -0.353977364581E+03    0.12630E+01    0.00000E+00  7072   0.440E+01 0.000E+00
CGA:   2    -0.354302277680E+03   -0.32491E+00   -0.32453E+00  7072   0.992E+01 0.322E-01
CGA:   3    -0.354893937325E+03   -0.59166E+00   -0.59080E+00  7072   0.194E+01-0.539E-01
CGA:   4    -0.355020012524E+03   -0.12608E+00   -0.12608E+00  7072   0.217E+01 0.378E-01
CGA:   5    -0.355172079934E+03   -0.15207E+00   -0.15227E+00  7072   0.847E+00-0.322E-01
CGA:   6    -0.355208924337E+03   -0.36844E-01   -0.37451E-01  7072   0.494E+00 0.988E-03
CGA:   7    -0.355229574582E+03   -0.20650E-01   -0.20614E-01  7072   0.204E+00-0.135E-03
CGA:   8    -0.355240380204E+03   -0.10806E-01   -0.10832E-01  7072   0.127E+00 0.798E-03
CGA:   9    -0.355250071911E+03   -0.96917E-02   -0.97016E-02  7072   0.425E-01-0.501E-03
CGA:  10    -0.355252393737E+03   -0.23218E-02   -0.23234E-02  7072   0.283E-01 0.587E-04
CGA:  11    -0.355254142115E+03   -0.17484E-02   -0.17484E-02  7072   0.291E-01-0.101E-04
CGA:  12    -0.355255469253E+03   -0.13271E-02   -0.13295E-02  7072   0.114E-01 0.523E-05
CGA:  13    -0.355256118947E+03   -0.64969E-03   -0.64940E-03  7072   0.786E-02-0.271E-04
CGA:  14    -0.355256620819E+03   -0.50187E-03   -0.50185E-03  7072   0.364E-02 0.308E-05
CGA:  15    -0.355256935551E+03   -0.31473E-03   -0.31488E-03  7072   0.453E-02-0.517E-05
CGA:  16    -0.355257178487E+03   -0.24294E-03   -0.24307E-03  7072   0.371E-02 0.655E-05
CGA:  17    -0.355257356733E+03   -0.17825E-03   -0.17824E-03  7072   0.190E-02-0.209E-06
CGA:  18    -0.355257502186E+03   -0.14545E-03   -0.14543E-03  7072   0.146E-02 0.851E-06
CGA:  19    -0.355257642652E+03   -0.14047E-03   -0.14046E-03  7072   0.235E-02 0.264E-07
CGA:  20    -0.355257790830E+03   -0.14818E-03   -0.14819E-03  7072   0.115E-02 0.646E-05
CGA:  21    -0.355257836860E+03   -0.46031E-04   -0.46030E-04  7072   0.806E-03 0.116E-05
CGA:  22    -0.355257912646E+03   -0.75786E-04   -0.75637E-04  7072   0.922E-03 0.464E-05
CGA:  23    -0.355257963903E+03   -0.51258E-04   -0.51282E-04  7072   0.337E-03 0.290E-05
CGA:  24    -0.355257995293E+03   -0.31389E-04   -0.31240E-04  7072   0.374E-03 0.519E-05
CGA:  25    -0.355258009919E+03   -0.14626E-04   -0.14675E-04  7072   0.198E-03 0.200E-05
CGA:  26    -0.355258025436E+03   -0.15517E-04   -0.15489E-04  7072   0.210E-03 0.204E-05
CGA:  27    -0.355258037063E+03   -0.11627E-04   -0.11635E-04  7072   0.896E-04 0.802E-06
CGA:  28    -0.355258043461E+03   -0.63980E-05   -0.63949E-05  7072   0.859E-04 0.411E-06
  28 F= -.35525804E+03 E0= -.35524338E+03  d E =-.176817E-01  mag=     3.7609
       N       E                     dE             d eps       ncg     rms          ort
SDA:   1    -0.355088960549E+03    0.16908E+00    0.00000E+00  7072   0.770E+00 0.000E+00
CGA:   2    -0.355120671883E+03   -0.31711E-01   -0.31779E-01  7072   0.880E+00-0.104E-02
CGA:   3    -0.355205740894E+03   -0.85069E-01   -0.84985E-01  7072   0.363E+00 0.218E-02
CGA:   4    -0.355229840057E+03   -0.24099E-01   -0.24100E-01  7072   0.288E+00-0.396E-03
CGA:   5    -0.355248287002E+03   -0.18447E-01   -0.18450E-01  7072   0.147E+00 0.855E-03
CGA:   6    -0.355256175000E+03   -0.78880E-02   -0.78768E-02  7072   0.745E-01-0.241E-03
CGA:   7    -0.355259623704E+03   -0.34487E-02   -0.34588E-02  7072   0.337E-01 0.701E-04
CGA:   8    -0.355260836907E+03   -0.12132E-02   -0.12156E-02  7072   0.156E-01-0.206E-04
CGA:   9    -0.355262329499E+03   -0.14926E-02   -0.14920E-02  7072   0.938E-02 0.140E-04
CGA:  10    -0.355262809910E+03   -0.48041E-03   -0.48019E-03  7072   0.328E-02-0.417E-05
CGA:  11    -0.355263041538E+03   -0.23163E-03   -0.23161E-03  7072   0.436E-02 0.239E-05
CGA:  12    -0.355263220707E+03   -0.17917E-03   -0.17899E-03  7072   0.155E-02-0.202E-06
CGA:  13    -0.355263345322E+03   -0.12461E-03   -0.12464E-03  7072   0.103E-02-0.136E-05
CGA:  14    -0.355263409114E+03   -0.63792E-04   -0.63793E-04  7072   0.448E-03 0.557E-06
CGA:  15    -0.355263432236E+03   -0.23122E-04   -0.23137E-04  7072   0.484E-03 0.103E-05
CGA:  16    -0.355263466221E+03   -0.33985E-04   -0.33983E-04  7072   0.342E-03 0.935E-07
CGA:  17    -0.355263485237E+03   -0.19016E-04   -0.19014E-04  7072   0.253E-03-0.232E-06
CGA:  18    -0.355263499804E+03   -0.14568E-04   -0.14563E-04  7072   0.811E-04-0.783E-06
CGA:  19    -0.355263509837E+03   -0.10033E-04   -0.10021E-04  7072   0.239E-03 0.188E-06
CGA:  20    -0.355263520141E+03   -0.10303E-04   -0.10299E-04  7072   0.766E-04-0.225E-06
CGA:  21    -0.355263526383E+03   -0.62418E-05   -0.62465E-05  7072   0.574E-04-0.292E-06
  29 F= -.35526353E+03 E0= -.35524889E+03  d E =-.548292E-02  mag=     3.7634
       N       E                     dE             d eps       ncg     rms          ort
SDA:   1    -0.354807466880E+03    0.45605E+00    0.00000E+00  7072   0.139E+01 0.000E+00
CGA:   2    -0.354933718676E+03   -0.12625E+00   -0.12634E+00  7072   0.373E+01-0.133E-02
CGA:   3    -0.355140746989E+03   -0.20703E+00   -0.20655E+00  7072   0.103E+01-0.134E-01
CGA:   4    -0.355190712250E+03   -0.49965E-01   -0.49984E-01  7072   0.531E+00 0.139E-04
CGA:   5    -0.355232613439E+03   -0.41901E-01   -0.41836E-01  7072   0.395E+00 0.330E-02
CGA:   6    -0.355251897128E+03   -0.19284E-01   -0.19146E-01  7072   0.141E+00-0.994E-03
CGA:   7    -0.355259347498E+03   -0.74504E-02   -0.74643E-02  7072   0.741E-01 0.316E-03
CGA:   8    -0.355261792150E+03   -0.24447E-02   -0.24528E-02  7072   0.299E-01-0.118E-03
CGA:   9    -0.355265298737E+03   -0.35066E-02   -0.35005E-02  7072   0.174E-01 0.109E-03
CGA:  10    -0.355266057999E+03   -0.75926E-03   -0.75753E-03  7072   0.657E-02-0.263E-06
CGA:  11    -0.355266454699E+03   -0.39670E-03   -0.39670E-03  7072   0.782E-02 0.739E-06
CGA:  12    -0.355266895430E+03   -0.44073E-03   -0.44058E-03  7072   0.370E-02-0.632E-05
CGA:  13    -0.355267081240E+03   -0.18581E-03   -0.18587E-03  7072   0.167E-02 0.307E-05
CGA:  14    -0.355267188418E+03   -0.10718E-03   -0.10718E-03  7072   0.119E-02 0.835E-06
CGA:  15    -0.355267266050E+03   -0.77632E-04   -0.77625E-04  7072   0.118E-02 0.174E-05
CGA:  16    -0.355267333099E+03   -0.67049E-04   -0.67034E-04  7072   0.965E-03-0.232E-05
CGA:  17    -0.355267380810E+03   -0.47710E-04   -0.47713E-04  7072   0.399E-03-0.408E-06
CGA:  18    -0.355267427801E+03   -0.46991E-04   -0.46963E-04  7072   0.386E-03 0.506E-06
CGA:  19    -0.355267449387E+03   -0.21586E-04   -0.21587E-04  7072   0.525E-03 0.136E-06
CGA:  20    -0.355267491405E+03   -0.42018E-04   -0.42043E-04  7072   0.298E-03-0.160E-05
CGA:  21    -0.355267505162E+03   -0.13757E-04   -0.13766E-04  7072   0.182E-03 0.467E-07
CGA:  22    -0.355267522293E+03   -0.17131E-04   -0.17127E-04  7072   0.166E-03 0.120E-06
CGA:  23    -0.355267532662E+03   -0.10370E-04   -0.10369E-04  7072   0.159E-03-0.107E-06
CGA:  24    -0.355267540198E+03   -0.75354E-05   -0.75273E-05  7072   0.893E-04-0.448E-06
  30 F= -.35526754E+03 E0= -.35525300E+03  d E =-.401381E-02  mag=     3.7732
       N       E                     dE             d eps       ncg     rms          ort
SDA:   1    -0.322360082583E+03    0.32907E+02    0.00000E+00  7072   0.115E+03 0.000E+00
CGA:   2    -0.333045396590E+03   -0.10685E+02   -0.10568E+02  7072   0.215E+03 0.825E+01
CGA:   3    -0.343050928850E+03   -0.10006E+02   -0.75344E+01  7072   0.427E+02 0.527E+02
CGA:   4    -0.346436383336E+03   -0.33855E+01   -0.33853E+01  7072   0.937E+02-0.219E+00
CGA:   5    -0.349421562280E+03   -0.29852E+01   -0.25838E+01  7072   0.655E+02 0.445E+01
CGA:   6    -0.351262223914E+03   -0.18407E+01   -0.15854E+01  7072   0.421E+02 0.207E+01
CGA:   7    -0.352042718898E+03   -0.78049E+00   -0.77674E+00  7072   0.452E+02 0.288E+00
CGA:   8    -0.352982544327E+03   -0.93983E+00   -0.75874E+00  7072   0.338E+02 0.602E+01
CGA:   9    -0.353312365657E+03   -0.32982E+00   -0.50108E+00  7072   0.209E+02-0.128E+02
CGA:  10    -0.353441690925E+03   -0.12933E+00   -0.13936E+00  7072   0.191E+02-0.883E+00
CGA:  11    -0.353704842620E+03   -0.26315E+00   -0.27689E+00  7072   0.177E+02-0.665E+00
CGA:  12    -0.353888934991E+03   -0.18409E+00   -0.17829E+00  7072   0.978E+01 0.212E+00
CGA:  13    -0.354013480298E+03   -0.12455E+00   -0.13559E+00  7072   0.104E+02-0.735E+00
CGA:  14    -0.354145968891E+03   -0.13249E+00   -0.15301E+00  7072   0.102E+02-0.104E+01
CGA:  15    -0.354240107455E+03   -0.94139E-01   -0.11434E+00  7072   0.483E+01-0.130E+01
CGA:  16    -0.354293920749E+03   -0.53813E-01   -0.57330E-01  7072   0.375E+01-0.206E+00
CGA:  17    -0.354352919627E+03   -0.58999E-01   -0.58229E-01  7072   0.306E+01 0.234E-01
CGA:  18    -0.354406460664E+03   -0.53541E-01   -0.58601E-01  7072   0.318E+01-0.150E+00
CGA:  19    -0.354455913107E+03   -0.49452E-01   -0.50578E-01  7072   0.163E+01-0.598E-01
CGA:  20    -0.354478956950E+03   -0.23044E-01   -0.24910E-01  7072   0.112E+01-0.782E-01
CGA:  21    -0.354514062804E+03   -0.35106E-01   -0.35465E-01  7072   0.193E+01 0.378E-01
CGA:  22    -0.354560289121E+03   -0.46226E-01   -0.46960E-01  7072   0.750E+00-0.130E-02
CGA:  23    -0.354576468489E+03   -0.16179E-01   -0.16828E-01  7072   0.454E+00-0.537E-02
[...]
CGA:   7    -0.355094103759E+03   -0.87683E-01   -0.94847E-01  7072   0.111E+01-0.201E+00
CGA:   8    -0.355172143833E+03   -0.78040E-01   -0.77798E-01  7072   0.111E+01 0.163E-01
CGA:   9    -0.355214867483E+03   -0.42724E-01   -0.43711E-01  7072   0.712E+00-0.703E-02
CGA:  10    -0.355241101290E+03   -0.26234E-01   -0.26138E-01  7072   0.248E+00 0.622E-03
CGA:  11    -0.355254872964E+03   -0.13772E-01   -0.13787E-01  7072   0.175E+00 0.869E-03
CGA:  12    -0.355262845996E+03   -0.79730E-02   -0.79861E-02  7072   0.129E+00 0.111E-03
CGA:  13    -0.355268997244E+03   -0.61512E-02   -0.61421E-02  7072   0.821E-01-0.135E-03
CGA:  14    -0.355272877317E+03   -0.38801E-02   -0.38912E-02  7072   0.331E-01 0.202E-03
CGA:  15    -0.355274886753E+03   -0.20094E-02   -0.20092E-02  7072   0.272E-01 0.192E-03
CGA:  16    -0.355275994419E+03   -0.11077E-02   -0.11108E-02  7072   0.163E-01 0.489E-05
CGA:  17    -0.355276847239E+03   -0.85282E-03   -0.85368E-03  7072   0.116E-01 0.501E-04
CGA:  18    -0.355277864065E+03   -0.10168E-02   -0.10148E-02  7072   0.751E-02 0.612E-04
CGA:  19    -0.355278138872E+03   -0.27481E-03   -0.27443E-03  7072   0.445E-02 0.502E-05
CGA:  20    -0.355278417201E+03   -0.27833E-03   -0.27828E-03  7072   0.445E-02 0.103E-04
CGA:  21    -0.355278704490E+03   -0.28729E-03   -0.28721E-03  7072   0.390E-02 0.103E-04
CGA:  22    -0.355278993781E+03   -0.28929E-03   -0.28885E-03  7072   0.300E-02 0.213E-04
CGA:  23    -0.355279105860E+03   -0.11208E-03   -0.11214E-03  7072   0.169E-02 0.179E-06
CGA:  24    -0.355279200324E+03   -0.94464E-04   -0.94468E-04  7072   0.139E-02 0.252E-06
CGA:  25    -0.355279349301E+03   -0.14898E-03   -0.14851E-03  7072   0.134E-02 0.940E-05
CGA:  26    -0.355279400829E+03   -0.51529E-04   -0.51622E-04  7072   0.752E-03 0.143E-05
CGA:  27    -0.355279440116E+03   -0.39287E-04   -0.39279E-04  7072   0.589E-03-0.546E-06
CGA:  28    -0.355279478069E+03   -0.37953E-04   -0.37945E-04  7072   0.407E-03 0.162E-05
CGA:  29    -0.355279503730E+03   -0.25661E-04   -0.25655E-04  7072   0.355E-03 0.189E-05
CGA:  30    -0.355279526847E+03   -0.23116E-04   -0.23115E-04  7072   0.411E-03 0.378E-06
CGA:  31    -0.355279542337E+03   -0.15490E-04   -0.15495E-04  7072   0.118E-03 0.505E-06
SDA:  32    -0.355279554652E+03   -0.12315E-04   -0.12334E-04  7072   0.172E-03-0.454E-06
CGA:  33    -0.355279559664E+03   -0.50123E-05   -0.50034E-05  7072   0.502E-04-0.609E-07
  50 F= -.35527956E+03 E0= -.35526493E+03  d E =0.855177E-02  mag=     3.7381
       N       E                     dE             d eps       ncg     rms          ort
SDA:   1    -0.341888013017E+03    0.13392E+02    0.00000E+00  7072   0.370E+02 0.000E+00
CGA:   2    -0.345992414196E+03   -0.41044E+01   -0.42867E+01  7072   0.131E+03-0.195E+01
CGA:   3    -0.351710524556E+03   -0.57181E+01   -0.51357E+01  7072   0.286E+02 0.736E+01
CGA:   4    -0.352784874762E+03   -0.10744E+01   -0.76388E+00  7072   0.137E+02 0.867E+01
CGA:   5    -0.353584187863E+03   -0.79931E+00   -0.79695E+00  7072   0.218E+02-0.213E+00
CGA:   6    -0.354073693789E+03   -0.48951E+00   -0.46938E+00  7072   0.172E+02 0.634E+00
CGA:   7    -0.354478551942E+03   -0.40486E+00   -0.38079E+00  7072   0.143E+02 0.823E+00
CGA:   8    -0.354807093417E+03   -0.32854E+00   -0.33412E+00  7072   0.907E+01-0.114E+00
CGA:   9    -0.354936628862E+03   -0.12954E+00   -0.11792E+00  7072   0.314E+01 0.764E+00
CGA:  10    -0.355000261644E+03   -0.63633E-01   -0.62013E-01  7072   0.275E+01 0.691E-01
CGA:  11    -0.355063634187E+03   -0.63373E-01   -0.62072E-01  7072   0.261E+01 0.381E-01
CGA:  12    -0.355111072927E+03   -0.47439E-01   -0.47652E-01  7072   0.222E+01-0.802E-02
CGA:  13    -0.355168578715E+03   -0.57506E-01   -0.59905E-01  7072   0.294E+01-0.270E-01
CGA:  14    -0.355218208533E+03   -0.49630E-01   -0.52887E-01  7072   0.889E+00-0.116E+00
CGA:  15    -0.355231048759E+03   -0.12840E-01   -0.13399E-01  7072   0.454E+00-0.261E-01
CGA:  16    -0.355245692693E+03   -0.14644E-01   -0.14850E-01  7072   0.518E+00 0.423E-02
CGA:  17    -0.355256025389E+03   -0.10333E-01   -0.10638E-01  7072   0.205E+00-0.877E-02
CGA:  18    -0.355263829501E+03   -0.78041E-02   -0.78261E-02  7072   0.339E+00 0.250E-02
CGA:  19    -0.355275922813E+03   -0.12093E-01   -0.12140E-01  7072   0.201E+00 0.205E-02
CGA:  20    -0.355280619562E+03   -0.46967E-02   -0.47680E-02  7072   0.927E-01-0.994E-03
CGA:  21    -0.355283589494E+03   -0.29699E-02   -0.29835E-02  7072   0.639E-01 0.366E-03
CGA:  22    -0.355286059819E+03   -0.24703E-02   -0.24720E-02  7072   0.612E-01 0.340E-03
CGA:  23    -0.355288196975E+03   -0.21372E-02   -0.21407E-02  7072   0.413E-01 0.199E-03
CGA:  24    -0.355289794901E+03   -0.15979E-02   -0.15998E-02  7072   0.337E-01 0.533E-03
CGA:  25    -0.355291245214E+03   -0.14503E-02   -0.14502E-02  7072   0.329E-01 0.245E-04
CGA:  26    -0.355292305705E+03   -0.10605E-02   -0.10610E-02  7072   0.950E-02 0.225E-04
CGA:  27    -0.355292608890E+03   -0.30318E-03   -0.30355E-03  7072   0.930E-02 0.841E-05
CGA:  28    -0.355293240654E+03   -0.63176E-03   -0.63009E-03  7072   0.118E-01 0.520E-04
CGA:  29    -0.355293664572E+03   -0.42392E-03   -0.42398E-03  7072   0.935E-02-0.101E-05
CGA:  30    -0.355293979628E+03   -0.31506E-03   -0.31498E-03  7072   0.354E-02-0.843E-05
CGA:  31    -0.355294120555E+03   -0.14093E-03   -0.14093E-03  7072   0.398E-02 0.947E-05
SDA:  32    -0.355294271979E+03   -0.15142E-03   -0.15148E-03  7072   0.154E-02 0.167E-04
CGA:  33    -0.355294357136E+03   -0.85156E-04   -0.85143E-04  7072   0.171E-02 0.599E-06
CGA:  34    -0.355294444602E+03   -0.87466E-04   -0.87478E-04  7072   0.111E-02-0.919E-06
CGA:  35    -0.355294529222E+03   -0.84620E-04   -0.84274E-04  7072   0.133E-02 0.975E-05
CGA:  36    -0.355294599917E+03   -0.70696E-04   -0.70609E-04  7072   0.410E-03 0.878E-05
CGA:  37    -0.355294631479E+03   -0.31562E-04   -0.31486E-04  7072   0.395E-03 0.220E-05
CGA:  38    -0.355294665578E+03   -0.34098E-04   -0.34046E-04  7072   0.255E-03 0.118E-05
CGA:  39    -0.355294700674E+03   -0.35096E-04   -0.35002E-04  7072   0.165E-03 0.100E-05
CGA:  40    -0.355294714519E+03   -0.13846E-04   -0.13845E-04  7072   0.180E-03-0.910E-07
CGA:  41    -0.355294724680E+03   -0.10161E-04   -0.10160E-04  7072   0.187E-03 0.205E-06
CGA:  42    -0.355294733725E+03   -0.90447E-05   -0.90500E-05  7072   0.980E-04 0.989E-06
  51 F= -.35529473E+03 E0= -.35527991E+03  d E =-.151741E-01  mag=     3.7492
       N       E                     dE             d eps       ncg     rms          ort
SDA:   1    -0.342323808105E+03    0.12971E+02    0.00000E+00  7072   0.458E+02 0.000E+00
CGA:   2    -0.345096915749E+03   -0.27731E+01   -0.28351E+01  7072   0.858E+02-0.475E+01
CGA:   3    -0.350636880174E+03   -0.55400E+01   -0.56903E+01  7072   0.439E+02-0.118E+02
CGA:   4    -0.352132055480E+03   -0.14952E+01   -0.11075E+01  7072   0.306E+02 0.823E+01
CGA:   5    -0.352959192560E+03   -0.82714E+00   -0.76584E+00  7072   0.227E+02 0.115E+01
CGA:   6    -0.353655691066E+03   -0.69650E+00   -0.68226E+00  7072   0.179E+02 0.337E+00
CGA:   7    -0.354025633926E+03   -0.36994E+00   -0.33073E+00  7072   0.190E+02 0.161E+01
CGA:   8    -0.354456395931E+03   -0.43076E+00   -0.43299E+00  7072   0.104E+02-0.119E+00
CGA:   9    -0.354654681492E+03   -0.19829E+00   -0.22264E+00  7072   0.104E+02-0.666E+00
CGA:  10    -0.354844300463E+03   -0.18962E+00   -0.18570E+00  7072   0.464E+01 0.153E+00
CGA:  11    -0.354925441117E+03   -0.81141E-01   -0.81629E-01  7072   0.241E+01-0.258E-01
CGA:  12    -0.354973235771E+03   -0.47795E-01   -0.49247E-01  7072   0.204E+01-0.428E-01
CGA:  13    -0.355038494426E+03   -0.65259E-01   -0.65911E-01  7072   0.219E+01 0.111E-01
CGA:  14    -0.355092388044E+03   -0.53894E-01   -0.54495E-01  7072   0.193E+01-0.929E-02
CGA:  15    -0.355137028471E+03   -0.44640E-01   -0.47102E-01  7072   0.947E+00-0.233E-01
CGA:  16    -0.355160559225E+03   -0.23531E-01   -0.25378E-01  7072   0.663E+00 0.255E-02
CGA:  17    -0.355180666283E+03   -0.20107E-01   -0.20064E-01  7072   0.257E+00-0.849E-03
CGA:  18    -0.355191534084E+03   -0.10868E-01   -0.10870E-01  7072   0.297E+00-0.549E-03
CGA:  19    -0.355206017984E+03   -0.14484E-01   -0.14345E-01  7072   0.253E+00 0.107E-01
CGA:  20    -0.355216090593E+03   -0.10073E-01   -0.10097E-01  7072   0.155E+00 0.567E-02
CGA:  21    -0.355221313230E+03   -0.52226E-02   -0.52580E-02  7072   0.529E-01 0.144E-02
CGA:  22    -0.355224279658E+03   -0.29664E-02   -0.29653E-02  7072   0.506E-01 0.402E-04
CGA:  23    -0.355226707235E+03   -0.24276E-02   -0.24227E-02  7072   0.460E-01 0.435E-03
CGA:  24    -0.355229564332E+03   -0.28571E-02   -0.28188E-02  7072   0.379E-01 0.155E-02
CGA:  25    -0.355231114027E+03   -0.15497E-02   -0.15500E-02  7072   0.129E-01 0.583E-04
CGA:  26    -0.355231792330E+03   -0.67830E-03   -0.67684E-03  7072   0.113E-01 0.935E-04
CGA:  27    -0.355232605365E+03   -0.81304E-03   -0.80817E-03  7072   0.137E-01 0.150E-03
CGA:  28    -0.355233189726E+03   -0.58436E-03   -0.58452E-03  7072   0.721E-02 0.386E-04
CGA:  29    -0.355233752138E+03   -0.56241E-03   -0.56134E-03  7072   0.493E-02 0.287E-04
CGA:  30    -0.355233946604E+03   -0.19447E-03   -0.19471E-03  7072   0.238E-02 0.162E-04
CGA:  31    -0.355234170086E+03   -0.22348E-03   -0.22318E-03  7072   0.429E-02 0.594E-05
SDA:  32    -0.355234384601E+03   -0.21451E-03   -0.21449E-03  7072   0.230E-02 0.600E-05
CGA:  33    -0.355234471393E+03   -0.86792E-04   -0.86827E-04  7072   0.120E-02 0.228E-05
CGA:  34    -0.355234532606E+03   -0.61213E-04   -0.61206E-04  7072   0.825E-03 0.152E-05
CGA:  35    -0.355234597436E+03   -0.64831E-04   -0.64704E-04  7072   0.139E-02 0.377E-05
CGA:  36    -0.355234731820E+03   -0.13438E-03   -0.13398E-03  7072   0.762E-03 0.851E-05
CGA:  37    -0.355234768441E+03   -0.36621E-04   -0.36622E-04  7072   0.340E-03 0.515E-06
CGA:  38    -0.355234825574E+03   -0.57132E-04   -0.56758E-04  7072   0.320E-03 0.297E-05
CGA:  39    -0.355234852814E+03   -0.27241E-04   -0.27144E-04  7072   0.469E-03 0.337E-05
CGA:  40    -0.355234872197E+03   -0.19383E-04   -0.19413E-04  7072   0.232E-03 0.188E-05
CGA:  41    -0.355234887624E+03   -0.15427E-04   -0.15434E-04  7072   0.122E-03-0.822E-06
CGA:  42    -0.355234905198E+03   -0.17574E-04   -0.17722E-04  7072   0.111E-03-0.175E-05
CGA:  43    -0.355234911497E+03   -0.62985E-05   -0.62988E-05  7072   0.828E-04-0.104E-06
  52 F= -.35523491E+03 E0= -.35522040E+03  d E =0.598222E-01  mag=     3.7610
       N       E                     dE             d eps       ncg     rms          ort
SDA:   1    -0.341832602814E+03    0.13402E+02    0.00000E+00  7072   0.374E+02 0.000E+00
CGA:   2    -0.348015063735E+03   -0.61825E+01   -0.58865E+01  7072   0.739E+02 0.391E+01
CGA:   3    -0.351297239257E+03   -0.32822E+01   -0.29604E+01  7072   0.296E+02 0.217E+01
CGA:   4    -0.353079522102E+03   -0.17823E+01   -0.17867E+01  7072   0.194E+02 0.332E+00
CGA:   5    -0.354134838522E+03   -0.10553E+01   -0.10475E+01  7072   0.179E+02-0.191E+00
CGA:   6    -0.354602805356E+03   -0.46797E+00   -0.44648E+00  7072   0.874E+01 0.551E+00
CGA:   7    -0.354883739098E+03   -0.28093E+00   -0.28774E+00  7072   0.401E+01-0.102E+00
CGA:   8    -0.355033832951E+03   -0.15009E+00   -0.14657E+00  7072   0.305E+01 0.218E-01
CGA:   9    -0.355120392257E+03   -0.86559E-01   -0.83923E-01  7072   0.116E+01 0.548E-01
CGA:  10    -0.355176522201E+03   -0.56130E-01   -0.56673E-01  7072   0.157E+01 0.168E-01
CGA:  11    -0.355228442484E+03   -0.51920E-01   -0.53104E-01  7072   0.627E+00-0.986E-02
CGA:  12    -0.355251337649E+03   -0.22895E-01   -0.23011E-01  7072   0.340E+00 0.627E-04
CGA:  13    -0.355262553913E+03   -0.11216E-01   -0.11349E-01  7072   0.263E+00-0.848E-03
CGA:  14    -0.355275242066E+03   -0.12688E-01   -0.12723E-01  7072   0.166E+00 0.254E-02
CGA:  15    -0.355281434524E+03   -0.61925E-02   -0.62155E-02  7072   0.123E+00 0.108E-03
CGA:  16    -0.355286501820E+03   -0.50673E-02   -0.50734E-02  7072   0.808E-01 0.160E-03
CGA:  17    -0.355290295190E+03   -0.37934E-02   -0.37965E-02  7072   0.417E-01 0.223E-03
CGA:  18    -0.355291613423E+03   -0.13182E-02   -0.13235E-02  7072   0.250E-01-0.291E-04
CGA:  19    -0.355293236306E+03   -0.16229E-02   -0.16189E-02  7072   0.267E-01 0.211E-03
CGA:  20    -0.355294644657E+03   -0.14084E-02   -0.14081E-02  7072   0.229E-01 0.211E-03
CGA:  21    -0.355295440931E+03   -0.79627E-03   -0.79746E-03  7072   0.979E-02 0.123E-04
CGA:  22    -0.355295955260E+03   -0.51433E-03   -0.51427E-03  7072   0.752E-02 0.213E-04
CGA:  23    -0.355296398445E+03   -0.44319E-03   -0.44299E-03  7072   0.945E-02 0.157E-04
CGA:  24    -0.355296799536E+03   -0.40109E-03   -0.40185E-03  7072   0.579E-02 0.316E-04
CGA:  25    -0.355297202229E+03   -0.40269E-03   -0.40213E-03  7072   0.495E-02 0.262E-04
CGA:  26    -0.355297360862E+03   -0.15863E-03   -0.15877E-03  7072   0.239E-02 0.228E-05
CGA:  27    -0.355297497868E+03   -0.13701E-03   -0.13692E-03  7072   0.249E-02 0.976E-05
CGA:  28    -0.355297655794E+03   -0.15793E-03   -0.15782E-03  7072   0.213E-02 0.708E-05
CGA:  29    -0.355297731457E+03   -0.75663E-04   -0.75660E-04  7072   0.126E-02 0.607E-06
CGA:  30    -0.355297796010E+03   -0.64552E-04   -0.64552E-04  7072   0.701E-03 0.236E-05
CGA:  31    -0.355297834876E+03   -0.38867E-04   -0.38856E-04  7072   0.768E-03 0.240E-05
SDA:  32    -0.355297865168E+03   -0.30291E-04   -0.30299E-04  7072   0.432E-03 0.661E-06
CGA:  33    -0.355297880427E+03   -0.15260E-04   -0.15253E-04  7072   0.202E-03-0.624E-06
CGA:  34    -0.355297897210E+03   -0.16782E-04   -0.16841E-04  7072   0.319E-03-0.177E-05
CGA:  35    -0.355297917582E+03   -0.20373E-04   -0.20381E-04  7072   0.359E-03-0.689E-06
CGA:  36    -0.355297942379E+03   -0.24796E-04   -0.24820E-04  7072   0.226E-03-0.138E-05
CGA:  37    -0.355297955772E+03   -0.13394E-04   -0.13400E-04  7072   0.599E-04-0.991E-06
CGA:  38    -0.355297964770E+03   -0.89981E-05   -0.90658E-05  7072   0.869E-04-0.713E-06
  53 F= -.35529796E+03 E0= -.35528336E+03  d E =-.630533E-01  mag=     3.7591
       N       E                     dE             d eps       ncg     rms          ort
SDA:   1    -0.350568681929E+03    0.47293E+01    0.00000E+00  7072   0.116E+02 0.000E+00
CGA:   2    -0.353910702064E+03   -0.33420E+01   -0.33251E+01  7072   0.945E+01 0.102E+00
CGA:   3    -0.354441528157E+03   -0.53083E+00   -0.53443E+00  7072   0.760E+01 0.428E-01
CGA:   4    -0.354957494712E+03   -0.51597E+00   -0.51263E+00  7072   0.399E+01-0.537E+00
CGA:   5    -0.355108330624E+03   -0.15084E+00   -0.14939E+00  7072   0.188E+01-0.101E-03
CGA:   6    -0.355187185796E+03   -0.78855E-01   -0.77205E-01  7072   0.641E+00 0.123E-01
CGA:   7    -0.355233560042E+03   -0.46374E-01   -0.46452E-01  7072   0.453E+00-0.880E-02
CGA:   8    -0.355263021354E+03   -0.29461E-01   -0.29461E-01  7072   0.207E+00 0.790E-04
CGA:   9    -0.355273315002E+03   -0.10294E-01   -0.10353E-01  7072   0.122E+00 0.580E-03
CGA:  10    -0.355279862981E+03   -0.65480E-02   -0.65320E-02  7072   0.893E-01-0.318E-03
CGA:  11    -0.355283695041E+03   -0.38321E-02   -0.38592E-02  7072   0.398E-01-0.215E-04
CGA:  12    -0.355286367132E+03   -0.26721E-02   -0.26721E-02  7072   0.295E-01-0.885E-07
CGA:  13    -0.355288090849E+03   -0.17237E-02   -0.17253E-02  7072   0.835E-02 0.102E-03
CGA:  14    -0.355288691604E+03   -0.60075E-03   -0.60069E-03  7072   0.890E-02 0.420E-05
CGA:  15    -0.355289249031E+03   -0.55743E-03   -0.55757E-03  7072   0.652E-02 0.301E-04
CGA:  16    -0.355289546967E+03   -0.29794E-03   -0.29797E-03  7072   0.433E-02-0.566E-06
CGA:  17    -0.355289786107E+03   -0.23914E-03   -0.23924E-03  7072   0.177E-02 0.614E-05
CGA:  18    -0.355289896254E+03   -0.11015E-03   -0.11015E-03  7072   0.152E-02 0.648E-06
CGA:  19    -0.355290085192E+03   -0.18894E-03   -0.18851E-03  7072   0.143E-02 0.704E-05
CGA:  20    -0.355290142314E+03   -0.57122E-04   -0.57169E-04  7072   0.781E-03 0.336E-06
CGA:  21    -0.355290191926E+03   -0.49612E-04   -0.49617E-04  7072   0.683E-03 0.295E-05
CGA:  22    -0.355290223918E+03   -0.31992E-04   -0.32006E-04  7072   0.350E-03 0.124E-05
CGA:  23    -0.355290265410E+03   -0.41492E-04   -0.41314E-04  7072   0.273E-03 0.329E-05
CGA:  24    -0.355290280211E+03   -0.14801E-04   -0.14809E-04  7072   0.162E-03 0.705E-06
CGA:  25    -0.355290289230E+03   -0.90193E-05   -0.90272E-05  7072   0.112E-03 0.593E-06
  54 F= -.35529029E+03 E0= -.35527562E+03  d E =0.767554E-02  mag=     3.7581
       N       E                     dE             d eps       ncg     rms          ort
SDA:   1    -0.355041072463E+03    0.24921E+00    0.00000E+00  7072   0.127E+01 0.000E+00
CGA:   2    -0.355084594751E+03   -0.43522E-01   -0.44221E-01  7072   0.108E+01-0.110E-01
CGA:   3    -0.355206871295E+03   -0.12228E+00   -0.12170E+00  7072   0.799E+00 0.106E-01
CGA:   4    -0.355239609810E+03   -0.32739E-01   -0.32168E-01  7072   0.334E+00 0.346E-02
CGA:   5    -0.355274816001E+03   -0.35206E-01   -0.35047E-01  7072   0.286E+00 0.355E-02
CGA:   6    -0.355287086432E+03   -0.12270E-01   -0.12253E-01  7072   0.569E-01 0.856E-04
CGA:   7    -0.355292080401E+03   -0.49940E-02   -0.49865E-02  7072   0.311E-01 0.262E-03
CGA:   8    -0.355293889471E+03   -0.18091E-02   -0.18091E-02  7072   0.343E-01 0.103E-05
CGA:   9    -0.355295340459E+03   -0.14510E-02   -0.14520E-02  7072   0.106E-01 0.292E-05
CGA:  10    -0.355295957975E+03   -0.61752E-03   -0.61760E-03  7072   0.448E-02 0.611E-05
CGA:  11    -0.355296383777E+03   -0.42580E-03   -0.42570E-03  7072   0.494E-02 0.366E-05
CGA:  12    -0.355296639105E+03   -0.25533E-03   -0.25536E-03  7072   0.185E-02 0.146E-05
CGA:  13    -0.355296758684E+03   -0.11958E-03   -0.11958E-03  7072   0.113E-02 0.291E-05
CGA:  14    -0.355296812388E+03   -0.53705E-04   -0.53708E-04  7072   0.696E-03 0.627E-06
CGA:  15    -0.355296848046E+03   -0.35657E-04   -0.35685E-04  7072   0.634E-03 0.178E-05
CGA:  16    -0.355296896102E+03   -0.48057E-04   -0.48044E-04  7072   0.211E-03 0.112E-05
CGA:  17    -0.355296915257E+03   -0.19154E-04   -0.19159E-04  7072   0.121E-03-0.195E-06
CGA:  18    -0.355296922174E+03   -0.69176E-05   -0.69161E-05  7072   0.145E-03-0.161E-06
CGA:  19    -0.355296932384E+03   -0.10210E-04   -0.10208E-04  7072   0.140E-03 0.452E-06
CGA:  20    -0.355296939057E+03   -0.66721E-05   -0.66688E-05  7072   0.559E-04-0.182E-06
  55 F= -.35529694E+03 E0= -.35528226E+03  d E =-.664983E-02  mag=     3.7455
       N       E                     dE             d eps       ncg     rms          ort
SDA:   1    -0.355255793922E+03    0.41138E-01    0.00000E+00  7072   0.234E+00 0.000E+00
CGA:   2    -0.355264393614E+03   -0.85997E-02   -0.86104E-02  7072   0.136E+00-0.158E-03
CGA:   3    -0.355282981735E+03   -0.18588E-01   -0.18603E-01  7072   0.243E+00-0.212E-03
CGA:   4    -0.355290546745E+03   -0.75650E-02   -0.76760E-02  7072   0.614E-01-0.200E-02
CGA:   5    -0.355293583344E+03   -0.30366E-02   -0.30313E-02  7072   0.359E-01-0.667E-04
CGA:   6    -0.355296500017E+03   -0.29167E-02   -0.29155E-02  7072   0.159E-01 0.501E-04
CGA:   7    -0.355297345484E+03   -0.84547E-03   -0.84538E-03  7072   0.499E-02-0.819E-06
CGA:   8    -0.355297759331E+03   -0.41385E-03   -0.41368E-03  7072   0.405E-02 0.683E-05
CGA:   9    -0.355297887877E+03   -0.12855E-03   -0.12843E-03  7072   0.177E-02-0.121E-05
CGA:  10    -0.355298051146E+03   -0.16327E-03   -0.16329E-03  7072   0.768E-03-0.113E-05
CGA:  11    -0.355298095777E+03   -0.44630E-04   -0.44625E-04  7072   0.600E-03-0.390E-06
CGA:  12    -0.355298131832E+03   -0.36055E-04   -0.36058E-04  7072   0.261E-03 0.493E-06
CGA:  13    -0.355298147404E+03   -0.15572E-04   -0.15567E-04  7072   0.266E-03-0.799E-06
CGA:  14    -0.355298160213E+03   -0.12810E-04   -0.12805E-04  7072   0.130E-03-0.336E-06
CGA:  15    -0.355298166136E+03   -0.59227E-05   -0.59176E-05  7072   0.471E-04-0.285E-06
  56 F= -.35529817E+03 E0= -.35528350E+03  d E =-.122708E-02  mag=     3.7513
