       N       E                     dE             d eps       ncg     rms          rms(c)
DAV:   1     0.221389871743E+04    0.22139E+04   -0.88849E+04111872   0.188E+03
DAV:   2     0.877134015822E+02   -0.21262E+04   -0.19694E+04111616   0.554E+02
DAV:   3    -0.204866427394E+03   -0.29258E+03   -0.28576E+03118816   0.204E+02
DAV:   4    -0.218404987144E+03   -0.13539E+02   -0.13452E+02158224   0.410E+01
DAV:   5    -0.218734164880E+03   -0.32918E+00   -0.32815E+00152224   0.449E+00    0.564E+00
DAV:   6    -0.179175391088E+03    0.39559E+02   -0.15523E+01124464   0.153E+01    0.597E+00
DAV:   7    -0.178983186190E+03    0.19220E+00   -0.61305E-01142928   0.283E+00    0.290E+00
DAV:   8    -0.178912398692E+03    0.70787E-01   -0.88897E-02124208   0.113E+00    0.200E+00
DAV:   9    -0.178874941033E+03    0.37458E-01   -0.32356E-02123200   0.693E-01    0.131E+00
DAV:  10    -0.178863822359E+03    0.11119E-01   -0.56471E-03126960   0.315E-01    0.102E+00
DAV:  11    -0.178857983369E+03    0.58390E-02   -0.21369E-03126048   0.194E-01    0.840E-01
DAV:  12    -0.178852531946E+03    0.54514E-02   -0.27630E-03126928   0.213E-01    0.634E-01
DAV:  13    -0.178848081857E+03    0.44501E-02   -0.31894E-03123520   0.226E-01    0.414E-01
DAV:  14    -0.178844636061E+03    0.34458E-02   -0.45549E-03125392   0.276E-01    0.150E-01
DAV:  15    -0.178843854280E+03    0.78178E-03   -0.80333E-04128080   0.113E-01    0.510E-02
DAV:  16    -0.178843765838E+03    0.88442E-04   -0.38436E-05129152   0.208E-02    0.370E-02
DAV:  17    -0.178843676537E+03    0.89301E-04   -0.24305E-05 95392   0.218E-02    0.165E-02
DAV:  18    -0.178843626450E+03    0.50087E-04   -0.13197E-05 72928   0.159E-02    0.440E-03
DAV:  19    -0.178843614732E+03    0.11718E-04   -0.35802E-06 69120   0.755E-03    0.279E-03
DAV:  20    -0.178843609471E+03    0.52613E-05   -0.12721E-06 66896   0.451E-03
   1 F= -.17884361E+03 E0= -.17884361E+03  d E =-.178844E+03  mag=    12.0000
