       N       E                     dE             d eps       ncg     rms          ort
DAV:   1     0.582328496735E+04    0.58233E+04   -0.23449E+05  7072   0.164E+03
DAV:   2     0.577161056659E+03   -0.52461E+04   -0.49079E+04  7072   0.474E+02
DAV:   3    -0.365773069300E+03   -0.94293E+03   -0.92461E+03  7072   0.206E+02
DAV:   4    -0.410728682536E+03   -0.44956E+02   -0.42819E+02  7072   0.488E+01
DAV:   5    -0.412795210786E+03   -0.20665E+01   -0.20250E+01  7072   0.959E+00
SDA:   6    -0.794147742611E+02    0.33338E+03   -0.20250E+01  7072   0.370E+04 0.000E+00
CGA:   7    -0.654311876494E+02    0.13984E+02   -0.33174E+03  7072   0.168E+04-0.220E+03
CGA:   8    -0.233366087830E+03   -0.16793E+03   -0.10223E+03  7072   0.161E+04-0.240E+03
CGA:   9    -0.235121776363E+03   -0.17557E+01   -0.11633E+03  7072   0.114E+04-0.343E+03
CGA:  10    -0.253199404279E+03   -0.18078E+02   -0.50462E+02  7072   0.283E+04-0.295E+04
CGA:  11    -0.253541794173E+03   -0.34239E+00   -0.21703E+03  7072   0.372E+03-0.119E+03
CGA:  12    -0.297208850423E+03   -0.43667E+02   -0.10842E+02  7072   0.378E+03 0.542E+03
CGA:  13    -0.329888014141E+03   -0.32679E+02   -0.10274E+02  7072   0.272E+03 0.914E+03
CGA:  14    -0.328472407700E+03    0.14156E+01   -0.66919E+01  7072   0.560E+03-0.354E+03
CGA:  15    -0.308793331814E+03    0.19679E+02   -0.33139E+02  7072   0.199E+03-0.591E+02
CGA:  16    -0.317050501291E+03   -0.82572E+01   -0.22754E+01  7072   0.870E+03 0.950E+03
CGA:  17    -0.261341038062E+03    0.55709E+02   -0.30202E+02  7072   0.510E+04-0.245E+04
CGA:  18    -0.274423474873E+03   -0.13082E+02   -0.32188E+03  7072   0.260E+03-0.200E+03
CGA:  19    -0.287655641853E+03   -0.13232E+02   -0.43708E+01  7072   0.969E+03 0.110E+04
CGA:  20    -0.323312602615E+03   -0.35657E+02   -0.33221E+02  7072   0.469E+03 0.101E+04
CGA:  21    -0.334924825544E+03   -0.11612E+02   -0.89813E+01  7072   0.247E+03-0.445E+03
CGA:  22    -0.328667711945E+03    0.62571E+01   -0.84372E+01  7072   0.793E+03-0.352E+03
CGA:  23    -0.318150323417E+03    0.10517E+02   -0.19992E+02  7072   0.188E+04-0.131E+04
CGA:  24    -0.303816937120E+03    0.14333E+02   -0.89856E+02  7072   0.453E+03-0.338E+03
CGA:  25    -0.316007915666E+03   -0.12191E+02   -0.51325E+01  7072   0.384E+03 0.427E+03
CGA:  26    -0.332580152721E+03   -0.16572E+02   -0.48099E+01  7072   0.651E+03 0.117E+04
CGA:  27    -0.334965250135E+03   -0.23851E+01   -0.12008E+02  7072   0.501E+03-0.592E+03
CGA:  28    -0.322927233370E+03    0.12038E+02   -0.15586E+02  7072   0.695E+03-0.377E+03
CGA:  29    -0.335723989051E+03   -0.12797E+02   -0.11685E+02  7072   0.464E+03-0.872E+03
CGA:  30    -0.326409921419E+03    0.93141E+01   -0.13080E+02  7072   0.849E+03-0.491E+03
CGA:  31    -0.334723142419E+03   -0.83132E+01   -0.14601E+02  7072   0.572E+03-0.865E+03
CGA:  32    -0.325801700914E+03    0.89214E+01   -0.15499E+02  7072   0.802E+03-0.505E+03
CGA:  33    -0.338379544531E+03   -0.12578E+02   -0.12029E+02  7072   0.265E+03-0.622E+03
CGA:  34    -0.337459811102E+03    0.91973E+00   -0.55224E+01  7072   0.385E+03-0.324E+03
CGA:  35    -0.340493564166E+03   -0.30338E+01   -0.52873E+01  7072   0.814E+02-0.172E+03
CGA:  36    -0.341368009244E+03   -0.87445E+00   -0.82186E+00  7072   0.243E+01 0.202E+01
CGA:  37    -0.342620135359E+03   -0.12521E+01   -0.10139E+00  7072   0.155E+02 0.745E-01
CGA:  38    -0.342999116165E+03   -0.37898E+00   -0.23457E+00  7072   0.930E+01 0.905E+01
CGA:  39    -0.343387972468E+03   -0.38886E+00   -0.33672E+00  7072   0.281E+01 0.653E+00
CGA:  40    -0.343438105860E+03   -0.50133E-01   -0.51419E-01  7072   0.174E+01-0.792E-01
CGA:  41    -0.343596664454E+03   -0.15856E+00   -0.15842E+00  7072   0.272E+01-0.376E-02
CGA:  42    -0.343829264872E+03   -0.23260E+00   -0.20252E+00  7072   0.519E+01-0.672E-02
CGA:  43    -0.343972923828E+03   -0.14366E+00   -0.12103E+00  7072   0.354E+01 0.997E+00
CGA:  44    -0.344109145109E+03   -0.13622E+00   -0.17491E+00  7072   0.278E+01-0.379E+00
CGA:  45    -0.344200542716E+03   -0.91398E-01   -0.83073E-01  7072   0.213E+01 0.216E+00
CGA:  46    -0.344252559426E+03   -0.52017E-01   -0.56656E-01  7072   0.890E+00-0.140E+00
CGA:  47    -0.344271576567E+03   -0.19017E-01   -0.20796E-01  7072   0.385E+00-0.541E-01
CGA:  48    -0.344311048982E+03   -0.39472E-01   -0.39699E-01  7072   0.111E+01-0.705E-02
CGA:  49    -0.344348017818E+03   -0.36969E-01   -0.37944E-01  7072   0.743E+00-0.109E-01
CGA:  50    -0.344377704045E+03   -0.29686E-01   -0.29611E-01  7072   0.590E+00 0.450E-03
CGA:  51    -0.344408011193E+03   -0.30307E-01   -0.30442E-01  7072   0.724E+00 0.260E-02
CGA:  52    -0.344452392116E+03   -0.44381E-01   -0.45494E-01  7072   0.519E+00 0.117E-01
CGA:  53    -0.344477508253E+03   -0.25116E-01   -0.25855E-01  7072   0.406E+00-0.132E-02
CGA:  54    -0.344510782355E+03   -0.33274E-01   -0.33372E-01  7072   0.662E+00-0.147E-01
CGA:  55    -0.344541629674E+03   -0.30847E-01   -0.30913E-01  7072   0.425E+00 0.920E-02
CGA:  56    -0.344563169934E+03   -0.21540E-01   -0.21253E-01  7072   0.319E+00 0.141E-02
CGA:  57    -0.344584370480E+03   -0.21201E-01   -0.20976E-01  7072   0.472E+00-0.750E-02
CGA:  58    -0.344609038403E+03   -0.24668E-01   -0.25101E-01  7072   0.436E+00 0.392E-02
CGA:  59    -0.344628481833E+03   -0.19443E-01   -0.19132E-01  7072   0.303E+00 0.492E-02
CGA:  60    -0.344643999607E+03   -0.15518E-01   -0.15383E-01  7072   0.278E+00 0.500E-03
CGA:  61    -0.344658078365E+03   -0.14079E-01   -0.14028E-01  7072   0.271E+00 0.755E-03
CGA:  62    -0.344672687865E+03   -0.14610E-01   -0.14413E-01  7072   0.298E+00-0.118E-02
CGA:  63    -0.344687675120E+03   -0.14987E-01   -0.14717E-01  7072   0.352E+00-0.151E-02
CGA:  64    -0.344702971347E+03   -0.15296E-01   -0.15568E-01  7072   0.313E+00-0.107E-02
CGA:  65    -0.344715413123E+03   -0.12442E-01   -0.12723E-01  7072   0.222E+00-0.139E-02
CGA:  66    -0.344725351505E+03   -0.99384E-02   -0.97833E-02  7072   0.199E+00 0.444E-03
CGA:  67    -0.344735065174E+03   -0.97137E-02   -0.94109E-02  7072   0.269E+00-0.162E-02
CGA:  68    -0.344746093628E+03   -0.11028E-01   -0.10318E-01  7072   0.385E+00 0.639E-02
SDA:  69    -0.344757051015E+03   -0.10957E-01   -0.90592E-02  7072   0.407E+00 0.702E-01
CGA:  70    -0.344776997853E+03   -0.19947E-01   -0.19963E-01  7072   0.211E+00 0.369E-03
CGA:  71    -0.344790058116E+03   -0.13060E-01   -0.13060E-01  7072   0.233E+00-0.340E-04
CGA:  72    -0.344808257413E+03   -0.18199E-01   -0.18374E-01  7072   0.414E+00-0.743E-02
CGA:  73    -0.344845868488E+03   -0.37611E-01   -0.37532E-01  7072   0.461E+00-0.761E-02
CGA:  74    -0.344867573313E+03   -0.21705E-01   -0.21379E-01  7072   0.170E+00 0.324E-03
CGA:  75    -0.344878232809E+03   -0.10659E-01   -0.10656E-01  7072   0.125E+00 0.348E-02
CGA:  76    -0.344887481426E+03   -0.92486E-02   -0.93338E-02  7072   0.114E+00-0.505E-02
CGA:  77    -0.344896083816E+03   -0.86024E-02   -0.85770E-02  7072   0.134E+00 0.110E-02
CGA:  78    -0.344903603652E+03   -0.75198E-02   -0.73540E-02  7072   0.136E+00-0.582E-02
CGA:  79    -0.344908753971E+03   -0.51503E-02   -0.51059E-02  7072   0.832E-01 0.743E-03
CGA:  80    -0.344913584411E+03   -0.48304E-02   -0.48120E-02  7072   0.797E-01-0.176E-02
CGA:  81    -0.344916732973E+03   -0.31486E-02   -0.32313E-02  7072   0.846E-01 0.477E-04
CGA:  82    -0.344921444505E+03   -0.47115E-02   -0.46774E-02  7072   0.948E-01-0.240E-02
CGA:  83    -0.344926750082E+03   -0.53056E-02   -0.52996E-02  7072   0.910E-01-0.829E-03
CGA:  84    -0.344929660636E+03   -0.29106E-02   -0.31436E-02  7072   0.520E-01-0.190E-02
CGA:  85    -0.344932874888E+03   -0.32143E-02   -0.32324E-02  7072   0.696E-01-0.229E-02
CGA:  86    -0.344936721251E+03   -0.38464E-02   -0.38333E-02  7072   0.701E-01-0.383E-02
CGA:  87    -0.344939303304E+03   -0.25821E-02   -0.26574E-02  7072   0.638E-01 0.445E-03
CGA:  88    -0.344942601230E+03   -0.32979E-02   -0.33108E-02  7072   0.402E-01 0.812E-03
CGA:  89    -0.344944152319E+03   -0.15511E-02   -0.15531E-02  7072   0.185E-01 0.108E-05
CGA:  90    -0.344945559617E+03   -0.14073E-02   -0.14089E-02  7072   0.391E-01-0.837E-04
CGA:  91    -0.344947908051E+03   -0.23484E-02   -0.23580E-02  7072   0.526E-01-0.195E-02
CGA:  92    -0.344950166158E+03   -0.22581E-02   -0.22531E-02  7072   0.353E-01-0.150E-03
CGA:  93    -0.344951286570E+03   -0.11204E-02   -0.11223E-02  7072   0.201E-01-0.621E-04
CGA:  94    -0.344952094334E+03   -0.80776E-03   -0.80586E-03  7072   0.177E-01-0.299E-04
CGA:  95    -0.344953075091E+03   -0.98076E-03   -0.98088E-03  7072   0.202E-01-0.204E-03
CGA:  96    -0.344953740446E+03   -0.66535E-03   -0.66420E-03  7072   0.143E-01 0.207E-04
CGA:  97    -0.344954509065E+03   -0.76862E-03   -0.76866E-03  7072   0.194E-01 0.636E-04
CGA:  98    -0.344955371420E+03   -0.86235E-03   -0.86206E-03  7072   0.183E-01 0.169E-04
CGA:  99    -0.344955968283E+03   -0.59686E-03   -0.59651E-03  7072   0.890E-02 0.374E-04
SDA: 100    -0.344956400254E+03   -0.43197E-03   -0.43193E-03  7072   0.141E-01 0.572E-05
CGA: 101    -0.344956846004E+03   -0.44575E-03   -0.44553E-03  7072   0.760E-02 0.199E-05
CGA: 102    -0.344957436112E+03   -0.59011E-03   -0.58954E-03  7072   0.142E-01 0.151E-04
CGA: 103    -0.344958582992E+03   -0.11469E-02   -0.11539E-02  7072   0.889E-02-0.215E-03
CGA: 104    -0.344959906481E+03   -0.13235E-02   -0.13177E-02  7072   0.728E-02 0.537E-04
CGA: 105    -0.344960489918E+03   -0.58344E-03   -0.58544E-03  7072   0.683E-02-0.687E-04
CGA: 106    -0.344961211711E+03   -0.72179E-03   -0.70054E-03  7072   0.184E-01 0.443E-03
CGA: 107    -0.344962118518E+03   -0.90681E-03   -0.88633E-03  7072   0.419E-02-0.110E-03
CGA: 108    -0.344962356255E+03   -0.23774E-03   -0.23792E-03  7072   0.301E-02 0.188E-04
CGA: 109    -0.344962546192E+03   -0.18994E-03   -0.19004E-03  7072   0.317E-02-0.329E-04
CGA: 110    -0.344962810087E+03   -0.26390E-03   -0.25964E-03  7072   0.532E-02 0.143E-03
CGA: 111    -0.344963306743E+03   -0.49666E-03   -0.52009E-03  7072   0.588E-02-0.644E-03
CGA: 112    -0.344963524211E+03   -0.21747E-03   -0.21819E-03  7072   0.254E-02-0.187E-04
CGA: 113    -0.344963660101E+03   -0.13589E-03   -0.13538E-03  7072   0.159E-02-0.278E-04
CGA: 114    -0.344963890563E+03   -0.23046E-03   -0.23356E-03  7072   0.293E-02-0.464E-04
CGA: 115    -0.344964047469E+03   -0.15691E-03   -0.15548E-03  7072   0.152E-02-0.458E-04
CGA: 116    -0.344964100253E+03   -0.52784E-04   -0.52889E-04  7072   0.812E-03-0.757E-05
CGA: 117    -0.344964185572E+03   -0.85319E-04   -0.85025E-04  7072   0.798E-03 0.528E-05
CGA: 118    -0.344964265222E+03   -0.79650E-04   -0.79594E-04  7072   0.773E-03 0.773E-06
CGA: 119    -0.344964323626E+03   -0.58404E-04   -0.58435E-04  7072   0.536E-03-0.140E-05
CGA: 120    -0.344964342856E+03   -0.19231E-04   -0.19279E-04  7072   0.326E-03 0.289E-05
CGA: 121    -0.344964367962E+03   -0.25106E-04   -0.25032E-04  7072   0.342E-03 0.690E-05
CGA: 122    -0.344964408608E+03   -0.40646E-04   -0.40029E-04  7072   0.354E-03 0.120E-04
CGA: 123    -0.344964433853E+03   -0.25245E-04   -0.25252E-04  7072   0.177E-03 0.795E-05
CGA: 124    -0.344964446996E+03   -0.13143E-04   -0.13126E-04  7072   0.127E-03 0.493E-05
CGA: 125    -0.344964453751E+03   -0.67555E-05   -0.67775E-05  7072   0.175E-03 0.155E-05
CGA: 126    -0.344964470125E+03   -0.16374E-04   -0.16375E-04  7072   0.174E-03 0.225E-06
CGA: 127    -0.344964478910E+03   -0.87850E-05   -0.86138E-05  7072   0.489E-04 0.648E-07
   1 F= -.34496448E+03 E0= -.34494969E+03  d E =-.344964E+03  mag=     5.0105
       N       E                     dE             d eps       ncg     rms          ort
SDA:   1    -0.345148134781E+03   -0.18366E+00    0.00000E+00  7072   0.198E+00 0.000E+00
CGA:   2    -0.345152398192E+03   -0.42634E-02   -0.43061E-02  7072   0.422E-01-0.156E-02
CGA:   3    -0.345155211949E+03   -0.28138E-02   -0.28136E-02  7072   0.339E-01-0.930E-04
CGA:   4    -0.345158344748E+03   -0.31328E-02   -0.31322E-02  7072   0.152E-01 0.185E-04
CGA:   5    -0.345159052024E+03   -0.70728E-03   -0.70709E-03  7072   0.719E-02 0.627E-05
CGA:   6    -0.345159471971E+03   -0.41995E-03   -0.42012E-03  7072   0.981E-02 0.437E-05
CGA:   7    -0.345160047782E+03   -0.57581E-03   -0.57567E-03  7072   0.340E-02-0.117E-04
CGA:   8    -0.345160204857E+03   -0.15708E-03   -0.15692E-03  7072   0.101E-02-0.463E-05
CGA:   9    -0.345160279587E+03   -0.74729E-04   -0.74759E-04  7072   0.104E-02-0.329E-05
CGA:  10    -0.345160330778E+03   -0.51191E-04   -0.51127E-04  7072   0.783E-03-0.453E-05
CGA:  11    -0.345160364229E+03   -0.33452E-04   -0.33384E-04  7072   0.254E-03-0.353E-05
CGA:  12    -0.345160385231E+03   -0.21002E-04   -0.21033E-04  7072   0.127E-03-0.169E-05
CGA:  13    -0.345160393019E+03   -0.77880E-05   -0.77875E-05  7072   0.180E-03-0.111E-06
CGA:  14    -0.345160405062E+03   -0.12042E-04   -0.12043E-04  7072   0.156E-03-0.491E-06
CGA:  15    -0.345160412182E+03   -0.71208E-05   -0.71222E-05  7072   0.619E-04 0.978E-07
   2 F= -.34516041E+03 E0= -.34514569E+03  d E =-.195933E+00  mag=     5.0063
       N       E                     dE             d eps       ncg     rms          ort
SDA:   1    -0.343419383088E+03    0.17410E+01    0.00000E+00  7072   0.177E+02 0.000E+00
CGA:   2    -0.346481381313E+03   -0.30620E+01   -0.30283E+01  7072   0.268E+02 0.372E+00
CGA:   3    -0.347455941408E+03   -0.97456E+00   -0.89502E+00  7072   0.699E+01 0.169E+01
CGA:   4    -0.347747742847E+03   -0.29180E+00   -0.29140E+00  7072   0.616E+01 0.271E-02
CGA:   5    -0.348348619751E+03   -0.60088E+00   -0.59505E+00  7072   0.391E+01 0.149E+00
CGA:   6    -0.348527868969E+03   -0.17925E+00   -0.17590E+00  7072   0.178E+01 0.173E-01
CGA:   7    -0.348588737392E+03   -0.60868E-01   -0.59358E-01  7072   0.893E+00 0.229E-01
CGA:   8    -0.348639307369E+03   -0.50570E-01   -0.50427E-01  7072   0.633E+00-0.533E-02
CGA:   9    -0.348686888519E+03   -0.47581E-01   -0.47594E-01  7072   0.592E+00-0.104E-02
CGA:  10    -0.348702636282E+03   -0.15748E-01   -0.16222E-01  7072   0.164E+00-0.115E-01
CGA:  11    -0.348713571817E+03   -0.10936E-01   -0.10946E-01  7072   0.835E-01-0.155E-02
CGA:  12    -0.348723078481E+03   -0.95067E-02   -0.95094E-02  7072   0.187E+00-0.296E-04
CGA:  13    -0.348730251976E+03   -0.71735E-02   -0.72254E-02  7072   0.707E-01-0.428E-03
CGA:  14    -0.348733029175E+03   -0.27772E-02   -0.27598E-02  7072   0.325E-01 0.110E-03
CGA:  15    -0.348736886700E+03   -0.38575E-02   -0.38513E-02  7072   0.430E-01 0.111E-03
CGA:  16    -0.348740321910E+03   -0.34352E-02   -0.34386E-02  7072   0.336E-01-0.163E-03
CGA:  17    -0.348741473112E+03   -0.11512E-02   -0.11495E-02  7072   0.198E-01 0.495E-04
CGA:  18    -0.348742811937E+03   -0.13388E-02   -0.13388E-02  7072   0.842E-02 0.274E-05
CGA:  19    -0.348743948059E+03   -0.11361E-02   -0.11344E-02  7072   0.171E-01 0.254E-04
CGA:  20    -0.348744682908E+03   -0.73485E-03   -0.73560E-03  7072   0.819E-02 0.161E-04
CGA:  21    -0.348744965917E+03   -0.28301E-03   -0.28438E-03  7072   0.304E-02-0.313E-05
CGA:  22    -0.348745280111E+03   -0.31419E-03   -0.31336E-03  7072   0.316E-02 0.220E-04
CGA:  23    -0.348745540112E+03   -0.26000E-03   -0.25984E-03  7072   0.290E-02 0.128E-04
CGA:  24    -0.348745648300E+03   -0.10819E-03   -0.10828E-03  7072   0.134E-02 0.638E-05
CGA:  25    -0.348745713391E+03   -0.65091E-04   -0.65145E-04  7072   0.938E-03 0.330E-05
CGA:  26    -0.348745792976E+03   -0.79585E-04   -0.79519E-04  7072   0.652E-03 0.337E-05
CGA:  27    -0.348745863929E+03   -0.70953E-04   -0.70845E-04  7072   0.523E-03 0.259E-05
CGA:  28    -0.348745881376E+03   -0.17447E-04   -0.17448E-04  7072   0.238E-03 0.306E-06
CGA:  29    -0.348745897758E+03   -0.16381E-04   -0.16384E-04  7072   0.318E-03-0.175E-05
CGA:  30    -0.348745922538E+03   -0.24781E-04   -0.24819E-04  7072   0.180E-03-0.349E-05
CGA:  31    -0.348745934662E+03   -0.12124E-04   -0.12124E-04  7072   0.780E-04-0.165E-05
SDA:  32    -0.348745940702E+03   -0.60401E-05   -0.60549E-05  7072   0.616E-04-0.146E-05
   3 F= -.34874594E+03 E0= -.34873133E+03  d E =-.358553E+01  mag=     5.0032
       N       E                     dE             d eps       ncg     rms          ort
SDA:   1    -0.340277986733E+03    0.84679E+01    0.00000E+00  7072   0.363E+02 0.000E+00
CGA:   2    -0.346638245543E+03   -0.63603E+01   -0.60569E+01  7072   0.433E+02 0.338E+01
CGA:   3    -0.348766446375E+03   -0.21282E+01   -0.16824E+01  7072   0.936E+01 0.694E+01
CGA:   4    -0.349341794708E+03   -0.57535E+00   -0.57228E+00  7072   0.150E+02-0.488E-01
CGA:   5    -0.350511291375E+03   -0.11695E+01   -0.11697E+01  7072   0.101E+02-0.469E-01
CGA:   6    -0.350789486624E+03   -0.27820E+00   -0.25188E+00  7072   0.291E+01 0.866E+00
CGA:   7    -0.350900915923E+03   -0.11143E+00   -0.10697E+00  7072   0.181E+01 0.792E-01
CGA:   8    -0.350994906878E+03   -0.93991E-01   -0.92598E-01  7072   0.233E+01-0.181E-01
CGA:   9    -0.351069152891E+03   -0.74246E-01   -0.73319E-01  7072   0.128E+01 0.173E-01
CGA:  10    -0.351126218177E+03   -0.57065E-01   -0.57820E-01  7072   0.130E+01 0.238E-02
CGA:  11    -0.351157901909E+03   -0.31684E-01   -0.32803E-01  7072   0.246E+00-0.292E-01
CGA:  12    -0.351169726150E+03   -0.11824E-01   -0.11820E-01  7072   0.403E+00-0.196E-03
CGA:  13    -0.351193644261E+03   -0.23918E-01   -0.23920E-01  7072   0.394E+00 0.225E-02
CGA:  14    -0.351208836854E+03   -0.15193E-01   -0.15312E-01  7072   0.204E+00-0.187E-03
CGA:  15    -0.351215652689E+03   -0.68158E-02   -0.68109E-02  7072   0.109E+00 0.502E-04
CGA:  16    -0.351220896146E+03   -0.52435E-02   -0.52580E-02  7072   0.111E+00 0.519E-03
CGA:  17    -0.351229586423E+03   -0.86903E-02   -0.86725E-02  7072   0.160E+00 0.662E-03
CGA:  18    -0.351234571580E+03   -0.49852E-02   -0.49725E-02  7072   0.553E-01 0.207E-03
CGA:  19    -0.351237444442E+03   -0.28729E-02   -0.28738E-02  7072   0.393E-01 0.966E-04
CGA:  20    -0.351239007367E+03   -0.15629E-02   -0.15610E-02  7072   0.335E-01 0.186E-04
CGA:  21    -0.351240855930E+03   -0.18486E-02   -0.18486E-02  7072   0.314E-01 0.101E-03
CGA:  22    -0.351242931993E+03   -0.20761E-02   -0.20739E-02  7072   0.336E-01 0.152E-03
CGA:  23    -0.351243972132E+03   -0.10401E-02   -0.10418E-02  7072   0.118E-01 0.118E-04
CGA:  24    -0.351244557586E+03   -0.58545E-03   -0.58555E-03  7072   0.876E-02 0.172E-04
CGA:  25    -0.351245087432E+03   -0.52985E-03   -0.52973E-03  7072   0.132E-01 0.215E-04
CGA:  26    -0.351245749454E+03   -0.66202E-03   -0.66221E-03  7072   0.846E-02 0.292E-04
CGA:  27    -0.351246108473E+03   -0.35902E-03   -0.35925E-03  7072   0.381E-02 0.112E-04
CGA:  28    -0.351246279454E+03   -0.17098E-03   -0.17103E-03  7072   0.347E-02 0.509E-05
CGA:  29    -0.351246441686E+03   -0.16223E-03   -0.16225E-03  7072   0.221E-02 0.366E-05
CGA:  30    -0.351246612326E+03   -0.17064E-03   -0.17058E-03  7072   0.305E-02 0.241E-05
CGA:  31    -0.351246743518E+03   -0.13119E-03   -0.13121E-03  7072   0.204E-02 0.111E-05
SDA:  32    -0.351246819811E+03   -0.76293E-04   -0.76287E-04  7072   0.496E-03-0.271E-06
CGA:  33    -0.351246852597E+03   -0.32786E-04   -0.32803E-04  7072   0.567E-03-0.157E-05
CGA:  34    -0.351246901229E+03   -0.48631E-04   -0.48838E-04  7072   0.805E-03-0.635E-05
CGA:  35    -0.351246936405E+03   -0.35177E-04   -0.35117E-04  7072   0.449E-03-0.544E-05
CGA:  36    -0.351246963646E+03   -0.27241E-04   -0.27269E-04  7072   0.136E-03-0.440E-05
CGA:  37    -0.351246974598E+03   -0.10952E-04   -0.10987E-04  7072   0.153E-03-0.137E-05
CGA:  38    -0.351246993015E+03   -0.18417E-04   -0.18642E-04  7072   0.170E-03-0.344E-05
CGA:  39    -0.351247002126E+03   -0.91107E-05   -0.91031E-05  7072   0.666E-04-0.157E-05
   4 F= -.35124700E+03 E0= -.35123241E+03  d E =-.250106E+01  mag=     5.0045
       N       E                     dE             d eps       ncg     rms          ort
SDA:   1    -0.344741430278E+03    0.65056E+01    0.00000E+00  7072   0.249E+02 0.000E+00
CGA:   2    -0.348061075197E+03   -0.33196E+01   -0.31119E+01  7072   0.460E+02 0.309E+01
CGA:   3    -0.350141109502E+03   -0.20800E+01   -0.19540E+01  7072   0.129E+02 0.239E+01
CGA:   4    -0.350796122211E+03   -0.65501E+00   -0.64420E+00  7072   0.754E+01-0.161E+00
CGA:   5    -0.351541767066E+03   -0.74564E+00   -0.75592E+00  7072   0.715E+01-0.246E+00
CGA:   6    -0.351843903874E+03   -0.30214E+00   -0.30762E+00  7072   0.255E+01 0.191E-01
CGA:   7    -0.351930162547E+03   -0.86259E-01   -0.88547E-01  7072   0.121E+01-0.220E-01
CGA:   8    -0.352005351081E+03   -0.75189E-01   -0.75179E-01  7072   0.115E+01 0.190E-02
CGA:   9    -0.352081181326E+03   -0.75830E-01   -0.75858E-01  7072   0.212E+00-0.366E-02
CGA:  10    -0.352097875694E+03   -0.16694E-01   -0.16555E-01  7072   0.241E+00 0.569E-02
CGA:  11    -0.352109874232E+03   -0.11999E-01   -0.12020E-01  7072   0.221E+00 0.324E-03
CGA:  12    -0.352124178259E+03   -0.14304E-01   -0.14305E-01  7072   0.121E+00-0.141E-03
CGA:  13    -0.352130408733E+03   -0.62305E-02   -0.62343E-02  7072   0.536E-01 0.106E-03
CGA:  14    -0.352135605465E+03   -0.51967E-02   -0.51800E-02  7072   0.933E-01 0.414E-03
CGA:  15    -0.352141364672E+03   -0.57592E-02   -0.57599E-02  7072   0.701E-01 0.239E-03
CGA:  16    -0.352143926498E+03   -0.25618E-02   -0.25706E-02  7072   0.227E-01-0.627E-04
CGA:  17    -0.352146121676E+03   -0.21952E-02   -0.21976E-02  7072   0.260E-01-0.565E-04
CGA:  18    -0.352148564753E+03   -0.24431E-02   -0.24326E-02  7072   0.280E-01 0.293E-03
CGA:  19    -0.352149480236E+03   -0.91548E-03   -0.91869E-03  7072   0.860E-02-0.120E-04
CGA:  20    -0.352150096549E+03   -0.61631E-03   -0.61617E-03  7072   0.854E-02 0.166E-04
CGA:  21    -0.352150821759E+03   -0.72521E-03   -0.72445E-03  7072   0.639E-02 0.337E-04
CGA:  22    -0.352151105117E+03   -0.28336E-03   -0.28358E-03  7072   0.368E-02 0.113E-04
CGA:  23    -0.352151303454E+03   -0.19834E-03   -0.19845E-03  7072   0.261E-02 0.976E-05
CGA:  24    -0.352151456485E+03   -0.15303E-03   -0.15305E-03  7072   0.146E-02 0.600E-05
CGA:  25    -0.352151616397E+03   -0.15991E-03   -0.15968E-03  7072   0.192E-02 0.507E-05
CGA:  26    -0.352151685371E+03   -0.68974E-04   -0.69030E-04  7072   0.734E-03 0.176E-05
CGA:  27    -0.352151728983E+03   -0.43612E-04   -0.43616E-04  7072   0.491E-03 0.776E-06
CGA:  28    -0.352151784100E+03   -0.55117E-04   -0.55115E-04  7072   0.736E-03 0.114E-06
CGA:  29    -0.352151818512E+03   -0.34412E-04   -0.34387E-04  7072   0.377E-03-0.676E-06
CGA:  30    -0.352151834409E+03   -0.15897E-04   -0.15864E-04  7072   0.162E-03-0.133E-05
CGA:  31    -0.352151849717E+03   -0.15308E-04   -0.15362E-04  7072   0.252E-03-0.171E-05
SDA:  32    -0.352151867885E+03   -0.18168E-04   -0.18176E-04  7072   0.154E-03-0.118E-05
CGA:  33    -0.352151871591E+03   -0.37060E-05   -0.37025E-05  7072   0.505E-04-0.148E-07
   5 F= -.35215187E+03 E0= -.35213719E+03  d E =-.904869E+00  mag=     5.0080
       N       E                     dE             d eps       ncg     rms          ort
SDA:   1    -0.342793109757E+03    0.93588E+01    0.00000E+00  7072   0.423E+02 0.000E+00
CGA:   2    -0.344880373522E+03   -0.20873E+01   -0.21765E+01  7072   0.611E+02 0.110E+01
CGA:   3    -0.349268539704E+03   -0.43882E+01   -0.44421E+01  7072   0.392E+02-0.644E+01
CGA:   4    -0.350805061127E+03   -0.15365E+01   -0.15364E+01  7072   0.118E+02 0.945E+00
CGA:   5    -0.351297814652E+03   -0.49275E+00   -0.43685E+00  7072   0.100E+02 0.269E+00
CGA:   6    -0.351947328269E+03   -0.64951E+00   -0.64952E+00  7072   0.144E+02-0.265E-01
CGA:   7    -0.352396910383E+03   -0.44958E+00   -0.44060E+00  7072   0.224E+01 0.245E+00
CGA:   8    -0.352481577392E+03   -0.84667E-01   -0.90150E-01  7072   0.138E+01-0.134E-01
CGA:   9    -0.352551437958E+03   -0.69861E-01   -0.69681E-01  7072   0.192E+01-0.531E-02
CGA:  10    -0.352644316604E+03   -0.92879E-01   -0.94292E-01  7072   0.488E+00 0.417E-01
CGA:  11    -0.352661723625E+03   -0.17407E-01   -0.17555E-01  7072   0.232E+00-0.868E-03
CGA:  12    -0.352682397317E+03   -0.20674E-01   -0.20054E-01  7072   0.286E+00 0.176E-01
CGA:  13    -0.352695416404E+03   -0.13019E-01   -0.12923E-01  7072   0.226E+00-0.456E-03
CGA:  14    -0.352705478782E+03   -0.10062E-01   -0.10305E-01  7072   0.918E-01 0.434E-02
CGA:  15    -0.352711654275E+03   -0.61755E-02   -0.61702E-02  7072   0.543E-01 0.404E-03
CGA:  16    -0.352716102488E+03   -0.44482E-02   -0.44459E-02  7072   0.703E-01 0.643E-04
CGA:  17    -0.352721030084E+03   -0.49276E-02   -0.48880E-02  7072   0.545E-01 0.253E-02
CGA:  18    -0.352723391419E+03   -0.23613E-02   -0.23635E-02  7072   0.355E-01 0.116E-04
CGA:  19    -0.352725175596E+03   -0.17842E-02   -0.17891E-02  7072   0.189E-01 0.198E-03
CGA:  20    -0.352727116379E+03   -0.19408E-02   -0.19378E-02  7072   0.196E-01 0.670E-04
CGA:  21    -0.352728871581E+03   -0.17552E-02   -0.17510E-02  7072   0.162E-01 0.125E-03
CGA:  22    -0.352729636111E+03   -0.76453E-03   -0.76497E-03  7072   0.713E-02 0.180E-04
CGA:  23    -0.352729994972E+03   -0.35886E-03   -0.35942E-03  7072   0.728E-02 0.207E-04
CGA:  24    -0.352730590649E+03   -0.59568E-03   -0.59544E-03  7072   0.814E-02 0.111E-04
CGA:  25    -0.352731041209E+03   -0.45056E-03   -0.45062E-03  7072   0.171E-02 0.583E-05
CGA:  26    -0.352731204974E+03   -0.16377E-03   -0.16365E-03  7072   0.268E-02 0.344E-05
CGA:  27    -0.352731370054E+03   -0.16508E-03   -0.16509E-03  7072   0.304E-02 0.344E-05
CGA:  28    -0.352731518383E+03   -0.14833E-03   -0.14833E-03  7072   0.966E-03-0.476E-06
CGA:  29    -0.352731577090E+03   -0.58707E-04   -0.58713E-04  7072   0.719E-03 0.223E-05
CGA:  30    -0.352731635764E+03   -0.58674E-04   -0.58635E-04  7072   0.686E-03 0.200E-05
CGA:  31    -0.352731696058E+03   -0.60293E-04   -0.60299E-04  7072   0.932E-03-0.355E-06
SDA:  32    -0.352731726114E+03   -0.30056E-04   -0.30017E-04  7072   0.184E-03-0.367E-06
CGA:  33    -0.352731735295E+03   -0.91807E-05   -0.91850E-05  7072   0.183E-03 0.229E-06
CGA:  34    -0.352731747958E+03   -0.12663E-04   -0.12666E-04  7072   0.276E-03-0.516E-06
CGA:  35    -0.352731768820E+03   -0.20862E-04   -0.20894E-04  7072   0.122E-03-0.251E-05
CGA:  36    -0.352731779123E+03   -0.10304E-04   -0.10317E-04  7072   0.626E-04-0.686E-06
CGA:  37    -0.352731785580E+03   -0.64572E-05   -0.64599E-05  7072   0.923E-04-0.125E-06
   6 F= -.35273179E+03 E0= -.35271708E+03  d E =-.579914E+00  mag=     5.0069
       N       E                     dE             d eps       ncg     rms          ort
SDA:   1    -0.329862747821E+03    0.22869E+02    0.00000E+00  7072   0.127E+03 0.000E+00
CGA:   2    -0.334426029010E+03   -0.45633E+01   -0.46331E+01  7072   0.116E+03-0.100E+02
CGA:   3    -0.342294757586E+03   -0.78687E+01   -0.82463E+01  7072   0.181E+03-0.230E+02
CGA:   4    -0.345404981436E+03   -0.31102E+01   -0.35286E+01  7072   0.234E+03-0.264E+02
CGA:   5    -0.347319578546E+03   -0.19146E+01   -0.31371E+01  7072   0.133E+03-0.106E+03
CGA:   6    -0.348180441704E+03   -0.86086E+00   -0.96983E+00  7072   0.135E+03-0.121E+02
CGA:   7    -0.349044551443E+03   -0.86411E+00   -0.13838E+01  7072   0.742E+02-0.677E+02
CGA:   8    -0.350197362889E+03   -0.11528E+01   -0.14321E+01  7072   0.264E+02-0.113E+02
CGA:   9    -0.351081389534E+03   -0.88403E+00   -0.88286E+00  7072   0.245E+02 0.299E-01
CGA:  10    -0.351676566262E+03   -0.59518E+00   -0.58779E+00  7072   0.260E+02-0.327E-01
CGA:  11    -0.352513385892E+03   -0.83682E+00   -0.87102E+00  7072   0.621E+01-0.360E-01
CGA:  12    -0.352706384330E+03   -0.19300E+00   -0.18770E+00  7072   0.400E+01 0.104E-01
CGA:  13    -0.352776859855E+03   -0.70476E-01   -0.71501E-01  7072   0.214E+01-0.433E-01
CGA:  14    -0.352901585743E+03   -0.12473E+00   -0.12261E+00  7072   0.357E+01 0.163E+00
CGA:  15    -0.353056528494E+03   -0.15494E+00   -0.15708E+00  7072   0.276E+01 0.447E-01
CGA:  16    -0.353121320768E+03   -0.64792E-01   -0.67943E-01  7072   0.146E+01-0.490E-01
CGA:  17    -0.353165639422E+03   -0.44319E-01   -0.47400E-01  7072   0.633E+00 0.119E-01
CGA:  18    -0.353211155746E+03   -0.45516E-01   -0.44872E-01  7072   0.538E+00 0.204E-01
CGA:  19    -0.353239277819E+03   -0.28122E-01   -0.27940E-01  7072   0.427E+00 0.612E-01
CGA:  20    -0.353253947866E+03   -0.14670E-01   -0.14653E-01  7072   0.194E+00-0.175E-04
CGA:  21    -0.353264156466E+03   -0.10209E-01   -0.10103E-01  7072   0.111E+00 0.144E-01
CGA:  22    -0.353271580627E+03   -0.74242E-02   -0.74485E-02  7072   0.880E-01-0.124E-02
CGA:  23    -0.353276025828E+03   -0.44452E-02   -0.44277E-02  7072   0.783E-01 0.458E-02
CGA:  24    -0.353279803481E+03   -0.37777E-02   -0.37773E-02  7072   0.374E-01-0.454E-04
CGA:  25    -0.353282700561E+03   -0.28971E-02   -0.28433E-02  7072   0.439E-01 0.166E-02
CGA:  26    -0.353285261289E+03   -0.25607E-02   -0.25607E-02  7072   0.404E-01 0.452E-05
CGA:  27    -0.353287683914E+03   -0.24226E-02   -0.24071E-02  7072   0.269E-01 0.111E-02
CGA:  28    -0.353289343201E+03   -0.16593E-02   -0.16579E-02  7072   0.189E-01 0.107E-03
CGA:  29    -0.353290476834E+03   -0.11336E-02   -0.11315E-02  7072   0.204E-01 0.173E-03
CGA:  30    -0.353291695899E+03   -0.12191E-02   -0.12184E-02  7072   0.998E-02 0.676E-04
CGA:  31    -0.353292315782E+03   -0.61988E-03   -0.61921E-03  7072   0.851E-02 0.478E-04
CGA:  32    -0.353292761275E+03   -0.44549E-03   -0.44550E-03  7072   0.649E-02 0.828E-05
CGA:  33    -0.353293235177E+03   -0.47390E-03   -0.47349E-03  7072   0.539E-02 0.183E-04
CGA:  34    -0.353293556761E+03   -0.32158E-03   -0.32152E-03  7072   0.395E-02 0.961E-05
CGA:  35    -0.353293756362E+03   -0.19960E-03   -0.19963E-03  7072   0.289E-02 0.587E-05
CGA:  36    -0.353293992423E+03   -0.23606E-03   -0.23617E-03  7072   0.298E-02-0.246E-05
CGA:  37    -0.353294161602E+03   -0.16918E-03   -0.16917E-03  7072   0.189E-02 0.662E-05
SDA:  38    -0.353294253900E+03   -0.92299E-04   -0.92302E-04  7072   0.127E-02 0.303E-05
CGA:  39    -0.353294285861E+03   -0.31960E-04   -0.31950E-04  7072   0.444E-03-0.241E-06
CGA:  40    -0.353294342104E+03   -0.56244E-04   -0.56230E-04  7072   0.123E-02 0.657E-07
CGA:  41    -0.353294436638E+03   -0.94533E-04   -0.94526E-04  7072   0.313E-03 0.726E-06
CGA:  42    -0.353294458804E+03   -0.22166E-04   -0.22172E-04  7072   0.252E-03-0.434E-06
CGA:  43    -0.353294496131E+03   -0.37327E-04   -0.37719E-04  7072   0.323E-03-0.443E-05
CGA:  44    -0.353294521926E+03   -0.25795E-04   -0.25786E-04  7072   0.140E-03 0.478E-06
CGA:  45    -0.353294530157E+03   -0.82318E-05   -0.82349E-05  7072   0.154E-03 0.503E-06
   7 F= -.35329453E+03 E0= -.35327976E+03  d E =-.562745E+00  mag=     5.0077
       N       E                     dE             d eps       ncg     rms          ort
SDA:   1    -0.328133448589E+03    0.25161E+02    0.00000E+00  7072   0.896E+02 0.000E+00
CGA:   2    -0.334800874563E+03   -0.66674E+01   -0.66909E+01  7072   0.163E+03-0.190E+00
CGA:   3    -0.344442392592E+03   -0.96415E+01   -0.89507E+01  7072   0.133E+03-0.149E+02
CGA:   4    -0.347406033272E+03   -0.29636E+01   -0.32232E+01  7072   0.106E+03-0.102E+01
CGA:   5    -0.348785087295E+03   -0.13791E+01   -0.15734E+01  7072   0.578E+02-0.226E+02
CGA:   6    -0.349803460390E+03   -0.10184E+01   -0.89658E+00  7072   0.593E+02 0.540E+01
CGA:   7    -0.350699025717E+03   -0.89557E+00   -0.90812E+00  7072   0.383E+02-0.167E+01
CGA:   8    -0.351494180425E+03   -0.79515E+00   -0.87336E+00  7072   0.478E+02-0.193E+01
CGA:   9    -0.352187584700E+03   -0.69340E+00   -0.78781E+00  7072   0.278E+02-0.441E+01
CGA:  10    -0.352649934852E+03   -0.46235E+00   -0.43657E+00  7072   0.204E+02 0.811E+00
CGA:  11    -0.352961721847E+03   -0.31179E+00   -0.27185E+00  7072   0.584E+01 0.276E+01
CGA:  12    -0.353037158217E+03   -0.75436E-01   -0.73677E-01  7072   0.285E+01 0.101E+00
CGA:  13    -0.353134221566E+03   -0.97063E-01   -0.97749E-01  7072   0.678E+01 0.676E-02
CGA:  14    -0.353255575275E+03   -0.12135E+00   -0.11674E+00  7072   0.403E+01 0.182E+00
CGA:  15    -0.353333605692E+03   -0.78030E-01   -0.83122E-01  7072   0.522E+01-0.184E+00
CGA:  16    -0.353429323440E+03   -0.95718E-01   -0.99216E-01  7072   0.249E+01-0.730E-01
CGA:  17    -0.353459962606E+03   -0.30639E-01   -0.33261E-01  7072   0.118E+01-0.146E+00
CGA:  18    -0.353486164021E+03   -0.26201E-01   -0.27381E-01  7072   0.913E+00-0.878E-02
CGA:  19    -0.353502887392E+03   -0.16723E-01   -0.18268E-01  7072   0.616E+00-0.376E-01
CGA:  20    -0.353529226437E+03   -0.26339E-01   -0.26016E-01  7072   0.593E+00 0.378E-01
CGA:  21    -0.353548850628E+03   -0.19624E-01   -0.19583E-01  7072   0.510E+00-0.135E-02
CGA:  22    -0.353562983385E+03   -0.14133E-01   -0.14468E-01  7072   0.294E+00 0.532E-02
CGA:  23    -0.353575319902E+03   -0.12337E-01   -0.12236E-01  7072   0.211E+00 0.190E-01
CGA:  24    -0.353580573518E+03   -0.52536E-02   -0.52581E-02  7072   0.691E-01-0.390E-04
CGA:  25    -0.353586300698E+03   -0.57272E-02   -0.57210E-02  7072   0.111E+00 0.141E-03
CGA:  26    -0.353590761361E+03   -0.44607E-02   -0.44590E-02  7072   0.926E-01 0.368E-02
CGA:  27    -0.353594890405E+03   -0.41290E-02   -0.41257E-02  7072   0.278E-01 0.580E-03
CGA:  28    -0.353596736868E+03   -0.18465E-02   -0.18415E-02  7072   0.281E-01 0.172E-03
CGA:  29    -0.353598144371E+03   -0.14075E-02   -0.14036E-02  7072   0.318E-01 0.313E-03
CGA:  30    -0.353600110156E+03   -0.19658E-02   -0.19646E-02  7072   0.222E-01 0.515E-04
CGA:  31    -0.353601424060E+03   -0.13139E-02   -0.13111E-02  7072   0.894E-02 0.132E-03
SDA:  32    -0.353602018572E+03   -0.59451E-03   -0.59278E-03  7072   0.133E-01 0.667E-04
CGA:  33    -0.353602312516E+03   -0.29394E-03   -0.29404E-03  7072   0.381E-02 0.236E-05
CGA:  34    -0.353603108699E+03   -0.79618E-03   -0.85440E-06  7072   0.143E-01-0.977E-03
CGA:  35    -0.353603559805E+03   -0.45111E-03   -0.45053E-03  7072   0.583E-02 0.102E-04
CGA:  36    -0.353603880930E+03   -0.32113E-03   -0.32122E-03  7072   0.446E-02-0.271E-05
CGA:  37    -0.353604119793E+03   -0.23886E-03   -0.23892E-03  7072   0.394E-02-0.272E-05
CGA:  38    -0.353604455863E+03   -0.33607E-03   -0.33608E-03  7072   0.597E-02-0.265E-06
CGA:  39    -0.353604749607E+03   -0.29374E-03   -0.29383E-03  7072   0.350E-02 0.453E-05
CGA:  40    -0.353604929746E+03   -0.18014E-03   -0.18054E-03  7072   0.240E-02 0.544E-05
CGA:  41    -0.353605088018E+03   -0.15827E-03   -0.15832E-03  7072   0.255E-02 0.416E-05
CGA:  42    -0.353605250175E+03   -0.16216E-03   -0.16222E-03  7072   0.191E-02 0.423E-05
CGA:  43    -0.353605364852E+03   -0.11468E-03   -0.11473E-03  7072   0.161E-02 0.298E-05
CGA:  44    -0.353605446647E+03   -0.81794E-04   -0.81762E-04  7072   0.812E-03 0.161E-05
CGA:  45    -0.353605480544E+03   -0.33897E-04   -0.33934E-04  7072   0.448E-03 0.193E-06
CGA:  46    -0.353605516536E+03   -0.35991E-04   -0.35978E-04  7072   0.800E-03 0.815E-06
CGA:  47    -0.353605568124E+03   -0.51589E-04   -0.51603E-04  7072   0.326E-03 0.216E-05
CGA:  48    -0.353605580059E+03   -0.11935E-04   -0.11956E-04  7072   0.137E-03 0.276E-06
CGA:  49    -0.353605589878E+03   -0.98188E-05   -0.98176E-05  7072   0.147E-03 0.213E-06
   8 F= -.35360559E+03 E0= -.35359060E+03  d E =-.311060E+00  mag=     4.9948
       N       E                     dE             d eps       ncg     rms          ort
SDA:   1    -0.328883928207E+03    0.24722E+02    0.00000E+00  7072   0.921E+02 0.000E+00
CGA:   2    -0.334399266565E+03   -0.55153E+01   -0.54151E+01  7072   0.143E+03-0.499E+01
CGA:   3    -0.343788038906E+03   -0.93888E+01   -0.94346E+01  7072   0.180E+03-0.121E+02
CGA:   4    -0.347345217915E+03   -0.35572E+01   -0.43696E+01  7072   0.149E+03-0.188E+02
CGA:   5    -0.348775898118E+03   -0.14307E+01   -0.20767E+01  7072   0.667E+02-0.563E+02
CGA:   6    -0.349714925774E+03   -0.93903E+00   -0.86628E+00  7072   0.605E+02 0.466E+01
CGA:   7    -0.350668008923E+03   -0.95308E+00   -0.75972E+00  7072   0.252E+02 0.143E+02
CGA:   8    -0.351297217176E+03   -0.62921E+00   -0.69021E+00  7072   0.361E+02-0.236E+01
CGA:   9    -0.351882667206E+03   -0.58545E+00   -0.60931E+00  7072   0.362E+02-0.533E+00
CGA:  10    -0.352466766317E+03   -0.58410E+00   -0.56479E+00  7072   0.316E+02 0.117E+01
CGA:  11    -0.352983925836E+03   -0.51716E+00   -0.48539E+00  7072   0.153E+02 0.213E+01
CGA:  12    -0.353141127544E+03   -0.15720E+00   -0.15318E+00  7072   0.325E+01 0.480E+00
CGA:  13    -0.353191837836E+03   -0.50710E-01   -0.52829E-01  7072   0.335E+01-0.990E-01
CGA:  14    -0.353288403352E+03   -0.96566E-01   -0.99585E-01  7072   0.546E+01 0.267E-02
CGA:  15    -0.353387809392E+03   -0.99406E-01   -0.95361E-01  7072   0.428E+01 0.129E+00
CGA:  16    -0.353485673642E+03   -0.97864E-01   -0.10345E+00  7072   0.431E+01-0.112E+00
CGA:  17    -0.353546092822E+03   -0.60419E-01   -0.58563E-01  7072   0.191E+01 0.102E+00
CGA:  18    -0.353581274135E+03   -0.35181E-01   -0.36277E-01  7072   0.163E+01-0.379E-01
CGA:  19    -0.353608078976E+03   -0.26805E-01   -0.28371E-01  7072   0.866E+00-0.581E-01
CGA:  20    -0.353625794406E+03   -0.17715E-01   -0.19036E-01  7072   0.969E+00-0.219E-01
CGA:  21    -0.353651148642E+03   -0.25354E-01   -0.25561E-01  7072   0.631E+00 0.354E-02
CGA:  22    -0.353670268766E+03   -0.19120E-01   -0.18928E-01  7072   0.815E+00-0.479E-02
CGA:  23    -0.353689480106E+03   -0.19211E-01   -0.19668E-01  7072   0.466E+00-0.121E-02
CGA:  24    -0.353698518373E+03   -0.90383E-02   -0.99553E-02  7072   0.267E+00-0.113E-01
CGA:  25    -0.353707471160E+03   -0.89528E-02   -0.89833E-02  7072   0.138E+00 0.630E-02
CGA:  26    -0.353712097949E+03   -0.46268E-02   -0.46226E-02  7072   0.149E+00-0.484E-03
CGA:  27    -0.353718923238E+03   -0.68253E-02   -0.67842E-02  7072   0.114E+00 0.300E-02
CGA:  28    -0.353722231864E+03   -0.33086E-02   -0.33394E-02  7072   0.780E-01 0.888E-03
CGA:  29    -0.353725702607E+03   -0.34707E-02   -0.34643E-02  7072   0.539E-01 0.603E-03
CGA:  30    -0.353727669969E+03   -0.19674E-02   -0.19676E-02  7072   0.390E-01 0.200E-03
CGA:  31    -0.353728896344E+03   -0.12264E-02   -0.12290E-02  7072   0.186E-01 0.157E-03
SDA:  32    -0.353730078485E+03   -0.11821E-02   -0.11749E-02  7072   0.332E-01 0.249E-03
CGA:  33    -0.353730782110E+03   -0.70363E-03   -0.70422E-03  7072   0.737E-02-0.449E-05
CGA:  34    -0.353731627433E+03   -0.84532E-03   -0.84113E-03  7072   0.120E-01 0.617E-04
CGA:  35    -0.353732681875E+03   -0.10544E-02   -0.10529E-02  7072   0.771E-02 0.332E-04
CGA:  36    -0.353733421700E+03   -0.73983E-03   -0.73866E-03  7072   0.504E-02 0.236E-04
CGA:  37    -0.353733775365E+03   -0.35366E-03   -0.35298E-03  7072   0.425E-02 0.251E-04
CGA:  38    -0.353734180108E+03   -0.40474E-03   -0.40320E-03  7072   0.574E-02 0.323E-04
CGA:  39    -0.353734475020E+03   -0.29491E-03   -0.29488E-03  7072   0.512E-02 0.919E-05
CGA:  40    -0.353734778400E+03   -0.30338E-03   -0.30347E-03  7072   0.449E-02-0.708E-05
CGA:  41    -0.353735072436E+03   -0.29404E-03   -0.29380E-03  7072   0.155E-02 0.120E-04
CGA:  42    -0.353735389189E+03   -0.31675E-03   -0.31405E-03  7072   0.200E-02 0.182E-04
CGA:  43    -0.353735499582E+03   -0.11039E-03   -0.11041E-03  7072   0.692E-03 0.494E-05
CGA:  44    -0.353735549959E+03   -0.50377E-04   -0.50318E-04  7072   0.100E-02 0.373E-05
CGA:  45    -0.353735614772E+03   -0.64813E-04   -0.64789E-04  7072   0.115E-02 0.423E-05
CGA:  46    -0.353735674469E+03   -0.59697E-04   -0.59727E-04  7072   0.476E-03 0.424E-05
CGA:  47    -0.353735715827E+03   -0.41358E-04   -0.41320E-04  7072   0.156E-03 0.136E-05
CGA:  48    -0.353735729870E+03   -0.14043E-04   -0.14033E-04  7072   0.194E-03 0.239E-06
CGA:  49    -0.353735748169E+03   -0.18299E-04   -0.18296E-04  7072   0.249E-03-0.191E-07
CGA:  50    -0.353735758034E+03   -0.98651E-05   -0.98762E-05  7072   0.116E-03 0.388E-06
   9 F= -.35373576E+03 E0= -.35372067E+03  d E =-.130168E+00  mag=     5.0326
       N       E                     dE             d eps       ncg     rms          ort
SDA:   1    -0.314872241009E+03    0.38864E+02    0.00000E+00  7072   0.147E+03 0.000E+00
CGA:   2    -0.324842527475E+03   -0.99703E+01   -0.10489E+02  7072   0.270E+03-0.309E+02
CGA:   3    -0.335515150059E+03   -0.10673E+02   -0.10307E+02  7072   0.299E+03-0.337E+01
CGA:   4    -0.338021575960E+03   -0.25064E+01   -0.73138E+01  7072   0.701E+03-0.202E+03
CGA:   5    -0.342302223799E+03   -0.42806E+01   -0.13543E+02  7072   0.374E+03-0.404E+03
CGA:   6    -0.347064646143E+03   -0.47624E+01   -0.49491E+01  7072   0.325E+02-0.471E+02
CGA:   7    -0.348903653248E+03   -0.18390E+01   -0.18337E+01  7072   0.511E+02 0.204E+00
CGA:   8    -0.350412117963E+03   -0.15085E+01   -0.15858E+01  7072   0.250E+02-0.178E+00
CGA:   9    -0.351727325539E+03   -0.13152E+01   -0.13194E+01  7072   0.197E+02 0.163E+01
CGA:  10    -0.352457797599E+03   -0.73047E+00   -0.71062E+00  7072   0.104E+02 0.761E-01
CGA:  11    -0.352834418466E+03   -0.37662E+00   -0.37196E+00  7072   0.818E+01-0.488E-01
CGA:  12    -0.353468424661E+03   -0.63401E+00   -0.63393E+00  7072   0.871E+01-0.129E-01
CGA:  13    -0.353667651938E+03   -0.19923E+00   -0.22348E+00  7072   0.290E+01-0.647E+00
CGA:  14    -0.353747811051E+03   -0.80159E-01   -0.78527E-01  7072   0.786E+00 0.162E-01
CGA:  15    -0.353786726944E+03   -0.38916E-01   -0.39032E-01  7072   0.937E+00 0.341E-01
CGA:  16    -0.353829536018E+03   -0.42809E-01   -0.42793E-01  7072   0.603E+00-0.101E-02
CGA:  17    -0.353855861257E+03   -0.26325E-01   -0.26738E-01  7072   0.246E+00 0.244E-01
CGA:  18    -0.353865089914E+03   -0.92287E-02   -0.92370E-02  7072   0.170E+00 0.411E-04
CGA:  19    -0.353877668477E+03   -0.12579E-01   -0.12213E-01  7072   0.180E+00 0.129E-01
CGA:  20    -0.353888268216E+03   -0.10600E-01   -0.10619E-01  7072   0.176E+00-0.263E-02
CGA:  21    -0.353897275046E+03   -0.90068E-02   -0.89828E-02  7072   0.663E-01 0.122E-01
CGA:  22    -0.353900759237E+03   -0.34842E-02   -0.34856E-02  7072   0.535E-01 0.386E-03
CGA:  23    -0.353905643155E+03   -0.48839E-02   -0.47685E-02  7072   0.799E-01 0.272E-02
CGA:  24    -0.353909427182E+03   -0.37840E-02   -0.37842E-02  7072   0.299E-01 0.112E-04
CGA:  25    -0.353911141402E+03   -0.17142E-02   -0.17130E-02  7072   0.220E-01 0.145E-03
CGA:  26    -0.353912354756E+03   -0.12134E-02   -0.12133E-02  7072   0.183E-01 0.197E-04
CGA:  27    -0.353913926545E+03   -0.15718E-02   -0.15646E-02  7072   0.216E-01 0.194E-03
CGA:  28    -0.353914998879E+03   -0.10723E-02   -0.10734E-02  7072   0.999E-02 0.922E-04
CGA:  29    -0.353915540241E+03   -0.54136E-03   -0.54137E-03  7072   0.682E-02 0.234E-04
CGA:  30    -0.353915983767E+03   -0.44353E-03   -0.44355E-03  7072   0.775E-02 0.175E-05
CGA:  31    -0.353916667366E+03   -0.68360E-03   -0.68313E-03  7072   0.785E-02 0.137E-04
CGA:  32    -0.353917012104E+03   -0.34474E-03   -0.34503E-03  7072   0.310E-02 0.102E-04
CGA:  33    -0.353917188355E+03   -0.17625E-03   -0.17625E-03  7072   0.321E-02-0.103E-05
CGA:  34    -0.353917566923E+03   -0.37857E-03   -0.37841E-03  7072   0.436E-02 0.229E-05
CGA:  35    -0.353917726078E+03   -0.15916E-03   -0.15909E-03  7072   0.127E-02 0.131E-05
SDA:  36    -0.353917814364E+03   -0.88286E-04   -0.88308E-04  7072   0.152E-02-0.154E-05
CGA:  37    -0.353917852513E+03   -0.38149E-04   -0.38140E-04  7072   0.505E-03-0.177E-05
CGA:  38    -0.353917914114E+03   -0.61601E-04   -0.61717E-04  7072   0.139E-02-0.195E-05
CGA:  39    -0.353918034851E+03   -0.12074E-03   -0.12080E-03  7072   0.450E-03-0.254E-05
CGA:  40    -0.353918071262E+03   -0.36410E-04   -0.36415E-04  7072   0.490E-03-0.333E-06
CGA:  41    -0.353918116189E+03   -0.44927E-04   -0.45017E-04  7072   0.805E-03-0.307E-05
CGA:  42    -0.353918151700E+03   -0.35511E-04   -0.35490E-04  7072   0.468E-03-0.125E-05
CGA:  43    -0.353918181937E+03   -0.30237E-04   -0.30235E-04  7072   0.235E-03 0.530E-06
CGA:  44    -0.353918198586E+03   -0.16649E-04   -0.16645E-04  7072   0.199E-03 0.501E-06
CGA:  45    -0.353918220829E+03   -0.22243E-04   -0.22247E-04  7072   0.219E-03-0.168E-06
CGA:  46    -0.353918234192E+03   -0.13363E-04   -0.13366E-04  7072   0.129E-03 0.460E-06
CGA:  47    -0.353918241501E+03   -0.73093E-05   -0.73148E-05  7072   0.141E-03 0.538E-06
  10 F= -.35391824E+03 E0= -.35390326E+03  d E =-.182483E+00  mag=     5.0178
       N       E                     dE             d eps       ncg     rms          ort
SDA:   1    -0.332608332078E+03    0.21310E+02    0.00000E+00  7072   0.633E+02 0.000E+00
CGA:   2    -0.340058565470E+03   -0.74502E+01   -0.80803E+01  7072   0.189E+03-0.612E+01
CGA:   3    -0.346961585146E+03   -0.69030E+01   -0.57573E+01  7072   0.699E+02 0.290E+02
CGA:   4    -0.349234953524E+03   -0.22734E+01   -0.27662E+01  7072   0.546E+02-0.101E+02
CGA:   5    -0.350307688836E+03   -0.10727E+01   -0.11052E+01  7072   0.495E+02-0.122E+01
CGA:   6    -0.351716335312E+03   -0.14086E+01   -0.10440E+01  7072   0.320E+02 0.121E+02
CGA:   7    -0.352443088446E+03   -0.72675E+00   -0.73741E+00  7072   0.155E+02-0.105E+01
CGA:   8    -0.352836244741E+03   -0.39316E+00   -0.40914E+00  7072   0.200E+02-0.248E+00
CGA:   9    -0.353334905420E+03   -0.49866E+00   -0.49090E+00  7072   0.101E+02 0.312E+00
CGA:  10    -0.353514506543E+03   -0.17960E+00   -0.18292E+00  7072   0.531E+01-0.173E+00
CGA:  11    -0.353624343069E+03   -0.10984E+00   -0.92909E-01  7072   0.252E+01 0.809E+00
CGA:  12    -0.353680584402E+03   -0.56241E-01   -0.57772E-01  7072   0.219E+01-0.504E-01
CGA:  13    -0.353751538413E+03   -0.70954E-01   -0.72522E-01  7072   0.284E+01 0.476E-02
CGA:  14    -0.353809657114E+03   -0.58119E-01   -0.62358E-01  7072   0.148E+01-0.104E+00
CGA:  15    -0.353851285504E+03   -0.41628E-01   -0.42182E-01  7072   0.130E+01-0.329E-02
CGA:  16    -0.353880371461E+03   -0.29086E-01   -0.28167E-01  7072   0.499E+00 0.264E-01
CGA:  17    -0.353893503278E+03   -0.13132E-01   -0.13258E-01  7072   0.392E+00-0.149E-02
CGA:  18    -0.353903726818E+03   -0.10224E-01   -0.10429E-01  7072   0.237E+00-0.177E-02
CGA:  19    -0.353912540080E+03   -0.88133E-02   -0.88566E-02  7072   0.333E+00 0.248E-02
CGA:  20    -0.353924209040E+03   -0.11669E-01   -0.11688E-01  7072   0.189E+00 0.630E-03
CGA:  21    -0.353929319873E+03   -0.51108E-02   -0.51059E-02  7072   0.128E+00 0.105E-04
CGA:  22    -0.353933264881E+03   -0.39450E-02   -0.39712E-02  7072   0.619E-01 0.349E-03
CGA:  23    -0.353935026447E+03   -0.17616E-02   -0.17699E-02  7072   0.509E-01 0.212E-04
CGA:  24    -0.353937494078E+03   -0.24676E-02   -0.24641E-02  7072   0.602E-01 0.309E-03
CGA:  25    -0.353939884645E+03   -0.23906E-02   -0.23902E-02  7072   0.645E-01-0.117E-03
CGA:  26    -0.353941987599E+03   -0.21030E-02   -0.21087E-02  7072   0.274E-01 0.211E-03
CGA:  27    -0.353942731817E+03   -0.74422E-03   -0.74654E-03  7072   0.181E-01-0.217E-05
CGA:  28    -0.353943517717E+03   -0.78590E-03   -0.78542E-03  7072   0.177E-01 0.874E-04
CGA:  29    -0.353944260682E+03   -0.74296E-03   -0.74299E-03  7072   0.211E-01-0.179E-04
CGA:  30    -0.353945064280E+03   -0.80360E-03   -0.80368E-03  7072   0.154E-01 0.175E-04
CGA:  31    -0.353945680970E+03   -0.61669E-03   -0.61670E-03  7072   0.164E-01 0.269E-04
SDA:  32    -0.353946167946E+03   -0.48698E-03   -0.48811E-03  7072   0.482E-02 0.304E-04
CGA:  33    -0.353946330490E+03   -0.16254E-03   -0.16251E-03  7072   0.259E-02-0.235E-05
CGA:  34    -0.353946536537E+03   -0.20605E-03   -0.20608E-03  7072   0.467E-02-0.142E-05
CGA:  35    -0.353946875357E+03   -0.33882E-03   -0.33847E-03  7072   0.222E-02 0.104E-04
CGA:  36    -0.353947044256E+03   -0.16890E-03   -0.16849E-03  7072   0.125E-02 0.117E-04
CGA:  37    -0.353947146617E+03   -0.10236E-03   -0.10205E-03  7072   0.151E-02 0.811E-05
CGA:  38    -0.353947300782E+03   -0.15416E-03   -0.15409E-03  7072   0.141E-02 0.105E-05
CGA:  39    -0.353947377799E+03   -0.77017E-04   -0.76987E-04  7072   0.916E-03 0.362E-05
CGA:  40    -0.353947417086E+03   -0.39287E-04   -0.39291E-04  7072   0.813E-03-0.794E-07
CGA:  41    -0.353947552372E+03   -0.13529E-03   -0.13489E-03  7072   0.499E-03 0.324E-05
CGA:  42    -0.353947580432E+03   -0.28060E-04   -0.28059E-04  7072   0.287E-03 0.709E-06
CGA:  43    -0.353947604942E+03   -0.24510E-04   -0.24524E-04  7072   0.541E-03-0.558E-06
CGA:  44    -0.353947634125E+03   -0.29183E-04   -0.29179E-04  7072   0.366E-03-0.132E-05
CGA:  45    -0.353947654791E+03   -0.20666E-04   -0.20666E-04  7072   0.166E-03 0.574E-06
CGA:  46    -0.353947666304E+03   -0.11513E-04   -0.11513E-04  7072   0.108E-03-0.100E-06
CGA:  47    -0.353947675312E+03   -0.90087E-05   -0.90408E-05  7072   0.897E-04-0.129E-05
  11 F= -.35394768E+03 E0= -.35393252E+03  d E =-.294338E-01  mag=     5.0241
       N       E                     dE             d eps       ncg     rms          ort
SDA:   1    -0.329667141052E+03    0.24281E+02    0.00000E+00  7072   0.755E+02 0.000E+00
CGA:   2    -0.337564751975E+03   -0.78976E+01   -0.75927E+01  7072   0.162E+03 0.723E+01
CGA:   3    -0.345580367620E+03   -0.80156E+01   -0.73103E+01  7072   0.680E+02 0.486E+01
CGA:   4    -0.349418096560E+03   -0.38377E+01   -0.37555E+01  7072   0.418E+02-0.462E+01
CGA:   5    -0.351491758068E+03   -0.20737E+01   -0.20564E+01  7072   0.319E+02-0.111E+01
CGA:   6    -0.352630006778E+03   -0.11382E+01   -0.12640E+01  7072   0.132E+02 0.545E+00
CGA:   7    -0.353301808047E+03   -0.67180E+00   -0.66476E+00  7072   0.102E+02-0.247E+00
CGA:   8    -0.353545431047E+03   -0.24362E+00   -0.24075E+00  7072   0.354E+01 0.101E+00
CGA:   9    -0.353695103906E+03   -0.14967E+00   -0.14908E+00  7072   0.298E+01-0.646E-02
CGA:  10    -0.353842265013E+03   -0.14716E+00   -0.14855E+00  7072   0.191E+01 0.998E-01
CGA:  11    -0.353918175315E+03   -0.75910E-01   -0.77327E-01  7072   0.882E+00 0.799E-02
CGA:  12    -0.353948855211E+03   -0.30680E-01   -0.29876E-01  7072   0.619E+00 0.606E-02
CGA:  13    -0.353977708003E+03   -0.28853E-01   -0.29029E-01  7072   0.367E+00 0.911E-02
CGA:  14    -0.353996604496E+03   -0.18896E-01   -0.18939E-01  7072   0.298E+00 0.883E-02
CGA:  15    -0.354011928610E+03   -0.15324E-01   -0.15329E-01  7072   0.203E+00 0.772E-03
CGA:  16    -0.354018843328E+03   -0.69147E-02   -0.71142E-02  7072   0.995E-01 0.176E-03
CGA:  17    -0.354023649001E+03   -0.48057E-02   -0.48160E-02  7072   0.585E-01 0.123E-02
CGA:  18    -0.354028250331E+03   -0.46013E-02   -0.45596E-02  7072   0.510E-01 0.136E-02
CGA:  19    -0.354031180493E+03   -0.29302E-02   -0.29268E-02  7072   0.376E-01 0.617E-03
CGA:  20    -0.354033026582E+03   -0.18461E-02   -0.18472E-02  7072   0.264E-01 0.894E-04
CGA:  21    -0.354034330456E+03   -0.13039E-02   -0.13073E-02  7072   0.169E-01 0.403E-03
CGA:  22    -0.354035427534E+03   -0.10971E-02   -0.10964E-02  7072   0.128E-01 0.456E-04
CGA:  23    -0.354036562202E+03   -0.11347E-02   -0.11259E-02  7072   0.115E-01 0.228E-03
CGA:  24    -0.354037180246E+03   -0.61804E-03   -0.61828E-03  7072   0.564E-02 0.488E-04
CGA:  25    -0.354037570314E+03   -0.39007E-03   -0.38978E-03  7072   0.654E-02 0.163E-04
CGA:  26    -0.354037867159E+03   -0.29685E-03   -0.29761E-03  7072   0.357E-02 0.232E-04
CGA:  27    -0.354038116298E+03   -0.24914E-03   -0.24887E-03  7072   0.276E-02 0.136E-04
CGA:  28    -0.354038314536E+03   -0.19824E-03   -0.19802E-03  7072   0.129E-02 0.105E-04
CGA:  29    -0.354038403221E+03   -0.88685E-04   -0.88625E-04  7072   0.145E-02 0.367E-05
CGA:  30    -0.354038520102E+03   -0.11688E-03   -0.11682E-03  7072   0.129E-02 0.231E-05
CGA:  31    -0.354038580918E+03   -0.60816E-04   -0.60849E-04  7072   0.934E-03 0.141E-05
SDA:  32    -0.354038637626E+03   -0.56709E-04   -0.56694E-04  7072   0.716E-03 0.401E-05
CGA:  33    -0.354038662398E+03   -0.24772E-04   -0.24757E-04  7072   0.264E-03-0.420E-06
CGA:  34    -0.354038687623E+03   -0.25225E-04   -0.25215E-04  7072   0.728E-03 0.137E-06
CGA:  35    -0.354038749787E+03   -0.62164E-04   -0.62113E-04  7072   0.467E-03 0.154E-05
CGA:  36    -0.354038773697E+03   -0.23910E-04   -0.23908E-04  7072   0.223E-03 0.333E-06
CGA:  37    -0.354038789539E+03   -0.15843E-04   -0.15835E-04  7072   0.202E-03 0.494E-06
CGA:  38    -0.354038819632E+03   -0.30093E-04   -0.30281E-04  7072   0.181E-03-0.219E-05
CGA:  39    -0.354038832681E+03   -0.13048E-04   -0.13063E-04  7072   0.230E-03-0.182E-05
CGA:  40    -0.354038843153E+03   -0.10473E-04   -0.10461E-04  7072   0.128E-03-0.692E-06
CGA:  41    -0.354038851227E+03   -0.80736E-05   -0.80733E-05  7072   0.859E-04-0.336E-06
CGA:  42    -0.354038862834E+03   -0.11607E-04   -0.11722E-04  7072   0.890E-04-0.161E-05
CGA:  43    -0.354038867600E+03   -0.47659E-05   -0.47595E-05  7072   0.515E-04-0.444E-06
  12 F= -.35403887E+03 E0= -.35402400E+03  d E =-.911923E-01  mag=     4.9912
       N       E                     dE             d eps       ncg     rms          ort
SDA:   1    -0.349548069797E+03    0.44908E+01    0.00000E+00  7072   0.146E+02 0.000E+00
CGA:   2    -0.350803139058E+03   -0.12551E+01   -0.12551E+01  7072   0.327E+02-0.102E-01
CGA:   3    -0.352668708729E+03   -0.18656E+01   -0.18561E+01  7072   0.132E+02-0.962E-01
CGA:   4    -0.353243021127E+03   -0.57431E+00   -0.56353E+00  7072   0.505E+01 0.429E-01
CGA:   5    -0.353689195574E+03   -0.44617E+00   -0.46497E+00  7072   0.655E+01-0.591E+00
CGA:   6    -0.353910177894E+03   -0.22098E+00   -0.22965E+00  7072   0.166E+01-0.603E-01
CGA:   7    -0.353980292324E+03   -0.70114E-01   -0.70483E-01  7072   0.102E+01-0.105E-02
CGA:   8    -0.354021350405E+03   -0.41058E-01   -0.42047E-01  7072   0.483E+00-0.273E-02
CGA:   9    -0.354058750142E+03   -0.37400E-01   -0.37514E-01  7072   0.311E+00-0.557E-02
CGA:  10    -0.354074912669E+03   -0.16163E-01   -0.16189E-01  7072   0.130E+00 0.554E-03
CGA:  11    -0.354080772963E+03   -0.58603E-02   -0.58148E-02  7072   0.729E-01-0.141E-03
CGA:  12    -0.354085971747E+03   -0.51988E-02   -0.51831E-02  7072   0.817E-01 0.118E-02
CGA:  13    -0.354089939392E+03   -0.39676E-02   -0.39669E-02  7072   0.390E-01-0.346E-04
CGA:  14    -0.354091688118E+03   -0.17487E-02   -0.17549E-02  7072   0.144E-01 0.197E-04
CGA:  15    -0.354093091229E+03   -0.14031E-02   -0.14040E-02  7072   0.171E-01-0.243E-04
CGA:  16    -0.354093819056E+03   -0.72783E-03   -0.73128E-03  7072   0.881E-02-0.280E-05
CGA:  17    -0.354094511393E+03   -0.69234E-03   -0.69286E-03  7072   0.113E-01-0.254E-04
CGA:  18    -0.354095045462E+03   -0.53407E-03   -0.53514E-03  7072   0.351E-02 0.881E-05
CGA:  19    -0.354095293163E+03   -0.24770E-03   -0.24759E-03  7072   0.403E-02 0.103E-04
CGA:  20    -0.354095620579E+03   -0.32742E-03   -0.32675E-03  7072   0.407E-02 0.295E-04
CGA:  21    -0.354095839541E+03   -0.21896E-03   -0.21908E-03  7072   0.303E-02 0.981E-05
CGA:  22    -0.354096000917E+03   -0.16138E-03   -0.16158E-03  7072   0.157E-02 0.105E-04
CGA:  23    -0.354096088537E+03   -0.87619E-04   -0.87652E-04  7072   0.776E-03 0.403E-05
CGA:  24    -0.354096173343E+03   -0.84807E-04   -0.84519E-04  7072   0.159E-02 0.615E-05
CGA:  25    -0.354096246530E+03   -0.73187E-04   -0.73315E-04  7072   0.479E-03 0.564E-05
CGA:  26    -0.354096268894E+03   -0.22364E-04   -0.22387E-04  7072   0.296E-03 0.733E-06
CGA:  27    -0.354096293551E+03   -0.24657E-04   -0.24635E-04  7072   0.367E-03 0.103E-05
CGA:  28    -0.354096321483E+03   -0.27932E-04   -0.27907E-04  7072   0.248E-03 0.195E-05
CGA:  29    -0.354096333863E+03   -0.12381E-04   -0.12388E-04  7072   0.193E-03 0.578E-06
CGA:  30    -0.354096344643E+03   -0.10780E-04   -0.10779E-04  7072   0.116E-03-0.352E-07
CGA:  31    -0.354096358290E+03   -0.13647E-04   -0.13606E-04  7072   0.169E-03 0.698E-06
SDA:  32    -0.354096366436E+03   -0.81459E-05   -0.81442E-05  7072   0.910E-04-0.283E-06
  13 F= -.35409637E+03 E0= -.35408162E+03  d E =-.574988E-01  mag=     5.0086
       N       E                     dE             d eps       ncg     rms          ort
SDA:   1    -0.353032336263E+03    0.10640E+01    0.00000E+00  7072   0.341E+01 0.000E+00
CGA:   2    -0.353362598012E+03   -0.33026E+00   -0.33117E+00  7072   0.908E+01-0.202E-01
CGA:   3    -0.353807420756E+03   -0.44482E+00   -0.44636E+00  7072   0.236E+01 0.154E-01
CGA:   4    -0.353915742596E+03   -0.10832E+00   -0.10616E+00  7072   0.128E+01-0.328E-02
CGA:   5    -0.354036732385E+03   -0.12099E+00   -0.12042E+00  7072   0.750E+00 0.169E-01
CGA:   6    -0.354081101060E+03   -0.44369E-01   -0.44267E-01  7072   0.316E+00-0.580E-02
CGA:   7    -0.354095879270E+03   -0.14778E-01   -0.14759E-01  7072   0.173E+00-0.198E-03
CGA:   8    -0.354103012933E+03   -0.71337E-02   -0.72043E-02  7072   0.105E+00-0.861E-04
CGA:   9    -0.354110977655E+03   -0.79647E-02   -0.79756E-02  7072   0.488E-01-0.547E-03
CGA:  10    -0.354113312668E+03   -0.23350E-02   -0.23369E-02  7072   0.163E-01 0.166E-04
CGA:  11    -0.354114866970E+03   -0.15543E-02   -0.15583E-02  7072   0.175E-01-0.104E-03
CGA:  12    -0.354115855699E+03   -0.98873E-03   -0.98930E-03  7072   0.159E-01 0.193E-04
CGA:  13    -0.354116471880E+03   -0.61618E-03   -0.61703E-03  7072   0.374E-02-0.149E-04
CGA:  14    -0.354116822015E+03   -0.35013E-03   -0.35051E-03  7072   0.543E-02-0.111E-04
CGA:  15    -0.354117208333E+03   -0.38632E-03   -0.38626E-03  7072   0.311E-02 0.204E-05
CGA:  16    -0.354117462090E+03   -0.25376E-03   -0.25379E-03  7072   0.322E-02-0.200E-05
CGA:  17    -0.354117582717E+03   -0.12063E-03   -0.12064E-03  7072   0.153E-02-0.272E-07
CGA:  18    -0.354117722201E+03   -0.13948E-03   -0.13943E-03  7072   0.219E-02 0.196E-05
CGA:  19    -0.354117919868E+03   -0.19767E-03   -0.19747E-03  7072   0.758E-03 0.789E-05
CGA:  20    -0.354117979244E+03   -0.59377E-04   -0.59341E-04  7072   0.120E-02 0.260E-05
CGA:  21    -0.354118035330E+03   -0.56085E-04   -0.56142E-04  7072   0.548E-03 0.222E-05
CGA:  22    -0.354118074707E+03   -0.39377E-04   -0.39365E-04  7072   0.538E-03 0.245E-05
CGA:  23    -0.354118107016E+03   -0.32309E-04   -0.32332E-04  7072   0.187E-03 0.337E-05
CGA:  24    -0.354118123439E+03   -0.16423E-04   -0.16393E-04  7072   0.220E-03 0.136E-05
CGA:  25    -0.354118133848E+03   -0.10408E-04   -0.10437E-04  7072   0.166E-03 0.145E-05
CGA:  26    -0.354118143480E+03   -0.96327E-05   -0.96456E-05  7072   0.808E-04 0.161E-05
  14 F= -.35411814E+03 E0= -.35410342E+03  d E =-.217770E-01  mag=     5.0027
       N       E                     dE             d eps       ncg     rms          ort
SDA:   1    -0.350848100684E+03    0.32700E+01    0.00000E+00  7072   0.944E+01 0.000E+00
CGA:   2    -0.351750605871E+03   -0.90251E+00   -0.92229E+00  7072   0.307E+02-0.499E+00
CGA:   3    -0.353317454963E+03   -0.15668E+01   -0.15639E+01  7072   0.732E+01 0.283E-01
CGA:   4    -0.353632205472E+03   -0.31475E+00   -0.32597E+00  7072   0.359E+01-0.266E-01
CGA:   5    -0.353815913470E+03   -0.18371E+00   -0.18355E+00  7072   0.450E+01-0.393E-02
CGA:   6    -0.354011792485E+03   -0.19588E+00   -0.19716E+00  7072   0.144E+01-0.223E-02
CGA:   7    -0.354069102808E+03   -0.57310E-01   -0.57143E-01  7072   0.573E+00 0.104E-02
CGA:   8    -0.354086541978E+03   -0.17439E-01   -0.17077E-01  7072   0.310E+00 0.699E-02
CGA:   9    -0.354110057269E+03   -0.23515E-01   -0.23445E-01  7072   0.289E+00 0.388E-02
CGA:  10    -0.354121102930E+03   -0.11046E-01   -0.11105E-01  7072   0.155E+00-0.356E-03
CGA:  11    -0.354126142938E+03   -0.50400E-02   -0.50070E-02  7072   0.546E-01 0.489E-03
CGA:  12    -0.354130000559E+03   -0.38576E-02   -0.38516E-02  7072   0.591E-01 0.388E-03
CGA:  13    -0.354132022597E+03   -0.20220E-02   -0.20247E-02  7072   0.271E-01-0.390E-04
CGA:  14    -0.354133298547E+03   -0.12760E-02   -0.12743E-02  7072   0.187E-01-0.365E-04
CGA:  15    -0.354134527598E+03   -0.12291E-02   -0.12290E-02  7072   0.165E-01-0.495E-05
CGA:  16    -0.354135032022E+03   -0.50442E-03   -0.50704E-03  7072   0.634E-02-0.498E-04
CGA:  17    -0.354135388734E+03   -0.35671E-03   -0.35672E-03  7072   0.470E-02-0.189E-05
CGA:  18    -0.354135729283E+03   -0.34055E-03   -0.34033E-03  7072   0.734E-02 0.958E-05
CGA:  19    -0.354136013597E+03   -0.28431E-03   -0.28417E-03  7072   0.317E-02-0.473E-06
CGA:  20    -0.354136226265E+03   -0.21267E-03   -0.21265E-03  7072   0.225E-02 0.244E-05
CGA:  21    -0.354136319950E+03   -0.93685E-04   -0.93770E-04  7072   0.197E-02 0.284E-05
CGA:  22    -0.354136444696E+03   -0.12475E-03   -0.12471E-03  7072   0.206E-02 0.402E-05
CGA:  23    -0.354136595599E+03   -0.15090E-03   -0.15086E-03  7072   0.159E-02 0.223E-05
CGA:  24    -0.354136645730E+03   -0.50131E-04   -0.50234E-04  7072   0.770E-03 0.128E-05
CGA:  25    -0.354136692657E+03   -0.46927E-04   -0.46909E-04  7072   0.598E-03 0.397E-05
CGA:  26    -0.354136730709E+03   -0.38052E-04   -0.38042E-04  7072   0.661E-03 0.166E-05
CGA:  27    -0.354136758558E+03   -0.27849E-04   -0.27862E-04  7072   0.431E-03 0.148E-05
CGA:  28    -0.354136780348E+03   -0.21790E-04   -0.21801E-04  7072   0.210E-03 0.158E-05
CGA:  29    -0.354136792285E+03   -0.11937E-04   -0.11937E-04  7072   0.221E-03 0.683E-06
CGA:  30    -0.354136801776E+03   -0.94913E-05   -0.95002E-05  7072   0.153E-03 0.645E-06
CGA:  31    -0.354136812696E+03   -0.10920E-04   -0.10906E-04  7072   0.146E-03 0.836E-06
SDA:  32    -0.354136820603E+03   -0.79067E-05   -0.79086E-05  7072   0.120E-03 0.635E-06
  15 F= -.35413682E+03 E0= -.35412222E+03  d E =-.186771E-01  mag=     4.9985
       N       E                     dE             d eps       ncg     rms          ort
SDA:   1    -0.329640993511E+03    0.24496E+02    0.00000E+00  7072   0.647E+02 0.000E+00
CGA:   2    -0.341352103429E+03   -0.11711E+02   -0.11262E+02  7072   0.201E+03 0.459E+00
CGA:   3    -0.348202416318E+03   -0.68503E+01   -0.56964E+01  7072   0.301E+02 0.440E+02
CGA:   4    -0.349903432549E+03   -0.17010E+01   -0.14768E+01  7072   0.373E+02 0.815E+00
CGA:   5    -0.351226940569E+03   -0.13235E+01   -0.12564E+01  7072   0.456E+02 0.283E+00
CGA:   6    -0.352307256146E+03   -0.10803E+01   -0.94934E+00  7072   0.312E+02 0.595E+01
CGA:   7    -0.352966431734E+03   -0.65918E+00   -0.65397E+00  7072   0.197E+02 0.376E+00
CGA:   8    -0.353323542648E+03   -0.35711E+00   -0.28985E+00  7072   0.117E+02 0.396E+01
CGA:   9    -0.353537067977E+03   -0.21353E+00   -0.19948E+00  7072   0.715E+01 0.715E+00
CGA:  10    -0.353659876614E+03   -0.12281E+00   -0.13411E+00  7072   0.558E+01-0.370E+00
CGA:  11    -0.353757928039E+03   -0.98051E-01   -0.86298E-01  7072   0.492E+01 0.579E+00
CGA:  12    -0.353847172905E+03   -0.89245E-01   -0.79381E-01  7072   0.342E+01 0.530E+00
CGA:  13    -0.353900794651E+03   -0.53622E-01   -0.48581E-01  7072   0.278E+01 0.304E+00
CGA:  14    -0.353953276820E+03   -0.52482E-01   -0.56850E-01  7072   0.415E+01-0.139E+00
CGA:  15    -0.354021373439E+03   -0.68097E-01   -0.82818E-01  7072   0.247E+01-0.220E+00
CGA:  16    -0.354053471620E+03   -0.32098E-01   -0.37011E-01  7072   0.117E+01-0.202E+00
CGA:  17    -0.354080722379E+03   -0.27251E-01   -0.27799E-01  7072   0.642E+00-0.381E-03
CGA:  18    -0.354093213702E+03   -0.12491E-01   -0.12771E-01  7072   0.342E+00-0.635E-02
CGA:  19    -0.354108612237E+03   -0.15399E-01   -0.15363E-01  7072   0.499E+00 0.307E-02
CGA:  20    -0.354120610363E+03   -0.11998E-01   -0.12123E-01  7072   0.196E+00-0.673E-03
CGA:  21    -0.354127472682E+03   -0.68623E-02   -0.68756E-02  7072   0.211E+00 0.232E-02
CGA:  22    -0.354134457786E+03   -0.69851E-02   -0.70022E-02  7072   0.132E+00 0.130E-02
CGA:  23    -0.354139041325E+03   -0.45835E-02   -0.45932E-02  7072   0.838E-01 0.150E-02
CGA:  24    -0.354141415675E+03   -0.23744E-02   -0.23924E-02  7072   0.463E-01 0.384E-03
CGA:  25    -0.354144018658E+03   -0.26030E-02   -0.25849E-02  7072   0.515E-01 0.803E-03
CGA:  26    -0.354145593738E+03   -0.15751E-02   -0.15756E-02  7072   0.268E-01 0.255E-04
CGA:  27    -0.354147043923E+03   -0.14502E-02   -0.14476E-02  7072   0.274E-01 0.125E-03
CGA:  28    -0.354147990131E+03   -0.94621E-03   -0.94753E-03  7072   0.182E-01 0.149E-03
CGA:  29    -0.354148745928E+03   -0.75580E-03   -0.75526E-03  7072   0.109E-01 0.977E-04
CGA:  30    -0.354149255151E+03   -0.50922E-03   -0.50888E-03  7072   0.131E-01 0.290E-04
CGA:  31    -0.354149834966E+03   -0.57982E-03   -0.57938E-03  7072   0.893E-02 0.497E-04
SDA:  32    -0.354150216862E+03   -0.38190E-03   -0.38171E-03  7072   0.586E-02 0.277E-04
CGA:  33    -0.354150368546E+03   -0.15168E-03   -0.15164E-03  7072   0.188E-02 0.137E-05
CGA:  34    -0.354150500646E+03   -0.13210E-03   -0.13183E-03  7072   0.150E-02 0.787E-05
CGA:  35    -0.354150675385E+03   -0.17474E-03   -0.17353E-03  7072   0.194E-02 0.158E-04
CGA:  36    -0.354150783497E+03   -0.10811E-03   -0.10793E-03  7072   0.624E-03 0.152E-04
CGA:  37    -0.354150835178E+03   -0.51681E-04   -0.51455E-04  7072   0.425E-03 0.585E-05
CGA:  38    -0.354150869551E+03   -0.34373E-04   -0.34161E-04  7072   0.790E-03 0.617E-05
CGA:  39    -0.354150917682E+03   -0.48130E-04   -0.48020E-04  7072   0.639E-03 0.910E-05
CGA:  40    -0.354150963395E+03   -0.45714E-04   -0.45450E-04  7072   0.247E-03 0.116E-04
CGA:  41    -0.354150999583E+03   -0.36188E-04   -0.35873E-04  7072   0.317E-03 0.337E-05
CGA:  42    -0.354151026419E+03   -0.26836E-04   -0.26774E-04  7072   0.180E-03 0.202E-05
CGA:  43    -0.354151039458E+03   -0.13039E-04   -0.13057E-04  7072   0.248E-03-0.112E-05
CGA:  44    -0.354151051548E+03   -0.12090E-04   -0.12078E-04  7072   0.167E-03-0.188E-05
CGA:  45    -0.354151068152E+03   -0.16604E-04   -0.16802E-04  7072   0.171E-03-0.442E-05
CGA:  46    -0.354151075541E+03   -0.73891E-05   -0.73684E-05  7072   0.351E-04-0.160E-05
  16 F= -.35415108E+03 E0= -.35413675E+03  d E =-.142549E-01  mag=     5.0144
       N       E                     dE             d eps       ncg     rms          ort
SDA:   1    -0.322149831906E+03    0.32001E+02    0.00000E+00  7072   0.126E+03 0.000E+00
CGA:   2    -0.329990365372E+03   -0.78405E+01   -0.80470E+01  7072   0.326E+03-0.579E+02
CGA:   3    -0.334838822840E+03   -0.48485E+01   -0.52071E+01  7072   0.329E+03 0.750E+01
CGA:   4    -0.337019483659E+03   -0.21807E+01   -0.58984E+01  7072   0.337E+03-0.317E+03
CGA:   5    -0.342878199754E+03   -0.58587E+01   -0.56947E+01  7072   0.131E+03-0.180E+02
CGA:   6    -0.346570748178E+03   -0.36925E+01   -0.46453E+01  7072   0.301E+02-0.130E+01
CGA:   7    -0.348497878114E+03   -0.19271E+01   -0.22108E+01  7072   0.807E+02-0.147E+02
CGA:   8    -0.348755862626E+03   -0.25798E+00   -0.46918E+00  7072   0.793E+02-0.135E+02
CGA:   9    -0.349334267144E+03   -0.57840E+00   -0.54579E+00  7072   0.601E+02 0.424E+01
CGA:  10    -0.350099775633E+03   -0.76551E+00   -0.80715E+00  7072   0.721E+02-0.899E+01
CGA:  11    -0.350555397258E+03   -0.45562E+00   -0.87534E+00  7072   0.808E+02-0.190E+02
CGA:  12    -0.350952091170E+03   -0.39669E+00   -0.30547E+00  7072   0.464E+02 0.165E+02
CGA:  13    -0.351323568946E+03   -0.37148E+00   -0.40290E+00  7072   0.303E+02-0.526E+01
CGA:  14    -0.351574829283E+03   -0.25126E+00   -0.40590E+00  7072   0.517E+02-0.704E+01
CGA:  15    -0.351925709538E+03   -0.35088E+00   -0.37922E+00  7072   0.315E+02-0.150E+01
CGA:  16    -0.352198316365E+03   -0.27261E+00   -0.30609E+00  7072   0.210E+02-0.238E+01
CGA:  17    -0.352485362725E+03   -0.28705E+00   -0.26756E+00  7072   0.207E+02 0.108E+01
CGA:  18    -0.352721903180E+03   -0.23654E+00   -0.22617E+00  7072   0.118E+02 0.743E+00
CGA:  19    -0.352841444944E+03   -0.11954E+00   -0.12646E+00  7072   0.681E+01-0.466E+00
CGA:  20    -0.352919415184E+03   -0.77970E-01   -0.75440E-01  7072   0.559E+01 0.211E+00
CGA:  21    -0.352993502937E+03   -0.74088E-01   -0.73991E-01  7072   0.424E+01 0.552E-01
CGA:  22    -0.353040475554E+03   -0.46973E-01   -0.47434E-01  7072   0.258E+01-0.372E-01
CGA:  23    -0.353072922504E+03   -0.32447E-01   -0.35854E-01  7072   0.232E+01-0.143E+00
CGA:  24    -0.353110230165E+03   -0.37308E-01   -0.38373E-01  7072   0.221E+01-0.163E-01
CGA:  25    -0.353146063097E+03   -0.35833E-01   -0.34368E-01  7072   0.205E+01 0.454E-01
CGA:  26    -0.353181276128E+03   -0.35213E-01   -0.35121E-01  7072   0.197E+01 0.166E-02
CGA:  27    -0.353206726244E+03   -0.25450E-01   -0.25174E-01  7072   0.107E+01 0.109E-01
CGA:  28    -0.353220461688E+03   -0.13735E-01   -0.13898E-01  7072   0.847E+00-0.117E-01
CGA:  29    -0.353235869041E+03   -0.15407E-01   -0.15795E-01  7072   0.100E+01 0.405E-03
CGA:  30    -0.353251393171E+03   -0.15524E-01   -0.16045E-01  7072   0.556E+00-0.667E-02
CGA:  31    -0.353259722102E+03   -0.83289E-02   -0.82705E-02  7072   0.401E+00 0.138E-02
CGA:  32    -0.353269008787E+03   -0.92867E-02   -0.92631E-02  7072   0.545E+00-0.305E-02
CGA:  33    -0.353278223852E+03   -0.92151E-02   -0.93028E-02  7072   0.356E+00 0.249E-03
CGA:  34    -0.353283491403E+03   -0.52676E-02   -0.54146E-02  7072   0.240E+00-0.219E-02
SDA:  35    -0.353289377546E+03   -0.58861E-02   -0.58876E-02  7072   0.275E+00 0.601E-02
CGA:  36    -0.353294738959E+03   -0.53614E-02   -0.53588E-02  7072   0.417E-01-0.961E-04
CGA:  37    -0.353298192368E+03   -0.34534E-02   -0.33461E-02  7072   0.453E-01 0.226E-02
CGA:  38    -0.353304171357E+03   -0.59790E-02   -0.19256E-07  7072   0.806E-01-0.143E-01
CGA:  39    -0.353306482722E+03   -0.23114E-02   -0.23170E-02  7072   0.334E-01 0.231E-03
CGA:  40    -0.353308057677E+03   -0.15750E-02   -0.15742E-02  7072   0.199E-01-0.137E-03
CGA:  41    -0.353309234711E+03   -0.11770E-02   -0.11759E-02  7072   0.196E-01 0.688E-04
CGA:  42    -0.353310530836E+03   -0.12961E-02   -0.12935E-02  7072   0.174E-01 0.119E-03
CGA:  43    -0.353311575733E+03   -0.10449E-02   -0.10440E-02  7072   0.156E-01 0.636E-04
CGA:  44    -0.353312674736E+03   -0.10990E-02   -0.10983E-02  7072   0.160E-01 0.216E-04
CGA:  45    -0.353313454373E+03   -0.77964E-03   -0.77939E-03  7072   0.709E-02-0.397E-04
CGA:  46    -0.353313835177E+03   -0.38080E-03   -0.38082E-03  7072   0.486E-02-0.586E-05
CGA:  47    -0.353314093700E+03   -0.25852E-03   -0.25851E-03  7072   0.403E-02 0.843E-05
CGA:  48    -0.353314475359E+03   -0.38166E-03   -0.38136E-03  7072   0.425E-02 0.598E-05
CGA:  49    -0.353314644240E+03   -0.16888E-03   -0.16879E-03  7072   0.171E-02-0.314E-05
CGA:  50    -0.353314784092E+03   -0.13985E-03   -0.13976E-03  7072   0.251E-02 0.213E-05
CGA:  51    -0.353314960659E+03   -0.17657E-03   -0.17638E-03  7072   0.210E-02 0.959E-05
CGA:  52    -0.353315065563E+03   -0.10490E-03   -0.10486E-03  7072   0.119E-02-0.468E-06
CGA:  53    -0.353315127371E+03   -0.61808E-04   -0.61813E-04  7072   0.680E-03 0.229E-05
CGA:  54    -0.353315177980E+03   -0.50609E-04   -0.50505E-04  7072   0.104E-02 0.518E-05
CGA:  55    -0.353315254132E+03   -0.76152E-04   -0.76024E-04  7072   0.740E-03 0.729E-05
CGA:  56    -0.353315292186E+03   -0.38054E-04   -0.38052E-04  7072   0.358E-03-0.391E-06
CGA:  57    -0.353315312411E+03   -0.20225E-04   -0.20225E-04  7072   0.358E-03-0.257E-05
CGA:  58    -0.353315349061E+03   -0.36650E-04   -0.36829E-04  7072   0.472E-03-0.399E-05
CGA:  59    -0.353315371734E+03   -0.22673E-04   -0.22670E-04  7072   0.212E-03-0.496E-06
CGA:  60    -0.353315381555E+03   -0.98212E-05   -0.98263E-05  7072   0.132E-03 0.722E-07
CGA:  61    -0.353315392175E+03   -0.10620E-04   -0.10630E-04  7072   0.191E-03-0.527E-06
CGA:  62    -0.353315407418E+03   -0.15244E-04   -0.15246E-04  7072   0.246E-03-0.205E-06
CGA:  63    -0.353315418972E+03   -0.11553E-04   -0.11565E-04  7072   0.684E-04 0.534E-06
CGA:  64    -0.353315422613E+03   -0.36415E-05   -0.36403E-05  7072   0.685E-04-0.306E-06
  17 F= -.35331542E+03 E0= -.35330028E+03  d E =0.835653E+00  mag=     5.0164
       N       E                     dE             d eps       ncg     rms          ort
SDA:   1    -0.348017379119E+03    0.52980E+01    0.00000E+00  7072   0.354E+02 0.000E+00
CGA:   2    -0.349496575153E+03   -0.14792E+01   -0.11709E+01  7072   0.205E+02 0.293E+01
CGA:   3    -0.351146257838E+03   -0.16497E+01   -0.16819E+01  7072   0.239E+02-0.136E+01
CGA:   4    -0.352015175608E+03   -0.86892E+00   -0.81572E+00  7072   0.234E+02 0.234E+00
CGA:   5    -0.352703253204E+03   -0.68808E+00   -0.78446E+00  7072   0.936E+01-0.100E+01
CGA:   6    -0.353088716832E+03   -0.38546E+00   -0.37826E+00  7072   0.113E+02 0.299E-02
CGA:   7    -0.353689090505E+03   -0.60037E+00   -0.60223E+00  7072   0.267E+01 0.207E+00
CGA:   8    -0.353780816027E+03   -0.91726E-01   -0.89839E-01  7072   0.201E+01 0.223E-01
CGA:   9    -0.353865061876E+03   -0.84246E-01   -0.79425E-01  7072   0.100E+01-0.738E-02
CGA:  10    -0.353908198552E+03   -0.43137E-01   -0.43205E-01  7072   0.897E+00 0.187E-02
CGA:  11    -0.353937789983E+03   -0.29591E-01   -0.30388E-01  7072   0.552E+00-0.395E-02
CGA:  12    -0.353965652462E+03   -0.27862E-01   -0.27914E-01  7072   0.325E+00 0.877E-02
CGA:  13    -0.353975843081E+03   -0.10191E-01   -0.10173E-01  7072   0.177E+00 0.332E-03
CGA:  14    -0.353984906891E+03   -0.90638E-02   -0.90642E-02  7072   0.149E+00 0.225E-03
CGA:  15    -0.353993254183E+03   -0.83473E-02   -0.83421E-02  7072   0.165E+00 0.819E-03
CGA:  16    -0.353998954081E+03   -0.56999E-02   -0.57139E-02  7072   0.650E-01 0.664E-04
CGA:  17    -0.354002008394E+03   -0.30543E-02   -0.30549E-02  7072   0.308E-01 0.661E-04
CGA:  18    -0.354003129777E+03   -0.11214E-02   -0.11236E-02  7072   0.264E-01 0.182E-04
CGA:  19    -0.354005030596E+03   -0.19008E-02   -0.18987E-02  7072   0.204E-01 0.787E-04
CGA:  20    -0.354005923132E+03   -0.89254E-03   -0.89284E-03  7072   0.162E-01 0.210E-04
CGA:  21    -0.354006596154E+03   -0.67302E-03   -0.67356E-03  7072   0.807E-02 0.220E-04
CGA:  22    -0.354006967457E+03   -0.37130E-03   -0.37127E-03  7072   0.415E-02-0.280E-05
CGA:  23    -0.354007224443E+03   -0.25699E-03   -0.25694E-03  7072   0.609E-02 0.109E-05
CGA:  24    -0.354007484127E+03   -0.25968E-03   -0.25974E-03  7072   0.223E-02-0.244E-05
CGA:  25    -0.354007631210E+03   -0.14708E-03   -0.14719E-03  7072   0.246E-02-0.667E-05
CGA:  26    -0.354007737621E+03   -0.10641E-03   -0.10636E-03  7072   0.202E-02-0.499E-05
CGA:  27    -0.354007843431E+03   -0.10581E-03   -0.10582E-03  7072   0.933E-03-0.783E-05
CGA:  28    -0.354007895085E+03   -0.51654E-04   -0.51673E-04  7072   0.120E-02-0.524E-05
CGA:  29    -0.354007955264E+03   -0.60179E-04   -0.60175E-04  7072   0.895E-03-0.483E-05
CGA:  30    -0.354007998455E+03   -0.43191E-04   -0.43185E-04  7072   0.418E-03-0.262E-05
CGA:  31    -0.354008018139E+03   -0.19684E-04   -0.19679E-04  7072   0.444E-03-0.216E-05
SDA:  32    -0.354008040703E+03   -0.22563E-04   -0.22564E-04  7072   0.260E-03-0.259E-05
CGA:  33    -0.354008051900E+03   -0.11197E-04   -0.11204E-04  7072   0.110E-03-0.572E-07
CGA:  34    -0.354008064874E+03   -0.12974E-04   -0.12880E-04  7072   0.168E-03 0.812E-06
CGA:  35    -0.354008076021E+03   -0.11147E-04   -0.11131E-04  7072   0.155E-03 0.865E-06
CGA:  36    -0.354008083986E+03   -0.79642E-05   -0.79674E-05  7072   0.115E-03 0.508E-06
  18 F= -.35400808E+03 E0= -.35399339E+03  d E =-.692661E+00  mag=     5.0166
       N       E                     dE             d eps       ncg     rms          ort
SDA:   1    -0.352429204589E+03    0.15789E+01    0.00000E+00  7072   0.782E+01 0.000E+00
CGA:   2    -0.352827990395E+03   -0.39879E+00   -0.39609E+00  7072   0.108E+02-0.346E+00
CGA:   3    -0.353455334146E+03   -0.62734E+00   -0.63061E+00  7072   0.494E+01-0.271E+00
CGA:   4    -0.353731301004E+03   -0.27597E+00   -0.27475E+00  7072   0.246E+01 0.249E+00
CGA:   5    -0.353915612851E+03   -0.18431E+00   -0.18449E+00  7072   0.408E+01-0.914E-02
CGA:   6    -0.354090465397E+03   -0.17485E+00   -0.17474E+00  7072   0.555E+00 0.290E-03
CGA:   7    -0.354122152016E+03   -0.31687E-01   -0.31706E-01  7072   0.380E+00-0.430E-02
CGA:   8    -0.354144306353E+03   -0.22154E-01   -0.22155E-01  7072   0.239E+00-0.359E-04
CGA:   9    -0.354154647650E+03   -0.10341E-01   -0.10407E-01  7072   0.174E+00 0.135E-02
CGA:  10    -0.354163091978E+03   -0.84443E-02   -0.84406E-02  7072   0.476E-01-0.219E-03
CGA:  11    -0.354166394930E+03   -0.33030E-02   -0.33051E-02  7072   0.397E-01-0.102E-03
CGA:  12    -0.354170083379E+03   -0.36884E-02   -0.36838E-02  7072   0.347E-01 0.114E-03
CGA:  13    -0.354171180485E+03   -0.10971E-02   -0.11001E-02  7072   0.115E-01-0.285E-04
CGA:  14    -0.354171806076E+03   -0.62559E-03   -0.62568E-03  7072   0.848E-02 0.341E-04
CGA:  15    -0.354172503208E+03   -0.69713E-03   -0.69660E-03  7072   0.454E-02 0.157E-04
CGA:  16    -0.354172868245E+03   -0.36504E-03   -0.36517E-03  7072   0.350E-02-0.490E-05
CGA:  17    -0.354173044663E+03   -0.17642E-03   -0.17645E-03  7072   0.356E-02 0.118E-05
CGA:  18    -0.354173226846E+03   -0.18218E-03   -0.18221E-03  7072   0.973E-03 0.378E-05
CGA:  19    -0.354173310926E+03   -0.84080E-04   -0.83864E-04  7072   0.116E-02 0.710E-05
CGA:  20    -0.354173426186E+03   -0.11526E-03   -0.11513E-03  7072   0.980E-03 0.326E-05
CGA:  21    -0.354173473490E+03   -0.47304E-04   -0.47319E-04  7072   0.474E-03 0.119E-05
CGA:  22    -0.354173496436E+03   -0.22946E-04   -0.22964E-04  7072   0.418E-03 0.128E-05
CGA:  23    -0.354173523672E+03   -0.27236E-04   -0.27224E-04  7072   0.293E-03 0.235E-05
CGA:  24    -0.354173553569E+03   -0.29897E-04   -0.29847E-04  7072   0.187E-03 0.116E-05
CGA:  25    -0.354173563383E+03   -0.98138E-05   -0.98125E-05  7072   0.674E-04-0.150E-06
  19 F= -.35417356E+03 E0= -.35415896E+03  d E =-.165479E+00  mag=     5.0119
       N       E                     dE             d eps       ncg     rms          ort
SDA:   1    -0.353612279725E+03    0.56127E+00    0.00000E+00  7072   0.298E+01 0.000E+00
CGA:   2    -0.353722251843E+03   -0.10997E+00   -0.10891E+00  7072   0.276E+01 0.529E-02
CGA:   3    -0.354000491510E+03   -0.27824E+00   -0.27766E+00  7072   0.969E+00 0.132E-01
CGA:   4    -0.354075105514E+03   -0.74614E-01   -0.75052E-01  7072   0.120E+01-0.223E-01
CGA:   5    -0.354163395399E+03   -0.88290E-01   -0.88051E-01  7072   0.388E+00 0.143E-01
CGA:   6    -0.354182024590E+03   -0.18629E-01   -0.18445E-01  7072   0.149E+00-0.113E-02
CGA:   7    -0.354189799410E+03   -0.77748E-02   -0.77818E-02  7072   0.140E+00 0.146E-03
CGA:   8    -0.354197171563E+03   -0.73722E-02   -0.73702E-02  7072   0.616E-01-0.551E-04
CGA:   9    -0.354200621072E+03   -0.34495E-02   -0.34568E-02  7072   0.184E-01 0.407E-03
CGA:  10    -0.354202072015E+03   -0.14509E-02   -0.14527E-02  7072   0.206E-01-0.805E-04
CGA:  11    -0.354203072865E+03   -0.10008E-02   -0.10008E-02  7072   0.132E-01-0.902E-05
CGA:  12    -0.354203724598E+03   -0.65173E-03   -0.65125E-03  7072   0.644E-02-0.117E-04
CGA:  13    -0.354204148398E+03   -0.42380E-03   -0.42377E-03  7072   0.281E-02 0.514E-06
CGA:  14    -0.354204355013E+03   -0.20662E-03   -0.20673E-03  7072   0.252E-02-0.112E-04
CGA:  15    -0.354204484788E+03   -0.12978E-03   -0.12969E-03  7072   0.206E-02-0.832E-05
CGA:  16    -0.354204591465E+03   -0.10668E-03   -0.10661E-03  7072   0.989E-03-0.449E-05
CGA:  17    -0.354204668718E+03   -0.77253E-04   -0.77254E-04  7072   0.736E-03-0.207E-06
CGA:  18    -0.354204707525E+03   -0.38807E-04   -0.38809E-04  7072   0.412E-03 0.504E-06
CGA:  19    -0.354204741601E+03   -0.34076E-04   -0.34012E-04  7072   0.693E-03 0.296E-05
CGA:  20    -0.354204776344E+03   -0.34743E-04   -0.34799E-04  7072   0.305E-03 0.423E-05
CGA:  21    -0.354204797375E+03   -0.21031E-04   -0.21007E-04  7072   0.181E-03 0.371E-05
CGA:  22    -0.354204812947E+03   -0.15572E-04   -0.15483E-04  7072   0.165E-03 0.406E-05
CGA:  23    -0.354204820351E+03   -0.74044E-05   -0.74433E-05  7072   0.138E-03 0.190E-05
CGA:  24    -0.354204831631E+03   -0.11279E-04   -0.11227E-04  7072   0.496E-04 0.300E-05
CGA:  25    -0.354204835308E+03   -0.36769E-05   -0.36668E-05  7072   0.383E-04 0.111E-05
  20 F= -.35420484E+03 E0= -.35419027E+03  d E =-.312719E-01  mag=     5.0086
       N       E                     dE             d eps       ncg     rms          ort
SDA:   1    -0.354139767542E+03    0.65064E-01    0.00000E+00  7072   0.329E+00 0.000E+00
[...]
CGA:  12    -0.354143444915E+03   -0.43534E-01   -0.45518E-01  7072   0.154E+01-0.245E-01
CGA:  13    -0.354175080802E+03   -0.31636E-01   -0.31231E-01  7072   0.512E+00 0.120E-01
CGA:  14    -0.354185705510E+03   -0.10625E-01   -0.11214E-01  7072   0.320E+00-0.161E-01
CGA:  15    -0.354195372455E+03   -0.96669E-02   -0.97022E-02  7072   0.231E+00-0.115E-03
CGA:  16    -0.354201727241E+03   -0.63548E-02   -0.64366E-02  7072   0.203E+00-0.854E-03
CGA:  17    -0.354210225513E+03   -0.84983E-02   -0.85098E-02  7072   0.193E+00 0.105E-02
CGA:  18    -0.354215048969E+03   -0.48235E-02   -0.48742E-02  7072   0.990E-01-0.797E-03
CGA:  19    -0.354218103240E+03   -0.30543E-02   -0.30891E-02  7072   0.566E-01 0.159E-03
CGA:  20    -0.354219702723E+03   -0.15995E-02   -0.16123E-02  7072   0.351E-01-0.658E-04
CGA:  21    -0.354221036565E+03   -0.13338E-02   -0.13354E-02  7072   0.280E-01 0.866E-04
CGA:  22    -0.354222207965E+03   -0.11714E-02   -0.11717E-02  7072   0.316E-01 0.670E-04
CGA:  23    -0.354223323730E+03   -0.11158E-02   -0.11171E-02  7072   0.138E-01 0.440E-04
CGA:  24    -0.354223829075E+03   -0.50534E-03   -0.50561E-03  7072   0.148E-01 0.132E-04
CGA:  25    -0.354224444966E+03   -0.61589E-03   -0.61596E-03  7072   0.656E-02 0.383E-04
CGA:  26    -0.354224632648E+03   -0.18768E-03   -0.18795E-03  7072   0.476E-02-0.955E-06
CGA:  27    -0.354224905652E+03   -0.27300E-03   -0.27289E-03  7072   0.580E-02 0.395E-05
CGA:  28    -0.354225144643E+03   -0.23899E-03   -0.23900E-03  7072   0.644E-02 0.125E-05
CGA:  29    -0.354225398347E+03   -0.25370E-03   -0.25388E-03  7072   0.292E-02 0.270E-04
CGA:  30    -0.354225484167E+03   -0.85821E-04   -0.86051E-04  7072   0.201E-02 0.482E-05
CGA:  31    -0.354225575857E+03   -0.91689E-04   -0.91654E-04  7072   0.146E-02 0.723E-05
SDA:  32    -0.354225629407E+03   -0.53551E-04   -0.53570E-04  7072   0.153E-02 0.217E-05
CGA:  33    -0.354225677558E+03   -0.48150E-04   -0.48138E-04  7072   0.726E-03-0.155E-06
CGA:  34    -0.354225724537E+03   -0.46979E-04   -0.46964E-04  7072   0.627E-03 0.303E-06
CGA:  35    -0.354225794752E+03   -0.70215E-04   -0.70034E-04  7072   0.639E-03 0.233E-05
CGA:  36    -0.354225832505E+03   -0.37753E-04   -0.37707E-04  7072   0.282E-03 0.339E-05
CGA:  37    -0.354225853606E+03   -0.21101E-04   -0.21040E-04  7072   0.291E-03 0.207E-05
CGA:  38    -0.354225871544E+03   -0.17939E-04   -0.17938E-04  7072   0.300E-03-0.133E-07
CGA:  39    -0.354225887066E+03   -0.15522E-04   -0.15523E-04  7072   0.185E-03-0.620E-06
CGA:  40    -0.354225908388E+03   -0.21322E-04   -0.21189E-04  7072   0.186E-03 0.194E-05
CGA:  41    -0.354225919897E+03   -0.11509E-04   -0.11494E-04  7072   0.103E-03 0.160E-05
CGA:  42    -0.354225930072E+03   -0.10175E-04   -0.10137E-04  7072   0.804E-04 0.772E-06
CGA:  43    -0.354225936035E+03   -0.59627E-05   -0.59609E-05  7072   0.890E-04 0.292E-07
  50 F= -.35422594E+03 E0= -.35421164E+03  d E =0.112651E-01  mag=     5.0235
       N       E                     dE             d eps       ncg     rms          ort
SDA:   1    -0.332984716316E+03    0.21241E+02    0.00000E+00  7072   0.623E+02 0.000E+00
CGA:   2    -0.339550539194E+03   -0.65658E+01   -0.60718E+01  7072   0.127E+03 0.836E+01
CGA:   3    -0.347392426617E+03   -0.78419E+01   -0.76915E+01  7072   0.101E+03-0.184E+02
CGA:   4    -0.350322989848E+03   -0.29306E+01   -0.28342E+01  7072   0.517E+02 0.609E+01
CGA:   5    -0.351345074589E+03   -0.10221E+01   -0.91618E+00  7072   0.190E+02 0.496E+01
CGA:   6    -0.352285598740E+03   -0.94052E+00   -0.93625E+00  7072   0.242E+02-0.897E-01
CGA:   7    -0.353096041920E+03   -0.81044E+00   -0.79341E+00  7072   0.276E+02 0.176E+00
CGA:   8    -0.353619687540E+03   -0.52365E+00   -0.53773E+00  7072   0.798E+01-0.175E+00
CGA:   9    -0.353770412333E+03   -0.15072E+00   -0.15468E+00  7072   0.516E+01-0.154E+00
CGA:  10    -0.353904970440E+03   -0.13456E+00   -0.13444E+00  7072   0.222E+01-0.555E-02
CGA:  11    -0.353961954221E+03   -0.56984E-01   -0.57036E-01  7072   0.265E+01-0.947E-03
CGA:  12    -0.354066900321E+03   -0.10495E+00   -0.10625E+00  7072   0.202E+01 0.666E-01
CGA:  13    -0.354114975437E+03   -0.48075E-01   -0.49944E-01  7072   0.142E+01-0.430E-01
CGA:  14    -0.354158480909E+03   -0.43505E-01   -0.43517E-01  7072   0.442E+00 0.324E-05
CGA:  15    -0.354169985375E+03   -0.11504E-01   -0.11480E-01  7072   0.398E+00 0.341E-03
CGA:  16    -0.354187491724E+03   -0.17506E-01   -0.17500E-01  7072   0.380E+00 0.120E-01
CGA:  17    -0.354203870045E+03   -0.16378E-01   -0.16452E-01  7072   0.314E+00 0.200E-01
CGA:  18    -0.354211757168E+03   -0.78871E-02   -0.77529E-02  7072   0.838E-01 0.241E-02
CGA:  19    -0.354216372767E+03   -0.46156E-02   -0.46008E-02  7072   0.725E-01 0.874E-03
CGA:  20    -0.354219746556E+03   -0.33738E-02   -0.33544E-02  7072   0.839E-01 0.414E-02
CGA:  21    -0.354223748917E+03   -0.40024E-02   -0.40085E-02  7072   0.270E-01-0.179E-02
CGA:  22    -0.354226167451E+03   -0.24185E-02   -0.23695E-02  7072   0.162E-01 0.102E-02
CGA:  23    -0.354227194519E+03   -0.10271E-02   -0.10229E-02  7072   0.913E-02 0.208E-03
CGA:  24    -0.354228017272E+03   -0.82275E-03   -0.81977E-03  7072   0.100E-01 0.658E-04
CGA:  25    -0.354229039146E+03   -0.10219E-02   -0.99869E-03  7072   0.462E-02 0.447E-03
CGA:  26    -0.354229259717E+03   -0.22057E-03   -0.22057E-03  7072   0.376E-02 0.473E-05
CGA:  27    -0.354229449733E+03   -0.19002E-03   -0.19004E-03  7072   0.256E-02 0.388E-04
CGA:  28    -0.354229697746E+03   -0.24801E-03   -0.24770E-03  7072   0.178E-02 0.665E-05
CGA:  29    -0.354229816452E+03   -0.11871E-03   -0.11855E-03  7072   0.135E-02 0.992E-05
CGA:  30    -0.354229892580E+03   -0.76128E-04   -0.76079E-04  7072   0.766E-03 0.136E-04
CGA:  31    -0.354229924419E+03   -0.31840E-04   -0.31880E-04  7072   0.531E-03 0.346E-05
SDA:  32    -0.354229971485E+03   -0.47066E-04   -0.46819E-04  7072   0.484E-03 0.685E-05
CGA:  33    -0.354229991757E+03   -0.20272E-04   -0.20283E-04  7072   0.174E-03 0.505E-06
CGA:  34    -0.354230010174E+03   -0.18417E-04   -0.18427E-04  7072   0.367E-03-0.334E-06
CGA:  35    -0.354230031903E+03   -0.21729E-04   -0.21731E-04  7072   0.313E-03-0.580E-06
CGA:  36    -0.354230050965E+03   -0.19062E-04   -0.19062E-04  7072   0.269E-03 0.183E-06
CGA:  37    -0.354230070375E+03   -0.19409E-04   -0.19391E-04  7072   0.741E-04 0.118E-05
CGA:  38    -0.354230080120E+03   -0.97457E-05   -0.98345E-05  7072   0.826E-04-0.128E-05
  51 F= -.35423008E+03 E0= -.35421564E+03  d E =-.414409E-02  mag=     5.0075
       N       E                     dE             d eps       ncg     rms          ort
SDA:   1    -0.335644145698E+03    0.18586E+02    0.00000E+00  7072   0.564E+02 0.000E+00
CGA:   2    -0.340518336207E+03   -0.48742E+01   -0.48623E+01  7072   0.123E+03 0.166E+01
CGA:   3    -0.348028389748E+03   -0.75101E+01   -0.69301E+01  7072   0.804E+02-0.115E+02
CGA:   4    -0.350403150961E+03   -0.23748E+01   -0.21482E+01  7072   0.406E+02 0.619E+01
CGA:   5    -0.351414988634E+03   -0.10118E+01   -0.10609E+01  7072   0.252E+02-0.671E-01
CGA:   6    -0.352630732838E+03   -0.12157E+01   -0.10898E+01  7072   0.144E+02-0.119E+00
CGA:   7    -0.353440598149E+03   -0.80987E+00   -0.80695E+00  7072   0.100E+02-0.322E+00
CGA:   8    -0.353681342349E+03   -0.24074E+00   -0.26217E+00  7072   0.728E+01-0.579E+00
CGA:   9    -0.353863846180E+03   -0.18250E+00   -0.19302E+00  7072   0.191E+01-0.172E+00
CGA:  10    -0.353956826767E+03   -0.92981E-01   -0.94073E-01  7072   0.162E+01 0.646E-01
CGA:  11    -0.354042093989E+03   -0.85267E-01   -0.86384E-01  7072   0.175E+01 0.925E-01
CGA:  12    -0.354089541637E+03   -0.47448E-01   -0.46735E-01  7072   0.624E+00 0.177E-01
CGA:  13    -0.354121158283E+03   -0.31617E-01   -0.31792E-01  7072   0.281E+00 0.170E-01
CGA:  14    -0.354140833374E+03   -0.19675E-01   -0.19444E-01  7072   0.205E+00 0.122E-01
CGA:  15    -0.354156253230E+03   -0.15420E-01   -0.15409E-01  7072   0.217E+00 0.454E-03
CGA:  16    -0.354163311080E+03   -0.70579E-02   -0.76300E-02  7072   0.772E-01-0.153E-02
CGA:  17    -0.354166635758E+03   -0.33247E-02   -0.33019E-02  7072   0.539E-01-0.420E-03
CGA:  18    -0.354171037349E+03   -0.44016E-02   -0.43108E-02  7072   0.278E-01 0.279E-02
CGA:  19    -0.354173493277E+03   -0.24559E-02   -0.24720E-02  7072   0.317E-01-0.464E-03
CGA:  20    -0.354174798602E+03   -0.13053E-02   -0.13349E-02  7072   0.153E-01 0.374E-03
CGA:  21    -0.354175670119E+03   -0.87152E-03   -0.87151E-03  7072   0.116E-01-0.433E-04
CGA:  22    -0.354176413322E+03   -0.74320E-03   -0.73967E-03  7072   0.708E-02 0.283E-03
CGA:  23    -0.354177068029E+03   -0.65471E-03   -0.65657E-03  7072   0.760E-02-0.482E-04
CGA:  24    -0.354177399970E+03   -0.33194E-03   -0.33431E-03  7072   0.461E-02 0.322E-04
CGA:  25    -0.354177664786E+03   -0.26482E-03   -0.26481E-03  7072   0.208E-02-0.969E-05
CGA:  26    -0.354177870370E+03   -0.20558E-03   -0.20407E-03  7072   0.217E-02 0.334E-04
CGA:  27    -0.354177980646E+03   -0.11028E-03   -0.11029E-03  7072   0.160E-02 0.117E-05
CGA:  28    -0.354178079661E+03   -0.99015E-04   -0.98988E-04  7072   0.963E-03 0.782E-05
CGA:  29    -0.354178126565E+03   -0.46904E-04   -0.46923E-04  7072   0.517E-03 0.224E-05
CGA:  30    -0.354178196161E+03   -0.69596E-04   -0.69337E-04  7072   0.600E-03 0.339E-05
CGA:  31    -0.354178221359E+03   -0.25199E-04   -0.25225E-04  7072   0.404E-03 0.165E-05
SDA:  32    -0.354178253339E+03   -0.31980E-04   -0.31899E-04  7072   0.261E-03 0.444E-05
CGA:  33    -0.354178262317E+03   -0.89780E-05   -0.89799E-05  7072   0.117E-03 0.151E-07
CGA:  34    -0.354178272592E+03   -0.10274E-04   -0.10277E-04  7072   0.245E-03-0.155E-06
CGA:  35    -0.354178292981E+03   -0.20389E-04   -0.20402E-04  7072   0.179E-03-0.571E-06
CGA:  36    -0.354178304932E+03   -0.11951E-04   -0.11951E-04  7072   0.709E-04 0.423E-07
CGA:  37    -0.354178311001E+03   -0.60691E-05   -0.60608E-05  7072   0.603E-04 0.329E-06
  52 F= -.35417831E+03 E0= -.35416410E+03  d E =0.517691E-01  mag=     5.0227
       N       E                     dE             d eps       ncg     rms          ort
SDA:   1    -0.333642379068E+03    0.20536E+02    0.00000E+00  7072   0.568E+02 0.000E+00
CGA:   2    -0.341734976872E+03   -0.80926E+01   -0.80117E+01  7072   0.148E+03 0.107E+01
CGA:   3    -0.348818877223E+03   -0.70839E+01   -0.61090E+01  7072   0.328E+02 0.249E+02
CGA:   4    -0.350691601553E+03   -0.18727E+01   -0.18581E+01  7072   0.377E+02-0.143E+01
CGA:   5    -0.352084513419E+03   -0.13929E+01   -0.12887E+01  7072   0.209E+02 0.256E+01
CGA:   6    -0.353188923171E+03   -0.11044E+01   -0.10398E+01  7072   0.175E+02-0.658E-01
CGA:   7    -0.353598586350E+03   -0.40966E+00   -0.34205E+00  7072   0.646E+01 0.309E+01
CGA:   8    -0.353795813969E+03   -0.19723E+00   -0.19674E+00  7072   0.411E+01 0.222E-01
CGA:   9    -0.353894603501E+03   -0.98790E-01   -0.99942E-01  7072   0.254E+01-0.614E-01
CGA:  10    -0.354002738415E+03   -0.10813E+00   -0.10953E+00  7072   0.392E+01 0.103E-01
CGA:  11    -0.354103085784E+03   -0.10035E+00   -0.10230E+00  7072   0.166E+01-0.527E-01
CGA:  12    -0.354144257165E+03   -0.41171E-01   -0.44758E-01  7072   0.101E+01-0.702E-01
CGA:  13    -0.354174698521E+03   -0.30441E-01   -0.30332E-01  7072   0.439E+00 0.154E-02
CGA:  14    -0.354187907513E+03   -0.13209E-01   -0.13229E-01  7072   0.351E+00 0.186E-03
CGA:  15    -0.354203902469E+03   -0.15995E-01   -0.16076E-01  7072   0.285E+00 0.319E-02
CGA:  16    -0.354214571529E+03   -0.10669E-01   -0.10977E-01  7072   0.256E+00 0.236E-02
CGA:  17    -0.354223476958E+03   -0.89054E-02   -0.89349E-02  7072   0.752E-01 0.279E-04
CGA:  18    -0.354226534827E+03   -0.30579E-02   -0.30844E-02  7072   0.686E-01 0.600E-03
CGA:  19    -0.354230197239E+03   -0.36624E-02   -0.36596E-02  7072   0.427E-01 0.930E-03
CGA:  20    -0.354232050070E+03   -0.18528E-02   -0.18594E-02  7072   0.384E-01 0.239E-03
CGA:  21    -0.354234571748E+03   -0.25217E-02   -0.25066E-02  7072   0.223E-01 0.752E-03
CGA:  22    -0.354235538841E+03   -0.96709E-03   -0.97226E-03  7072   0.142E-01 0.171E-03
CGA:  23    -0.354236379442E+03   -0.84060E-03   -0.84096E-03  7072   0.136E-01-0.268E-04
CGA:  24    -0.354237038897E+03   -0.65946E-03   -0.65997E-03  7072   0.827E-02 0.630E-04
CGA:  25    -0.354237579952E+03   -0.54106E-03   -0.53889E-03  7072   0.806E-02 0.119E-03
CGA:  26    -0.354237991436E+03   -0.41148E-03   -0.41152E-03  7072   0.342E-02 0.160E-04
CGA:  27    -0.354238168632E+03   -0.17720E-03   -0.17721E-03  7072   0.319E-02 0.232E-04
CGA:  28    -0.354238345245E+03   -0.17661E-03   -0.17659E-03  7072   0.221E-02 0.624E-05
CGA:  29    -0.354238488816E+03   -0.14357E-03   -0.14322E-03  7072   0.176E-02 0.221E-04
CGA:  30    -0.354238580845E+03   -0.92030E-04   -0.92046E-04  7072   0.845E-03 0.101E-04
CGA:  31    -0.354238623118E+03   -0.42272E-04   -0.42280E-04  7072   0.588E-03 0.229E-05
SDA:  32    -0.354238659068E+03   -0.35951E-04   -0.35926E-04  7072   0.707E-03 0.232E-05
CGA:  33    -0.354238682007E+03   -0.22939E-04   -0.22933E-04  7072   0.228E-03-0.192E-06
CGA:  34    -0.354238697526E+03   -0.15519E-04   -0.15534E-04  7072   0.356E-03-0.103E-05
CGA:  35    -0.354238729479E+03   -0.31953E-04   -0.32036E-04  7072   0.385E-03-0.227E-05
CGA:  36    -0.354238751451E+03   -0.21973E-04   -0.21976E-04  7072   0.135E-03-0.113E-05
CGA:  37    -0.354238767563E+03   -0.16111E-04   -0.16053E-04  7072   0.109E-03 0.819E-06
CGA:  38    -0.354238775669E+03   -0.81060E-05   -0.81123E-05  7072   0.106E-03-0.456E-06
  53 F= -.35423878E+03 E0= -.35422440E+03  d E =-.604647E-01  mag=     5.0124
       N       E                     dE             d eps       ncg     rms          ort
SDA:   1    -0.347175441921E+03    0.70633E+01    0.00000E+00  7072   0.174E+02 0.000E+00
CGA:   2    -0.351981127131E+03   -0.48057E+01   -0.48720E+01  7072   0.271E+02-0.437E+00
CGA:   3    -0.352821832212E+03   -0.84071E+00   -0.96324E+00  7072   0.117E+02-0.550E+00
CGA:   4    -0.353389124758E+03   -0.56729E+00   -0.56631E+00  7072   0.948E+01-0.354E-01
CGA:   5    -0.353889470181E+03   -0.50035E+00   -0.50221E+00  7072   0.362E+01 0.315E-01
CGA:   6    -0.354063264109E+03   -0.17379E+00   -0.17766E+00  7072   0.121E+01 0.346E-01
CGA:   7    -0.354116926064E+03   -0.53662E-01   -0.51126E-01  7072   0.930E+00 0.804E-02
CGA:   8    -0.354167084166E+03   -0.50158E-01   -0.50057E-01  7072   0.616E+00-0.281E-02
CGA:   9    -0.354202561534E+03   -0.35477E-01   -0.35559E-01  7072   0.277E+00 0.560E-02
CGA:  10    -0.354212347748E+03   -0.97862E-02   -0.97670E-02  7072   0.147E+00 0.429E-03
CGA:  11    -0.354219776137E+03   -0.74284E-02   -0.74440E-02  7072   0.106E+00 0.378E-03
CGA:  12    -0.354226801907E+03   -0.70258E-02   -0.70172E-02  7072   0.597E-01 0.107E-02
CGA:  13    -0.354229261379E+03   -0.24595E-02   -0.24525E-02  7072   0.437E-01 0.128E-04
CGA:  14    -0.354231196421E+03   -0.19350E-02   -0.19363E-02  7072   0.139E-01 0.131E-04
CGA:  15    -0.354232108594E+03   -0.91217E-03   -0.91158E-03  7072   0.149E-01 0.573E-04
CGA:  16    -0.354232857583E+03   -0.74899E-03   -0.74868E-03  7072   0.126E-01-0.160E-04
CGA:  17    -0.354233437259E+03   -0.57968E-03   -0.58020E-03  7072   0.531E-02 0.253E-05
CGA:  18    -0.354233776788E+03   -0.33953E-03   -0.33929E-03  7072   0.361E-02 0.273E-04
CGA:  19    -0.354233927474E+03   -0.15069E-03   -0.15071E-03  7072   0.272E-02 0.156E-05
CGA:  20    -0.354234099612E+03   -0.17214E-03   -0.17212E-03  7072   0.259E-02 0.211E-05
CGA:  21    -0.354234332315E+03   -0.23270E-03   -0.23211E-03  7072   0.202E-02 0.166E-04
CGA:  22    -0.354234396414E+03   -0.64099E-04   -0.64142E-04  7072   0.825E-03 0.191E-05
CGA:  23    -0.354234447694E+03   -0.51280E-04   -0.51273E-04  7072   0.936E-03 0.156E-05
CGA:  24    -0.354234537461E+03   -0.89767E-04   -0.89632E-04  7072   0.817E-03 0.343E-05
CGA:  25    -0.354234564737E+03   -0.27276E-04   -0.27299E-04  7072   0.416E-03 0.124E-05
CGA:  26    -0.354234588217E+03   -0.23479E-04   -0.23483E-04  7072   0.248E-03 0.925E-06
CGA:  27    -0.354234607827E+03   -0.19610E-04   -0.19600E-04  7072   0.330E-03 0.329E-06
CGA:  28    -0.354234622808E+03   -0.14980E-04   -0.14992E-04  7072   0.244E-03 0.686E-06
CGA:  29    -0.354234635372E+03   -0.12565E-04   -0.12575E-04  7072   0.115E-03 0.115E-05
CGA:  30    -0.354234643024E+03   -0.76519E-05   -0.76450E-05  7072   0.117E-03 0.844E-06
  54 F= -.35423464E+03 E0= -.35422032E+03  d E =0.413264E-02  mag=     5.0221
       N       E                     dE             d eps       ncg     rms          ort
SDA:   1    -0.353907604593E+03    0.32703E+00    0.00000E+00  7072   0.153E+01 0.000E+00
CGA:   2    -0.353968977244E+03   -0.61373E-01   -0.60266E-01  7072   0.148E+01-0.190E-02
CGA:   3    -0.354121562432E+03   -0.15259E+00   -0.15238E+00  7072   0.986E+00 0.422E-02
CGA:   4    -0.354173562597E+03   -0.52000E-01   -0.51801E-01  7072   0.444E+00-0.873E-02
CGA:   5    -0.354210759393E+03   -0.37197E-01   -0.37263E-01  7072   0.345E+00-0.206E-02
CGA:   6    -0.354229751998E+03   -0.18993E-01   -0.18967E-01  7072   0.107E+00-0.171E-02
CGA:   7    -0.354233666532E+03   -0.39145E-02   -0.38799E-02  7072   0.589E-01 0.250E-03
CGA:   8    -0.354237242042E+03   -0.35755E-02   -0.35752E-02  7072   0.338E-01 0.159E-03
CGA:   9    -0.354239877328E+03   -0.26353E-02   -0.26382E-02  7072   0.164E-01-0.113E-03
CGA:  10    -0.354240721270E+03   -0.84394E-03   -0.84456E-03  7072   0.593E-02 0.280E-04
CGA:  11    -0.354241339286E+03   -0.61802E-03   -0.61848E-03  7072   0.416E-02-0.926E-05
CGA:  12    -0.354241675510E+03   -0.33622E-03   -0.33636E-03  7072   0.263E-02-0.647E-05
CGA:  13    -0.354241847858E+03   -0.17235E-03   -0.17233E-03  7072   0.102E-02 0.454E-05
CGA:  14    -0.354241905547E+03   -0.57689E-04   -0.57705E-04  7072   0.774E-03 0.200E-05
CGA:  15    -0.354241963802E+03   -0.58255E-04   -0.58244E-04  7072   0.988E-03 0.711E-06
CGA:  16    -0.354242005426E+03   -0.41624E-04   -0.41605E-04  7072   0.312E-03 0.409E-06
CGA:  17    -0.354242032819E+03   -0.27394E-04   -0.27382E-04  7072   0.117E-03 0.400E-06
CGA:  18    -0.354242045402E+03   -0.12583E-04   -0.12614E-04  7072   0.215E-03-0.752E-06
CGA:  19    -0.354242061452E+03   -0.16049E-04   -0.16057E-04  7072   0.101E-03-0.956E-06
CGA:  20    -0.354242065826E+03   -0.43738E-05   -0.43788E-05  7072   0.794E-04 0.221E-06
  55 F= -.35424207E+03 E0= -.35422769E+03  d E =-.742280E-02  mag=     5.0228
       N       E                     dE             d eps       ncg     rms          ort
SDA:   1    -0.354187536290E+03    0.54525E-01    0.00000E+00  7072   0.213E+00 0.000E+00
CGA:   2    -0.354199075390E+03   -0.11539E-01   -0.11535E-01  7072   0.274E+00-0.105E-03
CGA:   3    -0.354220364452E+03   -0.21289E-01   -0.21324E-01  7072   0.277E+00-0.178E-02
CGA:   4    -0.354232836726E+03   -0.12472E-01   -0.12567E-01  7072   0.784E-01 0.334E-03
CGA:   5    -0.354237299321E+03   -0.44626E-02   -0.44561E-02  7072   0.398E-01-0.312E-03
CGA:   6    -0.354241069018E+03   -0.37697E-02   -0.37740E-02  7072   0.155E-01-0.114E-03
CGA:   7    -0.354241982535E+03   -0.91352E-03   -0.91407E-03  7072   0.626E-02 0.335E-04
CGA:   8    -0.354242247937E+03   -0.26540E-03   -0.26551E-03  7072   0.487E-02 0.147E-07
CGA:   9    -0.354242592955E+03   -0.34502E-03   -0.34494E-03  7072   0.269E-02 0.566E-05
CGA:  10    -0.354242712214E+03   -0.11926E-03   -0.11917E-03  7072   0.840E-03-0.855E-06
CGA:  11    -0.354242798245E+03   -0.86032E-04   -0.86149E-04  7072   0.485E-03-0.283E-05
CGA:  12    -0.354242830725E+03   -0.32479E-04   -0.32479E-04  7072   0.446E-03 0.550E-07
CGA:  13    -0.354242854428E+03   -0.23703E-04   -0.23699E-04  7072   0.288E-03-0.591E-06
CGA:  14    -0.354242865697E+03   -0.11269E-04   -0.11255E-04  7072   0.747E-04-0.533E-06
CGA:  15    -0.354242871829E+03   -0.61324E-05   -0.61338E-05  7072   0.869E-04-0.965E-07
  56 F= -.35424287E+03 E0= -.35422850E+03  d E =-.806004E-03  mag=     5.0199
