       N       E                     dE             d eps       ncg     rms          rms(c)
DAV:   1     0.540047719566E+04    0.54005E+04   -0.23802E+05 30912   0.153E+03
DAV:   2     0.278518884388E+03   -0.51220E+04   -0.48627E+04 30584   0.452E+02
DAV:   3    -0.376010757725E+03   -0.65453E+03   -0.63959E+03 32480   0.173E+02
DAV:   4    -0.401661526090E+03   -0.25651E+02   -0.25205E+02 38224   0.393E+01
DAV:   5    -0.402587309903E+03   -0.92578E+00   -0.91832E+00 41592   0.665E+00    0.923E+01
DAV:   6    -0.302276805100E+03    0.10031E+03   -0.34437E+02 39128   0.643E+01    0.889E+01
DAV:   7    -0.318963877808E+03   -0.16687E+02   -0.30961E+02 37680   0.880E+01    0.715E+01
DAV:   8    -0.339247490901E+03   -0.20284E+02   -0.93643E+01 39800   0.504E+01    0.113E+02
DAV:   9    -0.291085965375E+03    0.48162E+02   -0.14121E+02 35800   0.327E+01    0.595E+01
DAV:  10    -0.285785743449E+03    0.53002E+01   -0.55443E+01 40368   0.217E+01    0.647E+01
DAV:  11    -0.290217925251E+03   -0.44322E+01   -0.62884E+01 39600   0.181E+01    0.661E+01
DAV:  12    -0.277040862805E+03    0.13177E+02   -0.61832E+01 40104   0.166E+01    0.434E+01
DAV:  13    -0.285428730962E+03   -0.83879E+01   -0.25759E+01 40296   0.112E+01    0.467E+01
DAV:  14    -0.291489099611E+03   -0.60604E+01   -0.22837E+01 39272   0.108E+01    0.385E+01
DAV:  15    -0.295952289868E+03   -0.44632E+01   -0.19395E+01 39568   0.822E+00    0.326E+01
DAV:  16    -0.300764659431E+03   -0.48124E+01   -0.10092E+01 38784   0.726E+00    0.288E+01
DAV:  17    -0.304793179191E+03   -0.40285E+01   -0.28146E+00 35760   0.393E+00    0.232E+01
DAV:  18    -0.306583714373E+03   -0.17905E+01   -0.16049E+00 36464   0.247E+00    0.229E+01
DAV:  19    -0.307947239856E+03   -0.13635E+01   -0.28597E-01 35800   0.154E+00    0.216E+01
DAV:  20    -0.309418417394E+03   -0.14712E+01   -0.26756E-01 39104   0.167E+00    0.207E+01
DAV:  21    -0.311293847086E+03   -0.18754E+01   -0.46775E-01 36952   0.140E+00    0.187E+01
DAV:  22    -0.317328344782E+03   -0.60345E+01   -0.19210E+00 37584   0.335E+00    0.204E+01
DAV:  23    -0.325054348136E+03   -0.77260E+01   -0.40952E+00 37376   0.458E+00    0.144E+01
DAV:  24    -0.336245079358E+03   -0.11191E+02   -0.12082E+01 37160   0.695E+00    0.259E+01
DAV:  25    -0.337248745157E+03   -0.10037E+01   -0.18897E+00 37760   0.378E+00    0.189E+01
DAV:  26    -0.337389402414E+03   -0.14066E+00   -0.96410E-01 39192   0.219E+00    0.138E+01
DAV:  27    -0.338271719502E+03   -0.88232E+00   -0.58423E-01 37136   0.197E+00    0.120E+01
DAV:  28    -0.339224553957E+03   -0.95283E+00   -0.11788E+00 37544   0.240E+00    0.154E+01
DAV:  29    -0.339518734547E+03   -0.29418E+00   -0.27769E-01 34984   0.132E+00    0.130E+01
DAV:  30    -0.339694841788E+03   -0.17611E+00   -0.80164E-02 37984   0.916E-01    0.133E+01
DAV:  31    -0.339655260262E+03    0.39582E-01   -0.24884E-02 31240   0.449E-01    0.138E+01
DAV:  32    -0.339700540651E+03   -0.45280E-01   -0.14920E-02 40832   0.417E-01    0.139E+01
DAV:  33    -0.340027513447E+03   -0.32697E+00   -0.21074E-01 38368   0.158E+00    0.866E+00
DAV:  34    -0.340390838557E+03   -0.36333E+00   -0.29626E-01 36392   0.117E+00    0.808E+00
DAV:  35    -0.340466747657E+03   -0.75909E-01   -0.67635E-02 38816   0.960E-01    0.691E+00
DAV:  36    -0.340630314792E+03   -0.16357E+00   -0.79536E-02 37624   0.750E-01    0.664E+00
DAV:  37    -0.340760279098E+03   -0.12996E+00   -0.37251E-02 36080   0.591E-01    0.676E+00
DAV:  38    -0.340862065913E+03   -0.10179E+00   -0.85487E-02 37704   0.828E-01    0.536E+00
DAV:  39    -0.340895780480E+03   -0.33715E-01   -0.29866E-02 36776   0.466E-01    0.497E+00
DAV:  40    -0.340909248076E+03   -0.13468E-01   -0.74525E-03 35168   0.184E-01    0.464E+00
DAV:  41    -0.340924245433E+03   -0.14997E-01   -0.47188E-03 36440   0.133E-01    0.456E+00
DAV:  42    -0.340918638888E+03    0.56065E-02   -0.10911E-03 33400   0.107E-01    0.458E+00
DAV:  43    -0.340936034168E+03   -0.17395E-01   -0.55337E-03 36904   0.172E-01    0.460E+00
DAV:  44    -0.340975343150E+03   -0.39309E-01   -0.27184E-02 37112   0.301E-01    0.481E+00
DAV:  45    -0.340993668429E+03   -0.18325E-01   -0.20161E-02 37608   0.219E-01    0.484E+00
DAV:  46    -0.341000874458E+03   -0.72060E-02   -0.82183E-03 37144   0.130E-01    0.490E+00
DAV:  47    -0.341004893597E+03   -0.40191E-02   -0.56852E-03 39632   0.158E-01    0.498E+00
DAV:  48    -0.341004419163E+03    0.47443E-03   -0.31118E-02 38200   0.353E-01    0.435E+00
DAV:  49    -0.341007753235E+03   -0.33341E-02   -0.13151E-01 39832   0.536E-01    0.391E+00
DAV:  50    -0.340939999325E+03    0.67754E-01   -0.37969E-01 39840   0.847E-01    0.436E+00
DAV:  51    -0.341055469190E+03   -0.11547E+00   -0.60363E-02 35936   0.738E-01    0.432E+00
DAV:  52    -0.341070437091E+03   -0.14968E-01   -0.18103E-02 35640   0.429E-01    0.361E+00
DAV:  53    -0.341092927043E+03   -0.22490E-01   -0.15169E-02 37592   0.391E-01    0.258E+00
DAV:  54    -0.341150298906E+03   -0.57372E-01   -0.50775E-02 37216   0.621E-01    0.392E+00
DAV:  55    -0.341151189717E+03   -0.89081E-03   -0.69875E-02 37400   0.565E-01    0.420E+00
DAV:  56    -0.341155757330E+03   -0.45676E-02   -0.34340E-02 39016   0.384E-01    0.500E+00
DAV:  57    -0.341163383607E+03   -0.76263E-02   -0.48609E-03 31096   0.197E-01    0.498E+00
DAV:  58    -0.341160059628E+03    0.33240E-02   -0.24774E-03 40080   0.151E-01    0.386E+00
DAV:  59    -0.341172395340E+03   -0.12336E-01   -0.50754E-02 37256   0.470E-01    0.205E+00
DAV:  60    -0.341180375846E+03   -0.79805E-02   -0.71408E-02 37216   0.420E-01    0.194E+00
DAV:  61    -0.341189439433E+03   -0.90636E-02   -0.17284E-02 36376   0.249E-01    0.199E+00
DAV:  62    -0.341189577963E+03   -0.13853E-03   -0.54753E-03 37320   0.184E-01    0.148E+00
DAV:  63    -0.341191078689E+03   -0.15007E-02   -0.12524E-03 33896   0.111E-01    0.152E+00
DAV:  64    -0.341192144204E+03   -0.10655E-02   -0.48918E-03 37920   0.147E-01    0.166E+00
DAV:  65    -0.341192973491E+03   -0.82929E-03   -0.41536E-03 36864   0.124E-01    0.198E+00
DAV:  66    -0.341195825206E+03   -0.28517E-02   -0.45892E-03 37536   0.168E-01    0.257E+00
DAV:  67    -0.341192726812E+03    0.30984E-02   -0.20161E-03 35440   0.110E-01    0.240E+00
DAV:  68    -0.341192952279E+03   -0.22547E-03   -0.12590E-03 38184   0.598E-02    0.251E+00
DAV:  69    -0.341192282995E+03    0.66928E-03   -0.47711E-04 35728   0.619E-02    0.262E+00
DAV:  70    -0.341192087299E+03    0.19570E-03   -0.58927E-04 36712   0.660E-02    0.250E+00
DAV:  71    -0.341188290935E+03    0.37964E-02   -0.31000E-02 37968   0.385E-01    0.262E+00
DAV:  72    -0.341190917259E+03   -0.26263E-02   -0.21218E-02 37016   0.367E-01    0.170E+00
DAV:  73    -0.341192182097E+03   -0.12648E-02   -0.46349E-03 38176   0.214E-01    0.106E+00
DAV:  74    -0.341192497371E+03   -0.31527E-03   -0.25131E-03 38880   0.144E-01    0.609E-01
DAV:  75    -0.341194383390E+03   -0.18860E-02   -0.21659E-03 33344   0.123E-01    0.361E-01
DAV:  76    -0.341194621163E+03   -0.23777E-03   -0.23801E-03 38336   0.127E-01    0.435E-01
DAV:  77    -0.341194701358E+03   -0.80195E-04   -0.70438E-04 35712   0.898E-02    0.248E-01
DAV:  78    -0.341194791636E+03   -0.90278E-04   -0.11040E-04 32520   0.346E-02    0.271E-01
DAV:  79    -0.341194514849E+03    0.27679E-03   -0.17238E-04 35568   0.424E-02    0.263E-01
DAV:  80    -0.341194861213E+03   -0.34636E-03   -0.25056E-04 33144   0.371E-02    0.188E-01
DAV:  81    -0.341195104379E+03   -0.24317E-03   -0.60373E-04 35392   0.460E-02    0.293E-01
DAV:  82    -0.341195117313E+03   -0.12934E-04   -0.18078E-04 29240   0.232E-02    0.349E-01
DAV:  83    -0.341195024263E+03    0.93050E-04   -0.18571E-05 22416   0.143E-02    0.379E-01
DAV:  84    -0.341195036711E+03   -0.12448E-04   -0.44793E-05 20168   0.162E-02    0.297E-01
DAV:  85    -0.341195086607E+03   -0.49896E-04   -0.99161E-05 27648   0.202E-02    0.170E-01
DAV:  86    -0.341195151451E+03   -0.64845E-04   -0.48985E-05 21224   0.131E-02    0.112E-01
DAV:  87    -0.341195158032E+03   -0.65807E-05   -0.17899E-05 19144   0.998E-03
   1 F= -.34119516E+03 E0= -.34117236E+03  d E =-.341195E+03  mag=    16.9176
       N       E                     dE             d eps       ncg     rms          rms(c)
DAV:   1    -0.341206476584E+03   -0.11325E-01   -0.43993E-03 31248   0.157E-01    0.759E-02
DAV:   2    -0.341206657994E+03   -0.18141E-03   -0.11764E-03 34232   0.509E-02    0.266E-01
DAV:   3    -0.341206584171E+03    0.73823E-04   -0.70825E-05 26440   0.227E-02    0.243E-01
DAV:   4    -0.341206379570E+03    0.20460E-03   -0.84332E-04 30792   0.383E-02    0.335E-01
DAV:   5    -0.341206404393E+03   -0.24823E-04   -0.53784E-05 25392   0.213E-02    0.306E-01
DAV:   6    -0.341206422361E+03   -0.17968E-04   -0.41789E-06 17184   0.739E-03    0.294E-01
DAV:   7    -0.341206393946E+03    0.28415E-04   -0.11190E-04 20728   0.216E-02    0.166E-01
DAV:   8    -0.341206455390E+03   -0.61444E-04   -0.44467E-05 21128   0.216E-02    0.104E-01
DAV:   9    -0.341206496034E+03   -0.40644E-04   -0.33860E-05 19528   0.214E-02    0.171E-01
DAV:  10    -0.341206492941E+03    0.30931E-05   -0.29052E-05 20456   0.202E-02
   2 F= -.34120649E+03 E0= -.34118364E+03  d E =-.113349E-01  mag=    16.9207
       N       E                     dE             d eps       ncg     rms          rms(c)
DAV:   1    -0.341474594818E+03   -0.26810E+00   -0.30765E+00 32552   0.415E+00    0.152E+00
DAV:   2    -0.341799573955E+03   -0.32498E+00   -0.21337E-01 39624   0.164E+00    0.161E+01
DAV:   3    -0.341367298432E+03    0.43228E+00   -0.13984E-01 37344   0.156E+00    0.217E+00
DAV:   4    -0.341488323565E+03   -0.12103E+00   -0.88130E-02 33096   0.643E-01    0.340E+00
DAV:   5    -0.341476726839E+03    0.11597E-01   -0.29237E-02 36392   0.378E-01    0.140E+00
DAV:   6    -0.341485627455E+03   -0.89006E-02   -0.95522E-03 37472   0.284E-01    0.226E+00
DAV:   7    -0.341482129741E+03    0.34977E-02   -0.34983E-03 36408   0.201E-01    0.195E+00
DAV:   8    -0.341481001558E+03    0.11282E-02   -0.11977E-03 34856   0.103E-01    0.226E+00
DAV:   9    -0.341478465534E+03    0.25360E-02   -0.10147E-02 40832   0.211E-01    0.299E+00
DAV:  10    -0.341479048322E+03   -0.58279E-03   -0.19548E-02 39912   0.287E-01    0.365E+00
DAV:  11    -0.341476219511E+03    0.28288E-02   -0.21547E-02 39416   0.274E-01    0.338E+00
DAV:  12    -0.341477614302E+03   -0.13948E-02   -0.64532E-03 38968   0.210E-01    0.277E+00
DAV:  13    -0.341478987838E+03   -0.13735E-02   -0.66236E-03 40200   0.215E-01    0.124E+00
DAV:  14    -0.341484646716E+03   -0.56589E-02   -0.63850E-03 35040   0.208E-01    0.788E-01
DAV:  15    -0.341486495942E+03   -0.18492E-02   -0.33200E-03 36728   0.187E-01    0.106E+00
DAV:  16    -0.341484913449E+03    0.15825E-02   -0.19632E-03 39392   0.146E-01    0.514E-01
DAV:  17    -0.341485603829E+03   -0.69038E-03   -0.14920E-03 38728   0.942E-02    0.528E-01
DAV:  18    -0.341485379700E+03    0.22413E-03   -0.10683E-03 36352   0.937E-02    0.453E-01
DAV:  19    -0.341485495801E+03   -0.11610E-03   -0.31718E-04 33920   0.612E-02    0.482E-01
DAV:  20    -0.341485361663E+03    0.13414E-03   -0.20551E-04 29928   0.425E-02    0.305E-01
DAV:  21    -0.341485428261E+03   -0.66598E-04   -0.51052E-05 26880   0.317E-02    0.137E-01
DAV:  22    -0.341485490642E+03   -0.62381E-04   -0.54411E-05 26624   0.243E-02    0.154E-01
DAV:  23    -0.341485430124E+03    0.60518E-04   -0.99790E-05 28680   0.273E-02    0.223E-01
DAV:  24    -0.341485346011E+03    0.84112E-04   -0.10130E-04 28584   0.219E-02    0.250E-01
DAV:  25    -0.341485354890E+03   -0.88785E-05   -0.16662E-05 18904   0.926E-03
   3 F= -.34148535E+03 E0= -.34146257E+03  d E =-.278862E+00  mag=    16.9515
       N       E                     dE             d eps       ncg     rms          rms(c)
DAV:   1    -0.341990305331E+03   -0.50496E+00   -0.21617E+01 33000   0.113E+01    0.357E+00
DAV:   2    -0.343360192797E+03   -0.13699E+01   -0.14787E+00 39000   0.396E+00    0.209E+01
DAV:   3    -0.342063488416E+03    0.12967E+01   -0.18698E+00 39728   0.408E+00    0.615E+00
DAV:   4    -0.342168700099E+03   -0.10521E+00   -0.35559E-01 37648   0.119E+00    0.596E+00
DAV:   5    -0.342103927348E+03    0.64773E-01   -0.12722E-01 40520   0.874E-01    0.460E+00
DAV:   6    -0.342075045513E+03    0.28882E-01   -0.14587E-01 39720   0.733E-01    0.457E+00
DAV:   7    -0.342059305982E+03    0.15740E-01   -0.13250E-01 40288   0.880E-01    0.411E+00
DAV:   8    -0.342070646624E+03   -0.11341E-01   -0.17794E-01 39784   0.954E-01    0.745E+00
DAV:   9    -0.342087040352E+03   -0.16394E-01   -0.40149E-02 34680   0.673E-01    0.757E+00
DAV:  10    -0.342069878125E+03    0.17162E-01   -0.11706E-02 37144   0.339E-01    0.711E+00
DAV:  11    -0.342063313524E+03    0.65646E-02   -0.95744E-04 31272   0.915E-02    0.711E+00
DAV:  12    -0.342058552939E+03    0.47606E-02   -0.87215E-03 41752   0.114E-01    0.692E+00
DAV:  13    -0.342059645250E+03   -0.10923E-02   -0.69075E-03 41032   0.165E-01    0.666E+00
DAV:  14    -0.342061751054E+03   -0.21058E-02   -0.42704E-03 38672   0.145E-01    0.647E+00
DAV:  15    -0.342064498630E+03   -0.27476E-02   -0.22207E-03 39576   0.123E-01    0.638E+00
DAV:  16    -0.342062742822E+03    0.17558E-02   -0.23928E-03 40752   0.168E-01    0.592E+00
DAV:  17    -0.342061977768E+03    0.76505E-03   -0.48154E-03 40440   0.192E-01    0.540E+00
DAV:  18    -0.342059770573E+03    0.22072E-02   -0.54505E-03 41256   0.268E-01    0.406E+00
DAV:  19    -0.342062518595E+03   -0.27480E-02   -0.88562E-03 40064   0.391E-01    0.920E-01
DAV:  20    -0.342076539434E+03   -0.14021E-01   -0.64979E-03 33296   0.295E-01    0.202E+00
DAV:  21    -0.342075266957E+03    0.12725E-02   -0.39557E-03 33728   0.204E-01    0.225E+00
DAV:  22    -0.342072560581E+03    0.27064E-02   -0.23472E-03 37824   0.137E-01    0.187E+00
DAV:  23    -0.342071830031E+03    0.73055E-03   -0.17336E-03 39792   0.157E-01    0.422E-01
DAV:  24    -0.342075345576E+03   -0.35155E-02   -0.20967E-03 34064   0.149E-01    0.844E-01
DAV:  25    -0.342075832729E+03   -0.48715E-03   -0.72491E-04 32904   0.880E-02    0.104E+00
DAV:  26    -0.342075056142E+03    0.77659E-03   -0.19879E-04 39152   0.564E-02    0.704E-01
DAV:  27    -0.342075159370E+03   -0.10323E-03   -0.10804E-04 34424   0.363E-02    0.489E-01
DAV:  28    -0.342075485224E+03   -0.32585E-03   -0.14279E-04 32120   0.374E-02    0.513E-01
DAV:  29    -0.342075511593E+03   -0.26369E-04   -0.59201E-05 27624   0.255E-02    0.543E-01
DAV:  30    -0.342075471147E+03    0.40447E-04   -0.20633E-05 24096   0.202E-02    0.471E-01
DAV:  31    -0.342075515909E+03   -0.44763E-04   -0.17700E-05 21416   0.142E-02    0.438E-01
DAV:  32    -0.342075600518E+03   -0.84608E-04   -0.42596E-05 29088   0.276E-02    0.361E-01
DAV:  33    -0.342075632390E+03   -0.31872E-04   -0.28371E-05 25544   0.174E-02    0.343E-01
DAV:  34    -0.342075626449E+03    0.59409E-05   -0.12009E-05 17616   0.118E-02
   4 F= -.34207563E+03 E0= -.34205285E+03  d E =-.590272E+00  mag=    17.0294
       N       E                     dE             d eps       ncg     rms          rms(c)
DAV:   1    -0.342414682743E+03   -0.33905E+00   -0.40734E+01 33048   0.167E+01    0.411E+00
DAV:   2    -0.344315529695E+03   -0.19008E+01   -0.26982E+00 37992   0.506E+00    0.260E+01
DAV:   3    -0.342591623204E+03    0.17239E+01   -0.29924E+00 39352   0.466E+00    0.571E+00
DAV:   4    -0.342785719598E+03   -0.19410E+00   -0.63093E-01 38976   0.176E+00    0.951E+00
DAV:   5    -0.342617450310E+03    0.16827E+00   -0.39179E-01 39560   0.143E+00    0.441E+00
DAV:   6    -0.342620846381E+03   -0.33961E-02   -0.21198E-01 39120   0.771E-01    0.445E+00
DAV:   7    -0.342602799792E+03    0.18047E-01   -0.88934E-02 40392   0.780E-01    0.415E+00
DAV:   8    -0.342572375553E+03    0.30424E-01   -0.73144E-02 39960   0.714E-01    0.318E+00
DAV:   9    -0.342566658802E+03    0.57168E-02   -0.52332E-02 40288   0.547E-01    0.286E+00
DAV:  10    -0.342560767888E+03    0.58909E-02   -0.61360E-02 39808   0.513E-01    0.228E+00
DAV:  11    -0.342563761736E+03   -0.29938E-02   -0.26709E-02 38616   0.381E-01    0.233E+00
DAV:  12    -0.342569722493E+03   -0.59608E-02   -0.28516E-03 34216   0.190E-01    0.334E+00
DAV:  13    -0.342562181943E+03    0.75405E-02   -0.17925E-03 31880   0.130E-01    0.414E+00
DAV:  14    -0.342554814529E+03    0.73674E-02   -0.11974E-03 32048   0.887E-02    0.441E+00
DAV:  15    -0.342553674545E+03    0.11400E-02   -0.28110E-03 37272   0.742E-02    0.439E+00
DAV:  16    -0.342557763227E+03   -0.40887E-02   -0.53617E-03 40752   0.135E-01    0.430E+00
DAV:  17    -0.342569409368E+03   -0.11646E-01   -0.48209E-03 40136   0.222E-01    0.427E+00
DAV:  18    -0.342571852759E+03   -0.24434E-02   -0.27788E-03 39656   0.150E-01    0.448E+00
DAV:  19    -0.342578220010E+03   -0.63673E-02   -0.15190E-03 41080   0.159E-01    0.444E+00
DAV:  20    -0.342583124295E+03   -0.49043E-02   -0.19152E-03 41440   0.148E-01    0.459E+00
DAV:  21    -0.342588350328E+03   -0.52260E-02   -0.49137E-03 41816   0.283E-01    0.350E+00
DAV:  22    -0.342595542010E+03   -0.71917E-02   -0.12819E-02 40072   0.474E-01    0.528E-01
DAV:  23    -0.342601606347E+03   -0.60643E-02   -0.53695E-03 32784   0.215E-01    0.118E+00
DAV:  24    -0.342600734372E+03    0.87197E-03   -0.10900E-03 32928   0.130E-01    0.110E+00
DAV:  25    -0.342600411703E+03    0.32267E-03   -0.95309E-04 40704   0.978E-02    0.499E-01
DAV:  26    -0.342601288273E+03   -0.87657E-03   -0.52371E-04 37048   0.724E-02    0.225E-01
DAV:  27    -0.342601575479E+03   -0.28721E-03   -0.21220E-04 31280   0.495E-02    0.226E-01
DAV:  28    -0.342601533547E+03    0.41932E-04   -0.71633E-05 29440   0.284E-02    0.138E-01
DAV:  29    -0.342601546435E+03   -0.12887E-04   -0.13132E-04 36040   0.527E-02    0.453E-01
DAV:  30    -0.342601431953E+03    0.11448E-03   -0.68942E-05 29016   0.273E-02    0.529E-01
DAV:  31    -0.342601280512E+03    0.15144E-03   -0.14431E-05 21320   0.175E-02    0.452E-01
DAV:  32    -0.342601289228E+03   -0.87166E-05   -0.44159E-05 26056   0.245E-02
   5 F= -.34260129E+03 E0= -.34257836E+03  d E =-.525663E+00  mag=    17.1096
       N       E                     dE             d eps       ncg     rms          rms(c)
DAV:   1    -0.342553309209E+03    0.47971E-01   -0.85047E+01 32992   0.259E+01    0.428E+00
DAV:   2    -0.344670231442E+03   -0.21169E+01   -0.58419E+00 36752   0.653E+00    0.264E+01
DAV:   3    -0.342990082374E+03    0.16801E+01   -0.28746E+00 39176   0.476E+00    0.578E+00
DAV:   4    -0.343178819520E+03   -0.18874E+00   -0.61069E-01 38936   0.185E+00    0.965E+00
DAV:   5    -0.343050629652E+03    0.12819E+00   -0.48709E-01 39888   0.153E+00    0.535E+00
DAV:   6    -0.343036445211E+03    0.14184E-01   -0.31819E-01 39720   0.936E-01    0.449E+00
DAV:   7    -0.343045674203E+03   -0.92290E-02   -0.10494E-01 39984   0.791E-01    0.434E+00
DAV:   8    -0.343001444033E+03    0.44230E-01   -0.82027E-02 40352   0.842E-01    0.347E+00
DAV:   9    -0.342989703312E+03    0.11741E-01   -0.56924E-02 40768   0.612E-01    0.266E+00
DAV:  10    -0.342996153027E+03   -0.64497E-02   -0.77041E-02 39984   0.563E-01    0.284E+00
DAV:  11    -0.343000849799E+03   -0.46968E-02   -0.19944E-02 37320   0.361E-01    0.482E+00
DAV:  12    -0.342981736100E+03    0.19114E-01   -0.74583E-03 31688   0.262E-01    0.616E+00
DAV:  13    -0.342965733453E+03    0.16003E-01   -0.99325E-03 37248   0.200E-01    0.629E+00
DAV:  14    -0.342966014485E+03   -0.28103E-03   -0.13462E-02 37568   0.136E-01    0.639E+00
DAV:  15    -0.342969449675E+03   -0.34352E-02   -0.48940E-03 33536   0.117E-01    0.631E+00
DAV:  16    -0.342975673239E+03   -0.62236E-02   -0.24624E-03 38536   0.137E-01    0.651E+00
DAV:  17    -0.342977192490E+03   -0.15193E-02   -0.80368E-04 38336   0.997E-02    0.662E+00
DAV:  18    -0.342976657010E+03    0.53548E-03   -0.62206E-04 40928   0.801E-02    0.658E+00
DAV:  19    -0.342985119005E+03   -0.84620E-02   -0.81215E-03 41400   0.224E-01    0.646E+00
DAV:  20    -0.342990322425E+03   -0.52034E-02   -0.22122E-02 41112   0.364E-01    0.533E+00
DAV:  21    -0.342993691870E+03   -0.33694E-02   -0.52032E-03 35440   0.156E-01    0.468E+00
DAV:  22    -0.342999234104E+03   -0.55422E-02   -0.20071E-03 39312   0.188E-01    0.335E+00
DAV:  23    -0.343009728103E+03   -0.10494E-01   -0.45893E-03 38128   0.312E-01    0.116E+00
DAV:  24    -0.343019458833E+03   -0.97307E-02   -0.72527E-03 35768   0.301E-01    0.648E-01
DAV:  25    -0.343020213217E+03   -0.75438E-03   -0.17317E-03 34312   0.133E-01    0.879E-01
DAV:  26    -0.343020390004E+03   -0.17679E-03   -0.12451E-03 41296   0.177E-01    0.420E-01
DAV:  27    -0.343020912101E+03   -0.52210E-03   -0.62136E-04 33768   0.747E-02    0.638E-01
DAV:  28    -0.343020760142E+03    0.15196E-03   -0.17871E-04 37752   0.513E-02    0.548E-01
DAV:  29    -0.343020718013E+03    0.42129E-04   -0.82966E-05 35600   0.310E-02    0.267E-01
DAV:  30    -0.343020945794E+03   -0.22778E-03   -0.59737E-05 27848   0.271E-02    0.900E-02
DAV:  31    -0.343021056430E+03   -0.11064E-03   -0.48381E-05 26744   0.272E-02    0.112E-01
DAV:  32    -0.343021052581E+03    0.38491E-05   -0.16035E-05 19736   0.151E-02
   6 F= -.34302105E+03 E0= -.34299747E+03  d E =-.419763E+00  mag=    17.1626
       N       E                     dE             d eps       ncg     rms          rms(c)
DAV:   1    -0.342578972292E+03    0.44208E+00   -0.14072E+02 32072   0.329E+01    0.334E+00
DAV:   2    -0.343749967296E+03   -0.11710E+01   -0.89250E+00 33112   0.659E+00    0.175E+01
DAV:   3    -0.343224736768E+03    0.52523E+00   -0.24148E+00 40632   0.303E+00    0.687E+00
DAV:   4    -0.343329548816E+03   -0.10481E+00   -0.68675E-01 39272   0.159E+00    0.744E+00
DAV:   5    -0.343296151833E+03    0.33397E-01   -0.18575E-01 39392   0.107E+00    0.618E+00
DAV:   6    -0.343262944642E+03    0.33207E-01   -0.41705E-02 38984   0.780E-01    0.239E+00
DAV:   7    -0.343286568800E+03   -0.23624E-01   -0.32910E-02 39456   0.495E-01    0.335E+00
DAV:   8    -0.343277090305E+03    0.94785E-02   -0.68505E-02 38552   0.549E-01    0.217E+00
DAV:   9    -0.343284902827E+03   -0.78125E-02   -0.45691E-02 40288   0.537E-01    0.305E+00
DAV:  10    -0.343273384075E+03    0.11519E-01   -0.23588E-02 39856   0.446E-01    0.149E+00
DAV:  11    -0.343279085191E+03   -0.57011E-02   -0.17010E-02 38808   0.333E-01    0.200E+00
DAV:  12    -0.343285303991E+03   -0.62188E-02   -0.19964E-02 40336   0.393E-01    0.368E+00
DAV:  13    -0.343277950743E+03    0.73532E-02   -0.27174E-02 39112   0.478E-01    0.374E+00
DAV:  14    -0.343267312625E+03    0.10638E-01   -0.24066E-02 40224   0.420E-01    0.174E+00
DAV:  15    -0.343276376201E+03   -0.90636E-02   -0.16361E-02 37080   0.342E-01    0.172E+00
DAV:  16    -0.343277724218E+03   -0.13480E-02   -0.69866E-03 37128   0.314E-01    0.209E+00
DAV:  17    -0.343274325259E+03    0.33990E-02   -0.61731E-03 39440   0.243E-01    0.180E+00
DAV:  18    -0.343273033665E+03    0.12916E-02   -0.17492E-03 38432   0.145E-01    0.801E-01
DAV:  19    -0.343276141411E+03   -0.31077E-02   -0.45139E-03 38832   0.156E-01    0.844E-01
DAV:  20    -0.343275747006E+03    0.39441E-03   -0.24383E-03 38400   0.138E-01    0.238E-01
DAV:  21    -0.343276515670E+03   -0.76866E-03   -0.46070E-04 33912   0.701E-02    0.602E-01
DAV:  22    -0.343276132361E+03    0.38331E-03   -0.19753E-04 34224   0.556E-02    0.378E-01
DAV:  23    -0.343276187169E+03   -0.54809E-04   -0.89291E-05 28704   0.315E-02    0.716E-02
DAV:  24    -0.343276413563E+03   -0.22639E-03   -0.86369E-05 29976   0.328E-02    0.829E-02
DAV:  25    -0.343276433558E+03   -0.19996E-04   -0.21549E-05 21328   0.160E-02    0.124E-01
DAV:  26    -0.343276416115E+03    0.17443E-04   -0.98454E-06 18392   0.131E-02    0.344E-02
DAV:  27    -0.343276431621E+03   -0.15505E-04   -0.50988E-06 17824   0.799E-03    0.685E-02
DAV:  28    -0.343276432722E+03   -0.11013E-05   -0.50080E-06 17744   0.860E-03
   7 F= -.34327643E+03 E0= -.34325184E+03  d E =-.255380E+00  mag=    17.1310
       N       E                     dE             d eps       ncg     rms          rms(c)
DAV:   1    -0.342848292537E+03    0.42814E+00   -0.12079E+02 31536   0.308E+01    0.290E+00
DAV:   2    -0.344022536310E+03   -0.11742E+01   -0.55026E+00 32336   0.604E+00    0.182E+01
DAV:   3    -0.343259552936E+03    0.76298E+00   -0.50242E-01 37952   0.262E+00    0.355E+00
DAV:   4    -0.343474902046E+03   -0.21535E+00   -0.73068E-01 39096   0.143E+00    0.916E+00
DAV:   5    -0.343356564774E+03    0.11834E+00   -0.39442E-01 39152   0.119E+00    0.505E+00
DAV:   6    -0.343367710741E+03   -0.11146E-01   -0.31635E-02 34968   0.433E-01    0.521E+00
DAV:   7    -0.343361084118E+03    0.66266E-02   -0.27604E-03 30952   0.183E-01    0.538E+00
DAV:   8    -0.343357017388E+03    0.40667E-02   -0.38544E-04 35640   0.581E-02    0.541E+00
DAV:   9    -0.343355592332E+03    0.14251E-02   -0.40908E-04 34848   0.542E-02    0.537E+00
DAV:  10    -0.343355947784E+03   -0.35545E-03   -0.98088E-05 27392   0.309E-02    0.541E+00
DAV:  11    -0.343360965807E+03   -0.50180E-02   -0.39764E-03 41176   0.150E-01    0.587E+00
DAV:  12    -0.343358106027E+03    0.28598E-02   -0.10534E-03 35216   0.908E-02    0.594E+00
DAV:  13    -0.343354494916E+03    0.36111E-02   -0.82326E-03 41240   0.220E-01    0.566E+00
DAV:  14    -0.343349196950E+03    0.52980E-02   -0.90602E-03 40104   0.225E-01    0.501E+00
DAV:  15    -0.343353747022E+03   -0.45501E-02   -0.10461E-02 40248   0.254E-01    0.490E+00
DAV:  16    -0.343353076995E+03    0.67003E-03   -0.49653E-03 38104   0.170E-01    0.460E+00
DAV:  17    -0.343355787007E+03   -0.27100E-02   -0.83808E-04 34848   0.741E-02    0.472E+00
DAV:  18    -0.343352260920E+03    0.35261E-02   -0.68742E-04 39448   0.889E-02    0.417E+00
DAV:  19    -0.343357460529E+03   -0.51996E-02   -0.12129E-02 40624   0.485E-01    0.342E+00
DAV:  20    -0.343384645864E+03   -0.27185E-01   -0.34099E-02 35624   0.564E-01    0.555E+00
DAV:  21    -0.343368169479E+03    0.16476E-01   -0.23648E-02 36856   0.482E-01    0.556E+00
DAV:  22    -0.343343405778E+03    0.24764E-01   -0.13941E-02 39424   0.507E-01    0.288E+00
DAV:  23    -0.343356553013E+03   -0.13147E-01   -0.69098E-03 36936   0.260E-01    0.145E+00
DAV:  24    -0.343366162743E+03   -0.96097E-02   -0.57272E-03 33120   0.281E-01    0.803E-01
DAV:  25    -0.343366275251E+03   -0.11251E-03   -0.17806E-03 39992   0.126E-01    0.760E-01
DAV:  26    -0.343366175888E+03    0.99363E-04   -0.72963E-04 33744   0.989E-02    0.491E-01
DAV:  27    -0.343366348464E+03   -0.17258E-03   -0.34615E-04 39232   0.544E-02    0.457E-01
DAV:  28    -0.343366588555E+03   -0.24009E-03   -0.30198E-04 31984   0.548E-02    0.503E-01
DAV:  29    -0.343366460604E+03    0.12795E-03   -0.88306E-05 30984   0.300E-02    0.350E-01
DAV:  30    -0.343366500469E+03   -0.39865E-04   -0.68326E-05 22240   0.202E-02    0.168E-01
DAV:  31    -0.343366573361E+03   -0.72892E-04   -0.99993E-05 26536   0.237E-02    0.134E-01
DAV:  32    -0.343366578115E+03   -0.47538E-05   -0.58141E-05 20296   0.147E-02
   8 F= -.34336658E+03 E0= -.34334122E+03  d E =-.901454E-01  mag=    17.0686
       N       E                     dE             d eps       ncg     rms          rms(c)
DAV:   1    -0.342778593098E+03    0.58798E+00   -0.16141E+02 31968   0.360E+01    0.261E+00
DAV:   2    -0.343458847675E+03   -0.68025E+00   -0.63756E+00 29952   0.619E+00    0.813E+00
DAV:   3    -0.343396839328E+03    0.62008E-01   -0.32822E-01 40952   0.170E+00    0.641E+00
DAV:   4    -0.343455936198E+03   -0.59097E-01   -0.29421E-01 39752   0.135E+00    0.852E+00
DAV:   5    -0.343369169279E+03    0.86767E-01   -0.31029E-01 38936   0.107E+00    0.314E+00
DAV:   6    -0.343386667032E+03   -0.17498E-01   -0.58197E-02 36072   0.459E-01    0.213E+00
DAV:   7    -0.343393797615E+03   -0.71306E-02   -0.31599E-02 38720   0.453E-01    0.226E+00
DAV:   8    -0.343392082415E+03    0.17152E-02   -0.34157E-02 38688   0.435E-01    0.226E+00
DAV:   9    -0.343390493201E+03    0.15892E-02   -0.37997E-02 39976   0.506E-01    0.238E+00
DAV:  10    -0.343399451899E+03   -0.89587E-02   -0.50656E-02 39720   0.574E-01    0.367E+00
DAV:  11    -0.343385374131E+03    0.14078E-01   -0.53506E-02 38496   0.494E-01    0.200E+00
DAV:  12    -0.343386660974E+03   -0.12868E-02   -0.13470E-02 36248   0.339E-01    0.155E+00
DAV:  13    -0.343386108190E+03    0.55278E-03   -0.81432E-03 37888   0.226E-01    0.737E-01
DAV:  14    -0.343387997903E+03   -0.18897E-02   -0.25063E-03 36200   0.140E-01    0.784E-01
DAV:  15    -0.343388029539E+03   -0.31636E-04   -0.75260E-04 36776   0.104E-01    0.794E-01
DAV:  16    -0.343388034647E+03   -0.51082E-05   -0.88487E-04 40416   0.107E-01    0.786E-01
DAV:  17    -0.343389016610E+03   -0.98196E-03   -0.14548E-03 39232   0.134E-01    0.156E+00
DAV:  18    -0.343388867650E+03    0.14896E-03   -0.43930E-03 36672   0.175E-01    0.216E+00
DAV:  19    -0.343384448861E+03    0.44188E-02   -0.42932E-03 38016   0.166E-01    0.161E+00
DAV:  20    -0.343384422115E+03    0.26745E-04   -0.10184E-03 39360   0.960E-02    0.261E-01
DAV:  21    -0.343387927161E+03   -0.35050E-02   -0.94902E-04 31256   0.109E-01    0.182E-01
DAV:  22    -0.343388039916E+03   -0.11275E-03   -0.16127E-04 34280   0.443E-02    0.112E-01
DAV:  23    -0.343388072317E+03   -0.32401E-04   -0.70871E-05 26800   0.267E-02    0.243E-01
DAV:  24    -0.343387997071E+03    0.75246E-04   -0.60491E-05 25960   0.264E-02    0.661E-02
DAV:  25    -0.343388052487E+03   -0.55416E-04   -0.26452E-05 22104   0.182E-02    0.673E-02
DAV:  26    -0.343388062130E+03   -0.96423E-05   -0.22993E-05 22032   0.164E-02
   9 F= -.34338806E+03 E0= -.34336228E+03  d E =-.214840E-01  mag=    17.0078
       N       E                     dE             d eps       ncg     rms          rms(c)
DAV:   1    -0.343186904711E+03    0.20115E+00   -0.62190E+01 31600   0.240E+01    0.288E+00
DAV:   2    -0.343890101903E+03   -0.70320E+00   -0.29054E+00 34992   0.485E+00    0.174E+01
DAV:   3    -0.343325242704E+03    0.56486E+00   -0.44815E-01 38896   0.258E+00    0.413E+00
DAV:   4    -0.343496040150E+03   -0.17080E+00   -0.61025E-01 36424   0.134E+00    0.749E+00
DAV:   5    -0.343457476000E+03    0.38564E-01   -0.42373E-01 39328   0.947E-01    0.659E+00
DAV:   6    -0.343438789821E+03    0.18686E-01   -0.65191E-02 37392   0.710E-01    0.559E+00
DAV:   7    -0.343431865834E+03    0.69240E-02   -0.58174E-03 33160   0.258E-01    0.542E+00
DAV:   8    -0.343427848130E+03    0.40177E-02   -0.20380E-03 39168   0.116E-01    0.532E+00
DAV:   9    -0.343419936810E+03    0.79113E-02   -0.12096E-02 40816   0.259E-01    0.392E+00
DAV:  10    -0.343424511233E+03   -0.45744E-02   -0.13099E-02 40048   0.342E-01    0.119E+00
DAV:  11    -0.343446410272E+03   -0.21899E-01   -0.24911E-02 35104   0.414E-01    0.227E+00
DAV:  12    -0.343442137516E+03    0.42728E-02   -0.18642E-02 38440   0.379E-01    0.219E+00
DAV:  13    -0.343441299124E+03    0.83839E-03   -0.13048E-02 39728   0.328E-01    0.195E+00
DAV:  14    -0.343441518496E+03   -0.21937E-03   -0.10450E-02 39480   0.325E-01    0.199E+00
DAV:  15    -0.343444529127E+03   -0.30106E-02   -0.62592E-03 35632   0.266E-01    0.301E+00
DAV:  16    -0.343436637019E+03    0.78921E-02   -0.31863E-03 35544   0.213E-01    0.234E+00
DAV:  17    -0.343436530482E+03    0.10654E-03   -0.25762E-03 38600   0.161E-01    0.162E+00
DAV:  18    -0.343438505192E+03   -0.19747E-02   -0.23358E-03 38960   0.152E-01    0.482E-01
DAV:  19    -0.343442713552E+03   -0.42084E-02   -0.25009E-03 33952   0.156E-01    0.120E+00
DAV:  20    -0.343441778963E+03    0.93459E-03   -0.13671E-03 33624   0.143E-01    0.121E+00
DAV:  21    -0.343440442540E+03    0.13364E-02   -0.29735E-04 37984   0.766E-02    0.212E-01
DAV:  22    -0.343441961942E+03   -0.15194E-02   -0.38906E-04 31592   0.620E-02    0.243E-01
DAV:  23    -0.343442175445E+03   -0.21350E-03   -0.16544E-04 31048   0.427E-02    0.342E-01
DAV:  24    -0.343442032726E+03    0.14272E-03   -0.44175E-05 27920   0.256E-02    0.195E-01
DAV:  25    -0.343442097189E+03   -0.64463E-04   -0.11348E-05 18944   0.131E-02    0.197E-01
DAV:  26    -0.343442096839E+03    0.35008E-06   -0.10036E-05 18896   0.140E-02
  10 F= -.34344210E+03 E0= -.34341664E+03  d E =-.540347E-01  mag=    17.0004
       N       E                     dE             d eps       ncg     rms          rms(c)
DAV:   1    -0.342790924260E+03    0.65117E+00   -0.17923E+02 31824   0.407E+01    0.491E+00
DAV:   2    -0.345344860676E+03   -0.25539E+01   -0.81056E+00 34816   0.811E+00    0.273E+01
DAV:   3    -0.343544107475E+03    0.18008E+01   -0.36672E+00 38208   0.566E+00    0.639E+00
DAV:   4    -0.343798546538E+03   -0.25444E+00   -0.10135E+00 38648   0.228E+00    0.133E+01
DAV:   5    -0.343513428249E+03    0.28512E+00   -0.79877E-01 39960   0.177E+00    0.491E+00
DAV:   6    -0.343523205738E+03   -0.97775E-02   -0.16685E-01 38496   0.969E-01    0.485E+00
DAV:   7    -0.343520925390E+03    0.22803E-02   -0.25745E-01 40848   0.110E+00    0.682E+00
DAV:   8    -0.343452785893E+03    0.68139E-01   -0.27358E-01 39824   0.108E+00    0.310E+00
DAV:   9    -0.343482425625E+03   -0.29640E-01   -0.11536E-01 39184   0.755E-01    0.488E+00
DAV:  10    -0.343510753660E+03   -0.28328E-01   -0.77800E-02 37784   0.642E-01    0.837E+00
DAV:  11    -0.343474525689E+03    0.36228E-01   -0.15650E-02 30600   0.392E-01    0.902E+00
DAV:  12    -0.343450424779E+03    0.24101E-01   -0.10565E-03 32216   0.105E-01    0.902E+00
DAV:  13    -0.343445987982E+03    0.44368E-02   -0.79936E-04 39856   0.905E-02    0.895E+00
DAV:  14    -0.343446637027E+03   -0.64904E-03   -0.63069E-04 38064   0.624E-02    0.892E+00
DAV:  15    -0.343446257220E+03    0.37981E-03   -0.29839E-05 24712   0.178E-02    0.893E+00
DAV:  16    -0.343448541647E+03   -0.22844E-02   -0.15829E-04 36248   0.479E-02    0.884E+00
DAV:  17    -0.343448999263E+03   -0.45762E-03   -0.90013E-05 30328   0.264E-02    0.883E+00
DAV:  18    -0.343451762577E+03   -0.27633E-02   -0.67558E-04 34920   0.575E-02    0.878E+00
DAV:  19    -0.343454096594E+03   -0.23340E-02   -0.12913E-03 37544   0.685E-02    0.874E+00
DAV:  20    -0.343454188386E+03   -0.91792E-04   -0.29847E-04 32664   0.485E-02    0.876E+00
DAV:  21    -0.343453963082E+03    0.22530E-03   -0.72184E-04 39576   0.898E-02    0.887E+00
DAV:  22    -0.343457099752E+03   -0.31367E-02   -0.29238E-04 36736   0.608E-02    0.881E+00
DAV:  23    -0.343476162360E+03   -0.19063E-01   -0.10457E-02 42408   0.355E-01    0.812E+00
DAV:  24    -0.343489445101E+03   -0.13283E-01   -0.87630E-03 39816   0.291E-01    0.758E+00
DAV:  25    -0.343496746961E+03   -0.73019E-02   -0.46719E-03 39968   0.276E-01    0.696E+00
DAV:  26    -0.343494477295E+03    0.22697E-02   -0.11420E-02 41240   0.449E-01    0.553E+00
DAV:  27    -0.343486871034E+03    0.76063E-02   -0.10864E-02 41312   0.397E-01    0.177E+00
DAV:  28    -0.343511034180E+03   -0.24163E-01   -0.54570E-03 30792   0.239E-01    0.718E-01
DAV:  29    -0.343517957809E+03   -0.69236E-02   -0.29007E-03 38784   0.225E-01    0.160E+00
DAV:  30    -0.343515289128E+03    0.26687E-02   -0.14715E-03 36040   0.123E-01    0.786E-01
DAV:  31    -0.343516285703E+03   -0.99658E-03   -0.53043E-04 35208   0.743E-02    0.262E-01
DAV:  32    -0.343517433255E+03   -0.11476E-02   -0.39472E-04 32000   0.688E-02    0.381E-01
DAV:  33    -0.343517384738E+03    0.48517E-04   -0.19524E-04 36392   0.571E-02    0.180E-01
DAV:  34    -0.343517501370E+03   -0.11663E-03   -0.87108E-05 30840   0.264E-02    0.225E-01
DAV:  35    -0.343517511732E+03   -0.10363E-04   -0.41460E-05 27656   0.288E-02    0.131E-01
DAV:  36    -0.343517521804E+03   -0.10072E-04   -0.15238E-05 20448   0.155E-02    0.124E-01
DAV:  37    -0.343517507519E+03    0.14286E-04   -0.17880E-05 18800   0.120E-02    0.132E-01
DAV:  38    -0.343517480070E+03    0.27448E-04   -0.22353E-05 20040   0.127E-02    0.122E-01
DAV:  39    -0.343517463081E+03    0.16989E-04   -0.17471E-05 19016   0.118E-02    0.138E-01
DAV:  40    -0.343517469914E+03   -0.68327E-05   -0.39446E-06 16976   0.550E-03
  11 F= -.34351747E+03 E0= -.34349295E+03  d E =-.753731E-01  mag=    17.0524
       N       E                     dE             d eps       ncg     rms          rms(c)
DAV:   1    -0.343349277108E+03    0.16819E+00   -0.36658E+01 32256   0.199E+01    0.156E+00
DAV:   2    -0.343566676660E+03   -0.21740E+00   -0.19542E+00 30720   0.347E+00    0.625E+00
DAV:   3    -0.343530386277E+03    0.36290E-01   -0.81084E-02 38232   0.115E+00    0.453E+00
DAV:   4    -0.343544826851E+03   -0.14441E-01   -0.43631E-02 38816   0.788E-01    0.327E+00
DAV:   5    -0.343539009050E+03    0.58178E-02   -0.81377E-02 38568   0.655E-01    0.234E+00
DAV:   6    -0.343537086262E+03    0.19228E-02   -0.45230E-02 36576   0.360E-01    0.131E+00
DAV:   7    -0.343541221439E+03   -0.41352E-02   -0.12581E-02 39016   0.289E-01    0.170E+00
DAV:   8    -0.343539562146E+03    0.16593E-02   -0.11540E-02 38864   0.319E-01    0.160E+00
DAV:   9    -0.343538690783E+03    0.87136E-03   -0.55009E-03 38120   0.237E-01    0.170E+00
DAV:  10    -0.343537310608E+03    0.13802E-02   -0.36264E-03 39288   0.186E-01    0.129E+00
DAV:  11    -0.343537403897E+03   -0.93290E-04   -0.20645E-03 39792   0.141E-01    0.589E-01
DAV:  12    -0.343539503873E+03   -0.21000E-02   -0.29719E-03 39304   0.162E-01    0.837E-01
DAV:  13    -0.343539081044E+03    0.42283E-03   -0.27036E-03 38280   0.162E-01    0.684E-01
DAV:  14    -0.343539126837E+03   -0.45793E-04   -0.20668E-03 39344   0.127E-01    0.665E-01
DAV:  15    -0.343539422644E+03   -0.29581E-03   -0.15773E-03 40280   0.125E-01    0.100E+00
DAV:  16    -0.343539762667E+03   -0.34002E-03   -0.10322E-03 33112   0.118E-01    0.158E+00
DAV:  17    -0.343537636043E+03    0.21266E-02   -0.64566E-04 32760   0.846E-02    0.150E+00
DAV:  18    -0.343536467595E+03    0.11684E-02   -0.20257E-04 38088   0.562E-02    0.743E-01
DAV:  19    -0.343538350680E+03   -0.18831E-02   -0.76573E-04 35840   0.808E-02    0.490E-01
DAV:  20    -0.343539399990E+03   -0.10493E-02   -0.90728E-04 31728   0.928E-02    0.651E-01
DAV:  21    -0.343539013743E+03    0.38625E-03   -0.17748E-04 30032   0.496E-02    0.546E-01
DAV:  22    -0.343538914292E+03    0.99451E-04   -0.33374E-05 21256   0.158E-02    0.364E-01
DAV:  23    -0.343539084537E+03   -0.17024E-03   -0.33044E-05 20336   0.151E-02    0.283E-01
DAV:  24    -0.343539179708E+03   -0.95171E-04   -0.21558E-05 19648   0.127E-02    0.260E-01
DAV:  25    -0.343539200297E+03   -0.20589E-04   -0.90819E-06 18320   0.896E-03    0.202E-01
DAV:  26    -0.343539236788E+03   -0.36491E-04   -0.85364E-06 19200   0.890E-03    0.180E-01
DAV:  27    -0.343539245039E+03   -0.82516E-05   -0.83231E-06 18168   0.829E-03
  12 F= -.34353925E+03 E0= -.34351556E+03  d E =-.217751E-01  mag=    17.0886
       N       E                     dE             d eps       ncg     rms          rms(c)
DAV:   1    -0.343538652489E+03    0.58430E-03   -0.36375E+00 32192   0.636E+00    0.106E+00
DAV:   2    -0.343639758451E+03   -0.10111E+00   -0.21843E-01 36440   0.150E+00    0.626E+00
DAV:   3    -0.343540162394E+03    0.99596E-01   -0.70236E-02 37424   0.105E+00    0.324E+00
DAV:   4    -0.343544588298E+03   -0.44259E-02   -0.11589E-02 34472   0.252E-01    0.157E+00
DAV:   5    -0.343552825234E+03   -0.82369E-02   -0.58141E-03 35768   0.194E-01    0.994E-01
DAV:   6    -0.343555493827E+03   -0.26686E-02   -0.51565E-03 35920   0.211E-01    0.625E-01
DAV:   7    -0.343557018313E+03   -0.15245E-02   -0.35838E-03 39424   0.187E-01    0.126E+00
DAV:   8    -0.343556827058E+03    0.19125E-03   -0.44419E-03 38280   0.182E-01    0.204E+00
DAV:   9    -0.343554875827E+03    0.19512E-02   -0.27154E-03 35344   0.165E-01    0.234E+00
DAV:  10    -0.343551200096E+03    0.36757E-02   -0.24145E-03 39832   0.164E-01    0.156E+00
DAV:  11    -0.343552566287E+03   -0.13662E-02   -0.13287E-03 36336   0.114E-01    0.760E-01
DAV:  12    -0.343554599850E+03   -0.20336E-02   -0.81412E-04 33696   0.919E-02    0.404E-01
DAV:  13    -0.343555290546E+03   -0.69070E-03   -0.44068E-04 34896   0.687E-02    0.191E-01
DAV:  14    -0.343555531901E+03   -0.24136E-03   -0.15554E-04 32376   0.495E-02    0.136E-01
DAV:  15    -0.343555568840E+03   -0.36939E-04   -0.83148E-05 24016   0.283E-02    0.178E-01
DAV:  16    -0.343555569823E+03   -0.98313E-06   -0.73780E-05 21544   0.240E-02
  13 F= -.34355557E+03 E0= -.34353191E+03  d E =-.163248E-01  mag=    17.0843
       N       E                     dE             d eps       ncg     rms          rms(c)
DAV:   1    -0.343522160541E+03    0.33408E-01   -0.15020E+01 31520   0.111E+01    0.914E-01
DAV:   2    -0.343617059851E+03   -0.94899E-01   -0.52102E-01 31280   0.193E+00    0.670E+00
DAV:   3    -0.343543669964E+03    0.73390E-01   -0.31045E-02 36096   0.814E-01    0.893E-01
DAV:   4    -0.343577796636E+03   -0.34127E-01   -0.42381E-02 34832   0.432E-01    0.225E+00
DAV:   5    -0.343571784861E+03    0.60118E-02   -0.32969E-02 36224   0.358E-01    0.119E+00
DAV:   6    -0.343572997200E+03   -0.12123E-02   -0.45298E-03 36280   0.189E-01    0.137E+00
DAV:   7    -0.343571677413E+03    0.13198E-02   -0.23426E-03 38696   0.147E-01    0.927E-01
DAV:   8    -0.343571937731E+03   -0.26032E-03   -0.19243E-03 39992   0.133E-01    0.430E-01
DAV:   9    -0.343574462978E+03   -0.25252E-02   -0.30742E-03 39656   0.159E-01    0.158E+00
DAV:  10    -0.343575045619E+03   -0.58264E-03   -0.27905E-03 35520   0.180E-01    0.281E+00
DAV:  11    -0.343569212286E+03    0.58333E-02   -0.16278E-03 32424   0.140E-01    0.285E+00
DAV:  12    -0.343565068634E+03    0.41437E-02   -0.45926E-04 39528   0.798E-02    0.204E+00
DAV:  13    -0.343567181184E+03   -0.21125E-02   -0.53856E-04 36560   0.731E-02    0.105E+00
DAV:  14    -0.343570597901E+03   -0.34167E-02   -0.10401E-03 33320   0.997E-02    0.224E-01
DAV:  15    -0.343572952343E+03   -0.23544E-02   -0.93948E-04 32008   0.983E-02    0.692E-01
DAV:  16    -0.343572534134E+03    0.41821E-03   -0.36972E-04 31576   0.737E-02    0.577E-01
DAV:  17    -0.343572389976E+03    0.14416E-03   -0.13026E-04 25440   0.349E-02    0.348E-01
DAV:  18    -0.343572574818E+03   -0.18484E-03   -0.12261E-04 26512   0.342E-02    0.985E-02
DAV:  19    -0.343572761230E+03   -0.18641E-03   -0.48083E-05 25944   0.256E-02    0.101E-01
DAV:  20    -0.343572793578E+03   -0.32348E-04   -0.67079E-05 23392   0.248E-02    0.113E-01
DAV:  21    -0.343572777922E+03    0.15656E-04   -0.37154E-05 19408   0.190E-02    0.363E-02
DAV:  22    -0.343572787197E+03   -0.92751E-05   -0.53569E-06 17008   0.764E-03
  14 F= -.34357279E+03 E0= -.34354936E+03  d E =-.172174E-01  mag=    17.0965
       N       E                     dE             d eps       ncg     rms          rms(c)
DAV:   1    -0.343453906839E+03    0.11887E+00   -0.42316E+01 31808   0.190E+01    0.124E+00
DAV:   2    -0.343606989667E+03   -0.15308E+00   -0.14953E+00 30040   0.314E+00    0.305E+00
DAV:   3    -0.343612209018E+03   -0.52194E-02   -0.72610E-02 41152   0.892E-01    0.447E+00
DAV:   4    -0.343600018992E+03    0.12190E-01   -0.20321E-02 38120   0.606E-01    0.326E+00
DAV:   5    -0.343595153672E+03    0.48653E-02   -0.26700E-02 37632   0.446E-01    0.832E-01
DAV:   6    -0.343599566926E+03   -0.44133E-02   -0.11695E-02 36520   0.250E-01    0.797E-01
DAV:   7    -0.343601590618E+03   -0.20237E-02   -0.17425E-02 39400   0.252E-01    0.155E+00
DAV:   8    -0.343597522314E+03    0.40683E-02   -0.97403E-03 38256   0.241E-01    0.569E-01
DAV:   9    -0.343599389813E+03   -0.18675E-02   -0.58114E-03 39048   0.228E-01    0.872E-01
DAV:  10    -0.343598476658E+03    0.91315E-03   -0.45004E-03 38720   0.186E-01    0.428E-01
DAV:  11    -0.343598620505E+03   -0.14385E-03   -0.11258E-03 37880   0.952E-02    0.323E-01
DAV:  12    -0.343598730804E+03   -0.11030E-03   -0.52845E-04 36656   0.689E-02    0.326E-01
DAV:  13    -0.343598654840E+03    0.75963E-04   -0.19494E-04 31056   0.454E-02    0.207E-01
DAV:  14    -0.343598723744E+03   -0.68904E-04   -0.12359E-04 24936   0.342E-02    0.279E-01
DAV:  15    -0.343598671082E+03    0.52662E-04   -0.10251E-04 23560   0.318E-02    0.203E-01
DAV:  16    -0.343598738232E+03   -0.67150E-04   -0.26957E-04 27336   0.467E-02    0.288E-01
DAV:  17    -0.343598727609E+03    0.10623E-04   -0.38266E-04 31128   0.549E-02    0.315E-01
DAV:  18    -0.343598656042E+03    0.71567E-04   -0.28328E-04 34288   0.585E-02    0.285E-01
DAV:  19    -0.343598633750E+03    0.22292E-04   -0.24256E-04 26648   0.384E-02    0.239E-01
DAV:  20    -0.343598622524E+03    0.11226E-04   -0.63887E-05 22224   0.292E-02    0.101E-01
DAV:  21    -0.343598692574E+03   -0.70049E-04   -0.37614E-05 24608   0.266E-02    0.573E-02
DAV:  22    -0.343598703766E+03   -0.11192E-04   -0.15733E-05 21920   0.136E-02    0.134E-01
DAV:  23    -0.343598677009E+03    0.26757E-04   -0.96517E-06 19576   0.125E-02    0.469E-02
DAV:  24    -0.343598692250E+03   -0.15241E-04   -0.38424E-06 17448   0.654E-03    0.312E-02
DAV:  25    -0.343598699597E+03   -0.73477E-05   -0.34703E-06 17320   0.680E-03
  15 F= -.34359870E+03 E0= -.34357550E+03  d E =-.259124E-01  mag=    17.0999
       N       E                     dE             d eps       ncg     rms          rms(c)
DAV:   1    -0.342759991290E+03    0.83870E+00   -0.11112E+02 31864   0.396E+01    0.502E+00
DAV:   2    -0.345086294712E+03   -0.23263E+01   -0.87410E+00 34784   0.853E+00    0.277E+01
DAV:   3    -0.343475916979E+03    0.16104E+01   -0.30898E+00 38256   0.534E+00    0.615E+00
DAV:   4    -0.343752245078E+03   -0.27633E+00   -0.10132E+00 38784   0.247E+00    0.126E+01
DAV:   5    -0.343483634469E+03    0.26861E+00   -0.92386E-01 39072   0.189E+00    0.533E+00
DAV:   6    -0.343505754196E+03   -0.22120E-01   -0.30665E-01 39408   0.112E+00    0.587E+00
DAV:   7    -0.343494786457E+03    0.10968E-01   -0.16324E-01 40336   0.111E+00    0.425E+00
DAV:   8    -0.343457968205E+03    0.36818E-01   -0.10800E-01 40232   0.104E+00    0.409E+00
DAV:   9    -0.343449349488E+03    0.86187E-02   -0.10236E-01 39920   0.815E-01    0.338E+00
DAV:  10    -0.343468048525E+03   -0.18699E-01   -0.53157E-02 39320   0.651E-01    0.569E+00
DAV:  11    -0.343462733169E+03    0.53154E-02   -0.10300E-02 31312   0.359E-01    0.755E+00
DAV:  12    -0.343433696145E+03    0.29037E-01   -0.22412E-02 37360   0.400E-01    0.864E+00
DAV:  13    -0.343401361319E+03    0.32335E-01   -0.15688E-02 40824   0.400E-01    0.857E+00
DAV:  14    -0.343389776035E+03    0.11585E-01   -0.73544E-03 39192   0.224E-01    0.828E+00
DAV:  15    -0.343387464826E+03    0.23112E-02   -0.71501E-03 41160   0.216E-01    0.865E+00
DAV:  16    -0.343388321946E+03   -0.85712E-03   -0.56977E-03 40032   0.146E-01    0.887E+00
DAV:  17    -0.343387023843E+03    0.12981E-02   -0.22128E-03 34568   0.104E-01    0.906E+00
DAV:  18    -0.343379003825E+03    0.80200E-02   -0.34357E-03 41256   0.141E-01    0.901E+00
DAV:  19    -0.343362808350E+03    0.16195E-01   -0.72683E-03 41032   0.245E-01    0.912E+00
DAV:  20    -0.343370958428E+03   -0.81501E-02   -0.16935E-02 41264   0.392E-01    0.107E+01
DAV:  21    -0.343334152296E+03    0.36806E-01   -0.20247E-02 36712   0.225E-01    0.105E+01
DAV:  22    -0.343356145793E+03   -0.21993E-01   -0.22205E-02 30744   0.171E-01    0.990E+00
DAV:  23    -0.343374928866E+03   -0.18783E-01   -0.70157E-03 30840   0.145E-01    0.976E+00
DAV:  24    -0.343351649743E+03    0.23279E-01   -0.33973E-01 39608   0.332E-01    0.740E+00
DAV:  25    -0.343433703369E+03   -0.82054E-01   -0.36972E-02 30776   0.406E-01    0.946E+00
DAV:  26    -0.343401662332E+03    0.32041E-01   -0.67181E-03 31544   0.199E-01    0.977E+00
DAV:  27    -0.343402490326E+03   -0.82799E-03   -0.38433E-03 36368   0.104E-01    0.103E+01
DAV:  28    -0.343400197810E+03    0.22925E-02   -0.25057E-03 34648   0.671E-02    0.106E+01
DAV:  29    -0.343401058462E+03   -0.86065E-03   -0.70032E-03 38536   0.132E-01    0.106E+01
DAV:  30    -0.343386218412E+03    0.14840E-01   -0.42317E-03 40760   0.108E-01    0.103E+01
DAV:  31    -0.343355431884E+03    0.30787E-01   -0.52306E-03 42368   0.179E-01    0.881E+00
DAV:  32    -0.343322689904E+03    0.32742E-01   -0.31204E-02 42680   0.401E-01    0.487E+00
DAV:  33    -0.343365623220E+03   -0.42933E-01   -0.96082E-03 30248   0.275E-01    0.372E+00
DAV:  34    -0.343384049288E+03   -0.18426E-01   -0.73614E-03 36144   0.182E-01    0.395E+00
DAV:  35    -0.343380611399E+03    0.34379E-02   -0.15846E-02 37800   0.156E-01    0.316E+00
DAV:  36    -0.343384912975E+03   -0.43016E-02   -0.56865E-03 35664   0.105E-01    0.294E+00
DAV:  37    -0.343380426524E+03    0.44865E-02   -0.22995E-03 38912   0.113E-01    0.225E+00
DAV:  38    -0.343382736866E+03   -0.23103E-02   -0.24914E-03 34120   0.817E-02    0.197E+00
DAV:  39    -0.343382030844E+03    0.70602E-03   -0.44818E-03 38176   0.939E-02    0.175E+00
DAV:  40    -0.343384279010E+03   -0.22482E-02   -0.83526E-03 38032   0.126E-01    0.184E+00
DAV:  41    -0.343382219689E+03    0.20593E-02   -0.17207E-02 37592   0.142E-01    0.260E+00
DAV:  42    -0.343378451114E+03    0.37686E-02   -0.39279E-03 34088   0.109E-01    0.269E+00
DAV:  43    -0.343379141961E+03   -0.69085E-03   -0.27478E-04 29840   0.504E-02    0.288E+00
DAV:  44    -0.343372433240E+03    0.67087E-02   -0.84463E-03 36416   0.109E-01    0.328E+00
DAV:  45    -0.343361639560E+03    0.10794E-01   -0.60030E-03 39272   0.103E-01    0.326E+00
DAV:  46    -0.343362802268E+03   -0.11627E-02   -0.13011E-03 29904   0.715E-02    0.295E+00
DAV:  47    -0.343366932024E+03   -0.41298E-02   -0.20520E-04 32120   0.355E-02    0.292E+00
DAV:  48    -0.343367364114E+03   -0.43209E-03   -0.71665E-05 23608   0.137E-02    0.283E+00
DAV:  49    -0.343365639095E+03    0.17250E-02   -0.29332E-04 30576   0.315E-02    0.280E+00
DAV:  50    -0.343365811843E+03   -0.17275E-03   -0.21552E-05 22376   0.146E-02    0.277E+00
DAV:  51    -0.343363460221E+03    0.23516E-02   -0.96456E-05 26056   0.294E-02    0.262E+00
DAV:  52    -0.343364708694E+03   -0.12485E-02   -0.84952E-05 25256   0.226E-02    0.250E+00
DAV:  53    -0.343364053639E+03    0.65506E-03   -0.10680E-04 25976   0.213E-02    0.255E+00
DAV:  54    -0.343363735737E+03    0.31790E-03   -0.50259E-04 32416   0.364E-02    0.228E+00
DAV:  55    -0.343362395876E+03    0.13399E-02   -0.90379E-04 37056   0.626E-02    0.219E+00
DAV:  56    -0.343362001117E+03    0.39476E-03   -0.53248E-04 31248   0.620E-02    0.224E+00
DAV:  57    -0.343365795163E+03   -0.37940E-02   -0.64146E-03 38664   0.175E-01    0.223E+00
DAV:  58    -0.343365489282E+03    0.30588E-03   -0.57719E-03 36792   0.121E-01    0.220E+00
DAV:  59    -0.343366500529E+03   -0.10112E-02   -0.21363E-03 38280   0.740E-02    0.208E+00
DAV:  60    -0.343364833301E+03    0.16672E-02   -0.16939E-02 36800   0.181E-01    0.251E+00
DAV:  61    -0.343372170215E+03   -0.73369E-02   -0.26381E-02 36632   0.187E-01    0.506E+00
DAV:  62    -0.343383803509E+03   -0.11633E-01   -0.38915E-02 34560   0.242E-01    0.865E+00
DAV:  63    -0.343366518886E+03    0.17285E-01   -0.76730E-03 30016   0.248E-01    0.953E+00
DAV:  64    -0.343348250590E+03    0.18268E-01   -0.16777E-03 33176   0.893E-02    0.969E+00
DAV:  65    -0.343342353842E+03    0.58967E-02   -0.34138E-04 30320   0.406E-02    0.971E+00
DAV:  66    -0.343340577272E+03    0.17766E-02   -0.11526E-05 21200   0.101E-02    0.970E+00
DAV:  67    -0.343621989317E+03   -0.28141E+00   -0.49084E-01 39960   0.833E-01    0.117E+01
DAV:  68    -0.343628732261E+03   -0.67429E-02   -0.20452E-02 31712   0.313E-01    0.119E+01
DAV:  69    -0.343617115688E+03    0.11617E-01   -0.83357E-04 31768   0.776E-02    0.119E+01
DAV:  70    -0.343608000845E+03    0.91148E-02   -0.12218E-04 31008   0.302E-02    0.118E+01
DAV:  71    -0.343606744526E+03    0.12563E-02   -0.64284E-05 26352   0.151E-02    0.118E+01
DAV:  72    -0.343590516647E+03    0.16228E-01   -0.17686E-02 39480   0.187E-01    0.115E+01
DAV:  73    -0.343588845164E+03    0.16715E-02   -0.91872E-03 37680   0.152E-01    0.113E+01
DAV:  74    -0.343584850954E+03    0.39942E-02   -0.13613E-02 37576   0.209E-01    0.115E+01
DAV:  75    -0.343600250258E+03   -0.15399E-01   -0.10064E-03 33048   0.854E-02    0.115E+01
DAV:  76    -0.343589336787E+03    0.10913E-01   -0.94737E-03 38168   0.178E-01    0.112E+01
DAV:  77    -0.343556344789E+03    0.32992E-01   -0.52440E-02 38456   0.292E-01    0.107E+01
DAV:  78    -0.343567783687E+03   -0.11439E-01   -0.14138E-02 36600   0.150E-01    0.105E+01
DAV:  79    -0.343385047540E+03    0.18274E+00   -0.19356E-01 38704   0.509E-01    0.974E+00
DAV:  80    -0.343478237336E+03   -0.93190E-01   -0.11958E-02 30456   0.272E-01    0.965E+00
DAV:  81    -0.343489535427E+03   -0.11298E-01   -0.56644E-03 37760   0.114E-01    0.975E+00
DAV:  82    -0.343508946172E+03   -0.19411E-01   -0.81983E-03 35712   0.113E-01    0.999E+00
DAV:  83    -0.343497459723E+03    0.11486E-01   -0.57849E-04 29296   0.716E-02    0.100E+01
DAV:  84    -0.343519979400E+03   -0.22520E-01   -0.23035E-03 39032   0.808E-02    0.103E+01
DAV:  85    -0.343524068681E+03   -0.40893E-02   -0.63628E-04 34592   0.534E-02    0.104E+01
DAV:  86    -0.343540209282E+03   -0.16141E-01   -0.12962E-03 40264   0.107E-01    0.105E+01
DAV:  87    -0.343501746052E+03    0.38463E-01   -0.36013E-02 38184   0.309E-01    0.998E+00
DAV:  88    -0.343556903465E+03   -0.55157E-01   -0.16025E-02 41000   0.327E-01    0.103E+01
DAV:  89    -0.343515406505E+03    0.41497E-01   -0.13211E-02 36152   0.228E-01    0.995E+00
DAV:  90    -0.343475532253E+03    0.39874E-01   -0.23847E-02 41496   0.364E-01    0.967E+00
DAV:  91    -0.343463184781E+03    0.12347E-01   -0.36044E-03 37088   0.163E-01    0.953E+00
DAV:  92    -0.343421824857E+03    0.41360E-01   -0.84467E-02 38272   0.384E-01    0.983E+00
DAV:  93    -0.343404337430E+03    0.17487E-01   -0.18236E-01 38984   0.267E-01    0.996E+00
DAV:  94    -0.343459519572E+03   -0.55182E-01   -0.26369E-02 30048   0.221E-01    0.100E+01
DAV:  95    -0.343476266833E+03   -0.16747E-01   -0.29906E-03 30568   0.110E-01    0.100E+01
DAV:  96    -0.343460226510E+03    0.16040E-01   -0.49893E-03 37184   0.747E-02    0.997E+00
DAV:  97    -0.343495516706E+03   -0.35290E-01   -0.12410E-01 41976   0.266E-01    0.116E+01
DAV:  98    -0.343485078848E+03    0.10438E-01   -0.99658E-03 30344   0.220E-01    0.117E+01
DAV:  99    -0.343435798331E+03    0.49281E-01   -0.17181E-02 39024   0.211E-01    0.102E+01
DAV: 100    -0.343447206347E+03   -0.11408E-01   -0.14548E-03 29808   0.114E-01    0.103E+01
DAV: 101    -0.343447387296E+03   -0.18095E-03   -0.20398E-04 29992   0.291E-02    0.103E+01
DAV: 102    -0.343452481678E+03   -0.50944E-02   -0.24671E-03 39416   0.142E-01    0.130E+01
DAV: 103    -0.343457135547E+03   -0.46539E-02   -0.36354E-02 30576   0.212E-01    0.144E+01
DAV: 104    -0.343428145045E+03    0.28991E-01   -0.35213E-03 30296   0.150E-01    0.144E+01
DAV: 105    -0.343412164910E+03    0.15980E-01   -0.26989E-04 31320   0.548E-02    0.142E+01
DAV: 106    -0.343415571318E+03   -0.34064E-02   -0.48183E-05 27208   0.213E-02    0.140E+01
DAV: 107    -0.343271468800E+03    0.14410E+00   -0.26003E+00 38872   0.113E+00    0.946E+00
DAV: 108    -0.343524679809E+03   -0.25321E+00   -0.26806E-01 31192   0.766E-01    0.105E+01
DAV: 109    -0.343492354172E+03    0.32326E-01   -0.18001E-01 34992   0.442E-01    0.104E+01
DAV: 110    -0.343384927683E+03    0.10743E+00   -0.20839E-01 36952   0.373E-01    0.106E+01
DAV: 111    -0.343363047562E+03    0.21880E-01   -0.27288E-01 39304   0.463E-01    0.107E+01
DAV: 112    -0.343296329886E+03    0.66718E-01   -0.59892E-01 34328   0.700E-01    0.777E+00
DAV: 113    -0.343380744836E+03   -0.84415E-01   -0.29701E-02 30744   0.377E-01    0.946E+00
DAV: 114    -0.343334708426E+03    0.46036E-01   -0.64256E-03 33048   0.213E-01    0.900E+00
DAV: 115    -0.343278686514E+03    0.56022E-01   -0.15637E-02 40928   0.222E-01    0.271E+00
DAV: 116    -0.343393762679E+03   -0.11508E+00   -0.75730E-02 31016   0.421E-01    0.171E+00
DAV: 117    -0.343400593344E+03   -0.68307E-02   -0.23564E-02 35560   0.308E-01    0.154E+00
DAV: 118    -0.343394415333E+03    0.61780E-02   -0.91516E-03 40392   0.182E-01    0.191E+00
DAV: 119    -0.343379556299E+03    0.14859E-01   -0.41298E-03 39736   0.165E-01    0.229E+00
DAV: 120    -0.343374102410E+03    0.54539E-02   -0.12836E-03 35784   0.795E-02    0.242E+00
DAV: 121    -0.343371321429E+03    0.27810E-02   -0.71906E-04 33528   0.465E-02    0.237E+00
DAV: 122    -0.343358162857E+03    0.13159E-01   -0.10736E-02 36144   0.161E-01    0.266E+00
DAV: 123    -0.343345563906E+03    0.12599E-01   -0.82535E-03 37312   0.135E-01    0.306E+00
DAV: 124    -0.343357690618E+03   -0.12127E-01   -0.60595E-03 33248   0.176E-01    0.265E+00
DAV: 125    -0.343370200129E+03   -0.12510E-01   -0.99516E-03 38072   0.158E-01    0.212E+00
DAV: 126    -0.343389996391E+03   -0.19796E-01   -0.10785E-02 40896   0.211E-01    0.284E+00
DAV: 127    -0.343385671143E+03    0.43252E-02   -0.69374E-03 30456   0.191E-01    0.207E+00
DAV: 128    -0.343390199241E+03   -0.45281E-02   -0.73336E-03 32448   0.121E-01    0.191E+00
DAV: 129    -0.343390427341E+03   -0.22810E-03   -0.13133E-03 33512   0.440E-02    0.193E+00
DAV: 130    -0.343390599582E+03   -0.17224E-03   -0.70520E-05 27752   0.232E-02    0.192E+00
DAV: 131    -0.343389415125E+03    0.11845E-02   -0.38522E-04 28744   0.248E-02    0.196E+00
DAV: 132    -0.343387060083E+03    0.23550E-02   -0.24848E-02 33672   0.178E-01    0.186E+00
DAV: 133    -0.343387349656E+03   -0.28957E-03   -0.14624E-03 31848   0.653E-02    0.194E+00
DAV: 134    -0.343388957702E+03   -0.16080E-02   -0.23086E-03 36792   0.535E-02    0.221E+00
DAV: 135    -0.343390980805E+03   -0.20231E-02   -0.98783E-04 32440   0.526E-02    0.219E+00
DAV: 136    -0.343394679017E+03   -0.36982E-02   -0.71959E-04 35376   0.482E-02    0.194E+00
DAV: 137    -0.343404000522E+03   -0.93215E-02   -0.40954E-03 38408   0.118E-01    0.235E+00
DAV: 138    -0.343404576748E+03   -0.57623E-03   -0.13234E-03 29496   0.780E-02    0.274E+00
DAV: 139    -0.343403706845E+03    0.86990E-03   -0.79789E-05 28208   0.307E-02    0.284E+00
DAV: 140    -0.343403729916E+03   -0.23071E-04   -0.18041E-04 24944   0.208E-02    0.299E+00
DAV: 141    -0.343403276515E+03    0.45340E-03   -0.62671E-05 23776   0.170E-02    0.303E+00
DAV: 142    -0.343398799670E+03    0.44768E-02   -0.37722E-04 36528   0.583E-02    0.290E+00
DAV: 143    -0.343397999105E+03    0.80057E-03   -0.22380E-04 33032   0.230E-02    0.275E+00
DAV: 144    -0.343397675834E+03    0.32327E-03   -0.20738E-04 22016   0.172E-02    0.261E+00
DAV: 145    -0.343397973021E+03   -0.29719E-03   -0.73578E-03 36040   0.795E-02    0.269E+00
DAV: 146    -0.343397043093E+03    0.92993E-03   -0.66009E-03 38832   0.694E-02    0.284E+00
DAV: 147    -0.343396830495E+03    0.21260E-03   -0.24192E-02 32856   0.182E-01    0.256E+00
DAV: 148    -0.343398535370E+03   -0.17049E-02   -0.58926E-04 29656   0.614E-02    0.236E+00
DAV: 149    -0.343398890907E+03   -0.35554E-03   -0.20699E-04 29464   0.303E-02    0.225E+00
DAV: 150    -0.343399432176E+03   -0.54127E-03   -0.17356E-05 20472   0.116E-02    0.220E+00
DAV: 151    -0.343399194813E+03    0.23736E-03   -0.97718E-04 33656   0.357E-02    0.230E+00
DAV: 152    -0.343364622806E+03    0.34572E-01   -0.15406E-01 37192   0.465E-01    0.485E+00
DAV: 153    -0.343392031739E+03   -0.27409E-01   -0.16323E-02 31320   0.243E-01    0.744E+00
DAV: 154    -0.343384061823E+03    0.79699E-02   -0.35903E-03 30544   0.177E-01    0.836E+00
DAV: 155    -0.343372679278E+03    0.11383E-01   -0.59197E-04 31152   0.761E-02    0.849E+00
DAV: 156    -0.343367340480E+03    0.53388E-02   -0.36848E-04 31952   0.364E-02    0.834E+00
DAV: 157    -0.343410801548E+03   -0.43461E-01   -0.34031E-01 39600   0.107E+00    0.104E+01
DAV: 158    -0.343489847884E+03   -0.79046E-01   -0.35431E-02 30032   0.433E-01    0.102E+01
DAV: 159    -0.343482043056E+03    0.78048E-02   -0.70867E-03 39304   0.149E-01    0.998E+00
DAV: 160    -0.343481526891E+03    0.51616E-03   -0.14027E-02 37784   0.965E-02    0.987E+00
DAV: 161    -0.343492108379E+03   -0.10581E-01   -0.12296E-02 34984   0.784E-02    0.983E+00
DAV: 162    -0.343519743644E+03   -0.27635E-01   -0.12512E-01 39776   0.228E-01    0.966E+00
DAV: 163    -0.343542588393E+03   -0.22845E-01   -0.26602E-02 30776   0.187E-01    0.969E+00
DAV: 164    -0.343518225131E+03    0.24363E-01   -0.43020E-03 30176   0.131E-01    0.967E+00
DAV: 165    -0.343496182788E+03    0.22042E-01   -0.16735E-02 36512   0.907E-02    0.971E+00
DAV: 166    -0.343482981562E+03    0.13201E-01   -0.30460E-02 39016   0.121E-01    0.975E+00
DAV: 167    -0.343484353548E+03   -0.13720E-02   -0.31410E-03 33280   0.146E-01    0.978E+00
DAV: 168    -0.343482705467E+03    0.16481E-02   -0.10607E-03 30536   0.606E-02    0.977E+00
DAV: 169    -0.343484762251E+03   -0.20568E-02   -0.64588E-04 37656   0.523E-02    0.976E+00
DAV: 170    -0.343490513137E+03   -0.57509E-02   -0.11727E-03 39736   0.853E-02    0.977E+00
DAV: 171    -0.343481100375E+03    0.94128E-02   -0.79765E-03 37184   0.101E-01    0.981E+00
DAV: 172    -0.343470806146E+03    0.10294E-01   -0.23392E-02 36232   0.100E-01    0.987E+00
DAV: 173    -0.343475663865E+03   -0.48577E-02   -0.24668E-03 29856   0.847E-02    0.988E+00
DAV: 174    -0.343474260137E+03    0.14037E-02   -0.67571E-04 30104   0.376E-02    0.989E+00
DAV: 175    -0.343476149358E+03   -0.18892E-02   -0.90880E-04 31536   0.359E-02    0.987E+00
DAV: 176    -0.343476545225E+03   -0.39587E-03   -0.60460E-05 25416   0.181E-02    0.985E+00
DAV: 177    -0.343468952035E+03    0.75932E-02   -0.86864E-03 34848   0.556E-02    0.987E+00
DAV: 178    -0.343470719080E+03   -0.17670E-02   -0.10336E-03 29008   0.520E-02    0.987E+00
DAV: 179    -0.343472965765E+03   -0.22467E-02   -0.15628E-04 30808   0.341E-02    0.987E+00
DAV: 180    -0.343468947796E+03    0.40180E-02   -0.48003E-03 37440   0.616E-02    0.988E+00
DAV: 181    -0.343468404518E+03    0.54328E-03   -0.56879E-04 29208   0.369E-02    0.989E+00
DAV: 182    -0.343470303356E+03   -0.18988E-02   -0.11127E-04 30264   0.305E-02    0.989E+00
DAV: 183    -0.343471869519E+03   -0.15662E-02   -0.14678E-03 31168   0.283E-02    0.990E+00
DAV: 184    -0.343472298868E+03   -0.42935E-03   -0.55395E-04 26600   0.222E-02    0.990E+00
DAV: 185    -0.343467425470E+03    0.48734E-02   -0.19909E-04 31952   0.375E-02    0.989E+00
DAV: 186    -0.343463416196E+03    0.40093E-02   -0.43605E-04 37896   0.420E-02    0.989E+00
DAV: 187    -0.343462612783E+03    0.80341E-03   -0.97855E-02 37600   0.213E-01    0.976E+00
DAV: 188    -0.343486969010E+03   -0.24356E-01   -0.34958E-02 31840   0.164E-01    0.973E+00
DAV: 189    -0.343495301343E+03   -0.83323E-02   -0.83014E-03 30264   0.118E-01    0.972E+00
DAV: 190    -0.343488711334E+03    0.65900E-02   -0.18484E-03 30136   0.770E-02    0.975E+00
DAV: 191    -0.343484464763E+03    0.42466E-02   -0.20862E-03 34176   0.323E-02    0.977E+00
DAV: 192    -0.343482679715E+03    0.17850E-02   -0.10052E-02 38168   0.109E-01    0.986E+00
DAV: 193    -0.343488885575E+03   -0.62059E-02   -0.50299E-04 29464   0.665E-02    0.986E+00
DAV: 194    -0.343491057238E+03   -0.21717E-02   -0.40958E-04 33064   0.299E-02    0.986E+00
DAV: 195    -0.343489436000E+03    0.16212E-02   -0.42684E-04 33736   0.403E-02    0.984E+00
DAV: 196    -0.343488348654E+03    0.10873E-02   -0.12154E-03 36080   0.323E-02    0.984E+00
DAV: 197    -0.343153233780E+03    0.33511E+00   -0.11696E+01 38768   0.321E+00    0.162E+01
DAV: 198    -0.343421592619E+03   -0.26836E+00   -0.41592E-01 32632   0.121E+00    0.151E+01
DAV: 199    -0.343501088374E+03   -0.79496E-01   -0.12956E-02 31872   0.338E-01    0.153E+01
DAV: 200    -0.343326956973E+03    0.17413E+00   -0.17345E-01 38528   0.646E-01
  16 F= -.34332696E+03 E0= -.34331168E+03  d E =0.271743E+00  mag=    16.9391
       N       E                     dE             d eps       ncg     rms          rms(c)
DAV:   1    -0.342663342021E+03    0.83775E+00   -0.32405E+01 33504   0.212E+01    0.175E+01
DAV:   2    -0.362597434111E+03   -0.19934E+02   -0.97436E+01 40224   0.203E+01    0.598E+01
DAV:   3    -0.351879314909E+03    0.10718E+02   -0.50615E+01 39728   0.180E+01    0.288E+01
DAV:   4    -0.344930602517E+03    0.69487E+01   -0.64506E+00 40728   0.849E+00    0.253E+01
DAV:   5    -0.343633697153E+03    0.12969E+01   -0.42879E+00 40472   0.564E+00    0.208E+01
DAV:   6    -0.343681068475E+03   -0.47371E-01   -0.29904E+00 41656   0.444E+00    0.184E+01
DAV:   7    -0.343966580717E+03   -0.28551E+00   -0.45191E+00 39496   0.414E+00    0.187E+01
DAV:   8    -0.343804546348E+03    0.16203E+00   -0.16286E+00 41152   0.283E+00    0.120E+01
DAV:   9    -0.343766982601E+03    0.37564E-01   -0.53309E-01 40408   0.214E+00    0.945E+00
DAV:  10    -0.343826730390E+03   -0.59748E-01   -0.66659E-01 40336   0.208E+00    0.118E+01
DAV:  11    -0.343653514664E+03    0.17322E+00   -0.87501E-01 39720   0.171E+00    0.644E+00
DAV:  12    -0.343588533610E+03    0.64981E-01   -0.15450E-01 40192   0.148E+00    0.516E+00
DAV:  13    -0.343621233268E+03   -0.32700E-01   -0.28172E-01 40464   0.115E+00    0.825E+00
DAV:  14    -0.343623619511E+03   -0.23862E-02   -0.12935E-01 39336   0.117E+00    0.792E+00
DAV:  15    -0.343581197481E+03    0.42422E-01   -0.59418E-02 39896   0.741E-01    0.575E+00
DAV:  16    -0.343592046713E+03   -0.10849E-01   -0.12283E-02 36352   0.314E-01    0.390E+00
DAV:  17    -0.343620823872E+03   -0.28777E-01   -0.35616E-02 39744   0.480E-01    0.362E+00
DAV:  18    -0.343621932153E+03   -0.11083E-02   -0.49523E-02 40056   0.549E-01    0.349E+00
DAV:  19    -0.343638112415E+03   -0.16180E-01   -0.82248E-02 40696   0.758E-01    0.405E+00
DAV:  20    -0.343645734795E+03   -0.76224E-02   -0.65667E-02 39688   0.821E-01    0.472E+00
DAV:  21    -0.343621545184E+03    0.24190E-01   -0.16706E-02 37792   0.544E-01    0.169E+00
DAV:  22    -0.343634932568E+03   -0.13387E-01   -0.42123E-03 30896   0.221E-01    0.216E+00
DAV:  23    -0.343631486203E+03    0.34464E-02   -0.97405E-04 31152   0.106E-01    0.211E+00
DAV:  24    -0.343629996759E+03    0.14894E-02   -0.23797E-03 39312   0.203E-01    0.174E+00
DAV:  25    -0.343641995194E+03   -0.11998E-01   -0.61728E-03 34296   0.306E-01    0.370E+00
DAV:  26    -0.343635104858E+03    0.68903E-02   -0.67117E-03 36008   0.271E-01    0.404E+00
DAV:  27    -0.343619042723E+03    0.16062E-01   -0.26402E-03 39360   0.234E-01    0.143E+00
DAV:  28    -0.343631337497E+03   -0.12295E-01   -0.23256E-03 32528   0.149E-01    0.475E-01
DAV:  29    -0.343635011933E+03   -0.36744E-02   -0.91543E-04 31832   0.103E-01    0.634E-01
DAV:  30    -0.343637186562E+03   -0.21746E-02   -0.12893E-03 40312   0.169E-01    0.184E+00
DAV:  31    -0.343633548526E+03    0.36380E-02   -0.18786E-03 32808   0.158E-01    0.131E+00
DAV:  32    -0.343633745880E+03   -0.19735E-03   -0.39880E-04 34904   0.569E-02    0.988E-01
DAV:  33    -0.343634140595E+03   -0.39472E-03   -0.12513E-04 35848   0.437E-02    0.424E-01
DAV:  34    -0.343635000807E+03   -0.86021E-03   -0.15815E-04 30624   0.424E-02    0.184E-01
DAV:  35    -0.343635389212E+03   -0.38840E-03   -0.72828E-05 30360   0.334E-02    0.377E-01
DAV:  36    -0.343635308222E+03    0.80990E-04   -0.34336E-05 24624   0.211E-02    0.425E-01
DAV:  37    -0.343635242846E+03    0.65376E-04   -0.16787E-05 19576   0.150E-02    0.428E-01
DAV:  38    -0.343635141643E+03    0.10120E-03   -0.10235E-05 19424   0.169E-02    0.181E-01
DAV:  39    -0.343635314247E+03   -0.17260E-03   -0.19838E-05 22560   0.156E-02    0.617E-02
DAV:  40    -0.343635389710E+03   -0.75463E-04   -0.13084E-05 19896   0.140E-02    0.115E-01
DAV:  41    -0.343635390165E+03   -0.45461E-06   -0.13630E-05 21496   0.152E-02
  17 F= -.34363539E+03 E0= -.34361133E+03  d E =-.308433E+00  mag=    17.0809
       N       E                     dE             d eps       ncg     rms          rms(c)
DAV:   1    -0.343636309204E+03   -0.91949E-03   -0.15347E+00 33696   0.514E+00    0.707E-01
DAV:   2    -0.343697788275E+03   -0.61479E-01   -0.18971E-01 34688   0.121E+00    0.662E+00
DAV:   3    -0.343623145187E+03    0.74643E-01   -0.48855E-02 36112   0.782E-01    0.227E+00
DAV:   4    -0.343645016546E+03   -0.21871E-01   -0.19189E-02 35664   0.272E-01    0.142E+00
DAV:   5    -0.343649546653E+03   -0.45301E-02   -0.13261E-02 35344   0.275E-01    0.642E-01
DAV:   6    -0.343651159502E+03   -0.16128E-02   -0.38934E-03 37736   0.183E-01    0.859E-01
DAV:   7    -0.343651056653E+03    0.10285E-03   -0.33293E-03 39584   0.165E-01    0.876E-01
DAV:   8    -0.343650169452E+03    0.88720E-03   -0.30547E-03 39240   0.157E-01    0.344E-01
DAV:   9    -0.343651307060E+03   -0.11376E-02   -0.30508E-03 38528   0.126E-01    0.883E-01
DAV:  10    -0.343651680209E+03   -0.37315E-03   -0.19400E-03 37448   0.122E-01    0.166E+00
DAV:  11    -0.343649678547E+03    0.20017E-02   -0.10749E-03 33840   0.106E-01    0.187E+00
DAV:  12    -0.343647620245E+03    0.20583E-02   -0.32553E-04 35512   0.650E-02    0.143E+00
DAV:  13    -0.343647961965E+03   -0.34172E-03   -0.21052E-04 36208   0.508E-02    0.744E-01
DAV:  14    -0.343649631574E+03   -0.16696E-02   -0.33859E-04 31720   0.607E-02    0.438E-01
DAV:  15    -0.343650273593E+03   -0.64202E-03   -0.14650E-04 30544   0.443E-02    0.278E-01
DAV:  16    -0.343650563825E+03   -0.29023E-03   -0.14453E-04 27960   0.386E-02    0.309E-01
DAV:  17    -0.343650722566E+03   -0.15874E-03   -0.15190E-04 26640   0.439E-02    0.612E-01
DAV:  18    -0.343650443950E+03    0.27862E-03   -0.12753E-04 29496   0.435E-02    0.675E-01
DAV:  19    -0.343650188352E+03    0.25560E-03   -0.16781E-04 24224   0.357E-02    0.524E-01
DAV:  20    -0.343650242902E+03   -0.54550E-04   -0.92210E-05 24224   0.315E-02    0.287E-01
DAV:  21    -0.343650478695E+03   -0.23579E-03   -0.34612E-05 24152   0.211E-02    0.877E-02
DAV:  22    -0.343650633437E+03   -0.15474E-03   -0.23047E-05 22352   0.175E-02    0.477E-02
DAV:  23    -0.343650667492E+03   -0.34055E-04   -0.10880E-05 19568   0.125E-02    0.817E-02
DAV:  24    -0.343650659966E+03    0.75255E-05   -0.29834E-06 17400   0.710E-03
  18 F= -.34365066E+03 E0= -.34362662E+03  d E =-.152698E-01  mag=    17.0809
       N       E                     dE             d eps       ncg     rms          rms(c)
DAV:   1    -0.343641651899E+03    0.90156E-02   -0.19285E+00 33880   0.530E+00    0.158E+00
DAV:   2    -0.343999889881E+03   -0.35824E+00   -0.25828E-01 39848   0.187E+00    0.169E+01
DAV:   3    -0.343541594281E+03    0.45830E+00   -0.17895E-01 36608   0.169E+00    0.202E+00
DAV:   4    -0.343664083750E+03   -0.12249E+00   -0.12386E-01 33320   0.757E-01    0.346E+00
DAV:   5    -0.343654220329E+03    0.98634E-02   -0.57205E-02 38168   0.528E-01    0.306E+00
DAV:   6    -0.343659333040E+03   -0.51127E-02   -0.15575E-02 36120   0.377E-01    0.389E+00
DAV:   7    -0.343649257597E+03    0.10075E-01   -0.46644E-03 35288   0.211E-01    0.383E+00
DAV:   8    -0.343646234505E+03    0.30231E-02   -0.47870E-04 35040   0.695E-02    0.371E+00
DAV:   9    -0.343645844831E+03    0.38967E-03   -0.14702E-04 28096   0.338E-02    0.356E+00
DAV:  10    -0.343645721490E+03    0.12334E-03   -0.46711E-04 38216   0.677E-02    0.312E+00
DAV:  11    -0.343646946669E+03   -0.12252E-02   -0.37852E-03 40232   0.175E-01    0.179E+00
DAV:  12    -0.343652849619E+03   -0.59030E-02   -0.43175E-03 36128   0.212E-01    0.582E-01
DAV:  13    -0.343658320070E+03   -0.54705E-02   -0.38471E-03 33536   0.202E-01    0.120E+00
DAV:  14    -0.343656630531E+03    0.16895E-02   -0.24619E-03 37480   0.153E-01    0.691E-01
DAV:  15    -0.343656870896E+03   -0.24036E-03   -0.84927E-04 39168   0.915E-02    0.463E-01
DAV:  16    -0.343657280742E+03   -0.40985E-03   -0.72157E-04 38128   0.766E-02    0.592E-01
DAV:  17    -0.343657043418E+03    0.23732E-03   -0.37568E-04 32528   0.551E-02    0.564E-01
DAV:  18    -0.343657023444E+03    0.19974E-04   -0.14743E-04 27968   0.387E-02    0.558E-01
DAV:  19    -0.343657034282E+03   -0.10838E-04   -0.46072E-04 26816   0.480E-02    0.528E-01
DAV:  20    -0.343656976943E+03    0.57339E-04   -0.29445E-04 33632   0.570E-02    0.239E-01
DAV:  21    -0.343657234720E+03   -0.25778E-03   -0.18703E-04 31824   0.465E-02    0.254E-01
DAV:  22    -0.343657364091E+03   -0.12937E-03   -0.11762E-04 29416   0.387E-02    0.394E-01
DAV:  23    -0.343657201513E+03    0.16258E-03   -0.31484E-05 24280   0.205E-02    0.378E-01
DAV:  24    -0.343657128817E+03    0.72696E-04   -0.12632E-05 21112   0.136E-02    0.205E-01
DAV:  25    -0.343657239745E+03   -0.11093E-03   -0.23284E-05 23128   0.148E-02    0.379E-02
DAV:  26    -0.343657322360E+03   -0.82616E-04   -0.21498E-05 21432   0.157E-02    0.118E-01
DAV:  27    -0.343657314152E+03    0.82084E-05   -0.10048E-05 19056   0.130E-02
  19 F= -.34365731E+03 E0= -.34363327E+03  d E =-.665419E-02  mag=    17.0905
       N       E                     dE             d eps       ncg     rms          rms(c)
DAV:   1    -0.343646636686E+03    0.10686E-01   -0.12624E+00 33336   0.389E+00    0.119E+00
DAV:   2    -0.343833800031E+03   -0.18716E+00   -0.12693E-01 39792   0.134E+00    0.151E+01
DAV:   3    -0.343558938572E+03    0.27486E+00   -0.85986E-02 36080   0.127E+00    0.134E+00
DAV:   4    -0.343659248863E+03   -0.10031E+00   -0.68004E-02 32600   0.610E-01    0.263E+00
DAV:   5    -0.343652764651E+03    0.64842E-02   -0.35135E-02 36368   0.415E-01    0.204E+00
DAV:   6    -0.343654616710E+03   -0.18521E-02   -0.68866E-03 34880   0.242E-01    0.249E+00
DAV:   7    -0.343650486292E+03    0.41304E-02   -0.20248E-03 34744   0.135E-01    0.234E+00
DAV:   8    -0.343649814387E+03    0.67190E-03   -0.22198E-04 33952   0.446E-02    0.223E+00
DAV:   9    -0.343649880998E+03   -0.66611E-04   -0.87462E-05 25496   0.274E-02    0.208E+00
DAV:  10    -0.343650108820E+03   -0.22782E-03   -0.38726E-04 38304   0.633E-02    0.168E+00
DAV:  11    -0.343651435048E+03   -0.13262E-02   -0.18592E-03 39264   0.129E-01    0.855E-01
DAV:  12    -0.343653790804E+03   -0.23558E-02   -0.19059E-03 36400   0.152E-01    0.566E-01
DAV:  13    -0.343654985191E+03   -0.11944E-02   -0.14474E-03 34144   0.132E-01    0.788E-01
DAV:  14    -0.343654128411E+03    0.85678E-03   -0.89864E-04 39200   0.104E-01    0.249E-01
DAV:  15    -0.343654639505E+03   -0.51109E-03   -0.70388E-04 35728   0.755E-02    0.394E-01
DAV:  16    -0.343654592777E+03    0.46728E-04   -0.63051E-04 34912   0.671E-02    0.435E-01
DAV:  17    -0.343654468976E+03    0.12380E-03   -0.39604E-04 30968   0.495E-02    0.377E-01
DAV:  18    -0.343654421162E+03    0.47814E-04   -0.13566E-04 25736   0.377E-02    0.183E-01
DAV:  19    -0.343654533490E+03   -0.11233E-03   -0.62604E-05 23144   0.256E-02    0.132E-01
DAV:  20    -0.343654564715E+03   -0.31225E-04   -0.73667E-05 21568   0.247E-02    0.951E-02
DAV:  21    -0.343654588542E+03   -0.23827E-04   -0.25536E-05 19832   0.181E-02    0.172E-01
DAV:  22    -0.343654569627E+03    0.18915E-04   -0.99487E-06 18560   0.110E-02    0.201E-01
DAV:  23    -0.343654542765E+03    0.26863E-04   -0.59018E-06 17872   0.852E-03    0.155E-01
DAV:  24    -0.343654549428E+03   -0.66633E-05   -0.38345E-06 17176   0.640E-03
  20 F= -.34365455E+03 E0= -.34363049E+03  d E =0.276472E-02  mag=    17.1017
       N       E                     dE             d eps       ncg     rms          rms(c)
DAV:   1    -0.343645435082E+03    0.91077E-02   -0.12369E+00 31824   0.334E+00    0.274E-01
DAV:   2    -0.343652103399E+03   -0.66683E-02   -0.48551E-02 31248   0.589E-01    0.186E+00
DAV:   3    -0.343647511172E+03    0.45922E-02   -0.37032E-03 36080   0.241E-01    0.515E-01
DAV:   4    -0.343650249528E+03   -0.27384E-02   -0.26668E-03 34752   0.149E-01    0.576E-01
DAV:   5    -0.343649878276E+03    0.37125E-03   -0.22660E-03 38160   0.112E-01    0.429E-01
DAV:   6    -0.343649777882E+03    0.10039E-03   -0.11307E-03 35256   0.652E-02    0.377E-01
DAV:   7    -0.343649878718E+03   -0.10084E-03   -0.56032E-04 38720   0.704E-02    0.383E-01
DAV:   8    -0.343649809017E+03    0.69701E-04   -0.73187E-04 38904   0.766E-02    0.339E-01
DAV:   9    -0.343649927270E+03   -0.11825E-03   -0.43578E-04 36304   0.668E-02    0.585E-01
DAV:  10    -0.343649651564E+03    0.27571E-03   -0.21608E-04 34736   0.509E-02    0.618E-01
DAV:  11    -0.343649479780E+03    0.17178E-03   -0.57663E-05 22912   0.256E-02    0.585E-01
DAV:  12    -0.343649422302E+03    0.57478E-04   -0.20426E-05 19528   0.190E-02    0.440E-01
DAV:  13    -0.343649536203E+03   -0.11390E-03   -0.39493E-05 20600   0.220E-02    0.268E-01
DAV:  14    -0.343649712675E+03   -0.17647E-03   -0.56985E-05 23768   0.265E-02    0.196E-01
DAV:  15    -0.343649790064E+03   -0.77390E-04   -0.32654E-05 18928   0.222E-02    0.235E-01
DAV:  16    -0.343649807767E+03   -0.17703E-04   -0.14173E-05 17920   0.164E-02    0.352E-01
DAV:  17    -0.343649744470E+03    0.63297E-04   -0.56895E-05 19152   0.172E-02    0.397E-01
DAV:  18    -0.343649665872E+03    0.78598E-04   -0.51893E-05 18536   0.176E-02    0.339E-01
DAV:  19    -0.343649657056E+03    0.88166E-05   -0.15583E-05 17528   0.131E-02
  21 F= -.34364966E+03 E0= -.34362565E+03  d E =0.489237E-02  mag=    17.1063
       N       E                     dE             d eps       ncg     rms          rms(c)
DAV:   1    -0.343643958124E+03    0.57077E-02   -0.12700E+00 31872   0.344E+00    0.393E-01
DAV:   2    -0.343665740110E+03   -0.21782E-01   -0.51272E-02 35080   0.687E-01    0.468E+00
DAV:   3    -0.343634295668E+03    0.31444E-01   -0.11592E-02 34928   0.447E-01    0.176E+00
DAV:   4    -0.343643768569E+03   -0.94729E-02   -0.41583E-03 34296   0.141E-01    0.730E-01
DAV:   5    -0.343647765630E+03   -0.39971E-02   -0.41458E-03 33336   0.151E-01    0.482E-01
DAV:   6    -0.343648759950E+03   -0.99432E-03   -0.11094E-03 34512   0.119E-01    0.703E-01
DAV:   7    -0.343648129265E+03    0.63068E-03   -0.62052E-04 38024   0.896E-02    0.373E-01
DAV:   8    -0.343648308171E+03   -0.17891E-03   -0.31122E-04 37328   0.572E-02    0.164E-01
DAV:   9    -0.343648826742E+03   -0.51857E-03   -0.43084E-04 36584   0.679E-02    0.736E-01
DAV:  10    -0.343648630589E+03    0.19615E-03   -0.49044E-04 34744   0.719E-02    0.109E+00
DAV:  11    -0.343647896538E+03    0.73405E-03   -0.22226E-04 31344   0.529E-02    0.116E+00
DAV:  12    -0.343647239203E+03    0.65734E-03   -0.12558E-04 28064   0.393E-02    0.908E-01
DAV:  13    -0.343647457231E+03   -0.21803E-03   -0.61109E-05 24776   0.264E-02    0.644E-01
DAV:  14    -0.343647852904E+03   -0.39567E-03   -0.50382E-05 25064   0.269E-02    0.432E-01
DAV:  15    -0.343648204245E+03   -0.35134E-03   -0.49260E-05 24800   0.233E-02    0.443E-01
DAV:  16    -0.343648248355E+03   -0.44110E-04   -0.93740E-06 18248   0.116E-02    0.443E-01
DAV:  17    -0.343648244487E+03    0.38681E-05   -0.83889E-05 19480   0.181E-02
  22 F= -.34364824E+03 E0= -.34362437E+03  d E =0.141257E-02  mag=    17.1048
       N       E                     dE             d eps       ncg     rms          rms(c)
DAV:   1    -0.343613159885E+03    0.35088E-01   -0.92147E+00 32544   0.962E+00    0.199E+00
DAV:   2    -0.344176551559E+03   -0.56339E+00   -0.50612E-01 39184   0.258E+00    0.177E+01
DAV:   3    -0.343538090533E+03    0.63846E+00   -0.32385E-01 37288   0.213E+00    0.322E+00
DAV:   4    -0.343653450181E+03   -0.11536E+00   -0.15372E-01 33688   0.802E-01    0.423E+00
DAV:   5    -0.343628983414E+03    0.24467E-01   -0.29967E-02 36688   0.470E-01    0.139E+00
DAV:   6    -0.343660176431E+03   -0.31193E-01   -0.40326E-02 38824   0.528E-01    0.460E+00
DAV:   7    -0.343649521356E+03    0.10655E-01   -0.28129E-02 38128   0.506E-01    0.498E+00
DAV:   8    -0.343638215101E+03    0.11306E-01   -0.43067E-03 31192   0.224E-01    0.511E+00
[...]
DAV:  23    -0.343696440490E+03   -0.38215E-05   -0.18578E-06 17016   0.527E-03
  48 F= -.34369644E+03 E0= -.34367192E+03  d E =0.289022E-02  mag=    17.1245
       N       E                     dE             d eps       ncg     rms          rms(c)
DAV:   1    -0.343690692031E+03    0.57446E-02   -0.66050E-01 32552   0.287E+00    0.205E-01
DAV:   2    -0.343694998453E+03   -0.43064E-02   -0.34593E-02 30400   0.491E-01    0.134E+00
DAV:   3    -0.343692632102E+03    0.23664E-02   -0.13805E-03 36072   0.153E-01    0.201E-01
DAV:   4    -0.343694246031E+03   -0.16139E-02   -0.13962E-03 36864   0.984E-02    0.484E-01
DAV:   5    -0.343693991574E+03    0.25446E-03   -0.14173E-03 38640   0.827E-02    0.269E-01
DAV:   6    -0.343694133234E+03   -0.14166E-03   -0.49088E-04 33368   0.531E-02    0.400E-01
DAV:   7    -0.343693988336E+03    0.14490E-03   -0.30709E-04 31048   0.437E-02    0.281E-01
DAV:   8    -0.343693977517E+03    0.10819E-04   -0.15595E-04 24976   0.374E-02    0.152E-01
DAV:   9    -0.343694096499E+03   -0.11898E-03   -0.23039E-04 25992   0.396E-02    0.219E-01
DAV:  10    -0.343694164219E+03   -0.67720E-04   -0.21276E-04 31984   0.418E-02    0.456E-01
DAV:  11    -0.343694002969E+03    0.16125E-03   -0.98950E-05 28424   0.371E-02    0.533E-01
DAV:  12    -0.343693749205E+03    0.25376E-03   -0.26854E-05 20800   0.242E-02    0.289E-01
DAV:  13    -0.343693917556E+03   -0.16835E-03   -0.23157E-05 19592   0.174E-02    0.123E-01
DAV:  14    -0.343694038307E+03   -0.12075E-03   -0.27365E-05 22056   0.200E-02    0.788E-02
DAV:  15    -0.343694080550E+03   -0.42243E-04   -0.20096E-05 20968   0.172E-02    0.144E-01
DAV:  16    -0.343694059056E+03    0.21494E-04   -0.81469E-06 17400   0.117E-02    0.140E-01
DAV:  17    -0.343694051220E+03    0.78364E-05   -0.11008E-05 16296   0.100E-02
  49 F= -.34369405E+03 E0= -.34366960E+03  d E =0.238927E-02  mag=    17.1243
       N       E                     dE             d eps       ncg     rms          rms(c)
DAV:   1    -0.343690468689E+03    0.35904E-02   -0.57406E-01 32344   0.261E+00    0.314E-01
DAV:   2    -0.343704560701E+03   -0.14092E-01   -0.29115E-02 34248   0.533E-01    0.446E+00
DAV:   3    -0.343679268185E+03    0.25293E-01   -0.73579E-03 34576   0.373E-01    0.144E+00
DAV:   4    -0.343689353618E+03   -0.10085E-01   -0.22592E-03 33288   0.132E-01    0.471E-01
DAV:   5    -0.343692786663E+03   -0.34330E-02   -0.28135E-03 32592   0.128E-01    0.482E-01
DAV:   6    -0.343693342689E+03   -0.55603E-03   -0.15423E-03 34664   0.982E-02    0.735E-01
DAV:   7    -0.343692781170E+03    0.56152E-03   -0.71771E-04 37816   0.729E-02    0.500E-01
DAV:   8    -0.343692789950E+03   -0.87800E-05   -0.36449E-04 31472   0.499E-02    0.290E-01
DAV:   9    -0.343693001689E+03   -0.21174E-03   -0.18155E-04 31576   0.441E-02    0.178E-01
DAV:  10    -0.343693265794E+03   -0.26410E-03   -0.20545E-04 32544   0.464E-02    0.596E-01
DAV:  11    -0.343693060538E+03    0.20526E-03   -0.16131E-04 29416   0.467E-02    0.789E-01
DAV:  12    -0.343692620651E+03    0.43989E-03   -0.64134E-05 25680   0.305E-02    0.740E-01
DAV:  13    -0.343692455918E+03    0.16473E-03   -0.42013E-05 22280   0.248E-02    0.501E-01
DAV:  14    -0.343692683218E+03   -0.22730E-03   -0.50806E-05 22800   0.258E-02    0.227E-01
DAV:  15    -0.343692971159E+03   -0.28794E-03   -0.67521E-05 24640   0.275E-02    0.119E-01
DAV:  16    -0.343693065786E+03   -0.94627E-04   -0.26446E-05 20288   0.211E-02    0.961E-02
DAV:  17    -0.343693082348E+03   -0.16562E-04   -0.25897E-05 17840   0.138E-02    0.108E-01
DAV:  18    -0.343693088251E+03   -0.59033E-05   -0.13394E-05 16976   0.108E-02
  50 F= -.34369309E+03 E0= -.34366859E+03  d E =0.962968E-03  mag=    17.1278
       N       E                     dE             d eps       ncg     rms          rms(c)
DAV:   1    -0.343692181739E+03    0.90061E-03   -0.40099E-01 32328   0.221E+00    0.171E-01
DAV:   2    -0.343696067141E+03   -0.38854E-02   -0.20261E-02 31640   0.396E-01    0.180E+00
DAV:   3    -0.343691794981E+03    0.42722E-02   -0.17927E-03 34032   0.168E-01    0.718E-01
DAV:   4    -0.343693568393E+03   -0.17734E-02   -0.19290E-03 37512   0.920E-02    0.547E-01
DAV:   5    -0.343693976356E+03   -0.40796E-03   -0.24833E-03 34352   0.945E-02    0.336E-01
DAV:   6    -0.343694223424E+03   -0.24707E-03   -0.40869E-04 33472   0.649E-02    0.530E-01
DAV:   7    -0.343694013600E+03    0.20982E-03   -0.15262E-04 30248   0.407E-02    0.553E-01
DAV:   8    -0.343693856338E+03    0.15726E-03   -0.33882E-05 20568   0.210E-02    0.496E-01
DAV:   9    -0.343693863589E+03   -0.72519E-05   -0.81819E-06 17704   0.983E-03
  51 F= -.34369386E+03 E0= -.34366929E+03  d E =-.775338E-03  mag=    17.1295
       N       E                     dE             d eps       ncg     rms          rms(c)
DAV:   1    -0.343694233726E+03   -0.37739E-03   -0.31001E-01 32568   0.184E+00    0.508E-01
DAV:   2    -0.343727292102E+03   -0.33058E-01   -0.25399E-02 40096   0.604E-01    0.535E+00
DAV:   3    -0.343679794777E+03    0.47497E-01   -0.15766E-02 36936   0.553E-01    0.213E+00
DAV:   4    -0.343689496801E+03   -0.97020E-02   -0.19946E-03 32872   0.125E-01    0.796E-01
DAV:   5    -0.343694665220E+03   -0.51684E-02   -0.17640E-03 33400   0.134E-01    0.336E-01
DAV:   6    -0.343696193646E+03   -0.15284E-02   -0.14501E-03 33824   0.103E-01    0.617E-01
DAV:   7    -0.343695901240E+03    0.29241E-03   -0.11256E-03 34216   0.793E-02    0.606E-01
DAV:   8    -0.343695638541E+03    0.26270E-03   -0.36519E-04 36688   0.545E-02    0.238E-01
DAV:   9    -0.343695889222E+03   -0.25068E-03   -0.15836E-04 29864   0.424E-02    0.127E-01
DAV:  10    -0.343696094685E+03   -0.20546E-03   -0.17716E-04 30248   0.451E-02    0.432E-01
DAV:  11    -0.343695970870E+03    0.12381E-03   -0.17703E-04 30736   0.476E-02    0.563E-01
DAV:  12    -0.343695734880E+03    0.23599E-03   -0.81884E-05 28264   0.358E-02    0.522E-01
DAV:  13    -0.343695676373E+03    0.58507E-04   -0.75224E-05 22600   0.252E-02    0.428E-01
DAV:  14    -0.343695745232E+03   -0.68860E-04   -0.32362E-05 18744   0.177E-02    0.346E-01
DAV:  15    -0.343695832869E+03   -0.87637E-04   -0.14915E-05 18096   0.137E-02    0.343E-01
DAV:  16    -0.343695870358E+03   -0.37488E-04   -0.46432E-06 16768   0.870E-03    0.389E-01
DAV:  17    -0.343695843648E+03    0.26709E-04   -0.45857E-06 16848   0.621E-03    0.418E-01
DAV:  18    -0.343695796648E+03    0.47000E-04   -0.64516E-06 17072   0.774E-03    0.387E-01
DAV:  19    -0.343695811879E+03   -0.15231E-04   -0.13609E-05 17120   0.833E-03    0.363E-01
DAV:  20    -0.343695824627E+03   -0.12748E-04   -0.11184E-05 18016   0.105E-02    0.314E-01
DAV:  21    -0.343695848432E+03   -0.23805E-04   -0.66056E-06 17744   0.806E-03    0.237E-01
DAV:  22    -0.343695898536E+03   -0.50104E-04   -0.39443E-06 17152   0.747E-03    0.182E-01
DAV:  23    -0.343695931990E+03   -0.33455E-04   -0.34064E-06 17224   0.711E-03    0.127E-01
DAV:  24    -0.343695958618E+03   -0.26627E-04   -0.26845E-06 17224   0.569E-03    0.852E-02
DAV:  25    -0.343695974237E+03   -0.15620E-04   -0.16515E-06 16728   0.524E-03    0.376E-02
DAV:  26    -0.343695985213E+03   -0.10975E-04   -0.15060E-06 16864   0.464E-03    0.197E-02
DAV:  27    -0.343695988033E+03   -0.28202E-05   -0.51237E-07 15688   0.276E-03
  52 F= -.34369599E+03 E0= -.34367147E+03  d E =-.212444E-02  mag=    17.1274
       N       E                     dE             d eps       ncg     rms          rms(c)
DAV:   1    -0.343696580730E+03   -0.59552E-03   -0.11610E+00 31904   0.305E+00    0.418E-01
DAV:   2    -0.343725668680E+03   -0.29088E-01   -0.42097E-02 35880   0.666E-01    0.596E+00
DAV:   3    -0.343677233090E+03    0.48436E-01   -0.14362E-02 34368   0.506E-01    0.234E+00
DAV:   4    -0.343691830078E+03   -0.14597E-01   -0.27192E-03 33056   0.135E-01    0.101E+00
DAV:   5    -0.343698097598E+03   -0.62675E-02   -0.37016E-03 33824   0.142E-01    0.457E-01
DAV:   6    -0.343699993035E+03   -0.18954E-02   -0.15359E-03 33752   0.107E-01    0.458E-01
DAV:   7    -0.343700084109E+03   -0.91074E-04   -0.10753E-03 37816   0.907E-02    0.381E-01
DAV:   8    -0.343699958102E+03    0.12601E-03   -0.40553E-04 37456   0.597E-02    0.185E-01
DAV:   9    -0.343700096817E+03   -0.13871E-03   -0.28750E-04 32312   0.489E-02    0.391E-01
DAV:  10    -0.343700454912E+03   -0.35810E-03   -0.33890E-04 37304   0.593E-02    0.106E+00
DAV:  11    -0.343699800534E+03    0.65438E-03   -0.41078E-04 32584   0.679E-02    0.133E+00
DAV:  12    -0.343698617842E+03    0.11827E-02   -0.23856E-04 33048   0.521E-02    0.112E+00
DAV:  13    -0.343698595690E+03    0.22151E-04   -0.80176E-05 24976   0.331E-02    0.783E-01
DAV:  14    -0.343699161745E+03   -0.56606E-03   -0.66060E-05 26008   0.275E-02    0.557E-01
DAV:  15    -0.343699560541E+03   -0.39880E-03   -0.30018E-05 23192   0.193E-02    0.458E-01
DAV:  16    -0.343699736131E+03   -0.17559E-03   -0.84747E-06 18872   0.113E-02    0.431E-01
DAV:  17    -0.343699771117E+03   -0.34985E-04   -0.32638E-06 17472   0.767E-03    0.370E-01
DAV:  18    -0.343699825564E+03   -0.54448E-04   -0.56755E-06 17544   0.919E-03    0.334E-01
DAV:  19    -0.343699866312E+03   -0.40748E-04   -0.35138E-06 16904   0.658E-03    0.318E-01
DAV:  20    -0.343699896703E+03   -0.30390E-04   -0.17320E-05 16976   0.121E-02    0.359E-01
DAV:  21    -0.343700029370E+03   -0.13267E-03   -0.27579E-05 23576   0.233E-02    0.663E-01
DAV:  22    -0.343699873982E+03    0.15539E-03   -0.60574E-05 28504   0.243E-02    0.900E-01
DAV:  23    -0.343699393728E+03    0.48025E-03   -0.28609E-05 23592   0.210E-02    0.838E-01
DAV:  24    -0.343699270060E+03    0.12367E-03   -0.63453E-06 19176   0.110E-02    0.668E-01
DAV:  25    -0.343699460226E+03   -0.19017E-03   -0.10975E-05 19648   0.106E-02    0.541E-01
DAV:  26    -0.343699618235E+03   -0.15801E-03   -0.96460E-06 18816   0.111E-02    0.408E-01
DAV:  27    -0.343699767516E+03   -0.14928E-03   -0.89592E-06 18872   0.102E-02    0.333E-01
DAV:  28    -0.343699840217E+03   -0.72701E-04   -0.46152E-06 17552   0.867E-03    0.236E-01
DAV:  29    -0.343699921338E+03   -0.81121E-04   -0.49179E-06 17424   0.854E-03    0.208E-01
DAV:  30    -0.343699946832E+03   -0.25494E-04   -0.16360E-06 16712   0.520E-03    0.176E-01
DAV:  31    -0.343699967791E+03   -0.20959E-04   -0.10131E-06 16280   0.405E-03    0.174E-01
DAV:  32    -0.343699971009E+03   -0.32178E-05   -0.45935E-07 15400   0.243E-03
  53 F= -.34369997E+03 E0= -.34367534E+03  d E =-.398298E-02  mag=    17.1275
       N       E                     dE             d eps       ncg     rms          rms(c)
DAV:   1    -0.343682076818E+03    0.17891E-01   -0.38795E+00 32976   0.680E+00    0.132E+00
DAV:   2    -0.343812448415E+03   -0.13037E+00   -0.24784E-01 38408   0.170E+00    0.636E+00
DAV:   3    -0.343692442811E+03    0.12001E+00   -0.82648E-02 39248   0.120E+00    0.385E+00
DAV:   4    -0.343689626646E+03    0.28162E-02   -0.25336E-02 35976   0.360E-01    0.212E+00
DAV:   5    -0.343696599655E+03   -0.69730E-02   -0.88411E-03 36360   0.220E-01    0.983E-01
DAV:   6    -0.343701717128E+03   -0.51175E-02   -0.78561E-03 35248   0.220E-01    0.994E-01
DAV:   7    -0.343702467668E+03   -0.75054E-03   -0.55050E-03 38672   0.212E-01    0.101E+00
DAV:   8    -0.343703583966E+03   -0.11163E-02   -0.33247E-03 39144   0.180E-01    0.200E+00
DAV:   9    -0.343702852304E+03    0.73166E-03   -0.34285E-03 35408   0.171E-01    0.273E+00
DAV:  10    -0.343697205322E+03    0.56470E-02   -0.30832E-03 36544   0.164E-01    0.218E+00
DAV:  11    -0.343696871587E+03    0.33373E-03   -0.14265E-03 39128   0.124E-01    0.125E+00
DAV:  12    -0.343699613046E+03   -0.27415E-02   -0.84752E-04 34392   0.107E-01    0.696E-01
DAV:  13    -0.343701021142E+03   -0.14081E-02   -0.80912E-04 35224   0.847E-02    0.548E-01
DAV:  14    -0.343701402260E+03   -0.38112E-03   -0.44521E-04 32520   0.547E-02    0.554E-01
DAV:  15    -0.343701417565E+03   -0.15305E-04   -0.66201E-05 22520   0.249E-02    0.563E-01
DAV:  16    -0.343701397983E+03    0.19582E-04   -0.85840E-06 17616   0.118E-02    0.559E-01
DAV:  17    -0.343701389723E+03    0.82596E-05   -0.17520E-06 16752   0.478E-03
  54 F= -.34370139E+03 E0= -.34367701E+03  d E =-.141871E-02  mag=    17.1126
       N       E                     dE             d eps       ncg     rms          rms(c)
DAV:   1    -0.343693710692E+03    0.76873E-02   -0.30588E+00 32432   0.582E+00    0.194E+00
DAV:   2    -0.344205229584E+03   -0.51152E+00   -0.22848E-01 39592   0.214E+00    0.177E+01
DAV:   3    -0.343590780880E+03    0.61445E+00   -0.18771E-01 37392   0.201E+00    0.294E+00
DAV:   4    -0.343708154257E+03   -0.11737E+00   -0.91200E-02 32968   0.724E-01    0.384E+00
DAV:   5    -0.343687873711E+03    0.20281E-01   -0.27764E-02 37552   0.437E-01    0.126E+00
DAV:   6    -0.343722833040E+03   -0.34959E-01   -0.56413E-02 39328   0.483E-01    0.501E+00
DAV:   7    -0.343699418776E+03    0.23414E-01   -0.30398E-02 36232   0.475E-01    0.437E+00
DAV:   8    -0.343694534253E+03    0.48845E-02   -0.47714E-03 37088   0.210E-01    0.415E+00
DAV:   9    -0.343692601670E+03    0.19326E-02   -0.13681E-03 37464   0.121E-01    0.365E+00
DAV:  10    -0.343693750069E+03   -0.11484E-02   -0.13138E-03 40360   0.113E-01    0.300E+00
DAV:  11    -0.343696412053E+03   -0.26620E-02   -0.31477E-03 40224   0.167E-01    0.140E+00
DAV:  12    -0.343703544404E+03   -0.71324E-02   -0.31297E-03 35144   0.191E-01    0.605E-01
DAV:  13    -0.343707093563E+03   -0.35492E-02   -0.27896E-03 33072   0.177E-01    0.939E-01
DAV:  14    -0.343705841655E+03    0.12519E-02   -0.19243E-03 39400   0.135E-01    0.309E-01
DAV:  15    -0.343706498704E+03   -0.65705E-03   -0.12895E-03 37712   0.972E-02    0.536E-01
DAV:  16    -0.343706435962E+03    0.62742E-04   -0.14809E-03 36968   0.938E-02    0.659E-01
DAV:  17    -0.343706184157E+03    0.25181E-03   -0.78067E-04 37912   0.723E-02    0.637E-01
DAV:  18    -0.343705993193E+03    0.19096E-03   -0.27320E-04 31416   0.522E-02    0.456E-01
DAV:  19    -0.343706159484E+03   -0.16629E-03   -0.73903E-05 24128   0.273E-02    0.465E-01
DAV:  20    -0.343706156803E+03    0.26811E-05   -0.47835E-05 20888   0.219E-02
  55 F= -.34370616E+03 E0= -.34368152E+03  d E =-.476708E-02  mag=    17.1235
       N       E                     dE             d eps       ncg     rms          rms(c)
DAV:   1    -0.343699511252E+03    0.66482E-02   -0.95910E-01 31976   0.318E+00    0.712E-01
DAV:   2    -0.343755500306E+03   -0.55989E-01   -0.57903E-02 39528   0.901E-01    0.555E+00
DAV:   3    -0.343689201046E+03    0.66299E-01   -0.25239E-02 37736   0.714E-01    0.259E+00
DAV:   4    -0.343696151060E+03   -0.69500E-02   -0.61539E-03 33496   0.172E-01    0.122E+00
DAV:   5    -0.343701642970E+03   -0.54919E-02   -0.33649E-03 35000   0.153E-01    0.597E-01
DAV:   6    -0.343704567881E+03   -0.29249E-02   -0.21642E-03 33232   0.154E-01    0.108E+00
DAV:   7    -0.343703539661E+03    0.10282E-02   -0.78850E-04 33256   0.996E-02    0.103E+00
DAV:   8    -0.343702926841E+03    0.61282E-03   -0.26977E-04 37008   0.543E-02    0.752E-01
DAV:   9    -0.343703301394E+03   -0.37455E-03   -0.39683E-04 32456   0.550E-02    0.510E-01
DAV:  10    -0.343703712323E+03   -0.41093E-03   -0.92997E-04 37952   0.791E-02    0.293E-01
DAV:  11    -0.343704059290E+03   -0.34697E-03   -0.49636E-04 35328   0.758E-02    0.392E-01
DAV:  12    -0.343703955723E+03    0.10357E-03   -0.27576E-04 34392   0.581E-02    0.324E-01
DAV:  13    -0.343703912018E+03    0.43705E-04   -0.19549E-04 25288   0.416E-02    0.178E-01
DAV:  14    -0.343703987181E+03   -0.75163E-04   -0.94481E-05 25712   0.375E-02    0.149E-01
DAV:  15    -0.343704016698E+03   -0.29517E-04   -0.10029E-04 24688   0.316E-02    0.172E-01
DAV:  16    -0.343703990843E+03    0.25855E-04   -0.78471E-05 23376   0.322E-02    0.126E-01
DAV:  17    -0.343704058860E+03   -0.68017E-04   -0.17292E-04 22920   0.290E-02    0.279E-01
DAV:  18    -0.343703971020E+03    0.87840E-04   -0.13864E-04 24160   0.300E-02    0.305E-01
DAV:  19    -0.343703943443E+03    0.27577E-04   -0.36136E-05 19504   0.183E-02    0.337E-01
DAV:  20    -0.343703923910E+03    0.19533E-04   -0.42272E-05 20584   0.212E-02    0.398E-01
DAV:  21    -0.343703845196E+03    0.78713E-04   -0.99698E-06 18896   0.124E-02    0.356E-01
DAV:  22    -0.343703850788E+03   -0.55914E-05   -0.11585E-05 19264   0.106E-02
  56 F= -.34370385E+03 E0= -.34367936E+03  d E =0.230602E-02  mag=    17.1254
       N       E                     dE             d eps       ncg     rms          rms(c)
DAV:   1    -0.343702455167E+03    0.13900E-02   -0.18113E-01 33168   0.175E+00    0.193E-01
DAV:   2    -0.343706848638E+03   -0.43935E-02   -0.18293E-02 33168   0.362E-01    0.212E+00
DAV:   3    -0.343700743275E+03    0.61054E-02   -0.38357E-03 34336   0.218E-01    0.483E-01
DAV:   4    -0.343703708464E+03   -0.29652E-02   -0.15799E-03 34464   0.104E-01    0.449E-01
DAV:   5    -0.343704091413E+03   -0.38295E-03   -0.18139E-03 34296   0.905E-02    0.348E-01
DAV:   6    -0.343704078826E+03    0.12587E-04   -0.40383E-04 35632   0.575E-02    0.413E-01
DAV:   7    -0.343703957101E+03    0.12172E-03   -0.17921E-04 30688   0.439E-02    0.354E-01
DAV:   8    -0.343703903706E+03    0.53396E-04   -0.11240E-04 24808   0.336E-02    0.192E-01
DAV:   9    -0.343704001707E+03   -0.98001E-04   -0.13806E-04 24416   0.316E-02    0.118E-01
DAV:  10    -0.343704187067E+03   -0.18536E-03   -0.20468E-04 30088   0.387E-02    0.500E-01
DAV:  11    -0.343704046276E+03    0.14079E-03   -0.18840E-04 29904   0.467E-02    0.673E-01
DAV:  12    -0.343703634859E+03    0.41142E-03   -0.78625E-05 26456   0.319E-02    0.487E-01
DAV:  13    -0.343703712758E+03   -0.77899E-04   -0.70734E-05 19776   0.229E-02    0.285E-01
DAV:  14    -0.343703906129E+03   -0.19337E-03   -0.35648E-05 21840   0.190E-02    0.184E-01
DAV:  15    -0.343703994681E+03   -0.88553E-04   -0.14559E-05 18056   0.140E-02    0.149E-01
DAV:  16    -0.343704022006E+03   -0.27325E-04   -0.38349E-06 17104   0.792E-03    0.139E-01
DAV:  17    -0.343704026195E+03   -0.41888E-05   -0.13566E-06 16312   0.487E-03
  57 F= -.34370403E+03 E0= -.34367948E+03  d E =-.175407E-03  mag=    17.1274
       N       E                     dE             d eps       ncg     rms          rms(c)
DAV:   1    -0.343703088060E+03    0.93395E-03   -0.40539E-01 32616   0.212E+00    0.187E-01
DAV:   2    -0.343708047924E+03   -0.49599E-02   -0.22957E-02 31904   0.400E-01    0.213E+00
DAV:   3    -0.343701683181E+03    0.63647E-02   -0.57705E-03 34544   0.221E-01    0.557E-01
DAV:   4    -0.343704529199E+03   -0.28460E-02   -0.11511E-03 33376   0.825E-02    0.671E-01
DAV:   5    -0.343704857758E+03   -0.32856E-03   -0.18091E-03 33696   0.963E-02    0.418E-01
DAV:   6    -0.343704857005E+03    0.75230E-06   -0.35589E-04 35648   0.597E-02    0.451E-01
DAV:   7    -0.343704734822E+03    0.12218E-03   -0.18794E-04 28256   0.435E-02    0.341E-01
DAV:   8    -0.343704760752E+03   -0.25930E-04   -0.12128E-04 25696   0.330E-02    0.183E-01
DAV:   9    -0.343704862804E+03   -0.10205E-03   -0.12041E-04 23800   0.311E-02    0.112E-01
DAV:  10    -0.343705003535E+03   -0.14073E-03   -0.14031E-04 28256   0.373E-02    0.418E-01
DAV:  11    -0.343704886120E+03    0.11741E-03   -0.10769E-04 28112   0.395E-02    0.534E-01
DAV:  12    -0.343704620790E+03    0.26533E-03   -0.39034E-05 22640   0.260E-02    0.377E-01
DAV:  13    -0.343704695662E+03   -0.74873E-04   -0.21775E-05 18400   0.167E-02    0.226E-01
DAV:  14    -0.343704820220E+03   -0.12456E-03   -0.17054E-05 19736   0.149E-02    0.143E-01
DAV:  15    -0.343704880588E+03   -0.60368E-04   -0.85974E-06 17272   0.119E-02    0.116E-01
DAV:  16    -0.343704901586E+03   -0.20997E-04   -0.44736E-06 16904   0.839E-03    0.126E-01
DAV:  17    -0.343704903713E+03   -0.21271E-05   -0.43201E-06 15672   0.582E-03
  58 F= -.34370490E+03 E0= -.34368033E+03  d E =-.877518E-03  mag=    17.1269
