       N       E                     dE             d eps       ncg     rms          rms(c)
DAV:   1     0.533548082058E+04    0.53355E+04   -0.22210E+05 28896   0.160E+03
DAV:   2     0.404007400155E+03   -0.49315E+04   -0.45742E+04 30400   0.465E+02
DAV:   3    -0.323734579982E+03   -0.72774E+03   -0.68417E+03 33904   0.184E+02
DAV:   4    -0.354338280043E+03   -0.30604E+02   -0.30012E+02 33280   0.385E+01
DAV:   5    -0.355315945805E+03   -0.97767E+00   -0.97582E+00 46048   0.646E+00    0.212E-01
DAV:   6    -0.355370088233E+03   -0.54142E-01   -0.18288E-01 38944   0.826E-01    0.861E-01
DAV:   7    -0.355369397623E+03    0.69061E-03   -0.19678E-02 44208   0.257E-01    0.479E-01
DAV:   8    -0.355369268156E+03    0.12947E-03   -0.44339E-03 38496   0.106E-01    0.211E-01
DAV:   9    -0.355369352935E+03   -0.84779E-04   -0.17388E-03 35280   0.650E-02    0.220E-01
DAV:  10    -0.355369284406E+03    0.68529E-04   -0.84939E-04 26816   0.465E-02    0.975E-02
DAV:  11    -0.355369303560E+03   -0.19153E-04   -0.22158E-04 24432   0.302E-02    0.933E-02
DAV:  12    -0.355369301434E+03    0.21253E-05   -0.18971E-04 21856   0.254E-02    0.619E-02
DAV:  13    -0.355369304596E+03   -0.31613E-05   -0.70524E-05 20560   0.185E-02
   1 F= -.35536930E+03 E0= -.35535356E+03  d E =-.355369E+03  mag=     8.0000
