       N       E                     dE             d eps       ncg     rms          ort
DAV:   1     0.180312786688E+04    0.18031E+04   -0.68408E+04 19520   0.170E+03
DAV:   2     0.694131745863E+02   -0.17337E+04   -0.16349E+04 19520   0.508E+02
DAV:   3    -0.196635799264E+03   -0.26605E+03   -0.26172E+03 19520   0.205E+02
DAV:   4    -0.207280446296E+03   -0.10645E+02   -0.10022E+02 19520   0.439E+01
DAV:   5    -0.207694582474E+03   -0.41414E+00   -0.39952E+00 19520   0.858E+00
SDA:   6    -0.954409964588E+02    0.11225E+03   -0.39952E+00 19520   0.354E+03 0.000E+00
CGA:   7    -0.141089701656E+03   -0.45649E+02   -0.45464E+02 19520   0.403E+02-0.294E+01
CGA:   8    -0.148810193875E+03   -0.77205E+01   -0.77326E+01 19520   0.115E+02 0.171E+01
CGA:   9    -0.150972828771E+03   -0.21626E+01   -0.21978E+01 19520   0.509E+01 0.122E+01
CGA:  10    -0.152478866035E+03   -0.15060E+01   -0.17024E+01 19520   0.884E+01-0.868E+00
CGA:  11    -0.152931400652E+03   -0.45253E+00   -0.66833E+00 19520   0.897E+01-0.374E+01
CGA:  12    -0.153485571701E+03   -0.55417E+00   -0.53422E+00 19520   0.650E+01-0.958E+00
CGA:  13    -0.154574946575E+03   -0.10894E+01   -0.10228E+01 19520   0.543E+01-0.228E+01
CGA:  14    -0.154734981889E+03   -0.16004E+00   -0.32230E+00 19520   0.289E+01-0.335E+00
CGA:  15    -0.155297461280E+03   -0.56248E+00   -0.57414E+00 19520   0.132E+01-0.222E+00
CGA:  16    -0.155669904995E+03   -0.37244E+00   -0.36979E+00 19520   0.783E+00 0.170E-01
CGA:  17    -0.155891575270E+03   -0.22167E+00   -0.22214E+00 19520   0.357E+00-0.495E-02
CGA:  18    -0.155991779624E+03   -0.10020E+00   -0.10056E+00 19520   0.143E+00-0.400E-02
CGA:  19    -0.156034416663E+03   -0.42637E-01   -0.42704E-01 19520   0.675E-01-0.815E-03
CGA:  20    -0.156054032226E+03   -0.19616E-01   -0.19439E-01 19520   0.279E-01 0.203E-02
CGA:  21    -0.156063208937E+03   -0.91767E-02   -0.89730E-02 19520   0.148E-01 0.198E-02
CGA:  22    -0.156068823300E+03   -0.56144E-02   -0.55397E-02 19520   0.997E-02 0.566E-03
CGA:  23    -0.156073476917E+03   -0.46536E-02   -0.47010E-02 19520   0.958E-02-0.193E-03
CGA:  24    -0.156078313846E+03   -0.48369E-02   -0.47906E-02 19520   0.127E-01 0.179E-03
CGA:  25    -0.156085594738E+03   -0.72809E-02   -0.72659E-02 19520   0.170E-01 0.105E-03
CGA:  26    -0.156095727724E+03   -0.10133E-01   -0.10917E-01 19520   0.249E-01-0.219E-02
CGA:  27    -0.156103995750E+03   -0.82680E-02   -0.83822E-02 19520   0.211E-01-0.603E-03
CGA:  28    -0.156111399305E+03   -0.74036E-02   -0.73116E-02 19520   0.135E-01 0.116E-02
CGA:  29    -0.156115930624E+03   -0.45313E-02   -0.45078E-02 19520   0.720E-02 0.829E-03
CGA:  30    -0.156118397185E+03   -0.24666E-02   -0.24592E-02 19520   0.292E-02 0.223E-03
CGA:  31    -0.156119298124E+03   -0.90094E-03   -0.90022E-03 19520   0.133E-02 0.115E-03
CGA:  32    -0.156119729613E+03   -0.43149E-03   -0.42951E-03 19520   0.615E-03 0.111E-03
CGA:  33    -0.156119969104E+03   -0.23949E-03   -0.23802E-03 19520   0.399E-03 0.238E-04
CGA:  34    -0.156120139940E+03   -0.17084E-03   -0.17990E-03 19520   0.294E-03-0.666E-04
CGA:  35    -0.156120255554E+03   -0.11561E-03   -0.13078E-03 19520   0.314E-03-0.659E-04
CGA:  36    -0.156120345657E+03   -0.90103E-04   -0.89323E-04 19520   0.299E-03 0.159E-04
SDA:  37    -0.156120472817E+03   -0.12716E-03   -0.12242E-03 19520   0.262E-03 0.675E-04
CGA:  38    -0.156120623293E+03   -0.15048E-03   -0.15417E-03 19520   0.170E-03-0.138E-04
CGA:  39    -0.156120667353E+03   -0.44060E-04   -0.46585E-04 19520   0.719E-04 0.555E-04
CGA:  40    -0.156120693602E+03   -0.26248E-04   -0.28266E-04 19520   0.535E-04 0.546E-04
CGA:  41    -0.156120729846E+03   -0.36244E-04   -0.45342E-04 19520   0.175E-03-0.176E-04
CGA:  42    -0.156120811448E+03   -0.81602E-04   -0.74121E-04 19520   0.292E-03 0.273E-04
CGA:  43    -0.156120912475E+03   -0.10103E-03   -0.10664E-03 19520   0.206E-03 0.104E-03
CGA:  44    -0.156121013420E+03   -0.10094E-03   -0.10160E-03 19520   0.132E-03 0.140E-03
CGA:  45    -0.156121068118E+03   -0.54698E-04   -0.58719E-04 19520   0.114E-03-0.520E-04
CGA:  46    -0.156121114852E+03   -0.46735E-04   -0.50082E-04 19520   0.911E-04-0.946E-05
CGA:  47    -0.156121125984E+03   -0.11132E-04   -0.19273E-04 19520   0.505E-04 0.514E-04
CGA:  48    -0.156121137753E+03   -0.11769E-04   -0.14320E-04 19520   0.229E-04 0.261E-04
CGA:  49    -0.156121163708E+03   -0.25956E-04   -0.21226E-04 19520   0.270E-04 0.862E-05
CGA:  50    -0.156121184238E+03   -0.20529E-04   -0.18500E-04 19520   0.238E-04 0.217E-04
CGA:  51    -0.156121200874E+03   -0.16636E-04   -0.15667E-04 19520   0.320E-04 0.389E-05
CGA:  52    -0.156121219411E+03   -0.18537E-04   -0.17447E-04 19520   0.196E-04 0.227E-04
CGA:  53    -0.156121230348E+03   -0.10937E-04   -0.99478E-05 19520   0.130E-04 0.117E-04
CGA:  54    -0.156121246800E+03   -0.16452E-04   -0.12371E-04 19520   0.229E-04 0.777E-05
CGA:  55    -0.156121250978E+03   -0.41780E-05   -0.58961E-05 19520   0.113E-04 0.878E-05
   1 F= -.15612125E+03 E0= -.15612125E+03  d E =-.156121E+03  mag=     4.0000
