       N       E                     dE             d eps       ncg     rms          rms(c)
DAV:   1     0.193841836566E+04    0.19384E+04   -0.11167E+05 84570   0.165E+03
DAV:   2    -0.754642230814E+02   -0.20139E+04   -0.18744E+04 90440   0.465E+02
DAV:   3    -0.249392294588E+03   -0.17393E+03   -0.17029E+03 85280   0.150E+02
DAV:   4    -0.252368868141E+03   -0.29766E+01   -0.28975E+01 86820   0.205E+01
DAV:   5    -0.252411857539E+03   -0.42989E-01   -0.42891E-01 84190   0.248E+00    0.695E+00
DAV:   6    -0.195260954537E+03    0.57151E+02   -0.20750E+01 80620   0.158E+01    0.666E+00
DAV:   7    -0.195079054199E+03    0.18190E+00   -0.36866E-01 90540   0.311E+00    0.450E+00
DAV:   8    -0.195040531206E+03    0.38523E-01   -0.60789E-02 83020   0.141E+00    0.273E+00
DAV:   9    -0.195004934009E+03    0.35597E-01   -0.37591E-02 84020   0.668E-01    0.215E+00
DAV:  10    -0.194980403842E+03    0.24530E-01   -0.34408E-02 82020   0.808E-01    0.110E+00
DAV:  11    -0.194980975597E+03   -0.57175E-03   -0.59142E-04 85690   0.122E-01    0.110E+00
DAV:  12    -0.194980083308E+03    0.89229E-03   -0.16591E-04 83570   0.540E-02    0.103E+00
DAV:  13    -0.194977456276E+03    0.26270E-02   -0.10016E-03 83110   0.110E-01    0.887E-01
DAV:  14    -0.194974973199E+03    0.24831E-02   -0.12783E-03 81140   0.126E-01    0.727E-01
DAV:  15    -0.194972455509E+03    0.25177E-02   -0.23204E-03 82440   0.171E-01    0.507E-01
DAV:  16    -0.194971795906E+03    0.65960E-03   -0.31223E-04 82280   0.630E-02    0.431E-01
DAV:  17    -0.194971187603E+03    0.60830E-03   -0.36879E-04 82010   0.686E-02    0.343E-01
DAV:  18    -0.194970385922E+03    0.80168E-03   -0.18350E-03 81330   0.152E-01    0.149E-01
DAV:  19    -0.194970278567E+03    0.10736E-03   -0.25656E-04 83240   0.567E-02    0.794E-02
DAV:  20    -0.194970264587E+03    0.13980E-04   -0.26840E-05 53570   0.188E-02    0.556E-02
DAV:  21    -0.194970262264E+03    0.23239E-05   -0.19998E-05 45610   0.167E-02
   1 F= -.19497026E+03 E0= -.19497026E+03  d E =-.194970E+03  mag=     4.0000
