       N       E                     dE             d eps       ncg     rms          ort
DAV:   1     0.603460379127E+04    0.60346E+04   -0.27026E+05  8112   0.166E+03
DAV:   2     0.354188962850E+03   -0.56804E+04   -0.51922E+04  8112   0.464E+02
DAV:   3    -0.359615706269E+03   -0.71380E+03   -0.69904E+03  8112   0.183E+02
DAV:   4    -0.381604610142E+03   -0.21989E+02   -0.21833E+02  8112   0.335E+01
DAV:   5    -0.381953134872E+03   -0.34852E+00   -0.34283E+00  8112   0.402E+00
SDA:   6    -0.111252841024E+03    0.27070E+03   -0.34283E+00  8112   0.134E+04 0.000E+00
CGA:   7    -0.250309177976E+03   -0.13906E+03   -0.15373E+03  8112   0.580E+03-0.838E+01
CGA:   8    -0.272443231559E+03   -0.22134E+02   -0.26259E+02  8112   0.150E+03-0.838E+00
CGA:   9    -0.280860044394E+03   -0.84168E+01   -0.13243E+02  8112   0.379E+03-0.395E+02
CGA:  10    -0.291790634925E+03   -0.10931E+02   -0.12348E+02  8112   0.901E+02-0.713E+02
CGA:  11    -0.296072728594E+03   -0.42821E+01   -0.38805E+01  8112   0.144E+03-0.340E+02
CGA:  12    -0.292255061765E+03    0.38177E+01   -0.41853E+01  8112   0.305E+03-0.759E+02
CGA:  13    -0.301653126232E+03   -0.93981E+01   -0.95301E+01  8112   0.672E+02-0.670E+02
CGA:  14    -0.305217095561E+03   -0.35640E+01   -0.23630E+01  8112   0.331E+02-0.193E+02
CGA:  15    -0.307399640677E+03   -0.21825E+01   -0.24512E+01  8112   0.563E+02-0.873E+00
CGA:  16    -0.307944132553E+03   -0.54449E+00   -0.30891E+01  8112   0.402E+02-0.194E+02
CGA:  17    -0.308913206382E+03   -0.96907E+00   -0.94518E+00  8112   0.842E+01-0.380E+01
CGA:  18    -0.309242655801E+03   -0.32945E+00   -0.29306E+00  8112   0.840E+01 0.285E+00
CGA:  19    -0.309990989049E+03   -0.74833E+00   -0.69663E+00  8112   0.939E+01 0.113E+01
CGA:  20    -0.310004869363E+03   -0.13880E-01   -0.48622E+00  8112   0.174E+02-0.621E+01
CGA:  21    -0.310195889120E+03   -0.19102E+00   -0.80548E+00  8112   0.135E+02-0.887E+01
CGA:  22    -0.310489428141E+03   -0.29354E+00   -0.51347E+00  8112   0.386E+01-0.513E+01
CGA:  23    -0.310664924757E+03   -0.17550E+00   -0.20045E+00  8112   0.681E+00 0.490E-01
CGA:  24    -0.310721191718E+03   -0.56267E-01   -0.59424E-01  8112   0.481E+00 0.220E-01
CGA:  25    -0.310790370842E+03   -0.69179E-01   -0.65866E-01  8112   0.123E+00 0.116E+00
CGA:  26    -0.310821201777E+03   -0.30831E-01   -0.29639E-01  8112   0.165E+00 0.124E-01
CGA:  27    -0.310851456594E+03   -0.30255E-01   -0.29657E-01  8112   0.113E+00 0.105E-01
CGA:  28    -0.310864499249E+03   -0.13043E-01   -0.13134E-01  8112   0.438E-01 0.279E-02
CGA:  29    -0.310871745094E+03   -0.72458E-02   -0.72040E-02  8112   0.292E-01 0.758E-03
CGA:  30    -0.310876786171E+03   -0.50411E-02   -0.50535E-02  8112   0.131E-01-0.242E-03
CGA:  31    -0.310878911736E+03   -0.21256E-02   -0.21205E-02  8112   0.832E-02 0.566E-04
CGA:  32    -0.310879923934E+03   -0.10122E-02   -0.10110E-02  8112   0.327E-02-0.123E-03
CGA:  33    -0.310880569250E+03   -0.64532E-03   -0.65442E-03  8112   0.374E-02-0.113E-03
CGA:  34    -0.310881206455E+03   -0.63720E-03   -0.64059E-03  8112   0.113E-02-0.650E-04
CGA:  35    -0.310881364149E+03   -0.15769E-03   -0.15783E-03  8112   0.665E-03-0.859E-05
CGA:  36    -0.310881476753E+03   -0.11260E-03   -0.11242E-03  8112   0.557E-03 0.543E-05
CGA:  37    -0.310881552612E+03   -0.75859E-04   -0.75860E-04  8112   0.200E-03 0.474E-05
CGA:  38    -0.310881587486E+03   -0.34874E-04   -0.34760E-04  8112   0.169E-03 0.420E-05
CGA:  39    -0.310881612638E+03   -0.25151E-04   -0.25093E-04  8112   0.700E-04 0.664E-05
CGA:  40    -0.310881626260E+03   -0.13622E-04   -0.13605E-04  8112   0.688E-04 0.515E-06
CGA:  41    -0.310881635671E+03   -0.94115E-05   -0.94126E-05  8112   0.412E-04 0.338E-06
   1 F= -.31088164E+03 E0= -.31087772E+03  d E =-.310882E+03  mag=    44.0000
       N       E                     dE             d eps       ncg     rms          ort
SDA:   1    -0.311040911609E+03   -0.15929E+00    0.00000E+00  8112   0.236E-01 0.000E+00
CGA:   2    -0.311045569159E+03   -0.46576E-02   -0.46583E-02  8112   0.168E-01-0.948E-05
CGA:   3    -0.311047275884E+03   -0.17067E-02   -0.17080E-02  8112   0.499E-02 0.314E-05
CGA:   4    -0.311048207136E+03   -0.93125E-03   -0.93111E-03  8112   0.195E-02 0.342E-05
CGA:   5    -0.311048426444E+03   -0.21931E-03   -0.21921E-03  8112   0.546E-03-0.363E-05
CGA:   6    -0.311048509950E+03   -0.83506E-04   -0.83565E-04  8112   0.335E-03-0.532E-05
CGA:   7    -0.311048543244E+03   -0.33294E-04   -0.33241E-04  8112   0.872E-04-0.138E-05
CGA:   8    -0.311048558701E+03   -0.15456E-04   -0.15389E-04  8112   0.628E-04 0.187E-05
CGA:   9    -0.311048568409E+03   -0.97078E-05   -0.96940E-05  8112   0.252E-04 0.164E-05
   2 F= -.31104857E+03 E0= -.31104464E+03  d E =-.166933E+00  mag=    44.0000
       N       E                     dE             d eps       ncg     rms          ort
SDA:   1    -0.309338271685E+03    0.17103E+01    0.00000E+00  8112   0.136E+02 0.000E+00
CGA:   2    -0.312899479507E+03   -0.35612E+01   -0.35841E+01  8112   0.578E+01-0.186E+00
CGA:   3    -0.313495191108E+03   -0.59571E+00   -0.62136E+00  8112   0.389E+01 0.103E+00
CGA:   4    -0.313997347481E+03   -0.50216E+00   -0.49589E+00  8112   0.708E+00-0.690E-01
CGA:   5    -0.314097044929E+03   -0.99697E-01   -0.99750E-01  8112   0.424E+00 0.372E-02
CGA:   6    -0.314144499381E+03   -0.47454E-01   -0.47046E-01  8112   0.150E+00-0.186E-02
CGA:   7    -0.314162169263E+03   -0.17670E-01   -0.17792E-01  8112   0.705E-01 0.120E-02
CGA:   8    -0.314173392054E+03   -0.11223E-01   -0.11226E-01  8112   0.435E-01-0.133E-03
CGA:   9    -0.314178981619E+03   -0.55896E-02   -0.56013E-02  8112   0.232E-01 0.269E-03
CGA:  10    -0.314182581362E+03   -0.35997E-02   -0.35998E-02  8112   0.151E-01 0.764E-05
CGA:  11    -0.314184551494E+03   -0.19701E-02   -0.19724E-02  8112   0.719E-02 0.704E-04
CGA:  12    -0.314185675483E+03   -0.11240E-02   -0.11239E-02  8112   0.462E-02 0.829E-05
CGA:  13    -0.314186247284E+03   -0.57180E-03   -0.57253E-03  8112   0.195E-02 0.164E-04
CGA:  14    -0.314186565611E+03   -0.31833E-03   -0.31827E-03  8112   0.128E-02 0.435E-05
CGA:  15    -0.314186728393E+03   -0.16278E-03   -0.16295E-03  8112   0.630E-03 0.622E-05
CGA:  16    -0.314186816305E+03   -0.87912E-04   -0.87933E-04  8112   0.315E-03 0.402E-05
CGA:  17    -0.314186870437E+03   -0.54132E-04   -0.54053E-04  8112   0.200E-03 0.281E-05
CGA:  18    -0.314186894039E+03   -0.23602E-04   -0.23611E-04  8112   0.958E-04 0.426E-06
CGA:  19    -0.314186909996E+03   -0.15956E-04   -0.15967E-04  8112   0.574E-04-0.524E-06
CGA:  20    -0.314186917826E+03   -0.78304E-05   -0.78232E-05  8112   0.298E-04-0.893E-06
   3 F= -.31418692E+03 E0= -.31418265E+03  d E =-.313835E+01  mag=    44.0000
       N       E                     dE             d eps       ncg     rms          ort
SDA:   1    -0.306430189701E+03    0.77567E+01    0.00000E+00  8112   0.272E+02 0.000E+00
CGA:   2    -0.313786082752E+03   -0.73559E+01   -0.73759E+01  8112   0.113E+02-0.953E-01
CGA:   3    -0.314972836270E+03   -0.11868E+01   -0.12238E+01  8112   0.770E+01 0.177E+00
CGA:   4    -0.315877731999E+03   -0.90490E+00   -0.87226E+00  8112   0.194E+01-0.119E+00
CGA:   5    -0.316095064732E+03   -0.21733E+00   -0.21806E+00  8112   0.850E+00 0.290E-02
CGA:   6    -0.316206121344E+03   -0.11106E+00   -0.11099E+00  8112   0.372E+00-0.223E-02
CGA:   7    -0.316243690585E+03   -0.37569E-01   -0.38000E-01  8112   0.195E+00 0.565E-03
CGA:   8    -0.316267243424E+03   -0.23553E-01   -0.23530E-01  8112   0.998E-01-0.346E-03
CGA:   9    -0.316281369625E+03   -0.14126E-01   -0.14125E-01  8112   0.526E-01 0.105E-02
CGA:  10    -0.316289175895E+03   -0.78063E-02   -0.78057E-02  8112   0.374E-01 0.718E-04
CGA:  11    -0.316293438363E+03   -0.42625E-02   -0.42774E-02  8112   0.202E-01 0.162E-03
CGA:  12    -0.316295988483E+03   -0.25501E-02   -0.25502E-02  8112   0.110E-01 0.144E-04
CGA:  13    -0.316297788296E+03   -0.17998E-02   -0.17983E-02  8112   0.494E-02 0.462E-04
CGA:  14    -0.316298411355E+03   -0.62306E-03   -0.62312E-03  8112   0.383E-02 0.584E-05
CGA:  15    -0.316298903704E+03   -0.49235E-03   -0.49261E-03  8112   0.176E-02 0.147E-04
CGA:  16    -0.316299128724E+03   -0.22502E-03   -0.22508E-03  8112   0.952E-03 0.645E-05
CGA:  17    -0.316299289721E+03   -0.16100E-03   -0.16076E-03  8112   0.617E-03 0.714E-05
CGA:  18    -0.316299363772E+03   -0.74051E-04   -0.74081E-04  8112   0.368E-03 0.181E-05
CGA:  19    -0.316299413396E+03   -0.49624E-04   -0.49627E-04  8112   0.231E-03 0.357E-06
CGA:  20    -0.316299446215E+03   -0.32819E-04   -0.32823E-04  8112   0.106E-03-0.136E-05
CGA:  21    -0.316299462419E+03   -0.16204E-04   -0.16227E-04  8112   0.750E-04-0.159E-05
CGA:  22    -0.316299471189E+03   -0.87707E-05   -0.87441E-05  8112   0.437E-04-0.123E-05
   4 F= -.31629947E+03 E0= -.31629479E+03  d E =-.211255E+01  mag=    44.0000
       N       E                     dE             d eps       ncg     rms          ort
SDA:   1    -0.309713889247E+03    0.65856E+01    0.00000E+00  8112   0.194E+02 0.000E+00
CGA:   2    -0.315149577911E+03   -0.54357E+01   -0.54320E+01  8112   0.824E+01 0.353E-01
CGA:   3    -0.316330247392E+03   -0.11807E+01   -0.11809E+01  8112   0.527E+01 0.544E-01
CGA:   4    -0.316786191136E+03   -0.45594E+00   -0.44662E+00  8112   0.170E+01-0.737E-01
CGA:   5    -0.316981586625E+03   -0.19540E+00   -0.19554E+00  8112   0.501E+00 0.598E-03
CGA:   6    -0.317046165046E+03   -0.64578E-01   -0.64580E-01  8112   0.236E+00-0.103E-04
CGA:   7    -0.317075114392E+03   -0.28949E-01   -0.28958E-01  8112   0.949E-01 0.178E-03
CGA:   8    -0.317086002940E+03   -0.10889E-01   -0.10895E-01  8112   0.674E-01 0.727E-04
CGA:   9    -0.317093640174E+03   -0.76372E-02   -0.76448E-02  8112   0.248E-01 0.940E-04
CGA:  10    -0.317098014143E+03   -0.43740E-02   -0.43703E-02  8112   0.158E-01 0.715E-04
CGA:  11    -0.317100094854E+03   -0.20807E-02   -0.20812E-02  8112   0.102E-01 0.298E-04
CGA:  12    -0.317101284863E+03   -0.11900E-02   -0.11903E-02  8112   0.637E-02 0.893E-05
CGA:  13    -0.317102126356E+03   -0.84149E-03   -0.84158E-03  8112   0.303E-02 0.118E-04
CGA:  14    -0.317102575917E+03   -0.44956E-03   -0.44942E-03  8112   0.170E-02 0.104E-04
CGA:  15    -0.317102809023E+03   -0.23311E-03   -0.23311E-03  8112   0.109E-02 0.608E-05
CGA:  16    -0.317102929071E+03   -0.12005E-03   -0.12017E-03  8112   0.593E-03 0.479E-05
CGA:  17    -0.317103010517E+03   -0.81446E-04   -0.81443E-04  8112   0.314E-03 0.387E-05
CGA:  18    -0.317103063480E+03   -0.52963E-04   -0.52898E-04  8112   0.187E-03 0.210E-05
CGA:  19    -0.317103087792E+03   -0.24312E-04   -0.24313E-04  8112   0.152E-03 0.853E-07
CGA:  20    -0.317103106497E+03   -0.18705E-04   -0.18696E-04  8112   0.727E-04-0.575E-06
CGA:  21    -0.317103117489E+03   -0.10992E-04   -0.11006E-04  8112   0.419E-04-0.870E-06
CGA:  22    -0.317103123741E+03   -0.62519E-05   -0.62667E-05  8112   0.282E-04-0.104E-05
   5 F= -.31710312E+03 E0= -.31709829E+03  d E =-.803653E+00  mag=    44.0000
       N       E                     dE             d eps       ncg     rms          ort
SDA:   1    -0.304990743897E+03    0.12112E+02    0.00000E+00  8112   0.335E+02 0.000E+00
CGA:   2    -0.313876998610E+03   -0.88863E+01   -0.88653E+01  8112   0.187E+02 0.154E+00
CGA:   3    -0.316236903468E+03   -0.23599E+01   -0.23598E+01  8112   0.983E+01-0.268E-01
CGA:   4    -0.317103231469E+03   -0.86633E+00   -0.84103E+00  8112   0.351E+01-0.127E+00
CGA:   5    -0.317507732157E+03   -0.40450E+00   -0.40279E+00  8112   0.914E+00-0.249E-01
CGA:   6    -0.317627890864E+03   -0.12016E+00   -0.12022E+00  8112   0.403E+00 0.508E-02
CGA:   7    -0.317675603176E+03   -0.47712E-01   -0.47706E-01  8112   0.196E+00 0.149E-04
CGA:   8    -0.317694336303E+03   -0.18733E-01   -0.18808E-01  8112   0.952E-01 0.121E-03
CGA:   9    -0.317706539288E+03   -0.12203E-01   -0.12208E-01  8112   0.419E-01 0.364E-03
CGA:  10    -0.317712005158E+03   -0.54659E-02   -0.54671E-02  8112   0.216E-01 0.133E-03
CGA:  11    -0.317715452258E+03   -0.34471E-02   -0.34454E-02  8112   0.142E-01 0.482E-04
CGA:  12    -0.317716823925E+03   -0.13717E-02   -0.13739E-02  8112   0.804E-02 0.929E-05
CGA:  13    -0.317718058195E+03   -0.12343E-02   -0.12338E-02  8112   0.398E-02 0.186E-04
CGA:  14    -0.317718650099E+03   -0.59190E-03   -0.59167E-03  8112   0.206E-02 0.138E-04
CGA:  15    -0.317718918064E+03   -0.26797E-03   -0.26800E-03  8112   0.158E-02 0.692E-05
CGA:  16    -0.317719086064E+03   -0.16800E-03   -0.16820E-03  8112   0.600E-03 0.619E-05
CGA:  17    -0.317719174527E+03   -0.88463E-04   -0.88410E-04  8112   0.342E-03 0.378E-05
CGA:  18    -0.317719227659E+03   -0.53132E-04   -0.53086E-04  8112   0.228E-03 0.228E-05
CGA:  19    -0.317719253564E+03   -0.25905E-04   -0.25919E-04  8112   0.139E-03 0.640E-06
CGA:  20    -0.317719273261E+03   -0.19697E-04   -0.19695E-04  8112   0.974E-04 0.223E-06
CGA:  21    -0.317719287443E+03   -0.14183E-04   -0.14182E-04  8112   0.463E-04 0.168E-07
CGA:  22    -0.317719295296E+03   -0.78528E-05   -0.78743E-05  8112   0.429E-04-0.621E-06
   6 F= -.31771930E+03 E0= -.31771435E+03  d E =-.616172E+00  mag=    44.0000
       N       E                     dE             d eps       ncg     rms          ort
SDA:   1    -0.290074026105E+03    0.27645E+02    0.00000E+00  8112   0.778E+02 0.000E+00
CGA:   2    -0.308790979625E+03   -0.18717E+02   -0.18386E+02  8112   0.555E+02 0.165E+01
CGA:   3    -0.314250633871E+03   -0.54597E+01   -0.53998E+01  8112   0.226E+02-0.405E+00
CGA:   4    -0.316769719375E+03   -0.25191E+01   -0.22616E+01  8112   0.775E+01-0.313E+00
CGA:   5    -0.317703152317E+03   -0.93343E+00   -0.93165E+00  8112   0.320E+01-0.594E-01
CGA:   6    -0.317978666795E+03   -0.27551E+00   -0.27450E+00  8112   0.135E+01-0.166E-01
CGA:   7    -0.318094697384E+03   -0.11603E+00   -0.12053E+00  8112   0.880E+00 0.410E-02
CGA:   8    -0.318177185185E+03   -0.82488E-01   -0.82640E-01  8112   0.229E+00 0.225E-03
CGA:   9    -0.318209808362E+03   -0.32623E-01   -0.32379E-01  8112   0.157E+00 0.113E-01
CGA:  10    -0.318223992485E+03   -0.14184E-01   -0.14379E-01  8112   0.853E-01-0.199E-04
CGA:  11    -0.318234446077E+03   -0.10454E-01   -0.10467E-01  8112   0.343E-01 0.129E-02
CGA:  12    -0.318240251908E+03   -0.58058E-02   -0.57892E-02  8112   0.283E-01 0.326E-03
CGA:  13    -0.318242992635E+03   -0.27407E-02   -0.27560E-02  8112   0.131E-01 0.104E-03
CGA:  14    -0.318244756033E+03   -0.17634E-02   -0.17619E-02  8112   0.780E-02 0.130E-03
CGA:  15    -0.318245836550E+03   -0.10805E-02   -0.10800E-02  8112   0.348E-02 0.404E-04
CGA:  16    -0.318246220302E+03   -0.38375E-03   -0.38428E-03  8112   0.221E-02 0.152E-04
CGA:  17    -0.318246505734E+03   -0.28543E-03   -0.28542E-03  8112   0.978E-03 0.109E-04
CGA:  18    -0.318246621623E+03   -0.11589E-03   -0.11594E-03  8112   0.493E-03 0.498E-05
CGA:  19    -0.318246694076E+03   -0.72453E-04   -0.72412E-04  8112   0.316E-03 0.208E-05
CGA:  20    -0.318246731831E+03   -0.37756E-04   -0.37764E-04  8112   0.213E-03 0.629E-06
CGA:  21    -0.318246760995E+03   -0.29164E-04   -0.29163E-04  8112   0.989E-04 0.136E-06
CGA:  22    -0.318246778976E+03   -0.17981E-04   -0.17972E-04  8112   0.970E-04 0.152E-06
CGA:  23    -0.318246789462E+03   -0.10486E-04   -0.10483E-04  8112   0.494E-04-0.945E-07
CGA:  24    -0.318246796750E+03   -0.72881E-05   -0.72958E-05  8112   0.303E-04-0.424E-06
   7 F= -.31824680E+03 E0= -.31824168E+03  d E =-.527501E+00  mag=    44.0000
       N       E                     dE             d eps       ncg     rms          ort
SDA:   1    -0.291737625738E+03    0.26509E+02    0.00000E+00  8112   0.742E+02 0.000E+00
CGA:   2    -0.308316671089E+03   -0.16579E+02   -0.16419E+02  8112   0.526E+02 0.209E+01
CGA:   3    -0.314126051350E+03   -0.58094E+01   -0.56872E+01  8112   0.267E+02-0.223E+01
CGA:   4    -0.316826645668E+03   -0.27006E+01   -0.24893E+01  8112   0.953E+01-0.118E+00
CGA:   5    -0.317808730117E+03   -0.98208E+00   -0.95577E+00  8112   0.322E+01-0.107E+00
CGA:   6    -0.318173648068E+03   -0.36492E+00   -0.36510E+00  8112   0.137E+01 0.161E-01
CGA:   7    -0.318303094802E+03   -0.12945E+00   -0.13276E+00  8112   0.663E+00 0.171E-01
CGA:   8    -0.318355864822E+03   -0.52770E-01   -0.54641E-01  8112   0.423E+00-0.251E-02
CGA:   9    -0.318394709563E+03   -0.38845E-01   -0.39255E-01  8112   0.123E+00 0.198E-02
CGA:  10    -0.318414273838E+03   -0.19564E-01   -0.19472E-01  8112   0.558E-01 0.196E-02
CGA:  11    -0.318423833852E+03   -0.95600E-02   -0.95266E-02  8112   0.259E-01 0.600E-03
CGA:  12    -0.318428142775E+03   -0.43089E-02   -0.43017E-02  8112   0.164E-01 0.150E-03
CGA:  13    -0.318430680690E+03   -0.25379E-02   -0.25317E-02  8112   0.652E-02 0.177E-03
CGA:  14    -0.318431871518E+03   -0.11908E-02   -0.11867E-02  8112   0.473E-02 0.677E-04
CGA:  15    -0.318432392189E+03   -0.52067E-03   -0.52198E-03  8112   0.242E-02 0.200E-04
CGA:  16    -0.318432635465E+03   -0.24328E-03   -0.24367E-03  8112   0.118E-02 0.592E-05
CGA:  17    -0.318432807189E+03   -0.17172E-03   -0.17164E-03  8112   0.483E-03 0.465E-05
CGA:  18    -0.318432875255E+03   -0.68066E-04   -0.68051E-04  8112   0.202E-03 0.164E-05
CGA:  19    -0.318432911859E+03   -0.36604E-04   -0.36553E-04  8112   0.120E-03 0.981E-06
CGA:  20    -0.318432930525E+03   -0.18666E-04   -0.18646E-04  8112   0.602E-04 0.100E-05
CGA:  21    -0.318432938898E+03   -0.83734E-05   -0.83722E-05  8112   0.629E-04 0.423E-06
   8 F= -.31843294E+03 E0= -.31842776E+03  d E =-.186142E+00  mag=    44.0000
       N       E                     dE             d eps       ncg     rms          ort
SDA:   1    -0.273260308702E+03    0.45173E+02    0.00000E+00  8112   0.127E+03 0.000E+00
CGA:   2    -0.300913490743E+03   -0.27653E+02   -0.27564E+02  8112   0.126E+03 0.572E+00
CGA:   3    -0.311443015191E+03   -0.10530E+02   -0.11028E+02  8112   0.359E+02 0.748E+00
CGA:   4    -0.315786722870E+03   -0.43437E+01   -0.41978E+01  8112   0.198E+02-0.213E+01
CGA:   5    -0.317452653690E+03   -0.16659E+01   -0.15484E+01  8112   0.542E+01 0.157E+00
CGA:   6    -0.318065516319E+03   -0.61286E+00   -0.61408E+00  8112   0.234E+01 0.259E-01
CGA:   7    -0.318318486172E+03   -0.25297E+00   -0.25561E+00  8112   0.905E+00 0.400E-01
CGA:   8    -0.318429807689E+03   -0.11132E+00   -0.11160E+00  8112   0.364E+00 0.136E-01
CGA:   9    -0.318480342542E+03   -0.50535E-01   -0.50485E-01  8112   0.222E+00 0.415E-02
CGA:  10    -0.318500478622E+03   -0.20136E-01   -0.20729E-01  8112   0.105E+00 0.197E-02
CGA:  11    -0.318514352438E+03   -0.13874E-01   -0.13874E-01  8112   0.619E-01-0.292E-04
CGA:  12    -0.318522984480E+03   -0.86320E-02   -0.86247E-02  8112   0.260E-01 0.426E-03
CGA:  13    -0.318527351269E+03   -0.43668E-02   -0.43577E-02  8112   0.183E-01 0.190E-03
CGA:  14    -0.318529542139E+03   -0.21909E-02   -0.21930E-02  8112   0.981E-02 0.840E-04
CGA:  15    -0.318530685114E+03   -0.11430E-02   -0.11437E-02  8112   0.474E-02 0.266E-04
CGA:  16    -0.318531327273E+03   -0.64216E-03   -0.64197E-03  8112   0.203E-02 0.252E-04
CGA:  17    -0.318531613041E+03   -0.28577E-03   -0.28569E-03  8112   0.914E-03 0.865E-05
CGA:  18    -0.318531719941E+03   -0.10690E-03   -0.10696E-03  8112   0.516E-03 0.393E-05
CGA:  19    -0.318531778969E+03   -0.59028E-04   -0.59056E-04  8112   0.219E-03 0.143E-05
CGA:  20    -0.318531815559E+03   -0.36589E-04   -0.36579E-04  8112   0.105E-03 0.208E-06
CGA:  21    -0.318531830503E+03   -0.14944E-04   -0.14942E-04  8112   0.862E-04 0.203E-06
CGA:  22    -0.318531841543E+03   -0.11040E-04   -0.11042E-04  8112   0.446E-04 0.361E-06
CGA:  23    -0.318531848118E+03   -0.65746E-05   -0.65703E-05  8112   0.268E-04 0.268E-06
   9 F= -.31853185E+03 E0= -.31852671E+03  d E =-.989092E-01  mag=    44.0000
       N       E                     dE             d eps       ncg     rms          ort
SDA:   1    -0.311595968169E+03    0.69359E+01    0.00000E+00  8112   0.193E+02 0.000E+00
CGA:   2    -0.316243108976E+03   -0.46471E+01   -0.46515E+01  8112   0.129E+02-0.385E-01
CGA:   3    -0.317762814480E+03   -0.15197E+01   -0.14883E+01  8112   0.554E+01-0.220E+00
CGA:   4    -0.318394288322E+03   -0.63147E+00   -0.63094E+00  8112   0.193E+01-0.742E-02
CGA:   5    -0.318578834439E+03   -0.18455E+00   -0.18190E+00  8112   0.813E+00-0.451E-02
CGA:   6    -0.318664659769E+03   -0.85825E-01   -0.85817E-01  8112   0.248E+00-0.555E-04
CGA:   7    -0.318697909885E+03   -0.33250E-01   -0.33244E-01  8112   0.843E-01 0.233E-02
CGA:   8    -0.318709447107E+03   -0.11537E-01   -0.11536E-01  8112   0.418E-01 0.144E-03
CGA:   9    -0.318714560055E+03   -0.51129E-02   -0.51186E-02  8112   0.187E-01 0.229E-03
CGA:  10    -0.318716705424E+03   -0.21454E-02   -0.21481E-02  8112   0.115E-01 0.619E-04
CGA:  11    -0.318718137902E+03   -0.14325E-02   -0.14332E-02  8112   0.475E-02 0.586E-04
CGA:  12    -0.318718922613E+03   -0.78471E-03   -0.78275E-03  8112   0.256E-02 0.441E-04
CGA:  13    -0.318719294260E+03   -0.37165E-03   -0.37148E-03  8112   0.183E-02 0.105E-04
CGA:  14    -0.318719498157E+03   -0.20390E-03   -0.20406E-03  8112   0.844E-03 0.431E-05
CGA:  15    -0.318719617928E+03   -0.11977E-03   -0.11971E-03  8112   0.431E-03 0.566E-05
CGA:  16    -0.318719674366E+03   -0.56438E-04   -0.56450E-04  8112   0.171E-03 0.433E-05
CGA:  17    -0.318719698750E+03   -0.24384E-04   -0.24364E-04  8112   0.102E-03 0.231E-05
CGA:  18    -0.318719709276E+03   -0.10526E-04   -0.10554E-04  8112   0.423E-04 0.858E-06
CGA:  19    -0.318719715726E+03   -0.64500E-05   -0.64451E-05  8112   0.197E-04 0.237E-06
  10 F= -.31871972E+03 E0= -.31871469E+03  d E =-.187868E+00  mag=    44.0000
       N       E                     dE             d eps       ncg     rms          ort
SDA:   1    -0.286078229887E+03    0.32641E+02    0.00000E+00  8112   0.862E+02 0.000E+00
CGA:   2    -0.308368692520E+03   -0.22290E+02   -0.22370E+02  8112   0.607E+02-0.559E+00
CGA:   3    -0.314600852729E+03   -0.62322E+01   -0.61868E+01  8112   0.213E+02 0.181E+01
CGA:   4    -0.317523873454E+03   -0.29230E+01   -0.29170E+01  8112   0.630E+01-0.402E+00
CGA:   5    -0.318277007856E+03   -0.75313E+00   -0.75007E+00  8112   0.269E+01-0.453E-01
CGA:   6    -0.318548462613E+03   -0.27145E+00   -0.27148E+00  8112   0.119E+01 0.638E-02
CGA:   7    -0.318661011645E+03   -0.11255E+00   -0.11487E+00  8112   0.456E+00 0.565E-02
CGA:   8    -0.318716015315E+03   -0.55004E-01   -0.55004E-01  8112   0.189E+00 0.146E-03
CGA:   9    -0.318741855113E+03   -0.25840E-01   -0.25826E-01  8112   0.985E-01 0.209E-02
CGA:  10    -0.318752911223E+03   -0.11056E-01   -0.11113E-01  8112   0.483E-01 0.885E-03
CGA:  11    -0.318759653413E+03   -0.67422E-02   -0.67356E-02  8112   0.290E-01 0.588E-03
CGA:  12    -0.318763230741E+03   -0.35773E-02   -0.35802E-02  8112   0.141E-01 0.147E-03
CGA:  13    -0.318765386545E+03   -0.21558E-02   -0.21517E-02  8112   0.865E-02 0.140E-03
CGA:  14    -0.318766465034E+03   -0.10785E-02   -0.10791E-02  8112   0.455E-02 0.371E-04
CGA:  15    -0.318767060184E+03   -0.59515E-03   -0.59521E-03  8112   0.230E-02 0.211E-04
CGA:  16    -0.318767360217E+03   -0.30003E-03   -0.30008E-03  8112   0.910E-03 0.164E-04
CGA:  17    -0.318767482030E+03   -0.12181E-03   -0.12180E-03  8112   0.544E-03 0.102E-04
CGA:  18    -0.318767544379E+03   -0.62348E-04   -0.62455E-04  8112   0.196E-03 0.535E-05
CGA:  19    -0.318767574428E+03   -0.30049E-04   -0.30010E-04  8112   0.111E-03 0.180E-05
CGA:  20    -0.318767589043E+03   -0.14615E-04   -0.14616E-04  8112   0.665E-04 0.327E-06
CGA:  21    -0.318767597959E+03   -0.89159E-05   -0.89154E-05  8112   0.352E-04 0.206E-06
  11 F= -.31876760E+03 E0= -.31876284E+03  d E =-.478822E-01  mag=    44.0000
       N       E                     dE             d eps       ncg     rms          ort
SDA:   1    -0.312131925511E+03    0.66357E+01    0.00000E+00  8112   0.182E+02 0.000E+00
CGA:   2    -0.316271606485E+03   -0.41397E+01   -0.41852E+01  8112   0.155E+02-0.462E+00
CGA:   3    -0.317900382821E+03   -0.16288E+01   -0.15845E+01  8112   0.494E+01 0.232E+00
CGA:   4    -0.318583141473E+03   -0.68276E+00   -0.68273E+00  8112   0.179E+01-0.206E-01
CGA:   5    -0.318735646991E+03   -0.15251E+00   -0.15383E+00  8112   0.774E+00-0.856E-02
CGA:   6    -0.318822994915E+03   -0.87348E-01   -0.87401E-01  8112   0.206E+00 0.883E-03
CGA:   7    -0.318853235771E+03   -0.30241E-01   -0.30194E-01  8112   0.776E-01 0.212E-02
CGA:   8    -0.318863497035E+03   -0.10261E-01   -0.10263E-01  8112   0.390E-01 0.335E-03
CGA:   9    -0.318868129167E+03   -0.46321E-02   -0.46437E-02  8112   0.157E-01 0.288E-03
CGA:  10    -0.318870117738E+03   -0.19886E-02   -0.19889E-02  8112   0.104E-01 0.276E-04
CGA:  11    -0.318871290031E+03   -0.11723E-02   -0.11736E-02  8112   0.411E-02 0.287E-04
CGA:  12    -0.318872019804E+03   -0.72977E-03   -0.72778E-03  8112   0.204E-02 0.354E-04
CGA:  13    -0.318872318193E+03   -0.29839E-03   -0.29827E-03  8112   0.156E-02 0.830E-05
CGA:  14    -0.318872486926E+03   -0.16873E-03   -0.16886E-03  8112   0.676E-03 0.339E-05
CGA:  15    -0.318872595062E+03   -0.10814E-03   -0.10804E-03  8112   0.283E-03 0.314E-05
CGA:  16    -0.318872634146E+03   -0.39085E-04   -0.39081E-04  8112   0.165E-03 0.133E-05
CGA:  17    -0.318872653822E+03   -0.19676E-04   -0.19691E-04  8112   0.749E-04 0.906E-06
CGA:  18    -0.318872662091E+03   -0.82689E-05   -0.82789E-05  8112   0.302E-04 0.388E-06
  12 F= -.31887266E+03 E0= -.31886789E+03  d E =-.105064E+00  mag=    44.0000
       N       E                     dE             d eps       ncg     rms          ort
SDA:   1    -0.316802644307E+03    0.20700E+01    0.00000E+00  8112   0.554E+01 0.000E+00
CGA:   2    -0.318142924903E+03   -0.13403E+01   -0.13487E+01  8112   0.461E+01-0.784E-01
CGA:   3    -0.318649250367E+03   -0.50633E+00   -0.50228E+00  8112   0.127E+01 0.320E-01
CGA:   4    -0.318843574623E+03   -0.19432E+00   -0.19433E+00  8112   0.317E+00-0.384E-03
CGA:   5    -0.318888291362E+03   -0.44717E-01   -0.44717E-01  8112   0.106E+00 0.373E-04
CGA:   6    -0.318901493366E+03   -0.13202E-01   -0.13208E-01  8112   0.521E-01 0.170E-03
CGA:   7    -0.318906267009E+03   -0.47736E-02   -0.47753E-02  8112   0.202E-01 0.134E-05
CGA:   8    -0.318908830973E+03   -0.25640E-02   -0.25647E-02  8112   0.794E-02 0.336E-04
CGA:   9    -0.318909882450E+03   -0.10515E-02   -0.10517E-02  8112   0.321E-02 0.274E-04
CGA:  10    -0.318910419645E+03   -0.53720E-03   -0.53684E-03  8112   0.172E-02 0.885E-05
CGA:  11    -0.318910620497E+03   -0.20085E-03   -0.20095E-03  8112   0.119E-02 0.327E-05
CGA:  12    -0.318910768559E+03   -0.14806E-03   -0.14812E-03  8112   0.525E-03 0.375E-05
CGA:  13    -0.318910856093E+03   -0.87534E-04   -0.87447E-04  8112   0.269E-03 0.265E-05
CGA:  14    -0.318910896829E+03   -0.40736E-04   -0.40724E-04  8112   0.159E-03 0.710E-06
CGA:  15    -0.318910914622E+03   -0.17793E-04   -0.17797E-04  8112   0.832E-04 0.110E-06
CGA:  16    -0.318910924100E+03   -0.94786E-05   -0.94819E-05  8112   0.317E-04 0.140E-06
  13 F= -.31891092E+03 E0= -.31890610E+03  d E =-.382620E-01  mag=    44.0000
       N       E                     dE             d eps       ncg     rms          ort
SDA:   1    -0.309887812939E+03    0.90231E+01    0.00000E+00  8112   0.235E+02 0.000E+00
CGA:   2    -0.315417863176E+03   -0.55301E+01   -0.56256E+01  8112   0.254E+02-0.960E+00
CGA:   3    -0.317812544305E+03   -0.23947E+01   -0.23526E+01  8112   0.503E+01 0.755E+00
CGA:   4    -0.318576374405E+03   -0.76383E+00   -0.76422E+00  8112   0.220E+01-0.270E-01
CGA:   5    -0.318775618437E+03   -0.19924E+00   -0.20071E+00  8112   0.861E+00 0.110E-02
CGA:   6    -0.318856039273E+03   -0.80421E-01   -0.80115E-01  8112   0.291E+00-0.240E-02
CGA:   7    -0.318897303426E+03   -0.41264E-01   -0.41259E-01  8112   0.853E-01 0.422E-03
CGA:   8    -0.318909704464E+03   -0.12401E-01   -0.12402E-01  8112   0.388E-01-0.558E-04
CGA:   9    -0.318914405604E+03   -0.47011E-02   -0.47060E-02  8112   0.226E-01 0.119E-03
CGA:  10    -0.318916516492E+03   -0.21109E-02   -0.21103E-02  8112   0.898E-02 0.160E-05
CGA:  11    -0.318918121421E+03   -0.16049E-02   -0.16002E-02  8112   0.459E-02 0.835E-04
CGA:  12    -0.318918704064E+03   -0.58264E-03   -0.58291E-03  8112   0.292E-02 0.182E-04
CGA:  13    -0.318919142547E+03   -0.43848E-03   -0.43818E-03  8112   0.194E-02 0.155E-04
CGA:  14    -0.318919339529E+03   -0.19698E-03   -0.19738E-03  8112   0.834E-03 0.489E-05
CGA:  15    -0.318919461674E+03   -0.12214E-03   -0.12208E-03  8112   0.401E-03 0.468E-05
CGA:  16    -0.318919520559E+03   -0.58885E-04   -0.58845E-04  8112   0.189E-03 0.338E-05
CGA:  17    -0.318919537035E+03   -0.16476E-04   -0.16553E-04  8112   0.797E-04 0.138E-05
CGA:  18    -0.318919550539E+03   -0.13504E-04   -0.13445E-04  8112   0.289E-04 0.168E-05
CGA:  19    -0.318919554118E+03   -0.35791E-05   -0.35834E-05  8112   0.182E-04 0.326E-06
  14 F= -.31891955E+03 E0= -.31891464E+03  d E =-.863002E-02  mag=    44.0000
       N       E                     dE             d eps       ncg     rms          ort
SDA:   1    -0.294040838017E+03    0.24879E+02    0.00000E+00  8112   0.653E+02 0.000E+00
CGA:   2    -0.309100646961E+03   -0.15060E+02   -0.15307E+02  8112   0.729E+02-0.255E+01
CGA:   3    -0.315471934654E+03   -0.63713E+01   -0.64209E+01  8112   0.178E+02 0.144E+00
CGA:   4    -0.317793907666E+03   -0.23220E+01   -0.23190E+01  8112   0.755E+01-0.224E+00
CGA:   5    -0.318445463126E+03   -0.65156E+00   -0.66466E+00  8112   0.283E+01 0.493E-01
CGA:   6    -0.318732712075E+03   -0.28725E+00   -0.27639E+00  8112   0.943E+00-0.554E-01
CGA:   7    -0.318858667307E+03   -0.12596E+00   -0.12585E+00  8112   0.373E+00 0.129E-01
CGA:   8    -0.318894519841E+03   -0.35853E-01   -0.35889E-01  8112   0.204E+00 0.181E-04
CGA:   9    -0.318916987616E+03   -0.22468E-01   -0.22554E-01  8112   0.781E-01 0.146E-02
CGA:  10    -0.318926789594E+03   -0.98020E-02   -0.98025E-02  8112   0.364E-01 0.598E-04
CGA:  11    -0.318931213368E+03   -0.44238E-02   -0.44296E-02  8112   0.261E-01 0.380E-03
CGA:  12    -0.318934346013E+03   -0.31326E-02   -0.31351E-02  8112   0.100E-01 0.135E-03
CGA:  13    -0.318935754167E+03   -0.14082E-02   -0.14063E-02  8112   0.788E-02 0.100E-03
CGA:  14    -0.318936813694E+03   -0.10595E-02   -0.10592E-02  8112   0.371E-02 0.430E-04
CGA:  15    -0.318937216540E+03   -0.40285E-03   -0.40371E-03  8112   0.204E-02 0.186E-04
CGA:  16    -0.318937505964E+03   -0.28942E-03   -0.28920E-03  8112   0.893E-03 0.154E-04
CGA:  17    -0.318937613989E+03   -0.10803E-03   -0.10811E-03  8112   0.448E-03 0.953E-05
CGA:  18    -0.318937659994E+03   -0.46005E-04   -0.46137E-04  8112   0.180E-03 0.495E-05
CGA:  19    -0.318937687500E+03   -0.27506E-04   -0.27418E-04  8112   0.848E-04 0.347E-05
CGA:  20    -0.318937696273E+03   -0.87726E-05   -0.87955E-05  8112   0.408E-04 0.832E-06
  15 F= -.31893770E+03 E0= -.31893281E+03  d E =-.181422E-01  mag=    44.0000
       N       E                     dE             d eps       ncg     rms          ort
SDA:   1    -0.311626804229E+03    0.73109E+01    0.00000E+00  8112   0.199E+02 0.000E+00
CGA:   2    -0.316080537599E+03   -0.44537E+01   -0.44721E+01  8112   0.158E+02-0.544E-01
CGA:   3    -0.317720579227E+03   -0.16400E+01   -0.16542E+01  8112   0.787E+01-0.290E-02
CGA:   4    -0.318504728932E+03   -0.78415E+00   -0.76588E+00  8112   0.291E+01-0.181E+00
CGA:   5    -0.318777457586E+03   -0.27273E+00   -0.27620E+00  8112   0.816E+00 0.150E-01
CGA:   6    -0.318888229545E+03   -0.11077E+00   -0.11087E+00  8112   0.294E+00-0.760E-02
CGA:   7    -0.318919208429E+03   -0.30979E-01   -0.31032E-01  8112   0.176E+00 0.705E-03
CGA:   8    -0.318934208563E+03   -0.15000E-01   -0.15162E-01  8112   0.607E-01-0.202E-05
CGA:   9    -0.318942377901E+03   -0.81693E-02   -0.81707E-02  8112   0.243E-01-0.682E-04
CGA:  10    -0.318945906013E+03   -0.35281E-02   -0.35183E-02  8112   0.915E-02 0.322E-03
CGA:  11    -0.318947625410E+03   -0.17194E-02   -0.17156E-02  8112   0.510E-02 0.553E-04
CGA:  12    -0.318948243482E+03   -0.61807E-03   -0.61835E-03  8112   0.370E-02 0.163E-04
CGA:  13    -0.318948624230E+03   -0.38075E-03   -0.38101E-03  8112   0.175E-02 0.607E-05
CGA:  14    -0.318948891640E+03   -0.26741E-03   -0.26707E-03  8112   0.738E-03 0.109E-04
CGA:  15    -0.318949018020E+03   -0.12638E-03   -0.12615E-03  8112   0.385E-03 0.480E-05
CGA:  16    -0.318949070200E+03   -0.52180E-04   -0.52174E-04  8112   0.260E-03 0.147E-05
CGA:  17    -0.318949092914E+03   -0.22713E-04   -0.22735E-04  8112   0.954E-04 0.627E-06
CGA:  18    -0.318949107899E+03   -0.14985E-04   -0.14964E-04  8112   0.382E-04 0.723E-06
CGA:  19    -0.318949113859E+03   -0.59597E-05   -0.59475E-05  8112   0.200E-04 0.507E-06
  16 F= -.31894911E+03 E0= -.31894420E+03  d E =-.114176E-01  mag=    44.0000
       N       E                     dE             d eps       ncg     rms          ort
SDA:   1    -0.314773216156E+03    0.41759E+01    0.00000E+00  8112   0.110E+02 0.000E+00
CGA:   2    -0.317474851717E+03   -0.27016E+01   -0.26782E+01  8112   0.862E+01 0.180E+00
CGA:   3    -0.318373695124E+03   -0.89884E+00   -0.87208E+00  8112   0.399E+01-0.180E+00
CGA:   4    -0.318767580324E+03   -0.39389E+00   -0.39351E+00  8112   0.133E+01-0.125E-01
CGA:   5    -0.318904886438E+03   -0.13731E+00   -0.13690E+00  8112   0.370E+00-0.224E-02
CGA:   6    -0.318956921768E+03   -0.52035E-01   -0.52017E-01  8112   0.119E+00 0.117E-02
CGA:   7    -0.318971783522E+03   -0.14862E-01   -0.14848E-01  8112   0.732E-01-0.796E-03
CGA:   8    -0.318977678254E+03   -0.58947E-02   -0.59395E-02  8112   0.241E-01-0.113E-03
CGA:   9    -0.318981346008E+03   -0.36678E-02   -0.36660E-02  8112   0.779E-02 0.512E-04
CGA:  10    -0.318982565258E+03   -0.12193E-02   -0.12185E-02  8112   0.527E-02 0.201E-04
CGA:  11    -0.318983101970E+03   -0.53671E-03   -0.53668E-03  8112   0.292E-02 0.260E-05
CGA:  12    -0.318983454928E+03   -0.35296E-03   -0.35310E-03  8112   0.139E-02 0.901E-05
CGA:  13    -0.318983669508E+03   -0.21458E-03   -0.21441E-03  8112   0.702E-03 0.639E-05
CGA:  14    -0.318983779318E+03   -0.10981E-03   -0.10975E-03  8112   0.488E-03 0.253E-05
CGA:  15    -0.318983823380E+03   -0.44062E-04   -0.44120E-04  8112   0.227E-03 0.146E-05
CGA:  16    -0.318983857903E+03   -0.34523E-04   -0.34475E-04  8112   0.731E-04 0.214E-05
CGA:  17    -0.318983869762E+03   -0.11859E-04   -0.11835E-04  8112   0.456E-04 0.793E-06
CGA:  18    -0.318983873911E+03   -0.41497E-05   -0.41667E-05  8112   0.197E-04 0.377E-06
  17 F= -.31898387E+03 E0= -.31897888E+03  d E =-.347601E-01  mag=    44.0000
       N       E                     dE             d eps       ncg     rms          ort
SDA:   1    -0.318065930919E+03    0.91794E+00    0.00000E+00  8112   0.242E+01 0.000E+00
CGA:   2    -0.318636561217E+03   -0.57063E+00   -0.57699E+00  8112   0.228E+01-0.543E-01
CGA:   3    -0.318864734314E+03   -0.22817E+00   -0.23074E+00  8112   0.728E+00 0.166E-01
CGA:   4    -0.318936057715E+03   -0.71323E-01   -0.71097E-01  8112   0.384E+00-0.223E-02
CGA:   5    -0.318971308145E+03   -0.35250E-01   -0.35327E-01  8112   0.755E-01-0.157E-03
CGA:   6    -0.318982641174E+03   -0.11333E-01   -0.11334E-01  8112   0.246E-01-0.286E-04
CGA:   7    -0.318986116177E+03   -0.34750E-02   -0.34738E-02  8112   0.123E-01 0.731E-04
CGA:   8    -0.318987164606E+03   -0.10484E-02   -0.10463E-02  8112   0.574E-02-0.810E-06
CGA:   9    -0.318987907380E+03   -0.74277E-03   -0.74277E-03  8112   0.160E-02-0.330E-05
CGA:  10    -0.318988163853E+03   -0.25647E-03   -0.25632E-03  8112   0.999E-03 0.395E-05
CGA:  11    -0.318988281163E+03   -0.11731E-03   -0.11737E-03  8112   0.576E-03 0.284E-05
CGA:  12    -0.318988341485E+03   -0.60323E-04   -0.60331E-04  8112   0.300E-03 0.422E-06
CGA:  13    -0.318988389026E+03   -0.47541E-04   -0.47557E-04  8112   0.143E-03-0.660E-06
CGA:  14    -0.318988411005E+03   -0.21978E-04   -0.21973E-04  8112   0.920E-04 0.193E-06
CGA:  15    -0.318988420237E+03   -0.92321E-05   -0.92518E-05  8112   0.529E-04 0.580E-06
  18 F= -.31898842E+03 E0= -.31898344E+03  d E =-.454633E-02  mag=    44.0000
       N       E                     dE             d eps       ncg     rms          ort
SDA:   1    -0.284708196981E+03    0.34280E+02    0.00000E+00  8112   0.873E+02 0.000E+00
CGA:   2    -0.306470941053E+03   -0.21763E+02   -0.22507E+02  8112   0.105E+03-0.544E+01
CGA:   3    -0.314376323447E+03   -0.79054E+01   -0.80543E+01  8112   0.223E+02 0.199E+01
CGA:   4    -0.317674665374E+03   -0.32983E+01   -0.32914E+01  8112   0.652E+01 0.336E+00
CGA:   5    -0.318476660582E+03   -0.80200E+00   -0.79266E+00  8112   0.304E+01-0.241E+00
CGA:   6    -0.318744844091E+03   -0.26818E+00   -0.27225E+00  8112   0.101E+01 0.853E-02
CGA:   7    -0.318879891485E+03   -0.13505E+00   -0.13500E+00  8112   0.509E+00 0.154E-01
CGA:   8    -0.318926105496E+03   -0.46214E-01   -0.46393E-01  8112   0.185E+00 0.184E-02
CGA:   9    -0.318954159600E+03   -0.28054E-01   -0.27964E-01  8112   0.837E-01 0.263E-02
CGA:  10    -0.318963291889E+03   -0.91323E-02   -0.91735E-02  8112   0.446E-01 0.574E-03
CGA:  11    -0.318970025507E+03   -0.67336E-02   -0.67274E-02  8112   0.253E-01 0.222E-03
CGA:  12    -0.318973191375E+03   -0.31659E-02   -0.31685E-02  8112   0.116E-01 0.243E-03
CGA:  13    -0.318975185262E+03   -0.19939E-02   -0.19851E-02  8112   0.825E-02 0.167E-03
CGA:  14    -0.318976227380E+03   -0.10421E-02   -0.10427E-02  8112   0.312E-02 0.407E-04
CGA:  15    -0.318976670361E+03   -0.44298E-03   -0.44278E-03  8112   0.210E-02 0.184E-04
CGA:  16    -0.318976926962E+03   -0.25660E-03   -0.25685E-03  8112   0.626E-03 0.189E-04
CGA:  17    -0.318977021423E+03   -0.94461E-04   -0.94299E-04  8112   0.292E-03 0.888E-05
CGA:  18    -0.318977060840E+03   -0.39417E-04   -0.39415E-04  8112   0.148E-03 0.385E-05
CGA:  19    -0.318977079195E+03   -0.18355E-04   -0.18371E-04  8112   0.587E-04 0.144E-05
CGA:  20    -0.318977087809E+03   -0.86139E-05   -0.86066E-05  8112   0.341E-04 0.528E-06
  19 F= -.31897709E+03 E0= -.31897268E+03  d E =0.113324E-01  mag=    44.0000
       N       E                     dE             d eps       ncg     rms          ort
SDA:   1    -0.393419654991E+02    0.27964E+03    0.00000E+00  8112   0.926E+04 0.000E+00
CGA:   2    -0.230965561066E+03   -0.19162E+03   -0.53679E+03  8112   0.754E+03-0.520E+03
CGA:   3    -0.267861948143E+03   -0.36896E+02   -0.32706E+02  8112   0.160E+03 0.224E+03
CGA:   4    -0.281523726140E+03   -0.13662E+02   -0.11444E+02  8112   0.193E+03 0.117E+02
CGA:   5    -0.300431175221E+03   -0.18907E+02   -0.17218E+02  8112   0.115E+03-0.344E+00
CGA:   6    -0.304370867838E+03   -0.39397E+01   -0.69421E+01  8112   0.115E+03-0.140E+02
CGA:   7    -0.309791967672E+03   -0.54211E+01   -0.62898E+01  8112   0.434E+02-0.736E+01
CGA:   8    -0.312166285913E+03   -0.23743E+01   -0.25802E+01  8112   0.211E+02-0.256E+01
CGA:   9    -0.313827212083E+03   -0.16609E+01   -0.13457E+01  8112   0.742E+01 0.261E+01
CGA:  10    -0.314358428306E+03   -0.53122E+00   -0.45388E+00  8112   0.121E+02 0.654E+00
CGA:  11    -0.315347478486E+03   -0.98905E+00   -0.10057E+01  8112   0.122E+02 0.924E-01
CGA:  12    -0.315600188001E+03   -0.25271E+00   -0.38305E+00  8112   0.259E+01-0.292E+01
CGA:  13    -0.315841133774E+03   -0.24095E+00   -0.23921E+00  8112   0.259E+01 0.482E-01
CGA:  14    -0.316014811131E+03   -0.17368E+00   -0.17340E+00  8112   0.164E+01 0.186E-01
CGA:  15    -0.316213928351E+03   -0.19912E+00   -0.19796E+00  8112   0.109E+01 0.378E-01
CGA:  16    -0.316299374008E+03   -0.85446E-01   -0.86121E-01  8112   0.501E+00 0.528E-02
CGA:  17    -0.316353423340E+03   -0.54049E-01   -0.53919E-01  8112   0.282E+00 0.115E-01
CGA:  18    -0.316392135470E+03   -0.38712E-01   -0.38142E-01  8112   0.228E+00 0.130E-01
CGA:  19    -0.316417063866E+03   -0.24928E-01   -0.25203E-01  8112   0.103E+00-0.479E-01
CGA:  20    -0.316426946525E+03   -0.98827E-02   -0.10101E-01  8112   0.131E+00-0.720E-02
CGA:  21    -0.316434949076E+03   -0.80026E-02   -0.83576E-02  8112   0.588E-01 0.142E-03
CGA:  22    -0.316441172870E+03   -0.62238E-02   -0.62175E-02  8112   0.368E-01 0.968E-03
CGA:  23    -0.316444455681E+03   -0.32828E-02   -0.32050E-02  8112   0.342E-01-0.138E-02
CGA:  24    -0.316447577280E+03   -0.31216E-02   -0.31205E-02  8112   0.192E-01-0.769E-04
CGA:  25    -0.316448695907E+03   -0.11186E-02   -0.11441E-02  8112   0.131E-01-0.129E-03
CGA:  26    -0.316450177987E+03   -0.14821E-02   -0.14870E-02  8112   0.886E-02-0.220E-03
CGA:  27    -0.316450872926E+03   -0.69494E-03   -0.68232E-03  8112   0.817E-02-0.113E-03
CGA:  28    -0.316451455046E+03   -0.58212E-03   -0.59439E-03  8112   0.517E-02 0.866E-04
CGA:  29    -0.316451970616E+03   -0.51557E-03   -0.51530E-03  8112   0.390E-02 0.129E-03
CGA:  30    -0.316452226167E+03   -0.25555E-03   -0.23509E-03  8112   0.306E-02 0.109E-03
CGA:  31    -0.316452517949E+03   -0.29178E-03   -0.29104E-03  8112   0.371E-02-0.111E-03
SDA:  32    -0.316452695359E+03   -0.17741E-03   -0.19818E-03  8112   0.224E-02-0.106E-03
CGA:  33    -0.316452905230E+03   -0.20987E-03   -0.20987E-03  8112   0.123E-02-0.220E-05
CGA:  34    -0.316453043519E+03   -0.13829E-03   -0.13747E-03  8112   0.149E-02 0.246E-04
CGA:  35    -0.316453190244E+03   -0.14673E-03   -0.14719E-03  8112   0.150E-02-0.106E-03
CGA:  36    -0.316453328025E+03   -0.13778E-03   -0.13781E-03  8112   0.768E-03-0.823E-05
CGA:  37    -0.316453399031E+03   -0.71006E-04   -0.71293E-04  8112   0.950E-03 0.102E-03
CGA:  38    -0.316453483947E+03   -0.84916E-04   -0.67938E-04  8112   0.501E-03 0.387E-04
CGA:  39    -0.316453545862E+03   -0.61915E-04   -0.69479E-04  8112   0.114E-02-0.182E-03
CGA:  40    -0.316453557249E+03   -0.11387E-04   -0.76021E-05  8112   0.104E-02 0.360E-03
CGA:  41    -0.316453594996E+03   -0.37747E-04   -0.42184E-04  8112   0.266E-03-0.135E-04
CGA:  42    -0.316453608977E+03   -0.13982E-04   -0.14727E-04  8112   0.241E-03-0.151E-05
CGA:  43    -0.316453625053E+03   -0.16076E-04   -0.15150E-04  8112   0.212E-03-0.382E-05
CGA:  44    -0.316453637953E+03   -0.12900E-04   -0.12084E-04  8112   0.286E-03 0.576E-06
CGA:  45    -0.316453649329E+03   -0.11377E-04   -0.10935E-04  8112   0.231E-03 0.108E-04
CGA:  46    -0.316453657634E+03   -0.83043E-05   -0.88845E-05  8112   0.142E-03-0.784E-05
  20 F= -.31645366E+03 E0= -.31644674E+03  d E =0.252343E+01  mag=    44.0000
       N       E                     dE             d eps       ncg     rms          ort
SDA:   1    -0.265626336549E+03    0.50827E+02    0.00000E+00  8112   0.112E+04 0.000E+00
CGA:   2    -0.294567867227E+03   -0.28942E+02   -0.51541E+02  8112   0.716E+02 0.421E+02
CGA:   3    -0.306688733108E+03   -0.12121E+02   -0.14560E+02  8112   0.950E+02-0.133E+02
CGA:   4    -0.312689279804E+03   -0.60005E+01   -0.72683E+01  8112   0.714E+02-0.711E+02
CGA:   5    -0.315837033620E+03   -0.31478E+01   -0.30031E+01  8112   0.102E+02 0.122E+02
CGA:   6    -0.317186867849E+03   -0.13498E+01   -0.13804E+01  8112   0.170E+02-0.649E+00
CGA:   7    -0.317774891825E+03   -0.58802E+00   -0.63619E+00  8112   0.392E+01-0.452E+00
CGA:   8    -0.318029899132E+03   -0.25501E+00   -0.26338E+00  8112   0.310E+01 0.291E+00
CGA:   9    -0.318362420480E+03   -0.33252E+00   -0.32906E+00  8112   0.130E+01 0.100E+00
CGA:  10    -0.318493827270E+03   -0.13141E+00   -0.13028E+00  8112   0.114E+01 0.428E-01
CGA:  11    -0.318589617797E+03   -0.95791E-01   -0.95814E-01  8112   0.356E+00 0.491E-01
CGA:  12    -0.318636907220E+03   -0.47289E-01   -0.46267E-01  8112   0.264E+00 0.185E-01
CGA:  13    -0.318659120932E+03   -0.22214E-01   -0.22222E-01  8112   0.641E-01 0.110E-02
CGA:  14    -0.318669270164E+03   -0.10149E-01   -0.10049E-01  8112   0.578E-01 0.130E-02
CGA:  15    -0.318675819867E+03   -0.65497E-02   -0.64841E-02  8112   0.178E-01 0.198E-02
CGA:  16    -0.318678502717E+03   -0.26829E-02   -0.26656E-02  8112   0.120E-01 0.268E-03
CGA:  17    -0.318680663463E+03   -0.21607E-02   -0.21568E-02  8112   0.583E-02 0.445E-04
CGA:  18    -0.318681349436E+03   -0.68597E-03   -0.68496E-03  8112   0.280E-02 0.320E-04
CGA:  19    -0.318681788288E+03   -0.43885E-03   -0.43899E-03  8112   0.155E-02-0.333E-05
CGA:  20    -0.318681964999E+03   -0.17671E-03   -0.17674E-03  8112   0.855E-03-0.404E-05
CGA:  21    -0.318682065558E+03   -0.10056E-03   -0.10059E-03  8112   0.357E-03-0.213E-05
CGA:  22    -0.318682116377E+03   -0.50819E-04   -0.50624E-04  8112   0.211E-03 0.459E-05
CGA:  23    -0.318682151569E+03   -0.35193E-04   -0.34781E-04  8112   0.111E-03 0.688E-05
CGA:  24    -0.318682167545E+03   -0.15976E-04   -0.15885E-04  8112   0.629E-04 0.273E-05
CGA:  25    -0.318682178781E+03   -0.11236E-04   -0.11171E-04  8112   0.487E-04 0.985E-06
CGA:  26    -0.318682184696E+03   -0.59152E-05   -0.59121E-05  8112   0.285E-04 0.338E-06
  21 F= -.31868218E+03 E0= -.31867742E+03  d E =-.222853E+01  mag=    44.0000
       N       E                     dE             d eps       ncg     rms          ort
SDA:   1    -0.315927929537E+03    0.27542E+01    0.00000E+00  8112   0.931E+01 0.000E+00
CGA:   2    -0.317553681508E+03   -0.16258E+01   -0.16264E+01  8112   0.595E+01 0.993E-02
CGA:   3    -0.318240983169E+03   -0.68730E+00   -0.68732E+00  8112   0.375E+01 0.506E-01
CGA:   4    -0.318666896547E+03   -0.42591E+00   -0.42559E+00  8112   0.106E+01-0.500E-01
CGA:   5    -0.318797997042E+03   -0.13110E+00   -0.13121E+00  8112   0.364E+00-0.584E-02
CGA:   6    -0.318843732886E+03   -0.45736E-01   -0.45719E-01  8112   0.123E+00 0.994E-03
CGA:   7    -0.318859150183E+03   -0.15417E-01   -0.15415E-01  8112   0.632E-01 0.176E-03
CGA:   8    -0.318864991303E+03   -0.58411E-02   -0.58383E-02  8112   0.234E-01-0.246E-04
CGA:   9    -0.318868629192E+03   -0.36379E-02   -0.36294E-02  8112   0.787E-02 0.166E-03
CGA:  10    -0.318869811165E+03   -0.11820E-02   -0.11816E-02  8112   0.492E-02 0.106E-04
CGA:  11    -0.318870407207E+03   -0.59604E-03   -0.59598E-03  8112   0.270E-02 0.189E-04
CGA:  12    -0.318870709536E+03   -0.30233E-03   -0.30241E-03  8112   0.106E-02 0.596E-05
CGA:  13    -0.318870905637E+03   -0.19610E-03   -0.19584E-03  8112   0.564E-03 0.368E-05
CGA:  14    -0.318870976260E+03   -0.70623E-04   -0.70616E-04  8112   0.333E-03 0.217E-05
CGA:  15    -0.318871021142E+03   -0.44881E-04   -0.44858E-04  8112   0.199E-03 0.171E-05
CGA:  16    -0.318871044876E+03   -0.23735E-04   -0.23736E-04  8112   0.692E-04 0.374E-06
CGA:  17    -0.318871058035E+03   -0.13159E-04   -0.13161E-04  8112   0.414E-04-0.352E-07
CGA:  18    -0.318871062411E+03   -0.43758E-05   -0.43767E-05  8112   0.225E-04 0.341E-07
  22 F= -.31887106E+03 E0= -.31886637E+03  d E =-.188878E+00  mag=    44.0000
       N       E                     dE             d eps       ncg     rms          ort
SDA:   1    -0.317028139867E+03    0.18429E+01    0.00000E+00  8112   0.569E+01 0.000E+00
CGA:   2    -0.318115222661E+03   -0.10871E+01   -0.10858E+01  8112   0.402E+01 0.246E-01
CGA:   3    -0.318552401096E+03   -0.43718E+00   -0.43713E+00  8112   0.235E+01-0.191E-01
CGA:   4    -0.318825249965E+03   -0.27285E+00   -0.27244E+00  8112   0.599E+00-0.136E-01
CGA:   5    -0.318900205516E+03   -0.74956E-01   -0.74950E-01  8112   0.214E+00-0.188E-02
CGA:   6    -0.318927317890E+03   -0.27112E-01   -0.27113E-01  8112   0.709E-01 0.722E-03
CGA:   7    -0.318935834002E+03   -0.85161E-02   -0.85171E-02  8112   0.381E-01 0.674E-04
CGA:   8    -0.318939557852E+03   -0.37239E-02   -0.37240E-02  8112   0.129E-01 0.634E-05
CGA:   9    -0.318941633601E+03   -0.20757E-02   -0.20734E-02  8112   0.481E-02 0.505E-04
CGA:  10    -0.318942330541E+03   -0.69694E-03   -0.69676E-03  8112   0.290E-02 0.899E-05
CGA:  11    -0.318942679802E+03   -0.34926E-03   -0.34937E-03  8112   0.166E-02 0.809E-05
CGA:  12    -0.318942880023E+03   -0.20022E-03   -0.20026E-03  8112   0.620E-03 0.312E-05
CGA:  13    -0.318942996552E+03   -0.11653E-03   -0.11648E-03  8112   0.368E-03 0.717E-06
CGA:  14    -0.318943040829E+03   -0.44277E-04   -0.44294E-04  8112   0.208E-03 0.138E-05
CGA:  15    -0.318943068132E+03   -0.27303E-04   -0.27300E-04  8112   0.112E-03 0.196E-05
CGA:  16    -0.318943082693E+03   -0.14561E-04   -0.14562E-04  8112   0.402E-04 0.154E-05
CGA:  17    -0.318943089512E+03   -0.68198E-05   -0.67781E-05  8112   0.226E-04 0.113E-05
  23 F= -.31894309E+03 E0= -.31893845E+03  d E =-.720271E-01  mag=    44.0000
       N       E                     dE             d eps       ncg     rms          ort
SDA:   1    -0.318414076885E+03    0.52901E+00    0.00000E+00  8112   0.141E+01 0.000E+00
CGA:   2    -0.318820633829E+03   -0.40656E+00   -0.40630E+00  8112   0.946E+00 0.192E-02
CGA:   3    -0.318907090887E+03   -0.86457E-01   -0.87411E-01  8112   0.461E+00-0.397E-02
CGA:   4    -0.318961197829E+03   -0.54107E-01   -0.54116E-01  8112   0.112E+00 0.116E-03
CGA:   5    -0.318974735813E+03   -0.13538E-01   -0.13524E-01  8112   0.386E-01-0.361E-03
CGA:   6    -0.318979797622E+03   -0.50618E-02   -0.50621E-02  8112   0.139E-01 0.611E-04
CGA:   7    -0.318981353370E+03   -0.15557E-02   -0.15557E-02  8112   0.692E-02-0.861E-06
CGA:   8    -0.318982097517E+03   -0.74415E-03   -0.74384E-03  8112   0.227E-02-0.517E-05
CGA:   9    -0.318982455814E+03   -0.35830E-03   -0.35821E-03  8112   0.101E-02 0.276E-05
CGA:  10    -0.318982601822E+03   -0.14601E-03   -0.14598E-03  8112   0.617E-03 0.295E-05
CGA:  11    -0.318982670216E+03   -0.68394E-04   -0.68414E-04  8112   0.327E-03 0.763E-06
CGA:  12    -0.318982722456E+03   -0.52240E-04   -0.52275E-04  8112   0.143E-03-0.131E-05
CGA:  13    -0.318982745165E+03   -0.22709E-04   -0.22735E-04  8112   0.941E-04-0.103E-05
CGA:  14    -0.318982756014E+03   -0.10849E-04   -0.10862E-04  8112   0.455E-04 0.656E-06
CGA:  15    -0.318982761456E+03   -0.54415E-05   -0.54663E-05  8112   0.174E-04 0.164E-05
  24 F= -.31898276E+03 E0= -.31897812E+03  d E =-.396719E-01  mag=    44.0000
       N       E                     dE             d eps       ncg     rms          ort
SDA:   1    -0.315121299455E+03    0.38615E+01    0.00000E+00  8112   0.972E+01 0.000E+00
CGA:   2    -0.317986069343E+03   -0.28648E+01   -0.28467E+01  8112   0.435E+01 0.130E+00
CGA:   3    -0.318731019598E+03   -0.74495E+00   -0.74269E+00  8112   0.175E+01 0.494E-01
CGA:   4    -0.318906853665E+03   -0.17583E+00   -0.17535E+00  8112   0.738E+00-0.515E-02
CGA:   5    -0.318981129421E+03   -0.74276E-01   -0.73701E-01  8112   0.220E+00-0.183E-02
CGA:   6    -0.319013089466E+03   -0.31960E-01   -0.31949E-01  8112   0.760E-01 0.105E-02
CGA:   7    -0.319022763556E+03   -0.96741E-02   -0.96723E-02  8112   0.302E-01-0.444E-04
CGA:   8    -0.319027073047E+03   -0.43095E-02   -0.43092E-02  8112   0.168E-01 0.361E-04
CGA:   9    -0.319028692561E+03   -0.16195E-02   -0.16206E-02  8112   0.708E-02 0.871E-05
CGA:  10    -0.319029898939E+03   -0.12064E-02   -0.12056E-02  8112   0.290E-02 0.216E-04
CGA:  11    -0.319030383696E+03   -0.48476E-03   -0.48472E-03  8112   0.194E-02 0.687E-06
CGA:  12    -0.319030616730E+03   -0.23303E-03   -0.23299E-03  8112   0.123E-02-0.334E-05
CGA:  13    -0.319030769697E+03   -0.15297E-03   -0.15295E-03  8112   0.406E-03-0.150E-05
CGA:  14    -0.319030841898E+03   -0.72201E-04   -0.71975E-04  8112   0.250E-03 0.571E-05
CGA:  15    -0.319030871986E+03   -0.30088E-04   -0.30185E-04  8112   0.928E-04 0.471E-05
CGA:  16    -0.319030882510E+03   -0.10524E-04   -0.10597E-04  8112   0.531E-04 0.269E-05
CGA:  17    -0.319030890296E+03   -0.77858E-05   -0.77756E-05  8112   0.150E-04 0.228E-05
  25 F= -.31903089E+03 E0= -.31902624E+03  d E =-.481288E-01  mag=    44.0000
       N       E                     dE             d eps       ncg     rms          ort
SDA:   1    -0.318962061019E+03    0.68821E-01    0.00000E+00  8112   0.181E+00 0.000E+00
CGA:   2    -0.319004012306E+03   -0.41951E-01   -0.41951E-01  8112   0.192E+00 0.120E-04
CGA:   3    -0.319019730368E+03   -0.15718E-01   -0.15716E-01  8112   0.598E-01-0.168E-03
CGA:   4    -0.319028144248E+03   -0.84139E-02   -0.84139E-02  8112   0.171E-01 0.682E-04
CGA:   5    -0.319030191529E+03   -0.20473E-02   -0.20463E-02  8112   0.558E-02-0.234E-04
CGA:   6    -0.319030911990E+03   -0.72046E-03   -0.72044E-03  8112   0.217E-02-0.477E-05
CGA:   7    -0.319031134447E+03   -0.22246E-03   -0.22233E-03  8112   0.105E-02-0.222E-05
CGA:   8    -0.319031259133E+03   -0.12469E-03   -0.12467E-03  8112   0.301E-03-0.467E-06
CGA:   9    -0.319031308060E+03   -0.48926E-04   -0.48896E-04  8112   0.148E-03 0.114E-05
CGA:  10    -0.319031327428E+03   -0.19369E-04   -0.19371E-04  8112   0.849E-04 0.312E-06
CGA:  11    -0.319031336891E+03   -0.94627E-05   -0.94582E-05  8112   0.428E-04-0.164E-06
  26 F= -.31903134E+03 E0= -.31902670E+03  d E =-.446595E-03  mag=    44.0000
       N       E                     dE             d eps       ncg     rms          ort
SDA:   1    -0.318911016664E+03    0.12031E+00    0.00000E+00  8112   0.316E+00 0.000E+00
CGA:   2    -0.318983338350E+03   -0.72322E-01   -0.72181E-01  8112   0.289E+00 0.143E-02
CGA:   3    -0.319008830675E+03   -0.25492E-01   -0.25259E-01  8112   0.115E+00 0.135E-03
CGA:   4    -0.319024134446E+03   -0.15304E-01   -0.15303E-01  8112   0.284E-01-0.502E-04
CGA:   5    -0.319027820537E+03   -0.36861E-02   -0.36867E-02  8112   0.102E-01 0.287E-04
CGA:   6    -0.319028997501E+03   -0.11770E-02   -0.11764E-02  8112   0.397E-02-0.116E-04
CGA:   7    -0.319029435748E+03   -0.43825E-03   -0.43799E-03  8112   0.194E-02-0.449E-05
CGA:   8    -0.319029651499E+03   -0.21575E-03   -0.21580E-03  8112   0.548E-03 0.567E-06
CGA:   9    -0.319029747648E+03   -0.96150E-04   -0.96119E-04  8112   0.264E-03 0.806E-06
CGA:  10    -0.319029777504E+03   -0.29856E-04   -0.29861E-04  8112   0.155E-03 0.148E-06
CGA:  11    -0.319029797542E+03   -0.20038E-04   -0.20037E-04  8112   0.738E-04-0.151E-06
CGA:  12    -0.319029808261E+03   -0.10718E-04   -0.10719E-04  8112   0.343E-04-0.884E-07
CGA:  13    -0.319029813954E+03   -0.56937E-05   -0.56874E-05  8112   0.249E-04 0.208E-06
  27 F= -.31902981E+03 E0= -.31902518E+03  d E =0.152294E-02  mag=    44.0000
       N       E                     dE             d eps       ncg     rms          ort
SDA:   1    -0.318833252803E+03    0.19656E+00    0.00000E+00  8112   0.488E+00 0.000E+00
CGA:   2    -0.318969829776E+03   -0.13658E+00   -0.13640E+00  8112   0.347E+00 0.128E-02
CGA:   3    -0.319000829854E+03   -0.31000E-01   -0.30659E-01  8112   0.161E+00 0.178E-04
CGA:   4    -0.319019838113E+03   -0.19008E-01   -0.19003E-01  8112   0.372E-01-0.779E-04
CGA:   5    -0.319024845259E+03   -0.50071E-02   -0.50074E-02  8112   0.114E-01 0.357E-04
CGA:   6    -0.319026270997E+03   -0.14257E-02   -0.14255E-02  8112   0.525E-02-0.450E-05
CGA:   7    -0.319026816315E+03   -0.54532E-03   -0.54515E-03  8112   0.222E-02-0.158E-05
CGA:   8    -0.319027063210E+03   -0.24689E-03   -0.24696E-03  8112   0.729E-03-0.134E-06
CGA:   9    -0.319027182114E+03   -0.11890E-03   -0.11893E-03  8112   0.320E-03-0.906E-06
CGA:  10    -0.319027223484E+03   -0.41371E-04   -0.41377E-04  8112   0.207E-03 0.723E-06
CGA:  11    -0.319027248082E+03   -0.24598E-04   -0.24609E-04  8112   0.106E-03 0.636E-06
CGA:  12    -0.319027263775E+03   -0.15693E-04   -0.15691E-04  8112   0.514E-04 0.237E-06
CGA:  13    -0.319027272996E+03   -0.92210E-05   -0.92193E-05  8112   0.340E-04 0.373E-07
  28 F= -.31902727E+03 E0= -.31902262E+03  d E =0.254096E-02  mag=    44.0000
       N       E                     dE             d eps       ncg     rms          ort
SDA:   1    -0.313250603134E+03    0.57767E+01    0.00000E+00  8112   0.143E+02 0.000E+00
CGA:   2    -0.317507330217E+03   -0.42567E+01   -0.42528E+01  8112   0.674E+01 0.271E-01
CGA:   3    -0.318533028537E+03   -0.10257E+01   -0.10266E+01  8112   0.330E+01-0.600E-01
CGA:   4    -0.318805609527E+03   -0.27258E+00   -0.27828E+00  8112   0.120E+01-0.643E-01
CGA:   5    -0.318932398572E+03   -0.12679E+00   -0.12669E+00  8112   0.290E+00-0.985E-03
CGA:   6    -0.318974805728E+03   -0.42407E-01   -0.42412E-01  8112   0.120E+00-0.364E-03
CGA:   7    -0.318988942219E+03   -0.14136E-01   -0.14147E-01  8112   0.476E-01 0.148E-03
CGA:   8    -0.318993978064E+03   -0.50358E-02   -0.50443E-02  8112   0.259E-01 0.391E-04
CGA:   9    -0.318997030432E+03   -0.30524E-02   -0.30490E-02  8112   0.817E-02-0.569E-04
CGA:  10    -0.318998482708E+03   -0.14523E-02   -0.14508E-02  8112   0.492E-02 0.290E-04
CGA:  11    -0.318999068130E+03   -0.58542E-03   -0.58540E-03  8112   0.322E-02 0.382E-05
CGA:  12    -0.318999466239E+03   -0.39811E-03   -0.39822E-03  8112   0.165E-02 0.648E-05
CGA:  13    -0.318999739983E+03   -0.27374E-03   -0.27359E-03  8112   0.788E-03 0.508E-05
CGA:  14    -0.318999847298E+03   -0.10732E-03   -0.10732E-03  8112   0.529E-03 0.161E-05
CGA:  15    -0.318999908371E+03   -0.61073E-04   -0.61102E-04  8112   0.249E-03 0.146E-05
CGA:  16    -0.318999937228E+03   -0.28857E-04   -0.28890E-04  8112   0.831E-04 0.147E-05
CGA:  17    -0.318999951285E+03   -0.14057E-04   -0.14022E-04  8112   0.470E-04 0.109E-05
CGA:  18    -0.318999956085E+03   -0.48001E-05   -0.48146E-05  8112   0.227E-04 0.394E-06
  29 F= -.31899996E+03 E0= -.31899527E+03  d E =0.273169E-01  mag=    44.0000
       N       E                     dE             d eps       ncg     rms          ort
SDA:   1    -0.316664063745E+03    0.23359E+01    0.00000E+00  8112   0.618E+01 0.000E+00
CGA:   2    -0.318202383251E+03   -0.15383E+01   -0.15386E+01  8112   0.367E+01-0.244E-02
CGA:   3    -0.318742146918E+03   -0.53976E+00   -0.53962E+00  8112   0.173E+01 0.133E-01
CGA:   4    -0.318898785220E+03   -0.15664E+00   -0.15557E+00  8112   0.664E+00-0.103E-01
CGA:   5    -0.318963268754E+03   -0.64484E-01   -0.64381E-01  8112   0.208E+00-0.679E-03
CGA:   6    -0.318989707300E+03   -0.26439E-01   -0.26441E-01  8112   0.648E-01 0.117E-03
CGA:   7    -0.318999207642E+03   -0.95003E-02   -0.95009E-02  8112   0.281E-01-0.334E-04
CGA:   8    -0.319001986976E+03   -0.27793E-02   -0.27796E-02  8112   0.159E-01-0.202E-05
CGA:   9    -0.319003778705E+03   -0.17917E-02   -0.17923E-02  8112   0.503E-02 0.997E-05
CGA:  10    -0.319004566842E+03   -0.78814E-03   -0.78801E-03  8112   0.252E-02 0.601E-05
CGA:  11    -0.319004919424E+03   -0.35258E-03   -0.35254E-03  8112   0.175E-02 0.680E-05
CGA:  12    -0.319005095544E+03   -0.17612E-03   -0.17617E-03  8112   0.810E-03 0.103E-05
CGA:  13    -0.319005222594E+03   -0.12705E-03   -0.12706E-03  8112   0.429E-03-0.502E-06
CGA:  14    -0.319005287157E+03   -0.64564E-04   -0.64546E-04  8112   0.237E-03 0.945E-06
CGA:  15    -0.319005313853E+03   -0.26696E-04   -0.26717E-04  8112   0.158E-03 0.868E-06
CGA:  16    -0.319005332854E+03   -0.19001E-04   -0.19014E-04  8112   0.518E-04 0.943E-06
CGA:  17    -0.319005341028E+03   -0.81741E-05   -0.81603E-05  8112   0.267E-04 0.604E-06
  30 F= -.31900534E+03 E0= -.31900053E+03  d E =-.538494E-02  mag=    44.0000
       N       E                     dE             d eps       ncg     rms          ort
SDA:   1    -0.318199340190E+03    0.80599E+00    0.00000E+00  8112   0.228E+01 0.000E+00
CGA:   2    -0.318670171864E+03   -0.47083E+00   -0.47038E+00  8112   0.224E+01 0.948E-02
CGA:   3    -0.318857085977E+03   -0.18691E+00   -0.18746E+00  8112   0.877E+00-0.284E-01
CGA:   4    -0.318971746537E+03   -0.11466E+00   -0.11465E+00  8112   0.247E+00-0.154E-02
CGA:   5    -0.319001935630E+03   -0.30189E-01   -0.30198E-01  8112   0.834E-01 0.298E-03
CGA:   6    -0.319011788048E+03   -0.98524E-02   -0.98517E-02  8112   0.361E-01-0.159E-04
CGA:   7    -0.319015092113E+03   -0.33041E-02   -0.33105E-02  8112   0.156E-01 0.642E-05
CGA:   8    -0.319017119573E+03   -0.20275E-02   -0.20275E-02  8112   0.436E-02 0.441E-05
CGA:   9    -0.319017826507E+03   -0.70693E-03   -0.70677E-03  8112   0.258E-02 0.424E-05
CGA:  10    -0.319018076801E+03   -0.25029E-03   -0.25034E-03  8112   0.128E-02 0.461E-06
CGA:  11    -0.319018246932E+03   -0.17013E-03   -0.17013E-03  8112   0.598E-03 0.535E-06
CGA:  12    -0.319018339071E+03   -0.92138E-04   -0.92115E-04  8112   0.309E-03 0.937E-06
CGA:  13    -0.319018380280E+03   -0.41209E-04   -0.41208E-04  8112   0.232E-03 0.116E-05
CGA:  14    -0.319018406813E+03   -0.26533E-04   -0.26547E-04  8112   0.106E-03 0.742E-06
CGA:  15    -0.319018422258E+03   -0.15445E-04   -0.15442E-04  8112   0.485E-04 0.244E-06
CGA:  16    -0.319018429642E+03   -0.73836E-05   -0.73791E-05  8112   0.321E-04 0.218E-06
  31 F= -.31901843E+03 E0= -.31901366E+03  d E =-.130886E-01  mag=    44.0000
       N       E                     dE             d eps       ncg     rms          ort
SDA:   1    -0.318716421739E+03    0.30200E+00    0.00000E+00  8112   0.751E+00 0.000E+00
CGA:   2    -0.318933848100E+03   -0.21743E+00   -0.21744E+00  8112   0.411E+00-0.456E-04
CGA:   3    -0.318990864674E+03   -0.57017E-01   -0.57017E-01  8112   0.169E+00 0.836E-03
CGA:   4    -0.319007889175E+03   -0.17025E-01   -0.16976E-01  8112   0.664E-01-0.195E-03
CGA:   5    -0.319013720420E+03   -0.58312E-02   -0.58337E-02  8112   0.222E-01-0.597E-05
CGA:   6    -0.319016429943E+03   -0.27095E-02   -0.27101E-02  8112   0.666E-02 0.234E-04
CGA:   7    -0.319017460885E+03   -0.10309E-02   -0.10311E-02  8112   0.227E-02-0.455E-05
CGA:   8    -0.319017743874E+03   -0.28299E-03   -0.28299E-03  8112   0.152E-02-0.322E-06
CGA:   9    -0.319017883704E+03   -0.13983E-03   -0.13985E-03  8112   0.503E-03-0.250E-06
CGA:  10    -0.319017963412E+03   -0.79708E-04   -0.79705E-04  8112   0.236E-03 0.191E-06
CGA:  11    -0.319017999907E+03   -0.36494E-04   -0.36477E-04  8112   0.143E-03 0.833E-06
CGA:  12    -0.319018017419E+03   -0.17512E-04   -0.17515E-04  8112   0.102E-03 0.227E-06
CGA:  13    -0.319018029191E+03   -0.11772E-04   -0.11772E-04  8112   0.450E-04 0.246E-08
CGA:  14    -0.319018036715E+03   -0.75243E-05   -0.75224E-05  8112   0.197E-04 0.578E-07
  32 F= -.31901804E+03 E0= -.31901324E+03  d E =0.392927E-03  mag=    44.0000
       N       E                     dE             d eps       ncg     rms          ort
SDA:   1    -0.316323377094E+03    0.26947E+01    0.00000E+00  8112   0.661E+01 0.000E+00
CGA:   2    -0.318287043850E+03   -0.19637E+01   -0.19637E+01  8112   0.399E+01 0.226E-02
CGA:   3    -0.318727806587E+03   -0.44076E+00   -0.44398E+00  8112   0.197E+01 0.108E-01
CGA:   4    -0.318909650339E+03   -0.18184E+00   -0.17910E+00  8112   0.672E+00-0.941E-02
CGA:   5    -0.318976305662E+03   -0.66655E-01   -0.66565E-01  8112   0.180E+00-0.234E-03
CGA:   6    -0.319001985755E+03   -0.25680E-01   -0.25677E-01  8112   0.594E-01 0.378E-03
CGA:   7    -0.319010004312E+03   -0.80186E-02   -0.80183E-02  8112   0.324E-01-0.341E-04
CGA:   8    -0.319012706408E+03   -0.27021E-02   -0.26994E-02  8112   0.124E-01-0.396E-05
CGA:   9    -0.319014402947E+03   -0.16965E-02   -0.16965E-02  8112   0.432E-02 0.100E-04
CGA:  10    -0.319015117680E+03   -0.71473E-03   -0.71464E-03  8112   0.255E-02 0.296E-05
CGA:  11    -0.319015395138E+03   -0.27746E-03   -0.27771E-03  8112   0.164E-02 0.483E-05
CGA:  12    -0.319015597906E+03   -0.20277E-03   -0.20283E-03  8112   0.874E-03 0.408E-05
CGA:  13    -0.319015730614E+03   -0.13271E-03   -0.13268E-03  8112   0.400E-03 0.180E-05
CGA:  14    -0.319015795735E+03   -0.65121E-04   -0.65085E-04  8112   0.311E-03 0.126E-05
CGA:  15    -0.319015823674E+03   -0.27939E-04   -0.27982E-04  8112   0.125E-03 0.773E-06
CGA:  16    -0.319015842117E+03   -0.18443E-04   -0.18432E-04  8112   0.479E-04 0.934E-06
CGA:  17    -0.319015848995E+03   -0.68776E-05   -0.68724E-05  8112   0.250E-04 0.670E-06
  33 F= -.31901585E+03 E0= -.31901104E+03  d E =0.218772E-02  mag=    44.0000
       N       E                     dE             d eps       ncg     rms          ort
SDA:   1    -0.303939619517E+03    0.15076E+02    0.00000E+00  8112   0.445E+02 0.000E+00
CGA:   2    -0.312129245038E+03   -0.81896E+01   -0.79986E+01  8112   0.289E+02 0.286E+01
CGA:   3    -0.315857838143E+03   -0.37286E+01   -0.35686E+01  8112   0.199E+02-0.299E+01
CGA:   4    -0.317878207125E+03   -0.20204E+01   -0.19290E+01  8112   0.478E+01-0.543E+00
CGA:   5    -0.318463431754E+03   -0.58522E+00   -0.58547E+00  8112   0.181E+01 0.148E-01
CGA:   6    -0.318634343027E+03   -0.17091E+00   -0.17119E+00  8112   0.100E+01-0.138E-01
CGA:   7    -0.318706589437E+03   -0.72246E-01   -0.75278E-01  8112   0.574E+00-0.131E-01
CGA:   8    -0.318755889041E+03   -0.49300E-01   -0.50705E-01  8112   0.129E+00 0.391E-02
CGA:   9    -0.318778469922E+03   -0.22581E-01   -0.22369E-01  8112   0.690E-01 0.353E-02
CGA:  10    -0.318784808957E+03   -0.63390E-02   -0.63932E-02  8112   0.482E-01 0.125E-03
CGA:  11    -0.318789596702E+03   -0.47877E-02   -0.48203E-02  8112   0.162E-01 0.342E-03
CGA:  12    -0.318792380659E+03   -0.27840E-02   -0.27716E-02  8112   0.755E-02 0.215E-03
CGA:  13    -0.318793496166E+03   -0.11155E-02   -0.11143E-02  8112   0.568E-02 0.438E-04
CGA:  14    -0.318794047247E+03   -0.55108E-03   -0.55327E-03  8112   0.327E-02 0.157E-04
CGA:  15    -0.318794427780E+03   -0.38053E-03   -0.38076E-03  8112   0.125E-02 0.120E-04
CGA:  16    -0.318794656673E+03   -0.22889E-03   -0.22850E-03  8112   0.551E-03 0.694E-05
CGA:  17    -0.318794742529E+03   -0.85856E-04   -0.85675E-04  8112   0.355E-03 0.637E-05
CGA:  18    -0.318794771927E+03   -0.29398E-04   -0.29543E-04  8112   0.162E-03 0.215E-05
CGA:  19    -0.318794796615E+03   -0.24688E-04   -0.24633E-04  8112   0.540E-04 0.237E-05
CGA:  20    -0.318794806717E+03   -0.10102E-04   -0.10067E-04  8112   0.263E-04 0.613E-06
CGA:  21    -0.318794811381E+03   -0.46641E-05   -0.46665E-05  8112   0.179E-04-0.789E-07
  34 F= -.31879481E+03 E0= -.31879021E+03  d E =0.221038E+00  mag=    44.0000
       N       E                     dE             d eps       ncg     rms          ort
SDA:   1    -0.315860732759E+03    0.29341E+01    0.00000E+00  8112   0.914E+01 0.000E+00
CGA:   2    -0.317772409930E+03   -0.19117E+01   -0.19087E+01  8112   0.470E+01 0.363E-01
CGA:   3    -0.318631835659E+03   -0.85943E+00   -0.85994E+00  8112   0.184E+01-0.919E-02
CGA:   4    -0.318870657953E+03   -0.23882E+00   -0.23860E+00  8112   0.722E+00-0.110E-01
CGA:   5    -0.318935948688E+03   -0.65291E-01   -0.65848E-01  8112   0.330E+00-0.257E-02
CGA:   6    -0.318968531915E+03   -0.32583E-01   -0.32685E-01  8112   0.110E+00 0.245E-03
CGA:   7    -0.318983219205E+03   -0.14687E-01   -0.14687E-01  8112   0.318E-01-0.129E-03
CGA:   8    -0.318988632246E+03   -0.54130E-02   -0.54093E-02  8112   0.166E-01 0.811E-04
CGA:   9    -0.318990157864E+03   -0.15256E-02   -0.15244E-02  8112   0.893E-02 0.268E-05
CGA:  10    -0.318991303502E+03   -0.11456E-02   -0.11455E-02  8112   0.363E-02-0.629E-05
CGA:  11    -0.318991867859E+03   -0.56436E-03   -0.56409E-03  8112   0.163E-02 0.930E-05
CGA:  12    -0.318992105262E+03   -0.23740E-03   -0.23738E-03  8112   0.131E-02 0.279E-05
CGA:  13    -0.318992229417E+03   -0.12415E-03   -0.12421E-03  8112   0.502E-03 0.203E-05
CGA:  14    -0.318992312446E+03   -0.83029E-04   -0.82991E-04  8112   0.272E-03 0.114E-05
CGA:  15    -0.318992353050E+03   -0.40604E-04   -0.40620E-04  8112   0.142E-03-0.112E-05
CGA:  16    -0.318992367858E+03   -0.14808E-04   -0.14783E-04  8112   0.910E-04-0.851E-06
CGA:  17    -0.318992379354E+03   -0.11496E-04   -0.11490E-04  8112   0.292E-04-0.856E-06
CGA:  18    -0.318992384039E+03   -0.46843E-05   -0.46888E-05  8112   0.166E-04-0.155E-06
  35 F= -.31899238E+03 E0= -.31898770E+03  d E =-.197573E+00  mag=    44.0000
       N       E                     dE             d eps       ncg     rms          ort
SDA:   1    -0.318530216034E+03    0.46216E+00    0.00000E+00  8112   0.143E+01 0.000E+00
CGA:   2    -0.318822768177E+03   -0.29255E+00   -0.29238E+00  8112   0.984E+00 0.247E-02
CGA:   3    -0.318926020068E+03   -0.10325E+00   -0.10345E+00  8112   0.651E+00-0.129E-02
CGA:   4    -0.318992478162E+03   -0.66458E-01   -0.66359E-01  8112   0.169E+00-0.870E-03
CGA:   5    -0.319014334225E+03   -0.21856E-01   -0.21855E-01  8112   0.551E-01-0.858E-04
CGA:   6    -0.319021227763E+03   -0.68935E-02   -0.68947E-02  8112   0.218E-01 0.622E-04
CGA:   7    -0.319023445002E+03   -0.22172E-02   -0.22170E-02  8112   0.121E-01 0.521E-06
CGA:   8    -0.319024662307E+03   -0.12173E-02   -0.12172E-02  8112   0.309E-02 0.307E-05
CGA:   9    -0.319025237118E+03   -0.57481E-03   -0.57460E-03  8112   0.148E-02 0.347E-05
CGA:  10    -0.319025390400E+03   -0.15328E-03   -0.15328E-03  8112   0.953E-03-0.204E-06
CGA:  11    -0.319025508341E+03   -0.11794E-03   -0.11794E-03  8112   0.408E-03-0.422E-06
CGA:  12    -0.319025563785E+03   -0.55445E-04   -0.55441E-04  8112   0.182E-03 0.784E-06
CGA:  13    -0.319025592073E+03   -0.28288E-04   -0.28257E-04  8112   0.143E-03 0.134E-05
CGA:  14    -0.319025605241E+03   -0.13168E-04   -0.13187E-04  8112   0.535E-04 0.465E-06
CGA:  15    -0.319025615143E+03   -0.99025E-05   -0.99313E-05  8112   0.298E-04-0.530E-06
  36 F= -.31902562E+03 E0= -.31902089E+03  d E =-.332311E-01  mag=    44.0000
       N       E                     dE             d eps       ncg     rms          ort
SDA:   1    -0.318706723520E+03    0.31888E+00    0.00000E+00  8112   0.956E+00 0.000E+00
CGA:   2    -0.318887916608E+03   -0.18119E+00   -0.18081E+00  8112   0.846E+00 0.604E-02
CGA:   3    -0.318961678357E+03   -0.73762E-01   -0.73095E-01  8112   0.386E+00-0.307E-02
CGA:   4    -0.319013192435E+03   -0.51514E-01   -0.51515E-01  8112   0.110E+00-0.282E-03
CGA:   5    -0.319027287458E+03   -0.14095E-01   -0.14095E-01  8112   0.394E-01 0.566E-04
CGA:   6    -0.319031690576E+03   -0.44031E-02   -0.44048E-02  8112   0.174E-01 0.308E-04
CGA:   7    -0.319033279458E+03   -0.15889E-02   -0.15882E-02  8112   0.731E-02 0.198E-05
CGA:   8    -0.319034219356E+03   -0.93990E-03   -0.93991E-03  8112   0.199E-02 0.512E-05
CGA:   9    -0.319034558027E+03   -0.33867E-03   -0.33863E-03  8112   0.139E-02 0.980E-06
CGA:  10    -0.319034676214E+03   -0.11819E-03   -0.11826E-03  8112   0.553E-03-0.684E-07
CGA:  11    -0.319034761528E+03   -0.85315E-04   -0.85313E-04  8112   0.287E-03 0.167E-07
CGA:  12    -0.319034800218E+03   -0.38690E-04   -0.38688E-04  8112   0.136E-03 0.381E-06
CGA:  13    -0.319034816955E+03   -0.16736E-04   -0.16742E-04  8112   0.104E-03 0.678E-06
CGA:  14    -0.319034828892E+03   -0.11937E-04   -0.11945E-04  8112   0.346E-04 0.476E-06
CGA:  15    -0.319034835119E+03   -0.62278E-05   -0.62546E-05  8112   0.244E-04-0.534E-06
  37 F= -.31903484E+03 E0= -.31903010E+03  d E =-.921998E-02  mag=    44.0000
       N       E                     dE             d eps       ncg     rms          ort
SDA:   1    -0.319010190456E+03    0.24638E-01    0.00000E+00  8112   0.770E-01 0.000E+00
CGA:   2    -0.319021449020E+03   -0.11259E-01   -0.11253E-01  8112   0.927E-01 0.241E-03
CGA:   3    -0.319030146835E+03   -0.86978E-02   -0.86807E-02  8112   0.234E-01-0.532E-04
CGA:   4    -0.319034136799E+03   -0.39900E-02   -0.39895E-02  8112   0.653E-02 0.118E-04
CGA:   5    -0.319035010584E+03   -0.87378E-03   -0.87378E-03  8112   0.307E-02 0.463E-05
CGA:   6    -0.319035272847E+03   -0.26226E-03   -0.26255E-03  8112   0.114E-02 0.267E-05
CGA:   7    -0.319035400021E+03   -0.12717E-03   -0.12720E-03  8112   0.419E-03 0.168E-05
CGA:   8    -0.319035457001E+03   -0.56980E-04   -0.56974E-04  8112   0.143E-03 0.772E-06
CGA:   9    -0.319035477474E+03   -0.20473E-04   -0.20474E-04  8112   0.103E-03-0.895E-07
CGA:  10    -0.319035486521E+03   -0.90471E-05   -0.90441E-05  8112   0.355E-04-0.102E-06
  38 F= -.31903549E+03 E0= -.31903075E+03  d E =-.651401E-03  mag=    44.0000
       N       E                     dE             d eps       ncg     rms          ort
SDA:   1    -0.318931512149E+03    0.10397E+00    0.00000E+00  8112   0.277E+00 0.000E+00
CGA:   2    -0.318993615229E+03   -0.62103E-01   -0.62085E-01  8112   0.285E+00 0.165E-03
CGA:   3    -0.319017880155E+03   -0.24265E-01   -0.24336E-01  8112   0.104E+00-0.333E-03
CGA:   4    -0.319028658452E+03   -0.10778E-01   -0.10765E-01  8112   0.393E-01-0.109E-03
CGA:   5    -0.319033379848E+03   -0.47214E-02   -0.47220E-02  8112   0.860E-02 0.331E-04
CGA:   6    -0.319034704664E+03   -0.13248E-02   -0.13247E-02  8112   0.312E-02 0.696E-05
CGA:   7    -0.319035015777E+03   -0.31111E-03   -0.31128E-03  8112   0.191E-02 0.259E-05
CGA:   8    -0.319035208994E+03   -0.19322E-03   -0.19321E-03  8112   0.466E-03 0.683E-06
CGA:   9    -0.319035290199E+03   -0.81205E-04   -0.81224E-04  8112   0.232E-03-0.397E-06
CGA:  10    -0.319035318406E+03   -0.28207E-04   -0.28207E-04  8112   0.130E-03 0.475E-07
CGA:  11    -0.319035332877E+03   -0.14472E-04   -0.14477E-04  8112   0.824E-04 0.260E-06
CGA:  12    -0.319035343325E+03   -0.10448E-04   -0.10449E-04  8112   0.289E-04 0.469E-06
CGA:  13    -0.319035348857E+03   -0.55315E-05   -0.54966E-05  8112   0.185E-04 0.579E-06
  39 F= -.31903535E+03 E0= -.31903061E+03  d E =0.137664E-03  mag=    44.0000
       N       E                     dE             d eps       ncg     rms          ort
SDA:   1    -0.319023249735E+03    0.12094E-01    0.00000E+00  8112   0.400E-01 0.000E+00
CGA:   2    -0.319027979850E+03   -0.47301E-02   -0.47289E-02  8112   0.462E-01-0.398E-04
CGA:   3    -0.319033391456E+03   -0.54116E-02   -0.54123E-02  8112   0.107E-01 0.188E-04
CGA:   4    -0.319035098693E+03   -0.17072E-02   -0.17075E-02  8112   0.310E-02-0.923E-05
CGA:   5    -0.319035522168E+03   -0.42347E-03   -0.42349E-03  8112   0.105E-02-0.372E-05
CGA:   6    -0.319035637402E+03   -0.11523E-03   -0.11516E-03  8112   0.527E-03-0.293E-05
CGA:   7    -0.319035684500E+03   -0.47097E-04   -0.47055E-04  8112   0.198E-03-0.111E-05
CGA:   8    -0.319035709014E+03   -0.24514E-04   -0.24514E-04  8112   0.639E-04-0.672E-08
CGA:   9    -0.319035719286E+03   -0.10272E-04   -0.10264E-04  8112   0.262E-04 0.260E-06
CGA:  10    -0.319035722741E+03   -0.34549E-05   -0.34546E-05  8112   0.188E-04 0.150E-06
  40 F= -.31903572E+03 E0= -.31903098E+03  d E =-.373884E-03  mag=    44.0000
       N       E                     dE             d eps       ncg     rms          ort
SDA:   1    -0.318923645694E+03    0.11207E+00    0.00000E+00  8112   0.274E+00 0.000E+00
CGA:   2    -0.319004805151E+03   -0.81159E-01   -0.81130E-01  8112   0.158E+00 0.187E-03
CGA:   3    -0.319025470445E+03   -0.20665E-01   -0.20661E-01  8112   0.656E-01-0.356E-03
CGA:   4    -0.319031525879E+03   -0.60554E-02   -0.60677E-02  8112   0.271E-01-0.178E-04
CGA:   5    -0.319033970501E+03   -0.24446E-02   -0.24437E-02  8112   0.822E-02-0.114E-04
CGA:   6    -0.319035044603E+03   -0.10741E-02   -0.10741E-02  8112   0.240E-02-0.110E-04
CGA:   7    -0.319035416333E+03   -0.37173E-03   -0.37172E-03  8112   0.961E-03-0.114E-06
CGA:   8    -0.319035508952E+03   -0.92620E-04   -0.92637E-04  8112   0.577E-03 0.301E-06
CGA:   9    -0.319035573754E+03   -0.64802E-04   -0.64811E-04  8112   0.172E-03 0.565E-06
CGA:  10    -0.319035601815E+03   -0.28060E-04   -0.28040E-04  8112   0.916E-04 0.626E-06
CGA:  11    -0.319035614578E+03   -0.12764E-04   -0.12765E-04  8112   0.615E-04-0.255E-06
CGA:  12    -0.319035620766E+03   -0.61875E-05   -0.61789E-05  8112   0.336E-04-0.276E-06
  41 F= -.31903562E+03 E0= -.31903088E+03  d E =0.101975E-03  mag=    44.0000
       N       E                     dE             d eps       ncg     rms          ort
SDA:   1    -0.318938950955E+03    0.96664E-01    0.00000E+00  8112   0.254E+00 0.000E+00
CGA:   2    -0.318996608532E+03   -0.57658E-01   -0.57591E-01  8112   0.271E+00 0.650E-03
CGA:   3    -0.319019995506E+03   -0.23387E-01   -0.23349E-01  8112   0.102E+00-0.209E-03
CGA:   4    -0.319030482272E+03   -0.10487E-01   -0.10459E-01  8112   0.342E-01-0.190E-03
CGA:   5    -0.319034413641E+03   -0.39314E-02   -0.39329E-02  8112   0.789E-02 0.319E-04
CGA:   6    -0.319035642110E+03   -0.12285E-02   -0.12287E-02  8112   0.352E-02-0.552E-05
CGA:   7    -0.319035939906E+03   -0.29780E-03   -0.29796E-03  8112   0.169E-02-0.352E-06
CGA:   8    -0.319036148160E+03   -0.20825E-03   -0.20826E-03  8112   0.481E-03 0.522E-06
CGA:   9    -0.319036222012E+03   -0.73852E-04   -0.73855E-04  8112   0.232E-03-0.821E-07
CGA:  10    -0.319036248295E+03   -0.26282E-04   -0.26287E-04  8112   0.141E-03 0.262E-06
CGA:  11    -0.319036263123E+03   -0.14828E-04   -0.14835E-04  8112   0.631E-04 0.244E-06
CGA:  12    -0.319036272848E+03   -0.97247E-05   -0.97209E-05  8112   0.295E-04 0.155E-06
  42 F= -.31903627E+03 E0= -.31903153E+03  d E =-.652082E-03  mag=    44.0000
       N       E                     dE             d eps       ncg     rms          ort
SDA:   1    -0.318845751796E+03    0.19051E+00    0.00000E+00  8112   0.477E+00 0.000E+00
CGA:   2    -0.318977103128E+03   -0.13135E+00   -0.13103E+00  8112   0.403E+00 0.241E-02
CGA:   3    -0.319012431099E+03   -0.35328E-01   -0.34822E-01  8112   0.179E+00-0.517E-04
CGA:   4    -0.319030447280E+03   -0.18016E-01   -0.17989E-01  8112   0.495E-01-0.138E-03
CGA:   5    -0.319036152012E+03   -0.57047E-02   -0.57072E-02  8112   0.145E-01 0.512E-04
CGA:   6    -0.319038204492E+03   -0.20525E-02   -0.20526E-02  8112   0.554E-02-0.357E-05
CGA:   7    -0.319038742560E+03   -0.53807E-03   -0.53787E-03  8112   0.325E-02-0.376E-06
CGA:   8    -0.319039083001E+03   -0.34044E-03   -0.34052E-03  8112   0.809E-03 0.576E-06
CGA:   9    -0.319039219087E+03   -0.13609E-03   -0.13611E-03  8112   0.382E-03-0.551E-06
CGA:  10    -0.319039261666E+03   -0.42579E-04   -0.42593E-04  8112   0.240E-03 0.447E-06
CGA:  11    -0.319039287879E+03   -0.26213E-04   -0.26225E-04  8112   0.115E-03 0.550E-06
CGA:  12    -0.319039304737E+03   -0.16858E-04   -0.16850E-04  8112   0.523E-04 0.527E-06
CGA:  13    -0.319039313285E+03   -0.85486E-05   -0.85370E-05  8112   0.404E-04 0.372E-06
  43 F= -.31903931E+03 E0= -.31903457E+03  d E =-.304044E-02  mag=    44.0000
       N       E                     dE             d eps       ncg     rms          ort
SDA:   1    -0.318864710973E+03    0.17459E+00    0.00000E+00  8112   0.450E+00 0.000E+00
CGA:   2    -0.318980192892E+03   -0.11548E+00   -0.11505E+00  8112   0.459E+00 0.357E-02
CGA:   3    -0.319015866423E+03   -0.35674E-01   -0.35065E-01  8112   0.165E+00 0.111E-02
CGA:   4    -0.319036047106E+03   -0.20181E-01   -0.20170E-01  8112   0.427E-01-0.336E-03
CGA:   5    -0.319041364424E+03   -0.53173E-02   -0.53186E-02  8112   0.139E-01 0.698E-04
CGA:   6    -0.319043019819E+03   -0.16554E-02   -0.16552E-02  8112   0.662E-02-0.329E-05
CGA:   7    -0.319043611727E+03   -0.59191E-03   -0.59132E-03  8112   0.285E-02-0.513E-06
CGA:   8    -0.319043955577E+03   -0.34385E-03   -0.34387E-03  8112   0.816E-03 0.769E-06
CGA:   9    -0.319044087516E+03   -0.13194E-03   -0.13196E-03  8112   0.406E-03-0.541E-06
CGA:  10    -0.319044127520E+03   -0.40004E-04   -0.40017E-04  8112   0.251E-03 0.191E-06
CGA:  11    -0.319044158489E+03   -0.30969E-04   -0.30972E-04  8112   0.965E-04 0.514E-06
CGA:  12    -0.319044174797E+03   -0.16308E-04   -0.16287E-04  8112   0.598E-04 0.523E-06
CGA:  13    -0.319044182230E+03   -0.74334E-05   -0.74359E-05  8112   0.426E-04 0.311E-06
  44 F= -.31904418E+03 E0= -.31903943E+03  d E =-.486894E-02  mag=    44.0000
       N       E                     dE             d eps       ncg     rms          ort
SDA:   1    -0.318972139017E+03    0.72036E-01    0.00000E+00  8112   0.186E+00 0.000E+00
CGA:   2    -0.319019578930E+03   -0.47440E-01   -0.47269E-01  8112   0.213E+00 0.141E-02
CGA:   3    -0.319035810417E+03   -0.16231E-01   -0.16026E-01  8112   0.651E-01 0.691E-03
CGA:   4    -0.319043330309E+03   -0.75199E-02   -0.75148E-02  8112   0.205E-01-0.966E-04
CGA:   5    -0.319045797603E+03   -0.24673E-02   -0.24679E-02  8112   0.524E-02 0.259E-04
CGA:   6    -0.319046497609E+03   -0.70001E-03   -0.70001E-03  8112   0.257E-02-0.114E-05
CGA:   7    -0.319046730288E+03   -0.23268E-03   -0.23256E-03  8112   0.122E-02-0.662E-06
[...]
CGA:   3    -0.319003222611E+03   -0.89361E-01   -0.89740E-01  8112   0.448E+00-0.765E-02
CGA:   4    -0.319049986251E+03   -0.46764E-01   -0.46752E-01  8112   0.127E+00-0.178E-03
CGA:   5    -0.319064733214E+03   -0.14747E-01   -0.14751E-01  8112   0.341E-01 0.903E-04
CGA:   6    -0.319069677800E+03   -0.49446E-02   -0.49438E-02  8112   0.132E-01 0.363E-04
CGA:   7    -0.319071137128E+03   -0.14593E-02   -0.14589E-02  8112   0.766E-02-0.530E-05
CGA:   8    -0.319071818113E+03   -0.68099E-03   -0.68123E-03  8112   0.230E-02 0.129E-06
CGA:   9    -0.319072160669E+03   -0.34256E-03   -0.34252E-03  8112   0.891E-03 0.143E-05
CGA:  10    -0.319072288997E+03   -0.12833E-03   -0.12832E-03  8112   0.500E-03 0.890E-06
CGA:  11    -0.319072348242E+03   -0.59245E-04   -0.59257E-04  8112   0.326E-03 0.929E-06
CGA:  12    -0.319072382563E+03   -0.34321E-04   -0.34343E-04  8112   0.149E-03 0.739E-06
CGA:  13    -0.319072408908E+03   -0.26344E-04   -0.26320E-04  8112   0.701E-04 0.523E-06
CGA:  14    -0.319072419944E+03   -0.11036E-04   -0.11028E-04  8112   0.517E-04 0.320E-06
CGA:  15    -0.319072424804E+03   -0.48609E-05   -0.48698E-05  8112   0.243E-04 0.223E-06
  68 F= -.31907242E+03 E0= -.31906802E+03  d E =-.159486E-02  mag=    44.0000
       N       E                     dE             d eps       ncg     rms          ort
SDA:   1    -0.318906959750E+03    0.16546E+00    0.00000E+00  8112   0.437E+00 0.000E+00
CGA:   2    -0.319008995816E+03   -0.10204E+00   -0.10180E+00  8112   0.307E+00 0.187E-02
CGA:   3    -0.319049701112E+03   -0.40705E-01   -0.40696E-01  8112   0.107E+00-0.105E-02
CGA:   4    -0.319064141996E+03   -0.14441E-01   -0.14441E-01  8112   0.327E-01-0.101E-03
CGA:   5    -0.319067190085E+03   -0.30481E-02   -0.30508E-02  8112   0.167E-01-0.790E-05
CGA:   6    -0.319068779057E+03   -0.15890E-02   -0.15887E-02  8112   0.480E-02-0.781E-05
CGA:   7    -0.319069453572E+03   -0.67451E-03   -0.67457E-03  8112   0.168E-02-0.384E-05
CGA:   8    -0.319069692390E+03   -0.23882E-03   -0.23879E-03  8112   0.763E-03 0.259E-05
CGA:   9    -0.319069775706E+03   -0.83315E-04   -0.83340E-04  8112   0.432E-03 0.107E-05
CGA:  10    -0.319069819318E+03   -0.43612E-04   -0.43617E-04  8112   0.190E-03 0.273E-06
CGA:  11    -0.319069848717E+03   -0.29399E-04   -0.29400E-04  8112   0.758E-04-0.424E-07
CGA:  12    -0.319069861878E+03   -0.13161E-04   -0.13151E-04  8112   0.570E-04 0.247E-06
CGA:  13    -0.319069867594E+03   -0.57158E-05   -0.57236E-05  8112   0.337E-04 0.236E-06
  69 F= -.31906987E+03 E0= -.31906547E+03  d E =0.255721E-02  mag=    44.0000
       N       E                     dE             d eps       ncg     rms          ort
SDA:   1    -0.318859947907E+03    0.20991E+00    0.00000E+00  8112   0.539E+00 0.000E+00
CGA:   2    -0.319000454899E+03   -0.14051E+00   -0.14035E+00  8112   0.449E+00 0.113E-02
CGA:   3    -0.319044061066E+03   -0.43606E-01   -0.43501E-01  8112   0.203E+00-0.613E-03
CGA:   4    -0.319062475699E+03   -0.18415E-01   -0.18425E-01  8112   0.682E-01-0.942E-04
CGA:   5    -0.319069962484E+03   -0.74868E-02   -0.74899E-02  8112   0.156E-01 0.369E-04
CGA:   6    -0.319072387897E+03   -0.24254E-02   -0.24255E-02  8112   0.545E-02-0.330E-05
CGA:   7    -0.319073061226E+03   -0.67333E-03   -0.67335E-03  8112   0.328E-02 0.670E-06
CGA:   8    -0.319073340469E+03   -0.27924E-03   -0.27937E-03  8112   0.109E-02 0.839E-07
CGA:   9    -0.319073493110E+03   -0.15264E-03   -0.15264E-03  8112   0.407E-03 0.450E-06
CGA:  10    -0.319073553598E+03   -0.60489E-04   -0.60478E-04  8112   0.217E-03 0.498E-06
CGA:  11    -0.319073580303E+03   -0.26705E-04   -0.26709E-04  8112   0.135E-03 0.407E-06
CGA:  12    -0.319073594313E+03   -0.14010E-04   -0.14020E-04  8112   0.697E-04 0.375E-06
CGA:  13    -0.319073605323E+03   -0.11010E-04   -0.11002E-04  8112   0.306E-04 0.289E-06
CGA:  14    -0.319073610495E+03   -0.51724E-05   -0.51698E-05  8112   0.211E-04 0.721E-07
  70 F= -.31907361E+03 E0= -.31906923E+03  d E =-.374290E-02  mag=    44.0000
       N       E                     dE             d eps       ncg     rms          ort
SDA:   1    -0.317416262503E+03    0.16573E+01    0.00000E+00  8112   0.410E+01 0.000E+00
CGA:   2    -0.318564291184E+03   -0.11480E+01   -0.11467E+01  8112   0.345E+01 0.846E-02
CGA:   3    -0.318860725086E+03   -0.29643E+00   -0.29639E+00  8112   0.148E+01-0.434E-01
CGA:   4    -0.319006790975E+03   -0.14607E+00   -0.14595E+00  8112   0.441E+00-0.236E-02
CGA:   5    -0.319057131082E+03   -0.50340E-01   -0.50427E-01  8112   0.109E+00 0.146E-02
CGA:   6    -0.319074004733E+03   -0.16874E-01   -0.16877E-01  8112   0.377E-01-0.966E-04
CGA:   7    -0.319078703147E+03   -0.46984E-02   -0.46983E-02  8112   0.227E-01-0.982E-06
CGA:   8    -0.319080595114E+03   -0.18920E-02   -0.18948E-02  8112   0.736E-02-0.762E-05
CGA:   9    -0.319081670489E+03   -0.10754E-02   -0.10753E-02  8112   0.261E-02 0.972E-06
CGA:  10    -0.319082083006E+03   -0.41252E-03   -0.41242E-03  8112   0.149E-02 0.322E-05
CGA:  11    -0.319082257536E+03   -0.17453E-03   -0.17459E-03  8112   0.927E-03 0.266E-05
CGA:  12    -0.319082360037E+03   -0.10250E-03   -0.10257E-03  8112   0.499E-03 0.249E-05
CGA:  13    -0.319082435759E+03   -0.75722E-04   -0.75679E-04  8112   0.219E-03 0.220E-05
CGA:  14    -0.319082473152E+03   -0.37393E-04   -0.37365E-04  8112   0.138E-03 0.703E-06
CGA:  15    -0.319082487946E+03   -0.14794E-04   -0.14805E-04  8112   0.806E-04 0.369E-06
CGA:  16    -0.319082496829E+03   -0.88830E-05   -0.88942E-05  8112   0.303E-04 0.479E-06
  71 F= -.31908250E+03 E0= -.31907818E+03  d E =-.888633E-02  mag=    44.0000
       N       E                     dE             d eps       ncg     rms          ort
SDA:   1    -0.305212166257E+03    0.13870E+02    0.00000E+00  8112   0.343E+02 0.000E+00
CGA:   2    -0.314821368636E+03   -0.96092E+01   -0.95527E+01  8112   0.247E+02 0.596E+00
CGA:   3    -0.317429889226E+03   -0.26085E+01   -0.24832E+01  8112   0.105E+02-0.126E+01
CGA:   4    -0.318543202481E+03   -0.11133E+01   -0.11026E+01  8112   0.365E+01-0.137E+00
CGA:   5    -0.318858228738E+03   -0.31503E+00   -0.28459E+00  8112   0.991E+00 0.193E+00
CGA:   6    -0.319010763630E+03   -0.15253E+00   -0.15217E+00  8112   0.416E+00 0.175E-01
CGA:   7    -0.319053168263E+03   -0.42405E-01   -0.42537E-01  8112   0.244E+00 0.357E-03
CGA:   8    -0.319074785545E+03   -0.21617E-01   -0.21762E-01  8112   0.907E-01 0.903E-05
CGA:   9    -0.319085564572E+03   -0.10779E-01   -0.10786E-01  8112   0.326E-01 0.227E-03
CGA:  10    -0.319090751786E+03   -0.51872E-02   -0.51809E-02  8112   0.157E-01 0.154E-03
CGA:  11    -0.319092911625E+03   -0.21598E-02   -0.21591E-02  8112   0.102E-01 0.880E-04
CGA:  12    -0.319093872300E+03   -0.96068E-03   -0.96399E-03  8112   0.594E-02 0.224E-04
CGA:  13    -0.319094816522E+03   -0.94422E-03   -0.94277E-03  8112   0.214E-02 0.402E-04
CGA:  14    -0.319095232545E+03   -0.41602E-03   -0.41533E-03  8112   0.133E-02 0.103E-04
CGA:  15    -0.319095428661E+03   -0.19612E-03   -0.19604E-03  8112   0.540E-03 0.565E-05
CGA:  16    -0.319095498062E+03   -0.69401E-04   -0.69433E-04  8112   0.383E-03 0.413E-05
CGA:  17    -0.319095534343E+03   -0.36280E-04   -0.36403E-04  8112   0.135E-03 0.264E-05
CGA:  18    -0.319095552068E+03   -0.17725E-04   -0.17728E-04  8112   0.428E-04 0.147E-05
CGA:  19    -0.319095560477E+03   -0.84092E-05   -0.83916E-05  8112   0.170E-04 0.277E-06
  72 F= -.31909556E+03 E0= -.31909142E+03  d E =-.130636E-01  mag=    44.0000
       N       E                     dE             d eps       ncg     rms          ort
SDA:   1    -0.307448042384E+03    0.11648E+02    0.00000E+00  8112   0.287E+02 0.000E+00
CGA:   2    -0.315487004511E+03   -0.80390E+01   -0.80802E+01  8112   0.225E+02-0.224E+00
CGA:   3    -0.317792087465E+03   -0.23051E+01   -0.23011E+01  8112   0.799E+01-0.977E-01
CGA:   4    -0.318633245624E+03   -0.84116E+00   -0.83895E+00  8112   0.315E+01-0.453E-01
CGA:   5    -0.318921706908E+03   -0.28846E+00   -0.28463E+00  8112   0.907E+00 0.571E-02
CGA:   6    -0.319038966740E+03   -0.11726E+00   -0.11735E+00  8112   0.311E+00 0.512E-02
CGA:   7    -0.319083362480E+03   -0.44396E-01   -0.44377E-01  8112   0.114E+00 0.214E-02
CGA:   8    -0.319096750152E+03   -0.13388E-01   -0.13409E-01  8112   0.622E-01 0.317E-03
CGA:   9    -0.319103063329E+03   -0.63132E-02   -0.63122E-02  8112   0.275E-01-0.128E-04
CGA:  10    -0.319106267677E+03   -0.32043E-02   -0.32091E-02  8112   0.117E-01 0.100E-03
CGA:  11    -0.319108283767E+03   -0.20161E-02   -0.20140E-02  8112   0.461E-02 0.453E-04
CGA:  12    -0.319109244118E+03   -0.96035E-03   -0.95819E-03  8112   0.267E-02 0.279E-04
CGA:  13    -0.319109681669E+03   -0.43755E-03   -0.43735E-03  8112   0.153E-02 0.762E-05
CGA:  14    -0.319109874886E+03   -0.19322E-03   -0.19337E-03  8112   0.973E-03 0.678E-05
CGA:  15    -0.319109977482E+03   -0.10260E-03   -0.10280E-03  8112   0.403E-03 0.465E-05
CGA:  16    -0.319110033233E+03   -0.55750E-04   -0.55751E-04  8112   0.136E-03 0.416E-05
CGA:  17    -0.319110056626E+03   -0.23393E-04   -0.23322E-04  8112   0.428E-04 0.222E-05
CGA:  18    -0.319110063996E+03   -0.73704E-05   -0.73554E-05  8112   0.222E-04 0.491E-06
  73 F= -.31911006E+03 E0= -.31910615E+03  d E =-.145035E-01  mag=    44.0000
       N       E                     dE             d eps       ncg     rms          ort
SDA:   1    -0.301948718313E+03    0.17161E+02    0.00000E+00  8112   0.420E+02 0.000E+00
CGA:   2    -0.313900889375E+03   -0.11952E+02   -0.12083E+02  8112   0.352E+02-0.114E+01
CGA:   3    -0.317288229089E+03   -0.33873E+01   -0.34649E+01  8112   0.932E+01 0.115E+01
CGA:   4    -0.318494172796E+03   -0.12059E+01   -0.11957E+01  8112   0.400E+01-0.177E+00
CGA:   5    -0.318823039882E+03   -0.32887E+00   -0.32952E+00  8112   0.144E+01-0.498E-01
CGA:   6    -0.318989324610E+03   -0.16628E+00   -0.16674E+00  8112   0.427E+00 0.564E-02
CGA:   7    -0.319054107729E+03   -0.64783E-01   -0.64777E-01  8112   0.167E+00 0.452E-03
CGA:   8    -0.319071678705E+03   -0.17571E-01   -0.17575E-01  8112   0.959E-01-0.926E-04
CGA:   9    -0.319081643433E+03   -0.99647E-02   -0.10009E-01  8112   0.360E-01 0.199E-03
CGA:  10    -0.319086382826E+03   -0.47394E-02   -0.47411E-02  8112   0.175E-01 0.137E-03
CGA:  11    -0.319089043579E+03   -0.26608E-02   -0.26588E-02  8112   0.904E-02 0.936E-04
CGA:  12    -0.319090140160E+03   -0.10966E-02   -0.10974E-02  8112   0.709E-02 0.268E-04
CGA:  13    -0.319090997446E+03   -0.85729E-03   -0.85793E-03  8112   0.273E-02 0.216E-04
CGA:  14    -0.319091477803E+03   -0.48036E-03   -0.47973E-03  8112   0.148E-02 0.136E-04
CGA:  15    -0.319091662012E+03   -0.18421E-03   -0.18434E-03  8112   0.920E-03 0.744E-05
CGA:  16    -0.319091755170E+03   -0.93158E-04   -0.93413E-04  8112   0.350E-03 0.597E-05
CGA:  17    -0.319091805971E+03   -0.50802E-04   -0.50755E-04  8112   0.131E-03 0.519E-05
CGA:  18    -0.319091822564E+03   -0.16592E-04   -0.16608E-04  8112   0.638E-04 0.133E-05
CGA:  19    -0.319091830330E+03   -0.77668E-05   -0.77720E-05  8112   0.388E-04 0.301E-06
  74 F= -.31909183E+03 E0= -.31908769E+03  d E =0.182337E-01  mag=    44.0000
       N       E                     dE             d eps       ncg     rms          ort
SDA:   1    -0.300028057468E+03    0.19064E+02    0.00000E+00  8112   0.497E+02 0.000E+00
CGA:   2    -0.312329972857E+03   -0.12302E+02   -0.12193E+02  8112   0.333E+02 0.876E+00
CGA:   3    -0.316440635302E+03   -0.41107E+01   -0.40796E+01  8112   0.170E+02-0.907E+00
CGA:   4    -0.318079323161E+03   -0.16387E+01   -0.15708E+01  8112   0.567E+01-0.305E+00
CGA:   5    -0.318659434530E+03   -0.58011E+00   -0.56661E+00  8112   0.163E+01-0.752E-01
CGA:   6    -0.318874984765E+03   -0.21555E+00   -0.21555E+00  8112   0.578E+00 0.417E-02
CGA:   7    -0.318941023895E+03   -0.66039E-01   -0.66173E-01  8112   0.356E+00 0.227E-02
CGA:   8    -0.318969648108E+03   -0.28624E-01   -0.29029E-01  8112   0.131E+00-0.143E-02
CGA:   9    -0.318986713190E+03   -0.17065E-01   -0.17065E-01  8112   0.470E-01 0.123E-02
CGA:  10    -0.318993782377E+03   -0.70692E-02   -0.70538E-02  8112   0.303E-01 0.536E-03
CGA:  11    -0.318996625016E+03   -0.28426E-02   -0.28626E-02  8112   0.162E-01 0.729E-04
CGA:  12    -0.318998738701E+03   -0.21137E-02   -0.21136E-02  8112   0.809E-02 0.777E-04
CGA:  13    -0.318999925632E+03   -0.11869E-02   -0.11857E-02  8112   0.425E-02 0.515E-04
CGA:  14    -0.319000477606E+03   -0.55197E-03   -0.55201E-03  8112   0.328E-02 0.174E-04
CGA:  15    -0.319000822396E+03   -0.34479E-03   -0.34558E-03  8112   0.126E-02 0.137E-04
CGA:  16    -0.319001003190E+03   -0.18079E-03   -0.18066E-03  8112   0.578E-03 0.846E-05
CGA:  17    -0.319001078127E+03   -0.74937E-04   -0.74940E-04  8112   0.344E-03 0.398E-05
CGA:  18    -0.319001111603E+03   -0.33476E-04   -0.33546E-04  8112   0.134E-03 0.175E-05
CGA:  19    -0.319001128533E+03   -0.16931E-04   -0.16933E-04  8112   0.601E-04 0.917E-06
CGA:  20    -0.319001137589E+03   -0.90555E-05   -0.90433E-05  8112   0.320E-04 0.526E-06
  75 F= -.31900114E+03 E0= -.31899668E+03  d E =0.906927E-01  mag=    44.0000
       N       E                     dE             d eps       ncg     rms          ort
SDA:   1    -0.301526550387E+03    0.17475E+02    0.00000E+00  8112   0.453E+02 0.000E+00
CGA:   2    -0.312783302553E+03   -0.11257E+02   -0.11229E+02  8112   0.356E+02 0.838E+00
CGA:   3    -0.316707594343E+03   -0.39243E+01   -0.37357E+01  8112   0.146E+02-0.184E+01
CGA:   4    -0.318308427796E+03   -0.16008E+01   -0.15920E+01  8112   0.542E+01-0.210E+00
CGA:   5    -0.318701402726E+03   -0.39297E+00   -0.34253E+00  8112   0.224E+01 0.249E+00
CGA:   6    -0.318908036017E+03   -0.20663E+00   -0.21181E+00  8112   0.133E+01 0.912E-02
CGA:   7    -0.318998660219E+03   -0.90624E-01   -0.90684E-01  8112   0.506E+00-0.104E-01
CGA:   8    -0.319054107086E+03   -0.55447E-01   -0.55477E-01  8112   0.228E+00 0.854E-03
CGA:   9    -0.319072407758E+03   -0.18301E-01   -0.18946E-01  8112   0.127E+00 0.108E-02
CGA:  10    -0.319085173058E+03   -0.12765E-01   -0.12809E-01  8112   0.480E-01 0.698E-03
CGA:  11    -0.319090924814E+03   -0.57518E-02   -0.57524E-02  8112   0.234E-01 0.811E-03
CGA:  12    -0.319094696593E+03   -0.37718E-02   -0.37412E-02  8112   0.808E-02 0.582E-03
CGA:  13    -0.319096410094E+03   -0.17135E-02   -0.17051E-02  8112   0.590E-02 0.920E-04
CGA:  14    -0.319097054089E+03   -0.64399E-03   -0.64486E-03  8112   0.423E-02 0.241E-04
CGA:  15    -0.319097516400E+03   -0.46231E-03   -0.46267E-03  8112   0.157E-02 0.140E-04
CGA:  16    -0.319097788371E+03   -0.27197E-03   -0.27141E-03  8112   0.748E-03 0.108E-04
CGA:  17    -0.319097891293E+03   -0.10292E-03   -0.10287E-03  8112   0.288E-03 0.430E-05
CGA:  18    -0.319097938453E+03   -0.47160E-04   -0.47065E-04  8112   0.119E-03 0.259E-05
CGA:  19    -0.319097953966E+03   -0.15514E-04   -0.15513E-04  8112   0.775E-04 0.122E-05
CGA:  20    -0.319097960850E+03   -0.68837E-05   -0.69077E-05  8112   0.286E-04 0.533E-06
  76 F= -.31909796E+03 E0= -.31909375E+03  d E =-.968233E-01  mag=    44.0000
       N       E                     dE             d eps       ncg     rms          ort
SDA:   1    -0.316297236255E+03    0.28007E+01    0.00000E+00  8112   0.805E+01 0.000E+00
CGA:   2    -0.317984260716E+03   -0.16870E+01   -0.16831E+01  8112   0.428E+01 0.468E-01
CGA:   3    -0.318721245746E+03   -0.73699E+00   -0.73759E+00  8112   0.176E+01-0.121E-01
CGA:   4    -0.318949982437E+03   -0.22874E+00   -0.22875E+00  8112   0.668E+00 0.171E-02
CGA:   5    -0.319013537816E+03   -0.63555E-01   -0.63232E-01  8112   0.277E+00-0.122E-02
CGA:   6    -0.319041467732E+03   -0.27930E-01   -0.27973E-01  8112   0.102E+00 0.149E-03
CGA:   7    -0.319054359722E+03   -0.12892E-01   -0.12892E-01  8112   0.289E-01 0.301E-04
CGA:   8    -0.319059284315E+03   -0.49246E-02   -0.49247E-02  8112   0.135E-01 0.472E-06
CGA:   9    -0.319060785624E+03   -0.15013E-02   -0.15014E-02  8112   0.785E-02 0.558E-05
CGA:  10    -0.319061666420E+03   -0.88080E-03   -0.88129E-03  8112   0.367E-02 0.131E-04
CGA:  11    -0.319062153067E+03   -0.48665E-03   -0.48664E-03  8112   0.148E-02 0.481E-05
CGA:  12    -0.319062416819E+03   -0.26375E-03   -0.26367E-03  8112   0.799E-03 0.153E-05
CGA:  13    -0.319062512772E+03   -0.95953E-04   -0.95966E-04  8112   0.559E-03 0.746E-06
CGA:  14    -0.319062576364E+03   -0.63591E-04   -0.63621E-04  8112   0.240E-03 0.133E-05
CGA:  15    -0.319062616070E+03   -0.39706E-04   -0.39626E-04  8112   0.974E-04 0.240E-05
CGA:  16    -0.319062630879E+03   -0.14809E-04   -0.14779E-04  8112   0.621E-04 0.174E-05
CGA:  17    -0.319062637570E+03   -0.66917E-05   -0.67194E-05  8112   0.301E-04 0.978E-06
  77 F= -.31906264E+03 E0= -.31905857E+03  d E =0.353233E-01  mag=    44.0000
       N       E                     dE             d eps       ncg     rms          ort
SDA:   1    -0.316100274899E+03    0.29624E+01    0.00000E+00  8112   0.812E+01 0.000E+00
CGA:   2    -0.317991751715E+03   -0.18915E+01   -0.18945E+01  8112   0.507E+01-0.200E-01
CGA:   3    -0.318730570997E+03   -0.73882E+00   -0.73918E+00  8112   0.199E+01-0.337E-01
CGA:   4    -0.318990588333E+03   -0.26002E+00   -0.26004E+00  8112   0.485E+00 0.192E-02
CGA:   5    -0.319061246573E+03   -0.70658E-01   -0.70655E-01  8112   0.158E+00 0.233E-03
CGA:   6    -0.319080533247E+03   -0.19287E-01   -0.19292E-01  8112   0.928E-01 0.140E-03
CGA:   7    -0.319088371817E+03   -0.78386E-02   -0.78344E-02  8112   0.300E-01-0.170E-04
CGA:   8    -0.319092752082E+03   -0.43803E-02   -0.43797E-02  8112   0.105E-01 0.336E-04
CGA:   9    -0.319094438406E+03   -0.16863E-02   -0.16854E-02  8112   0.476E-02 0.263E-04
CGA:  10    -0.319095068962E+03   -0.63056E-03   -0.63062E-03  8112   0.318E-02 0.870E-05
CGA:  11    -0.319095387674E+03   -0.31871E-03   -0.31877E-03  8112   0.151E-02 0.192E-05
CGA:  12    -0.319095605879E+03   -0.21821E-03   -0.21813E-03  8112   0.635E-03 0.508E-05
CGA:  13    -0.319095723121E+03   -0.11724E-03   -0.11704E-03  8112   0.371E-03 0.380E-05
CGA:  14    -0.319095764831E+03   -0.41710E-04   -0.41726E-04  8112   0.258E-03 0.486E-06
CGA:  15    -0.319095794849E+03   -0.30018E-04   -0.30015E-04  8112   0.936E-04-0.253E-06
CGA:  16    -0.319095809733E+03   -0.14884E-04   -0.14895E-04  8112   0.396E-04-0.469E-06
CGA:  17    -0.319095815074E+03   -0.53404E-05   -0.53405E-05  8112   0.257E-04-0.160E-06
  78 F= -.31909582E+03 E0= -.31909157E+03  d E =-.331775E-01  mag=    44.0000
       N       E                     dE             d eps       ncg     rms          ort
SDA:   1    -0.318630225509E+03    0.46558E+00    0.00000E+00  8112   0.114E+01 0.000E+00
CGA:   2    -0.318943698218E+03   -0.31347E+00   -0.31318E+00  8112   0.123E+01 0.282E-02
CGA:   3    -0.319035288000E+03   -0.91590E-01   -0.91210E-01  8112   0.370E+00-0.827E-02
CGA:   4    -0.319079309006E+03   -0.44021E-01   -0.43991E-01  8112   0.109E+00-0.572E-03
CGA:   5    -0.319092420777E+03   -0.13112E-01   -0.13121E-01  8112   0.286E-01 0.225E-03
CGA:   6    -0.319096525072E+03   -0.41043E-02   -0.41044E-02  8112   0.133E-01-0.376E-05
CGA:   7    -0.319097761874E+03   -0.12368E-02   -0.12373E-02  8112   0.629E-02 0.678E-06
CGA:   8    -0.319098446124E+03   -0.68425E-03   -0.68444E-03  8112   0.175E-02 0.209E-05
CGA:   9    -0.319098738207E+03   -0.29208E-03   -0.29210E-03  8112   0.671E-03-0.330E-06
CGA:  10    -0.319098827069E+03   -0.88862E-04   -0.88864E-04  8112   0.525E-03 0.773E-06
CGA:  11    -0.319098880210E+03   -0.53141E-04   -0.53173E-04  8112   0.196E-03 0.786E-06
CGA:  12    -0.319098912255E+03   -0.32045E-04   -0.32023E-04  8112   0.115E-03 0.715E-06
CGA:  13    -0.319098930336E+03   -0.18081E-04   -0.18070E-04  8112   0.669E-04 0.484E-06
CGA:  14    -0.319098937845E+03   -0.75090E-05   -0.75112E-05  8112   0.428E-04 0.854E-07
  79 F= -.31909894E+03 E0= -.31909473E+03  d E =-.312277E-02  mag=    44.0000
