       N       E                     dE             d eps       ncg     rms          rms(c)
DAV:   1     0.652864583102E+04    0.65286E+04   -0.26947E+05 35296   0.155E+03
DAV:   2     0.407729200582E+03   -0.61209E+04   -0.58743E+04 35776   0.477E+02
DAV:   3    -0.368635723150E+03   -0.77636E+03   -0.75898E+03 38272   0.178E+02
DAV:   4    -0.410589343413E+03   -0.41954E+02   -0.40884E+02 49616   0.430E+01
DAV:   5    -0.413940503086E+03   -0.33512E+01   -0.32864E+01 64704   0.858E+00    0.659E+01
DAV:   6    -0.342165057478E+03    0.71775E+02   -0.31655E+02 46072   0.402E+01    0.368E+01
DAV:   7    -0.364440493369E+03   -0.22275E+02   -0.65518E+01 47696   0.200E+01    0.452E+01
DAV:   8    -0.366456505456E+03   -0.20160E+01   -0.90023E+01 48608   0.131E+01    0.357E+01
DAV:   9    -0.365555592499E+03    0.90091E+00   -0.73636E+00 47392   0.771E+00    0.251E+01
DAV:  10    -0.369283531749E+03   -0.37279E+01   -0.34789E+01 48456   0.823E+00    0.277E+01
DAV:  11    -0.371421083007E+03   -0.21376E+01   -0.18717E+01 48096   0.693E+00    0.156E+01
DAV:  12    -0.376798006910E+03   -0.53769E+01   -0.23964E+01 48080   0.580E+00    0.209E+01
DAV:  13    -0.377395918239E+03   -0.59791E+00   -0.83803E+00 47856   0.399E+00    0.138E+01
DAV:  14    -0.378606276724E+03   -0.12104E+01   -0.10667E+01 48040   0.327E+00    0.110E+01
DAV:  15    -0.379522505049E+03   -0.91623E+00   -0.33668E+00 45744   0.257E+00    0.760E+00
DAV:  16    -0.380627176267E+03   -0.11047E+01   -0.10767E+00 45392   0.196E+00    0.644E+00
DAV:  17    -0.381729891878E+03   -0.11027E+01   -0.36416E-01 44752   0.150E+00    0.438E+00
DAV:  18    -0.383573539715E+03   -0.18436E+01   -0.14428E+00 45336   0.205E+00    0.762E+00
DAV:  19    -0.384467792195E+03   -0.89425E+00   -0.68461E-01 44912   0.173E+00    0.483E+00
DAV:  20    -0.385032363763E+03   -0.56457E+00   -0.34349E-01 45240   0.103E+00    0.344E+00
DAV:  21    -0.385365972720E+03   -0.33361E+00   -0.12355E-01 45280   0.898E-01    0.278E+00
DAV:  22    -0.385958973565E+03   -0.59300E+00   -0.50366E-01 41368   0.974E-01    0.198E+00
DAV:  23    -0.386148607728E+03   -0.18963E+00   -0.13433E-01 43632   0.703E-01    0.179E+00
DAV:  24    -0.386199373212E+03   -0.50765E-01   -0.44939E-02 46112   0.559E-01    0.119E+00
DAV:  25    -0.386237930875E+03   -0.38558E-01   -0.32697E-02 42392   0.367E-01    0.884E-01
DAV:  26    -0.386249042468E+03   -0.11112E-01   -0.13938E-02 42552   0.284E-01    0.598E-01
DAV:  27    -0.386251229717E+03   -0.21872E-02   -0.89236E-03 47240   0.218E-01    0.476E-01
DAV:  28    -0.386251430057E+03   -0.20034E-03   -0.54316E-03 48320   0.141E-01    0.471E-01
DAV:  29    -0.386251084492E+03    0.34556E-03   -0.12312E-03 46792   0.841E-02    0.322E-01
DAV:  30    -0.386250904046E+03    0.18045E-03   -0.51500E-04 46056   0.511E-02    0.278E-01
DAV:  31    -0.386250850662E+03    0.53384E-04   -0.17675E-03 45544   0.824E-02    0.260E-01
DAV:  32    -0.386250829478E+03    0.21185E-04   -0.17159E-03 44256   0.780E-02    0.218E-01
DAV:  33    -0.386250804503E+03    0.24974E-04   -0.40261E-04 45600   0.492E-02    0.141E-01
DAV:  34    -0.386250779490E+03    0.25014E-04   -0.19573E-04 40760   0.357E-02    0.790E-02
DAV:  35    -0.386250780878E+03   -0.13887E-05   -0.67899E-05 33656   0.213E-02
   1 F= -.38625078E+03 E0= -.38623842E+03  d E =-.386251E+03  mag=    34.0043
       N       E                     dE             d eps       ncg     rms          rms(c)
DAV:   1    -0.386260736390E+03   -0.99569E-02   -0.10419E-02 38392   0.233E-01    0.460E-02
DAV:   2    -0.386260822063E+03   -0.85673E-04   -0.78414E-04 40736   0.546E-02    0.193E-01
DAV:   3    -0.386260771002E+03    0.51061E-04   -0.54743E-04 36680   0.363E-02    0.954E-02
DAV:   4    -0.386260776175E+03   -0.51728E-05   -0.53813E-05 27544   0.189E-02
   2 F= -.38626078E+03 E0= -.38624841E+03  d E =-.999530E-02  mag=    34.0031
       N       E                     dE             d eps       ncg     rms          rms(c)
DAV:   1    -0.386498344089E+03   -0.23757E+00   -0.11523E+01 37544   0.776E+00    0.915E-01
DAV:   2    -0.386549234518E+03   -0.50890E-01   -0.54133E-01 37416   0.142E+00    0.200E+00
DAV:   3    -0.386549482934E+03   -0.24842E-03   -0.10752E-01 56600   0.535E-01    0.197E+00
DAV:   4    -0.386545844640E+03    0.36383E-02   -0.43584E-02 48184   0.339E-01    0.750E-01
DAV:   5    -0.386546178867E+03   -0.33423E-03   -0.89297E-03 50688   0.202E-01    0.584E-01
DAV:   6    -0.386546106775E+03    0.72092E-04   -0.82404E-03 49872   0.200E-01    0.609E-01
DAV:   7    -0.386545329685E+03    0.77709E-03   -0.49644E-03 46400   0.163E-01    0.361E-01
DAV:   8    -0.386545503009E+03   -0.17332E-03   -0.27428E-03 49400   0.114E-01    0.337E-01
DAV:   9    -0.386545362809E+03    0.14020E-03   -0.13398E-03 50256   0.872E-02    0.130E-01
DAV:  10    -0.386545442373E+03   -0.79564E-04   -0.18231E-04 41800   0.367E-02    0.132E-01
DAV:  11    -0.386545423260E+03    0.19113E-04   -0.30650E-05 31448   0.175E-02    0.104E-01
DAV:  12    -0.386545410629E+03    0.12631E-04   -0.25291E-04 32600   0.233E-02    0.809E-02
DAV:  13    -0.386545430064E+03   -0.19435E-04   -0.75905E-05 31688   0.238E-02    0.599E-02
DAV:  14    -0.386545433120E+03   -0.30560E-05   -0.31758E-05 26360   0.151E-02
   3 F= -.38654543E+03 E0= -.38653301E+03  d E =-.284657E+00  mag=    34.0007
       N       E                     dE             d eps       ncg     rms          rms(c)
DAV:   1    -0.386669180379E+03   -0.12375E+00   -0.54749E+01 37688   0.182E+01    0.217E+00
DAV:   2    -0.386974312372E+03   -0.30513E+00   -0.32125E+00 37056   0.344E+00    0.540E+00
DAV:   3    -0.386949338510E+03    0.24974E-01   -0.86532E-01 56416   0.138E+00    0.329E+00
DAV:   4    -0.386957302505E+03   -0.79640E-02   -0.31480E-01 49240   0.777E-01    0.308E+00
DAV:   5    -0.386939147124E+03    0.18155E-01   -0.60539E-02 48408   0.493E-01    0.107E+00
DAV:   6    -0.386942440445E+03   -0.32933E-02   -0.25313E-02 50816   0.418E-01    0.114E+00
DAV:   7    -0.386942143146E+03    0.29730E-03   -0.22573E-02 48400   0.316E-01    0.104E+00
DAV:   8    -0.386940744963E+03    0.13982E-02   -0.78088E-03 50344   0.264E-01    0.828E-01
DAV:   9    -0.386940685681E+03    0.59282E-04   -0.94477E-03 51920   0.202E-01    0.568E-01
DAV:  10    -0.386940485044E+03    0.20064E-03   -0.47078E-03 49568   0.174E-01    0.301E-01
DAV:  11    -0.386940748797E+03   -0.26375E-03   -0.15259E-03 48208   0.833E-02    0.413E-01
DAV:  12    -0.386940525392E+03    0.22341E-03   -0.27270E-03 49904   0.920E-02    0.221E-01
DAV:  13    -0.386940700376E+03   -0.17498E-03   -0.10231E-03 49376   0.756E-02    0.301E-01
DAV:  14    -0.386940674991E+03    0.25385E-04   -0.50243E-04 43624   0.513E-02    0.153E-01
DAV:  15    -0.386940686891E+03   -0.11900E-04   -0.89327E-05 35400   0.228E-02    0.979E-02
DAV:  16    -0.386940694046E+03   -0.71554E-05   -0.35655E-05 32200   0.210E-02
   4 F= -.38694069E+03 E0= -.38692807E+03  d E =-.395261E+00  mag=    34.0001
       N       E                     dE             d eps       ncg     rms          rms(c)
DAV:   1    -0.386742487910E+03    0.19820E+00   -0.72096E+01 36824   0.230E+01    0.271E+00
DAV:   2    -0.387208816072E+03   -0.46633E+00   -0.47466E+00 36512   0.415E+00    0.614E+00
DAV:   3    -0.387188237784E+03    0.20578E-01   -0.13760E+00 56040   0.175E+00    0.441E+00
DAV:   4    -0.387216274376E+03   -0.28037E-01   -0.82418E-01 50560   0.106E+00    0.512E+00
DAV:   5    -0.387168864663E+03    0.47410E-01   -0.12618E-01 48904   0.731E-01    0.204E+00
DAV:   6    -0.387169849342E+03   -0.98468E-03   -0.26079E-02 51624   0.436E-01    0.125E+00
DAV:   7    -0.387174160970E+03   -0.43116E-02   -0.35956E-02 50392   0.397E-01    0.131E+00
DAV:   8    -0.387175409624E+03   -0.12487E-02   -0.20349E-02 49544   0.326E-01    0.162E+00
DAV:   9    -0.387172764416E+03    0.26452E-02   -0.21030E-02 49512   0.310E-01    0.109E+00
DAV:  10    -0.387172393052E+03    0.37136E-03   -0.12164E-02 48664   0.219E-01    0.541E-01
DAV:  11    -0.387173200574E+03   -0.80752E-03   -0.66340E-03 50320   0.159E-01    0.713E-01
DAV:  12    -0.387173124779E+03    0.75796E-04   -0.22299E-03 47120   0.134E-01    0.566E-01
DAV:  13    -0.387172723314E+03    0.40147E-03   -0.40219E-03 50904   0.107E-01    0.166E-01
DAV:  14    -0.387173072334E+03   -0.34902E-03   -0.76403E-04 45416   0.694E-02    0.210E-01
DAV:  15    -0.387173117204E+03   -0.44871E-04   -0.36771E-04 41152   0.426E-02    0.186E-01
DAV:  16    -0.387173091283E+03    0.25921E-04   -0.54700E-05 31080   0.198E-02    0.131E-01
DAV:  17    -0.387173091705E+03   -0.42148E-06   -0.16569E-05 26304   0.117E-02
   5 F= -.38717309E+03 E0= -.38716034E+03  d E =-.232398E+00  mag=    34.0000
       N       E                     dE             d eps       ncg     rms          rms(c)
DAV:   1    -0.386935342778E+03    0.23775E+00   -0.65944E+01 36344   0.215E+01    0.229E+00
DAV:   2    -0.387276951979E+03   -0.34161E+00   -0.34467E+00 36240   0.381E+00    0.226E+00
DAV:   3    -0.387320360216E+03   -0.43408E-01   -0.51394E-01 56000   0.116E+00    0.469E+00
DAV:   4    -0.387286603880E+03    0.33756E-01   -0.25656E-01 50360   0.817E-01    0.200E+00
DAV:   5    -0.387286409655E+03    0.19422E-03   -0.64973E-02 48888   0.497E-01    0.847E-01
DAV:   6    -0.387289374360E+03   -0.29647E-02   -0.18402E-02 52536   0.329E-01    0.119E+00
DAV:   7    -0.387287818896E+03    0.15555E-02   -0.10149E-02 51232   0.278E-01    0.819E-01
DAV:   8    -0.387289139909E+03   -0.13210E-02   -0.20704E-02 50032   0.295E-01    0.104E+00
DAV:   9    -0.387287632790E+03    0.15071E-02   -0.59734E-03 48024   0.195E-01    0.332E-01
DAV:  10    -0.387287965248E+03   -0.33246E-03   -0.11451E-03 47720   0.854E-02    0.242E-01
DAV:  11    -0.387287947611E+03    0.17637E-04   -0.23616E-04 45200   0.529E-02    0.163E-01
DAV:  12    -0.387288051734E+03   -0.10412E-03   -0.15120E-03 47568   0.655E-02    0.327E-01
DAV:  13    -0.387288017954E+03    0.33780E-04   -0.54305E-04 45688   0.638E-02    0.211E-01
DAV:  14    -0.387288007984E+03    0.99705E-05   -0.21905E-04 34992   0.398E-02    0.102E-01
DAV:  15    -0.387288039269E+03   -0.31285E-04   -0.62664E-05 34504   0.214E-02    0.827E-02
DAV:  16    -0.387288040548E+03   -0.12789E-05   -0.19475E-05 25720   0.122E-02
   6 F= -.38728804E+03 E0= -.38727527E+03  d E =-.114949E+00  mag=    34.0000
       N       E                     dE             d eps       ncg     rms          rms(c)
DAV:   1    -0.387041770678E+03    0.24627E+00   -0.85172E+01 36576   0.234E+01    0.200E+00
DAV:   2    -0.387360843920E+03   -0.31907E+00   -0.32601E+00 35472   0.409E+00    0.334E+00
DAV:   3    -0.387397571002E+03   -0.36727E-01   -0.90487E-01 54056   0.116E+00    0.485E+00
DAV:   4    -0.387361476192E+03    0.36095E-01   -0.27156E-01 50192   0.893E-01    0.258E+00
DAV:   5    -0.387356023678E+03    0.54525E-02   -0.67912E-02 50280   0.525E-01    0.125E+00
DAV:   6    -0.387357083814E+03   -0.10601E-02   -0.23812E-02 51400   0.319E-01    0.985E-01
DAV:   7    -0.387361926416E+03   -0.48426E-02   -0.35019E-02 48760   0.345E-01    0.221E+00
DAV:   8    -0.387356956626E+03    0.49698E-02   -0.93624E-03 46800   0.281E-01    0.176E+00
DAV:   9    -0.387354056015E+03    0.29006E-02   -0.19716E-02 50952   0.208E-01    0.421E-01
DAV:  10    -0.387356687925E+03   -0.26319E-02   -0.77220E-03 45144   0.141E-01    0.698E-01
DAV:  11    -0.387356227485E+03    0.46044E-03   -0.23095E-03 44288   0.114E-01    0.250E-01
DAV:  12    -0.387356379204E+03   -0.15172E-03   -0.24757E-03 49528   0.724E-02    0.297E-01
DAV:  13    -0.387356425413E+03   -0.46209E-04   -0.50966E-04 45328   0.638E-02    0.288E-01
DAV:  14    -0.387356402307E+03    0.23105E-04   -0.48172E-04 39912   0.437E-02    0.168E-01
DAV:  15    -0.387356427822E+03   -0.25514E-04   -0.18584E-04 37888   0.333E-02    0.128E-01
DAV:  16    -0.387356418374E+03    0.94480E-05   -0.10230E-04 30928   0.260E-02    0.725E-02
DAV:  17    -0.387356421463E+03   -0.30891E-05   -0.55116E-05 28880   0.163E-02
   7 F= -.38735642E+03 E0= -.38734334E+03  d E =-.683809E-01  mag=    34.0000
       N       E                     dE             d eps       ncg     rms          rms(c)
DAV:   1    -0.386421718121E+03    0.93470E+00   -0.23825E+02 36840   0.418E+01    0.369E+00
DAV:   2    -0.387417276561E+03   -0.99556E+00   -0.10247E+01 35016   0.740E+00    0.332E+00
DAV:   3    -0.387488843633E+03   -0.71567E-01   -0.93822E-01 51448   0.209E+00    0.615E+00
DAV:   4    -0.387446062552E+03    0.42781E-01   -0.85428E-01 50520   0.126E+00    0.446E+00
DAV:   5    -0.387425917723E+03    0.20145E-01   -0.22614E-01 50272   0.717E-01    0.215E+00
DAV:   6    -0.387427509493E+03   -0.15918E-02   -0.10446E-01 51248   0.516E-01    0.174E+00
DAV:   7    -0.387428124992E+03   -0.61550E-03   -0.51455E-02 49144   0.520E-01    0.149E+00
DAV:   8    -0.387426556505E+03    0.15685E-02   -0.29006E-02 50080   0.435E-01    0.154E+00
DAV:   9    -0.387425025469E+03    0.15310E-02   -0.38679E-02 49272   0.389E-01    0.104E+00
DAV:  10    -0.387425951704E+03   -0.92623E-03   -0.83463E-03 47464   0.267E-01    0.756E-01
DAV:  11    -0.387425682106E+03    0.26960E-03   -0.25601E-03 49632   0.135E-01    0.511E-01
DAV:  12    -0.387425620456E+03    0.61650E-04   -0.15417E-03 48464   0.953E-02    0.482E-01
DAV:  13    -0.387425560343E+03    0.60113E-04   -0.22606E-03 49328   0.127E-01    0.437E-01
DAV:  14    -0.387425571139E+03   -0.10796E-04   -0.31554E-03 48488   0.997E-02    0.234E-01
DAV:  15    -0.387425955055E+03   -0.38392E-03   -0.13431E-03 45552   0.678E-02    0.369E-01
DAV:  16    -0.387425798372E+03    0.15668E-03   -0.36413E-04 45104   0.527E-02    0.207E-01
DAV:  17    -0.387425788413E+03    0.99588E-05   -0.35493E-04 42504   0.345E-02    0.466E-02
DAV:  18    -0.387425831469E+03   -0.43055E-04   -0.92714E-05 35312   0.228E-02    0.436E-02
DAV:  19    -0.387425833772E+03   -0.23030E-05   -0.28381E-05 27440   0.138E-02
   8 F= -.38742583E+03 E0= -.38741204E+03  d E =-.694123E-01  mag=    34.0000
       N       E                     dE             d eps       ncg     rms          rms(c)
DAV:   1    -0.386409278818E+03    0.10166E+01   -0.14824E+02 37104   0.358E+01    0.425E+00
DAV:   2    -0.387668693594E+03   -0.12594E+01   -0.12086E+01 36304   0.699E+00    0.157E+01
DAV:   3    -0.387383863953E+03    0.28483E+00   -0.59464E+00 48176   0.242E+00    0.610E+00
DAV:   4    -0.387484893149E+03   -0.10103E+00   -0.13282E+00 51256   0.195E+00    0.621E+00
DAV:   5    -0.387440244491E+03    0.44649E-01   -0.71160E-01 49696   0.136E+00    0.466E+00
DAV:   6    -0.387412762416E+03    0.27482E-01   -0.27437E-01 50184   0.753E-01    0.209E+00
DAV:   7    -0.387431121667E+03   -0.18359E-01   -0.81677E-02 50168   0.711E-01    0.225E+00
DAV:   8    -0.387430437555E+03    0.68411E-03   -0.34141E-02 49392   0.548E-01    0.183E+00
DAV:   9    -0.387428478093E+03    0.19595E-02   -0.12495E-02 50360   0.306E-01    0.124E+00
DAV:  10    -0.387429854915E+03   -0.13768E-02   -0.30235E-02 49912   0.338E-01    0.161E+00
DAV:  11    -0.387429966190E+03   -0.11127E-03   -0.11183E-02 48592   0.319E-01    0.143E+00
DAV:  12    -0.387427907928E+03    0.20583E-02   -0.27102E-02 49880   0.293E-01    0.634E-01
DAV:  13    -0.387430637866E+03   -0.27299E-02   -0.10615E-02 48216   0.219E-01    0.117E+00
DAV:  14    -0.387429049859E+03    0.15880E-02   -0.50406E-03 44968   0.154E-01    0.487E-01
DAV:  15    -0.387429145511E+03   -0.95652E-04   -0.20457E-03 48032   0.756E-02    0.135E-01
DAV:  16    -0.387429344620E+03   -0.19911E-03   -0.32364E-04 41752   0.467E-02    0.181E-01
DAV:  17    -0.387429346101E+03   -0.14808E-05   -0.25916E-04 38288   0.356E-02    0.115E-01
DAV:  18    -0.387429352095E+03   -0.59940E-05   -0.15631E-04 30944   0.220E-02    0.635E-02
DAV:  19    -0.387429361474E+03   -0.93795E-05   -0.19614E-05 26248   0.146E-02
   9 F= -.38742936E+03 E0= -.38741563E+03  d E =-.352770E-02  mag=    34.0000
       N       E                     dE             d eps       ncg     rms          rms(c)
DAV:   1    -0.387321732211E+03    0.10762E+00   -0.13898E+01 38280   0.112E+01    0.238E+00
DAV:   2    -0.387630611931E+03   -0.30888E+00   -0.35373E+00 41728   0.291E+00    0.713E+00
DAV:   3    -0.387484086369E+03    0.14653E+00   -0.66636E-01 47608   0.184E+00    0.381E+00
DAV:   4    -0.387473724069E+03    0.10362E-01   -0.16366E-01 48728   0.820E-01    0.109E+00
DAV:   5    -0.387483422969E+03   -0.96989E-02   -0.30497E-02 50192   0.460E-01    0.125E+00
DAV:   6    -0.387482998099E+03    0.42487E-03   -0.24499E-02 49296   0.342E-01    0.845E-01
DAV:   7    -0.387483115459E+03   -0.11736E-03   -0.14297E-02 50464   0.264E-01    0.709E-01
DAV:   8    -0.387483511781E+03   -0.39632E-03   -0.10170E-02 48848   0.204E-01    0.666E-01
DAV:   9    -0.387483192356E+03    0.31943E-03   -0.36635E-03 49688   0.155E-01    0.340E-01
DAV:  10    -0.387483208580E+03   -0.16224E-04   -0.58296E-04 48488   0.632E-02    0.226E-01
DAV:  11    -0.387483176846E+03    0.31734E-04   -0.11010E-04 40376   0.331E-02    0.190E-01
DAV:  12    -0.387483131553E+03    0.45293E-04   -0.42353E-04 44016   0.528E-02    0.129E-01
DAV:  13    -0.387483269154E+03   -0.13760E-03   -0.67423E-04 40616   0.477E-02    0.109E-01
DAV:  14    -0.387483339471E+03   -0.70316E-04   -0.54355E-04 37776   0.372E-02    0.236E-01
DAV:  15    -0.387483261596E+03    0.77874E-04   -0.14709E-04 35712   0.275E-02    0.120E-01
DAV:  16    -0.387483266027E+03   -0.44304E-05   -0.19343E-04 30872   0.181E-02    0.696E-02
DAV:  17    -0.387483283539E+03   -0.17512E-04   -0.12751E-04 29696   0.201E-02    0.743E-02
DAV:  18    -0.387483278431E+03    0.51076E-05   -0.39477E-05 23696   0.116E-02
  10 F= -.38748328E+03 E0= -.38746952E+03  d E =-.539170E-01  mag=    34.0000
       N       E                     dE             d eps       ncg     rms          rms(c)
DAV:   1    -0.387472789039E+03    0.10494E-01   -0.18868E+00 37352   0.437E+00    0.636E-01
DAV:   2    -0.387497498535E+03   -0.24709E-01   -0.23859E-01 36592   0.883E-01    0.252E+00
DAV:   3    -0.387488973325E+03    0.85252E-02   -0.88453E-02 47040   0.437E-01    0.896E-01
DAV:   4    -0.387491789626E+03   -0.28163E-02   -0.73163E-03 43208   0.194E-01    0.257E-01
DAV:   5    -0.387491953877E+03   -0.16425E-03   -0.13596E-03 52840   0.872E-02    0.244E-01
DAV:   6    -0.387492055306E+03   -0.10143E-03   -0.16658E-03 49184   0.790E-02    0.305E-01
DAV:   7    -0.387491984889E+03    0.70417E-04   -0.14743E-03 48408   0.863E-02    0.218E-01
DAV:   8    -0.387492021981E+03   -0.37092E-04   -0.76927E-04 45504   0.636E-02    0.156E-01
DAV:   9    -0.387491989754E+03    0.32227E-04   -0.24227E-04 36240   0.365E-02    0.832E-02
DAV:  10    -0.387491994040E+03   -0.42866E-05   -0.43787E-05 29120   0.206E-02
  11 F= -.38749199E+03 E0= -.38747825E+03  d E =-.871561E-02  mag=    34.0000
       N       E                     dE             d eps       ncg     rms          rms(c)
DAV:   1    -0.387490480497E+03    0.15093E-02   -0.11965E+00 36392   0.333E+00    0.388E-01
DAV:   2    -0.387499359174E+03   -0.88787E-02   -0.85338E-02 35336   0.630E-01    0.135E+00
DAV:   3    -0.387497644889E+03    0.17143E-02   -0.27761E-02 48832   0.249E-01    0.742E-01
DAV:   4    -0.387498160247E+03   -0.51536E-03   -0.57284E-03 44064   0.142E-01    0.437E-01
DAV:   5    -0.387497938705E+03    0.22154E-03   -0.16899E-03 49632   0.833E-02    0.201E-01
DAV:   6    -0.387498069654E+03   -0.13095E-03   -0.84369E-04 46616   0.622E-02    0.205E-01
DAV:   7    -0.387498091998E+03   -0.22344E-04   -0.72744E-04 48432   0.643E-02    0.256E-01
DAV:   8    -0.387498044330E+03    0.47668E-04   -0.24142E-04 44416   0.450E-02    0.199E-01
DAV:   9    -0.387498013651E+03    0.30679E-04   -0.21175E-04 32112   0.259E-02    0.410E-02
DAV:  10    -0.387498047606E+03   -0.33955E-04   -0.38824E-05 29128   0.177E-02    0.364E-02
DAV:  11    -0.387498049808E+03   -0.22017E-05   -0.28730E-05 25304   0.144E-02
  12 F= -.38749805E+03 E0= -.38748430E+03  d E =-.605577E-02  mag=    34.0000
       N       E                     dE             d eps       ncg     rms          rms(c)
DAV:   1    -0.387488636752E+03    0.94109E-02   -0.48082E+00 36608   0.609E+00    0.590E-01
DAV:   2    -0.387509759041E+03   -0.21122E-01   -0.21936E-01 35104   0.109E+00    0.129E+00
DAV:   3    -0.387511209354E+03   -0.14503E-02   -0.62771E-02 50288   0.348E-01    0.169E+00
DAV:   4    -0.387508090850E+03    0.31185E-02   -0.22364E-02 46800   0.253E-01    0.640E-01
DAV:   5    -0.387508479716E+03   -0.38887E-03   -0.42023E-03 50952   0.132E-01    0.305E-01
DAV:   6    -0.387508873790E+03   -0.39407E-03   -0.23831E-03 47736   0.110E-01    0.394E-01
DAV:   7    -0.387508784249E+03    0.89541E-04   -0.18652E-03 49936   0.111E-01    0.389E-01
DAV:   8    -0.387508715099E+03    0.69150E-04   -0.58536E-04 47688   0.743E-02    0.306E-01
DAV:   9    -0.387508659087E+03    0.56012E-04   -0.39720E-04 38584   0.352E-02    0.108E-01
DAV:  10    -0.387508708285E+03   -0.49198E-04   -0.51266E-05 31920   0.195E-02    0.876E-02
DAV:  11    -0.387508714651E+03   -0.63659E-05   -0.10180E-05 23664   0.104E-02
  13 F= -.38750871E+03 E0= -.38749496E+03  d E =-.106648E-01  mag=    34.0000
       N       E                     dE             d eps       ncg     rms          rms(c)
DAV:   1    -0.387399077469E+03    0.10963E+00   -0.32175E+01 36448   0.154E+01    0.147E+00
DAV:   2    -0.387539597906E+03   -0.14052E+00   -0.14533E+00 35192   0.277E+00    0.331E+00
DAV:   3    -0.387545984077E+03   -0.63862E-02   -0.50068E-01 49656   0.880E-01    0.361E+00
DAV:   4    -0.387533458356E+03    0.12526E-01   -0.11093E-01 48968   0.604E-01    0.188E+00
DAV:   5    -0.387530908102E+03    0.25503E-02   -0.25217E-02 52112   0.343E-01    0.101E+00
DAV:   6    -0.387531875418E+03   -0.96732E-03   -0.16748E-02 51800   0.255E-01    0.844E-01
DAV:   7    -0.387534092850E+03   -0.22174E-02   -0.18435E-02 48864   0.257E-01    0.149E+00
DAV:   8    -0.387532241472E+03    0.18514E-02   -0.41025E-03 46568   0.190E-01    0.129E+00
DAV:   9    -0.387530557957E+03    0.16835E-02   -0.78669E-03 50840   0.134E-01    0.264E-01
DAV:  10    -0.387531707185E+03   -0.11492E-02   -0.17803E-03 43760   0.999E-02    0.260E-01
DAV:  11    -0.387531817919E+03   -0.11073E-03   -0.96809E-04 45736   0.668E-02    0.186E-01
DAV:  12    -0.387531855274E+03   -0.37355E-04   -0.42562E-04 39360   0.335E-02    0.293E-01
DAV:  13    -0.387531814815E+03    0.40459E-04   -0.28976E-05 27824   0.149E-02    0.311E-01
DAV:  14    -0.387531783878E+03    0.30937E-04   -0.46365E-06 20632   0.690E-03    0.302E-01
DAV:  15    -0.387531679872E+03    0.10401E-03   -0.57895E-04 36232   0.346E-02    0.945E-02
DAV:  16    -0.387531784874E+03   -0.10500E-03   -0.41921E-04 38888   0.346E-02    0.142E-01
DAV:  17    -0.387531786283E+03   -0.14088E-05   -0.60153E-05 31160   0.240E-02
  14 F= -.38753179E+03 E0= -.38751806E+03  d E =-.230716E-01  mag=    34.0000
       N       E                     dE             d eps       ncg     rms          rms(c)
DAV:   1    -0.386644913999E+03    0.88687E+00   -0.88551E+01 38072   0.301E+01    0.391E+00
DAV:   2    -0.387559139172E+03   -0.91423E+00   -0.90221E+00 35280   0.597E+00    0.935E+00
DAV:   3    -0.387475711269E+03    0.83428E-01   -0.35874E+00 50144   0.243E+00    0.427E+00
DAV:   4    -0.387603175579E+03   -0.12746E+00   -0.15395E+00 50736   0.150E+00    0.657E+00
DAV:   5    -0.387487506008E+03    0.11567E+00   -0.34583E-01 49216   0.127E+00    0.241E+00
DAV:   6    -0.387492528100E+03   -0.50221E-02   -0.10998E-01 51520   0.618E-01    0.188E+00
DAV:   7    -0.387501426151E+03   -0.88981E-02   -0.14927E-01 51864   0.681E-01    0.250E+00
DAV:   8    -0.387491134127E+03    0.10292E-01   -0.27252E-02 47136   0.445E-01    0.126E+00
DAV:   9    -0.387491842221E+03   -0.70809E-03   -0.21427E-02 51888   0.381E-01    0.690E-01
DAV:  10    -0.387493890346E+03   -0.20481E-02   -0.90277E-03 47360   0.291E-01    0.589E-01
DAV:  11    -0.387494028773E+03   -0.13843E-03   -0.44558E-03 51360   0.192E-01    0.463E-01
DAV:  12    -0.387494100539E+03   -0.71766E-04   -0.26065E-03 48184   0.139E-01    0.307E-01
DAV:  13    -0.387494130251E+03   -0.29712E-04   -0.13794E-03 48096   0.889E-02    0.199E-01
DAV:  14    -0.387494193714E+03   -0.63464E-04   -0.73878E-04 46008   0.614E-02    0.131E-01
DAV:  15    -0.387494264702E+03   -0.70988E-04   -0.33358E-04 37424   0.340E-02    0.149E-01
DAV:  16    -0.387494243417E+03    0.21285E-04   -0.41546E-05 31128   0.205E-02    0.130E-01
DAV:  17    -0.387494244557E+03   -0.11397E-05   -0.26032E-05 27720   0.157E-02
  15 F= -.38749424E+03 E0= -.38748032E+03  d E =0.375417E-01  mag=    34.0000
       N       E                     dE             d eps       ncg     rms          rms(c)
DAV:   1    -0.387330429067E+03    0.16381E+00   -0.16152E+01 37984   0.140E+01    0.220E+00
DAV:   2    -0.387583842903E+03   -0.25341E+00   -0.23790E+00 38000   0.282E+00    0.691E+00
DAV:   3    -0.387560009104E+03    0.23834E-01   -0.17579E+00 48392   0.133E+00    0.501E+00
DAV:   4    -0.387560763735E+03   -0.75463E-03   -0.64854E-01 48576   0.104E+00    0.388E+00
DAV:   5    -0.387545821979E+03    0.14942E-01   -0.21064E-01 48888   0.735E-01    0.226E+00
DAV:   6    -0.387542950395E+03    0.28716E-02   -0.20126E-02 48352   0.378E-01    0.136E+00
DAV:   7    -0.387545024316E+03   -0.20739E-02   -0.27061E-02 50920   0.309E-01    0.104E+00
DAV:   8    -0.387546541340E+03   -0.15170E-02   -0.17191E-02 46944   0.248E-01    0.109E+00
DAV:   9    -0.387546546204E+03   -0.48640E-05   -0.48143E-03 47304   0.180E-01    0.950E-01
DAV:  10    -0.387545887093E+03    0.65911E-03   -0.35929E-03 49576   0.126E-01    0.463E-01
DAV:  11    -0.387546587188E+03   -0.70009E-03   -0.67499E-03 49184   0.163E-01    0.541E-01
DAV:  12    -0.387546451942E+03    0.13525E-03   -0.24007E-03 48584   0.138E-01    0.318E-01
DAV:  13    -0.387546519805E+03   -0.67863E-04   -0.12853E-03 48504   0.796E-02    0.401E-01
DAV:  14    -0.387546388368E+03    0.13144E-03   -0.59374E-04 46112   0.542E-02    0.275E-01
DAV:  15    -0.387546398813E+03   -0.10445E-04   -0.73754E-04 38656   0.376E-02    0.909E-02
DAV:  16    -0.387546465725E+03   -0.66912E-04   -0.83874E-05 35032   0.229E-02    0.944E-02
DAV:  17    -0.387546458751E+03    0.69738E-05   -0.95026E-06 26792   0.115E-02
  16 F= -.38754646E+03 E0= -.38753285E+03  d E =-.522142E-01  mag=    34.0000
       N       E                     dE             d eps       ncg     rms          rms(c)
DAV:   1    -0.387514012256E+03    0.32453E-01   -0.32987E+00 37968   0.590E+00    0.860E-01
DAV:   2    -0.387549934316E+03   -0.35922E-01   -0.35224E-01 35632   0.111E+00    0.966E-01
DAV:   3    -0.387556746516E+03   -0.68122E-02   -0.83658E-02 51000   0.499E-01    0.197E+00
DAV:   4    -0.387550507157E+03    0.62394E-02   -0.44434E-02 47936   0.361E-01    0.797E-01
DAV:   5    -0.387551839194E+03   -0.13320E-02   -0.93696E-03 45112   0.172E-01    0.502E-01
DAV:   6    -0.387552014346E+03   -0.17515E-03   -0.46774E-03 48920   0.112E-01    0.356E-01
DAV:   7    -0.387552256210E+03   -0.24186E-03   -0.21243E-03 49680   0.103E-01    0.343E-01
DAV:   8    -0.387552179357E+03    0.76853E-04   -0.18025E-03 48712   0.906E-02    0.204E-01
DAV:   9    -0.387552212230E+03   -0.32872E-04   -0.46771E-04 45320   0.654E-02    0.125E-01
DAV:  10    -0.387552204177E+03    0.80526E-05   -0.15924E-04 40552   0.360E-02    0.895E-02
DAV:  11    -0.387552186585E+03    0.17592E-04   -0.50781E-05 30832   0.192E-02    0.577E-02
DAV:  12    -0.387552202049E+03   -0.15464E-04   -0.17279E-04 32256   0.216E-02    0.572E-02
DAV:  13    -0.387552207875E+03   -0.58260E-05   -0.41494E-05 30056   0.212E-02
  17 F= -.38755221E+03 E0= -.38753861E+03  d E =-.574912E-02  mag=    34.0000
       N       E                     dE             d eps       ncg     rms          rms(c)
DAV:   1    -0.387551746341E+03    0.45571E-03   -0.30995E-01 37216   0.160E+00    0.230E-01
DAV:   2    -0.387555350732E+03   -0.36044E-02   -0.32637E-02 39864   0.337E-01    0.125E+00
DAV:   3    -0.387552892128E+03    0.24586E-02   -0.12516E-02 45656   0.181E-01    0.188E-01
DAV:   4    -0.387553910254E+03   -0.10181E-02   -0.17025E-03 42760   0.910E-02    0.272E-01
DAV:   5    -0.387553786678E+03    0.12358E-03   -0.88948E-04 44976   0.613E-02    0.119E-01
DAV:   6    -0.387553823998E+03   -0.37320E-04   -0.19022E-04 34672   0.356E-02    0.995E-02
DAV:   7    -0.387553816151E+03    0.78471E-05   -0.15090E-04 34016   0.350E-02    0.904E-02
DAV:   8    -0.387553811475E+03    0.46766E-05   -0.96948E-05 36280   0.276E-02
  18 F= -.38755381E+03 E0= -.38754009E+03  d E =-.160360E-02  mag=    34.0000
       N       E                     dE             d eps       ncg     rms          rms(c)
DAV:   1    -0.387546780339E+03    0.70358E-02   -0.21590E+00 36712   0.408E+00    0.428E-01
DAV:   2    -0.387556949635E+03   -0.10169E-01   -0.10798E-01 35504   0.760E-01    0.594E-01
DAV:   3    -0.387558326963E+03   -0.13773E-02   -0.16178E-02 53176   0.257E-01    0.115E+00
DAV:   4    -0.387557086200E+03    0.12408E-02   -0.16514E-02 49080   0.190E-01    0.762E-01
DAV:   5    -0.387556554587E+03    0.53161E-03   -0.54209E-03 47000   0.122E-01    0.189E-01
DAV:   6    -0.387556905733E+03   -0.35115E-03   -0.74579E-04 48304   0.760E-02    0.219E-01
DAV:   7    -0.387556860871E+03    0.44863E-04   -0.10365E-03 50248   0.721E-02    0.181E-01
DAV:   8    -0.387556831614E+03    0.29257E-04   -0.37604E-04 47616   0.527E-02    0.984E-02
DAV:   9    -0.387556839725E+03   -0.81106E-05   -0.17143E-04 35840   0.330E-02    0.736E-02
DAV:  10    -0.387556836833E+03    0.28921E-05   -0.65431E-05 31352   0.216E-02
  19 F= -.38755684E+03 E0= -.38754314E+03  d E =-.302536E-02  mag=    34.0000
       N       E                     dE             d eps       ncg     rms          rms(c)
DAV:   1    -0.387556081613E+03    0.75811E-03   -0.12880E+00 36288   0.315E+00    0.310E-01
DAV:   2    -0.387562024917E+03   -0.59433E-02   -0.61929E-02 35096   0.579E-01    0.763E-01
DAV:   3    -0.387562036051E+03   -0.11134E-04   -0.17397E-02 49384   0.189E-01    0.807E-01
DAV:   4    -0.387561371616E+03    0.66444E-03   -0.39727E-03 46880   0.124E-01    0.227E-01
DAV:   5    -0.387561559496E+03   -0.18788E-03   -0.58505E-04 49032   0.631E-02    0.134E-01
DAV:   6    -0.387561611771E+03   -0.52275E-04   -0.35583E-04 47880   0.517E-02    0.182E-01
DAV:   7    -0.387561589463E+03    0.22308E-04   -0.41549E-04 45016   0.484E-02    0.159E-01
DAV:   8    -0.387561574451E+03    0.15012E-04   -0.24235E-04 33560   0.359E-02    0.107E-01
DAV:   9    -0.387561572618E+03    0.18328E-05   -0.97193E-05 29040   0.212E-02
  20 F= -.38756157E+03 E0= -.38754790E+03  d E =-.473579E-02  mag=    34.0000
       N       E                     dE             d eps       ncg     rms          rms(c)
DAV:   1    -0.387196287682E+03    0.36529E+00   -0.81547E+01 36608   0.259E+01    0.250E+00
DAV:   2    -0.387591091796E+03   -0.39480E+00   -0.41186E+00 34960   0.467E+00    0.335E+00
DAV:   3    -0.387653674376E+03   -0.62583E-01   -0.13360E+00 49992   0.150E+00    0.557E+00
DAV:   4    -0.387601964813E+03    0.51710E-01   -0.43238E-01 50072   0.105E+00    0.346E+00
DAV:   5    -0.387588643622E+03    0.13321E-01   -0.82512E-02 51960   0.556E-01    0.135E+00
DAV:   6    -0.387591439107E+03   -0.27955E-02   -0.24123E-02 51464   0.423E-01    0.106E+00
DAV:   7    -0.387601442787E+03   -0.10004E-01   -0.88971E-02 51488   0.431E-01    0.283E+00
DAV:   8    -0.387592358627E+03    0.90842E-02   -0.11887E-02 46064   0.307E-01    0.205E+00
DAV:   9    -0.387588614736E+03    0.37439E-02   -0.14618E-02 51680   0.229E-01    0.625E-01
DAV:  10    -0.387591441036E+03   -0.28263E-02   -0.95317E-03 45056   0.165E-01    0.501E-01
DAV:  11    -0.387591806298E+03   -0.36526E-03   -0.16116E-03 42128   0.109E-01    0.412E-01
DAV:  12    -0.387591546090E+03    0.26021E-03   -0.13218E-03 47392   0.707E-02    0.138E-01
DAV:  13    -0.387591712041E+03   -0.16595E-03   -0.51345E-04 42768   0.446E-02    0.192E-01
DAV:  14    -0.387591704278E+03    0.77631E-05   -0.56694E-04 38112   0.442E-02    0.706E-02
DAV:  15    -0.387591728337E+03   -0.24059E-04   -0.69367E-05 30536   0.251E-02    0.490E-02
DAV:  16    -0.387591728208E+03    0.12921E-06   -0.20703E-05 26616   0.145E-02
  21 F= -.38759173E+03 E0= -.38757780E+03  d E =-.301556E-01  mag=    34.0000
       N       E                     dE             d eps       ncg     rms          rms(c)
DAV:   1    -0.386349995222E+03    0.12417E+01   -0.95783E+01 38528   0.332E+01    0.460E+00
DAV:   2    -0.387400186010E+03   -0.10502E+01   -0.10364E+01 35912   0.639E+00    0.442E+00
DAV:   3    -0.387589205115E+03   -0.18902E+00   -0.23546E+00 48752   0.252E+00    0.781E+00
DAV:   4    -0.387453566510E+03    0.13564E+00   -0.91298E-01 49560   0.172E+00    0.311E+00
DAV:   5    -0.387461314772E+03   -0.77483E-02   -0.86284E-02 52896   0.707E-01    0.156E+00
DAV:   6    -0.387472817102E+03   -0.11502E-01   -0.11290E-01 49912   0.552E-01    0.267E+00
DAV:   7    -0.387468301445E+03    0.45157E-02   -0.18803E-01 49568   0.634E-01    0.213E+00
DAV:   8    -0.387469929734E+03   -0.16283E-02   -0.67152E-02 49608   0.504E-01    0.193E+00
DAV:   9    -0.387465289063E+03    0.46407E-02   -0.20275E-02 50040   0.342E-01    0.634E-01
DAV:  10    -0.387466297534E+03   -0.10085E-02   -0.85845E-03 48944   0.200E-01    0.512E-01
DAV:  11    -0.387466843198E+03   -0.54566E-03   -0.23891E-03 48312   0.158E-01    0.453E-01
DAV:  12    -0.387466979345E+03   -0.13615E-03   -0.36338E-03 48840   0.113E-01    0.359E-01
DAV:  13    -0.387466934294E+03    0.45050E-04   -0.90219E-04 47616   0.803E-02    0.210E-01
DAV:  14    -0.387466982618E+03   -0.48324E-04   -0.64688E-04 44848   0.458E-02    0.262E-01
DAV:  15    -0.387466912124E+03    0.70495E-04   -0.45320E-04 42560   0.529E-02    0.150E-01
DAV:  16    -0.387466888391E+03    0.23733E-04   -0.36412E-04 40224   0.394E-02    0.656E-02
DAV:  17    -0.387466903648E+03   -0.15257E-04   -0.44269E-05 32520   0.209E-02    0.449E-02
DAV:  18    -0.387466904650E+03   -0.10019E-05   -0.51496E-05 30136   0.198E-02
  22 F= -.38746690E+03 E0= -.38745382E+03  d E =0.124824E+00  mag=    34.0000
       N       E                     dE             d eps       ncg     rms          rms(c)
DAV:   1    -0.387292395587E+03    0.17451E+00   -0.19685E+01 38488   0.157E+01    0.282E+00
DAV:   2    -0.387682870109E+03   -0.39047E+00   -0.42628E+00 40688   0.351E+00    0.660E+00
DAV:   3    -0.387574490589E+03    0.10838E+00   -0.81461E-01 47176   0.190E+00    0.318E+00
DAV:   4    -0.387578411569E+03   -0.39210E-02   -0.30686E-01 49872   0.105E+00    0.255E+00
DAV:   5    -0.387578322275E+03    0.89294E-04   -0.80538E-02 48992   0.576E-01    0.127E+00
DAV:   6    -0.387580184251E+03   -0.18620E-02   -0.41630E-02 50912   0.383E-01    0.114E+00
DAV:   7    -0.387579760208E+03    0.42404E-03   -0.26092E-02 49592   0.291E-01    0.862E-01
DAV:   8    -0.387580384066E+03   -0.62386E-03   -0.18778E-02 50112   0.265E-01    0.769E-01
DAV:   9    -0.387580322447E+03    0.61619E-04   -0.10704E-02 48896   0.177E-01    0.465E-01
DAV:  10    -0.387580385645E+03   -0.63199E-04   -0.17452E-03 48464   0.118E-01    0.284E-01
DAV:  11    -0.387580277747E+03    0.10790E-03   -0.58154E-04 49312   0.600E-02    0.243E-01
DAV:  12    -0.387580271318E+03    0.64283E-05   -0.18691E-03 48792   0.857E-02    0.284E-01
DAV:  13    -0.387580506122E+03   -0.23480E-03   -0.33503E-03 48016   0.938E-02    0.385E-01
DAV:  14    -0.387580351149E+03    0.15497E-03   -0.89518E-04 42640   0.635E-02    0.142E-01
DAV:  15    -0.387580396733E+03   -0.45584E-04   -0.15369E-04 39728   0.346E-02    0.112E-01
DAV:  16    -0.387580393139E+03    0.35939E-05   -0.11494E-04 36528   0.272E-02    0.113E-01
DAV:  17    -0.387580381672E+03    0.11467E-04   -0.17266E-04 33288   0.218E-02    0.572E-02
DAV:  18    -0.387580384094E+03   -0.24228E-05   -0.50320E-05 28024   0.175E-02
  23 F= -.38758038E+03 E0= -.38756689E+03  d E =-.113479E+00  mag=    34.0000
       N       E                     dE             d eps       ncg     rms          rms(c)
DAV:   1    -0.387544415057E+03    0.35967E-01   -0.39445E+00 38432   0.703E+00    0.121E+00
DAV:   2    -0.387626207173E+03   -0.81792E-01   -0.81138E-01 39808   0.153E+00    0.439E+00
DAV:   3    -0.387592252009E+03    0.33955E-01   -0.24385E-01 45944   0.882E-01    0.135E+00
DAV:   4    -0.387602394716E+03   -0.10143E-01   -0.55126E-02 47616   0.497E-01    0.125E+00
DAV:   5    -0.387600603736E+03    0.17910E-02   -0.26339E-02 49560   0.287E-01    0.739E-01
DAV:   6    -0.387600922969E+03   -0.31923E-03   -0.82529E-03 47712   0.182E-01    0.474E-01
DAV:   7    -0.387601065755E+03   -0.14279E-03   -0.39905E-03 48864   0.143E-01    0.388E-01
DAV:   8    -0.387601117503E+03   -0.51748E-04   -0.12325E-03 48496   0.108E-01    0.268E-01
DAV:   9    -0.387601165796E+03   -0.48292E-04   -0.15212E-03 49384   0.671E-02    0.207E-01
DAV:  10    -0.387601154061E+03    0.11734E-04   -0.16724E-04 41448   0.409E-02    0.173E-01
DAV:  11    -0.387601104581E+03    0.49481E-04   -0.12956E-04 33176   0.261E-02    0.107E-01
DAV:  12    -0.387601138352E+03   -0.33771E-04   -0.54518E-04 42304   0.427E-02    0.201E-01
DAV:  13    -0.387601119629E+03    0.18723E-04   -0.48045E-04 39592   0.465E-02    0.102E-01
DAV:  14    -0.387601135176E+03   -0.15547E-04   -0.93330E-05 32952   0.292E-02    0.564E-02
DAV:  15    -0.387601138278E+03   -0.31019E-05   -0.25267E-05 31568   0.170E-02
  24 F= -.38760114E+03 E0= -.38758745E+03  d E =-.207542E-01  mag=    34.0000
       N       E                     dE             d eps       ncg     rms          rms(c)
DAV:   1    -0.387581140321E+03    0.19995E-01   -0.18300E+00 38088   0.486E+00    0.765E-01
DAV:   2    -0.387613072654E+03   -0.31932E-01   -0.30191E-01 38408   0.100E+00    0.283E+00
DAV:   3    -0.387602157969E+03    0.10915E-01   -0.99936E-02 45576   0.537E-01    0.111E+00
DAV:   4    -0.387607259572E+03   -0.51016E-02   -0.34373E-02 46624   0.329E-01    0.114E+00
DAV:   5    -0.387605026585E+03    0.22330E-02   -0.14359E-02 49560   0.208E-01    0.342E-01
DAV:   6    -0.387605822231E+03   -0.79565E-03   -0.17485E-03 47496   0.110E-01    0.295E-01
DAV:   7    -0.387605871002E+03   -0.48772E-04   -0.14992E-03 48272   0.913E-02    0.247E-01
DAV:   8    -0.387605862919E+03    0.80831E-05   -0.60005E-04 48336   0.704E-02    0.124E-01
DAV:   9    -0.387605902265E+03   -0.39346E-04   -0.37622E-04 43504   0.373E-02    0.123E-01
DAV:  10    -0.387605891520E+03    0.10745E-04   -0.10325E-04 33128   0.230E-02    0.110E-01
DAV:  11    -0.387605871212E+03    0.20308E-04   -0.56215E-05 29800   0.184E-02    0.650E-02
DAV:  12    -0.387605878859E+03   -0.76473E-05   -0.15418E-04 34776   0.252E-02    0.751E-02
DAV:  13    -0.387605887677E+03   -0.88173E-05   -0.55901E-05 31584   0.237E-02
  25 F= -.38760589E+03 E0= -.38759207E+03  d E =-.474940E-02  mag=    34.0000
       N       E                     dE             d eps       ncg     rms          rms(c)
DAV:   1    -0.387605642370E+03    0.23649E-03   -0.26050E-01 37096   0.165E+00    0.195E-01
DAV:   2    -0.387607787114E+03   -0.21447E-02   -0.21206E-02 35856   0.315E-01    0.621E-01
DAV:   3    -0.387607427390E+03    0.35972E-03   -0.74417E-03 49496   0.124E-01    0.402E-01
DAV:   4    -0.387607490457E+03   -0.63067E-04   -0.99762E-04 44944   0.757E-02    0.199E-01
DAV:   5    -0.387607465594E+03    0.24863E-04   -0.47178E-04 38152   0.476E-02    0.102E-01
DAV:   6    -0.387607489920E+03   -0.24326E-04   -0.17193E-04 33992   0.319E-02    0.108E-01
DAV:   7    -0.387607483912E+03    0.60077E-05   -0.13847E-04 35800   0.276E-02    0.657E-02
DAV:   8    -0.387607491507E+03   -0.75952E-05   -0.47498E-05 29504   0.184E-02
  26 F= -.38760749E+03 E0= -.38759369E+03  d E =-.160383E-02  mag=    34.0000
       N       E                     dE             d eps       ncg     rms          rms(c)
DAV:   1    -0.387607491768E+03   -0.78557E-05   -0.51885E-01 36392   0.199E+00    0.228E-01
DAV:   2    -0.387610909128E+03   -0.34174E-02   -0.32009E-02 38312   0.388E-01    0.106E+00
DAV:   3    -0.387609469972E+03    0.14392E-02   -0.11884E-02 48280   0.163E-01    0.297E-01
DAV:   4    -0.387609922717E+03   -0.45274E-03   -0.12872E-03 45360   0.836E-02    0.215E-01
DAV:   5    -0.387609858821E+03    0.63896E-04   -0.59305E-04 42952   0.549E-02    0.145E-01
DAV:   6    -0.387609858566E+03    0.25445E-06   -0.28272E-04 34392   0.385E-02    0.122E-01
DAV:   7    -0.387609867818E+03   -0.92516E-05   -0.28455E-04 39880   0.401E-02    0.135E-01
DAV:   8    -0.387609863103E+03    0.47150E-05   -0.95039E-05 33024   0.264E-02
  27 F= -.38760986E+03 E0= -.38759605E+03  d E =-.237160E-02  mag=    34.0000
       N       E                     dE             d eps       ncg     rms          rms(c)
DAV:   1    -0.387608886546E+03    0.98127E-03   -0.56635E-01 36496   0.201E+00    0.196E-01
DAV:   2    -0.387611268311E+03   -0.23818E-02   -0.24192E-02 36072   0.364E-01    0.559E-01
DAV:   3    -0.387611025363E+03    0.24295E-03   -0.58516E-03 48736   0.121E-01    0.424E-01
DAV:   4    -0.387611005858E+03    0.19505E-04   -0.19842E-03 45496   0.778E-02    0.221E-01
DAV:   5    -0.387610958126E+03    0.47732E-04   -0.52068E-04 42280   0.473E-02    0.811E-02
DAV:   6    -0.387611003231E+03   -0.45106E-04   -0.27904E-04 39672   0.332E-02    0.114E-01
DAV:   7    -0.387610991038E+03    0.12194E-04   -0.15367E-04 32664   0.284E-02    0.649E-02
DAV:   8    -0.387610997355E+03   -0.63176E-05   -0.22158E-05 25296   0.141E-02
  28 F= -.38761100E+03 E0= -.38759718E+03  d E =-.113425E-02  mag=    34.0000
       N       E                     dE             d eps       ncg     rms          rms(c)
DAV:   1    -0.387578936158E+03    0.32055E-01   -0.78446E+00 36432   0.735E+00    0.722E-01
DAV:   2    -0.387621166589E+03   -0.42230E-01   -0.39196E-01 38040   0.136E+00    0.359E+00
DAV:   3    -0.387603424466E+03    0.17742E-01   -0.14355E-01 47136   0.504E-01    0.774E-01
DAV:   4    -0.387609316386E+03   -0.58919E-02   -0.10452E-02 44088   0.241E-01    0.676E-01
DAV:   5    -0.387608534904E+03    0.78148E-03   -0.51091E-03 51008   0.151E-01    0.397E-01
DAV:   6    -0.387608705248E+03   -0.17034E-03   -0.36672E-03 50552   0.119E-01    0.467E-01
DAV:   7    -0.387608806824E+03   -0.10158E-03   -0.33543E-03 50496   0.129E-01    0.649E-01
DAV:   8    -0.387608759741E+03    0.47083E-04   -0.88074E-04 45600   0.797E-02    0.675E-01
DAV:   9    -0.387608420424E+03    0.33932E-03   -0.31079E-04 39032   0.360E-02    0.486E-01
DAV:  10    -0.387608382086E+03    0.38338E-04   -0.24608E-04 33352   0.261E-02    0.336E-01
DAV:  11    -0.387608403230E+03   -0.21144E-04   -0.19088E-04 33176   0.276E-02    0.220E-01
DAV:  12    -0.387608432062E+03   -0.28832E-04   -0.14577E-04 33168   0.222E-02    0.148E-01
DAV:  13    -0.387608455739E+03   -0.23677E-04   -0.21263E-04 29800   0.186E-02    0.531E-02
DAV:  14    -0.387608478654E+03   -0.22915E-04   -0.25497E-05 27728   0.157E-02    0.519E-02
DAV:  15    -0.387608478379E+03    0.27438E-06   -0.66268E-06 21080   0.101E-02
  29 F= -.38760848E+03 E0= -.38759461E+03  d E =0.251898E-02  mag=    34.0000
       N       E                     dE             d eps       ncg     rms          rms(c)
DAV:   1    -0.387255662140E+03    0.35282E+00   -0.89367E+01 36592   0.244E+01    0.214E+00
DAV:   2    -0.387595198262E+03   -0.33954E+00   -0.35739E+00 34952   0.431E+00    0.302E+00
DAV:   3    -0.387654431976E+03   -0.59234E-01   -0.83722E-01 50848   0.136E+00    0.676E+00
DAV:   4    -0.387587623593E+03    0.66808E-01   -0.69631E-01 50296   0.934E-01    0.253E+00
DAV:   5    -0.387589529485E+03   -0.19059E-02   -0.49497E-02 48712   0.607E-01    0.103E+00
DAV:   6    -0.387591401337E+03   -0.18719E-02   -0.23188E-02 52680   0.390E-01    0.121E+00
DAV:   7    -0.387592542846E+03   -0.11415E-02   -0.33620E-02 50904   0.308E-01    0.148E+00
DAV:   8    -0.387591448213E+03    0.10946E-02   -0.76060E-03 47480   0.225E-01    0.149E+00
DAV:   9    -0.387589044629E+03    0.24036E-02   -0.52227E-03 50328   0.127E-01    0.861E-01
DAV:  10    -0.387590084149E+03   -0.10395E-02   -0.95607E-03 50544   0.195E-01    0.852E-01
DAV:  11    -0.387589278246E+03    0.80590E-03   -0.50472E-03 45608   0.191E-01    0.393E-01
DAV:  12    -0.387589925338E+03   -0.64709E-03   -0.31409E-03 48992   0.117E-01    0.439E-01
DAV:  13    -0.387589683775E+03    0.24156E-03   -0.12914E-03 44984   0.935E-02    0.232E-01
DAV:  14    -0.387589769223E+03   -0.85448E-04   -0.57437E-04 45976   0.539E-02    0.148E-01
DAV:  15    -0.387589813073E+03   -0.43850E-04   -0.13639E-04 36808   0.299E-02    0.124E-01
DAV:  16    -0.387589809337E+03    0.37360E-05   -0.28040E-05 28904   0.158E-02
  30 F= -.38758981E+03 E0= -.38757573E+03  d E =0.186690E-01  mag=    34.0000
       N       E                     dE             d eps       ncg     rms          rms(c)
DAV:   1    -0.387407828164E+03    0.18198E+00   -0.27783E+01 36416   0.152E+01    0.254E+00
DAV:   2    -0.387746713106E+03   -0.33888E+00   -0.41536E+00 42464   0.350E+00    0.724E+00
DAV:   3    -0.387590358821E+03    0.15635E+00   -0.75147E-01 47304   0.194E+00    0.470E+00
DAV:   4    -0.387558935134E+03    0.31424E-01   -0.22434E-01 50536   0.855E-01    0.188E+00
DAV:   5    -0.387567836698E+03   -0.89016E-02   -0.85358E-02 50256   0.547E-01    0.187E+00
DAV:   6    -0.387566151076E+03    0.16856E-02   -0.28746E-02 47016   0.388E-01    0.577E-01
DAV:   7    -0.387568883334E+03   -0.27323E-02   -0.15233E-02 50416   0.264E-01    0.127E+00
DAV:   8    -0.387566393311E+03    0.24900E-02   -0.18683E-02 47664   0.290E-01    0.641E-01
DAV:   9    -0.387567805980E+03   -0.14127E-02   -0.73226E-03 46536   0.185E-01    0.755E-01
DAV:  10    -0.387567366781E+03    0.43920E-03   -0.21642E-03 45408   0.936E-02    0.468E-01
DAV:  11    -0.387567401302E+03   -0.34521E-04   -0.10574E-04 38592   0.265E-02    0.463E-01
DAV:  12    -0.387567326098E+03    0.75204E-04   -0.16151E-04 34824   0.237E-02    0.455E-01
DAV:  13    -0.387567265944E+03    0.60155E-04   -0.83422E-04 45560   0.774E-02    0.312E-01
DAV:  14    -0.387567804143E+03   -0.53820E-03   -0.42747E-03 47808   0.965E-02    0.747E-01
DAV:  15    -0.387567231267E+03    0.57288E-03   -0.52714E-03 48040   0.104E-01    0.323E-01
DAV:  16    -0.387567512851E+03   -0.28158E-03   -0.63228E-04 41824   0.718E-02    0.394E-01
DAV:  17    -0.387567286172E+03    0.22668E-03   -0.57264E-04 45216   0.430E-02    0.124E-01
DAV:  18    -0.387567361060E+03   -0.74888E-04   -0.81406E-05 32424   0.191E-02    0.350E-02
DAV:  19    -0.387567382266E+03   -0.21206E-04   -0.13500E-05 24304   0.110E-02    0.167E-02
DAV:  20    -0.387567384496E+03   -0.22298E-05   -0.54650E-06 19568   0.623E-03
  31 F= -.38756738E+03 E0= -.38755333E+03  d E =0.224248E-01  mag=    34.0000
       N       E                     dE             d eps       ncg     rms          rms(c)
DAV:   1    -0.387435721852E+03    0.13166E+00   -0.13912E+01 38584   0.101E+01    0.207E+00
DAV:   2    -0.387743932004E+03   -0.30821E+00   -0.25369E+00 42304   0.236E+00    0.136E+01
DAV:   3    -0.387494703200E+03    0.24923E+00   -0.26522E+00 46200   0.145E+00    0.291E+00
DAV:   4    -0.387585126928E+03   -0.90424E-01   -0.20989E-01 45416   0.856E-01    0.344E+00
DAV:   5    -0.387568646784E+03    0.16480E-01   -0.14504E-01 47296   0.606E-01    0.147E+00
DAV:   6    -0.387574087261E+03   -0.54405E-02   -0.37896E-02 48688   0.364E-01    0.133E+00
DAV:   7    -0.387576011605E+03   -0.19243E-02   -0.24948E-02 48752   0.298E-01    0.119E+00
DAV:   8    -0.387576532857E+03   -0.52125E-03   -0.84715E-03 48168   0.219E-01    0.106E+00
DAV:   9    -0.387576017290E+03    0.51557E-03   -0.52745E-03 47336   0.142E-01    0.658E-01
DAV:  10    -0.387576469319E+03   -0.45203E-03   -0.37821E-03 47656   0.133E-01    0.577E-01
DAV:  11    -0.387576434718E+03    0.34601E-04   -0.23672E-03 47032   0.123E-01    0.414E-01
DAV:  12    -0.387576436736E+03   -0.20177E-05   -0.35041E-03 49792   0.137E-01    0.449E-01
DAV:  13    -0.387576404610E+03    0.32126E-04   -0.16074E-03 48792   0.112E-01    0.375E-01
DAV:  14    -0.387576395508E+03    0.91017E-05   -0.85174E-04 48136   0.748E-02    0.245E-01
DAV:  15    -0.387576488414E+03   -0.92906E-04   -0.74695E-04 43384   0.469E-02    0.196E-01
DAV:  16    -0.387576490269E+03   -0.18550E-05   -0.74757E-05 32272   0.235E-02
  32 F= -.38757649E+03 E0= -.38756245E+03  d E =-.910577E-02  mag=    34.0000
       N       E                     dE             d eps       ncg     rms          rms(c)
DAV:   1    -0.387530919416E+03    0.45569E-01   -0.92230E+00 35920   0.851E+00    0.953E-01
DAV:   2    -0.387597870711E+03   -0.66951E-01   -0.68589E-01 38312   0.162E+00    0.404E+00
DAV:   3    -0.387570860209E+03    0.27011E-01   -0.20345E-01 46120   0.713E-01    0.111E+00
DAV:   4    -0.387578215364E+03   -0.73552E-02   -0.33419E-02 47456   0.378E-01    0.910E-01
DAV:   5    -0.387577067427E+03    0.11479E-02   -0.11476E-02 51200   0.228E-01    0.456E-01
DAV:   6    -0.387577354391E+03   -0.28696E-03   -0.26313E-03 49648   0.139E-01    0.388E-01
DAV:   7    -0.387577328628E+03    0.25763E-04   -0.28317E-03 50000   0.123E-01    0.395E-01
DAV:   8    -0.387577140805E+03    0.18782E-03   -0.12935E-03 48464   0.934E-02    0.279E-01
DAV:   9    -0.387577165580E+03   -0.24775E-04   -0.10843E-03 48384   0.648E-02    0.168E-01
DAV:  10    -0.387577207863E+03   -0.42283E-04   -0.42131E-04 40736   0.406E-02    0.144E-01
DAV:  11    -0.387577205585E+03    0.22783E-05   -0.24252E-04 33576   0.282E-02    0.108E-01
DAV:  12    -0.387577193878E+03    0.11707E-04   -0.20626E-05 27096   0.150E-02    0.872E-02
DAV:  13    -0.387577178710E+03    0.15168E-04   -0.46456E-05 29648   0.169E-02    0.464E-02
DAV:  14    -0.387577197170E+03   -0.18461E-04   -0.11885E-04 31568   0.194E-02    0.681E-02
DAV:  15    -0.387577203257E+03   -0.60866E-05   -0.34848E-05 27080   0.158E-02
  33 F= -.38757720E+03 E0= -.38756295E+03  d E =-.712988E-03  mag=    34.0000
       N       E                     dE             d eps       ncg     rms          rms(c)
DAV:   1    -0.387310141994E+03    0.26706E+00   -0.59709E+01 36304   0.218E+01    0.237E+00
DAV:   2    -0.387692283013E+03   -0.38214E+00   -0.42165E+00 39096   0.421E+00    0.642E+00
DAV:   3    -0.387576411168E+03    0.11587E+00   -0.50780E-01 47368   0.178E+00    0.272E+00
DAV:   4    -0.387584240887E+03   -0.78297E-02   -0.26445E-01 51520   0.869E-01    0.224E+00
DAV:   5    -0.387579841392E+03    0.43995E-02   -0.48178E-02 50984   0.510E-01    0.111E+00
DAV:   6    -0.387579651486E+03    0.18991E-03   -0.11081E-02 50208   0.305E-01    0.669E-01
DAV:   7    -0.387580382721E+03   -0.73124E-03   -0.14468E-02 48744   0.249E-01    0.896E-01
DAV:   8    -0.387580467685E+03   -0.84964E-04   -0.12608E-02 50448   0.248E-01    0.775E-01
DAV:   9    -0.387580334716E+03    0.13297E-03   -0.27192E-03 44080   0.124E-01    0.555E-01
DAV:  10    -0.387580268031E+03    0.66685E-04   -0.27601E-04 40080   0.389E-02    0.546E-01
DAV:  11    -0.387580121165E+03    0.14687E-03   -0.23705E-04 34864   0.269E-02    0.564E-01
DAV:  12    -0.387580085358E+03    0.35808E-04   -0.19939E-05 26816   0.138E-02    0.567E-01
DAV:  13    -0.387580078116E+03    0.72413E-05   -0.79097E-06 20192   0.655E-03
  34 F= -.38758008E+03 E0= -.38756596E+03  d E =-.287486E-02  mag=    34.0000
       N       E                     dE             d eps       ncg     rms          rms(c)
DAV:   1    -0.381780066352E+03    0.58000E+01   -0.43138E+02 38224   0.532E+01    0.171E+01
DAV:   2    -0.421163778766E+03   -0.39384E+02   -0.15612E+02 47008   0.206E+01    0.768E+01
DAV:   3    -0.386735275027E+03    0.34429E+02   -0.28351E+01 48024   0.171E+01    0.240E+01
DAV:   4    -0.386744505633E+03   -0.92306E-02   -0.78436E+00 49624   0.657E+00    0.139E+01
DAV:   5    -0.386571355957E+03    0.17315E+00   -0.93217E+00 49432   0.277E+00    0.172E+01
DAV:   6    -0.386563158926E+03    0.81970E-02   -0.74095E-01 41656   0.117E+00    0.144E+01
DAV:   7    -0.386687969719E+03   -0.12481E+00   -0.47095E-01 50320   0.845E-01    0.148E+01
DAV:   8    -0.386834612548E+03   -0.14664E+00   -0.14597E-01 48528   0.997E-01    0.137E+01
DAV:   9    -0.387096544888E+03   -0.26193E+00   -0.12373E+00 53592   0.225E+00    0.885E+00
DAV:  10    -0.387196271751E+03   -0.99727E-01   -0.26747E-01 43688   0.929E-01    0.799E+00
DAV:  11    -0.387228415702E+03   -0.32144E-01   -0.19632E-01 49512   0.641E-01    0.720E+00
DAV:  12    -0.387268903834E+03   -0.40488E-01   -0.32256E-01 48848   0.733E-01    0.669E+00
DAV:  13    -0.387250987374E+03    0.17916E-01   -0.37422E-01 50288   0.940E-01    0.599E+00
DAV:  14    -0.387236279315E+03    0.14708E-01   -0.35677E-02 41040   0.433E-01    0.513E+00
DAV:  15    -0.387193955366E+03    0.42324E-01   -0.29378E-01 55904   0.813E-01    0.416E+00
DAV:  16    -0.387135184655E+03    0.58771E-01   -0.14117E-01 48384   0.749E-01    0.297E+00
DAV:  17    -0.387100537643E+03    0.34647E-01   -0.18406E-02 50216   0.476E-01    0.266E+00
DAV:  18    -0.387072855453E+03    0.27682E-01   -0.21934E-02 49904   0.462E-01    0.235E+00
DAV:  19    -0.387065819874E+03    0.70356E-02   -0.29422E-02 47240   0.461E-01    0.207E+00
DAV:  20    -0.387065465771E+03    0.35410E-03   -0.36896E-03 38224   0.146E-01    0.213E+00
DAV:  21    -0.387064867739E+03    0.59803E-03   -0.40077E-03 53192   0.141E-01    0.212E+00
DAV:  22    -0.387069602846E+03   -0.47351E-02   -0.18378E-02 47424   0.221E-01    0.233E+00
DAV:  23    -0.387068533311E+03    0.10695E-02   -0.26271E-03 41176   0.130E-01    0.204E+00
DAV:  24    -0.387071137728E+03   -0.26044E-02   -0.35645E-03 49192   0.144E-01    0.183E+00
DAV:  25    -0.387072524708E+03   -0.13870E-02   -0.72076E-03 48768   0.182E-01    0.143E+00
DAV:  26    -0.387074048856E+03   -0.15241E-02   -0.33361E-03 44528   0.112E-01    0.182E+00
DAV:  27    -0.387072170340E+03    0.18785E-02   -0.28758E-03 46032   0.814E-02    0.134E+00
DAV:  28    -0.387073607965E+03   -0.14376E-02   -0.10839E-03 44064   0.759E-02    0.122E+00
DAV:  29    -0.387073784586E+03   -0.17662E-03   -0.43426E-04 43304   0.509E-02    0.119E+00
DAV:  30    -0.387073500936E+03    0.28365E-03   -0.21512E-04 41248   0.347E-02    0.112E+00
DAV:  31    -0.387072955571E+03    0.54537E-03   -0.83855E-04 40520   0.733E-02    0.909E-01
DAV:  32    -0.387072862456E+03    0.93114E-04   -0.59634E-04 44120   0.530E-02    0.741E-01
DAV:  33    -0.387073072476E+03   -0.21002E-03   -0.62857E-05 37064   0.213E-02    0.739E-01
DAV:  34    -0.387072846007E+03    0.22647E-03   -0.25656E-04 42640   0.357E-02    0.589E-01
DAV:  35    -0.387072576979E+03    0.26903E-03   -0.13917E-03 39720   0.762E-02    0.292E-01
DAV:  36    -0.387072700051E+03   -0.12307E-03   -0.19968E-04 36304   0.343E-02    0.230E-01
DAV:  37    -0.387072687323E+03    0.12729E-04   -0.84732E-05 34456   0.222E-02    0.174E-01
DAV:  38    -0.387072675637E+03    0.11686E-04   -0.16220E-04 37160   0.323E-02    0.103E-01
DAV:  39    -0.387072675092E+03    0.54509E-06   -0.46787E-05 31176   0.167E-02
  35 F= -.38707268E+03 E0= -.38705794E+03  d E =0.507403E+00  mag=    34.0026
       N       E                     dE             d eps       ncg     rms          rms(c)
DAV:   1    -0.386482753101E+03    0.58992E+00   -0.71516E+01 37504   0.257E+01    0.680E+00
DAV:   2    -0.388686528129E+03   -0.22038E+01   -0.25255E+01 45816   0.828E+00    0.212E+01
DAV:   3    -0.387369854980E+03    0.13167E+01   -0.11881E+01 48168   0.539E+00    0.688E+00
DAV:   4    -0.387420018749E+03   -0.50164E-01   -0.66391E-01 49024   0.203E+00    0.587E+00
DAV:   5    -0.387423445657E+03   -0.34269E-02   -0.65748E-01 48432   0.119E+00    0.457E+00
DAV:   6    -0.387427994344E+03   -0.45487E-02   -0.20441E-01 48816   0.729E-01    0.363E+00
DAV:   7    -0.387470097285E+03   -0.42103E-01   -0.72386E-02 48736   0.522E-01    0.379E+00
DAV:   8    -0.387483880391E+03   -0.13783E-01   -0.98238E-02 49760   0.497E-01    0.389E+00
DAV:   9    -0.387474307762E+03    0.95726E-02   -0.53722E-02 50512   0.576E-01    0.283E+00
DAV:  10    -0.387460571969E+03    0.13736E-01   -0.12432E-01 50056   0.769E-01    0.168E+00
DAV:  11    -0.387465967227E+03   -0.53953E-02   -0.34161E-02 48168   0.413E-01    0.162E+00
DAV:  12    -0.387470352001E+03   -0.43848E-02   -0.71313E-02 50024   0.455E-01    0.133E+00
DAV:  13    -0.387470428990E+03   -0.76989E-04   -0.29150E-02 50192   0.343E-01    0.114E+00
DAV:  14    -0.387468992818E+03    0.14362E-02   -0.10936E-02 48880   0.246E-01    0.819E-01
DAV:  15    -0.387470014667E+03   -0.10218E-02   -0.39896E-03 48024   0.132E-01    0.758E-01
DAV:  16    -0.387471011604E+03   -0.99694E-03   -0.28821E-03 48496   0.136E-01    0.101E+00
DAV:  17    -0.387469961015E+03    0.10506E-02   -0.21311E-03 47216   0.932E-02    0.696E-01
DAV:  18    -0.387469609064E+03    0.35195E-03   -0.25906E-03 48072   0.933E-02    0.259E-01
DAV:  19    -0.387469979831E+03   -0.37077E-03   -0.10183E-03 41944   0.659E-02    0.168E-01
DAV:  20    -0.387470111367E+03   -0.13154E-03   -0.26463E-04 40624   0.361E-02    0.878E-02
DAV:  21    -0.387470121946E+03   -0.10579E-04   -0.25995E-05 30672   0.152E-02    0.654E-02
DAV:  22    -0.387470122494E+03   -0.54741E-06   -0.19332E-05 26520   0.127E-02
  36 F= -.38747012E+03 E0= -.38745562E+03  d E =-.397447E+00  mag=    33.9985
       N       E                     dE             d eps       ncg     rms          rms(c)
DAV:   1    -0.387327919861E+03    0.14220E+00   -0.19650E+01 37952   0.124E+01    0.341E+00
DAV:   2    -0.387882573519E+03   -0.55465E+00   -0.70629E+00 46112   0.394E+00    0.818E+00
DAV:   3    -0.387704636499E+03    0.17794E+00   -0.17535E+00 48264   0.231E+00    0.668E+00
DAV:   4    -0.387608766421E+03    0.95870E-01   -0.40896E-01 48656   0.117E+00    0.348E+00
DAV:   5    -0.387592132481E+03    0.16634E-01   -0.85563E-02 50496   0.770E-01    0.251E+00
DAV:   6    -0.387602818050E+03   -0.10686E-01   -0.27528E-01 51896   0.743E-01    0.338E+00
DAV:   7    -0.387590502709E+03    0.12315E-01   -0.11639E-01 47512   0.592E-01    0.682E-01
DAV:   8    -0.387595329843E+03   -0.48271E-02   -0.11752E-02 47696   0.237E-01    0.896E-01
DAV:   9    -0.387595339164E+03   -0.93208E-05   -0.61799E-03 49400   0.198E-01    0.842E-01
DAV:  10    -0.387594664812E+03    0.67435E-03   -0.53918E-03 48872   0.173E-01    0.376E-01
DAV:  11    -0.387595182543E+03   -0.51773E-03   -0.18231E-03 45952   0.108E-01    0.388E-01
DAV:  12    -0.387595041900E+03    0.14064E-03   -0.45398E-04 47808   0.735E-02    0.294E-01
DAV:  13    -0.387595654775E+03   -0.61287E-03   -0.28095E-03 48552   0.762E-02    0.631E-01
DAV:  14    -0.387595377857E+03    0.27692E-03   -0.10885E-02 49232   0.120E-01    0.569E-01
DAV:  15    -0.387595303709E+03    0.74148E-04   -0.84433E-04 37456   0.637E-02    0.350E-01
DAV:  16    -0.387595286197E+03    0.17512E-04   -0.55822E-05 36792   0.188E-02    0.317E-01
DAV:  17    -0.387595241402E+03    0.44795E-04   -0.11177E-04 31832   0.250E-02    0.236E-01
DAV:  18    -0.387595250224E+03   -0.88222E-05   -0.12766E-04 32440   0.232E-02    0.159E-01
DAV:  19    -0.387595243124E+03    0.70997E-05   -0.34795E-04 32720   0.242E-02    0.450E-02
DAV:  20    -0.387595271577E+03   -0.28453E-04   -0.46300E-05 28112   0.169E-02    0.283E-02
DAV:  21    -0.387595271113E+03    0.46366E-06   -0.51480E-06 19072   0.719E-03
  37 F= -.38759527E+03 E0= -.38758068E+03  d E =-.125149E+00  mag=    33.9998
       N       E                     dE             d eps       ncg     rms          rms(c)
DAV:   1    -0.387265238466E+03    0.33003E+00   -0.34492E+01 37856   0.149E+01    0.560E+00
DAV:   2    -0.388352624690E+03   -0.10874E+01   -0.15889E+01 47024   0.607E+00    0.133E+01
DAV:   3    -0.387858234517E+03    0.49439E+00   -0.58333E+00 48312   0.401E+00    0.974E+00
DAV:   4    -0.387688091956E+03    0.17014E+00   -0.85461E-01 49528   0.177E+00    0.579E+00
DAV:   5    -0.387672299440E+03    0.15793E-01   -0.27545E-01 49512   0.106E+00    0.470E+00
DAV:   6    -0.387668307684E+03    0.39918E-02   -0.26212E-01 51320   0.816E-01    0.449E+00
DAV:   7    -0.387655867036E+03    0.12441E-01   -0.10008E-01 48864   0.633E-01    0.290E+00
DAV:   8    -0.387654289125E+03    0.15779E-02   -0.17609E-01 50560   0.626E-01    0.173E+00
DAV:   9    -0.387660931342E+03   -0.66422E-02   -0.59969E-02 47848   0.527E-01    0.129E+00
DAV:  10    -0.387663688012E+03   -0.27567E-02   -0.38523E-02 48312   0.361E-01    0.192E+00
DAV:  11    -0.387661261920E+03    0.24261E-02   -0.77661E-02 49680   0.374E-01    0.131E+00
DAV:  12    -0.387661355875E+03   -0.93955E-04   -0.61500E-03 46088   0.209E-01    0.110E+00
DAV:  13    -0.387660163111E+03    0.11928E-02   -0.10768E-02 50056   0.197E-01    0.350E-01
DAV:  14    -0.387661150111E+03   -0.98700E-03   -0.15923E-03 44720   0.112E-01    0.327E-01
DAV:  15    -0.387661243800E+03   -0.93689E-04   -0.93311E-04 48440   0.732E-02    0.306E-01
DAV:  16    -0.387661256727E+03   -0.12927E-04   -0.52052E-04 42144   0.503E-02    0.343E-01
DAV:  17    -0.387661216253E+03    0.40475E-04   -0.37639E-05 30848   0.178E-02    0.342E-01
DAV:  18    -0.387661172451E+03    0.43802E-04   -0.32051E-05 29056   0.156E-02    0.310E-01
DAV:  19    -0.387661106613E+03    0.65838E-04   -0.54731E-04 39520   0.369E-02    0.135E-01
DAV:  20    -0.387661189900E+03   -0.83287E-04   -0.61017E-04 38240   0.310E-02    0.175E-01
DAV:  21    -0.387661178394E+03    0.11506E-04   -0.95579E-05 32616   0.238E-02    0.916E-02
DAV:  22    -0.387661175446E+03    0.29482E-05   -0.10226E-04 27152   0.155E-02    0.509E-02
DAV:  23    -0.387661181368E+03   -0.59219E-05   -0.21620E-05 27256   0.128E-02
  38 F= -.38766118E+03 E0= -.38764631E+03  d E =-.659103E-01  mag=    33.9992
       N       E                     dE             d eps       ncg     rms          rms(c)
DAV:   1    -0.387658822518E+03    0.23529E-02   -0.55970E-01 37096   0.193E+00    0.338E-01
DAV:   2    -0.387668488103E+03   -0.96656E-02   -0.90016E-02 41088   0.456E-01    0.240E+00
DAV:   3    -0.387659083318E+03    0.94048E-02   -0.50911E-02 43552   0.331E-01    0.345E-01
DAV:   4    -0.387661930770E+03   -0.28475E-02   -0.34285E-03 41832   0.135E-01    0.341E-01
DAV:   5    -0.387661869700E+03    0.61069E-04   -0.84636E-04 44944   0.680E-02    0.181E-01
DAV:   6    -0.387661885107E+03   -0.15406E-04   -0.17808E-04 36192   0.345E-02    0.146E-01
DAV:   7    -0.387661907480E+03   -0.22373E-04   -0.39089E-04 38576   0.474E-02    0.188E-01
DAV:   8    -0.387661866029E+03    0.41451E-04   -0.44523E-04 40200   0.495E-02    0.987E-02
DAV:   9    -0.387661895853E+03   -0.29824E-04   -0.12959E-04 31144   0.243E-02    0.837E-02
DAV:  10    -0.387661894567E+03    0.12859E-05   -0.20937E-05 22832   0.123E-02
  39 F= -.38766189E+03 E0= -.38764708E+03  d E =-.713199E-03  mag=    33.9997
       N       E                     dE             d eps       ncg     rms          rms(c)
DAV:   1    -0.387652825346E+03    0.90705E-02   -0.12372E+00 36880   0.311E+00    0.353E-01
DAV:   2    -0.387661148813E+03   -0.83235E-02   -0.80359E-02 35432   0.583E-01    0.115E+00
DAV:   3    -0.387659963375E+03    0.11854E-02   -0.20238E-02 50096   0.188E-01    0.603E-01
DAV:   4    -0.387660436471E+03   -0.47310E-03   -0.68306E-03 46288   0.147E-01    0.403E-01
DAV:   5    -0.387660173136E+03    0.26333E-03   -0.21630E-03 50312   0.910E-02    0.145E-01
DAV:   6    -0.387660274035E+03   -0.10090E-03   -0.36429E-04 48848   0.543E-02    0.190E-01
DAV:   7    -0.387660305784E+03   -0.31750E-04   -0.53217E-04 46280   0.581E-02    0.244E-01
DAV:   8    -0.387660261091E+03    0.44693E-04   -0.31611E-04 40600   0.416E-02    0.210E-01
DAV:   9    -0.387660240969E+03    0.20123E-04   -0.67702E-05 29080   0.200E-02    0.154E-01
DAV:  10    -0.387660244154E+03   -0.31850E-05   -0.56946E-06 20656   0.703E-03
  40 F= -.38766024E+03 E0= -.38764534E+03  d E =0.165041E-02  mag=    33.9998
       N       E                     dE             d eps       ncg     rms          rms(c)
DAV:   1    -0.387654940351E+03    0.53006E-02   -0.48058E-01 36064   0.163E+00    0.247E-01
DAV:   2    -0.387658150422E+03   -0.32101E-02   -0.30417E-02 39440   0.329E-01    0.122E+00
DAV:   3    -0.387656190688E+03    0.19597E-02   -0.18828E-02 45576   0.194E-01    0.517E-01
DAV:   4    -0.387656692879E+03   -0.50219E-03   -0.23186E-03 41048   0.107E-01    0.279E-01
DAV:   5    -0.387656638195E+03    0.54683E-04   -0.50003E-04 46136   0.505E-02    0.164E-01
DAV:   6    -0.387656687094E+03   -0.48898E-04   -0.67969E-04 37112   0.483E-02    0.196E-01
DAV:   7    -0.387656698420E+03   -0.11327E-04   -0.58461E-04 40768   0.457E-02    0.159E-01
DAV:   8    -0.387656705709E+03   -0.72881E-05   -0.15225E-04 32368   0.309E-02    0.121E-01
DAV:   9    -0.387656702013E+03    0.36955E-05   -0.12803E-05 24440   0.118E-02
  41 F= -.38765670E+03 E0= -.38764191E+03  d E =0.354214E-02  mag=    33.9999
       N       E                     dE             d eps       ncg     rms          rms(c)
DAV:   1    -0.387611498645E+03    0.45207E-01   -0.57676E+00 36584   0.602E+00    0.679E-01
DAV:   2    -0.387640901088E+03   -0.29402E-01   -0.29734E-01 35024   0.108E+00    0.140E+00
DAV:   3    -0.387643096499E+03   -0.21954E-02   -0.82246E-02 50848   0.343E-01    0.188E+00
DAV:   4    -0.387639641996E+03    0.34545E-02   -0.40099E-02 47312   0.308E-01    0.785E-01
DAV:   5    -0.387639829940E+03   -0.18794E-03   -0.80143E-03 49504   0.176E-01    0.264E-01
DAV:   6    -0.387640282454E+03   -0.45251E-03   -0.20695E-03 49040   0.111E-01    0.421E-01
DAV:   7    -0.387640429313E+03   -0.14686E-03   -0.20692E-03 49112   0.111E-01    0.579E-01
DAV:   8    -0.387640236912E+03    0.19240E-03   -0.13169E-03 46896   0.860E-02    0.516E-01
DAV:   9    -0.387640125016E+03    0.11190E-03   -0.42438E-04 39648   0.434E-02    0.378E-01
DAV:  10    -0.387640135187E+03   -0.10171E-04   -0.25879E-05 30344   0.142E-02    0.380E-01
DAV:  11    -0.387640115989E+03    0.19198E-04   -0.62133E-05 29584   0.184E-02    0.343E-01
DAV:  12    -0.387640041129E+03    0.74860E-04   -0.81714E-04 46872   0.526E-02    0.126E-01
DAV:  13    -0.387640138922E+03   -0.97793E-04   -0.26580E-04 37792   0.317E-02    0.786E-02
DAV:  14    -0.387640155216E+03   -0.16294E-04   -0.49825E-05 30976   0.234E-02    0.624E-02
DAV:  15    -0.387640156895E+03   -0.16789E-05   -0.32284E-05 28992   0.135E-02
  42 F= -.38764016E+03 E0= -.38762533E+03  d E =0.165451E-01  mag=    34.0000
       N       E                     dE             d eps       ncg     rms          rms(c)
DAV:   1    -0.387620743557E+03    0.19412E-01   -0.21979E+00 37328   0.359E+00    0.649E-01
DAV:   2    -0.387655534053E+03   -0.34790E-01   -0.35860E-01 43424   0.856E-01    0.411E+00
DAV:   3    -0.387624521415E+03    0.31013E-01   -0.15011E-01 44936   0.599E-01    0.737E-01
DAV:   4    -0.387631444924E+03   -0.69235E-02   -0.14607E-02 44792   0.254E-01    0.547E-01
DAV:   5    -0.387631545769E+03   -0.10084E-03   -0.29307E-03 45664   0.126E-01    0.312E-01
DAV:   6    -0.387631524898E+03    0.20871E-04   -0.65668E-04 49616   0.710E-02    0.210E-01
DAV:   7    -0.387631687172E+03   -0.16227E-03   -0.14625E-03 48088   0.862E-02    0.397E-01
DAV:   8    -0.387631396732E+03    0.29044E-03   -0.15632E-03 47992   0.868E-02    0.180E-01
DAV:   9    -0.387631576767E+03   -0.18003E-03   -0.44210E-04 39560   0.438E-02    0.184E-01
DAV:  10    -0.387631572337E+03    0.44307E-05   -0.10101E-04 32752   0.226E-02    0.188E-01
DAV:  11    -0.387631547178E+03    0.25159E-04   -0.85821E-06 22784   0.895E-03    0.186E-01
DAV:  12    -0.387631537294E+03    0.98836E-05   -0.20013E-06 18752   0.453E-03
  43 F= -.38763154E+03 E0= -.38761683E+03  d E =0.861960E-02  mag=    34.0000
       N       E                     dE             d eps       ncg     rms          rms(c)
DAV:   1    -0.387570126018E+03    0.61421E-01   -0.10864E+01 37040   0.800E+00    0.771E-01
DAV:   2    -0.387610779689E+03   -0.40654E-01   -0.42205E-01 34944   0.140E+00    0.589E-01
DAV:   3    -0.387618070675E+03   -0.72910E-02   -0.69381E-02 51288   0.372E-01    0.242E+00
DAV:   4    -0.387609232982E+03    0.88377E-02   -0.44147E-02 47728   0.287E-01    0.552E-01
DAV:   5    -0.387611486123E+03   -0.22531E-02   -0.47584E-03 48640   0.158E-01    0.405E-01
DAV:   6    -0.387611572097E+03   -0.85974E-04   -0.29464E-03 49080   0.139E-01    0.404E-01
DAV:   7    -0.387611540554E+03    0.31543E-04   -0.31165E-03 49376   0.131E-01    0.341E-01
DAV:   8    -0.387611635337E+03   -0.94783E-04   -0.10978E-03 46888   0.705E-02    0.343E-01
DAV:   9    -0.387611571209E+03    0.64129E-04   -0.11826E-04 36256   0.261E-02    0.321E-01
DAV:  10    -0.387611524173E+03    0.47036E-04   -0.23736E-05 28704   0.126E-02    0.338E-01
DAV:  11    -0.387611502870E+03    0.21303E-04   -0.11275E-05 23408   0.107E-02    0.357E-01
DAV:  12    -0.387611465886E+03    0.36984E-04   -0.52717E-04 45136   0.566E-02    0.162E-01
DAV:  13    -0.387611538784E+03   -0.72898E-04   -0.34510E-04 43848   0.415E-02    0.755E-02
DAV:  14    -0.387611559189E+03   -0.20405E-04   -0.44887E-05 29176   0.202E-02    0.387E-02
DAV:  15    -0.387611563272E+03   -0.40832E-05   -0.16635E-05 24760   0.117E-02
  44 F= -.38761156E+03 E0= -.38759684E+03  d E =0.199740E-01  mag=    34.0000
       N       E                     dE             d eps       ncg     rms          rms(c)
DAV:   1    -0.387115725866E+03    0.49583E+00   -0.10189E+02 36840   0.248E+01    0.266E+00
DAV:   2    -0.387633650651E+03   -0.51792E+00   -0.55294E+00 37792   0.464E+00    0.603E+00
DAV:   3    -0.387568973004E+03    0.64678E-01   -0.80840E-01 48416   0.181E+00    0.415E+00
DAV:   4    -0.387556400621E+03    0.12572E-01   -0.44920E-01 50432   0.105E+00    0.272E+00
DAV:   5    -0.387552195585E+03    0.42050E-02   -0.10110E-01 51040   0.582E-01    0.181E+00
DAV:   6    -0.387550266871E+03    0.19287E-02   -0.70677E-02 48488   0.430E-01    0.131E+00
DAV:   7    -0.387550074705E+03    0.19217E-03   -0.15008E-02 48184   0.308E-01    0.743E-01
DAV:   8    -0.387550470644E+03   -0.39594E-03   -0.17271E-02 49824   0.284E-01    0.939E-01
DAV:   9    -0.387550797383E+03   -0.32674E-03   -0.15606E-02 49232   0.204E-01    0.736E-01
DAV:  10    -0.387551206257E+03   -0.40887E-03   -0.70723E-03 47992   0.147E-01    0.680E-01
DAV:  11    -0.387551108851E+03    0.97406E-04   -0.39852E-04 41920   0.510E-02    0.695E-01
DAV:  12    -0.387550852609E+03    0.25624E-03   -0.45661E-05 35768   0.185E-02    0.706E-01
DAV:  13    -0.387550755791E+03    0.96819E-04   -0.11831E-04 32304   0.236E-02    0.612E-01
DAV:  14    -0.387551902371E+03   -0.11466E-02   -0.84393E-03 52376   0.162E-01    0.118E+00
DAV:  15    -0.387549989169E+03    0.19132E-02   -0.10168E-02 47552   0.136E-01    0.315E-01
DAV:  16    -0.387550951206E+03   -0.96204E-03   -0.32925E-03 47144   0.115E-01    0.438E-01
DAV:  17    -0.387550715216E+03    0.23599E-03   -0.17338E-03 48552   0.637E-02    0.159E-01
DAV:  18    -0.387550829120E+03   -0.11390E-03   -0.22804E-04 39632   0.396E-02    0.143E-01
DAV:  19    -0.387550809269E+03    0.19851E-04   -0.14733E-04 32928   0.241E-02    0.246E-02
DAV:  20    -0.387550821726E+03   -0.12457E-04   -0.20059E-05 26632   0.129E-02    0.236E-02
DAV:  21    -0.387550820860E+03    0.86631E-06   -0.43215E-06 19848   0.651E-03
  45 F= -.38755082E+03 E0= -.38753601E+03  d E =0.607424E-01  mag=    34.0000
       N       E                     dE             d eps       ncg     rms          rms(c)
DAV:   1    -0.387539600506E+03    0.11221E-01   -0.48927E+00 37272   0.612E+00    0.964E-01
DAV:   2    -0.387614030613E+03   -0.74430E-01   -0.64643E-01 41224   0.132E+00    0.648E+00
DAV:   3    -0.387551121833E+03    0.62909E-01   -0.57297E-01 45128   0.815E-01    0.145E+00
DAV:   4    -0.387570709957E+03   -0.19588E-01   -0.12505E-02 40320   0.315E-01    0.137E+00
DAV:   5    -0.387568601118E+03    0.21088E-02   -0.53357E-03 46432   0.176E-01    0.997E-01
DAV:   6    -0.387567836065E+03    0.76505E-03   -0.45884E-03 49728   0.130E-01    0.491E-01
DAV:   7    -0.387569096722E+03   -0.12607E-02   -0.10064E-02 48216   0.143E-01    0.854E-01
DAV:   8    -0.387569463240E+03   -0.36652E-03   -0.18027E-03 42816   0.106E-01    0.930E-01
DAV:   9    -0.387569131179E+03    0.33206E-03   -0.37739E-04 40944   0.451E-02    0.856E-01
DAV:  10    -0.387569243047E+03   -0.11187E-03   -0.82000E-04 46456   0.560E-02    0.867E-01
DAV:  11    -0.387569011192E+03    0.23185E-03   -0.11912E-03 47776   0.633E-02    0.761E-01
DAV:  12    -0.387568944815E+03    0.66377E-04   -0.49626E-04 46264   0.583E-02    0.562E-01
DAV:  13    -0.387568891433E+03    0.53383E-04   -0.52642E-04 47144   0.570E-02    0.314E-01
DAV:  14    -0.387569019717E+03   -0.12828E-03   -0.11797E-03 45360   0.480E-02    0.209E-01
DAV:  15    -0.387569083742E+03   -0.64025E-04   -0.18596E-04 37688   0.310E-02    0.265E-01
DAV:  16    -0.387569033318E+03    0.50424E-04   -0.29367E-05 29872   0.198E-02    0.250E-01
DAV:  17    -0.387569024264E+03    0.90536E-05   -0.30607E-04 44624   0.419E-02    0.529E-02
DAV:  18    -0.387569066891E+03   -0.42627E-04   -0.55614E-05 36224   0.197E-02    0.310E-02
DAV:  19    -0.387569069310E+03   -0.24195E-05   -0.23073E-05 23328   0.128E-02
  46 F= -.38756907E+03 E0= -.38755432E+03  d E =-.182485E-01  mag=    34.0000
       N       E                     dE             d eps       ncg     rms          rms(c)
DAV:   1    -0.387569588365E+03   -0.52147E-03   -0.25213E+00 36184   0.386E+00    0.396E-01
DAV:   2    -0.387581061516E+03   -0.11473E-01   -0.11642E-01 35216   0.699E-01    0.107E+00
DAV:   3    -0.387580763344E+03    0.29817E-03   -0.30902E-02 49184   0.235E-01    0.109E+00
DAV:   4    -0.387580001374E+03    0.76197E-03   -0.85848E-03 46048   0.160E-01    0.308E-01
DAV:   5    -0.387580207314E+03   -0.20594E-03   -0.14608E-03 49512   0.881E-02    0.178E-01
DAV:   6    -0.387580248701E+03   -0.41388E-04   -0.69466E-04 46792   0.641E-02    0.211E-01
DAV:   7    -0.387580177239E+03    0.71462E-04   -0.56281E-04 46864   0.575E-02    0.149E-01
DAV:   8    -0.387580191587E+03   -0.14348E-04   -0.37723E-04 39648   0.421E-02    0.150E-01
DAV:   9    -0.387580167324E+03    0.24263E-04   -0.20051E-04 34376   0.319E-02    0.804E-02
DAV:  10    -0.387580174605E+03   -0.72808E-05   -0.63306E-05 31224   0.207E-02
  47 F= -.38758017E+03 E0= -.38756550E+03  d E =-.111053E-01  mag=    34.0000
       N       E                     dE             d eps       ncg     rms          rms(c)
DAV:   1    -0.387581913293E+03   -0.17460E-02   -0.99999E-01 36784   0.288E+00    0.315E-01
DAV:   2    -0.387589576914E+03   -0.76636E-02   -0.69615E-02 38592   0.550E-01    0.183E+00
DAV:   3    -0.387585188447E+03    0.43885E-02   -0.31548E-02 45416   0.238E-01    0.363E-01
DAV:   4    -0.387586798727E+03   -0.16103E-02   -0.32674E-03 43592   0.129E-01    0.344E-01
DAV:   5    -0.387586573834E+03    0.22489E-03   -0.13404E-03 48240   0.844E-02    0.162E-01
DAV:   6    -0.387586606165E+03   -0.32330E-04   -0.35072E-04 42264   0.451E-02    0.134E-01
DAV:   7    -0.387586597085E+03    0.90797E-05   -0.30104E-04 40880   0.449E-02    0.149E-01
DAV:   8    -0.387586599233E+03   -0.21476E-05   -0.27848E-04 42616   0.346E-02    0.169E-01
DAV:   9    -0.387586578493E+03    0.20740E-04   -0.97836E-05 31224   0.244E-02    0.127E-01
DAV:  10    -0.387586569270E+03    0.92231E-05   -0.36024E-05 26960   0.150E-02
  48 F= -.38758657E+03 E0= -.38757194E+03  d E =-.639467E-02  mag=    34.0000
       N       E                     dE             d eps       ncg     rms          rms(c)
DAV:   1    -0.387529297587E+03    0.57281E-01   -0.16430E+01 36504   0.109E+01    0.101E+00
DAV:   2    -0.387603817057E+03   -0.74519E-01   -0.74535E-01 36608   0.193E+00    0.339E+00
DAV:   3    -0.387592536417E+03    0.11281E-01   -0.21920E-01 48136   0.687E-01    0.220E+00
DAV:   4    -0.387593520852E+03   -0.98443E-03   -0.70689E-02 47496   0.396E-01    0.108E+00
DAV:   5    -0.387592825413E+03    0.69544E-03   -0.10151E-02 49744   0.225E-01    0.514E-01
DAV:   6    -0.387593252338E+03   -0.42692E-03   -0.41182E-03 48712   0.146E-01    0.502E-01
DAV:   7    -0.387593283921E+03   -0.31583E-04   -0.34593E-03 48632   0.124E-01    0.582E-01
DAV:   8    -0.387593187116E+03    0.96805E-04   -0.26381E-03 48144   0.104E-01    0.369E-01
DAV:   9    -0.387593289158E+03   -0.10204E-03   -0.14029E-03 48392   0.865E-02    0.286E-01
DAV:  10    -0.387593358737E+03   -0.69579E-04   -0.36579E-04 38760   0.347E-02    0.251E-01
DAV:  11    -0.387593346679E+03    0.12058E-04   -0.61431E-05 29696   0.204E-02    0.253E-01
DAV:  12    -0.387593325987E+03    0.20692E-04   -0.78170E-06 22072   0.867E-03    0.257E-01
DAV:  13    -0.387593316326E+03    0.96611E-05   -0.10694E-05 24448   0.125E-02
  49 F= -.38759332E+03 E0= -.38757881E+03  d E =-.674706E-02  mag=    34.0000
       N       E                     dE             d eps       ncg     rms          rms(c)
DAV:   1    -0.386858393330E+03    0.73493E+00   -0.17451E+02 36048   0.361E+01    0.313E+00
DAV:   2    -0.387575388678E+03   -0.71700E+00   -0.73755E+00 34944   0.634E+00    0.210E+00
DAV:   3    -0.387695361725E+03   -0.11997E+00   -0.11134E+00 51968   0.150E+00    0.101E+01
DAV:   4    -0.387548197132E+03    0.14716E+00   -0.10506E+00 48816   0.106E+00    0.180E+00
DAV:   5    -0.387595426254E+03   -0.47229E-01   -0.94330E-02 47872   0.596E-01    0.165E+00
DAV:   6    -0.387592783099E+03    0.26432E-02   -0.33424E-02 45824   0.439E-01    0.108E+00
DAV:   7    -0.387594348280E+03   -0.15652E-02   -0.22984E-02 49576   0.329E-01    0.102E+00
DAV:   8    -0.387595094095E+03   -0.74581E-03   -0.21156E-02 49192   0.248E-01    0.127E+00
DAV:   9    -0.387593632618E+03    0.14615E-02   -0.50961E-03 46496   0.162E-01    0.918E-01
DAV:  10    -0.387593111574E+03    0.52104E-03   -0.71813E-03 48656   0.119E-01    0.427E-01
DAV:  11    -0.387594690210E+03   -0.15786E-02   -0.52387E-03 47504   0.171E-01    0.599E-01
DAV:  12    -0.387594420216E+03    0.26999E-03   -0.25435E-03 47352   0.124E-01    0.330E-01
DAV:  13    -0.387594414675E+03    0.55403E-05   -0.71464E-04 49192   0.567E-02    0.280E-01
DAV:  14    -0.387594443507E+03   -0.28832E-04   -0.70353E-05 36504   0.237E-02    0.292E-01
DAV:  15    -0.387594409374E+03    0.34134E-04   -0.58654E-05 30720   0.189E-02    0.239E-01
DAV:  16    -0.387594547293E+03   -0.13792E-03   -0.11203E-03 46432   0.728E-02    0.370E-01
DAV:  17    -0.387594371649E+03    0.17564E-03   -0.50957E-04 42272   0.571E-02    0.166E-01
DAV:  18    -0.387594437974E+03   -0.66325E-04   -0.22262E-04 36736   0.345E-02    0.129E-01
DAV:  19    -0.387594456373E+03   -0.18399E-04   -0.10492E-04 33992   0.285E-02    0.113E-01
DAV:  20    -0.387594453791E+03    0.25823E-05   -0.11801E-04 35192   0.224E-02    0.369E-02
DAV:  21    -0.387594461965E+03   -0.81746E-05   -0.14911E-05 25080   0.122E-02
  50 F= -.38759446E+03 E0= -.38758003E+03  d E =-.114564E-02  mag=    34.0000
       N       E                     dE             d eps       ncg     rms          rms(c)
DAV:   1    -0.387433647611E+03    0.16081E+00   -0.15560E+01 38000   0.138E+01    0.189E+00
DAV:   2    -0.387622951612E+03   -0.18930E+00   -0.18289E+00 35856   0.259E+00    0.520E+00
DAV:   3    -0.387633333860E+03   -0.10382E-01   -0.12605E+00 48048   0.116E+00    0.468E+00
DAV:   4    -0.387622802569E+03    0.10531E-01   -0.27898E-01 49712   0.885E-01    0.333E+00
DAV:   5    -0.387611124284E+03    0.11678E-01   -0.80757E-02 50584   0.555E-01    0.221E+00
DAV:   6    -0.387609717508E+03    0.14068E-02   -0.24860E-02 51424   0.277E-01    0.152E+00
DAV:   7    -0.387610430935E+03   -0.71343E-03   -0.33218E-02 49888   0.272E-01    0.991E-01
DAV:   8    -0.387613017499E+03   -0.25866E-02   -0.14459E-02 45552   0.251E-01    0.128E+00
DAV:   9    -0.387612160991E+03    0.85651E-03   -0.52934E-03 47392   0.153E-01    0.823E-01
DAV:  10    -0.387612545715E+03   -0.38472E-03   -0.13165E-03 47920   0.791E-02    0.888E-01
DAV:  11    -0.387612604008E+03   -0.58293E-04   -0.83240E-04 46952   0.672E-02    0.984E-01
DAV:  12    -0.387612160253E+03    0.44375E-03   -0.74348E-04 48176   0.627E-02    0.798E-01
DAV:  13    -0.387611895056E+03    0.26520E-03   -0.15062E-03 49128   0.809E-02    0.463E-01
DAV:  14    -0.387612260259E+03   -0.36520E-03   -0.41388E-03 47848   0.847E-02    0.364E-01
DAV:  15    -0.387612532660E+03   -0.27240E-03   -0.91149E-04 39968   0.573E-02    0.531E-01
DAV:  16    -0.387612328729E+03    0.20393E-03   -0.18829E-04 38376   0.405E-02    0.489E-01
DAV:  17    -0.387612276935E+03    0.51794E-04   -0.21366E-04 45592   0.411E-02    0.409E-01
DAV:  18    -0.387612256530E+03    0.20405E-04   -0.11096E-03 46360   0.541E-02    0.865E-02
DAV:  19    -0.387612383921E+03   -0.12739E-03   -0.22297E-04 38776   0.341E-02    0.622E-02
DAV:  20    -0.387612391446E+03   -0.75257E-05   -0.36999E-05 27784   0.174E-02
  51 F= -.38761239E+03 E0= -.38759756E+03  d E =-.179295E-01  mag=    34.0000
       N       E                     dE             d eps       ncg     rms          rms(c)
DAV:   1    -0.387467080459E+03    0.14530E+00   -0.22068E+01 36736   0.147E+01    0.169E+00
DAV:   2    -0.387646838726E+03   -0.17976E+00   -0.18973E+00 38112   0.277E+00    0.539E+00
DAV:   3    -0.387590810819E+03    0.56028E-01   -0.47222E-01 47984   0.121E+00    0.237E+00
DAV:   4    -0.387597546269E+03   -0.67355E-02   -0.15220E-01 48440   0.708E-01    0.148E+00
DAV:   5    -0.387595827238E+03    0.17190E-02   -0.26763E-02 50800   0.380E-01    0.793E-01
DAV:   6    -0.387595910715E+03   -0.83477E-04   -0.57920E-03 49624   0.205E-01    0.409E-01
DAV:   7    -0.387596565243E+03   -0.65453E-03   -0.43458E-03 49512   0.165E-01    0.557E-01
DAV:   8    -0.387596704449E+03   -0.13921E-03   -0.57996E-03 50768   0.166E-01    0.621E-01
DAV:   9    -0.387596489578E+03    0.21487E-03   -0.29555E-03 48536   0.120E-01    0.360E-01
DAV:  10    -0.387596590398E+03   -0.10082E-03   -0.93912E-04 44144   0.583E-02    0.301E-01
DAV:  11    -0.387596547635E+03    0.42763E-04   -0.54016E-05 31976   0.212E-02    0.304E-01
DAV:  12    -0.387596467944E+03    0.79691E-04   -0.10627E-04 33008   0.255E-02    0.338E-01
DAV:  13    -0.387596448907E+03    0.19037E-04   -0.15190E-05 24744   0.114E-02    0.345E-01
DAV:  14    -0.387596449787E+03   -0.88025E-06   -0.22561E-05 25704   0.126E-02
  52 F= -.38759645E+03 E0= -.38758198E+03  d E =0.159417E-01  mag=    34.0000
       N       E                     dE             d eps       ncg     rms          rms(c)
DAV:   1    -0.387582392292E+03    0.14057E-01   -0.13133E+00 37152   0.363E+00    0.667E-01
DAV:   2    -0.387621572976E+03   -0.39181E-01   -0.40568E-01 44920   0.888E-01    0.462E+00
DAV:   3    -0.387582084989E+03    0.39488E-01   -0.17322E-01 45440   0.637E-01    0.834E-01
DAV:   4    -0.387590375613E+03   -0.82906E-02   -0.13761E-02 44072   0.246E-01    0.502E-01
DAV:   5    -0.387591054558E+03   -0.67894E-03   -0.25258E-03 41856   0.125E-01    0.352E-01
DAV:   6    -0.387590970819E+03    0.83739E-04   -0.33736E-04 48560   0.545E-02    0.295E-01
DAV:   7    -0.387590920285E+03    0.50534E-04   -0.11286E-04 33840   0.277E-02    0.275E-01
DAV:   8    -0.387590809660E+03    0.11062E-03   -0.50875E-04 43240   0.551E-02    0.222E-01
DAV:   9    -0.387590959244E+03   -0.14958E-03   -0.18735E-03 49056   0.756E-02    0.225E-01
DAV:  10    -0.387591101783E+03   -0.14254E-03   -0.10319E-03 45104   0.610E-02    0.243E-01
DAV:  11    -0.387591089104E+03    0.12679E-04   -0.11668E-04 35384   0.333E-02    0.213E-01
DAV:  12    -0.387591054546E+03    0.34558E-04   -0.11311E-04 38080   0.306E-02    0.157E-01
DAV:  13    -0.387591074471E+03   -0.19925E-04   -0.52126E-04 44400   0.386E-02    0.141E-01
DAV:  14    -0.387591074471E+03    0.10186E-09   -0.74339E-05 35936   0.243E-02
  53 F= -.38759107E+03 E0= -.38757635E+03  d E =0.537532E-02  mag=    34.0000
       N       E                     dE             d eps       ncg     rms          rms(c)
DAV:   1    -0.387583694484E+03    0.73800E-02   -0.21863E+00 36624   0.400E+00    0.336E-01
DAV:   2    -0.387592264954E+03   -0.85705E-02   -0.85675E-02 35000   0.698E-01    0.849E-01
DAV:   3    -0.387592684167E+03   -0.41921E-03   -0.25301E-02 50168   0.202E-01    0.109E+00
DAV:   4    -0.387591478952E+03    0.12052E-02   -0.85654E-03 43232   0.155E-01    0.367E-01
DAV:   5    -0.387591755910E+03   -0.27696E-03   -0.12980E-03 48160   0.757E-02    0.175E-01
DAV:   6    -0.387591830578E+03   -0.74669E-04   -0.34649E-04 43432   0.490E-02    0.142E-01
DAV:   7    -0.387591844707E+03   -0.14128E-04   -0.44759E-04 43808   0.502E-02    0.164E-01
DAV:   8    -0.387591842658E+03    0.20490E-05   -0.33363E-04 43688   0.420E-02    0.155E-01
DAV:   9    -0.387591839708E+03    0.29497E-05   -0.10138E-04 29720   0.226E-02    0.110E-01
DAV:  10    -0.387591841411E+03   -0.17026E-05   -0.11427E-05 21080   0.916E-03
  54 F= -.38759184E+03 E0= -.38757709E+03  d E =-.766940E-03  mag=    34.0000
       N       E                     dE             d eps       ncg     rms          rms(c)
DAV:   1    -0.387335295591E+03    0.25654E+00   -0.64401E+01 36440   0.222E+01    0.191E+00
DAV:   2    -0.387592242927E+03   -0.25695E+00   -0.26198E+00 34944   0.386E+00    0.236E+00
DAV:   3    -0.387660767693E+03   -0.68525E-01   -0.81547E-01 51224   0.117E+00    0.743E+00
DAV:   4    -0.387583902257E+03    0.76865E-01   -0.71841E-01 50088   0.908E-01    0.222E+00
DAV:   5    -0.387596488606E+03   -0.12586E-01   -0.32334E-02 46480   0.556E-01    0.122E+00
DAV:   6    -0.387596390352E+03    0.98254E-04   -0.22195E-02 51264   0.296E-01    0.111E+00
DAV:   7    -0.387597980531E+03   -0.15902E-02   -0.25427E-02 49824   0.327E-01    0.127E+00
DAV:   8    -0.387595615651E+03    0.23649E-02   -0.16488E-02 48504   0.273E-01    0.926E-01
DAV:   9    -0.387597145437E+03   -0.15298E-02   -0.34248E-03 44272   0.138E-01    0.103E+00
DAV:  10    -0.387596815898E+03    0.32954E-03   -0.71699E-04 43904   0.697E-02    0.931E-01
DAV:  11    -0.387596708543E+03    0.10736E-03   -0.74018E-04 39120   0.533E-02    0.764E-01
DAV:  12    -0.387596538095E+03    0.17045E-03   -0.95950E-03 49064   0.172E-01    0.573E-01
DAV:  13    -0.387596815625E+03   -0.27753E-03   -0.16050E-03 47136   0.113E-01    0.570E-01
DAV:  14    -0.387596412043E+03    0.40358E-03   -0.70544E-04 47024   0.659E-02    0.374E-01
DAV:  15    -0.387596549035E+03   -0.13699E-03   -0.29074E-04 45200   0.484E-02    0.401E-01
DAV:  16    -0.387596599635E+03   -0.50600E-04   -0.14073E-03 43968   0.639E-02    0.337E-01
DAV:  17    -0.387596639894E+03   -0.40258E-04   -0.20971E-04 39136   0.455E-02    0.234E-01
DAV:  18    -0.387596662253E+03   -0.22359E-04   -0.28635E-04 44656   0.389E-02    0.840E-02
DAV:  19    -0.387596708432E+03   -0.46179E-04   -0.95571E-05 38096   0.259E-02    0.482E-02
DAV:  20    -0.387596708608E+03   -0.17671E-06   -0.34954E-05 26992   0.142E-02
  55 F= -.38759671E+03 E0= -.38758168E+03  d E =-.486720E-02  mag=    34.0000
       N       E                     dE             d eps       ncg     rms          rms(c)
DAV:   1    -0.387575842075E+03    0.20866E-01   -0.41116E+00 37144   0.668E+00    0.730E-01
DAV:   2    -0.387610548763E+03   -0.34707E-01   -0.33777E-01 35520   0.125E+00    0.271E+00
DAV:   3    -0.387603384405E+03    0.71644E-02   -0.15665E-01 47072   0.473E-01    0.166E+00
DAV:   4    -0.387605128402E+03   -0.17440E-02   -0.19334E-02 45952   0.285E-01    0.984E-01
DAV:   5    -0.387604333127E+03    0.79528E-03   -0.64255E-03 50792   0.169E-01    0.473E-01
DAV:   6    -0.387604678473E+03   -0.34535E-03   -0.22994E-03 47448   0.103E-01    0.280E-01
DAV:   7    -0.387604937762E+03   -0.25929E-03   -0.23578E-03 47816   0.909E-02    0.398E-01
DAV:   8    -0.387604980283E+03   -0.42521E-04   -0.14496E-03 47088   0.831E-02    0.448E-01
DAV:   9    -0.387604846738E+03    0.13354E-03   -0.76386E-04 46304   0.544E-02    0.289E-01
DAV:  10    -0.387604885427E+03   -0.38689E-04   -0.41477E-04 36680   0.450E-02    0.228E-01
DAV:  11    -0.387604917740E+03   -0.32313E-04   -0.17510E-04 32320   0.259E-02    0.180E-01
DAV:  12    -0.387604942318E+03   -0.24578E-04   -0.48808E-05 32264   0.213E-02    0.185E-01
DAV:  13    -0.387604938007E+03    0.43116E-05   -0.18780E-05 28072   0.163E-02
  56 F= -.38760494E+03 E0= -.38758992E+03  d E =-.822940E-02  mag=    34.0000
       N       E                     dE             d eps       ncg     rms          rms(c)
DAV:   1    -0.387558871191E+03    0.46071E-01   -0.11715E+01 36608   0.949E+00    0.876E-01
DAV:   2    -0.387619764143E+03   -0.60893E-01   -0.61552E-01 38056   0.171E+00    0.372E+00
DAV:   3    -0.387599669577E+03    0.20095E-01   -0.19715E-01 45928   0.655E-01    0.138E+00
DAV:   4    -0.387604497578E+03   -0.48280E-02   -0.35836E-02 46536   0.351E-01    0.744E-01
DAV:   5    -0.387603910434E+03    0.58714E-03   -0.78394E-03 51752   0.182E-01    0.365E-01
DAV:   6    -0.387603997957E+03   -0.87524E-04   -0.18989E-03 47848   0.102E-01    0.307E-01
DAV:   7    -0.387604135745E+03   -0.13779E-03   -0.28219E-03 49160   0.110E-01    0.446E-01
DAV:   8    -0.387603892932E+03    0.24281E-03   -0.20179E-03 47704   0.101E-01    0.262E-01
DAV:   9    -0.387603984404E+03   -0.91472E-04   -0.10307E-03 46816   0.653E-02    0.181E-01
DAV:  10    -0.387604056681E+03   -0.72277E-04   -0.21558E-04 34232   0.302E-02    0.184E-01
DAV:  11    -0.387604021737E+03    0.34945E-04   -0.20853E-05 27416   0.123E-02    0.200E-01
DAV:  12    -0.387604004516E+03    0.17221E-04   -0.63826E-05 31728   0.223E-02    0.180E-01
DAV:  13    -0.387603986281E+03    0.18234E-04   -0.35842E-04 46232   0.391E-02    0.869E-02
DAV:  14    -0.387604030018E+03   -0.43737E-04   -0.16427E-04 34856   0.292E-02    0.860E-02
DAV:  15    -0.387604029012E+03    0.10066E-05   -0.33447E-05 27904   0.190E-02
  57 F= -.38760403E+03 E0= -.38758891E+03  d E =0.908995E-03  mag=    34.0000
