       N       E                     dE             d eps       ncg     rms          rms(c)
DAV:   1     0.651384041342E+04    0.65138E+04   -0.28028E+05 37536   0.153E+03
DAV:   2     0.341510009438E+03   -0.61723E+04   -0.58041E+04 38056   0.467E+02
DAV:   3    -0.381404661516E+03   -0.72291E+03   -0.70983E+03 39328   0.171E+02
DAV:   4    -0.412477407990E+03   -0.31073E+02   -0.30528E+02 49448   0.313E+01
DAV:   5    -0.414753539936E+03   -0.22761E+01   -0.22610E+01 63720   0.637E+00    0.634E+01
DAV:   6    -0.356587782911E+03    0.58166E+02   -0.27721E+02 41216   0.410E+01    0.562E+01
DAV:   7    -0.378881814137E+03   -0.22294E+02   -0.78643E+01 41792   0.301E+01    0.818E+01
DAV:   8    -0.371001323784E+03    0.78805E+01   -0.80240E+01 40632   0.205E+01    0.551E+01
DAV:   9    -0.358253718365E+03    0.12748E+02   -0.20792E+01 42504   0.127E+01    0.437E+01
DAV:  10    -0.366369000145E+03   -0.81153E+01   -0.28563E+01 43128   0.969E+00    0.517E+01
DAV:  11    -0.363359731165E+03    0.30093E+01   -0.39369E+01 43104   0.123E+01    0.392E+01
DAV:  12    -0.364109847017E+03   -0.75012E+00   -0.10441E+01 41448   0.111E+01    0.413E+01
DAV:  13    -0.362584425803E+03    0.15254E+01   -0.13549E+01 42504   0.697E+00    0.231E+01
DAV:  14    -0.368685530090E+03   -0.61011E+01   -0.48048E+00 42792   0.422E+00    0.159E+01
DAV:  15    -0.373082517021E+03   -0.43970E+01   -0.64952E+00 42760   0.449E+00    0.212E+01
DAV:  16    -0.375499873298E+03   -0.24174E+01   -0.58556E+00 43080   0.361E+00    0.118E+01
DAV:  17    -0.378115186999E+03   -0.26153E+01   -0.17276E+00 44288   0.313E+00    0.631E+00
DAV:  18    -0.380545082924E+03   -0.24299E+01   -0.17590E+00 44576   0.244E+00    0.705E+00
DAV:  19    -0.381174451763E+03   -0.62937E+00   -0.77268E-01 43000   0.176E+00    0.470E+00
DAV:  20    -0.381563482726E+03   -0.38903E+00   -0.18598E-01 43408   0.105E+00    0.360E+00
DAV:  21    -0.381973269266E+03   -0.40979E+00   -0.15891E-01 42560   0.771E-01    0.332E+00
DAV:  22    -0.382214704163E+03   -0.24143E+00   -0.91045E-02 45072   0.515E-01    0.369E+00
DAV:  23    -0.382234549458E+03   -0.19845E-01   -0.11950E-02 43936   0.240E-01    0.395E+00
DAV:  24    -0.382236375852E+03   -0.18264E-02   -0.71068E-03 42480   0.122E-01    0.458E+00
DAV:  25    -0.382472466338E+03   -0.23609E+00   -0.20487E-01 44560   0.863E-01    0.312E+00
DAV:  26    -0.382801438651E+03   -0.32897E+00   -0.27828E-01 40968   0.869E-01    0.501E+00
DAV:  27    -0.382882765354E+03   -0.81327E-01   -0.53563E-02 41680   0.502E-01    0.432E+00
DAV:  28    -0.382933929170E+03   -0.51164E-01   -0.48678E-02 44224   0.357E-01    0.265E+00
DAV:  29    -0.382986570851E+03   -0.52642E-01   -0.32891E-02 41640   0.323E-01    0.154E+00
DAV:  30    -0.383002113295E+03   -0.15542E-01   -0.12780E-02 43872   0.208E-01    0.759E-01
DAV:  31    -0.383006174283E+03   -0.40610E-02   -0.35429E-03 40856   0.137E-01    0.912E-01
DAV:  32    -0.383008233879E+03   -0.20596E-02   -0.38753E-03 44656   0.149E-01    0.736E-01
DAV:  33    -0.383011291547E+03   -0.30577E-02   -0.69726E-03 41096   0.144E-01    0.138E+00
DAV:  34    -0.383010444160E+03    0.84739E-03   -0.14429E-03 41680   0.121E-01    0.115E+00
DAV:  35    -0.383009010453E+03    0.14337E-02   -0.26075E-03 52072   0.989E-02    0.351E-01
DAV:  36    -0.383009673872E+03   -0.66342E-03   -0.81810E-04 39368   0.660E-02    0.170E-01
DAV:  37    -0.383009776814E+03   -0.10294E-03   -0.63957E-04 42056   0.489E-02    0.295E-01
DAV:  38    -0.383009738995E+03    0.37820E-04   -0.16161E-04 38104   0.345E-02    0.236E-01
DAV:  39    -0.383009684518E+03    0.54476E-04   -0.16103E-04 41016   0.290E-02    0.591E-02
DAV:  40    -0.383009706203E+03   -0.21685E-04   -0.34054E-05 32840   0.145E-02    0.644E-02
DAV:  41    -0.383009708809E+03   -0.26057E-05   -0.18789E-05 30840   0.975E-03
   1 F= -.38300971E+03 E0= -.38300012E+03  d E =-.383010E+03  mag=    46.0038
       N       E                     dE             d eps       ncg     rms          rms(c)
DAV:   1    -0.383021855494E+03   -0.12149E-01   -0.71877E-03 40856   0.168E-01    0.428E-02
DAV:   2    -0.383021928982E+03   -0.73488E-04   -0.54778E-04 40736   0.412E-02    0.219E-01
DAV:   3    -0.383021865011E+03    0.63971E-04   -0.17713E-04 34712   0.266E-02    0.514E-02
DAV:   4    -0.383021881550E+03   -0.16539E-04   -0.44299E-05 25112   0.113E-02    0.623E-02
DAV:   5    -0.383021880717E+03    0.83246E-06   -0.12701E-05 23712   0.957E-03
   2 F= -.38302188E+03 E0= -.38301231E+03  d E =-.121719E-01  mag=    46.0026
       N       E                     dE             d eps       ncg     rms          rms(c)
DAV:   1    -0.383335069660E+03   -0.31319E+00   -0.66900E+00 40048   0.512E+00    0.600E-01
DAV:   2    -0.383360011404E+03   -0.24942E-01   -0.26685E-01 40008   0.859E-01    0.133E+00
DAV:   3    -0.383360071194E+03   -0.59790E-04   -0.27447E-02 50600   0.303E-01    0.142E+00
DAV:   4    -0.383358101474E+03    0.19697E-02   -0.52746E-03 42720   0.185E-01    0.794E-01
DAV:   5    -0.383357746837E+03    0.35464E-03   -0.31614E-03 49296   0.108E-01    0.381E-01
DAV:   6    -0.383357825889E+03   -0.79052E-04   -0.16894E-03 44232   0.958E-02    0.453E-01
DAV:   7    -0.383357614974E+03    0.21091E-03   -0.10115E-03 45016   0.957E-02    0.489E-01
DAV:   8    -0.383357389164E+03    0.22581E-03   -0.79939E-04 48936   0.688E-02    0.242E-01
DAV:   9    -0.383357437387E+03   -0.48223E-04   -0.25002E-04 41608   0.375E-02    0.991E-02
DAV:  10    -0.383357502073E+03   -0.64686E-04   -0.12360E-04 35280   0.256E-02    0.241E-01
DAV:  11    -0.383357465429E+03    0.36645E-04   -0.32751E-05 31072   0.161E-02    0.234E-01
DAV:  12    -0.383357403446E+03    0.61983E-04   -0.10465E-04 31152   0.207E-02    0.385E-02
DAV:  13    -0.383357473801E+03   -0.70354E-04   -0.85333E-05 27000   0.133E-02    0.168E-01
DAV:  14    -0.383357454590E+03    0.19211E-04   -0.19207E-05 26984   0.139E-02    0.142E-01
DAV:  15    -0.383357437059E+03    0.17530E-04   -0.14600E-05 23184   0.741E-03    0.647E-02
DAV:  16    -0.383357445687E+03   -0.86273E-05   -0.26806E-05 25024   0.803E-03
   3 F= -.38335745E+03 E0= -.38334793E+03  d E =-.335565E+00  mag=    46.0004
       N       E                     dE             d eps       ncg     rms          rms(c)
DAV:   1    -0.383813486669E+03   -0.45605E+00   -0.41965E+01 40200   0.133E+01    0.147E+00
DAV:   2    -0.383981977810E+03   -0.16849E+00   -0.18179E+00 39664   0.221E+00    0.138E+00
DAV:   3    -0.383998997428E+03   -0.17020E-01   -0.16119E-01 51808   0.629E-01    0.405E+00
DAV:   4    -0.383975224895E+03    0.23773E-01   -0.62380E-02 44744   0.457E-01    0.130E+00
DAV:   5    -0.383979417874E+03   -0.41930E-02   -0.18979E-02 48688   0.274E-01    0.113E+00
DAV:   6    -0.383979247902E+03    0.16997E-03   -0.98763E-03 44600   0.251E-01    0.123E+00
DAV:   7    -0.383976611875E+03    0.26360E-02   -0.61294E-03 44576   0.235E-01    0.877E-01
DAV:   8    -0.383975894115E+03    0.71776E-03   -0.47499E-03 48560   0.163E-01    0.397E-01
DAV:   9    -0.383976005469E+03   -0.11135E-03   -0.12700E-03 52128   0.857E-02    0.271E-01
DAV:  10    -0.383975997885E+03    0.75842E-05   -0.12355E-03 46168   0.651E-02    0.216E-01
DAV:  11    -0.383975995277E+03    0.26074E-05   -0.34346E-04 44904   0.392E-02    0.101E-01
DAV:  12    -0.383976059197E+03   -0.63920E-04   -0.21537E-04 35984   0.259E-02    0.212E-01
DAV:  13    -0.383976086542E+03   -0.27345E-04   -0.46239E-05 29024   0.163E-02    0.297E-01
DAV:  14    -0.383976017618E+03    0.68923E-04   -0.16746E-05 27664   0.116E-02    0.241E-01
DAV:  15    -0.383975971349E+03    0.46270E-04   -0.15023E-04 34152   0.199E-02    0.510E-02
DAV:  16    -0.383976060612E+03   -0.89263E-04   -0.11562E-04 29752   0.152E-02    0.210E-01
DAV:  17    -0.383976047158E+03    0.13453E-04   -0.18221E-05 26056   0.130E-02    0.230E-01
DAV:  18    -0.383975989562E+03    0.57597E-04   -0.43462E-05 28296   0.139E-02    0.961E-02
DAV:  19    -0.383976009080E+03   -0.19518E-04   -0.41098E-05 25536   0.817E-03    0.370E-02
DAV:  20    -0.383976019942E+03   -0.10863E-04   -0.64191E-06 24048   0.697E-03    0.550E-02
DAV:  21    -0.383976015563E+03    0.43798E-05   -0.82531E-06 20760   0.685E-03
   4 F= -.38397602E+03 E0= -.38396667E+03  d E =-.618570E+00  mag=    46.0000
       N       E                     dE             d eps       ncg     rms          rms(c)
DAV:   1    -0.384153242363E+03   -0.17722E+00   -0.65561E+01 40496   0.184E+01    0.200E+00
DAV:   2    -0.384458464716E+03   -0.30522E+00   -0.31211E+00 38992   0.313E+00    0.321E+00
DAV:   3    -0.384477043916E+03   -0.18579E-01   -0.39782E-01 52456   0.950E-01    0.413E+00
DAV:   4    -0.384453696446E+03    0.23347E-01   -0.10462E-01 45472   0.709E-01    0.242E+00
DAV:   5    -0.384448807544E+03    0.48889E-02   -0.43059E-02 47984   0.376E-01    0.968E-01
DAV:   6    -0.384450475970E+03   -0.16684E-02   -0.10294E-02 47592   0.282E-01    0.132E+00
DAV:   7    -0.384447039083E+03    0.34369E-02   -0.81393E-03 43928   0.256E-01    0.983E-01
DAV:   8    -0.384445915750E+03    0.11233E-02   -0.63246E-03 48880   0.202E-01    0.571E-01
DAV:   9    -0.384446229365E+03   -0.31362E-03   -0.32367E-03 50048   0.122E-01    0.578E-01
DAV:  10    -0.384445662447E+03    0.56692E-03   -0.12153E-03 48368   0.101E-01    0.127E-01
DAV:  11    -0.384445850913E+03   -0.18847E-03   -0.54506E-04 49656   0.489E-02    0.175E-01
DAV:  12    -0.384445837452E+03    0.13461E-04   -0.13326E-04 40536   0.349E-02    0.977E-02
DAV:  13    -0.384445862187E+03   -0.24735E-04   -0.14802E-04 33608   0.227E-02    0.150E-01
DAV:  14    -0.384445860281E+03    0.19059E-05   -0.23634E-05 29000   0.148E-02
   5 F= -.38444586E+03 E0= -.38443671E+03  d E =-.469845E+00  mag=    46.0000
       N       E                     dE             d eps       ncg     rms          rms(c)
DAV:   1    -0.384307110503E+03    0.13875E+00   -0.79196E+01 40376   0.227E+01    0.269E+00
DAV:   2    -0.384814873433E+03   -0.50776E+00   -0.48889E+00 37824   0.398E+00    0.855E+00
DAV:   3    -0.384741209330E+03    0.73664E-01   -0.72057E-01 52512   0.147E+00    0.407E+00
DAV:   4    -0.384759677310E+03   -0.18468E-01   -0.16151E-01 45800   0.901E-01    0.415E+00
DAV:   5    -0.384737428218E+03    0.22249E-01   -0.90330E-02 47952   0.577E-01    0.147E+00
DAV:   6    -0.384740784455E+03   -0.33562E-02   -0.18984E-02 49240   0.381E-01    0.134E+00
DAV:   7    -0.384740904836E+03   -0.12038E-03   -0.12003E-02 44616   0.259E-01    0.162E+00
DAV:   8    -0.384738913125E+03    0.19917E-02   -0.38024E-03 46224   0.154E-01    0.130E+00
DAV:   9    -0.384737319779E+03    0.15933E-02   -0.27336E-03 54248   0.109E-01    0.603E-01
DAV:  10    -0.384737519179E+03   -0.19940E-03   -0.40096E-03 44488   0.171E-01    0.779E-01
DAV:  11    -0.384736899399E+03    0.61978E-03   -0.39289E-03 46160   0.163E-01    0.421E-01
DAV:  12    -0.384738163728E+03   -0.12643E-02   -0.40891E-03 46912   0.948E-02    0.101E+00
DAV:  13    -0.384737577309E+03    0.58642E-03   -0.42157E-04 43856   0.660E-02    0.978E-01
DAV:  14    -0.384736434351E+03    0.11430E-02   -0.17819E-03 50288   0.753E-02    0.319E-01
DAV:  15    -0.384737090768E+03   -0.65642E-03   -0.11983E-03 43360   0.488E-02    0.476E-01
DAV:  16    -0.384736902678E+03    0.18809E-03   -0.41358E-04 37592   0.633E-02    0.180E-01
DAV:  17    -0.384736970460E+03   -0.67782E-04   -0.27846E-04 45840   0.317E-02    0.175E-01
DAV:  18    -0.384736964018E+03    0.64414E-05   -0.56474E-05 32784   0.251E-02
   6 F= -.38473696E+03 E0= -.38472814E+03  d E =-.291104E+00  mag=    46.0000
       N       E                     dE             d eps       ncg     rms          rms(c)
DAV:   1    -0.384490340882E+03    0.24663E+00   -0.70210E+01 40144   0.227E+01    0.258E+00
DAV:   2    -0.384939329809E+03   -0.44899E+00   -0.42548E+00 36896   0.392E+00    0.842E+00
DAV:   3    -0.384866752981E+03    0.72577E-01   -0.69694E-01 50960   0.142E+00    0.370E+00
DAV:   4    -0.384887441429E+03   -0.20688E-01   -0.14713E-01 46152   0.861E-01    0.385E+00
DAV:   5    -0.384868697902E+03    0.18744E-01   -0.84784E-02 46568   0.554E-01    0.160E+00
DAV:   6    -0.384869520146E+03   -0.82224E-03   -0.16460E-02 49432   0.374E-01    0.108E+00
DAV:   7    -0.384870922266E+03   -0.14021E-02   -0.14349E-02 43816   0.238E-01    0.165E+00
DAV:   8    -0.384869319265E+03    0.16030E-02   -0.43343E-03 43712   0.165E-01    0.145E+00
DAV:   9    -0.384867803562E+03    0.15157E-02   -0.13479E-03 52024   0.777E-02    0.949E-01
DAV:  10    -0.384867960584E+03   -0.15702E-03   -0.23193E-03 47064   0.131E-01    0.969E-01
DAV:  11    -0.384867166235E+03    0.79435E-03   -0.36549E-03 45808   0.141E-01    0.429E-01
DAV:  12    -0.384869030295E+03   -0.18641E-02   -0.72080E-03 43304   0.108E-01    0.111E+00
DAV:  13    -0.384868719636E+03    0.31066E-03   -0.64508E-04 39256   0.754E-02    0.118E+00
DAV:  14    -0.384867175896E+03    0.15437E-02   -0.11509E-03 50656   0.678E-02    0.668E-01
DAV:  15    -0.384867326078E+03   -0.15018E-03   -0.33459E-03 49232   0.734E-02    0.376E-01
DAV:  16    -0.384867554307E+03   -0.22823E-03   -0.48961E-04 36928   0.700E-02    0.210E-01
DAV:  17    -0.384867542744E+03    0.11563E-04   -0.35144E-04 47712   0.378E-02    0.132E-01
DAV:  18    -0.384867567861E+03   -0.25117E-04   -0.57700E-05 33232   0.208E-02    0.150E-01
DAV:  19    -0.384867538664E+03    0.29197E-04   -0.30996E-05 28888   0.145E-02    0.801E-02
DAV:  20    -0.384867541139E+03   -0.24753E-05   -0.32144E-05 26000   0.964E-03
   7 F= -.38486754E+03 E0= -.38485907E+03  d E =-.130577E+00  mag=    46.0000
       N       E                     dE             d eps       ncg     rms          rms(c)
DAV:   1    -0.384299834848E+03    0.56770E+00   -0.13457E+02 39936   0.321E+01    0.327E+00
DAV:   2    -0.385013922667E+03   -0.71409E+00   -0.69170E+00 36656   0.539E+00    0.774E+00
DAV:   3    -0.384988828530E+03    0.25094E-01   -0.10657E+00 49480   0.170E+00    0.514E+00
DAV:   4    -0.384986333904E+03    0.24946E-02   -0.31521E-01 46160   0.109E+00    0.460E+00
DAV:   5    -0.384960607004E+03    0.25727E-01   -0.14595E-01 47360   0.665E-01    0.195E+00
DAV:   6    -0.384962198135E+03   -0.15911E-02   -0.23094E-02 49240   0.447E-01    0.145E+00
DAV:   7    -0.384961593461E+03    0.60467E-03   -0.29662E-02 43736   0.318E-01    0.173E+00
DAV:   8    -0.384959222907E+03    0.23706E-02   -0.11119E-02 43968   0.245E-01    0.122E+00
DAV:   9    -0.384958063677E+03    0.11592E-02   -0.44924E-03 51552   0.138E-01    0.578E-01
DAV:  10    -0.384958560193E+03   -0.49652E-03   -0.42501E-03 47424   0.162E-01    0.763E-01
DAV:  11    -0.384958051106E+03    0.50909E-03   -0.27584E-03 45296   0.136E-01    0.318E-01
DAV:  12    -0.384958990060E+03   -0.93895E-03   -0.38895E-03 44120   0.991E-02    0.735E-01
DAV:  13    -0.384958867482E+03    0.12258E-03   -0.50574E-04 40088   0.629E-02    0.763E-01
DAV:  14    -0.384958148885E+03    0.71860E-03   -0.50114E-04 46296   0.471E-02    0.413E-01
DAV:  15    -0.384958196141E+03   -0.47256E-04   -0.10590E-03 46248   0.461E-02    0.193E-01
DAV:  16    -0.384958334084E+03   -0.13794E-03   -0.22494E-04 36280   0.370E-02    0.180E-01
DAV:  17    -0.384958292789E+03    0.41294E-04   -0.15526E-04 40544   0.307E-02    0.477E-02
DAV:  18    -0.384958311426E+03   -0.18637E-04   -0.34733E-05 30280   0.134E-02    0.675E-02
DAV:  19    -0.384958304628E+03    0.67981E-05   -0.10974E-05 23600   0.107E-02
   8 F= -.38495830E+03 E0= -.38495054E+03  d E =-.907635E-01  mag=    46.0000
       N       E                     dE             d eps       ncg     rms          rms(c)
DAV:   1    -0.384200610202E+03    0.75770E+00   -0.20133E+02 39592   0.372E+01    0.354E+00
DAV:   2    -0.385101175259E+03   -0.90057E+00   -0.90062E+00 37240   0.625E+00    0.664E+00
DAV:   3    -0.385122978727E+03   -0.21803E-01   -0.11783E+00 48040   0.177E+00    0.652E+00
DAV:   4    -0.385084271379E+03    0.38707E-01   -0.46203E-01 48896   0.122E+00    0.489E+00
DAV:   5    -0.385057368178E+03    0.26903E-01   -0.14522E-01 46976   0.679E-01    0.179E+00
DAV:   6    -0.385061684644E+03   -0.43165E-02   -0.30573E-02 50248   0.490E-01    0.183E+00
DAV:   7    -0.385056250668E+03    0.54340E-02   -0.26861E-02 45112   0.386E-01    0.137E+00
DAV:   8    -0.385054366469E+03    0.18842E-02   -0.10311E-02 46992   0.288E-01    0.101E+00
DAV:   9    -0.385052941951E+03    0.14245E-02   -0.59637E-03 48136   0.194E-01    0.519E-01
DAV:  10    -0.385052631104E+03    0.31085E-03   -0.35071E-03 47992   0.140E-01    0.421E-01
DAV:  11    -0.385052670974E+03   -0.39869E-04   -0.31882E-03 46816   0.121E-01    0.369E-01
DAV:  12    -0.385052888315E+03   -0.21734E-03   -0.23236E-03 47488   0.995E-02    0.447E-01
DAV:  13    -0.385053019794E+03   -0.13148E-03   -0.77221E-04 46248   0.588E-02    0.541E-01
DAV:  14    -0.385052663524E+03    0.35627E-03   -0.17813E-04 39680   0.363E-02    0.353E-01
DAV:  15    -0.385052637333E+03    0.26190E-04   -0.98672E-04 45424   0.468E-02    0.249E-01
DAV:  16    -0.385052723446E+03   -0.86113E-04   -0.21817E-04 36568   0.378E-02    0.258E-01
DAV:  17    -0.385052627565E+03    0.95881E-04   -0.14766E-04 35720   0.297E-02    0.726E-02
DAV:  18    -0.385052658251E+03   -0.30686E-04   -0.48128E-05 31480   0.149E-02    0.246E-02
DAV:  19    -0.385052665740E+03   -0.74891E-05   -0.20766E-05 25384   0.949E-03
   9 F= -.38505267E+03 E0= -.38504503E+03  d E =-.943611E-01  mag=    46.0000
       N       E                     dE             d eps       ncg     rms          rms(c)
DAV:   1    -0.385023197256E+03    0.29461E-01   -0.10924E+01 39848   0.985E+00    0.115E+00
DAV:   2    -0.385099940159E+03   -0.76743E-01   -0.75809E-01 36824   0.172E+00    0.246E+00
DAV:   3    -0.385098169952E+03    0.17702E-02   -0.12197E-01 46952   0.612E-01    0.265E+00
DAV:   4    -0.385092079937E+03    0.60900E-02   -0.17844E-02 44680   0.329E-01    0.102E+00
DAV:   5    -0.385093058003E+03   -0.97807E-03   -0.12878E-02 50872   0.183E-01    0.796E-01
DAV:   6    -0.385093618524E+03   -0.56052E-03   -0.44944E-03 44184   0.152E-01    0.844E-01
DAV:   7    -0.385093100689E+03    0.51783E-03   -0.24959E-03 42712   0.131E-01    0.713E-01
DAV:   8    -0.385092650440E+03    0.45025E-03   -0.14637E-03 49888   0.761E-02    0.305E-01
DAV:   9    -0.385092791614E+03   -0.14117E-03   -0.25143E-04 44304   0.533E-02    0.284E-01
DAV:  10    -0.385092889077E+03   -0.97463E-04   -0.41817E-04 44344   0.441E-02    0.409E-01
DAV:  11    -0.385092653485E+03    0.23559E-03   -0.11629E-03 43624   0.551E-02    0.135E-01
DAV:  12    -0.385092903022E+03   -0.24954E-03   -0.56425E-04 38024   0.365E-02    0.370E-01
DAV:  13    -0.385092819007E+03    0.84015E-04   -0.54892E-05 31712   0.245E-02    0.348E-01
DAV:  14    -0.385092692813E+03    0.12619E-03   -0.13693E-04 33600   0.189E-02    0.164E-01
DAV:  15    -0.385092721200E+03   -0.28387E-04   -0.17041E-04 30448   0.169E-02    0.381E-02
DAV:  16    -0.385092754770E+03   -0.33570E-04   -0.31046E-05 25184   0.112E-02    0.869E-02
DAV:  17    -0.385092749440E+03    0.53301E-05   -0.39908E-06 22608   0.678E-03
  10 F= -.38509275E+03 E0= -.38508520E+03  d E =-.400837E-01  mag=    46.0000
       N       E                     dE             d eps       ncg     rms          rms(c)
DAV:   1    -0.385095988905E+03   -0.32341E-02   -0.39718E-01 39768   0.177E+00    0.166E-01
DAV:   2    -0.385097798482E+03   -0.18096E-02   -0.17789E-02 37064   0.293E-01    0.267E-01
DAV:   3    -0.385097951715E+03   -0.15323E-03   -0.21754E-03 50032   0.888E-02    0.455E-01
DAV:   4    -0.385097719314E+03    0.23240E-03   -0.61897E-04 39808   0.565E-02    0.213E-01
DAV:   5    -0.385097718778E+03    0.53625E-06   -0.24018E-04 33176   0.329E-02    0.797E-02
DAV:   6    -0.385097733486E+03   -0.14708E-04   -0.82047E-05 32264   0.235E-02    0.834E-02
DAV:   7    -0.385097723495E+03    0.99916E-05   -0.48321E-05 27824   0.188E-02
  11 F= -.38509772E+03 E0= -.38509012E+03  d E =-.497405E-02  mag=    46.0000
       N       E                     dE             d eps       ncg     rms          rms(c)
DAV:   1    -0.385092782969E+03    0.49505E-02   -0.51862E+00 39648   0.633E+00    0.606E-01
DAV:   2    -0.385117552923E+03   -0.24770E-01   -0.23663E-01 36960   0.106E+00    0.151E+00
DAV:   3    -0.385115649126E+03    0.19038E-02   -0.30325E-02 47928   0.338E-01    0.121E+00
DAV:   4    -0.385115178516E+03    0.47061E-03   -0.38926E-03 44104   0.175E-01    0.698E-01
DAV:   5    -0.385114741989E+03    0.43653E-03   -0.26161E-03 49136   0.104E-01    0.330E-01
DAV:   6    -0.385114877585E+03   -0.13560E-03   -0.11708E-03 46512   0.831E-02    0.320E-01
DAV:   7    -0.385114838267E+03    0.39317E-04   -0.95557E-04 42200   0.703E-02    0.310E-01
DAV:   8    -0.385114791037E+03    0.47230E-04   -0.33429E-04 45696   0.405E-02    0.204E-01
DAV:   9    -0.385114781172E+03    0.98649E-05   -0.10449E-04 34136   0.222E-02    0.153E-01
DAV:  10    -0.385114799372E+03   -0.18200E-04   -0.91437E-05 33400   0.224E-02    0.210E-01
DAV:  11    -0.385114732741E+03    0.66631E-04   -0.17178E-04 36320   0.291E-02    0.776E-02
DAV:  12    -0.385114792514E+03   -0.59773E-04   -0.20766E-04 32976   0.231E-02    0.171E-01
DAV:  13    -0.385114761775E+03    0.30740E-04   -0.30525E-05 28952   0.184E-02    0.116E-01
DAV:  14    -0.385114749278E+03    0.12497E-04   -0.54392E-05 27320   0.109E-02    0.148E-02
DAV:  15    -0.385114760100E+03   -0.10822E-04   -0.12709E-05 23464   0.716E-03    0.338E-02
DAV:  16    -0.385114760311E+03   -0.21068E-06   -0.19092E-06 19816   0.430E-03
  12 F= -.38511476E+03 E0= -.38510727E+03  d E =-.170368E-01  mag=    46.0000
       N       E                     dE             d eps       ncg     rms          rms(c)
DAV:   1    -0.385080785983E+03    0.33974E-01   -0.13988E+01 39568   0.103E+01    0.981E-01
DAV:   2    -0.385145845334E+03   -0.65059E-01   -0.62302E-01 36712   0.174E+00    0.241E+00
DAV:   3    -0.385141516146E+03    0.43292E-02   -0.87891E-02 47672   0.551E-01    0.206E+00
DAV:   4    -0.385139894023E+03    0.16221E-02   -0.12969E-02 45136   0.293E-01    0.118E+00
DAV:   5    -0.385138727204E+03    0.11668E-02   -0.75514E-03 47504   0.184E-01    0.522E-01
DAV:   6    -0.385139014775E+03   -0.28757E-03   -0.29299E-03 49008   0.137E-01    0.459E-01
DAV:   7    -0.385138930921E+03    0.83854E-04   -0.21560E-03 42072   0.986E-02    0.368E-01
DAV:   8    -0.385138947318E+03   -0.16396E-04   -0.62542E-04 47664   0.555E-02    0.316E-01
DAV:   9    -0.385138871094E+03    0.76224E-04   -0.28679E-04 42808   0.350E-02    0.238E-01
DAV:  10    -0.385138818646E+03    0.52448E-04   -0.33045E-04 40784   0.370E-02    0.191E-01
DAV:  11    -0.385138800063E+03    0.18583E-04   -0.47981E-04 44240   0.527E-02    0.141E-01
DAV:  12    -0.385138824343E+03   -0.24280E-04   -0.32584E-04 42680   0.323E-02    0.148E-01
DAV:  13    -0.385138816614E+03    0.77293E-05   -0.46165E-05 31248   0.204E-02
  13 F= -.38513882E+03 E0= -.38513135E+03  d E =-.240563E-01  mag=    46.0000
       N       E                     dE             d eps       ncg     rms          rms(c)
DAV:   1    -0.384656036122E+03    0.48279E+00   -0.13464E+02 39800   0.314E+01    0.306E+00
DAV:   2    -0.385324917420E+03   -0.66888E+00   -0.64713E+00 37056   0.533E+00    0.107E+01
DAV:   3    -0.385173878719E+03    0.15104E+00   -0.11984E+00 45344   0.183E+00    0.356E+00
DAV:   4    -0.385205920678E+03   -0.32042E-01   -0.81306E-02 46440   0.793E-01    0.306E+00
DAV:   5    -0.385194124323E+03    0.11796E-01   -0.61672E-02 48120   0.524E-01    0.190E+00
DAV:   6    -0.385193365121E+03    0.75920E-03   -0.41753E-02 47912   0.423E-01    0.144E+00
DAV:   7    -0.385195495427E+03   -0.21303E-02   -0.19362E-02 46544   0.293E-01    0.137E+00
DAV:   8    -0.385193567357E+03    0.19281E-02   -0.99902E-03 50056   0.195E-01    0.658E-01
DAV:   9    -0.385194022711E+03   -0.45535E-03   -0.48929E-03 49752   0.156E-01    0.820E-01
DAV:  10    -0.385193650773E+03    0.37194E-03   -0.12176E-02 47440   0.196E-01    0.960E-01
DAV:  11    -0.385193023284E+03    0.62749E-03   -0.23050E-03 48688   0.150E-01    0.810E-01
DAV:  12    -0.385192280318E+03    0.74297E-03   -0.47889E-03 44920   0.116E-01    0.362E-01
DAV:  13    -0.385192705085E+03   -0.42477E-03   -0.12519E-03 45928   0.758E-02    0.551E-01
DAV:  14    -0.385192270691E+03    0.43439E-03   -0.90051E-04 50448   0.643E-02    0.178E-01
DAV:  15    -0.385192378192E+03   -0.10750E-03   -0.31143E-04 41624   0.303E-02    0.108E-01
DAV:  16    -0.385192389167E+03   -0.10974E-04   -0.47586E-05 30600   0.219E-02    0.687E-02
DAV:  17    -0.385192389399E+03   -0.23233E-06   -0.69902E-05 33048   0.160E-02
  14 F= -.38519239E+03 E0= -.38518525E+03  d E =-.535728E-01  mag=    46.0000
       N       E                     dE             d eps       ncg     rms          rms(c)
DAV:   1    -0.385191804474E+03    0.58469E-03   -0.19369E+00 39712   0.472E+00    0.585E-01
DAV:   2    -0.385211984159E+03   -0.20180E-01   -0.17423E-01 37144   0.839E-01    0.208E+00
DAV:   3    -0.385205463405E+03    0.65208E-02   -0.29106E-02 42024   0.353E-01    0.521E-01
DAV:   4    -0.385208193162E+03   -0.27298E-02   -0.54829E-03 46216   0.148E-01    0.103E+00
DAV:   5    -0.385207048884E+03    0.11443E-02   -0.25081E-03 40464   0.121E-01    0.675E-01
DAV:   6    -0.385206677202E+03    0.37168E-03   -0.16024E-03 50816   0.771E-02    0.188E-01
DAV:   7    -0.385207114038E+03   -0.43684E-03   -0.10389E-03 38784   0.613E-02    0.408E-01
DAV:   8    -0.385207030109E+03    0.83928E-04   -0.33798E-04 39896   0.431E-02    0.384E-01
DAV:   9    -0.385206983551E+03    0.46558E-04   -0.20939E-04 36904   0.268E-02    0.338E-01
DAV:  10    -0.385206963155E+03    0.20396E-04   -0.61078E-05 33664   0.196E-02    0.320E-01
DAV:  11    -0.385206846507E+03    0.11665E-03   -0.27937E-04 35512   0.301E-02    0.620E-02
DAV:  12    -0.385206954144E+03   -0.10764E-03   -0.13638E-04 33344   0.226E-02    0.158E-01
DAV:  13    -0.385206937829E+03    0.16314E-04   -0.25996E-05 27536   0.170E-02    0.138E-01
DAV:  14    -0.385206921685E+03    0.16144E-04   -0.18514E-05 24024   0.909E-03    0.807E-02
DAV:  15    -0.385206922018E+03   -0.33268E-06   -0.14454E-05 22352   0.710E-03
  15 F= -.38520692E+03 E0= -.38519981E+03  d E =-.145326E-01  mag=    46.0000
       N       E                     dE             d eps       ncg     rms          rms(c)
DAV:   1    -0.385209930219E+03   -0.30085E-02   -0.34096E-01 39832   0.167E+00    0.172E-01
DAV:   2    -0.385211650943E+03   -0.17207E-02   -0.16875E-02 37064   0.281E-01    0.333E-01
DAV:   3    -0.385211675505E+03   -0.24562E-04   -0.15409E-03 46880   0.954E-02    0.422E-01
DAV:   4    -0.385211547785E+03    0.12772E-03   -0.80551E-04 41864   0.579E-02    0.252E-01
DAV:   5    -0.385211504067E+03    0.43718E-04   -0.29391E-04 36208   0.347E-02    0.914E-02
DAV:   6    -0.385211519956E+03   -0.15889E-04   -0.86455E-05 31792   0.244E-02    0.779E-02
DAV:   7    -0.385211518846E+03    0.11096E-05   -0.54128E-05 29944   0.195E-02
  16 F= -.38521152E+03 E0= -.38520448E+03  d E =-.459683E-02  mag=    46.0000
       N       E                     dE             d eps       ncg     rms          rms(c)
DAV:   1    -0.385194212775E+03    0.17307E-01   -0.93835E+00 39704   0.821E+00    0.811E-01
DAV:   2    -0.385235445459E+03   -0.41233E-01   -0.40287E-01 36896   0.138E+00    0.175E+00
DAV:   3    -0.385234324060E+03    0.11214E-02   -0.59607E-02 45520   0.460E-01    0.199E+00
DAV:   4    -0.385231583493E+03    0.27406E-02   -0.15172E-02 48952   0.256E-01    0.108E+00
DAV:   5    -0.385230805359E+03    0.77813E-03   -0.49186E-03 49656   0.164E-01    0.438E-01
DAV:   6    -0.385231116858E+03   -0.31150E-03   -0.22599E-03 46376   0.115E-01    0.395E-01
DAV:   7    -0.385231032478E+03    0.84380E-04   -0.14313E-03 43312   0.873E-02    0.214E-01
DAV:   8    -0.385231206695E+03   -0.17422E-03   -0.35538E-04 45528   0.345E-02    0.280E-01
DAV:   9    -0.385231082792E+03    0.12390E-03   -0.17235E-04 42608   0.382E-02    0.183E-01
DAV:  10    -0.385231072031E+03    0.10761E-04   -0.43118E-04 43536   0.451E-02    0.187E-01
DAV:  11    -0.385231069933E+03    0.20980E-05   -0.46268E-04 43024   0.453E-02    0.170E-01
DAV:  12    -0.385231036247E+03    0.33685E-04   -0.14053E-04 37992   0.289E-02    0.700E-02
DAV:  13    -0.385231040096E+03   -0.38484E-05   -0.49743E-05 28248   0.168E-02
  17 F= -.38523104E+03 E0= -.38522406E+03  d E =-.195212E-01  mag=    46.0000
       N       E                     dE             d eps       ncg     rms          rms(c)
DAV:   1    -0.385192339662E+03    0.38697E-01   -0.16743E+01 39704   0.107E+01    0.112E+00
DAV:   2    -0.385267757539E+03   -0.75418E-01   -0.70615E-01 37064   0.183E+00    0.302E+00
DAV:   3    -0.385255525525E+03    0.12232E-01   -0.11213E-01 41664   0.681E-01    0.198E+00
DAV:   4    -0.385256525924E+03   -0.10004E-02   -0.32239E-02 48544   0.326E-01    0.152E+00
DAV:   5    -0.385253578329E+03    0.29476E-02   -0.81488E-03 49048   0.222E-01    0.580E-01
DAV:   6    -0.385253895534E+03   -0.31721E-03   -0.35217E-03 48440   0.142E-01    0.465E-01
DAV:   7    -0.385254245069E+03   -0.34954E-03   -0.27997E-03 43752   0.109E-01    0.496E-01
DAV:   8    -0.385254314274E+03   -0.69205E-04   -0.62731E-04 45512   0.660E-02    0.434E-01
DAV:   9    -0.385254087604E+03    0.22667E-03   -0.61670E-04 49408   0.581E-02    0.244E-01
DAV:  10    -0.385254145979E+03   -0.58375E-04   -0.75769E-04 43736   0.543E-02    0.301E-01
DAV:  11    -0.385254031014E+03    0.11496E-03   -0.98729E-04 45624   0.621E-02    0.165E-01
DAV:  12    -0.385254059211E+03   -0.28196E-04   -0.30968E-04 44816   0.434E-02    0.180E-01
DAV:  13    -0.385254027906E+03    0.31304E-04   -0.27028E-04 39624   0.309E-02    0.103E-01
DAV:  14    -0.385254029623E+03   -0.17169E-05   -0.64946E-05 31192   0.203E-02
  18 F= -.38525403E+03 E0= -.38524718E+03  d E =-.229895E-01  mag=    46.0000
       N       E                     dE             d eps       ncg     rms          rms(c)
DAV:   1    -0.384779893250E+03    0.47413E+00   -0.10694E+02 40048   0.289E+01    0.301E+00
DAV:   2    -0.385319130969E+03   -0.53924E+00   -0.52451E+00 36736   0.489E+00    0.538E+00
DAV:   3    -0.385330302697E+03   -0.11172E-01   -0.95852E-01 46968   0.168E+00    0.634E+00
DAV:   4    -0.385280237389E+03    0.50065E-01   -0.23796E-01 47120   0.961E-01    0.206E+00
DAV:   5    -0.385284560639E+03   -0.43232E-02   -0.37867E-02 49320   0.469E-01    0.108E+00
DAV:   6    -0.385285635256E+03   -0.10746E-02   -0.22364E-02 49392   0.357E-01    0.148E+00
DAV:   7    -0.385282799022E+03    0.28362E-02   -0.19500E-02 48864   0.299E-01    0.856E-01
DAV:   8    -0.385283312926E+03   -0.51390E-03   -0.10324E-02 46928   0.195E-01    0.762E-01
DAV:   9    -0.385283296707E+03    0.16219E-04   -0.31933E-03 48960   0.141E-01    0.794E-01
DAV:  10    -0.385282521815E+03    0.77489E-03   -0.20182E-03 47472   0.967E-02    0.398E-01
DAV:  11    -0.385282450841E+03    0.70974E-04   -0.22344E-03 47824   0.122E-01    0.349E-01
DAV:  12    -0.385282483556E+03   -0.32715E-04   -0.15592E-03 43432   0.971E-02    0.340E-01
DAV:  13    -0.385282565112E+03   -0.81556E-04   -0.15378E-03 48464   0.816E-02    0.401E-01
DAV:  14    -0.385282341816E+03    0.22330E-03   -0.63592E-04 50912   0.540E-02    0.148E-01
DAV:  15    -0.385282391990E+03   -0.50174E-04   -0.14549E-04 39816   0.239E-02    0.149E-01
DAV:  16    -0.385282360526E+03    0.31463E-04   -0.10984E-04 34216   0.264E-02    0.427E-02
DAV:  17    -0.385282375114E+03   -0.14587E-04   -0.50357E-05 29280   0.161E-02    0.600E-02
DAV:  18    -0.385282370301E+03    0.48125E-05   -0.96411E-06 24280   0.104E-02
  19 F= -.38528237E+03 E0= -.38527602E+03  d E =-.283407E-01  mag=    46.0000
       N       E                     dE             d eps       ncg     rms          rms(c)
DAV:   1    -0.385268545644E+03    0.13829E-01   -0.34360E+00 41696   0.675E+00    0.895E-01
DAV:   2    -0.385308196278E+03   -0.39651E-01   -0.37231E-01 36896   0.115E+00    0.149E+00
DAV:   3    -0.385310526398E+03   -0.23301E-02   -0.45869E-02 44720   0.458E-01    0.197E+00
DAV:   4    -0.385307708146E+03    0.28183E-02   -0.20533E-02 45016   0.298E-01    0.114E+00
DAV:   5    -0.385306908220E+03    0.79993E-03   -0.66476E-03 46720   0.165E-01    0.213E-01
DAV:   6    -0.385307438573E+03   -0.53035E-03   -0.20896E-03 41728   0.805E-02    0.408E-01
DAV:   7    -0.385307243568E+03    0.19500E-03   -0.78046E-04 47712   0.760E-02    0.243E-01
DAV:   8    -0.385307377532E+03   -0.13396E-03   -0.15672E-03 47776   0.668E-02    0.413E-01
DAV:   9    -0.385307192038E+03    0.18549E-03   -0.27805E-04 41072   0.451E-02    0.250E-01
DAV:  10    -0.385307147513E+03    0.44525E-04   -0.21652E-04 35464   0.261E-02    0.922E-02
DAV:  11    -0.385307173061E+03   -0.25548E-04   -0.99652E-05 32712   0.225E-02    0.488E-02
DAV:  12    -0.385307187106E+03   -0.14046E-04   -0.46128E-05 30896   0.183E-02    0.731E-02
DAV:  13    -0.385307186531E+03    0.57495E-06   -0.13002E-05 25304   0.105E-02
  20 F= -.38530719E+03 E0= -.38530080E+03  d E =-.248162E-01  mag=    46.0000
       N       E                     dE             d eps       ncg     rms          rms(c)
DAV:   1    -0.385310840954E+03   -0.36538E-02   -0.34559E-01 40528   0.190E+00    0.259E-01
DAV:   2    -0.385314508828E+03   -0.36679E-02   -0.28555E-02 37448   0.351E-01    0.109E+00
DAV:   3    -0.385312753313E+03    0.17555E-02   -0.47451E-03 39944   0.168E-01    0.228E-01
DAV:   4    -0.385313398686E+03   -0.64537E-03   -0.17927E-03 45392   0.743E-02    0.395E-01
DAV:   5    -0.385313308826E+03    0.89861E-04   -0.70726E-04 39208   0.571E-02    0.332E-01
DAV:   6    -0.385313159731E+03    0.14909E-03   -0.17312E-04 36152   0.355E-02    0.119E-01
DAV:   7    -0.385313219907E+03   -0.60176E-04   -0.20512E-04 37176   0.258E-02    0.133E-01
DAV:   8    -0.385313240739E+03   -0.20832E-04   -0.67476E-05 29192   0.205E-02    0.168E-01
DAV:   9    -0.385313215791E+03    0.24948E-04   -0.64096E-05 28784   0.144E-02    0.122E-01
DAV:  10    -0.385313212391E+03    0.33997E-05   -0.12988E-05 24424   0.109E-02
  21 F= -.38531321E+03 E0= -.38530692E+03  d E =-.602586E-02  mag=    46.0000
       N       E                     dE             d eps       ncg     rms          rms(c)
DAV:   1    -0.385302186817E+03    0.11029E-01   -0.51044E+00 39808   0.664E+00    0.764E-01
DAV:   2    -0.385331663590E+03   -0.29477E-01   -0.29734E-01 36856   0.115E+00    0.151E+00
DAV:   3    -0.385329509405E+03    0.21542E-02   -0.36499E-02 45936   0.402E-01    0.844E-01
DAV:   4    -0.385329242373E+03    0.26703E-03   -0.29827E-03 49896   0.164E-01    0.433E-01
DAV:   5    -0.385329022380E+03    0.21999E-03   -0.20490E-03 50976   0.114E-01    0.356E-01
DAV:   6    -0.385329590769E+03   -0.56839E-03   -0.45196E-03 48288   0.108E-01    0.787E-01
DAV:   7    -0.385328853659E+03    0.73711E-03   -0.12115E-03 44072   0.920E-02    0.314E-01
DAV:   8    -0.385328996357E+03   -0.14270E-03   -0.11405E-03 43496   0.472E-02    0.261E-01
DAV:   9    -0.385328969603E+03    0.26754E-04   -0.13302E-04 37184   0.327E-02    0.212E-01
DAV:  10    -0.385328935414E+03    0.34189E-04   -0.47842E-04 38936   0.359E-02    0.182E-01
DAV:  11    -0.385328967977E+03   -0.32563E-04   -0.20151E-04 39744   0.329E-02    0.222E-01
DAV:  12    -0.385328916158E+03    0.51819E-04   -0.16853E-04 33200   0.273E-02    0.116E-01
DAV:  13    -0.385328915992E+03    0.16619E-06   -0.34497E-05 31256   0.154E-02
  22 F= -.38532892E+03 E0= -.38532265E+03  d E =-.157036E-01  mag=    46.0000
       N       E                     dE             d eps       ncg     rms          rms(c)
DAV:   1    -0.385330066361E+03   -0.11502E-02   -0.69721E-01 39840   0.218E+00    0.256E-01
DAV:   2    -0.385333492706E+03   -0.34263E-02   -0.29958E-02 37952   0.381E-01    0.829E-01
DAV:   3    -0.385332510382E+03    0.98232E-03   -0.43375E-03 38896   0.163E-01    0.310E-01
DAV:   4    -0.385332808591E+03   -0.29821E-03   -0.17980E-03 45440   0.735E-02    0.344E-01
DAV:   5    -0.385332645352E+03    0.16324E-03   -0.53210E-04 42496   0.499E-02    0.174E-01
DAV:   6    -0.385332623644E+03    0.21708E-04   -0.24519E-04 36112   0.351E-02    0.980E-02
DAV:   7    -0.385332668684E+03   -0.45040E-04   -0.14137E-04 34192   0.259E-02    0.153E-01
DAV:   8    -0.385332650374E+03    0.18310E-04   -0.63266E-05 29760   0.223E-02    0.965E-02
DAV:   9    -0.385332644614E+03    0.57594E-05   -0.32475E-05 27072   0.133E-02
  23 F= -.38533264E+03 E0= -.38532642E+03  d E =-.372862E-02  mag=    46.0000
       N       E                     dE             d eps       ncg     rms          rms(c)
DAV:   1    -0.384894468707E+03    0.43818E+00   -0.13732E+02 39760   0.295E+01    0.328E+00
DAV:   2    -0.385524940167E+03   -0.63047E+00   -0.62712E+00 37880   0.522E+00    0.974E+00
DAV:   3    -0.385368981737E+03    0.15596E+00   -0.13091E+00 40720   0.198E+00    0.232E+00
DAV:   4    -0.385396604943E+03   -0.27623E-01   -0.11567E-01 47640   0.746E-01    0.261E+00
DAV:   5    -0.385385996697E+03    0.10608E-01   -0.45886E-02 48504   0.531E-01    0.133E+00
DAV:   6    -0.385387141804E+03   -0.11451E-02   -0.27339E-02 50392   0.357E-01    0.171E+00
DAV:   7    -0.385386219415E+03    0.92239E-03   -0.15187E-02 47560   0.338E-01    0.127E+00
DAV:   8    -0.385384837450E+03    0.13820E-02   -0.89958E-03 50072   0.208E-01    0.862E-01
DAV:   9    -0.385384167013E+03    0.67044E-03   -0.66167E-03 50104   0.181E-01    0.514E-01
DAV:  10    -0.385384007322E+03    0.15969E-03   -0.20320E-03 43032   0.139E-01    0.244E-01
DAV:  11    -0.385384102666E+03   -0.95344E-04   -0.14390E-03 47376   0.113E-01    0.283E-01
DAV:  12    -0.385384112838E+03   -0.10172E-04   -0.88989E-04 48608   0.796E-02    0.269E-01
DAV:  13    -0.385384023522E+03    0.89315E-04   -0.32381E-04 45704   0.495E-02    0.121E-01
DAV:  14    -0.385384018637E+03    0.48858E-05   -0.11921E-04 40776   0.243E-02    0.772E-02
DAV:  15    -0.385384014005E+03    0.46317E-05   -0.66038E-05 31720   0.188E-02
  24 F= -.38538401E+03 E0= -.38537831E+03  d E =-.513694E-01  mag=    46.0000
       N       E                     dE             d eps       ncg     rms          rms(c)
DAV:   1    -0.385104876702E+03    0.27914E+00   -0.56447E+01 39816   0.224E+01    0.243E+00
DAV:   2    -0.385443967665E+03   -0.33909E+00   -0.32334E+00 37128   0.377E+00    0.537E+00
DAV:   3    -0.385416442036E+03    0.27526E-01   -0.49242E-01 43728   0.136E+00    0.324E+00
DAV:   4    -0.385413022843E+03    0.34192E-02   -0.44305E-02 46304   0.565E-01    0.136E+00
DAV:   5    -0.385412111220E+03    0.91162E-03   -0.19877E-02 52552   0.299E-01    0.916E-01
DAV:   6    -0.385412867060E+03   -0.75584E-03   -0.13538E-02 47376   0.234E-01    0.105E+00
DAV:   7    -0.385411485185E+03    0.13819E-02   -0.49099E-03 47224   0.176E-01    0.595E-01
DAV:   8    -0.385411446445E+03    0.38740E-04   -0.28061E-03 51328   0.156E-01    0.526E-01
DAV:   9    -0.385411264752E+03    0.18169E-03   -0.20363E-03 45272   0.130E-01    0.339E-01
DAV:  10    -0.385411182343E+03    0.82409E-04   -0.10840E-03 48872   0.891E-02    0.227E-01
DAV:  11    -0.385411168713E+03    0.13630E-04   -0.46900E-04 44296   0.564E-02    0.133E-01
DAV:  12    -0.385411181801E+03   -0.13088E-04   -0.16154E-04 42320   0.410E-02    0.989E-02
DAV:  13    -0.385411173934E+03    0.78670E-05   -0.77863E-05 38224   0.243E-02
  25 F= -.38541117E+03 E0= -.38540570E+03  d E =-.271599E-01  mag=    46.0000
       N       E                     dE             d eps       ncg     rms          rms(c)
DAV:   1    -0.385366105702E+03    0.45076E-01   -0.42597E+00 42608   0.781E+00    0.112E+00
DAV:   2    -0.385423957752E+03   -0.57852E-01   -0.51005E-01 37696   0.129E+00    0.174E+00
DAV:   3    -0.385427178266E+03   -0.32205E-02   -0.55028E-02 43176   0.569E-01    0.220E+00
DAV:   4    -0.385422083442E+03    0.50948E-02   -0.14035E-02 42136   0.338E-01    0.777E-01
DAV:   5    -0.385422777590E+03   -0.69415E-03   -0.58338E-03 46152   0.140E-01    0.374E-01
DAV:   6    -0.385423157971E+03   -0.38038E-03   -0.17068E-03 40360   0.985E-02    0.414E-01
DAV:   7    -0.385422956754E+03    0.20122E-03   -0.99764E-04 44992   0.755E-02    0.267E-01
DAV:   8    -0.385422896560E+03    0.60195E-04   -0.39978E-04 47512   0.636E-02    0.155E-01
DAV:   9    -0.385422912235E+03   -0.15675E-04   -0.23904E-04 41112   0.464E-02    0.119E-01
DAV:  10    -0.385422908013E+03    0.42212E-05   -0.11578E-04 38888   0.317E-02    0.528E-02
DAV:  11    -0.385422918289E+03   -0.10275E-04   -0.51349E-05 32744   0.210E-02    0.717E-02
DAV:  12    -0.385422911099E+03    0.71897E-05   -0.13263E-05 25960   0.115E-02
  26 F= -.38542291E+03 E0= -.38541748E+03  d E =-.117372E-01  mag=    46.0000
       N       E                     dE             d eps       ncg     rms          rms(c)
DAV:   1    -0.385421341531E+03    0.15768E-02   -0.56607E-01 40912   0.248E+00    0.294E-01
DAV:   2    -0.385425648147E+03   -0.43066E-02   -0.41322E-02 37128   0.415E-01    0.373E-01
DAV:   3    -0.385425722641E+03   -0.74493E-04   -0.33018E-03 46304   0.132E-01    0.297E-01
DAV:   4    -0.385425647074E+03    0.75567E-04   -0.53434E-04 44272   0.703E-02    0.173E-01
DAV:   5    -0.385425632345E+03    0.14728E-04   -0.26354E-04 37328   0.419E-02    0.136E-01
DAV:   6    -0.385425619657E+03    0.12688E-04   -0.12170E-04 36216   0.311E-02    0.106E-01
DAV:   7    -0.385425605159E+03    0.14499E-04   -0.97060E-05 31944   0.233E-02    0.610E-02
DAV:   8    -0.385425601429E+03    0.37297E-05   -0.42816E-05 30912   0.215E-02
  27 F= -.38542560E+03 E0= -.38542018E+03  d E =-.269033E-02  mag=    46.0000
       N       E                     dE             d eps       ncg     rms          rms(c)
DAV:   1    -0.385422540084E+03    0.30651E-02   -0.22982E+00 39592   0.411E+00    0.445E-01
DAV:   2    -0.385433532529E+03   -0.10992E-01   -0.10006E-01 37448   0.704E-01    0.122E+00
DAV:   3    -0.385431676164E+03    0.18564E-02   -0.95437E-03 41000   0.257E-01    0.467E-01
DAV:   4    -0.385431971496E+03   -0.29533E-03   -0.21495E-03 47240   0.126E-01    0.317E-01
DAV:   5    -0.385431786155E+03    0.18534E-03   -0.71717E-04 47328   0.714E-02    0.119E-01
DAV:   6    -0.385431807269E+03   -0.21114E-04   -0.41898E-04 44536   0.426E-02    0.195E-01
DAV:   7    -0.385431784255E+03    0.23014E-04   -0.27477E-04 40880   0.379E-02    0.169E-01
DAV:   8    -0.385431749129E+03    0.35126E-04   -0.10350E-04 34560   0.290E-02    0.903E-02
DAV:   9    -0.385431742378E+03    0.67503E-05   -0.48836E-05 33096   0.210E-02
  28 F= -.38543174E+03 E0= -.38542635E+03  d E =-.614095E-02  mag=    46.0000
       N       E                     dE             d eps       ncg     rms          rms(c)
DAV:   1    -0.385429171372E+03    0.25778E-02   -0.24604E+00 39512   0.414E+00    0.409E-01
DAV:   2    -0.385439453701E+03   -0.10282E-01   -0.96660E-02 37216   0.683E-01    0.941E-01
DAV:   3    -0.385438594286E+03    0.85941E-03   -0.70914E-03 43616   0.221E-01    0.522E-01
DAV:   4    -0.385438544342E+03    0.49944E-04   -0.14118E-03 46504   0.117E-01    0.275E-01
DAV:   5    -0.385438436463E+03    0.10788E-03   -0.68236E-04 46464   0.623E-02    0.118E-01
DAV:   6    -0.385438439082E+03   -0.26191E-05   -0.22192E-04 42920   0.313E-02    0.136E-01
DAV:   7    -0.385438429951E+03    0.91307E-05   -0.13769E-04 39112   0.297E-02    0.115E-01
DAV:   8    -0.385438417169E+03    0.12782E-04   -0.81521E-05 30248   0.216E-02    0.719E-02
DAV:   9    -0.385438415493E+03    0.16765E-05   -0.47792E-05 28888   0.183E-02
  29 F= -.38543842E+03 E0= -.38543305E+03  d E =-.667311E-02  mag=    46.0000
       N       E                     dE             d eps       ncg     rms          rms(c)
DAV:   1    -0.385403450055E+03    0.34967E-01   -0.13772E+01 39592   0.948E+00    0.906E-01
DAV:   2    -0.385455798656E+03   -0.52349E-01   -0.50641E-01 37144   0.155E+00    0.178E+00
DAV:   3    -0.385453718396E+03    0.20803E-02   -0.36461E-02 45488   0.465E-01    0.122E+00
DAV:   4    -0.385452671077E+03    0.10473E-02   -0.70513E-03 46784   0.270E-01    0.730E-01
DAV:   5    -0.385452078443E+03    0.59263E-03   -0.36279E-03 48480   0.157E-01    0.324E-01
DAV:   6    -0.385452266665E+03   -0.18822E-03   -0.19838E-03 48048   0.987E-02    0.422E-01
DAV:   7    -0.385451979708E+03    0.28696E-03   -0.10931E-03 46520   0.810E-02    0.212E-01
DAV:   8    -0.385451962677E+03    0.17031E-04   -0.26950E-04 46312   0.478E-02    0.145E-01
DAV:   9    -0.385451944309E+03    0.18368E-04   -0.27465E-04 41840   0.380E-02    0.105E-01
DAV:  10    -0.385451951068E+03   -0.67592E-05   -0.16106E-04 40008   0.335E-02    0.889E-02
DAV:  11    -0.385451948743E+03    0.23259E-05   -0.11813E-04 35064   0.251E-02    0.767E-02
DAV:  12    -0.385451941851E+03    0.68915E-05   -0.27166E-05 26608   0.139E-02
  30 F= -.38545194E+03 E0= -.38544659E+03  d E =-.135264E-01  mag=    46.0000
       N       E                     dE             d eps       ncg     rms          rms(c)
DAV:   1    -0.384854047390E+03    0.59790E+00   -0.16161E+02 39944   0.339E+01    0.317E+00
DAV:   2    -0.385516215261E+03   -0.66217E+00   -0.65055E+00 36904   0.554E+00    0.491E+00
DAV:   3    -0.385521075504E+03   -0.48602E-02   -0.36917E-01 46408   0.142E+00    0.485E+00
DAV:   4    -0.385491684744E+03    0.29391E-01   -0.15170E-01 46920   0.907E-01    0.204E+00
DAV:   5    -0.385492699863E+03   -0.10151E-02   -0.45193E-02 49824   0.500E-01    0.155E+00
DAV:   6    -0.385491814271E+03    0.88559E-03   -0.18646E-02 46296   0.372E-01    0.123E+00
DAV:   7    -0.385488974643E+03    0.28396E-02   -0.74920E-03 47408   0.245E-01    0.582E-01
DAV:   8    -0.385488694707E+03    0.27994E-03   -0.36795E-03 46568   0.163E-01    0.368E-01
DAV:   9    -0.385488685207E+03    0.94996E-05   -0.18729E-03 47808   0.131E-01    0.284E-01
DAV:  10    -0.385488687102E+03   -0.18946E-05   -0.13346E-03 46616   0.879E-02    0.214E-01
DAV:  11    -0.385488677250E+03    0.98518E-05   -0.42452E-04 47256   0.549E-02    0.107E-01
DAV:  12    -0.385488670746E+03    0.65039E-05   -0.12209E-04 37736   0.279E-02    0.591E-02
DAV:  13    -0.385488669843E+03    0.90305E-06   -0.38326E-05 31000   0.169E-02
  31 F= -.38548867E+03 E0= -.38548330E+03  d E =-.367280E-01  mag=    46.0000
       N       E                     dE             d eps       ncg     rms          rms(c)
DAV:   1    -0.384393360713E+03    0.10953E+01   -0.65589E+01 45176   0.310E+01    0.476E+00
DAV:   2    -0.385457361991E+03   -0.10640E+01   -0.98368E+00 38056   0.534E+00    0.100E+01
DAV:   3    -0.385401692915E+03    0.55669E-01   -0.24612E+00 43136   0.260E+00    0.766E+00
DAV:   4    -0.385350193597E+03    0.51499E-01   -0.42511E-01 44248   0.132E+00    0.209E+00
DAV:   5    -0.385377497202E+03   -0.27304E-01   -0.12947E-01 48168   0.622E-01    0.295E+00
DAV:   6    -0.385375174272E+03    0.23229E-02   -0.40581E-02 44712   0.433E-01    0.214E+00
DAV:   7    -0.385369490986E+03    0.56833E-02   -0.10538E-02 51032   0.289E-01    0.120E+00
DAV:   8    -0.385368273126E+03    0.12179E-02   -0.51725E-03 49312   0.253E-01    0.747E-01
DAV:   9    -0.385367764893E+03    0.50823E-03   -0.47391E-03 45272   0.239E-01    0.560E-01
DAV:  10    -0.385367487148E+03    0.27775E-03   -0.44244E-03 44088   0.243E-01    0.599E-01
DAV:  11    -0.385367036395E+03    0.45075E-03   -0.24465E-03 48672   0.132E-01    0.285E-01
DAV:  12    -0.385367068123E+03   -0.31728E-04   -0.11356E-03 45728   0.813E-02    0.213E-01
DAV:  13    -0.385367013505E+03    0.54618E-04   -0.30745E-04 48896   0.588E-02    0.116E-01
DAV:  14    -0.385367027954E+03   -0.14449E-04   -0.13758E-04 43120   0.358E-02    0.129E-01
DAV:  15    -0.385366992261E+03    0.35694E-04   -0.76137E-05 35160   0.255E-02    0.575E-02
DAV:  16    -0.385366993593E+03   -0.13318E-05   -0.70504E-05 34288   0.233E-02
  32 F= -.38536699E+03 E0= -.38536146E+03  d E =0.121676E+00  mag=    46.0000
       N       E                     dE             d eps       ncg     rms          rms(c)
DAV:   1    -0.385192851334E+03    0.17414E+00   -0.18549E+01 45480   0.170E+01    0.251E+00
DAV:   2    -0.385475153094E+03   -0.28230E+00   -0.26208E+00 37624   0.277E+00    0.195E+00
DAV:   3    -0.385499787494E+03   -0.24634E-01   -0.15289E-01 46784   0.791E-01    0.293E+00
DAV:   4    -0.385487042460E+03    0.12745E-01   -0.46749E-02 43088   0.567E-01    0.870E-01
DAV:   5    -0.385489735589E+03   -0.26931E-02   -0.15553E-02 44096   0.282E-01    0.105E+00
DAV:   6    -0.385488413110E+03    0.13225E-02   -0.96481E-03 45384   0.219E-01    0.657E-01
DAV:   7    -0.385487994589E+03    0.41852E-03   -0.38985E-03 46240   0.175E-01    0.341E-01
DAV:   8    -0.385488135561E+03   -0.14097E-03   -0.16256E-03 45440   0.162E-01    0.543E-01
DAV:   9    -0.385487694226E+03    0.44134E-03   -0.11135E-03 46776   0.106E-01    0.243E-01
DAV:  10    -0.385487722159E+03   -0.27934E-04   -0.43711E-04 50048   0.527E-02    0.997E-02
DAV:  11    -0.385487744929E+03   -0.22770E-04   -0.11407E-04 40128   0.373E-02    0.480E-02
DAV:  12    -0.385487738257E+03    0.66722E-05   -0.47161E-05 33952   0.238E-02
  33 F= -.38548774E+03 E0= -.38548234E+03  d E =-.120745E+00  mag=    46.0000
       N       E                     dE             d eps       ncg     rms          rms(c)
DAV:   1    -0.385434110729E+03    0.53634E-01   -0.43879E+00 45192   0.843E+00    0.121E+00
DAV:   2    -0.385503316496E+03   -0.69206E-01   -0.63992E-01 37944   0.136E+00    0.119E+00
DAV:   3    -0.385514150452E+03   -0.10834E-01   -0.58606E-02 46128   0.532E-01    0.255E+00
DAV:   4    -0.385504184253E+03    0.99662E-02   -0.16922E-02 42152   0.362E-01    0.647E-01
DAV:   5    -0.385506339730E+03   -0.21555E-02   -0.50661E-03 47720   0.144E-01    0.846E-01
DAV:   6    -0.385506545643E+03   -0.20591E-03   -0.28138E-03 40208   0.125E-01    0.872E-01
DAV:   7    -0.385505521704E+03    0.10239E-02   -0.14052E-03 48088   0.889E-02    0.359E-01
DAV:   8    -0.385505643479E+03   -0.12178E-03   -0.68513E-04 43704   0.744E-02    0.157E-01
DAV:   9    -0.385505726547E+03   -0.83067E-04   -0.46244E-04 43600   0.654E-02    0.197E-01
DAV:  10    -0.385505758188E+03   -0.31641E-04   -0.21761E-04 43904   0.439E-02    0.245E-01
DAV:  11    -0.385505739866E+03    0.18322E-04   -0.83737E-05 40824   0.270E-02    0.259E-01
DAV:  12    -0.385505673726E+03    0.66140E-04   -0.32677E-05 32976   0.157E-02    0.173E-01
DAV:  13    -0.385505658185E+03    0.15541E-04   -0.74824E-05 30048   0.154E-02    0.355E-02
DAV:  14    -0.385505685632E+03   -0.27448E-04   -0.45171E-05 27248   0.133E-02    0.675E-02
DAV:  15    -0.385505692289E+03   -0.66566E-05   -0.10319E-05 25800   0.943E-03
  34 F= -.38550569E+03 E0= -.38550019E+03  d E =-.179540E-01  mag=    46.0000
       N       E                     dE             d eps       ncg     rms          rms(c)
DAV:   1    -0.385504746944E+03    0.93869E-03   -0.29339E-01 42032   0.200E+00    0.259E-01
DAV:   2    -0.385508162551E+03   -0.34156E-02   -0.31546E-02 37328   0.329E-01    0.328E-01
DAV:   3    -0.385508584261E+03   -0.42171E-03   -0.24266E-03 47912   0.124E-01    0.601E-01
DAV:   4    -0.385508095957E+03    0.48830E-03   -0.67442E-04 40320   0.850E-02    0.148E-01
DAV:   5    -0.385508212363E+03   -0.11641E-03   -0.28955E-04 38200   0.297E-02    0.137E-01
DAV:   6    -0.385508237155E+03   -0.24793E-04   -0.70643E-05 31480   0.246E-02    0.162E-01
DAV:   7    -0.385508198984E+03    0.38171E-04   -0.73214E-05 30320   0.190E-02    0.790E-02
DAV:   8    -0.385508204306E+03   -0.53221E-05   -0.30166E-05 27768   0.151E-02
  35 F= -.38550820E+03 E0= -.38550270E+03  d E =-.251202E-02  mag=    46.0000
       N       E                     dE             d eps       ncg     rms          rms(c)
DAV:   1    -0.385508068029E+03    0.13096E-03   -0.79879E-01 40088   0.277E+00    0.271E-01
DAV:   2    -0.385512396116E+03   -0.43281E-02   -0.42713E-02 36840   0.458E-01    0.260E-01
DAV:   3    -0.385512577438E+03   -0.18132E-03   -0.21224E-03 49600   0.113E-01    0.368E-01
DAV:   4    -0.385512399476E+03    0.17796E-03   -0.55468E-04 43384   0.688E-02    0.124E-01
DAV:   5    -0.385512446464E+03   -0.46988E-04   -0.29359E-04 37024   0.381E-02    0.181E-01
DAV:   6    -0.385512403628E+03    0.42836E-04   -0.15095E-04 34840   0.332E-02    0.987E-02
DAV:   7    -0.385512393522E+03    0.10105E-04   -0.68657E-05 38088   0.272E-02    0.550E-02
DAV:   8    -0.385512393490E+03    0.32313E-07   -0.32063E-05 32936   0.219E-02
  36 F= -.38551239E+03 E0= -.38550688E+03  d E =-.418918E-02  mag=    46.0000
       N       E                     dE             d eps       ncg     rms          rms(c)
DAV:   1    -0.385511942731E+03    0.45079E-03   -0.66520E-01 40104   0.242E+00    0.238E-01
DAV:   2    -0.385515480421E+03   -0.35377E-02   -0.32400E-02 36976   0.404E-01    0.547E-01
DAV:   3    -0.385515191071E+03    0.28935E-03   -0.20286E-03 42744   0.134E-01    0.322E-01
DAV:   4    -0.385515242728E+03   -0.51657E-04   -0.59860E-04 40688   0.671E-02    0.228E-01
DAV:   5    -0.385515185423E+03    0.57305E-04   -0.28328E-04 38272   0.360E-02    0.983E-02
DAV:   6    -0.385515188485E+03   -0.30621E-05   -0.80806E-05 32408   0.240E-02
  37 F= -.38551519E+03 E0= -.38550971E+03  d E =-.279500E-02  mag=    46.0000
       N       E                     dE             d eps       ncg     rms          rms(c)
DAV:   1    -0.385510132299E+03    0.50531E-02   -0.19307E+00 39896   0.386E+00    0.335E-01
DAV:   2    -0.385518284004E+03   -0.81517E-02   -0.79050E-02 36648   0.622E-01    0.503E-01
DAV:   3    -0.385518460795E+03   -0.17679E-03   -0.39857E-03 48720   0.169E-01    0.577E-01
DAV:   4    -0.385518098317E+03    0.36248E-03   -0.91719E-04 42872   0.103E-01    0.284E-01
DAV:   5    -0.385518074213E+03    0.24104E-04   -0.59672E-04 40920   0.465E-02    0.100E-01
DAV:   6    -0.385518080892E+03   -0.66791E-05   -0.12618E-04 41112   0.321E-02    0.129E-01
DAV:   7    -0.385518052466E+03    0.28427E-04   -0.12549E-04 40776   0.342E-02    0.999E-02
DAV:   8    -0.385518048737E+03    0.37285E-05   -0.13573E-04 38936   0.268E-02    0.771E-02
DAV:   9    -0.385518045186E+03    0.35511E-05   -0.40118E-05 28448   0.160E-02
  38 F= -.38551805E+03 E0= -.38551259E+03  d E =-.285670E-02  mag=    46.0000
       N       E                     dE             d eps       ncg     rms          rms(c)
DAV:   1    -0.385479754601E+03    0.38294E-01   -0.91263E+00 40112   0.895E+00    0.828E-01
DAV:   2    -0.385523474731E+03   -0.43720E-01   -0.42344E-01 36608   0.145E+00    0.780E-01
DAV:   3    -0.385527733298E+03   -0.42586E-02   -0.21631E-02 48360   0.374E-01    0.190E+00
DAV:   4    -0.385522518988E+03    0.52143E-02   -0.66829E-03 40608   0.254E-01    0.497E-01
DAV:   5    -0.385523519701E+03   -0.10007E-02   -0.25903E-03 47056   0.950E-02    0.326E-01
DAV:   6    -0.385523718380E+03   -0.19868E-03   -0.69832E-04 38224   0.774E-02    0.402E-01
DAV:   7    -0.385523500190E+03    0.21819E-03   -0.82763E-04 46472   0.596E-02    0.255E-01
DAV:   8    -0.385523482569E+03    0.17621E-04   -0.27048E-04 44040   0.496E-02    0.153E-01
DAV:   9    -0.385523483560E+03   -0.99088E-06   -0.18351E-04 38872   0.407E-02    0.682E-02
DAV:  10    -0.385523496837E+03   -0.13277E-04   -0.94561E-05 35816   0.224E-02    0.764E-02
DAV:  11    -0.385523497319E+03   -0.48205E-06   -0.14218E-05 24760   0.121E-02
  39 F= -.38552350E+03 E0= -.38551802E+03  d E =-.545213E-02  mag=    46.0000
       N       E                     dE             d eps       ncg     rms          rms(c)
DAV:   1    -0.385010976174E+03    0.51252E+00   -0.62282E+01 41088   0.260E+01    0.293E+00
DAV:   2    -0.385487857079E+03   -0.47688E+00   -0.44455E+00 36888   0.429E+00    0.519E+00
DAV:   3    -0.385499718318E+03   -0.11861E-01   -0.58181E-01 46088   0.144E+00    0.540E+00
DAV:   4    -0.385472438811E+03    0.27280E-01   -0.12410E-01 42936   0.879E-01    0.207E+00
DAV:   5    -0.385474540949E+03   -0.21021E-02   -0.42583E-02 45208   0.414E-01    0.858E-01
DAV:   6    -0.385475288266E+03   -0.74732E-03   -0.54834E-03 44560   0.234E-01    0.842E-01
DAV:   7    -0.385474221629E+03    0.10666E-02   -0.46445E-03 49944   0.213E-01    0.550E-01
DAV:   8    -0.385474184686E+03    0.36943E-04   -0.47327E-03 45384   0.182E-01    0.579E-01
DAV:   9    -0.385473838876E+03    0.34581E-03   -0.18417E-03 46888   0.120E-01    0.320E-01
DAV:  10    -0.385473825145E+03    0.13731E-04   -0.65429E-04 49504   0.734E-02    0.134E-01
DAV:  11    -0.385473878871E+03   -0.53726E-04   -0.21477E-04 43176   0.406E-02    0.805E-02
DAV:  12    -0.385473879039E+03   -0.16831E-06   -0.61846E-05 34624   0.252E-02
  40 F= -.38547388E+03 E0= -.38546804E+03  d E =0.496183E-01  mag=    46.0000
       N       E                     dE             d eps       ncg     rms          rms(c)
DAV:   1    -0.385293220782E+03    0.18066E+00   -0.14741E+01 47216   0.154E+01    0.236E+00
DAV:   2    -0.385529124182E+03   -0.23590E+00   -0.20785E+00 37608   0.247E+00    0.302E+00
DAV:   3    -0.385557481158E+03   -0.28357E-01   -0.38471E-01 44136   0.113E+00    0.510E+00
DAV:   4    -0.385522296041E+03    0.35185E-01   -0.11326E-01 41512   0.746E-01    0.126E+00
DAV:   5    -0.385531478134E+03   -0.91821E-02   -0.24437E-02 46480   0.291E-01    0.126E+00
DAV:   6    -0.385532043422E+03   -0.56529E-03   -0.76787E-03 41416   0.224E-01    0.113E+00
DAV:   7    -0.385530071412E+03    0.19720E-02   -0.25157E-03 48992   0.160E-01    0.441E-01
DAV:   8    -0.385530581081E+03   -0.50967E-03   -0.14393E-03 45928   0.135E-01    0.481E-01
DAV:   9    -0.385530634193E+03   -0.53112E-04   -0.89631E-04 43488   0.108E-01    0.457E-01
DAV:  10    -0.385530501180E+03    0.13301E-03   -0.50989E-04 47104   0.685E-02    0.382E-01
DAV:  11    -0.385530378567E+03    0.12261E-03   -0.20879E-04 47936   0.374E-02    0.186E-01
DAV:  12    -0.385530416651E+03   -0.38084E-04   -0.16648E-04 35624   0.232E-02    0.733E-02
DAV:  13    -0.385530446582E+03   -0.29931E-04   -0.44270E-05 29432   0.185E-02    0.774E-02
DAV:  14    -0.385530460467E+03   -0.13885E-04   -0.23053E-05 27552   0.140E-02    0.123E-01
DAV:  15    -0.385530438812E+03    0.21655E-04   -0.12909E-05 26264   0.112E-02    0.721E-02
DAV:  16    -0.385530437043E+03    0.17692E-05   -0.15412E-05 23368   0.970E-03
  41 F= -.38553044E+03 E0= -.38552488E+03  d E =-.565580E-01  mag=    46.0000
       N       E                     dE             d eps       ncg     rms          rms(c)
DAV:   1    -0.385529508564E+03    0.93025E-03   -0.22721E-01 42976   0.189E+00    0.268E-01
DAV:   2    -0.385532753740E+03   -0.32452E-02   -0.29758E-02 37536   0.313E-01    0.360E-01
DAV:   3    -0.385532923230E+03   -0.16949E-03   -0.33785E-03 43880   0.120E-01    0.410E-01
DAV:   4    -0.385532758911E+03    0.16432E-03   -0.55661E-04 39616   0.667E-02    0.104E-01
DAV:   5    -0.385532826303E+03   -0.67392E-04   -0.38712E-04 35536   0.299E-02    0.199E-01
DAV:   6    -0.385532797407E+03    0.28896E-04   -0.66023E-05 32192   0.278E-02    0.133E-01
DAV:   7    -0.385532778643E+03    0.18764E-04   -0.11451E-04 30304   0.219E-02    0.429E-02
DAV:   8    -0.385532791834E+03   -0.13191E-04   -0.58926E-05 31744   0.170E-02    0.736E-02
DAV:   9    -0.385532786662E+03    0.51720E-05   -0.17152E-05 24784   0.122E-02
  42 F= -.38553279E+03 E0= -.38552723E+03  d E =-.234962E-02  mag=    46.0000
       N       E                     dE             d eps       ncg     rms          rms(c)
DAV:   1    -0.385525598088E+03    0.71937E-02   -0.16435E+00 40456   0.442E+00    0.570E-01
DAV:   2    -0.385541858935E+03   -0.16261E-01   -0.14403E-01 36776   0.792E-01    0.173E+00
DAV:   3    -0.385538197044E+03    0.36619E-02   -0.16929E-02 42200   0.326E-01    0.522E-01
DAV:   4    -0.385539588998E+03   -0.13920E-02   -0.46844E-03 45040   0.162E-01    0.759E-01
DAV:   5    -0.385538852301E+03    0.73670E-03   -0.14451E-03 41528   0.110E-01    0.258E-01
DAV:   6    -0.385538998397E+03   -0.14610E-03   -0.19323E-03 49384   0.607E-02    0.301E-01
DAV:   7    -0.385538973092E+03    0.25305E-04   -0.25315E-04 41952   0.521E-02    0.273E-01
DAV:   8    -0.385538884223E+03    0.88869E-04   -0.29000E-04 40176   0.380E-02    0.124E-01
DAV:   9    -0.385538901194E+03   -0.16970E-04   -0.15020E-04 37928   0.265E-02    0.839E-02
DAV:  10    -0.385538903408E+03   -0.22146E-05   -0.30341E-05 28296   0.185E-02
  43 F= -.38553890E+03 E0= -.38553339E+03  d E =-.611675E-02  mag=    46.0000
       N       E                     dE             d eps       ncg     rms          rms(c)
DAV:   1    -0.385538081897E+03    0.81930E-03   -0.83225E-02 45584   0.112E+00    0.163E-01
DAV:   2    -0.385539291365E+03   -0.12095E-02   -0.10975E-02 37600   0.179E-01    0.135E-01
DAV:   3    -0.385539412638E+03   -0.12127E-03   -0.74987E-04 44832   0.591E-02    0.254E-01
DAV:   4    -0.385539326066E+03    0.86572E-04   -0.17908E-04 36200   0.413E-02    0.664E-02
DAV:   5    -0.385539351798E+03   -0.25733E-04   -0.13003E-04 29584   0.194E-02    0.943E-02
DAV:   6    -0.385539344673E+03    0.71248E-05   -0.21883E-05 26496   0.155E-02
  44 F= -.38553934E+03 E0= -.38553385E+03  d E =-.441265E-03  mag=    46.0000
       N       E                     dE             d eps       ncg     rms          rms(c)
DAV:   1    -0.385540095207E+03   -0.74341E-03   -0.11604E-01 40512   0.106E+00    0.132E-01
DAV:   2    -0.385541186768E+03   -0.10916E-02   -0.76600E-03 37384   0.198E-01    0.615E-01
DAV:   3    -0.385540627919E+03    0.55885E-03   -0.95977E-04 39184   0.949E-02    0.113E-01
DAV:   4    -0.385540797663E+03   -0.16974E-03   -0.32802E-04 37960   0.269E-02    0.156E-01
DAV:   5    -0.385540804382E+03   -0.67188E-05   -0.77289E-05 29360   0.223E-02
  45 F= -.38554080E+03 E0= -.38553536E+03  d E =-.145971E-02  mag=    46.0000
       N       E                     dE             d eps       ncg     rms          rms(c)
DAV:   1    -0.385541148295E+03   -0.35063E-03   -0.44316E-01 39784   0.185E+00    0.285E-01
DAV:   2    -0.385546583786E+03   -0.54355E-02   -0.26249E-02 39048   0.390E-01    0.182E+00
DAV:   3    -0.385541756512E+03    0.48273E-02   -0.58471E-03 38520   0.235E-01    0.539E-01
DAV:   4    -0.385542672248E+03   -0.91574E-03   -0.18564E-03 43864   0.616E-02    0.225E-01
DAV:   5    -0.385543031464E+03   -0.35922E-03   -0.26570E-04 35128   0.497E-02    0.308E-01
DAV:   6    -0.385542895704E+03    0.13576E-03   -0.57498E-05 32736   0.279E-02    0.197E-01
DAV:   7    -0.385542864712E+03    0.30992E-04   -0.11225E-04 37952   0.224E-02    0.713E-02
DAV:   8    -0.385542900136E+03   -0.35424E-04   -0.99074E-05 30208   0.205E-02    0.109E-01
DAV:   9    -0.385542943138E+03   -0.43001E-04   -0.92429E-05 27160   0.176E-02    0.206E-01
DAV:  10    -0.385542946743E+03   -0.36050E-05   -0.22607E-05 25744   0.120E-02
  46 F= -.38554295E+03 E0= -.38553736E+03  d E =-.214236E-02  mag=    46.0000
       N       E                     dE             d eps       ncg     rms          rms(c)
DAV:   1    -0.385542741599E+03    0.20154E-03   -0.27481E-01 40096   0.157E+00    0.333E-01
DAV:   2    -0.385549996753E+03   -0.72552E-02   -0.29866E-02 40576   0.400E-01    0.213E+00
DAV:   3    -0.385542814785E+03    0.71820E-02   -0.87064E-03 38232   0.278E-01    0.742E-01
DAV:   4    -0.385543519888E+03   -0.70510E-03   -0.15613E-03 43344   0.680E-02    0.123E-01
DAV:   5    -0.385544110324E+03   -0.59044E-03   -0.74653E-04 35152   0.490E-02    0.286E-01
DAV:   6    -0.385544056392E+03    0.53932E-04   -0.10278E-04 32672   0.317E-02    0.228E-01
DAV:   7    -0.385544008915E+03    0.47476E-04   -0.29178E-05 29680   0.160E-02    0.146E-01
DAV:   8    -0.385544003951E+03    0.49647E-05   -0.30003E-05 26368   0.134E-02
  47 F= -.38554400E+03 E0= -.38553847E+03  d E =-.105721E-02  mag=    46.0000
       N       E                     dE             d eps       ncg     rms          rms(c)
DAV:   1    -0.385505348895E+03    0.38660E-01   -0.84106E+00 39928   0.886E+00    0.891E-01
DAV:   2    -0.385553941831E+03   -0.48593E-01   -0.44244E-01 36608   0.148E+00    0.216E+00
DAV:   3    -0.385549989480E+03    0.39524E-02   -0.42675E-02 41120   0.502E-01    0.124E+00
DAV:   4    -0.385550761352E+03   -0.77187E-03   -0.66222E-03 43312   0.225E-01    0.857E-01
DAV:   5    -0.385549950692E+03    0.81066E-03   -0.23322E-03 48992   0.110E-01    0.459E-01
DAV:   6    -0.385549875551E+03    0.75141E-04   -0.11035E-03 46440   0.796E-02    0.273E-01
DAV:   7    -0.385550086143E+03   -0.21059E-03   -0.49291E-04 39640   0.701E-02    0.400E-01
DAV:   8    -0.385549839021E+03    0.24712E-03   -0.25283E-04 43792   0.551E-02    0.190E-01
DAV:   9    -0.385549862855E+03   -0.23834E-04   -0.17373E-04 42400   0.295E-02    0.106E-01
DAV:  10    -0.385549880062E+03   -0.17206E-04   -0.17476E-04 31808   0.253E-02    0.635E-02
DAV:  11    -0.385549893381E+03   -0.13320E-04   -0.43018E-05 28512   0.174E-02    0.778E-02
DAV:  12    -0.385549891468E+03    0.19128E-05   -0.27804E-05 25952   0.117E-02
  48 F= -.38554989E+03 E0= -.38554442E+03  d E =-.588752E-02  mag=    46.0000
       N       E                     dE             d eps       ncg     rms          rms(c)
DAV:   1    -0.385432800146E+03    0.11709E+00   -0.26046E+01 39920   0.152E+01    0.143E+00
DAV:   2    -0.385565987972E+03   -0.13319E+00   -0.12596E+00 36656   0.249E+00    0.297E+00
DAV:   3    -0.385563099838E+03    0.28881E-02   -0.13136E-01 43168   0.796E-01    0.225E+00
DAV:   4    -0.385559973275E+03    0.31266E-02   -0.15453E-02 44104   0.378E-01    0.114E+00
DAV:   5    -0.385558814134E+03    0.11591E-02   -0.59757E-03 50896   0.173E-01    0.573E-01
DAV:   6    -0.385559309251E+03   -0.49512E-03   -0.39381E-03 42344   0.131E-01    0.704E-01
DAV:   7    -0.385558944474E+03    0.36478E-03   -0.12954E-03 43352   0.122E-01    0.555E-01
DAV:   8    -0.385558521797E+03    0.42268E-03   -0.66609E-04 49336   0.923E-02    0.138E-01
DAV:   9    -0.385558678332E+03   -0.15653E-03   -0.37144E-04 40656   0.536E-02    0.797E-02
DAV:  10    -0.385558706978E+03   -0.28647E-04   -0.17925E-04 41872   0.305E-02    0.719E-02
DAV:  11    -0.385558718553E+03   -0.11574E-04   -0.50542E-05 32592   0.196E-02    0.943E-02
DAV:  12    -0.385558710128E+03    0.84250E-05   -0.25916E-05 27024   0.122E-02
  49 F= -.38555871E+03 E0= -.38555329E+03  d E =-.881866E-02  mag=    46.0000
       N       E                     dE             d eps       ncg     rms          rms(c)
DAV:   1    -0.385504157948E+03    0.54561E-01   -0.11695E+01 39944   0.102E+01    0.936E-01
DAV:   2    -0.385561149045E+03   -0.56991E-01   -0.54950E-01 36608   0.166E+00    0.144E+00
DAV:   3    -0.385564097692E+03   -0.29486E-02   -0.38294E-02 48736   0.492E-01    0.201E+00
DAV:   4    -0.385559079014E+03    0.50187E-02   -0.73661E-03 42096   0.299E-01    0.604E-01
DAV:   5    -0.385559950256E+03   -0.87124E-03   -0.54369E-03 45704   0.118E-01    0.424E-01
DAV:   6    -0.385560093622E+03   -0.14337E-03   -0.11407E-03 40016   0.871E-02    0.474E-01
DAV:   7    -0.385559773027E+03    0.32060E-03   -0.58106E-04 45840   0.752E-02    0.263E-01
DAV:   8    -0.385559798759E+03   -0.25732E-04   -0.69121E-04 47792   0.668E-02    0.266E-01
DAV:   9    -0.385559772644E+03    0.26115E-04   -0.22852E-04 40296   0.489E-02    0.184E-01
DAV:  10    -0.385559747848E+03    0.24797E-04   -0.75233E-05 37256   0.248E-02    0.891E-02
DAV:  11    -0.385559759396E+03   -0.11549E-04   -0.29592E-05 29264   0.141E-02    0.427E-02
DAV:  12    -0.385559762392E+03   -0.29959E-05   -0.14456E-05 21544   0.761E-03
  50 F= -.38555976E+03 E0= -.38555430E+03  d E =-.105226E-02  mag=    46.0000
       N       E                     dE             d eps       ncg     rms          rms(c)
DAV:   1    -0.385438140339E+03    0.12162E+00   -0.93639E+00 44336   0.124E+01    0.168E+00
DAV:   2    -0.385573226037E+03   -0.13509E+00   -0.11795E+00 37408   0.203E+00    0.364E+00
DAV:   3    -0.385567983983E+03    0.52421E-02   -0.19896E-01 41208   0.914E-01    0.263E+00
DAV:   4    -0.385566836617E+03    0.11474E-02   -0.15816E-02 40760   0.406E-01    0.139E+00
DAV:   5    -0.385564759484E+03    0.20771E-02   -0.67808E-03 53168   0.203E-01    0.671E-01
DAV:   6    -0.385566205727E+03   -0.14462E-02   -0.68779E-03 43256   0.149E-01    0.821E-01
DAV:   7    -0.385565507816E+03    0.69791E-03   -0.12977E-03 44640   0.117E-01    0.462E-01
DAV:   8    -0.385565397452E+03    0.11036E-03   -0.71909E-04 48664   0.775E-02    0.181E-01
DAV:   9    -0.385565534032E+03   -0.13658E-03   -0.46636E-04 41408   0.552E-02    0.178E-01
DAV:  10    -0.385565558794E+03   -0.24763E-04   -0.32271E-04 41624   0.417E-02    0.166E-01
DAV:  11    -0.385565552020E+03    0.67742E-05   -0.74487E-05 38192   0.260E-02
  51 F= -.38556555E+03 E0= -.38556016E+03  d E =-.578963E-02  mag=    46.0000
       N       E                     dE             d eps       ncg     rms          rms(c)
DAV:   1    -0.385544161798E+03    0.21397E-01   -0.41677E+00 40336   0.673E+00    0.736E-01
DAV:   2    -0.385575626348E+03   -0.31465E-01   -0.26645E-01 36776   0.113E+00    0.234E+00
DAV:   3    -0.385568867239E+03    0.67591E-02   -0.26622E-02 39912   0.452E-01    0.623E-01
DAV:   4    -0.385571230366E+03   -0.23631E-02   -0.33819E-03 39816   0.153E-01    0.552E-01
DAV:   5    -0.385570702438E+03    0.52793E-03   -0.10619E-03 48936   0.846E-02    0.245E-01
DAV:   6    -0.385570847951E+03   -0.14551E-03   -0.12047E-03 45000   0.598E-02    0.354E-01
DAV:   7    -0.385570897679E+03   -0.49728E-04   -0.42396E-04 40296   0.532E-02    0.426E-01
DAV:   8    -0.385570623889E+03    0.27379E-03   -0.20706E-04 38664   0.506E-02    0.161E-01
DAV:   9    -0.385570679004E+03   -0.55115E-04   -0.15255E-04 41224   0.310E-02    0.548E-02
DAV:  10    -0.385570705501E+03   -0.26497E-04   -0.58236E-05 30520   0.192E-02    0.423E-02
DAV:  11    -0.385570710961E+03   -0.54602E-05   -0.20578E-05 25984   0.110E-02
  52 F= -.38557071E+03 E0= -.38556530E+03  d E =-.515894E-02  mag=    46.0000
       N       E                     dE             d eps       ncg     rms          rms(c)
DAV:   1    -0.385471424977E+03    0.99281E-01   -0.18865E+01 40080   0.133E+01    0.135E+00
DAV:   2    -0.385583852698E+03   -0.11243E+00   -0.10139E+00 36616   0.222E+00    0.381E+00
DAV:   3    -0.385567233294E+03    0.16619E-01   -0.10838E-01 40752   0.792E-01    0.137E+00
DAV:   4    -0.385572000853E+03   -0.47676E-02   -0.99220E-03 42088   0.297E-01    0.101E+00
DAV:   5    -0.385570541239E+03    0.14596E-02   -0.76363E-03 49832   0.155E-01    0.588E-01
DAV:   6    -0.385570697354E+03   -0.15611E-03   -0.22282E-03 48960   0.122E-01    0.589E-01
DAV:   7    -0.385570707829E+03   -0.10475E-04   -0.75424E-04 40480   0.973E-02    0.649E-01
DAV:   8    -0.385570005556E+03    0.70227E-03   -0.80185E-04 47312   0.962E-02    0.149E-01
DAV:   9    -0.385570232051E+03   -0.22650E-03   -0.43267E-04 40136   0.532E-02    0.839E-02
DAV:  10    -0.385570260757E+03   -0.28705E-04   -0.14687E-04 40600   0.313E-02    0.720E-02
DAV:  11    -0.385570265371E+03   -0.46143E-05   -0.40580E-05 31416   0.177E-02
  53 F= -.38557027E+03 E0= -.38556489E+03  d E =0.445590E-03  mag=    46.0000
       N       E                     dE             d eps       ncg     rms          rms(c)
DAV:   1    -0.385445728885E+03    0.12453E+00   -0.22256E+01 40304   0.149E+01    0.169E+00
DAV:   2    -0.385620229929E+03   -0.17450E+00   -0.15756E+00 37376   0.257E+00    0.673E+00
DAV:   3    -0.385553783114E+03    0.66447E-01   -0.29576E-01 38952   0.111E+00    0.947E-01
DAV:   4    -0.385575913226E+03   -0.22130E-01   -0.37331E-02 41712   0.351E-01    0.172E+00
DAV:   5    -0.385573825049E+03    0.20882E-02   -0.91072E-03 44184   0.236E-01    0.128E+00
DAV:   6    -0.385571633385E+03    0.21917E-02   -0.28004E-03 49176   0.127E-01    0.640E-01
DAV:   7    -0.385571817009E+03   -0.18362E-03   -0.27139E-03 47688   0.137E-01    0.544E-01
DAV:   8    -0.385572171853E+03   -0.35484E-03   -0.10581E-03 40232   0.946E-02    0.630E-01
DAV:   9    -0.385571700406E+03    0.47145E-03   -0.37744E-04 46936   0.705E-02    0.423E-01
DAV:  10    -0.385571618198E+03    0.82208E-04   -0.53105E-04 47984   0.484E-02    0.185E-01
DAV:  11    -0.385571710343E+03   -0.92145E-04   -0.39414E-04 36608   0.378E-02    0.858E-02
DAV:  12    -0.385571744454E+03   -0.34111E-04   -0.50606E-05 32296   0.239E-02    0.101E-01
DAV:  13    -0.385571730455E+03    0.13998E-04   -0.34040E-05 28416   0.143E-02    0.556E-02
DAV:  14    -0.385571729550E+03    0.90511E-06   -0.18863E-05 23592   0.963E-03
  54 F= -.38557173E+03 E0= -.38556641E+03  d E =-.146418E-02  mag=    46.0000
       N       E                     dE             d eps       ncg     rms          rms(c)
DAV:   1    -0.385514438811E+03    0.57292E-01   -0.39020E+00 44640   0.753E+00    0.113E+00
DAV:   2    -0.385568272184E+03   -0.53833E-01   -0.48990E-01 37008   0.123E+00    0.139E+00
DAV:   3    -0.385572592270E+03   -0.43201E-02   -0.68181E-02 45632   0.473E-01    0.178E+00
DAV:   4    -0.385569187202E+03    0.34051E-02   -0.10681E-02 44528   0.273E-01    0.691E-01
DAV:   5    -0.385569161555E+03    0.25647E-04   -0.24715E-03 43944   0.119E-01    0.259E-01
DAV:   6    -0.385569359662E+03   -0.19811E-03   -0.94754E-04 40544   0.752E-02    0.288E-01
DAV:   7    -0.385569246984E+03    0.11268E-03   -0.73055E-04 45888   0.747E-02    0.152E-01
DAV:   8    -0.385569345768E+03   -0.98784E-04   -0.67483E-04 43472   0.633E-02    0.270E-01
DAV:   9    -0.385569234646E+03    0.11112E-03   -0.25208E-04 43800   0.444E-02    0.119E-01
DAV:  10    -0.385569240849E+03   -0.62027E-05   -0.18920E-04 37048   0.239E-02    0.654E-02
DAV:  11    -0.385569242920E+03   -0.20710E-05   -0.21987E-05 29616   0.158E-02
  55 F= -.38556924E+03 E0= -.38556403E+03  d E =0.248663E-02  mag=    46.0000
       N       E                     dE             d eps       ncg     rms          rms(c)
DAV:   1    -0.385555370522E+03    0.13870E-01   -0.13299E+00 44272   0.444E+00    0.649E-01
DAV:   2    -0.385573490887E+03   -0.18120E-01   -0.16056E-01 36792   0.730E-01    0.932E-01
DAV:   3    -0.385575022158E+03   -0.15313E-02   -0.13014E-02 43136   0.324E-01    0.135E+00
DAV:   4    -0.385572965586E+03    0.20566E-02   -0.36899E-03 40616   0.198E-01    0.474E-01
DAV:   5    -0.385573296443E+03   -0.33086E-03   -0.17207E-03 45760   0.743E-02    0.155E-01
DAV:   6    -0.385573413467E+03   -0.11702E-03   -0.31029E-04 38440   0.487E-02    0.140E-01
DAV:   7    -0.385573386897E+03    0.26570E-04   -0.13161E-04 41832   0.383E-02    0.817E-02
DAV:   8    -0.385573387000E+03   -0.10303E-06   -0.88659E-05 41552   0.363E-02
  56 F= -.38557339E+03 E0= -.38556804E+03  d E =-.414408E-02  mag=    46.0000
