       N       E                     dE             d eps       ncg     rms          rms(c)
DAV:   1     0.965216565644E+04    0.96522E+04   -0.29134E+05 30568   0.197E+03
DAV:   2     0.127523752554E+04   -0.83769E+04   -0.76687E+04 29872   0.569E+02
DAV:   3    -0.317442244235E+03   -0.15927E+04   -0.14809E+04 30808   0.258E+02
DAV:   4    -0.419327640199E+03   -0.10189E+03   -0.10076E+03 32848   0.652E+01
DAV:   5    -0.420830820878E+03   -0.15032E+01   -0.14952E+01 35736   0.852E+00    0.902E+01
DAV:   6    -0.390607721686E+03    0.30223E+02   -0.42212E+02 38960   0.854E+01    0.158E+02
DAV:   7    -0.369735877541E+03    0.20872E+02   -0.20007E+02 33056   0.746E+01    0.122E+02
DAV:   8    -0.338050710385E+03    0.31685E+02   -0.74954E+01 31984   0.570E+01    0.943E+01
DAV:   9    -0.367401530321E+03   -0.29351E+02   -0.82411E+01 32224   0.554E+01    0.113E+02
DAV:  10    -0.367709649042E+03   -0.30812E+00   -0.91972E+01 31712   0.513E+01    0.121E+02
DAV:  11    -0.346523179729E+03    0.21186E+02   -0.59923E+01 31936   0.413E+01    0.923E+01
DAV:  12    -0.325180152867E+03    0.21343E+02   -0.42763E+01 32120   0.302E+01    0.668E+01
DAV:  13    -0.342562490434E+03   -0.17382E+02   -0.59825E+01 32072   0.362E+01    0.115E+02
DAV:  14    -0.323185377672E+03    0.19377E+02   -0.53177E+01 31968   0.256E+01    0.633E+01
DAV:  15    -0.318656630033E+03    0.45287E+01   -0.24360E+01 31976   0.207E+01    0.633E+01
DAV:  16    -0.318805659806E+03   -0.14903E+00   -0.17308E+01 32408   0.140E+01    0.547E+01
DAV:  17    -0.317853852529E+03    0.95181E+00   -0.21283E+01 31632   0.118E+01    0.456E+01
DAV:  18    -0.317000978619E+03    0.85287E+00   -0.69634E+00 31840   0.115E+01    0.405E+01
DAV:  19    -0.316562528241E+03    0.43845E+00   -0.20306E+00 31120   0.642E+00    0.305E+01
DAV:  20    -0.316565511390E+03   -0.29831E-02   -0.80805E-01 31928   0.315E+00    0.294E+01
DAV:  21    -0.316535180908E+03    0.30330E-01   -0.25642E-01 31384   0.196E+00    0.284E+01
DAV:  22    -0.316556956162E+03   -0.21775E-01   -0.96076E-02 31728   0.133E+00    0.276E+01
DAV:  23    -0.317007225665E+03   -0.45027E+00   -0.73399E-01 30944   0.338E+00    0.304E+01
DAV:  24    -0.317030201055E+03   -0.22975E-01   -0.32466E-01 32208   0.243E+00    0.280E+01
DAV:  25    -0.317132888711E+03   -0.10269E+00   -0.83822E-02 31112   0.126E+00    0.274E+01
DAV:  26    -0.317128857263E+03    0.40314E-02   -0.19318E-02 33008   0.510E-01    0.274E+01
DAV:  27    -0.317306286327E+03   -0.17743E+00   -0.16467E-01 31112   0.180E+00    0.269E+01
DAV:  28    -0.317616278288E+03   -0.30999E+00   -0.77500E-01 31472   0.354E+00    0.283E+01
DAV:  29    -0.318189922641E+03   -0.57364E+00   -0.14961E+00 31320   0.596E+00    0.293E+01
DAV:  30    -0.317949969365E+03    0.23995E+00   -0.23656E+00 31152   0.627E+00    0.267E+01
DAV:  31    -0.318334125575E+03   -0.38416E+00   -0.27340E-01 31960   0.202E+00    0.273E+01
DAV:  32    -0.318819015911E+03   -0.48489E+00   -0.17974E+00 31264   0.471E+00    0.330E+01
DAV:  33    -0.317895215122E+03    0.92380E+00   -0.12608E+00 31936   0.532E+00    0.259E+01
DAV:  34    -0.318294371793E+03   -0.39916E+00   -0.23682E-01 31352   0.219E+00    0.256E+01
DAV:  35    -0.318538265781E+03   -0.24389E+00   -0.34082E-01 33656   0.240E+00    0.260E+01
DAV:  36    -0.318679732884E+03   -0.14147E+00   -0.26440E-01 34408   0.223E+00    0.256E+01
DAV:  37    -0.318744120711E+03   -0.64388E-01   -0.74990E-02 30944   0.121E+00    0.274E+01
DAV:  38    -0.318632119252E+03    0.11200E+00   -0.74974E-02 33032   0.129E+00    0.260E+01
DAV:  39    -0.318592535373E+03    0.39584E-01   -0.25002E-02 33144   0.567E-01    0.252E+01
DAV:  40    -0.318582570802E+03    0.99646E-02   -0.10972E-02 32704   0.417E-01    0.247E+01
DAV:  41    -0.318632264825E+03   -0.49694E-01   -0.31970E-01 35704   0.181E+00    0.218E+01
DAV:  42    -0.318553146102E+03    0.79119E-01   -0.23314E-01 34016   0.194E+00    0.209E+01
DAV:  43    -0.318499783794E+03    0.53362E-01   -0.15189E-01 32184   0.177E+00    0.197E+01
DAV:  44    -0.318459086033E+03    0.40698E-01   -0.55172E-02 34336   0.968E-01    0.192E+01
DAV:  45    -0.318336778900E+03    0.12231E+00   -0.82912E-02 34696   0.161E+00    0.199E+01
DAV:  46    -0.318381659134E+03   -0.44880E-01   -0.23915E-02 30368   0.634E-01    0.197E+01
DAV:  47    -0.318399424706E+03   -0.17766E-01   -0.10245E-02 33048   0.519E-01    0.193E+01
DAV:  48    -0.318425811509E+03   -0.26387E-01   -0.27666E-02 34624   0.819E-01    0.184E+01
DAV:  49    -0.318402575888E+03    0.23236E-01   -0.24328E-01 33120   0.220E+00    0.177E+01
DAV:  50    -0.318285063015E+03    0.11751E+00   -0.13316E-01 37896   0.169E+00    0.142E+01
DAV:  51    -0.318584760706E+03   -0.29970E+00   -0.11525E+00 35216   0.225E+00    0.197E+01
DAV:  52    -0.318665246396E+03   -0.80486E-01   -0.86061E-02 30496   0.121E+00    0.201E+01
DAV:  53    -0.318607795957E+03    0.57450E-01   -0.12775E-02 32488   0.364E-01    0.201E+01
DAV:  54    -0.318621928312E+03   -0.14132E-01   -0.55367E-03 31656   0.320E-01    0.200E+01
DAV:  55    -0.318604510837E+03    0.17417E-01   -0.32211E-03 34056   0.221E-01    0.200E+01
DAV:  56    -0.318571442043E+03    0.33069E-01   -0.37461E-01 31712   0.205E+00    0.225E+01
DAV:  57    -0.318573071864E+03   -0.16298E-02   -0.41421E-02 31136   0.100E+00    0.229E+01
DAV:  58    -0.318562726669E+03    0.10345E-01   -0.63582E-03 32488   0.302E-01    0.229E+01
DAV:  59    -0.318499282856E+03    0.63444E-01   -0.43450E-02 32304   0.814E-01    0.225E+01
DAV:  60    -0.318487657322E+03    0.11626E-01   -0.69718E-03 30928   0.325E-01    0.224E+01
DAV:  61    -0.318622841504E+03   -0.13518E+00   -0.30054E-01 32976   0.246E+00    0.250E+01
DAV:  62    -0.318615308191E+03    0.75333E-02   -0.44427E-02 31952   0.862E-01    0.248E+01
DAV:  63    -0.318536790340E+03    0.78518E-01   -0.22922E-02 34584   0.633E-01    0.237E+01
DAV:  64    -0.318377906101E+03    0.15888E+00   -0.15146E-01 36936   0.168E+00    0.221E+01
DAV:  65    -0.318250553351E+03    0.12735E+00   -0.82445E-02 37432   0.117E+00    0.199E+01
DAV:  66    -0.318264613068E+03   -0.14060E-01   -0.45484E-01 33800   0.273E+00    0.208E+01
DAV:  67    -0.318224432519E+03    0.40181E-01   -0.10632E-01 31336   0.140E+00    0.197E+01
DAV:  68    -0.318170519116E+03    0.53913E-01   -0.65182E-02 33968   0.734E-01    0.180E+01
DAV:  69    -0.318164867367E+03    0.56517E-02   -0.15590E-02 32000   0.441E-01    0.174E+01
DAV:  70    -0.318167145052E+03   -0.22777E-02   -0.48615E-03 30552   0.227E-01    0.170E+01
DAV:  71    -0.318249990570E+03   -0.82846E-01   -0.79864E-02 36824   0.110E+00    0.165E+01
DAV:  72    -0.318082138444E+03    0.16785E+00   -0.21998E-01 34544   0.196E+00    0.175E+01
DAV:  73    -0.318011639349E+03    0.70499E-01   -0.11482E-01 35272   0.116E+00    0.180E+01
DAV:  74    -0.317971445657E+03    0.40194E-01   -0.59554E-02 33928   0.814E-01    0.171E+01
DAV:  75    -0.317949048416E+03    0.22397E-01   -0.17471E-02 32352   0.421E-01    0.162E+01
DAV:  76    -0.317927414059E+03    0.21634E-01   -0.60404E-01 36736   0.229E+00    0.145E+01
DAV:  77    -0.317855832057E+03    0.71582E-01   -0.20420E-01 31520   0.230E+00    0.117E+01
DAV:  78    -0.317892730912E+03   -0.36899E-01   -0.23914E-02 31552   0.687E-01    0.112E+01
DAV:  79    -0.317890175414E+03    0.25555E-02   -0.41443E-03 31296   0.229E-01    0.111E+01
DAV:  80    -0.317882881973E+03    0.72934E-02   -0.26977E-03 33976   0.210E-01    0.108E+01
DAV:  81    -0.318052446993E+03   -0.16957E+00   -0.15954E-01 34752   0.207E+00    0.123E+01
DAV:  82    -0.318026845619E+03    0.25601E-01   -0.40100E-02 33280   0.918E-01    0.113E+01
DAV:  83    -0.318029925144E+03   -0.30795E-02   -0.56343E-03 31280   0.237E-01    0.112E+01
DAV:  84    -0.318022004671E+03    0.79205E-02   -0.19268E-03 35912   0.190E-01    0.111E+01
DAV:  85    -0.318009033673E+03    0.12971E-01   -0.20850E-03 37256   0.191E-01    0.112E+01
DAV:  86    -0.318130536810E+03   -0.12150E+00   -0.12701E-01 34816   0.161E+00    0.103E+01
DAV:  87    -0.318135290169E+03   -0.47534E-02   -0.33528E-02 35024   0.900E-01    0.981E+00
DAV:  88    -0.318246200471E+03   -0.11091E+00   -0.32010E-01 35144   0.180E+00    0.103E+01
DAV:  89    -0.318363234283E+03   -0.11703E+00   -0.21979E-01 35456   0.184E+00    0.108E+01
DAV:  90    -0.318390289370E+03   -0.27055E-01   -0.42927E-02 30976   0.667E-01    0.111E+01
DAV:  91    -0.318590018136E+03   -0.19973E+00   -0.42842E-01 34880   0.263E+00    0.156E+01
DAV:  92    -0.318557069742E+03    0.32948E-01   -0.18583E-01 34832   0.201E+00    0.152E+01
DAV:  93    -0.318593284898E+03   -0.36215E-01   -0.16688E-01 34648   0.117E+00    0.159E+01
DAV:  94    -0.318587985283E+03    0.52996E-02   -0.59907E-02 32872   0.138E+00    0.158E+01
DAV:  95    -0.318595858726E+03   -0.78734E-02   -0.20800E-02 34032   0.552E-01    0.153E+01
DAV:  96    -0.318548834524E+03    0.47024E-01   -0.24933E-01 34088   0.221E+00    0.149E+01
DAV:  97    -0.318645230254E+03   -0.96396E-01   -0.10860E-01 33832   0.140E+00    0.158E+01
DAV:  98    -0.318677467012E+03   -0.32237E-01   -0.60571E-02 35520   0.101E+00    0.154E+01
DAV:  99    -0.318678413415E+03   -0.94640E-03   -0.10920E-02 30384   0.367E-01    0.153E+01
DAV: 100    -0.318685527782E+03   -0.71144E-02   -0.67592E-03 32696   0.275E-01
   1 F= -.31868553E+03 E0= -.31864577E+03  d E =-.318686E+03  mag=    42.0944
       N       E                     dE             d eps       ncg     rms          rms(c)
DAV:   1    -0.318505813837E+03    0.17260E+00   -0.80879E+01 32048   0.369E+01    0.178E+01
DAV:   2    -0.352621757091E+03   -0.34116E+02   -0.11408E+02 33184   0.395E+01    0.976E+01
DAV:   3    -0.326729843031E+03    0.25892E+02   -0.32626E+01 32192   0.281E+01    0.544E+01
DAV:   4    -0.319829610484E+03    0.69002E+01   -0.96790E+00 32528   0.150E+01    0.281E+01
DAV:   5    -0.319810278690E+03    0.19332E-01   -0.35519E+00 32288   0.910E+00    0.299E+01
DAV:   6    -0.319773902286E+03    0.36376E-01   -0.52356E+00 32184   0.682E+00    0.274E+01
DAV:   7    -0.319155578681E+03    0.61832E+00   -0.12056E+00 32272   0.654E+00    0.209E+01
DAV:   8    -0.319500679321E+03   -0.34510E+00   -0.19145E+00 33424   0.574E+00    0.232E+01
DAV:   9    -0.319039058614E+03    0.46162E+00   -0.15045E+00 34112   0.509E+00    0.146E+01
DAV:  10    -0.319222436941E+03   -0.18338E+00   -0.70775E-01 33680   0.417E+00    0.161E+01
DAV:  11    -0.319167867930E+03    0.54569E-01   -0.71026E-01 34424   0.374E+00    0.142E+01
DAV:  12    -0.319114318648E+03    0.53549E-01   -0.65639E-01 33800   0.350E+00    0.118E+01
DAV:  13    -0.319477560470E+03   -0.36324E+00   -0.85569E-01 33600   0.421E+00    0.214E+01
DAV:  14    -0.318954486565E+03    0.52307E+00   -0.66863E-01 34744   0.408E+00    0.110E+01
DAV:  15    -0.319073787302E+03   -0.11930E+00   -0.38746E-01 34712   0.256E+00    0.127E+01
DAV:  16    -0.318975377783E+03    0.98410E-01   -0.25578E-01 32776   0.214E+00    0.873E+00
DAV:  17    -0.319063565140E+03   -0.88187E-01   -0.21979E-01 33976   0.205E+00    0.122E+01
DAV:  18    -0.319085897602E+03   -0.22332E-01   -0.42517E-01 35448   0.264E+00    0.119E+01
DAV:  19    -0.318984788517E+03    0.10111E+00   -0.47469E-01 34648   0.263E+00    0.614E+00
DAV:  20    -0.319156512301E+03   -0.17172E+00   -0.33627E-01 33592   0.239E+00    0.119E+01
DAV:  21    -0.319007556645E+03    0.14896E+00   -0.29486E-01 34744   0.218E+00    0.566E+00
DAV:  22    -0.319022114416E+03   -0.14558E-01   -0.33443E-02 31552   0.782E-01    0.542E+00
DAV:  23    -0.319020830839E+03    0.12836E-02   -0.71198E-03 31040   0.276E-01    0.554E+00
DAV:  24    -0.319020603942E+03    0.22690E-03   -0.67230E-03 32696   0.230E-01    0.547E+00
DAV:  25    -0.319019803895E+03    0.80005E-03   -0.13133E-03 30224   0.981E-02    0.553E+00
DAV:  26    -0.319023044336E+03   -0.32404E-02   -0.24408E-02 35016   0.685E-01    0.672E+00
DAV:  27    -0.319021056120E+03    0.19882E-02   -0.77484E-03 33008   0.305E-01    0.686E+00
DAV:  28    -0.319022324012E+03   -0.12679E-02   -0.21750E-03 32944   0.192E-01    0.716E+00
DAV:  29    -0.319012933268E+03    0.93907E-02   -0.16786E-02 33352   0.709E-01    0.662E+00
DAV:  30    -0.318986954272E+03    0.25979E-01   -0.64699E-02 33136   0.145E+00    0.607E+00
DAV:  31    -0.318982882762E+03    0.40715E-02   -0.55101E-02 36568   0.114E+00    0.347E+00
DAV:  32    -0.318987307749E+03   -0.44250E-02   -0.35451E-02 33888   0.812E-01    0.282E+00
DAV:  33    -0.318985751009E+03    0.15567E-02   -0.19940E-02 34240   0.609E-01    0.266E+00
DAV:  34    -0.318985400007E+03    0.35100E-03   -0.19147E-02 35816   0.419E-01    0.235E+00
DAV:  35    -0.318986886075E+03   -0.14861E-02   -0.15418E-02 31432   0.395E-01    0.211E+00
DAV:  36    -0.318987519188E+03   -0.63311E-03   -0.10766E-02 32800   0.454E-01    0.167E+00
DAV:  37    -0.318988671248E+03   -0.11521E-02   -0.26749E-03 31232   0.146E-01    0.169E+00
DAV:  38    -0.318986993111E+03    0.16781E-02   -0.10284E-02 37536   0.333E-01    0.211E+00
DAV:  39    -0.318986833491E+03    0.15962E-03   -0.19954E-02 32104   0.397E-01    0.174E+00
DAV:  40    -0.318989058244E+03   -0.22248E-02   -0.90827E-03 30832   0.216E-01    0.202E+00
DAV:  41    -0.318988401083E+03    0.65716E-03   -0.72361E-03 30536   0.202E-01    0.296E+00
DAV:  42    -0.318986157616E+03    0.22435E-02   -0.37125E-03 30520   0.127E-01    0.349E+00
DAV:  43    -0.318983767581E+03    0.23900E-02   -0.21940E-03 29752   0.718E-02    0.377E+00
DAV:  44    -0.318982270383E+03    0.14972E-02   -0.14694E-03 27256   0.454E-02    0.403E+00
DAV:  45    -0.318981325984E+03    0.94440E-03   -0.11448E-03 25672   0.392E-02    0.431E+00
DAV:  46    -0.318980305580E+03    0.10204E-02   -0.10482E-03 29400   0.846E-02    0.458E+00
DAV:  47    -0.318979700350E+03    0.60523E-03   -0.24253E-03 35040   0.240E-01    0.488E+00
DAV:  48    -0.318980036009E+03   -0.33566E-03   -0.26203E-03 37096   0.249E-01    0.514E+00
DAV:  49    -0.318982113944E+03   -0.20779E-02   -0.23754E-03 36512   0.244E-01    0.561E+00
DAV:  50    -0.318981484936E+03    0.62901E-03   -0.12997E-03 30352   0.972E-02    0.578E+00
DAV:  51    -0.318980989050E+03    0.49589E-03   -0.30531E-04 28928   0.414E-02    0.590E+00
DAV:  52    -0.318978625236E+03    0.23638E-02   -0.22448E-03 34176   0.201E-01    0.568E+00
DAV:  53    -0.318979577792E+03   -0.95256E-03   -0.22355E-03 33680   0.218E-01    0.579E+00
DAV:  54    -0.318977506507E+03    0.20713E-02   -0.13883E-03 32624   0.184E-01    0.549E+00
DAV:  55    -0.318976687229E+03    0.81928E-03   -0.21451E-03 33448   0.199E-01    0.502E+00
DAV:  56    -0.318974899012E+03    0.17882E-02   -0.66337E-03 34024   0.332E-01    0.373E+00
DAV:  57    -0.318978510541E+03   -0.36115E-02   -0.81584E-03 34776   0.289E-01    0.279E+00
DAV:  58    -0.318981945980E+03   -0.34354E-02   -0.44544E-03 30216   0.205E-01    0.206E+00
DAV:  59    -0.318984742785E+03   -0.27968E-02   -0.29959E-03 31344   0.167E-01    0.153E+00
DAV:  60    -0.318986109077E+03   -0.13663E-02   -0.34380E-03 33112   0.172E-01    0.135E+00
DAV:  61    -0.318987006751E+03   -0.89767E-03   -0.22206E-03 31856   0.128E-01    0.184E+00
DAV:  62    -0.318986497114E+03    0.50964E-03   -0.12625E-03 31440   0.123E-01    0.232E+00
DAV:  63    -0.318986111645E+03    0.38547E-03   -0.71025E-04 30056   0.973E-02    0.271E+00
DAV:  64    -0.318985160366E+03    0.95128E-03   -0.28334E-04 30072   0.527E-02    0.291E+00
DAV:  65    -0.318984538029E+03    0.62234E-03   -0.11338E-04 26312   0.303E-02    0.301E+00
DAV:  66    -0.318983900940E+03    0.63709E-03   -0.73800E-05 21768   0.320E-02    0.313E+00
DAV:  67    -0.318984306438E+03   -0.40550E-03   -0.27627E-03 31688   0.297E-01    0.263E+00
DAV:  68    -0.318984939038E+03   -0.63260E-03   -0.88802E-04 32512   0.705E-02    0.244E+00
DAV:  69    -0.318985581312E+03   -0.64227E-03   -0.29712E-04 30240   0.708E-02    0.217E+00
DAV:  70    -0.318985280044E+03    0.30127E-03   -0.14022E-03 35264   0.122E-01    0.113E+00
DAV:  71    -0.318986771988E+03   -0.14919E-02   -0.13886E-03 32016   0.139E-01    0.569E-01
DAV:  72    -0.318987791706E+03   -0.10197E-02   -0.98148E-04 30848   0.874E-02    0.746E-01
DAV:  73    -0.318987760751E+03    0.30956E-04   -0.46875E-04 29272   0.746E-02    0.888E-01
DAV:  74    -0.318987541019E+03    0.21973E-03   -0.30782E-04 29368   0.537E-02    0.103E+00
DAV:  75    -0.318987299383E+03    0.24164E-03   -0.16425E-04 26784   0.439E-02    0.105E+00
DAV:  76    -0.318987154551E+03    0.14483E-03   -0.18045E-04 26072   0.517E-02    0.953E-01
DAV:  77    -0.318987230729E+03   -0.76177E-04   -0.92921E-05 27200   0.415E-02    0.970E-01
DAV:  78    -0.318987013512E+03    0.21722E-03   -0.59155E-05 20032   0.309E-02    0.100E+00
DAV:  79    -0.318987006629E+03    0.68836E-05   -0.22695E-05 17568   0.228E-02
   2 F= -.31898701E+03 E0= -.31894560E+03  d E =-.301479E+00  mag=    45.2657
       N       E                     dE             d eps       ncg     rms          rms(c)
DAV:   1    -0.318987067959E+03   -0.54447E-04   -0.94376E-03 32224   0.402E-01    0.107E+00
DAV:   2    -0.319033511921E+03   -0.46444E-01   -0.18953E-01 33216   0.818E-01    0.747E+00
DAV:   3    -0.318991569098E+03    0.41943E-01   -0.17119E-01 32112   0.992E-01    0.321E+00
DAV:   4    -0.319004756897E+03   -0.13188E-01   -0.13486E-02 30224   0.500E-01    0.383E+00
DAV:   5    -0.319001154479E+03    0.36024E-02   -0.25152E-03 31432   0.188E-01    0.369E+00
DAV:   6    -0.319001102953E+03    0.51526E-04   -0.30519E-04 28616   0.689E-02    0.369E+00
DAV:   7    -0.319002455365E+03   -0.13524E-02   -0.49661E-03 31280   0.241E-01    0.401E+00
DAV:   8    -0.319002918195E+03   -0.46283E-03   -0.13575E-02 34472   0.507E-01    0.395E+00
DAV:   9    -0.318997873090E+03    0.50451E-02   -0.14746E-02 34880   0.470E-01    0.359E+00
DAV:  10    -0.318996553125E+03    0.13200E-02   -0.19626E-03 33344   0.216E-01    0.341E+00
DAV:  11    -0.318997490152E+03   -0.93703E-03   -0.21914E-03 32056   0.153E-01    0.361E+00
DAV:  12    -0.318994286508E+03    0.32036E-02   -0.25947E-03 34128   0.225E-01    0.344E+00
DAV:  13    -0.318996450265E+03   -0.21638E-02   -0.17009E-03 31280   0.130E-01    0.366E+00
DAV:  14    -0.319000576772E+03   -0.41265E-02   -0.15132E-02 33504   0.511E-01    0.410E+00
DAV:  15    -0.318997885425E+03    0.26913E-02   -0.25649E-02 34736   0.715E-01    0.454E+00
DAV:  16    -0.318988269634E+03    0.96158E-02   -0.13319E-02 34560   0.561E-01    0.322E+00
DAV:  17    -0.318992323668E+03   -0.40540E-02   -0.14696E-02 32632   0.433E-01    0.339E+00
DAV:  18    -0.318989411101E+03    0.29126E-02   -0.11250E-02 32264   0.361E-01    0.272E+00
DAV:  19    -0.318993632215E+03   -0.42211E-02   -0.11202E-02 31984   0.368E-01    0.310E+00
DAV:  20    -0.318990118777E+03    0.35134E-02   -0.11211E-02 32888   0.400E-01    0.240E+00
DAV:  21    -0.318997072976E+03   -0.69542E-02   -0.21182E-02 33152   0.575E-01    0.361E+00
DAV:  22    -0.318986008603E+03    0.11064E-01   -0.16617E-02 35024   0.543E-01    0.137E+00
DAV:  23    -0.318989035609E+03   -0.30270E-02   -0.61457E-03 33808   0.293E-01    0.136E+00
DAV:  24    -0.318988328260E+03    0.70735E-03   -0.41512E-03 32376   0.232E-01    0.937E-01
DAV:  25    -0.318988868740E+03   -0.54048E-03   -0.27327E-03 30656   0.153E-01    0.113E+00
DAV:  26    -0.318988336379E+03    0.53236E-03   -0.15232E-03 30392   0.117E-01    0.113E+00
DAV:  27    -0.318988010256E+03    0.32612E-03   -0.55833E-04 27024   0.469E-02    0.124E+00
DAV:  28    -0.318987359541E+03    0.65072E-03   -0.34529E-04 26888   0.554E-02    0.135E+00
DAV:  29    -0.318987378832E+03   -0.19291E-04   -0.27921E-03 31936   0.192E-01    0.145E+00
DAV:  30    -0.318986626748E+03    0.75208E-03   -0.23468E-03 33600   0.180E-01    0.121E+00
DAV:  31    -0.318986703754E+03   -0.77006E-04   -0.10736E-03 30816   0.135E-01    0.939E-01
DAV:  32    -0.318986954075E+03   -0.25032E-03   -0.77150E-04 33424   0.980E-02    0.669E-01
DAV:  33    -0.318987449773E+03   -0.49570E-03   -0.66100E-04 33656   0.877E-02    0.475E-01
DAV:  34    -0.318987727375E+03   -0.27760E-03   -0.48258E-04 29488   0.582E-02    0.300E-01
DAV:  35    -0.318987933434E+03   -0.20606E-03   -0.29406E-04 27320   0.421E-02    0.198E-01
DAV:  36    -0.318988040970E+03   -0.10754E-03   -0.18462E-04 23824   0.323E-02    0.138E-01
DAV:  37    -0.318988098108E+03   -0.57138E-04   -0.84825E-05 21544   0.261E-02    0.113E-01
DAV:  38    -0.318988113664E+03   -0.15556E-04   -0.46887E-05 21848   0.315E-02    0.117E-01
DAV:  39    -0.318988131996E+03   -0.18332E-04   -0.48564E-05 20216   0.206E-02    0.116E-01
DAV:  40    -0.318988155287E+03   -0.23291E-04   -0.46913E-05 18848   0.237E-02    0.926E-02
DAV:  41    -0.318988164166E+03   -0.88786E-05   -0.32986E-05 17952   0.167E-02
   3 F= -.31898816E+03 E0= -.31894572E+03  d E =-.302636E+00  mag=    45.2572
       N       E                     dE             d eps       ncg     rms          rms(c)
DAV:   1    -0.318356807782E+03    0.63135E+00   -0.86291E+01 31432   0.335E+01    0.456E+00
DAV:   2    -0.319284717859E+03   -0.92791E+00   -0.89539E+00 32640   0.693E+00    0.117E+01
DAV:   3    -0.319320571345E+03   -0.35853E-01   -0.15537E+00 33000   0.484E+00    0.143E+01
DAV:   4    -0.319418303622E+03   -0.97732E-01   -0.94729E-01 32944   0.400E+00    0.182E+01
DAV:   5    -0.319139135664E+03    0.27917E+00   -0.64099E-01 33984   0.322E+00    0.941E+00
DAV:   6    -0.319104510285E+03    0.34625E-01   -0.30620E-01 34168   0.214E+00    0.527E+00
DAV:   7    -0.319183904140E+03   -0.79394E-01   -0.27189E-01 33064   0.184E+00    0.986E+00
DAV:   8    -0.319091938507E+03    0.91966E-01   -0.22861E-01 34424   0.174E+00    0.471E+00
DAV:   9    -0.319110988520E+03   -0.19050E-01   -0.10314E-01 33392   0.118E+00    0.515E+00
DAV:  10    -0.319101242035E+03    0.97465E-02   -0.71091E-02 33936   0.927E-01    0.424E+00
DAV:  11    -0.319092442897E+03    0.87991E-02   -0.34185E-02 32392   0.675E-01    0.371E+00
DAV:  12    -0.319092232744E+03    0.21015E-03   -0.37325E-03 30472   0.159E-01    0.389E+00
DAV:  13    -0.319087900643E+03    0.43321E-02   -0.23938E-02 34032   0.570E-01    0.511E+00
DAV:  14    -0.319083986917E+03    0.39137E-02   -0.73761E-02 33976   0.104E+00    0.546E+00
DAV:  15    -0.319142158792E+03   -0.58172E-01   -0.29547E-01 34120   0.182E+00    0.105E+01
DAV:  16    -0.319079239180E+03    0.62920E-01   -0.27111E-01 32672   0.182E+00    0.664E+00
DAV:  17    -0.319096883420E+03   -0.17644E-01   -0.10238E-01 30976   0.122E+00    0.437E+00
DAV:  18    -0.319111103274E+03   -0.14220E-01   -0.77955E-02 32336   0.105E+00    0.544E+00
DAV:  19    -0.319100607720E+03    0.10496E-01   -0.51533E-02 33096   0.860E-01    0.384E+00
DAV:  20    -0.319099302004E+03    0.13057E-02   -0.83727E-03 30512   0.323E-01    0.386E+00
DAV:  21    -0.319096549232E+03    0.27528E-02   -0.15603E-03 30808   0.102E-01    0.399E+00
DAV:  22    -0.319095877354E+03    0.67188E-03   -0.26590E-03 32360   0.205E-01    0.417E+00
DAV:  23    -0.319092795225E+03    0.30821E-02   -0.30239E-03 34528   0.219E-01    0.394E+00
DAV:  24    -0.319093537843E+03   -0.74262E-03   -0.46263E-04 30872   0.879E-02    0.400E+00
DAV:  25    -0.319093729630E+03   -0.19179E-03   -0.17388E-04 26888   0.409E-02    0.402E+00
DAV:  26    -0.319092637293E+03    0.10923E-02   -0.99626E-03 36352   0.486E-01    0.395E+00
DAV:  27    -0.319098785361E+03   -0.61481E-02   -0.21086E-02 35736   0.622E-01    0.472E+00
DAV:  28    -0.319088504232E+03    0.10281E-01   -0.28321E-02 32800   0.800E-01    0.334E+00
DAV:  29    -0.319099124436E+03   -0.10620E-01   -0.30716E-02 32928   0.578E-01    0.416E+00
DAV:  30    -0.319093013750E+03    0.61107E-02   -0.17839E-02 32936   0.502E-01    0.332E+00
DAV:  31    -0.319093938314E+03   -0.92456E-03   -0.41910E-03 32184   0.214E-01    0.324E+00
DAV:  32    -0.319093523922E+03    0.41439E-03   -0.13264E-03 31368   0.914E-02    0.321E+00
DAV:  33    -0.319089282522E+03    0.42414E-02   -0.19571E-03 34872   0.219E-01    0.299E+00
DAV:  34    -0.319089634885E+03   -0.35236E-03   -0.12213E-02 34776   0.473E-01    0.350E+00
DAV:  35    -0.319090317046E+03   -0.68216E-03   -0.96211E-03 34496   0.417E-01    0.417E+00
DAV:  36    -0.319091531444E+03   -0.12144E-02   -0.31082E-03 30384   0.214E-01    0.410E+00
DAV:  37    -0.319089978538E+03    0.15529E-02   -0.20791E-03 32088   0.187E-01    0.361E+00
DAV:  38    -0.319088732753E+03    0.12458E-02   -0.52048E-03 36792   0.373E-01    0.272E+00
DAV:  39    -0.319088603493E+03    0.12926E-03   -0.57963E-03 38432   0.332E-01    0.179E+00
DAV:  40    -0.319089890717E+03   -0.12872E-02   -0.46392E-03 37976   0.283E-01    0.119E+00
DAV:  41    -0.319091066074E+03   -0.11754E-02   -0.26957E-03 33208   0.217E-01    0.909E-01
DAV:  42    -0.319091331175E+03   -0.26510E-03   -0.81418E-04 31840   0.113E-01    0.819E-01
DAV:  43    -0.319091365734E+03   -0.34559E-04   -0.14950E-04 31552   0.653E-02    0.795E-01
DAV:  44    -0.319091270642E+03    0.95092E-04   -0.25065E-04 35896   0.111E-01    0.720E-01
DAV:  45    -0.319091521447E+03   -0.25081E-03   -0.59587E-04 39744   0.954E-02    0.770E-01
DAV:  46    -0.319091484336E+03    0.37111E-04   -0.23748E-04 30136   0.691E-02    0.714E-01
DAV:  47    -0.319091418637E+03    0.65700E-04   -0.80064E-05 28720   0.578E-02    0.652E-01
DAV:  48    -0.319091379703E+03    0.38934E-04   -0.82624E-05 30840   0.448E-02    0.583E-01
DAV:  49    -0.319091399900E+03   -0.20198E-04   -0.52267E-05 23880   0.296E-02    0.541E-01
DAV:  50    -0.319091408904E+03   -0.90042E-05   -0.21113E-05 19272   0.220E-02
   4 F= -.31909141E+03 E0= -.31905162E+03  d E =-.103245E+00  mag=    45.1928
       N       E                     dE             d eps       ncg     rms          rms(c)
DAV:   1    -0.319086335690E+03    0.50642E-02   -0.68300E-01 31352   0.298E+00    0.620E-01
DAV:   2    -0.319133665413E+03   -0.47330E-01   -0.13502E-01 33344   0.113E+00    0.675E+00
DAV:   3    -0.319088183608E+03    0.45482E-01   -0.68602E-02 31912   0.103E+00    0.190E+00
DAV:   4    -0.319095648280E+03   -0.74647E-02   -0.84683E-03 31352   0.320E-01    0.197E+00
DAV:   5    -0.319091695485E+03    0.39528E-02   -0.91479E-03 31064   0.309E-01    0.218E+00
DAV:   6    -0.319090352165E+03    0.13433E-02   -0.10268E-02 33768   0.355E-01    0.156E+00
DAV:   7    -0.319093106237E+03   -0.27541E-02   -0.86991E-03 32848   0.337E-01    0.188E+00
DAV:   8    -0.319093130164E+03   -0.23927E-04   -0.43865E-03 32088   0.283E-01    0.196E+00
DAV:   9    -0.319092597739E+03    0.53242E-03   -0.18467E-03 31168   0.148E-01    0.174E+00
DAV:  10    -0.319093601583E+03   -0.10038E-02   -0.79432E-04 31472   0.103E-01    0.218E+00
DAV:  11    -0.319093080481E+03    0.52110E-03   -0.39770E-04 29784   0.841E-02    0.225E+00
DAV:  12    -0.319093016964E+03    0.63517E-04   -0.23273E-04 27352   0.561E-02    0.232E+00
DAV:  13    -0.319092669227E+03    0.34774E-03   -0.30213E-04 27328   0.658E-02    0.223E+00
DAV:  14    -0.319092725359E+03   -0.56132E-04   -0.84450E-04 30920   0.136E-01    0.227E+00
DAV:  15    -0.319092643306E+03    0.82053E-04   -0.14480E-03 31184   0.161E-01    0.220E+00
DAV:  16    -0.319091747779E+03    0.89553E-03   -0.20050E-03 33432   0.211E-01    0.194E+00
DAV:  17    -0.319092584034E+03   -0.83625E-03   -0.33132E-03 34168   0.207E-01    0.195E+00
DAV:  18    -0.319091575343E+03    0.10087E-02   -0.63105E-03 33744   0.274E-01    0.158E+00
DAV:  19    -0.319092735428E+03   -0.11601E-02   -0.44855E-03 31992   0.224E-01    0.171E+00
DAV:  20    -0.319092145120E+03    0.59031E-03   -0.22616E-03 31168   0.173E-01    0.143E+00
DAV:  21    -0.319092200576E+03   -0.55456E-04   -0.88111E-04 30544   0.104E-01    0.146E+00
DAV:  22    -0.319091829012E+03    0.37156E-03   -0.32532E-04 30024   0.877E-02    0.136E+00
DAV:  23    -0.319091801340E+03    0.27673E-04   -0.26329E-04 30928   0.678E-02    0.136E+00
DAV:  24    -0.319091688342E+03    0.11300E-03   -0.53633E-04 32440   0.102E-01    0.125E+00
DAV:  25    -0.319091923109E+03   -0.23477E-03   -0.10669E-03 34488   0.118E-01    0.130E+00
DAV:  26    -0.319091709077E+03    0.21403E-03   -0.93669E-04 31760   0.109E-01    0.126E+00
DAV:  27    -0.319091999422E+03   -0.29035E-03   -0.60464E-04 29768   0.891E-02    0.146E+00
DAV:  28    -0.319091854811E+03    0.14461E-03   -0.50719E-04 30176   0.876E-02    0.154E+00
DAV:  29    -0.319092157205E+03   -0.30239E-03   -0.33941E-04 27936   0.561E-02    0.182E+00
DAV:  30    -0.319092260089E+03   -0.10288E-03   -0.28419E-04 29344   0.432E-02    0.210E+00
DAV:  31    -0.319091817501E+03    0.44259E-03   -0.95826E-05 23392   0.337E-02    0.216E+00
DAV:  32    -0.319091520701E+03    0.29680E-03   -0.26244E-05 18528   0.164E-02    0.217E+00
DAV:  33    -0.319091402598E+03    0.11810E-03   -0.11154E-05 16256   0.691E-03    0.220E+00
DAV:  34    -0.319090801844E+03    0.60075E-03   -0.71525E-05 20528   0.316E-02    0.202E+00
DAV:  35    -0.319090564936E+03    0.23691E-03   -0.45564E-04 31976   0.787E-02    0.163E+00
DAV:  36    -0.319090672461E+03   -0.10752E-03   -0.16569E-03 33024   0.143E-01    0.945E-01
DAV:  37    -0.319091408789E+03   -0.73633E-03   -0.89934E-04 31312   0.708E-02    0.638E-01
DAV:  38    -0.319091847332E+03   -0.43854E-03   -0.32924E-04 28328   0.519E-02    0.480E-01
DAV:  39    -0.319092000117E+03   -0.15279E-03   -0.15966E-04 26736   0.407E-02    0.342E-01
DAV:  40    -0.319092086053E+03   -0.85935E-04   -0.75361E-05 24736   0.295E-02    0.303E-01
DAV:  41    -0.319092132747E+03   -0.46695E-04   -0.69638E-05 21576   0.351E-02    0.250E-01
DAV:  42    -0.319092139569E+03   -0.68212E-05   -0.80471E-05 21776   0.282E-02
   5 F= -.31909214E+03 E0= -.31905278E+03  d E =-.103975E+00  mag=    45.2085
       N       E                     dE             d eps       ncg     rms          rms(c)
DAV:   1    -0.318943784874E+03    0.14835E+00   -0.10829E+01 36840   0.193E+01    0.351E+00
DAV:   2    -0.319539940601E+03   -0.59616E+00   -0.37405E+00 32320   0.514E+00    0.184E+01
DAV:   3    -0.319086215458E+03    0.45373E+00   -0.10934E+00 32496   0.415E+00    0.532E+00
DAV:   4    -0.319392860870E+03   -0.30665E+00   -0.10257E+00 33032   0.253E+00    0.196E+01
DAV:   5    -0.319078348422E+03    0.31451E+00   -0.37890E-01 31888   0.241E+00    0.568E+00
DAV:   6    -0.319123416970E+03   -0.45069E-01   -0.10029E-01 31000   0.133E+00    0.476E+00
DAV:   7    -0.319127426483E+03   -0.40095E-02   -0.16907E-02 30648   0.528E-01    0.482E+00
DAV:   8    -0.319131898748E+03   -0.44723E-02   -0.15209E-02 31976   0.454E-01    0.626E+00
DAV:   9    -0.319121856706E+03    0.10042E-01   -0.28379E-02 34896   0.721E-01    0.573E+00
DAV:  10    -0.319133571129E+03   -0.11714E-01   -0.76375E-02 34064   0.102E+00    0.777E+00
DAV:  11    -0.319118168380E+03    0.15403E-01   -0.10318E-01 34768   0.109E+00    0.669E+00
DAV:  12    -0.319164901138E+03   -0.46733E-01   -0.13238E-01 33872   0.123E+00    0.904E+00
DAV:  13    -0.319130128137E+03    0.34773E-01   -0.53788E-02 32472   0.970E-01    0.597E+00
DAV:  14    -0.319146860769E+03   -0.16733E-01   -0.23148E-02 31152   0.616E-01    0.724E+00
DAV:  15    -0.319125496900E+03    0.21364E-01   -0.37379E-02 34656   0.802E-01    0.630E+00
DAV:  16    -0.319154026561E+03   -0.28530E-01   -0.47052E-02 34096   0.104E+00    0.815E+00
DAV:  17    -0.319144772985E+03    0.92536E-02   -0.75503E-02 34912   0.113E+00    0.739E+00
DAV:  18    -0.319129791295E+03    0.14982E-01   -0.26036E-02 34984   0.840E-01    0.635E+00
DAV:  19    -0.319133570562E+03   -0.37793E-02   -0.51724E-03 30768   0.225E-01    0.637E+00
DAV:  20    -0.319136362114E+03   -0.27916E-02   -0.29541E-02 32584   0.879E-01    0.692E+00
DAV:  21    -0.319151572237E+03   -0.15210E-01   -0.68296E-02 35144   0.102E+00    0.785E+00
DAV:  22    -0.319134989702E+03    0.16583E-01   -0.68342E-02 34280   0.965E-01    0.665E+00
DAV:  23    -0.319143608037E+03   -0.86183E-02   -0.24192E-02 31440   0.494E-01    0.697E+00
DAV:  24    -0.319142269105E+03    0.13389E-02   -0.69711E-03 30880   0.226E-01    0.703E+00
DAV:  25    -0.319137459800E+03    0.48093E-02   -0.13502E-02 36256   0.488E-01    0.734E+00
DAV:  26    -0.319135929131E+03    0.15307E-02   -0.73212E-03 33664   0.309E-01    0.746E+00
DAV:  27    -0.319134267792E+03    0.16613E-02   -0.16875E-03 30544   0.130E-01    0.756E+00
DAV:  28    -0.319159751677E+03   -0.25484E-01   -0.43607E-02 33536   0.797E-01    0.930E+00
DAV:  29    -0.319137657737E+03    0.22094E-01   -0.52887E-02 34888   0.972E-01    0.883E+00
DAV:  30    -0.319131867072E+03    0.57907E-02   -0.52888E-02 35656   0.109E+00    0.981E+00
DAV:  31    -0.319135622315E+03   -0.37552E-02   -0.39061E-02 34960   0.704E-01    0.105E+01
DAV:  32    -0.319140501537E+03   -0.48792E-02   -0.10817E-02 30352   0.464E-01    0.107E+01
DAV:  33    -0.319131558657E+03    0.89429E-02   -0.22522E-02 34480   0.741E-01    0.999E+00
DAV:  34    -0.319087386653E+03    0.44172E-01   -0.49412E-02 34704   0.104E+00    0.491E+00
DAV:  35    -0.319118811017E+03   -0.31424E-01   -0.10057E-01 35720   0.115E+00    0.309E+00
DAV:  36    -0.319130947326E+03   -0.12136E-01   -0.28174E-02 31616   0.777E-01    0.253E+00
DAV:  37    -0.319128508346E+03    0.24390E-02   -0.16410E-02 34272   0.682E-01    0.181E+00
DAV:  38    -0.319129163748E+03   -0.65540E-03   -0.74730E-03 34736   0.342E-01    0.172E+00
DAV:  39    -0.319127770332E+03    0.13934E-02   -0.43540E-03 33008   0.335E-01    0.152E+00
DAV:  40    -0.319128553054E+03   -0.78272E-03   -0.88694E-03 34760   0.417E-01    0.193E+00
DAV:  41    -0.319127481982E+03    0.10711E-02   -0.62456E-03 31400   0.319E-01    0.177E+00
DAV:  42    -0.319125380535E+03    0.21014E-02   -0.53643E-03 34016   0.319E-01    0.112E+00
DAV:  43    -0.319125597750E+03   -0.21722E-03   -0.32661E-03 34232   0.210E-01    0.800E-01
DAV:  44    -0.319125559562E+03    0.38188E-04   -0.12243E-03 33520   0.142E-01    0.523E-01
DAV:  45    -0.319125600391E+03   -0.40829E-04   -0.63628E-04 35120   0.116E-01    0.356E-01
DAV:  46    -0.319125696264E+03   -0.95874E-04   -0.93553E-04 33272   0.115E-01    0.340E-01
DAV:  47    -0.319125795681E+03   -0.99417E-04   -0.64512E-04 32176   0.111E-01    0.362E-01
DAV:  48    -0.319125831587E+03   -0.35906E-04   -0.21835E-04 30536   0.584E-02    0.367E-01
DAV:  49    -0.319125782690E+03    0.48896E-04   -0.66332E-05 26336   0.451E-02    0.344E-01
DAV:  50    -0.319125724631E+03    0.58060E-04   -0.12635E-04 28016   0.570E-02    0.248E-01
DAV:  51    -0.319125722697E+03    0.19333E-05   -0.18951E-04 30256   0.518E-02    0.226E-01
DAV:  52    -0.319125742964E+03   -0.20266E-04   -0.74687E-05 25520   0.363E-02    0.196E-01
DAV:  53    -0.319125736940E+03    0.60234E-05   -0.26353E-05 19208   0.282E-02
   6 F= -.31912574E+03 E0= -.31908808E+03  d E =-.335974E-01  mag=    45.2298
       N       E                     dE             d eps       ncg     rms          rms(c)
DAV:   1    -0.319091686313E+03    0.34057E-01   -0.22445E+00 36872   0.881E+00    0.161E+00
DAV:   2    -0.319228647818E+03   -0.13696E+00   -0.81372E-01 32648   0.240E+00    0.118E+01
DAV:   3    -0.319094308345E+03    0.13434E+00   -0.30737E-01 31880   0.192E+00    0.204E+00
DAV:   4    -0.319158264709E+03   -0.63956E-01   -0.10435E-01 31784   0.121E+00    0.573E+00
DAV:   5    -0.319124236518E+03    0.34028E-01   -0.78523E-02 31896   0.980E-01    0.185E+00
DAV:   6    -0.319134618222E+03   -0.10382E-01   -0.32395E-02 31952   0.666E-01    0.297E+00
DAV:   7    -0.319131235440E+03    0.33828E-02   -0.20603E-02 32960   0.564E-01    0.212E+00
DAV:   8    -0.319129693613E+03    0.15418E-02   -0.49648E-03 31168   0.300E-01    0.188E+00
DAV:   9    -0.319129910913E+03   -0.21730E-03   -0.12774E-03 30672   0.120E-01    0.223E+00
DAV:  10    -0.319127365013E+03    0.25459E-02   -0.18417E-03 32616   0.204E-01    0.219E+00
DAV:  11    -0.319126851035E+03    0.51398E-03   -0.20126E-03 33992   0.188E-01    0.209E+00
DAV:  12    -0.319127968511E+03   -0.11175E-02   -0.11267E-03 32576   0.150E-01    0.223E+00
DAV:  13    -0.319128033598E+03   -0.65087E-04   -0.18141E-04 28904   0.581E-02    0.221E+00
DAV:  14    -0.319132400290E+03   -0.43667E-02   -0.72611E-03 33248   0.355E-01    0.295E+00
DAV:  15    -0.319131929842E+03    0.47045E-03   -0.25276E-02 35000   0.515E-01    0.316E+00
DAV:  16    -0.319128113196E+03    0.38166E-02   -0.18608E-02 33712   0.549E-01    0.265E+00
DAV:  17    -0.319133689234E+03   -0.55760E-02   -0.16575E-02 33680   0.506E-01    0.340E+00
DAV:  18    -0.319126631979E+03    0.70573E-02   -0.10597E-02 33352   0.488E-01    0.229E+00
DAV:  19    -0.319128066589E+03   -0.14346E-02   -0.13360E-03 30280   0.136E-01    0.233E+00
DAV:  20    -0.319127815753E+03    0.25084E-03   -0.30912E-04 27192   0.480E-02    0.231E+00
DAV:  21    -0.319127713269E+03    0.10248E-03   -0.62774E-04 29680   0.998E-02    0.235E+00
DAV:  22    -0.319125177632E+03    0.25356E-02   -0.31953E-03 33904   0.251E-01    0.210E+00
DAV:  23    -0.319144232867E+03   -0.19055E-01   -0.40647E-02 33272   0.856E-01    0.479E+00
DAV:  24    -0.319126483753E+03    0.17749E-01   -0.44157E-02 35256   0.926E-01    0.323E+00
DAV:  25    -0.319137178935E+03   -0.10695E-01   -0.47701E-02 32832   0.726E-01    0.383E+00
DAV:  26    -0.319132896339E+03    0.42826E-02   -0.25219E-02 31232   0.529E-01    0.365E+00
DAV:  27    -0.319128768335E+03    0.41280E-02   -0.17475E-02 32800   0.575E-01    0.253E+00
DAV:  28    -0.319131280752E+03   -0.25124E-02   -0.11554E-02 35104   0.385E-01    0.265E+00
DAV:  29    -0.319128565636E+03    0.27151E-02   -0.71311E-03 32592   0.395E-01    0.166E+00
DAV:  30    -0.319129443229E+03   -0.87759E-03   -0.32619E-03 34456   0.245E-01    0.136E+00
DAV:  31    -0.319129485830E+03   -0.42601E-04   -0.23355E-03 33456   0.266E-01    0.106E+00
DAV:  32    -0.319129105532E+03    0.38030E-03   -0.42069E-03 33872   0.320E-01    0.731E-01
DAV:  33    -0.319129244070E+03   -0.13854E-03   -0.28399E-03 33432   0.181E-01    0.741E-01
DAV:  34    -0.319129241936E+03    0.21343E-05   -0.20508E-03 32272   0.209E-01    0.584E-01
DAV:  35    -0.319129361201E+03   -0.11927E-03   -0.11804E-03 33392   0.146E-01    0.488E-01
DAV:  36    -0.319129346316E+03    0.14884E-04   -0.27767E-04 31464   0.741E-02    0.466E-01
DAV:  37    -0.319129261215E+03    0.85101E-04   -0.86716E-05 30584   0.354E-02    0.425E-01
DAV:  38    -0.319129198612E+03    0.62603E-04   -0.42636E-05 22832   0.401E-02    0.385E-01
DAV:  39    -0.319129147443E+03    0.51169E-04   -0.55632E-04 35392   0.119E-01    0.297E-01
DAV:  40    -0.319129265887E+03   -0.11844E-03   -0.40167E-04 33224   0.676E-02    0.300E-01
DAV:  41    -0.319129225461E+03    0.40426E-04   -0.83580E-05 28216   0.545E-02    0.228E-01
DAV:  42    -0.319129209094E+03    0.16367E-04   -0.22361E-05 20592   0.244E-02    0.192E-01
DAV:  43    -0.319129194590E+03    0.14504E-04   -0.16805E-05 19184   0.259E-02    0.165E-01
DAV:  44    -0.319129191453E+03    0.31367E-05   -0.51458E-05 22104   0.324E-02
   7 F= -.31912919E+03 E0= -.31909203E+03  d E =-.370519E-01  mag=    45.2369
       N       E                     dE             d eps       ncg     rms          rms(c)
DAV:   1    -0.319021201855E+03    0.10799E+00   -0.69527E+00 35648   0.137E+01    0.147E+00
DAV:   2    -0.319211031382E+03   -0.18983E+00   -0.14435E+00 32240   0.276E+00    0.983E+00
DAV:   3    -0.319121679401E+03    0.89352E-01   -0.27640E-01 32256   0.191E+00    0.206E+00
DAV:   4    -0.319184057933E+03   -0.62379E-01   -0.10010E-01 32848   0.135E+00    0.666E+00
DAV:   5    -0.319136396195E+03    0.47662E-01   -0.69206E-02 32960   0.109E+00    0.172E+00
DAV:   6    -0.319144291029E+03   -0.78948E-02   -0.26845E-02 32800   0.743E-01    0.236E+00
DAV:   7    -0.319145860348E+03   -0.15693E-02   -0.27242E-02 32864   0.622E-01    0.231E+00
DAV:   8    -0.319142422183E+03    0.34382E-02   -0.12125E-02 32136   0.469E-01    0.158E+00
DAV:   9    -0.319141494862E+03    0.92732E-03   -0.30679E-03 31288   0.212E-01    0.133E+00
DAV:  10    -0.319141190029E+03    0.30483E-03   -0.11695E-03 31896   0.153E-01    0.175E+00
DAV:  11    -0.319140004116E+03    0.11859E-02   -0.19816E-03 31896   0.198E-01    0.156E+00
DAV:  12    -0.319140375608E+03   -0.37149E-03   -0.23272E-03 32680   0.225E-01    0.161E+00
DAV:  13    -0.319141247662E+03   -0.87205E-03   -0.39049E-03 33072   0.237E-01    0.186E+00
DAV:  14    -0.319140304340E+03    0.94332E-03   -0.13556E-03 33520   0.164E-01    0.152E+00
DAV:  15    -0.319142388739E+03   -0.20844E-02   -0.37119E-03 32048   0.209E-01    0.206E+00
DAV:  16    -0.319139190262E+03    0.31985E-02   -0.97019E-03 33792   0.363E-01    0.148E+00
DAV:  17    -0.319150972773E+03   -0.11783E-01   -0.28870E-02 34288   0.580E-01    0.353E+00
DAV:  18    -0.319139372076E+03    0.11601E-01   -0.30727E-02 33664   0.665E-01    0.136E+00
DAV:  19    -0.319145303076E+03   -0.59310E-02   -0.18281E-02 32096   0.460E-01    0.211E+00
DAV:  20    -0.319142746116E+03    0.25570E-02   -0.11812E-02 31816   0.389E-01    0.154E+00
DAV:  21    -0.319143189108E+03   -0.44299E-03   -0.45376E-03 31728   0.215E-01    0.182E+00
DAV:  22    -0.319141811783E+03    0.13773E-02   -0.22117E-03 31208   0.173E-01    0.168E+00
DAV:  23    -0.319141837698E+03   -0.25915E-04   -0.17475E-03 32072   0.179E-01    0.157E+00
DAV:  24    -0.319141447565E+03    0.39013E-03   -0.13127E-03 33840   0.151E-01    0.141E+00
DAV:  25    -0.319141898851E+03   -0.45129E-03   -0.25064E-03 31912   0.201E-01    0.124E+00
DAV:  26    -0.319141791931E+03    0.10692E-03   -0.11092E-03 31072   0.125E-01    0.111E+00
DAV:  27    -0.319141555308E+03    0.23662E-03   -0.50772E-04 30144   0.111E-01    0.958E-01
DAV:  28    -0.319142750267E+03   -0.11950E-02   -0.35220E-03 33840   0.236E-01    0.133E+00
DAV:  29    -0.319141290009E+03    0.14603E-02   -0.42166E-03 34840   0.258E-01    0.752E-01
DAV:  30    -0.319141762504E+03   -0.47249E-03   -0.18498E-03 33088   0.171E-01    0.713E-01
DAV:  31    -0.319141644338E+03    0.11817E-03   -0.16475E-03 34648   0.178E-01    0.601E-01
DAV:  32    -0.319141638400E+03    0.59379E-05   -0.20412E-03 33576   0.177E-01    0.583E-01
DAV:  33    -0.319141587336E+03    0.51064E-04   -0.92903E-04 32296   0.119E-01    0.440E-01
DAV:  34    -0.319141560713E+03    0.26623E-04   -0.41088E-04 34864   0.105E-01    0.286E-01
DAV:  35    -0.319141524543E+03    0.36170E-04   -0.28292E-04 35440   0.885E-02    0.183E-01
DAV:  36    -0.319141535934E+03   -0.11390E-04   -0.29839E-04 31880   0.683E-02    0.176E-01
DAV:  37    -0.319141562553E+03   -0.26620E-04   -0.13454E-04 28504   0.549E-02    0.154E-01
DAV:  38    -0.319141553669E+03    0.88847E-05   -0.25611E-05 21464   0.290E-02
   8 F= -.31914155E+03 E0= -.31910500E+03  d E =-.123622E-01  mag=    45.2422
       N       E                     dE             d eps       ncg     rms          rms(c)
DAV:   1    -0.319102922206E+03    0.38640E-01   -0.23538E+00 35624   0.795E+00    0.854E-01
DAV:   2    -0.319164266315E+03   -0.61344E-01   -0.48291E-01 32280   0.159E+00    0.511E+00
DAV:   3    -0.319140393087E+03    0.23873E-01   -0.85039E-02 33080   0.112E+00    0.154E+00
DAV:   4    -0.319162795863E+03   -0.22403E-01   -0.52603E-02 32912   0.828E-01    0.460E+00
DAV:   5    -0.319140916946E+03    0.21879E-01   -0.34539E-02 32120   0.740E-01    0.106E+00
DAV:   6    -0.319145093554E+03   -0.41766E-02   -0.14047E-02 32392   0.475E-01    0.161E+00
DAV:   7    -0.319145479361E+03   -0.38581E-03   -0.97762E-03 33168   0.412E-01    0.136E+00
DAV:   8    -0.319145122908E+03    0.35645E-03   -0.59690E-03 33784   0.342E-01    0.144E+00
DAV:   9    -0.319143633129E+03    0.14898E-02   -0.27822E-03 32976   0.218E-01    0.754E-01
DAV:  10    -0.319143690974E+03   -0.57844E-04   -0.37106E-04 28448   0.719E-02    0.861E-01
DAV:  11    -0.319144654430E+03   -0.96346E-03   -0.99095E-04 29912   0.118E-01    0.135E+00
DAV:  12    -0.319144992736E+03   -0.33831E-03   -0.39196E-03 34088   0.255E-01    0.145E+00
DAV:  13    -0.319144607605E+03    0.38513E-03   -0.88456E-03 34432   0.332E-01    0.174E+00
DAV:  14    -0.319143456757E+03    0.11508E-02   -0.55488E-03 33560   0.299E-01    0.120E+00
DAV:  15    -0.319145426742E+03   -0.19700E-02   -0.75751E-03 32120   0.280E-01    0.158E+00
DAV:  16    -0.319143383582E+03    0.20432E-02   -0.37687E-03 32472   0.261E-01    0.521E-01
DAV:  17    -0.319143823144E+03   -0.43956E-03   -0.11780E-03 31840   0.142E-01    0.558E-01
DAV:  18    -0.319143781277E+03    0.41867E-04   -0.46033E-04 29336   0.904E-02    0.455E-01
DAV:  19    -0.319143706774E+03    0.74503E-04   -0.14833E-04 27384   0.438E-02    0.448E-01
DAV:  20    -0.319143625648E+03    0.81126E-04   -0.39152E-05 19304   0.231E-02    0.480E-01
DAV:  21    -0.319143596250E+03    0.29398E-04   -0.96566E-06 15648   0.955E-03    0.490E-01
DAV:  22    -0.319143581325E+03    0.14925E-04   -0.93872E-05 21760   0.447E-02    0.459E-01
DAV:  23    -0.319143610062E+03   -0.28737E-04   -0.13696E-04 26896   0.476E-02    0.454E-01
DAV:  24    -0.319143609513E+03    0.54897E-06   -0.23984E-04 28952   0.582E-02    0.388E-01
DAV:  25    -0.319143685999E+03   -0.76486E-04   -0.17321E-04 27952   0.515E-02    0.458E-01
DAV:  26    -0.319143599872E+03    0.86126E-04   -0.14993E-04 26112   0.550E-02    0.382E-01
DAV:  27    -0.319143536434E+03    0.63438E-04   -0.40152E-04 30704   0.858E-02    0.400E-01
DAV:  28    -0.319143620168E+03   -0.83733E-04   -0.82820E-04 31608   0.103E-01    0.473E-01
DAV:  29    -0.319143532022E+03    0.88146E-04   -0.85650E-04 31160   0.114E-01    0.279E-01
DAV:  30    -0.319143570204E+03   -0.38182E-04   -0.27497E-04 31096   0.680E-02    0.272E-01
DAV:  31    -0.319143514085E+03    0.56119E-04   -0.83214E-05 27416   0.461E-02    0.227E-01
DAV:  32    -0.319143484064E+03    0.30022E-04   -0.10043E-04 24712   0.467E-02    0.153E-01
DAV:  33    -0.319143479957E+03    0.41062E-05   -0.13256E-04 27392   0.395E-02    0.914E-02
DAV:  34    -0.319143493413E+03   -0.13455E-04   -0.73468E-05 23624   0.313E-02    0.724E-02
DAV:  35    -0.319143504551E+03   -0.11139E-04   -0.31854E-05 19144   0.227E-02    0.817E-02
DAV:  36    -0.319143503838E+03    0.71281E-06   -0.78391E-06 15496   0.156E-02
   9 F= -.31914350E+03 E0= -.31910727E+03  d E =-.143124E-01  mag=    45.2435
       N       E                     dE             d eps       ncg     rms          rms(c)
DAV:   1    -0.319070031632E+03    0.73473E-01   -0.71949E+00 33328   0.113E+01    0.118E+00
DAV:   2    -0.319215777027E+03   -0.14575E+00   -0.99781E-01 32376   0.242E+00    0.925E+00
DAV:   3    -0.319139980719E+03    0.75796E-01   -0.23522E-01 32384   0.170E+00    0.179E+00
DAV:   4    -0.319187251119E+03   -0.47270E-01   -0.11090E-01 32536   0.119E+00    0.556E+00
DAV:   5    -0.319151644656E+03    0.35606E-01   -0.59803E-02 31984   0.102E+00    0.195E+00
DAV:   6    -0.319154120218E+03   -0.24756E-02   -0.12902E-02 34784   0.504E-01    0.163E+00
DAV:   7    -0.319154574580E+03   -0.45436E-03   -0.59945E-03 33240   0.373E-01    0.129E+00
DAV:   8    -0.319153921939E+03    0.65264E-03   -0.48176E-03 31912   0.253E-01    0.113E+00
DAV:   9    -0.319153687331E+03    0.23461E-03   -0.79879E-04 29848   0.802E-02    0.127E+00
DAV:  10    -0.319152092573E+03    0.15948E-02   -0.15737E-02 36608   0.304E-01    0.198E+00
DAV:  11    -0.319152733682E+03   -0.64111E-03   -0.15466E-02 32560   0.400E-01    0.161E+00
DAV:  12    -0.319157080831E+03   -0.43471E-02   -0.15458E-02 32280   0.463E-01    0.224E+00
DAV:  13    -0.319153067778E+03    0.40131E-02   -0.12743E-02 32936   0.438E-01    0.914E-01
DAV:  14    -0.319154093710E+03   -0.10259E-02   -0.42781E-03 33440   0.256E-01    0.944E-01
DAV:  15    -0.319154202192E+03   -0.10848E-03   -0.26342E-03 31864   0.211E-01    0.889E-01
DAV:  16    -0.319153633789E+03    0.56840E-03   -0.13841E-03 31080   0.155E-01    0.623E-01
DAV:  17    -0.319153574875E+03    0.58915E-04   -0.19250E-04 28936   0.616E-02    0.634E-01
DAV:  18    -0.319153485722E+03    0.89153E-04   -0.37764E-05 21992   0.191E-02    0.663E-01
DAV:  19    -0.319153456131E+03    0.29591E-04   -0.29515E-05 15752   0.193E-02    0.688E-01
DAV:  20    -0.319153269504E+03    0.18663E-03   -0.43145E-04 29880   0.995E-02    0.593E-01
DAV:  21    -0.319153425403E+03   -0.15590E-03   -0.69086E-04 33208   0.109E-01    0.647E-01
DAV:  22    -0.319153366317E+03    0.59086E-04   -0.12114E-03 33784   0.169E-01    0.589E-01
DAV:  23    -0.319153760362E+03   -0.39405E-03   -0.13781E-03 34856   0.142E-01    0.816E-01
DAV:  24    -0.319153192366E+03    0.56800E-03   -0.88925E-04 32648   0.143E-01    0.551E-01
DAV:  25    -0.319153653311E+03   -0.46095E-03   -0.12682E-03 30864   0.133E-01    0.789E-01
DAV:  26    -0.319153111317E+03    0.54199E-03   -0.87722E-04 31688   0.130E-01    0.389E-01
DAV:  27    -0.319153361788E+03   -0.25047E-03   -0.38847E-04 30408   0.892E-02    0.514E-01
DAV:  28    -0.319153150817E+03    0.21097E-03   -0.31921E-04 29312   0.856E-02    0.258E-01
DAV:  29    -0.319153170231E+03   -0.19415E-04   -0.11994E-04 27296   0.471E-02    0.229E-01
DAV:  30    -0.319153178750E+03   -0.85192E-05   -0.78054E-05 22744   0.330E-02
  10 F= -.31915318E+03 E0= -.31911722E+03  d E =-.967491E-02  mag=    45.2500
       N       E                     dE             d eps       ncg     rms          rms(c)
DAV:   1    -0.319044711140E+03    0.10846E+00   -0.96634E+00 33400   0.130E+01    0.136E+00
DAV:   2    -0.319225567712E+03   -0.18086E+00   -0.13370E+00 32112   0.274E+00    0.961E+00
DAV:   3    -0.319144422306E+03    0.81145E-01   -0.31139E-01 32592   0.184E+00    0.239E+00
DAV:   4    -0.319206118557E+03   -0.61696E-01   -0.14648E-01 32848   0.136E+00    0.697E+00
DAV:   5    -0.319154349448E+03    0.51769E-01   -0.86786E-02 34512   0.119E+00    0.230E+00
DAV:   6    -0.319158526462E+03   -0.41770E-02   -0.25686E-02 33656   0.687E-01    0.197E+00
DAV:   7    -0.319161877776E+03   -0.33513E-02   -0.20990E-02 33968   0.557E-01    0.239E+00
DAV:   8    -0.319158408891E+03    0.34689E-02   -0.16266E-02 31976   0.468E-01    0.160E+00
DAV:   9    -0.319156914915E+03    0.14940E-02   -0.43380E-03 32128   0.287E-01    0.115E+00
DAV:  10    -0.319157063322E+03   -0.14841E-03   -0.86626E-04 30336   0.103E-01    0.139E+00
DAV:  11    -0.319156246867E+03    0.81645E-03   -0.66056E-04 29800   0.109E-01    0.136E+00
DAV:  12    -0.319156154289E+03    0.92578E-04   -0.62633E-05 26944   0.384E-02    0.135E+00
DAV:  13    -0.319157370825E+03   -0.12165E-02   -0.41943E-03 32984   0.235E-01    0.187E+00
DAV:  14    -0.319155394678E+03    0.19761E-02   -0.80980E-03 35320   0.330E-01    0.167E+00
DAV:  15    -0.319163951570E+03   -0.85569E-02   -0.19525E-02 34568   0.521E-01    0.319E+00
DAV:  16    -0.319155245247E+03    0.87063E-02   -0.22751E-02 33960   0.553E-01    0.137E+00
DAV:  17    -0.319158144077E+03   -0.28988E-02   -0.85962E-03 32808   0.404E-01    0.149E+00
DAV:  18    -0.319159108069E+03   -0.96399E-03   -0.81939E-03 32872   0.350E-01    0.148E+00
DAV:  19    -0.319157359361E+03    0.17487E-02   -0.31259E-03 32648   0.263E-01    0.987E-01
DAV:  20    -0.319157251263E+03    0.10810E-03   -0.45859E-04 29704   0.672E-02    0.104E+00
DAV:  21    -0.319156617104E+03    0.63416E-03   -0.36683E-04 32216   0.827E-02    0.106E+00
DAV:  22    -0.319157780464E+03   -0.11634E-02   -0.35199E-03 35304   0.229E-01    0.160E+00
DAV:  23    -0.319155449382E+03    0.23311E-02   -0.46183E-03 34768   0.268E-01    0.820E-01
DAV:  24    -0.319157573781E+03   -0.21244E-02   -0.39003E-03 33296   0.228E-01    0.142E+00
DAV:  25    -0.319156637854E+03    0.93593E-03   -0.28867E-03 32192   0.214E-01    0.110E+00
DAV:  26    -0.319156444630E+03    0.19322E-03   -0.85191E-04 30544   0.106E-01    0.983E-01
DAV:  27    -0.319156348404E+03    0.96226E-04   -0.12110E-04 26888   0.412E-02    0.101E+00
DAV:  28    -0.319156333120E+03    0.15284E-04   -0.47432E-05 19240   0.279E-02    0.103E+00
DAV:  29    -0.319156101382E+03    0.23174E-03   -0.18459E-04 27600   0.607E-02    0.975E-01
DAV:  30    -0.319155900957E+03    0.20043E-03   -0.78585E-04 32520   0.108E-01    0.970E-01
DAV:  31    -0.319155831107E+03    0.69850E-04   -0.85407E-04 33192   0.983E-02    0.104E+00
DAV:  32    -0.319155746713E+03    0.84393E-04   -0.39170E-04 31624   0.670E-02    0.107E+00
DAV:  33    -0.319155747993E+03   -0.12800E-05   -0.16800E-04 28536   0.513E-02    0.106E+00
DAV:  34    -0.319155622518E+03    0.12548E-03   -0.93664E-05 27560   0.557E-02    0.997E-01
DAV:  35    -0.319155552092E+03    0.70426E-04   -0.21885E-04 30016   0.551E-02    0.956E-01
DAV:  36    -0.319155634769E+03   -0.82677E-04   -0.10749E-04 26776   0.414E-02    0.980E-01
DAV:  37    -0.319155673225E+03   -0.38456E-04   -0.30325E-05 20792   0.305E-02    0.992E-01
DAV:  38    -0.319155698611E+03   -0.25387E-04   -0.11782E-05 16032   0.124E-02    0.996E-01
DAV:  39    -0.319155728119E+03   -0.29507E-04   -0.42372E-06 15320   0.854E-03    0.991E-01
DAV:  40    -0.319155710937E+03    0.17182E-04   -0.83901E-06 15896   0.169E-02    0.101E+00
DAV:  41    -0.319155667104E+03    0.43833E-04   -0.18452E-05 19544   0.226E-02    0.106E+00
DAV:  42    -0.319155615078E+03    0.52026E-04   -0.11502E-05 17464   0.142E-02    0.109E+00
DAV:  43    -0.319155569327E+03    0.45751E-04   -0.48085E-06 15792   0.963E-03    0.111E+00
DAV:  44    -0.319155505145E+03    0.64181E-04   -0.34557E-06 15960   0.114E-02    0.113E+00
DAV:  45    -0.319155436206E+03    0.68940E-04   -0.10453E-05 19624   0.189E-02    0.118E+00
DAV:  46    -0.319155330708E+03    0.10550E-03   -0.19184E-05 20424   0.237E-02    0.124E+00
DAV:  47    -0.319155273551E+03    0.57156E-04   -0.14990E-05 18024   0.127E-02    0.127E+00
DAV:  48    -0.319155250202E+03    0.23349E-04   -0.67050E-06 16104   0.111E-02    0.125E+00
DAV:  49    -0.319155287236E+03   -0.37033E-04   -0.38233E-06 15416   0.111E-02    0.122E+00
DAV:  50    -0.319155349845E+03   -0.62609E-04   -0.22136E-05 19776   0.273E-02    0.114E+00
DAV:  51    -0.319155576116E+03   -0.22627E-03   -0.18431E-04 31992   0.792E-02    0.932E-01
DAV:  52    -0.319155646899E+03   -0.70784E-04   -0.60624E-05 25848   0.264E-02    0.926E-01
DAV:  53    -0.319155777902E+03   -0.13100E-03   -0.36253E-05 20952   0.339E-02    0.852E-01
DAV:  54    -0.319155867516E+03   -0.89614E-04   -0.23682E-05 21040   0.212E-02    0.802E-01
DAV:  55    -0.319156090654E+03   -0.22314E-03   -0.17783E-04 32400   0.839E-02    0.593E-01
DAV:  56    -0.319156245118E+03   -0.15446E-03   -0.16419E-04 34160   0.593E-02    0.445E-01
DAV:  57    -0.319156322249E+03   -0.77132E-04   -0.58962E-05 24832   0.220E-02    0.461E-01
DAV:  58    -0.319156331842E+03   -0.95925E-05   -0.95444E-06 17136   0.165E-02
  11 F= -.31915633E+03 E0= -.31912061E+03  d E =-.128280E-01  mag=    45.2625
       N       E                     dE             d eps       ncg     rms          rms(c)
DAV:   1    -0.319102445680E+03    0.53877E-01   -0.79291E+00 32616   0.109E+01    0.165E+00
DAV:   2    -0.319271788302E+03   -0.16934E+00   -0.10373E+00 32176   0.293E+00    0.112E+01
DAV:   3    -0.319149333936E+03    0.12245E+00   -0.34387E-01 32152   0.227E+00    0.284E+00
DAV:   4    -0.319208373394E+03   -0.59039E-01   -0.14902E-01 32832   0.137E+00    0.672E+00
DAV:   5    -0.319170872575E+03    0.37501E-01   -0.89601E-02 32704   0.107E+00    0.288E+00
DAV:   6    -0.319170080222E+03    0.79235E-03   -0.11560E-02 30520   0.439E-01    0.246E+00
DAV:   7    -0.319179808866E+03   -0.97286E-02   -0.18696E-02 32304   0.536E-01    0.456E+00
DAV:   8    -0.319160257682E+03    0.19551E-01   -0.27557E-02 34288   0.722E-01    0.342E+00
DAV:   9    -0.319158959186E+03    0.12985E-02   -0.13037E-02 35256   0.516E-01    0.267E+00
DAV:  10    -0.319163794979E+03   -0.48358E-02   -0.16278E-02 32824   0.549E-01    0.301E+00
DAV:  11    -0.319163187584E+03    0.60740E-03   -0.14762E-02 35096   0.467E-01    0.296E+00
DAV:  12    -0.319161380640E+03    0.18069E-02   -0.48658E-03 33256   0.294E-01    0.275E+00
DAV:  13    -0.319165831771E+03   -0.44511E-02   -0.74002E-03 32368   0.297E-01    0.358E+00
DAV:  14    -0.319157346292E+03    0.84855E-02   -0.15276E-02 32400   0.494E-01    0.229E+00
DAV:  15    -0.319167298042E+03   -0.99518E-02   -0.25139E-02 35512   0.615E-01    0.355E+00
DAV:  16    -0.319165449208E+03    0.18488E-02   -0.61496E-02 33152   0.941E-01    0.307E+00
DAV:  17    -0.319165349674E+03    0.99535E-04   -0.49003E-02 33528   0.772E-01    0.291E+00
DAV:  18    -0.319164290237E+03    0.10594E-02   -0.23874E-02 31608   0.483E-01    0.209E+00
DAV:  19    -0.319166397260E+03   -0.21070E-02   -0.13897E-02 31664   0.439E-01    0.268E+00
DAV:  20    -0.319162138309E+03    0.42590E-02   -0.62925E-03 32384   0.384E-01    0.215E+00
DAV:  21    -0.319161916435E+03    0.22187E-03   -0.40719E-03 34568   0.260E-01    0.224E+00
DAV:  22    -0.319161688138E+03    0.22830E-03   -0.51829E-03 32440   0.371E-01    0.190E+00
DAV:  23    -0.319160773252E+03    0.91489E-03   -0.48771E-03 33432   0.318E-01    0.150E+00
DAV:  24    -0.319165696588E+03   -0.49233E-02   -0.13096E-02 34064   0.467E-01    0.226E+00
DAV:  25    -0.319160952433E+03    0.47442E-02   -0.12776E-02 34256   0.457E-01    0.650E-01
DAV:  26    -0.319163966689E+03   -0.30143E-02   -0.56736E-03 32728   0.289E-01    0.137E+00
DAV:  27    -0.319162337710E+03    0.16290E-02   -0.37184E-03 33696   0.260E-01    0.597E-01
DAV:  28    -0.319162630651E+03   -0.29294E-03   -0.59562E-04 33112   0.144E-01    0.560E-01
DAV:  29    -0.319162537889E+03    0.92762E-04   -0.30764E-04 35552   0.721E-02    0.524E-01
DAV:  30    -0.319162429235E+03    0.10865E-03   -0.21489E-04 30616   0.726E-02    0.456E-01
DAV:  31    -0.319162268117E+03    0.16112E-03   -0.13853E-03 34160   0.167E-01    0.384E-01
DAV:  32    -0.319162410679E+03   -0.14256E-03   -0.94598E-04 33072   0.108E-01    0.491E-01
DAV:  33    -0.319162253877E+03    0.15680E-03   -0.36997E-04 30376   0.122E-01    0.404E-01
DAV:  34    -0.319162241410E+03    0.12468E-04   -0.56470E-04 36720   0.108E-01    0.242E-01
DAV:  35    -0.319162263814E+03   -0.22404E-04   -0.27644E-04 31640   0.699E-02    0.232E-01
DAV:  36    -0.319162221354E+03    0.42461E-04   -0.96796E-05 27600   0.441E-02    0.180E-01
DAV:  37    -0.319162206155E+03    0.15198E-04   -0.11323E-04 28056   0.546E-02    0.115E-01
DAV:  38    -0.319162225281E+03   -0.19126E-04   -0.21804E-04 28304   0.443E-02    0.142E-01
DAV:  39    -0.319162215484E+03    0.97970E-05   -0.92406E-05 24720   0.365E-02
  12 F= -.31916222E+03 E0= -.31912671E+03  d E =-.588364E-02  mag=    45.2877
       N       E                     dE             d eps       ncg     rms          rms(c)
DAV:   1    -0.319153361378E+03    0.88639E-02   -0.12773E+00 32648   0.436E+00    0.629E-01
DAV:   2    -0.319170611155E+03   -0.17250E-01   -0.15141E-01 31792   0.104E+00    0.306E+00
DAV:   3    -0.319163574432E+03    0.70367E-02   -0.39330E-02 32312   0.733E-01    0.151E+00
DAV:   4    -0.319172682524E+03   -0.91081E-02   -0.32894E-02 33064   0.625E-01    0.293E+00
DAV:   5    -0.319163421303E+03    0.92612E-02   -0.19477E-02 32136   0.545E-01    0.115E+00
DAV:   6    -0.319163039711E+03    0.38159E-03   -0.54934E-03 32680   0.301E-01    0.630E-01
DAV:   7    -0.319163367563E+03   -0.32785E-03   -0.13974E-03 32912   0.151E-01    0.757E-01
DAV:   8    -0.319163086836E+03    0.28073E-03   -0.64396E-04 29632   0.953E-02    0.582E-01
DAV:   9    -0.319163502013E+03   -0.41518E-03   -0.64498E-04 29448   0.919E-02    0.987E-01
DAV:  10    -0.319163220347E+03    0.28167E-03   -0.18725E-03 31720   0.188E-01    0.850E-01
DAV:  11    -0.319162650504E+03    0.56984E-03   -0.14665E-03 32696   0.166E-01    0.748E-01
DAV:  12    -0.319162698826E+03   -0.48322E-04   -0.26247E-04 29408   0.635E-02    0.644E-01
DAV:  13    -0.319162778467E+03   -0.79641E-04   -0.66439E-05 20264   0.277E-02    0.606E-01
DAV:  14    -0.319163578442E+03   -0.79998E-03   -0.16368E-03 30856   0.163E-01    0.115E+00
DAV:  15    -0.319164325703E+03   -0.74726E-03   -0.60229E-03 33568   0.298E-01    0.123E+00
DAV:  16    -0.319163628370E+03    0.69733E-03   -0.75313E-03 33952   0.323E-01    0.104E+00
DAV:  17    -0.319163023943E+03    0.60443E-03   -0.31690E-03 32088   0.227E-01    0.752E-01
DAV:  18    -0.319163416611E+03   -0.39267E-03   -0.16245E-03 30720   0.166E-01    0.102E+00
DAV:  19    -0.319162694327E+03    0.72228E-03   -0.11266E-03 31008   0.151E-01    0.760E-01
DAV:  20    -0.319163094791E+03   -0.40046E-03   -0.12402E-03 31704   0.160E-01    0.875E-01
DAV:  21    -0.319162658385E+03    0.43641E-03   -0.95016E-04 33200   0.128E-01    0.520E-01
DAV:  22    -0.319162992619E+03   -0.33423E-03   -0.70471E-04 31408   0.107E-01    0.512E-01
DAV:  23    -0.319162919119E+03    0.73500E-04   -0.43271E-04 30032   0.786E-02    0.365E-01
DAV:  24    -0.319162951061E+03   -0.31942E-04   -0.87477E-05 24888   0.424E-02    0.338E-01
DAV:  25    -0.319162962940E+03   -0.11879E-04   -0.55160E-05 18768   0.271E-02    0.337E-01
DAV:  26    -0.319162948239E+03    0.14701E-04   -0.20367E-05 17512   0.238E-02    0.318E-01
DAV:  27    -0.319162989465E+03   -0.41226E-04   -0.11732E-04 23840   0.412E-02    0.365E-01
DAV:  28    -0.319162915039E+03    0.74426E-04   -0.32519E-04 29776   0.751E-02    0.272E-01
DAV:  29    -0.319162968884E+03   -0.53845E-04   -0.50994E-04 30832   0.793E-02    0.249E-01
DAV:  30    -0.319162951925E+03    0.16959E-04   -0.16392E-04 29472   0.554E-02    0.221E-01
DAV:  31    -0.319162928776E+03    0.23149E-04   -0.15164E-04 28504   0.538E-02    0.145E-01
DAV:  32    -0.319162930205E+03   -0.14294E-05   -0.11097E-04 26152   0.405E-02    0.906E-02
DAV:  33    -0.319162937324E+03   -0.71187E-05   -0.48678E-05 23584   0.395E-02
  13 F= -.31916294E+03 E0= -.31912753E+03  d E =-.660548E-02  mag=    45.2987
       N       E                     dE             d eps       ncg     rms          rms(c)
DAV:   1    -0.319141847052E+03    0.21083E-01   -0.24975E+00 32792   0.620E+00    0.783E-01
DAV:   2    -0.319180052587E+03   -0.38206E-01   -0.29968E-01 31864   0.137E+00    0.404E+00
DAV:   3    -0.319166622969E+03    0.13430E-01   -0.56363E-02 32632   0.954E-01    0.177E+00
DAV:   4    -0.319184925575E+03   -0.18303E-01   -0.31737E-02 33464   0.770E-01    0.434E+00
DAV:   5    -0.319165054223E+03    0.19871E-01   -0.24471E-02 34352   0.707E-01    0.117E+00
DAV:   6    -0.319166772164E+03   -0.17179E-02   -0.62650E-03 34824   0.375E-01    0.939E-01
DAV:   7    -0.319168582325E+03   -0.18102E-02   -0.84304E-03 34808   0.330E-01    0.145E+00
DAV:   8    -0.319166982219E+03    0.16001E-02   -0.55001E-03 34416   0.299E-01    0.106E+00
DAV:   9    -0.319166147069E+03    0.83515E-03   -0.22439E-03 34560   0.203E-01    0.474E-01
DAV:  10    -0.319166603452E+03   -0.45638E-03   -0.15872E-03 30168   0.159E-01    0.730E-01
DAV:  11    -0.319166094245E+03    0.50921E-03   -0.12282E-03 30896   0.143E-01    0.442E-01
DAV:  12    -0.319166353342E+03   -0.25910E-03   -0.17452E-03 30144   0.142E-01    0.639E-01
DAV:  13    -0.319166451657E+03   -0.98315E-04   -0.20101E-03 31088   0.140E-01    0.749E-01
DAV:  14    -0.319165966526E+03    0.48513E-03   -0.14217E-03 29872   0.133E-01    0.369E-01
DAV:  15    -0.319166273739E+03   -0.30721E-03   -0.75416E-04 30336   0.110E-01    0.581E-01
DAV:  16    -0.319166136558E+03    0.13718E-03   -0.52676E-04 29896   0.936E-02    0.427E-01
DAV:  17    -0.319166145067E+03   -0.85090E-05   -0.77918E-05 23880   0.281E-02
  14 F= -.31916615E+03 E0= -.31913015E+03  d E =-.320774E-02  mag=    45.2797
       N       E                     dE             d eps       ncg     rms          rms(c)
DAV:   1    -0.319142724324E+03    0.23412E-01   -0.24419E+00 32904   0.614E+00    0.945E-01
DAV:   2    -0.319270529937E+03   -0.12781E+00   -0.38961E-01 33768   0.205E+00    0.108E+01
DAV:   3    -0.319145609394E+03    0.12492E+00   -0.20799E-01 31952   0.183E+00    0.132E+00
DAV:   4    -0.319177726428E+03   -0.32117E-01   -0.43068E-02 32256   0.890E-01    0.348E+00
DAV:   5    -0.319170867340E+03    0.68591E-02   -0.34095E-02 33096   0.725E-01    0.220E+00
DAV:   6    -0.319167775601E+03    0.30917E-02   -0.15193E-02 32320   0.507E-01    0.142E+00
DAV:   7    -0.319167275826E+03    0.49978E-03   -0.43434E-03 32880   0.272E-01    0.118E+00
DAV:   8    -0.319167156676E+03    0.11915E-03   -0.17614E-03 30856   0.141E-01    0.101E+00
DAV:   9    -0.319166983895E+03    0.17278E-03   -0.30620E-04 27336   0.532E-02    0.102E+00
DAV:  10    -0.319167411813E+03   -0.42792E-03   -0.51043E-03 31336   0.216E-01    0.151E+00
DAV:  11    -0.319165483310E+03    0.19285E-02   -0.53572E-03 32240   0.276E-01    0.113E+00
DAV:  12    -0.319165360989E+03    0.12232E-03   -0.30043E-03 32984   0.213E-01    0.805E-01
DAV:  13    -0.319166924003E+03   -0.15630E-02   -0.45279E-03 34312   0.274E-01    0.152E+00
DAV:  14    -0.319164810568E+03    0.21134E-02   -0.46607E-03 34568   0.287E-01    0.793E-01
DAV:  15    -0.319168284425E+03   -0.34739E-02   -0.77742E-03 33992   0.320E-01    0.183E+00
DAV:  16    -0.319165959822E+03    0.23246E-02   -0.75393E-03 33384   0.318E-01    0.105E+00
DAV:  17    -0.319166547347E+03   -0.58753E-03   -0.31829E-03 31680   0.213E-01    0.113E+00
DAV:  18    -0.319166613483E+03   -0.66135E-04   -0.19050E-03 31184   0.149E-01    0.120E+00
DAV:  19    -0.319166199373E+03    0.41411E-03   -0.70615E-04 29392   0.976E-02    0.117E+00
DAV:  20    -0.319166007058E+03    0.19232E-03   -0.39191E-04 28768   0.692E-02    0.131E+00
DAV:  21    -0.319165404550E+03    0.60251E-03   -0.40469E-04 29320   0.832E-02    0.135E+00
DAV:  22    -0.319165281192E+03    0.12336E-03   -0.96147E-05 27008   0.411E-02    0.140E+00
DAV:  23    -0.319165146196E+03    0.13500E-03   -0.33124E-05 20776   0.228E-02    0.142E+00
DAV:  24    -0.319165106718E+03    0.39478E-04   -0.39289E-05 18864   0.290E-02    0.141E+00
DAV:  25    -0.319165072481E+03    0.34237E-04   -0.93837E-05 22592   0.429E-02    0.139E+00
DAV:  26    -0.319165141953E+03   -0.69472E-04   -0.58952E-04 32664   0.133E-01    0.118E+00
DAV:  27    -0.319165851764E+03   -0.70981E-03   -0.15155E-03 34464   0.150E-01    0.122E+00
DAV:  28    -0.319165896598E+03   -0.44833E-04   -0.16694E-03 31824   0.198E-01    0.879E-01
DAV:  29    -0.319166176739E+03   -0.28014E-03   -0.54704E-04 31728   0.680E-02    0.820E-01
DAV:  30    -0.319166275698E+03   -0.98960E-04   -0.11167E-04 26496   0.215E-02    0.812E-01
DAV:  31    -0.319166282535E+03   -0.68363E-05   -0.10994E-04 26752   0.557E-02    0.774E-01
DAV:  32    -0.319166244789E+03    0.37746E-04   -0.13077E-04 30600   0.566E-02    0.773E-01
DAV:  33    -0.319166248662E+03   -0.38733E-05   -0.82429E-05 27208   0.369E-02
  15 F= -.31916625E+03 E0= -.31913033E+03  d E =-.331134E-02  mag=    45.2329
       N       E                     dE             d eps       ncg     rms          rms(c)
DAV:   1    -0.319162878380E+03    0.33664E-02   -0.38189E-01 32896   0.243E+00    0.845E-01
DAV:   2    -0.319244598239E+03   -0.81720E-01   -0.21245E-01 34504   0.145E+00    0.911E+00
DAV:   3    -0.319160385843E+03    0.84212E-01   -0.13139E-01 31440   0.134E+00    0.227E+00
DAV:   4    -0.319177989008E+03   -0.17603E-01   -0.10700E-02 31208   0.411E-01    0.314E+00
DAV:   5    -0.319173833412E+03    0.41556E-02   -0.26304E-03 30520   0.249E-01    0.261E+00
DAV:   6    -0.319180513735E+03   -0.66803E-02   -0.51318E-03 33752   0.313E-01    0.343E+00
DAV:   7    -0.319177886622E+03    0.26271E-02   -0.36449E-02 34616   0.668E-01    0.370E+00
DAV:   8    -0.319163951827E+03    0.13935E-01   -0.26117E-02 35200   0.704E-01    0.250E+00
DAV:   9    -0.319164487181E+03   -0.53535E-03   -0.13742E-02 33576   0.427E-01    0.167E+00
DAV:  10    -0.319168412808E+03   -0.39256E-02   -0.11940E-02 32344   0.385E-01    0.205E+00
DAV:  11    -0.319167609990E+03    0.80282E-03   -0.10957E-02 32136   0.370E-01    0.186E+00
DAV:  12    -0.319167445446E+03    0.16454E-03   -0.56598E-03 32000   0.291E-01    0.171E+00
DAV:  13    -0.319168934167E+03   -0.14887E-02   -0.42015E-03 32080   0.221E-01    0.201E+00
DAV:  14    -0.319168215095E+03    0.71907E-03   -0.16924E-03 30944   0.163E-01    0.196E+00
DAV:  15    -0.319168105626E+03    0.10947E-03   -0.24576E-04 27600   0.488E-02    0.199E+00
DAV:  16    -0.319167824147E+03    0.28148E-03   -0.13705E-03 34944   0.112E-01    0.205E+00
DAV:  17    -0.319168165801E+03   -0.34165E-03   -0.24046E-03 34584   0.173E-01    0.211E+00
DAV:  18    -0.319167245687E+03    0.92011E-03   -0.32892E-03 33200   0.207E-01    0.175E+00
DAV:  19    -0.319166926060E+03    0.31963E-03   -0.20268E-03 32920   0.168E-01    0.144E+00
DAV:  20    -0.319166670015E+03    0.25604E-03   -0.10203E-03 33232   0.148E-01    0.105E+00
DAV:  21    -0.319166966173E+03   -0.29616E-03   -0.84385E-04 34544   0.114E-01    0.981E-01
DAV:  22    -0.319166955258E+03    0.10915E-04   -0.54382E-04 29776   0.108E-01    0.872E-01
DAV:  23    -0.319166931542E+03    0.23716E-04   -0.43236E-04 29128   0.796E-02    0.803E-01
DAV:  24    -0.319166694917E+03    0.23662E-03   -0.36554E-04 29368   0.774E-02    0.543E-01
DAV:  25    -0.319166812114E+03   -0.11720E-03   -0.28793E-04 30280   0.643E-02    0.518E-01
DAV:  26    -0.319166664490E+03    0.14762E-03   -0.30963E-04 28536   0.694E-02    0.262E-01
DAV:  27    -0.319166800206E+03   -0.13572E-03   -0.25860E-04 30120   0.618E-02    0.335E-01
DAV:  28    -0.319166767839E+03    0.32367E-04   -0.19265E-04 27880   0.553E-02    0.280E-01
DAV:  29    -0.319166765914E+03    0.19255E-05   -0.33905E-05 20832   0.334E-02
  16 F= -.31916677E+03 E0= -.31913085E+03  d E =-.382859E-02  mag=    45.2409
       N       E                     dE             d eps       ncg     rms          rms(c)
DAV:   1    -0.319146861924E+03    0.19906E-01   -0.24163E+00 33360   0.655E+00    0.927E-01
DAV:   2    -0.319202250728E+03   -0.55389E-01   -0.33465E-01 31944   0.164E+00    0.611E+00
DAV:   3    -0.319163365950E+03    0.38885E-01   -0.92055E-02 32240   0.127E+00    0.110E+00
DAV:   4    -0.319189424230E+03   -0.26058E-01   -0.35730E-02 35456   0.810E-01    0.466E+00
DAV:   5    -0.319166954270E+03    0.22470E-01   -0.25346E-02 34936   0.718E-01    0.118E+00
DAV:   6    -0.319170262805E+03   -0.33085E-02   -0.65586E-03 33848   0.365E-01    0.132E+00
DAV:   7    -0.319169431770E+03    0.83104E-03   -0.27419E-03 33240   0.211E-01    0.914E-01
DAV:   8    -0.319169211624E+03    0.22015E-03   -0.46394E-04 29728   0.815E-02    0.883E-01
DAV:   9    -0.319170946156E+03   -0.17345E-02   -0.32134E-03 31416   0.215E-01    0.171E+00
DAV:  10    -0.319170057109E+03    0.88905E-03   -0.90868E-03 34416   0.347E-01    0.190E+00
DAV:  11    -0.319167968068E+03    0.20890E-02   -0.59534E-03 34864   0.315E-01    0.110E+00
DAV:  12    -0.319169519335E+03   -0.15513E-02   -0.43178E-03 32568   0.276E-01    0.124E+00
DAV:  13    -0.319169365304E+03    0.15403E-03   -0.42377E-03 32104   0.227E-01    0.119E+00
DAV:  14    -0.319168916696E+03    0.44861E-03   -0.14858E-03 30176   0.129E-01    0.896E-01
DAV:  15    -0.319169726374E+03   -0.80968E-03   -0.22729E-03 30600   0.159E-01    0.134E+00
DAV:  16    -0.319168311449E+03    0.14149E-02   -0.16946E-03 32216   0.175E-01    0.955E-01
DAV:  17    -0.319168481941E+03   -0.17049E-03   -0.13595E-03 30424   0.125E-01    0.919E-01
DAV:  18    -0.319169569789E+03   -0.10878E-02   -0.20533E-03 32456   0.184E-01    0.129E+00
DAV:  19    -0.319169020056E+03    0.54973E-03   -0.15346E-03 32584   0.164E-01    0.108E+00
DAV:  20    -0.319169172103E+03   -0.15205E-03   -0.31850E-04 29152   0.680E-02    0.113E+00
DAV:  21    -0.319168611401E+03    0.56070E-03   -0.12110E-03 31464   0.150E-01    0.952E-01
DAV:  22    -0.319170677048E+03   -0.20656E-02   -0.71290E-03 33648   0.311E-01    0.162E+00
DAV:  23    -0.319168903792E+03    0.17733E-02   -0.65620E-03 34112   0.293E-01    0.916E-01
DAV:  24    -0.319169086334E+03   -0.18254E-03   -0.16437E-03 30584   0.162E-01    0.841E-01
DAV:  25    -0.319169826134E+03   -0.73980E-03   -0.27323E-03 33504   0.193E-01    0.121E+00
DAV:  26    -0.319168754157E+03    0.10720E-02   -0.23294E-03 33680   0.213E-01    0.922E-01
DAV:  27    -0.319168934934E+03   -0.18078E-03   -0.65201E-04 33328   0.926E-02    0.105E+00
DAV:  28    -0.319168899366E+03    0.35568E-04   -0.19919E-04 29104   0.526E-02    0.108E+00
DAV:  29    -0.319168731132E+03    0.16823E-03   -0.47130E-04 31248   0.111E-01    0.888E-01
DAV:  30    -0.319168891659E+03   -0.16053E-03   -0.97109E-04 32288   0.123E-01    0.634E-01
DAV:  31    -0.319169006391E+03   -0.11473E-03   -0.26674E-04 29504   0.405E-02    0.594E-01
DAV:  32    -0.319169030056E+03   -0.23665E-04   -0.10145E-04 22120   0.324E-02    0.592E-01
DAV:  33    -0.319168977037E+03    0.53019E-04   -0.26678E-04 29584   0.100E-01    0.458E-01
DAV:  34    -0.319168991684E+03   -0.14647E-04   -0.95435E-04 35936   0.150E-01    0.275E-01
DAV:  35    -0.319169039730E+03   -0.48046E-04   -0.40182E-04 32464   0.733E-02    0.288E-01
DAV:  36    -0.319168967987E+03    0.71743E-04   -0.26265E-04 31264   0.853E-02    0.129E-01
DAV:  37    -0.319169003079E+03   -0.35092E-04   -0.10578E-04 31152   0.423E-02    0.105E-01
DAV:  38    -0.319169002429E+03    0.64936E-06   -0.25488E-05 19792   0.251E-02
  17 F= -.31916900E+03 E0= -.31913291E+03  d E =-.223652E-02  mag=    45.2470
       N       E                     dE             d eps       ncg     rms          rms(c)
DAV:   1    -0.319159071268E+03    0.99318E-02   -0.11384E+00 33368   0.450E+00    0.616E-01
DAV:   2    -0.319179459275E+03   -0.20388E-01   -0.15734E-01 31928   0.104E+00    0.343E+00
DAV:   3    -0.319168989146E+03    0.10470E-01   -0.45225E-02 32480   0.781E-01    0.126E+00
DAV:   4    -0.319182784424E+03   -0.13795E-01   -0.21537E-02 34992   0.635E-01    0.374E+00
DAV:   5    -0.319167712473E+03    0.15072E-01   -0.15741E-02 34640   0.588E-01    0.782E-01
DAV:   6    -0.319170523111E+03   -0.28106E-02   -0.68982E-03 34904   0.316E-01    0.111E+00
DAV:   7    -0.319170546773E+03   -0.23661E-04   -0.48615E-03 34872   0.285E-01    0.917E-01
DAV:   8    -0.319170047711E+03    0.49906E-03   -0.25477E-03 34296   0.235E-01    0.891E-01
DAV:   9    -0.319169442246E+03    0.60547E-03   -0.11175E-03 32992   0.171E-01    0.373E-01
DAV:  10    -0.319169701721E+03   -0.25948E-03   -0.66877E-04 30192   0.109E-01    0.548E-01
DAV:  11    -0.319169410663E+03    0.29106E-03   -0.33154E-04 28760   0.800E-02    0.272E-01
DAV:  12    -0.319169420809E+03   -0.10146E-04   -0.39857E-05 21032   0.267E-02    0.269E-01
DAV:  13    -0.319169444745E+03   -0.23936E-04   -0.99723E-05 21448   0.378E-02    0.381E-01
DAV:  14    -0.319169384074E+03    0.60671E-04   -0.12805E-04 24184   0.448E-02    0.295E-01
DAV:  15    -0.319169442187E+03   -0.58113E-04   -0.19931E-04 24744   0.483E-02    0.359E-01
DAV:  16    -0.319169382941E+03    0.59246E-04   -0.16197E-04 24320   0.460E-02    0.286E-01
DAV:  17    -0.319169407129E+03   -0.24187E-04   -0.51237E-05 17056   0.244E-02    0.293E-01
DAV:  18    -0.319169406583E+03    0.54519E-06   -0.17270E-05 15744   0.130E-02
  18 F= -.31916941E+03 E0= -.31913311E+03  d E =-.264067E-02  mag=    45.2449
       N       E                     dE             d eps       ncg     rms          rms(c)
DAV:   1    -0.319159334060E+03    0.10073E-01   -0.21570E+00 32272   0.549E+00    0.101E+00
DAV:   2    -0.319201397197E+03   -0.42063E-01   -0.28160E-01 31624   0.155E+00    0.610E+00
DAV:   3    -0.319166852585E+03    0.34545E-01   -0.10025E-01 31824   0.126E+00    0.170E+00
DAV:   4    -0.319195906902E+03   -0.29054E-01   -0.78885E-02 32752   0.880E-01    0.556E+00
DAV:   5    -0.319164383116E+03    0.31524E-01   -0.44642E-02 31784   0.757E-01    0.134E+00
DAV:   6    -0.319171663725E+03   -0.72806E-02   -0.11025E-02 32424   0.477E-01    0.181E+00
DAV:   7    -0.319172300310E+03   -0.63658E-03   -0.14388E-02 34416   0.431E-01    0.179E+00
DAV:   8    -0.319170282494E+03    0.20178E-02   -0.92248E-03 34384   0.427E-01    0.134E+00
DAV:   9    -0.319169889570E+03    0.39292E-03   -0.71774E-03 32312   0.316E-01    0.110E+00
DAV:  10    -0.319170281925E+03   -0.39236E-03   -0.41588E-03 31712   0.194E-01    0.109E+00
DAV:  11    -0.319169848460E+03    0.43346E-03   -0.10659E-03 29520   0.855E-02    0.111E+00
DAV:  12    -0.319169415141E+03    0.43332E-03   -0.25392E-03 32496   0.206E-01    0.157E+00
DAV:  13    -0.319168509095E+03    0.90605E-03   -0.57985E-03 34496   0.322E-01    0.165E+00
DAV:  14    -0.319169447984E+03   -0.93889E-03   -0.84211E-03 35592   0.406E-01    0.155E+00
DAV:  15    -0.319174975232E+03   -0.55272E-02   -0.26629E-02 34648   0.512E-01    0.277E+00
DAV:  16    -0.319169729841E+03    0.52454E-02   -0.14649E-02 32544   0.459E-01    0.136E+00
DAV:  17    -0.319172033440E+03   -0.23036E-02   -0.54730E-03 31320   0.233E-01    0.144E+00
DAV:  18    -0.319171492770E+03    0.54067E-03   -0.21535E-03 31096   0.161E-01    0.137E+00
DAV:  19    -0.319171185991E+03    0.30678E-03   -0.41900E-04 27136   0.541E-02    0.144E+00
DAV:  20    -0.319171249616E+03   -0.63625E-04   -0.61577E-04 30288   0.976E-02    0.157E+00
DAV:  21    -0.319170551520E+03    0.69810E-03   -0.52197E-04 32680   0.103E-01    0.144E+00
DAV:  22    -0.319170842869E+03   -0.29135E-03   -0.83860E-04 30960   0.118E-01    0.150E+00
DAV:  23    -0.319170206841E+03    0.63603E-03   -0.10178E-03 32600   0.154E-01    0.121E+00
DAV:  24    -0.319170761089E+03   -0.55425E-03   -0.94529E-04 33544   0.124E-01    0.124E+00
DAV:  25    -0.319170527676E+03    0.23341E-03   -0.10521E-03 31352   0.162E-01    0.111E+00
DAV:  26    -0.319170675605E+03   -0.14793E-03   -0.62936E-04 33096   0.101E-01    0.120E+00
DAV:  27    -0.319170475061E+03    0.20054E-03   -0.44417E-04 30832   0.813E-02    0.117E+00
DAV:  28    -0.319170290779E+03    0.18428E-03   -0.21504E-04 27712   0.662E-02    0.125E+00
DAV:  29    -0.319170178393E+03    0.11239E-03   -0.10077E-04 27520   0.348E-02    0.125E+00
DAV:  30    -0.319170082553E+03    0.95840E-04   -0.19371E-05 17776   0.168E-02    0.128E+00
DAV:  31    -0.319170077618E+03    0.49349E-05   -0.17380E-04 26384   0.670E-02    0.116E+00
DAV:  32    -0.319170382361E+03   -0.30474E-03   -0.13468E-03 33040   0.178E-01    0.801E-01
DAV:  33    -0.319170984225E+03   -0.60186E-03   -0.16529E-03 35336   0.162E-01    0.604E-01
DAV:  34    -0.319171200011E+03   -0.21579E-03   -0.58497E-04 32504   0.792E-02    0.594E-01
DAV:  35    -0.319171150391E+03    0.49620E-04   -0.19366E-04 31056   0.787E-02    0.597E-01
DAV:  36    -0.319171038353E+03    0.11204E-03   -0.55323E-04 36184   0.104E-01    0.665E-01
DAV:  37    -0.319170947141E+03    0.91212E-04   -0.55178E-04 33000   0.885E-02    0.704E-01
DAV:  38    -0.319170926344E+03    0.20796E-04   -0.22606E-04 29000   0.585E-02    0.618E-01
DAV:  39    -0.319171046882E+03   -0.12054E-03   -0.16228E-04 30568   0.696E-02    0.479E-01
DAV:  40    -0.319171088636E+03   -0.41753E-04   -0.70507E-05 28712   0.328E-02    0.412E-01
DAV:  41    -0.319171123835E+03   -0.35200E-04   -0.22981E-05 20040   0.276E-02    0.392E-01
DAV:  42    -0.319171136496E+03   -0.12661E-04   -0.14638E-05 17408   0.183E-02    0.377E-01
DAV:  43    -0.319171174589E+03   -0.38093E-04   -0.25712E-05 21032   0.318E-02    0.330E-01
DAV:  44    -0.319171206034E+03   -0.31445E-04   -0.34566E-05 23816   0.274E-02    0.275E-01
DAV:  45    -0.319171210633E+03   -0.45991E-05   -0.17056E-05 17104   0.143E-02
  19 F= -.31917121E+03 E0= -.31913474E+03  d E =-.180405E-02  mag=    45.2624
       N       E                     dE             d eps       ncg     rms          rms(c)
DAV:   1    -0.319169892298E+03    0.13137E-02   -0.25747E-01 32272   0.190E+00    0.400E-01
DAV:   2    -0.319183793497E+03   -0.13901E-01   -0.51727E-02 32200   0.715E-01    0.344E+00
DAV:   3    -0.319170367208E+03    0.13426E-01   -0.24690E-02 31248   0.634E-01    0.698E-01
DAV:   4    -0.319172347528E+03   -0.19803E-02   -0.31648E-03 31768   0.192E-01    0.699E-01
DAV:   5    -0.319172440707E+03   -0.93180E-04   -0.88133E-04 30008   0.857E-02    0.105E+00
DAV:   6    -0.319171972874E+03    0.46783E-03   -0.57548E-04 29448   0.876E-02    0.974E-01
DAV:   7    -0.319171939292E+03    0.33582E-04   -0.84550E-05 26376   0.329E-02    0.101E+00
DAV:   8    -0.319171872645E+03    0.66647E-04   -0.17194E-05 17208   0.113E-02    0.103E+00
DAV:   9    -0.319172969288E+03   -0.10966E-02   -0.55667E-03 31384   0.237E-01    0.159E+00
DAV:  10    -0.319171239859E+03    0.17294E-02   -0.93892E-03 34632   0.286E-01    0.115E+00
DAV:  11    -0.319171395248E+03   -0.15539E-03   -0.33563E-03 32344   0.238E-01    0.835E-01
DAV:  12    -0.319172602359E+03   -0.12071E-02   -0.33656E-03 32640   0.230E-01    0.123E+00
DAV:  13    -0.319171365401E+03    0.12370E-02   -0.31487E-03 33584   0.219E-01    0.651E-01
DAV:  14    -0.319171718587E+03   -0.35319E-03   -0.11933E-03 32192   0.176E-01    0.715E-01
DAV:  15    -0.319171878834E+03   -0.16025E-03   -0.17818E-03 31632   0.167E-01    0.792E-01
DAV:  16    -0.319171408261E+03    0.47057E-03   -0.12263E-03 32392   0.160E-01    0.473E-01
DAV:  17    -0.319171436695E+03   -0.28434E-04   -0.57493E-04 30824   0.102E-01    0.404E-01
DAV:  18    -0.319171664931E+03   -0.22824E-03   -0.85299E-04 30800   0.120E-01    0.577E-01
DAV:  19    -0.319171392417E+03    0.27251E-03   -0.69980E-04 30648   0.101E-01    0.270E-01
DAV:  20    -0.319171512649E+03   -0.12023E-03   -0.46671E-04 29400   0.717E-02    0.324E-01
DAV:  21    -0.319171480039E+03    0.32610E-04   -0.32899E-04 27760   0.627E-02    0.228E-01
DAV:  22    -0.319171525214E+03   -0.45175E-04   -0.12925E-04 21736   0.394E-02    0.247E-01
DAV:  23    -0.319171512847E+03    0.12367E-04   -0.37811E-05 17696   0.181E-02    0.249E-01
DAV:  24    -0.319171458828E+03    0.54019E-04   -0.33049E-05 18744   0.280E-02    0.235E-01
DAV:  25    -0.319171528063E+03   -0.69235E-04   -0.17198E-04 25640   0.525E-02    0.362E-01
DAV:  26    -0.319171414475E+03    0.11359E-03   -0.15843E-04 27704   0.611E-02    0.207E-01
DAV:  27    -0.319171456811E+03   -0.42336E-04   -0.94504E-05 22992   0.373E-02    0.256E-01
DAV:  28    -0.319171432490E+03    0.24321E-04   -0.48343E-05 20064   0.316E-02    0.239E-01
DAV:  29    -0.319171428754E+03    0.37360E-05   -0.12534E-05 16432   0.137E-02
  20 F= -.31917143E+03 E0= -.31913503E+03  d E =-.202217E-02  mag=    45.2652
       N       E                     dE             d eps       ncg     rms          rms(c)
DAV:   1    -0.319159103694E+03    0.12329E-01   -0.19232E+00 31568   0.484E+00    0.713E-01
DAV:   2    -0.319186813823E+03   -0.27710E-01   -0.20426E-01 32000   0.119E+00    0.390E+00
DAV:   3    -0.319173150974E+03    0.13663E-01   -0.49921E-02 31912   0.842E-01    0.140E+00
DAV:   4    -0.319177592490E+03   -0.44415E-02   -0.19109E-02 32536   0.473E-01    0.190E+00
DAV:   5    -0.319175041224E+03    0.25513E-02   -0.54257E-03 31176   0.254E-01    0.137E+00
DAV:   6    -0.319176366159E+03   -0.13249E-02   -0.29020E-03 31504   0.178E-01    0.201E+00
DAV:   7    -0.319175855293E+03    0.51087E-03   -0.11598E-02 32136   0.383E-01    0.231E+00
DAV:   8    -0.319173017494E+03    0.28378E-02   -0.76698E-03 32376   0.331E-01    0.172E+00
DAV:   9    -0.319172876782E+03    0.14071E-03   -0.27287E-03 32968   0.227E-01    0.157E+00
DAV:  10    -0.319173679584E+03   -0.80280E-03   -0.57623E-04 29408   0.737E-02    0.163E+00
DAV:  11    -0.319172969331E+03    0.71025E-03   -0.32443E-03 31616   0.213E-01    0.146E+00
DAV:  12    -0.319174603179E+03   -0.16338E-02   -0.84911E-03 34192   0.351E-01    0.182E+00
DAV:  13    -0.319174145737E+03    0.45744E-03   -0.15937E-02 33856   0.454E-01    0.139E+00
DAV:  14    -0.319174043843E+03    0.10189E-03   -0.10030E-02 33456   0.434E-01    0.142E+00
DAV:  15    -0.319174866047E+03   -0.82220E-03   -0.71223E-03 33320   0.349E-01    0.175E+00
DAV:  16    -0.319173485033E+03    0.13810E-02   -0.41009E-03 33152   0.327E-01    0.159E+00
DAV:  17    -0.319172550088E+03    0.93495E-03   -0.30284E-03 33376   0.241E-01    0.138E+00
DAV:  18    -0.319172555642E+03   -0.55548E-05   -0.28794E-03 32512   0.252E-01    0.120E+00
DAV:  19    -0.319172285228E+03    0.27041E-03   -0.17817E-03 34704   0.174E-01    0.101E+00
DAV:  20    -0.319172663427E+03   -0.37820E-03   -0.19581E-03 32424   0.189E-01    0.896E-01
DAV:  21    -0.319172487615E+03    0.17581E-03   -0.15789E-03 33688   0.147E-01    0.615E-01
DAV:  22    -0.319172665314E+03   -0.17770E-03   -0.71637E-04 29656   0.106E-01    0.495E-01
DAV:  23    -0.319172804134E+03   -0.13882E-03   -0.56661E-04 29952   0.857E-02    0.477E-01
DAV:  24    -0.319172753219E+03    0.50916E-04   -0.25166E-04 28616   0.697E-02    0.334E-01
DAV:  25    -0.319172889597E+03   -0.13638E-03   -0.22823E-04 29136   0.674E-02    0.435E-01
DAV:  26    -0.319172764077E+03    0.12552E-03   -0.23025E-04 28568   0.652E-02    0.270E-01
DAV:  27    -0.319172749339E+03    0.14738E-04   -0.19414E-04 27088   0.575E-02    0.222E-01
DAV:  28    -0.319172823798E+03   -0.74459E-04   -0.32643E-04 29712   0.690E-02    0.296E-01
DAV:  29    -0.319172769696E+03    0.54102E-04   -0.38772E-04 27600   0.670E-02    0.166E-01
DAV:  30    -0.319172788671E+03   -0.18975E-04   -0.13462E-04 26200   0.393E-02    0.164E-01
DAV:  31    -0.319172771867E+03    0.16804E-04   -0.35423E-05 19872   0.272E-02    0.146E-01
DAV:  32    -0.319172755987E+03    0.15881E-04   -0.34793E-05 20904   0.273E-02    0.116E-01
DAV:  33    -0.319172751890E+03    0.40972E-05   -0.59569E-05 21952   0.317E-02
  21 F= -.31917275E+03 E0= -.31913636E+03  d E =-.132314E-02  mag=    45.2451
