       N       E                     dE             d eps       ncg     rms          rms(c)
DAV:   1     0.371638871566E+04    0.37164E+04   -0.15288E+05 28496   0.153E+03
DAV:   2     0.191935384352E+03   -0.35245E+04   -0.33826E+04 28624   0.467E+02
DAV:   3    -0.225302111610E+03   -0.41724E+03   -0.40791E+03 33920   0.169E+02
DAV:   4    -0.241798293520E+03   -0.16496E+02   -0.16257E+02 39200   0.376E+01
DAV:   5    -0.242656003454E+03   -0.85771E+00   -0.85212E+00 49136   0.638E+00    0.457E+01
DAV:   6    -0.220731317146E+03    0.21925E+02   -0.13395E+02 39440   0.355E+01    0.231E+01
DAV:   7    -0.222314272793E+03   -0.15830E+01   -0.85825E+00 36704   0.103E+01    0.158E+01
DAV:   8    -0.222560949905E+03   -0.24668E+00   -0.12653E+00 36736   0.376E+00    0.730E+00
DAV:   9    -0.222880119870E+03   -0.31917E+00   -0.26245E+00 41008   0.348E+00    0.981E+00
DAV:  10    -0.222698784796E+03    0.18134E+00   -0.29397E+00 38992   0.256E+00    0.454E+00
DAV:  11    -0.222715088033E+03   -0.16303E-01   -0.11326E+00 39440   0.169E+00    0.502E+00
DAV:  12    -0.222678052553E+03    0.37035E-01   -0.48544E-01 39056   0.120E+00    0.182E+00
DAV:  13    -0.222679730981E+03   -0.16784E-02   -0.95743E-02 40288   0.599E-01    0.121E+00
DAV:  14    -0.222682750124E+03   -0.30191E-02   -0.34067E-02 37008   0.372E-01    0.645E-01
DAV:  15    -0.222684386848E+03   -0.16367E-02   -0.15369E-02 38800   0.359E-01    0.647E-01
DAV:  16    -0.222684598244E+03   -0.21140E-03   -0.71885E-03 38976   0.254E-01    0.425E-01
DAV:  17    -0.222684945685E+03   -0.34744E-03   -0.40982E-03 37888   0.201E-01    0.307E-01
DAV:  18    -0.222685264039E+03   -0.31835E-03   -0.17902E-03 37552   0.134E-01    0.292E-01
DAV:  19    -0.222685359492E+03   -0.95454E-04   -0.13827E-03 33408   0.985E-02    0.174E-01
DAV:  20    -0.222685440175E+03   -0.80682E-04   -0.72332E-04 35600   0.920E-02    0.115E-01
DAV:  21    -0.222685456916E+03   -0.16742E-04   -0.27649E-04 32448   0.627E-02    0.892E-02
DAV:  22    -0.222685443105E+03    0.13811E-04   -0.26961E-04 28000   0.398E-02    0.683E-02
DAV:  23    -0.222685435352E+03    0.77534E-05   -0.54733E-05 22608   0.276E-02
   1 F= -.22268544E+03 E0= -.22267187E+03  d E =-.222685E+03  mag=    22.0019
       N       E                     dE             d eps       ncg     rms          rms(c)
DAV:   1    -0.222685174861E+03    0.26824E-03   -0.24739E-01 30384   0.232E+00    0.315E-01
DAV:   2    -0.222686184566E+03   -0.10097E-02   -0.19932E-02 29408   0.452E-01    0.250E-01
DAV:   3    -0.222686563049E+03   -0.37848E-03   -0.88415E-03 40592   0.205E-01    0.599E-01
DAV:   4    -0.222685957861E+03    0.60519E-03   -0.75068E-03 39808   0.158E-01    0.172E-01
DAV:   5    -0.222686193573E+03   -0.23571E-03   -0.28178E-03 39328   0.117E-01    0.314E-01
DAV:   6    -0.222686061545E+03    0.13203E-03   -0.18187E-03 34192   0.848E-02    0.110E-01
DAV:   7    -0.222686061436E+03    0.10864E-06   -0.96191E-05 26528   0.417E-02
   2 F= -.22268606E+03 E0= -.22267253E+03  d E =-.626084E-03  mag=    22.0001
