       N       E                     dE             d eps       ncg     rms          rms(c)
DAV:   1     0.632526434525E+04    0.63253E+04   -0.28428E+05 36288   0.161E+03
DAV:   2     0.351932432825E+03   -0.59733E+04   -0.55983E+04 36944   0.477E+02
DAV:   3    -0.354297427239E+03   -0.70623E+03   -0.69334E+03 40384   0.170E+02
DAV:   4    -0.382715170472E+03   -0.28418E+02   -0.28273E+02 46704   0.314E+01
DAV:   5    -0.384794127324E+03   -0.20790E+01   -0.20771E+01 61088   0.603E+00    0.838E-01
DAV:   6    -0.385149389315E+03   -0.35526E+00   -0.77237E-01 49664   0.135E+00    0.418E+00
DAV:   7    -0.385123085007E+03    0.26304E-01   -0.21410E-01 46416   0.737E-01    0.253E+00
DAV:   8    -0.385118239907E+03    0.48451E-02   -0.46534E-02 47024   0.359E-01    0.103E+00
DAV:   9    -0.385117215566E+03    0.10243E-02   -0.12928E-02 48416   0.211E-01    0.763E-01
DAV:  10    -0.385116417558E+03    0.79801E-03   -0.51383E-03 48608   0.136E-01    0.376E-01
DAV:  11    -0.385116512240E+03   -0.94683E-04   -0.17539E-03 42128   0.826E-02    0.250E-01
DAV:  12    -0.385116598743E+03   -0.86503E-04   -0.34776E-04 43104   0.390E-02    0.260E-01
DAV:  13    -0.385116489851E+03    0.10889E-03   -0.25542E-04 34912   0.309E-02    0.156E-01
DAV:  14    -0.385116492043E+03   -0.21912E-05   -0.50275E-05 33504   0.167E-02
   1 F= -.38511649E+03 E0= -.38510430E+03  d E =-.385116E+03  mag=    46.0000
