       N       E                     dE             d eps       ncg     rms          rms(c)
DAV:   1     0.669799529298E+04    0.66980E+04   -0.27344E+05 36360   0.155E+03
DAV:   2     0.423477754778E+03   -0.62745E+04   -0.60190E+04 36640   0.479E+02
DAV:   3    -0.367198991666E+03   -0.79068E+03   -0.77188E+03 39368   0.179E+02
DAV:   4    -0.411872454991E+03   -0.44673E+02   -0.43344E+02 52528   0.431E+01
DAV:   5    -0.415401108041E+03   -0.35287E+01   -0.34723E+01 64176   0.865E+00    0.641E+01
DAV:   6    -0.353012537848E+03    0.62389E+02   -0.32601E+02 48464   0.393E+01    0.370E+01
DAV:   7    -0.372754553006E+03   -0.19742E+02   -0.46352E+01 48096   0.176E+01    0.223E+01
DAV:   8    -0.376689804497E+03   -0.39353E+01   -0.51893E+00 50400   0.578E+00    0.142E+01
DAV:   9    -0.381569961483E+03   -0.48802E+01   -0.31282E+00 40784   0.388E+00    0.554E+00
DAV:  10    -0.383664589139E+03   -0.20946E+01   -0.10213E+00 46488   0.193E+00    0.344E+00
DAV:  11    -0.385593018240E+03   -0.19284E+01   -0.80920E-01 42304   0.147E+00    0.266E+00
DAV:  12    -0.388436933659E+03   -0.28439E+01   -0.24152E+00 40416   0.203E+00    0.147E+00
DAV:  13    -0.389397081615E+03   -0.96015E+00   -0.10444E+00 43336   0.145E+00    0.694E-01
DAV:  14    -0.389499372561E+03   -0.10229E+00   -0.13498E-01 41776   0.665E-01    0.387E-01
DAV:  15    -0.389501543585E+03   -0.21710E-02   -0.15730E-02 51520   0.268E-01    0.196E-01
DAV:  16    -0.389500346073E+03    0.11975E-02   -0.68703E-03 40800   0.209E-01    0.141E-01
DAV:  17    -0.389500010502E+03    0.33557E-03   -0.13390E-03 41328   0.101E-01    0.838E-02
DAV:  18    -0.389499778707E+03    0.23179E-03   -0.76251E-04 39288   0.641E-02    0.343E-02
DAV:  19    -0.389499738335E+03    0.40373E-04   -0.27008E-04 37928   0.391E-02    0.291E-02
DAV:  20    -0.389499718113E+03    0.20222E-04   -0.49583E-05 35432   0.238E-02    0.119E-02
DAV:  21    -0.389499717650E+03    0.46251E-06   -0.47483E-05 34064   0.159E-02
   1 F= -.38949972E+03 E0= -.38949972E+03  d E =-.389500E+03  mag=    35.9996
       N       E                     dE             d eps       ncg     rms          rms(c)
DAV:   1    -0.389514833165E+03   -0.15115E-01   -0.83922E-03 38272   0.148E-01    0.216E-02
DAV:   2    -0.389514857774E+03   -0.24609E-04   -0.31124E-04 41232   0.292E-02    0.137E-02
DAV:   3    -0.389514857132E+03    0.64209E-06   -0.11440E-05 28696   0.690E-03    0.879E-03
DAV:   4    -0.389514856195E+03    0.93666E-06   -0.31995E-06 25136   0.565E-03
   2 F= -.38951486E+03 E0= -.38951486E+03  d E =-.151385E-01  mag=    35.9998
       N       E                     dE             d eps       ncg     rms          rms(c)
DAV:   1    -0.389891681753E+03   -0.37682E+00   -0.73097E+00 37240   0.436E+00    0.610E-01
DAV:   2    -0.389914624163E+03   -0.22942E-01   -0.27465E-01 42424   0.836E-01    0.392E-01
DAV:   3    -0.389914487933E+03    0.13623E-03   -0.11005E-02 57096   0.176E-01    0.250E-01
DAV:   4    -0.389913631858E+03    0.85607E-03   -0.13652E-03 49824   0.124E-01    0.110E-01
DAV:   5    -0.389913670032E+03   -0.38174E-04   -0.90612E-04 48512   0.800E-02    0.326E-02
DAV:   6    -0.389913675966E+03   -0.59335E-05   -0.21176E-04 43000   0.343E-02    0.229E-02
DAV:   7    -0.389913668731E+03    0.72347E-05   -0.22840E-05 34256   0.127E-02
   3 F= -.38991367E+03 E0= -.38991367E+03  d E =-.398813E+00  mag=    36.0000
       N       E                     dE             d eps       ncg     rms          rms(c)
DAV:   1    -0.390442611430E+03   -0.52894E+00   -0.45517E+01 37224   0.117E+01    0.151E+00
DAV:   2    -0.390612486284E+03   -0.16987E+00   -0.19280E+00 41248   0.229E+00    0.956E-01
DAV:   3    -0.390613540398E+03   -0.10541E-02   -0.72058E-02 59440   0.458E-01    0.607E-01
DAV:   4    -0.390608615616E+03    0.49248E-02   -0.89367E-03 50336   0.305E-01    0.292E-01
DAV:   5    -0.390608761301E+03   -0.14568E-03   -0.51183E-03 49032   0.206E-01    0.963E-02
DAV:   6    -0.390608766170E+03   -0.48693E-05   -0.16088E-03 45856   0.954E-02    0.557E-02
DAV:   7    -0.390608730473E+03    0.35698E-04   -0.20107E-04 47032   0.331E-02    0.305E-02
DAV:   8    -0.390608705913E+03    0.24560E-04   -0.37303E-05 37440   0.314E-02    0.182E-02
DAV:   9    -0.390608691875E+03    0.14037E-04   -0.27119E-05 35856   0.361E-02    0.744E-03
DAV:  10    -0.390608691692E+03    0.18269E-06   -0.43852E-05 40376   0.201E-02
   4 F= -.39060869E+03 E0= -.39060869E+03  d E =-.695023E+00  mag=    36.0000
       N       E                     dE             d eps       ncg     rms          rms(c)
DAV:   1    -0.390784868716E+03   -0.17618E+00   -0.66688E+01 37696   0.170E+01    0.195E+00
DAV:   2    -0.391071767291E+03   -0.28690E+00   -0.30709E+00 38480   0.319E+00    0.115E+00
DAV:   3    -0.391079103711E+03   -0.73364E-02   -0.95834E-02 60184   0.577E-01    0.724E-01
DAV:   4    -0.391074192323E+03    0.49114E-02   -0.12902E-02 52080   0.296E-01    0.391E-01
DAV:   5    -0.391074261113E+03   -0.68790E-04   -0.49143E-03 49736   0.216E-01    0.118E-01
DAV:   6    -0.391074327970E+03   -0.66857E-04   -0.23779E-03 47080   0.110E-01    0.655E-02
DAV:   7    -0.391074311673E+03    0.16298E-04   -0.26656E-04 46872   0.352E-02    0.343E-02
DAV:   8    -0.391074295992E+03    0.15680E-04   -0.47704E-05 41160   0.282E-02    0.209E-02
DAV:   9    -0.391074287532E+03    0.84600E-05   -0.23129E-05 35952   0.288E-02
   5 F= -.39107429E+03 E0= -.39107429E+03  d E =-.465596E+00  mag=    36.0000
       N       E                     dE             d eps       ncg     rms          rms(c)
DAV:   1    -0.390827127516E+03    0.24717E+00   -0.97881E+01 37704   0.240E+01    0.285E+00
DAV:   2    -0.391369525850E+03   -0.54240E+00   -0.55556E+00 37672   0.438E+00    0.150E+00
DAV:   3    -0.391394669127E+03   -0.25143E-01   -0.14714E-01 60120   0.777E-01    0.875E-01
DAV:   4    -0.391391509043E+03    0.31601E-02   -0.20002E-02 51464   0.307E-01    0.509E-01
DAV:   5    -0.391392315624E+03   -0.80658E-03   -0.47306E-03 48880   0.193E-01    0.146E-01
DAV:   6    -0.391392471113E+03   -0.15549E-03   -0.26060E-03 46904   0.115E-01    0.730E-02
DAV:   7    -0.391392501835E+03   -0.30722E-04   -0.31319E-04 49080   0.351E-02    0.388E-02
DAV:   8    -0.391392497988E+03    0.38464E-05   -0.54835E-05 41384   0.198E-02
   6 F= -.39139250E+03 E0= -.39139250E+03  d E =-.318210E+00  mag=    36.0000
       N       E                     dE             d eps       ncg     rms          rms(c)
DAV:   1    -0.390973203879E+03    0.41930E+00   -0.95567E+01 37648   0.249E+01    0.294E+00
DAV:   2    -0.391523799579E+03   -0.55060E+00   -0.55982E+00 36424   0.456E+00    0.148E+00
DAV:   3    -0.391552832242E+03   -0.29033E-01   -0.13386E-01 59440   0.784E-01    0.850E-01
DAV:   4    -0.391551156045E+03    0.16762E-02   -0.15200E-02 49360   0.278E-01    0.492E-01
DAV:   5    -0.391552460938E+03   -0.13049E-02   -0.40445E-03 46824   0.177E-01    0.133E-01
DAV:   6    -0.391552631053E+03   -0.17012E-03   -0.16517E-03 47040   0.916E-02    0.676E-02
DAV:   7    -0.391552652440E+03   -0.21387E-04   -0.22469E-04 49056   0.311E-02    0.369E-02
DAV:   8    -0.391552649229E+03    0.32111E-05   -0.33454E-05 35904   0.165E-02
   7 F= -.39155265E+03 E0= -.39155265E+03  d E =-.160151E+00  mag=    36.0000
       N       E                     dE             d eps       ncg     rms          rms(c)
DAV:   1    -0.390953714349E+03    0.59894E+00   -0.16628E+02 37152   0.320E+01    0.303E+00
DAV:   2    -0.391654268548E+03   -0.70055E+00   -0.72276E+00 35928   0.576E+00    0.163E+00
DAV:   3    -0.391675921914E+03   -0.21653E-01   -0.16523E-01 58248   0.932E-01    0.104E+00
DAV:   4    -0.391671195633E+03    0.47263E-02   -0.25237E-02 49448   0.372E-01    0.604E-01
DAV:   5    -0.391672001577E+03   -0.80594E-03   -0.66093E-03 44208   0.240E-01    0.176E-01
DAV:   6    -0.391672160677E+03   -0.15910E-03   -0.29130E-03 48472   0.130E-01    0.963E-02
DAV:   7    -0.391672203230E+03   -0.42553E-04   -0.53800E-04 46784   0.502E-02    0.506E-02
DAV:   8    -0.391672192997E+03    0.10233E-04   -0.60437E-05 42680   0.235E-02    0.322E-02
DAV:   9    -0.391672193196E+03   -0.19936E-06   -0.39435E-05 37696   0.187E-02
   8 F= -.39167219E+03 E0= -.39167219E+03  d E =-.119544E+00  mag=    36.0000
       N       E                     dE             d eps       ncg     rms          rms(c)
DAV:   1    -0.390470069465E+03    0.12021E+01   -0.24806E+02 38128   0.424E+01    0.426E+00
DAV:   2    -0.391704318309E+03   -0.12342E+01   -0.12495E+01 36408   0.748E+00    0.233E+00
DAV:   3    -0.391744123887E+03   -0.39806E-01   -0.24721E-01 51112   0.126E+00    0.144E+00
DAV:   4    -0.391736085398E+03    0.80385E-02   -0.52820E-02 50600   0.552E-01    0.893E-01
DAV:   5    -0.391735712432E+03    0.37297E-03   -0.14819E-02 46400   0.428E-01    0.236E-01
DAV:   6    -0.391736224040E+03   -0.51161E-03   -0.68473E-03 47408   0.199E-01    0.130E-01
DAV:   7    -0.391736263346E+03   -0.39306E-04   -0.12100E-03 48400   0.747E-02    0.648E-02
DAV:   8    -0.391736241407E+03    0.21939E-04   -0.17228E-04 52752   0.349E-02    0.438E-02
DAV:   9    -0.391736221226E+03    0.20180E-04   -0.50130E-05 41120   0.369E-02    0.172E-02
DAV:  10    -0.391736215653E+03    0.55734E-05   -0.47264E-05 38832   0.239E-02
   9 F= -.39173622E+03 E0= -.39173622E+03  d E =-.640225E-01  mag=    36.0000
       N       E                     dE             d eps       ncg     rms          rms(c)
DAV:   1    -0.391644288996E+03    0.91932E-01   -0.26900E+01 37600   0.145E+01    0.163E+00
DAV:   2    -0.391787801712E+03   -0.14351E+00   -0.15646E+00 36120   0.276E+00    0.862E-01
DAV:   3    -0.391794595146E+03   -0.67934E-02   -0.43706E-02 57688   0.506E-01    0.513E-01
DAV:   4    -0.391792908282E+03    0.16869E-02   -0.53163E-03 51920   0.251E-01    0.269E-01
DAV:   5    -0.391792934279E+03   -0.25997E-04   -0.20853E-03 47080   0.212E-01    0.733E-02
DAV:   6    -0.391793009804E+03   -0.75525E-04   -0.14815E-03 46608   0.963E-02    0.550E-02
DAV:   7    -0.391792982779E+03    0.27025E-04   -0.17883E-04 48304   0.281E-02    0.351E-02
DAV:   8    -0.391792948188E+03    0.34591E-04   -0.20981E-05 35856   0.347E-02    0.177E-02
DAV:   9    -0.391792924567E+03    0.23621E-04   -0.41906E-05 40464   0.497E-02    0.929E-03
DAV:  10    -0.391792925457E+03   -0.88915E-06   -0.56795E-05 41544   0.199E-02
  10 F= -.39179293E+03 E0= -.39179293E+03  d E =-.567098E-01  mag=    36.0000
       N       E                     dE             d eps       ncg     rms          rms(c)
DAV:   1    -0.391793324433E+03   -0.39987E-03   -0.45286E-01 38336   0.207E+00    0.210E-01
DAV:   2    -0.391795826875E+03   -0.25024E-02   -0.25511E-02 36648   0.370E-01    0.106E-01
DAV:   3    -0.391795999873E+03   -0.17300E-03   -0.52655E-04 52112   0.615E-02    0.621E-02
DAV:   4    -0.391795990932E+03    0.89419E-05   -0.53335E-05 45640   0.226E-02
  11 F= -.39179599E+03 E0= -.39179599E+03  d E =-.306548E-02  mag=    36.0000
       N       E                     dE             d eps       ncg     rms          rms(c)
DAV:   1    -0.391784894328E+03    0.11106E-01   -0.39325E+00 37200   0.568E+00    0.555E-01
DAV:   2    -0.391803847635E+03   -0.18953E-01   -0.19227E-01 36104   0.100E+00    0.269E-01
DAV:   3    -0.391804934364E+03   -0.10867E-02   -0.36080E-03 51256   0.154E-01    0.154E-01
DAV:   4    -0.391804882171E+03    0.52193E-04   -0.37435E-04 53632   0.488E-02    0.926E-02
DAV:   5    -0.391804923434E+03   -0.41264E-04   -0.17340E-04 45448   0.428E-02    0.235E-02
DAV:   6    -0.391804930169E+03   -0.67354E-05   -0.66037E-05 41504   0.189E-02
  12 F= -.39180493E+03 E0= -.39180493E+03  d E =-.893924E-02  mag=    36.0000
       N       E                     dE             d eps       ncg     rms          rms(c)
DAV:   1    -0.391762367041E+03    0.42556E-01   -0.13460E+01 37688   0.996E+00    0.904E-01
DAV:   2    -0.391817198994E+03   -0.54832E-01   -0.55743E-01 35824   0.172E+00    0.441E-01
DAV:   3    -0.391819661594E+03   -0.24626E-02   -0.10040E-02 51584   0.256E-01    0.257E-01
DAV:   4    -0.391819428941E+03    0.23265E-03   -0.11743E-03 52856   0.836E-02    0.154E-01
DAV:   5    -0.391819509128E+03   -0.80187E-04   -0.55818E-04 44000   0.707E-02    0.391E-02
DAV:   6    -0.391819531218E+03   -0.22090E-04   -0.19619E-04 44072   0.299E-02    0.237E-02
DAV:   7    -0.391819528862E+03    0.23562E-05   -0.26493E-05 31840   0.124E-02
  13 F= -.39181953E+03 E0= -.39181953E+03  d E =-.145987E-01  mag=    36.0000
       N       E                     dE             d eps       ncg     rms          rms(c)
DAV:   1    -0.391260048757E+03    0.55948E+00   -0.12656E+02 37096   0.310E+01    0.285E+00
DAV:   2    -0.391824809204E+03   -0.56476E+00   -0.56812E+00 35792   0.545E+00    0.143E+00
DAV:   3    -0.391847030408E+03   -0.22221E-01   -0.10948E-01 47896   0.870E-01    0.833E-01
DAV:   4    -0.391845037507E+03    0.19929E-02   -0.13756E-02 53040   0.281E-01    0.513E-01
DAV:   5    -0.391845738055E+03   -0.70055E-03   -0.58328E-03 42608   0.234E-01    0.131E-01
DAV:   6    -0.391846007439E+03   -0.26938E-03   -0.21184E-03 46280   0.996E-02    0.734E-02
DAV:   7    -0.391846016050E+03   -0.86110E-05   -0.28140E-04 51840   0.368E-02    0.426E-02
DAV:   8    -0.391846007764E+03    0.82863E-05   -0.37190E-05 34768   0.184E-02
  14 F= -.39184601E+03 E0= -.39184601E+03  d E =-.264789E-01  mag=    36.0000
       N       E                     dE             d eps       ncg     rms          rms(c)
DAV:   1    -0.391821352428E+03    0.24664E-01   -0.35195E+00 38248   0.654E+00    0.822E-01
DAV:   2    -0.391854079661E+03   -0.32727E-01   -0.33567E-01 35872   0.123E+00    0.403E-01
DAV:   3    -0.391857388157E+03   -0.33085E-02   -0.71529E-03 49056   0.220E-01    0.215E-01
DAV:   4    -0.391857448142E+03   -0.59985E-04   -0.77493E-04 53360   0.691E-02    0.123E-01
DAV:   5    -0.391857594323E+03   -0.14618E-03   -0.25540E-04 41632   0.505E-02    0.313E-02
DAV:   6    -0.391857604028E+03   -0.97051E-05   -0.79742E-05 45112   0.229E-02
  15 F= -.39185760E+03 E0= -.39185760E+03  d E =-.115963E-01  mag=    36.0000
       N       E                     dE             d eps       ncg     rms          rms(c)
DAV:   1    -0.391855126722E+03    0.24676E-02   -0.25373E-01 38624   0.169E+00    0.217E-01
DAV:   2    -0.391857392369E+03   -0.22656E-02   -0.22856E-02 36576   0.311E-01    0.105E-01
DAV:   3    -0.391857627708E+03   -0.23534E-03   -0.44108E-04 44928   0.543E-02    0.560E-02
DAV:   4    -0.391857635116E+03   -0.74081E-05   -0.41522E-05 40784   0.168E-02
  16 F= -.39185764E+03 E0= -.39185764E+03  d E =-.310881E-04  mag=    36.0000
       N       E                     dE             d eps       ncg     rms          rms(c)
DAV:   1    -0.391836839877E+03    0.20788E-01   -0.25482E+00 38752   0.512E+00    0.603E-01
DAV:   2    -0.391855434719E+03   -0.18595E-01   -0.18666E-01 35896   0.920E-01    0.295E-01
DAV:   3    -0.391857158989E+03   -0.17243E-02   -0.34989E-03 44528   0.153E-01    0.160E-01
DAV:   4    -0.391857198300E+03   -0.39311E-04   -0.35749E-04 59280   0.466E-02    0.958E-02
DAV:   5    -0.391857277828E+03   -0.79528E-04   -0.14447E-04 45240   0.390E-02    0.250E-02
DAV:   6    -0.391857283082E+03   -0.52539E-05   -0.43550E-05 40120   0.175E-02
  17 F= -.39185728E+03 E0= -.39185728E+03  d E =0.352035E-03  mag=    36.0000
       N       E                     dE             d eps       ncg     rms          rms(c)
DAV:   1    -0.391850358562E+03    0.69193E-02   -0.21906E+00 37488   0.404E+00    0.369E-01
DAV:   2    -0.391859358471E+03   -0.89999E-02   -0.90782E-02 35928   0.699E-01    0.179E-01
DAV:   3    -0.391859795517E+03   -0.43705E-03   -0.15869E-03 47968   0.103E-01    0.103E-01
DAV:   4    -0.391859769555E+03    0.25961E-04   -0.17145E-04 56400   0.324E-02    0.628E-02
DAV:   5    -0.391859782531E+03   -0.12976E-04   -0.88677E-05 41536   0.299E-02    0.153E-02
DAV:   6    -0.391859786670E+03   -0.41396E-05   -0.32865E-05 33176   0.128E-02
  18 F= -.39185979E+03 E0= -.39185979E+03  d E =-.250359E-02  mag=    36.0000
       N       E                     dE             d eps       ncg     rms          rms(c)
DAV:   1    -0.391675310304E+03    0.18447E+00   -0.45156E+01 37872   0.184E+01    0.175E+00
DAV:   2    -0.391870293412E+03   -0.19498E+00   -0.19579E+00 35776   0.317E+00    0.844E-01
DAV:   3    -0.391879948272E+03   -0.96549E-02   -0.35013E-02 46712   0.483E-01    0.472E-01
DAV:   4    -0.391879539511E+03    0.40876E-03   -0.39876E-03 56104   0.147E-01    0.284E-01
DAV:   5    -0.391879915469E+03   -0.37596E-03   -0.17985E-03 41408   0.123E-01    0.760E-02
DAV:   6    -0.391879993574E+03   -0.78105E-04   -0.58744E-04 43880   0.516E-02    0.406E-02
DAV:   7    -0.391879989425E+03    0.41489E-05   -0.67648E-05 43056   0.191E-02
  19 F= -.39187999E+03 E0= -.39187999E+03  d E =-.202028E-01  mag=    36.0000
       N       E                     dE             d eps       ncg     rms          rms(c)
DAV:   1    -0.391565705754E+03    0.31429E+00   -0.57843E+01 37904   0.231E+01    0.236E+00
DAV:   2    -0.391884261852E+03   -0.31856E+00   -0.32266E+00 35784   0.420E+00    0.119E+00
DAV:   3    -0.391904424831E+03   -0.20163E-01   -0.65515E-02 51592   0.683E-01    0.683E-01
DAV:   4    -0.391903475678E+03    0.94915E-03   -0.74349E-03 52784   0.237E-01    0.405E-01
DAV:   5    -0.391904097223E+03   -0.62154E-03   -0.29202E-03 47168   0.230E-01    0.107E-01
DAV:   6    -0.391904223690E+03   -0.12647E-03   -0.18031E-03 46704   0.109E-01    0.610E-02
DAV:   7    -0.391904210183E+03    0.13507E-04   -0.30600E-04 49448   0.405E-02    0.336E-02
DAV:   8    -0.391904197223E+03    0.12961E-04   -0.34649E-05 39032   0.240E-02    0.221E-02
DAV:   9    -0.391904186980E+03    0.10243E-04   -0.13427E-05 29992   0.298E-02    0.886E-03
DAV:  10    -0.391904186351E+03    0.62944E-06   -0.28606E-05 37168   0.167E-02
  20 F= -.39190419E+03 E0= -.39190419E+03  d E =-.241969E-01  mag=    36.0000
       N       E                     dE             d eps       ncg     rms          rms(c)
DAV:   1    -0.391815785423E+03    0.88402E-01   -0.80203E+00 38688   0.997E+00    0.140E+00
DAV:   2    -0.391900408467E+03   -0.84623E-01   -0.85217E-01 35976   0.189E+00    0.692E-01
DAV:   3    -0.391909814225E+03   -0.94058E-02   -0.19153E-02 48712   0.371E-01    0.363E-01
DAV:   4    -0.391909964245E+03   -0.15002E-03   -0.17592E-03 56272   0.141E-01    0.210E-01
DAV:   5    -0.391910245361E+03   -0.28112E-03   -0.63434E-04 47976   0.142E-01    0.552E-02
DAV:   6    -0.391910278166E+03   -0.32805E-04   -0.57683E-04 45624   0.666E-02    0.325E-02
DAV:   7    -0.391910273220E+03    0.49467E-05   -0.10232E-04 45360   0.223E-02    0.198E-02
DAV:   8    -0.391910265833E+03    0.73865E-05   -0.10480E-05 28176   0.155E-02
  21 F= -.39191027E+03 E0= -.39191027E+03  d E =-.607948E-02  mag=    36.0000
       N       E                     dE             d eps       ncg     rms          rms(c)
DAV:   1    -0.391893786656E+03    0.16487E-01   -0.14472E+00 39320   0.428E+00    0.603E-01
DAV:   2    -0.391909950829E+03   -0.16164E-01   -0.16008E-01 36512   0.800E-01    0.299E-01
DAV:   3    -0.391911789182E+03   -0.18384E-02   -0.32856E-03 46488   0.152E-01    0.157E-01
DAV:   4    -0.391911838286E+03   -0.49104E-04   -0.28887E-04 57136   0.515E-02    0.920E-02
DAV:   5    -0.391911908122E+03   -0.69836E-04   -0.11457E-04 45936   0.534E-02    0.242E-02
DAV:   6    -0.391911913406E+03   -0.52839E-05   -0.78742E-05 43352   0.247E-02
  22 F= -.39191191E+03 E0= -.39191191E+03  d E =-.164757E-02  mag=    36.0000
       N       E                     dE             d eps       ncg     rms          rms(c)
DAV:   1    -0.391913107149E+03   -0.11990E-02   -0.28055E-01 38232   0.177E+00    0.224E-01
DAV:   2    -0.391915731030E+03   -0.26239E-02   -0.26225E-02 36616   0.337E-01    0.114E-01
DAV:   3    -0.391915926496E+03   -0.19547E-03   -0.51999E-04 47632   0.585E-02    0.633E-02
DAV:   4    -0.391915924781E+03    0.17143E-05   -0.41099E-05 39488   0.222E-02
  23 F= -.39191592E+03 E0= -.39191592E+03  d E =-.401138E-02  mag=    36.0000
       N       E                     dE             d eps       ncg     rms          rms(c)
DAV:   1    -0.391907849629E+03    0.80769E-02   -0.23646E+00 37712   0.464E+00    0.463E-01
DAV:   2    -0.391920408540E+03   -0.12559E-01   -0.12698E-01 35920   0.834E-01    0.236E-01
DAV:   3    -0.391921083607E+03   -0.67507E-03   -0.24361E-03 51408   0.131E-01    0.139E-01
DAV:   4    -0.391921036282E+03    0.47326E-04   -0.26424E-04 56848   0.490E-02    0.830E-02
DAV:   5    -0.391921041918E+03   -0.56363E-05   -0.11391E-04 44688   0.543E-02    0.210E-02
DAV:   6    -0.391921048794E+03   -0.68762E-05   -0.96127E-05 42408   0.243E-02
  24 F= -.39192105E+03 E0= -.39192105E+03  d E =-.512401E-02  mag=    36.0000
       N       E                     dE             d eps       ncg     rms          rms(c)
DAV:   1    -0.391913685096E+03    0.73568E-02   -0.59418E-01 37712   0.227E+00    0.223E-01
DAV:   2    -0.391916569490E+03   -0.28844E-02   -0.29824E-02 35920   0.406E-01    0.107E-01
DAV:   3    -0.391916726172E+03   -0.15668E-03   -0.54637E-04 50072   0.632E-02    0.617E-02
DAV:   4    -0.391916717717E+03    0.84553E-05   -0.59576E-05 46544   0.220E-02
  25 F= -.39191672E+03 E0= -.39191672E+03  d E =0.433108E-02  mag=    36.0000
       N       E                     dE             d eps       ncg     rms          rms(c)
DAV:   1    -0.391862348978E+03    0.54377E-01   -0.80574E+00 37824   0.815E+00    0.797E-01
DAV:   2    -0.391900215094E+03   -0.37866E-01   -0.38659E-01 35776   0.144E+00    0.383E-01
DAV:   3    -0.391901897229E+03   -0.16821E-02   -0.67183E-03 48848   0.214E-01    0.218E-01
DAV:   4    -0.391901791773E+03    0.10546E-03   -0.81419E-04 54944   0.718E-02    0.122E-01
DAV:   5    -0.391901860667E+03   -0.68893E-04   -0.31152E-04 44744   0.521E-02    0.321E-02
DAV:   6    -0.391901869854E+03   -0.91876E-05   -0.88581E-05 40600   0.218E-02
  26 F= -.39190187E+03 E0= -.39190187E+03  d E =0.148479E-01  mag=    36.0000
       N       E                     dE             d eps       ncg     rms          rms(c)
DAV:   1    -0.391554663347E+03    0.34720E+00   -0.80180E+01 37912   0.240E+01    0.215E+00
DAV:   2    -0.391869868361E+03   -0.31521E+00   -0.31946E+00 35776   0.419E+00    0.105E+00
DAV:   3    -0.391880866960E+03   -0.10999E-01   -0.56214E-02 48656   0.617E-01    0.605E-01
DAV:   4    -0.391879595777E+03    0.12712E-02   -0.76634E-03 53800   0.212E-01    0.351E-01
DAV:   5    -0.391879940350E+03   -0.34457E-03   -0.28998E-03 43992   0.163E-01    0.984E-02
DAV:   6    -0.391880057410E+03   -0.11706E-03   -0.10334E-03 45344   0.706E-02    0.555E-02
DAV:   7    -0.391880055207E+03    0.22031E-05   -0.13962E-04 48184   0.263E-02    0.311E-02
DAV:   8    -0.391880049751E+03    0.54566E-05   -0.16264E-05 27112   0.153E-02
  27 F= -.39188005E+03 E0= -.39188005E+03  d E =0.218201E-01  mag=    36.0000
       N       E                     dE             d eps       ncg     rms          rms(c)
DAV:   1    -0.390382657476E+03    0.14974E+01   -0.10156E+02 38904   0.353E+01    0.521E+00
DAV:   2    -0.391716341055E+03   -0.13337E+01   -0.12914E+01 36000   0.688E+00    0.261E+00
DAV:   3    -0.391810757931E+03   -0.94417E-01   -0.23230E-01 47392   0.119E+00    0.135E+00
DAV:   4    -0.391812861403E+03   -0.21035E-02   -0.19625E-02 52200   0.419E-01    0.803E-01
DAV:   5    -0.391816212640E+03   -0.33512E-02   -0.72941E-03 47352   0.406E-01    0.211E-01
DAV:   6    -0.391816567722E+03   -0.35508E-03   -0.45472E-03 45360   0.200E-01    0.100E-01
DAV:   7    -0.391816522035E+03    0.45687E-04   -0.93571E-04 45752   0.755E-02    0.562E-02
DAV:   8    -0.391816475769E+03    0.46266E-04   -0.13284E-04 49152   0.485E-02    0.399E-02
DAV:   9    -0.391816432759E+03    0.43010E-04   -0.48083E-05 41032   0.576E-02    0.204E-02
DAV:  10    -0.391816421203E+03    0.11556E-04   -0.76216E-05 45752   0.453E-02    0.128E-02
DAV:  11    -0.391816425760E+03   -0.45567E-05   -0.80132E-05 39608   0.224E-02
  28 F= -.39181643E+03 E0= -.39181643E+03  d E =0.636240E-01  mag=    36.0000
       N       E                     dE             d eps       ncg     rms          rms(c)
DAV:   1    -0.391431619854E+03    0.38480E+00   -0.32220E+01 39568   0.187E+01    0.298E+00
DAV:   2    -0.391889263890E+03   -0.45764E+00   -0.44112E+00 36144   0.378E+00    0.174E+00
DAV:   3    -0.391924404693E+03   -0.35141E-01   -0.78346E-02 46168   0.638E-01    0.947E-01
DAV:   4    -0.391925379427E+03   -0.97473E-03   -0.66563E-03 49904   0.252E-01    0.578E-01
DAV:   5    -0.391926986394E+03   -0.16070E-02   -0.30283E-03 46200   0.279E-01    0.126E-01
DAV:   6    -0.391927135537E+03   -0.14914E-03   -0.20579E-03 44568   0.120E-01    0.680E-02
DAV:   7    -0.391927108655E+03    0.26881E-04   -0.30957E-04 46040   0.396E-02    0.388E-02
DAV:   8    -0.391927085749E+03    0.22906E-04   -0.37794E-05 40536   0.247E-02    0.260E-02
DAV:   9    -0.391927067402E+03    0.18347E-04   -0.11474E-05 29584   0.329E-02    0.130E-02
DAV:  10    -0.391927061449E+03    0.59529E-05   -0.32340E-05 38736   0.258E-02
  29 F= -.39192706E+03 E0= -.39192706E+03  d E =-.110636E+00  mag=    36.0000
       N       E                     dE             d eps       ncg     rms          rms(c)
DAV:   1    -0.391830432476E+03    0.96635E-01   -0.73032E+00 39144   0.913E+00    0.142E+00
DAV:   2    -0.391929241674E+03   -0.98809E-01   -0.95329E-01 36368   0.179E+00    0.728E-01
DAV:   3    -0.391937488393E+03   -0.82467E-02   -0.17721E-02 46464   0.320E-01    0.377E-01
DAV:   4    -0.391937634929E+03   -0.14654E-03   -0.13720E-03 49840   0.124E-01    0.228E-01
DAV:   5    -0.391937929590E+03   -0.29466E-03   -0.61693E-04 47224   0.139E-01    0.527E-02
DAV:   6    -0.391937965259E+03   -0.35668E-04   -0.51577E-04 45128   0.610E-02    0.334E-02
DAV:   7    -0.391937959763E+03    0.54954E-05   -0.76914E-05 42960   0.193E-02
  30 F= -.39193796E+03 E0= -.39193796E+03  d E =-.108983E-01  mag=    36.0000
       N       E                     dE             d eps       ncg     rms          rms(c)
DAV:   1    -0.391939653488E+03   -0.16882E-02   -0.18407E-01 37992   0.129E+00    0.134E-01
DAV:   2    -0.391940646728E+03   -0.99324E-03   -0.10426E-02 36840   0.244E-01    0.803E-02
DAV:   3    -0.391940714189E+03   -0.67461E-04   -0.22364E-04 48488   0.427E-02    0.504E-02
DAV:   4    -0.391940702444E+03    0.11745E-04   -0.20450E-05 34688   0.209E-02    0.290E-02
DAV:   5    -0.391940700868E+03    0.15764E-05   -0.19822E-05 33672   0.262E-02
  31 F= -.39194070E+03 E0= -.39194070E+03  d E =-.274110E-02  mag=    36.0000
       N       E                     dE             d eps       ncg     rms          rms(c)
DAV:   1    -0.391940100196E+03    0.60225E-03   -0.17114E+00 37024   0.361E+00    0.369E-01
DAV:   2    -0.391948533350E+03   -0.84332E-02   -0.87230E-02 36456   0.675E-01    0.220E-01
DAV:   3    -0.391948882284E+03   -0.34893E-03   -0.16503E-03 48464   0.104E-01    0.139E-01
DAV:   4    -0.391948815597E+03    0.66687E-04   -0.20798E-04 55568   0.436E-02    0.804E-02
DAV:   5    -0.391948824483E+03   -0.88853E-05   -0.10606E-04 44160   0.403E-02    0.168E-02
DAV:   6    -0.391948828378E+03   -0.38957E-05   -0.61810E-05 40256   0.189E-02
  32 F= -.39194883E+03 E0= -.39194883E+03  d E =-.812751E-02  mag=    36.0000
       N       E                     dE             d eps       ncg     rms          rms(c)
DAV:   1    -0.391947689870E+03    0.11346E-02   -0.15588E-01 38360   0.128E+00    0.145E-01
DAV:   2    -0.391948760334E+03   -0.10705E-02   -0.10656E-02 36488   0.232E-01    0.689E-02
DAV:   3    -0.391948824436E+03   -0.64102E-04   -0.18647E-04 48664   0.358E-02    0.375E-02
DAV:   4    -0.391948823721E+03    0.71538E-06   -0.15757E-05 29448   0.117E-02
  33 F= -.39194882E+03 E0= -.39194882E+03  d E =0.465754E-05  mag=    36.0000
       N       E                     dE             d eps       ncg     rms          rms(c)
DAV:   1    -0.391938057858E+03    0.10767E-01   -0.11578E+00 38272   0.342E+00    0.367E-01
DAV:   2    -0.391945275217E+03   -0.72174E-02   -0.72597E-02 35992   0.615E-01    0.177E-01
DAV:   3    -0.391945636313E+03   -0.36110E-03   -0.12777E-03 52760   0.919E-02    0.988E-02
DAV:   4    -0.391945624814E+03    0.11498E-04   -0.13962E-04 52256   0.307E-02    0.551E-02
DAV:   5    -0.391945637280E+03   -0.12466E-04   -0.45216E-05 41288   0.227E-02    0.140E-02
DAV:   6    -0.391945638868E+03   -0.15883E-05   -0.15190E-05 23904   0.106E-02
  34 F= -.39194564E+03 E0= -.39194564E+03  d E =0.318485E-02  mag=    36.0000
       N       E                     dE             d eps       ncg     rms          rms(c)
DAV:   1    -0.391927815886E+03    0.17821E-01   -0.21125E+00 38256   0.435E+00    0.430E-01
DAV:   2    -0.391938370039E+03   -0.10554E-01   -0.10752E-01 35792   0.770E-01    0.205E-01
DAV:   3    -0.391938869429E+03   -0.49939E-03   -0.18178E-03 50184   0.113E-01    0.115E-01
DAV:   4    -0.391938844368E+03    0.25062E-04   -0.21988E-04 55536   0.363E-02    0.634E-02
DAV:   5    -0.391938864049E+03   -0.19681E-04   -0.79388E-05 41192   0.248E-02    0.169E-02
DAV:   6    -0.391938866407E+03   -0.23583E-05   -0.17178E-05 27064   0.103E-02
  35 F= -.39193887E+03 E0= -.39193887E+03  d E =0.677246E-02  mag=    36.0000
       N       E                     dE             d eps       ncg     rms          rms(c)
DAV:   1    -0.391630657108E+03    0.30821E+00   -0.52307E+01 38008   0.218E+01    0.214E+00
DAV:   2    -0.391902218135E+03   -0.27156E+00   -0.26928E+00 35776   0.383E+00    0.102E+00
DAV:   3    -0.391914785183E+03   -0.12567E-01   -0.45557E-02 48704   0.563E-01    0.560E-01
DAV:   4    -0.391914339230E+03    0.44595E-03   -0.49457E-03 54144   0.177E-01    0.328E-01
DAV:   5    -0.391914787138E+03   -0.44791E-03   -0.20188E-03 44504   0.142E-01    0.875E-02
DAV:   6    -0.391914873996E+03   -0.86858E-04   -0.71203E-04 46704   0.611E-02    0.450E-02
DAV:   7    -0.391914865322E+03    0.86741E-05   -0.93640E-05 44120   0.234E-02
  36 F= -.39191487E+03 E0= -.39191487E+03  d E =0.240011E-01  mag=    36.0000
       N       E                     dE             d eps       ncg     rms          rms(c)
DAV:   1    -0.391600538291E+03    0.31434E+00   -0.62169E+01 38192   0.228E+01    0.218E+00
DAV:   2    -0.391893174863E+03   -0.29264E+00   -0.28977E+00 35776   0.394E+00    0.105E+00
DAV:   3    -0.391907185939E+03   -0.14011E-01   -0.49956E-02 47272   0.582E-01    0.575E-01
DAV:   4    -0.391906737513E+03    0.44843E-03   -0.55929E-03 55640   0.175E-01    0.345E-01
DAV:   5    -0.391907275739E+03   -0.53823E-03   -0.24136E-03 42272   0.145E-01    0.931E-02
DAV:   6    -0.391907386559E+03   -0.11082E-03   -0.78008E-04 44840   0.604E-02    0.474E-02
DAV:   7    -0.391907381321E+03    0.52381E-05   -0.93598E-05 44552   0.226E-02
  37 F= -.39190738E+03 E0= -.39190738E+03  d E =0.748400E-02  mag=    36.0000
       N       E                     dE             d eps       ncg     rms          rms(c)
DAV:   1    -0.391723344983E+03    0.18404E+00   -0.25900E+01 38224   0.164E+01    0.178E+00
DAV:   2    -0.391891140669E+03   -0.16780E+00   -0.16964E+00 35912   0.297E+00    0.898E-01
DAV:   3    -0.391904980329E+03   -0.13840E-01   -0.36818E-02 44696   0.542E-01    0.488E-01
DAV:   4    -0.391904748084E+03    0.23224E-03   -0.36339E-03 57512   0.203E-01    0.298E-01
DAV:   5    -0.391905088351E+03   -0.34027E-03   -0.16075E-03 47376   0.226E-01    0.807E-02
DAV:   6    -0.391905180313E+03   -0.91961E-04   -0.14706E-03 45216   0.102E-01    0.508E-02
DAV:   7    -0.391905171047E+03    0.92655E-05   -0.22411E-04 48648   0.322E-02    0.341E-02
DAV:   8    -0.391905151368E+03    0.19680E-04   -0.29375E-05 37416   0.229E-02    0.224E-02
DAV:   9    -0.391905136769E+03    0.14598E-04   -0.19143E-05 32008   0.341E-02    0.109E-02
DAV:  10    -0.391905134795E+03    0.19742E-05   -0.30935E-05 39112   0.226E-02
  38 F= -.39190513E+03 E0= -.39190513E+03  d E =0.224653E-02  mag=    36.0000
       N       E                     dE             d eps       ncg     rms          rms(c)
DAV:   1    -0.391826906822E+03    0.78230E-01   -0.13142E+01 38040   0.118E+01    0.136E+00
DAV:   2    -0.391920791399E+03   -0.93885E-01   -0.94948E-01 35896   0.216E+00    0.666E-01
DAV:   3    -0.391929369608E+03   -0.85782E-02   -0.20927E-02 44712   0.406E-01    0.352E-01
DAV:   4    -0.391929425891E+03   -0.56283E-04   -0.17779E-03 56464   0.139E-01    0.213E-01
DAV:   5    -0.391929690237E+03   -0.26435E-03   -0.75696E-04 47008   0.151E-01    0.555E-02
DAV:   6    -0.391929736895E+03   -0.46657E-04   -0.67478E-04 45192   0.721E-02    0.348E-02
DAV:   7    -0.391929734220E+03    0.26744E-05   -0.11421E-04 46488   0.230E-02    0.240E-02
DAV:   8    -0.391929725691E+03    0.85294E-05   -0.14506E-05 29440   0.157E-02
  39 F= -.39192973E+03 E0= -.39192973E+03  d E =-.245909E-01  mag=    36.0000
       N       E                     dE             d eps       ncg     rms          rms(c)
DAV:   1    -0.391913671066E+03    0.16063E-01   -0.29357E+00 38848   0.556E+00    0.618E-01
DAV:   2    -0.391934143839E+03   -0.20473E-01   -0.19962E-01 36128   0.984E-01    0.295E-01
DAV:   3    -0.391935391830E+03   -0.12480E-02   -0.33409E-03 47248   0.150E-01    0.157E-01
DAV:   4    -0.391935401846E+03   -0.10016E-04   -0.30746E-04 54728   0.444E-02    0.933E-02
DAV:   5    -0.391935452044E+03   -0.50198E-04   -0.12930E-04 44088   0.397E-02    0.258E-02
DAV:   6    -0.391935458109E+03   -0.60657E-05   -0.53652E-05 40416   0.182E-02
  40 F= -.39193546E+03 E0= -.39193546E+03  d E =-.573242E-02  mag=    36.0000
       N       E                     dE             d eps       ncg     rms          rms(c)
DAV:   1    -0.391658393247E+03    0.27706E+00   -0.60483E+01 38088   0.232E+01    0.222E+00
DAV:   2    -0.391951775954E+03   -0.29338E+00   -0.29623E+00 35776   0.409E+00    0.107E+00
DAV:   3    -0.391965779008E+03   -0.14003E-01   -0.51153E-02 50352   0.608E-01    0.597E-01
DAV:   4    -0.391964947470E+03    0.83154E-03   -0.56913E-03 54280   0.190E-01    0.341E-01
DAV:   5    -0.391965421176E+03   -0.47371E-03   -0.24205E-03 45760   0.152E-01    0.912E-02
DAV:   6    -0.391965521261E+03   -0.10009E-03   -0.86157E-04 47048   0.675E-02    0.485E-02
DAV:   7    -0.391965514599E+03    0.66615E-05   -0.10908E-04 49912   0.243E-02    0.284E-02
DAV:   8    -0.391965509188E+03    0.54109E-05   -0.12797E-05 27624   0.147E-02
  41 F= -.39196551E+03 E0= -.39196551E+03  d E =-.300511E-01  mag=    36.0000
       N       E                     dE             d eps       ncg     rms          rms(c)
DAV:   1    -0.390898889718E+03    0.10666E+01   -0.19910E+02 37776   0.430E+01    0.432E+00
DAV:   2    -0.391996185054E+03   -0.10973E+01   -0.11145E+01 35776   0.780E+00    0.214E+00
DAV:   3    -0.392044740247E+03   -0.48555E-01   -0.19639E-01 50792   0.121E+00    0.122E+00
DAV:   4    -0.392041050496E+03    0.36898E-02   -0.25811E-02 51256   0.431E-01    0.680E-01
DAV:   5    -0.392042909261E+03   -0.18588E-02   -0.89090E-03 48752   0.310E-01    0.188E-01
DAV:   6    -0.392043184074E+03   -0.27481E-03   -0.29947E-03 46568   0.133E-01    0.951E-02
DAV:   7    -0.392043168861E+03    0.15213E-04   -0.51986E-04 52552   0.519E-02    0.503E-02
DAV:   8    -0.392043153139E+03    0.15722E-04   -0.81430E-05 48848   0.304E-02    0.272E-02
DAV:   9    -0.392043148218E+03    0.49213E-05   -0.30385E-05 36272   0.258E-02
  42 F= -.39204315E+03 E0= -.39204315E+03  d E =-.776390E-01  mag=    36.0000
       N       E                     dE             d eps       ncg     rms          rms(c)
DAV:   1    -0.391587520213E+03    0.45563E+00   -0.81211E+01 37464   0.270E+01    0.267E+00
DAV:   2    -0.392003267124E+03   -0.41575E+00   -0.41794E+00 35800   0.480E+00    0.130E+00
DAV:   3    -0.392024640401E+03   -0.21373E-01   -0.75157E-02 49600   0.739E-01    0.723E-01
DAV:   4    -0.392023479967E+03    0.11604E-02   -0.84452E-03 52816   0.235E-01    0.417E-01
DAV:   5    -0.392024266045E+03   -0.78608E-03   -0.35795E-03 45840   0.180E-01    0.112E-01
DAV:   6    -0.392024394688E+03   -0.12864E-03   -0.11565E-03 46904   0.797E-02    0.567E-02
DAV:   7    -0.392024390550E+03    0.41383E-05   -0.19817E-04 51176   0.327E-02    0.312E-02
DAV:   8    -0.392024385960E+03    0.45895E-05   -0.24771E-05 31808   0.162E-02
  43 F= -.39202439E+03 E0= -.39202439E+03  d E =0.187623E-01  mag=    36.0000
       N       E                     dE             d eps       ncg     rms          rms(c)
DAV:   1    -0.391242414991E+03    0.78198E+00   -0.10791E+02 38000   0.326E+01    0.341E+00
DAV:   2    -0.391907978344E+03   -0.66556E+00   -0.67214E+00 35776   0.591E+00    0.166E+00
DAV:   3    -0.391938361146E+03   -0.30383E-01   -0.11642E-01 52512   0.896E-01    0.943E-01
DAV:   4    -0.391936465924E+03    0.18952E-02   -0.14075E-02 50608   0.306E-01    0.521E-01
DAV:   5    -0.391937560274E+03   -0.10943E-02   -0.47678E-03 46416   0.214E-01    0.143E-01
DAV:   6    -0.391937699739E+03   -0.13947E-03   -0.16244E-03 47208   0.988E-02    0.672E-02
DAV:   7    -0.391937695005E+03    0.47341E-05   -0.29270E-04 54080   0.386E-02    0.368E-02
DAV:   8    -0.391937687048E+03    0.79565E-05   -0.37672E-05 37264   0.213E-02
  44 F= -.39193769E+03 E0= -.39193769E+03  d E =0.866989E-01  mag=    36.0000
       N       E                     dE             d eps       ncg     rms          rms(c)
DAV:   1    -0.391749302115E+03    0.18839E+00   -0.33366E+01 37704   0.187E+01    0.199E+00
DAV:   2    -0.391964370811E+03   -0.21507E+00   -0.21397E+00 35776   0.336E+00    0.978E-01
DAV:   3    -0.391976539843E+03   -0.12169E-01   -0.38038E-02 50280   0.516E-01    0.546E-01
DAV:   4    -0.391976285649E+03    0.25419E-03   -0.37025E-03 54544   0.158E-01    0.316E-01
DAV:   5    -0.391976779949E+03   -0.49430E-03   -0.16127E-03 44456   0.127E-01    0.798E-02
DAV:   6    -0.391976832909E+03   -0.52960E-04   -0.52741E-04 44880   0.563E-02    0.380E-02
DAV:   7    -0.391976827344E+03    0.55648E-05   -0.87964E-05 44936   0.225E-02
  45 F= -.39197683E+03 E0= -.39197683E+03  d E =-.391403E-01  mag=    36.0000
       N       E                     dE             d eps       ncg     rms          rms(c)
DAV:   1    -0.391798656739E+03    0.17818E+00   -0.34664E+01 38088   0.185E+01    0.192E+00
DAV:   2    -0.392004229407E+03   -0.20557E+00   -0.20612E+00 35776   0.332E+00    0.932E-01
DAV:   3    -0.392014462935E+03   -0.10234E-01   -0.35080E-02 49240   0.503E-01    0.524E-01
DAV:   4    -0.392013979978E+03    0.48296E-03   -0.40009E-03 54832   0.176E-01    0.297E-01
DAV:   5    -0.392014292699E+03   -0.31272E-03   -0.15535E-03 46848   0.146E-01    0.789E-02
DAV:   6    -0.392014358544E+03   -0.65845E-04   -0.67301E-04 46152   0.623E-02    0.401E-02
DAV:   7    -0.392014348840E+03    0.97031E-05   -0.87456E-05 47688   0.220E-02
  46 F= -.39201435E+03 E0= -.39201435E+03  d E =-.375215E-01  mag=    36.0000
       N       E                     dE             d eps       ncg     rms          rms(c)
DAV:   1    -0.391946575162E+03    0.67783E-01   -0.69873E+00 37872   0.856E+00    0.933E-01
DAV:   2    -0.391993635797E+03   -0.47061E-01   -0.47065E-01 35840   0.155E+00    0.459E-01
DAV:   3    -0.391996293816E+03   -0.26580E-02   -0.79776E-03 49360   0.237E-01    0.259E-01
DAV:   4    -0.391996208084E+03    0.85732E-04   -0.87598E-04 54376   0.764E-02    0.147E-01
DAV:   5    -0.391996301141E+03   -0.93057E-04   -0.36764E-04 46624   0.606E-02    0.382E-02
DAV:   6    -0.391996313223E+03   -0.12082E-04   -0.11685E-04 43872   0.259E-02    0.171E-02
DAV:   7    -0.391996311201E+03    0.20216E-05   -0.12325E-05 24992   0.101E-02
  47 F= -.39199631E+03 E0= -.39199631E+03  d E =0.180376E-01  mag=    36.0000
       N       E                     dE             d eps       ncg     rms          rms(c)
DAV:   1    -0.391958400678E+03    0.37913E-01   -0.45153E+00 37880   0.651E+00    0.656E-01
DAV:   2    -0.391982689590E+03   -0.24289E-01   -0.24555E-01 35776   0.116E+00    0.326E-01
DAV:   3    -0.391983905119E+03   -0.12155E-02   -0.44883E-03 49848   0.181E-01    0.186E-01
DAV:   4    -0.391983813561E+03    0.91558E-04   -0.48967E-04 55456   0.667E-02    0.106E-01
DAV:   5    -0.391983835805E+03   -0.22244E-04   -0.20140E-04 47080   0.621E-02    0.268E-02
DAV:   6    -0.391983847154E+03   -0.11349E-04   -0.13258E-04 42768   0.279E-02    0.165E-02
DAV:   7    -0.391983845029E+03    0.21252E-05   -0.11052E-05 24256   0.881E-03
  48 F= -.39198385E+03 E0= -.39198385E+03  d E =0.124662E-01  mag=    36.0000
       N       E                     dE             d eps       ncg     rms          rms(c)
DAV:   1    -0.391981245681E+03    0.26015E-02   -0.66807E-01 38504   0.288E+00    0.333E-01
DAV:   2    -0.391986875799E+03   -0.56301E-02   -0.55892E-02 36176   0.528E-01    0.163E-01
DAV:   3    -0.391987329129E+03   -0.45333E-03   -0.11342E-03 46264   0.944E-02    0.871E-02
DAV:   4    -0.391987325267E+03    0.38620E-05   -0.98394E-05 47752   0.357E-02
  49 F= -.39198733E+03 E0= -.39198733E+03  d E =-.348024E-02  mag=    36.0000
