       N       E                     dE             d eps       ncg     rms          rms(c)
DAV:   1     0.614552228919E+04    0.61455E+04   -0.31247E+05 36592   0.177E+03
DAV:   2     0.371798073792E+03   -0.57737E+04   -0.54880E+04 35280   0.531E+02
DAV:   3    -0.213794560899E+03   -0.58559E+03   -0.55978E+03 36040   0.187E+02
DAV:   4    -0.231707346302E+03   -0.17913E+02   -0.17808E+02 36560   0.353E+01
DAV:   5    -0.232194562363E+03   -0.48722E+00   -0.48461E+00 48584   0.473E+00    0.560E+00
DAV:   6    -0.236459909723E+03   -0.42653E+01   -0.20398E+01 41496   0.153E+01    0.512E+01
DAV:   7    -0.230516064650E+03    0.59438E+01   -0.85978E+00 36696   0.137E+01    0.902E+00
DAV:   8    -0.230833082689E+03   -0.31702E+00   -0.33067E+00 36608   0.803E+00    0.874E+00
DAV:   9    -0.230888818066E+03   -0.55735E-01   -0.26405E+00 41016   0.523E+00    0.124E+01
DAV:  10    -0.230691801079E+03    0.19702E+00   -0.81186E-01 38528   0.446E+00    0.443E+00
DAV:  11    -0.230737980730E+03   -0.46180E-01   -0.13877E-01 39920   0.194E+00    0.435E+00
DAV:  12    -0.230732492807E+03    0.54879E-02   -0.13287E-02 38320   0.538E-01    0.448E+00
DAV:  13    -0.230726466156E+03    0.60267E-02   -0.21213E-03 41712   0.270E-01    0.458E+00
DAV:  14    -0.230735734282E+03   -0.92681E-02   -0.10251E-02 41456   0.749E-01    0.484E+00
DAV:  15    -0.230734003424E+03    0.17309E-02   -0.14132E-02 43080   0.875E-01    0.404E+00
DAV:  16    -0.230735980272E+03   -0.19768E-02   -0.43464E-02 43464   0.965E-01    0.290E+00
DAV:  17    -0.230740584423E+03   -0.46042E-02   -0.52456E-02 43800   0.133E+00    0.229E+00
DAV:  18    -0.230742235861E+03   -0.16514E-02   -0.31321E-02 38472   0.145E+00    0.231E+00
DAV:  19    -0.230735719659E+03    0.65162E-02   -0.15311E-02 40736   0.869E-01    0.226E+00
DAV:  20    -0.230732102121E+03    0.36175E-02   -0.85180E-03 40496   0.622E-01    0.185E+00
DAV:  21    -0.230731750853E+03    0.35127E-03   -0.36926E-03 44088   0.371E-01    0.130E+00
DAV:  22    -0.230733512182E+03   -0.17613E-02   -0.29017E-03 41024   0.435E-01    0.938E-01
DAV:  23    -0.230734751857E+03   -0.12397E-02   -0.41579E-03 41992   0.460E-01    0.769E-01
DAV:  24    -0.230737523364E+03   -0.27715E-02   -0.35946E-03 42752   0.339E-01    0.151E+00
DAV:  25    -0.230736611680E+03    0.91168E-03   -0.19919E-03 39904   0.292E-01    0.150E+00
DAV:  26    -0.230735471577E+03    0.11401E-02   -0.65204E-04 42472   0.172E-01    0.124E+00
DAV:  27    -0.230734966608E+03    0.50497E-03   -0.24041E-03 42376   0.321E-01    0.530E-01
DAV:  28    -0.230735735222E+03   -0.76861E-03   -0.24902E-03 41840   0.394E-01    0.419E-01
DAV:  29    -0.230735491875E+03    0.24335E-03   -0.12773E-03 42424   0.208E-01    0.364E-01
DAV:  30    -0.230735458536E+03    0.33340E-04   -0.22333E-04 41128   0.654E-02    0.338E-01
DAV:  31    -0.230735501540E+03   -0.43004E-04   -0.24226E-04 40152   0.127E-01    0.417E-01
DAV:  32    -0.230735366251E+03    0.13529E-03   -0.23515E-04 38824   0.137E-01    0.344E-01
DAV:  33    -0.230735362469E+03    0.37821E-05   -0.34703E-04 41600   0.107E-01    0.270E-01
DAV:  34    -0.230735294286E+03    0.68182E-04   -0.24218E-04 41064   0.956E-02    0.166E-01
DAV:  35    -0.230735281468E+03    0.12818E-04   -0.13670E-04 36384   0.443E-02    0.139E-01
DAV:  36    -0.230735333530E+03   -0.52062E-04   -0.17565E-04 30376   0.538E-02    0.236E-01
DAV:  37    -0.230735279309E+03    0.54221E-04   -0.55090E-05 29064   0.476E-02    0.138E-01
DAV:  38    -0.230735278318E+03    0.99013E-06   -0.68215E-05 23360   0.250E-02
   1 F= -.23073528E+03 E0= -.23071818E+03  d E =-.230735E+03  mag=     5.2775
       N       E                     dE             d eps       ncg     rms          rms(c)
DAV:   1    -0.231021158526E+03   -0.28588E+00   -0.47299E+00 36968   0.102E+01    0.650E+00
DAV:   2    -0.232182989283E+03   -0.11618E+01   -0.79404E+00 38216   0.157E+01    0.269E+01
DAV:   3    -0.231416946212E+03    0.76604E+00   -0.15467E+01 37752   0.114E+01    0.133E+01
DAV:   4    -0.230854302456E+03    0.56264E+00   -0.15329E+00 39696   0.928E+00    0.883E+00
DAV:   5    -0.230829440997E+03    0.24861E-01   -0.20245E+00 42016   0.538E+00    0.645E+00
DAV:   6    -0.230741467431E+03    0.87974E-01   -0.20520E-01 43136   0.264E+00    0.324E+00
DAV:   7    -0.230760868789E+03   -0.19401E-01   -0.10976E-01 41984   0.239E+00    0.354E+00
DAV:   8    -0.230745971333E+03    0.14897E-01   -0.61308E-02 39496   0.172E+00    0.194E+00
DAV:   9    -0.230751790266E+03   -0.58189E-02   -0.77456E-02 38424   0.170E+00    0.203E+00
DAV:  10    -0.230744413071E+03    0.73772E-02   -0.25092E-02 41376   0.125E+00    0.158E+00
DAV:  11    -0.230740929649E+03    0.34834E-02   -0.85868E-03 40112   0.661E-01    0.830E-01
DAV:  12    -0.230743231263E+03   -0.23016E-02   -0.13142E-02 37736   0.816E-01    0.116E+00
DAV:  13    -0.230742204817E+03    0.10264E-02   -0.76441E-03 39680   0.632E-01    0.993E-01
DAV:  14    -0.230741997873E+03    0.20694E-03   -0.52465E-03 39288   0.466E-01    0.105E+00
DAV:  15    -0.230741024310E+03    0.97356E-03   -0.19219E-03 40240   0.287E-01    0.775E-01
DAV:  16    -0.230741199134E+03   -0.17482E-03   -0.29042E-03 41440   0.361E-01    0.587E-01
DAV:  17    -0.230740994337E+03    0.20480E-03   -0.13086E-03 40368   0.245E-01    0.378E-01
DAV:  18    -0.230741171542E+03   -0.17720E-03   -0.95799E-04 40168   0.202E-01    0.434E-01
DAV:  19    -0.230740909413E+03    0.26213E-03   -0.46084E-04 40296   0.141E-01    0.244E-01
DAV:  20    -0.230740938452E+03   -0.29039E-04   -0.25452E-04 34208   0.103E-01    0.124E-01
DAV:  21    -0.230740999258E+03   -0.60806E-04   -0.13785E-04 31328   0.100E-01    0.137E-01
DAV:  22    -0.230740987717E+03    0.11541E-04   -0.47653E-05 25736   0.577E-02    0.967E-02
DAV:  23    -0.230740983327E+03    0.43898E-05   -0.57190E-05 25560   0.566E-02
   2 F= -.23074098E+03 E0= -.23072367E+03  d E =-.570501E-02  mag=     5.2599
       N       E                     dE             d eps       ncg     rms          rms(c)
DAV:   1    -0.230746959036E+03   -0.59713E-02   -0.99366E-02 36920   0.148E+00    0.101E+00
DAV:   2    -0.230822648240E+03   -0.75689E-01   -0.33415E-01 37768   0.249E+00    0.780E+00
DAV:   3    -0.230737186672E+03    0.85462E-01   -0.47639E-01 35360   0.211E+00    0.237E+00
DAV:   4    -0.230750155236E+03   -0.12969E-01   -0.63456E-02 37016   0.127E+00    0.382E+00
DAV:   5    -0.230734396395E+03    0.15759E-01   -0.20567E-02 39072   0.935E-01    0.768E-01
DAV:   6    -0.230740916960E+03   -0.65206E-02   -0.84345E-03 39072   0.616E-01    0.832E-01
DAV:   7    -0.230742278809E+03   -0.13618E-02   -0.93367E-03 38456   0.543E-01    0.122E+00
DAV:   8    -0.230741220220E+03    0.10586E-02   -0.22088E-03 39336   0.289E-01    0.129E+00
DAV:   9    -0.230740158114E+03    0.10621E-02   -0.44143E-04 41232   0.126E-01    0.121E+00
DAV:  10    -0.230739930279E+03    0.22783E-03   -0.56509E-05 31360   0.339E-02    0.113E+00
DAV:  11    -0.230739937928E+03   -0.76484E-05   -0.36167E-04 36072   0.132E-01    0.953E-01
DAV:  12    -0.230739928839E+03    0.90886E-05   -0.88495E-04 38528   0.210E-01    0.496E-01
DAV:  13    -0.230740714990E+03   -0.78615E-03   -0.11767E-03 40344   0.175E-01    0.403E-01
DAV:  14    -0.230741203748E+03   -0.48876E-03   -0.57722E-04 38760   0.147E-01    0.551E-01
DAV:  15    -0.230740794219E+03    0.40953E-03   -0.23257E-04 39504   0.916E-02    0.377E-01
DAV:  16    -0.230740819574E+03   -0.25355E-04   -0.67811E-05 26960   0.521E-02    0.252E-01
DAV:  17    -0.230740917145E+03   -0.97571E-04   -0.31618E-05 21216   0.316E-02    0.164E-01
DAV:  18    -0.230740988588E+03   -0.71443E-04   -0.31919E-05 22608   0.418E-02    0.138E-01
DAV:  19    -0.230741005685E+03   -0.17098E-04   -0.49098E-05 23024   0.491E-02    0.727E-02
DAV:  20    -0.230741034826E+03   -0.29141E-04   -0.55586E-05 21544   0.445E-02    0.488E-02
DAV:  21    -0.230741039729E+03   -0.49037E-05   -0.19113E-05 19360   0.317E-02
   3 F= -.23074104E+03 E0= -.23072378E+03  d E =-.576141E-02  mag=     5.2697
       N       E                     dE             d eps       ncg     rms          rms(c)
DAV:   1    -0.230746946555E+03   -0.59117E-02   -0.18444E+00 33072   0.525E+00    0.139E+00
DAV:   2    -0.230815347175E+03   -0.68401E-01   -0.47104E-01 43472   0.304E+00    0.712E+00
DAV:   3    -0.230750260216E+03    0.65087E-01   -0.28898E-01 35784   0.252E+00    0.357E+00
DAV:   4    -0.230754169359E+03   -0.39091E-02   -0.14030E-01 37688   0.207E+00    0.297E+00
DAV:   5    -0.230747214212E+03    0.69551E-02   -0.96806E-02 38840   0.143E+00    0.203E+00
DAV:   6    -0.230746188822E+03    0.10254E-02   -0.39259E-02 42200   0.945E-01    0.124E+00
DAV:   7    -0.230745199914E+03    0.98891E-03   -0.11739E-02 35392   0.837E-01    0.111E+00
DAV:   8    -0.230744162618E+03    0.10373E-02   -0.22529E-03 40056   0.366E-01    0.101E+00
DAV:   9    -0.230743349947E+03    0.81267E-03   -0.12140E-03 43480   0.243E-01    0.561E-01
DAV:  10    -0.230743918953E+03   -0.56901E-03   -0.19032E-03 40992   0.244E-01    0.395E-01
DAV:  11    -0.230744304459E+03   -0.38551E-03   -0.10305E-03 39480   0.236E-01    0.420E-01
DAV:  12    -0.230744103828E+03    0.20063E-03   -0.64198E-04 40048   0.173E-01    0.218E-01
DAV:  13    -0.230744127131E+03   -0.23304E-04   -0.24314E-04 38200   0.142E-01    0.138E-01
DAV:  14    -0.230744168423E+03   -0.41291E-04   -0.28085E-04 32992   0.109E-01    0.158E-01
DAV:  15    -0.230744142794E+03    0.25629E-04   -0.11649E-04 29760   0.936E-02    0.137E-01
DAV:  16    -0.230744127028E+03    0.15766E-04   -0.10136E-04 25872   0.550E-02    0.912E-02
DAV:  17    -0.230744134353E+03   -0.73248E-05   -0.19302E-05 20200   0.310E-02
   4 F= -.23074413E+03 E0= -.23072680E+03  d E =-.309462E-02  mag=     5.2642
       N       E                     dE             d eps       ncg     rms          rms(c)
DAV:   1    -0.230745085505E+03   -0.95848E-03   -0.33651E-01 33072   0.224E+00    0.567E-01
DAV:   2    -0.230752577072E+03   -0.74916E-02   -0.54519E-02 43320   0.120E+00    0.262E+00
DAV:   3    -0.230745333702E+03    0.72434E-02   -0.44075E-02 36608   0.938E-01    0.219E+00
DAV:   4    -0.230745260937E+03    0.72765E-04   -0.15095E-02 37384   0.907E-01    0.147E+00
DAV:   5    -0.230745135082E+03    0.12586E-03   -0.11753E-02 39320   0.606E-01    0.971E-01
DAV:   6    -0.230744785506E+03    0.34958E-03   -0.80917E-03 38568   0.446E-01    0.634E-01
DAV:   7    -0.230744465264E+03    0.32024E-03   -0.22318E-03 35520   0.356E-01    0.411E-01
DAV:   8    -0.230744664553E+03   -0.19929E-03   -0.67889E-04 38632   0.207E-01    0.415E-01
DAV:   9    -0.230744435681E+03    0.22887E-03   -0.36941E-04 39224   0.133E-01    0.165E-01
DAV:  10    -0.230744564833E+03   -0.12915E-03   -0.15623E-04 31048   0.834E-02    0.147E-01
DAV:  11    -0.230744578246E+03   -0.13413E-04   -0.64651E-05 24856   0.578E-02    0.168E-01
DAV:  12    -0.230744567619E+03    0.10628E-04   -0.13920E-05 19832   0.251E-02    0.177E-01
DAV:  13    -0.230744549091E+03    0.18528E-04   -0.29326E-05 23072   0.406E-02    0.140E-01
DAV:  14    -0.230744574691E+03   -0.25601E-04   -0.92747E-05 29064   0.703E-02    0.131E-01
DAV:  15    -0.230744560761E+03    0.13931E-04   -0.10261E-04 28024   0.726E-02    0.731E-02
DAV:  16    -0.230744573572E+03   -0.12811E-04   -0.33730E-05 24240   0.503E-02    0.688E-02
DAV:  17    -0.230744571265E+03    0.23068E-05   -0.20904E-05 21728   0.406E-02
   5 F= -.23074457E+03 E0= -.23072727E+03  d E =-.353154E-02  mag=     5.2595
       N       E                     dE             d eps       ncg     rms          rms(c)
DAV:   1    -0.230722975045E+03    0.21599E-01   -0.15116E+00 33288   0.777E+00    0.994E-01
DAV:   2    -0.230768321648E+03   -0.45347E-01   -0.44453E-01 38520   0.228E+00    0.370E+00
DAV:   3    -0.230748456915E+03    0.19865E-01   -0.24846E-01 36952   0.184E+00    0.225E+00
DAV:   4    -0.230751661099E+03   -0.32042E-02   -0.37450E-02 36808   0.121E+00    0.241E+00
DAV:   5    -0.230751057638E+03    0.60346E-03   -0.32713E-02 37824   0.991E-01    0.287E+00
DAV:   6    -0.230745008627E+03    0.60490E-02   -0.15079E-02 37016   0.839E-01    0.140E+00
DAV:   7    -0.230744278755E+03    0.72987E-03   -0.62445E-03 36552   0.616E-01    0.431E-01
DAV:   8    -0.230747203037E+03   -0.29243E-02   -0.37196E-03 38112   0.424E-01    0.848E-01
DAV:   9    -0.230746633885E+03    0.56915E-03   -0.21866E-03 38520   0.347E-01    0.814E-01
DAV:  10    -0.230746022027E+03    0.61186E-03   -0.74928E-04 41096   0.185E-01    0.658E-01
DAV:  11    -0.230746003871E+03    0.18156E-04   -0.20352E-04 40672   0.102E-01    0.494E-01
DAV:  12    -0.230746086440E+03   -0.82569E-04   -0.36288E-04 33192   0.105E-01    0.313E-01
DAV:  13    -0.230746314090E+03   -0.22765E-03   -0.28483E-04 35040   0.148E-01    0.328E-01
DAV:  14    -0.230746268282E+03    0.45808E-04   -0.18490E-04 34744   0.886E-02    0.218E-01
DAV:  15    -0.230746435990E+03   -0.16771E-03   -0.46152E-04 32992   0.160E-01    0.245E-01
DAV:  16    -0.230746386711E+03    0.49279E-04   -0.43370E-04 32488   0.127E-01    0.176E-01
DAV:  17    -0.230746413492E+03   -0.26780E-04   -0.91361E-05 32064   0.674E-02    0.178E-01
DAV:  18    -0.230746388102E+03    0.25390E-04   -0.43456E-05 25288   0.505E-02    0.167E-01
DAV:  19    -0.230746389170E+03   -0.10680E-05   -0.28214E-05 23080   0.366E-02
   6 F= -.23074639E+03 E0= -.23072899E+03  d E =-.181790E-02  mag=     5.2613
       N       E                     dE             d eps       ncg     rms          rms(c)
DAV:   1    -0.230746082878E+03    0.30522E-03   -0.20475E-02 33304   0.908E-01    0.167E-01
DAV:   2    -0.230750913222E+03   -0.48303E-02   -0.11663E-02 44336   0.518E-01    0.210E+00
DAV:   3    -0.230743853577E+03    0.70596E-02   -0.51955E-03 36632   0.460E-01    0.338E-01
DAV:   4    -0.230746109087E+03   -0.22555E-02   -0.16551E-03 36496   0.198E-01    0.274E-01
DAV:   5    -0.230746543913E+03   -0.43483E-03   -0.11234E-03 38088   0.154E-01    0.344E-01
DAV:   6    -0.230746436668E+03    0.10725E-03   -0.23929E-04 38336   0.110E-01    0.313E-01
DAV:   7    -0.230746335664E+03    0.10100E-03   -0.74606E-05 26424   0.617E-02    0.147E-01
DAV:   8    -0.230746406843E+03   -0.71180E-04   -0.62833E-05 23840   0.533E-02    0.712E-02
DAV:   9    -0.230746443196E+03   -0.36352E-04   -0.51850E-05 23152   0.452E-02    0.890E-02
DAV:  10    -0.230746448572E+03   -0.53764E-05   -0.28481E-05 22088   0.373E-02
   7 F= -.23074645E+03 E0= -.23072919E+03  d E =-.187731E-02  mag=     5.2614
       N       E                     dE             d eps       ncg     rms          rms(c)
DAV:   1    -0.230745160300E+03    0.12829E-02   -0.81974E-02 33296   0.181E+00    0.282E-01
DAV:   2    -0.230753036103E+03   -0.78758E-02   -0.40863E-02 43168   0.682E-01    0.281E+00
DAV:   3    -0.230740885464E+03    0.12151E-01   -0.16687E-02 37392   0.624E-01    0.591E-01
DAV:   4    -0.230746478437E+03   -0.55930E-02   -0.55522E-03 37040   0.369E-01    0.509E-01
DAV:   5    -0.230746503005E+03   -0.24567E-04   -0.25834E-03 38616   0.277E-01    0.257E-01
DAV:   6    -0.230746511341E+03   -0.83366E-05   -0.78079E-04 38792   0.181E-01    0.214E-01
DAV:   7    -0.230746453161E+03    0.58180E-04   -0.31209E-04 34536   0.131E-01    0.188E-01
DAV:   8    -0.230746441686E+03    0.11475E-04   -0.15241E-04 34144   0.990E-02    0.139E-01
DAV:   9    -0.230746475104E+03   -0.33417E-04   -0.16539E-04 29624   0.898E-02    0.248E-01
DAV:  10    -0.230746397521E+03    0.77583E-04   -0.73513E-05 26744   0.598E-02    0.165E-01
DAV:  11    -0.230746389989E+03    0.75313E-05   -0.53178E-05 20768   0.419E-02
   8 F= -.23074639E+03 E0= -.23072907E+03  d E =-.181872E-02  mag=     5.2601
       N       E                     dE             d eps       ncg     rms          rms(c)
DAV:   1    -0.230746158686E+03    0.23884E-03   -0.17893E-02 33328   0.843E-01    0.122E-01
DAV:   2    -0.230747266180E+03   -0.11075E-02   -0.61733E-03 41568   0.283E-01    0.100E+00
DAV:   3    -0.230745932008E+03    0.13342E-02   -0.28248E-03 36968   0.237E-01    0.281E-01
DAV:   4    -0.230746550156E+03   -0.61815E-03   -0.74674E-04 36168   0.173E-01    0.279E-01
DAV:   5    -0.230746466551E+03    0.83605E-04   -0.63896E-04 33456   0.130E-01    0.157E-01
DAV:   6    -0.230746469120E+03   -0.25689E-05   -0.23225E-04 30216   0.998E-02    0.101E-01
DAV:   7    -0.230746455148E+03    0.13972E-04   -0.60587E-05 25224   0.641E-02    0.828E-02
DAV:   8    -0.230746455057E+03    0.90484E-07   -0.41185E-05 22952   0.477E-02
   9 F= -.23074646E+03 E0= -.23072910E+03  d E =-.188379E-02  mag=     5.2605
       N       E                     dE             d eps       ncg     rms          rms(c)
DAV:   1    -0.230746368449E+03    0.86698E-04   -0.58268E-03 33368   0.487E-01    0.738E-02
DAV:   2    -0.230746724796E+03   -0.35635E-03   -0.17742E-03 44128   0.181E-01    0.510E-01
DAV:   3    -0.230746297283E+03    0.42751E-03   -0.51509E-04 36960   0.135E-01    0.175E-01
DAV:   4    -0.230746473667E+03   -0.17638E-03   -0.34869E-04 32120   0.796E-02    0.149E-01
DAV:   5    -0.230746464019E+03    0.96480E-05   -0.21040E-04 29896   0.704E-02    0.133E-01
DAV:   6    -0.230746446792E+03    0.17227E-04   -0.56532E-05 23360   0.558E-02    0.846E-02
DAV:   7    -0.230746449165E+03   -0.23732E-05   -0.62271E-05 23024   0.516E-02
  10 F= -.23074645E+03 E0= -.23072910E+03  d E =-.187790E-02  mag=     5.2607
       N       E                     dE             d eps       ncg     rms          rms(c)
DAV:   1    -0.230746524868E+03   -0.78076E-04   -0.57874E-01 33280   0.381E+00    0.844E-01
DAV:   2    -0.230769687979E+03   -0.23163E-01   -0.18334E-01 45344   0.190E+00    0.362E+00
DAV:   3    -0.230748674015E+03    0.21014E-01   -0.19073E-01 37904   0.160E+00    0.218E+00
DAV:   4    -0.230755314382E+03   -0.66404E-02   -0.62513E-02 38128   0.115E+00    0.321E+00
DAV:   5    -0.230743445519E+03    0.11869E-01   -0.11854E-02 38064   0.634E-01    0.124E+00
DAV:   6    -0.230746885650E+03   -0.34401E-02   -0.15691E-02 37992   0.647E-01    0.104E+00
DAV:   7    -0.230747234825E+03   -0.34917E-03   -0.54609E-03 38672   0.528E-01    0.939E-01
DAV:   8    -0.230747837771E+03   -0.60295E-03   -0.24117E-03 39416   0.382E-01    0.104E+00
DAV:   9    -0.230746595185E+03    0.12426E-02   -0.10861E-03 42088   0.229E-01    0.650E-01
DAV:  10    -0.230746801308E+03   -0.20612E-03   -0.75543E-04 39944   0.182E-01    0.345E-01
DAV:  11    -0.230747150557E+03   -0.34925E-03   -0.52673E-04 36696   0.165E-01    0.153E-01
DAV:  12    -0.230747326139E+03   -0.17558E-03   -0.27501E-04 38176   0.136E-01    0.140E-01
DAV:  13    -0.230747310522E+03    0.15616E-04   -0.17541E-04 35896   0.114E-01    0.103E-01
DAV:  14    -0.230747313455E+03   -0.29331E-05   -0.68948E-05 28184   0.613E-02
  11 F= -.23074731E+03 E0= -.23072994E+03  d E =-.864291E-03  mag=     5.2607
       N       E                     dE             d eps       ncg     rms          rms(c)
DAV:   1    -0.230747365668E+03   -0.55145E-04   -0.30173E-02 33280   0.878E-01    0.227E-01
DAV:   2    -0.230752853440E+03   -0.54878E-02   -0.14524E-02 43320   0.670E-01    0.219E+00
DAV:   3    -0.230744911913E+03    0.79415E-02   -0.68287E-03 36904   0.532E-01    0.425E-01
DAV:   4    -0.230747420626E+03   -0.25087E-02   -0.32041E-03 36816   0.310E-01    0.391E-01
DAV:   5    -0.230747528631E+03   -0.10801E-03   -0.22159E-03 37560   0.206E-01    0.344E-01
DAV:   6    -0.230747458494E+03    0.70137E-04   -0.75523E-04 40976   0.161E-01    0.309E-01
DAV:   7    -0.230747322395E+03    0.13610E-03   -0.18701E-04 34384   0.982E-02    0.809E-02
DAV:   8    -0.230747415717E+03   -0.93322E-04   -0.10687E-04 29272   0.776E-02    0.141E-01
DAV:   9    -0.230747397262E+03    0.18455E-04   -0.79800E-05 27320   0.659E-02    0.120E-01
DAV:  10    -0.230747390250E+03    0.70120E-05   -0.76110E-05 28232   0.747E-02
  12 F= -.23074739E+03 E0= -.23073013E+03  d E =-.941085E-03  mag=     5.2611
       N       E                     dE             d eps       ncg     rms          rms(c)
DAV:   1    -0.230747352451E+03    0.44811E-04   -0.12053E-01 33280   0.175E+00    0.395E-01
DAV:   2    -0.230753390454E+03   -0.60380E-02   -0.38880E-02 45480   0.890E-01    0.216E+00
DAV:   3    -0.230746333461E+03    0.70570E-02   -0.29837E-02 37648   0.723E-01    0.124E+00
DAV:   4    -0.230748716793E+03   -0.23833E-02   -0.69732E-03 37784   0.571E-01    0.135E+00
DAV:   5    -0.230747170971E+03    0.15458E-02   -0.53267E-03 38376   0.410E-01    0.681E-01
DAV:   6    -0.230747370049E+03   -0.19908E-03   -0.33400E-03 39184   0.304E-01    0.391E-01
DAV:   7    -0.230747549415E+03   -0.17937E-03   -0.11300E-03 37256   0.240E-01    0.453E-01
DAV:   8    -0.230747492372E+03    0.57043E-04   -0.44051E-04 39488   0.176E-01    0.377E-01
DAV:   9    -0.230747341017E+03    0.15136E-03   -0.35007E-04 41256   0.131E-01    0.124E-01
DAV:  10    -0.230747526503E+03   -0.18549E-03   -0.25898E-04 33432   0.109E-01    0.157E-01
DAV:  11    -0.230747493884E+03    0.32619E-04   -0.97181E-05 28744   0.770E-02    0.986E-02
DAV:  12    -0.230747497526E+03   -0.36421E-05   -0.20030E-05 20176   0.313E-02
  13 F= -.23074750E+03 E0= -.23073026E+03  d E =-.104836E-02  mag=     5.2608
       N       E                     dE             d eps       ncg     rms          rms(c)
DAV:   1    -0.230746766161E+03    0.72772E-03   -0.48352E-01 33280   0.349E+00    0.814E-01
DAV:   2    -0.230774862527E+03   -0.28096E-01   -0.20830E-01 45392   0.182E+00    0.440E+00
DAV:   3    -0.230745061406E+03    0.29801E-01   -0.11678E-01 36496   0.156E+00    0.235E+00
DAV:   4    -0.230751942218E+03   -0.68808E-02   -0.23485E-02 37672   0.114E+00    0.251E+00
DAV:   5    -0.230746466235E+03    0.54760E-02   -0.20534E-02 38560   0.808E-01    0.129E+00
DAV:   6    -0.230747074667E+03   -0.60843E-03   -0.15212E-02 40616   0.583E-01    0.764E-01
DAV:   7    -0.230748556164E+03   -0.14815E-02   -0.53820E-03 37320   0.539E-01    0.124E+00
DAV:   8    -0.230746901499E+03    0.16547E-02   -0.15035E-03 39832   0.304E-01    0.970E-01
DAV:   9    -0.230746287780E+03    0.61372E-03   -0.83686E-04 44152   0.196E-01    0.446E-01
DAV:  10    -0.230746925349E+03   -0.63757E-03   -0.77984E-04 39192   0.159E-01    0.179E-01
DAV:  11    -0.230747291093E+03   -0.36574E-03   -0.36064E-04 37600   0.137E-01    0.153E-01
DAV:  12    -0.230747309541E+03   -0.18448E-04   -0.13538E-04 33720   0.859E-02    0.136E-01
DAV:  13    -0.230747291403E+03    0.18138E-04   -0.85466E-05 30136   0.861E-02    0.116E-01
DAV:  14    -0.230747271376E+03    0.20027E-04   -0.10473E-04 31288   0.764E-02    0.885E-02
DAV:  15    -0.230747305885E+03   -0.34510E-04   -0.21657E-04 32472   0.105E-01    0.125E-01
DAV:  16    -0.230747294890E+03    0.10995E-04   -0.18727E-04 29664   0.865E-02    0.140E-01
DAV:  17    -0.230747277968E+03    0.16923E-04   -0.43935E-05 21904   0.389E-02    0.724E-02
DAV:  18    -0.230747289440E+03   -0.11472E-04   -0.34263E-05 21224   0.338E-02    0.119E-01
DAV:  19    -0.230747284860E+03    0.45798E-05   -0.13014E-05 20616   0.202E-02
  14 F= -.23074728E+03 E0= -.23072993E+03  d E =-.835695E-03  mag=     5.2609
       N       E                     dE             d eps       ncg     rms          rms(c)
DAV:   1    -0.230747044840E+03    0.24460E-03   -0.28725E-01 33280   0.269E+00    0.599E-01
DAV:   2    -0.230762909384E+03   -0.15865E-01   -0.94663E-02 44960   0.134E+00    0.399E+00
DAV:   3    -0.230746253464E+03    0.16656E-01   -0.10212E-01 36712   0.107E+00    0.195E+00
DAV:   4    -0.230749790532E+03   -0.35371E-02   -0.19342E-02 38096   0.910E-01    0.153E+00
DAV:   5    -0.230747313123E+03    0.24774E-02   -0.14125E-02 38528   0.610E-01    0.537E-01
DAV:   6    -0.230748443432E+03   -0.11303E-02   -0.61128E-03 38152   0.497E-01    0.620E-01
DAV:   7    -0.230747649147E+03    0.79428E-03   -0.29146E-03 38112   0.361E-01    0.411E-01
DAV:   8    -0.230747491520E+03    0.15763E-03   -0.72882E-04 37016   0.219E-01    0.206E-01
DAV:   9    -0.230747603285E+03   -0.11177E-03   -0.31667E-04 38144   0.134E-01    0.372E-01
DAV:  10    -0.230747466915E+03    0.13637E-03   -0.15411E-04 34712   0.813E-02    0.335E-01
DAV:  11    -0.230747367917E+03    0.98998E-04   -0.91779E-05 26112   0.641E-02    0.193E-01
DAV:  12    -0.230747480721E+03   -0.11280E-03   -0.18967E-04 30736   0.913E-02    0.173E-01
DAV:  13    -0.230747521103E+03   -0.40382E-04   -0.22683E-04 31816   0.997E-02    0.223E-01
DAV:  14    -0.230747470516E+03    0.50586E-04   -0.76987E-05 27072   0.646E-02    0.208E-01
DAV:  15    -0.230747448692E+03    0.21824E-04   -0.37828E-05 23992   0.426E-02    0.157E-01
DAV:  16    -0.230747454230E+03   -0.55384E-05   -0.31035E-05 20528   0.363E-02
  15 F= -.23074745E+03 E0= -.23073014E+03  d E =-.100507E-02  mag=     5.2635
       N       E                     dE             d eps       ncg     rms          rms(c)
DAV:   1    -0.230747479772E+03   -0.31080E-04   -0.84840E-03 33280   0.463E-01    0.112E-01
DAV:   2    -0.230748055508E+03   -0.57574E-03   -0.31843E-03 45184   0.272E-01    0.586E-01
DAV:   3    -0.230747452541E+03    0.60297E-03   -0.26197E-03 37592   0.246E-01    0.283E-01
DAV:   4    -0.230747564178E+03   -0.11164E-03   -0.36091E-04 35384   0.128E-01    0.328E-01
DAV:   5    -0.230747479910E+03    0.84268E-04   -0.48641E-04 32296   0.110E-01    0.197E-01
DAV:   6    -0.230747512870E+03   -0.32960E-04   -0.23680E-04 32168   0.101E-01    0.118E-01
DAV:   7    -0.230747488248E+03    0.24622E-04   -0.79443E-05 25584   0.665E-02    0.482E-02
DAV:   8    -0.230747497109E+03   -0.88603E-05   -0.18179E-05 19864   0.353E-02
  16 F= -.23074750E+03 E0= -.23073018E+03  d E =-.104794E-02  mag=     5.2626
       N       E                     dE             d eps       ncg     rms          rms(c)
DAV:   1    -0.230742984565E+03    0.45037E-02   -0.72637E-01 33280   0.466E+00    0.792E-01
DAV:   2    -0.230767974529E+03   -0.24990E-01   -0.20246E-01 45240   0.188E+00    0.366E+00
DAV:   3    -0.230747898701E+03    0.20076E-01   -0.12350E-01 37848   0.143E+00    0.234E+00
DAV:   4    -0.230755220556E+03   -0.73219E-02   -0.34565E-02 37992   0.115E+00    0.331E+00
DAV:   5    -0.230745552695E+03    0.96679E-02   -0.19593E-02 38456   0.811E-01    0.155E+00
DAV:   6    -0.230746526911E+03   -0.97422E-03   -0.17257E-02 38568   0.618E-01    0.820E-01
DAV:   7    -0.230748238527E+03   -0.17116E-02   -0.57276E-03 37136   0.534E-01    0.947E-01
DAV:   8    -0.230748189175E+03    0.49352E-04   -0.21513E-03 39696   0.354E-01    0.945E-01
DAV:   9    -0.230747174286E+03    0.10149E-02   -0.80708E-04 42256   0.201E-01    0.518E-01
DAV:  10    -0.230747539541E+03   -0.36526E-03   -0.72629E-04 39856   0.167E-01    0.272E-01
DAV:  11    -0.230747820781E+03   -0.28124E-03   -0.40231E-04 36528   0.150E-01    0.164E-01
DAV:  12    -0.230747950894E+03   -0.13011E-03   -0.25955E-04 36696   0.137E-01    0.167E-01
DAV:  13    -0.230747967571E+03   -0.16678E-04   -0.29947E-04 36008   0.137E-01    0.268E-01
DAV:  14    -0.230747923059E+03    0.44513E-04   -0.14534E-04 32160   0.846E-02    0.299E-01
DAV:  15    -0.230747829483E+03    0.93576E-04   -0.77231E-05 26984   0.684E-02    0.239E-01
DAV:  16    -0.230747818385E+03    0.11098E-04   -0.37116E-05 20472   0.327E-02    0.105E-01
DAV:  17    -0.230747887150E+03   -0.68766E-04   -0.10768E-05 19968   0.196E-02    0.862E-02
DAV:  18    -0.230747909517E+03   -0.22367E-04   -0.10450E-05 19616   0.184E-02    0.139E-01
DAV:  19    -0.230747907217E+03    0.22999E-05   -0.17373E-05 20392   0.291E-02
  17 F= -.23074791E+03 E0= -.23073050E+03  d E =-.410108E-03  mag=     5.2609
       N       E                     dE             d eps       ncg     rms          rms(c)
DAV:   1    -0.230747733332E+03    0.17619E-03   -0.22653E-02 33280   0.823E-01    0.222E-01
DAV:   2    -0.230755439643E+03   -0.77063E-02   -0.18822E-02 42928   0.592E-01    0.292E+00
DAV:   3    -0.230743634998E+03    0.11805E-01   -0.15071E-02 36528   0.593E-01    0.328E-01
DAV:   4    -0.230747583937E+03   -0.39489E-02   -0.20012E-03 37704   0.270E-01    0.339E-01
DAV:   5    -0.230747930838E+03   -0.34690E-03   -0.11879E-03 39664   0.160E-01    0.185E-01
DAV:   6    -0.230747976100E+03   -0.45263E-04   -0.42265E-04 38744   0.137E-01    0.175E-01
DAV:   7    -0.230747915231E+03    0.60870E-04   -0.14471E-04 31608   0.900E-02    0.790E-02
DAV:   8    -0.230747927893E+03   -0.12662E-04   -0.75247E-05 24904   0.655E-02    0.743E-02
DAV:   9    -0.230747929661E+03   -0.17677E-05   -0.70394E-05 23344   0.522E-02
  18 F= -.23074793E+03 E0= -.23073065E+03  d E =-.432552E-03  mag=     5.2627
