       N       E                     dE             d eps       ncg     rms          rms(c)
DAV:   1     0.652552611779E+04    0.65255E+04   -0.26953E+05 35392   0.155E+03
DAV:   2     0.404614868049E+03   -0.61209E+04   -0.58746E+04 35824   0.476E+02
DAV:   3    -0.369064429123E+03   -0.77368E+03   -0.75651E+03 38264   0.178E+02
DAV:   4    -0.410692624055E+03   -0.41628E+02   -0.40539E+02 49624   0.429E+01
DAV:   5    -0.414044001521E+03   -0.33514E+01   -0.32903E+01 64480   0.857E+00    0.659E+01
DAV:   6    -0.343202490985E+03    0.70842E+02   -0.31883E+02 46248   0.403E+01    0.376E+01
DAV:   7    -0.367248232109E+03   -0.24046E+02   -0.83978E+01 48704   0.214E+01    0.563E+01
DAV:   8    -0.367015824413E+03    0.23241E+00   -0.45427E+01 48824   0.162E+01    0.330E+01
DAV:   9    -0.364078285829E+03    0.29375E+01   -0.48986E+00 48336   0.710E+00    0.257E+01
DAV:  10    -0.367682354581E+03   -0.36041E+01   -0.28173E+01 49096   0.661E+00    0.235E+01
DAV:  11    -0.370314615787E+03   -0.26323E+01   -0.29655E+01 47584   0.731E+00    0.180E+01
DAV:  12    -0.374049967361E+03   -0.37354E+01   -0.14673E+01 48560   0.659E+00    0.187E+01
DAV:  13    -0.376812672525E+03   -0.27627E+01   -0.23927E+01 47184   0.517E+00    0.200E+01
DAV:  14    -0.379803114905E+03   -0.29904E+01   -0.13460E+01 46840   0.523E+00    0.132E+01
DAV:  15    -0.379721622079E+03    0.81493E-01   -0.86556E-01 42480   0.154E+00    0.982E+00
DAV:  16    -0.380208942573E+03   -0.48732E+00   -0.12847E+00 47920   0.135E+00    0.118E+01
DAV:  17    -0.380837253392E+03   -0.62831E+00   -0.66396E-01 45008   0.163E+00    0.720E+00
DAV:  18    -0.382031315013E+03   -0.11941E+01   -0.12828E+00 45656   0.198E+00    0.762E+00
DAV:  19    -0.382376983145E+03   -0.34567E+00   -0.26068E-01 43984   0.110E+00    0.502E+00
DAV:  20    -0.383524127927E+03   -0.11471E+01   -0.99991E-01 45184   0.147E+00    0.538E+00
DAV:  21    -0.384496466777E+03   -0.97234E+00   -0.10001E+00 45440   0.187E+00    0.597E+00
DAV:  22    -0.384775920809E+03   -0.27945E+00   -0.97400E-01 44176   0.117E+00    0.766E+00
DAV:  23    -0.385322637787E+03   -0.54672E+00   -0.85887E-01 44056   0.136E+00    0.345E+00
DAV:  24    -0.385517358108E+03   -0.19472E+00   -0.89271E-02 41096   0.656E-01    0.353E+00
DAV:  25    -0.385897401586E+03   -0.38004E+00   -0.19990E-01 43488   0.837E-01    0.404E+00
DAV:  26    -0.386178116282E+03   -0.28071E+00   -0.69002E-01 45184   0.112E+00    0.275E+00
DAV:  27    -0.386281494964E+03   -0.10338E+00   -0.25913E-01 44064   0.887E-01    0.286E+00
DAV:  28    -0.386313763121E+03   -0.32268E-01   -0.51539E-02 41584   0.479E-01    0.205E+00
DAV:  29    -0.386322910553E+03   -0.91474E-02   -0.18528E-02 50112   0.315E-01    0.177E+00
DAV:  30    -0.386322693683E+03    0.21687E-03   -0.12717E-02 44912   0.253E-01    0.112E+00
DAV:  31    -0.386323775731E+03   -0.10820E-02   -0.22155E-02 48144   0.223E-01    0.107E+00
DAV:  32    -0.386324252306E+03   -0.47658E-03   -0.16823E-02 43128   0.236E-01    0.106E+00
DAV:  33    -0.386322659675E+03    0.15926E-02   -0.22797E-02 44456   0.223E-01    0.470E-01
DAV:  34    -0.386323229626E+03   -0.56995E-03   -0.24983E-03 40992   0.136E-01    0.178E-01
DAV:  35    -0.386323270351E+03   -0.40725E-04   -0.49858E-04 45760   0.603E-02    0.164E-01
DAV:  36    -0.386323277307E+03   -0.69558E-05   -0.95587E-04 44592   0.631E-02    0.208E-01
DAV:  37    -0.386323209441E+03    0.67866E-04   -0.49434E-04 37896   0.445E-02    0.109E-01
DAV:  38    -0.386323228764E+03   -0.19323E-04   -0.61355E-05 33304   0.213E-02    0.876E-02
DAV:  39    -0.386323222374E+03    0.63897E-05   -0.31558E-05 30176   0.168E-02
   1 F= -.38632322E+03 E0= -.38631052E+03  d E =-.386323E+03  mag=    34.0043
       N       E                     dE             d eps       ncg     rms          rms(c)
DAV:   1    -0.386333551415E+03   -0.10323E-01   -0.10999E-02 38168   0.244E-01    0.468E-02
DAV:   2    -0.386333688144E+03   -0.13673E-03   -0.11553E-03 40232   0.665E-02    0.247E-01
DAV:   3    -0.386333553660E+03    0.13448E-03   -0.56851E-04 38200   0.454E-02    0.402E-02
DAV:   4    -0.386333594073E+03   -0.40414E-04   -0.51453E-05 28192   0.163E-02    0.398E-02
DAV:   5    -0.386333596338E+03   -0.22643E-05   -0.48397E-05 24432   0.135E-02
   2 F= -.38633360E+03 E0= -.38632089E+03  d E =-.103740E-01  mag=    34.0029
       N       E                     dE             d eps       ncg     rms          rms(c)
DAV:   1    -0.386578143308E+03   -0.24455E+00   -0.12155E+01 37496   0.812E+00    0.929E-01
DAV:   2    -0.386631065726E+03   -0.52922E-01   -0.56484E-01 37624   0.147E+00    0.184E+00
DAV:   3    -0.386633323208E+03   -0.22575E-02   -0.12775E-01 58168   0.549E-01    0.208E+00
DAV:   4    -0.386630694635E+03    0.26286E-02   -0.64353E-02 48440   0.362E-01    0.141E+00
DAV:   5    -0.386627746075E+03    0.29486E-02   -0.12150E-02 48408   0.239E-01    0.392E-01
DAV:   6    -0.386628612433E+03   -0.86636E-03   -0.43283E-03 47184   0.210E-01    0.546E-01
DAV:   7    -0.386628106965E+03    0.50547E-03   -0.37002E-03 47912   0.155E-01    0.426E-01
DAV:   8    -0.386628018589E+03    0.88376E-04   -0.19101E-03 50672   0.125E-01    0.380E-01
DAV:   9    -0.386627860312E+03    0.15828E-03   -0.16133E-03 48632   0.891E-02    0.110E-01
DAV:  10    -0.386627984732E+03   -0.12442E-03   -0.40637E-04 40888   0.506E-02    0.136E-01
DAV:  11    -0.386627960303E+03    0.24429E-04   -0.19629E-04 32848   0.328E-02    0.870E-02
DAV:  12    -0.386627959524E+03    0.77892E-06   -0.56871E-05 29336   0.185E-02
   3 F= -.38662796E+03 E0= -.38661513E+03  d E =-.294363E+00  mag=    34.0007
       N       E                     dE             d eps       ncg     rms          rms(c)
DAV:   1    -0.386750282925E+03   -0.12232E+00   -0.58031E+01 37920   0.191E+01    0.217E+00
DAV:   2    -0.387057802903E+03   -0.30752E+00   -0.31959E+00 36576   0.356E+00    0.491E+00
DAV:   3    -0.387054317574E+03    0.34853E-02   -0.92224E-01 57072   0.136E+00    0.373E+00
DAV:   4    -0.387071207643E+03   -0.16890E-01   -0.51958E-01 50224   0.862E-01    0.416E+00
DAV:   5    -0.387037145978E+03    0.34062E-01   -0.10616E-01 48264   0.609E-01    0.157E+00
DAV:   6    -0.387038310242E+03   -0.11643E-02   -0.19176E-02 52336   0.376E-01    0.122E+00
DAV:   7    -0.387038992129E+03   -0.68189E-03   -0.21887E-02 50720   0.383E-01    0.112E+00
DAV:   8    -0.387040537313E+03   -0.15452E-02   -0.15772E-02 50328   0.296E-01    0.151E+00
DAV:   9    -0.387036104611E+03    0.44327E-02   -0.26666E-02 48920   0.309E-01    0.846E-01
DAV:  10    -0.387036819391E+03   -0.71478E-03   -0.93972E-03 48840   0.207E-01    0.481E-01
DAV:  11    -0.387037098761E+03   -0.27937E-03   -0.41114E-03 49752   0.148E-01    0.310E-01
DAV:  12    -0.387037336537E+03   -0.23778E-03   -0.96652E-04 49432   0.971E-02    0.361E-01
DAV:  13    -0.387037191482E+03    0.14506E-03   -0.10966E-03 46736   0.657E-02    0.167E-01
DAV:  14    -0.387037251144E+03   -0.59662E-04   -0.19508E-04 40208   0.367E-02    0.101E-01
DAV:  15    -0.387037271868E+03   -0.20724E-04   -0.39033E-05 29760   0.175E-02    0.887E-02
DAV:  16    -0.387037270523E+03    0.13448E-05   -0.29879E-05 27080   0.120E-02
   4 F= -.38703727E+03 E0= -.38702414E+03  d E =-.409311E+00  mag=    34.0001
       N       E                     dE             d eps       ncg     rms          rms(c)
DAV:   1    -0.386805793844E+03    0.23148E+00   -0.78928E+01 37192   0.244E+01    0.281E+00
DAV:   2    -0.387292182371E+03   -0.48639E+00   -0.48531E+00 36032   0.428E+00    0.513E+00
DAV:   3    -0.387330800811E+03   -0.38618E-01   -0.15808E+00 57408   0.177E+00    0.586E+00
DAV:   4    -0.387352787460E+03   -0.21987E-01   -0.14669E+00 51840   0.121E+00    0.570E+00
DAV:   5    -0.387297136629E+03    0.55651E-01   -0.21911E-01 49040   0.915E-01    0.281E+00
DAV:   6    -0.387290093805E+03    0.70428E-02   -0.37626E-02 50392   0.488E-01    0.193E+00
DAV:   7    -0.387286791280E+03    0.33025E-02   -0.32862E-02 52192   0.510E-01    0.137E+00
DAV:   8    -0.387289830817E+03   -0.30395E-02   -0.36651E-02 50048   0.396E-01    0.146E+00
DAV:   9    -0.387287723526E+03    0.21073E-02   -0.20766E-02 48792   0.350E-01    0.101E+00
DAV:  10    -0.387287310393E+03    0.41313E-03   -0.86607E-03 50616   0.257E-01    0.725E-01
DAV:  11    -0.387287199577E+03    0.11082E-03   -0.92178E-03 50280   0.221E-01    0.437E-01
DAV:  12    -0.387288068363E+03   -0.86879E-03   -0.45927E-03 50576   0.163E-01    0.620E-01
DAV:  13    -0.387287874430E+03    0.19393E-03   -0.19664E-03 47984   0.112E-01    0.522E-01
DAV:  14    -0.387287515168E+03    0.35926E-03   -0.10297E-03 46888   0.701E-02    0.179E-01
DAV:  15    -0.387287715573E+03   -0.20040E-03   -0.27352E-04 38288   0.346E-02    0.145E-01
DAV:  16    -0.387287740185E+03   -0.24613E-04   -0.65897E-05 33096   0.220E-02    0.111E-01
DAV:  17    -0.387287742357E+03   -0.21719E-05   -0.22577E-04 34224   0.255E-02    0.121E-01
DAV:  18    -0.387287734571E+03    0.77859E-05   -0.16608E-04 32472   0.319E-02    0.472E-02
DAV:  19    -0.387287748814E+03   -0.14242E-04   -0.23477E-05 27288   0.151E-02    0.411E-02
DAV:  20    -0.387287746013E+03    0.28006E-05   -0.90228E-06 21824   0.102E-02
   5 F= -.38728775E+03 E0= -.38727483E+03  d E =-.250475E+00  mag=    34.0000
       N       E                     dE             d eps       ncg     rms          rms(c)
DAV:   1    -0.387001579812E+03    0.28617E+00   -0.71189E+01 36696   0.228E+01    0.251E+00
DAV:   2    -0.387390477707E+03   -0.38890E+00   -0.38819E+00 36176   0.395E+00    0.255E+00
DAV:   3    -0.387453307286E+03   -0.62830E-01   -0.74498E-01 56712   0.146E+00    0.563E+00
DAV:   4    -0.387405958701E+03    0.47349E-01   -0.51573E-01 49584   0.102E+00    0.281E+00
DAV:   5    -0.387400894621E+03    0.50641E-02   -0.72220E-02 50480   0.606E-01    0.831E-01
DAV:   6    -0.387404552591E+03   -0.36580E-02   -0.11301E-02 51288   0.359E-01    0.820E-01
DAV:   7    -0.387404326343E+03    0.22625E-03   -0.71192E-03 48096   0.247E-01    0.641E-01
DAV:   8    -0.387405996180E+03   -0.16698E-02   -0.21994E-02 50648   0.277E-01    0.135E+00
DAV:   9    -0.387403444020E+03    0.25522E-02   -0.20155E-02 48480   0.251E-01    0.514E-01
DAV:  10    -0.387404307850E+03   -0.86383E-03   -0.35894E-03 46680   0.151E-01    0.255E-01
DAV:  11    -0.387404303373E+03    0.44768E-05   -0.10084E-03 48056   0.827E-02    0.129E-01
DAV:  12    -0.387404323576E+03   -0.20203E-04   -0.28500E-04 45912   0.494E-02    0.947E-02
DAV:  13    -0.387404311201E+03    0.12375E-04   -0.10175E-04 33208   0.304E-02    0.519E-02
DAV:  14    -0.387404317893E+03   -0.66916E-05   -0.29225E-05 28504   0.189E-02
   6 F= -.38740432E+03 E0= -.38739164E+03  d E =-.116572E+00  mag=    34.0000
       N       E                     dE             d eps       ncg     rms          rms(c)
DAV:   1    -0.387134819119E+03    0.26949E+00   -0.83427E+01 36576   0.234E+01    0.204E+00
DAV:   2    -0.387460085808E+03   -0.32527E+00   -0.33264E+00 35640   0.411E+00    0.225E+00
DAV:   3    -0.387503567826E+03   -0.43482E-01   -0.60181E-01 55072   0.128E+00    0.505E+00
DAV:   4    -0.387462713207E+03    0.40855E-01   -0.36656E-01 50352   0.891E-01    0.236E+00
DAV:   5    -0.387460599227E+03    0.21140E-02   -0.49736E-02 49872   0.511E-01    0.710E-01
DAV:   6    -0.387463202464E+03   -0.26032E-02   -0.99922E-03 49784   0.305E-01    0.843E-01
DAV:   7    -0.387463074695E+03    0.12777E-03   -0.14944E-02 50176   0.264E-01    0.112E+00
DAV:   8    -0.387461372267E+03    0.17024E-02   -0.14618E-02 48640   0.245E-01    0.602E-01
DAV:   9    -0.387461898576E+03   -0.52631E-03   -0.42026E-03 46136   0.178E-01    0.366E-01
DAV:  10    -0.387461930228E+03   -0.31652E-04   -0.20356E-03 49896   0.119E-01    0.211E-01
DAV:  11    -0.387461957853E+03   -0.27625E-04   -0.10425E-03 47504   0.788E-02    0.150E-01
DAV:  12    -0.387461960044E+03   -0.21906E-05   -0.25256E-04 43416   0.450E-02    0.951E-02
DAV:  13    -0.387461949666E+03    0.10377E-04   -0.97234E-05 32184   0.244E-02    0.614E-02
DAV:  14    -0.387461952879E+03   -0.32127E-05   -0.17541E-05 26064   0.147E-02
   7 F= -.38746195E+03 E0= -.38744927E+03  d E =-.576350E-01  mag=    34.0000
       N       E                     dE             d eps       ncg     rms          rms(c)
DAV:   1    -0.386516125783E+03    0.94582E+00   -0.21408E+02 36152   0.405E+01    0.383E+00
DAV:   2    -0.387549599090E+03   -0.10335E+01   -0.10491E+01 34992   0.736E+00    0.693E+00
DAV:   3    -0.387598037932E+03   -0.48439E-01   -0.23002E+00 50432   0.256E+00    0.724E+00
DAV:   4    -0.387595831175E+03    0.22068E-02   -0.20917E+00 50440   0.154E+00    0.671E+00
DAV:   5    -0.387521350000E+03    0.74481E-01   -0.52519E-01 50920   0.101E+00    0.323E+00
DAV:   6    -0.387510077674E+03    0.11272E-01   -0.72907E-02 50984   0.669E-01    0.174E+00
DAV:   7    -0.387517127498E+03   -0.70498E-02   -0.51945E-02 50504   0.516E-01    0.170E+00
DAV:   8    -0.387516719505E+03    0.40799E-03   -0.52229E-02 49272   0.451E-01    0.177E+00
DAV:   9    -0.387514492564E+03    0.22269E-02   -0.34666E-02 48864   0.389E-01    0.142E+00
DAV:  10    -0.387514103039E+03    0.38952E-03   -0.21217E-02 48600   0.327E-01    0.123E+00
DAV:  11    -0.387515628591E+03   -0.15256E-02   -0.23334E-02 49008   0.341E-01    0.151E+00
DAV:  12    -0.387513975592E+03    0.16530E-02   -0.14058E-02 46624   0.263E-01    0.107E+00
DAV:  13    -0.387513480136E+03    0.49546E-03   -0.64070E-03 47672   0.178E-01    0.387E-01
DAV:  14    -0.387514214018E+03   -0.73388E-03   -0.16388E-03 43152   0.106E-01    0.178E-01
DAV:  15    -0.387514414515E+03   -0.20050E-03   -0.32627E-04 41840   0.484E-02    0.181E-01
DAV:  16    -0.387514344455E+03    0.70060E-04   -0.16545E-04 39648   0.389E-02    0.102E-01
DAV:  17    -0.387514394110E+03   -0.49656E-04   -0.56229E-04 40224   0.378E-02    0.133E-01
DAV:  18    -0.387514404233E+03   -0.10123E-04   -0.12134E-04 32744   0.373E-02    0.108E-01
DAV:  19    -0.387514395466E+03    0.87667E-05   -0.62237E-05 29760   0.204E-02
   8 F= -.38751440E+03 E0= -.38750184E+03  d E =-.524426E-01  mag=    34.0000
       N       E                     dE             d eps       ncg     rms          rms(c)
DAV:   1    -0.386403166068E+03    0.11112E+01   -0.16044E+02 37048   0.371E+01    0.443E+00
DAV:   2    -0.387700125566E+03   -0.12970E+01   -0.12899E+01 35984   0.739E+00    0.143E+01
DAV:   3    -0.387536070019E+03    0.16406E+00   -0.65097E+00 49496   0.248E+00    0.743E+00
DAV:   4    -0.387553576100E+03   -0.17506E-01   -0.13690E+00 50296   0.192E+00    0.777E+00
DAV:   5    -0.387483269462E+03    0.70307E-01   -0.78983E-01 50944   0.141E+00    0.378E+00
DAV:   6    -0.387491889888E+03   -0.86204E-02   -0.20778E-01 49840   0.810E-01    0.300E+00
DAV:   7    -0.387507384552E+03   -0.15495E-01   -0.26171E-01 49944   0.720E-01    0.389E+00
DAV:   8    -0.387493590191E+03    0.13794E-01   -0.61247E-02 48000   0.559E-01    0.213E+00
DAV:   9    -0.387494545781E+03   -0.95559E-03   -0.42845E-02 49344   0.370E-01    0.148E+00
DAV:  10    -0.387497949184E+03   -0.34034E-02   -0.58101E-02 49896   0.461E-01    0.178E+00
DAV:  11    -0.387496093191E+03    0.18560E-02   -0.21040E-02 47344   0.368E-01    0.136E+00
DAV:  12    -0.387496703434E+03   -0.61024E-03   -0.41159E-02 49312   0.336E-01    0.126E+00
DAV:  13    -0.387497327339E+03   -0.62391E-03   -0.73974E-03 46896   0.272E-01    0.129E+00
DAV:  14    -0.387495791562E+03    0.15358E-02   -0.46176E-03 47184   0.135E-01    0.727E-01
DAV:  15    -0.387495942044E+03   -0.15048E-03   -0.13756E-03 43920   0.782E-02    0.381E-01
DAV:  16    -0.387496050230E+03   -0.10819E-03   -0.60507E-04 44048   0.471E-02    0.158E-01
DAV:  17    -0.387496215683E+03   -0.16545E-03   -0.34125E-04 38664   0.419E-02    0.147E-01
DAV:  18    -0.387496223223E+03   -0.75399E-05   -0.15640E-04 33512   0.295E-02    0.950E-02
DAV:  19    -0.387496227875E+03   -0.46521E-05   -0.53316E-05 30848   0.181E-02
   9 F= -.38749623E+03 E0= -.38748310E+03  d E =0.181676E-01  mag=    34.0000
       N       E                     dE             d eps       ncg     rms          rms(c)
DAV:   1    -0.387316398297E+03    0.17982E+00   -0.18764E+01 38336   0.138E+01    0.254E+00
DAV:   2    -0.387685550378E+03   -0.36915E+00   -0.38433E+00 39616   0.318E+00    0.740E+00
DAV:   3    -0.387557668103E+03    0.12788E+00   -0.90705E-01 47912   0.185E+00    0.360E+00
DAV:   4    -0.387572247242E+03   -0.14579E-01   -0.32366E-01 49552   0.952E-01    0.297E+00
DAV:   5    -0.387570821741E+03    0.14255E-02   -0.17217E-01 48904   0.649E-01    0.171E+00
DAV:   6    -0.387570675079E+03    0.14666E-03   -0.31652E-02 48456   0.372E-01    0.121E+00
DAV:   7    -0.387571294242E+03   -0.61916E-03   -0.43104E-02 48736   0.330E-01    0.100E+00
DAV:   8    -0.387572820925E+03   -0.15267E-02   -0.13731E-02 48400   0.277E-01    0.145E+00
DAV:   9    -0.387570296229E+03    0.25247E-02   -0.15008E-02 49208   0.206E-01    0.527E-01
DAV:  10    -0.387571018260E+03   -0.72203E-03   -0.49046E-03 46408   0.152E-01    0.394E-01
DAV:  11    -0.387571264441E+03   -0.24618E-03   -0.19748E-03 48040   0.992E-02    0.431E-01
DAV:  12    -0.387571032453E+03    0.23199E-03   -0.17637E-03 46792   0.789E-02    0.132E-01
DAV:  13    -0.387571213218E+03   -0.18077E-03   -0.30703E-04 41120   0.449E-02    0.189E-01
DAV:  14    -0.387571170697E+03    0.42521E-04   -0.16445E-04 31760   0.268E-02    0.869E-02
DAV:  15    -0.387571178384E+03   -0.76872E-05   -0.21836E-05 26512   0.131E-02
  10 F= -.38757118E+03 E0= -.38755819E+03  d E =-.749505E-01  mag=    34.0000
       N       E                     dE             d eps       ncg     rms          rms(c)
DAV:   1    -0.387548673790E+03    0.22497E-01   -0.27454E+00 37760   0.540E+00    0.855E-01
DAV:   2    -0.387590815051E+03   -0.42141E-01   -0.39807E-01 35968   0.110E+00    0.279E+00
DAV:   3    -0.387581077554E+03    0.97375E-02   -0.14100E-01 47600   0.577E-01    0.138E+00
DAV:   4    -0.387583704171E+03   -0.26266E-02   -0.17789E-02 44024   0.287E-01    0.676E-01
DAV:   5    -0.387583734142E+03   -0.29972E-04   -0.66042E-03 50416   0.160E-01    0.409E-01
DAV:   6    -0.387584366932E+03   -0.63279E-03   -0.41186E-03 47768   0.145E-01    0.578E-01
DAV:   7    -0.387583767021E+03    0.59991E-03   -0.17118E-03 47824   0.118E-01    0.218E-01
DAV:   8    -0.387583971066E+03   -0.20405E-03   -0.10692E-03 46536   0.877E-02    0.222E-01
DAV:   9    -0.387583976676E+03   -0.56093E-05   -0.56826E-04 47344   0.657E-02    0.156E-01
DAV:  10    -0.387583963257E+03    0.13419E-04   -0.23240E-04 36360   0.419E-02    0.102E-01
DAV:  11    -0.387583961206E+03    0.20506E-05   -0.13736E-04 31344   0.265E-02    0.525E-02
DAV:  12    -0.387583978350E+03   -0.17144E-04   -0.68390E-05 29744   0.206E-02    0.433E-02
DAV:  13    -0.387583984326E+03   -0.59757E-05   -0.26902E-05 27088   0.159E-02
  11 F= -.38758398E+03 E0= -.38757116E+03  d E =-.128059E-01  mag=    34.0000
       N       E                     dE             d eps       ncg     rms          rms(c)
DAV:   1    -0.387578744868E+03    0.52335E-02   -0.15107E+00 36872   0.374E+00    0.476E-01
DAV:   2    -0.387591156167E+03   -0.12411E-01   -0.12284E-01 35128   0.697E-01    0.427E-01
DAV:   3    -0.387593935033E+03   -0.27789E-02   -0.30665E-02 49952   0.271E-01    0.126E+00
DAV:   4    -0.387590847417E+03    0.30876E-02   -0.19731E-02 47144   0.207E-01    0.183E-01
DAV:   5    -0.387591841020E+03   -0.99360E-03   -0.12073E-03 46496   0.812E-02    0.269E-01
DAV:   6    -0.387591967550E+03   -0.12653E-03   -0.18566E-03 48160   0.765E-02    0.399E-01
DAV:   7    -0.387591734030E+03    0.23352E-03   -0.14901E-03 45880   0.698E-02    0.115E-01
DAV:   8    -0.387591828904E+03   -0.94874E-04   -0.17684E-04 39912   0.437E-02    0.818E-02
DAV:   9    -0.387591827815E+03    0.10890E-05   -0.57401E-05 32392   0.245E-02
  12 F= -.38759183E+03 E0= -.38757918E+03  d E =-.784349E-02  mag=    34.0000
       N       E                     dE             d eps       ncg     rms          rms(c)
DAV:   1    -0.387582886425E+03    0.89425E-02   -0.51983E+00 36064   0.586E+00    0.587E-01
DAV:   2    -0.387605831440E+03   -0.22945E-01   -0.23525E-01 34984   0.105E+00    0.721E-01
DAV:   3    -0.387610096039E+03   -0.42646E-02   -0.46884E-02 51144   0.361E-01    0.184E+00
DAV:   4    -0.387604441970E+03    0.56541E-02   -0.18287E-02 46672   0.269E-01    0.426E-01
DAV:   5    -0.387605954552E+03   -0.15126E-02   -0.28873E-03 46664   0.123E-01    0.374E-01
DAV:   6    -0.387605952234E+03    0.23188E-05   -0.14487E-03 48512   0.102E-01    0.288E-01
DAV:   7    -0.387605920749E+03    0.31484E-04   -0.70373E-04 47936   0.823E-02    0.211E-01
DAV:   8    -0.387605908009E+03    0.12741E-04   -0.70951E-04 48592   0.660E-02    0.183E-01
DAV:   9    -0.387605913060E+03   -0.50515E-05   -0.36793E-04 40040   0.442E-02    0.903E-02
DAV:  10    -0.387605926700E+03   -0.13640E-04   -0.12674E-04 31568   0.273E-02    0.628E-02
DAV:  11    -0.387605924711E+03    0.19895E-05   -0.29321E-05 26728   0.145E-02
  13 F= -.38760592E+03 E0= -.38759338E+03  d E =-.140969E-01  mag=    34.0000
       N       E                     dE             d eps       ncg     rms          rms(c)
DAV:   1    -0.387524834804E+03    0.81092E-01   -0.35139E+01 36576   0.138E+01    0.127E+00
DAV:   2    -0.387648718478E+03   -0.12388E+00   -0.12977E+00 35080   0.245E+00    0.177E+00
DAV:   3    -0.387668158196E+03   -0.19440E-01   -0.34541E-01 50040   0.813E-01    0.391E+00
DAV:   4    -0.387643339026E+03    0.24819E-01   -0.12354E-01 49544   0.598E-01    0.157E+00
DAV:   5    -0.387645324060E+03   -0.19850E-02   -0.17836E-02 50920   0.293E-01    0.675E-01
DAV:   6    -0.387646265724E+03   -0.94166E-03   -0.63831E-03 47184   0.224E-01    0.660E-01
DAV:   7    -0.387646595842E+03   -0.33012E-03   -0.11008E-02 50440   0.238E-01    0.878E-01
DAV:   8    -0.387645545004E+03    0.10508E-02   -0.32119E-03 47920   0.179E-01    0.609E-01
DAV:   9    -0.387645302817E+03    0.24219E-03   -0.29336E-03 50552   0.123E-01    0.239E-01
DAV:  10    -0.387645546136E+03   -0.24332E-03   -0.12558E-03 46304   0.840E-02    0.160E-01
DAV:  11    -0.387645584870E+03   -0.38734E-04   -0.28902E-04 38200   0.420E-02    0.113E-01
DAV:  12    -0.387645577489E+03    0.73807E-05   -0.49806E-05 30168   0.180E-02
  14 F= -.38764558E+03 E0= -.38763321E+03  d E =-.396528E-01  mag=    34.0000
       N       E                     dE             d eps       ncg     rms          rms(c)
DAV:   1    -0.386310075378E+03    0.13355E+01   -0.14347E+02 37768   0.359E+01    0.490E+00
DAV:   2    -0.387808741975E+03   -0.14987E+01   -0.15317E+01 35392   0.760E+00    0.113E+01
DAV:   3    -0.387692586867E+03    0.11616E+00   -0.48546E+00 49712   0.313E+00    0.875E+00
DAV:   4    -0.387623024462E+03    0.69562E-01   -0.21133E+00 51576   0.199E+00    0.645E+00
DAV:   5    -0.387590073041E+03    0.32951E-01   -0.75605E-01 50632   0.157E+00    0.401E+00
DAV:   6    -0.387590367687E+03   -0.29465E-03   -0.33087E-01 49728   0.739E-01    0.248E+00
DAV:   7    -0.387601647737E+03   -0.11280E-01   -0.99566E-02 49304   0.614E-01    0.276E+00
DAV:   8    -0.387598202863E+03    0.34449E-02   -0.92533E-02 48952   0.482E-01    0.209E+00
DAV:   9    -0.387597755245E+03    0.44762E-03   -0.98824E-02 49232   0.523E-01    0.134E+00
DAV:  10    -0.387601320554E+03   -0.35653E-02   -0.35465E-02 49168   0.432E-01    0.167E+00
DAV:  11    -0.387598563501E+03    0.27571E-02   -0.25344E-02 49464   0.379E-01    0.111E+00
DAV:  12    -0.387599291029E+03   -0.72753E-03   -0.15482E-02 49384   0.285E-01    0.928E-01
DAV:  13    -0.387599411069E+03   -0.12004E-03   -0.72118E-03 47992   0.223E-01    0.664E-01
DAV:  14    -0.387599481709E+03   -0.70639E-04   -0.29330E-03 44408   0.137E-01    0.287E-01
DAV:  15    -0.387599584029E+03   -0.10232E-03   -0.89256E-04 46224   0.796E-02    0.150E-01
DAV:  16    -0.387599647585E+03   -0.63556E-04   -0.31996E-04 43808   0.487E-02    0.144E-01
DAV:  17    -0.387599624340E+03    0.23245E-04   -0.16913E-04 37720   0.400E-02    0.548E-02
DAV:  18    -0.387599656537E+03   -0.32198E-04   -0.13019E-04 32432   0.292E-02    0.637E-02
DAV:  19    -0.387599656761E+03   -0.22327E-06   -0.54325E-05 29544   0.211E-02
  15 F= -.38759966E+03 E0= -.38758614E+03  d E =0.459207E-01  mag=    34.0000
       N       E                     dE             d eps       ncg     rms          rms(c)
DAV:   1    -0.387348204358E+03    0.25145E+00   -0.23512E+01 38488   0.162E+01    0.256E+00
DAV:   2    -0.387664917044E+03   -0.31671E+00   -0.30528E+00 35400   0.312E+00    0.360E+00
DAV:   3    -0.387726751917E+03   -0.61835E-01   -0.12620E+00 50264   0.155E+00    0.507E+00
DAV:   4    -0.387693908070E+03    0.32844E-01   -0.53006E-01 50288   0.100E+00    0.414E+00
DAV:   5    -0.387670002574E+03    0.23905E-01   -0.15223E-01 49808   0.607E-01    0.165E+00
DAV:   6    -0.387675443410E+03   -0.54408E-02   -0.28707E-02 47344   0.395E-01    0.110E+00
DAV:   7    -0.387681350848E+03   -0.59074E-02   -0.55593E-02 49592   0.413E-01    0.155E+00
DAV:   8    -0.387679857137E+03    0.14937E-02   -0.89443E-03 48048   0.291E-01    0.119E+00
DAV:   9    -0.387678170856E+03    0.16863E-02   -0.10711E-02 48800   0.271E-01    0.705E-01
DAV:  10    -0.387678785154E+03   -0.61430E-03   -0.62670E-03 48016   0.187E-01    0.437E-01
DAV:  11    -0.387679025100E+03   -0.23995E-03   -0.16965E-03 47048   0.115E-01    0.371E-01
DAV:  12    -0.387678896037E+03    0.12906E-03   -0.10567E-03 48680   0.793E-02    0.220E-01
DAV:  13    -0.387678906593E+03   -0.10556E-04   -0.43144E-04 42064   0.505E-02    0.104E-01
DAV:  14    -0.387678938060E+03   -0.31467E-04   -0.11320E-04 38064   0.272E-02    0.627E-02
DAV:  15    -0.387678936043E+03    0.20174E-05   -0.54159E-05 29032   0.174E-02
  16 F= -.38767894E+03 E0= -.38766639E+03  d E =-.792793E-01  mag=    34.0000
       N       E                     dE             d eps       ncg     rms          rms(c)
DAV:   1    -0.387604946993E+03    0.73991E-01   -0.68115E+00 38200   0.836E+00    0.125E+00
DAV:   2    -0.387684059449E+03   -0.79112E-01   -0.77429E-01 35288   0.158E+00    0.141E+00
DAV:   3    -0.387708776400E+03   -0.24717E-01   -0.29264E-01 49904   0.758E-01    0.381E+00
DAV:   4    -0.387684990553E+03    0.23786E-01   -0.15851E-01 47736   0.546E-01    0.146E+00
DAV:   5    -0.387687419752E+03   -0.24292E-02   -0.19758E-02 47952   0.258E-01    0.524E-01
DAV:   6    -0.387689405086E+03   -0.19853E-02   -0.57135E-03 47832   0.202E-01    0.625E-01
DAV:   7    -0.387689630595E+03   -0.22551E-03   -0.61534E-03 48256   0.186E-01    0.565E-01
DAV:   8    -0.387689539962E+03    0.90633E-04   -0.32893E-03 48472   0.149E-01    0.486E-01
DAV:   9    -0.387689317776E+03    0.22219E-03   -0.25553E-03 45848   0.108E-01    0.247E-01
DAV:  10    -0.387689405664E+03   -0.87888E-04   -0.75076E-04 46128   0.766E-02    0.165E-01
DAV:  11    -0.387689411079E+03   -0.54150E-05   -0.19759E-04 38720   0.393E-02    0.857E-02
DAV:  12    -0.387689419532E+03   -0.84528E-05   -0.10615E-04 32848   0.275E-02    0.777E-02
DAV:  13    -0.387689427222E+03   -0.76900E-05   -0.49707E-05 31192   0.238E-02
  17 F= -.38768943E+03 E0= -.38767723E+03  d E =-.104912E-01  mag=    34.0000
       N       E                     dE             d eps       ncg     rms          rms(c)
DAV:   1    -0.387687548827E+03    0.18707E-02   -0.48003E-01 36608   0.197E+00    0.225E-01
DAV:   2    -0.387690342429E+03   -0.27936E-02   -0.28489E-02 35504   0.359E-01    0.253E-01
DAV:   3    -0.387690802096E+03   -0.45967E-03   -0.32831E-03 52664   0.132E-01    0.529E-01
DAV:   4    -0.387690266253E+03    0.53584E-03   -0.11856E-03 46488   0.961E-02    0.124E-01
DAV:   5    -0.387690437740E+03   -0.17149E-03   -0.50243E-04 38824   0.409E-02    0.195E-01
DAV:   6    -0.387690410205E+03    0.27534E-04   -0.43347E-04 36928   0.414E-02    0.130E-01
DAV:   7    -0.387690405668E+03    0.45377E-05   -0.23218E-04 36456   0.371E-02    0.888E-02
DAV:   8    -0.387690405843E+03   -0.17564E-06   -0.76776E-05 33208   0.264E-02
  18 F= -.38769041E+03 E0= -.38767817E+03  d E =-.978622E-03  mag=    34.0000
       N       E                     dE             d eps       ncg     rms          rms(c)
DAV:   1    -0.387670961286E+03    0.19444E-01   -0.44954E+00 36392   0.572E+00    0.567E-01
DAV:   2    -0.387691593168E+03   -0.20632E-01   -0.21232E-01 35232   0.102E+00    0.676E-01
DAV:   3    -0.387696307286E+03   -0.47141E-02   -0.45812E-02 51872   0.367E-01    0.188E+00
DAV:   4    -0.387689873882E+03    0.64334E-02   -0.23566E-02 48728   0.275E-01    0.391E-01
DAV:   5    -0.387691697410E+03   -0.18235E-02   -0.23564E-03 47552   0.126E-01    0.333E-01
DAV:   6    -0.387691814823E+03   -0.11741E-03   -0.17930E-03 48408   0.102E-01    0.294E-01
DAV:   7    -0.387691690792E+03    0.12403E-03   -0.10320E-03 49584   0.810E-02    0.136E-01
DAV:   8    -0.387691743167E+03   -0.52375E-04   -0.57831E-04 49400   0.599E-02    0.144E-01
DAV:   9    -0.387691722110E+03    0.21058E-04   -0.19599E-04 40168   0.390E-02    0.501E-02
DAV:  10    -0.387691733833E+03   -0.11724E-04   -0.66594E-05 30304   0.191E-02    0.563E-02
DAV:  11    -0.387691729605E+03    0.42285E-05   -0.29832E-05 26184   0.149E-02
  19 F= -.38769173E+03 E0= -.38767946E+03  d E =-.132376E-02  mag=    34.0000
       N       E                     dE             d eps       ncg     rms          rms(c)
DAV:   1    -0.387684904168E+03    0.68297E-02   -0.32436E+00 36608   0.456E+00    0.429E-01
DAV:   2    -0.387697644550E+03   -0.12740E-01   -0.13160E-01 35072   0.810E-01    0.675E-01
DAV:   3    -0.387699435238E+03   -0.17907E-02   -0.27657E-02 49288   0.276E-01    0.131E+00
DAV:   4    -0.387696659688E+03    0.27755E-02   -0.98817E-03 48080   0.198E-01    0.375E-01
DAV:   5    -0.387697334038E+03   -0.67435E-03   -0.15569E-03 48344   0.901E-02    0.214E-01
DAV:   6    -0.387697447876E+03   -0.11384E-03   -0.67061E-04 46488   0.745E-02    0.236E-01
DAV:   7    -0.387697397757E+03    0.50119E-04   -0.74568E-04 49976   0.743E-02    0.207E-01
DAV:   8    -0.387697350440E+03    0.47317E-04   -0.30026E-04 48368   0.549E-02    0.993E-02
DAV:   9    -0.387697369794E+03   -0.19354E-04   -0.18015E-04 34560   0.329E-02    0.775E-02
DAV:  10    -0.387697369254E+03    0.54001E-06   -0.87763E-05 30416   0.249E-02
  20 F= -.38769737E+03 E0= -.38768511E+03  d E =-.563965E-02  mag=    34.0000
       N       E                     dE             d eps       ncg     rms          rms(c)
DAV:   1    -0.386848101130E+03    0.84927E+00   -0.20191E+02 36192   0.355E+01    0.341E+00
DAV:   2    -0.387738193606E+03   -0.89009E+00   -0.93749E+00 34976   0.642E+00    0.293E+00
DAV:   3    -0.387801291926E+03   -0.63098E-01   -0.11924E+00 49264   0.204E+00    0.473E+00
DAV:   4    -0.387786475848E+03    0.14816E-01   -0.83042E-01 51384   0.121E+00    0.558E+00
DAV:   5    -0.387735686537E+03    0.50789E-01   -0.37419E-01 48976   0.821E-01    0.191E+00
DAV:   6    -0.387738542276E+03   -0.28557E-02   -0.36819E-02 51392   0.605E-01    0.116E+00
DAV:   7    -0.387756354891E+03   -0.17813E-01   -0.17364E-01 49488   0.595E-01    0.371E+00
DAV:   8    -0.387732632328E+03    0.23723E-01   -0.60320E-02 47776   0.502E-01    0.153E+00
DAV:   9    -0.387736020344E+03   -0.33880E-02   -0.47056E-02 50560   0.488E-01    0.956E-01
DAV:  10    -0.387739108214E+03   -0.30879E-02   -0.94014E-03 45584   0.275E-01    0.881E-01
DAV:  11    -0.387737648023E+03    0.14602E-02   -0.17172E-03 45848   0.141E-01    0.568E-01
DAV:  12    -0.387737465369E+03    0.18265E-03   -0.83244E-04 50176   0.759E-02    0.409E-01
DAV:  13    -0.387737581259E+03   -0.11589E-03   -0.57926E-04 45680   0.601E-02    0.357E-01
DAV:  14    -0.387737450610E+03    0.13065E-03   -0.98092E-04 41656   0.723E-02    0.129E-01
DAV:  15    -0.387737612620E+03   -0.16201E-03   -0.28590E-04 36784   0.392E-02    0.616E-02
DAV:  16    -0.387737642198E+03   -0.29578E-04   -0.10192E-04 32640   0.233E-02    0.106E-01
DAV:  17    -0.387737619793E+03    0.22405E-04   -0.25113E-05 26696   0.163E-02    0.604E-02
DAV:  18    -0.387737619940E+03   -0.14713E-06   -0.52405E-05 24304   0.125E-02
  21 F= -.38773762E+03 E0= -.38772547E+03  d E =-.402507E-01  mag=    34.0000
       N       E                     dE             d eps       ncg     rms          rms(c)
DAV:   1    -0.385264950520E+03    0.24727E+01   -0.19434E+02 37656   0.489E+01    0.652E+00
DAV:   2    -0.387439147802E+03   -0.21742E+01   -0.21302E+01 35896   0.955E+00    0.620E+00
DAV:   3    -0.387696605278E+03   -0.25746E+00   -0.40529E+00 49624   0.363E+00    0.828E+00
DAV:   4    -0.387647739232E+03    0.48866E-01   -0.25641E+00 50312   0.208E+00    0.684E+00
DAV:   5    -0.387583878665E+03    0.63861E-01   -0.98083E-01 49920   0.138E+00    0.507E+00
DAV:   6    -0.387556685786E+03    0.27193E-01   -0.25057E-01 49504   0.956E-01    0.237E+00
DAV:   7    -0.387552593528E+03    0.40923E-02   -0.70609E-02 50616   0.877E-01    0.204E+00
DAV:   8    -0.387577652497E+03   -0.25059E-01   -0.21884E-01 51256   0.815E-01    0.412E+00
DAV:   9    -0.387550740451E+03    0.26912E-01   -0.21327E-01 49488   0.777E-01    0.230E+00
DAV:  10    -0.387557086212E+03   -0.63458E-02   -0.12343E-01 49800   0.737E-01    0.164E+00
DAV:  11    -0.387556762658E+03    0.32355E-03   -0.26836E-02 48440   0.458E-01    0.108E+00
DAV:  12    -0.387555033049E+03    0.17296E-02   -0.56946E-03 49800   0.268E-01    0.447E-01
DAV:  13    -0.387555405042E+03   -0.37199E-03   -0.25069E-03 47656   0.113E-01    0.252E-01
DAV:  14    -0.387555516496E+03   -0.11145E-03   -0.34095E-04 45032   0.565E-02    0.183E-01
DAV:  15    -0.387555513738E+03    0.27588E-05   -0.48922E-04 45056   0.549E-02    0.148E-01
DAV:  16    -0.387555519041E+03   -0.53029E-05   -0.23687E-04 42216   0.370E-02    0.103E-01
DAV:  17    -0.387555517413E+03    0.16273E-05   -0.11825E-04 32456   0.241E-02    0.656E-02
DAV:  18    -0.387555518991E+03   -0.15781E-05   -0.32680E-05 29048   0.164E-02
  22 F= -.38755552E+03 E0= -.38754434E+03  d E =0.182101E+00  mag=    34.0000
       N       E                     dE             d eps       ncg     rms          rms(c)
DAV:   1    -0.387257888568E+03    0.29763E+00   -0.33065E+01 37808   0.214E+01    0.324E+00
DAV:   2    -0.387798045683E+03   -0.54016E+00   -0.53471E+00 36144   0.431E+00    0.597E+00
DAV:   3    -0.387773614544E+03    0.24431E-01   -0.10558E+00 49416   0.205E+00    0.502E+00
DAV:   4    -0.387778608355E+03   -0.49938E-02   -0.64945E-01 49960   0.119E+00    0.352E+00
DAV:   5    -0.387758919102E+03    0.19689E-01   -0.98835E-02 51416   0.706E-01    0.130E+00
DAV:   6    -0.387762334012E+03   -0.34149E-02   -0.18739E-02 50344   0.409E-01    0.114E+00
DAV:   7    -0.387764159914E+03   -0.18259E-02   -0.13701E-02 50592   0.310E-01    0.806E-01
DAV:   8    -0.387765391565E+03   -0.12317E-02   -0.94394E-03 51152   0.317E-01    0.861E-01
DAV:   9    -0.387764538170E+03    0.85340E-03   -0.78564E-03 49872   0.227E-01    0.399E-01
DAV:  10    -0.387765316095E+03   -0.77793E-03   -0.58722E-03 50304   0.203E-01    0.579E-01
DAV:  11    -0.387764874079E+03    0.44202E-03   -0.30900E-03 46752   0.123E-01    0.272E-01
DAV:  12    -0.387764889263E+03   -0.15183E-04   -0.98367E-04 43456   0.733E-02    0.149E-01
DAV:  13    -0.387764930610E+03   -0.41347E-04   -0.31323E-04 44056   0.449E-02    0.112E-01
DAV:  14    -0.387764914902E+03    0.15708E-04   -0.15589E-04 32768   0.349E-02    0.451E-02
DAV:  15    -0.387764916957E+03   -0.20550E-05   -0.32109E-05 31832   0.214E-02
  23 F= -.38776492E+03 E0= -.38775335E+03  d E =-.209398E+00  mag=    34.0000
       N       E                     dE             d eps       ncg     rms          rms(c)
DAV:   1    -0.387699070676E+03    0.65844E-01   -0.73291E+00 37728   0.102E+01    0.149E+00
DAV:   2    -0.387808160402E+03   -0.10909E+00   -0.10513E+00 36008   0.197E+00    0.282E+00
DAV:   3    -0.387816153776E+03   -0.79934E-02   -0.30454E-01 49056   0.945E-01    0.351E+00
DAV:   4    -0.387808032913E+03    0.81209E-02   -0.20713E-01 49032   0.622E-01    0.166E+00
DAV:   5    -0.387807197151E+03    0.83576E-03   -0.13008E-02 48680   0.350E-01    0.708E-01
DAV:   6    -0.387807841877E+03   -0.64473E-03   -0.46169E-03 49632   0.190E-01    0.605E-01
DAV:   7    -0.387808222877E+03   -0.38100E-03   -0.51751E-03 48888   0.153E-01    0.474E-01
DAV:   8    -0.387808726307E+03   -0.50343E-03   -0.39300E-03 49200   0.143E-01    0.613E-01
DAV:   9    -0.387808168220E+03    0.55809E-03   -0.32566E-03 47640   0.130E-01    0.228E-01
DAV:  10    -0.387808379593E+03   -0.21137E-03   -0.86643E-04 46816   0.930E-02    0.188E-01
DAV:  11    -0.387808382835E+03   -0.32423E-05   -0.28752E-04 44488   0.542E-02    0.118E-01
DAV:  12    -0.387808371226E+03    0.11610E-04   -0.17799E-04 35976   0.326E-02    0.747E-02
DAV:  13    -0.387808374067E+03   -0.28410E-05   -0.81915E-05 31472   0.246E-02
  24 F= -.38780837E+03 E0= -.38779665E+03  d E =-.434571E-01  mag=    34.0000
       N       E                     dE             d eps       ncg     rms          rms(c)
DAV:   1    -0.387762676687E+03    0.45695E-01   -0.41077E+00 37872   0.755E+00    0.105E+00
DAV:   2    -0.387817329234E+03   -0.54653E-01   -0.52849E-01 35824   0.142E+00    0.183E+00
DAV:   3    -0.387824295940E+03   -0.69667E-02   -0.14083E-01 49552   0.651E-01    0.270E+00
DAV:   4    -0.387816781379E+03    0.75146E-02   -0.91183E-02 47864   0.453E-01    0.978E-01
DAV:   5    -0.387818129278E+03   -0.13479E-02   -0.65362E-03 47320   0.225E-01    0.490E-01
DAV:   6    -0.387818434056E+03   -0.30478E-03   -0.27335E-03 49472   0.144E-01    0.403E-01
DAV:   7    -0.387818605832E+03   -0.17178E-03   -0.22242E-03 49040   0.104E-01    0.332E-01
DAV:   8    -0.387818739939E+03   -0.13411E-03   -0.19333E-03 48992   0.106E-01    0.384E-01
DAV:   9    -0.387818574609E+03    0.16533E-03   -0.15933E-03 47008   0.858E-02    0.174E-01
DAV:  10    -0.387818625563E+03   -0.50954E-04   -0.35808E-04 45896   0.607E-02    0.105E-01
DAV:  11    -0.387818633262E+03   -0.76985E-05   -0.10861E-04 33904   0.295E-02    0.755E-02
DAV:  12    -0.387818626389E+03    0.68730E-05   -0.75925E-05 31184   0.223E-02
  25 F= -.38781863E+03 E0= -.38780665E+03  d E =-.102523E-01  mag=    34.0000
       N       E                     dE             d eps       ncg     rms          rms(c)
DAV:   1    -0.387812084762E+03    0.65485E-02   -0.70237E-01 37184   0.274E+00    0.316E-01
DAV:   2    -0.387817505516E+03   -0.54208E-02   -0.53463E-02 35768   0.494E-01    0.446E-01
DAV:   3    -0.387818435462E+03   -0.92995E-03   -0.98551E-03 49808   0.190E-01    0.840E-01
DAV:   4    -0.387817413822E+03    0.10216E-02   -0.56674E-03 46016   0.141E-01    0.254E-01
DAV:   5    -0.387817678032E+03   -0.26421E-03   -0.67354E-04 45016   0.629E-02    0.150E-01
DAV:   6    -0.387817726504E+03   -0.48472E-04   -0.25794E-04 40712   0.477E-02    0.158E-01
DAV:   7    -0.387817706280E+03    0.20223E-04   -0.19207E-04 41176   0.430E-02    0.881E-02
DAV:   8    -0.387817720585E+03   -0.14305E-04   -0.21033E-04 36352   0.378E-02    0.830E-02
DAV:   9    -0.387817717529E+03    0.30561E-05   -0.86444E-05 30912   0.266E-02
  26 F= -.38781772E+03 E0= -.38780579E+03  d E =0.908860E-03  mag=    34.0000
       N       E                     dE             d eps       ncg     rms          rms(c)
DAV:   1    -0.387806600602E+03    0.11120E-01   -0.13601E+00 36368   0.326E+00    0.305E-01
DAV:   2    -0.387812761608E+03   -0.61610E-02   -0.63102E-02 35312   0.582E-01    0.221E-01
DAV:   3    -0.387813254360E+03   -0.49275E-03   -0.30196E-03 50168   0.136E-01    0.467E-01
DAV:   4    -0.387812913291E+03    0.34107E-03   -0.20997E-03 49664   0.930E-02    0.195E-01
DAV:   5    -0.387812996308E+03   -0.83017E-04   -0.64094E-04 42328   0.516E-02    0.170E-01
DAV:   6    -0.387813008887E+03   -0.12579E-04   -0.42647E-04 42696   0.490E-02    0.202E-01
DAV:   7    -0.387812960036E+03    0.48852E-04   -0.31282E-04 43144   0.487E-02    0.115E-01
DAV:   8    -0.387812974690E+03   -0.14654E-04   -0.23631E-04 40320   0.430E-02    0.826E-02
DAV:   9    -0.387812967056E+03    0.76344E-05   -0.60884E-05 30408   0.247E-02
  27 F= -.38781297E+03 E0= -.38780104E+03  d E =0.475047E-02  mag=    34.0000
       N       E                     dE             d eps       ncg     rms          rms(c)
DAV:   1    -0.387797214250E+03    0.15760E-01   -0.16523E+00 36528   0.351E+00    0.329E-01
DAV:   2    -0.387804072068E+03   -0.68578E-02   -0.71770E-02 35120   0.622E-01    0.229E-01
DAV:   3    -0.387804500479E+03   -0.42841E-03   -0.37219E-03 49952   0.146E-01    0.388E-01
DAV:   4    -0.387804212336E+03    0.28814E-03   -0.17646E-03 53112   0.915E-02    0.144E-01
DAV:   5    -0.387804356476E+03   -0.14414E-03   -0.96618E-04 43912   0.579E-02    0.293E-01
DAV:   6    -0.387804221796E+03    0.13468E-03   -0.87705E-04 46864   0.585E-02    0.160E-01
DAV:   7    -0.387804253138E+03   -0.31342E-04   -0.34407E-04 47312   0.510E-02    0.135E-01
DAV:   8    -0.387804260233E+03   -0.70944E-05   -0.23174E-04 35056   0.381E-02    0.132E-01
DAV:   9    -0.387804235718E+03    0.24514E-04   -0.11179E-04 30720   0.266E-02    0.255E-02
DAV:  10    -0.387804244066E+03   -0.83479E-05   -0.84313E-06 23648   0.109E-02
  28 F= -.38780424E+03 E0= -.38779235E+03  d E =0.872299E-02  mag=    34.0000
       N       E                     dE             d eps       ncg     rms          rms(c)
DAV:   1    -0.387693409272E+03    0.11083E+00   -0.19422E+01 36200   0.118E+01    0.109E+00
DAV:   2    -0.387773049332E+03   -0.79640E-01   -0.83815E-01 35056   0.210E+00    0.110E+00
DAV:   3    -0.387787204723E+03   -0.14155E-01   -0.16420E-01 50272   0.636E-01    0.315E+00
DAV:   4    -0.387769653861E+03    0.17551E-01   -0.87469E-02 48808   0.504E-01    0.910E-01
DAV:   5    -0.387773599677E+03   -0.39458E-02   -0.97323E-03 48952   0.246E-01    0.520E-01
DAV:   6    -0.387774351186E+03   -0.75151E-03   -0.55046E-03 48912   0.192E-01    0.687E-01
DAV:   7    -0.387773927594E+03    0.42359E-03   -0.64426E-03 50984   0.202E-01    0.567E-01
DAV:   8    -0.387773586441E+03    0.34115E-03   -0.18566E-03 48856   0.137E-01    0.277E-01
DAV:   9    -0.387773711919E+03   -0.12548E-03   -0.12839E-03 48224   0.777E-02    0.220E-01
DAV:  10    -0.387773693691E+03    0.18227E-04   -0.48128E-04 43760   0.568E-02    0.794E-02
DAV:  11    -0.387773705659E+03   -0.11968E-04   -0.62656E-05 32240   0.260E-02    0.499E-02
DAV:  12    -0.387773707203E+03   -0.15434E-05   -0.45641E-05 30000   0.190E-02
  29 F= -.38777371E+03 E0= -.38776189E+03  d E =0.305369E-01  mag=    34.0000
       N       E                     dE             d eps       ncg     rms          rms(c)
DAV:   1    -0.386814780847E+03    0.95892E+00   -0.19741E+02 36512   0.372E+01    0.345E+00
DAV:   2    -0.387686514994E+03   -0.87173E+00   -0.91781E+00 35008   0.668E+00    0.263E+00
DAV:   3    -0.387737091979E+03   -0.50577E-01   -0.78565E-01 49704   0.187E+00    0.362E+00
DAV:   4    -0.387720035056E+03    0.17057E-01   -0.34935E-01 51848   0.106E+00    0.423E+00
DAV:   5    -0.387691466386E+03    0.28569E-01   -0.17628E-01 49256   0.599E-01    0.146E+00
DAV:   6    -0.387702247609E+03   -0.10781E-01   -0.12522E-01 52200   0.691E-01    0.237E+00
DAV:   7    -0.387697400351E+03    0.48473E-02   -0.40854E-02 49072   0.505E-01    0.191E+00
DAV:   8    -0.387694472254E+03    0.29281E-02   -0.23756E-02 51664   0.432E-01    0.143E+00
DAV:   9    -0.387694189701E+03    0.28255E-03   -0.48638E-02 50632   0.348E-01    0.923E-01
DAV:  10    -0.387696019485E+03   -0.18298E-02   -0.63007E-03 44864   0.199E-01    0.769E-01
DAV:  11    -0.387694848010E+03    0.11715E-02   -0.10745E-03 45776   0.121E-01    0.463E-01
DAV:  12    -0.387694731455E+03    0.11655E-03   -0.56120E-04 48296   0.702E-02    0.236E-01
DAV:  13    -0.387694902068E+03   -0.17061E-03   -0.50454E-04 44320   0.555E-02    0.174E-01
DAV:  14    -0.387694991190E+03   -0.89121E-04   -0.56219E-04 41704   0.467E-02    0.958E-02
DAV:  15    -0.387695018958E+03   -0.27768E-04   -0.11305E-04 33448   0.266E-02    0.798E-02
DAV:  16    -0.387695020452E+03   -0.14941E-05   -0.38992E-05 29280   0.209E-02
  30 F= -.38769502E+03 E0= -.38768336E+03  d E =0.786868E-01  mag=    34.0000
       N       E                     dE             d eps       ncg     rms          rms(c)
DAV:   1    -0.387472944835E+03    0.22207E+00   -0.49071E+01 36544   0.193E+01    0.197E+00
DAV:   2    -0.387734636961E+03   -0.26169E+00   -0.26511E+00 35792   0.355E+00    0.440E+00
DAV:   3    -0.387721004056E+03    0.13633E-01   -0.51305E-01 48840   0.128E+00    0.348E+00
DAV:   4    -0.387719757866E+03    0.12462E-02   -0.21586E-01 50008   0.775E-01    0.213E+00
DAV:   5    -0.387715003965E+03    0.47539E-02   -0.29546E-02 50432   0.441E-01    0.853E-01
DAV:   6    -0.387716772989E+03   -0.17690E-02   -0.10076E-02 49064   0.297E-01    0.847E-01
DAV:   7    -0.387716712172E+03    0.60816E-04   -0.57659E-03 48984   0.211E-01    0.785E-01
DAV:   8    -0.387716341444E+03    0.37073E-03   -0.59170E-03 49832   0.201E-01    0.603E-01
DAV:   9    -0.387716287639E+03    0.53806E-04   -0.58021E-03 47576   0.171E-01    0.406E-01
DAV:  10    -0.387716402858E+03   -0.11522E-03   -0.23992E-03 47352   0.122E-01    0.308E-01
DAV:  11    -0.387716340700E+03    0.62159E-04   -0.75076E-04 50184   0.676E-02    0.132E-01
DAV:  12    -0.387716416227E+03   -0.75527E-04   -0.53612E-04 44432   0.521E-02    0.142E-01
DAV:  13    -0.387716416912E+03   -0.68521E-06   -0.21063E-04 34688   0.391E-02    0.826E-02
DAV:  14    -0.387716419496E+03   -0.25843E-05   -0.73846E-05 30576   0.223E-02
  31 F= -.38771642E+03 E0= -.38770478E+03  d E =-.213990E-01  mag=    34.0000
       N       E                     dE             d eps       ncg     rms          rms(c)
DAV:   1    -0.387649239170E+03    0.67178E-01   -0.18084E+01 37272   0.125E+01    0.157E+00
DAV:   2    -0.387784217937E+03   -0.13498E+00   -0.13233E+00 35896   0.233E+00    0.415E+00
DAV:   3    -0.387779543930E+03    0.46740E-02   -0.67165E-01 48288   0.105E+00    0.325E+00
DAV:   4    -0.387774470369E+03    0.50736E-02   -0.85869E-02 49360   0.601E-01    0.161E+00
DAV:   5    -0.387773083621E+03    0.13867E-02   -0.13980E-02 50320   0.320E-01    0.905E-01
DAV:   6    -0.387773563585E+03   -0.47996E-03   -0.77233E-03 50440   0.212E-01    0.724E-01
DAV:   7    -0.387775012088E+03   -0.14485E-02   -0.12482E-02 50328   0.228E-01    0.999E-01
DAV:   8    -0.387774015616E+03    0.99647E-03   -0.33874E-03 47280   0.199E-01    0.761E-01
DAV:   9    -0.387773479260E+03    0.53636E-03   -0.52489E-03 49976   0.153E-01    0.316E-01
DAV:  10    -0.387773949550E+03   -0.47029E-03   -0.28636E-03 46376   0.115E-01    0.346E-01
DAV:  11    -0.387773860460E+03    0.89089E-04   -0.12383E-03 50104   0.857E-02    0.124E-01
DAV:  12    -0.387773876577E+03   -0.16117E-04   -0.30998E-04 42272   0.465E-02    0.964E-02
DAV:  13    -0.387773878640E+03   -0.20627E-05   -0.43494E-05 32432   0.218E-02
  32 F= -.38777388E+03 E0= -.38776228E+03  d E =-.574591E-01  mag=    34.0000
       N       E                     dE             d eps       ncg     rms          rms(c)
DAV:   1    -0.387701436507E+03    0.72440E-01   -0.16595E+01 36632   0.109E+01    0.966E-01
DAV:   2    -0.387765872013E+03   -0.64436E-01   -0.66930E-01 34944   0.188E+00    0.615E-01
DAV:   3    -0.387771309534E+03   -0.54375E-02   -0.25242E-02 50224   0.455E-01    0.138E+00
DAV:   4    -0.387766863854E+03    0.44457E-02   -0.10027E-02 51096   0.302E-01    0.458E-01
DAV:   5    -0.387768087277E+03   -0.12234E-02   -0.70466E-03 51560   0.155E-01    0.718E-01
DAV:   6    -0.387767388472E+03    0.69880E-03   -0.51228E-03 48112   0.161E-01    0.397E-01
DAV:   7    -0.387767434793E+03   -0.46321E-04   -0.29160E-03 48432   0.127E-01    0.261E-01
DAV:   8    -0.387767487030E+03   -0.52238E-04   -0.89455E-04 47256   0.849E-02    0.157E-01
DAV:   9    -0.387767487079E+03   -0.49018E-07   -0.18782E-04 43496   0.463E-02    0.818E-02
DAV:  10    -0.387767480061E+03    0.70180E-05   -0.47020E-05 31520   0.235E-02
  33 F= -.38776748E+03 E0= -.38775584E+03  d E =0.639858E-02  mag=    34.0000
       N       E                     dE             d eps       ncg     rms          rms(c)
DAV:   1    -0.387300567552E+03    0.46692E+00   -0.11355E+02 36168   0.286E+01    0.269E+00
DAV:   2    -0.387810546557E+03   -0.50998E+00   -0.52440E+00 34944   0.513E+00    0.288E+00
DAV:   3    -0.387881743362E+03   -0.71197E-01   -0.86712E-01 50536   0.160E+00    0.759E+00
DAV:   4    -0.387819667745E+03    0.62076E-01   -0.12364E+00 49712   0.110E+00    0.300E+00
DAV:   5    -0.387819249859E+03    0.41789E-03   -0.47691E-02 50240   0.703E-01    0.150E+00
DAV:   6    -0.387818086792E+03    0.11631E-02   -0.26918E-02 51688   0.421E-01    0.145E+00
DAV:   7    -0.387820616260E+03   -0.25295E-02   -0.61328E-02 49984   0.400E-01    0.172E+00
DAV:   8    -0.387818470662E+03    0.21456E-02   -0.20539E-02 47336   0.323E-01    0.143E+00
DAV:   9    -0.387817017013E+03    0.14536E-02   -0.97092E-03 48416   0.238E-01    0.108E+00
DAV:  10    -0.387815838738E+03    0.11783E-02   -0.71254E-03 48880   0.172E-01    0.403E-01
DAV:  11    -0.387818137036E+03   -0.22983E-02   -0.73544E-03 49072   0.201E-01    0.832E-01
DAV:  12    -0.387817049605E+03    0.10874E-02   -0.37236E-03 46512   0.177E-01    0.285E-01
DAV:  13    -0.387817376533E+03   -0.32693E-03   -0.10583E-03 46800   0.724E-02    0.187E-01
DAV:  14    -0.387817398262E+03   -0.21729E-04   -0.25245E-04 39728   0.551E-02    0.664E-02
DAV:  15    -0.387817420393E+03   -0.22130E-04   -0.82332E-05 37912   0.270E-02    0.586E-02
DAV:  16    -0.387817414473E+03    0.59191E-05   -0.25318E-05 27176   0.151E-02
  34 F= -.38781741E+03 E0= -.38780595E+03  d E =-.499344E-01  mag=    34.0000
       N       E                     dE             d eps       ncg     rms          rms(c)
DAV:   1    -0.384487235340E+03    0.33302E+01   -0.20617E+02 38120   0.493E+01    0.955E+00
DAV:   2    -0.389568740064E+03   -0.50815E+01   -0.46183E+01 44352   0.130E+01    0.312E+01
DAV:   3    -0.387495305299E+03    0.20734E+01   -0.19822E+01 47904   0.743E+00    0.102E+01
DAV:   4    -0.387671234231E+03   -0.17593E+00   -0.56640E+00 50272   0.366E+00    0.781E+00
DAV:   5    -0.387591339275E+03    0.79895E-01   -0.19341E+00 49280   0.226E+00    0.751E+00
DAV:   6    -0.387594269030E+03   -0.29298E-02   -0.95997E-01 49704   0.138E+00    0.576E+00
DAV:   7    -0.387648475484E+03   -0.54206E-01   -0.10273E-01 48160   0.708E-01    0.554E+00
DAV:   8    -0.387648680244E+03   -0.20476E-03   -0.12680E-02 48848   0.320E-01    0.510E+00
DAV:   9    -0.387675013775E+03   -0.26334E-01   -0.22188E-01 51896   0.104E+00    0.375E+00
DAV:  10    -0.387660586380E+03    0.14427E-01   -0.48168E-02 47976   0.543E-01    0.245E+00
DAV:  11    -0.387670848719E+03   -0.10262E-01   -0.41653E-02 49016   0.514E-01    0.168E+00
DAV:  12    -0.387677321754E+03   -0.64730E-02   -0.44587E-02 49000   0.532E-01    0.161E+00
DAV:  13    -0.387679765364E+03   -0.24436E-02   -0.27781E-02 48336   0.496E-01    0.123E+00
DAV:  14    -0.387679937712E+03   -0.17235E-03   -0.16270E-02 50200   0.406E-01    0.112E+00
DAV:  15    -0.387681564608E+03   -0.16269E-02   -0.29235E-02 49232   0.391E-01    0.140E+00
DAV:  16    -0.387679072794E+03    0.24918E-02   -0.15742E-02 48304   0.273E-01    0.392E-01
DAV:  17    -0.387680172428E+03   -0.10996E-02   -0.11347E-03 43808   0.108E-01    0.271E-01
DAV:  18    -0.387680252049E+03   -0.79621E-04   -0.38562E-04 44416   0.519E-02    0.256E-01
DAV:  19    -0.387680129256E+03    0.12279E-03   -0.27499E-04 43112   0.446E-02    0.118E-01
DAV:  20    -0.387680175768E+03   -0.46513E-04   -0.13688E-04 32488   0.346E-02    0.107E-01
DAV:  21    -0.387680170140E+03    0.56282E-05   -0.61863E-05 30032   0.261E-02
  35 F= -.38768017E+03 E0= -.38766800E+03  d E =0.137244E+00  mag=    33.9974
       N       E                     dE             d eps       ncg     rms          rms(c)
DAV:   1    -0.387205241874E+03    0.47493E+00   -0.36209E+01 38024   0.218E+01    0.354E+00
DAV:   2    -0.387876255226E+03   -0.67101E+00   -0.66333E+00 35656   0.453E+00    0.578E+00
DAV:   3    -0.387904770707E+03   -0.28515E-01   -0.19152E+00 48992   0.217E+00    0.536E+00
DAV:   4    -0.387862356798E+03    0.42414E-01   -0.37082E-01 49464   0.129E+00    0.252E+00
DAV:   5    -0.387861436818E+03    0.91998E-03   -0.97905E-02 50088   0.600E-01    0.120E+00
DAV:   6    -0.387868408838E+03   -0.69720E-02   -0.38406E-02 49608   0.381E-01    0.153E+00
DAV:   7    -0.387866513136E+03    0.18957E-02   -0.31284E-02 48280   0.322E-01    0.808E-01
DAV:   8    -0.387870227522E+03   -0.37144E-02   -0.14524E-02 49208   0.315E-01    0.120E+00
DAV:   9    -0.387868341384E+03    0.18861E-02   -0.15536E-02 48104   0.291E-01    0.530E-01
DAV:  10    -0.387870000529E+03   -0.16591E-02   -0.53186E-03 47504   0.217E-01    0.790E-01
DAV:  11    -0.387868730798E+03    0.12697E-02   -0.26037E-03 45848   0.162E-01    0.148E-01
DAV:  12    -0.387869055576E+03   -0.32478E-03   -0.67679E-04 42760   0.593E-02    0.145E-01
DAV:  13    -0.387869080923E+03   -0.25347E-04   -0.18234E-04 44240   0.446E-02    0.104E-01
DAV:  14    -0.387869062855E+03    0.18068E-04   -0.80434E-05 31504   0.243E-02    0.737E-02
DAV:  15    -0.387869056477E+03    0.63783E-05   -0.76076E-05 31064   0.220E-02
  36 F= -.38786906E+03 E0= -.38785757E+03  d E =-.188886E+00  mag=    33.9996
       N       E                     dE             d eps       ncg     rms          rms(c)
DAV:   1    -0.387769506355E+03    0.99557E-01   -0.71092E+00 37568   0.941E+00    0.157E+00
DAV:   2    -0.387902310018E+03   -0.13280E+00   -0.12873E+00 35520   0.190E+00    0.218E+00
DAV:   3    -0.387925710069E+03   -0.23400E-01   -0.38931E-01 49976   0.954E-01    0.406E+00
DAV:   4    -0.387899871982E+03    0.25838E-01   -0.18721E-01 47880   0.673E-01    0.884E-01
DAV:   5    -0.387906831724E+03   -0.69597E-02   -0.70856E-03 47224   0.243E-01    0.460E-01
DAV:   6    -0.387908256085E+03   -0.14244E-02   -0.40128E-03 49488   0.181E-01    0.628E-01
DAV:   7    -0.387908242201E+03    0.13884E-04   -0.39449E-03 48632   0.171E-01    0.510E-01
DAV:   8    -0.387908264276E+03   -0.22075E-04   -0.23921E-03 47248   0.146E-01    0.409E-01
DAV:   9    -0.387908265287E+03   -0.10112E-05   -0.23453E-03 46920   0.104E-01    0.232E-01
DAV:  10    -0.387908345818E+03   -0.80530E-04   -0.10071E-03 46312   0.668E-02    0.173E-01
DAV:  11    -0.387908353446E+03   -0.76285E-05   -0.37753E-04 42368   0.481E-02    0.123E-01
DAV:  12    -0.387908342379E+03    0.11067E-04   -0.13521E-04 31312   0.351E-02    0.471E-02
DAV:  13    -0.387908348382E+03   -0.60023E-05   -0.26533E-05 27336   0.158E-02
  37 F= -.38790835E+03 E0= -.38789708E+03  d E =-.392919E-01  mag=    33.9999
       N       E                     dE             d eps       ncg     rms          rms(c)
DAV:   1    -0.387761692691E+03    0.14665E+00   -0.94480E+00 37592   0.994E+00    0.174E+00
DAV:   2    -0.387929506504E+03   -0.16781E+00   -0.16336E+00 36632   0.211E+00    0.368E+00
DAV:   3    -0.387928046940E+03    0.14596E-02   -0.47619E-01 48776   0.112E+00    0.322E+00
DAV:   4    -0.387921125054E+03    0.69219E-02   -0.11195E-01 49064   0.651E-01    0.138E+00
DAV:   5    -0.387921927014E+03   -0.80196E-03   -0.13291E-02 48744   0.323E-01    0.524E-01
DAV:   6    -0.387924210776E+03   -0.22838E-02   -0.58429E-03 47808   0.231E-01    0.828E-01
DAV:   7    -0.387923380029E+03    0.83075E-03   -0.27670E-03 48896   0.185E-01    0.380E-01
DAV:   8    -0.387923851519E+03   -0.47149E-03   -0.34074E-03 48064   0.159E-01    0.435E-01
DAV:   9    -0.387923868564E+03   -0.17045E-04   -0.18071E-03 47680   0.124E-01    0.210E-01
DAV:  10    -0.387923933836E+03   -0.65272E-04   -0.72913E-04 46136   0.790E-02    0.143E-01
DAV:  11    -0.387923965609E+03   -0.31773E-04   -0.42215E-04 41280   0.447E-02    0.118E-01
DAV:  12    -0.387923950305E+03    0.15304E-04   -0.12393E-04 31168   0.308E-02    0.722E-02
DAV:  13    -0.387923944334E+03    0.59705E-05   -0.46709E-05 30616   0.173E-02
  38 F= -.38792394E+03 E0= -.38791269E+03  d E =-.155960E-01  mag=    34.0000
       N       E                     dE             d eps       ncg     rms          rms(c)
DAV:   1    -0.387922551454E+03    0.13989E-02   -0.31553E-01 37680   0.169E+00    0.222E-01
DAV:   2    -0.387925332587E+03   -0.27811E-02   -0.26889E-02 36136   0.327E-01    0.364E-01
DAV:   3    -0.387925570161E+03   -0.23757E-03   -0.40954E-03 49216   0.142E-01    0.469E-01
DAV:   4    -0.387925259883E+03    0.31028E-03   -0.15396E-03 46104   0.875E-02    0.173E-01
DAV:   5    -0.387925327691E+03   -0.67808E-04   -0.21572E-04 37152   0.368E-02    0.872E-02
DAV:   6    -0.387925352995E+03   -0.25304E-04   -0.95565E-05 33520   0.280E-02    0.978E-02
DAV:   7    -0.387925347518E+03    0.54773E-05   -0.15045E-04 36448   0.342E-02    0.788E-02
DAV:   8    -0.387925350116E+03   -0.25981E-05   -0.80462E-05 31816   0.260E-02
  39 F= -.38792535E+03 E0= -.38791410E+03  d E =-.140578E-02  mag=    34.0000
       N       E                     dE             d eps       ncg     rms          rms(c)
DAV:   1    -0.387921335893E+03    0.40116E-02   -0.68161E-01 37160   0.262E+00    0.306E-01
DAV:   2    -0.387926485059E+03   -0.51492E-02   -0.49550E-02 35944   0.484E-01    0.429E-01
DAV:   3    -0.387927072434E+03   -0.58737E-03   -0.62382E-03 50616   0.195E-01    0.637E-01
DAV:   4    -0.387926404825E+03    0.66761E-03   -0.23941E-03 47088   0.119E-01    0.204E-01
DAV:   5    -0.387926583258E+03   -0.17843E-03   -0.52264E-04 43528   0.554E-02    0.182E-01
DAV:   6    -0.387926569647E+03    0.13611E-04   -0.27678E-04 38376   0.429E-02    0.985E-02
DAV:   7    -0.387926596346E+03   -0.26699E-04   -0.21274E-04 40488   0.371E-02    0.104E-01
DAV:   8    -0.387926586870E+03    0.94757E-05   -0.22869E-04 34672   0.342E-02    0.740E-02
DAV:   9    -0.387926589037E+03   -0.21670E-05   -0.61275E-05 29784   0.223E-02
  40 F= -.38792659E+03 E0= -.38791527E+03  d E =-.123892E-02  mag=    34.0000
       N       E                     dE             d eps       ncg     rms          rms(c)
DAV:   1    -0.387925715544E+03    0.87133E-03   -0.16676E-01 36608   0.113E+00    0.113E-01
DAV:   2    -0.387926516020E+03   -0.80048E-03   -0.80277E-03 35752   0.205E-01    0.102E-01
DAV:   3    -0.387926578595E+03   -0.62575E-04   -0.40763E-04 50864   0.619E-02    0.156E-01
DAV:   4    -0.387926537720E+03    0.40875E-04   -0.16319E-04 34928   0.395E-02    0.701E-02
DAV:   5    -0.387926544468E+03   -0.67485E-05   -0.50866E-05 29432   0.208E-02
  41 F= -.38792654E+03 E0= -.38791525E+03  d E =0.445685E-04  mag=    34.0000
       N       E                     dE             d eps       ncg     rms          rms(c)
DAV:   1    -0.387915706807E+03    0.10831E-01   -0.21037E+00 36648   0.368E+00    0.313E-01
DAV:   2    -0.387923103472E+03   -0.73967E-02   -0.75653E-02 35240   0.640E-01    0.281E-01
DAV:   3    -0.387923749630E+03   -0.64616E-03   -0.48465E-03 52048   0.159E-01    0.635E-01
DAV:   4    -0.387923036375E+03    0.71326E-03   -0.24241E-03 48480   0.125E-01    0.167E-01
DAV:   5    -0.387923239704E+03   -0.20333E-03   -0.54250E-04 46760   0.582E-02    0.202E-01
DAV:   6    -0.387923202597E+03    0.37108E-04   -0.51735E-04 45832   0.526E-02    0.202E-01
DAV:   7    -0.387923194427E+03    0.81698E-05   -0.57271E-04 45800   0.527E-02    0.190E-01
DAV:   8    -0.387923175846E+03    0.18581E-04   -0.39281E-04 39832   0.503E-02    0.126E-01
DAV:   9    -0.387923172676E+03    0.31702E-05   -0.19175E-04 31600   0.312E-02    0.571E-02
DAV:  10    -0.387923175114E+03   -0.24386E-05   -0.27730E-05 27368   0.168E-02
  42 F= -.38792318E+03 E0= -.38791188E+03  d E =0.336935E-02  mag=    34.0000
       N       E                     dE             d eps       ncg     rms          rms(c)
DAV:   1    -0.387913146648E+03    0.10026E-01   -0.73845E-01 37736   0.275E+00    0.296E-01
DAV:   2    -0.387917844137E+03   -0.46975E-02   -0.47646E-02 35040   0.494E-01    0.195E-01
DAV:   3    -0.387918498999E+03   -0.65486E-03   -0.29396E-03 49944   0.134E-01    0.526E-01
DAV:   4    -0.387917954515E+03    0.54448E-03   -0.18311E-03 48264   0.991E-02    0.113E-01
DAV:   5    -0.387918170485E+03   -0.21597E-03   -0.42535E-04 40392   0.485E-02    0.219E-01
DAV:   6    -0.387918091610E+03    0.78875E-04   -0.29390E-04 40176   0.446E-02    0.835E-02
DAV:   7    -0.387918122253E+03   -0.30643E-04   -0.21266E-04 38216   0.336E-02    0.818E-02
DAV:   8    -0.387918120236E+03    0.20175E-05   -0.10967E-04 32224   0.244E-02    0.516E-02
DAV:   9    -0.387918119386E+03    0.84961E-06   -0.20611E-05 26016   0.156E-02
  43 F= -.38791812E+03 E0= -.38790683E+03  d E =0.505573E-02  mag=    34.0000
       N       E                     dE             d eps       ncg     rms          rms(c)
DAV:   1    -0.387887202392E+03    0.30918E-01   -0.45024E+00 36992   0.610E+00    0.545E-01
DAV:   2    -0.387906051262E+03   -0.18849E-01   -0.19594E-01 34960   0.108E+00    0.314E-01
DAV:   3    -0.387907121714E+03   -0.10705E-02   -0.75095E-03 51552   0.212E-01    0.613E-01
DAV:   4    -0.387906539456E+03    0.58226E-03   -0.47787E-03 52560   0.141E-01    0.303E-01
DAV:   5    -0.387906711648E+03   -0.17219E-03   -0.21789E-03 47408   0.914E-02    0.337E-01
DAV:   6    -0.387906570372E+03    0.14128E-03   -0.12719E-03 48704   0.861E-02    0.249E-01
DAV:   7    -0.387906560869E+03    0.95026E-05   -0.78567E-04 47416   0.760E-02    0.180E-01
DAV:   8    -0.387906584951E+03   -0.24082E-04   -0.34496E-04 45760   0.578E-02    0.158E-01
DAV:   9    -0.387906554977E+03    0.29975E-04   -0.14077E-04 33376   0.396E-02    0.590E-02
DAV:  10    -0.387906560413E+03   -0.54363E-05   -0.34377E-05 27160   0.195E-02
  44 F= -.38790656E+03 E0= -.38789531E+03  d E =0.115590E-01  mag=    34.0000
       N       E                     dE             d eps       ncg     rms          rms(c)
DAV:   1    -0.387713733438E+03    0.19282E+00   -0.41996E+01 36768   0.182E+01    0.157E+00
DAV:   2    -0.387890185933E+03   -0.17645E+00   -0.17882E+00 34944   0.323E+00    0.110E+00
DAV:   3    -0.387904444524E+03   -0.14259E-01   -0.11203E-01 52848   0.712E-01    0.294E+00
DAV:   4    -0.387891926555E+03    0.12518E-01   -0.10429E-01 49600   0.487E-01    0.998E-01
DAV:   5    -0.387895093902E+03   -0.31673E-02   -0.15198E-02 48752   0.243E-01    0.757E-01
DAV:   6    -0.387894852686E+03    0.24122E-03   -0.43470E-03 44992   0.209E-01    0.620E-01
DAV:   7    -0.387894643550E+03    0.20914E-03   -0.49430E-03 50888   0.206E-01    0.544E-01
DAV:   8    -0.387894631551E+03    0.11999E-04   -0.22508E-03 45576   0.157E-01    0.271E-01
DAV:   9    -0.387894679078E+03   -0.47527E-04   -0.67429E-04 47440   0.869E-02    0.107E-01
DAV:  10    -0.387894684742E+03   -0.56638E-05   -0.14313E-04 40176   0.316E-02    0.852E-02
DAV:  11    -0.387894673281E+03    0.11461E-04   -0.93444E-05 30696   0.233E-02    0.661E-02
DAV:  12    -0.387894682951E+03   -0.96699E-05   -0.61071E-05 30072   0.239E-02
  45 F= -.38789468E+03 E0= -.38788368E+03  d E =0.118775E-01  mag=    34.0000
       N       E                     dE             d eps       ncg     rms          rms(c)
DAV:   1    -0.387869122435E+03    0.25551E-01   -0.66674E+00 36616   0.792E+00    0.101E+00
DAV:   2    -0.387922852296E+03   -0.53730E-01   -0.53716E-01 35144   0.149E+00    0.102E+00
DAV:   3    -0.387931235126E+03   -0.83828E-02   -0.62368E-02 51320   0.592E-01    0.175E+00
DAV:   4    -0.387925262892E+03    0.59722E-02   -0.26704E-02 51168   0.383E-01    0.103E+00
DAV:   5    -0.387924177138E+03    0.10858E-02   -0.79001E-03 48968   0.191E-01    0.331E-01
DAV:   6    -0.387925014450E+03   -0.83731E-03   -0.19205E-03 48664   0.147E-01    0.416E-01
DAV:   7    -0.387925019682E+03   -0.52317E-05   -0.19526E-03 49056   0.121E-01    0.409E-01
DAV:   8    -0.387924843991E+03    0.17569E-03   -0.19699E-03 48656   0.106E-01    0.284E-01
DAV:   9    -0.387924861186E+03   -0.17195E-04   -0.79778E-04 47032   0.760E-02    0.157E-01
DAV:  10    -0.387924897823E+03   -0.36637E-04   -0.20760E-04 40520   0.441E-02    0.136E-01
DAV:  11    -0.387924858347E+03    0.39476E-04   -0.10167E-04 32144   0.273E-02    0.445E-02
DAV:  12    -0.387924870922E+03   -0.12576E-04   -0.34644E-05 26824   0.157E-02    0.307E-02
DAV:  13    -0.387924871626E+03   -0.70361E-06   -0.13296E-05 19976   0.107E-02
  46 F= -.38792487E+03 E0= -.38791373E+03  d E =-.301887E-01  mag=    34.0000
       N       E                     dE             d eps       ncg     rms          rms(c)
DAV:   1    -0.387926628051E+03   -0.17571E-02   -0.95058E-01 36584   0.287E+00    0.278E-01
DAV:   2    -0.387931305253E+03   -0.46772E-02   -0.48235E-02 35128   0.516E-01    0.237E-01
DAV:   3    -0.387932186272E+03   -0.88102E-03   -0.45214E-03 51000   0.158E-01    0.712E-01
DAV:   4    -0.387931156016E+03    0.10303E-02   -0.25185E-03 48192   0.121E-01    0.116E-01
DAV:   5    -0.387931472829E+03   -0.31681E-03   -0.45640E-04 45560   0.510E-02    0.176E-01
DAV:   6    -0.387931456139E+03    0.16690E-04   -0.38730E-04 42976   0.458E-02    0.153E-01
DAV:   7    -0.387931435934E+03    0.20206E-04   -0.24113E-04 36872   0.390E-02    0.739E-02
DAV:   8    -0.387931445578E+03   -0.96439E-05   -0.61245E-05 29864   0.255E-02
  47 F= -.38793145E+03 E0= -.38792026E+03  d E =-.657395E-02  mag=    34.0000
       N       E                     dE             d eps       ncg     rms          rms(c)
DAV:   1    -0.387934991448E+03   -0.35555E-02   -0.79608E-01 36832   0.256E+00    0.252E-01
DAV:   2    -0.387938999160E+03   -0.40077E-02   -0.40593E-02 35432   0.460E-01    0.256E-01
DAV:   3    -0.387939610170E+03   -0.61101E-03   -0.39693E-03 50240   0.144E-01    0.621E-01
DAV:   4    -0.387938882967E+03    0.72720E-03   -0.23739E-03 47160   0.110E-01    0.150E-01
DAV:   5    -0.387939088704E+03   -0.20574E-03   -0.31645E-04 43392   0.501E-02    0.124E-01
DAV:   6    -0.387939101094E+03   -0.12390E-04   -0.28309E-04 39520   0.388E-02    0.144E-01
DAV:   7    -0.387939083180E+03    0.17914E-04   -0.18224E-04 38936   0.396E-02    0.968E-02
DAV:   8    -0.387939080807E+03    0.23728E-05   -0.12185E-04 33720   0.335E-02    0.638E-02
DAV:   9    -0.387939082763E+03   -0.19556E-05   -0.68763E-05 28344   0.206E-02
  48 F= -.38793908E+03 E0= -.38792796E+03  d E =-.763719E-02  mag=    34.0000
       N       E                     dE             d eps       ncg     rms          rms(c)
DAV:   1    -0.387898902275E+03    0.40179E-01   -0.14334E+01 37112   0.109E+01    0.101E+00
DAV:   2    -0.387964655729E+03   -0.65753E-01   -0.67140E-01 35296   0.195E+00    0.889E-01
DAV:   3    -0.387975398775E+03   -0.10743E-01   -0.10326E-01 50576   0.575E-01    0.266E+00
DAV:   4    -0.387962150251E+03    0.13249E-01   -0.61781E-02 48688   0.441E-01    0.524E-01
DAV:   5    -0.387966331155E+03   -0.41809E-02   -0.43834E-03 49600   0.183E-01    0.527E-01
DAV:   6    -0.387966132835E+03    0.19832E-03   -0.18404E-03 47696   0.154E-01    0.355E-01
DAV:   7    -0.387966155063E+03   -0.22228E-04   -0.16674E-03 49944   0.139E-01    0.289E-01
DAV:   8    -0.387966156431E+03   -0.13685E-05   -0.17243E-03 48344   0.990E-02    0.231E-01
DAV:   9    -0.387966138920E+03    0.17511E-04   -0.44964E-04 46304   0.527E-02    0.739E-02
DAV:  10    -0.387966141706E+03   -0.27859E-05   -0.73611E-05 32080   0.216E-02
  49 F= -.38796614E+03 E0= -.38795512E+03  d E =-.270589E-01  mag=    34.0000
       N       E                     dE             d eps       ncg     rms          rms(c)
DAV:   1    -0.387246285877E+03    0.71985E+00   -0.13781E+02 37640   0.359E+01    0.352E+00
DAV:   2    -0.388006089761E+03   -0.75980E+00   -0.77424E+00 35000   0.643E+00    0.269E+00
DAV:   3    -0.388069503502E+03   -0.63414E-01   -0.83496E-01 49704   0.178E+00    0.380E+00
DAV:   4    -0.388051201039E+03    0.18302E-01   -0.24653E-01 52944   0.986E-01    0.244E+00
DAV:   5    -0.388037344059E+03    0.13857E-01   -0.71891E-02 51896   0.635E-01    0.150E+00
DAV:   6    -0.388038363141E+03   -0.10191E-02   -0.58847E-02 51712   0.561E-01    0.204E+00
DAV:   7    -0.388053282123E+03   -0.14919E-01   -0.17932E-01 50760   0.617E-01    0.378E+00
DAV:   8    -0.388029090365E+03    0.24192E-01   -0.44607E-02 47280   0.488E-01    0.155E+00
DAV:   9    -0.388033613715E+03   -0.45234E-02   -0.59092E-02 53016   0.461E-01    0.100E+00
DAV:  10    -0.388035438860E+03   -0.18251E-02   -0.69323E-03 41376   0.275E-01    0.522E-01
DAV:  11    -0.388034938250E+03    0.50061E-03   -0.14882E-03 49376   0.118E-01    0.267E-01
DAV:  12    -0.388035036923E+03   -0.98673E-04   -0.66426E-04 47288   0.679E-02    0.206E-01
DAV:  13    -0.388035011737E+03    0.25186E-04   -0.38660E-04 44040   0.548E-02    0.836E-02
DAV:  14    -0.388035113735E+03   -0.10200E-03   -0.25767E-04 36520   0.331E-02    0.538E-02
DAV:  15    -0.388035144932E+03   -0.31197E-04   -0.59793E-05 30128   0.219E-02    0.786E-02
DAV:  16    -0.388035142380E+03    0.25514E-05   -0.57315E-05 30080   0.258E-02
  50 F= -.38803514E+03 E0= -.38802418E+03  d E =-.690007E-01  mag=    34.0000
       N       E                     dE             d eps       ncg     rms          rms(c)
DAV:   1    -0.387884403272E+03    0.15074E+00   -0.20546E+01 37440   0.138E+01    0.156E+00
DAV:   2    -0.388012981641E+03   -0.12858E+00   -0.13038E+00 35032   0.253E+00    0.148E+00
DAV:   3    -0.388039474115E+03   -0.26492E-01   -0.26765E-01 51800   0.852E-01    0.391E+00
DAV:   4    -0.388012599344E+03    0.26875E-01   -0.15467E-01 48760   0.637E-01    0.100E+00
DAV:   5    -0.388019379983E+03   -0.67806E-02   -0.14738E-02 50728   0.284E-01    0.598E-01
DAV:   6    -0.388020398395E+03   -0.10184E-02   -0.46346E-03 49160   0.220E-01    0.686E-01
DAV:   7    -0.388020405085E+03   -0.66903E-05   -0.65209E-03 48368   0.218E-01    0.655E-01
DAV:   8    -0.388020021397E+03    0.38369E-03   -0.33325E-03 49160   0.171E-01    0.486E-01
DAV:   9    -0.388019897692E+03    0.12370E-03   -0.26384E-03 48968   0.108E-01    0.191E-01
DAV:  10    -0.388020049980E+03   -0.15229E-03   -0.69065E-04 45472   0.667E-02    0.161E-01
DAV:  11    -0.388020015165E+03    0.34815E-04   -0.19384E-04 36632   0.379E-02    0.558E-02
DAV:  12    -0.388020024848E+03   -0.96828E-05   -0.47043E-05 29392   0.185E-02
  51 F= -.38802002E+03 E0= -.38800904E+03  d E =0.151175E-01  mag=    34.0000
       N       E                     dE             d eps       ncg     rms          rms(c)
DAV:   1    -0.387873123830E+03    0.14689E+00   -0.19937E+01 37328   0.139E+01    0.144E+00
DAV:   2    -0.387993267388E+03   -0.12014E+00   -0.12195E+00 35016   0.250E+00    0.942E-01
DAV:   3    -0.388005315679E+03   -0.12048E-01   -0.62356E-02 50840   0.627E-01    0.200E+00
DAV:   4    -0.387998185172E+03    0.71305E-02   -0.42345E-02 50144   0.445E-01    0.874E-01
DAV:   5    -0.387999484072E+03   -0.12989E-02   -0.95551E-03 51000   0.227E-01    0.614E-01
DAV:   6    -0.388000523949E+03   -0.10399E-02   -0.70581E-03 49624   0.228E-01    0.877E-01
DAV:   7    -0.387999101277E+03    0.14227E-02   -0.53857E-03 49824   0.213E-01    0.311E-01
DAV:   8    -0.387999692944E+03   -0.59167E-03   -0.35150E-03 47688   0.134E-01    0.372E-01
DAV:   9    -0.387999507148E+03    0.18580E-03   -0.19052E-03 47480   0.901E-02    0.150E-01
DAV:  10    -0.387999512607E+03   -0.54588E-05   -0.19081E-04 38344   0.406E-02    0.734E-02
DAV:  11    -0.387999509485E+03    0.31225E-05   -0.58670E-05 31544   0.224E-02
  52 F= -.38799951E+03 E0= -.38798850E+03  d E =0.205154E-01  mag=    34.0000
       N       E                     dE             d eps       ncg     rms          rms(c)
DAV:   1    -0.387988395694E+03    0.11117E-01   -0.18350E+00 37064   0.362E+00    0.391E-01
DAV:   2    -0.387997468058E+03   -0.90724E-02   -0.92645E-02 35224   0.672E-01    0.517E-01
DAV:   3    -0.387999061079E+03   -0.15930E-02   -0.16910E-02 51720   0.252E-01    0.108E+00
DAV:   4    -0.387996911089E+03    0.21500E-02   -0.67225E-03 47456   0.170E-01    0.180E-01
DAV:   5    -0.387997561885E+03   -0.65080E-03   -0.92733E-04 49536   0.663E-02    0.205E-01
DAV:   6    -0.387997533109E+03    0.28777E-04   -0.47123E-04 47584   0.556E-02    0.100E-01
DAV:   7    -0.387997570998E+03   -0.37889E-04   -0.28191E-04 44208   0.482E-02    0.113E-01
DAV:   8    -0.387997566952E+03    0.40457E-05   -0.17630E-04 36008   0.355E-02    0.839E-02
DAV:   9    -0.387997561385E+03    0.55677E-05   -0.42269E-05 29840   0.233E-02
  53 F= -.38799756E+03 E0= -.38798650E+03  d E =0.194810E-02  mag=    34.0000
       N       E                     dE             d eps       ncg     rms          rms(c)
DAV:   1    -0.387992182704E+03    0.53842E-02   -0.13585E+00 37560   0.388E+00    0.412E-01
DAV:   2    -0.388001633285E+03   -0.94506E-02   -0.93311E-02 35000   0.693E-01    0.251E-01
DAV:   3    -0.388002542107E+03   -0.90882E-03   -0.48727E-03 51080   0.169E-01    0.511E-01
DAV:   4    -0.388002078866E+03    0.46324E-03   -0.26035E-03 47296   0.114E-01    0.174E-01
DAV:   5    -0.388002239828E+03   -0.16096E-03   -0.80404E-04 44328   0.574E-02    0.207E-01
DAV:   6    -0.388002227666E+03    0.12162E-04   -0.55264E-04 42768   0.538E-02    0.171E-01
DAV:   7    -0.388002223127E+03    0.45392E-05   -0.38699E-04 42304   0.520E-02    0.127E-01
DAV:   8    -0.388002227307E+03   -0.41802E-05   -0.15862E-04 33760   0.411E-02    0.956E-02
DAV:   9    -0.388002222562E+03    0.47452E-05   -0.63004E-05 29632   0.275E-02
  54 F= -.38800222E+03 E0= -.38799123E+03  d E =-.466118E-02  mag=    34.0000
       N       E                     dE             d eps       ncg     rms          rms(c)
DAV:   1    -0.387746439931E+03    0.25579E+00   -0.46132E+01 37216   0.211E+01    0.196E+00
DAV:   2    -0.387994032118E+03   -0.24759E+00   -0.24818E+00 34944   0.374E+00    0.104E+00
DAV:   3    -0.388007840182E+03   -0.13808E-01   -0.59367E-02 50272   0.677E-01    0.130E+00
DAV:   4    -0.388006000114E+03    0.18401E-02   -0.24345E-02 52792   0.373E-01    0.919E-01
DAV:   5    -0.388006930622E+03   -0.93051E-03   -0.16680E-02 49032   0.287E-01    0.108E+00
DAV:   6    -0.388005806140E+03    0.11245E-02   -0.20317E-02 49368   0.272E-01    0.840E-01
DAV:   7    -0.388005824684E+03   -0.18544E-04   -0.92729E-03 49104   0.234E-01    0.531E-01
DAV:   8    -0.388006180805E+03   -0.35612E-03   -0.54265E-03 48184   0.185E-01    0.457E-01
DAV:   9    -0.388005881591E+03    0.29921E-03   -0.16769E-03 46960   0.120E-01    0.161E-01
DAV:  10    -0.388005953710E+03   -0.72119E-04   -0.35176E-04 45120   0.523E-02    0.892E-02
DAV:  11    -0.388005948762E+03    0.49475E-05   -0.12116E-04 32600   0.300E-02    0.580E-02
DAV:  12    -0.388005945194E+03    0.35681E-05   -0.39095E-05 30448   0.225E-02
  55 F= -.38800595E+03 E0= -.38799500E+03  d E =-.372263E-02  mag=    34.0000
       N       E                     dE             d eps       ncg     rms          rms(c)
DAV:   1    -0.387903801536E+03    0.10215E+00   -0.10087E+01 37136   0.105E+01    0.129E+00
DAV:   2    -0.387994088181E+03   -0.90287E-01   -0.88773E-01 34968   0.194E+00    0.133E+00
DAV:   3    -0.388014251596E+03   -0.20163E-01   -0.20162E-01 49864   0.744E-01    0.361E+00
DAV:   4    -0.387992302189E+03    0.21949E-01   -0.12744E-01 48592   0.544E-01    0.748E-01
DAV:   5    -0.387998608669E+03   -0.63065E-02   -0.74268E-03 47864   0.220E-01    0.446E-01
DAV:   6    -0.387999572863E+03   -0.96419E-03   -0.28376E-03 49568   0.169E-01    0.600E-01
DAV:   7    -0.387999317704E+03    0.25516E-03   -0.34595E-03 49248   0.155E-01    0.419E-01
DAV:   8    -0.387999342724E+03   -0.25020E-04   -0.15927E-03 47768   0.128E-01    0.284E-01
DAV:   9    -0.387999314380E+03    0.28344E-04   -0.79779E-04 48016   0.735E-02    0.116E-01
DAV:  10    -0.387999368356E+03   -0.53977E-04   -0.20389E-04 41816   0.436E-02    0.122E-01
DAV:  11    -0.387999356050E+03    0.12307E-04   -0.17785E-04 31488   0.305E-02    0.746E-02
DAV:  12    -0.387999353716E+03    0.23332E-05   -0.66347E-05 29544   0.205E-02
  56 F= -.38799935E+03 E0= -.38798841E+03  d E =0.659148E-02  mag=    34.0000
       N       E                     dE             d eps       ncg     rms          rms(c)
DAV:   1    -0.387929436303E+03    0.69920E-01   -0.88289E+00 37560   0.100E+01    0.104E+00
DAV:   2    -0.387992966250E+03   -0.63530E-01   -0.61886E-01 34944   0.179E+00    0.116E+00
DAV:   3    -0.388004037790E+03   -0.11072E-01   -0.94341E-02 49888   0.644E-01    0.234E+00
DAV:   4    -0.387995584847E+03    0.84529E-02   -0.66188E-02 49312   0.442E-01    0.129E+00
DAV:   5    -0.387994517690E+03    0.10672E-02   -0.89758E-03 50032   0.245E-01    0.315E-01
DAV:   6    -0.387995630498E+03   -0.11128E-02   -0.29903E-03 49512   0.151E-01    0.478E-01
DAV:   7    -0.387995672683E+03   -0.42185E-04   -0.20105E-03 47912   0.118E-01    0.458E-01
DAV:   8    -0.387995462387E+03    0.21030E-03   -0.16306E-03 48768   0.102E-01    0.322E-01
DAV:   9    -0.387995558172E+03   -0.95785E-04   -0.12076E-03 45720   0.827E-02    0.190E-01
DAV:  10    -0.387995556832E+03    0.13401E-05   -0.36169E-04 40640   0.522E-02    0.127E-01
DAV:  11    -0.387995537600E+03    0.19232E-04   -0.16265E-04 33224   0.346E-02    0.552E-02
DAV:  12    -0.387995546766E+03   -0.91664E-05   -0.34830E-05 30520   0.200E-02
  57 F= -.38799555E+03 E0= -.38798453E+03  d E =0.380695E-02  mag=    34.0000
