       N       E                     dE             d eps       ncg     rms          ort
DAV:   1     0.602022347982E+04    0.60202E+04   -0.27042E+05  8112   0.166E+03
DAV:   2     0.347138922974E+03   -0.56731E+04   -0.51850E+04  8112   0.463E+02
DAV:   3    -0.365235464358E+03   -0.71237E+03   -0.69779E+03  8112   0.183E+02
DAV:   4    -0.387103491090E+03   -0.21868E+02   -0.21732E+02  8112   0.333E+01
DAV:   5    -0.387441993307E+03   -0.33850E+00   -0.33702E+00  8112   0.397E+00
SDA:   6    -0.121684459653E+03    0.26576E+03   -0.33702E+00  8112   0.118E+04 0.000E+00
CGA:   7    -0.260916940621E+03   -0.13923E+03   -0.14013E+03  8112   0.413E+03 0.107E+01
CGA:   8    -0.279226780934E+03   -0.18310E+02   -0.28744E+02  8112   0.218E+03-0.703E+02
CGA:   9    -0.288775391924E+03   -0.95486E+01   -0.10769E+02  8112   0.267E+03-0.481E+02
CGA:  10    -0.297876164688E+03   -0.91008E+01   -0.13452E+02  8112   0.988E+02-0.414E+02
CGA:  11    -0.303988868932E+03   -0.61127E+01   -0.42249E+01  8112   0.756E+02 0.766E+01
CGA:  12    -0.300784829126E+03    0.32040E+01   -0.48748E+01  8112   0.353E+03-0.577E+02
CGA:  13    -0.302870412884E+03   -0.20856E+01   -0.17511E+02  8112   0.191E+03-0.838E+02
CGA:  14    -0.304841230776E+03   -0.19708E+01   -0.73459E+01  8112   0.359E+03-0.109E+03
CGA:  15    -0.301284211319E+03    0.35570E+01   -0.20994E+02  8112   0.279E+03-0.151E+03
CGA:  16    -0.307813544960E+03   -0.65293E+01   -0.57499E+01  8112   0.235E+03-0.174E+03
CGA:  17    -0.310089530468E+03   -0.22760E+01   -0.11878E+02  8112   0.758E+02-0.562E+02
CGA:  18    -0.312993109930E+03   -0.29036E+01   -0.16328E+01  8112   0.668E+02 0.628E+02
CGA:  19    -0.313961026071E+03   -0.96792E+00   -0.22337E+01  8112   0.698E+02-0.752E+02
CGA:  20    -0.312985621703E+03    0.97540E+00   -0.35296E+01  8112   0.536E+02-0.263E+02
CGA:  21    -0.314680435167E+03   -0.16948E+01   -0.77145E+00  8112   0.391E+02 0.393E+02
CGA:  22    -0.315361625446E+03   -0.68119E+00   -0.99592E+00  8112   0.212E+02-0.272E+02
CGA:  23    -0.315126827360E+03    0.23480E+00   -0.82374E+00  8112   0.365E+02-0.183E+02
CGA:  24    -0.315692398708E+03   -0.56557E+00   -0.83592E+00  8112   0.126E+02-0.199E+02
CGA:  25    -0.315762584268E+03   -0.70186E-01   -0.40066E+00  8112   0.131E+02-0.851E+01
CGA:  26    -0.315992267787E+03   -0.22968E+00   -0.27612E+00  8112   0.296E+01-0.277E+01
CGA:  27    -0.316432804543E+03   -0.44054E+00   -0.38045E+00  8112   0.449E+01 0.794E+00
CGA:  28    -0.316694986252E+03   -0.26218E+00   -0.27095E+00  8112   0.237E+01 0.153E+00
CGA:  29    -0.316942836626E+03   -0.24785E+00   -0.24733E+00  8112   0.942E+00 0.143E+00
CGA:  30    -0.317005736271E+03   -0.62900E-01   -0.65292E-01  8112   0.516E+00 0.149E-02
CGA:  31    -0.317075022070E+03   -0.69286E-01   -0.65582E-01  8112   0.215E+00 0.875E-01
CGA:  32    -0.317098085203E+03   -0.23063E-01   -0.23299E-01  8112   0.122E+00 0.166E-01
CGA:  33    -0.317116950423E+03   -0.18865E-01   -0.18091E-01  8112   0.652E-01 0.152E-01
CGA:  34    -0.317125758014E+03   -0.88076E-02   -0.87267E-02  8112   0.360E-01 0.290E-02
CGA:  35    -0.317131933709E+03   -0.61757E-02   -0.59476E-02  8112   0.215E-01 0.341E-02
CGA:  36    -0.317134932943E+03   -0.29992E-02   -0.29954E-02  8112   0.123E-01 0.923E-04
CGA:  37    -0.317136921241E+03   -0.19883E-02   -0.19593E-02  8112   0.652E-02 0.431E-03
CGA:  38    -0.317137823156E+03   -0.90191E-03   -0.90622E-03  8112   0.329E-02-0.146E-03
CGA:  39    -0.317138305741E+03   -0.48259E-03   -0.48186E-03  8112   0.186E-02-0.330E-05
CGA:  40    -0.317138565257E+03   -0.25952E-03   -0.26149E-03  8112   0.860E-03-0.607E-04
CGA:  41    -0.317138684763E+03   -0.11951E-03   -0.11963E-03  8112   0.454E-03-0.735E-05
CGA:  42    -0.317138750391E+03   -0.65628E-04   -0.65856E-04  8112   0.229E-03-0.616E-05
CGA:  43    -0.317138785072E+03   -0.34682E-04   -0.34515E-04  8112   0.129E-03 0.410E-05
CGA:  44    -0.317138803016E+03   -0.17944E-04   -0.17899E-04  8112   0.641E-04 0.278E-05
CGA:  45    -0.317138813790E+03   -0.10774E-04   -0.10650E-04  8112   0.371E-04 0.281E-05
CGA:  46    -0.317138819444E+03   -0.56535E-05   -0.56291E-05  8112   0.206E-04 0.107E-05
   1 F= -.31713882E+03 E0= -.31713456E+03  d E =-.317139E+03  mag=    44.0000
       N       E                     dE             d eps       ncg     rms          ort
SDA:   1    -0.317151402971E+03   -0.12589E-01    0.00000E+00  8112   0.524E-02 0.000E+00
CGA:   2    -0.317151736491E+03   -0.33352E-03   -0.33540E-03  8112   0.144E-02-0.133E-04
CGA:   3    -0.317152072550E+03   -0.33606E-03   -0.33608E-03  8112   0.554E-03-0.219E-06
CGA:   4    -0.317152144327E+03   -0.71776E-04   -0.71776E-04  8112   0.211E-03-0.471E-07
CGA:   5    -0.317152176496E+03   -0.32169E-04   -0.32182E-04  8112   0.480E-04-0.474E-06
CGA:   6    -0.317152182751E+03   -0.62549E-05   -0.62543E-05  8112   0.214E-04 0.204E-06
   2 F= -.31715218E+03 E0= -.31714792E+03  d E =-.133633E-01  mag=    44.0000
       N       E                     dE             d eps       ncg     rms          ort
SDA:   1    -0.317059829239E+03    0.92347E-01    0.00000E+00  8112   0.107E+01 0.000E+00
CGA:   2    -0.317366357338E+03   -0.30653E+00   -0.30722E+00  8112   0.541E+00-0.470E-02
CGA:   3    -0.317421869827E+03   -0.55512E-01   -0.56149E-01  8112   0.323E+00 0.391E-02
CGA:   4    -0.317461892016E+03   -0.40022E-01   -0.39973E-01  8112   0.559E-01-0.175E-02
CGA:   5    -0.317470249181E+03   -0.83572E-02   -0.83557E-02  8112   0.241E-01 0.539E-04
CGA:   6    -0.317472948551E+03   -0.26994E-02   -0.26981E-02  8112   0.995E-02-0.185E-04
CGA:   7    -0.317474228430E+03   -0.12799E-02   -0.12800E-02  8112   0.374E-02 0.166E-04
CGA:   8    -0.317474734321E+03   -0.50589E-03   -0.50591E-03  8112   0.222E-02-0.223E-05
CGA:   9    -0.317475051332E+03   -0.31701E-03   -0.31694E-03  8112   0.995E-03 0.607E-05
CGA:  10    -0.317475205888E+03   -0.15456E-03   -0.15451E-03  8112   0.628E-03 0.247E-05
CGA:  11    -0.317475296675E+03   -0.90787E-04   -0.90764E-04  8112   0.360E-03 0.216E-05
CGA:  12    -0.317475346923E+03   -0.50248E-04   -0.50243E-04  8112   0.186E-03 0.140E-05
CGA:  13    -0.317475374887E+03   -0.27964E-04   -0.27939E-04  8112   0.104E-03 0.174E-05
CGA:  14    -0.317475388168E+03   -0.13281E-04   -0.13293E-04  8112   0.431E-04 0.136E-05
CGA:  15    -0.317475395251E+03   -0.70834E-05   -0.70465E-05  8112   0.224E-04 0.142E-05
   3 F= -.31747540E+03 E0= -.31747112E+03  d E =-.323213E+00  mag=    44.0000
       N       E                     dE             d eps       ncg     rms          ort
SDA:   1    -0.315357366085E+03    0.21180E+01    0.00000E+00  8112   0.718E+01 0.000E+00
CGA:   2    -0.317415290538E+03   -0.20579E+01   -0.20636E+01  8112   0.350E+01-0.358E-01
CGA:   3    -0.317774697284E+03   -0.35941E+00   -0.36964E+00  8112   0.209E+01 0.416E-01
CGA:   4    -0.318023026623E+03   -0.24833E+00   -0.24604E+00  8112   0.413E+00-0.253E-01
CGA:   5    -0.318078580045E+03   -0.55553E-01   -0.55564E-01  8112   0.175E+00 0.107E-02
CGA:   6    -0.318098082708E+03   -0.19503E-01   -0.19474E-01  8112   0.689E-01-0.239E-03
CGA:   7    -0.318107025206E+03   -0.89425E-02   -0.89484E-02  8112   0.288E-01 0.285E-03
CGA:   8    -0.318110495288E+03   -0.34701E-02   -0.34665E-02  8112   0.148E-01-0.604E-04
CGA:   9    -0.318112708213E+03   -0.22129E-02   -0.22119E-02  8112   0.709E-02 0.553E-04
CGA:  10    -0.318113725002E+03   -0.10168E-02   -0.10168E-02  8112   0.429E-02 0.332E-05
CGA:  11    -0.318114326835E+03   -0.60183E-03   -0.60179E-03  8112   0.246E-02 0.140E-04
CGA:  12    -0.318114665726E+03   -0.33889E-03   -0.33889E-03  8112   0.130E-02 0.368E-05
CGA:  13    -0.318114853044E+03   -0.18732E-03   -0.18728E-03  8112   0.704E-03 0.575E-05
CGA:  14    -0.318114948331E+03   -0.95287E-04   -0.95301E-04  8112   0.313E-03 0.349E-05
CGA:  15    -0.318114992674E+03   -0.44343E-04   -0.44334E-04  8112   0.183E-03 0.347E-05
CGA:  16    -0.318115016052E+03   -0.23377E-04   -0.23405E-04  8112   0.844E-04 0.233E-05
CGA:  17    -0.318115028503E+03   -0.12451E-04   -0.12442E-04  8112   0.482E-04 0.130E-05
CGA:  18    -0.318115036413E+03   -0.79097E-05   -0.78948E-05  8112   0.277E-04 0.649E-06
   4 F= -.31811504E+03 E0= -.31811076E+03  d E =-.639641E+00  mag=    44.0000
       N       E                     dE             d eps       ncg     rms          ort
SDA:   1    -0.314604225622E+03    0.35108E+01    0.00000E+00  8112   0.103E+02 0.000E+00
CGA:   2    -0.317609526536E+03   -0.30053E+01   -0.30055E+01  8112   0.420E+01 0.346E-02
CGA:   3    -0.318210095093E+03   -0.60057E+00   -0.60117E+00  8112   0.259E+01 0.656E-01
CGA:   4    -0.318450214020E+03   -0.24012E+00   -0.23256E+00  8112   0.641E+00 0.860E-02
CGA:   5    -0.318535389198E+03   -0.85175E-01   -0.85221E-01  8112   0.216E+00 0.159E-02
CGA:   6    -0.318562165462E+03   -0.26776E-01   -0.26796E-01  8112   0.952E-01 0.369E-03
CGA:   7    -0.318574581239E+03   -0.12416E-01   -0.12416E-01  8112   0.331E-01 0.252E-04
CGA:   8    -0.318579001370E+03   -0.44201E-02   -0.44187E-02  8112   0.226E-01-0.689E-04
CGA:   9    -0.318581590505E+03   -0.25891E-02   -0.25930E-02  8112   0.853E-02 0.447E-04
CGA:  10    -0.318582964295E+03   -0.13738E-02   -0.13738E-02  8112   0.532E-02 0.285E-05
CGA:  11    -0.318583706510E+03   -0.74222E-03   -0.74224E-03  8112   0.266E-02 0.761E-05
CGA:  12    -0.318584115372E+03   -0.40886E-03   -0.40879E-03  8112   0.170E-02 0.518E-05
CGA:  13    -0.318584321323E+03   -0.20595E-03   -0.20607E-03  8112   0.890E-03 0.447E-05
CGA:  14    -0.318584436657E+03   -0.11533E-03   -0.11537E-03  8112   0.369E-03 0.329E-05
CGA:  15    -0.318584496796E+03   -0.60139E-04   -0.60045E-04  8112   0.184E-03 0.415E-05
CGA:  16    -0.318584521291E+03   -0.24494E-04   -0.24515E-04  8112   0.985E-04 0.220E-05
CGA:  17    -0.318584534296E+03   -0.13006E-04   -0.13020E-04  8112   0.619E-04 0.140E-05
CGA:  18    -0.318584543054E+03   -0.87580E-05   -0.87585E-05  8112   0.277E-04 0.812E-06
   5 F= -.31858454E+03 E0= -.31858028E+03  d E =-.469507E+00  mag=    44.0000
       N       E                     dE             d eps       ncg     rms          ort
SDA:   1    -0.312138460546E+03    0.64461E+01    0.00000E+00  8112   0.174E+02 0.000E+00
CGA:   2    -0.317056806688E+03   -0.49183E+01   -0.49078E+01  8112   0.999E+01 0.910E-01
CGA:   3    -0.318075767167E+03   -0.10190E+01   -0.10399E+01  8112   0.524E+01-0.108E-01
CGA:   4    -0.318641337115E+03   -0.56557E+00   -0.54767E+00  8112   0.124E+01-0.293E-01
CGA:   5    -0.318817576880E+03   -0.17624E+00   -0.17625E+00  8112   0.369E+00 0.403E-02
CGA:   6    -0.318863468992E+03   -0.45892E-01   -0.45905E-01  8112   0.205E+00 0.266E-03
CGA:   7    -0.318884936552E+03   -0.21468E-01   -0.21526E-01  8112   0.693E-01 0.297E-03
CGA:   8    -0.318893722382E+03   -0.87858E-02   -0.87790E-02  8112   0.371E-01-0.151E-03
CGA:   9    -0.318898538187E+03   -0.48158E-02   -0.48207E-02  8112   0.135E-01 0.190E-03
CGA:  10    -0.318900659607E+03   -0.21214E-02   -0.21209E-02  8112   0.951E-02 0.203E-04
CGA:  11    -0.318901749736E+03   -0.10901E-02   -0.10912E-02  8112   0.455E-02 0.145E-04
CGA:  12    -0.318902409664E+03   -0.65993E-03   -0.65987E-03  8112   0.259E-02 0.871E-05
CGA:  13    -0.318902804434E+03   -0.39477E-03   -0.39459E-03  8112   0.126E-02 0.113E-04
CGA:  14    -0.318902964153E+03   -0.15972E-03   -0.15977E-03  8112   0.739E-03 0.393E-05
CGA:  15    -0.318903061444E+03   -0.97291E-04   -0.97337E-04  8112   0.320E-03 0.474E-05
CGA:  16    -0.318903102279E+03   -0.40835E-04   -0.40874E-04  8112   0.156E-03 0.311E-05
CGA:  17    -0.318903123746E+03   -0.21467E-04   -0.21473E-04  8112   0.787E-04 0.204E-05
CGA:  18    -0.318903135730E+03   -0.11984E-04   -0.11971E-04  8112   0.415E-04 0.113E-05
CGA:  19    -0.318903141110E+03   -0.53805E-05   -0.53849E-05  8112   0.290E-04 0.367E-06
   6 F= -.31890314E+03 E0= -.31889889E+03  d E =-.318598E+00  mag=    44.0000
       N       E                     dE             d eps       ncg     rms          ort
SDA:   1    -0.305149013696E+03    0.13754E+02    0.00000E+00  8112   0.362E+02 0.000E+00
CGA:   2    -0.314681679636E+03   -0.95327E+01   -0.94097E+01  8112   0.279E+02 0.883E+00
CGA:   3    -0.317259699100E+03   -0.25780E+01   -0.25049E+01  8112   0.102E+02 0.134E+00
CGA:   4    -0.318541216547E+03   -0.12815E+01   -0.12518E+01  8112   0.296E+01-0.375E+00
CGA:   5    -0.318931026321E+03   -0.38981E+00   -0.38997E+00  8112   0.983E+00 0.156E-01
CGA:   6    -0.319019960486E+03   -0.88934E-01   -0.87488E-01  8112   0.519E+00 0.336E-02
CGA:   7    -0.319083098716E+03   -0.63138E-01   -0.63391E-01  8112   0.148E+00 0.575E-02
CGA:   8    -0.319102978180E+03   -0.19879E-01   -0.19880E-01  8112   0.836E-01 0.853E-04
CGA:   9    -0.319112438513E+03   -0.94603E-02   -0.95311E-02  8112   0.431E-01 0.927E-03
CGA:  10    -0.319117194635E+03   -0.47561E-02   -0.47675E-02  8112   0.161E-01 0.113E-03
CGA:  11    -0.319120352564E+03   -0.31579E-02   -0.31404E-02  8112   0.104E-01 0.233E-03
CGA:  12    -0.319121374536E+03   -0.10220E-02   -0.10240E-02  8112   0.527E-02 0.113E-04
CGA:  13    -0.319122380769E+03   -0.10062E-02   -0.10030E-02  8112   0.268E-02 0.497E-04
CGA:  14    -0.319122670885E+03   -0.29012E-03   -0.29030E-03  8112   0.136E-02 0.629E-05
CGA:  15    -0.319122891025E+03   -0.22014E-03   -0.21989E-03  8112   0.694E-03 0.953E-05
CGA:  16    -0.319122962923E+03   -0.71898E-04   -0.72065E-04  8112   0.256E-03 0.377E-05
CGA:  17    -0.319123000698E+03   -0.37775E-04   -0.37745E-04  8112   0.151E-03 0.289E-05
CGA:  18    -0.319123019953E+03   -0.19255E-04   -0.19271E-04  8112   0.578E-04 0.136E-05
CGA:  19    -0.319123027606E+03   -0.76530E-05   -0.76560E-05  8112   0.374E-04 0.550E-06
   7 F= -.31912303E+03 E0= -.31911869E+03  d E =-.219886E+00  mag=    44.0000
       N       E                     dE             d eps       ncg     rms          ort
SDA:   1    -0.303888942476E+03    0.15234E+02    0.00000E+00  8112   0.380E+02 0.000E+00
CGA:   2    -0.315028172933E+03   -0.11139E+02   -0.11202E+02  8112   0.265E+02-0.386E+00
CGA:   3    -0.317565014621E+03   -0.25368E+01   -0.25642E+01  8112   0.886E+01 0.106E+01
CGA:   4    -0.318672746819E+03   -0.11077E+01   -0.10939E+01  8112   0.326E+01-0.127E+00
CGA:   5    -0.318978363209E+03   -0.30562E+00   -0.31027E+00  8112   0.131E+01-0.744E-02
CGA:   6    -0.319120093344E+03   -0.14173E+00   -0.14118E+00  8112   0.435E+00-0.396E-02
CGA:   7    -0.319178941501E+03   -0.58848E-01   -0.58856E-01  8112   0.164E+00 0.227E-02
CGA:   8    -0.319199582254E+03   -0.20641E-01   -0.20631E-01  8112   0.812E-01-0.287E-03
CGA:   9    -0.319208232339E+03   -0.86501E-02   -0.86844E-02  8112   0.395E-01 0.266E-03
CGA:  10    -0.319213140396E+03   -0.49081E-02   -0.49106E-02  8112   0.172E-01 0.958E-04
CGA:  11    -0.319215753811E+03   -0.26134E-02   -0.26101E-02  8112   0.100E-01 0.131E-03
CGA:  12    -0.319217088139E+03   -0.13343E-02   -0.13344E-02  8112   0.563E-02 0.233E-04
CGA:  13    -0.319217838140E+03   -0.75000E-03   -0.75011E-03  8112   0.368E-02 0.299E-04
CGA:  14    -0.319218271590E+03   -0.43345E-03   -0.43369E-03  8112   0.142E-02 0.980E-05
CGA:  15    -0.319218509460E+03   -0.23787E-03   -0.23762E-03  8112   0.754E-03 0.738E-05
CGA:  16    -0.319218595090E+03   -0.85630E-04   -0.85727E-04  8112   0.366E-03 0.428E-05
CGA:  17    -0.319218637754E+03   -0.42664E-04   -0.42729E-04  8112   0.153E-03 0.309E-05
CGA:  18    -0.319218658213E+03   -0.20459E-04   -0.20460E-04  8112   0.648E-04 0.129E-05
CGA:  19    -0.319218666792E+03   -0.85796E-05   -0.85809E-05  8112   0.322E-04 0.486E-06
   8 F= -.31921867E+03 E0= -.31921405E+03  d E =-.956392E-01  mag=    44.0000
       N       E                     dE             d eps       ncg     rms          ort
SDA:   1    -0.296082389219E+03    0.23136E+02    0.00000E+00  8112   0.572E+02 0.000E+00
CGA:   2    -0.312331320138E+03   -0.16249E+02   -0.16511E+02  8112   0.524E+02-0.155E+01
CGA:   3    -0.316496760820E+03   -0.41654E+01   -0.41945E+01  8112   0.124E+02 0.379E+01
CGA:   4    -0.318507430056E+03   -0.20107E+01   -0.20127E+01  8112   0.357E+01-0.974E-01
CGA:   5    -0.318928859803E+03   -0.42143E+00   -0.42262E+00  8112   0.182E+01 0.207E-01
CGA:   6    -0.319093257281E+03   -0.16440E+00   -0.16314E+00  8112   0.706E+00-0.290E-02
CGA:   7    -0.319176622653E+03   -0.83365E-01   -0.83427E-01  8112   0.237E+00 0.152E-02
CGA:   8    -0.319211276559E+03   -0.34654E-01   -0.34656E-01  8112   0.905E-01-0.115E-03
CGA:   9    -0.319222882194E+03   -0.11606E-01   -0.11619E-01  8112   0.562E-01 0.845E-03
CGA:  10    -0.319228951337E+03   -0.60691E-02   -0.60757E-02  8112   0.263E-01 0.726E-04
CGA:  11    -0.319232370193E+03   -0.34189E-02   -0.34197E-02  8112   0.138E-01 0.129E-03
CGA:  12    -0.319234505130E+03   -0.21349E-02   -0.21336E-02  8112   0.754E-02 0.546E-04
CGA:  13    -0.319235555324E+03   -0.10502E-02   -0.10499E-02  8112   0.462E-02 0.417E-04
CGA:  14    -0.319236092888E+03   -0.53756E-03   -0.53778E-03  8112   0.258E-02 0.929E-05
CGA:  15    -0.319236425278E+03   -0.33239E-03   -0.33247E-03  8112   0.945E-03 0.113E-04
CGA:  16    -0.319236562600E+03   -0.13732E-03   -0.13722E-03  8112   0.524E-03 0.878E-05
CGA:  17    -0.319236622547E+03   -0.59947E-04   -0.60061E-04  8112   0.199E-03 0.496E-05
CGA:  18    -0.319236646131E+03   -0.23585E-04   -0.23611E-04  8112   0.112E-03 0.168E-05
CGA:  19    -0.319236660220E+03   -0.14089E-04   -0.14095E-04  8112   0.370E-04 0.705E-06
CGA:  20    -0.319236666375E+03   -0.61551E-05   -0.61399E-05  8112   0.234E-04 0.449E-06
   9 F= -.31923667E+03 E0= -.31923188E+03  d E =-.179996E-01  mag=    44.0000
       N       E                     dE             d eps       ncg     rms          ort
SDA:   1    -0.315380589143E+03    0.38561E+01    0.00000E+00  8112   0.100E+02 0.000E+00
CGA:   2    -0.318034247689E+03   -0.26537E+01   -0.26676E+01  8112   0.794E+01-0.114E+00
CGA:   3    -0.318801279318E+03   -0.76703E+00   -0.76368E+00  8112   0.270E+01 0.848E-01
CGA:   4    -0.319119220092E+03   -0.31794E+00   -0.31876E+00  8112   0.117E+01 0.114E-01
CGA:   5    -0.319227392182E+03   -0.10817E+00   -0.10692E+00  8112   0.318E+00 0.382E-03
CGA:   6    -0.319270006831E+03   -0.42615E-01   -0.42615E-01  8112   0.104E+00 0.195E-04
CGA:   7    -0.319283862072E+03   -0.13855E-01   -0.13855E-01  8112   0.449E-01 0.140E-03
CGA:   8    -0.319288477009E+03   -0.46149E-02   -0.46230E-02  8112   0.221E-01 0.491E-04
CGA:   9    -0.319291058931E+03   -0.25819E-02   -0.25816E-02  8112   0.776E-02-0.988E-05
CGA:  10    -0.319292249048E+03   -0.11901E-02   -0.11895E-02  8112   0.393E-02 0.180E-04
CGA:  11    -0.319292776054E+03   -0.52701E-03   -0.52699E-03  8112   0.249E-02 0.876E-05
CGA:  12    -0.319293063465E+03   -0.28741E-03   -0.28758E-03  8112   0.128E-02 0.614E-05
CGA:  13    -0.319293256550E+03   -0.19308E-03   -0.19302E-03  8112   0.732E-03 0.333E-05
CGA:  14    -0.319293357465E+03   -0.10091E-03   -0.10089E-03  8112   0.327E-03 0.340E-05
CGA:  15    -0.319293404203E+03   -0.46738E-04   -0.46724E-04  8112   0.240E-03 0.140E-05
CGA:  16    -0.319293428479E+03   -0.24276E-04   -0.24311E-04  8112   0.696E-04 0.890E-06
CGA:  17    -0.319293440301E+03   -0.11822E-04   -0.11790E-04  8112   0.354E-04 0.863E-06
CGA:  18    -0.319293444365E+03   -0.40639E-05   -0.40696E-05  8112   0.172E-04 0.272E-06
  10 F= -.31929344E+03 E0= -.31928874E+03  d E =-.567780E-01  mag=    44.0000
       N       E                     dE             d eps       ncg     rms          ort
SDA:   1    -0.297705806193E+03    0.21588E+02    0.00000E+00  8112   0.561E+02 0.000E+00
CGA:   2    -0.312285934228E+03   -0.14580E+02   -0.14880E+02  8112   0.514E+02-0.220E+01
CGA:   3    -0.316498279956E+03   -0.42123E+01   -0.42144E+01  8112   0.127E+02 0.272E+01
CGA:   4    -0.318562483538E+03   -0.20642E+01   -0.20628E+01  8112   0.403E+01 0.453E-01
CGA:   5    -0.319012877266E+03   -0.45039E+00   -0.44493E+00  8112   0.209E+01-0.499E-01
CGA:   6    -0.319198379709E+03   -0.18550E+00   -0.18664E+00  8112   0.627E+00-0.191E-02
CGA:   7    -0.319285376350E+03   -0.86997E-01   -0.86956E-01  8112   0.213E+00 0.410E-02
CGA:   8    -0.319314205075E+03   -0.28829E-01   -0.28827E-01  8112   0.108E+00 0.808E-03
CGA:   9    -0.319327012060E+03   -0.12807E-01   -0.12818E-01  8112   0.506E-01 0.297E-03
CGA:  10    -0.319332887263E+03   -0.58752E-02   -0.58853E-02  8112   0.267E-01 0.229E-03
CGA:  11    -0.319336617822E+03   -0.37306E-02   -0.37302E-02  8112   0.136E-01 0.477E-04
CGA:  12    -0.319338462740E+03   -0.18449E-02   -0.18447E-02  8112   0.750E-02 0.584E-04
CGA:  13    -0.319339656976E+03   -0.11942E-02   -0.11937E-02  8112   0.463E-02 0.186E-04
CGA:  14    -0.319340165847E+03   -0.50887E-03   -0.50957E-03  8112   0.221E-02 0.138E-04
CGA:  15    -0.319340490074E+03   -0.32423E-03   -0.32405E-03  8112   0.111E-02 0.111E-04
CGA:  16    -0.319340628176E+03   -0.13810E-03   -0.13818E-03  8112   0.423E-03 0.748E-05
CGA:  17    -0.319340687860E+03   -0.59684E-04   -0.59650E-04  8112   0.252E-03 0.448E-05
CGA:  18    -0.319340714839E+03   -0.26980E-04   -0.27049E-04  8112   0.918E-04 0.225E-05
CGA:  19    -0.319340729380E+03   -0.14540E-04   -0.14516E-04  8112   0.463E-04 0.950E-06
CGA:  20    -0.319340735916E+03   -0.65360E-05   -0.65329E-05  8112   0.306E-04 0.436E-06
  11 F= -.31934074E+03 E0= -.31933617E+03  d E =-.472916E-01  mag=    44.0000
       N       E                     dE             d eps       ncg     rms          ort
SDA:   1    -0.315371407663E+03    0.39693E+01    0.00000E+00  8112   0.101E+02 0.000E+00
CGA:   2    -0.317943439672E+03   -0.25720E+01   -0.26178E+01  8112   0.105E+02-0.395E+00
CGA:   3    -0.318894972612E+03   -0.95153E+00   -0.95175E+00  8112   0.215E+01 0.379E+00
CGA:   4    -0.319221377408E+03   -0.32640E+00   -0.32650E+00  8112   0.104E+01-0.601E-02
CGA:   5    -0.319301398536E+03   -0.80021E-01   -0.81488E-01  8112   0.309E+00-0.717E-02
CGA:   6    -0.319344093559E+03   -0.42695E-01   -0.42698E-01  8112   0.854E-01-0.286E-03
CGA:   7    -0.319358388047E+03   -0.14294E-01   -0.14285E-01  8112   0.257E-01 0.209E-03
CGA:   8    -0.319362850760E+03   -0.44627E-02   -0.44605E-02  8112   0.974E-02 0.344E-04
CGA:   9    -0.319364252054E+03   -0.14013E-02   -0.14010E-02  8112   0.532E-02 0.322E-04
CGA:  10    -0.319364921367E+03   -0.66931E-03   -0.66981E-03  8112   0.279E-02 0.194E-04
CGA:  11    -0.319365270456E+03   -0.34909E-03   -0.34929E-03  8112   0.156E-02 0.933E-05
CGA:  12    -0.319365482885E+03   -0.21243E-03   -0.21244E-03  8112   0.883E-03 0.478E-05
CGA:  13    -0.319365623761E+03   -0.14088E-03   -0.14075E-03  8112   0.328E-03 0.443E-05
CGA:  14    -0.319365688502E+03   -0.64741E-04   -0.64631E-04  8112   0.209E-03 0.186E-05
CGA:  15    -0.319365708476E+03   -0.19974E-04   -0.20037E-04  8112   0.916E-04 0.121E-05
CGA:  16    -0.319365721193E+03   -0.12717E-04   -0.12719E-04  8112   0.341E-04 0.131E-05
CGA:  17    -0.319365726271E+03   -0.50786E-05   -0.50749E-05  8112   0.128E-04 0.465E-06
  12 F= -.31936573E+03 E0= -.31936122E+03  d E =-.249904E-01  mag=    44.0000
       N       E                     dE             d eps       ncg     rms          ort
SDA:   1    -0.317776516733E+03    0.15892E+01    0.00000E+00  8112   0.418E+01 0.000E+00
CGA:   2    -0.318774020739E+03   -0.99750E+00   -0.10070E+01  8112   0.410E+01-0.945E-01
CGA:   3    -0.319186652047E+03   -0.41263E+00   -0.41405E+00  8112   0.958E+00 0.537E-01
CGA:   4    -0.319317097251E+03   -0.13045E+00   -0.13042E+00  8112   0.493E+00-0.123E-02
CGA:   5    -0.319357038616E+03   -0.39941E-01   -0.40247E-01  8112   0.119E+00-0.141E-02
CGA:   6    -0.319374352161E+03   -0.17314E-01   -0.17314E-01  8112   0.355E-01-0.507E-04
CGA:   7    -0.319380126745E+03   -0.57746E-02   -0.57715E-02  8112   0.107E-01 0.888E-04
CGA:   8    -0.319381878392E+03   -0.17516E-02   -0.17517E-02  8112   0.473E-02-0.530E-05
CGA:   9    -0.319382483972E+03   -0.60558E-03   -0.60593E-03  8112   0.220E-02 0.966E-05
CGA:  10    -0.319382769105E+03   -0.28513E-03   -0.28521E-03  8112   0.136E-02 0.474E-05
CGA:  11    -0.319382931779E+03   -0.16267E-03   -0.16276E-03  8112   0.593E-03 0.343E-05
CGA:  12    -0.319383026813E+03   -0.95034E-04   -0.94970E-04  8112   0.329E-03 0.228E-05
CGA:  13    -0.319383087888E+03   -0.61075E-04   -0.61019E-04  8112   0.134E-03 0.117E-05
CGA:  14    -0.319383108792E+03   -0.20903E-04   -0.20893E-04  8112   0.112E-03 0.709E-06
CGA:  15    -0.319383120690E+03   -0.11898E-04   -0.11922E-04  8112   0.349E-04 0.597E-06
CGA:  16    -0.319383125452E+03   -0.47624E-05   -0.47649E-05  8112   0.162E-04 0.427E-06
  13 F= -.31938313E+03 E0= -.31937871E+03  d E =-.173992E-01  mag=    44.0000
       N       E                     dE             d eps       ncg     rms          ort
SDA:   1    -0.311821554489E+03    0.75616E+01    0.00000E+00  8112   0.198E+02 0.000E+00
CGA:   2    -0.316485125117E+03   -0.46636E+01   -0.47919E+01  8112   0.222E+02-0.126E+01
CGA:   3    -0.318451198225E+03   -0.19661E+01   -0.19340E+01  8112   0.418E+01 0.122E+01
CGA:   4    -0.319152562183E+03   -0.70136E+00   -0.70073E+00  8112   0.156E+01 0.251E-01
CGA:   5    -0.319306443374E+03   -0.15388E+00   -0.15676E+00  8112   0.639E+00 0.343E-02
CGA:   6    -0.319376062120E+03   -0.69619E-01   -0.69536E-01  8112   0.185E+00-0.358E-03
CGA:   7    -0.319404689742E+03   -0.28628E-01   -0.28613E-01  8112   0.719E-01 0.650E-03
CGA:   8    -0.319412459468E+03   -0.77697E-02   -0.77886E-02  8112   0.332E-01 0.118E-03
CGA:   9    -0.319417122182E+03   -0.46627E-02   -0.46627E-02  8112   0.119E-01 0.309E-04
CGA:  10    -0.319418740398E+03   -0.16182E-02   -0.16183E-02  8112   0.703E-02 0.172E-04
CGA:  11    -0.319419788803E+03   -0.10484E-02   -0.10476E-02  8112   0.319E-02 0.580E-04
CGA:  12    -0.319420224359E+03   -0.43556E-03   -0.43563E-03  8112   0.204E-02 0.106E-04
CGA:  13    -0.319420572887E+03   -0.34853E-03   -0.34819E-03  8112   0.999E-03 0.854E-05
CGA:  14    -0.319420696097E+03   -0.12321E-03   -0.12332E-03  8112   0.523E-03 0.368E-05
CGA:  15    -0.319420778541E+03   -0.82444E-04   -0.82368E-04  8112   0.244E-03 0.444E-05
CGA:  16    -0.319420808414E+03   -0.29873E-04   -0.29916E-04  8112   0.886E-04 0.225E-05
CGA:  17    -0.319420821364E+03   -0.12951E-04   -0.12945E-04  8112   0.489E-04 0.122E-05
CGA:  18    -0.319420827687E+03   -0.63223E-05   -0.63310E-05  8112   0.176E-04 0.653E-06
  14 F= -.31942083E+03 E0= -.31941664E+03  d E =-.377022E-01  mag=    44.0000
       N       E                     dE             d eps       ncg     rms          ort
SDA:   1    -0.298164161030E+03    0.21257E+02    0.00000E+00  8112   0.555E+02 0.000E+00
CGA:   2    -0.310930833136E+03   -0.12767E+02   -0.13337E+02  8112   0.743E+02-0.530E+01
CGA:   3    -0.316427860501E+03   -0.54970E+01   -0.54382E+01  8112   0.139E+02 0.435E+01
CGA:   4    -0.318409406120E+03   -0.19815E+01   -0.19852E+01  8112   0.718E+01 0.236E+00
CGA:   5    -0.319024186604E+03   -0.61478E+00   -0.60660E+00  8112   0.223E+01 0.132E+00
CGA:   6    -0.319276820174E+03   -0.25263E+00   -0.25280E+00  8112   0.868E+00 0.275E-02
CGA:   7    -0.319372142476E+03   -0.95322E-01   -0.96187E-01  8112   0.407E+00 0.939E-02
CGA:   8    -0.319416433554E+03   -0.44291E-01   -0.44630E-01  8112   0.144E+00 0.367E-02
CGA:   9    -0.319434927634E+03   -0.18494E-01   -0.18504E-01  8112   0.647E-01 0.571E-03
CGA:  10    -0.319443745220E+03   -0.88176E-02   -0.88157E-02  8112   0.296E-01 0.652E-03
CGA:  11    -0.319447426706E+03   -0.36815E-02   -0.36859E-02  8112   0.169E-01 0.185E-03
CGA:  12    -0.319450114876E+03   -0.26882E-02   -0.26840E-02  8112   0.749E-02 0.130E-03
CGA:  13    -0.319451174760E+03   -0.10599E-02   -0.10590E-02  8112   0.542E-02 0.910E-04
CGA:  14    -0.319452050727E+03   -0.87597E-03   -0.87444E-03  8112   0.197E-02 0.435E-04
CGA:  15    -0.319452358138E+03   -0.30741E-03   -0.30723E-03  8112   0.108E-02 0.917E-05
CGA:  16    -0.319452528222E+03   -0.17008E-03   -0.16975E-03  8112   0.448E-03 0.151E-04
CGA:  17    -0.319452582833E+03   -0.54611E-04   -0.54721E-04  8112   0.159E-03 0.546E-05
CGA:  18    -0.319452612853E+03   -0.30020E-04   -0.29882E-04  8112   0.761E-04 0.280E-05
CGA:  19    -0.319452622338E+03   -0.94853E-05   -0.95033E-05  8112   0.377E-04 0.972E-06
  15 F= -.31945262E+03 E0= -.31944872E+03  d E =-.317947E-01  mag=    44.0000
       N       E                     dE             d eps       ncg     rms          ort
SDA:   1    -0.314581360950E+03    0.48713E+01    0.00000E+00  8112   0.126E+02 0.000E+00
CGA:   2    -0.317829645817E+03   -0.32483E+01   -0.32521E+01  8112   0.850E+01-0.293E-01
CGA:   3    -0.318871331225E+03   -0.10417E+01   -0.10425E+01  8112   0.374E+01 0.286E-01
CGA:   4    -0.319283521081E+03   -0.41219E+00   -0.41237E+00  8112   0.951E+00 0.817E-02
CGA:   5    -0.319407301910E+03   -0.12378E+00   -0.12355E+00  8112   0.285E+00-0.675E-02
CGA:   6    -0.319446989574E+03   -0.39688E-01   -0.39696E-01  8112   0.105E+00 0.246E-02
CGA:   7    -0.319460959452E+03   -0.13970E-01   -0.13965E-01  8112   0.399E-01-0.231E-03
CGA:   8    -0.319466404850E+03   -0.54454E-02   -0.54460E-02  8112   0.167E-01 0.665E-04
CGA:   9    -0.319468589597E+03   -0.21847E-02   -0.21853E-02  8112   0.749E-02 0.235E-04
CGA:  10    -0.319469765652E+03   -0.11761E-02   -0.11757E-02  8112   0.312E-02 0.129E-04
CGA:  11    -0.319470329274E+03   -0.56362E-03   -0.56315E-03  8112   0.181E-02 0.101E-04
CGA:  12    -0.319470582318E+03   -0.25304E-03   -0.25307E-03  8112   0.104E-02 0.607E-05
CGA:  13    -0.319470741348E+03   -0.15903E-03   -0.15899E-03  8112   0.459E-03 0.409E-05
CGA:  14    -0.319470820226E+03   -0.78878E-04   -0.78836E-04  8112   0.215E-03 0.138E-05
CGA:  15    -0.319470851053E+03   -0.30826E-04   -0.30826E-04  8112   0.104E-03-0.833E-07
CGA:  16    -0.319470865821E+03   -0.14768E-04   -0.14769E-04  8112   0.401E-04 0.373E-06
CGA:  17    -0.319470871373E+03   -0.55528E-05   -0.55562E-05  8112   0.197E-04 0.510E-06
  16 F= -.31947087E+03 E0= -.31946708E+03  d E =-.182490E-01  mag=    44.0000
       N       E                     dE             d eps       ncg     rms          ort
SDA:   1    -0.315835694159E+03    0.36352E+01    0.00000E+00  8112   0.948E+01 0.000E+00
CGA:   2    -0.318211883206E+03   -0.23762E+01   -0.23811E+01  8112   0.760E+01-0.619E-01
CGA:   3    -0.319059315577E+03   -0.84743E+00   -0.86005E+00  8112   0.217E+01 0.154E+00
CGA:   4    -0.319368262041E+03   -0.30895E+00   -0.30873E+00  8112   0.700E+00-0.974E-02
CGA:   5    -0.319439804240E+03   -0.71542E-01   -0.72121E-01  8112   0.260E+00 0.145E-02
CGA:   6    -0.319472132198E+03   -0.32328E-01   -0.32292E-01  8112   0.773E-01-0.455E-03
CGA:   7    -0.319484126885E+03   -0.11995E-01   -0.11997E-01  8112   0.241E-01-0.119E-03
CGA:   8    -0.319488065902E+03   -0.39390E-02   -0.39382E-02  8112   0.938E-02 0.282E-04
CGA:   9    -0.319489471028E+03   -0.14051E-02   -0.14050E-02  8112   0.462E-02 0.146E-04
CGA:  10    -0.319490069986E+03   -0.59896E-03   -0.59894E-03  8112   0.262E-02 0.265E-05
CGA:  11    -0.319490449735E+03   -0.37975E-03   -0.37975E-03  8112   0.107E-02 0.806E-05
CGA:  12    -0.319490647953E+03   -0.19822E-03   -0.19806E-03  8112   0.619E-03 0.371E-05
CGA:  13    -0.319490753099E+03   -0.10515E-03   -0.10507E-03  8112   0.270E-03 0.267E-05
CGA:  14    -0.319490793031E+03   -0.39932E-04   -0.39934E-04  8112   0.180E-03 0.217E-05
CGA:  15    -0.319490814882E+03   -0.21852E-04   -0.21904E-04  8112   0.523E-04 0.191E-05
CGA:  16    -0.319490823594E+03   -0.87115E-05   -0.86955E-05  8112   0.253E-04 0.910E-06
  17 F= -.31949082E+03 E0= -.31948691E+03  d E =-.199522E-01  mag=    44.0000
       N       E                     dE             d eps       ncg     rms          ort
SDA:   1    -0.318766010427E+03    0.72480E+00    0.00000E+00  8112   0.190E+01 0.000E+00
CGA:   2    -0.319226627180E+03   -0.46062E+00   -0.46196E+00  8112   0.172E+01-0.137E-01
CGA:   3    -0.319403393631E+03   -0.17677E+00   -0.17714E+00  8112   0.496E+00 0.741E-02
CGA:   4    -0.319467426360E+03   -0.64033E-01   -0.64072E-01  8112   0.179E+00 0.644E-03
CGA:   5    -0.319486483189E+03   -0.19057E-01   -0.18995E-01  8112   0.465E-01-0.863E-04
CGA:   6    -0.319493472801E+03   -0.69896E-02   -0.69887E-02  8112   0.143E-01 0.136E-03
CGA:   7    -0.319495682591E+03   -0.22098E-02   -0.22101E-02  8112   0.556E-02-0.228E-04
CGA:   8    -0.319496397137E+03   -0.71455E-03   -0.71466E-03  8112   0.260E-02-0.901E-06
CGA:   9    -0.319496702387E+03   -0.30525E-03   -0.30520E-03  8112   0.956E-03-0.112E-05
CGA:  10    -0.319496859902E+03   -0.15752E-03   -0.15745E-03  8112   0.430E-03 0.291E-05
CGA:  11    -0.319496931652E+03   -0.71749E-04   -0.71722E-04  8112   0.228E-03 0.127E-05
CGA:  12    -0.319496968021E+03   -0.36369E-04   -0.36374E-04  8112   0.141E-03-0.464E-06
CGA:  13    -0.319496987015E+03   -0.18994E-04   -0.18992E-04  8112   0.713E-04-0.193E-06
CGA:  14    -0.319496997465E+03   -0.10450E-04   -0.10450E-04  8112   0.311E-04 0.553E-06
CGA:  15    -0.319497002528E+03   -0.50627E-05   -0.50531E-05  8112   0.111E-04 0.665E-06
  18 F= -.31949700E+03 E0= -.31949309E+03  d E =-.617893E-02  mag=    44.0000
       N       E                     dE             d eps       ncg     rms          ort
SDA:   1    -0.291607118170E+03    0.27890E+02    0.00000E+00  8112   0.732E+02 0.000E+00
CGA:   2    -0.307696848113E+03   -0.16090E+02   -0.16386E+02  8112   0.989E+02-0.447E+01
CGA:   3    -0.315528221437E+03   -0.78314E+01   -0.76954E+01  8112   0.190E+02-0.288E+00
CGA:   4    -0.318357007102E+03   -0.28288E+01   -0.28288E+01  8112   0.672E+01-0.108E-01
CGA:   5    -0.319092314927E+03   -0.73531E+00   -0.72272E+00  8112   0.188E+01 0.331E-01
CGA:   6    -0.319345729257E+03   -0.25341E+00   -0.25406E+00  8112   0.927E+00 0.239E-01
CGA:   7    -0.319426408988E+03   -0.80680E-01   -0.81418E-01  8112   0.452E+00-0.151E-02
CGA:   8    -0.319476445467E+03   -0.50036E-01   -0.50168E-01  8112   0.153E+00 0.164E-02
CGA:   9    -0.319497792241E+03   -0.21347E-01   -0.21357E-01  8112   0.588E-01 0.218E-02
CGA:  10    -0.319507926839E+03   -0.10135E-01   -0.10138E-01  8112   0.274E-01-0.763E-04
CGA:  11    -0.319512962549E+03   -0.50357E-02   -0.50152E-02  8112   0.132E-01 0.371E-03
CGA:  12    -0.319515084844E+03   -0.21223E-02   -0.21182E-02  8112   0.114E-01 0.182E-03
CGA:  13    -0.319516382478E+03   -0.12976E-02   -0.13120E-02  8112   0.421E-02 0.117E-03
CGA:  14    -0.319517103348E+03   -0.72087E-03   -0.72062E-03  8112   0.184E-02 0.962E-05
CGA:  15    -0.319517438586E+03   -0.33524E-03   -0.33447E-03  8112   0.628E-03 0.188E-04
CGA:  16    -0.319517533918E+03   -0.95333E-04   -0.95307E-04  8112   0.330E-03 0.698E-05
CGA:  17    -0.319517578705E+03   -0.44787E-04   -0.44844E-04  8112   0.127E-03 0.407E-05
CGA:  18    -0.319517594715E+03   -0.16010E-04   -0.16038E-04  8112   0.596E-04 0.115E-05
CGA:  19    -0.319517603926E+03   -0.92108E-05   -0.92060E-05  8112   0.266E-04 0.547E-06
  19 F= -.31951760E+03 E0= -.31951374E+03  d E =-.206014E-01  mag=    44.0000
       N       E                     dE             d eps       ncg     rms          ort
SDA:   1    -0.301813586771E+03    0.17704E+02    0.00000E+00  8112   0.532E+02 0.000E+00
CGA:   2    -0.311820529967E+03   -0.10007E+02   -0.99989E+01  8112   0.291E+02 0.783E-01
CGA:   3    -0.316436482788E+03   -0.46160E+01   -0.46300E+01  8112   0.150E+02-0.815E+00
CGA:   4    -0.318157076908E+03   -0.17206E+01   -0.16810E+01  8112   0.470E+01-0.319E-02
CGA:   5    -0.318689159512E+03   -0.53208E+00   -0.53197E+00  8112   0.183E+01 0.126E-01
CGA:   6    -0.318889734582E+03   -0.20058E+00   -0.19829E+00  8112   0.635E+00-0.129E-01
CGA:   7    -0.318976007020E+03   -0.86272E-01   -0.86473E-01  8112   0.207E+00 0.133E-01
CGA:   8    -0.319003650122E+03   -0.27643E-01   -0.27668E-01  8112   0.114E+00 0.825E-03
CGA:   9    -0.319018495363E+03   -0.14845E-01   -0.14889E-01  8112   0.396E-01 0.143E-02
CGA:  10    -0.319023926891E+03   -0.54315E-02   -0.54370E-02  8112   0.262E-01 0.387E-03
CGA:  11    -0.319027367727E+03   -0.34408E-02   -0.34444E-02  8112   0.995E-02 0.142E-03
CGA:  12    -0.319028893901E+03   -0.15262E-02   -0.15260E-02  8112   0.572E-02 0.133E-04
CGA:  13    -0.319029773452E+03   -0.87955E-03   -0.87905E-03  8112   0.277E-02 0.259E-04
CGA:  14    -0.319030134966E+03   -0.36151E-03   -0.36165E-03  8112   0.171E-02 0.541E-05
CGA:  15    -0.319030397623E+03   -0.26266E-03   -0.26251E-03  8112   0.676E-03 0.828E-05
CGA:  16    -0.319030498814E+03   -0.10119E-03   -0.10117E-03  8112   0.335E-03 0.285E-05
CGA:  17    -0.319030546247E+03   -0.47434E-04   -0.47438E-04  8112   0.198E-03 0.189E-05
CGA:  18    -0.319030570373E+03   -0.24126E-04   -0.24152E-04  8112   0.661E-04 0.117E-05
CGA:  19    -0.319030582657E+03   -0.12284E-04   -0.12261E-04  8112   0.431E-04 0.533E-06
CGA:  20    -0.319030588688E+03   -0.60306E-05   -0.60324E-05  8112   0.228E-04 0.344E-06
  20 F= -.31903059E+03 E0= -.31902677E+03  d E =0.487015E+00  mag=    44.0000
       N       E                     dE             d eps       ncg     rms          ort
SDA:   1    -0.315032521651E+03    0.39981E+01    0.00000E+00  8112   0.140E+02 0.000E+00
CGA:   2    -0.317478070502E+03   -0.24455E+01   -0.24447E+01  8112   0.879E+01 0.846E-02
CGA:   3    -0.318601068517E+03   -0.11230E+01   -0.11187E+01  8112   0.520E+01-0.116E+00
CGA:   4    -0.319187038931E+03   -0.58597E+00   -0.58226E+00  8112   0.140E+01-0.264E-01
CGA:   5    -0.319377220459E+03   -0.19018E+00   -0.19006E+00  8112   0.446E+00-0.938E-02
CGA:   6    -0.319433580600E+03   -0.56360E-01   -0.56439E-01  8112   0.176E+00 0.216E-02
CGA:   7    -0.319455557833E+03   -0.21977E-01   -0.22004E-01  8112   0.689E-01 0.596E-03
CGA:   8    -0.319463143863E+03   -0.75860E-02   -0.76142E-02  8112   0.314E-01 0.217E-03
CGA:   9    -0.319467736137E+03   -0.45923E-02   -0.45925E-02  8112   0.962E-02-0.990E-05
CGA:  10    -0.319469348497E+03   -0.16124E-02   -0.16103E-02  8112   0.601E-02 0.514E-04
CGA:  11    -0.319470121145E+03   -0.77265E-03   -0.77294E-03  8112   0.281E-02 0.968E-05
CGA:  12    -0.319470490758E+03   -0.36961E-03   -0.36972E-03  8112   0.143E-02 0.722E-05
CGA:  13    -0.319470718136E+03   -0.22738E-03   -0.22719E-03  8112   0.602E-03 0.860E-05
CGA:  14    -0.319470816085E+03   -0.97949E-04   -0.97886E-04  8112   0.367E-03 0.259E-05
CGA:  15    -0.319470867452E+03   -0.51367E-04   -0.51367E-04  8112   0.194E-03-0.373E-06
CGA:  16    -0.319470891768E+03   -0.24316E-04   -0.24295E-04  8112   0.828E-04-0.141E-05
CGA:  17    -0.319470906048E+03   -0.14281E-04   -0.14314E-04  8112   0.362E-04-0.102E-05
CGA:  18    -0.319470911111E+03   -0.50625E-05   -0.50626E-05  8112   0.199E-04 0.201E-06
  21 F= -.31947091E+03 E0= -.31946702E+03  d E =-.440322E+00  mag=    44.0000
       N       E                     dE             d eps       ncg     rms          ort
SDA:   1    -0.318593714047E+03    0.87719E+00    0.00000E+00  8112   0.285E+01 0.000E+00
CGA:   2    -0.319143965547E+03   -0.55025E+00   -0.54999E+00  8112   0.169E+01 0.400E-02
CGA:   3    -0.319374522362E+03   -0.23056E+00   -0.23023E+00  8112   0.107E+01-0.176E-01
CGA:   4    -0.319487297298E+03   -0.11277E+00   -0.11330E+00  8112   0.273E+00 0.187E-02
CGA:   5    -0.319525078766E+03   -0.37781E-01   -0.37778E-01  8112   0.840E-01-0.351E-03
CGA:   6    -0.319536495569E+03   -0.11417E-01   -0.11417E-01  8112   0.323E-01 0.455E-04
CGA:   7    -0.319540673834E+03   -0.41783E-02   -0.41785E-02  8112   0.111E-01 0.113E-04
CGA:   8    -0.319542121841E+03   -0.14480E-02   -0.14483E-02  8112   0.624E-02 0.147E-04
CGA:   9    -0.319542863795E+03   -0.74195E-03   -0.74157E-03  8112   0.184E-02-0.358E-05
CGA:  10    -0.319543211581E+03   -0.34779E-03   -0.34768E-03  8112   0.934E-03 0.134E-05
CGA:  11    -0.319543343124E+03   -0.13154E-03   -0.13154E-03  8112   0.498E-03-0.327E-06
CGA:  12    -0.319543410728E+03   -0.67604E-04   -0.67615E-04  8112   0.262E-03 0.172E-05
CGA:  13    -0.319543447081E+03   -0.36354E-04   -0.36360E-04  8112   0.111E-03 0.191E-05
CGA:  14    -0.319543467489E+03   -0.20407E-04   -0.20392E-04  8112   0.621E-04 0.352E-06
CGA:  15    -0.319543476410E+03   -0.89210E-05   -0.89209E-05  8112   0.309E-04-0.421E-06
  22 F= -.31954348E+03 E0= -.31953956E+03  d E =-.725653E-01  mag=    44.0000
       N       E                     dE             d eps       ncg     rms          ort
SDA:   1    -0.319184954970E+03    0.35851E+00    0.00000E+00  8112   0.113E+01 0.000E+00
CGA:   2    -0.319381857626E+03   -0.19690E+00   -0.19674E+00  8112   0.830E+00 0.363E-02
CGA:   3    -0.319474943865E+03   -0.93086E-01   -0.92425E-01  8112   0.396E+00-0.380E-02
CGA:   4    -0.319530393182E+03   -0.55449E-01   -0.55453E-01  8112   0.999E-01 0.790E-03
CGA:   5    -0.319544835234E+03   -0.14442E-01   -0.14442E-01  8112   0.343E-01-0.492E-04
CGA:   6    -0.319549068055E+03   -0.42328E-02   -0.42331E-02  8112   0.135E-01 0.980E-06
CGA:   7    -0.319550732650E+03   -0.16646E-02   -0.16647E-02  8112   0.499E-02 0.408E-05
CGA:   8    -0.319551357616E+03   -0.62497E-03   -0.62522E-03  8112   0.223E-02 0.795E-05
CGA:   9    -0.319551678531E+03   -0.32092E-03   -0.32093E-03  8112   0.731E-03-0.166E-05
CGA:  10    -0.319551804342E+03   -0.12581E-03   -0.12580E-03  8112   0.433E-03-0.271E-07
CGA:  11    -0.319551857506E+03   -0.53163E-04   -0.53156E-04  8112   0.206E-03-0.320E-06
CGA:  12    -0.319551887676E+03   -0.30170E-04   -0.30167E-04  8112   0.941E-04 0.461E-06
CGA:  13    -0.319551903181E+03   -0.15505E-04   -0.15481E-04  8112   0.454E-04 0.103E-05
CGA:  14    -0.319551910432E+03   -0.72510E-05   -0.72459E-05  8112   0.286E-04 0.324E-06
  23 F= -.31955191E+03 E0= -.31954797E+03  d E =-.843402E-02  mag=    44.0000
       N       E                     dE             d eps       ncg     rms          ort
SDA:   1    -0.319517513300E+03    0.34390E-01    0.00000E+00  8112   0.921E-01 0.000E+00
CGA:   2    -0.319539038970E+03   -0.21526E-01   -0.21529E-01  8112   0.547E-01-0.268E-04
CGA:   3    -0.319546882991E+03   -0.78440E-02   -0.78448E-02  8112   0.241E-01 0.935E-04
CGA:   4    -0.319549751811E+03   -0.28688E-02   -0.28653E-02  8112   0.799E-02-0.432E-04
CGA:   5    -0.319550614600E+03   -0.86279E-03   -0.86287E-03  8112   0.275E-02-0.403E-05
CGA:   6    -0.319550954456E+03   -0.33986E-03   -0.33982E-03  8112   0.865E-03-0.102E-05
CGA:   7    -0.319551084239E+03   -0.12978E-03   -0.12979E-03  8112   0.296E-03-0.832E-06
CGA:   8    -0.319551129473E+03   -0.45234E-04   -0.45235E-04  8112   0.130E-03-0.854E-07
CGA:   9    -0.319551146408E+03   -0.16935E-04   -0.16936E-04  8112   0.712E-04 0.102E-06
CGA:  10    -0.319551155399E+03   -0.89912E-05   -0.89925E-05  8112   0.284E-04 0.895E-07
  24 F= -.31955116E+03 E0= -.31954721E+03  d E =0.755033E-03  mag=    44.0000
       N       E                     dE             d eps       ncg     rms          ort
SDA:   1    -0.319331726579E+03    0.21942E+00    0.00000E+00  8112   0.577E+00 0.000E+00
CGA:   2    -0.319464402631E+03   -0.13268E+00   -0.13260E+00  8112   0.465E+00 0.782E-03
CGA:   3    -0.319509479545E+03   -0.45077E-01   -0.44816E-01  8112   0.178E+00 0.155E-03
CGA:   4    -0.319534603987E+03   -0.25124E-01   -0.25126E-01  8112   0.443E-01 0.116E-03
CGA:   5    -0.319540846514E+03   -0.62425E-02   -0.62424E-02  8112   0.134E-01-0.162E-04
CGA:   6    -0.319542660375E+03   -0.18139E-02   -0.18140E-02  8112   0.571E-02 0.578E-05
CGA:   7    -0.319543284822E+03   -0.62445E-03   -0.62415E-03  8112   0.219E-02-0.229E-05
CGA:   8    -0.319543597480E+03   -0.31266E-03   -0.31266E-03  8112   0.735E-03-0.183E-05
CGA:   9    -0.319543717775E+03   -0.12030E-03   -0.12028E-03  8112   0.392E-03 0.537E-06
CGA:  10    -0.319543769881E+03   -0.52106E-04   -0.52109E-04  8112   0.191E-03 0.247E-06
CGA:  11    -0.319543798697E+03   -0.28816E-04   -0.28819E-04  8112   0.112E-03-0.332E-06
CGA:  12    -0.319543814499E+03   -0.15802E-04   -0.15801E-04  8112   0.507E-04-0.479E-06
CGA:  13    -0.319543823590E+03   -0.90911E-05   -0.90879E-05  8112   0.275E-04 0.940E-07
  25 F= -.31954382E+03 E0= -.31953987E+03  d E =0.733181E-02  mag=    44.0000
       N       E                     dE             d eps       ncg     rms          ort
SDA:   1    -0.319514692140E+03    0.29122E-01    0.00000E+00  8112   0.721E-01 0.000E+00
CGA:   2    -0.319530504557E+03   -0.15812E-01   -0.15806E-01  8112   0.564E-01 0.717E-04
CGA:   3    -0.319536301641E+03   -0.57971E-02   -0.57918E-02  8112   0.226E-01-0.737E-05
CGA:   4    -0.319539338436E+03   -0.30368E-02   -0.30370E-02  8112   0.661E-02 0.917E-06
CGA:   5    -0.319540127387E+03   -0.78895E-03   -0.78871E-03  8112   0.206E-02-0.308E-05
CGA:   6    -0.319540410318E+03   -0.28293E-03   -0.28296E-03  8112   0.639E-03 0.242E-05
CGA:   7    -0.319540503769E+03   -0.93452E-04   -0.93453E-04  8112   0.308E-03-0.427E-06
CGA:   8    -0.319540536921E+03   -0.33152E-04   -0.33147E-04  8112   0.118E-03-0.219E-06
CGA:   9    -0.319540555288E+03   -0.18366E-04   -0.18364E-04  8112   0.477E-04 0.169E-06
CGA:  10    -0.319540562984E+03   -0.76961E-05   -0.76954E-05  8112   0.250E-04 0.433E-07
  26 F= -.31954056E+03 E0= -.31953662E+03  d E =0.326061E-02  mag=    44.0000
       N       E                     dE             d eps       ncg     rms          ort
SDA:   1    -0.319439266392E+03    0.10129E+00    0.00000E+00  8112   0.251E+00 0.000E+00
CGA:   2    -0.319498622636E+03   -0.59356E-01   -0.59443E-01  8112   0.221E+00-0.819E-03
CGA:   3    -0.319518888408E+03   -0.20266E-01   -0.20472E-01  8112   0.738E-01-0.352E-03
CGA:   4    -0.319529526789E+03   -0.10638E-01   -0.10638E-01  8112   0.204E-01-0.454E-04
CGA:   5    -0.319531943041E+03   -0.24163E-02   -0.24168E-02  8112   0.659E-02 0.620E-05
CGA:   6    -0.319532846217E+03   -0.90318E-03   -0.90320E-03  8112   0.208E-02 0.357E-05
CGA:   7    -0.319533137462E+03   -0.29124E-03   -0.29124E-03  8112   0.102E-02-0.487E-06
CGA:   8    -0.319533246510E+03   -0.10905E-03   -0.10900E-03  8112   0.354E-03-0.446E-06
CGA:   9    -0.319533304617E+03   -0.58107E-04   -0.58102E-04  8112   0.148E-03 0.174E-06
CGA:  10    -0.319533328258E+03   -0.23641E-04   -0.23642E-04  8112   0.781E-04-0.360E-07
CGA:  11    -0.319533339957E+03   -0.11699E-04   -0.11699E-04  8112   0.503E-04-0.119E-06
CGA:  12    -0.319533346674E+03   -0.67172E-05   -0.67163E-05  8112   0.237E-04-0.952E-07
  27 F= -.31953335E+03 E0= -.31952941E+03  d E =0.721631E-02  mag=    44.0000
       N       E                     dE             d eps       ncg     rms          ort
SDA:   1    -0.319343264428E+03    0.19008E+00    0.00000E+00  8112   0.484E+00 0.000E+00
CGA:   2    -0.319455556005E+03   -0.11229E+00   -0.11227E+00  8112   0.404E+00 0.225E-03
CGA:   3    -0.319498317669E+03   -0.42762E-01   -0.42736E-01  8112   0.133E+00 0.718E-04
CGA:   4    -0.319515695271E+03   -0.17378E-01   -0.17379E-01  8112   0.513E-01 0.269E-04
CGA:   5    -0.319520859006E+03   -0.51637E-02   -0.51429E-02  8112   0.124E-01-0.123E-04
CGA:   6    -0.319522771171E+03   -0.19122E-02   -0.19117E-02  8112   0.378E-02 0.279E-04
CGA:   7    -0.319523359933E+03   -0.58876E-03   -0.58882E-03  8112   0.162E-02-0.279E-05
CGA:   8    -0.319523542705E+03   -0.18277E-03   -0.18279E-03  8112   0.753E-03-0.682E-06
CGA:   9    -0.319523643141E+03   -0.10044E-03   -0.10043E-03  8112   0.269E-03-0.217E-06
CGA:  10    -0.319523689741E+03   -0.46600E-04   -0.46588E-04  8112   0.139E-03 0.406E-06
CGA:  11    -0.319523710765E+03   -0.21024E-04   -0.21024E-04  8112   0.783E-04 0.875E-07
CGA:  12    -0.319523722904E+03   -0.12139E-04   -0.12142E-04  8112   0.498E-04-0.232E-06
CGA:  13    -0.319523729371E+03   -0.64662E-05   -0.64663E-05  8112   0.227E-04 0.929E-08
  28 F= -.31952373E+03 E0= -.31951979E+03  d E =0.961730E-02  mag=    44.0000
       N       E                     dE             d eps       ncg     rms          ort
SDA:   1    -0.314538144297E+03    0.49856E+01    0.00000E+00  8112   0.121E+02 0.000E+00
CGA:   2    -0.318181009640E+03   -0.36429E+01   -0.36385E+01  8112   0.655E+01 0.291E-01
CGA:   3    -0.319006483532E+03   -0.82547E+00   -0.81718E+00  8112   0.309E+01-0.545E-01
CGA:   4    -0.319325224180E+03   -0.31874E+00   -0.31756E+00  8112   0.792E+00 0.671E-03
CGA:   5    -0.319422077283E+03   -0.96853E-01   -0.96708E-01  8112   0.265E+00-0.117E-02
CGA:   6    -0.319456623818E+03   -0.34547E-01   -0.34589E-01  8112   0.884E-01 0.932E-03
CGA:   7    -0.319469641667E+03   -0.13018E-01   -0.13017E-01  8112   0.319E-01-0.417E-03
CGA:   8    -0.319473566556E+03   -0.39249E-02   -0.39299E-02  8112   0.170E-01 0.602E-04
CGA:   9    -0.319475665741E+03   -0.20992E-02   -0.20998E-02  8112   0.585E-02 0.875E-05
CGA:  10    -0.319476694459E+03   -0.10287E-02   -0.10285E-02  8112   0.309E-02 0.787E-05
CGA:  11    -0.319477164593E+03   -0.47013E-03   -0.47009E-03  8112   0.188E-02 0.703E-05
CGA:  12    -0.319477435873E+03   -0.27128E-03   -0.27130E-03  8112   0.106E-02 0.512E-05
CGA:  13    -0.319477583721E+03   -0.14785E-03   -0.14786E-03  8112   0.516E-03 0.163E-05
CGA:  14    -0.319477666098E+03   -0.82377E-04   -0.82339E-04  8112   0.208E-03 0.270E-05
CGA:  15    -0.319477698418E+03   -0.32320E-04   -0.32305E-04  8112   0.114E-03 0.202E-05
CGA:  16    -0.319477711251E+03   -0.12833E-04   -0.12871E-04  8112   0.423E-04 0.103E-05
CGA:  17    -0.319477717868E+03   -0.66166E-05   -0.66116E-05  8112   0.181E-04 0.525E-06
  29 F= -.31947772E+03 E0= -.31947381E+03  d E =0.460115E-01  mag=    44.0000
       N       E                     dE             d eps       ncg     rms          ort
SDA:   1    -0.317822528606E+03    0.16552E+01    0.00000E+00  8112   0.434E+01 0.000E+00
CGA:   2    -0.318872697760E+03   -0.10502E+01   -0.10506E+01  8112   0.344E+01-0.195E-02
CGA:   3    -0.319231387508E+03   -0.35869E+00   -0.36141E+00  8112   0.153E+01 0.966E-02
CGA:   4    -0.319409208519E+03   -0.17782E+00   -0.17734E+00  8112   0.349E+00-0.253E-02
CGA:   5    -0.319456551874E+03   -0.47343E-01   -0.47347E-01  8112   0.123E+00 0.173E-03
CGA:   6    -0.319472203002E+03   -0.15651E-01   -0.15649E-01  8112   0.410E-01-0.150E-04
CGA:   7    -0.319477810502E+03   -0.56075E-02   -0.56081E-02  8112   0.189E-01 0.305E-04
CGA:   8    -0.319479834687E+03   -0.20242E-02   -0.20228E-02  8112   0.742E-02-0.581E-05
CGA:   9    -0.319480971980E+03   -0.11373E-02   -0.11370E-02  8112   0.238E-02 0.159E-04
CGA:  10    -0.319481361645E+03   -0.38966E-03   -0.38965E-03  8112   0.152E-02 0.224E-05
CGA:  11    -0.319481558424E+03   -0.19678E-03   -0.19687E-03  8112   0.704E-03 0.369E-05
CGA:  12    -0.319481658383E+03   -0.99959E-04   -0.99961E-04  8112   0.411E-03 0.646E-06
CGA:  13    -0.319481721682E+03   -0.63299E-04   -0.63295E-04  8112   0.176E-03 0.164E-06
CGA:  14    -0.319481751586E+03   -0.29904E-04   -0.29880E-04  8112   0.100E-03 0.905E-06
CGA:  15    -0.319481764281E+03   -0.12695E-04   -0.12710E-04  8112   0.511E-04 0.749E-06
CGA:  16    -0.319481770949E+03   -0.66687E-05   -0.66759E-05  8112   0.180E-04 0.482E-06
  30 F= -.31948177E+03 E0= -.31947782E+03  d E =-.405308E-02  mag=    44.0000
       N       E                     dE             d eps       ncg     rms          ort
SDA:   1    -0.318669647148E+03    0.81212E+00    0.00000E+00  8112   0.218E+01 0.000E+00
CGA:   2    -0.319255748725E+03   -0.58610E+00   -0.58593E+00  8112   0.121E+01 0.138E-02
CGA:   3    -0.319413185947E+03   -0.15744E+00   -0.15703E+00  8112   0.629E+00-0.621E-02
CGA:   4    -0.319478327572E+03   -0.65142E-01   -0.65561E-01  8112   0.170E+00 0.707E-03
CGA:   5    -0.319497462413E+03   -0.19135E-01   -0.19110E-01  8112   0.575E-01-0.107E-03
CGA:   6    -0.319504891116E+03   -0.74287E-02   -0.74288E-02  8112   0.172E-01-0.909E-06
CGA:   7    -0.319507682999E+03   -0.27919E-02   -0.27916E-02  8112   0.597E-02 0.917E-05
CGA:   8    -0.319508432722E+03   -0.74972E-03   -0.74986E-03  8112   0.355E-02 0.267E-05
CGA:   9    -0.319508858665E+03   -0.42594E-03   -0.42587E-03  8112   0.119E-02 0.133E-06
CGA:  10    -0.319509066546E+03   -0.20788E-03   -0.20776E-03  8112   0.646E-03 0.319E-05
CGA:  11    -0.319509165728E+03   -0.99182E-04   -0.99178E-04  8112   0.354E-03 0.820E-06
CGA:  12    -0.319509220635E+03   -0.54907E-04   -0.54896E-04  8112   0.227E-03 0.109E-05
CGA:  13    -0.319509249453E+03   -0.28819E-04   -0.28832E-04  8112   0.108E-03 0.641E-06
CGA:  14    -0.319509267030E+03   -0.17576E-04   -0.17574E-04  8112   0.446E-04 0.120E-06
CGA:  15    -0.319509274560E+03   -0.75306E-05   -0.75296E-05  8112   0.235E-04 0.434E-07
  31 F= -.31950927E+03 E0= -.31950528E+03  d E =-.275036E-01  mag=    44.0000
       N       E                     dE             d eps       ncg     rms          ort
SDA:   1    -0.319267430826E+03    0.24184E+00    0.00000E+00  8112   0.656E+00 0.000E+00
CGA:   2    -0.319438019268E+03   -0.17059E+00   -0.17056E+00  8112   0.398E+00 0.247E-03
CGA:   3    -0.319489086575E+03   -0.51067E-01   -0.51029E-01  8112   0.185E+00-0.366E-03
CGA:   4    -0.319509182585E+03   -0.20096E-01   -0.20088E-01  8112   0.536E-01-0.224E-04
CGA:   5    -0.319514976708E+03   -0.57941E-02   -0.57821E-02  8112   0.176E-01-0.347E-04
CGA:   6    -0.319517364057E+03   -0.23873E-02   -0.23878E-02  8112   0.532E-02 0.203E-04
CGA:   7    -0.319518181558E+03   -0.81750E-03   -0.81757E-03  8112   0.203E-02-0.541E-05
CGA:   8    -0.319518440690E+03   -0.25913E-03   -0.25918E-03  8112   0.104E-02 0.620E-06
CGA:   9    -0.319518563278E+03   -0.12259E-03   -0.12260E-03  8112   0.421E-03 0.661E-06
CGA:  10    -0.319518630099E+03   -0.66821E-04   -0.66805E-04  8112   0.188E-03 0.107E-05
CGA:  11    -0.319518662344E+03   -0.32245E-04   -0.32231E-04  8112   0.113E-03 0.521E-06
CGA:  12    -0.319518678548E+03   -0.16204E-04   -0.16204E-04  8112   0.661E-04 0.567E-07
CGA:  13    -0.319518687563E+03   -0.90155E-05   -0.90158E-05  8112   0.363E-04 0.420E-07
  32 F= -.31951869E+03 E0= -.31951471E+03  d E =-.941300E-02  mag=    44.0000
       N       E                     dE             d eps       ncg     rms          ort
SDA:   1    -0.317717359885E+03    0.18013E+01    0.00000E+00  8112   0.448E+01 0.000E+00
CGA:   2    -0.319007500215E+03   -0.12901E+01   -0.12905E+01  8112   0.270E+01-0.187E-02
CGA:   3    -0.319363884616E+03   -0.35638E+00   -0.35582E+00  8112   0.934E+00-0.215E-02
CGA:   4    -0.319483188001E+03   -0.11930E+00   -0.11935E+00  8112   0.221E+00 0.936E-03
CGA:   5    -0.319513417082E+03   -0.30229E-01   -0.30228E-01  8112   0.946E-01 0.713E-05
CGA:   6    -0.319522886513E+03   -0.94694E-02   -0.94896E-02  8112   0.371E-01 0.117E-04
CGA:   7    -0.319527818926E+03   -0.49324E-02   -0.49297E-02  8112   0.108E-01-0.775E-04
CGA:   8    -0.319529515369E+03   -0.16964E-02   -0.16960E-02  8112   0.441E-02 0.214E-04
CGA:   9    -0.319530160293E+03   -0.64492E-03   -0.64492E-03  8112   0.205E-02-0.197E-05
CGA:  10    -0.319530441226E+03   -0.28093E-03   -0.28099E-03  8112   0.124E-02 0.411E-05
CGA:  11    -0.319530600374E+03   -0.15915E-03   -0.15918E-03  8112   0.600E-03 0.201E-05
CGA:  12    -0.319530704157E+03   -0.10378E-03   -0.10375E-03  8112   0.286E-03 0.109E-05
CGA:  13    -0.319530755378E+03   -0.51221E-04   -0.51189E-04  8112   0.156E-03 0.963E-06
CGA:  14    -0.319530775647E+03   -0.20269E-04   -0.20281E-04  8112   0.882E-04 0.606E-06
CGA:  15    -0.319530786761E+03   -0.11114E-04   -0.11128E-04  8112   0.341E-04 0.623E-06
CGA:  16    -0.319530791627E+03   -0.48660E-05   -0.48679E-05  8112   0.126E-04 0.408E-06
  33 F= -.31953079E+03 E0= -.31952682E+03  d E =-.121041E-01  mag=    44.0000
       N       E                     dE             d eps       ncg     rms          ort
SDA:   1    -0.287856706963E+03    0.31674E+02    0.00000E+00  8112   0.279E+03 0.000E+00
CGA:   2    -0.301474263770E+03   -0.13618E+02   -0.23232E+02  8112   0.589E+02 0.999E+01
CGA:   3    -0.310095357696E+03   -0.86211E+01   -0.72016E+01  8112   0.467E+02-0.129E+02
CGA:   4    -0.315245307062E+03   -0.51499E+01   -0.54390E+01  8112   0.478E+02-0.242E+02
CGA:   5    -0.316688662998E+03   -0.14434E+01   -0.31343E+01  8112   0.227E+02-0.743E+01
CGA:   6    -0.317532247276E+03   -0.84358E+00   -0.82914E+00  8112   0.612E+01 0.127E+01
CGA:   7    -0.318073347754E+03   -0.54110E+00   -0.41872E+00  8112   0.334E+01 0.947E+00
CGA:   8    -0.318239392531E+03   -0.16604E+00   -0.18890E+00  8112   0.280E+01-0.214E+00
CGA:   9    -0.318576316226E+03   -0.33692E+00   -0.33659E+00  8112   0.185E+01 0.987E-01
CGA:  10    -0.318698214063E+03   -0.12190E+00   -0.13572E+00  8112   0.749E+00-0.366E-01
CGA:  11    -0.318765658140E+03   -0.67444E-01   -0.67022E-01  8112   0.303E+00 0.222E-02
CGA:  12    -0.318811620486E+03   -0.45962E-01   -0.45647E-01  8112   0.150E+00 0.759E-02
CGA:  13    -0.318821901363E+03   -0.10281E-01   -0.10392E-01  8112   0.393E-01-0.620E-03
CGA:  14    -0.318829408044E+03   -0.75067E-02   -0.74874E-02  8112   0.219E-01 0.217E-03
CGA:  15    -0.318832981495E+03   -0.35735E-02   -0.35622E-02  8112   0.142E-01 0.214E-03
CGA:  16    -0.318835008036E+03   -0.20265E-02   -0.20250E-02  8112   0.965E-02 0.682E-04
CGA:  17    -0.318835976269E+03   -0.96823E-03   -0.97251E-03  8112   0.353E-02 0.433E-04
CGA:  18    -0.318836628133E+03   -0.65186E-03   -0.65158E-03  8112   0.172E-02 0.364E-05
CGA:  19    -0.318836874909E+03   -0.24678E-03   -0.24677E-03  8112   0.754E-03 0.331E-07
CGA:  20    -0.318836990412E+03   -0.11550E-03   -0.11526E-03  8112   0.442E-03 0.859E-05
CGA:  21    -0.318837048243E+03   -0.57831E-04   -0.57837E-04  8112   0.303E-03 0.568E-05
CGA:  22    -0.318837089921E+03   -0.41678E-04   -0.41655E-04  8112   0.117E-03 0.417E-05
CGA:  23    -0.318837111546E+03   -0.21625E-04   -0.21593E-04  8112   0.595E-04 0.583E-06
CGA:  24    -0.318837123223E+03   -0.11678E-04   -0.11692E-04  8112   0.368E-04-0.238E-06
CGA:  25    -0.318837129890E+03   -0.66661E-05   -0.66501E-05  8112   0.167E-04 0.349E-06
  34 F= -.31883713E+03 E0= -.31883302E+03  d E =0.693662E+00  mag=    44.0000
       N       E                     dE             d eps       ncg     rms          ort
SDA:   1    -0.305645083143E+03    0.13192E+02    0.00000E+00  8112   0.576E+02 0.000E+00
CGA:   2    -0.312822827451E+03   -0.71777E+01   -0.73310E+01  8112   0.229E+02 0.454E+01
CGA:   3    -0.316646923805E+03   -0.38241E+01   -0.39005E+01  8112   0.191E+02-0.252E+01
CGA:   4    -0.318523117891E+03   -0.18762E+01   -0.16136E+01  8112   0.498E+01-0.506E+00
CGA:   5    -0.319122303863E+03   -0.59919E+00   -0.59296E+00  8112   0.265E+01-0.121E+00
CGA:   6    -0.319354980330E+03   -0.23268E+00   -0.23862E+00  8112   0.890E+00 0.755E-02
CGA:   7    -0.319442406136E+03   -0.87426E-01   -0.88640E-01  8112   0.604E+00 0.412E-02
CGA:   8    -0.319489979753E+03   -0.47574E-01   -0.48142E-01  8112   0.224E+00-0.427E-02
CGA:   9    -0.319515087311E+03   -0.25108E-01   -0.25331E-01  8112   0.890E-01 0.437E-02
CGA:  10    -0.319529359573E+03   -0.14272E-01   -0.14215E-01  8112   0.378E-01 0.153E-02
CGA:  11    -0.319534150769E+03   -0.47912E-02   -0.47975E-02  8112   0.235E-01 0.376E-03
CGA:  12    -0.319537504334E+03   -0.33536E-02   -0.33471E-02  8112   0.107E-01 0.431E-03
CGA:  13    -0.319538777228E+03   -0.12729E-02   -0.12812E-02  8112   0.524E-02 0.223E-03
CGA:  14    -0.319539638907E+03   -0.86168E-03   -0.85843E-03  8112   0.244E-02 0.782E-04
CGA:  15    -0.319540005503E+03   -0.36660E-03   -0.36611E-03  8112   0.150E-02 0.209E-04
CGA:  16    -0.319540184216E+03   -0.17871E-03   -0.17895E-03  8112   0.690E-03 0.614E-05
CGA:  17    -0.319540301040E+03   -0.11682E-03   -0.11681E-03  8112   0.286E-03 0.122E-06
CGA:  18    -0.319540342541E+03   -0.41500E-04   -0.41500E-04  8112   0.168E-03-0.225E-06
CGA:  19    -0.319540364614E+03   -0.22073E-04   -0.22074E-04  8112   0.816E-04 0.712E-07
CGA:  20    -0.319540376157E+03   -0.11543E-04   -0.11538E-04  8112   0.387E-04 0.761E-06
CGA:  21    -0.319540382850E+03   -0.66927E-05   -0.66597E-05  8112   0.217E-04 0.925E-06
  35 F= -.31954038E+03 E0= -.31953629E+03  d E =-.703253E+00  mag=    44.0000
       N       E                     dE             d eps       ncg     rms          ort
SDA:   1    -0.318704390674E+03    0.83599E+00    0.00000E+00  8112   0.257E+01 0.000E+00
CGA:   2    -0.319236947992E+03   -0.53256E+00   -0.53244E+00  8112   0.134E+01 0.165E-02
CGA:   3    -0.319463217335E+03   -0.22627E+00   -0.22657E+00  8112   0.793E+00-0.720E-02
CGA:   4    -0.319536451788E+03   -0.73234E-01   -0.73800E-01  8112   0.251E+00-0.157E-03
CGA:   5    -0.319568370619E+03   -0.31919E-01   -0.31904E-01  8112   0.649E-01-0.439E-03
CGA:   6    -0.319578293214E+03   -0.99226E-02   -0.99196E-02  8112   0.251E-01 0.134E-03
CGA:   7    -0.319581241930E+03   -0.29487E-02   -0.29464E-02  8112   0.103E-01-0.294E-04
CGA:   8    -0.319582585548E+03   -0.13436E-02   -0.13439E-02  8112   0.487E-02 0.143E-04
CGA:   9    -0.319583174345E+03   -0.58880E-03   -0.58881E-03  8112   0.166E-02 0.298E-05
CGA:  10    -0.319583486762E+03   -0.31242E-03   -0.31220E-03  8112   0.803E-03 0.414E-05
CGA:  11    -0.319583587825E+03   -0.10106E-03   -0.10108E-03  8112   0.500E-03 0.912E-06
CGA:  12    -0.319583658916E+03   -0.71091E-04   -0.71090E-04  8112   0.195E-03 0.411E-06
CGA:  13    -0.319583690096E+03   -0.31179E-04   -0.31178E-04  8112   0.111E-03 0.110E-06
CGA:  14    -0.319583707099E+03   -0.17003E-04   -0.16997E-04  8112   0.598E-04 0.467E-06
CGA:  15    -0.319583714509E+03   -0.74096E-05   -0.74159E-05  8112   0.287E-04 0.360E-06
  36 F= -.31958371E+03 E0= -.31957967E+03  d E =-.433317E-01  mag=    44.0000
       N       E                     dE             d eps       ncg     rms          ort
SDA:   1    -0.319169668230E+03    0.41404E+00    0.00000E+00  8112   0.115E+01 0.000E+00
CGA:   2    -0.319444374431E+03   -0.27471E+00   -0.27463E+00  8112   0.774E+00 0.625E-03
CGA:   3    -0.319536206292E+03   -0.91832E-01   -0.91616E-01  8112   0.403E+00-0.182E-02
CGA:   4    -0.319579611133E+03   -0.43405E-01   -0.43438E-01  8112   0.103E+00 0.120E-03
CGA:   5    -0.319593123046E+03   -0.13512E-01   -0.13505E-01  8112   0.330E-01-0.238E-03
CGA:   6    -0.319597319976E+03   -0.41969E-02   -0.41994E-02  8112   0.116E-01 0.702E-04
CGA:   7    -0.319598863262E+03   -0.15433E-02   -0.15430E-02  8112   0.498E-02-0.148E-04
CGA:   8    -0.319599418422E+03   -0.55516E-03   -0.55543E-03  8112   0.215E-02 0.144E-05
CGA:   9    -0.319599733174E+03   -0.31475E-03   -0.31473E-03  8112   0.759E-03 0.246E-05
CGA:  10    -0.319599858366E+03   -0.12519E-03   -0.12513E-03  8112   0.431E-03 0.243E-05
CGA:  11    -0.319599914592E+03   -0.56226E-04   -0.56232E-04  8112   0.234E-03 0.587E-06
CGA:  12    -0.319599946459E+03   -0.31867E-04   -0.31866E-04  8112   0.106E-03-0.370E-06
CGA:  13    -0.319599963648E+03   -0.17189E-04   -0.17195E-04  8112   0.545E-04-0.243E-06
CGA:  14    -0.319599971525E+03   -0.78763E-05   -0.78746E-05  8112   0.274E-04 0.524E-06
  37 F= -.31959997E+03 E0= -.31959599E+03  d E =-.162570E-01  mag=    44.0000
       N       E                     dE             d eps       ncg     rms          ort
SDA:   1    -0.319446431872E+03    0.15353E+00    0.00000E+00  8112   0.426E+00 0.000E+00
CGA:   2    -0.319546583281E+03   -0.10015E+00   -0.10017E+00  8112   0.295E+00-0.200E-03
CGA:   3    -0.319580528729E+03   -0.33945E-01   -0.34048E-01  8112   0.150E+00 0.816E-03
CGA:   4    -0.319596945557E+03   -0.16417E-01   -0.16362E-01  8112   0.379E-01-0.260E-03
CGA:   5    -0.319601910453E+03   -0.49649E-02   -0.49653E-02  8112   0.126E-01 0.105E-04
CGA:   6    -0.319603582356E+03   -0.16719E-02   -0.16719E-02  8112   0.407E-02-0.617E-06
CGA:   7    -0.319604131311E+03   -0.54896E-03   -0.54896E-03  8112   0.191E-02 0.111E-06
CGA:   8    -0.319604339433E+03   -0.20812E-03   -0.20808E-03  8112   0.777E-03 0.640E-07
CGA:   9    -0.319604453349E+03   -0.11392E-03   -0.11391E-03  8112   0.266E-03 0.127E-05
CGA:  10    -0.319604498895E+03   -0.45546E-04   -0.45533E-04  8112   0.161E-03 0.441E-06
CGA:  11    -0.319604519828E+03   -0.20933E-04   -0.20934E-04  8112   0.824E-04-0.306E-07
CGA:  12    -0.319604531167E+03   -0.11339E-04   -0.11338E-04  8112   0.437E-04-0.198E-06
CGA:  13    -0.319604537851E+03   -0.66845E-05   -0.66852E-05  8112   0.198E-04-0.597E-07
  38 F= -.31960454E+03 E0= -.31960058E+03  d E =-.456633E-02  mag=    44.0000
       N       E                     dE             d eps       ncg     rms          ort
SDA:   1    -0.318925276330E+03    0.67925E+00    0.00000E+00  8112   0.170E+01 0.000E+00
CGA:   2    -0.319397518096E+03   -0.47224E+00   -0.47253E+00  8112   0.905E+00-0.250E-02
CGA:   3    -0.319526813577E+03   -0.12930E+00   -0.12939E+00  8112   0.358E+00 0.856E-02
CGA:   4    -0.319572959135E+03   -0.46146E-01   -0.46146E-01  8112   0.936E-01-0.116E-04
CGA:   5    -0.319584033686E+03   -0.11075E-01   -0.11071E-01  8112   0.443E-01-0.242E-04
CGA:   6    -0.319588623040E+03   -0.45894E-02   -0.45999E-02  8112   0.141E-01 0.293E-04
CGA:   7    -0.319590593128E+03   -0.19701E-02   -0.19700E-02  8112   0.446E-02-0.119E-04
CGA:   8    -0.319591331716E+03   -0.73859E-03   -0.73845E-03  8112   0.179E-02 0.387E-05
CGA:   9    -0.319591595920E+03   -0.26420E-03   -0.26421E-03  8112   0.105E-02-0.419E-06
CGA:  10    -0.319591727801E+03   -0.13188E-03   -0.13191E-03  8112   0.540E-03 0.819E-06
CGA:  11    -0.319591801128E+03   -0.73327E-04   -0.73324E-04  8112   0.277E-03-0.270E-06
CGA:  12    -0.319591850337E+03   -0.49209E-04   -0.49228E-04  8112   0.120E-03-0.595E-06
CGA:  13    -0.319591870797E+03   -0.20460E-04   -0.20442E-04  8112   0.714E-04 0.701E-06
CGA:  14    -0.319591879748E+03   -0.89514E-05   -0.89700E-05  8112   0.382E-04 0.849E-06
  39 F= -.31959188E+03 E0= -.31958794E+03  d E =0.126581E-01  mag=    44.0000
       N       E                     dE             d eps       ncg     rms          ort
SDA:   1    -0.319547669288E+03    0.44202E-01    0.00000E+00  8112   0.105E+00 0.000E+00
CGA:   2    -0.319573182964E+03   -0.25514E-01   -0.25519E-01  8112   0.512E-01-0.452E-04
CGA:   3    -0.319581175474E+03   -0.79925E-02   -0.79917E-02  8112   0.224E-01 0.606E-04
CGA:   4    -0.319584122897E+03   -0.29474E-02   -0.29469E-02  8112   0.527E-02-0.968E-05
CGA:   5    -0.319584884358E+03   -0.76146E-03   -0.76146E-03  8112   0.173E-02 0.848E-06
CGA:   6    -0.319585104179E+03   -0.21982E-03   -0.21986E-03  8112   0.855E-03 0.160E-05
CGA:   7    -0.319585190742E+03   -0.86563E-04   -0.86553E-04  8112   0.303E-03 0.601E-06
CGA:   8    -0.319585236671E+03   -0.45929E-04   -0.45929E-04  8112   0.114E-03-0.138E-06
CGA:   9    -0.319585256366E+03   -0.19696E-04   -0.19701E-04  8112   0.580E-04-0.198E-06
CGA:  10    -0.319585265477E+03   -0.91103E-05   -0.91114E-05  8112   0.329E-04-0.115E-06
  40 F= -.31958527E+03 E0= -.31958131E+03  d E =0.661427E-02  mag=    44.0000
       N       E                     dE             d eps       ncg     rms          ort
SDA:   1    -0.319227585666E+03    0.35767E+00    0.00000E+00  8112   0.904E+00 0.000E+00
CGA:   2    -0.319466803950E+03   -0.23922E+00   -0.23923E+00  8112   0.424E+00-0.121E-03
CGA:   3    -0.319525757039E+03   -0.58953E-01   -0.58958E-01  8112   0.255E+00 0.104E-03
CGA:   4    -0.319551535589E+03   -0.25779E-01   -0.25663E-01  8112   0.667E-01-0.864E-05
CGA:   5    -0.319558850354E+03   -0.73148E-02   -0.73266E-02  8112   0.214E-01 0.489E-04
CGA:   6    -0.319561838992E+03   -0.29886E-02   -0.29885E-02  8112   0.674E-02-0.498E-05
CGA:   7    -0.319562828770E+03   -0.98978E-03   -0.98978E-03  8112   0.258E-02 0.767E-05
CGA:   8    -0.319563140457E+03   -0.31169E-03   -0.31154E-03  8112   0.151E-02-0.196E-05
CGA:   9    -0.319563329591E+03   -0.18913E-03   -0.18914E-03  8112   0.563E-03-0.551E-06
CGA:  10    -0.319563426688E+03   -0.97097E-04   -0.97095E-04  8112   0.302E-03 0.974E-07
CGA:  11    -0.319563475811E+03   -0.49122E-04   -0.49121E-04  8112   0.195E-03 0.992E-07
CGA:  12    -0.319563502627E+03   -0.26817E-04   -0.26820E-04  8112   0.119E-03 0.356E-06
CGA:  13    -0.319563518400E+03   -0.15772E-04   -0.15779E-04  8112   0.538E-04 0.443E-06
CGA:  14    -0.319563527031E+03   -0.86314E-05   -0.86276E-05  8112   0.237E-04 0.289E-06
  41 F= -.31956353E+03 E0= -.31955955E+03  d E =0.217384E-01  mag=    44.0000
       N       E                     dE             d eps       ncg     rms          ort
SDA:   1    -0.319346277297E+03    0.21724E+00    0.00000E+00  8112   0.548E+00 0.000E+00
CGA:   2    -0.319475164584E+03   -0.12889E+00   -0.12864E+00  8112   0.437E+00 0.246E-02
CGA:   3    -0.319513809568E+03   -0.38645E-01   -0.37994E-01  8112   0.162E+00 0.213E-02
CGA:   4    -0.319539471392E+03   -0.25662E-01   -0.25661E-01  8112   0.329E-01 0.263E-04
CGA:   5    -0.319544577098E+03   -0.51057E-02   -0.51057E-02  8112   0.111E-01 0.390E-05
CGA:   6    -0.319545797618E+03   -0.12205E-02   -0.12213E-02  8112   0.578E-02 0.505E-05
CGA:   7    -0.319546474752E+03   -0.67713E-03   -0.67690E-03  8112   0.149E-02-0.806E-06
CGA:   8    -0.319546720566E+03   -0.24581E-03   -0.24581E-03  8112   0.773E-03-0.183E-06
CGA:   9    -0.319546818811E+03   -0.98245E-04   -0.98232E-04  8112   0.373E-03-0.388E-06
CGA:  10    -0.319546870228E+03   -0.51417E-04   -0.51418E-04  8112   0.218E-03-0.161E-07
CGA:  11    -0.319546901203E+03   -0.30975E-04   -0.30974E-04  8112   0.104E-03-0.273E-07
CGA:  12    -0.319546919376E+03   -0.18173E-04   -0.18178E-04  8112   0.659E-04-0.172E-06
CGA:  13    -0.319546928405E+03   -0.90293E-05   -0.90317E-05  8112   0.361E-04 0.273E-06
  42 F= -.31954693E+03 E0= -.31954294E+03  d E =0.165986E-01  mag=    44.0000
       N       E                     dE             d eps       ncg     rms          ort
SDA:   1    -0.319254568138E+03    0.29235E+00    0.00000E+00  8112   0.722E+00 0.000E+00
CGA:   2    -0.319445904211E+03   -0.19134E+00   -0.19114E+00  8112   0.443E+00 0.153E-02
CGA:   3    -0.319495286294E+03   -0.49382E-01   -0.48955E-01  8112   0.246E+00-0.157E-02
CGA:   4    -0.319521654891E+03   -0.26369E-01   -0.26396E-01  8112   0.513E-01 0.632E-04
CGA:   5    -0.319528885441E+03   -0.72305E-02   -0.72307E-02  8112   0.156E-01 0.158E-04
CGA:   6    -0.319530983345E+03   -0.20979E-02   -0.20981E-02  8112   0.666E-02 0.740E-05
CGA:   7    -0.319531754172E+03   -0.77083E-03   -0.77060E-03  8112   0.277E-02-0.302E-06
CGA:   8    -0.319532074923E+03   -0.32075E-03   -0.32091E-03  8112   0.111E-02 0.205E-05
CGA:   9    -0.319532242934E+03   -0.16801E-03   -0.16802E-03  8112   0.421E-03-0.581E-06
CGA:  10    -0.319532313218E+03   -0.70285E-04   -0.70296E-04  8112   0.271E-03-0.507E-06
CGA:  11    -0.319532345861E+03   -0.32643E-04   -0.32643E-04  8112   0.148E-03 0.602E-07
CGA:  12    -0.319532368295E+03   -0.22433E-04   -0.22431E-04  8112   0.728E-04 0.307E-06
CGA:  13    -0.319532381238E+03   -0.12943E-04   -0.12933E-04  8112   0.387E-04 0.298E-06
CGA:  14    -0.319532386297E+03   -0.50586E-05   -0.50607E-05  8112   0.223E-04 0.131E-06
  43 F= -.31953239E+03 E0= -.31952841E+03  d E =0.145421E-01  mag=    44.0000
       N       E                     dE             d eps       ncg     rms          ort
SDA:   1    -0.319364430542E+03    0.16795E+00    0.00000E+00  8112   0.421E+00 0.000E+00
CGA:   2    -0.319475069159E+03   -0.11064E+00   -0.11063E+00  8112   0.250E+00 0.590E-04
CGA:   3    -0.319512280203E+03   -0.37211E-01   -0.37211E-01  8112   0.111E+00 0.154E-03
CGA:   4    -0.319522427770E+03   -0.10148E-01   -0.10082E-01  8112   0.349E-01 0.157E-03
CGA:   5    -0.319526645694E+03   -0.42179E-02   -0.42198E-02  8112   0.101E-01 0.252E-04
CGA:   6    -0.319528036342E+03   -0.13906E-02   -0.13906E-02  8112   0.379E-02 0.172E-05
CGA:   7    -0.319528534011E+03   -0.49767E-03   -0.49767E-03  8112   0.142E-02-0.455E-06
CGA:   8    -0.319528713208E+03   -0.17920E-03   -0.17918E-03  8112   0.788E-03-0.529E-06
CGA:   9    -0.319528801457E+03   -0.88249E-04   -0.88274E-04  8112   0.240E-03 0.268E-06
CGA:  10    -0.319528845293E+03   -0.43836E-04   -0.43823E-04  8112   0.122E-03 0.365E-06
CGA:  11    -0.319528862453E+03   -0.17160E-04   -0.17161E-04  8112   0.728E-04 0.312E-06
CGA:  12    -0.319528871841E+03   -0.93884E-05   -0.93893E-05  8112   0.398E-04 0.614E-07
  44 F= -.31952887E+03 E0= -.31952487E+03  d E =0.351446E-02  mag=    44.0000
       N       E                     dE             d eps       ncg     rms          ort
SDA:   1    -0.319461426495E+03    0.67436E-01    0.00000E+00  8112   0.190E+00 0.000E+00
CGA:   2    -0.319507582582E+03   -0.46156E-01   -0.46163E-01  8112   0.124E+00-0.599E-04
CGA:   3    -0.319523185603E+03   -0.15603E-01   -0.15620E-01  8112   0.652E-01 0.255E-03
CGA:   4    -0.319529669299E+03   -0.64837E-02   -0.64616E-02  8112   0.171E-01 0.699E-05
CGA:   5    -0.319531735672E+03   -0.20664E-02   -0.20670E-02  8112   0.575E-02 0.115E-04
CGA:   6    -0.319532494622E+03   -0.75895E-03   -0.75897E-03  8112   0.175E-02 0.161E-05
CGA:   7    -0.319532757677E+03   -0.26306E-03   -0.26306E-03  8112   0.780E-03-0.731E-06
CGA:   8    -0.319532838582E+03   -0.80905E-04   -0.80887E-04  8112   0.364E-03-0.146E-07
CGA:   9    -0.319532888829E+03   -0.50247E-04   -0.50248E-04  8112   0.114E-03 0.283E-06
CGA:  10    -0.319532908467E+03   -0.19638E-04   -0.19635E-04  8112   0.684E-04 0.115E-06
CGA:  11    -0.319532917621E+03   -0.91545E-05   -0.91567E-05  8112   0.354E-04 0.237E-06
  45 F= -.31953292E+03 E0= -.31952891E+03  d E =-.404578E-02  mag=    44.0000
       N       E                     dE             d eps       ncg     rms          ort
SDA:   1    -0.318852273962E+03    0.68063E+00    0.00000E+00  8112   0.172E+01 0.000E+00
CGA:   2    -0.319281820537E+03   -0.42955E+00   -0.42946E+00  8112   0.193E+01 0.267E-02
CGA:   3    -0.319439945374E+03   -0.15812E+00   -0.16003E+00  8112   0.505E+00-0.136E-01
CGA:   4    -0.319512570459E+03   -0.72625E-01   -0.72630E-01  8112   0.124E+00-0.231E-02
CGA:   5    -0.319528553308E+03   -0.15983E-01   -0.16001E-01  8112   0.440E-01 0.538E-03
CGA:   6    -0.319533835997E+03   -0.52827E-02   -0.52749E-02  8112   0.175E-01-0.946E-04
CGA:   7    -0.319535845825E+03   -0.20098E-02   -0.20103E-02  8112   0.750E-02 0.341E-05
CGA:   8    -0.319536707009E+03   -0.86118E-03   -0.86099E-03  8112   0.234E-02-0.199E-05
CGA:   9    -0.319537104021E+03   -0.39701E-03   -0.39690E-03  8112   0.943E-03 0.272E-05
CGA:  10    -0.319537231214E+03   -0.12719E-03   -0.12719E-03  8112   0.631E-03 0.136E-06
CGA:  11    -0.319537307667E+03   -0.76453E-04   -0.76475E-04  8112   0.268E-03 0.855E-06
CGA:  12    -0.319537354370E+03   -0.46703E-04   -0.46655E-04  8112   0.146E-03 0.142E-05
CGA:  13    -0.319537377549E+03   -0.23179E-04   -0.23168E-04  8112   0.896E-04 0.606E-06
CGA:  14    -0.319537388838E+03   -0.11289E-04   -0.11290E-04  8112   0.461E-04 0.594E-07
CGA:  15    -0.319537394919E+03   -0.60807E-05   -0.60807E-05  8112   0.201E-04-0.180E-07
  46 F= -.31953739E+03 E0= -.31953340E+03  d E =-.447730E-02  mag=    44.0000
       N       E                     dE             d eps       ncg     rms          ort
SDA:   1    -0.309102795480E+03    0.10435E+02    0.00000E+00  8112   0.258E+02 0.000E+00
CGA:   2    -0.316116518685E+03   -0.70137E+01   -0.69138E+01  8112   0.202E+02 0.923E+00
CGA:   3    -0.318152625330E+03   -0.20361E+01   -0.18474E+01  8112   0.752E+01 0.712E-01
CGA:   4    -0.319184549604E+03   -0.10319E+01   -0.10282E+01  8112   0.162E+01-0.181E+00
CGA:   5    -0.319423148081E+03   -0.23860E+00   -0.23845E+00  8112   0.516E+00 0.115E-01
CGA:   6    -0.319483486893E+03   -0.60339E-01   -0.59954E-01  8112   0.300E+00-0.329E-02
CGA:   7    -0.319511642281E+03   -0.28155E-01   -0.28568E-01  8112   0.956E-01 0.366E-03
CGA:   8    -0.319523885376E+03   -0.12243E-01   -0.12251E-01  8112   0.368E-01 0.264E-03
CGA:   9    -0.319529381749E+03   -0.54964E-02   -0.54930E-02  8112   0.150E-01 0.217E-03
CGA:  10    -0.319531411521E+03   -0.20298E-02   -0.20301E-02  8112   0.104E-01 0.307E-04
CGA:  11    -0.319532585641E+03   -0.11741E-02   -0.11781E-02  8112   0.465E-02 0.511E-04
CGA:  12    -0.319533338647E+03   -0.75301E-03   -0.75269E-03  8112   0.231E-02 0.126E-04
CGA:  13    -0.319533764281E+03   -0.42563E-03   -0.42486E-03  8112   0.135E-02 0.142E-04
CGA:  14    -0.319533914549E+03   -0.15027E-03   -0.15040E-03  8112   0.737E-03 0.393E-05
CGA:  15    -0.319534019099E+03   -0.10455E-03   -0.10454E-03  8112   0.317E-03 0.650E-05
CGA:  16    -0.319534059759E+03   -0.40659E-04   -0.40704E-04  8112   0.107E-03 0.319E-05
CGA:  17    -0.319534077302E+03   -0.17543E-04   -0.17505E-04  8112   0.570E-04 0.160E-05
CGA:  18    -0.319534083526E+03   -0.62244E-05   -0.62448E-05  8112   0.262E-04 0.603E-06
  47 F= -.31953408E+03 E0= -.31953006E+03  d E =0.331139E-02  mag=    44.0000
       N       E                     dE             d eps       ncg     rms          ort
SDA:   1    -0.311525488880E+03    0.80086E+01    0.00000E+00  8112   0.197E+02 0.000E+00
CGA:   2    -0.317290485334E+03   -0.57650E+01   -0.57613E+01  8112   0.104E+02 0.238E-01
CGA:   3    -0.318943344143E+03   -0.16529E+01   -0.16534E+01  8112   0.312E+01-0.283E-01
CGA:   4    -0.319328694470E+03   -0.38535E+00   -0.38486E+00  8112   0.117E+01-0.626E-02
CGA:   5    -0.319437086941E+03   -0.10839E+00   -0.10987E+00  8112   0.452E+00-0.313E-02
CGA:   6    -0.319491340334E+03   -0.54253E-01   -0.54038E-01  8112   0.152E+00-0.268E-02
CGA:   7    -0.319511582019E+03   -0.20242E-01   -0.20252E-01  8112   0.496E-01 0.543E-03
CGA:   8    -0.319519259820E+03   -0.76778E-02   -0.76802E-02  8112   0.244E-01-0.111E-03
CGA:   9    -0.319521684132E+03   -0.24243E-02   -0.24305E-02  8112   0.122E-01 0.147E-04
CGA:  10    -0.319523493714E+03   -0.18096E-02   -0.18096E-02  8112   0.462E-02 0.177E-05
CGA:  11    -0.319524297301E+03   -0.80359E-03   -0.80292E-03  8112   0.305E-02 0.170E-04
CGA:  12    -0.319524702344E+03   -0.40504E-03   -0.40509E-03  8112   0.195E-02 0.621E-05
CGA:  13    -0.319524936962E+03   -0.23462E-03   -0.23478E-03  8112   0.867E-03 0.535E-05
CGA:  14    -0.319525082222E+03   -0.14526E-03   -0.14520E-03  8112   0.395E-03 0.248E-05
CGA:  15    -0.319525136329E+03   -0.54107E-04   -0.54121E-04  8112   0.210E-03 0.222E-05
CGA:  16    -0.319525159227E+03   -0.22898E-04   -0.22944E-04  8112   0.933E-04 0.144E-05
CGA:  17    -0.319525172000E+03   -0.12773E-04   -0.12777E-04  8112   0.307E-04 0.106E-05
CGA:  18    -0.319525177112E+03   -0.51127E-05   -0.50982E-05  8112   0.189E-04 0.600E-06
  48 F= -.31952518E+03 E0= -.31952108E+03  d E =0.890641E-02  mag=    44.0000
       N       E                     dE             d eps       ncg     rms          ort
SDA:   1    -0.313560745171E+03    0.59644E+01    0.00000E+00  8112   0.154E+02 0.000E+00
CGA:   2    -0.317477797149E+03   -0.39171E+01   -0.39060E+01  8112   0.112E+02 0.100E+00
CGA:   3    -0.318693539493E+03   -0.12157E+01   -0.12066E+01  8112   0.622E+01-0.292E+00
CGA:   4    -0.319300784548E+03   -0.60725E+00   -0.60517E+00  8112   0.119E+01 0.281E-02
CGA:   5    -0.319486157861E+03   -0.18537E+00   -0.18562E+00  8112   0.348E+00-0.104E-01
CGA:   6    -0.319534106282E+03   -0.47948E-01   -0.47971E-01  8112   0.171E+00 0.347E-02
CGA:   7    -0.319550689681E+03   -0.16583E-01   -0.16608E-01  8112   0.664E-01 0.483E-04
CGA:   8    -0.319558831747E+03   -0.81421E-02   -0.81563E-02  8112   0.279E-01 0.311E-03
CGA:   9    -0.319562647129E+03   -0.38154E-02   -0.38153E-02  8112   0.926E-02-0.475E-05
CGA:  10    -0.319564262271E+03   -0.16151E-02   -0.16124E-02  8112   0.609E-02 0.569E-04
CGA:  11    -0.319564876578E+03   -0.61431E-03   -0.61504E-03  8112   0.294E-02 0.706E-05
CGA:  12    -0.319565361189E+03   -0.48461E-03   -0.48437E-03  8112   0.132E-02 0.767E-05
CGA:  13    -0.319565586991E+03   -0.22580E-03   -0.22561E-03  8112   0.800E-03 0.526E-05
CGA:  14    -0.319565684346E+03   -0.97355E-04   -0.97434E-04  8112   0.466E-03 0.238E-05
CGA:  15    -0.319565744317E+03   -0.59971E-04   -0.59991E-04  8112   0.189E-03 0.145E-05
[...]
CGA:   3    -0.319563864075E+03   -0.97528E-01   -0.97541E-01  8112   0.236E+00 0.649E-03
CGA:   4    -0.319595242887E+03   -0.31379E-01   -0.31385E-01  8112   0.570E-01 0.303E-03
CGA:   5    -0.319602396170E+03   -0.71533E-02   -0.71482E-02  8112   0.321E-01-0.115E-03
CGA:   6    -0.319605123353E+03   -0.27272E-02   -0.27356E-02  8112   0.968E-02-0.242E-04
CGA:   7    -0.319606569247E+03   -0.14459E-02   -0.14461E-02  8112   0.289E-02-0.968E-05
CGA:   8    -0.319607026543E+03   -0.45730E-03   -0.45722E-03  8112   0.127E-02 0.237E-05
CGA:   9    -0.319607184388E+03   -0.15785E-03   -0.15784E-03  8112   0.719E-03 0.577E-06
CGA:  10    -0.319607261532E+03   -0.77143E-04   -0.77188E-04  8112   0.356E-03 0.805E-06
CGA:  11    -0.319607313170E+03   -0.51638E-04   -0.51635E-04  8112   0.152E-03 0.578E-06
CGA:  12    -0.319607341355E+03   -0.28185E-04   -0.28137E-04  8112   0.874E-04 0.971E-06
CGA:  13    -0.319607352765E+03   -0.11410E-04   -0.11414E-04  8112   0.630E-04 0.395E-06
CGA:  14    -0.319607359806E+03   -0.70404E-05   -0.70440E-05  8112   0.249E-04 0.119E-06
  68 F= -.31960736E+03 E0= -.31960323E+03  d E =0.801053E-03  mag=    44.0000
       N       E                     dE             d eps       ncg     rms          ort
SDA:   1    -0.319436529663E+03    0.17082E+00    0.00000E+00  8112   0.480E+00 0.000E+00
CGA:   2    -0.319535736716E+03   -0.99207E-01   -0.99196E-01  8112   0.448E+00 0.179E-03
CGA:   3    -0.319582037766E+03   -0.46301E-01   -0.46498E-01  8112   0.176E+00 0.468E-03
CGA:   4    -0.319599735716E+03   -0.17698E-01   -0.17550E-01  8112   0.680E-01-0.364E-03
CGA:   5    -0.319607403323E+03   -0.76676E-02   -0.76762E-02  8112   0.150E-01 0.107E-03
CGA:   6    -0.319609648683E+03   -0.22454E-02   -0.22456E-02  8112   0.514E-02-0.100E-04
CGA:   7    -0.319610312247E+03   -0.66356E-03   -0.66359E-03  8112   0.282E-02 0.689E-06
CGA:   8    -0.319610563693E+03   -0.25145E-03   -0.25110E-03  8112   0.102E-02 0.280E-06
CGA:   9    -0.319610724166E+03   -0.16047E-03   -0.16043E-03  8112   0.328E-03 0.144E-05
CGA:  10    -0.319610775706E+03   -0.51540E-04   -0.51526E-04  8112   0.216E-03 0.689E-06
CGA:  11    -0.319610802039E+03   -0.26333E-04   -0.26339E-04  8112   0.116E-03 0.360E-06
CGA:  12    -0.319610814731E+03   -0.12692E-04   -0.12698E-04  8112   0.568E-04 0.273E-06
CGA:  13    -0.319610824872E+03   -0.10141E-04   -0.10130E-04  8112   0.251E-04 0.258E-06
CGA:  14    -0.319610828890E+03   -0.40187E-05   -0.40186E-05  8112   0.181E-04 0.734E-08
  69 F= -.31961083E+03 E0= -.31960667E+03  d E =-.346908E-02  mag=    44.0000
       N       E                     dE             d eps       ncg     rms          ort
SDA:   1    -0.319445968945E+03    0.16486E+00    0.00000E+00  8112   0.420E+00 0.000E+00
CGA:   2    -0.319562803159E+03   -0.11683E+00   -0.11671E+00  8112   0.271E+00 0.770E-03
CGA:   3    -0.319597571731E+03   -0.34769E-01   -0.34745E-01  8112   0.922E-01-0.493E-03
CGA:   4    -0.319608898753E+03   -0.11327E-01   -0.11322E-01  8112   0.331E-01-0.869E-04
CGA:   5    -0.319611677092E+03   -0.27783E-02   -0.27917E-02  8112   0.124E-01-0.524E-04
CGA:   6    -0.319613185632E+03   -0.15085E-02   -0.15082E-02  8112   0.371E-02-0.119E-04
CGA:   7    -0.319613745521E+03   -0.55989E-03   -0.55990E-03  8112   0.119E-02-0.157E-05
CGA:   8    -0.319613914722E+03   -0.16920E-03   -0.16920E-03  8112   0.681E-03 0.861E-06
CGA:   9    -0.319613978466E+03   -0.63744E-04   -0.63797E-04  8112   0.284E-03 0.544E-06
CGA:  10    -0.319614018691E+03   -0.40225E-04   -0.40224E-04  8112   0.128E-03 0.333E-06
CGA:  11    -0.319614038839E+03   -0.20148E-04   -0.20142E-04  8112   0.642E-04 0.297E-06
CGA:  12    -0.319614048685E+03   -0.98467E-05   -0.98449E-05  8112   0.491E-04 0.130E-06
  70 F= -.31961405E+03 E0= -.31960989E+03  d E =-.321980E-02  mag=    44.0000
       N       E                     dE             d eps       ncg     rms          ort
SDA:   1    -0.318237696222E+03    0.13763E+01    0.00000E+00  8112   0.348E+01 0.000E+00
CGA:   2    -0.319154524574E+03   -0.91683E+00   -0.91657E+00  8112   0.294E+01-0.312E-02
CGA:   3    -0.319442253863E+03   -0.28773E+00   -0.29182E+00  8112   0.112E+01 0.146E-01
CGA:   4    -0.319554583322E+03   -0.11233E+00   -0.11092E+00  8112   0.419E+00-0.426E-02
CGA:   5    -0.319598449052E+03   -0.43866E-01   -0.43996E-01  8112   0.937E-01 0.679E-03
CGA:   6    -0.319612877339E+03   -0.14428E-01   -0.14434E-01  8112   0.322E-01-0.221E-03
CGA:   7    -0.319617462265E+03   -0.45849E-02   -0.45846E-02  8112   0.147E-01 0.304E-04
CGA:   8    -0.319618808268E+03   -0.13460E-02   -0.13429E-02  8112   0.679E-02 0.237E-05
CGA:   9    -0.319619684069E+03   -0.87580E-03   -0.87594E-03  8112   0.213E-02 0.108E-04
CGA:  10    -0.319620037058E+03   -0.35299E-03   -0.35299E-03  8112   0.112E-02 0.325E-06
CGA:  11    -0.319620194704E+03   -0.15765E-03   -0.15764E-03  8112   0.695E-03 0.228E-05
CGA:  12    -0.319620271255E+03   -0.76551E-04   -0.76582E-04  8112   0.403E-03 0.141E-05
CGA:  13    -0.319620330867E+03   -0.59612E-04   -0.59592E-04  8112   0.188E-03 0.154E-05
CGA:  14    -0.319620361528E+03   -0.30661E-04   -0.30638E-04  8112   0.862E-04 0.907E-06
CGA:  15    -0.319620374019E+03   -0.12490E-04   -0.12486E-04  8112   0.674E-04 0.681E-06
CGA:  16    -0.319620380296E+03   -0.62772E-05   -0.63042E-05  8112   0.176E-04 0.605E-06
  71 F= -.31962038E+03 E0= -.31961622E+03  d E =-.633161E-02  mag=    44.0000
       N       E                     dE             d eps       ncg     rms          ort
SDA:   1    -0.308543641206E+03    0.11077E+02    0.00000E+00  8112   0.281E+02 0.000E+00
CGA:   2    -0.315649577880E+03   -0.71059E+01   -0.70763E+01  8112   0.241E+02 0.729E+00
CGA:   3    -0.318124377559E+03   -0.24748E+01   -0.22488E+01  8112   0.851E+01-0.834E+00
CGA:   4    -0.319145156924E+03   -0.10208E+01   -0.10099E+01  8112   0.357E+01-0.233E+00
CGA:   5    -0.319439443469E+03   -0.29429E+00   -0.28031E+00  8112   0.918E+00 0.894E-01
CGA:   6    -0.319559364635E+03   -0.11992E+00   -0.12033E+00  8112   0.416E+00 0.195E-01
CGA:   7    -0.319598462793E+03   -0.39098E-01   -0.39102E-01  8112   0.237E+00-0.801E-03
CGA:   8    -0.319620426390E+03   -0.21964E-01   -0.22045E-01  8112   0.713E-01 0.799E-04
CGA:   9    -0.319630199354E+03   -0.97730E-02   -0.97670E-02  8112   0.295E-01 0.669E-03
CGA:  10    -0.319634248539E+03   -0.40492E-02   -0.40465E-02  8112   0.153E-01 0.420E-03
CGA:  11    -0.319635937752E+03   -0.16892E-02   -0.16936E-02  8112   0.111E-01 0.607E-04
CGA:  12    -0.319637149469E+03   -0.12117E-02   -0.12115E-02  8112   0.403E-02 0.763E-05
CGA:  13    -0.319637934989E+03   -0.78552E-03   -0.77900E-03  8112   0.203E-02 0.871E-04
CGA:  14    -0.319638328521E+03   -0.39353E-03   -0.39274E-03  8112   0.900E-03 0.122E-04
CGA:  15    -0.319638489047E+03   -0.16053E-03   -0.16008E-03  8112   0.583E-03 0.941E-05
CGA:  16    -0.319638546367E+03   -0.57320E-04   -0.57498E-04  8112   0.295E-03 0.284E-05
CGA:  17    -0.319638578920E+03   -0.32554E-04   -0.32615E-04  8112   0.112E-03 0.232E-05
CGA:  18    -0.319638595514E+03   -0.16594E-04   -0.16573E-04  8112   0.377E-04 0.165E-05
CGA:  19    -0.319638602489E+03   -0.69753E-05   -0.69534E-05  8112   0.143E-04 0.467E-06
  72 F= -.31963860E+03 E0= -.31963440E+03  d E =-.182222E-01  mag=    44.0000
       N       E                     dE             d eps       ncg     rms          ort
SDA:   1    -0.309097479370E+03    0.10541E+02    0.00000E+00  8112   0.264E+02 0.000E+00
CGA:   2    -0.316198454952E+03   -0.71010E+01   -0.69973E+01  8112   0.188E+02 0.103E+01
CGA:   3    -0.318290103677E+03   -0.20916E+01   -0.18785E+01  8112   0.821E+01-0.994E+00
CGA:   4    -0.319190808545E+03   -0.90070E+00   -0.87778E+00  8112   0.311E+01-0.186E+00
CGA:   5    -0.319470061151E+03   -0.27925E+00   -0.26883E+00  8112   0.805E+00 0.590E-01
CGA:   6    -0.319570173063E+03   -0.10011E+00   -0.10065E+00  8112   0.415E+00 0.109E-01
CGA:   7    -0.319605425211E+03   -0.35252E-01   -0.34919E-01  8112   0.206E+00 0.278E-05
CGA:   8    -0.319627315407E+03   -0.21890E-01   -0.21912E-01  8112   0.533E-01 0.138E-03
CGA:   9    -0.319636211466E+03   -0.88961E-02   -0.88753E-02  8112   0.256E-01 0.446E-03
CGA:  10    -0.319638809796E+03   -0.25983E-02   -0.26064E-02  8112   0.172E-01 0.388E-04
CGA:  11    -0.319640701669E+03   -0.18919E-02   -0.18947E-02  8112   0.854E-02 0.441E-04
CGA:  12    -0.319641825563E+03   -0.11239E-02   -0.11241E-02  8112   0.344E-02 0.504E-04
CGA:  13    -0.319642570258E+03   -0.74470E-03   -0.74029E-03  8112   0.177E-02 0.491E-04
CGA:  14    -0.319642824694E+03   -0.25444E-03   -0.25439E-03  8112   0.152E-02 0.648E-05
CGA:  15    -0.319642960394E+03   -0.13570E-03   -0.13590E-03  8112   0.583E-03 0.273E-05
CGA:  16    -0.319643053350E+03   -0.92957E-04   -0.92811E-04  8112   0.204E-03 0.554E-05
CGA:  17    -0.319643085767E+03   -0.32416E-04   -0.32382E-04  8112   0.936E-04 0.169E-05
CGA:  18    -0.319643098906E+03   -0.13140E-04   -0.13139E-04  8112   0.461E-04 0.573E-06
CGA:  19    -0.319643103480E+03   -0.45737E-05   -0.45809E-05  8112   0.284E-04 0.164E-06
  73 F= -.31964310E+03 E0= -.31963870E+03  d E =-.450099E-02  mag=    44.0000
       N       E                     dE             d eps       ncg     rms          ort
SDA:   1    -0.305354643819E+03    0.14288E+02    0.00000E+00  8112   0.354E+02 0.000E+00
CGA:   2    -0.314813183368E+03   -0.94585E+01   -0.95206E+01  8112   0.362E+02-0.659E+00
CGA:   3    -0.317815486370E+03   -0.30023E+01   -0.30678E+01  8112   0.106E+02-0.121E+01
CGA:   4    -0.319022703715E+03   -0.12072E+01   -0.12084E+01  8112   0.429E+01-0.305E-01
CGA:   5    -0.319407652367E+03   -0.38495E+00   -0.37505E+00  8112   0.105E+01-0.959E-02
CGA:   6    -0.319563776319E+03   -0.15612E+00   -0.15603E+00  8112   0.411E+00 0.438E-02
CGA:   7    -0.319603458764E+03   -0.39682E-01   -0.39493E-01  8112   0.249E+00-0.791E-03
CGA:   8    -0.319628538738E+03   -0.25080E-01   -0.25276E-01  8112   0.650E-01 0.108E-02
CGA:   9    -0.319638011052E+03   -0.94723E-02   -0.94670E-02  8112   0.352E-01 0.242E-03
CGA:  10    -0.319641874560E+03   -0.38635E-02   -0.38799E-02  8112   0.190E-01 0.205E-03
CGA:  11    -0.319643955985E+03   -0.20814E-02   -0.20840E-02  8112   0.101E-01 0.436E-04
CGA:  12    -0.319645340081E+03   -0.13841E-02   -0.13832E-02  8112   0.461E-02 0.885E-04
CGA:  13    -0.319646100111E+03   -0.76003E-03   -0.75941E-03  8112   0.371E-02 0.171E-04
CGA:  14    -0.319646454289E+03   -0.35418E-03   -0.35564E-03  8112   0.167E-02 0.950E-05
CGA:  15    -0.319646725227E+03   -0.27094E-03   -0.27047E-03  8112   0.702E-03 0.130E-04
CGA:  16    -0.319646818307E+03   -0.93080E-04   -0.93085E-04  8112   0.468E-03 0.535E-05
CGA:  17    -0.319646864659E+03   -0.46352E-04   -0.46482E-04  8112   0.174E-03 0.343E-05
CGA:  18    -0.319646888926E+03   -0.24267E-04   -0.24248E-04  8112   0.625E-04 0.229E-05
CGA:  19    -0.319646897115E+03   -0.81883E-05   -0.81893E-05  8112   0.424E-04 0.507E-06
  74 F= -.31964690E+03 E0= -.31964254E+03  d E =-.379363E-02  mag=    44.0000
       N       E                     dE             d eps       ncg     rms          ort
SDA:   1    -0.304429384143E+03    0.15218E+02    0.00000E+00  8112   0.390E+02 0.000E+00
CGA:   2    -0.314078885640E+03   -0.96495E+01   -0.95686E+01  8112   0.342E+02 0.257E+00
CGA:   3    -0.317398792125E+03   -0.33199E+01   -0.33154E+01  8112   0.142E+02-0.218E+01
CGA:   4    -0.318806224720E+03   -0.14074E+01   -0.13999E+01  8112   0.511E+01-0.388E-01
CGA:   5    -0.319266572954E+03   -0.46035E+00   -0.46080E+00  8112   0.176E+01-0.398E-02
CGA:   6    -0.319414179748E+03   -0.14761E+00   -0.14679E+00  8112   0.116E+01-0.106E-01
CGA:   7    -0.319501410220E+03   -0.87230E-01   -0.89550E-01  8112   0.366E+00-0.801E-02
CGA:   8    -0.319541454151E+03   -0.40044E-01   -0.40430E-01  8112   0.187E+00 0.103E-01
CGA:   9    -0.319555986697E+03   -0.14533E-01   -0.14616E-01  8112   0.959E-01-0.309E-03
CGA:  10    -0.319566481563E+03   -0.10495E-01   -0.10518E-01  8112   0.351E-01 0.714E-03
CGA:  11    -0.319571018610E+03   -0.45370E-02   -0.45253E-02  8112   0.201E-01 0.101E-02
CGA:  12    -0.319573103298E+03   -0.20847E-02   -0.20906E-02  8112   0.145E-01 0.927E-04
CGA:  13    -0.319574716278E+03   -0.16130E-02   -0.16156E-02  8112   0.500E-02 0.116E-03
CGA:  14    -0.319575659392E+03   -0.94311E-03   -0.93416E-03  8112   0.310E-02 0.117E-03
CGA:  15    -0.319576052894E+03   -0.39350E-03   -0.39349E-03  8112   0.231E-02 0.275E-04
CGA:  16    -0.319576279796E+03   -0.22690E-03   -0.22754E-03  8112   0.957E-03 0.110E-04
CGA:  17    -0.319576423505E+03   -0.14371E-03   -0.14330E-03  8112   0.372E-03 0.131E-04
CGA:  18    -0.319576485111E+03   -0.61606E-04   -0.61307E-04  8112   0.187E-03 0.729E-05
CGA:  19    -0.319576503322E+03   -0.18211E-04   -0.18283E-04  8112   0.110E-03 0.204E-05
CGA:  20    -0.319576517023E+03   -0.13700E-04   -0.13703E-04  8112   0.382E-04 0.157E-05
CGA:  21    -0.319576523784E+03   -0.67610E-05   -0.67284E-05  8112   0.172E-04 0.650E-06
  75 F= -.31957652E+03 E0= -.31957243E+03  d E =0.703733E-01  mag=    44.0000
       N       E                     dE             d eps       ncg     rms          ort
SDA:   1    -0.304999151715E+03    0.14577E+02    0.00000E+00  8112   0.372E+02 0.000E+00
CGA:   2    -0.314610045490E+03   -0.96109E+01   -0.93728E+01  8112   0.251E+02 0.230E+01
CGA:   3    -0.317594489318E+03   -0.29844E+01   -0.27172E+01  8112   0.135E+02-0.263E+01
CGA:   4    -0.319013271818E+03   -0.14188E+01   -0.13837E+01  8112   0.435E+01-0.565E+00
CGA:   5    -0.319355682530E+03   -0.34241E+00   -0.31763E+00  8112   0.156E+01 0.300E+00
CGA:   6    -0.319495179662E+03   -0.13950E+00   -0.14339E+00  8112   0.915E+00-0.318E-02
CGA:   7    -0.319574292158E+03   -0.79112E-01   -0.78854E-01  8112   0.296E+00-0.264E-03
CGA:   8    -0.319613134123E+03   -0.38842E-01   -0.38827E-01  8112   0.128E+00 0.135E-02
CGA:   9    -0.319624044300E+03   -0.10910E-01   -0.11065E-01  8112   0.799E-01 0.123E-03
CGA:  10    -0.319631902773E+03   -0.78585E-02   -0.78745E-02  8112   0.246E-01 0.162E-03
CGA:  11    -0.319636085474E+03   -0.41827E-02   -0.41722E-02  8112   0.151E-01 0.178E-03
CGA:  12    -0.319637674354E+03   -0.15889E-02   -0.15935E-02  8112   0.975E-02 0.823E-04
CGA:  13    -0.319638680863E+03   -0.10065E-02   -0.10074E-02  8112   0.505E-02 0.234E-04
CGA:  14    -0.319639478819E+03   -0.79796E-03   -0.79508E-03  8112   0.215E-02 0.635E-04
CGA:  15    -0.319639826096E+03   -0.34728E-03   -0.34676E-03  8112   0.134E-02 0.122E-04
CGA:  16    -0.319639966163E+03   -0.14007E-03   -0.14021E-03  8112   0.919E-03 0.498E-05
CGA:  17    -0.319640067286E+03   -0.10112E-03   -0.10124E-03  8112   0.254E-03 0.569E-05
CGA:  18    -0.319640109341E+03   -0.42056E-04   -0.41955E-04  8112   0.122E-03 0.246E-05
CGA:  19    -0.319640125759E+03   -0.16417E-04   -0.16410E-04  8112   0.741E-04 0.934E-06
CGA:  20    -0.319640132626E+03   -0.68674E-05   -0.68803E-05  8112   0.340E-04 0.313E-06
  76 F= -.31964013E+03 E0= -.31963591E+03  d E =-.636088E-01  mag=    44.0000
       N       E                     dE             d eps       ncg     rms          ort
SDA:   1    -0.317231867911E+03    0.24083E+01    0.00000E+00  8112   0.651E+01 0.000E+00
CGA:   2    -0.318749691667E+03   -0.15178E+01   -0.15160E+01  8112   0.381E+01 0.165E-01
CGA:   3    -0.319275468174E+03   -0.52578E+00   -0.52663E+00  8112   0.266E+01-0.622E-01
CGA:   4    -0.319478816498E+03   -0.20335E+00   -0.20545E+00  8112   0.667E+00-0.324E-01
CGA:   5    -0.319570479196E+03   -0.91663E-01   -0.91679E-01  8112   0.181E+00-0.795E-03
CGA:   6    -0.319595189422E+03   -0.24710E-01   -0.24707E-01  8112   0.852E-01 0.233E-03
CGA:   7    -0.319603593564E+03   -0.84041E-02   -0.83796E-02  8112   0.368E-01-0.152E-03
CGA:   8    -0.319607462499E+03   -0.38689E-02   -0.38769E-02  8112   0.157E-01 0.108E-03
CGA:   9    -0.319609674927E+03   -0.22124E-02   -0.22129E-02  8112   0.495E-02-0.184E-04
CGA:  10    -0.319610482207E+03   -0.80728E-03   -0.80658E-03  8112   0.418E-02 0.150E-04
CGA:  11    -0.319610859822E+03   -0.37762E-03   -0.37755E-03  8112   0.147E-02 0.267E-05
CGA:  12    -0.319611105055E+03   -0.24523E-03   -0.24496E-03  8112   0.818E-03 0.612E-05
CGA:  13    -0.319611218618E+03   -0.11356E-03   -0.11355E-03  8112   0.453E-03 0.169E-05
CGA:  14    -0.319611270601E+03   -0.51982E-04   -0.51987E-04  8112   0.286E-03 0.365E-08
CGA:  15    -0.319611306866E+03   -0.36265E-04   -0.36263E-04  8112   0.114E-03-0.111E-05
CGA:  16    -0.319611324139E+03   -0.17273E-04   -0.17301E-04  8112   0.577E-04-0.119E-05
CGA:  17    -0.319611330759E+03   -0.66195E-05   -0.66106E-05  8112   0.358E-04-0.623E-06
  77 F= -.31961133E+03 E0= -.31960695E+03  d E =0.288019E-01  mag=    44.0000
       N       E                     dE             d eps       ncg     rms          ort
SDA:   1    -0.317172616418E+03    0.24387E+01    0.00000E+00  8112   0.645E+01 0.000E+00
CGA:   2    -0.318746521203E+03   -0.15739E+01   -0.15803E+01  8112   0.468E+01-0.444E-01
CGA:   3    -0.319315681338E+03   -0.56916E+00   -0.56776E+00  8112   0.208E+01-0.295E-01
CGA:   4    -0.319517352460E+03   -0.20167E+00   -0.20359E+00  8112   0.786E+00 0.312E-02
CGA:   5    -0.319589836915E+03   -0.72484E-01   -0.71489E-01  8112   0.216E+00-0.203E-02
CGA:   6    -0.319621371250E+03   -0.31534E-01   -0.31526E-01  8112   0.639E-01 0.333E-03
CGA:   7    -0.319630946949E+03   -0.95757E-02   -0.95721E-02  8112   0.307E-01 0.122E-03
CGA:   8    -0.319633853125E+03   -0.29062E-02   -0.29135E-02  8112   0.156E-01 0.227E-04
CGA:   9    -0.319635745737E+03   -0.18926E-02   -0.18923E-02  8112   0.495E-02-0.126E-04
CGA:  10    -0.319636539890E+03   -0.79415E-03   -0.79290E-03  8112   0.264E-02 0.284E-04
CGA:  11    -0.319636889459E+03   -0.34957E-03   -0.34957E-03  8112   0.163E-02 0.385E-05
CGA:  12    -0.319637064400E+03   -0.17494E-03   -0.17500E-03  8112   0.860E-03 0.677E-06
CGA:  13    -0.319637194130E+03   -0.12973E-03   -0.12970E-03  8112   0.356E-03 0.104E-05
CGA:  14    -0.319637255986E+03   -0.61856E-04   -0.61752E-04  8112   0.253E-03 0.231E-05
CGA:  15    -0.319637280290E+03   -0.24304E-04   -0.24358E-04  8112   0.118E-03 0.150E-05
CGA:  16    -0.319637297282E+03   -0.16993E-04   -0.16970E-04  8112   0.453E-04 0.174E-05
CGA:  17    -0.319637303944E+03   -0.66621E-05   -0.66460E-05  8112   0.226E-04 0.123E-05
  78 F= -.31963730E+03 E0= -.31963306E+03  d E =-.259732E-01  mag=    44.0000
       N       E                     dE             d eps       ncg     rms          ort
SDA:   1    -0.319230200344E+03    0.40710E+00    0.00000E+00  8112   0.979E+00 0.000E+00
CGA:   2    -0.319521548922E+03   -0.29135E+00   -0.29122E+00  8112   0.697E+00 0.367E-03
CGA:   3    -0.319592290137E+03   -0.70741E-01   -0.71034E-01  8112   0.295E+00 0.145E-02
CGA:   4    -0.319619665951E+03   -0.27376E-01   -0.27167E-01  8112   0.101E+00-0.208E-03
CGA:   5    -0.319630288051E+03   -0.10622E-01   -0.10639E-01  8112   0.245E-01 0.123E-03
CGA:   6    -0.319634126137E+03   -0.38381E-02   -0.38383E-02  8112   0.836E-02-0.544E-05
CGA:   7    -0.319635236862E+03   -0.11107E-02   -0.11107E-02  8112   0.449E-02 0.604E-06
CGA:   8    -0.319635618471E+03   -0.38161E-03   -0.38110E-03  8112   0.162E-02 0.147E-05
CGA:   9    -0.319635853635E+03   -0.23516E-03   -0.23515E-03  8112   0.537E-03 0.108E-05
CGA:  10    -0.319635943976E+03   -0.90341E-04   -0.90322E-04  8112   0.312E-03 0.571E-06
CGA:  11    -0.319635978981E+03   -0.35005E-04   -0.35015E-04  8112   0.200E-03 0.338E-06
CGA:  12    -0.319636003434E+03   -0.24453E-04   -0.24459E-04  8112   0.960E-04 0.531E-06
CGA:  13    -0.319636019370E+03   -0.15936E-04   -0.15920E-04  8112   0.458E-04 0.492E-06
CGA:  14    -0.319636026471E+03   -0.71003E-05   -0.70992E-05  8112   0.318E-04 0.666E-07
  79 F= -.31963603E+03 E0= -.31963177E+03  d E =0.127747E-02  mag=    44.0000
