       N       E                     dE             d eps       ncg     rms          rms(c)
DAV:   1     0.651070146840E+04    0.65107E+04   -0.28010E+05 37616   0.153E+03
DAV:   2     0.340394709626E+03   -0.61703E+04   -0.58022E+04 38128   0.466E+02
DAV:   3    -0.383747002082E+03   -0.72414E+03   -0.71119E+03 39560   0.170E+02
DAV:   4    -0.413512247503E+03   -0.29765E+02   -0.29300E+02 48496   0.312E+01
DAV:   5    -0.415971367026E+03   -0.24591E+01   -0.24469E+01 64608   0.654E+00    0.634E+01
DAV:   6    -0.356749166558E+03    0.59222E+02   -0.26978E+02 41784   0.398E+01    0.495E+01
DAV:   7    -0.376698448669E+03   -0.19949E+02   -0.75006E+01 41448   0.271E+01    0.715E+01
DAV:   8    -0.367927066400E+03    0.87714E+01   -0.27672E+01 41040   0.181E+01    0.538E+01
DAV:   9    -0.362170886972E+03    0.57562E+01   -0.14869E+01 41064   0.114E+01    0.438E+01
DAV:  10    -0.362109427112E+03    0.61460E-01   -0.11319E+01 42120   0.889E+00    0.359E+01
DAV:  11    -0.369203120757E+03   -0.70937E+01   -0.17052E+01 42536   0.108E+01    0.380E+01
DAV:  12    -0.366307540504E+03    0.28956E+01   -0.12266E+01 42408   0.910E+00    0.264E+01
DAV:  13    -0.371030107628E+03   -0.47226E+01   -0.80801E+00 43440   0.435E+00    0.197E+01
DAV:  14    -0.373891114420E+03   -0.28610E+01   -0.40000E+00 43584   0.391E+00    0.186E+01
DAV:  15    -0.375609694091E+03   -0.17186E+01   -0.48078E+00 43504   0.350E+00    0.105E+01
DAV:  16    -0.377827497879E+03   -0.22178E+01   -0.18084E+00 43384   0.304E+00    0.659E+00
DAV:  17    -0.380042203249E+03   -0.22147E+01   -0.13154E+00 43760   0.234E+00    0.613E+00
DAV:  18    -0.381634556425E+03   -0.15924E+01   -0.10974E+00 44728   0.171E+00    0.771E+00
DAV:  19    -0.381862962065E+03   -0.22841E+00   -0.67954E-02 44664   0.611E-01    0.778E+00
DAV:  20    -0.381974301271E+03   -0.11134E+00   -0.19574E-02 43808   0.328E-01    0.705E+00
DAV:  21    -0.382903381796E+03   -0.92908E+00   -0.80023E-01 43696   0.168E+00    0.384E+00
DAV:  22    -0.383667915352E+03   -0.76453E+00   -0.41478E-01 41688   0.108E+00    0.463E+00
DAV:  23    -0.383986835025E+03   -0.31892E+00   -0.14700E-01 43592   0.758E-01    0.414E+00
DAV:  24    -0.384120795311E+03   -0.13396E+00   -0.49232E-02 44600   0.536E-01    0.303E+00
DAV:  25    -0.384242785946E+03   -0.12199E+00   -0.48987E-02 43056   0.447E-01    0.181E+00
DAV:  26    -0.384340664499E+03   -0.97879E-01   -0.50127E-02 41648   0.534E-01    0.149E+00
DAV:  27    -0.384401586608E+03   -0.60922E-01   -0.37512E-02 41072   0.454E-01    0.751E-01
DAV:  28    -0.384415094635E+03   -0.13508E-01   -0.94695E-03 42184   0.253E-01    0.677E-01
DAV:  29    -0.384418830816E+03   -0.37362E-02   -0.33997E-03 42184   0.197E-01    0.588E-01
DAV:  30    -0.384418581770E+03    0.24905E-03   -0.33025E-03 44992   0.206E-01    0.384E-01
DAV:  31    -0.384418179974E+03    0.40180E-03   -0.12763E-03 42656   0.142E-01    0.265E-01
DAV:  32    -0.384417835209E+03    0.34477E-03   -0.63047E-04 44704   0.118E-01    0.293E-01
DAV:  33    -0.384417460368E+03    0.37484E-03   -0.41029E-04 43976   0.110E-01    0.182E-01
DAV:  34    -0.384417341268E+03    0.11910E-03   -0.54445E-04 43504   0.645E-02    0.853E-02
DAV:  35    -0.384417297718E+03    0.43550E-04   -0.90356E-05 39120   0.345E-02    0.543E-02
DAV:  36    -0.384417260747E+03    0.36971E-04   -0.35019E-05 37736   0.319E-02    0.477E-02
DAV:  37    -0.384417247039E+03    0.13707E-04   -0.31323E-05 37384   0.206E-02    0.390E-02
DAV:  38    -0.384417236017E+03    0.11022E-04   -0.88991E-06 24624   0.179E-02    0.272E-02
DAV:  39    -0.384417231864E+03    0.41526E-05   -0.88128E-06 27848   0.118E-02
   1 F= -.38441723E+03 E0= -.38441308E+03  d E =-.384417E+03  mag=    45.9992
       N       E                     dE             d eps       ncg     rms          rms(c)
DAV:   1    -0.384419044087E+03   -0.18081E-02   -0.97148E-04 41432   0.752E-02    0.161E-02
DAV:   2    -0.384419045866E+03   -0.17790E-05   -0.64342E-05 38288   0.254E-02    0.429E-02
DAV:   3    -0.384419042626E+03    0.32396E-05   -0.12945E-05 25792   0.100E-02    0.179E-02
DAV:   4    -0.384419042369E+03    0.25681E-06   -0.33408E-06 20600   0.573E-03
   2 F= -.38441904E+03 E0= -.38441486E+03  d E =-.181050E-02  mag=    45.9994
       N       E                     dE             d eps       ncg     rms          rms(c)
DAV:   1    -0.384468470401E+03   -0.49428E-01   -0.90876E-01 41040   0.229E+00    0.236E-01
DAV:   2    -0.384471872272E+03   -0.34019E-02   -0.37136E-02 38640   0.377E-01    0.221E-01
DAV:   3    -0.384472051563E+03   -0.17929E-03   -0.17679E-03 49776   0.106E-01    0.383E-01
DAV:   4    -0.384471779626E+03    0.27194E-03   -0.30652E-04 43768   0.703E-02    0.809E-02
DAV:   5    -0.384471825412E+03   -0.45786E-04   -0.18601E-04 42944   0.438E-02    0.209E-01
DAV:   6    -0.384471723616E+03    0.10180E-03   -0.12812E-04 42288   0.422E-02    0.423E-02
DAV:   7    -0.384471747960E+03   -0.24344E-04   -0.77912E-05 37072   0.186E-02    0.866E-02
DAV:   8    -0.384471737530E+03    0.10430E-04   -0.22311E-05 27888   0.150E-02    0.489E-02
DAV:   9    -0.384471734578E+03    0.29524E-05   -0.66767E-06 22256   0.819E-03
   3 F= -.38447173E+03 E0= -.38446752E+03  d E =-.526922E-01  mag=    45.9999
       N       E                     dE             d eps       ncg     rms          rms(c)
DAV:   1    -0.384567372483E+03   -0.95635E-01   -0.69571E+00 40536   0.640E+00    0.668E-01
DAV:   2    -0.384594778331E+03   -0.27406E-01   -0.29723E-01 38512   0.107E+00    0.497E-01
DAV:   3    -0.384596003483E+03   -0.12252E-02   -0.12049E-02 50512   0.262E-01    0.912E-01
DAV:   4    -0.384594398093E+03    0.16054E-02   -0.21578E-03 45640   0.181E-01    0.195E-01
DAV:   5    -0.384594592111E+03   -0.19402E-03   -0.78269E-04 46512   0.106E-01    0.487E-01
DAV:   6    -0.384594042337E+03    0.54977E-03   -0.80148E-04 44064   0.975E-02    0.196E-01
DAV:   7    -0.384594202440E+03   -0.16010E-03   -0.84340E-04 50592   0.679E-02    0.310E-01
DAV:   8    -0.384594053522E+03    0.14892E-03   -0.16524E-04 44440   0.524E-02    0.161E-01
DAV:   9    -0.384594028279E+03    0.25243E-04   -0.81103E-05 39328   0.241E-02    0.263E-02
DAV:  10    -0.384594046464E+03   -0.18186E-04   -0.25195E-05 27472   0.135E-02    0.537E-02
DAV:  11    -0.384594046473E+03   -0.83746E-08   -0.54196E-06 23952   0.888E-03
   4 F= -.38459405E+03 E0= -.38458967E+03  d E =-.122312E+00  mag=    46.0000
       N       E                     dE             d eps       ncg     rms          rms(c)
DAV:   1    -0.384654713137E+03   -0.60667E-01   -0.14558E+01 40584   0.976E+00    0.102E+00
DAV:   2    -0.384718458940E+03   -0.63746E-01   -0.67726E-01 38176   0.165E+00    0.713E-01
DAV:   3    -0.384721039693E+03   -0.25808E-02   -0.24250E-02 50824   0.377E-01    0.125E+00
DAV:   4    -0.384718034316E+03    0.30054E-02   -0.44232E-03 46320   0.245E-01    0.288E-01
DAV:   5    -0.384718340002E+03   -0.30569E-03   -0.14456E-03 47216   0.144E-01    0.665E-01
DAV:   6    -0.384717295821E+03    0.10442E-02   -0.15264E-03 46104   0.140E-01    0.243E-01
DAV:   7    -0.384717744841E+03   -0.44902E-03   -0.17564E-03 49216   0.966E-02    0.497E-01
DAV:   8    -0.384717330588E+03    0.41425E-03   -0.37796E-04 46408   0.769E-02    0.249E-01
DAV:   9    -0.384717283013E+03    0.47575E-04   -0.18800E-04 45968   0.353E-02    0.377E-02
DAV:  10    -0.384717330424E+03   -0.47411E-04   -0.54519E-05 34200   0.184E-02    0.859E-02
DAV:  11    -0.384717328464E+03    0.19603E-05   -0.79953E-06 27152   0.117E-02
   5 F= -.38471733E+03 E0= -.38471280E+03  d E =-.123282E+00  mag=    46.0000
       N       E                     dE             d eps       ncg     rms          rms(c)
DAV:   1    -0.384689804765E+03    0.27526E-01   -0.20900E+01 40488   0.129E+01    0.135E+00
DAV:   2    -0.384803671756E+03   -0.11387E+00   -0.11668E+00 37624   0.216E+00    0.927E-01
DAV:   3    -0.384807630826E+03   -0.39591E-02   -0.35192E-02 51992   0.429E-01    0.131E+00
DAV:   4    -0.384804568754E+03    0.30621E-02   -0.61736E-03 46840   0.282E-01    0.451E-01
DAV:   5    -0.384804457366E+03    0.11139E-03   -0.15164E-03 46216   0.136E-01    0.555E-01
DAV:   6    -0.384803759338E+03    0.69803E-03   -0.16959E-03 48368   0.164E-01    0.357E-01
DAV:   7    -0.384804122454E+03   -0.36312E-03   -0.20342E-03 45784   0.105E-01    0.560E-01
DAV:   8    -0.384803540460E+03    0.58199E-03   -0.54412E-04 46904   0.782E-02    0.209E-01
DAV:   9    -0.384803600355E+03   -0.59895E-04   -0.29709E-04 49560   0.399E-02    0.113E-01
DAV:  10    -0.384803629996E+03   -0.29641E-04   -0.54920E-05 35984   0.230E-02    0.111E-01
DAV:  11    -0.384803611225E+03    0.18771E-04   -0.17576E-05 27096   0.128E-02    0.626E-02
DAV:  12    -0.384803607198E+03    0.40266E-05   -0.19206E-05 27080   0.123E-02
   6 F= -.38480361E+03 E0= -.38479911E+03  d E =-.862787E-01  mag=    46.0000
       N       E                     dE             d eps       ncg     rms          rms(c)
DAV:   1    -0.384720957383E+03    0.82654E-01   -0.23944E+01 40248   0.140E+01    0.144E+00
DAV:   2    -0.384855008848E+03   -0.13405E+00   -0.13377E+00 36896   0.234E+00    0.137E+00
DAV:   3    -0.384862584816E+03   -0.75760E-02   -0.47803E-02 50872   0.617E-01    0.209E+00
DAV:   4    -0.384855106038E+03    0.74788E-02   -0.10074E-02 46816   0.366E-01    0.558E-01
DAV:   5    -0.384856655831E+03   -0.15498E-02   -0.31021E-03 48224   0.206E-01    0.102E+00
DAV:   6    -0.384855004006E+03    0.16518E-02   -0.23650E-03 43176   0.173E-01    0.571E-01
DAV:   7    -0.384855289990E+03   -0.28598E-03   -0.37896E-03 51440   0.157E-01    0.630E-01
DAV:   8    -0.384855023281E+03    0.26671E-03   -0.78827E-04 43760   0.104E-01    0.477E-01
DAV:   9    -0.384854680945E+03    0.34234E-03   -0.39793E-04 46192   0.540E-02    0.140E-01
DAV:  10    -0.384854765159E+03   -0.84214E-04   -0.15555E-04 40256   0.263E-02    0.383E-02
DAV:  11    -0.384854800805E+03   -0.35646E-04   -0.19902E-05 26736   0.130E-02    0.111E-01
DAV:  12    -0.384854784174E+03    0.16631E-04   -0.94860E-06 24448   0.132E-02    0.757E-02
DAV:  13    -0.384854776956E+03    0.72176E-05   -0.17488E-05 25808   0.132E-02
   7 F= -.38485478E+03 E0= -.38485035E+03  d E =-.511698E-01  mag=    46.0000
       N       E                     dE             d eps       ncg     rms          rms(c)
DAV:   1    -0.384637540554E+03    0.21724E+00   -0.59450E+01 39824   0.205E+01    0.193E+00
DAV:   2    -0.384901963567E+03   -0.26442E+00   -0.26429E+00 36912   0.333E+00    0.187E+00
DAV:   3    -0.384913525748E+03   -0.11562E-01   -0.83333E-02 51008   0.848E-01    0.263E+00
DAV:   4    -0.384901043064E+03    0.12483E-01   -0.18824E-02 46544   0.489E-01    0.785E-01
DAV:   5    -0.384902489961E+03   -0.14469E-02   -0.49530E-03 50272   0.271E-01    0.119E+00
DAV:   6    -0.384900159830E+03    0.23301E-02   -0.40570E-03 42784   0.216E-01    0.689E-01
DAV:   7    -0.384900455670E+03   -0.29584E-03   -0.56672E-03 50064   0.204E-01    0.795E-01
DAV:   8    -0.384899561992E+03    0.89368E-03   -0.15007E-03 43768   0.156E-01    0.382E-01
DAV:   9    -0.384899494962E+03    0.67030E-04   -0.90424E-04 45272   0.704E-02    0.103E-01
DAV:  10    -0.384899591970E+03   -0.97008E-04   -0.14483E-04 40768   0.335E-02    0.881E-02
DAV:  11    -0.384899587359E+03    0.46116E-05   -0.17422E-05 29824   0.150E-02
   8 F= -.38489959E+03 E0= -.38489512E+03  d E =-.448104E-01  mag=    46.0000
       N       E                     dE             d eps       ncg     rms          rms(c)
DAV:   1    -0.384561926981E+03    0.33766E+00   -0.96388E+01 40032   0.250E+01    0.227E+00
DAV:   2    -0.384936348215E+03   -0.37442E+00   -0.38202E+00 37760   0.413E+00    0.156E+00
DAV:   3    -0.384938181412E+03   -0.18332E-02   -0.83441E-02 48864   0.701E-01    0.890E-01
DAV:   4    -0.384935511438E+03    0.26700E-02   -0.12894E-02 48480   0.334E-01    0.826E-01
DAV:   5    -0.384934307507E+03    0.12039E-02   -0.50352E-03 47160   0.266E-01    0.104E+00
DAV:   6    -0.384932049451E+03    0.22581E-02   -0.41407E-03 44600   0.249E-01    0.465E-01
DAV:   7    -0.384931805646E+03    0.24381E-03   -0.24707E-03 45296   0.179E-01    0.373E-01
DAV:   8    -0.384931582754E+03    0.22289E-03   -0.11483E-03 46736   0.105E-01    0.107E-01
DAV:   9    -0.384931662646E+03   -0.79892E-04   -0.30361E-04 47208   0.430E-02    0.145E-01
DAV:  10    -0.384931623903E+03    0.38744E-04   -0.10686E-04 35392   0.281E-02    0.422E-02
DAV:  11    -0.384931628330E+03   -0.44276E-05   -0.29443E-05 33424   0.177E-02
   9 F= -.38493163E+03 E0= -.38492733E+03  d E =-.320410E-01  mag=    46.0000
       N       E                     dE             d eps       ncg     rms          rms(c)
DAV:   1    -0.384857794295E+03    0.73830E-01   -0.13578E+01 41000   0.117E+01    0.144E+00
DAV:   2    -0.384952817644E+03   -0.95023E-01   -0.96502E-01 37456   0.203E+00    0.121E+00
DAV:   3    -0.384961185238E+03   -0.83676E-02   -0.43362E-02 48216   0.619E-01    0.201E+00
DAV:   4    -0.384953895739E+03    0.72895E-02   -0.11352E-02 45136   0.397E-01    0.490E-01
DAV:   5    -0.384954673848E+03   -0.77811E-03   -0.27285E-03 49056   0.193E-01    0.709E-01
DAV:   6    -0.384953374185E+03    0.12997E-02   -0.21253E-03 44496   0.160E-01    0.298E-01
DAV:   7    -0.384953464148E+03   -0.89963E-04   -0.23676E-03 48464   0.130E-01    0.485E-01
DAV:   8    -0.384953005315E+03    0.45883E-03   -0.65702E-04 44920   0.109E-01    0.208E-01
DAV:   9    -0.384953020678E+03   -0.15363E-04   -0.51371E-04 49288   0.564E-02    0.156E-01
DAV:  10    -0.384952998178E+03    0.22501E-04   -0.10113E-04 41440   0.345E-02    0.666E-02
DAV:  11    -0.384952988687E+03    0.94908E-05   -0.24625E-05 31656   0.157E-02
  10 F= -.38495299E+03 E0= -.38494847E+03  d E =-.213604E-01  mag=    46.0000
       N       E                     dE             d eps       ncg     rms          rms(c)
DAV:   1    -0.384949139071E+03    0.38591E-02   -0.10314E+00 45656   0.366E+00    0.508E-01
DAV:   2    -0.384960144548E+03   -0.11005E-01   -0.10185E-01 37736   0.588E-01    0.401E-01
DAV:   3    -0.384961554827E+03   -0.14103E-02   -0.46913E-03 44184   0.204E-01    0.845E-01
DAV:   4    -0.384960467101E+03    0.10877E-02   -0.11708E-03 43344   0.139E-01    0.147E-01
DAV:   5    -0.384960776441E+03   -0.30934E-03   -0.28385E-04 43576   0.565E-02    0.293E-01
DAV:   6    -0.384960607972E+03    0.16847E-03   -0.19355E-04 41744   0.532E-02    0.113E-01
DAV:   7    -0.384960727678E+03   -0.11971E-03   -0.35435E-04 46720   0.484E-02    0.283E-01
DAV:   8    -0.384960616738E+03    0.11094E-03   -0.99818E-05 39016   0.375E-02    0.168E-01
DAV:   9    -0.384960583401E+03    0.33337E-04   -0.51179E-05 33928   0.234E-02    0.231E-02
DAV:  10    -0.384960606514E+03   -0.23113E-04   -0.29872E-05 28368   0.124E-02    0.601E-02
DAV:  11    -0.384960604486E+03    0.20286E-05   -0.39365E-06 21664   0.722E-03
  11 F= -.38496060E+03 E0= -.38495617E+03  d E =-.761580E-02  mag=    46.0000
       N       E                     dE             d eps       ncg     rms          rms(c)
DAV:   1    -0.384946855417E+03    0.13751E-01   -0.30345E+00 41296   0.540E+00    0.599E-01
DAV:   2    -0.384966959003E+03   -0.20104E-01   -0.19569E-01 37088   0.880E-01    0.448E-01
DAV:   3    -0.384968107422E+03   -0.11484E-02   -0.68753E-03 46472   0.204E-01    0.681E-01
DAV:   4    -0.384967433526E+03    0.67390E-03   -0.14465E-03 47152   0.126E-01    0.171E-01
DAV:   5    -0.384967520319E+03   -0.86793E-04   -0.50764E-04 44664   0.592E-02    0.201E-01
DAV:   6    -0.384967417016E+03    0.10330E-03   -0.32439E-04 44992   0.506E-02    0.957E-02
DAV:   7    -0.384967467284E+03   -0.50268E-04   -0.15575E-04 42368   0.551E-02    0.227E-01
DAV:   8    -0.384967379182E+03    0.88102E-04   -0.10755E-04 43760   0.366E-02    0.105E-01
DAV:   9    -0.384967378120E+03    0.10625E-05   -0.58500E-05 31752   0.178E-02
  12 F= -.38496738E+03 E0= -.38496290E+03  d E =-.677363E-02  mag=    46.0000
       N       E                     dE             d eps       ncg     rms          rms(c)
DAV:   1    -0.384952694797E+03    0.14684E-01   -0.66963E+00 40240   0.652E+00    0.571E-01
DAV:   2    -0.384976792208E+03   -0.24097E-01   -0.24440E-01 36776   0.105E+00    0.478E-01
DAV:   3    -0.384977665910E+03   -0.87370E-03   -0.63773E-03 48784   0.229E-01    0.839E-01
DAV:   4    -0.384976564166E+03    0.11017E-02   -0.14466E-03 46696   0.148E-01    0.186E-01
DAV:   5    -0.384976728452E+03   -0.16429E-03   -0.61137E-04 45952   0.616E-02    0.253E-01
DAV:   6    -0.384976561065E+03    0.16739E-03   -0.38759E-04 44024   0.602E-02    0.114E-01
DAV:   7    -0.384976600243E+03   -0.39178E-04   -0.19111E-04 44344   0.501E-02    0.190E-01
DAV:   8    -0.384976542106E+03    0.58137E-04   -0.89546E-05 40928   0.350E-02    0.763E-02
DAV:   9    -0.384976547358E+03   -0.52518E-05   -0.39536E-05 31056   0.172E-02
  13 F= -.38497655E+03 E0= -.38497213E+03  d E =-.916924E-02  mag=    46.0000
       N       E                     dE             d eps       ncg     rms          rms(c)
DAV:   1    -0.384135033503E+03    0.84151E+00   -0.97085E+01 41648   0.318E+01    0.384E+00
DAV:   2    -0.384858966681E+03   -0.72393E+00   -0.69337E+00 37480   0.530E+00    0.303E+00
DAV:   3    -0.384892827108E+03   -0.33860E-01   -0.23910E-01 47336   0.128E+00    0.292E+00
DAV:   4    -0.384883021591E+03    0.98055E-02   -0.52140E-02 46248   0.830E-01    0.195E+00
DAV:   5    -0.384879110274E+03    0.39113E-02   -0.15305E-02 49040   0.438E-01    0.960E-01
DAV:   6    -0.384876720420E+03    0.23899E-02   -0.81493E-03 44368   0.310E-01    0.529E-01
DAV:   7    -0.384875142185E+03    0.15782E-02   -0.56437E-03 44232   0.265E-01    0.482E-01
DAV:   8    -0.384874641090E+03    0.50109E-03   -0.38910E-03 44920   0.190E-01    0.309E-01
DAV:   9    -0.384874513964E+03    0.12713E-03   -0.11692E-03 49024   0.102E-01    0.163E-01
DAV:  10    -0.384874428537E+03    0.85427E-04   -0.24080E-04 43688   0.530E-02    0.779E-02
DAV:  11    -0.384874374575E+03    0.53962E-04   -0.10783E-04 42944   0.357E-02    0.880E-02
DAV:  12    -0.384874338244E+03    0.36331E-04   -0.72757E-05 41232   0.308E-02    0.665E-02
DAV:  13    -0.384874324167E+03    0.14077E-04   -0.36526E-05 34208   0.223E-02    0.286E-02
DAV:  14    -0.384874321949E+03    0.22177E-05   -0.16837E-05 29648   0.124E-02
  14 F= -.38487432E+03 E0= -.38486971E+03  d E =0.102225E+00  mag=    46.0000
       N       E                     dE             d eps       ncg     rms          rms(c)
DAV:   1    -0.384315541501E+03    0.55878E+00   -0.52194E+01 46312   0.260E+01    0.395E+00
DAV:   2    -0.384981384338E+03   -0.66584E+00   -0.60624E+00 38144   0.430E+00    0.408E+00
DAV:   3    -0.385019974544E+03   -0.38590E-01   -0.45228E-01 47352   0.160E+00    0.415E+00
DAV:   4    -0.385000898584E+03    0.19076E-01   -0.15669E-01 43696   0.101E+00    0.178E+00
DAV:   5    -0.385000372562E+03    0.52602E-03   -0.17141E-02 49664   0.464E-01    0.102E+00
DAV:   6    -0.384997792325E+03    0.25802E-02   -0.76631E-03 43992   0.290E-01    0.563E-01
DAV:   7    -0.384996677756E+03    0.11146E-02   -0.61421E-03 43936   0.348E-01    0.711E-01
DAV:   8    -0.384995534071E+03    0.11437E-02   -0.55264E-03 45816   0.218E-01    0.310E-01
DAV:   9    -0.384995707780E+03   -0.17371E-03   -0.13682E-03 49368   0.100E-01    0.343E-01
DAV:  10    -0.384995450293E+03    0.25749E-03   -0.39195E-04 43968   0.789E-02    0.133E-01
DAV:  11    -0.384995441712E+03    0.85810E-05   -0.18558E-04 42976   0.416E-02    0.112E-01
DAV:  12    -0.384995388324E+03    0.53388E-04   -0.70381E-05 42184   0.325E-02    0.572E-02
DAV:  13    -0.384995374571E+03    0.13753E-04   -0.55752E-05 37000   0.246E-02    0.472E-02
DAV:  14    -0.384995365612E+03    0.89589E-05   -0.20955E-05 31392   0.160E-02
  15 F= -.38499537E+03 E0= -.38499085E+03  d E =-.121044E+00  mag=    46.0000
       N       E                     dE             d eps       ncg     rms          rms(c)
DAV:   1    -0.384994887198E+03    0.48737E-03   -0.58777E-01 43544   0.277E+00    0.368E-01
DAV:   2    -0.385000586073E+03   -0.56989E-02   -0.54114E-02 37984   0.452E-01    0.231E-01
DAV:   3    -0.385001091930E+03   -0.50586E-03   -0.20711E-03 44480   0.124E-01    0.380E-01
DAV:   4    -0.385000858005E+03    0.23393E-03   -0.43679E-04 42912   0.799E-02    0.107E-01
DAV:   5    -0.385000897529E+03   -0.39524E-04   -0.10465E-04 40504   0.336E-02    0.135E-01
DAV:   6    -0.385000848827E+03    0.48702E-04   -0.88423E-05 39992   0.332E-02    0.541E-02
DAV:   7    -0.385000871863E+03   -0.23035E-04   -0.10431E-04 39888   0.306E-02    0.140E-01
DAV:   8    -0.385000832250E+03    0.39613E-04   -0.35752E-05 34240   0.244E-02    0.450E-02
DAV:   9    -0.385000837193E+03   -0.49435E-05   -0.21235E-05 26192   0.115E-02
  16 F= -.38500084E+03 E0= -.38499631E+03  d E =-.547158E-02  mag=    46.0000
       N       E                     dE             d eps       ncg     rms          rms(c)
DAV:   1    -0.384975081897E+03    0.25750E-01   -0.52729E+00 41240   0.699E+00    0.740E-01
DAV:   2    -0.385004412996E+03   -0.29331E-01   -0.28847E-01 37136   0.114E+00    0.668E-01
DAV:   3    -0.385006336373E+03   -0.19234E-02   -0.13232E-02 48560   0.320E-01    0.106E+00
DAV:   4    -0.385004788708E+03    0.15477E-02   -0.27886E-03 47248   0.190E-01    0.283E-01
DAV:   5    -0.385004969542E+03   -0.18083E-03   -0.12117E-03 46448   0.886E-02    0.218E-01
DAV:   6    -0.385004770776E+03    0.19877E-03   -0.37420E-04 42840   0.646E-02    0.101E-01
DAV:   7    -0.385004714001E+03    0.56775E-04   -0.27242E-04 45888   0.659E-02    0.149E-01
DAV:   8    -0.385004677215E+03    0.36785E-04   -0.19943E-04 48096   0.422E-02    0.718E-02
DAV:   9    -0.385004674889E+03    0.23264E-05   -0.61372E-05 38400   0.196E-02
  17 F= -.38500467E+03 E0= -.38500021E+03  d E =-.383770E-02  mag=    46.0000
       N       E                     dE             d eps       ncg     rms          rms(c)
DAV:   1    -0.384978667861E+03    0.26009E-01   -0.69303E+00 39960   0.698E+00    0.636E-01
DAV:   2    -0.385005407569E+03   -0.26740E-01   -0.26855E-01 36904   0.113E+00    0.581E-01
DAV:   3    -0.385006003520E+03   -0.59595E-03   -0.81635E-03 47672   0.264E-01    0.620E-01
DAV:   4    -0.385005590572E+03    0.41295E-03   -0.17754E-03 47728   0.148E-01    0.366E-01
DAV:   5    -0.385005437148E+03    0.15342E-03   -0.47385E-04 47104   0.849E-02    0.158E-01
DAV:   6    -0.385005344748E+03    0.92400E-04   -0.29165E-04 44160   0.555E-02    0.163E-01
DAV:   7    -0.385005271309E+03    0.73439E-04   -0.31383E-04 44320   0.578E-02    0.796E-02
DAV:   8    -0.385005284266E+03   -0.12957E-04   -0.11301E-04 41504   0.280E-02    0.765E-02
DAV:   9    -0.385005273694E+03    0.10573E-04   -0.17455E-05 28768   0.171E-02    0.170E-02
DAV:  10    -0.385005275914E+03   -0.22204E-05   -0.91091E-06 25024   0.953E-03
  18 F= -.38500528E+03 E0= -.38500076E+03  d E =-.601025E-03  mag=    46.0000
       N       E                     dE             d eps       ncg     rms          rms(c)
DAV:   1    -0.380944551520E+03    0.40607E+01   -0.26683E+02 44488   0.569E+01    0.857E+00
DAV:   2    -0.384237499313E+03   -0.32929E+01   -0.31081E+01 37808   0.102E+01    0.105E+01
DAV:   3    -0.384318706385E+03   -0.81207E-01   -0.16229E+00 47664   0.317E+00    0.617E+00
DAV:   4    -0.384293882265E+03    0.24824E-01   -0.55569E-01 46824   0.175E+00    0.323E+00
DAV:   5    -0.384283293321E+03    0.10589E-01   -0.67206E-02 43904   0.817E-01    0.235E+00
DAV:   6    -0.384270504106E+03    0.12789E-01   -0.10285E-01 44168   0.907E-01    0.224E+00
DAV:   7    -0.384263835514E+03    0.66686E-02   -0.88784E-02 47800   0.743E-01    0.168E+00
DAV:   8    -0.384262785057E+03    0.10505E-02   -0.38795E-02 48344   0.645E-01    0.149E+00
DAV:   9    -0.384259098443E+03    0.36866E-02   -0.13219E-02 47992   0.373E-01    0.567E-01
DAV:  10    -0.384259120211E+03   -0.21768E-04   -0.33996E-03 50728   0.185E-01    0.512E-01
DAV:  11    -0.384258657987E+03    0.46222E-03   -0.15872E-03 43888   0.149E-01    0.197E-01
DAV:  12    -0.384258584423E+03    0.73564E-04   -0.54749E-04 43600   0.649E-02    0.214E-01
DAV:  13    -0.384258369336E+03    0.21509E-03   -0.41443E-04 44480   0.705E-02    0.917E-02
DAV:  14    -0.384258317187E+03    0.52149E-04   -0.20100E-04 42784   0.530E-02    0.890E-02
DAV:  15    -0.384258285437E+03    0.31750E-04   -0.15249E-04 46248   0.352E-02    0.647E-02
DAV:  16    -0.384258268168E+03    0.17269E-04   -0.64774E-05 37432   0.208E-02    0.357E-02
DAV:  17    -0.384258256085E+03    0.12082E-04   -0.25888E-05 32040   0.150E-02    0.249E-02
DAV:  18    -0.384258252653E+03    0.34322E-05   -0.10811E-05 28624   0.984E-03
  19 F= -.38425825E+03 E0= -.38425374E+03  d E =0.747023E+00  mag=    46.0000
       N       E                     dE             d eps       ncg     rms          rms(c)
DAV:   1    -0.380672427970E+03    0.35858E+01   -0.35120E+02 43232   0.603E+01    0.107E+01
DAV:   2    -0.385460318143E+03   -0.47879E+01   -0.44337E+01 38112   0.123E+01    0.242E+01
DAV:   3    -0.384957368271E+03    0.50295E+00   -0.40015E+00 42920   0.499E+00    0.781E+00
DAV:   4    -0.385062885625E+03   -0.10552E+00   -0.49221E-01 44952   0.216E+00    0.641E+00
DAV:   5    -0.385022910923E+03    0.39975E-01   -0.23655E-01 46864   0.137E+00    0.458E+00
DAV:   6    -0.384973117221E+03    0.49794E-01   -0.75271E-02 43704   0.108E+00    0.231E+00
DAV:   7    -0.384970365930E+03    0.27513E-02   -0.71347E-02 44216   0.877E-01    0.260E+00
DAV:   8    -0.384960574854E+03    0.97911E-02   -0.51487E-02 48440   0.673E-01    0.137E+00
DAV:   9    -0.384958537251E+03    0.20376E-02   -0.13227E-02 49312   0.351E-01    0.702E-01
DAV:  10    -0.384957854763E+03    0.68249E-03   -0.23441E-03 48944   0.191E-01    0.485E-01
DAV:  11    -0.384957273379E+03    0.58138E-03   -0.13647E-03 44824   0.158E-01    0.368E-01
DAV:  12    -0.384956647203E+03    0.62618E-03   -0.76644E-04 44664   0.128E-01    0.160E-01
DAV:  13    -0.384956565773E+03    0.81430E-04   -0.61756E-04 44968   0.804E-02    0.182E-01
DAV:  14    -0.384956503318E+03    0.62455E-04   -0.23632E-04 48088   0.496E-02    0.659E-02
DAV:  15    -0.384956495163E+03    0.81557E-05   -0.78129E-05 40896   0.225E-02
  20 F= -.38495650E+03 E0= -.38495166E+03  d E =-.698243E+00  mag=    46.0000
       N       E                     dE             d eps       ncg     rms          rms(c)
DAV:   1    -0.384968530203E+03   -0.12027E-01   -0.17289E+00 43120   0.369E+00    0.541E-01
DAV:   2    -0.384981651731E+03   -0.13122E-01   -0.12137E-01 37624   0.603E-01    0.424E-01
DAV:   3    -0.384983040759E+03   -0.13890E-02   -0.48877E-03 44664   0.205E-01    0.833E-01
DAV:   4    -0.384982015533E+03    0.10252E-02   -0.11883E-03 44760   0.139E-01    0.174E-01
DAV:   5    -0.384982281919E+03   -0.26639E-03   -0.45915E-04 47584   0.543E-02    0.251E-01
DAV:   6    -0.384982217575E+03    0.64344E-04   -0.21249E-04 42720   0.454E-02    0.178E-01
DAV:   7    -0.384982252793E+03   -0.35218E-04   -0.20715E-04 43080   0.559E-02    0.222E-01
DAV:   8    -0.384982201509E+03    0.51284E-04   -0.76865E-05 38336   0.340E-02    0.133E-01
DAV:   9    -0.384982180545E+03    0.20964E-04   -0.37631E-05 31536   0.173E-02    0.294E-02
DAV:  10    -0.384982191208E+03   -0.10663E-04   -0.11328E-05 24176   0.978E-03    0.301E-02
DAV:  11    -0.384982190330E+03    0.87822E-06   -0.36278E-06 20240   0.567E-03
  21 F= -.38498219E+03 E0= -.38497740E+03  d E =-.256952E-01  mag=    46.0000
       N       E                     dE             d eps       ncg     rms          rms(c)
DAV:   1    -0.384853144595E+03    0.12905E+00   -0.26021E+01 41856   0.134E+01    0.188E+00
DAV:   2    -0.385021607073E+03   -0.16846E+00   -0.15891E+00 37320   0.221E+00    0.127E+00
DAV:   3    -0.385029662207E+03   -0.80551E-02   -0.42418E-02 43232   0.455E-01    0.121E+00
DAV:   4    -0.385028657908E+03    0.10043E-02   -0.82493E-03 49288   0.332E-01    0.998E-01
DAV:   5    -0.385027586364E+03    0.10715E-02   -0.46601E-03 45432   0.215E-01    0.658E-01
DAV:   6    -0.385026990569E+03    0.59580E-03   -0.39100E-03 47872   0.186E-01    0.380E-01
DAV:   7    -0.385026966344E+03    0.24225E-04   -0.10970E-03 43800   0.118E-01    0.254E-01
DAV:   8    -0.385026862728E+03    0.10362E-03   -0.74577E-04 44832   0.798E-02    0.123E-01
DAV:   9    -0.385026884177E+03   -0.21449E-04   -0.23235E-04 46592   0.373E-02    0.114E-01
DAV:  10    -0.385026854217E+03    0.29959E-04   -0.40908E-05 34808   0.252E-02    0.348E-02
DAV:  11    -0.385026856885E+03   -0.26676E-05   -0.30118E-05 33128   0.138E-02
  22 F= -.38502686E+03 E0= -.38502219E+03  d E =-.446666E-01  mag=    46.0000
       N       E                     dE             d eps       ncg     rms          rms(c)
DAV:   1    -0.385026453356E+03    0.40086E-03   -0.77891E-01 40592   0.251E+00    0.268E-01
DAV:   2    -0.385030538021E+03   -0.40847E-02   -0.39647E-02 37200   0.422E-01    0.311E-01
DAV:   3    -0.385030750056E+03   -0.21204E-03   -0.17073E-03 47400   0.123E-01    0.424E-01
DAV:   4    -0.385030514961E+03    0.23510E-03   -0.33112E-04 44152   0.743E-02    0.115E-01
DAV:   5    -0.385030554277E+03   -0.39315E-04   -0.20103E-04 39272   0.314E-02    0.106E-01
DAV:   6    -0.385030538396E+03    0.15881E-04   -0.47789E-05 38000   0.241E-02    0.716E-02
DAV:   7    -0.385030541119E+03   -0.27233E-05   -0.73416E-05 37232   0.260E-02
  23 F= -.38503054E+03 E0= -.38502587E+03  d E =-.368423E-02  mag=    46.0000
       N       E                     dE             d eps       ncg     rms          rms(c)
DAV:   1    -0.384696482401E+03    0.33406E+00   -0.79080E+01 40000   0.248E+01    0.239E+00
DAV:   2    -0.385050676840E+03   -0.35419E+00   -0.34266E+00 36608   0.415E+00    0.373E+00
DAV:   3    -0.385041595514E+03    0.90813E-02   -0.16818E-01 46272   0.123E+00    0.236E+00
DAV:   4    -0.385038128369E+03    0.34671E-02   -0.25758E-02 45608   0.544E-01    0.117E+00
DAV:   5    -0.385037149821E+03    0.97855E-03   -0.15807E-02 49040   0.311E-01    0.762E-01
DAV:   6    -0.385035869751E+03    0.12801E-02   -0.41169E-03 42344   0.205E-01    0.502E-01
DAV:   7    -0.385035542759E+03    0.32699E-03   -0.38133E-03 47936   0.181E-01    0.334E-01
DAV:   8    -0.385035644179E+03   -0.10142E-03   -0.19923E-03 46872   0.103E-01    0.252E-01
DAV:   9    -0.385035604555E+03    0.39625E-04   -0.30620E-04 42280   0.585E-02    0.129E-01
DAV:  10    -0.385035582930E+03    0.21625E-04   -0.20871E-04 38416   0.360E-02    0.798E-02
DAV:  11    -0.385035577024E+03    0.59064E-05   -0.39119E-05 33048   0.208E-02
  24 F= -.38503558E+03 E0= -.38503115E+03  d E =-.503590E-02  mag=    46.0000
       N       E                     dE             d eps       ncg     rms          rms(c)
DAV:   1    -0.383486733089E+03    0.15488E+01   -0.33546E+02 38792   0.426E+01    0.476E+00
DAV:   2    -0.384976084527E+03   -0.14894E+01   -0.15444E+01 36904   0.759E+00    0.475E+00
DAV:   3    -0.384979820399E+03   -0.37359E-02   -0.78841E-01 46976   0.203E+00    0.534E+00
DAV:   4    -0.384932203863E+03    0.47617E-01   -0.14454E-01 48312   0.113E+00    0.241E+00
DAV:   5    -0.384925420547E+03    0.67833E-02   -0.34574E-02 47752   0.590E-01    0.195E+00
DAV:   6    -0.384919091095E+03    0.63295E-02   -0.40664E-02 46360   0.605E-01    0.201E+00
DAV:   7    -0.384913226723E+03    0.58644E-02   -0.29076E-02 44224   0.516E-01    0.147E+00
DAV:   8    -0.384912179365E+03    0.10474E-02   -0.58356E-02 47784   0.586E-01    0.114E+00
DAV:   9    -0.384912592717E+03   -0.41335E-03   -0.11884E-02 42808   0.276E-01    0.893E-01
DAV:  10    -0.384910716770E+03    0.18759E-02   -0.31850E-03 49176   0.214E-01    0.336E-01
DAV:  11    -0.384910747638E+03   -0.30868E-04   -0.19348E-03 47256   0.926E-02    0.206E-01
DAV:  12    -0.384910724485E+03    0.23153E-04   -0.26856E-04 42104   0.525E-02    0.945E-02
DAV:  13    -0.384910723018E+03    0.14670E-05   -0.15623E-04 44880   0.284E-02    0.762E-02
DAV:  14    -0.384910713959E+03    0.90590E-05   -0.53965E-05 33976   0.232E-02
  25 F= -.38491071E+03 E0= -.38490510E+03  d E =0.124863E+00  mag=    46.0000
       N       E                     dE             d eps       ncg     rms          rms(c)
DAV:   1    -0.384820952719E+03    0.89770E-01   -0.27115E+01 40600   0.164E+01    0.184E+00
DAV:   2    -0.384994706391E+03   -0.17375E+00   -0.16643E+00 37296   0.269E+00    0.188E+00
DAV:   3    -0.385004228624E+03   -0.95222E-02   -0.98031E-02 47344   0.795E-01    0.248E+00
DAV:   4    -0.384995407742E+03    0.88209E-02   -0.25473E-02 45056   0.482E-01    0.600E-01
DAV:   5    -0.384997312475E+03   -0.19047E-02   -0.95517E-03 48512   0.204E-01    0.912E-01
DAV:   6    -0.384996201709E+03    0.11108E-02   -0.33755E-03 46448   0.173E-01    0.583E-01
DAV:   7    -0.384996257034E+03   -0.55325E-04   -0.74995E-03 49168   0.173E-01    0.692E-01
DAV:   8    -0.384996849113E+03   -0.59208E-03   -0.17243E-03 45240   0.135E-01    0.838E-01
DAV:   9    -0.384995475135E+03    0.13740E-02   -0.11028E-03 44800   0.115E-01    0.225E-01
DAV:  10    -0.384995733100E+03   -0.25797E-03   -0.59763E-04 45992   0.523E-02    0.156E-01
DAV:  11    -0.384995772673E+03   -0.39573E-04   -0.11359E-04 38336   0.288E-02    0.158E-01
DAV:  12    -0.384995724914E+03    0.47759E-04   -0.26022E-05 32088   0.226E-02    0.698E-02
DAV:  13    -0.384995727132E+03   -0.22180E-05   -0.59238E-05 34520   0.168E-02
  26 F= -.38499573E+03 E0= -.38499050E+03  d E =-.850132E-01  mag=    46.0000
       N       E                     dE             d eps       ncg     rms          rms(c)
DAV:   1    -0.384999470730E+03   -0.37458E-02   -0.73281E+00 38976   0.653E+00    0.627E-01
DAV:   2    -0.385024401899E+03   -0.24931E-01   -0.24802E-01 37080   0.105E+00    0.790E-01
DAV:   3    -0.385024773978E+03   -0.37208E-03   -0.13251E-02 50720   0.290E-01    0.903E-01
DAV:   4    -0.385023680968E+03    0.10930E-02   -0.17361E-03 45608   0.167E-01    0.306E-01
DAV:   5    -0.385023774478E+03   -0.93510E-04   -0.15482E-03 48712   0.866E-02    0.314E-01
DAV:   6    -0.385023609858E+03    0.16462E-03   -0.58170E-04 43160   0.801E-02    0.265E-01
DAV:   7    -0.385023530005E+03    0.79853E-04   -0.89837E-04 45624   0.734E-02    0.182E-01
DAV:   8    -0.385023593559E+03   -0.63554E-04   -0.35581E-04 46120   0.492E-02    0.218E-01
DAV:   9    -0.385023510425E+03    0.83134E-04   -0.14455E-04 37952   0.313E-02    0.722E-02
DAV:  10    -0.385023519630E+03   -0.92054E-05   -0.39334E-05 28080   0.144E-02
  27 F= -.38502352E+03 E0= -.38501852E+03  d E =-.277925E-01  mag=    46.0000
       N       E                     dE             d eps       ncg     rms          rms(c)
DAV:   1    -0.384986880425E+03    0.36630E-01   -0.21150E+01 39648   0.107E+01    0.989E-01
DAV:   2    -0.385053604914E+03   -0.66724E-01   -0.67019E-01 37512   0.170E+00    0.976E-01
DAV:   3    -0.385053390239E+03    0.21467E-03   -0.22093E-02 50096   0.378E-01    0.999E-01
DAV:   4    -0.385052090012E+03    0.13002E-02   -0.48062E-03 48736   0.197E-01    0.407E-01
DAV:   5    -0.385052344670E+03   -0.25466E-03   -0.21203E-03 44616   0.165E-01    0.746E-01
DAV:   6    -0.385051402993E+03    0.94168E-03   -0.16865E-03 43920   0.163E-01    0.386E-01
DAV:   7    -0.385051451080E+03   -0.48087E-04   -0.15145E-03 44408   0.112E-01    0.271E-01
DAV:   8    -0.385051402439E+03    0.48641E-04   -0.50749E-04 44320   0.677E-02    0.178E-01
DAV:   9    -0.385051373818E+03    0.28621E-04   -0.16461E-04 45040   0.364E-02    0.700E-02
DAV:  10    -0.385051373362E+03    0.45572E-06   -0.38834E-05 32712   0.201E-02
  28 F= -.38505137E+03 E0= -.38504662E+03  d E =-.278537E-01  mag=    46.0000
       N       E                     dE             d eps       ncg     rms          rms(c)
DAV:   1    -0.385037840140E+03    0.13534E-01   -0.59020E+00 39800   0.543E+00    0.539E-01
DAV:   2    -0.385056138487E+03   -0.18298E-01   -0.18138E-01 37440   0.880E-01    0.716E-01
DAV:   3    -0.385055565646E+03    0.57284E-03   -0.71954E-03 48704   0.222E-01    0.448E-01
DAV:   4    -0.385055455081E+03    0.11057E-03   -0.85154E-04 43680   0.989E-02    0.303E-01
DAV:   5    -0.385055437012E+03    0.18068E-04   -0.54458E-04 47232   0.853E-02    0.340E-01
DAV:   6    -0.385055248686E+03    0.18833E-03   -0.48639E-04 42848   0.808E-02    0.186E-01
DAV:   7    -0.385055225859E+03    0.22828E-04   -0.45411E-04 43664   0.622E-02    0.110E-01
DAV:   8    -0.385055226153E+03   -0.29399E-06   -0.93745E-05 41872   0.306E-02
  29 F= -.38505523E+03 E0= -.38505057E+03  d E =-.385279E-02  mag=    46.0000
       N       E                     dE             d eps       ncg     rms          rms(c)
DAV:   1    -0.385031865749E+03    0.23360E-01   -0.63869E+00 40248   0.673E+00    0.670E-01
DAV:   2    -0.385057962617E+03   -0.26097E-01   -0.24874E-01 36912   0.113E+00    0.134E+00
DAV:   3    -0.385055895018E+03    0.20676E-02   -0.13795E-02 44984   0.369E-01    0.529E-01
DAV:   4    -0.385056312035E+03   -0.41702E-03   -0.29005E-03 47480   0.168E-01    0.550E-01
DAV:   5    -0.385055923998E+03    0.38804E-03   -0.10974E-03 45296   0.108E-01    0.184E-01
DAV:   6    -0.385055952468E+03   -0.28470E-04   -0.86937E-04 45088   0.679E-02    0.226E-01
DAV:   7    -0.385055874049E+03    0.78419E-04   -0.55024E-04 45272   0.743E-02    0.169E-01
DAV:   8    -0.385055848032E+03    0.26017E-04   -0.23612E-04 42128   0.422E-02    0.631E-02
DAV:   9    -0.385055861107E+03   -0.13075E-04   -0.27172E-05 28464   0.165E-02    0.645E-02
DAV:  10    -0.385055853089E+03    0.80176E-05   -0.99175E-06 22736   0.107E-02
  30 F= -.38505585E+03 E0= -.38505130E+03  d E =-.626936E-03  mag=    46.0000
       N       E                     dE             d eps       ncg     rms          rms(c)
DAV:   1    -0.384836540100E+03    0.21932E+00   -0.55149E+01 39824   0.199E+01    0.177E+00
DAV:   2    -0.385049775814E+03   -0.21324E+00   -0.21083E+00 36608   0.326E+00    0.220E+00
DAV:   3    -0.385052581599E+03   -0.28058E-02   -0.98924E-02 48456   0.876E-01    0.212E+00
DAV:   4    -0.385046794552E+03    0.57870E-02   -0.19269E-02 45904   0.470E-01    0.873E-01
DAV:   5    -0.385046662783E+03    0.13177E-03   -0.98050E-03 49080   0.219E-01    0.557E-01
DAV:   6    -0.385045442725E+03    0.12201E-02   -0.24450E-03 43072   0.168E-01    0.301E-01
DAV:   7    -0.385045224470E+03    0.21825E-03   -0.24347E-03 45520   0.156E-01    0.243E-01
DAV:   8    -0.385045231197E+03   -0.67263E-05   -0.11128E-03 46072   0.844E-02    0.150E-01
DAV:   9    -0.385045222475E+03    0.87221E-05   -0.21758E-04 43872   0.397E-02    0.853E-02
DAV:  10    -0.385045215732E+03    0.67428E-05   -0.95745E-05 35504   0.302E-02
  31 F= -.38504522E+03 E0= -.38504064E+03  d E =0.106374E-01  mag=    46.0000
       N       E                     dE             d eps       ncg     rms          rms(c)
DAV:   1    -0.380398324654E+03    0.46469E+01   -0.37190E+02 42192   0.625E+01    0.917E+00
DAV:   2    -0.384565331163E+03   -0.41670E+01   -0.39012E+01 37584   0.116E+01    0.123E+01
DAV:   3    -0.384555350801E+03    0.99804E-02   -0.25962E+00 45216   0.363E+00    0.674E+00
DAV:   4    -0.384542869019E+03    0.12482E-01   -0.49480E-01 50176   0.195E+00    0.379E+00
DAV:   5    -0.384538264809E+03    0.46042E-02   -0.12473E-01 46488   0.114E+00    0.276E+00
DAV:   6    -0.384522689083E+03    0.15576E-01   -0.47495E-02 43848   0.795E-01    0.134E+00
DAV:   7    -0.384520756932E+03    0.19322E-02   -0.25697E-02 44616   0.555E-01    0.159E+00
DAV:   8    -0.384515642519E+03    0.51144E-02   -0.16933E-02 45960   0.549E-01    0.857E-01
DAV:   9    -0.384515629820E+03    0.12699E-04   -0.81281E-03 45816   0.314E-01    0.631E-01
DAV:  10    -0.384514887258E+03    0.74256E-03   -0.30943E-03 49952   0.202E-01    0.350E-01
DAV:  11    -0.384514700807E+03    0.18645E-03   -0.10901E-03 44552   0.114E-01    0.179E-01
DAV:  12    -0.384514619433E+03    0.81374E-04   -0.48816E-04 52328   0.663E-02    0.150E-01
DAV:  13    -0.384514539069E+03    0.80365E-04   -0.24236E-04 47640   0.490E-02    0.104E-01
DAV:  14    -0.384514501816E+03    0.37253E-04   -0.16596E-04 42408   0.415E-02    0.799E-02
DAV:  15    -0.384514481597E+03    0.20219E-04   -0.70351E-05 39768   0.274E-02    0.442E-02
DAV:  16    -0.384514475134E+03    0.64632E-05   -0.29130E-05 32944   0.168E-02
  32 F= -.38451448E+03 E0= -.38450965E+03  d E =0.530741E+00  mag=    46.0000
       N       E                     dE             d eps       ncg     rms          rms(c)
DAV:   1    -0.383994104850E+03    0.52038E+00   -0.77293E+01 44480   0.319E+01    0.500E+00
DAV:   2    -0.384996503197E+03   -0.10024E+01   -0.91000E+00 38344   0.563E+00    0.713E+00
DAV:   3    -0.384961048063E+03    0.35455E-01   -0.87207E-01 44640   0.230E+00    0.372E+00
DAV:   4    -0.384971172408E+03   -0.10124E-01   -0.14896E-01 48584   0.110E+00    0.313E+00
DAV:   5    -0.384960543146E+03    0.10629E-01   -0.70437E-02 44040   0.772E-01    0.129E+00
DAV:   6    -0.384960431133E+03    0.11201E-03   -0.17595E-02 44920   0.433E-01    0.106E+00
DAV:   7    -0.384958429352E+03    0.20018E-02   -0.12200E-02 46120   0.365E-01    0.737E-01
DAV:   8    -0.384957591364E+03    0.83799E-03   -0.48269E-03 44544   0.297E-01    0.544E-01
DAV:   9    -0.384957194809E+03    0.39655E-03   -0.33489E-03 48680   0.195E-01    0.339E-01
DAV:  10    -0.384957056187E+03    0.13862E-03   -0.10381E-03 44384   0.117E-01    0.977E-02
DAV:  11    -0.384957028929E+03    0.27258E-04   -0.32235E-04 50432   0.506E-02    0.796E-02
DAV:  12    -0.384956999644E+03    0.29285E-04   -0.12133E-04 42912   0.346E-02    0.710E-02
DAV:  13    -0.384956978634E+03    0.21010E-04   -0.46049E-05 38520   0.278E-02    0.273E-02
DAV:  14    -0.384956975350E+03    0.32837E-05   -0.30260E-05 31712   0.173E-02
  33 F= -.38495698E+03 E0= -.38495238E+03  d E =-.442500E+00  mag=    46.0000
       N       E                     dE             d eps       ncg     rms          rms(c)
DAV:   1    -0.384798647730E+03    0.15833E+00   -0.23015E+01 43040   0.166E+01    0.235E+00
DAV:   2    -0.385033185620E+03   -0.23454E+00   -0.21301E+00 38416   0.271E+00    0.227E+00
DAV:   3    -0.385052914895E+03   -0.19729E-01   -0.16223E-01 47728   0.986E-01    0.305E+00
DAV:   4    -0.385039898171E+03    0.13017E-01   -0.50822E-02 43392   0.642E-01    0.727E-01
DAV:   5    -0.385042490914E+03   -0.25927E-02   -0.12540E-02 48080   0.243E-01    0.896E-01
DAV:   6    -0.385041244073E+03    0.12468E-02   -0.35675E-03 45168   0.181E-01    0.514E-01
DAV:   7    -0.385041191513E+03    0.52560E-04   -0.49327E-03 45984   0.211E-01    0.600E-01
DAV:   8    -0.385040744138E+03    0.44738E-03   -0.16225E-03 44184   0.138E-01    0.416E-01
DAV:   9    -0.385040439550E+03    0.30459E-03   -0.62000E-04 49968   0.796E-02    0.824E-02
DAV:  10    -0.385040532059E+03   -0.92509E-04   -0.26824E-04 41752   0.409E-02    0.136E-01
DAV:  11    -0.385040495367E+03    0.36692E-04   -0.60397E-05 37344   0.271E-02    0.682E-02
DAV:  12    -0.385040479184E+03    0.16183E-04   -0.34349E-05 37304   0.248E-02    0.340E-02
DAV:  13    -0.385040475142E+03    0.40416E-05   -0.22597E-05 30680   0.154E-02
  34 F= -.38504048E+03 E0= -.38503551E+03  d E =-.834998E-01  mag=    46.0000
       N       E                     dE             d eps       ncg     rms          rms(c)
DAV:   1    -0.385035284823E+03    0.51944E-02   -0.38062E+00 40304   0.527E+00    0.601E-01
DAV:   2    -0.385054224379E+03   -0.18940E-01   -0.18106E-01 37968   0.850E-01    0.445E-01
DAV:   3    -0.385055325274E+03   -0.11009E-02   -0.64527E-03 46952   0.199E-01    0.727E-01
DAV:   4    -0.385054563564E+03    0.76171E-03   -0.13608E-03 46760   0.131E-01    0.199E-01
DAV:   5    -0.385054650801E+03   -0.87238E-04   -0.87930E-04 44096   0.623E-02    0.257E-01
DAV:   6    -0.385054535806E+03    0.11499E-03   -0.69418E-04 44032   0.720E-02    0.174E-01
DAV:   7    -0.385054595212E+03   -0.59406E-04   -0.42042E-04 46048   0.592E-02    0.242E-01
DAV:   8    -0.385054524471E+03    0.70741E-04   -0.18159E-04 42696   0.412E-02    0.141E-01
DAV:   9    -0.385054499693E+03    0.24778E-04   -0.45030E-05 33072   0.232E-02    0.184E-02
DAV:  10    -0.385054510085E+03   -0.10391E-04   -0.14199E-05 25352   0.116E-02    0.219E-02
DAV:  11    -0.385054509536E+03    0.54883E-06   -0.65149E-06 20976   0.689E-03
  35 F= -.38505451E+03 E0= -.38504952E+03  d E =-.140344E-01  mag=    46.0000
       N       E                     dE             d eps       ncg     rms          rms(c)
DAV:   1    -0.385037152629E+03    0.17357E-01   -0.10448E+01 40128   0.747E+00    0.708E-01
DAV:   2    -0.385070349158E+03   -0.33197E-01   -0.32661E-01 37768   0.118E+00    0.892E-01
DAV:   3    -0.385070019495E+03    0.32966E-03   -0.12657E-02 49800   0.312E-01    0.839E-01
DAV:   4    -0.385069345488E+03    0.67401E-03   -0.21536E-03 44680   0.176E-01    0.434E-01
DAV:   5    -0.385069232043E+03    0.11344E-03   -0.17535E-03 48672   0.104E-01    0.358E-01
DAV:   6    -0.385069049866E+03    0.18218E-03   -0.89785E-04 43088   0.113E-01    0.303E-01
DAV:   7    -0.385068881568E+03    0.16830E-03   -0.90916E-04 45864   0.950E-02    0.142E-01
DAV:   8    -0.385068951459E+03   -0.69891E-04   -0.36386E-04 43688   0.440E-02    0.164E-01
DAV:   9    -0.385068910644E+03    0.40814E-04   -0.70317E-05 33464   0.258E-02    0.804E-02
DAV:  10    -0.385068905196E+03    0.54484E-05   -0.35120E-05 27928   0.146E-02
  36 F= -.38506891E+03 E0= -.38506404E+03  d E =-.143957E-01  mag=    46.0000
       N       E                     dE             d eps       ncg     rms          rms(c)
DAV:   1    -0.385061612961E+03    0.72977E-02   -0.32802E+00 39496   0.420E+00    0.447E-01
DAV:   2    -0.385072324582E+03   -0.10712E-01   -0.10411E-01 38008   0.669E-01    0.657E-01
DAV:   3    -0.385071864071E+03    0.46051E-03   -0.58062E-03 48824   0.190E-01    0.361E-01
DAV:   4    -0.385071877603E+03   -0.13532E-04   -0.54603E-04 43392   0.815E-02    0.265E-01
DAV:   5    -0.385071829578E+03    0.48025E-04   -0.35564E-04 47456   0.669E-02    0.238E-01
DAV:   6    -0.385071760317E+03    0.69261E-04   -0.33769E-04 42104   0.650E-02    0.163E-01
DAV:   7    -0.385071727664E+03    0.32653E-04   -0.29319E-04 42664   0.518E-02    0.804E-02
DAV:   8    -0.385071736317E+03   -0.86533E-05   -0.11223E-04 40024   0.267E-02    0.753E-02
DAV:   9    -0.385071731111E+03    0.52066E-05   -0.24650E-05 26200   0.142E-02
  37 F= -.38507173E+03 E0= -.38506696E+03  d E =-.282591E-02  mag=    46.0000
       N       E                     dE             d eps       ncg     rms          rms(c)
DAV:   1    -0.385062934059E+03    0.88023E-02   -0.20054E+00 40648   0.407E+00    0.412E-01
DAV:   2    -0.385072548477E+03   -0.96144E-02   -0.92609E-02 37064   0.663E-01    0.597E-01
DAV:   3    -0.385072436700E+03    0.11178E-03   -0.59315E-03 46856   0.200E-01    0.375E-01
DAV:   4    -0.385072430023E+03    0.66761E-05   -0.60337E-04 45640   0.921E-02    0.240E-01
DAV:   5    -0.385072360445E+03    0.69579E-04   -0.26864E-04 43496   0.517E-02    0.106E-01
DAV:   6    -0.385072345704E+03    0.14741E-04   -0.12596E-04 41584   0.335E-02    0.956E-02
DAV:   7    -0.385072334514E+03    0.11189E-04   -0.13537E-04 42408   0.391E-02    0.900E-02
DAV:   8    -0.385072333385E+03    0.11295E-05   -0.93663E-05 35832   0.239E-02
  38 F= -.38507233E+03 E0= -.38506765E+03  d E =-.602274E-03  mag=    46.0000
       N       E                     dE             d eps       ncg     rms          rms(c)
DAV:   1    -0.385039803925E+03    0.32531E-01   -0.79482E+00 40552   0.761E+00    0.721E-01
DAV:   2    -0.385072723090E+03   -0.32919E-01   -0.32260E-01 37144   0.123E+00    0.113E+00
DAV:   3    -0.385071925384E+03    0.79771E-03   -0.19649E-02 46256   0.368E-01    0.635E-01
DAV:   4    -0.385071858845E+03    0.66540E-04   -0.18125E-03 44944   0.170E-01    0.455E-01
DAV:   5    -0.385071562155E+03    0.29669E-03   -0.10974E-03 49616   0.929E-02    0.166E-01
DAV:   6    -0.385071455608E+03    0.10655E-03   -0.53621E-04 43984   0.609E-02    0.180E-01
DAV:   7    -0.385071393069E+03    0.62539E-04   -0.55357E-04 45512   0.845E-02    0.180E-01
DAV:   8    -0.385071354045E+03    0.39024E-04   -0.22352E-04 44288   0.443E-02    0.842E-02
DAV:   9    -0.385071355326E+03   -0.12802E-05   -0.61639E-05 31160   0.176E-02
  39 F= -.38507136E+03 E0= -.38506670E+03  d E =0.978059E-03  mag=    46.0000
       N       E                     dE             d eps       ncg     rms          rms(c)
DAV:   1    -0.374407835877E+03    0.10664E+02   -0.63300E+02 44048   0.732E+01    0.121E+01
DAV:   2    -0.384856898026E+03   -0.10449E+02   -0.84960E+01 36888   0.141E+01    0.308E+01
DAV:   3    -0.383937699745E+03    0.91920E+00   -0.57469E+00 41680   0.567E+00    0.685E+00
DAV:   4    -0.384105921683E+03   -0.16822E+00   -0.13316E+00 46000   0.269E+00    0.601E+00
DAV:   5    -0.384042454959E+03    0.63467E-01   -0.34227E-01 47216   0.161E+00    0.228E+00
DAV:   6    -0.384043845542E+03   -0.13906E-02   -0.93004E-02 44880   0.779E-01    0.272E+00
DAV:   7    -0.384031972832E+03    0.11873E-01   -0.62580E-02 47424   0.655E-01    0.164E+00
DAV:   8    -0.384030192109E+03    0.17807E-02   -0.58561E-02 45976   0.592E-01    0.177E+00
DAV:   9    -0.384026029681E+03    0.41624E-02   -0.19205E-02 45128   0.465E-01    0.865E-01
DAV:  10    -0.384025692663E+03    0.33702E-03   -0.13100E-02 49560   0.275E-01    0.746E-01
DAV:  11    -0.384025211700E+03    0.48096E-03   -0.58794E-03 46208   0.237E-01    0.417E-01
DAV:  12    -0.384025052680E+03    0.15902E-03   -0.13788E-03 47536   0.119E-01    0.368E-01
DAV:  13    -0.384024899698E+03    0.15298E-03   -0.16265E-03 42352   0.112E-01    0.333E-01
DAV:  14    -0.384024762197E+03    0.13750E-03   -0.58078E-04 47400   0.799E-02    0.216E-01
DAV:  15    -0.384024682253E+03    0.79945E-04   -0.36484E-04 44312   0.515E-02    0.576E-02
DAV:  16    -0.384024688531E+03   -0.62781E-05   -0.10701E-04 39816   0.281E-02    0.627E-02
DAV:  17    -0.384024678574E+03    0.99567E-05   -0.42031E-05 38184   0.193E-02
  40 F= -.38402468E+03 E0= -.38401807E+03  d E =0.104668E+01  mag=    46.0000
       N       E                     dE             d eps       ncg     rms          rms(c)
DAV:   1    -0.380619548083E+03    0.34051E+01   -0.27264E+02 43504   0.516E+01    0.105E+01
DAV:   2    -0.385689479954E+03   -0.50699E+01   -0.44600E+01 37896   0.107E+01    0.264E+01
DAV:   3    -0.384779097263E+03    0.91038E+00   -0.31096E+00 41776   0.526E+00    0.715E+00
DAV:   4    -0.384913069155E+03   -0.13397E+00   -0.77478E-01 46904   0.233E+00    0.615E+00
DAV:   5    -0.384876277693E+03    0.36791E-01   -0.17730E-01 45680   0.126E+00    0.303E+00
DAV:   6    -0.384862721984E+03    0.13556E-01   -0.86083E-02 48320   0.662E-01    0.165E+00
DAV:   7    -0.384864557411E+03   -0.18354E-02   -0.58008E-02 49616   0.671E-01    0.204E+00
DAV:   8    -0.384864582311E+03   -0.24901E-04   -0.33072E-02 44232   0.585E-01    0.208E+00
DAV:   9    -0.384858501936E+03    0.60804E-02   -0.32711E-02 46616   0.438E-01    0.797E-01
DAV:  10    -0.384858422436E+03    0.79500E-04   -0.47304E-03 45064   0.227E-01    0.456E-01
DAV:  11    -0.384858172984E+03    0.24945E-03   -0.31904E-03 48840   0.165E-01    0.310E-01
DAV:  12    -0.384858046239E+03    0.12675E-03   -0.84498E-04 47392   0.885E-02    0.250E-01
DAV:  13    -0.384858033803E+03    0.12436E-04   -0.92818E-04 49512   0.679E-02    0.247E-01
DAV:  14    -0.384857905108E+03    0.12869E-03   -0.29414E-04 40688   0.584E-02    0.844E-02
DAV:  15    -0.384857895766E+03    0.93416E-05   -0.10926E-04 41528   0.340E-02    0.881E-02
DAV:  16    -0.384857877876E+03    0.17890E-04   -0.54093E-05 39408   0.252E-02    0.422E-02
DAV:  17    -0.384857873829E+03    0.40472E-05   -0.25543E-05 31216   0.154E-02
  41 F= -.38485787E+03 E0= -.38485160E+03  d E =-.833195E+00  mag=    46.0000
       N       E                     dE             d eps       ncg     rms          rms(c)
DAV:   1    -0.384829654651E+03    0.28223E-01   -0.11345E+01 43168   0.858E+00    0.159E+00
DAV:   2    -0.384953986785E+03   -0.12433E+00   -0.11025E+00 38280   0.150E+00    0.447E+00
DAV:   3    -0.384937232692E+03    0.16754E-01   -0.19971E-01 42664   0.767E-01    0.153E+00
DAV:   4    -0.384943198834E+03   -0.59661E-02   -0.11898E-02 41560   0.333E-01    0.923E-01
DAV:   5    -0.384941932400E+03    0.12664E-02   -0.46950E-03 47456   0.230E-01    0.721E-01
DAV:   6    -0.384941324657E+03    0.60774E-03   -0.33672E-03 48272   0.151E-01    0.361E-01
DAV:   7    -0.384941594947E+03   -0.27029E-03   -0.15798E-03 45048   0.995E-02    0.532E-01
DAV:   8    -0.384941129589E+03    0.46536E-03   -0.13092E-03 43496   0.973E-02    0.130E-01
DAV:   9    -0.384941278976E+03   -0.14939E-03   -0.77173E-04 43120   0.654E-02    0.241E-01
DAV:  10    -0.384941192827E+03    0.86149E-04   -0.32826E-04 48120   0.437E-02    0.806E-02
DAV:  11    -0.384941196015E+03   -0.31887E-05   -0.61267E-05 35736   0.204E-02
  42 F= -.38494120E+03 E0= -.38493524E+03  d E =-.833222E-01  mag=    46.0000
       N       E                     dE             d eps       ncg     rms          rms(c)
DAV:   1    -0.384044089785E+03    0.89710E+00   -0.15407E+02 40824   0.272E+01    0.423E+00
DAV:   2    -0.385014221580E+03   -0.97013E+00   -0.92362E+00 37856   0.482E+00    0.477E+00
DAV:   3    -0.385034785752E+03   -0.20564E-01   -0.47971E-01 46984   0.142E+00    0.336E+00
DAV:   4    -0.385023822105E+03    0.10964E-01   -0.97023E-02 47184   0.873E-01    0.216E+00
DAV:   5    -0.385018887648E+03    0.49345E-02   -0.25869E-02 45496   0.603E-01    0.181E+00
DAV:   6    -0.385020615431E+03   -0.17278E-02   -0.50780E-02 45928   0.546E-01    0.225E+00
DAV:   7    -0.385012635893E+03    0.79795E-02   -0.35051E-02 43800   0.481E-01    0.926E-01
DAV:   8    -0.385013726750E+03   -0.10909E-02   -0.13523E-02 44616   0.314E-01    0.772E-01
DAV:   9    -0.385013283662E+03    0.44309E-03   -0.71734E-03 44904   0.208E-01    0.354E-01
DAV:  10    -0.385012889592E+03    0.39407E-03   -0.10695E-03 49936   0.144E-01    0.153E-01
DAV:  11    -0.385012903881E+03   -0.14289E-04   -0.48921E-04 43680   0.495E-02    0.124E-01
DAV:  12    -0.385012870171E+03    0.33710E-04   -0.22434E-04 42888   0.381E-02    0.627E-02
DAV:  13    -0.385012859598E+03    0.10573E-04   -0.81872E-05 38504   0.272E-02    0.449E-02
DAV:  14    -0.385012856317E+03    0.32817E-05   -0.45565E-05 34544   0.161E-02
  43 F= -.38501286E+03 E0= -.38500792E+03  d E =-.716603E-01  mag=    46.0000
       N       E                     dE             d eps       ncg     rms          rms(c)
DAV:   1    -0.384913608477E+03    0.99251E-01   -0.13164E+01 44000   0.102E+01    0.211E+00
DAV:   2    -0.385073992863E+03   -0.16038E+00   -0.14338E+00 38568   0.177E+00    0.395E+00
DAV:   3    -0.385062190620E+03    0.11802E-01   -0.22076E-01 42712   0.865E-01    0.171E+00
DAV:   4    -0.385067507488E+03   -0.53169E-02   -0.10948E-02 42552   0.341E-01    0.114E+00
DAV:   5    -0.385066128143E+03    0.13793E-02   -0.74047E-03 50648   0.237E-01    0.951E-01
DAV:   6    -0.385065052026E+03    0.10761E-02   -0.83938E-03 45056   0.233E-01    0.431E-01
DAV:   7    -0.385065109709E+03   -0.57683E-04   -0.19064E-03 43040   0.131E-01    0.296E-01
DAV:   8    -0.385065006429E+03    0.10328E-03   -0.13705E-03 48600   0.927E-02    0.226E-01
DAV:   9    -0.385065010507E+03   -0.40785E-05   -0.47291E-04 48056   0.620E-02    0.160E-01
DAV:  10    -0.385064960640E+03    0.49867E-04   -0.12163E-04 40600   0.380E-02    0.485E-02
DAV:  11    -0.385064969984E+03   -0.93442E-05   -0.40896E-05 32280   0.182E-02
  44 F= -.38506497E+03 E0= -.38505981E+03  d E =-.521137E-01  mag=    46.0000
       N       E                     dE             d eps       ncg     rms          rms(c)
DAV:   1    -0.385048613338E+03    0.16347E-01   -0.44926E+00 40304   0.561E+00    0.692E-01
DAV:   2    -0.385073862306E+03   -0.25249E-01   -0.24076E-01 37744   0.934E-01    0.457E-01
DAV:   3    -0.385075430126E+03   -0.15678E-02   -0.79522E-03 44584   0.223E-01    0.777E-01
DAV:   4    -0.385074476884E+03    0.95324E-03   -0.15689E-03 49232   0.144E-01    0.185E-01
DAV:   5    -0.385074629154E+03   -0.15227E-03   -0.68054E-04 44128   0.647E-02    0.275E-01
DAV:   6    -0.385074473538E+03    0.15562E-03   -0.58262E-04 45296   0.755E-02    0.152E-01
DAV:   7    -0.385074605189E+03   -0.13165E-03   -0.58625E-04 45888   0.595E-02    0.284E-01
DAV:   8    -0.385074494699E+03    0.11049E-03   -0.20095E-04 42392   0.477E-02    0.180E-01
DAV:   9    -0.385074447934E+03    0.46765E-04   -0.84693E-05 35960   0.274E-02    0.301E-02
DAV:  10    -0.385074464452E+03   -0.16517E-04   -0.32649E-05 27696   0.130E-02    0.322E-02
DAV:  11    -0.385074465962E+03   -0.15105E-05   -0.64064E-06 22808   0.857E-03
  45 F= -.38507447E+03 E0= -.38506939E+03  d E =-.949598E-02  mag=    46.0000
       N       E                     dE             d eps       ncg     rms          rms(c)
DAV:   1    -0.385049380832E+03    0.25084E-01   -0.86250E+00 40376   0.705E+00    0.680E-01
DAV:   2    -0.385080075081E+03   -0.30694E-01   -0.30383E-01 36864   0.114E+00    0.618E-01
DAV:   3    -0.385080532345E+03   -0.45726E-03   -0.14126E-02 49256   0.252E-01    0.787E-01
DAV:   4    -0.385079796638E+03    0.73571E-03   -0.32195E-03 47760   0.148E-01    0.277E-01
DAV:   5    -0.385079921937E+03   -0.12530E-03   -0.11570E-03 45504   0.939E-02    0.400E-01
DAV:   6    -0.385079716070E+03    0.20587E-03   -0.66103E-04 43320   0.102E-01    0.283E-01
DAV:   7    -0.385079626986E+03    0.89084E-04   -0.51756E-04 43432   0.787E-02    0.103E-01
DAV:   8    -0.385079672135E+03   -0.45149E-04   -0.18382E-04 43200   0.353E-02    0.116E-01
DAV:   9    -0.385079649725E+03    0.22410E-04   -0.73600E-05 32320   0.222E-02    0.356E-02
DAV:  10    -0.385079652943E+03   -0.32180E-05   -0.25343E-05 24464   0.112E-02
  46 F= -.38507965E+03 E0= -.38507476E+03  d E =-.518698E-02  mag=    46.0000
       N       E                     dE             d eps       ncg     rms          rms(c)
DAV:   1    -0.385076942794E+03    0.27069E-02   -0.12661E+00 39328   0.271E+00    0.248E-01
DAV:   2    -0.385080984589E+03   -0.40418E-02   -0.40813E-02 36824   0.438E-01    0.207E-01
DAV:   3    -0.385081007636E+03   -0.23047E-04   -0.14659E-03 50736   0.927E-02    0.247E-01
DAV:   4    -0.385080932984E+03    0.74653E-04   -0.38821E-04 47184   0.523E-02    0.101E-01
DAV:   5    -0.385080926585E+03    0.63984E-05   -0.73937E-05 40792   0.321E-02
  47 F= -.38508093E+03 E0= -.38507608E+03  d E =-.127364E-02  mag=    46.0000
       N       E                     dE             d eps       ncg     rms          rms(c)
DAV:   1    -0.385011402957E+03    0.69530E-01   -0.19811E+01 39656   0.111E+01    0.974E-01
DAV:   2    -0.385077243465E+03   -0.65841E-01   -0.66638E-01 36912   0.179E+00    0.895E-01
DAV:   3    -0.385078799127E+03   -0.15557E-02   -0.21482E-02 49744   0.397E-01    0.131E+00
DAV:   4    -0.385075834604E+03    0.29645E-02   -0.46941E-03 45936   0.265E-01    0.391E-01
DAV:   5    -0.385076120523E+03   -0.28592E-03   -0.39337E-03 46768   0.138E-01    0.598E-01
DAV:   6    -0.385075461682E+03    0.65884E-03   -0.21013E-03 44976   0.137E-01    0.369E-01
DAV:   7    -0.385075343276E+03    0.11841E-03   -0.11914E-03 47360   0.115E-01    0.275E-01
DAV:   8    -0.385075308075E+03    0.35200E-04   -0.51570E-04 45000   0.680E-02    0.179E-01
DAV:   9    -0.385075265936E+03    0.42139E-04   -0.13968E-04 43048   0.298E-02    0.473E-02
DAV:  10    -0.385075271930E+03   -0.59942E-05   -0.27892E-05 31360   0.171E-02
  48 F= -.38507527E+03 E0= -.38507060E+03  d E =0.565466E-02  mag=    46.0000
       N       E                     dE             d eps       ncg     rms          rms(c)
DAV:   1    -0.384844284097E+03    0.23098E+00   -0.26249E+01 40912   0.180E+01    0.209E+00
DAV:   2    -0.385045270900E+03   -0.20099E+00   -0.19103E+00 36936   0.293E+00    0.140E+00
DAV:   3    -0.385056319574E+03   -0.11049E-01   -0.74773E-02 45256   0.641E-01    0.133E+00
DAV:   4    -0.385054879042E+03    0.14405E-02   -0.15447E-02 47464   0.339E-01    0.727E-01
DAV:   5    -0.385054740549E+03    0.13849E-03   -0.31942E-03 44384   0.221E-01    0.673E-01
DAV:   6    -0.385053932150E+03    0.80840E-03   -0.23653E-03 44144   0.169E-01    0.264E-01
DAV:   7    -0.385053856915E+03    0.75235E-04   -0.14086E-03 45544   0.139E-01    0.185E-01
DAV:   8    -0.385053824618E+03    0.32297E-04   -0.11128E-03 46792   0.864E-02    0.163E-01
DAV:   9    -0.385053816584E+03    0.80339E-05   -0.37660E-04 45488   0.428E-02    0.103E-01
DAV:  10    -0.385053796370E+03    0.20214E-04   -0.67631E-05 34328   0.298E-02    0.594E-02
DAV:  11    -0.385053788209E+03    0.81609E-05   -0.47531E-05 33528   0.198E-02
  49 F= -.38505379E+03 E0= -.38504934E+03  d E =0.214837E-01  mag=    46.0000
       N       E                     dE             d eps       ncg     rms          rms(c)
DAV:   1    -0.384966332808E+03    0.87464E-01   -0.17293E+01 40912   0.134E+01    0.148E+00
DAV:   2    -0.385077450060E+03   -0.11112E+00   -0.10741E+00 37272   0.222E+00    0.130E+00
DAV:   3    -0.385082308148E+03   -0.48581E-02   -0.68452E-02 48912   0.593E-01    0.145E+00
DAV:   4    -0.385079880135E+03    0.24280E-02   -0.12860E-02 48824   0.319E-01    0.468E-01
DAV:   5    -0.385080120361E+03   -0.24023E-03   -0.33478E-03 44984   0.174E-01    0.659E-01
DAV:   6    -0.385079211790E+03    0.90857E-03   -0.15147E-03 44984   0.156E-01    0.307E-01
DAV:   7    -0.385079102263E+03    0.10953E-03   -0.24361E-03 45616   0.142E-01    0.298E-01
DAV:   8    -0.385079060530E+03    0.41733E-04   -0.90346E-04 46328   0.945E-02    0.254E-01
DAV:   9    -0.385078961905E+03    0.98625E-04   -0.46833E-04 47008   0.497E-02    0.983E-02
DAV:  10    -0.385078959304E+03    0.26010E-05   -0.21587E-04 39664   0.262E-02    0.560E-02
DAV:  11    -0.385078954853E+03    0.44512E-05   -0.25663E-05 30120   0.177E-02
  50 F= -.38507895E+03 E0= -.38507410E+03  d E =-.251666E-01  mag=    46.0000
       N       E                     dE             d eps       ncg     rms          rms(c)
DAV:   1    -0.385032653739E+03    0.46306E-01   -0.10076E+01 39896   0.898E+00    0.947E-01
DAV:   2    -0.385083149028E+03   -0.50495E-01   -0.49359E-01 36840   0.147E+00    0.841E-01
DAV:   3    -0.385084560519E+03   -0.14115E-02   -0.27517E-02 48552   0.343E-01    0.995E-01
DAV:   4    -0.385083407074E+03    0.11534E-02   -0.53352E-03 47736   0.190E-01    0.340E-01
DAV:   5    -0.385083378680E+03    0.28393E-04   -0.14245E-03 45520   0.960E-02    0.311E-01
DAV:   6    -0.385083355030E+03    0.23650E-04   -0.87483E-04 44424   0.112E-01    0.396E-01
DAV:   7    -0.385083188306E+03    0.16672E-03   -0.10061E-03 46808   0.104E-01    0.227E-01
DAV:   8    -0.385083220017E+03   -0.31710E-04   -0.25504E-04 43800   0.499E-02    0.168E-01
DAV:   9    -0.385083169258E+03    0.50759E-04   -0.23211E-04 37696   0.318E-02    0.322E-02
DAV:  10    -0.385083184094E+03   -0.14836E-04   -0.45061E-05 27504   0.148E-02    0.359E-02
DAV:  11    -0.385083182934E+03    0.11599E-05   -0.12921E-05 22920   0.874E-03
  51 F= -.38508318E+03 E0= -.38507831E+03  d E =-.422808E-02  mag=    46.0000
       N       E                     dE             d eps       ncg     rms          rms(c)
DAV:   1    -0.385070934281E+03    0.12250E-01   -0.22017E+00 40968   0.496E+00    0.517E-01
DAV:   2    -0.385084629064E+03   -0.13695E-01   -0.13064E-01 36640   0.803E-01    0.468E-01
DAV:   3    -0.385085383063E+03   -0.75400E-03   -0.67891E-03 45560   0.213E-01    0.580E-01
DAV:   4    -0.385084958668E+03    0.42440E-03   -0.12777E-03 45448   0.120E-01    0.194E-01
DAV:   5    -0.385085001997E+03   -0.43329E-04   -0.53934E-04 42744   0.535E-02    0.144E-01
DAV:   6    -0.385084966083E+03    0.35914E-04   -0.11780E-04 39928   0.357E-02    0.678E-02
DAV:   7    -0.385084978164E+03   -0.12081E-04   -0.19026E-04 41984   0.363E-02    0.100E-01
DAV:   8    -0.385084970585E+03    0.75786E-05   -0.84093E-05 34400   0.227E-02
  52 F= -.38508497E+03 E0= -.38508008E+03  d E =-.178765E-02  mag=    46.0000
       N       E                     dE             d eps       ncg     rms          rms(c)
DAV:   1    -0.385035382490E+03    0.49596E-01   -0.10268E+01 40048   0.961E+00    0.925E-01
DAV:   2    -0.385087087368E+03   -0.51705E-01   -0.50084E-01 36624   0.158E+00    0.130E+00
DAV:   3    -0.385087775205E+03   -0.68784E-03   -0.28922E-02 45984   0.468E-01    0.111E+00
DAV:   4    -0.385086404676E+03    0.13705E-02   -0.41679E-03 45152   0.241E-01    0.424E-01
DAV:   5    -0.385086403602E+03    0.10736E-05   -0.22887E-03 45968   0.105E-01    0.244E-01
DAV:   6    -0.385086243254E+03    0.16035E-03   -0.31790E-04 42120   0.616E-02    0.170E-01
DAV:   7    -0.385086169710E+03    0.73544E-04   -0.67129E-04 45752   0.760E-02    0.127E-01
DAV:   8    -0.385086176492E+03   -0.67812E-05   -0.28112E-04 46864   0.427E-02    0.102E-01
DAV:   9    -0.385086165266E+03    0.11226E-04   -0.81950E-05 31288   0.221E-02    0.456E-02
DAV:  10    -0.385086165332E+03   -0.65891E-07   -0.24452E-05 26248   0.153E-02
  53 F= -.38508617E+03 E0= -.38508131E+03  d E =-.119475E-02  mag=    46.0000
       N       E                     dE             d eps       ncg     rms          rms(c)
DAV:   1    -0.385015146890E+03    0.71018E-01   -0.16930E+01 39808   0.116E+01    0.101E+00
DAV:   2    -0.385086267659E+03   -0.71121E-01   -0.70803E-01 36640   0.186E+00    0.914E-01
DAV:   3    -0.385088090995E+03   -0.18233E-02   -0.26604E-02 49744   0.410E-01    0.107E+00
DAV:   4    -0.385086385250E+03    0.17057E-02   -0.53346E-03 48024   0.243E-01    0.363E-01
DAV:   5    -0.385086471244E+03   -0.85994E-04   -0.24989E-03 44448   0.115E-01    0.397E-01
DAV:   6    -0.385086113218E+03    0.35803E-03   -0.10376E-03 45680   0.958E-02    0.201E-01
DAV:   7    -0.385086096803E+03    0.16415E-04   -0.11774E-03 45832   0.867E-02    0.255E-01
DAV:   8    -0.385086059958E+03    0.36845E-04   -0.52883E-04 47824   0.618E-02    0.169E-01
DAV:   9    -0.385086010673E+03    0.49284E-04   -0.24541E-04 40320   0.358E-02    0.350E-02
DAV:  10    -0.385086028983E+03   -0.18310E-04   -0.63901E-05 29184   0.173E-02    0.537E-02
DAV:  11    -0.385086025073E+03    0.39101E-05   -0.22002E-05 24120   0.126E-02
  54 F= -.38508603E+03 E0= -.38508121E+03  d E =0.140259E-03  mag=    46.0000
       N       E                     dE             d eps       ncg     rms          rms(c)
DAV:   1    -0.385058551408E+03    0.27478E-01   -0.32128E+00 41944   0.631E+00    0.785E-01
DAV:   2    -0.385085867872E+03   -0.27316E-01   -0.25676E-01 37736   0.104E+00    0.103E+00
DAV:   3    -0.385086789030E+03   -0.92116E-03   -0.19847E-02 44248   0.375E-01    0.889E-01
DAV:   4    -0.385086120869E+03    0.66816E-03   -0.25129E-03 45752   0.200E-01    0.339E-01
DAV:   5    -0.385086092154E+03    0.28715E-04   -0.14026E-03 45008   0.911E-02    0.174E-01
DAV:   6    -0.385085976988E+03    0.11517E-03   -0.29936E-04 43224   0.630E-02    0.125E-01
DAV:   7    -0.385085943332E+03    0.33656E-04   -0.56862E-04 45608   0.648E-02    0.171E-01
DAV:   8    -0.385085902029E+03    0.41303E-04   -0.31352E-04 43272   0.495E-02    0.731E-02
DAV:   9    -0.385085898011E+03    0.40176E-05   -0.76826E-05 43912   0.249E-02
  55 F= -.38508590E+03 E0= -.38508094E+03  d E =0.127061E-03  mag=    46.0000
       N       E                     dE             d eps       ncg     rms          rms(c)
DAV:   1    -0.385079852635E+03    0.60494E-02   -0.11443E+00 40176   0.354E+00    0.416E-01
DAV:   2    -0.385087896731E+03   -0.80441E-02   -0.75627E-02 37112   0.578E-01    0.526E-01
DAV:   3    -0.385088212819E+03   -0.31609E-03   -0.55824E-03 45496   0.198E-01    0.506E-01
DAV:   4    -0.385087970391E+03    0.24243E-03   -0.75142E-04 44520   0.111E-01    0.201E-01
DAV:   5    -0.385087966168E+03    0.42229E-05   -0.47713E-04 43304   0.508E-02    0.963E-02
DAV:   6    -0.385087947395E+03    0.18773E-04   -0.94074E-05 39232   0.346E-02    0.776E-02
DAV:   7    -0.385087935536E+03    0.11859E-04   -0.12725E-04 40424   0.323E-02    0.739E-02
DAV:   8    -0.385087930007E+03    0.55296E-05   -0.81010E-05 35192   0.259E-02
  56 F= -.38508793E+03 E0= -.38508305E+03  d E =-.203200E-02  mag=    46.0000
