       N       E                     dE             d eps       ncg     rms          rms(c)
DAV:   1     0.303984342897E+04    0.30398E+04   -0.12973E+05 99720   0.174E+03
DAV:   2     0.586998860890E+02   -0.29811E+04   -0.27767E+04100832   0.510E+02
DAV:   3    -0.333201688677E+03   -0.39190E+03   -0.38675E+03103112   0.201E+02
DAV:   4    -0.353322251658E+03   -0.20121E+02   -0.20000E+02131368   0.404E+01
DAV:   5    -0.354464737282E+03   -0.11425E+01   -0.11382E+01168264   0.719E+00    0.541E+01
DAV:   6    -0.262223840013E+03    0.92241E+02   -0.10935E+02133000   0.552E+01    0.594E+01
DAV:   7    -0.266537760213E+03   -0.43139E+01   -0.22222E+01109400   0.134E+01    0.485E+01
DAV:   8    -0.265256762476E+03    0.12810E+01   -0.53576E+00133472   0.100E+01    0.252E+01
DAV:   9    -0.264280769626E+03    0.97599E+00   -0.98162E+00111832   0.145E+01    0.110E+01
DAV:  10    -0.266984080853E+03   -0.27033E+01   -0.23951E+00110408   0.878E+00    0.297E+00
DAV:  11    -0.266988015830E+03   -0.39350E-02   -0.12582E-01115616   0.134E+00    0.127E+00
DAV:  12    -0.267000399348E+03   -0.12384E-01   -0.15737E-02118048   0.474E-01    0.330E-01
DAV:  13    -0.267000631892E+03   -0.23254E-03   -0.27788E-03127648   0.228E-01    0.218E-01
DAV:  14    -0.267001224097E+03   -0.59221E-03   -0.96854E-04109280   0.145E-01    0.103E-01
DAV:  15    -0.267001071883E+03    0.15221E-03   -0.14634E-04110104   0.440E-02    0.165E-02
DAV:  16    -0.267000932443E+03    0.13944E-03   -0.16169E-05 69648   0.157E-02    0.920E-03
DAV:  17    -0.267000875979E+03    0.56463E-04   -0.48412E-06 59512   0.934E-03    0.540E-03
DAV:  18    -0.267000908411E+03   -0.32432E-04   -0.16507E-06 56544   0.572E-03    0.429E-03
DAV:  19    -0.267000898599E+03    0.98120E-05   -0.94088E-07 55616   0.368E-03
   1 F= -.26700090E+03 E0= -.26700090E+03  d E =-.267001E+03  mag=    20.0000
       N       E                     dE             d eps       ncg     rms          rms(c)
DAV:   1    -0.266968166508E+03    0.32742E-01   -0.58244E-01129536   0.774E+00    0.891E-01
DAV:   2    -0.267000912418E+03   -0.32746E-01   -0.27352E-01103120   0.159E+00    0.425E-01
DAV:   3    -0.267001929090E+03   -0.10167E-02   -0.11050E-02111648   0.397E-01    0.148E-01
DAV:   4    -0.267002074107E+03   -0.14502E-03   -0.80281E-04130920   0.740E-02    0.965E-02
DAV:   5    -0.267001991689E+03    0.82418E-04   -0.10346E-04111392   0.859E-02    0.435E-02
DAV:   6    -0.267001999731E+03   -0.80421E-05   -0.60301E-05 99720   0.461E-02
   2 F= -.26700200E+03 E0= -.26700200E+03  d E =-.110113E-02  mag=    20.0000
       N       E                     dE             d eps       ncg     rms          rms(c)
DAV:   1    -0.266999853862E+03    0.21378E-02   -0.43052E-02130208   0.211E+00    0.241E-01
DAV:   2    -0.267002126498E+03   -0.22726E-02   -0.19817E-02103096   0.428E-01    0.112E-01
DAV:   3    -0.267002291104E+03   -0.16461E-03   -0.80146E-04109776   0.107E-01    0.364E-02
DAV:   4    -0.267002258091E+03    0.33013E-04   -0.54822E-05 69928   0.208E-02    0.243E-02
DAV:   5    -0.267002261978E+03   -0.38870E-05   -0.91060E-06 59720   0.235E-02    0.110E-02
DAV:   6    -0.267002251159E+03    0.10819E-04   -0.62413E-06 57536   0.121E-02    0.351E-03
DAV:   7    -0.267002246129E+03    0.50301E-05   -0.28876E-06 54096   0.883E-03
   3 F= -.26700225E+03 E0= -.26700225E+03  d E =-.134753E-02  mag=    20.0000
       N       E                     dE             d eps       ncg     rms          rms(c)
DAV:   1    -0.267001007657E+03    0.12435E-02   -0.36725E-01101424   0.281E+00    0.258E-01
DAV:   2    -0.267003386581E+03   -0.23789E-02   -0.23635E-02 99424   0.586E-01    0.168E-01
DAV:   3    -0.267003360733E+03    0.25848E-04   -0.57353E-04122608   0.960E-02    0.690E-02
DAV:   4    -0.267003117876E+03    0.24286E-03   -0.81685E-05114488   0.436E-02    0.395E-02
DAV:   5    -0.267003076388E+03    0.41488E-04   -0.34825E-05 88504   0.272E-02    0.250E-02
DAV:   6    -0.267003111591E+03   -0.35203E-04   -0.88134E-06 55872   0.125E-02    0.903E-03
DAV:   7    -0.267003098868E+03    0.12723E-04   -0.22268E-06 54008   0.547E-03    0.426E-03
DAV:   8    -0.267003097549E+03    0.13189E-05   -0.11441E-06 53600   0.398E-03
   4 F= -.26700310E+03 E0= -.26700310E+03  d E =-.851420E-03  mag=    20.0000
       N       E                     dE             d eps       ncg     rms          rms(c)
DAV:   1    -0.267003089774E+03    0.90943E-05   -0.14066E-02102464   0.550E-01    0.506E-02
DAV:   2    -0.267003235996E+03   -0.14622E-03   -0.90375E-04100240   0.115E-01    0.327E-02
DAV:   3    -0.267003239018E+03   -0.30223E-05   -0.19896E-05 77288   0.189E-02    0.133E-02
DAV:   4    -0.267003202277E+03    0.36741E-04   -0.49950E-06 54880   0.997E-03    0.703E-03
DAV:   5    -0.267003197758E+03    0.45194E-05   -0.21337E-06 52776   0.602E-03    0.492E-03
DAV:   6    -0.267003205151E+03   -0.73935E-05   -0.78133E-07 52544   0.344E-03
   5 F= -.26700321E+03 E0= -.26700321E+03  d E =-.959022E-03  mag=    20.0000
       N       E                     dE             d eps       ncg     rms          rms(c)
DAV:   1    -0.267002952461E+03    0.24530E-03   -0.56286E-02101456   0.110E+00    0.101E-01
DAV:   2    -0.267003407351E+03   -0.45489E-03   -0.36238E-03 99160   0.230E-01    0.662E-02
DAV:   3    -0.267003405496E+03    0.18554E-05   -0.87058E-05 99072   0.376E-02    0.271E-02
DAV:   4    -0.267003319269E+03    0.86226E-04   -0.13052E-05 60488   0.178E-02    0.157E-02
DAV:   5    -0.267003310939E+03    0.83304E-05   -0.75059E-06 57768   0.124E-02    0.117E-02
DAV:   6    -0.267003323105E+03   -0.12166E-04   -0.24546E-06 52656   0.637E-03    0.352E-03
DAV:   7    -0.267003318361E+03    0.47436E-05   -0.91403E-07 51848   0.319E-03
   6 F= -.26700332E+03 E0= -.26700332E+03  d E =-.107223E-02  mag=    20.0000
       N       E                     dE             d eps       ncg     rms          rms(c)
DAV:   1    -0.266998617140E+03    0.47060E-02   -0.24168E-01108472   0.325E+00    0.317E-01
DAV:   2    -0.267003438567E+03   -0.48214E-02   -0.42027E-02 99264   0.686E-01    0.154E-01
DAV:   3    -0.267003672587E+03   -0.23402E-03   -0.13543E-03114208   0.136E-01    0.556E-02
DAV:   4    -0.267003617925E+03    0.54662E-04   -0.10267E-04 83456   0.308E-02    0.375E-02
DAV:   5    -0.267003616349E+03    0.15754E-05   -0.22671E-05 71296   0.361E-02    0.155E-02
DAV:   6    -0.267003610008E+03    0.63413E-05   -0.16439E-05 62976   0.173E-02
   7 F= -.26700361E+03 E0= -.26700361E+03  d E =-.291647E-03  mag=    20.0000
       N       E                     dE             d eps       ncg     rms          rms(c)
DAV:   1    -0.267003503566E+03    0.11278E-03   -0.55832E-03109464   0.498E-01    0.480E-02
DAV:   2    -0.267003631494E+03   -0.12793E-03   -0.96541E-04100304   0.104E-01    0.234E-02
DAV:   3    -0.267003614772E+03    0.16722E-04   -0.29821E-05 63464   0.206E-02    0.823E-03
DAV:   4    -0.267003622648E+03   -0.78764E-05   -0.27838E-06 52328   0.583E-03    0.549E-03
DAV:   5    -0.267003621490E+03    0.11577E-05   -0.89861E-07 50824   0.567E-03    0.232E-03
DAV:   6    -0.267003622783E+03   -0.12925E-05   -0.56439E-07 50792   0.300E-03
   8 F= -.26700362E+03 E0= -.26700362E+03  d E =-.304422E-03  mag=    20.0000
       N       E                     dE             d eps       ncg     rms          rms(c)
DAV:   1    -0.267002802603E+03    0.81889E-03   -0.14752E-01101256   0.176E+00    0.128E-01
DAV:   2    -0.267003922685E+03   -0.11201E-02   -0.95850E-03 99040   0.358E-01    0.667E-02
DAV:   3    -0.267003861493E+03    0.61192E-04   -0.21544E-04105752   0.552E-02    0.300E-02
DAV:   4    -0.267003875419E+03   -0.13926E-04   -0.18828E-05 65232   0.164E-02    0.199E-02
DAV:   5    -0.267003854569E+03    0.20850E-04   -0.11006E-05 59432   0.205E-02    0.613E-03
DAV:   6    -0.267003858554E+03   -0.39849E-05   -0.56931E-06 53544   0.881E-03
   9 F= -.26700386E+03 E0= -.26700386E+03  d E =-.235771E-03  mag=    20.0000
       N       E                     dE             d eps       ncg     rms          rms(c)
DAV:   1    -0.267000056343E+03    0.37982E-02   -0.53699E-01101120   0.337E+00    0.245E-01
DAV:   2    -0.267004129529E+03   -0.40732E-02   -0.34921E-02 98848   0.685E-01    0.127E-01
DAV:   3    -0.267004012237E+03    0.11729E-03   -0.79312E-04121416   0.105E-01    0.567E-02
DAV:   4    -0.267004033084E+03   -0.20846E-04   -0.70225E-05 96104   0.303E-02    0.372E-02
DAV:   5    -0.267003982312E+03    0.50772E-04   -0.32970E-05 91304   0.363E-02    0.118E-02
DAV:   6    -0.267003989656E+03   -0.73448E-05   -0.15156E-05 58496   0.140E-02
  10 F= -.26700399E+03 E0= -.26700399E+03  d E =-.366874E-03  mag=    20.0000
