       N       E                     dE             d eps       ncg     rms          rms(c)
DAV:   1     0.214130691263E+04    0.21413E+04   -0.98941E+04 68968   0.166E+03
DAV:   2     0.535215804886E+02   -0.20878E+04   -0.19771E+04 71528   0.481E+02
DAV:   3    -0.264314684507E+03   -0.31784E+03   -0.30495E+03 87328   0.183E+02
DAV:   4    -0.277692046086E+03   -0.13377E+02   -0.13316E+02 87320   0.384E+01
DAV:   5    -0.278679603960E+03   -0.98756E+00   -0.98703E+00123192   0.790E+00    0.611E+00
DAV:   6    -0.224272249876E+03    0.54407E+02   -0.22251E+01 74248   0.161E+01    0.477E+00
DAV:   7    -0.224005127064E+03    0.26712E+00   -0.11012E+00104776   0.456E+00    0.284E+00
DAV:   8    -0.223954150296E+03    0.50977E-01   -0.82415E-02 80160   0.106E+00    0.195E+00
DAV:   9    -0.223924847250E+03    0.29303E-01   -0.32359E-02 79536   0.578E-01    0.136E+00
DAV:  10    -0.223911867916E+03    0.12979E-01   -0.10218E-02 79760   0.326E-01    0.952E-01
DAV:  11    -0.223905734204E+03    0.61337E-02   -0.33704E-03 79856   0.182E-01    0.744E-01
DAV:  12    -0.223898678269E+03    0.70559E-02   -0.77805E-03 78288   0.279E-01    0.412E-01
DAV:  13    -0.223895330979E+03    0.33473E-02   -0.48440E-03 79632   0.219E-01    0.149E-01
DAV:  14    -0.223894586063E+03    0.74492E-03   -0.66917E-04 84840   0.801E-02    0.556E-02
DAV:  15    -0.223894397893E+03    0.18817E-03   -0.67650E-05 68136   0.266E-02    0.265E-02
DAV:  16    -0.223894337078E+03    0.60815E-04   -0.12338E-05 42056   0.132E-02    0.147E-02
DAV:  17    -0.223894307028E+03    0.30050E-04   -0.10318E-05 41368   0.117E-02    0.705E-03
DAV:  18    -0.223894300703E+03    0.63243E-05   -0.40536E-06 41344   0.852E-03
   1 F= -.22389430E+03 E0= -.22389430E+03  d E =-.223894E+03  mag=    -0.0000
