       N       E                     dE             d eps       ncg     rms          rms(c)
DAV:   1     0.640141723805E+04    0.64014E+04   -0.30087E+05 37424   0.170E+03
DAV:   2     0.355074489169E+03   -0.60463E+04   -0.56586E+04 35416   0.512E+02
DAV:   3    -0.296366172904E+03   -0.65144E+03   -0.63128E+03 37472   0.189E+02
DAV:   4    -0.315907395034E+03   -0.19541E+02   -0.19381E+02 38688   0.352E+01
DAV:   5    -0.316366120989E+03   -0.45873E+00   -0.45724E+00 45736   0.521E+00    0.879E+01
DAV:   6    -0.252175602594E+03    0.64191E+02   -0.67255E+02 43080   0.114E+02    0.213E+02
DAV:   7    -0.212173187250E+03    0.40002E+02   -0.12995E+02 41168   0.471E+01    0.942E+01
DAV:   8    -0.257272346236E+03   -0.45099E+02   -0.12981E+02 50280   0.869E+01    0.134E+02
DAV:   9    -0.208548833958E+03    0.48724E+02   -0.16525E+02 45832   0.600E+01    0.102E+02
DAV:  10    -0.182062084370E+03    0.26487E+02   -0.75592E+01 44640   0.428E+01    0.745E+01
DAV:  11    -0.220239057924E+03   -0.38177E+02   -0.13663E+02 41520   0.603E+01    0.128E+02
DAV:  12    -0.202558102636E+03    0.17681E+02   -0.84618E+01 44728   0.306E+01    0.101E+02
DAV:  13    -0.188628572836E+03    0.13930E+02   -0.36553E+01 38944   0.299E+01    0.649E+01
DAV:  14    -0.184455545950E+03    0.41730E+01   -0.17721E+01 42448   0.186E+01    0.469E+01
DAV:  15    -0.191059713601E+03   -0.66042E+01   -0.29912E+01 41520   0.221E+01    0.591E+01
DAV:  16    -0.198085458508E+03   -0.70257E+01   -0.32412E+01 40448   0.221E+01    0.485E+01
DAV:  17    -0.197325641662E+03    0.75982E+00   -0.92434E+00 40960   0.139E+01    0.317E+01
DAV:  18    -0.203802423759E+03   -0.64768E+01   -0.63753E+00 43896   0.121E+01    0.321E+01
DAV:  19    -0.210000344765E+03   -0.61979E+01   -0.11825E+01 42344   0.116E+01    0.273E+01
DAV:  20    -0.213695959601E+03   -0.36956E+01   -0.48927E+00 42256   0.106E+01    0.215E+01
DAV:  21    -0.218222063136E+03   -0.45261E+01   -0.47888E+00 42272   0.867E+00    0.178E+01
DAV:  22    -0.220627152827E+03   -0.24051E+01   -0.25970E+00 39960   0.605E+00    0.166E+01
DAV:  23    -0.221925291224E+03   -0.12981E+01   -0.83510E-01 41080   0.462E+00    0.146E+01
DAV:  24    -0.223750235398E+03   -0.18249E+01   -0.98676E-01 40768   0.432E+00    0.138E+01
DAV:  25    -0.225468575652E+03   -0.17183E+01   -0.17019E+00 41592   0.414E+00    0.156E+01
DAV:  26    -0.226265982749E+03   -0.79741E+00   -0.79433E-01 40288   0.261E+00    0.130E+01
DAV:  27    -0.226702652011E+03   -0.43667E+00   -0.11024E-01 39104   0.133E+00    0.131E+01
DAV:  28    -0.227571330208E+03   -0.86868E+00   -0.32331E-01 41384   0.317E+00    0.150E+01
DAV:  29    -0.228340545676E+03   -0.76922E+00   -0.51658E-01 39992   0.233E+00    0.160E+01
DAV:  30    -0.228375854190E+03   -0.35309E-01   -0.41117E-02 39056   0.824E-01    0.158E+01
DAV:  31    -0.228517462317E+03   -0.14161E+00   -0.62294E-02 40360   0.124E+00    0.143E+01
DAV:  32    -0.228652285014E+03   -0.13482E+00   -0.37330E-01 41040   0.279E+00    0.103E+01
DAV:  33    -0.228715378567E+03   -0.63094E-01   -0.27578E-01 42680   0.241E+00    0.890E+00
DAV:  34    -0.228706213627E+03    0.91649E-02   -0.73913E-02 41704   0.153E+00    0.826E+00
DAV:  35    -0.228750007640E+03   -0.43794E-01   -0.79280E-02 41680   0.166E+00    0.804E+00
DAV:  36    -0.228782822513E+03   -0.32815E-01   -0.73099E-02 41640   0.164E+00    0.735E+00
DAV:  37    -0.228829486111E+03   -0.46664E-01   -0.77835E-02 43424   0.138E+00    0.611E+00
DAV:  38    -0.228871326927E+03   -0.41841E-01   -0.72617E-02 41576   0.132E+00    0.553E+00
DAV:  39    -0.228900345903E+03   -0.29019E-01   -0.11146E-01 42288   0.130E+00    0.497E+00
DAV:  40    -0.228936495346E+03   -0.36149E-01   -0.33555E-02 40584   0.104E+00    0.565E+00
DAV:  41    -0.228931108226E+03    0.53871E-02   -0.88621E-03 35464   0.327E-01    0.634E+00
DAV:  42    -0.228967393861E+03   -0.36286E-01   -0.23116E-02 40152   0.640E-01    0.698E+00
DAV:  43    -0.228967312387E+03    0.81474E-04   -0.22767E-02 42864   0.720E-01    0.656E+00
DAV:  44    -0.228960456183E+03    0.68562E-02   -0.46609E-02 42208   0.602E-01    0.565E+00
DAV:  45    -0.228967761622E+03   -0.73054E-02   -0.11039E-02 43400   0.650E-01    0.538E+00
DAV:  46    -0.228967247210E+03    0.51441E-03   -0.68168E-03 44280   0.432E-01    0.549E+00
DAV:  47    -0.228964201102E+03    0.30461E-02   -0.30054E-03 44424   0.291E-01    0.516E+00
DAV:  48    -0.228958044749E+03    0.61564E-02   -0.51657E-03 45288   0.317E-01    0.452E+00
DAV:  49    -0.228951796264E+03    0.62485E-02   -0.38031E-03 45688   0.233E-01    0.378E+00
DAV:  50    -0.228952442370E+03   -0.64611E-03   -0.14813E-03 40448   0.146E-01    0.351E+00
DAV:  51    -0.228946922638E+03    0.55197E-02   -0.10120E-02 45976   0.549E-01    0.170E+00
DAV:  52    -0.228950934332E+03   -0.40117E-02   -0.51621E-03 36336   0.252E-01    0.117E+00
DAV:  53    -0.228953922024E+03   -0.29877E-02   -0.10785E-03 37136   0.112E-01    0.926E-01
DAV:  54    -0.228954974389E+03   -0.10524E-02   -0.17129E-04 34072   0.474E-02    0.842E-01
DAV:  55    -0.228955353937E+03   -0.37955E-03   -0.13753E-03 43928   0.198E-01    0.547E-01
DAV:  56    -0.228957269135E+03   -0.19152E-02   -0.93914E-03 44432   0.493E-01    0.128E+00
DAV:  57    -0.228956548116E+03    0.72102E-03   -0.32432E-03 42424   0.276E-01    0.163E+00
DAV:  58    -0.228955518835E+03    0.10293E-02   -0.99085E-04 42424   0.153E-01    0.177E+00
DAV:  59    -0.228953980205E+03    0.15386E-02   -0.84835E-04 44696   0.134E-01    0.171E+00
DAV:  60    -0.228953095258E+03    0.88495E-03   -0.52306E-04 45096   0.108E-01    0.141E+00
DAV:  61    -0.228953672916E+03   -0.57766E-03   -0.41340E-04 41016   0.821E-02    0.117E+00
DAV:  62    -0.228953955797E+03   -0.28288E-03   -0.31043E-04 40152   0.979E-02    0.935E-01
DAV:  63    -0.228954483096E+03   -0.52730E-03   -0.45522E-04 40048   0.933E-02    0.722E-01
DAV:  64    -0.228954950392E+03   -0.46730E-03   -0.26284E-04 40856   0.562E-02    0.621E-01
DAV:  65    -0.228955178536E+03   -0.22814E-03   -0.19974E-04 35880   0.451E-02    0.499E-01
DAV:  66    -0.228955343359E+03   -0.16482E-03   -0.14096E-04 37016   0.430E-02    0.366E-01
DAV:  67    -0.228955468446E+03   -0.12509E-03   -0.64551E-05 31544   0.318E-02    0.268E-01
DAV:  68    -0.228955579665E+03   -0.11122E-03   -0.47979E-05 29616   0.241E-02    0.193E-01
DAV:  69    -0.228955657733E+03   -0.78068E-04   -0.78067E-05 32576   0.328E-02    0.961E-02
DAV:  70    -0.228955692226E+03   -0.34493E-04   -0.28858E-05 28088   0.178E-02    0.502E-02
DAV:  71    -0.228955704195E+03   -0.11969E-04   -0.92200E-06 21008   0.133E-02    0.209E-02
DAV:  72    -0.228955707865E+03   -0.36694E-05   -0.52359E-06 19896   0.104E-02
   1 F= -.22895571E+03 E0= -.22893885E+03  d E =-.228956E+03  mag=     8.9610
       N       E                     dE             d eps       ncg     rms          rms(c)
DAV:   1    -0.228967866534E+03   -0.12162E-01   -0.35655E-03 33312   0.184E-01    0.468E-02
DAV:   2    -0.228968080502E+03   -0.21397E-03   -0.38793E-04 37384   0.105E-01    0.455E-01
DAV:   3    -0.228967742034E+03    0.33847E-03   -0.23398E-04 34432   0.108E-01    0.670E-02
DAV:   4    -0.228967875535E+03   -0.13350E-03   -0.86253E-05 25840   0.457E-02    0.381E-02
DAV:   5    -0.228967887191E+03   -0.11656E-04   -0.18970E-05 21192   0.242E-02    0.251E-02
DAV:   6    -0.228967887771E+03   -0.58016E-06   -0.74173E-06 18984   0.155E-02
   2 F= -.22896789E+03 E0= -.22895101E+03  d E =-.121799E-01  mag=     8.9615
       N       E                     dE             d eps       ncg     rms          rms(c)
DAV:   1    -0.229227399301E+03   -0.25951E+00   -0.19694E+00 33992   0.431E+00    0.381E-01
DAV:   2    -0.229239085648E+03   -0.11686E-01   -0.12869E-01 36376   0.862E-01    0.623E-01
DAV:   3    -0.229239789761E+03   -0.70411E-03   -0.89769E-03 45040   0.523E-01    0.102E+00
DAV:   4    -0.229238980335E+03    0.80943E-03   -0.27555E-03 38912   0.365E-01    0.913E-01
DAV:   5    -0.229238105007E+03    0.87533E-03   -0.33017E-03 37880   0.313E-01    0.180E-01
DAV:   6    -0.229238657909E+03   -0.55290E-03   -0.11621E-03 39824   0.254E-01    0.385E-01
DAV:   7    -0.229238338446E+03    0.31946E-03   -0.12375E-03 43264   0.241E-01    0.191E-01
DAV:   8    -0.229238347533E+03   -0.90875E-05   -0.44426E-04 41824   0.159E-01    0.175E-01
DAV:   9    -0.229238352272E+03   -0.47387E-05   -0.16976E-04 39096   0.115E-01    0.215E-01
DAV:  10    -0.229238296672E+03    0.55600E-04   -0.81459E-05 28288   0.645E-02    0.174E-01
DAV:  11    -0.229238278317E+03    0.18356E-04   -0.31416E-05 23592   0.395E-02    0.963E-02
DAV:  12    -0.229238299156E+03   -0.20839E-04   -0.25964E-05 22464   0.309E-02    0.455E-02
DAV:  13    -0.229238324446E+03   -0.25290E-04   -0.37229E-05 23032   0.373E-02    0.864E-02
DAV:  14    -0.229238321106E+03    0.33393E-05   -0.17448E-05 20616   0.226E-02
   3 F= -.22923832E+03 E0= -.22922149E+03  d E =-.270433E+00  mag=     8.9640
       N       E                     dE             d eps       ncg     rms          rms(c)
DAV:   1    -0.229792198906E+03   -0.55387E+00   -0.17091E+01 34096   0.131E+01    0.111E+00
DAV:   2    -0.229903684343E+03   -0.11149E+00   -0.12109E+00 36312   0.257E+00    0.174E+00
DAV:   3    -0.229919377336E+03   -0.15693E-01   -0.98461E-02 45280   0.156E+00    0.420E+00
DAV:   4    -0.229899388915E+03    0.19988E-01   -0.26731E-02 38984   0.117E+00    0.198E+00
DAV:   5    -0.229898004959E+03    0.13840E-02   -0.19816E-02 38072   0.870E-01    0.560E-01
DAV:   6    -0.229900787394E+03   -0.27824E-02   -0.10942E-02 43296   0.632E-01    0.108E+00
DAV:   7    -0.229898649028E+03    0.21384E-02   -0.10798E-02 44544   0.659E-01    0.753E-01
DAV:   8    -0.229899604105E+03   -0.95508E-03   -0.34193E-03 43128   0.480E-01    0.133E+00
DAV:   9    -0.229898598689E+03    0.10054E-02   -0.16353E-03 42512   0.283E-01    0.148E+00
DAV:  10    -0.229897424067E+03    0.11746E-02   -0.34180E-04 40776   0.955E-02    0.144E+00
DAV:  11    -0.229897451928E+03   -0.27861E-04   -0.48811E-05 30600   0.332E-02    0.156E+00
DAV:  12    -0.229895682910E+03    0.17690E-02   -0.18223E-03 42440   0.278E-01    0.474E-01
DAV:  13    -0.229898170554E+03   -0.24876E-02   -0.21653E-03 39512   0.295E-01    0.740E-01
DAV:  14    -0.229898255650E+03   -0.85096E-04   -0.12828E-03 40688   0.194E-01    0.763E-01
DAV:  15    -0.229897493751E+03    0.76190E-03   -0.35656E-04 43128   0.904E-02    0.561E-01
DAV:  16    -0.229897661807E+03   -0.16806E-03   -0.70797E-05 30064   0.353E-02    0.517E-01
DAV:  17    -0.229897715231E+03   -0.53424E-04   -0.33832E-05 23424   0.332E-02    0.427E-01
DAV:  18    -0.229897824036E+03   -0.10880E-03   -0.45319E-05 28064   0.415E-02    0.356E-01
DAV:  19    -0.229897932080E+03   -0.10804E-03   -0.29786E-05 26288   0.308E-02    0.372E-01
DAV:  20    -0.229898035956E+03   -0.10388E-03   -0.84727E-05 31016   0.546E-02    0.271E-01
DAV:  21    -0.229898203881E+03   -0.16792E-03   -0.21187E-04 42176   0.860E-02    0.345E-01
DAV:  22    -0.229898144179E+03    0.59702E-04   -0.17800E-04 39168   0.800E-02    0.317E-01
DAV:  23    -0.229898058993E+03    0.85186E-04   -0.77423E-05 34344   0.623E-02    0.154E-01
DAV:  24    -0.229898119480E+03   -0.60487E-04   -0.42279E-05 27976   0.544E-02    0.793E-02
DAV:  25    -0.229898146187E+03   -0.26707E-04   -0.25622E-05 22632   0.340E-02    0.454E-02
DAV:  26    -0.229898151135E+03   -0.49483E-05   -0.13673E-05 21096   0.215E-02
   4 F= -.22989815E+03 E0= -.22988149E+03  d E =-.659830E+00  mag=     8.9699
       N       E                     dE             d eps       ncg     rms          rms(c)
DAV:   1    -0.230269524653E+03   -0.37138E+00   -0.32664E+01 34488   0.204E+01    0.158E+00
DAV:   2    -0.230524899064E+03   -0.25537E+00   -0.27246E+00 35976   0.396E+00    0.201E+00
DAV:   3    -0.230542135275E+03   -0.17236E-01   -0.17754E-01 44072   0.222E+00    0.370E+00
DAV:   4    -0.230519775317E+03    0.22360E-01   -0.44357E-02 38032   0.148E+00    0.226E+00
DAV:   5    -0.230518010940E+03    0.17644E-02   -0.19327E-02 38232   0.793E-01    0.100E+00
DAV:   6    -0.230521406539E+03   -0.33956E-02   -0.17134E-02 40792   0.910E-01    0.133E+00
DAV:   7    -0.230517564245E+03    0.38423E-02   -0.11687E-02 43672   0.794E-01    0.755E-01
DAV:   8    -0.230517883030E+03   -0.31878E-03   -0.79618E-03 44368   0.591E-01    0.734E-01
DAV:   9    -0.230517225131E+03    0.65790E-03   -0.40719E-03 43704   0.533E-01    0.463E-01
DAV:  10    -0.230517285929E+03   -0.60798E-04   -0.16756E-03 41464   0.253E-01    0.547E-01
DAV:  11    -0.230517108368E+03    0.17756E-03   -0.45225E-04 42816   0.133E-01    0.588E-01
DAV:  12    -0.230516891486E+03    0.21688E-03   -0.14801E-04 37624   0.701E-02    0.520E-01
DAV:  13    -0.230516851527E+03    0.39960E-04   -0.13647E-04 29760   0.605E-02    0.440E-01
DAV:  14    -0.230516882495E+03   -0.30968E-04   -0.82035E-05 23800   0.394E-02    0.376E-01
DAV:  15    -0.230516950341E+03   -0.67846E-04   -0.19537E-05 21952   0.199E-02    0.372E-01
DAV:  16    -0.230516937894E+03    0.12447E-04   -0.24938E-05 23056   0.401E-02    0.269E-01
DAV:  17    -0.230517081422E+03   -0.14353E-03   -0.29322E-04 40944   0.104E-01    0.416E-01
DAV:  18    -0.230517144362E+03   -0.62939E-04   -0.22936E-04 39384   0.893E-02    0.548E-01
DAV:  19    -0.230516870279E+03    0.27408E-03   -0.72511E-05 33288   0.419E-02    0.544E-01
DAV:  20    -0.230516724651E+03    0.14563E-03   -0.13619E-05 24032   0.214E-02    0.485E-01
DAV:  21    -0.230516736787E+03   -0.12136E-04   -0.21251E-05 22320   0.239E-02    0.418E-01
DAV:  22    -0.230516830438E+03   -0.93651E-04   -0.12497E-05 23840   0.142E-02    0.408E-01
DAV:  23    -0.230516873123E+03   -0.42685E-04   -0.30958E-06 19336   0.839E-03    0.383E-01
DAV:  24    -0.230516913064E+03   -0.39941E-04   -0.60264E-05 29528   0.512E-02    0.261E-01
DAV:  25    -0.230516985626E+03   -0.72562E-04   -0.15325E-04 39992   0.740E-02    0.986E-02
DAV:  26    -0.230517069869E+03   -0.84243E-04   -0.64448E-05 32224   0.448E-02    0.116E-01
DAV:  27    -0.230517081352E+03   -0.11483E-04   -0.28129E-05 26168   0.381E-02    0.161E-01
DAV:  28    -0.230517052063E+03    0.29290E-04   -0.13277E-05 21760   0.296E-02    0.124E-01
DAV:  29    -0.230517050639E+03    0.14239E-05   -0.11167E-05 21632   0.199E-02
   5 F= -.23051705E+03 E0= -.23050061E+03  d E =-.618900E+00  mag=     8.9808
       N       E                     dE             d eps       ncg     rms          rms(c)
DAV:   1    -0.230295292287E+03    0.22176E+00   -0.65570E+01 35520   0.346E+01    0.254E+00
DAV:   2    -0.231034362178E+03   -0.73907E+00   -0.75549E+00 35528   0.693E+00    0.503E+00
DAV:   3    -0.231088617294E+03   -0.54255E-01   -0.80621E-01 43216   0.372E+00    0.655E+00
DAV:   4    -0.231014876304E+03    0.73741E-01   -0.18532E-01 38824   0.274E+00    0.303E+00
DAV:   5    -0.231011828616E+03    0.30477E-02   -0.86864E-02 38856   0.171E+00    0.228E+00
DAV:   6    -0.231010345978E+03    0.14826E-02   -0.29731E-02 42376   0.974E-01    0.182E+00
DAV:   7    -0.231009333017E+03    0.10130E-02   -0.28322E-02 44056   0.917E-01    0.143E+00
DAV:   8    -0.231017477043E+03   -0.81440E-02   -0.13012E-02 41784   0.826E-01    0.322E+00
DAV:   9    -0.231013604675E+03    0.38724E-02   -0.79757E-03 40344   0.700E-01    0.335E+00
DAV:  10    -0.231004232299E+03    0.93724E-02   -0.43042E-03 43144   0.453E-01    0.238E+00
DAV:  11    -0.231003520278E+03    0.71202E-03   -0.62836E-03 42504   0.477E-01    0.146E+00
DAV:  12    -0.231005651674E+03   -0.21314E-02   -0.47473E-03 42240   0.461E-01    0.688E-01
DAV:  13    -0.231010154149E+03   -0.45025E-02   -0.55068E-03 39720   0.511E-01    0.140E+00
DAV:  14    -0.231008278135E+03    0.18760E-02   -0.31317E-03 41048   0.372E-01    0.147E+00
DAV:  15    -0.231005648906E+03    0.26292E-02   -0.12525E-03 44424   0.191E-01    0.840E-01
DAV:  16    -0.231006889442E+03   -0.12405E-02   -0.72973E-04 43032   0.175E-01    0.380E-01
DAV:  17    -0.231008104385E+03   -0.12149E-02   -0.43340E-04 38560   0.118E-01    0.234E-01
DAV:  18    -0.231008464277E+03   -0.35989E-03   -0.16091E-04 33768   0.659E-02    0.242E-01
DAV:  19    -0.231008476421E+03   -0.12144E-04   -0.28199E-05 28152   0.211E-02    0.304E-01
DAV:  20    -0.231008343644E+03    0.13278E-03   -0.12321E-04 30520   0.551E-02    0.199E-01
DAV:  21    -0.231008409709E+03   -0.66065E-04   -0.27195E-04 33664   0.832E-02    0.215E-01
DAV:  22    -0.231008456461E+03   -0.46752E-04   -0.14244E-04 28472   0.658E-02    0.318E-01
DAV:  23    -0.231008374131E+03    0.82331E-04   -0.52089E-05 24496   0.410E-02    0.236E-01
DAV:  24    -0.231008382483E+03   -0.83524E-05   -0.15734E-05 22416   0.237E-02
   6 F= -.23100838E+03 E0= -.23099220E+03  d E =-.491332E+00  mag=     8.9943
       N       E                     dE             d eps       ncg     rms          rms(c)
DAV:   1    -0.229859764114E+03    0.11486E+01   -0.10269E+02 35552   0.485E+01    0.378E+00
DAV:   2    -0.231381037254E+03   -0.15213E+01   -0.15171E+01 35280   0.101E+01    0.846E+00
DAV:   3    -0.231466271248E+03   -0.85234E-01   -0.27335E+00 44112   0.554E+00    0.767E+00
DAV:   4    -0.231339602933E+03    0.12667E+00   -0.44310E-01 38848   0.413E+00    0.392E+00
DAV:   5    -0.231325281911E+03    0.14321E-01   -0.15147E-01 39448   0.249E+00    0.380E+00
DAV:   6    -0.231316312557E+03    0.89694E-02   -0.38358E-02 43472   0.108E+00    0.269E+00
DAV:   7    -0.231313600383E+03    0.27122E-02   -0.25804E-02 42976   0.109E+00    0.135E+00
DAV:   8    -0.231328406671E+03   -0.14806E-01   -0.22779E-02 42104   0.112E+00    0.371E+00
DAV:   9    -0.231325550314E+03    0.28564E-02   -0.13412E-02 40472   0.848E-01    0.372E+00
DAV:  10    -0.231319123272E+03    0.64270E-02   -0.40009E-03 41648   0.372E-01    0.354E+00
DAV:  11    -0.231317473424E+03    0.16498E-02   -0.12995E-03 41152   0.195E-01    0.369E+00
DAV:  12    -0.231316289823E+03    0.11836E-02   -0.23575E-04 34776   0.701E-02    0.376E+00
DAV:  13    -0.231309818784E+03    0.64710E-02   -0.24696E-03 46536   0.334E-01    0.235E+00
DAV:  14    -0.231314138035E+03   -0.43193E-02   -0.21383E-02 42280   0.974E-01    0.144E+00
DAV:  15    -0.231316692650E+03   -0.25546E-02   -0.13816E-02 42672   0.701E-01    0.109E+00
DAV:  16    -0.231317850689E+03   -0.11580E-02   -0.61011E-03 40408   0.512E-01    0.107E+00
DAV:  17    -0.231316723505E+03    0.11272E-02   -0.21155E-03 44120   0.237E-01    0.874E-01
DAV:  18    -0.231316786462E+03   -0.62957E-04   -0.56589E-04 43208   0.124E-01    0.892E-01
DAV:  19    -0.231317095118E+03   -0.30866E-03   -0.14098E-04 33448   0.467E-02    0.906E-01
DAV:  20    -0.231317134548E+03   -0.39431E-04   -0.54488E-05 29104   0.430E-02    0.954E-01
DAV:  21    -0.231317702039E+03   -0.56749E-03   -0.82578E-04 43136   0.162E-01    0.953E-01
DAV:  22    -0.231317560737E+03    0.14130E-03   -0.29106E-03 43832   0.262E-01    0.648E-01
DAV:  23    -0.231317748477E+03   -0.18774E-03   -0.13096E-03 44904   0.231E-01    0.250E-01
DAV:  24    -0.231318073202E+03   -0.32473E-03   -0.63818E-04 41440   0.196E-01    0.258E-01
DAV:  25    -0.231317994771E+03    0.78432E-04   -0.25678E-04 39664   0.128E-01    0.247E-01
DAV:  26    -0.231317961960E+03    0.32811E-04   -0.12454E-04 37120   0.582E-02    0.147E-01
DAV:  27    -0.231317991767E+03   -0.29807E-04   -0.55628E-05 32152   0.434E-02    0.934E-02
DAV:  28    -0.231318004745E+03   -0.12978E-04   -0.23598E-05 24048   0.379E-02    0.373E-02
DAV:  29    -0.231318016773E+03   -0.12028E-04   -0.12840E-05 21184   0.207E-02    0.451E-02
DAV:  30    -0.231318018530E+03   -0.17574E-05   -0.66413E-06 20048   0.137E-02
   7 F= -.23131802E+03 E0= -.23130207E+03  d E =-.309636E+00  mag=     9.0099
       N       E                     dE             d eps       ncg     rms          rms(c)
DAV:   1    -0.229928592324E+03    0.13894E+01   -0.14315E+02 33864   0.509E+01    0.411E+00
DAV:   2    -0.231584080455E+03   -0.16555E+01   -0.16187E+01 35440   0.110E+01    0.104E+01
DAV:   3    -0.231598742932E+03   -0.14662E-01   -0.27152E+00 41776   0.599E+00    0.754E+00
DAV:   4    -0.231519048870E+03    0.79694E-01   -0.50438E-01 37840   0.450E+00    0.526E+00
DAV:   5    -0.231481620647E+03    0.37428E-01   -0.20732E-01 39072   0.289E+00    0.405E+00
DAV:   6    -0.231479169342E+03    0.24513E-02   -0.48556E-02 42344   0.130E+00    0.369E+00
DAV:   7    -0.231470761615E+03    0.84077E-02   -0.93607E-02 42200   0.139E+00    0.200E+00
DAV:   8    -0.231498583159E+03   -0.27822E-01   -0.34974E-02 41856   0.147E+00    0.550E+00
DAV:   9    -0.231492528813E+03    0.60543E-02   -0.21759E-02 41072   0.111E+00    0.543E+00
DAV:  10    -0.231476181541E+03    0.16347E-01   -0.81740E-03 40672   0.580E-01    0.455E+00
DAV:  11    -0.231471642859E+03    0.45387E-02   -0.26105E-03 39392   0.223E-01    0.457E+00
DAV:  12    -0.231463418425E+03    0.82244E-02   -0.16677E-03 42512   0.302E-01    0.434E+00
DAV:  13    -0.231465670080E+03   -0.22517E-02   -0.45183E-04 43384   0.120E-01    0.454E+00
DAV:  14    -0.231466085212E+03   -0.41513E-03   -0.73813E-03 42664   0.494E-01    0.409E+00
DAV:  15    -0.231465362202E+03    0.72301E-03   -0.11288E-02 44312   0.613E-01    0.295E+00
DAV:  16    -0.231468759518E+03   -0.33973E-02   -0.96629E-03 42232   0.743E-01    0.200E+00
DAV:  17    -0.231470208615E+03   -0.14491E-02   -0.80443E-03 42736   0.690E-01    0.104E+00
DAV:  18    -0.231473366154E+03   -0.31575E-02   -0.77952E-03 41632   0.502E-01    0.796E-01
DAV:  19    -0.231475390481E+03   -0.20243E-02   -0.38503E-03 40912   0.375E-01    0.140E+00
DAV:  20    -0.231473037533E+03    0.23529E-02   -0.14154E-03 35832   0.154E-01    0.159E+00
DAV:  21    -0.231472322502E+03    0.71503E-03   -0.35055E-04 40320   0.898E-02    0.189E+00
DAV:  22    -0.231471197272E+03    0.11252E-02   -0.19316E-04 36312   0.544E-02    0.205E+00
DAV:  23    -0.231470090009E+03    0.11073E-02   -0.23825E-04 42168   0.115E-01    0.186E+00
DAV:  24    -0.231469897973E+03    0.19204E-03   -0.10241E-03 44432   0.172E-01    0.126E+00
DAV:  25    -0.231471413495E+03   -0.15155E-02   -0.14672E-03 42904   0.196E-01    0.575E-01
DAV:  26    -0.231473653974E+03   -0.22405E-02   -0.11223E-03 39920   0.170E-01    0.185E-01
DAV:  27    -0.231474497906E+03   -0.84393E-03   -0.43449E-04 41344   0.905E-02    0.311E-01
DAV:  28    -0.231474507935E+03   -0.10029E-04   -0.14406E-04 34880   0.747E-02    0.247E-01
DAV:  29    -0.231474464038E+03    0.43897E-04   -0.47232E-05 33232   0.474E-02    0.199E-01
DAV:  30    -0.231474472698E+03   -0.86602E-05   -0.26564E-05 23432   0.354E-02
   8 F= -.23147447E+03 E0= -.23145905E+03  d E =-.156454E+00  mag=     9.0311
       N       E                     dE             d eps       ncg     rms          rms(c)
DAV:   1    -0.228289063205E+03    0.31854E+01   -0.22626E+02 34168   0.724E+01    0.678E+00
DAV:   2    -0.231739716351E+03   -0.34507E+01   -0.33966E+01 35640   0.164E+01    0.135E+01
DAV:   3    -0.231929715590E+03   -0.19000E+00   -0.67962E+00 42704   0.107E+01    0.112E+01
DAV:   4    -0.231578307290E+03    0.35141E+00   -0.64304E-01 38512   0.699E+00    0.520E+00
DAV:   5    -0.231583122030E+03   -0.48147E-02   -0.34726E-01 39000   0.384E+00    0.614E+00
DAV:   6    -0.231542591204E+03    0.40531E-01   -0.94434E-02 43048   0.168E+00    0.394E+00
DAV:   7    -0.231538957715E+03    0.36335E-02   -0.60214E-02 41848   0.167E+00    0.272E+00
DAV:   8    -0.231567603526E+03   -0.28646E-01   -0.51617E-02 42080   0.186E+00    0.633E+00
DAV:   9    -0.231552271034E+03    0.15332E-01   -0.27995E-02 41104   0.120E+00    0.549E+00
DAV:  10    -0.231527111634E+03    0.25159E-01   -0.33327E-02 42536   0.136E+00    0.155E+00
DAV:  11    -0.231545052493E+03   -0.17941E-01   -0.17898E-02 40272   0.109E+00    0.165E+00
DAV:  12    -0.231544395583E+03    0.65691E-03   -0.47326E-03 41456   0.493E-01    0.191E+00
DAV:  13    -0.231543796228E+03    0.59935E-03   -0.34471E-03 41000   0.334E-01    0.259E+00
DAV:  14    -0.231542048417E+03    0.17478E-02   -0.85437E-04 36552   0.108E-01    0.284E+00
DAV:  15    -0.231542980029E+03   -0.93161E-03   -0.49755E-03 42440   0.530E-01    0.413E+00
DAV:  16    -0.231533761045E+03    0.92190E-02   -0.20911E-03 40264   0.229E-01    0.457E+00
DAV:  17    -0.231523340325E+03    0.10421E-01   -0.73914E-03 46344   0.596E-01    0.234E+00
DAV:  18    -0.231538056070E+03   -0.14716E-01   -0.12152E-02 42328   0.714E-01    0.138E+00
DAV:  19    -0.231543739325E+03   -0.56833E-02   -0.10418E-02 40000   0.682E-01    0.128E+00
DAV:  20    -0.231543117071E+03    0.62225E-03   -0.62081E-03 43480   0.450E-01    0.147E+00
DAV:  21    -0.231540110730E+03    0.30063E-02   -0.40167E-03 43008   0.374E-01    0.145E+00
DAV:  22    -0.231541030141E+03   -0.91941E-03   -0.18526E-03 44384   0.262E-01    0.250E+00
DAV:  23    -0.231538644850E+03    0.23853E-02   -0.14828E-03 36936   0.181E-01    0.291E+00
DAV:  24    -0.231536525959E+03    0.21189E-02   -0.39492E-04 36888   0.872E-02    0.298E+00
DAV:  25    -0.231535416667E+03    0.11093E-02   -0.67697E-05 35952   0.375E-02    0.292E+00
DAV:  26    -0.231535634832E+03   -0.21817E-03   -0.57603E-05 32424   0.428E-02    0.306E+00
DAV:  27    -0.231533285003E+03    0.23498E-02   -0.75198E-04 45304   0.190E-01    0.221E+00
DAV:  28    -0.231534379344E+03   -0.10943E-02   -0.14984E-03 43744   0.242E-01    0.124E+00
DAV:  29    -0.231538764487E+03   -0.43851E-02   -0.10482E-03 35744   0.189E-01    0.130E+00
DAV:  30    -0.231540286389E+03   -0.15219E-02   -0.27103E-04 43792   0.848E-02    0.156E+00
DAV:  31    -0.231540243891E+03    0.42497E-04   -0.10877E-04 38408   0.510E-02    0.173E+00
DAV:  32    -0.231539726670E+03    0.51722E-03   -0.86639E-05 37200   0.582E-02    0.174E+00
DAV:  33    -0.231539565966E+03    0.16070E-03   -0.53237E-05 35408   0.420E-02    0.169E+00
DAV:  34    -0.231539467617E+03    0.98349E-04   -0.28016E-05 25888   0.311E-02    0.153E+00
DAV:  35    -0.231539569022E+03   -0.10140E-03   -0.64222E-05 34872   0.474E-02    0.125E+00
DAV:  36    -0.231540572643E+03   -0.10036E-02   -0.15246E-04 38680   0.583E-02    0.929E-01
DAV:  37    -0.231541796580E+03   -0.12239E-02   -0.17207E-04 37712   0.603E-02    0.584E-01
DAV:  38    -0.231542848992E+03   -0.10524E-02   -0.13066E-04 33888   0.514E-02    0.346E-01
DAV:  39    -0.231543465795E+03   -0.61680E-03   -0.71312E-05 31208   0.373E-02    0.214E-01
DAV:  40    -0.231543708662E+03   -0.24287E-03   -0.26117E-05 26600   0.214E-02    0.175E-01
DAV:  41    -0.231543791165E+03   -0.82503E-04   -0.72132E-06 21056   0.125E-02    0.122E-01
DAV:  42    -0.231543833757E+03   -0.42592E-04   -0.55949E-06 20400   0.104E-02    0.632E-02
DAV:  43    -0.231543862537E+03   -0.28780E-04   -0.42991E-06 20224   0.992E-03    0.301E-02
DAV:  44    -0.231543873496E+03   -0.10959E-04   -0.30190E-06 19648   0.664E-03    0.127E-02
DAV:  45    -0.231543876650E+03   -0.31536E-05   -0.10799E-06 18200   0.361E-03
   9 F= -.23154388E+03 E0= -.23152917E+03  d E =-.694040E-01  mag=     9.0551
       N       E                     dE             d eps       ncg     rms          rms(c)
DAV:   1    -0.229979100054E+03    0.15648E+01   -0.12493E+02 33776   0.549E+01    0.396E+00
DAV:   2    -0.231618407987E+03   -0.16393E+01   -0.16755E+01 35248   0.114E+01    0.518E+00
DAV:   3    -0.231730388670E+03   -0.11198E+00   -0.94237E-01 41224   0.637E+00    0.898E+00
DAV:   4    -0.231624947834E+03    0.10544E+00   -0.20321E-01 38192   0.403E+00    0.631E+00
DAV:   5    -0.231583375773E+03    0.41572E-01   -0.84580E-02 37920   0.217E+00    0.160E+00
DAV:   6    -0.231597897029E+03   -0.14521E-01   -0.43995E-02 40456   0.134E+00    0.196E+00
DAV:   7    -0.231593482926E+03    0.44141E-02   -0.25993E-02 41264   0.107E+00    0.135E+00
DAV:   8    -0.231596250200E+03   -0.27673E-02   -0.18030E-02 42056   0.114E+00    0.156E+00
DAV:   9    -0.231597852539E+03   -0.16023E-02   -0.13182E-02 43744   0.917E-01    0.244E+00
DAV:  10    -0.231596140232E+03    0.17123E-02   -0.45624E-03 39912   0.388E-01    0.282E+00
DAV:  11    -0.231594312663E+03    0.18276E-02   -0.92878E-04 37496   0.118E-01    0.308E+00
DAV:  12    -0.231593196250E+03    0.11164E-02   -0.16349E-03 43144   0.271E-01    0.334E+00
DAV:  13    -0.231591321523E+03    0.18747E-02   -0.30091E-03 42696   0.377E-01    0.340E+00
DAV:  14    -0.231593067917E+03   -0.17464E-02   -0.32287E-03 42920   0.364E-01    0.380E+00
DAV:  15    -0.231598437383E+03   -0.53695E-02   -0.18058E-03 44408   0.341E-01    0.476E+00
DAV:  16    -0.231593606357E+03    0.48310E-02   -0.69029E-04 34632   0.104E-01    0.493E+00
DAV:  17    -0.231593148675E+03    0.45768E-03   -0.17099E-04 38936   0.764E-02    0.520E+00
DAV:  18    -0.231591499199E+03    0.16495E-02   -0.15659E-04 39600   0.691E-02    0.532E+00
DAV:  19    -0.231589627086E+03    0.18721E-02   -0.36435E-05 29672   0.357E-02    0.529E+00
DAV:  20    -0.231589050985E+03    0.57610E-03   -0.75361E-06 20440   0.154E-02    0.527E+00
DAV:  21    -0.231590219461E+03   -0.11685E-02   -0.22204E-05 24160   0.406E-02    0.538E+00
DAV:  22    -0.231594218227E+03   -0.39988E-02   -0.39162E-04 46528   0.144E-01    0.580E+00
DAV:  23    -0.231598656105E+03   -0.44379E-02   -0.14770E-03 45640   0.236E-01    0.641E+00
DAV:  24    -0.231590847104E+03    0.78090E-02   -0.74793E-04 42672   0.169E-01    0.615E+00
DAV:  25    -0.231590972779E+03   -0.12567E-03   -0.27814E-04 41080   0.103E-01    0.621E+00
DAV:  26    -0.231591178235E+03   -0.20546E-03   -0.73754E-05 30512   0.214E-02    0.623E+00
DAV:  27    -0.231593848557E+03   -0.26703E-02   -0.17163E-04 43296   0.849E-02    0.649E+00
DAV:  28    -0.231594032042E+03   -0.18349E-03   -0.85525E-04 44104   0.155E-01    0.689E+00
DAV:  29    -0.231594421296E+03   -0.38925E-03   -0.24875E-04 40992   0.493E-02    0.702E+00
DAV:  30    -0.231588463913E+03    0.59574E-02   -0.13201E-04 38832   0.845E-02    0.684E+00
DAV:  31    -0.231585857310E+03    0.26066E-02   -0.11328E-04 39488   0.449E-02    0.678E+00
DAV:  32    -0.231585797931E+03    0.59379E-04   -0.17436E-05 25768   0.153E-02    0.676E+00
DAV:  33    -0.231587496000E+03   -0.16981E-02   -0.64595E-05 33280   0.419E-02    0.672E+00
DAV:  34    -0.231587735303E+03   -0.23930E-03   -0.20606E-05 26264   0.116E-02    0.671E+00
DAV:  35    -0.231587622948E+03    0.11236E-03   -0.13441E-04 42016   0.768E-02    0.651E+00
DAV:  36    -0.231591170375E+03   -0.35474E-02   -0.14416E-04 43168   0.545E-02    0.651E+00
DAV:  37    -0.231594874041E+03   -0.37037E-02   -0.74180E-04 43344   0.163E-01    0.625E+00
DAV:  38    -0.231594298217E+03    0.57582E-03   -0.15595E-04 37344   0.517E-02    0.630E+00
DAV:  39    -0.231593393435E+03    0.90478E-03   -0.19891E-05 24968   0.175E-02    0.630E+00
DAV:  40    -0.231592963976E+03    0.42946E-03   -0.30166E-05 27880   0.383E-02    0.620E+00
DAV:  41    -0.231593365930E+03   -0.40195E-03   -0.23710E-04 41744   0.983E-02    0.646E+00
DAV:  42    -0.231594212997E+03   -0.84707E-03   -0.98139E-05 40944   0.369E-02    0.658E+00
DAV:  43    -0.231595925845E+03   -0.17128E-02   -0.24536E-04 44216   0.956E-02    0.693E+00
DAV:  44    -0.231594515307E+03    0.14105E-02   -0.21921E-04 41880   0.917E-02    0.680E+00
DAV:  45    -0.231588815560E+03    0.56997E-02   -0.49326E-04 47568   0.144E-01    0.627E+00
DAV:  46    -0.231605585675E+03   -0.16770E-01   -0.22409E-03 46192   0.302E-01    0.699E+00
DAV:  47    -0.231619233445E+03   -0.13648E-01   -0.38515E-03 47064   0.325E-01    0.861E+00
DAV:  48    -0.231619923195E+03   -0.68975E-03   -0.16430E-03 35752   0.162E-01    0.914E+00
DAV:  49    -0.231618436685E+03    0.14865E-02   -0.40902E-04 36960   0.762E-02    0.948E+00
DAV:  50    -0.231616667726E+03    0.17690E-02   -0.14221E-04 33448   0.453E-02    0.966E+00
DAV:  51    -0.231615719604E+03    0.94812E-03   -0.56820E-05 28464   0.263E-02    0.978E+00
DAV:  52    -0.231564031373E+03    0.51688E-01   -0.71439E-02 43688   0.163E+00    0.916E+00
DAV:  53    -0.231575068196E+03   -0.11037E-01   -0.19472E-02 39440   0.481E-01    0.845E+00
DAV:  54    -0.231571993042E+03    0.30752E-02   -0.12436E-02 43544   0.442E-01    0.869E+00
DAV:  55    -0.231552683124E+03    0.19310E-01   -0.65692E-03 43816   0.311E-01    0.780E+00
DAV:  56    -0.231542131005E+03    0.10552E-01   -0.41711E-03 45456   0.351E-01    0.637E+00
DAV:  57    -0.231576488806E+03   -0.34358E-01   -0.75478E-03 43080   0.541E-01    0.786E+00
DAV:  58    -0.231568471105E+03    0.80177E-02   -0.17517E-03 36000   0.126E-01    0.811E+00
DAV:  59    -0.231563969959E+03    0.45011E-02   -0.36584E-04 37864   0.467E-02    0.827E+00
DAV:  60    -0.231560897725E+03    0.30722E-02   -0.21620E-03 43976   0.212E-01    0.799E+00
DAV:  61    -0.231563601688E+03   -0.27040E-02   -0.88555E-03 45744   0.348E-01    0.741E+00
DAV:  62    -0.231558459761E+03    0.51419E-02   -0.12770E-02 45744   0.411E-01    0.565E+00
DAV:  63    -0.231570593622E+03   -0.12134E-01   -0.51458E-03 37776   0.209E-01    0.509E+00
DAV:  64    -0.231573713894E+03   -0.31203E-02   -0.36618E-03 44240   0.187E-01    0.420E+00
DAV:  65    -0.231576904913E+03   -0.31910E-02   -0.35533E-03 42608   0.155E-01    0.341E+00
DAV:  66    -0.231580920612E+03   -0.40157E-02   -0.18944E-03 40344   0.120E-01    0.294E+00
DAV:  67    -0.231583007869E+03   -0.20873E-02   -0.11299E-03 40592   0.981E-02    0.270E+00
DAV:  68    -0.231584925791E+03   -0.19179E-02   -0.50324E-04 40688   0.810E-02    0.269E+00
DAV:  69    -0.231586159134E+03   -0.12333E-02   -0.23670E-04 38632   0.401E-02    0.266E+00
DAV:  70    -0.231587225862E+03   -0.10667E-02   -0.13734E-04 37568   0.418E-02    0.264E+00
DAV:  71    -0.231589568001E+03   -0.23421E-02   -0.93492E-04 39664   0.127E-01    0.258E+00
DAV:  72    -0.231589575833E+03   -0.78327E-05   -0.94282E-04 44104   0.128E-01    0.219E+00
DAV:  73    -0.231590788371E+03   -0.12125E-02   -0.58703E-04 44648   0.110E-01    0.210E+00
DAV:  74    -0.231590058939E+03    0.72943E-03   -0.22017E-04 40000   0.727E-02    0.192E+00
DAV:  75    -0.231589397312E+03    0.66163E-03   -0.15641E-04 40672   0.525E-02    0.168E+00
DAV:  76    -0.231589781456E+03   -0.38414E-03   -0.19990E-04 39904   0.685E-02    0.149E+00
DAV:  77    -0.231590303620E+03   -0.52216E-03   -0.17413E-03 44504   0.224E-01    0.107E+00
DAV:  78    -0.231589366301E+03    0.93732E-03   -0.11344E-03 34344   0.136E-01    0.115E+00
DAV:  79    -0.231587555290E+03    0.18110E-02   -0.46835E-04 33384   0.729E-02    0.146E+00
DAV:  80    -0.231586567446E+03    0.98784E-03   -0.13144E-04 34624   0.557E-02    0.144E+00
DAV:  81    -0.231586150585E+03    0.41686E-03   -0.39542E-05 29312   0.210E-02    0.155E+00
DAV:  82    -0.231584945787E+03    0.12048E-02   -0.12477E-04 39200   0.577E-02    0.147E+00
DAV:  83    -0.231588550740E+03   -0.36050E-02   -0.25045E-03 39160   0.211E-01    0.673E-01
DAV:  84    -0.231590912777E+03   -0.23620E-02   -0.87615E-04 36968   0.901E-02    0.555E-01
DAV:  85    -0.231592567833E+03   -0.16551E-02   -0.30725E-04 35208   0.626E-02    0.578E-01
DAV:  86    -0.231593084945E+03   -0.51711E-03   -0.15576E-04 37088   0.463E-02    0.591E-01
DAV:  87    -0.231593127331E+03   -0.42387E-04   -0.37995E-05 31616   0.238E-02    0.567E-01
DAV:  88    -0.231593139897E+03   -0.12566E-04   -0.10642E-05 23064   0.133E-02    0.565E-01
DAV:  89    -0.231593161338E+03   -0.21441E-04   -0.81638E-06 21352   0.114E-02    0.581E-01
DAV:  90    -0.231593134832E+03    0.26506E-04   -0.53759E-06 20240   0.792E-03    0.569E-01
DAV:  91    -0.231593096394E+03    0.38438E-04   -0.22297E-06 18800   0.848E-03    0.527E-01
DAV:  92    -0.231592877435E+03    0.21896E-03   -0.35250E-04 42200   0.895E-02    0.230E-01
DAV:  93    -0.231593138204E+03   -0.26077E-03   -0.12119E-04 38312   0.441E-02    0.234E-01
DAV:  94    -0.231593162595E+03   -0.24392E-04   -0.28181E-05 27632   0.242E-02    0.272E-01
DAV:  95    -0.231593089577E+03    0.73018E-04   -0.11761E-05 22672   0.151E-02    0.296E-01
DAV:  96    -0.231593034605E+03    0.54972E-04   -0.37373E-06 20408   0.103E-02    0.276E-01
DAV:  97    -0.231593029350E+03    0.52551E-05   -0.68481E-06 19840   0.143E-02
  10 F= -.23159303E+03 E0= -.23157865E+03  d E =-.491527E-01  mag=     9.0574
       N       E                     dE             d eps       ncg     rms          rms(c)
DAV:   1    -0.230308075675E+03    0.12850E+01   -0.91063E+01 34856   0.492E+01    0.383E+00
DAV:   2    -0.231698248971E+03   -0.13902E+01   -0.14110E+01 35816   0.102E+01    0.553E+00
DAV:   3    -0.231777312633E+03   -0.79064E-01   -0.78987E-01 41480   0.621E+00    0.857E+00
DAV:   4    -0.231681887716E+03    0.95425E-01   -0.81332E-01 38048   0.386E+00    0.587E+00
DAV:   5    -0.231656511743E+03    0.25376E-01   -0.64971E-02 38624   0.217E+00    0.242E+00
DAV:   6    -0.231655589855E+03    0.92189E-03   -0.42268E-02 40128   0.135E+00    0.176E+00
DAV:   7    -0.231655259126E+03    0.33073E-03   -0.10947E-02 44352   0.638E-01    0.150E+00
DAV:   8    -0.231654140685E+03    0.11184E-02   -0.15736E-03 35288   0.132E-01    0.156E+00
DAV:   9    -0.231648612233E+03    0.55285E-02   -0.14302E-02 42080   0.447E-01    0.151E+00
DAV:  10    -0.231650082566E+03   -0.14703E-02   -0.13752E-02 42408   0.729E-01    0.142E+00
DAV:  11    -0.231652996579E+03   -0.29140E-02   -0.17286E-02 41280   0.876E-01    0.149E+00
DAV:  12    -0.231653186445E+03   -0.18987E-03   -0.21457E-02 42680   0.949E-01    0.175E+00
DAV:  13    -0.231654873076E+03   -0.16866E-02   -0.17199E-02 41368   0.790E-01    0.237E+00
DAV:  14    -0.231652468069E+03    0.24050E-02   -0.70027E-03 43184   0.479E-01    0.237E+00
DAV:  15    -0.231651647601E+03    0.82047E-03   -0.90457E-04 40136   0.112E-01    0.234E+00
DAV:  16    -0.231651340916E+03    0.30669E-03   -0.16944E-04 36584   0.751E-02    0.228E+00
DAV:  17    -0.231651264058E+03    0.76858E-04   -0.28844E-04 41248   0.903E-02    0.221E+00
DAV:  18    -0.231651886145E+03   -0.62209E-03   -0.16501E-03 44632   0.215E-01    0.199E+00
DAV:  19    -0.231651745771E+03    0.14037E-03   -0.26770E-03 44536   0.314E-01    0.142E+00
DAV:  20    -0.231652951198E+03   -0.12054E-02   -0.39739E-03 43072   0.427E-01    0.116E+00
DAV:  21    -0.231654068817E+03   -0.11176E-02   -0.30576E-03 41360   0.362E-01    0.127E+00
DAV:  22    -0.231653057457E+03    0.10114E-02   -0.98262E-04 44320   0.211E-01    0.126E+00
DAV:  23    -0.231653671460E+03   -0.61400E-03   -0.31992E-04 38456   0.884E-02    0.118E+00
DAV:  24    -0.231653734312E+03   -0.62852E-04   -0.66171E-05 34424   0.326E-02    0.114E+00
DAV:  25    -0.231653941337E+03   -0.20702E-03   -0.53987E-05 32000   0.404E-02    0.109E+00
DAV:  26    -0.231654823233E+03   -0.88190E-03   -0.11823E-03 43520   0.190E-01    0.786E-01
DAV:  27    -0.231654987715E+03   -0.16448E-03   -0.30391E-03 44032   0.263E-01    0.500E-01
DAV:  28    -0.231654837189E+03    0.15053E-03   -0.15848E-03 44960   0.183E-01    0.406E-01
DAV:  29    -0.231655122341E+03   -0.28515E-03   -0.60384E-04 42384   0.167E-01    0.333E-01
DAV:  30    -0.231655443935E+03   -0.32159E-03   -0.75285E-04 43408   0.138E-01    0.173E-01
DAV:  31    -0.231655452180E+03   -0.82454E-05   -0.23833E-04 42824   0.580E-02    0.939E-02
DAV:  32    -0.231655475509E+03   -0.23329E-04   -0.44035E-05 28896   0.328E-02    0.119E-01
DAV:  33    -0.231655462569E+03    0.12940E-04   -0.21248E-05 24344   0.254E-02    0.484E-02
DAV:  34    -0.231655471955E+03   -0.93861E-05   -0.13139E-05 22024   0.148E-02
  11 F= -.23165547E+03 E0= -.23164143E+03  d E =-.624426E-01  mag=     9.0633
       N       E                     dE             d eps       ncg     rms          rms(c)
DAV:   1    -0.230278366836E+03    0.13771E+01   -0.10163E+02 34336   0.530E+01    0.363E+00
DAV:   2    -0.231760562929E+03   -0.14822E+01   -0.15149E+01 34912   0.109E+01    0.523E+00
DAV:   3    -0.231807616384E+03   -0.47053E-01   -0.71623E-01 40840   0.606E+00    0.619E+00
DAV:   4    -0.231734971163E+03    0.72645E-01   -0.30217E-01 40512   0.342E+00    0.294E+00
DAV:   5    -0.231740663513E+03   -0.56923E-02   -0.55296E-02 37600   0.208E+00    0.387E+00
DAV:   6    -0.231729960872E+03    0.10703E-01   -0.46417E-02 41080   0.143E+00    0.227E+00
DAV:   7    -0.231728586313E+03    0.13746E-02   -0.19826E-02 40512   0.103E+00    0.180E+00
DAV:   8    -0.231729228476E+03   -0.64216E-03   -0.24895E-02 44568   0.112E+00    0.210E+00
DAV:   9    -0.231723962971E+03    0.52655E-02   -0.24578E-02 44896   0.946E-01    0.921E-01
DAV:  10    -0.231728342897E+03   -0.43799E-02   -0.68971E-03 43296   0.660E-01    0.162E+00
DAV:  11    -0.231727933151E+03    0.40975E-03   -0.29417E-03 41768   0.387E-01    0.202E+00
DAV:  12    -0.231726790109E+03    0.11430E-02   -0.83848E-04 36072   0.115E-01    0.240E+00
DAV:  13    -0.231722272003E+03    0.45181E-02   -0.17550E-03 41712   0.277E-01    0.171E+00
DAV:  14    -0.231722520538E+03   -0.24854E-03   -0.54501E-03 40696   0.431E-01    0.106E+00
DAV:  15    -0.231724655733E+03   -0.21352E-02   -0.38077E-03 38632   0.291E-01    0.932E-01
DAV:  16    -0.231725396782E+03   -0.74105E-03   -0.10101E-03 41056   0.105E-01    0.947E-01
DAV:  17    -0.231725155724E+03    0.24106E-03   -0.28898E-04 38352   0.778E-02    0.887E-01
DAV:  18    -0.231725217724E+03   -0.62000E-04   -0.13551E-04 33184   0.443E-02    0.889E-01
DAV:  19    -0.231725251820E+03   -0.34096E-04   -0.57510E-05 24536   0.265E-02    0.847E-01
DAV:  20    -0.231725635987E+03   -0.38417E-03   -0.65275E-04 43576   0.152E-01    0.642E-01
DAV:  21    -0.231725810194E+03   -0.17421E-03   -0.47414E-04 44000   0.125E-01    0.419E-01
DAV:  22    -0.231726150592E+03   -0.34040E-03   -0.28875E-04 42680   0.961E-02    0.313E-01
DAV:  23    -0.231726264549E+03   -0.11396E-03   -0.15078E-04 38232   0.956E-02    0.295E-01
DAV:  24    -0.231726225250E+03    0.39299E-04   -0.10468E-04 34424   0.932E-02    0.217E-01
DAV:  25    -0.231726241542E+03   -0.16292E-04   -0.62385E-05 30208   0.719E-02    0.124E-01
DAV:  26    -0.231726286359E+03   -0.44817E-04   -0.26816E-05 23208   0.382E-02    0.693E-02
DAV:  27    -0.231726310418E+03   -0.24059E-04   -0.15285E-05 21128   0.201E-02    0.446E-02
DAV:  28    -0.231726317941E+03   -0.75234E-05   -0.66818E-06 19776   0.127E-02
  12 F= -.23172632E+03 E0= -.23171220E+03  d E =-.708460E-01  mag=     9.0577
       N       E                     dE             d eps       ncg     rms          rms(c)
DAV:   1    -0.231282880349E+03    0.44343E+00   -0.43987E+01 33328   0.316E+01    0.205E+00
DAV:   2    -0.231775457832E+03   -0.49258E+00   -0.50276E+00 34792   0.638E+00    0.341E+00
DAV:   3    -0.231825136100E+03   -0.49678E-01   -0.36163E-01 39504   0.352E+00    0.680E+00
DAV:   4    -0.231784440938E+03    0.40695E-01   -0.11217E-01 38432   0.223E+00    0.460E+00
DAV:   5    -0.231760087985E+03    0.24353E-01   -0.68699E-02 37336   0.163E+00    0.124E+00
DAV:   6    -0.231765606498E+03   -0.55185E-02   -0.17499E-02 43712   0.828E-01    0.149E+00
DAV:   7    -0.231764264631E+03    0.13419E-02   -0.93348E-03 42024   0.592E-01    0.846E-01
DAV:   8    -0.231765914211E+03   -0.16496E-02   -0.59795E-03 43288   0.531E-01    0.103E+00
DAV:   9    -0.231766169064E+03   -0.25485E-03   -0.25739E-03 40800   0.357E-01    0.129E+00
DAV:  10    -0.231766053817E+03    0.11525E-03   -0.75028E-04 37520   0.126E-01    0.187E+00
DAV:  11    -0.231762611027E+03    0.34428E-02   -0.22724E-03 42272   0.303E-01    0.107E+00
DAV:  12    -0.231763485047E+03   -0.87402E-03   -0.66027E-03 41320   0.520E-01    0.559E-01
DAV:  13    -0.231765281772E+03   -0.17967E-02   -0.53577E-03 40024   0.438E-01    0.506E-01
DAV:  14    -0.231765530470E+03   -0.24870E-03   -0.39011E-03 40064   0.340E-01    0.544E-01
DAV:  15    -0.231765449543E+03    0.80927E-04   -0.93404E-04 41592   0.106E-01    0.619E-01
DAV:  16    -0.231765017068E+03    0.43248E-03   -0.39305E-04 40296   0.119E-01    0.730E-01
DAV:  17    -0.231764524834E+03    0.49223E-03   -0.36301E-04 40576   0.119E-01    0.801E-01
DAV:  18    -0.231764636943E+03   -0.11211E-03   -0.14405E-04 35704   0.667E-02    0.794E-01
DAV:  19    -0.231764823359E+03   -0.18642E-03   -0.48035E-04 43056   0.162E-01    0.618E-01
DAV:  20    -0.231765200252E+03   -0.37689E-03   -0.61572E-04 44064   0.132E-01    0.376E-01
DAV:  21    -0.231765446971E+03   -0.24672E-03   -0.59850E-04 44624   0.143E-01    0.204E-01
DAV:  22    -0.231765507927E+03   -0.60956E-04   -0.26987E-04 42816   0.976E-02    0.166E-01
DAV:  23    -0.231765509938E+03   -0.20105E-05   -0.84142E-05 31816   0.556E-02
  13 F= -.23176551E+03 E0= -.23175138E+03  d E =-.391920E-01  mag=     9.0568
       N       E                     dE             d eps       ncg     rms          rms(c)
DAV:   1    -0.231149781878E+03    0.61573E+00   -0.47123E+01 33536   0.374E+01    0.238E+00
DAV:   2    -0.231811500896E+03   -0.66172E+00   -0.68478E+00 34888   0.742E+00    0.278E+00
DAV:   3    -0.231861836320E+03   -0.50335E-01   -0.50309E-01 39632   0.385E+00    0.501E+00
DAV:   4    -0.231808612728E+03    0.53224E-01   -0.11439E-01 37608   0.234E+00    0.224E+00
DAV:   5    -0.231806387821E+03    0.22249E-02   -0.19470E-02 40384   0.857E-01    0.119E+00
DAV:   6    -0.231810677466E+03   -0.42896E-02   -0.12922E-02 38824   0.862E-01    0.150E+00
DAV:   7    -0.231807853925E+03    0.28235E-02   -0.10288E-02 39784   0.738E-01    0.930E-01
DAV:   8    -0.231809451224E+03   -0.15973E-02   -0.11107E-02 41256   0.741E-01    0.108E+00
DAV:   9    -0.231807261728E+03    0.21895E-02   -0.13343E-02 42384   0.646E-01    0.416E-01
DAV:  10    -0.231808334365E+03   -0.10726E-02   -0.28447E-03 42664   0.411E-01    0.673E-01
DAV:  11    -0.231808023032E+03    0.31133E-03   -0.14315E-03 41816   0.281E-01    0.679E-01
DAV:  12    -0.231807596936E+03    0.42610E-03   -0.56923E-04 42168   0.163E-01    0.554E-01
DAV:  13    -0.231807517290E+03    0.79645E-04   -0.60461E-04 41160   0.172E-01    0.256E-01
DAV:  14    -0.231807969419E+03   -0.45213E-03   -0.13282E-03 38552   0.167E-01    0.289E-01
DAV:  15    -0.231808084779E+03   -0.11536E-03   -0.74780E-04 37976   0.146E-01    0.306E-01
DAV:  16    -0.231808036562E+03    0.48217E-04   -0.16945E-04 34000   0.395E-02    0.341E-01
DAV:  17    -0.231807878041E+03    0.15852E-03   -0.62507E-05 28920   0.518E-02    0.409E-01
DAV:  18    -0.231807755032E+03    0.12301E-03   -0.88677E-05 36952   0.656E-02    0.501E-01
DAV:  19    -0.231807666979E+03    0.88053E-04   -0.27114E-05 26192   0.199E-02    0.542E-01
DAV:  20    -0.231807630156E+03    0.36823E-04   -0.77033E-05 29096   0.439E-02    0.596E-01
DAV:  21    -0.231807639702E+03   -0.95468E-05   -0.76183E-05 32336   0.460E-02
  14 F= -.23180764E+03 E0= -.23179341E+03  d E =-.421298E-01  mag=     9.0641
       N       E                     dE             d eps       ncg     rms          rms(c)
DAV:   1    -0.231027832131E+03    0.77980E+00   -0.67978E+01 33360   0.420E+01    0.292E+00
DAV:   2    -0.231988237922E+03   -0.96041E+00   -0.85598E+00 34880   0.889E+00    0.127E+01
DAV:   3    -0.231823821443E+03    0.16442E+00   -0.72028E-01 38760   0.444E+00    0.505E+00
DAV:   4    -0.231873249197E+03   -0.49428E-01   -0.26731E-01 37256   0.299E+00    0.434E+00
DAV:   5    -0.231837025538E+03    0.36224E-01   -0.74471E-02 37656   0.192E+00    0.217E+00
DAV:   6    -0.231837412474E+03   -0.38694E-03   -0.61623E-03 35456   0.297E-01    0.247E+00
DAV:   7    -0.231842720076E+03   -0.53076E-02   -0.19955E-02 43056   0.776E-01    0.316E+00
DAV:   8    -0.231826548441E+03    0.16172E-01   -0.85670E-02 40976   0.147E+00    0.193E+00
DAV:   9    -0.231838751853E+03   -0.12203E-01   -0.26104E-02 42248   0.832E-01    0.212E+00
DAV:  10    -0.231841734562E+03   -0.29827E-02   -0.52465E-03 37632   0.300E-01    0.241E+00
DAV:  11    -0.231840690168E+03    0.10444E-02   -0.14189E-03 39472   0.120E-01    0.255E+00
DAV:  12    -0.231837534013E+03    0.31562E-02   -0.24673E-03 40056   0.321E-01    0.210E+00
DAV:  13    -0.231835310432E+03    0.22236E-02   -0.52560E-03 42688   0.462E-01    0.111E+00
DAV:  14    -0.231841444877E+03   -0.61344E-02   -0.10243E-02 43000   0.664E-01    0.167E+00
DAV:  15    -0.231841608807E+03   -0.16393E-03   -0.12188E-02 40392   0.813E-01    0.170E+00
DAV:  16    -0.231839580161E+03    0.20286E-02   -0.76041E-03 43576   0.633E-01    0.202E+00
DAV:  17    -0.231838115097E+03    0.14651E-02   -0.67888E-03 43168   0.611E-01    0.249E+00
DAV:  18    -0.231837722541E+03    0.39256E-03   -0.45739E-03 42480   0.360E-01    0.329E+00
DAV:  19    -0.231837898177E+03   -0.17564E-03   -0.26131E-03 40464   0.280E-01    0.389E+00
DAV:  20    -0.231835213043E+03    0.26851E-02   -0.14852E-03 38800   0.213E-01    0.381E+00
DAV:  21    -0.231832790544E+03    0.24225E-02   -0.12133E-03 44936   0.190E-01    0.342E+00
DAV:  22    -0.231831895622E+03    0.89492E-03   -0.14076E-03 44304   0.237E-01    0.283E+00
DAV:  23    -0.231833701717E+03   -0.18061E-02   -0.12207E-03 43120   0.187E-01    0.252E+00
DAV:  24    -0.231834306120E+03   -0.60440E-03   -0.11356E-03 43536   0.218E-01    0.200E+00
DAV:  25    -0.231835845917E+03   -0.15398E-02   -0.18277E-03 42248   0.247E-01    0.110E+00
DAV:  26    -0.231839778239E+03   -0.39323E-02   -0.16986E-03 38992   0.178E-01    0.491E-01
DAV:  27    -0.231842052431E+03   -0.22742E-02   -0.83180E-04 38640   0.144E-01    0.258E-01
DAV:  28    -0.231842629344E+03   -0.57691E-03   -0.48602E-04 37592   0.120E-01    0.528E-01
DAV:  29    -0.231842300530E+03    0.32881E-03   -0.16408E-04 36712   0.917E-02    0.581E-01
DAV:  30    -0.231842020848E+03    0.27968E-03   -0.55797E-05 33992   0.537E-02    0.515E-01
DAV:  31    -0.231842022882E+03   -0.20342E-05   -0.48732E-05 28680   0.422E-02
  15 F= -.23184202E+03 E0= -.23182850E+03  d E =-.343832E-01  mag=     9.0575
       N       E                     dE             d eps       ncg     rms          rms(c)
DAV:   1    -0.231451378175E+03    0.39064E+00   -0.22693E+01 34632   0.306E+01    0.185E+00
DAV:   2    -0.231881272190E+03   -0.42989E+00   -0.44562E+00 34784   0.587E+00    0.243E+00
DAV:   3    -0.231929302655E+03   -0.48030E-01   -0.34112E-01 39808   0.312E+00    0.583E+00
DAV:   4    -0.231883445823E+03    0.45857E-01   -0.97540E-02 38624   0.195E+00    0.318E+00
DAV:   5    -0.231874167993E+03    0.92778E-02   -0.46740E-02 37584   0.142E+00    0.757E-01
DAV:   6    -0.231878276297E+03   -0.41083E-02   -0.11703E-02 42160   0.649E-01    0.103E+00
DAV:   7    -0.231877215576E+03    0.10607E-02   -0.89622E-03 42176   0.543E-01    0.551E-01
DAV:   8    -0.231878119479E+03   -0.90390E-03   -0.40343E-03 41344   0.516E-01    0.824E-01
DAV:   9    -0.231877623450E+03    0.49603E-03   -0.32537E-03 43208   0.439E-01    0.789E-01
DAV:  10    -0.231877153006E+03    0.47044E-03   -0.22252E-03 43576   0.366E-01    0.420E-01
DAV:  11    -0.231878127720E+03   -0.97471E-03   -0.35002E-03 39976   0.413E-01    0.910E-01
DAV:  12    -0.231877484437E+03    0.64328E-03   -0.15158E-03 40432   0.236E-01    0.914E-01
DAV:  13    -0.231876569911E+03    0.91453E-03   -0.78043E-04 43232   0.160E-01    0.687E-01
DAV:  14    -0.231876755902E+03   -0.18599E-03   -0.39459E-04 41000   0.968E-02    0.521E-01
DAV:  15    -0.231877107748E+03   -0.35185E-03   -0.90778E-05 30608   0.324E-02    0.494E-01
DAV:  16    -0.231877268212E+03   -0.16046E-03   -0.25533E-04 38784   0.104E-01    0.383E-01
DAV:  17    -0.231877519458E+03   -0.25125E-03   -0.32246E-04 41160   0.112E-01    0.504E-01
DAV:  18    -0.231877534885E+03   -0.15427E-04   -0.21825E-04 38864   0.105E-01    0.721E-01
DAV:  19    -0.231877353484E+03    0.18140E-03   -0.15183E-04 36792   0.808E-02    0.888E-01
DAV:  20    -0.231876925698E+03    0.42779E-03   -0.66217E-05 32576   0.508E-02    0.911E-01
DAV:  21    -0.231876688569E+03    0.23713E-03   -0.28618E-05 28296   0.393E-02    0.894E-01
DAV:  22    -0.231876590279E+03    0.98290E-04   -0.15656E-05 22832   0.251E-02    0.874E-01
DAV:  23    -0.231876566202E+03    0.24077E-04   -0.20534E-05 26296   0.247E-02    0.885E-01
DAV:  24    -0.231876567190E+03   -0.98822E-06   -0.17120E-05 24608   0.276E-02
  16 F= -.23187657E+03 E0= -.23186342E+03  d E =-.345443E-01  mag=     9.0460
       N       E                     dE             d eps       ncg     rms          rms(c)
DAV:   1    -0.231661067860E+03    0.21550E+00   -0.80012E+00 36048   0.207E+01    0.176E+00
DAV:   2    -0.232010353786E+03   -0.34929E+00   -0.31152E+00 36880   0.493E+00    0.732E+00
DAV:   3    -0.231877018380E+03    0.13334E+00   -0.25427E-01 40248   0.364E+00    0.175E+00
DAV:   4    -0.231898749150E+03   -0.21731E-01   -0.52074E-02 40448   0.144E+00    0.164E+00
DAV:   5    -0.231895701350E+03    0.30478E-02   -0.10701E-02 42016   0.599E-01    0.132E+00
DAV:   6    -0.231895621544E+03    0.79805E-04   -0.78068E-03 42448   0.384E-01    0.176E+00
DAV:   7    -0.231894587132E+03    0.10344E-02   -0.16829E-03 42592   0.221E-01    0.183E+00
DAV:   8    -0.231893965788E+03    0.62134E-03   -0.45957E-03 43280   0.419E-01    0.143E+00
DAV:   9    -0.231895382945E+03   -0.14172E-02   -0.17839E-02 40680   0.104E+00    0.150E+00
DAV:  10    -0.231894540694E+03    0.84225E-03   -0.15584E-02 42800   0.740E-01    0.144E+00
DAV:  11    -0.231893904832E+03    0.63586E-03   -0.60917E-03 41872   0.432E-01    0.125E+00
DAV:  12    -0.231893246633E+03    0.65820E-03   -0.30111E-03 44128   0.294E-01    0.816E-01
DAV:  13    -0.231895271076E+03   -0.20244E-02   -0.23166E-03 43880   0.249E-01    0.102E+00
DAV:  14    -0.231895463152E+03   -0.19208E-03   -0.25846E-03 40936   0.350E-01    0.958E-01
DAV:  15    -0.231894650424E+03    0.81273E-03   -0.19482E-03 44128   0.306E-01    0.563E-01
DAV:  16    -0.231894976088E+03   -0.32566E-03   -0.89876E-04 42976   0.219E-01    0.469E-01
DAV:  17    -0.231895218209E+03   -0.24212E-03   -0.71660E-04 44104   0.168E-01    0.518E-01
DAV:  18    -0.231895224484E+03   -0.62746E-05   -0.48106E-04 43392   0.145E-01    0.587E-01
DAV:  19    -0.231894991938E+03    0.23255E-03   -0.56808E-04 44032   0.156E-01    0.361E-01
DAV:  20    -0.231895162129E+03   -0.17019E-03   -0.33887E-04 42256   0.123E-01    0.310E-01
DAV:  21    -0.231895217337E+03   -0.55208E-04   -0.24048E-04 39120   0.111E-01    0.249E-01
DAV:  22    -0.231895214587E+03    0.27504E-05   -0.16219E-04 37088   0.995E-02    0.151E-01
DAV:  23    -0.231895227044E+03   -0.12458E-04   -0.93206E-05 34568   0.648E-02    0.496E-02
DAV:  24    -0.231895257629E+03   -0.30585E-04   -0.32209E-05 25832   0.349E-02    0.114E-01
DAV:  25    -0.231895251560E+03    0.60697E-05   -0.21187E-05 23992   0.315E-02
  17 F= -.23189525E+03 E0= -.23188163E+03  d E =-.186844E-01  mag=     9.0590
       N       E                     dE             d eps       ncg     rms          rms(c)
DAV:   1    -0.231796204717E+03    0.99053E-01   -0.10417E+01 34384   0.164E+01    0.995E-01
DAV:   2    -0.231913111952E+03   -0.11691E+00   -0.12015E+00 34432   0.313E+00    0.149E+00
DAV:   3    -0.231926952516E+03   -0.13841E-01   -0.63359E-02 39464   0.155E+00    0.377E+00
DAV:   4    -0.231905675244E+03    0.21277E-01   -0.27863E-02 37952   0.114E+00    0.129E+00
DAV:   5    -0.231910271000E+03   -0.45958E-02   -0.11198E-02 37136   0.739E-01    0.432E-01
DAV:   6    -0.231912067185E+03   -0.17962E-02   -0.33829E-03 43848   0.376E-01    0.535E-01
DAV:   7    -0.231911932126E+03    0.13506E-03   -0.38135E-03 43208   0.350E-01    0.402E-01
DAV:   8    -0.231912236963E+03   -0.30484E-03   -0.22409E-03 43488   0.288E-01    0.557E-01
DAV:   9    -0.231911902597E+03    0.33437E-03   -0.12031E-03 41600   0.228E-01    0.521E-01
DAV:  10    -0.231911697649E+03    0.20495E-03   -0.55346E-04 41520   0.182E-01    0.317E-01
DAV:  11    -0.231911834668E+03   -0.13702E-03   -0.46054E-04 41776   0.175E-01    0.283E-01
DAV:  12    -0.231912028186E+03   -0.19352E-03   -0.35384E-04 38360   0.129E-01    0.364E-01
DAV:  13    -0.231911830052E+03    0.19813E-03   -0.23894E-04 40240   0.100E-01    0.258E-01
DAV:  14    -0.231911832929E+03   -0.28773E-05   -0.68881E-05 25128   0.316E-02
  18 F= -.23191183E+03 E0= -.23189820E+03  d E =-.165814E-01  mag=     9.0597
       N       E                     dE             d eps       ncg     rms          rms(c)
DAV:   1    -0.225940440422E+03    0.59714E+01   -0.22214E+02 35416   0.102E+02    0.898E+00
DAV:   2    -0.231994457648E+03   -0.60540E+01   -0.59987E+01 36376   0.232E+01    0.151E+01
DAV:   3    -0.232213627784E+03   -0.21917E+00   -0.56557E+00 42912   0.169E+01    0.187E+01
DAV:   4    -0.231653195276E+03    0.56043E+00   -0.78288E+00 40624   0.917E+00    0.786E+00
DAV:   5    -0.231773321830E+03   -0.12013E+00   -0.12247E+00 39832   0.558E+00    0.902E+00
DAV:   6    -0.231623723061E+03    0.14960E+00   -0.15929E-01 40048   0.389E+00    0.437E+00
DAV:   7    -0.231623017224E+03    0.70584E-03   -0.10694E-01 39712   0.272E+00    0.399E+00
DAV:   8    -0.231609614491E+03    0.13403E-01   -0.10926E-01 43768   0.191E+00    0.312E+00
DAV:   9    -0.231600409884E+03    0.92046E-02   -0.14583E-01 43864   0.166E+00    0.249E+00
DAV:  10    -0.231605286464E+03   -0.48766E-02   -0.57170E-02 42616   0.127E+00    0.294E+00
DAV:  11    -0.231603612415E+03    0.16740E-02   -0.82057E-03 42624   0.614E-01    0.307E+00
DAV:  12    -0.231605112481E+03   -0.15001E-02   -0.21140E-03 40352   0.240E-01    0.391E+00
DAV:  13    -0.231596885522E+03    0.82270E-02   -0.50804E-02 45304   0.115E+00    0.253E+00
DAV:  14    -0.231601911188E+03   -0.50257E-02   -0.69622E-02 40872   0.150E+00    0.218E+00
DAV:  15    -0.231606856343E+03   -0.49452E-02   -0.34946E-02 40536   0.127E+00    0.195E+00
DAV:  16    -0.231607201167E+03   -0.34482E-03   -0.11188E-02 43160   0.645E-01    0.237E+00
DAV:  17    -0.231604999934E+03    0.22012E-02   -0.29432E-03 35752   0.211E-01    0.291E+00
DAV:  18    -0.231604771333E+03    0.22860E-03   -0.15125E-03 44432   0.273E-01    0.316E+00
DAV:  19    -0.231602505308E+03    0.22660E-02   -0.34694E-03 43312   0.483E-01    0.295E+00
DAV:  20    -0.231602348984E+03    0.15632E-03   -0.11148E-02 44352   0.671E-01    0.203E+00
DAV:  21    -0.231604470041E+03   -0.21211E-02   -0.14721E-02 43104   0.794E-01    0.140E+00
DAV:  22    -0.231605269194E+03   -0.79915E-03   -0.96864E-03 39248   0.679E-01    0.775E-01
DAV:  23    -0.231607385052E+03   -0.21159E-02   -0.48880E-03 39312   0.528E-01    0.102E+00
DAV:  24    -0.231606106225E+03    0.12788E-02   -0.18258E-03 41928   0.322E-01    0.805E-01
DAV:  25    -0.231605598255E+03    0.50797E-03   -0.10247E-03 45760   0.184E-01    0.413E-01
DAV:  26    -0.231606086866E+03   -0.48861E-03   -0.40946E-04 42152   0.154E-01    0.321E-01
DAV:  27    -0.231606133072E+03   -0.46206E-04   -0.20362E-04 42360   0.102E-01    0.275E-01
DAV:  28    -0.231606168513E+03   -0.35440E-04   -0.13372E-04 40160   0.660E-02    0.204E-01
DAV:  29    -0.231606216280E+03   -0.47767E-04   -0.92444E-05 38384   0.529E-02    0.183E-01
DAV:  30    -0.231606237201E+03   -0.20921E-04   -0.82555E-05 37696   0.487E-02    0.157E-01
DAV:  31    -0.231606239008E+03   -0.18072E-05   -0.41861E-05 31296   0.345E-02
  19 F= -.23160624E+03 E0= -.23159262E+03  d E =0.305594E+00  mag=     9.0410
       N       E                     dE             d eps       ncg     rms          rms(c)
DAV:   1    -0.229590000505E+03    0.20162E+01   -0.48005E+01 41184   0.658E+01    0.528E+00
DAV:   2    -0.232028176274E+03   -0.24382E+01   -0.24744E+01 35752   0.125E+01    0.914E+00
DAV:   3    -0.232300305552E+03   -0.27213E+00   -0.22593E+00 42568   0.961E+00    0.176E+01
DAV:   4    -0.231927394252E+03    0.37291E+00   -0.61747E-01 40928   0.493E+00    0.722E+00
DAV:   5    -0.231876873250E+03    0.50521E-01   -0.33872E-01 37600   0.396E+00    0.338E+00
DAV:   6    -0.231883012289E+03   -0.61390E-02   -0.57592E-02 44616   0.139E+00    0.281E+00
DAV:   7    -0.231887632722E+03   -0.46204E-02   -0.56525E-02 41656   0.131E+00    0.296E+00
DAV:   8    -0.231882296701E+03    0.53360E-02   -0.45054E-02 41144   0.149E+00    0.265E+00
DAV:   9    -0.231880624665E+03    0.16720E-02   -0.58642E-02 42416   0.173E+00    0.295E+00
DAV:  10    -0.231876451859E+03    0.41728E-02   -0.36374E-02 43696   0.134E+00    0.191E+00
DAV:  11    -0.231881215635E+03   -0.47638E-02   -0.56738E-02 39728   0.139E+00    0.190E+00
DAV:  12    -0.231886344901E+03   -0.51293E-02   -0.29540E-02 42344   0.837E-01    0.208E+00
DAV:  13    -0.231884630114E+03    0.17148E-02   -0.48390E-03 37448   0.270E-01    0.228E+00
DAV:  14    -0.231880151076E+03    0.44790E-02   -0.23913E-03 39520   0.247E-01    0.275E+00
DAV:  15    -0.231876422584E+03    0.37285E-02   -0.69486E-04 36400   0.102E-01    0.293E+00
DAV:  16    -0.231878542589E+03   -0.21200E-02   -0.52586E-03 45256   0.393E-01    0.408E+00
DAV:  17    -0.231869609843E+03    0.89327E-02   -0.35928E-03 41264   0.314E-01    0.480E+00
DAV:  18    -0.231862463989E+03    0.71459E-02   -0.27059E-03 41664   0.264E-01    0.533E+00
DAV:  19    -0.231853627868E+03    0.88361E-02   -0.22804E-03 44120   0.280E-01    0.557E+00
DAV:  20    -0.231844269607E+03    0.93583E-02   -0.61190E-03 43944   0.494E-01    0.549E+00
DAV:  21    -0.231855867826E+03   -0.11598E-01   -0.71878E-03 45976   0.593E-01    0.616E+00
DAV:  22    -0.231860857780E+03   -0.49900E-02   -0.44338E-03 44632   0.258E-01    0.633E+00
DAV:  23    -0.231859288176E+03    0.15696E-02   -0.80136E-04 40416   0.904E-02    0.637E+00
DAV:  24    -0.231863624855E+03   -0.43367E-02   -0.54596E-04 43968   0.187E-01    0.633E+00
DAV:  25    -0.231868245978E+03   -0.46211E-02   -0.14233E-03 44760   0.259E-01    0.604E+00
DAV:  26    -0.231875185684E+03   -0.69397E-02   -0.74041E-03 44648   0.439E-01    0.491E+00
DAV:  27    -0.231881457398E+03   -0.62717E-02   -0.70529E-03 44688   0.377E-01    0.379E+00
DAV:  28    -0.231881049148E+03    0.40825E-03   -0.92713E-03 44368   0.568E-01    0.201E+00
DAV:  29    -0.231884650846E+03   -0.36017E-02   -0.85347E-03 42736   0.523E-01    0.789E-01
DAV:  30    -0.231889351245E+03   -0.47004E-02   -0.35747E-03 40424   0.272E-01    0.411E-01
DAV:  31    -0.231890745397E+03   -0.13942E-02   -0.14534E-03 36104   0.255E-01    0.381E-01
DAV:  32    -0.231890515822E+03    0.22957E-03   -0.64704E-04 42488   0.172E-01    0.346E-01
DAV:  33    -0.231890801100E+03   -0.28528E-03   -0.40141E-04 43960   0.118E-01    0.165E-01
DAV:  34    -0.231890830197E+03   -0.29097E-04   -0.19132E-04 42704   0.645E-02    0.825E-02
DAV:  35    -0.231890844944E+03   -0.14747E-04   -0.56285E-05 30248   0.363E-02    0.141E-01
DAV:  36    -0.231890824351E+03    0.20593E-04   -0.31460E-05 26232   0.328E-02    0.493E-02
DAV:  37    -0.231890835516E+03   -0.11165E-04   -0.12504E-05 21408   0.178E-02    0.305E-02
DAV:  38    -0.231890837358E+03   -0.18420E-05   -0.46103E-06 19720   0.956E-03
  20 F= -.23189084E+03 E0= -.23187734E+03  d E =-.284598E+00  mag=     9.0310
       N       E                     dE             d eps       ncg     rms          rms(c)
DAV:   1    -0.231859556771E+03    0.31279E-01   -0.11069E+00 40104   0.949E+00    0.653E-01
DAV:   2    -0.231911008032E+03   -0.51451E-01   -0.52968E-01 34816   0.166E+00    0.119E+00
DAV:   3    -0.231916990003E+03   -0.59820E-02   -0.30066E-02 40472   0.997E-01    0.258E+00
DAV:   4    -0.231908018501E+03    0.89715E-02   -0.99844E-03 37944   0.745E-01    0.627E-01
DAV:   5    -0.231909912520E+03   -0.18940E-02   -0.27315E-03 37872   0.398E-01    0.261E-01
DAV:   6    -0.231910595650E+03   -0.68313E-03   -0.10573E-03 42272   0.225E-01    0.364E-01
DAV:   7    -0.231910480285E+03    0.11537E-03   -0.11181E-03 42168   0.220E-01    0.311E-01
DAV:   8    -0.231910482802E+03   -0.25170E-05   -0.75114E-04 42048   0.179E-01    0.226E-01
DAV:   9    -0.231910497911E+03   -0.15109E-04   -0.75596E-04 40424   0.167E-01    0.158E-01
DAV:  10    -0.231910523500E+03   -0.25589E-04   -0.32098E-04 34528   0.114E-01    0.154E-01
DAV:  11    -0.231910480895E+03    0.42605E-04   -0.10573E-04 31368   0.795E-02    0.643E-02
DAV:  12    -0.231910487715E+03   -0.68198E-05   -0.25808E-05 23104   0.463E-02
  21 F= -.23191049E+03 E0= -.23189695E+03  d E =-.196504E-01  mag=     9.0334
       N       E                     dE             d eps       ncg     rms          rms(c)
DAV:   1    -0.231616696855E+03    0.29378E+00   -0.77424E+00 38112   0.235E+01    0.172E+00
DAV:   2    -0.231942324338E+03   -0.32563E+00   -0.33426E+00 34720   0.433E+00    0.300E+00
DAV:   3    -0.231984751153E+03   -0.42427E-01   -0.21659E-01 42272   0.274E+00    0.648E+00
DAV:   4    -0.231931500356E+03    0.53251E-01   -0.62709E-02 38608   0.193E+00    0.197E+00
DAV:   5    -0.231936213758E+03   -0.47134E-02   -0.26797E-02 37080   0.134E+00    0.959E-01
DAV:   6    -0.231939237119E+03   -0.30234E-02   -0.96236E-03 43624   0.682E-01    0.117E+00
DAV:   7    -0.231937247396E+03    0.19897E-02   -0.73529E-03 41408   0.556E-01    0.730E-01
DAV:   8    -0.231938077147E+03   -0.82975E-03   -0.61603E-03 40952   0.521E-01    0.761E-01
DAV:   9    -0.231938430784E+03   -0.35364E-03   -0.41850E-03 41984   0.372E-01    0.107E+00
DAV:  10    -0.231937474795E+03    0.95599E-03   -0.62536E-04 39888   0.154E-01    0.112E+00
DAV:  11    -0.231937496730E+03   -0.21935E-04   -0.26396E-04 39016   0.844E-02    0.143E+00
DAV:  12    -0.231935472220E+03    0.20245E-02   -0.10478E-03 40672   0.285E-01    0.503E-01
DAV:  13    -0.231937720191E+03   -0.22480E-02   -0.22449E-03 41016   0.373E-01    0.798E-01
DAV:  14    -0.231937781808E+03   -0.61617E-04   -0.14659E-03 40088   0.257E-01    0.755E-01
DAV:  15    -0.231936976786E+03    0.80502E-03   -0.70076E-04 43096   0.163E-01    0.461E-01
DAV:  16    -0.231937217210E+03   -0.24042E-03   -0.32616E-04 42048   0.113E-01    0.103E-01
DAV:  17    -0.231937629253E+03   -0.41204E-03   -0.17366E-04 35664   0.836E-02    0.907E-02
DAV:  18    -0.231937661202E+03   -0.31949E-04   -0.85150E-05 30712   0.633E-02    0.768E-02
DAV:  19    -0.231937663901E+03   -0.26986E-05   -0.31195E-05 22296   0.359E-02
  22 F= -.23193766E+03 E0= -.23192403E+03  d E =-.271762E-01  mag=     9.0500
       N       E                     dE             d eps       ncg     rms          rms(c)
DAV:   1    -0.231935265196E+03    0.23960E-02   -0.37053E-01 34720   0.330E+00    0.259E-01
DAV:   2    -0.231943052629E+03   -0.77874E-02   -0.58602E-02 36352   0.747E-01    0.161E+00
DAV:   3    -0.231938188024E+03    0.48646E-02   -0.54887E-03 39800   0.482E-01    0.219E-01
DAV:   4    -0.231940525705E+03   -0.23377E-02   -0.10482E-03 38552   0.233E-01    0.241E-01
DAV:   5    -0.231940590757E+03   -0.65053E-04   -0.55086E-04 40296   0.160E-01    0.162E-01
DAV:   6    -0.231940620904E+03   -0.30147E-04   -0.15788E-04 33248   0.731E-02    0.172E-01
DAV:   7    -0.231940591429E+03    0.29475E-04   -0.33517E-05 25336   0.318E-02    0.177E-01
DAV:   8    -0.231940573178E+03    0.18251E-04   -0.93818E-06 20400   0.130E-02    0.212E-01
DAV:   9    -0.231940577295E+03   -0.41169E-05   -0.89861E-05 28200   0.644E-02
  23 F= -.23194058E+03 E0= -.23192702E+03  d E =-.291339E-02  mag=     9.0554
       N       E                     dE             d eps       ncg     rms          rms(c)
DAV:   1    -0.231891562833E+03    0.49010E-01   -0.73353E+00 33280   0.110E+01    0.834E-01
DAV:   2    -0.231957711359E+03   -0.66149E-01   -0.59339E-01 36736   0.243E+00    0.308E+00
DAV:   3    -0.231942749633E+03    0.14962E-01   -0.11193E-01 38696   0.147E+00    0.166E+00
DAV:   4    -0.231948621333E+03   -0.58717E-02   -0.19021E-02 38256   0.969E-01    0.169E+00
DAV:   5    -0.231944427431E+03    0.41939E-02   -0.12259E-02 37152   0.721E-01    0.736E-01
DAV:   6    -0.231944678982E+03   -0.25155E-03   -0.63750E-03 39760   0.434E-01    0.580E-01
DAV:   7    -0.231944704476E+03   -0.25494E-04   -0.19488E-03 43200   0.197E-01    0.506E-01
DAV:   8    -0.231944559533E+03    0.14494E-03   -0.33057E-04 42704   0.712E-02    0.513E-01
DAV:   9    -0.231944189596E+03    0.36994E-03   -0.17554E-03 42624   0.198E-01    0.637E-01
DAV:  10    -0.231944423836E+03   -0.23424E-03   -0.14822E-03 43776   0.275E-01    0.968E-01
DAV:  11    -0.231944308969E+03    0.11487E-03   -0.11164E-03 43280   0.219E-01    0.115E+00
DAV:  12    -0.231943913876E+03    0.39509E-03   -0.21108E-04 35168   0.603E-02    0.124E+00
DAV:  13    -0.231944863255E+03   -0.94938E-03   -0.49915E-04 42368   0.189E-01    0.186E+00
DAV:  14    -0.231944580695E+03    0.28256E-03   -0.48937E-04 39040   0.113E-01    0.226E+00
DAV:  15    -0.231940017470E+03    0.45632E-02   -0.10621E-03 42336   0.256E-01    0.126E+00
DAV:  16    -0.231941717902E+03   -0.17004E-02   -0.21755E-03 43232   0.279E-01    0.820E-01
DAV:  17    -0.231944497192E+03   -0.27793E-02   -0.43240E-03 42112   0.278E-01    0.179E+00
DAV:  18    -0.231941385072E+03    0.31121E-02   -0.23253E-03 36448   0.210E-01    0.224E+00
DAV:  19    -0.231940890145E+03    0.49493E-03   -0.87105E-04 37128   0.111E-01    0.266E+00
DAV:  20    -0.231937088887E+03    0.38013E-02   -0.26057E-03 44640   0.261E-01    0.182E+00
DAV:  21    -0.231937783291E+03   -0.69440E-03   -0.49435E-03 44344   0.280E-01    0.632E-01
DAV:  22    -0.231943320442E+03   -0.55372E-02   -0.29506E-03 38872   0.235E-01    0.550E-01
DAV:  23    -0.231944715646E+03   -0.13952E-02   -0.99186E-04 34192   0.164E-01    0.638E-01
DAV:  24    -0.231944290528E+03    0.42512E-03   -0.17984E-04 42352   0.739E-02    0.585E-01
DAV:  25    -0.231944082093E+03    0.20843E-03   -0.11143E-04 34928   0.601E-02    0.337E-01
DAV:  26    -0.231944261425E+03   -0.17933E-03   -0.80905E-05 35280   0.422E-02    0.128E-01
DAV:  27    -0.231944438636E+03   -0.17721E-03   -0.47012E-05 27944   0.445E-02    0.436E-02
DAV:  28    -0.231944493706E+03   -0.55070E-04   -0.22771E-05 24080   0.332E-02    0.637E-02
DAV:  29    -0.231944497599E+03   -0.38928E-05   -0.11438E-05 20856   0.193E-02
  24 F= -.23194450E+03 E0= -.23193053E+03  d E =-.392030E-02  mag=     9.0940
       N       E                     dE             d eps       ncg     rms          rms(c)
DAV:   1    -0.231934104237E+03    0.10389E-01   -0.70527E-01 34928   0.546E+00    0.322E-01
DAV:   2    -0.231948312560E+03   -0.14208E-01   -0.13310E-01 35352   0.107E+00    0.129E+00
DAV:   3    -0.231945907127E+03    0.24054E-02   -0.67664E-03 36680   0.530E-01    0.461E-01
DAV:   4    -0.231947067231E+03   -0.11601E-02   -0.21044E-03 36712   0.339E-01    0.448E-01
DAV:   5    -0.231946725673E+03    0.34156E-03   -0.12017E-03 37984   0.224E-01    0.159E-01
DAV:   6    -0.231946793384E+03   -0.67711E-04   -0.59167E-04 34648   0.144E-01    0.182E-01
DAV:   7    -0.231946795638E+03   -0.22542E-05   -0.67582E-04 38112   0.135E-01    0.203E-01
DAV:   8    -0.231946801356E+03   -0.57175E-05   -0.29473E-04 37296   0.145E-01    0.273E-01
DAV:   9    -0.231946719392E+03    0.81964E-04   -0.13565E-04 37448   0.101E-01    0.253E-01
DAV:  10    -0.231946664715E+03    0.54676E-04   -0.57437E-05 28736   0.556E-02    0.155E-01
DAV:  11    -0.231946688636E+03   -0.23921E-04   -0.27191E-05 21864   0.350E-02    0.485E-02
DAV:  12    -0.231946729236E+03   -0.40600E-04   -0.20563E-05 22888   0.272E-02    0.565E-02
DAV:  13    -0.231946734609E+03   -0.53728E-05   -0.10939E-05 20704   0.221E-02
  25 F= -.23194673E+03 E0= -.23193286E+03  d E =-.223701E-02  mag=     9.0921
       N       E                     dE             d eps       ncg     rms          rms(c)
DAV:   1    -0.231884263547E+03    0.62466E-01   -0.55183E+00 33312   0.121E+01    0.813E-01
DAV:   2    -0.231961309488E+03   -0.77046E-01   -0.70250E-01 35544   0.256E+00    0.319E+00
DAV:   3    -0.231947712369E+03    0.13597E-01   -0.52486E-02 37952   0.139E+00    0.144E+00
DAV:   4    -0.231953368989E+03   -0.56566E-02   -0.19640E-02 36632   0.896E-01    0.137E+00
DAV:   5    -0.231949936552E+03    0.34324E-02   -0.99761E-03 36448   0.619E-01    0.376E-01
DAV:   6    -0.231950607725E+03   -0.67117E-03   -0.24328E-03 38360   0.308E-01    0.401E-01
DAV:   7    -0.231950932102E+03   -0.32438E-03   -0.30398E-03 39720   0.322E-01    0.650E-01
DAV:   8    -0.231950983430E+03   -0.51327E-04   -0.15167E-03 40944   0.302E-01    0.904E-01
DAV:   9    -0.231950193005E+03    0.79043E-03   -0.51171E-04 41032   0.180E-01    0.820E-01
DAV:  10    -0.231949691520E+03    0.50148E-03   -0.42097E-04 42640   0.132E-01    0.427E-01
DAV:  11    -0.231950088976E+03   -0.39746E-03   -0.43238E-04 39944   0.133E-01    0.189E-01
DAV:  12    -0.231950404447E+03   -0.31547E-03   -0.27086E-04 37688   0.101E-01    0.189E-01
DAV:  13    -0.231950435838E+03   -0.31391E-04   -0.74829E-05 33680   0.469E-02    0.227E-01
DAV:  14    -0.231950389832E+03    0.46006E-04   -0.19507E-04 36096   0.883E-02    0.258E-01
DAV:  15    -0.231950418596E+03   -0.28764E-04   -0.33722E-04 40960   0.119E-01    0.423E-01
DAV:  16    -0.231950183807E+03    0.23479E-03   -0.18759E-04 39056   0.886E-02    0.450E-01
DAV:  17    -0.231950134143E+03    0.49664E-04   -0.35795E-05 28656   0.254E-02    0.478E-01
DAV:  18    -0.231950097153E+03    0.36990E-04   -0.55563E-05 29096   0.478E-02    0.448E-01
DAV:  19    -0.231950115484E+03   -0.18331E-04   -0.11210E-04 38608   0.624E-02    0.313E-01
DAV:  20    -0.231950262390E+03   -0.14691E-03   -0.18086E-04 38480   0.767E-02    0.113E-01
DAV:  21    -0.231950474996E+03   -0.21261E-03   -0.11723E-04 34120   0.654E-02    0.198E-01
DAV:  22    -0.231950414561E+03    0.60435E-04   -0.40171E-05 28032   0.462E-02    0.935E-02
DAV:  23    -0.231950424500E+03   -0.99391E-05   -0.13048E-05 22696   0.201E-02
  26 F= -.23195042E+03 E0= -.23193677E+03  d E =-.368989E-02  mag=     9.0767
       N       E                     dE             d eps       ncg     rms          rms(c)
DAV:   1    -0.231630516310E+03    0.31990E+00   -0.26736E+01 34584   0.262E+01    0.158E+00
DAV:   2    -0.231953580230E+03   -0.32306E+00   -0.32690E+00 34736   0.517E+00    0.405E+00
DAV:   3    -0.231951265360E+03    0.23149E-02   -0.46059E-01 38848   0.251E+00    0.412E+00
DAV:   4    -0.231956956275E+03   -0.56909E-02   -0.94841E-02 39256   0.177E+00    0.348E+00
DAV:   5    -0.231933371460E+03    0.23585E-01   -0.54749E-02 37360   0.146E+00    0.976E-01
DAV:   6    -0.231937455407E+03   -0.40839E-02   -0.75324E-03 42120   0.719E-01    0.110E+00
DAV:   7    -0.231937361395E+03    0.94012E-04   -0.10417E-02 41984   0.640E-01    0.853E-01
DAV:   8    -0.231937690578E+03   -0.32918E-03   -0.43765E-03 40784   0.501E-01    0.736E-01
DAV:   9    -0.231938216512E+03   -0.52593E-03   -0.23451E-03 41656   0.400E-01    0.109E+00
DAV:  10    -0.231937239600E+03    0.97691E-03   -0.66734E-04 42344   0.176E-01    0.108E+00
DAV:  11    -0.231936367597E+03    0.87200E-03   -0.49094E-04 43368   0.159E-01    0.829E-01
DAV:  12    -0.231936755511E+03   -0.38791E-03   -0.17270E-03 44776   0.275E-01    0.638E-01
DAV:  13    -0.231939254364E+03   -0.24989E-02   -0.43400E-03 41152   0.426E-01    0.151E+00
DAV:  14    -0.231936434956E+03    0.28194E-02   -0.21616E-03 40032   0.318E-01    0.150E+00
DAV:  15    -0.231934188788E+03    0.22462E-02   -0.17053E-03 44000   0.221E-01    0.959E-01
DAV:  16    -0.231935179311E+03   -0.99052E-03   -0.10201E-03 42376   0.157E-01    0.443E-01
DAV:  17    -0.231936734183E+03   -0.15549E-02   -0.32510E-04 32800   0.731E-02    0.322E-01
DAV:  18    -0.231937257665E+03   -0.52348E-03   -0.26901E-04 39328   0.839E-02    0.358E-01
DAV:  19    -0.231937854041E+03   -0.59638E-03   -0.60442E-04 41752   0.127E-01    0.909E-01
DAV:  20    -0.231937475923E+03    0.37812E-03   -0.40271E-04 37088   0.101E-01    0.128E+00
DAV:  21    -0.231936612159E+03    0.86376E-03   -0.16392E-04 34816   0.800E-02    0.142E+00
DAV:  22    -0.231935788113E+03    0.82405E-03   -0.65685E-05 34632   0.509E-02    0.139E+00
DAV:  23    -0.231935595500E+03    0.19261E-03   -0.18043E-05 25080   0.213E-02    0.139E+00
DAV:  24    -0.231935557736E+03    0.37764E-04   -0.61102E-06 19120   0.850E-03    0.139E+00
DAV:  25    -0.231935548110E+03    0.96258E-05   -0.70793E-07 17848   0.277E-03
  27 F= -.23193555E+03 E0= -.23192270E+03  d E =0.148764E-01  mag=     9.0926
       N       E                     dE             d eps       ncg     rms          rms(c)
DAV:   1    -0.229778911252E+03    0.21566E+01   -0.16134E+02 34336   0.697E+01    0.490E+00
DAV:   2    -0.232608057643E+03   -0.28291E+01   -0.26681E+01 38128   0.161E+01    0.209E+01
DAV:   3    -0.231972592475E+03    0.63547E+00   -0.70347E+00 42336   0.872E+00    0.961E+00
DAV:   4    -0.231983045865E+03   -0.10453E-01   -0.79194E-01 40344   0.723E+00    0.884E+00
DAV:   5    -0.231922578035E+03    0.60468E-01   -0.57523E-01 39712   0.373E+00    0.565E+00
DAV:   6    -0.231925407630E+03   -0.28296E-02   -0.18629E-01 37392   0.253E+00    0.538E+00
DAV:   7    -0.231915061230E+03    0.10346E-01   -0.15387E-01 40992   0.193E+00    0.435E+00
DAV:   8    -0.231899222055E+03    0.15839E-01   -0.60793E-02 41784   0.174E+00    0.179E+00
DAV:   9    -0.231916597887E+03   -0.17376E-01   -0.43722E-02 41968   0.153E+00    0.358E+00
DAV:  10    -0.231916836882E+03   -0.23900E-03   -0.18674E-02 41176   0.895E-01    0.372E+00
DAV:  11    -0.231914329115E+03    0.25078E-02   -0.34784E-03 35872   0.252E-01    0.420E+00
DAV:  12    -0.231901580176E+03    0.12749E-01   -0.87090E-03 44952   0.528E-01    0.395E+00
DAV:  13    -0.231900743143E+03    0.83703E-03   -0.18802E-02 41064   0.783E-01    0.353E+00
DAV:  14    -0.231903380377E+03   -0.26372E-02   -0.14565E-02 40728   0.637E-01    0.333E+00
DAV:  15    -0.231904591994E+03   -0.12116E-02   -0.40577E-03 42464   0.190E-01    0.323E+00
DAV:  16    -0.231906330491E+03   -0.17385E-02   -0.29827E-03 41208   0.373E-01    0.367E+00
DAV:  17    -0.231906838548E+03   -0.50806E-03   -0.35079E-03 43472   0.485E-01    0.456E+00
DAV:  18    -0.231902918892E+03    0.39197E-02   -0.29409E-03 43224   0.328E-01    0.538E+00
DAV:  19    -0.231895185434E+03    0.77335E-02   -0.71224E-04 35488   0.111E-01    0.549E+00
DAV:  20    -0.231893310153E+03    0.18753E-02   -0.20275E-04 39792   0.844E-02    0.571E+00
DAV:  21    -0.231890823478E+03    0.24867E-02   -0.36432E-04 40400   0.152E-01    0.556E+00
DAV:  22    -0.231890491715E+03    0.33176E-03   -0.32579E-03 44688   0.452E-01    0.475E+00
DAV:  23    -0.231891391303E+03   -0.89959E-03   -0.12473E-02 44968   0.699E-01    0.240E+00
DAV:  24    -0.231903115939E+03   -0.11725E-01   -0.11459E-02 40544   0.502E-01    0.107E+00
DAV:  25    -0.231908452346E+03   -0.53364E-02   -0.42682E-03 38424   0.392E-01    0.935E-01
DAV:  26    -0.231909011645E+03   -0.55930E-03   -0.19940E-03 43944   0.271E-01    0.722E-01
DAV:  27    -0.231909378799E+03   -0.36715E-03   -0.52886E-04 42400   0.171E-01    0.686E-01
DAV:  28    -0.231909827826E+03   -0.44903E-03   -0.42000E-04 43640   0.159E-01    0.603E-01
DAV:  29    -0.231910035126E+03   -0.20730E-03   -0.38325E-04 44472   0.161E-01    0.597E-01
DAV:  30    -0.231910207062E+03   -0.17194E-03   -0.38376E-04 44112   0.107E-01    0.825E-01
DAV:  31    -0.231910101579E+03    0.10548E-03   -0.21775E-04 38328   0.714E-02    0.108E+00
DAV:  32    -0.231909574989E+03    0.52659E-03   -0.96295E-05 33496   0.505E-02    0.115E+00
DAV:  33    -0.231909272163E+03    0.30283E-03   -0.72032E-05 34488   0.381E-02    0.124E+00
DAV:  34    -0.231909183871E+03    0.88292E-04   -0.94300E-05 34008   0.449E-02    0.143E+00
DAV:  35    -0.231909003864E+03    0.18001E-03   -0.83796E-05 34848   0.345E-02    0.160E+00
DAV:  36    -0.231908653213E+03    0.35065E-03   -0.31358E-05 28368   0.317E-02    0.158E+00
DAV:  37    -0.231908563891E+03    0.89322E-04   -0.73911E-06 20832   0.984E-03    0.162E+00
DAV:  38    -0.231908282632E+03    0.28126E-03   -0.23329E-05 24824   0.353E-02    0.149E+00
DAV:  39    -0.231908186694E+03    0.95937E-04   -0.31361E-04 42096   0.916E-02    0.106E+00
DAV:  40    -0.231908929928E+03   -0.74323E-03   -0.44632E-04 39408   0.875E-02    0.622E-01
DAV:  41    -0.231909801983E+03   -0.87206E-03   -0.19976E-04 36832   0.563E-02    0.444E-01
DAV:  42    -0.231910247411E+03   -0.44543E-03   -0.56220E-05 33288   0.323E-02    0.354E-01
[...]
DAV:  30    -0.231693882064E+03   -0.46855E-05   -0.22793E-06 18752   0.577E-03
 191 F= -.23169388E+03 E0= -.23167304E+03  d E =0.398146E-02  mag=     9.7509
       N       E                     dE             d eps       ncg     rms          rms(c)
DAV:   1    -0.231657043945E+03    0.36833E-01   -0.18926E+00 33768   0.761E+00    0.533E-01
DAV:   2    -0.231689166999E+03   -0.32123E-01   -0.31635E-01 34936   0.156E+00    0.275E+00
DAV:   3    -0.231677832192E+03    0.11335E-01   -0.51251E-02 38136   0.796E-01    0.823E-01
DAV:   4    -0.231687051490E+03   -0.92193E-02   -0.12433E-02 36128   0.676E-01    0.141E+00
DAV:   5    -0.231683484675E+03    0.35668E-02   -0.68748E-03 36776   0.517E-01    0.438E-01
DAV:   6    -0.231684310855E+03   -0.82618E-03   -0.17531E-03 37248   0.269E-01    0.365E-01
DAV:   7    -0.231684528738E+03   -0.21788E-03   -0.10646E-03 41728   0.164E-01    0.583E-01
DAV:   8    -0.231684168421E+03    0.36032E-03   -0.61781E-04 39520   0.142E-01    0.590E-01
DAV:   9    -0.231683793460E+03    0.37496E-03   -0.40527E-04 39720   0.112E-01    0.208E-01
DAV:  10    -0.231684248281E+03   -0.45482E-03   -0.37701E-04 39632   0.100E-01    0.296E-01
DAV:  11    -0.231684371287E+03   -0.12301E-03   -0.53595E-04 38232   0.134E-01    0.415E-01
DAV:  12    -0.231684138385E+03    0.23290E-03   -0.44006E-04 41472   0.143E-01    0.185E-01
DAV:  13    -0.231684376778E+03   -0.23839E-03   -0.55839E-04 41192   0.171E-01    0.455E-01
DAV:  14    -0.231684449846E+03   -0.73068E-04   -0.57041E-04 38272   0.135E-01    0.744E-01
DAV:  15    -0.231683802515E+03    0.64733E-03   -0.37652E-04 38320   0.109E-01    0.635E-01
DAV:  16    -0.231683656779E+03    0.14574E-03   -0.12713E-04 33296   0.404E-02    0.439E-01
DAV:  17    -0.231683900427E+03   -0.24365E-03   -0.46789E-05 26568   0.266E-02    0.378E-01
DAV:  18    -0.231684011694E+03   -0.11127E-03   -0.22181E-05 21800   0.162E-02    0.322E-01
DAV:  19    -0.231684072383E+03   -0.60690E-04   -0.22746E-05 21496   0.209E-02    0.290E-01
DAV:  20    -0.231684123810E+03   -0.51427E-04   -0.20007E-05 23168   0.176E-02    0.291E-01
DAV:  21    -0.231684128300E+03   -0.44904E-05   -0.74832E-06 20720   0.115E-02
 192 F= -.23168413E+03 E0= -.23166332E+03  d E =0.975376E-02  mag=     9.7493
       N       E                     dE             d eps       ncg     rms          rms(c)
DAV:   1    -0.231642078002E+03    0.42046E-01   -0.18594E+00 34312   0.900E+00    0.635E-01
DAV:   2    -0.231682744748E+03   -0.40667E-01   -0.42193E-01 34568   0.176E+00    0.726E-01
DAV:   3    -0.231684385708E+03   -0.16410E-02   -0.17904E-02 40624   0.704E-01    0.104E+00
DAV:   4    -0.231682715035E+03    0.16707E-02   -0.31909E-03 41472   0.321E-01    0.991E-01
DAV:   5    -0.231686969480E+03   -0.42544E-02   -0.45751E-03 42376   0.299E-01    0.281E+00
DAV:   6    -0.231678534269E+03    0.84352E-02   -0.74247E-03 39096   0.477E-01    0.256E+00
DAV:   7    -0.231676281185E+03    0.22531E-02   -0.31414E-03 44656   0.319E-01    0.256E+00
DAV:   8    -0.231677316053E+03   -0.10349E-02   -0.16130E-03 42696   0.203E-01    0.272E+00
DAV:   9    -0.231679234570E+03   -0.19185E-02   -0.43238E-03 43448   0.394E-01    0.322E+00
DAV:  10    -0.231678727162E+03    0.50741E-03   -0.22507E-03 42472   0.249E-01    0.348E+00
DAV:  11    -0.231675257390E+03    0.34698E-02   -0.21318E-03 43936   0.274E-01    0.336E+00
DAV:  12    -0.231669234896E+03    0.60225E-02   -0.32915E-03 42120   0.343E-01    0.205E+00
DAV:  13    -0.231673821389E+03   -0.45865E-02   -0.44401E-03 39456   0.325E-01    0.588E-01
DAV:  14    -0.231681788051E+03   -0.79667E-02   -0.60652E-03 38512   0.344E-01    0.111E+00
DAV:  15    -0.231683478266E+03   -0.16902E-02   -0.40563E-03 36984   0.275E-01    0.174E+00
DAV:  16    -0.231680123018E+03    0.33552E-02   -0.10727E-03 40784   0.177E-01    0.185E+00
DAV:  17    -0.231677795884E+03    0.23271E-02   -0.51723E-04 42680   0.963E-02    0.153E+00
DAV:  18    -0.231678232211E+03   -0.43633E-03   -0.40834E-04 35696   0.528E-02    0.122E+00
DAV:  19    -0.231679459224E+03   -0.12270E-02   -0.17651E-04 29816   0.410E-02    0.106E+00
DAV:  20    -0.231680514069E+03   -0.10548E-02   -0.11845E-04 36120   0.650E-02    0.111E+00
DAV:  21    -0.231680793363E+03   -0.27929E-03   -0.36647E-04 39160   0.892E-02    0.136E+00
DAV:  22    -0.231680513410E+03    0.27995E-03   -0.10179E-03 42848   0.123E-01    0.176E+00
DAV:  23    -0.231678571639E+03    0.19418E-02   -0.29698E-04 39384   0.108E-01    0.168E+00
DAV:  24    -0.231677652442E+03    0.91920E-03   -0.10987E-03 38592   0.785E-02    0.110E+00
DAV:  25    -0.231679302844E+03   -0.16504E-02   -0.12445E-03 34808   0.755E-02    0.461E-01
DAV:  26    -0.231681402265E+03   -0.20994E-02   -0.47099E-04 33016   0.895E-02    0.161E-01
DAV:  27    -0.231682200988E+03   -0.79872E-03   -0.18457E-04 35856   0.691E-02    0.124E-01
DAV:  28    -0.231682375779E+03   -0.17479E-03   -0.79694E-05 32176   0.417E-02    0.219E-01
DAV:  29    -0.231682356895E+03    0.18884E-04   -0.37717E-05 26960   0.293E-02    0.295E-01
DAV:  30    -0.231682276061E+03    0.80834E-04   -0.14694E-05 22432   0.193E-02    0.318E-01
DAV:  31    -0.231682203985E+03    0.72075E-04   -0.10808E-05 20832   0.157E-02    0.240E-01
DAV:  32    -0.231682234565E+03   -0.30579E-04   -0.23279E-05 21152   0.165E-02    0.780E-02
DAV:  33    -0.231682328772E+03   -0.94207E-04   -0.24069E-05 23992   0.195E-02    0.234E-02
DAV:  34    -0.231682362032E+03   -0.33261E-04   -0.11373E-05 20776   0.144E-02    0.767E-02
DAV:  35    -0.231682355993E+03    0.60399E-05   -0.45611E-06 20024   0.105E-02
 193 F= -.23168236E+03 E0= -.23166149E+03  d E =0.177231E-02  mag=     9.7451
       N       E                     dE             d eps       ncg     rms          rms(c)
DAV:   1    -0.231675643292E+03    0.67187E-02   -0.12782E+00 33736   0.603E+00    0.544E-01
DAV:   2    -0.231708847970E+03   -0.33205E-01   -0.24247E-01 35432   0.145E+00    0.400E+00
DAV:   3    -0.231686710977E+03    0.22137E-01   -0.48201E-02 38600   0.925E-01    0.737E-01
DAV:   4    -0.231697394827E+03   -0.10684E-01   -0.11373E-02 38072   0.586E-01    0.146E+00
DAV:   5    -0.231694192651E+03    0.32022E-02   -0.95783E-03 37240   0.521E-01    0.438E-01
DAV:   6    -0.231696526360E+03   -0.23337E-02   -0.39347E-03 38032   0.354E-01    0.879E-01
DAV:   7    -0.231695820710E+03    0.70565E-03   -0.21478E-03 40360   0.256E-01    0.106E+00
DAV:   8    -0.231694715646E+03    0.11051E-02   -0.44040E-04 42392   0.137E-01    0.101E+00
DAV:   9    -0.231694174081E+03    0.54156E-03   -0.46221E-04 41040   0.121E-01    0.699E-01
DAV:  10    -0.231695007426E+03   -0.83334E-03   -0.17570E-03 40400   0.189E-01    0.379E-01
DAV:  11    -0.231697151446E+03   -0.21440E-02   -0.18742E-03 40720   0.248E-01    0.140E+00
DAV:  12    -0.231696400774E+03    0.75067E-03   -0.14264E-03 38448   0.220E-01    0.193E+00
DAV:  13    -0.231694138487E+03    0.22623E-02   -0.70897E-04 39192   0.156E-01    0.206E+00
DAV:  14    -0.231692641674E+03    0.14968E-02   -0.19286E-04 39080   0.633E-02    0.203E+00
DAV:  15    -0.231692580562E+03    0.61112E-04   -0.40371E-05 28192   0.367E-02    0.214E+00
DAV:  16    -0.231692423144E+03    0.15742E-03   -0.32141E-05 25880   0.298E-02    0.225E+00
DAV:  17    -0.231691871150E+03    0.55199E-03   -0.14939E-05 23240   0.200E-02    0.225E+00
DAV:  18    -0.231690237532E+03    0.16336E-02   -0.30865E-04 34376   0.908E-02    0.164E+00
DAV:  19    -0.231691311097E+03   -0.10736E-02   -0.75352E-04 40136   0.127E-01    0.744E-01
DAV:  20    -0.231694230796E+03   -0.29197E-02   -0.96040E-04 34064   0.123E-01    0.132E-01
DAV:  21    -0.231695842434E+03   -0.16116E-02   -0.44779E-04 34040   0.102E-01    0.299E-01
DAV:  22    -0.231695912159E+03   -0.69725E-04   -0.15597E-04 38624   0.639E-02    0.326E-01
DAV:  23    -0.231695777364E+03    0.13480E-03   -0.46076E-05 33008   0.345E-02    0.245E-01
DAV:  24    -0.231695805953E+03   -0.28589E-04   -0.37468E-05 25784   0.296E-02    0.947E-02
DAV:  25    -0.231695913935E+03   -0.10798E-03   -0.65895E-05 31792   0.308E-02    0.127E-01
DAV:  26    -0.231695962535E+03   -0.48600E-04   -0.58288E-05 28528   0.290E-02    0.318E-01
DAV:  27    -0.231695838629E+03    0.12391E-03   -0.28966E-05 26192   0.323E-02    0.333E-01
DAV:  28    -0.231695742552E+03    0.96076E-04   -0.25130E-05 21688   0.257E-02    0.190E-01
DAV:  29    -0.231695831790E+03   -0.89238E-04   -0.45769E-05 22880   0.192E-02    0.348E-02
DAV:  30    -0.231695928054E+03   -0.96264E-04   -0.34898E-05 26080   0.250E-02    0.120E-01
DAV:  31    -0.231695914785E+03    0.13269E-04   -0.97386E-06 21408   0.180E-02    0.110E-01
DAV:  32    -0.231695902617E+03    0.12168E-04   -0.38986E-06 18776   0.697E-03    0.856E-02
DAV:  33    -0.231695905869E+03   -0.32527E-05   -0.10088E-06 17408   0.333E-03
 194 F= -.23169591E+03 E0= -.23167499E+03  d E =-.135499E-01  mag=     9.7334
       N       E                     dE             d eps       ncg     rms          rms(c)
DAV:   1    -0.231557340077E+03    0.13856E+00   -0.10071E+01 34288   0.182E+01    0.142E+00
DAV:   2    -0.231756215202E+03   -0.19888E+00   -0.19426E+00 34904   0.377E+00    0.507E+00
DAV:   3    -0.231732260301E+03    0.23955E-01   -0.46935E-01 39016   0.201E+00    0.432E+00
DAV:   4    -0.231762219739E+03   -0.29959E-01   -0.25914E-01 37552   0.176E+00    0.571E+00
DAV:   5    -0.231715861577E+03    0.46358E-01   -0.11296E-01 37824   0.147E+00    0.298E+00
DAV:   6    -0.231723489595E+03   -0.76280E-02   -0.14257E-02 39776   0.755E-01    0.237E+00
DAV:   7    -0.231724424684E+03   -0.93509E-03   -0.26512E-02 42472   0.633E-01    0.107E+00
DAV:   8    -0.231734509133E+03   -0.10084E-01   -0.14979E-02 40208   0.770E-01    0.215E+00
DAV:   9    -0.231736270228E+03   -0.17611E-02   -0.74603E-03 39104   0.554E-01    0.283E+00
DAV:  10    -0.231734674732E+03    0.15955E-02   -0.32453E-03 39840   0.335E-01    0.345E+00
DAV:  11    -0.231731430394E+03    0.32443E-02   -0.12723E-03 36120   0.135E-01    0.384E+00
DAV:  12    -0.231727550116E+03    0.38803E-02   -0.93291E-04 40960   0.223E-01    0.380E+00
DAV:  13    -0.231723343503E+03    0.42066E-02   -0.15295E-03 44608   0.270E-01    0.327E+00
DAV:  14    -0.231721268395E+03    0.20751E-02   -0.38546E-03 41512   0.342E-01    0.219E+00
DAV:  15    -0.231726057694E+03   -0.47893E-02   -0.24967E-03 38144   0.320E-01    0.167E+00
DAV:  16    -0.231728831035E+03   -0.27733E-02   -0.13230E-03 37904   0.168E-01    0.150E+00
DAV:  17    -0.231729681424E+03   -0.85039E-03   -0.30896E-04 36848   0.475E-02    0.140E+00
DAV:  18    -0.231729214180E+03    0.46724E-03   -0.63214E-04 43240   0.117E-01    0.537E-01
DAV:  19    -0.231731151741E+03   -0.19376E-02   -0.88093E-04 38224   0.152E-01    0.251E-01
DAV:  20    -0.231732255184E+03   -0.11034E-02   -0.58921E-04 37992   0.142E-01    0.431E-01
DAV:  21    -0.231732084101E+03    0.17108E-03   -0.31229E-04 42640   0.915E-02    0.155E-01
DAV:  22    -0.231732237052E+03   -0.15295E-03   -0.20826E-04 36984   0.638E-02    0.300E-01
DAV:  23    -0.231732219597E+03    0.17455E-04   -0.95652E-05 32080   0.577E-02    0.423E-01
DAV:  24    -0.231731993375E+03    0.22622E-03   -0.42177E-05 27000   0.423E-02    0.374E-01
DAV:  25    -0.231731942689E+03    0.50686E-04   -0.28558E-05 22648   0.236E-02    0.243E-01
DAV:  26    -0.231732056722E+03   -0.11403E-03   -0.29222E-05 22000   0.269E-02    0.138E-01
DAV:  27    -0.231732156891E+03   -0.10017E-03   -0.21173E-05 23744   0.299E-02    0.110E-01
DAV:  28    -0.231732190955E+03   -0.34063E-04   -0.16458E-05 20880   0.208E-02    0.170E-01
DAV:  29    -0.231732182574E+03    0.83808E-05   -0.82605E-06 20152   0.110E-02
 195 F= -.23173218E+03 E0= -.23171143E+03  d E =-.362767E-01  mag=     9.7169
       N       E                     dE             d eps       ncg     rms          rms(c)
DAV:   1    -0.231674625386E+03    0.57566E-01   -0.29621E+00 34296   0.117E+01    0.844E-01
DAV:   2    -0.231787202682E+03   -0.11258E+00   -0.10668E+00 37952   0.270E+00    0.723E+00
DAV:   3    -0.231712495717E+03    0.74707E-01   -0.21842E-01 39152   0.176E+00    0.243E+00
DAV:   4    -0.231726198739E+03   -0.13703E-01   -0.45539E-02 40184   0.908E-01    0.130E+00
DAV:   5    -0.231735167197E+03   -0.89685E-02   -0.15017E-02 36504   0.785E-01    0.103E+00
DAV:   6    -0.231734755493E+03    0.41170E-03   -0.66458E-03 38424   0.497E-01    0.453E-01
DAV:   7    -0.231735606470E+03   -0.85098E-03   -0.16084E-03 38584   0.247E-01    0.579E-01
DAV:   8    -0.231735554071E+03    0.52399E-04   -0.70983E-04 40344   0.177E-01    0.730E-01
DAV:   9    -0.231734877714E+03    0.67636E-03   -0.33376E-04 41064   0.120E-01    0.548E-01
DAV:  10    -0.231734903516E+03   -0.25802E-04   -0.20865E-04 39056   0.778E-02    0.323E-01
DAV:  11    -0.231735772940E+03   -0.86942E-03   -0.17520E-03 43224   0.169E-01    0.769E-01
DAV:  12    -0.231736376432E+03   -0.60349E-03   -0.27682E-03 39128   0.232E-01    0.149E+00
DAV:  13    -0.231734148256E+03    0.22282E-02   -0.11717E-03 37904   0.192E-01    0.170E+00
DAV:  14    -0.231731195132E+03    0.29531E-02   -0.25516E-03 42960   0.187E-01    0.932E-01
DAV:  15    -0.231733165054E+03   -0.19699E-02   -0.21383E-03 41400   0.174E-01    0.196E-01
DAV:  16    -0.231735483968E+03   -0.23189E-02   -0.80401E-04 34448   0.164E-01    0.230E-01
DAV:  17    -0.231735528877E+03   -0.44910E-04   -0.18908E-04 40616   0.762E-02    0.159E-01
DAV:  18    -0.231735511333E+03    0.17544E-04   -0.35588E-05 25776   0.252E-02    0.108E-01
DAV:  19    -0.231735524231E+03   -0.12898E-04   -0.74082E-06 20424   0.139E-02    0.124E-01
DAV:  20    -0.231735528282E+03   -0.40514E-05   -0.17992E-05 18848   0.165E-02
 196 F= -.23173553E+03 E0= -.23171444E+03  d E =-.334571E-02  mag=     9.7186
       N       E                     dE             d eps       ncg     rms          rms(c)
DAV:   1    -0.231693537883E+03    0.41986E-01   -0.19593E+00 33760   0.734E+00    0.602E-01
DAV:   2    -0.231728856244E+03   -0.35318E-01   -0.30345E-01 34968   0.163E+00    0.321E+00
DAV:   3    -0.231714931284E+03    0.13925E-01   -0.34025E-02 38808   0.877E-01    0.853E-01
DAV:   4    -0.231722996601E+03   -0.80653E-02   -0.19350E-02 36424   0.742E-01    0.123E+00
DAV:   5    -0.231720686525E+03    0.23101E-02   -0.87811E-03 36584   0.516E-01    0.664E-01
DAV:   6    -0.231720702908E+03   -0.16383E-04   -0.18767E-03 38768   0.266E-01    0.401E-01
DAV:   7    -0.231720839402E+03   -0.13649E-03   -0.25132E-04 36152   0.652E-02    0.456E-01
DAV:   8    -0.231720656093E+03    0.18331E-03   -0.37936E-04 38920   0.115E-01    0.584E-01
DAV:   9    -0.231720489643E+03    0.16645E-03   -0.77146E-04 41288   0.195E-01    0.823E-01
DAV:  10    -0.231720930410E+03   -0.44077E-03   -0.44372E-03 43224   0.244E-01    0.143E+00
DAV:  11    -0.231719045409E+03    0.18850E-02   -0.11069E-03 37880   0.164E-01    0.170E+00
DAV:  12    -0.231717106786E+03    0.19386E-02   -0.37922E-04 38456   0.933E-02    0.175E+00
DAV:  13    -0.231716136794E+03    0.96999E-03   -0.12172E-04 37672   0.636E-02    0.168E+00
DAV:  14    -0.231715844586E+03    0.29221E-03   -0.71379E-04 35216   0.963E-02    0.131E+00
DAV:  15    -0.231717590984E+03   -0.17464E-02   -0.34229E-03 41560   0.234E-01    0.775E-01
DAV:  16    -0.231722509149E+03   -0.49182E-02   -0.47776E-03 41248   0.312E-01    0.201E+00
DAV:  17    -0.231720876234E+03    0.16329E-02   -0.31584E-03 38840   0.337E-01    0.248E+00
DAV:  18    -0.231717137059E+03    0.37392E-02   -0.12192E-03 43248   0.213E-01    0.238E+00
DAV:  19    -0.231715895981E+03    0.12411E-02   -0.29388E-04 45056   0.801E-02    0.224E+00
DAV:  20    -0.231716532870E+03   -0.63689E-03   -0.10074E-04 35848   0.594E-02    0.233E+00
DAV:  21    -0.231717549439E+03   -0.10166E-02   -0.49348E-04 43272   0.116E-01    0.267E+00
DAV:  22    -0.231715983629E+03    0.15658E-02   -0.33584E-04 43120   0.104E-01    0.254E+00
DAV:  23    -0.231713777758E+03    0.22059E-02   -0.55900E-04 45424   0.121E-01    0.170E+00
DAV:  24    -0.231715640340E+03   -0.18626E-02   -0.11176E-03 39784   0.139E-01    0.598E-01
DAV:  25    -0.231719365634E+03   -0.37253E-02   -0.11558E-03 34248   0.156E-01    0.226E-01
DAV:  26    -0.231720784413E+03   -0.14188E-02   -0.44761E-04 34680   0.119E-01    0.233E-01
DAV:  27    -0.231720811139E+03   -0.26726E-04   -0.11909E-04 40296   0.503E-02    0.189E-01
DAV:  28    -0.231720784199E+03    0.26940E-04   -0.22815E-05 24864   0.323E-02    0.127E-01
DAV:  29    -0.231720844525E+03   -0.60326E-04   -0.96804E-05 25408   0.403E-02    0.230E-01
DAV:  30    -0.231720874252E+03   -0.29727E-04   -0.93253E-05 30408   0.380E-02    0.414E-01
DAV:  31    -0.231720641619E+03    0.23263E-03   -0.39259E-05 26584   0.377E-02    0.310E-01
DAV:  32    -0.231720639640E+03    0.19793E-05   -0.20425E-05 22424   0.144E-02
 197 F= -.23172064E+03 E0= -.23169988E+03  d E =0.148886E-01  mag=     9.7169
       N       E                     dE             d eps       ncg     rms          rms(c)
DAV:   1    -0.231718070157E+03    0.25715E-02   -0.71783E-01 33440   0.452E+00    0.331E-01
DAV:   2    -0.231730057173E+03   -0.11987E-01   -0.11400E-01 34672   0.955E-01    0.179E+00
DAV:   3    -0.231725261875E+03    0.47953E-02   -0.15927E-02 37320   0.490E-01    0.466E-01
DAV:   4    -0.231728592012E+03   -0.33301E-02   -0.41734E-03 36480   0.421E-01    0.596E-01
DAV:   5    -0.231727960734E+03    0.63128E-03   -0.19081E-03 37128   0.283E-01    0.197E-01
DAV:   6    -0.231728170478E+03   -0.20974E-03   -0.56811E-04 35712   0.161E-01    0.355E-01
DAV:   7    -0.231728115892E+03    0.54585E-04   -0.38737E-04 38160   0.128E-01    0.491E-01
DAV:   8    -0.231727884072E+03    0.23182E-03   -0.18773E-04 36264   0.824E-02    0.472E-01
DAV:   9    -0.231727719853E+03    0.16422E-03   -0.74262E-05 27240   0.433E-02    0.362E-01
DAV:  10    -0.231727797057E+03   -0.77204E-04   -0.12077E-05 20760   0.168E-02    0.350E-01
DAV:  11    -0.231727851066E+03   -0.54008E-04   -0.11172E-04 28896   0.628E-02    0.210E-01
DAV:  12    -0.231728105343E+03   -0.25428E-03   -0.57330E-04 39520   0.132E-01    0.439E-01
DAV:  13    -0.231728229946E+03   -0.12460E-03   -0.94556E-04 39512   0.138E-01    0.855E-01
DAV:  14    -0.231727235460E+03    0.99449E-03   -0.38019E-04 37120   0.115E-01    0.745E-01
DAV:  15    -0.231726928184E+03    0.30728E-03   -0.46643E-04 38768   0.810E-02    0.265E-01
DAV:  16    -0.231727725373E+03   -0.79719E-03   -0.23562E-04 31960   0.656E-02    0.111E-01
DAV:  17    -0.231728017217E+03   -0.29184E-03   -0.93566E-05 30376   0.468E-02    0.168E-01
DAV:  18    -0.231728028654E+03   -0.11437E-04   -0.26340E-05 25424   0.205E-02    0.229E-01
DAV:  19    -0.231728011732E+03    0.16922E-04   -0.42041E-05 23672   0.244E-02    0.390E-01
DAV:  20    -0.231727961599E+03    0.50133E-04   -0.71477E-05 28440   0.285E-02    0.630E-01
DAV:  21    -0.231727678256E+03    0.28334E-03   -0.46374E-05 28136   0.288E-02    0.774E-01
DAV:  22    -0.231727379662E+03    0.29859E-03   -0.23112E-05 24800   0.204E-02    0.879E-01
DAV:  23    -0.231727112707E+03    0.26695E-03   -0.14562E-05 22432   0.159E-02    0.965E-01
DAV:  24    -0.231726856735E+03    0.25597E-03   -0.72178E-06 20928   0.133E-02    0.985E-01
DAV:  25    -0.231726668410E+03    0.18832E-03   -0.10055E-05 20840   0.165E-02    0.896E-01
DAV:  26    -0.231726732196E+03   -0.63786E-04   -0.22432E-05 21448   0.165E-02    0.736E-01
DAV:  27    -0.231727008837E+03   -0.27664E-03   -0.65130E-05 28992   0.260E-02    0.492E-01
DAV:  28    -0.231727438658E+03   -0.42982E-03   -0.99907E-05 30288   0.334E-02    0.194E-01
DAV:  29    -0.231727871361E+03   -0.43270E-03   -0.80715E-05 29880   0.386E-02    0.318E-02
DAV:  30    -0.231728035089E+03   -0.16373E-03   -0.44276E-05 27432   0.310E-02    0.115E-01
DAV:  31    -0.231728040469E+03   -0.53802E-05   -0.18197E-05 23144   0.182E-02
 198 F= -.23172804E+03 E0= -.23170691E+03  d E =-.740083E-02  mag=     9.7137
