       N       E                     dE             d eps       ncg     rms          rms(c)
DAV:   1     0.132909385022E+04    0.13291E+04   -0.57297E+04 77656   0.165E+03
DAV:   2     0.338766206992E+02   -0.12952E+04   -0.12292E+04 80276   0.492E+02
DAV:   3    -0.160055458854E+03   -0.19393E+03   -0.18649E+03 96992   0.184E+02
DAV:   4    -0.167614304958E+03   -0.75588E+01   -0.75294E+01103696   0.388E+01
DAV:   5    -0.168180475409E+03   -0.56617E+00   -0.56575E+00144788   0.747E+00    0.441E+00
DAV:   6    -0.136802948966E+03    0.31378E+02   -0.13462E+01 89244   0.162E+01    0.370E+00
DAV:   7    -0.136681718233E+03    0.12123E+00   -0.71714E-01128160   0.428E+00    0.215E+00
DAV:   8    -0.136635338777E+03    0.46379E-01   -0.61852E-02 90976   0.108E+00    0.146E+00
DAV:   9    -0.136621819339E+03    0.13519E-01   -0.12710E-02 94336   0.470E-01    0.105E+00
DAV:  10    -0.136613076432E+03    0.87429E-02   -0.65596E-03 95128   0.317E-01    0.784E-01
DAV:  11    -0.136608373549E+03    0.47029E-02   -0.33312E-03 94312   0.232E-01    0.582E-01
DAV:  12    -0.136605870058E+03    0.25035E-02   -0.16810E-03 95520   0.163E-01    0.444E-01
DAV:  13    -0.136603533000E+03    0.23371E-02   -0.25793E-03 93192   0.204E-01    0.269E-01
DAV:  14    -0.136602522089E+03    0.10109E-02   -0.13493E-03 97016   0.147E-01    0.142E-01
DAV:  15    -0.136602117639E+03    0.40445E-03   -0.63810E-04 93376   0.993E-02    0.553E-02
DAV:  16    -0.136602040737E+03    0.76902E-04   -0.98926E-05 99280   0.381E-02    0.234E-02
DAV:  17    -0.136602038753E+03    0.19835E-05   -0.30679E-06 48048   0.938E-03
   1 F= -.13660204E+03 E0= -.13660204E+03  d E =-.136602E+03  mag=    -2.0000
