       N       E                     dE             d eps       ncg     rms          ort
DAV:   1     0.562285525171E+04    0.56229E+04   -0.26871E+05  7696   0.164E+03
DAV:   2     0.243250492007E+03   -0.53796E+04   -0.49769E+04  7696   0.461E+02
DAV:   3    -0.372951969935E+03   -0.61620E+03   -0.60596E+03  7696   0.173E+02
DAV:   4    -0.389511512808E+03   -0.16560E+02   -0.16438E+02  7696   0.291E+01
DAV:   5    -0.389943168542E+03   -0.43166E+00   -0.43074E+00  7696   0.396E+00
SDA:   6    -0.150631320168E+03    0.23931E+03   -0.43074E+00  7696   0.111E+04 0.000E+00
CGA:   7    -0.224796942754E+03   -0.74166E+02   -0.11710E+03  7696   0.162E+04-0.106E+02
CGA:   8    -0.276066939953E+03   -0.51270E+02   -0.32055E+02  7696   0.433E+03-0.246E+01
CGA:   9    -0.285180597584E+03   -0.91137E+01   -0.10689E+02  7696   0.572E+03-0.159E+02
CGA:  10    -0.251553595966E+03    0.33627E+02   -0.26042E+02  7696   0.218E+04-0.133E+03
CGA:  11    -0.266573479987E+03   -0.15020E+02   -0.42251E+02  7696   0.158E+04-0.119E+04
CGA:  12    -0.291448447796E+03   -0.24875E+02   -0.47801E+02  7696   0.583E+03-0.284E+03
CGA:  13    -0.289924933169E+03    0.15235E+01   -0.25362E+02  7696   0.970E+03-0.419E+02
CGA:  14    -0.309653022478E+03   -0.19728E+02   -0.27703E+02  7696   0.270E+03 0.147E+03
CGA:  15    -0.298672930777E+03    0.10980E+02   -0.14718E+02  7696   0.703E+03-0.390E+03
CGA:  16    -0.306404367709E+03   -0.77314E+01   -0.20153E+02  7696   0.531E+03-0.531E+03
CGA:  17    -0.297192700766E+03    0.92117E+01   -0.20678E+02  7696   0.590E+03-0.408E+03
CGA:  18    -0.311486542080E+03   -0.14294E+02   -0.14572E+02  7696   0.474E+03-0.544E+03
CGA:  19    -0.300321653155E+03    0.11165E+02   -0.21552E+02  7696   0.965E+03-0.375E+03
CGA:  20    -0.305675293159E+03   -0.53536E+01   -0.33917E+02  7696   0.784E+03-0.444E+03
CGA:  21    -0.300260908783E+03    0.54144E+01   -0.16910E+02  7696   0.920E+03-0.370E+03
CGA:  22    -0.301870237680E+03   -0.16093E+01   -0.11269E+02  7696   0.932E+03-0.423E+03
CGA:  23    -0.308570694802E+03   -0.67005E+01   -0.15813E+02  7696   0.163E+04-0.823E+03
CGA:  24    -0.308572314769E+03   -0.16200E-02   -0.71763E+02  7696   0.427E+03-0.334E+03
CGA:  25    -0.317273813781E+03   -0.87015E+01   -0.11212E+02  7696   0.471E+03-0.528E+03
CGA:  26    -0.312326649788E+03    0.49472E+01   -0.17285E+02  7696   0.435E+03-0.275E+03
CGA:  27    -0.311161016216E+03    0.11656E+01   -0.13740E+02  7696   0.514E+03-0.325E+03
CGA:  28    -0.308331547477E+03    0.28295E+01   -0.17525E+02  7696   0.552E+03-0.491E+03
CGA:  29    -0.312344449615E+03   -0.40129E+01   -0.18200E+02  7696   0.211E+03-0.215E+03
CGA:  30    -0.325171487854E+03   -0.12827E+02   -0.26384E+01  7696   0.136E+02-0.414E+02
CGA:  31    -0.325303988553E+03   -0.13250E+00   -0.13840E+00  7696   0.810E+01-0.450E+00
CGA:  32    -0.325402050264E+03   -0.98062E-01   -0.86384E-01  7696   0.549E+01 0.931E+00
CGA:  33    -0.325500154970E+03   -0.98105E-01   -0.79193E-01  7696   0.526E+01 0.139E+01
CGA:  34    -0.325600290925E+03   -0.10014E+00   -0.74788E-01  7696   0.514E+01 0.214E+01
CGA:  35    -0.325761883157E+03   -0.16159E+00   -0.12099E+00  7696   0.118E+02 0.225E+01
CGA:  36    -0.325971007304E+03   -0.20912E+00   -0.11553E+00  7696   0.122E+02 0.138E+02
CGA:  37    -0.326064224772E+03   -0.93217E-01   -0.10363E+00  7696   0.186E+01-0.128E+01
CGA:  38    -0.326163922191E+03   -0.99697E-01   -0.99814E-01  7696   0.602E+01 0.360E-01
CGA:  39    -0.326258836608E+03   -0.94914E-01   -0.55913E-01  7696   0.241E+01 0.423E+01
CGA:  40    -0.326302910702E+03   -0.44074E-01   -0.41147E-01  7696   0.200E+01 0.137E+00
CGA:  41    -0.326356854858E+03   -0.53944E-01   -0.52328E-01  7696   0.230E+01 0.584E-01
CGA:  42    -0.326488546657E+03   -0.13169E+00   -0.13176E+00  7696   0.859E+01-0.558E-01
CGA:  43    -0.326523425793E+03   -0.34879E-01   -0.18035E-01  7696   0.760E+01 0.777E+01
CGA:  44    -0.326611454785E+03   -0.88029E-01   -0.81375E-01  7696   0.203E+01 0.551E+00
CGA:  45    -0.326658118092E+03   -0.46663E-01   -0.45484E-01  7696   0.959E+00 0.389E-01
CGA:  46    -0.326693997016E+03   -0.35879E-01   -0.36808E-01  7696   0.217E+01 0.192E-01
CGA:  47    -0.326754931512E+03   -0.60934E-01   -0.53040E-01  7696   0.204E+01 0.216E+00
CGA:  48    -0.326860343089E+03   -0.10541E+00   -0.10321E+00  7696   0.242E+01-0.766E+00
CGA:  49    -0.326863569435E+03   -0.32263E-02   -0.18946E-02  7696   0.208E+01 0.105E+01
CGA:  50    -0.326873572879E+03   -0.10003E-01   -0.69183E-02  7696   0.108E+01 0.130E+01
CGA:  51    -0.326893423032E+03   -0.19850E-01   -0.20863E-01  7696   0.117E+01-0.306E-01
CGA:  52    -0.326922552529E+03   -0.29129E-01   -0.29632E-01  7696   0.126E+01 0.565E-02
CGA:  53    -0.326955849733E+03   -0.33297E-01   -0.34841E-01  7696   0.195E+01 0.556E-02
CGA:  54    -0.326996363855E+03   -0.40514E-01   -0.36514E-01  7696   0.426E+00 0.139E+00
CGA:  55    -0.327006720072E+03   -0.10356E-01   -0.10543E-01  7696   0.651E+00-0.357E-02
CGA:  56    -0.327024316851E+03   -0.17597E-01   -0.16523E-01  7696   0.627E+00 0.246E-02
CGA:  57    -0.327050396202E+03   -0.26079E-01   -0.26109E-01  7696   0.569E+00-0.546E-02
CGA:  58    -0.327062275781E+03   -0.11880E-01   -0.10874E-01  7696   0.583E+00 0.264E-01
CGA:  59    -0.327072249862E+03   -0.99741E-02   -0.10796E-01  7696   0.296E+00-0.255E-01
CGA:  60    -0.327083362601E+03   -0.11113E-01   -0.11246E-01  7696   0.516E+00-0.228E-01
CGA:  61    -0.327089552448E+03   -0.61898E-02   -0.66270E-02  7696   0.237E+00-0.238E-01
CGA:  62    -0.327096652497E+03   -0.71000E-02   -0.70837E-02  7696   0.254E+00-0.343E-02
CGA:  63    -0.327100301482E+03   -0.36490E-02   -0.37936E-02  7696   0.201E+00-0.782E-02
CGA:  64    -0.327105977010E+03   -0.56755E-02   -0.55505E-02  7696   0.149E+00-0.840E-02
CGA:  65    -0.327107954738E+03   -0.19777E-02   -0.20885E-02  7696   0.103E+00-0.611E-02
CGA:  66    -0.327109956011E+03   -0.20013E-02   -0.19906E-02  7696   0.538E-01-0.115E-02
CGA:  67    -0.327111255004E+03   -0.12990E-02   -0.13170E-02  7696   0.837E-01-0.209E-03
CGA:  68    -0.327112804676E+03   -0.15497E-02   -0.15065E-02  7696   0.491E-01 0.225E-03
CGA:  69    -0.327114098137E+03   -0.12935E-02   -0.13035E-02  7696   0.540E-01 0.400E-03
CGA:  70    -0.327114891665E+03   -0.79353E-03   -0.78107E-03  7696   0.284E-01 0.145E-03
CGA:  71    -0.327115856404E+03   -0.96474E-03   -0.95840E-03  7696   0.475E-01 0.863E-03
CGA:  72    -0.327116609743E+03   -0.75334E-03   -0.73867E-03  7696   0.220E-01 0.277E-03
CGA:  73    -0.327117215537E+03   -0.60579E-03   -0.60694E-03  7696   0.270E-01 0.146E-03
CGA:  74    -0.327117641155E+03   -0.42562E-03   -0.42063E-03  7696   0.165E-01-0.130E-04
CGA:  75    -0.327118286204E+03   -0.64505E-03   -0.63873E-03  7696   0.306E-01 0.412E-03
CGA:  76    -0.327118791364E+03   -0.50516E-03   -0.49878E-03  7696   0.159E-01-0.122E-04
CGA:  77    -0.327119171101E+03   -0.37974E-03   -0.38152E-03  7696   0.163E-01 0.566E-04
CGA:  78    -0.327119455783E+03   -0.28468E-03   -0.28223E-03  7696   0.101E-01-0.630E-04
CGA:  79    -0.327119771210E+03   -0.31543E-03   -0.31461E-03  7696   0.154E-01 0.101E-03
CGA:  80    -0.327120080328E+03   -0.30912E-03   -0.30695E-03  7696   0.135E-01-0.894E-04
SDA:  81    -0.327120455363E+03   -0.37503E-03   -0.37477E-03  7696   0.126E-01 0.269E-03
CGA:  82    -0.327120546348E+03   -0.90986E-04   -0.90900E-04  7696   0.193E-02 0.104E-04
CGA:  83    -0.327120609422E+03   -0.63073E-04   -0.62983E-04  7696   0.318E-02 0.127E-04
CGA:  84    -0.327120747562E+03   -0.13814E-03   -0.13725E-03  7696   0.103E-01 0.531E-04
CGA:  85    -0.327121224299E+03   -0.47674E-03   -0.46575E-03  7696   0.751E-02 0.592E-03
CGA:  86    -0.327121518995E+03   -0.29470E-03   -0.29302E-03  7696   0.909E-02 0.173E-03
CGA:  87    -0.327121710040E+03   -0.19104E-03   -0.19071E-03  7696   0.131E-01 0.582E-04
CGA:  88    -0.327121975088E+03   -0.26505E-03   -0.27017E-03  7696   0.402E-02 0.161E-03
CGA:  89    -0.327122123062E+03   -0.14797E-03   -0.14808E-03  7696   0.678E-02-0.405E-05
CGA:  90    -0.327122218136E+03   -0.95074E-04   -0.94659E-04  7696   0.214E-02 0.241E-04
CGA:  91    -0.327122287962E+03   -0.69826E-04   -0.69761E-04  7696   0.717E-02 0.416E-05
CGA:  92    -0.327122653214E+03   -0.36525E-03   -0.36440E-03  7696   0.169E-01 0.255E-04
CGA:  93    -0.327123161042E+03   -0.50783E-03   -0.51571E-03  7696   0.939E-02-0.322E-02
CGA:  94    -0.327123244855E+03   -0.83814E-04   -0.82830E-04  7696   0.576E-02 0.186E-04
CGA:  95    -0.327123361409E+03   -0.11655E-03   -0.11807E-03  7696   0.483E-02 0.382E-05
CGA:  96    -0.327123449581E+03   -0.88172E-04   -0.89064E-04  7696   0.708E-02-0.188E-04
CGA:  97    -0.327123617541E+03   -0.16796E-03   -0.16684E-03  7696   0.417E-02-0.122E-03
CGA:  98    -0.327123664691E+03   -0.47150E-04   -0.46777E-04  7696   0.268E-02 0.122E-04
CGA:  99    -0.327123777343E+03   -0.11265E-03   -0.11321E-03  7696   0.960E-02-0.330E-04
CGA: 100    -0.327123916499E+03   -0.13916E-03   -0.13752E-03  7696   0.497E-02 0.307E-04
CGA: 101    -0.327124001521E+03   -0.85022E-04   -0.85909E-04  7696   0.644E-02-0.247E-05
CGA: 102    -0.327124097452E+03   -0.95931E-04   -0.96817E-04  7696   0.303E-02-0.639E-05
CGA: 103    -0.327124153555E+03   -0.56103E-04   -0.55873E-04  7696   0.474E-02-0.143E-07
CGA: 104    -0.327124240477E+03   -0.86922E-04   -0.86219E-04  7696   0.358E-02-0.433E-05
CGA: 105    -0.327124297719E+03   -0.57242E-04   -0.57706E-04  7696   0.511E-02 0.293E-05
CGA: 106    -0.327124433943E+03   -0.13622E-03   -0.13544E-03  7696   0.612E-02 0.221E-03
CGA: 107    -0.327124521070E+03   -0.87127E-04   -0.85117E-04  7696   0.390E-02 0.778E-04
CGA: 108    -0.327124582278E+03   -0.61208E-04   -0.60581E-04  7696   0.272E-02 0.107E-04
CGA: 109    -0.327124628210E+03   -0.45933E-04   -0.45775E-04  7696   0.373E-02 0.489E-05
CGA: 110    -0.327124720803E+03   -0.92593E-04   -0.92628E-04  7696   0.561E-02-0.186E-05
CGA: 111    -0.327124780105E+03   -0.59302E-04   -0.60746E-04  7696   0.215E-02-0.326E-04
SDA: 112    -0.327124815950E+03   -0.35846E-04   -0.36214E-04  7696   0.354E-02 0.279E-04
CGA: 113    -0.327124867661E+03   -0.51710E-04   -0.51702E-04  7696   0.285E-02 0.174E-05
CGA: 114    -0.327125181138E+03   -0.31348E-03   -0.12068E-05  7696   0.203E-01-0.599E-03
CGA: 115    -0.327125424614E+03   -0.24348E-03   -0.22563E-03  7696   0.117E-01 0.103E-02
CGA: 116    -0.327125701072E+03   -0.27646E-03   -0.26870E-03  7696   0.143E-01 0.151E-03
CGA: 117    -0.327125959695E+03   -0.25862E-03   -0.25711E-03  7696   0.170E-01 0.861E-04
CGA: 118    -0.327126298105E+03   -0.33841E-03   -0.32241E-03  7696   0.113E-01 0.456E-03
CGA: 119    -0.327126429157E+03   -0.13105E-03   -0.12817E-03  7696   0.749E-02 0.197E-03
CGA: 120    -0.327126584969E+03   -0.15581E-03   -0.15656E-03  7696   0.776E-02-0.129E-04
CGA: 121    -0.327126670946E+03   -0.85978E-04   -0.87891E-04  7696   0.377E-02-0.127E-03
CGA: 122    -0.327126722775E+03   -0.51829E-04   -0.52450E-04  7696   0.179E-02-0.290E-04
CGA: 123    -0.327126743156E+03   -0.20381E-04   -0.20405E-04  7696   0.124E-02-0.609E-05
CGA: 124    -0.327126783100E+03   -0.39945E-04   -0.39955E-04  7696   0.322E-02-0.815E-05
CGA: 125    -0.327126850065E+03   -0.66965E-04   -0.66755E-04  7696   0.400E-02-0.166E-04
CGA: 126    -0.327126905668E+03   -0.55603E-04   -0.55149E-04  7696   0.135E-02-0.279E-05
CGA: 127    -0.327126918970E+03   -0.13302E-04   -0.13324E-04  7696   0.640E-03-0.405E-05
CGA: 128    -0.327126937232E+03   -0.18262E-04   -0.18263E-04  7696   0.169E-02 0.707E-05
CGA: 129    -0.327126981656E+03   -0.44424E-04   -0.44523E-04  7696   0.232E-02 0.255E-04
CGA: 130    -0.327127015210E+03   -0.33553E-04   -0.33511E-04  7696   0.163E-02 0.223E-04
CGA: 131    -0.327127051353E+03   -0.36143E-04   -0.36158E-04  7696   0.254E-02 0.137E-04
CGA: 132    -0.327127101535E+03   -0.50182E-04   -0.50507E-04  7696   0.270E-02 0.280E-04
CGA: 133    -0.327127140476E+03   -0.38941E-04   -0.39224E-04  7696   0.146E-02 0.204E-04
CGA: 134    -0.327127165768E+03   -0.25292E-04   -0.25411E-04  7696   0.216E-02 0.135E-04
CGA: 135    -0.327127237475E+03   -0.71707E-04   -0.71578E-04  7696   0.385E-02 0.232E-04
CGA: 136    -0.327127282390E+03   -0.44915E-04   -0.45556E-04  7696   0.154E-02 0.109E-04
CGA: 137    -0.327127304060E+03   -0.21670E-04   -0.21630E-04  7696   0.943E-03 0.122E-04
CGA: 138    -0.327127320502E+03   -0.16442E-04   -0.16408E-04  7696   0.134E-02 0.523E-06
CGA: 139    -0.327127364512E+03   -0.44010E-04   -0.43990E-04  7696   0.317E-02-0.838E-06
CGA: 140    -0.327127418132E+03   -0.53620E-04   -0.54174E-04  7696   0.213E-02-0.117E-04
CGA: 141    -0.327127442333E+03   -0.24201E-04   -0.23394E-04  7696   0.540E-03 0.270E-04
CGA: 142    -0.327127449864E+03   -0.75307E-05   -0.74484E-05  7696   0.509E-03-0.320E-05
SDA: 143    -0.327127465311E+03   -0.15447E-04   -0.15516E-04  7696   0.115E-02-0.930E-05
CGA: 144    -0.327127486622E+03   -0.21311E-04   -0.21342E-04  7696   0.381E-03 0.320E-05
CGA: 145    -0.327127502234E+03   -0.15612E-04   -0.15637E-04  7696   0.119E-02-0.140E-05
CGA: 146    -0.327127556110E+03   -0.53876E-04   -0.53945E-04  7696   0.171E-02-0.334E-05
CGA: 147    -0.327127595372E+03   -0.39262E-04   -0.39293E-04  7696   0.103E-02 0.457E-05
CGA: 148    -0.327127617689E+03   -0.22317E-04   -0.22333E-04  7696   0.680E-03 0.946E-06
CGA: 149    -0.327127644561E+03   -0.26872E-04   -0.26732E-04  7696   0.285E-03 0.864E-05
CGA: 150    -0.327127680592E+03   -0.36031E-04   -0.36094E-04  7696   0.902E-03-0.142E-05
CGA: 151    -0.327127690335E+03   -0.97431E-05   -0.98187E-05  7696   0.222E-03-0.180E-05
CGA: 152    -0.327127723891E+03   -0.33556E-04   -0.31118E-04  7696   0.279E-03 0.227E-04
CGA: 153    -0.327127729793E+03   -0.59022E-05   -0.59445E-05  7696   0.134E-03 0.240E-05
   1 F= -.32712773E+03 E0= -.32709707E+03  d E =-.327128E+03  mag=    32.0000
       N       E                     dE             d eps       ncg     rms          ort
SDA:   1    -0.326340275972E+03    0.78745E+00    0.00000E+00  7696   0.134E+03 0.000E+00
CGA:   2    -0.326875474669E+03   -0.53520E+00   -0.16322E+01  7696   0.414E+02-0.592E+02
CGA:   3    -0.327204693066E+03   -0.32922E+00   -0.31821E+00  7696   0.252E+01 0.357E+00
CGA:   4    -0.327228601367E+03   -0.23908E-01   -0.20743E-01  7696   0.147E+00 0.322E+00
CGA:   5    -0.327230305990E+03   -0.17046E-02   -0.16822E-02  7696   0.390E-01 0.165E-02
CGA:   6    -0.327230947639E+03   -0.64165E-03   -0.65090E-03  7696   0.188E-01-0.200E-03
CGA:   7    -0.327231734786E+03   -0.78715E-03   -0.78622E-03  7696   0.676E-01 0.586E-04
CGA:   8    -0.327233554220E+03   -0.18194E-02   -0.18187E-02  7696   0.394E-01-0.851E-04
CGA:   9    -0.327234182561E+03   -0.62834E-03   -0.62402E-03  7696   0.126E-01 0.115E-03
CGA:  10    -0.327234336534E+03   -0.15397E-03   -0.15427E-03  7696   0.524E-02-0.107E-04
CGA:  11    -0.327234548628E+03   -0.21209E-03   -0.21149E-03  7696   0.114E-01 0.426E-04
CGA:  12    -0.327234782032E+03   -0.23340E-03   -0.23345E-03  7696   0.672E-02 0.145E-05
CGA:  13    -0.327234937550E+03   -0.15552E-03   -0.15540E-03  7696   0.554E-02-0.891E-05
CGA:  14    -0.327235016328E+03   -0.78778E-04   -0.78882E-04  7696   0.226E-02-0.623E-05
CGA:  15    -0.327235098486E+03   -0.82158E-04   -0.82203E-04  7696   0.244E-02-0.419E-05
CGA:  16    -0.327235130854E+03   -0.32368E-04   -0.32292E-04  7696   0.129E-02 0.203E-06
CGA:  17    -0.327235180456E+03   -0.49602E-04   -0.49664E-04  7696   0.116E-02-0.544E-05
CGA:  18    -0.327235195321E+03   -0.14865E-04   -0.14881E-04  7696   0.446E-03-0.261E-05
CGA:  19    -0.327235207758E+03   -0.12437E-04   -0.12438E-04  7696   0.595E-03-0.156E-05
CGA:  20    -0.327235223071E+03   -0.15313E-04   -0.15305E-04  7696   0.818E-03-0.686E-05
CGA:  21    -0.327235251878E+03   -0.28807E-04   -0.28938E-04  7696   0.580E-03-0.148E-04
CGA:  22    -0.327235258203E+03   -0.63252E-05   -0.63070E-05  7696   0.167E-03-0.188E-05
   2 F= -.32723526E+03 E0= -.32720472E+03  d E =-.107528E+00  mag=    32.0000
       N       E                     dE             d eps       ncg     rms          ort
SDA:   1    -0.327493163637E+03   -0.25791E+00    0.00000E+00  7696   0.343E+01 0.000E+00
CGA:   2    -0.327644129775E+03   -0.15097E+00   -0.14783E+00  7696   0.106E+02 0.170E+00
CGA:   3    -0.328040090571E+03   -0.39596E+00   -0.39475E+00  7696   0.114E+02 0.110E+00
CGA:   4    -0.328263987056E+03   -0.22390E+00   -0.22405E+00  7696   0.156E+01 0.220E-02
CGA:   5    -0.328293114238E+03   -0.29127E-01   -0.28051E-01  7696   0.123E+01 0.287E-02
CGA:   6    -0.328359506539E+03   -0.66392E-01   -0.66550E-01  7696   0.291E+01-0.563E-02
CGA:   7    -0.328444360447E+03   -0.84854E-01   -0.84801E-01  7696   0.127E+01 0.256E-01
CGA:   8    -0.328460893540E+03   -0.16533E-01   -0.15109E-01  7696   0.124E+00 0.767E-01
CGA:   9    -0.328471363238E+03   -0.10470E-01   -0.10616E-01  7696   0.446E+00-0.314E-02
CGA:  10    -0.328481641428E+03   -0.10278E-01   -0.10307E-01  7696   0.207E+00 0.952E-03
CGA:  11    -0.328485092487E+03   -0.34511E-02   -0.34713E-02  7696   0.782E-01-0.466E-03
CGA:  12    -0.328488393764E+03   -0.33013E-02   -0.33141E-02  7696   0.140E+00-0.800E-03
CGA:  13    -0.328491093116E+03   -0.26994E-02   -0.27063E-02  7696   0.624E-01-0.107E-04
CGA:  14    -0.328492433519E+03   -0.13404E-02   -0.13315E-02  7696   0.277E-01-0.132E-03
CGA:  15    -0.328493320686E+03   -0.88717E-03   -0.88586E-03  7696   0.332E-01 0.253E-03
CGA:  16    -0.328494072634E+03   -0.75195E-03   -0.75729E-03  7696   0.221E-01 0.201E-03
CGA:  17    -0.328495636483E+03   -0.15638E-02   -0.15662E-02  7696   0.586E-01-0.629E-04
CGA:  18    -0.328496678876E+03   -0.10424E-02   -0.10395E-02  7696   0.176E-01 0.806E-04
CGA:  19    -0.328496922641E+03   -0.24376E-03   -0.24472E-03  7696   0.525E-02-0.196E-04
CGA:  20    -0.328497342373E+03   -0.41973E-03   -0.41454E-03  7696   0.230E-01 0.112E-03
CGA:  21    -0.328498048988E+03   -0.70661E-03   -0.70659E-03  7696   0.144E-01 0.202E-04
CGA:  22    -0.328498331690E+03   -0.28270E-03   -0.28203E-03  7696   0.383E-02 0.277E-04
CGA:  23    -0.328498498637E+03   -0.16695E-03   -0.16670E-03  7696   0.101E-01 0.179E-04
CGA:  24    -0.328498773513E+03   -0.27488E-03   -0.27491E-03  7696   0.632E-02 0.722E-05
CGA:  25    -0.328498878792E+03   -0.10528E-03   -0.10527E-03  7696   0.145E-02 0.311E-05
CGA:  26    -0.328498958040E+03   -0.79248E-04   -0.79057E-04  7696   0.504E-02 0.787E-05
CGA:  27    -0.328499159401E+03   -0.20136E-03   -0.20128E-03  7696   0.316E-02 0.122E-04
CGA:  28    -0.328499221981E+03   -0.62579E-04   -0.62923E-04  7696   0.807E-03 0.599E-05
CGA:  29    -0.328499240366E+03   -0.18385E-04   -0.18412E-04  7696   0.973E-03 0.216E-05
CGA:  30    -0.328499273598E+03   -0.33231E-04   -0.33218E-04  7696   0.108E-02 0.390E-05
CGA:  31    -0.328499307090E+03   -0.33493E-04   -0.33493E-04  7696   0.879E-03 0.189E-05
SDA:  32    -0.328499337861E+03   -0.30771E-04   -0.30766E-04  7696   0.857E-03 0.154E-05
CGA:  33    -0.328499348827E+03   -0.10966E-04   -0.10926E-04  7696   0.194E-03 0.200E-06
CGA:  34    -0.328499357214E+03   -0.83868E-05   -0.83777E-05  7696   0.339E-03 0.694E-06
CGA:  35    -0.328499370145E+03   -0.12931E-04   -0.12920E-04  7696   0.185E-03 0.155E-05
CGA:  36    -0.328499374216E+03   -0.40710E-05   -0.40756E-05  7696   0.266E-03 0.457E-06
CGA:  37    -0.328499387286E+03   -0.13070E-04   -0.13048E-04  7696   0.172E-03 0.113E-05
CGA:  38    -0.328499402817E+03   -0.15531E-04   -0.15728E-04  7696   0.127E-03-0.338E-05
CGA:  39    -0.328499405702E+03   -0.28852E-05   -0.28690E-05  7696   0.375E-04-0.117E-05
   3 F= -.32849941E+03 E0= -.32846912E+03  d E =-.126415E+01  mag=    32.0000
       N       E                     dE             d eps       ncg     rms          ort
SDA:   1    -0.313491574719E+03    0.15008E+02    0.00000E+00  7696   0.345E+03 0.000E+00
CGA:   2    -0.316968686231E+03   -0.34771E+01   -0.72222E+01  7696   0.931E+02-0.133E+02
CGA:   3    -0.319157515031E+03   -0.21888E+01   -0.15605E+01  7696   0.572E+02 0.189E+02
CGA:   4    -0.320677819538E+03   -0.15203E+01   -0.85148E+00  7696   0.555E+02 0.429E+02
CGA:   5    -0.321669680529E+03   -0.99186E+00   -0.12235E+01  7696   0.520E+02 0.751E+00
CGA:   6    -0.324929788075E+03   -0.32601E+01   -0.43480E+01  7696   0.401E+03-0.243E+02
CGA:   7    -0.327390123263E+03   -0.24603E+01   -0.24873E+01  7696   0.339E+03 0.713E+01
CGA:   8    -0.328382009921E+03   -0.99189E+00   -0.34489E+01  7696   0.538E+02-0.160E+03
CGA:   9    -0.328611087150E+03   -0.22908E+00   -0.21260E+00  7696   0.155E+02 0.119E+01
CGA:  10    -0.328770298553E+03   -0.15921E+00   -0.13453E+00  7696   0.124E+02 0.234E+01
CGA:  11    -0.329014420832E+03   -0.24412E+00   -0.21203E+00  7696   0.280E+02 0.113E+01
CGA:  12    -0.329427267329E+03   -0.41285E+00   -0.41925E+00  7696   0.627E+02-0.415E+00
CGA:  13    -0.329935225581E+03   -0.50796E+00   -0.57276E+00  7696   0.619E+02-0.474E+01
CGA:  14    -0.330304874751E+03   -0.36965E+00   -0.47414E+00  7696   0.287E+02-0.921E+01
CGA:  15    -0.330423062970E+03   -0.11819E+00   -0.11140E+00  7696   0.814E+01 0.109E+01
CGA:  16    -0.330466594495E+03   -0.43532E-01   -0.41747E-01  7696   0.410E+01 0.306E+00
CGA:  17    -0.330508120909E+03   -0.41526E-01   -0.38949E-01  7696   0.681E+01 0.226E+00
CGA:  18    -0.330542624986E+03   -0.34504E-01   -0.19470E-01  7696   0.729E+01 0.552E+01
CGA:  19    -0.330623946427E+03   -0.81321E-01   -0.82226E-01  7696   0.295E+01-0.411E-01
CGA:  20    -0.330688981555E+03   -0.65035E-01   -0.16645E+00  7696   0.956E+01-0.400E+01
CGA:  21    -0.330836640052E+03   -0.14766E+00   -0.16076E+00  7696   0.204E+01 0.178E+00
CGA:  22    -0.330868794338E+03   -0.32154E-01   -0.32489E-01  7696   0.119E+01 0.121E-02
CGA:  23    -0.330916317899E+03   -0.47524E-01   -0.46339E-01  7696   0.169E+01 0.658E-01
CGA:  24    -0.331002265562E+03   -0.85948E-01   -0.85033E-01  7696   0.261E+01 0.386E-01
CGA:  25    -0.331052292130E+03   -0.50027E-01   -0.49428E-01  7696   0.105E+01-0.116E-01
CGA:  26    -0.331075058081E+03   -0.22766E-01   -0.22611E-01  7696   0.370E+00-0.156E-01
CGA:  27    -0.331082245590E+03   -0.71875E-02   -0.71721E-02  7696   0.219E+00-0.622E-03
CGA:  28    -0.331088469853E+03   -0.62243E-02   -0.62353E-02  7696   0.262E+00-0.183E-02
CGA:  29    -0.331106302288E+03   -0.17832E-01   -0.17888E-01  7696   0.515E+00-0.143E-02
CGA:  30    -0.331113652340E+03   -0.73501E-02   -0.74434E-02  7696   0.115E+00-0.241E-02
CGA:  31    -0.331116078761E+03   -0.24264E-02   -0.24341E-02  7696   0.560E-01 0.465E-03
CGA:  32    -0.331118894514E+03   -0.28158E-02   -0.28023E-02  7696   0.131E+00 0.549E-03
CGA:  33    -0.331121781529E+03   -0.28870E-02   -0.28903E-02  7696   0.730E-01 0.240E-03
CGA:  34    -0.331124502918E+03   -0.27214E-02   -0.27194E-02  7696   0.601E-01 0.169E-03
CGA:  35    -0.331125756946E+03   -0.12540E-02   -0.12497E-02  7696   0.421E-01-0.718E-04
CGA:  36    -0.331126932095E+03   -0.11751E-02   -0.11753E-02  7696   0.418E-01-0.101E-03
CGA:  37    -0.331129579503E+03   -0.26474E-02   -0.26287E-02  7696   0.746E-01 0.554E-03
CGA:  38    -0.331130758522E+03   -0.11790E-02   -0.11783E-02  7696   0.247E-01 0.656E-04
CGA:  39    -0.331131774504E+03   -0.10160E-02   -0.10143E-02  7696   0.437E-01 0.108E-03
CGA:  40    -0.331133519244E+03   -0.17447E-02   -0.17400E-02  7696   0.719E-01 0.344E-03
CGA:  41    -0.331135278032E+03   -0.17588E-02   -0.17605E-02  7696   0.336E-01 0.102E-03
CGA:  42    -0.331136265213E+03   -0.98718E-03   -0.98720E-03  7696   0.258E-01-0.181E-03
CGA:  43    -0.331136691014E+03   -0.42580E-03   -0.42527E-03  7696   0.104E-01 0.164E-04
CGA:  44    -0.331137188451E+03   -0.49744E-03   -0.49742E-03  7696   0.196E-01 0.231E-05
CGA:  45    -0.331137956689E+03   -0.76824E-03   -0.76807E-03  7696   0.216E-01 0.187E-04
CGA:  46    -0.331138271708E+03   -0.31502E-03   -0.31494E-03  7696   0.491E-02 0.988E-05
CGA:  47    -0.331138502511E+03   -0.23080E-03   -0.23025E-03  7696   0.741E-02 0.274E-04
CGA:  48    -0.331138695060E+03   -0.19255E-03   -0.19246E-03  7696   0.682E-02-0.141E-04
CGA:  49    -0.331138848458E+03   -0.15340E-03   -0.15337E-03  7696   0.349E-02-0.104E-04
CGA:  50    -0.331138977310E+03   -0.12885E-03   -0.12908E-03  7696   0.258E-02-0.257E-04
SDA:  51    -0.331139030043E+03   -0.52734E-04   -0.52661E-04  7696   0.257E-02-0.610E-05
CGA:  52    -0.331139062111E+03   -0.32068E-04   -0.32077E-04  7696   0.133E-02-0.946E-06
CGA:  53    -0.331139133698E+03   -0.71587E-04   -0.71301E-04  7696   0.161E-02 0.111E-04
CGA:  54    -0.331139183658E+03   -0.49960E-04   -0.49962E-04  7696   0.137E-02-0.261E-05
CGA:  55    -0.331139250510E+03   -0.66852E-04   -0.66999E-04  7696   0.234E-02-0.770E-05
CGA:  56    -0.331139301481E+03   -0.50971E-04   -0.50754E-04  7696   0.114E-02-0.110E-04
CGA:  57    -0.331139372856E+03   -0.71376E-04   -0.71783E-04  7696   0.458E-02-0.124E-04
CGA:  58    -0.331139465836E+03   -0.92980E-04   -0.92872E-04  7696   0.628E-03-0.178E-04
CGA:  59    -0.331139480649E+03   -0.14814E-04   -0.14784E-04  7696   0.417E-03-0.349E-05
CGA:  60    -0.331139549487E+03   -0.68837E-04   -0.59815E-06  7696   0.842E-03-0.764E-04
CGA:  61    -0.331139558238E+03   -0.87513E-05   -0.87417E-05  7696   0.322E-03-0.292E-05
CGA:  62    -0.331139581369E+03   -0.23131E-04   -0.23204E-04  7696   0.111E-02-0.429E-05
CGA:  63    -0.331139598686E+03   -0.17316E-04   -0.17128E-04  7696   0.285E-03-0.294E-05
CGA:  64    -0.331139608530E+03   -0.98443E-05   -0.97860E-05  7696   0.461E-03-0.234E-05
   4 F= -.33113961E+03 E0= -.33110918E+03  d E =-.264020E+01  mag=    32.0000
       N       E                     dE             d eps       ncg     rms          ort
SDA:   1    -0.316455207218E+03    0.14684E+02    0.00000E+00  7696   0.170E+03 0.000E+00
CGA:   2    -0.319822187520E+03   -0.33670E+01   -0.37403E+01  7696   0.117E+03-0.766E+02
CGA:   3    -0.320785797669E+03   -0.96361E+00   -0.46145E+00  7696   0.920E+02 0.702E+02
CGA:   4    -0.322479983518E+03   -0.16942E+01   -0.11935E+01  7696   0.341E+02 0.188E+02
CGA:   5    -0.323180023994E+03   -0.70004E+00   -0.79435E+00  7696   0.775E+02-0.694E+01
CGA:   6    -0.324695116255E+03   -0.15151E+01   -0.18610E+01  7696   0.216E+03 0.200E+01
CGA:   7    -0.329196507155E+03   -0.45014E+01   -0.38562E+01  7696   0.117E+03 0.272E+02
CGA:   8    -0.330182563740E+03   -0.98606E+00   -0.13481E+01  7696   0.517E+02-0.402E+02
CGA:   9    -0.330386993723E+03   -0.20443E+00   -0.16689E+00  7696   0.246E+02 0.687E+01
CGA:  10    -0.330537304382E+03   -0.15031E+00   -0.12423E+00  7696   0.111E+02 0.541E+01
CGA:  11    -0.330642087052E+03   -0.10478E+00   -0.94336E-01  7696   0.127E+02 0.120E+01
CGA:  12    -0.330762774656E+03   -0.12069E+00   -0.11254E+00  7696   0.208E+02 0.836E+00
CGA:  13    -0.330925283949E+03   -0.16251E+00   -0.15724E+00  7696   0.291E+02 0.890E+00
CGA:  14    -0.331120685821E+03   -0.19540E+00   -0.18772E+00  7696   0.342E+02 0.133E+01
CGA:  15    -0.331335484096E+03   -0.21480E+00   -0.30984E+00  7696   0.446E+02-0.856E+01
CGA:  16    -0.331491402862E+03   -0.15592E+00   -0.17647E+00  7696   0.266E+02-0.286E+01
CGA:  17    -0.331593247165E+03   -0.10184E+00   -0.94932E-01  7696   0.121E+02 0.190E+01
CGA:  18    -0.331656974342E+03   -0.63727E-01   -0.51656E-01  7696   0.809E+01 0.289E+01
CGA:  19    -0.331702711936E+03   -0.45738E-01   -0.30728E-01  7696   0.621E+01 0.463E+01
CGA:  20    -0.331793014142E+03   -0.90302E-01   -0.87932E-01  7696   0.391E+01 0.621E-01
CGA:  21    -0.331902730633E+03   -0.10972E+00   -0.10944E+00  7696   0.509E+01 0.587E-01
CGA:  22    -0.332020948643E+03   -0.11822E+00   -0.11667E+00  7696   0.130E+01-0.237E+00
CGA:  23    -0.332046230194E+03   -0.25282E-01   -0.25169E-01  7696   0.153E+01-0.649E-02
CGA:  24    -0.332081650191E+03   -0.35420E-01   -0.35155E-01  7696   0.152E+01-0.725E-01
CGA:  25    -0.332108713649E+03   -0.27063E-01   -0.27291E-01  7696   0.139E+01 0.783E-02
CGA:  26    -0.332142701190E+03   -0.33988E-01   -0.33990E-01  7696   0.185E+01 0.178E-01
CGA:  27    -0.332174120895E+03   -0.31420E-01   -0.32256E-01  7696   0.466E+00 0.158E-01
CGA:  28    -0.332180526375E+03   -0.64055E-02   -0.65599E-02  7696   0.206E+00-0.327E-02
CGA:  29    -0.332185111127E+03   -0.45848E-02   -0.45858E-02  7696   0.304E+00 0.437E-03
CGA:  30    -0.332200467105E+03   -0.15356E-01   -0.15536E-01  7696   0.196E+00-0.733E-02
CGA:  31    -0.332202463923E+03   -0.19968E-02   -0.20054E-02  7696   0.786E-01-0.498E-03
CGA:  32    -0.332207543444E+03   -0.50795E-02   -0.50190E-02  7696   0.222E+00 0.166E-02
CGA:  33    -0.332212004880E+03   -0.44614E-02   -0.44790E-02  7696   0.128E+00 0.560E-03
CGA:  34    -0.332213734861E+03   -0.17300E-02   -0.17223E-02  7696   0.405E-01 0.322E-03
CGA:  35    -0.332215412784E+03   -0.16779E-02   -0.17115E-02  7696   0.651E-01-0.182E-02
CGA:  36    -0.332216326201E+03   -0.91342E-03   -0.90952E-03  7696   0.362E-01 0.128E-03
CGA:  37    -0.332217581528E+03   -0.12553E-02   -0.12489E-02  7696   0.918E-01 0.554E-03
CGA:  38    -0.332220911563E+03   -0.33300E-02   -0.33180E-02  7696   0.923E-01 0.954E-03
CGA:  39    -0.332221998758E+03   -0.10872E-02   -0.10698E-02  7696   0.253E-01 0.981E-03
CGA:  40    -0.332222572603E+03   -0.57384E-03   -0.57444E-03  7696   0.252E-01 0.746E-04
CGA:  41    -0.332223541831E+03   -0.96923E-03   -0.96883E-03  7696   0.747E-01 0.290E-04
CGA:  42    -0.332225111724E+03   -0.15699E-02   -0.15648E-02  7696   0.235E-01-0.202E-03
CGA:  43    -0.332225609906E+03   -0.49818E-03   -0.49842E-03  7696   0.372E-01 0.316E-04
CGA:  44    -0.332226563971E+03   -0.95406E-03   -0.95404E-03  7696   0.155E-01 0.748E-03
CGA:  45    -0.332226824814E+03   -0.26084E-03   -0.26171E-03  7696   0.151E-01 0.907E-05
CGA:  46    -0.332227461296E+03   -0.63648E-03   -0.63513E-03  7696   0.308E-01 0.734E-04
CGA:  47    -0.332227915413E+03   -0.45412E-03   -0.45146E-03  7696   0.503E-02 0.751E-04
CGA:  48    -0.332228000586E+03   -0.85173E-04   -0.85117E-04  7696   0.506E-02-0.147E-05
CGA:  49    -0.332228174480E+03   -0.17389E-03   -0.17368E-03  7696   0.934E-02 0.176E-04
SDA:  50    -0.332228528433E+03   -0.35395E-03   -0.35360E-03  7696   0.103E-01 0.220E-04
CGA:  51    -0.332228627389E+03   -0.98956E-04   -0.98745E-04  7696   0.201E-02 0.582E-05
CGA:  52    -0.332228701260E+03   -0.73871E-04   -0.74447E-04  7696   0.130E-02-0.425E-04
CGA:  53    -0.332228729089E+03   -0.27829E-04   -0.27812E-04  7696   0.114E-02-0.491E-05
CGA:  54    -0.332228864020E+03   -0.13493E-03   -0.13811E-03  7696   0.488E-02-0.346E-04
CGA:  55    -0.332228994872E+03   -0.13085E-03   -0.13084E-03  7696   0.441E-03-0.145E-04
CGA:  56    -0.332229036449E+03   -0.41577E-04   -0.41863E-04  7696   0.230E-02-0.468E-05
CGA:  57    -0.332229090901E+03   -0.54452E-04   -0.54367E-04  7696   0.119E-02-0.784E-05
CGA:  58    -0.332229112786E+03   -0.21885E-04   -0.21821E-04  7696   0.633E-03-0.355E-05
CGA:  59    -0.332229134818E+03   -0.22032E-04   -0.22030E-04  7696   0.661E-03-0.101E-05
CGA:  60    -0.332229149467E+03   -0.14650E-04   -0.14619E-04  7696   0.277E-03-0.336E-05
CGA:  61    -0.332229174725E+03   -0.25258E-04   -0.25957E-04  7696   0.238E-03-0.119E-04
CGA:  62    -0.332229178826E+03   -0.41002E-05   -0.40808E-05  7696   0.196E-03-0.171E-05
   5 F= -.33222918E+03 E0= -.33219905E+03  d E =-.108957E+01  mag=    32.0000
       N       E                     dE             d eps       ncg     rms          ort
SDA:   1    -0.291563528017E+03    0.40666E+02    0.00000E+00  7696   0.177E+04 0.000E+00
CGA:   2    -0.308296696405E+03   -0.16733E+02   -0.33798E+02  7696   0.188E+03 0.710E+02
CGA:   3    -0.311010872293E+03   -0.27142E+01   -0.29430E+01  7696   0.118E+03-0.141E+02
CGA:   4    -0.313321834548E+03   -0.23110E+01   -0.12340E+01  7696   0.994E+02 0.929E+02
CGA:   5    -0.315212116099E+03   -0.18903E+01   -0.19385E+01  7696   0.985E+02-0.312E+01
CGA:   6    -0.320756981924E+03   -0.55449E+01   -0.48364E+01  7696   0.135E+03 0.335E+02
CGA:   7    -0.326980861159E+03   -0.62239E+01   -0.62794E+01  7696   0.117E+03-0.653E+01
CGA:   8    -0.329036986315E+03   -0.20561E+01   -0.20090E+01  7696   0.932E+02 0.120E+01
CGA:   9    -0.330450158433E+03   -0.14132E+01   -0.13544E+01  7696   0.598E+02-0.926E+01
CGA:  10    -0.330914527416E+03   -0.46437E+00   -0.49648E+00  7696   0.255E+02-0.264E+01
CGA:  11    -0.331209176908E+03   -0.29465E+00   -0.31541E+00  7696   0.276E+02-0.153E+01
CGA:  12    -0.331579658375E+03   -0.37048E+00   -0.38596E+00  7696   0.167E+02-0.514E+00
CGA:  13    -0.331856526513E+03   -0.27687E+00   -0.25933E+00  7696   0.218E+02 0.368E+00
CGA:  14    -0.332163567430E+03   -0.30704E+00   -0.30380E+00  7696   0.194E+02-0.365E+00
CGA:  15    -0.332343663118E+03   -0.18010E+00   -0.18536E+00  7696   0.138E+02-0.372E+00
CGA:  16    -0.332514056987E+03   -0.17039E+00   -0.18012E+00  7696   0.137E+02-0.477E+00
CGA:  17    -0.332646824619E+03   -0.13277E+00   -0.13453E+00  7696   0.712E+01-0.134E+00
CGA:  18    -0.332723059012E+03   -0.76234E-01   -0.71834E-01  7696   0.458E+01 0.295E+00
CGA:  19    -0.332774146510E+03   -0.51087E-01   -0.50490E-01  7696   0.337E+01 0.254E-01
CGA:  20    -0.332812581782E+03   -0.38435E-01   -0.39757E-01  7696   0.297E+01-0.549E-01
CGA:  21    -0.332850628765E+03   -0.38047E-01   -0.39936E-01  7696   0.271E+01-0.298E-01
CGA:  22    -0.332896188238E+03   -0.45559E-01   -0.45719E-01  7696   0.378E+01 0.649E-02
CGA:  23    -0.332944556837E+03   -0.48369E-01   -0.43160E-01  7696   0.211E+01 0.220E+00
CGA:  24    -0.332967786639E+03   -0.23230E-01   -0.23363E-01  7696   0.186E+01-0.667E-02
CGA:  25    -0.332991544880E+03   -0.23758E-01   -0.24290E-01  7696   0.165E+01-0.565E-02
CGA:  26    -0.333007740104E+03   -0.16195E-01   -0.17059E-01  7696   0.919E+00-0.392E-01
CGA:  27    -0.333023601725E+03   -0.15862E-01   -0.15853E-01  7696   0.136E+01-0.978E-03
CGA:  28    -0.333039575782E+03   -0.15974E-01   -0.15188E-01  7696   0.675E+00 0.261E-01
CGA:  29    -0.333047481003E+03   -0.79052E-02   -0.79145E-02  7696   0.698E+00 0.897E-04
CGA:  30    -0.333058037793E+03   -0.10557E-01   -0.10602E-01  7696   0.644E+00 0.311E-02
CGA:  31    -0.333064201881E+03   -0.61641E-02   -0.62286E-02  7696   0.383E+00-0.297E-02
CGA:  32    -0.333071084726E+03   -0.68828E-02   -0.68828E-02  7696   0.597E+00 0.371E-04
CGA:  33    -0.333077779368E+03   -0.66946E-02   -0.65978E-02  7696   0.317E+00 0.232E-02
CGA:  34    -0.333081776253E+03   -0.39969E-02   -0.40041E-02  7696   0.373E+00 0.181E-03
SDA:  35    -0.333087415261E+03   -0.56390E-02   -0.56458E-02  7696   0.306E+00 0.897E-03
CGA:  36    -0.333090205546E+03   -0.27903E-02   -0.27866E-02  7696   0.408E-01 0.144E-03
CGA:  37    -0.333091392540E+03   -0.11870E-02   -0.11870E-02  7696   0.589E-01-0.394E-05
CGA:  38    -0.333099078125E+03   -0.76856E-02   -0.83799E-03  7696   0.564E-01 0.738E-02
CGA:  39    -0.333100158849E+03   -0.10807E-02   -0.10994E-02  7696   0.333E-01-0.448E-03
CGA:  40    -0.333103060427E+03   -0.29016E-02   -0.28979E-02  7696   0.752E-01 0.656E-04
CGA:  41    -0.333104626493E+03   -0.15661E-02   -0.15703E-02  7696   0.114E-01-0.170E-04
CGA:  42    -0.333105102271E+03   -0.47578E-03   -0.47585E-03  7696   0.336E-01-0.184E-05
CGA:  43    -0.333106796321E+03   -0.16940E-02   -0.16881E-02  7696   0.406E-01 0.327E-03
CGA:  44    -0.333107397930E+03   -0.60161E-03   -0.60533E-03  7696   0.151E-01-0.114E-03
CGA:  45    -0.333107998833E+03   -0.60090E-03   -0.60351E-03  7696   0.126E-01-0.269E-03
CGA:  46    -0.333108323830E+03   -0.32500E-03   -0.32584E-03  7696   0.775E-02 0.317E-04
CGA:  47    -0.333108802044E+03   -0.47821E-03   -0.47820E-03  7696   0.211E-01 0.438E-06
CGA:  48    -0.333109267082E+03   -0.46504E-03   -0.46675E-03  7696   0.514E-02-0.129E-05
CGA:  49    -0.333109364940E+03   -0.97858E-04   -0.97918E-04  7696   0.544E-02-0.175E-05
CGA:  50    -0.333109713283E+03   -0.34834E-03   -0.34915E-03  7696   0.692E-02-0.263E-04
CGA:  51    -0.333109832202E+03   -0.11892E-03   -0.11920E-03  7696   0.139E-02-0.953E-05
CGA:  52    -0.333109902089E+03   -0.69886E-04   -0.69880E-04  7696   0.376E-02 0.659E-06
CGA:  53    -0.333110040305E+03   -0.13822E-03   -0.13817E-03  7696   0.238E-02 0.236E-04
CGA:  54    -0.333110097380E+03   -0.57075E-04   -0.57110E-04  7696   0.301E-02 0.270E-05
CGA:  55    -0.333110182693E+03   -0.85313E-04   -0.85147E-04  7696   0.847E-03-0.769E-05
CGA:  56    -0.333110203455E+03   -0.20762E-04   -0.20749E-04  7696   0.875E-03-0.173E-05
CGA:  57    -0.333110270239E+03   -0.66784E-04   -0.67306E-04  7696   0.198E-02-0.122E-04
CGA:  58    -0.333110308456E+03   -0.38218E-04   -0.38229E-04  7696   0.347E-03-0.711E-05
CGA:  59    -0.333110319120E+03   -0.10664E-04   -0.10654E-04  7696   0.780E-03-0.256E-05
CGA:  60    -0.333110356364E+03   -0.37243E-04   -0.37398E-04  7696   0.623E-03-0.115E-04
CGA:  61    -0.333110368072E+03   -0.11708E-04   -0.11687E-04  7696   0.356E-03-0.218E-05
CGA:  62    -0.333110384143E+03   -0.16071E-04   -0.16080E-04  7696   0.281E-03-0.124E-05
CGA:  63    -0.333110391875E+03   -0.77321E-05   -0.77323E-05  7696   0.269E-03-0.231E-06
CGA:  64    -0.333110416178E+03   -0.24303E-04   -0.24475E-04  7696   0.423E-03-0.318E-05
CGA:  65    -0.333110421670E+03   -0.54924E-05   -0.54970E-05  7696   0.695E-04-0.551E-06
   6 F= -.33311042E+03 E0= -.33307991E+03  d E =-.881243E+00  mag=    32.0000
       N       E                     dE             d eps       ncg     rms          ort
SDA:   1    -0.305098046362E+03    0.28012E+02    0.00000E+00  7696   0.107E+04 0.000E+00
CGA:   2    -0.313194217986E+03   -0.80962E+01   -0.21491E+02  7696   0.191E+03-0.160E+03
CGA:   3    -0.316980541493E+03   -0.37863E+01   -0.33475E+01  7696   0.778E+02 0.804E+00
CGA:   4    -0.318648545963E+03   -0.16680E+01   -0.85883E+00  7696   0.570E+02 0.652E+02
CGA:   5    -0.320325238228E+03   -0.16767E+01   -0.17002E+01  7696   0.771E+02 0.132E+01
CGA:   6    -0.324834942042E+03   -0.45097E+01   -0.50818E+01  7696   0.501E+03-0.167E+02
CGA:   7    -0.329458389077E+03   -0.46234E+01   -0.45818E+01  7696   0.286E+03-0.763E+02
CGA:   8    -0.330365922741E+03   -0.90753E+00   -0.32114E+01  7696   0.308E+02-0.707E+02
CGA:   9    -0.330735987314E+03   -0.37006E+00   -0.46724E+00  7696   0.239E+02-0.106E+00
CGA:  10    -0.330975790735E+03   -0.23980E+00   -0.14042E+00  7696   0.138E+02 0.153E+02
CGA:  11    -0.331319582714E+03   -0.34379E+00   -0.31470E+00  7696   0.179E+02-0.307E+00
CGA:  12    -0.332099526368E+03   -0.77994E+00   -0.81817E+00  7696   0.591E+02-0.197E+01
CGA:  13    -0.332837836484E+03   -0.73831E+00   -0.79736E+00  7696   0.229E+02-0.273E+01
CGA:  14    -0.333040132895E+03   -0.20230E+00   -0.21265E+00  7696   0.460E+01-0.872E+00
CGA:  15    -0.333087071518E+03   -0.46939E-01   -0.36809E-01  7696   0.174E+01 0.100E+01
CGA:  16    -0.333119388992E+03   -0.32317E-01   -0.30585E-01  7696   0.337E+01 0.609E-01
CGA:  17    -0.333202187724E+03   -0.82799E-01   -0.82787E-01  7696   0.997E+01 0.364E-03
CGA:  18    -0.333272552244E+03   -0.70365E-01   -0.64471E-01  7696   0.406E+01 0.816E+00
CGA:  19    -0.333294872447E+03   -0.22320E-01   -0.27747E-01  7696   0.110E+01-0.720E+00
CGA:  20    -0.333304501041E+03   -0.96286E-02   -0.10018E-01  7696   0.128E+01-0.214E-01
CGA:  21    -0.333332137205E+03   -0.27636E-01   -0.27987E-01  7696   0.234E+01 0.492E-01
CGA:  22    -0.333372815939E+03   -0.40679E-01   -0.40196E-01  7696   0.172E+01 0.417E-02
CGA:  23    -0.333391938661E+03   -0.19123E-01   -0.18560E-01  7696   0.610E+00 0.296E-01
CGA:  24    -0.333398388173E+03   -0.64495E-02   -0.66784E-02  7696   0.319E+00-0.121E-01
CGA:  25    -0.333405522180E+03   -0.71340E-02   -0.71424E-02  7696   0.596E+00 0.105E-01
CGA:  26    -0.333418857589E+03   -0.13335E-01   -0.13328E-01  7696   0.361E+00-0.198E-02
CGA:  27    -0.333425383645E+03   -0.65261E-02   -0.65011E-02  7696   0.359E+00-0.120E-02
CGA:  28    -0.333432539048E+03   -0.71554E-02   -0.71595E-02  7696   0.292E+00 0.475E-03
CGA:  29    -0.333438948260E+03   -0.64092E-02   -0.64078E-02  7696   0.292E+00-0.761E-03
CGA:  30    -0.333442882135E+03   -0.39339E-02   -0.39180E-02  7696   0.142E+00 0.256E-03
CGA:  31    -0.333447405747E+03   -0.45236E-02   -0.45382E-02  7696   0.323E+00-0.121E-02
CGA:  32    -0.333452404781E+03   -0.49990E-02   -0.50536E-02  7696   0.913E-01 0.553E-03
CGA:  33    -0.333453506813E+03   -0.11020E-02   -0.11076E-02  7696   0.472E-01-0.171E-03
CGA:  34    -0.333454801160E+03   -0.12943E-02   -0.12938E-02  7696   0.892E-01 0.652E-04
CGA:  35    -0.333457649390E+03   -0.28482E-02   -0.28591E-02  7696   0.167E+00-0.884E-03
CGA:  36    -0.333460674381E+03   -0.30250E-02   -0.30259E-02  7696   0.723E-01 0.102E-03
CGA:  37    -0.333461470877E+03   -0.79650E-03   -0.81028E-03  7696   0.273E-01-0.583E-03
CGA:  38    -0.333462507562E+03   -0.10367E-02   -0.10339E-02  7696   0.610E-01 0.157E-03
CGA:  39    -0.333463406481E+03   -0.89892E-03   -0.89566E-03  7696   0.209E-01 0.312E-04
CGA:  40    -0.333463841758E+03   -0.43528E-03   -0.43529E-03  7696   0.184E-01 0.429E-05
SDA:  41    -0.333464199223E+03   -0.35747E-03   -0.35773E-03  7696   0.205E-01 0.340E-04
CGA:  42    -0.333464518074E+03   -0.31885E-03   -0.31798E-03  7696   0.926E-02-0.137E-04
CGA:  43    -0.333464824713E+03   -0.30664E-03   -0.30669E-03  7696   0.192E-01-0.419E-05
CGA:  44    -0.333465699099E+03   -0.87439E-03   -0.87283E-03  7696   0.637E-02 0.672E-04
CGA:  45    -0.333465929080E+03   -0.22998E-03   -0.23013E-03  7696   0.121E-01-0.114E-04
CGA:  46    -0.333466328188E+03   -0.39911E-03   -0.39725E-03  7696   0.507E-02 0.160E-03
CGA:  47    -0.333466623830E+03   -0.29564E-03   -0.29675E-03  7696   0.119E-01-0.357E-04
CGA:  48    -0.333466796561E+03   -0.17273E-03   -0.17215E-03  7696   0.279E-02 0.988E-05
CGA:  49    -0.333466894117E+03   -0.97555E-04   -0.97468E-04  7696   0.439E-02 0.836E-05
CGA:  50    -0.333467383962E+03   -0.48985E-03   -0.48575E-03  7696   0.736E-02 0.518E-04
CGA:  51    -0.333467459465E+03   -0.75503E-04   -0.75495E-04  7696   0.136E-02 0.745E-05
CGA:  52    -0.333467645180E+03   -0.18571E-03   -0.18737E-03  7696   0.336E-02-0.164E-04
CGA:  53    -0.333467715344E+03   -0.70164E-04   -0.70097E-04  7696   0.244E-02-0.403E-05
CGA:  54    -0.333467802164E+03   -0.86820E-04   -0.86785E-04  7696   0.235E-02 0.111E-04
CGA:  55    -0.333467850559E+03   -0.48395E-04   -0.48445E-04  7696   0.153E-02-0.263E-05
CGA:  56    -0.333467900790E+03   -0.50231E-04   -0.50228E-04  7696   0.281E-02-0.469E-05
CGA:  57    -0.333468030480E+03   -0.12969E-03   -0.12980E-03  7696   0.322E-03-0.780E-05
CGA:  58    -0.333468043805E+03   -0.13324E-04   -0.13312E-04  7696   0.124E-02 0.164E-05
CGA:  59    -0.333468127419E+03   -0.83614E-04   -0.83303E-04  7696   0.684E-03 0.950E-05
CGA:  60    -0.333468137182E+03   -0.97629E-05   -0.97524E-05  7696   0.175E-03 0.119E-05
   7 F= -.33346814E+03 E0= -.33343801E+03  d E =-.357716E+00  mag=    32.0000
       N       E                     dE             d eps       ncg     rms          ort
SDA:   1    -0.306053571439E+03    0.27415E+02    0.00000E+00  7696   0.646E+03 0.000E+00
CGA:   2    -0.310335527580E+03   -0.42820E+01   -0.11887E+02  7696   0.219E+03-0.121E+03
CGA:   3    -0.314832531164E+03   -0.44970E+01   -0.40570E+01  7696   0.150E+03-0.718E+01
CGA:   4    -0.317093302741E+03   -0.22608E+01   -0.13372E+01  7696   0.753E+02 0.847E+02
CGA:   5    -0.318595553241E+03   -0.15023E+01   -0.16330E+01  7696   0.871E+02-0.112E+01
CGA:   6    -0.324828623709E+03   -0.62331E+01   -0.57500E+01  7696   0.177E+03 0.176E+02
CGA:   7    -0.329991852063E+03   -0.51632E+01   -0.49830E+01  7696   0.695E+02-0.156E+02
CGA:   8    -0.331396840493E+03   -0.14050E+01   -0.15144E+01  7696   0.226E+02 0.193E+01
CGA:   9    -0.331873568715E+03   -0.47673E+00   -0.37634E+00  7696   0.816E+01 0.321E+01
CGA:  10    -0.332204711149E+03   -0.33114E+00   -0.33024E+00  7696   0.161E+02 0.164E+00
CGA:  11    -0.332980546982E+03   -0.77584E+00   -0.79566E+00  7696   0.170E+02-0.104E+01
CGA:  12    -0.333259154736E+03   -0.27861E+00   -0.28590E+00  7696   0.383E+01-0.324E+00
CGA:  13    -0.333328102933E+03   -0.68948E-01   -0.71380E-01  7696   0.194E+01-0.393E-01
CGA:  14    -0.333416741484E+03   -0.88639E-01   -0.90074E-01  7696   0.266E+01-0.876E-01
CGA:  15    -0.333459408178E+03   -0.42667E-01   -0.42446E-01  7696   0.127E+01 0.110E-01
CGA:  16    -0.333482888897E+03   -0.23481E-01   -0.24080E-01  7696   0.869E+00-0.910E-02
CGA:  17    -0.333506683705E+03   -0.23795E-01   -0.23829E-01  7696   0.844E+00 0.404E-02
CGA:  18    -0.333530231206E+03   -0.23548E-01   -0.23469E-01  7696   0.834E+00-0.909E-02
CGA:  19    -0.333547956963E+03   -0.17726E-01   -0.17697E-01  7696   0.724E+00 0.142E-03
CGA:  20    -0.333564445327E+03   -0.16488E-01   -0.16399E-01  7696   0.463E+00-0.132E-02
CGA:  21    -0.333574094122E+03   -0.96488E-02   -0.97191E-02  7696   0.247E+00 0.104E-02
CGA:  22    -0.333579228413E+03   -0.51343E-02   -0.51364E-02  7696   0.263E+00 0.148E-04
CGA:  23    -0.333587797304E+03   -0.85689E-02   -0.87064E-02  7696   0.458E+00-0.211E-01
CGA:  24    -0.333598119128E+03   -0.10322E-01   -0.10325E-01  7696   0.419E+00 0.252E-03
CGA:  25    -0.333603292052E+03   -0.51729E-02   -0.56641E-02  7696   0.109E+00-0.192E-01
CGA:  26    -0.333605044621E+03   -0.17526E-02   -0.17510E-02  7696   0.581E-01 0.914E-05
CGA:  27    -0.333607629116E+03   -0.25845E-02   -0.26074E-02  7696   0.168E+00-0.117E-02
CGA:  28    -0.333612296397E+03   -0.46673E-02   -0.46673E-02  7696   0.171E+00 0.752E-04
CGA:  29    -0.333615152735E+03   -0.28563E-02   -0.29207E-02  7696   0.503E-01-0.764E-03
CGA:  30    -0.333616051544E+03   -0.89881E-03   -0.90018E-03  7696   0.331E-01 0.219E-04
CGA:  31    -0.333616997729E+03   -0.94618E-03   -0.94604E-03  7696   0.503E-01 0.818E-04
CGA:  32    -0.333618463005E+03   -0.14653E-02   -0.14649E-02  7696   0.366E-01 0.147E-03
CGA:  33    -0.333619206461E+03   -0.74346E-03   -0.74355E-03  7696   0.255E-01 0.100E-04
CGA:  34    -0.333619870298E+03   -0.66384E-03   -0.66401E-03  7696   0.305E-01 0.595E-04
SDA:  35    -0.333620695201E+03   -0.82490E-03   -0.82488E-03  7696   0.302E-01-0.109E-03
CGA:  36    -0.333621254376E+03   -0.55918E-03   -0.55832E-03  7696   0.102E-01-0.130E-04
CGA:  37    -0.333621652256E+03   -0.39788E-03   -0.39653E-03  7696   0.148E-01 0.849E-04
CGA:  38    -0.333621977827E+03   -0.32557E-03   -0.32533E-03  7696   0.784E-02-0.284E-04
CGA:  39    -0.333622328840E+03   -0.35101E-03   -0.35212E-03  7696   0.177E-01-0.598E-04
CGA:  40    -0.333622704182E+03   -0.37534E-03   -0.37455E-03  7696   0.655E-02-0.504E-04
CGA:  41    -0.333623165785E+03   -0.46160E-03   -0.46447E-03  7696   0.166E-01-0.709E-04
CGA:  42    -0.333623752512E+03   -0.58673E-03   -0.58598E-03  7696   0.179E-02 0.802E-04
CGA:  43    -0.333623808786E+03   -0.56274E-04   -0.56266E-04  7696   0.486E-02 0.529E-05
CGA:  44    -0.333624264310E+03   -0.45552E-03   -0.45285E-03  7696   0.193E-02 0.431E-04
CGA:  45    -0.333624313057E+03   -0.48747E-04   -0.48704E-04  7696   0.136E-02 0.197E-06
CGA:  46    -0.333624402437E+03   -0.89380E-04   -0.89192E-04  7696   0.413E-02 0.560E-05
CGA:  47    -0.333624480361E+03   -0.77924E-04   -0.78066E-04  7696   0.143E-02 0.983E-06
CGA:  48    -0.333624538984E+03   -0.58623E-04   -0.58594E-04  7696   0.221E-02 0.272E-05
CGA:  49    -0.333624587115E+03   -0.48131E-04   -0.48263E-04  7696   0.977E-03-0.152E-06
CGA:  50    -0.333624637812E+03   -0.50697E-04   -0.50801E-04  7696   0.167E-02-0.548E-05
CGA:  51    -0.333624687123E+03   -0.49311E-04   -0.49290E-04  7696   0.492E-03-0.422E-05
CGA:  52    -0.333624694323E+03   -0.72003E-05   -0.71932E-05  7696   0.327E-03-0.336E-06
CGA:  53    -0.333624748823E+03   -0.54500E-04   -0.53695E-04  7696   0.331E-03 0.618E-05
CGA:  54    -0.333624754177E+03   -0.53542E-05   -0.53750E-05  7696   0.141E-03 0.357E-06
   8 F= -.33362475E+03 E0= -.33359499E+03  d E =-.156617E+00  mag=    32.0000
       N       E                     dE             d eps       ncg     rms          ort
SDA:   1    -0.329968676755E+03    0.36561E+01    0.00000E+00  7696   0.356E+02 0.000E+00
CGA:   2    -0.330382243823E+03   -0.41357E+00   -0.43033E+00  7696   0.148E+02-0.160E+01
CGA:   3    -0.331628978961E+03   -0.12467E+01   -0.11286E+01  7696   0.293E+02 0.266E+01
CGA:   4    -0.332697763435E+03   -0.10688E+01   -0.10189E+01  7696   0.199E+02-0.635E+00
CGA:   5    -0.332995317726E+03   -0.29755E+00   -0.29606E+00  7696   0.712E+01-0.105E-01
CGA:   6    -0.333187584106E+03   -0.19227E+00   -0.19339E+00  7696   0.554E+01 0.170E-01
CGA:   7    -0.333333785599E+03   -0.14620E+00   -0.14467E+00  7696   0.673E+01-0.879E-02
CGA:   8    -0.333493464984E+03   -0.15968E+00   -0.16293E+00  7696   0.535E+01-0.333E-01
CGA:   9    -0.333609629611E+03   -0.11616E+00   -0.12177E+00  7696   0.260E+01-0.186E-01
CGA:  10    -0.333659518110E+03   -0.49888E-01   -0.47295E-01  7696   0.110E+01 0.608E-01
CGA:  11    -0.333677941465E+03   -0.18423E-01   -0.18783E-01  7696   0.770E+00-0.115E-01
CGA:  12    -0.333696885611E+03   -0.18944E-01   -0.19170E-01  7696   0.729E+00 0.464E-02
CGA:  13    -0.333719314831E+03   -0.22429E-01   -0.22337E-01  7696   0.774E+00-0.157E-01
CGA:  14    -0.333731465048E+03   -0.12150E-01   -0.12071E-01  7696   0.375E+00 0.252E-02
CGA:  15    -0.333739033501E+03   -0.75685E-02   -0.77376E-02  7696   0.144E+00-0.716E-03
CGA:  16    -0.333742425571E+03   -0.33921E-02   -0.33829E-02  7696   0.164E+00-0.197E-03
CGA:  17    -0.333745922194E+03   -0.34966E-02   -0.34884E-02  7696   0.132E+00-0.342E-04
CGA:  18    -0.333750079779E+03   -0.41576E-02   -0.41567E-02  7696   0.121E+00 0.530E-03
CGA:  19    -0.333752230907E+03   -0.21511E-02   -0.21467E-02  7696   0.805E-01 0.824E-04
CGA:  20    -0.333753860867E+03   -0.16300E-02   -0.16325E-02  7696   0.541E-01 0.180E-04
CGA:  21    -0.333755436512E+03   -0.15756E-02   -0.15759E-02  7696   0.661E-01 0.338E-03
CGA:  22    -0.333757022197E+03   -0.15857E-02   -0.15834E-02  7696   0.652E-01-0.151E-03
CGA:  23    -0.333758309357E+03   -0.12872E-02   -0.12827E-02  7696   0.393E-01-0.112E-04
CGA:  24    -0.333759160102E+03   -0.85075E-03   -0.85393E-03  7696   0.246E-01 0.951E-04
CGA:  25    -0.333759748618E+03   -0.58852E-03   -0.58841E-03  7696   0.316E-01-0.453E-05
CGA:  26    -0.333760558389E+03   -0.80977E-03   -0.80949E-03  7696   0.311E-01-0.389E-04
CGA:  27    -0.333761635325E+03   -0.10769E-02   -0.10731E-02  7696   0.355E-01 0.412E-03
CGA:  28    -0.333762176802E+03   -0.54148E-03   -0.54164E-03  7696   0.179E-01 0.164E-04
CGA:  29    -0.333762589808E+03   -0.41301E-03   -0.41268E-03  7696   0.979E-02-0.133E-04
CGA:  30    -0.333762856855E+03   -0.26705E-03   -0.26705E-03  7696   0.143E-01 0.173E-04
CGA:  31    -0.333763212886E+03   -0.35603E-03   -0.35605E-03  7696   0.155E-01 0.107E-04
SDA:  32    -0.333763693831E+03   -0.48094E-03   -0.48094E-03  7696   0.139E-01 0.805E-05
CGA:  33    -0.333763856606E+03   -0.16278E-03   -0.16348E-03  7696   0.201E-02-0.333E-04
CGA:  34    -0.333763912479E+03   -0.55873E-04   -0.55879E-04  7696   0.306E-02-0.271E-05
CGA:  35    -0.333764136877E+03   -0.22440E-03   -0.22387E-03  7696   0.109E-01 0.111E-04
CGA:  36    -0.333764354027E+03   -0.21715E-03   -0.21748E-03  7696   0.229E-02 0.114E-04
CGA:  37    -0.333764485027E+03   -0.13100E-03   -0.13220E-03  7696   0.985E-03-0.417E-04
CGA:  38    -0.333764524231E+03   -0.39205E-04   -0.39171E-04  7696   0.193E-02 0.299E-05
CGA:  39    -0.333764593573E+03   -0.69342E-04   -0.69301E-04  7696   0.247E-02 0.708E-05
CGA:  40    -0.333764636670E+03   -0.43097E-04   -0.43137E-04  7696   0.608E-03 0.211E-05
CGA:  41    -0.333764697304E+03   -0.60634E-04   -0.60348E-04  7696   0.317E-02 0.425E-05
CGA:  42    -0.333764769200E+03   -0.71896E-04   -0.71862E-04  7696   0.223E-03 0.845E-06
CGA:  43    -0.333764779208E+03   -0.10009E-04   -0.10005E-04  7696   0.762E-03 0.316E-06
CGA:  44    -0.333764812679E+03   -0.33470E-04   -0.33468E-04  7696   0.843E-03-0.405E-07
CGA:  45    -0.333764832349E+03   -0.19670E-04   -0.19657E-04  7696   0.261E-03-0.102E-05
CGA:  46    -0.333764842993E+03   -0.10644E-04   -0.10654E-04  7696   0.254E-03-0.134E-05
CGA:  47    -0.333764847368E+03   -0.43751E-05   -0.43612E-05  7696   0.116E-03-0.386E-06
   9 F= -.33376485E+03 E0= -.33373504E+03  d E =-.140093E+00  mag=    32.0000
       N       E                     dE             d eps       ncg     rms          ort
SDA:   1    -0.330404873437E+03    0.33600E+01    0.00000E+00  7696   0.389E+02 0.000E+00
CGA:   2    -0.330844672671E+03   -0.43980E+00   -0.50546E+00  7696   0.133E+02-0.401E+01
CGA:   3    -0.331525063006E+03   -0.68039E+00   -0.66239E+00  7696   0.339E+02 0.756E+00
CGA:   4    -0.332739322298E+03   -0.12143E+01   -0.12107E+01  7696   0.305E+02-0.103E+01
CGA:   5    -0.333208133884E+03   -0.46881E+00   -0.47390E+00  7696   0.425E+01-0.275E+00
CGA:   6    -0.333336299487E+03   -0.12817E+00   -0.12814E+00  7696   0.433E+01-0.348E-02
CGA:   7    -0.333487488133E+03   -0.15119E+00   -0.15121E+00  7696   0.728E+01-0.171E-01
CGA:   8    -0.333681661233E+03   -0.19417E+00   -0.19024E+00  7696   0.186E+01-0.985E-01
CGA:   9    -0.333718547211E+03   -0.36886E-01   -0.37531E-01  7696   0.852E+00-0.851E-02
CGA:  10    -0.333736331613E+03   -0.17784E-01   -0.17804E-01  7696   0.685E+00-0.246E-03
CGA:  11    -0.333765207695E+03   -0.28876E-01   -0.28803E-01  7696   0.572E+00 0.555E-02
CGA:  12    -0.333778513287E+03   -0.13306E-01   -0.13307E-01  7696   0.353E+00 0.187E-04
CGA:  13    -0.333785481170E+03   -0.69679E-02   -0.70041E-02  7696   0.175E+00-0.306E-03
CGA:  14    -0.333791706188E+03   -0.62250E-02   -0.62334E-02  7696   0.149E+00-0.133E-02
CGA:  15    -0.333795271294E+03   -0.35651E-02   -0.35643E-02  7696   0.128E+00 0.612E-05
CGA:  16    -0.333798768685E+03   -0.34974E-02   -0.34968E-02  7696   0.763E-01-0.163E-04
CGA:  17    -0.333800812995E+03   -0.20443E-02   -0.20459E-02  7696   0.483E-01 0.134E-03
CGA:  18    -0.333801790863E+03   -0.97787E-03   -0.97633E-03  7696   0.319E-01 0.434E-05
CGA:  19    -0.333803335151E+03   -0.15443E-02   -0.15401E-02  7696   0.488E-01 0.208E-03
CGA:  20    -0.333804635303E+03   -0.13002E-02   -0.13001E-02  7696   0.354E-01-0.104E-04
CGA:  21    -0.333805270769E+03   -0.63547E-03   -0.63503E-03  7696   0.952E-02 0.576E-05
CGA:  22    -0.333805644807E+03   -0.37404E-03   -0.37392E-03  7696   0.160E-01 0.113E-04
CGA:  23    -0.333806215259E+03   -0.57045E-03   -0.57017E-03  7696   0.255E-01 0.491E-04
CGA:  24    -0.333806984885E+03   -0.76963E-03   -0.76954E-03  7696   0.902E-02-0.202E-04
CGA:  25    -0.333807178734E+03   -0.19385E-03   -0.19406E-03  7696   0.606E-02 0.961E-05
CGA:  26    -0.333807341124E+03   -0.16239E-03   -0.16242E-03  7696   0.653E-02 0.568E-05
CGA:  27    -0.333807715364E+03   -0.37424E-03   -0.37415E-03  7696   0.933E-02 0.325E-05
CGA:  28    -0.333807911990E+03   -0.19663E-03   -0.19682E-03  7696   0.557E-02 0.509E-05
CGA:  29    -0.333808037611E+03   -0.12562E-03   -0.12574E-03  7696   0.269E-02 0.718E-05
CGA:  30    -0.333808138313E+03   -0.10070E-03   -0.10069E-03  7696   0.330E-02 0.270E-05
CGA:  31    -0.333808217984E+03   -0.79671E-04   -0.79730E-04  7696   0.271E-02 0.571E-05
SDA:  32    -0.333808312307E+03   -0.94322E-04   -0.94297E-04  7696   0.216E-02 0.555E-05
CGA:  33    -0.333808335602E+03   -0.23295E-04   -0.23281E-04  7696   0.516E-03 0.320E-06
CGA:  34    -0.333808353065E+03   -0.17463E-04   -0.17469E-04  7696   0.841E-03-0.165E-05
CGA:  35    -0.333808408418E+03   -0.55353E-04   -0.55463E-04  7696   0.931E-03-0.348E-05
CGA:  36    -0.333808447179E+03   -0.38761E-04   -0.38758E-04  7696   0.165E-02 0.120E-06
CGA:  37    -0.333808487410E+03   -0.40231E-04   -0.40335E-04  7696   0.239E-03 0.437E-05
CGA:  38    -0.333808512066E+03   -0.24657E-04   -0.24564E-04  7696   0.921E-03 0.125E-05
CGA:  39    -0.333808525283E+03   -0.13216E-04   -0.13227E-04  7696   0.207E-03-0.382E-06
CGA:  40    -0.333808531037E+03   -0.57546E-05   -0.57557E-05  7696   0.222E-03-0.578E-07
CGA:  41    -0.333808561712E+03   -0.30674E-04   -0.30864E-04  7696   0.185E-03-0.202E-05
CGA:  42    -0.333808564155E+03   -0.24439E-05   -0.24534E-05  7696   0.573E-04 0.646E-07
  10 F= -.33380856E+03 E0= -.33377886E+03  d E =-.437168E-01  mag=    32.0000
       N       E                     dE             d eps       ncg     rms          ort
SDA:   1    -0.331272021278E+03    0.25365E+01    0.00000E+00  7696   0.472E+02 0.000E+00
CGA:   2    -0.331660451710E+03   -0.38843E+00   -0.73026E+00  7696   0.191E+02-0.157E+02
CGA:   3    -0.332136764537E+03   -0.47631E+00   -0.47326E+00  7696   0.198E+02-0.529E+00
CGA:   4    -0.332574136418E+03   -0.43737E+00   -0.42825E+00  7696   0.151E+02-0.881E-01
CGA:   5    -0.332976299936E+03   -0.40216E+00   -0.40733E+00  7696   0.125E+02 0.723E-01
CGA:   6    -0.333396341741E+03   -0.42004E+00   -0.41671E+00  7696   0.746E+01-0.220E+00
CGA:   7    -0.333576698091E+03   -0.18036E+00   -0.18497E+00  7696   0.371E+01 0.116E-01
CGA:   8    -0.333658991773E+03   -0.82294E-01   -0.80883E-01  7696   0.221E+01 0.140E-01
CGA:   9    -0.333717066565E+03   -0.58075E-01   -0.58093E-01  7696   0.233E+01-0.627E-03
CGA:  10    -0.333784162929E+03   -0.67096E-01   -0.67795E-01  7696   0.153E+01 0.262E-01
CGA:  11    -0.333825250698E+03   -0.41088E-01   -0.40498E-01  7696   0.564E+00-0.904E-02
CGA:  12    -0.333838936179E+03   -0.13685E-01   -0.13834E-01  7696   0.326E+00 0.104E-02
CGA:  13    -0.333848245520E+03   -0.93093E-02   -0.92932E-02  7696   0.300E+00-0.736E-03
CGA:  14    -0.333856185248E+03   -0.79397E-02   -0.79311E-02  7696   0.288E+00-0.216E-03
CGA:  15    -0.333863002219E+03   -0.68170E-02   -0.68338E-02  7696   0.130E+00 0.183E-03
CGA:  16    -0.333866428994E+03   -0.34268E-02   -0.34195E-02  7696   0.603E-01-0.198E-03
CGA:  17    -0.333868152871E+03   -0.17239E-02   -0.17262E-02  7696   0.483E-01 0.209E-03
CGA:  18    -0.333869834292E+03   -0.16814E-02   -0.16820E-02  7696   0.549E-01-0.149E-03
CGA:  19    -0.333871215253E+03   -0.13810E-02   -0.13816E-02  7696   0.464E-01 0.423E-04
CGA:  20    -0.333872212482E+03   -0.99723E-03   -0.10001E-02  7696   0.183E-01 0.202E-04
CGA:  21    -0.333872722631E+03   -0.51015E-03   -0.50980E-03  7696   0.119E-01-0.230E-04
CGA:  22    -0.333873153933E+03   -0.43130E-03   -0.43092E-03  7696   0.138E-01 0.590E-04
CGA:  23    -0.333873662448E+03   -0.50852E-03   -0.50866E-03  7696   0.139E-01-0.135E-04
CGA:  24    -0.333873960217E+03   -0.29777E-03   -0.29790E-03  7696   0.886E-02 0.832E-05
CGA:  25    -0.333874151355E+03   -0.19114E-03   -0.19134E-03  7696   0.439E-02 0.871E-05
CGA:  26    -0.333874308095E+03   -0.15674E-03   -0.15677E-03  7696   0.487E-02-0.161E-05
CGA:  27    -0.333874494696E+03   -0.18660E-03   -0.18636E-03  7696   0.486E-02 0.283E-04
CGA:  28    -0.333874638278E+03   -0.14358E-03   -0.14355E-03  7696   0.305E-02-0.108E-05
CGA:  29    -0.333874701457E+03   -0.63179E-04   -0.63256E-04  7696   0.211E-02 0.485E-05
CGA:  30    -0.333874756214E+03   -0.54757E-04   -0.54790E-04  7696   0.165E-02 0.447E-05
CGA:  31    -0.333874818316E+03   -0.62102E-04   -0.62109E-04  7696   0.179E-02 0.532E-07
SDA:  32    -0.333874873698E+03   -0.55381E-04   -0.55383E-04  7696   0.108E-02 0.456E-05
CGA:  33    -0.333874885849E+03   -0.12152E-04   -0.12128E-04  7696   0.202E-03 0.827E-06
CGA:  34    -0.333874897151E+03   -0.11301E-04   -0.11339E-04  7696   0.836E-03-0.152E-05
CGA:  35    -0.333874939400E+03   -0.42249E-04   -0.42344E-04  7696   0.126E-02-0.482E-05
CGA:  36    -0.333874962512E+03   -0.23112E-04   -0.23048E-04  7696   0.250E-03-0.278E-05
CGA:  37    -0.333874975070E+03   -0.12558E-04   -0.12502E-04  7696   0.900E-04 0.274E-05
CGA:  38    -0.333874977946E+03   -0.28759E-05   -0.28769E-05  7696   0.228E-03 0.895E-06
CGA:  39    -0.333874992116E+03   -0.14170E-04   -0.14076E-04  7696   0.198E-03 0.325E-05
CGA:  40    -0.333874995705E+03   -0.35892E-05   -0.35984E-05  7696   0.595E-04 0.685E-06
  11 F= -.33387500E+03 E0= -.33384538E+03  d E =-.664315E-01  mag=    32.0000
       N       E                     dE             d eps       ncg     rms          ort
SDA:   1    -0.278888623591E+03    0.54986E+02    0.00000E+00  7696   0.176E+04 0.000E+00
CGA:   2    -0.295543912644E+03   -0.16655E+02   -0.33389E+02  7696   0.475E+03-0.435E+03
CGA:   3    -0.302341175570E+03   -0.67973E+01   -0.66810E+01  7696   0.239E+03 0.139E+01
CGA:   4    -0.307102313065E+03   -0.47611E+01   -0.41107E+01  7696   0.183E+03-0.203E+02
CGA:   5    -0.313724143039E+03   -0.66218E+01   -0.64870E+01  7696   0.393E+03 0.124E+02
CGA:   6    -0.323024277619E+03   -0.93001E+01   -0.96269E+01  7696   0.199E+03-0.225E+02
CGA:   7    -0.328230904412E+03   -0.52066E+01   -0.42345E+01  7696   0.856E+02-0.615E+02
CGA:   8    -0.329582414170E+03   -0.13515E+01   -0.13359E+01  7696   0.511E+02-0.537E+00
CGA:   9    -0.330655917200E+03   -0.10735E+01   -0.10851E+01  7696   0.249E+02 0.266E+00
CGA:  10    -0.331475252707E+03   -0.81934E+00   -0.83877E+00  7696   0.386E+02-0.363E+01
CGA:  11    -0.332685990045E+03   -0.12107E+01   -0.12017E+01  7696   0.228E+02 0.113E+01
CGA:  12    -0.333012651603E+03   -0.32666E+00   -0.31167E+00  7696   0.620E+01 0.419E+00
CGA:  13    -0.333137868555E+03   -0.12522E+00   -0.12451E+00  7696   0.409E+01-0.422E-04
CGA:  14    -0.333264432225E+03   -0.12656E+00   -0.12674E+00  7696   0.651E+01-0.618E-01
CGA:  15    -0.333459716367E+03   -0.19528E+00   -0.19487E+00  7696   0.339E+01 0.244E+00
CGA:  16    -0.333542178752E+03   -0.82462E-01   -0.82302E-01  7696   0.168E+01-0.669E-02
CGA:  17    -0.333576029546E+03   -0.33851E-01   -0.32489E-01  7696   0.921E+00 0.371E-02
CGA:  18    -0.333603368617E+03   -0.27339E-01   -0.27338E-01  7696   0.895E+00 0.111E-02
CGA:  19    -0.333630530194E+03   -0.27162E-01   -0.27159E-01  7696   0.145E+01 0.103E-02
CGA:  20    -0.333668475676E+03   -0.37945E-01   -0.37932E-01  7696   0.767E+00-0.123E-02
CGA:  21    -0.333683136455E+03   -0.14661E-01   -0.14630E-01  7696   0.489E+00 0.483E-03
CGA:  22    -0.333694393160E+03   -0.11257E-01   -0.11320E-01  7696   0.405E+00 0.361E-02
CGA:  23    -0.333710912631E+03   -0.16519E-01   -0.16535E-01  7696   0.415E+00-0.116E-02
CGA:  24    -0.333717355065E+03   -0.64424E-02   -0.63239E-02  7696   0.170E+00 0.349E-02
CGA:  25    -0.333721725203E+03   -0.43701E-02   -0.43763E-02  7696   0.162E+00 0.105E-02
CGA:  26    -0.333727574730E+03   -0.58495E-02   -0.58179E-02  7696   0.335E+00 0.283E-02
CGA:  27    -0.333737561520E+03   -0.99868E-02   -0.10003E-01  7696   0.180E+00-0.799E-02
CGA:  28    -0.333741696139E+03   -0.41346E-02   -0.41305E-02  7696   0.114E+00-0.204E-03
CGA:  29    -0.333743661177E+03   -0.19650E-02   -0.19805E-02  7696   0.613E-01-0.141E-03
CGA:  30    -0.333745574336E+03   -0.19132E-02   -0.19131E-02  7696   0.560E-01 0.167E-04
CGA:  31    -0.333747026410E+03   -0.14521E-02   -0.14502E-02  7696   0.797E-01-0.428E-03
SDA:  32    -0.333750217675E+03   -0.31913E-02   -0.31839E-02  7696   0.882E-01 0.475E-03
CGA:  33    -0.333751457783E+03   -0.12401E-02   -0.12452E-02  7696   0.105E-01-0.182E-03
CGA:  34    -0.333751825872E+03   -0.36809E-03   -0.36799E-03  7696   0.240E-01 0.709E-05
CGA:  35    -0.333752956259E+03   -0.11304E-02   -0.11199E-02  7696   0.301E-01 0.497E-03
CGA:  36    -0.333753667480E+03   -0.71122E-03   -0.71185E-03  7696   0.332E-01 0.168E-04
CGA:  37    -0.333755032215E+03   -0.13647E-02   -0.13767E-02  7696   0.193E-01-0.764E-03
CGA:  38    -0.333755503571E+03   -0.47136E-03   -0.47225E-03  7696   0.968E-02 0.738E-04
CGA:  39    -0.333756462224E+03   -0.95865E-03   -0.96015E-03  7696   0.805E-02-0.325E-04
CGA:  40    -0.333756558200E+03   -0.95976E-04   -0.95969E-04  7696   0.374E-02-0.108E-05
CGA:  41    -0.333757300144E+03   -0.74194E-03   -0.32868E-04  7696   0.718E-02-0.957E-04
CGA:  42    -0.333757423801E+03   -0.12366E-03   -0.12319E-03  7696   0.399E-02 0.209E-04
CGA:  43    -0.333757586727E+03   -0.16293E-03   -0.16429E-03  7696   0.217E-02 0.163E-04
CGA:  44    -0.333757670760E+03   -0.84033E-04   -0.83985E-04  7696   0.310E-02-0.278E-05
CGA:  45    -0.333757908734E+03   -0.23797E-03   -0.23838E-03  7696   0.146E-02-0.157E-04
CGA:  46    -0.333757935487E+03   -0.26753E-04   -0.26818E-04  7696   0.152E-02-0.169E-05
CGA:  47    -0.333758052789E+03   -0.11730E-03   -0.11689E-03  7696   0.254E-02 0.155E-04
CGA:  48    -0.333758084795E+03   -0.32007E-04   -0.31916E-04  7696   0.404E-03 0.127E-04
CGA:  49    -0.333758130770E+03   -0.45975E-04   -0.45497E-04  7696   0.149E-02 0.783E-05
CGA:  50    -0.333758181904E+03   -0.51134E-04   -0.51490E-04  7696   0.384E-03 0.107E-04
CGA:  51    -0.333758192389E+03   -0.10485E-04   -0.10570E-04  7696   0.544E-03 0.201E-05
CGA:  52    -0.333758203813E+03   -0.11423E-04   -0.11551E-04  7696   0.162E-03-0.191E-06
CGA:  53    -0.333758224355E+03   -0.20542E-04   -0.20473E-04  7696   0.820E-03 0.817E-06
CGA:  54    -0.333758242755E+03   -0.18400E-04   -0.18314E-04  7696   0.195E-03 0.541E-06
CGA:  55    -0.333758246475E+03   -0.37197E-05   -0.37228E-05  7696   0.107E-03-0.351E-06
  12 F= -.33375825E+03 E0= -.33372839E+03  d E =0.116749E+00  mag=    32.0000
       N       E                     dE             d eps       ncg     rms          ort
SDA:   1    -0.318990682668E+03    0.14768E+02    0.00000E+00  7696   0.192E+03 0.000E+00
CGA:   2    -0.321235268143E+03   -0.22446E+01   -0.48630E+01  7696   0.135E+03-0.368E+02
CGA:   3    -0.323947910666E+03   -0.27126E+01   -0.23841E+01  7696   0.802E+02 0.211E+01
CGA:   4    -0.326135213144E+03   -0.21873E+01   -0.12229E+01  7696   0.318E+02 0.636E+02
CGA:   5    -0.327064480796E+03   -0.92927E+00   -0.68670E+00  7696   0.237E+02 0.659E+01
CGA:   6    -0.329528387206E+03   -0.24639E+01   -0.26000E+01  7696   0.199E+03-0.297E+01
CGA:   7    -0.331671643572E+03   -0.21433E+01   -0.23506E+01  7696   0.131E+03 0.799E+00
CGA:   8    -0.332430663695E+03   -0.75902E+00   -0.12830E+01  7696   0.174E+02-0.454E+02
CGA:   9    -0.332591737363E+03   -0.16107E+00   -0.17953E+00  7696   0.818E+01-0.553E+00
CGA:  10    -0.332804117035E+03   -0.21238E+00   -0.22369E+00  7696   0.129E+02 0.131E-01
CGA:  11    -0.333201567690E+03   -0.39745E+00   -0.41615E+00  7696   0.118E+02 0.267E+00
CGA:  12    -0.333516433550E+03   -0.31487E+00   -0.32480E+00  7696   0.493E+01-0.550E-01
CGA:  13    -0.333665605709E+03   -0.14917E+00   -0.12632E+00  7696   0.502E+01 0.567E+00
CGA:  14    -0.333707925474E+03   -0.42320E-01   -0.23951E-01  7696   0.316E+01 0.422E+01
CGA:  15    -0.333745484262E+03   -0.37559E-01   -0.39428E-01  7696   0.132E+01-0.117E+00
CGA:  16    -0.333801648339E+03   -0.56164E-01   -0.57594E-01  7696   0.231E+01-0.135E+00
CGA:  17    -0.333864815657E+03   -0.63167E-01   -0.62235E-01  7696   0.352E+01-0.234E-01
CGA:  18    -0.333955387052E+03   -0.90571E-01   -0.96099E-01  7696   0.126E+01 0.810E-01
CGA:  19    -0.333977050925E+03   -0.21664E-01   -0.22484E-01  7696   0.408E+00-0.251E-01
CGA:  20    -0.333984564444E+03   -0.75135E-02   -0.75623E-02  7696   0.440E+00-0.132E-02
CGA:  21    -0.334009889323E+03   -0.25325E-01   -0.25617E-01  7696   0.302E+00-0.115E-01
CGA:  22    -0.334014234526E+03   -0.43452E-02   -0.44870E-02  7696   0.958E-01-0.597E-02
CGA:  23    -0.334017094290E+03   -0.28598E-02   -0.28564E-02  7696   0.112E+00-0.195E-03
CGA:  24    -0.334020692262E+03   -0.35980E-02   -0.35927E-02  7696   0.138E+00-0.597E-03
CGA:  25    -0.334023157256E+03   -0.24650E-02   -0.24974E-02  7696   0.592E-01-0.753E-03
CGA:  26    -0.334025726320E+03   -0.25691E-02   -0.25471E-02  7696   0.420E-01 0.175E-02
CGA:  27    -0.334027271385E+03   -0.15451E-02   -0.15449E-02  7696   0.886E-01 0.988E-04
CGA:  28    -0.334029947352E+03   -0.26760E-02   -0.26798E-02  7696   0.112E+00 0.326E-03
CGA:  29    -0.334033284679E+03   -0.33373E-02   -0.33404E-02  7696   0.194E-01 0.271E-03
CGA:  30    -0.334033767034E+03   -0.48235E-03   -0.48078E-03  7696   0.199E-01-0.105E-04
CGA:  31    -0.334034421040E+03   -0.65401E-03   -0.65404E-03  7696   0.341E-01 0.270E-04
CGA:  32    -0.334035699508E+03   -0.12785E-02   -0.12777E-02  7696   0.394E-01 0.154E-03
CGA:  33    -0.334036687633E+03   -0.98813E-03   -0.98653E-03  7696   0.317E-01 0.846E-05
CGA:  34    -0.334037658233E+03   -0.97060E-03   -0.97377E-03  7696   0.125E-01 0.461E-03
CGA:  35    -0.334037964223E+03   -0.30599E-03   -0.30639E-03  7696   0.148E-01 0.117E-04
CGA:  36    -0.334038371959E+03   -0.40774E-03   -0.40793E-03  7696   0.152E-01 0.165E-04
CGA:  37    -0.334038893527E+03   -0.52157E-03   -0.52165E-03  7696   0.452E-02-0.293E-04
CGA:  38    -0.334039045507E+03   -0.15198E-03   -0.15197E-03  7696   0.742E-02 0.655E-05
CGA:  39    -0.334039229814E+03   -0.18431E-03   -0.18426E-03  7696   0.692E-02 0.745E-05
CGA:  40    -0.334039435860E+03   -0.20605E-03   -0.20595E-03  7696   0.368E-02-0.853E-05
CGA:  41    -0.334039533007E+03   -0.97147E-04   -0.97281E-04  7696   0.294E-02 0.121E-04
CGA:  42    -0.334039600131E+03   -0.67124E-04   -0.67143E-04  7696   0.114E-02 0.304E-05
CGA:  43    -0.334039638675E+03   -0.38544E-04   -0.38556E-04  7696   0.228E-02-0.508E-05
CGA:  44    -0.334039713030E+03   -0.74355E-04   -0.74364E-04  7696   0.271E-02-0.841E-05
SDA:  45    -0.334039795383E+03   -0.82353E-04   -0.82337E-04  7696   0.537E-03-0.126E-04
CGA:  46    -0.334039808085E+03   -0.12703E-04   -0.12683E-04  7696   0.442E-03-0.172E-05
CGA:  47    -0.334039826108E+03   -0.18023E-04   -0.18052E-04  7696   0.970E-03-0.279E-05
CGA:  48    -0.334039847888E+03   -0.21780E-04   -0.21746E-04  7696   0.397E-03-0.320E-05
CGA:  49    -0.334039882588E+03   -0.34700E-04   -0.35053E-04  7696   0.263E-03-0.610E-05
CGA:  50    -0.334039890506E+03   -0.79182E-05   -0.79056E-05  7696   0.437E-03-0.354E-05
CGA:  51    -0.334039906629E+03   -0.16123E-04   -0.16157E-04  7696   0.595E-03-0.953E-05
CGA:  52    -0.334039917558E+03   -0.10928E-04   -0.10830E-04  7696   0.103E-03-0.631E-05
CGA:  53    -0.334039920833E+03   -0.32756E-05   -0.32728E-05  7696   0.196E-03-0.206E-05
CGA:  54    -0.334039935623E+03   -0.14790E-04   -0.15099E-04  7696   0.538E-04-0.688E-05
CGA:  55    -0.334039936440E+03   -0.81704E-06   -0.81850E-06  7696   0.468E-04 0.312E-07
  13 F= -.33403994E+03 E0= -.33401008E+03  d E =-.281690E+00  mag=    32.0000
       N       E                     dE             d eps       ncg     rms          ort
SDA:   1    -0.333858642257E+03    0.18129E+00    0.00000E+00  7696   0.181E+01 0.000E+00
CGA:   2    -0.333889168166E+03   -0.30526E-01   -0.31300E-01  7696   0.657E+00-0.270E-01
CGA:   3    -0.333937717356E+03   -0.48549E-01   -0.48866E-01  7696   0.306E+01-0.810E-02
CGA:   4    -0.334010665421E+03   -0.72948E-01   -0.72791E-01  7696   0.545E+00 0.495E-04
CGA:   5    -0.334017656750E+03   -0.69913E-02   -0.72180E-02  7696   0.213E+00-0.122E-01
CGA:   6    -0.334035311622E+03   -0.17655E-01   -0.17279E-01  7696   0.283E+00 0.812E-02
CGA:   7    -0.334042775132E+03   -0.74635E-02   -0.74822E-02  7696   0.182E+00-0.420E-06
CGA:   8    -0.334047737156E+03   -0.49620E-02   -0.49227E-02  7696   0.173E+00-0.369E-03
CGA:   9    -0.334050567570E+03   -0.28304E-02   -0.27559E-02  7696   0.248E-01 0.305E-02
CGA:  10    -0.334051401563E+03   -0.83399E-03   -0.83453E-03  7696   0.467E-01 0.793E-04
CGA:  11    -0.334053911758E+03   -0.25102E-02   -0.25085E-02  7696   0.201E-01 0.805E-04
CGA:  12    -0.334054196868E+03   -0.28511E-03   -0.28701E-03  7696   0.843E-02-0.814E-04
CGA:  13    -0.334054414693E+03   -0.21783E-03   -0.21777E-03  7696   0.860E-02-0.646E-06
CGA:  14    -0.334054752848E+03   -0.33815E-03   -0.33871E-03  7696   0.468E-02-0.811E-04
CGA:  15    -0.334054933127E+03   -0.18028E-03   -0.18020E-03  7696   0.838E-02 0.158E-04
CGA:  16    -0.334055160059E+03   -0.22693E-03   -0.22720E-03  7696   0.266E-02 0.122E-04
CGA:  17    -0.334055202338E+03   -0.42278E-04   -0.42311E-04  7696   0.185E-02 0.297E-05
CGA:  18    -0.334055306382E+03   -0.10404E-03   -0.10389E-03  7696   0.282E-02 0.703E-05
CGA:  19    -0.334055376182E+03   -0.69800E-04   -0.69836E-04  7696   0.725E-03 0.509E-05
CGA:  20    -0.334055407771E+03   -0.31589E-04   -0.31560E-04  7696   0.187E-02 0.298E-05
CGA:  21    -0.334055477688E+03   -0.69917E-04   -0.69915E-04  7696   0.144E-02 0.432E-06
CGA:  22    -0.334055500462E+03   -0.22775E-04   -0.22766E-04  7696   0.711E-03-0.415E-06
CGA:  23    -0.334055529324E+03   -0.28861E-04   -0.28885E-04  7696   0.526E-03-0.313E-05
CGA:  24    -0.334055542577E+03   -0.13253E-04   -0.13225E-04  7696   0.266E-03-0.222E-05
CGA:  25    -0.334055561737E+03   -0.19160E-04   -0.19169E-04  7696   0.111E-02-0.203E-06
CGA:  26    -0.334055590210E+03   -0.28473E-04   -0.28456E-04  7696   0.351E-03-0.194E-05
CGA:  27    -0.334055594947E+03   -0.47366E-05   -0.47214E-05  7696   0.125E-03-0.447E-06
  14 F= -.33405559E+03 E0= -.33402579E+03  d E =-.156585E-01  mag=    32.0000
       N       E                     dE             d eps       ncg     rms          ort
SDA:   1    -0.333789677517E+03    0.26591E+00    0.00000E+00  7696   0.490E+01 0.000E+00
CGA:   2    -0.333843675248E+03   -0.53998E-01   -0.58747E-01  7696   0.800E+00-0.286E+00
CGA:   3    -0.333899801448E+03   -0.56126E-01   -0.57568E-01  7696   0.298E+01-0.353E-01
CGA:   4    -0.334013784993E+03   -0.11398E+00   -0.11386E+00  7696   0.569E+00 0.230E-01
CGA:   5    -0.334022392332E+03   -0.86073E-02   -0.84672E-02  7696   0.290E+00 0.646E-02
CGA:   6    -0.334037715691E+03   -0.15323E-01   -0.15241E-01  7696   0.658E+00 0.401E-02
CGA:   7    -0.334051067430E+03   -0.13352E-01   -0.13542E-01  7696   0.179E+00-0.337E-02
CGA:   8    -0.334058445754E+03   -0.73783E-02   -0.74305E-02  7696   0.195E+00-0.572E-02
CGA:   9    -0.334061700652E+03   -0.32549E-02   -0.32288E-02  7696   0.307E-01 0.902E-03
CGA:  10    -0.334062474830E+03   -0.77418E-03   -0.77447E-03  7696   0.463E-01 0.939E-05
CGA:  11    -0.334064937280E+03   -0.24625E-02   -0.24602E-02  7696   0.528E-01 0.106E-03
CGA:  12    -0.334065874325E+03   -0.93705E-03   -0.94083E-03  7696   0.614E-02-0.842E-04
CGA:  13    -0.334066132058E+03   -0.25773E-03   -0.25815E-03  7696   0.133E-01-0.392E-04
CGA:  14    -0.334066439673E+03   -0.30762E-03   -0.30631E-03  7696   0.563E-02 0.757E-06
CGA:  15    -0.334066616291E+03   -0.17662E-03   -0.17666E-03  7696   0.911E-02 0.829E-05
CGA:  16    -0.334066931805E+03   -0.31551E-03   -0.31550E-03  7696   0.175E-02 0.278E-04
CGA:  17    -0.334066981524E+03   -0.49720E-04   -0.49734E-04  7696   0.179E-02 0.222E-05
CGA:  18    -0.334067079753E+03   -0.98229E-04   -0.98116E-04  7696   0.323E-02 0.583E-05
CGA:  19    -0.334067129997E+03   -0.50245E-04   -0.50316E-04  7696   0.894E-03 0.404E-05
CGA:  20    -0.334067168902E+03   -0.38905E-04   -0.38846E-04  7696   0.201E-02 0.572E-05
CGA:  21    -0.334067230925E+03   -0.62023E-04   -0.62040E-04  7696   0.617E-03 0.309E-05
CGA:  22    -0.334067270496E+03   -0.39572E-04   -0.39619E-04  7696   0.123E-02-0.156E-05
CGA:  23    -0.334067290160E+03   -0.19663E-04   -0.19581E-04  7696   0.309E-03-0.688E-06
CGA:  24    -0.334067298505E+03   -0.83455E-05   -0.83398E-05  7696   0.449E-03-0.691E-06
CGA:  25    -0.334067328743E+03   -0.30238E-04   -0.30238E-04  7696   0.909E-03 0.138E-06
CGA:  26    -0.334067347451E+03   -0.18708E-04   -0.18687E-04  7696   0.167E-03-0.535E-06
CGA:  27    -0.334067356493E+03   -0.90418E-05   -0.90817E-05  7696   0.280E-03-0.207E-05
  15 F= -.33406736E+03 E0= -.33403758E+03  d E =-.117615E-01  mag=    32.0000
       N       E                     dE             d eps       ncg     rms          ort
SDA:   1    -0.333008815749E+03    0.10585E+01    0.00000E+00  7696   0.962E+02 0.000E+00
CGA:   2    -0.333811005996E+03   -0.80219E+00   -0.87724E+00  7696   0.340E+01-0.124E+02
CGA:   3    -0.333849302734E+03   -0.38297E-01   -0.38617E-01  7696   0.734E+00-0.153E-01
CGA:   4    -0.333899035269E+03   -0.49733E-01   -0.49997E-01  7696   0.332E+01-0.685E-02
CGA:   5    -0.334028896924E+03   -0.12986E+00   -0.12985E+00  7696   0.102E+01 0.195E-02
CGA:   6    -0.334040967744E+03   -0.12071E-01   -0.12105E-01  7696   0.194E+00-0.214E-02
CGA:   7    -0.334050312338E+03   -0.93446E-02   -0.93348E-02  7696   0.498E+00 0.559E-03
CGA:   8    -0.334068534474E+03   -0.18222E-01   -0.18217E-01  7696   0.191E+00 0.145E-02
CGA:   9    -0.334071100598E+03   -0.25661E-02   -0.25604E-02  7696   0.539E-01 0.296E-03
CGA:  10    -0.334073315521E+03   -0.22149E-02   -0.22285E-02  7696   0.660E-01-0.122E-02
CGA:  11    -0.334074517465E+03   -0.12019E-02   -0.11968E-02  7696   0.261E-01 0.120E-03
CGA:  12    -0.334076062854E+03   -0.15454E-02   -0.15411E-02  7696   0.531E-01 0.154E-03
CGA:  13    -0.334076939868E+03   -0.87701E-03   -0.88002E-03  7696   0.970E-02-0.758E-04
CGA:  14    -0.334077135412E+03   -0.19554E-03   -0.19566E-03  7696   0.638E-02-0.606E-06
CGA:  15    -0.334077561660E+03   -0.42625E-03   -0.42767E-03  7696   0.128E-01-0.420E-04
CGA:  16    -0.334077737224E+03   -0.17556E-03   -0.17507E-03  7696   0.215E-02 0.155E-04
CGA:  17    -0.334077886674E+03   -0.14945E-03   -0.14856E-03  7696   0.453E-02 0.249E-04
CGA:  18    -0.334077959644E+03   -0.72970E-04   -0.73051E-04  7696   0.154E-02-0.215E-06
CGA:  19    -0.334078038651E+03   -0.79007E-04   -0.79007E-04  7696   0.269E-02 0.653E-06
CGA:  20    -0.334078085710E+03   -0.47059E-04   -0.47070E-04  7696   0.527E-03 0.844E-06
CGA:  21    -0.334078100023E+03   -0.14313E-04   -0.14317E-04  7696   0.682E-03 0.569E-06
CGA:  22    -0.334078147146E+03   -0.47123E-04   -0.47005E-04  7696   0.174E-02 0.337E-05
CGA:  23    -0.334078175983E+03   -0.28837E-04   -0.28935E-04  7696   0.240E-03 0.161E-05
CGA:  24    -0.334078186450E+03   -0.10467E-04   -0.10472E-04  7696   0.511E-03-0.478E-06
CGA:  25    -0.334078197415E+03   -0.10964E-04   -0.10957E-04  7696   0.175E-03 0.487E-06
CGA:  26    -0.334078208207E+03   -0.10792E-04   -0.10764E-04  7696   0.564E-03 0.102E-05
CGA:  27    -0.334078221741E+03   -0.13534E-04   -0.13552E-04  7696   0.137E-03 0.150E-05
CGA:  28    -0.334078224727E+03   -0.29863E-05   -0.29832E-05  7696   0.126E-03-0.227E-06
  16 F= -.33407822E+03 E0= -.33404847E+03  d E =-.108682E-01  mag=    32.0000
       N       E                     dE             d eps       ncg     rms          ort
SDA:   1    -0.313009321456E+03    0.21069E+02    0.00000E+00  7696   0.700E+03 0.000E+00
CGA:   2    -0.317612831404E+03   -0.46035E+01   -0.12238E+02  7696   0.165E+03-0.155E+03
CGA:   3    -0.321658789092E+03   -0.40460E+01   -0.27465E+01  7696   0.383E+02 0.150E+02
CGA:   4    -0.323775457031E+03   -0.21167E+01   -0.23848E+01  7696   0.214E+03-0.101E+02
CGA:   5    -0.326919395795E+03   -0.31439E+01   -0.33255E+01  7696   0.368E+03-0.306E+01
CGA:   6    -0.330630655579E+03   -0.37113E+01   -0.52135E+01  7696   0.137E+03-0.633E+02
CGA:   7    -0.331475408569E+03   -0.84475E+00   -0.79769E+00  7696   0.284E+02 0.689E+01
CGA:   8    -0.331703743500E+03   -0.22833E+00   -0.18289E+00  7696   0.123E+02 0.671E+01
CGA:   9    -0.331893640731E+03   -0.18990E+00   -0.16725E+00  7696   0.194E+02 0.153E+01
CGA:  10    -0.332205484154E+03   -0.31184E+00   -0.29172E+00  7696   0.483E+02 0.913E+00
CGA:  11    -0.332717997275E+03   -0.51251E+00   -0.56357E+00  7696   0.674E+02-0.255E+01
CGA:  12    -0.333098042288E+03   -0.38005E+00   -0.42940E+00  7696   0.319E+02-0.582E+01
CGA:  13    -0.333269244870E+03   -0.17120E+00   -0.17039E+00  7696   0.138E+02-0.126E+00
CGA:  14    -0.333349640678E+03   -0.80396E-01   -0.65264E-01  7696   0.717E+01 0.266E+01
CGA:  15    -0.333394704452E+03   -0.45064E-01   -0.34578E-01  7696   0.464E+01 0.231E+01
CGA:  16    -0.333431241584E+03   -0.36537E-01   -0.30143E-01  7696   0.541E+01 0.113E+01
CGA:  17    -0.333477970669E+03   -0.46729E-01   -0.36983E-01  7696   0.106E+02 0.162E+01
CGA:  18    -0.333521724914E+03   -0.43754E-01   -0.25026E-01  7696   0.128E+02 0.102E+02
[...]
CGA:  12    -0.334885769708E+03   -0.14899E-04   -0.14908E-04  7696   0.479E-03 0.109E-05
CGA:  13    -0.334885814199E+03   -0.44491E-04   -0.44413E-04  7696   0.788E-03 0.133E-05
CGA:  14    -0.334885824903E+03   -0.10704E-04   -0.10760E-04  7696   0.130E-03 0.204E-06
CGA:  15    -0.334885830203E+03   -0.53000E-05   -0.52974E-05  7696   0.147E-03 0.727E-06
 104 F= -.33488583E+03 E0= -.33485990E+03  d E =-.213705E-03  mag=    32.0000
       N       E                     dE             d eps       ncg     rms          ort
SDA:   1    -0.334687933055E+03    0.19789E+00    0.00000E+00  7696   0.994E+00 0.000E+00
CGA:   2    -0.334710349721E+03   -0.22417E-01   -0.22010E-01  7696   0.966E+00 0.544E-02
CGA:   3    -0.334758848237E+03   -0.48499E-01   -0.51586E-01  7696   0.242E+01-0.154E+00
CGA:   4    -0.334805415657E+03   -0.46567E-01   -0.46916E-01  7696   0.179E+01-0.181E-02
CGA:   5    -0.334846263877E+03   -0.40848E-01   -0.43790E-01  7696   0.101E+01 0.112E-01
CGA:   6    -0.334858548181E+03   -0.12284E-01   -0.11864E-01  7696   0.116E+00 0.285E-01
CGA:   7    -0.334865816682E+03   -0.72685E-02   -0.73103E-02  7696   0.464E+00-0.148E-02
CGA:   8    -0.334877511837E+03   -0.11695E-01   -0.11724E-01  7696   0.229E+00 0.271E-03
CGA:   9    -0.334881153180E+03   -0.36413E-02   -0.36552E-02  7696   0.516E-01-0.543E-03
CGA:  10    -0.334882115438E+03   -0.96226E-03   -0.94538E-03  7696   0.341E-01 0.395E-03
CGA:  11    -0.334883101225E+03   -0.98579E-03   -0.98219E-03  7696   0.360E-01-0.230E-03
CGA:  12    -0.334883982556E+03   -0.88133E-03   -0.88453E-03  7696   0.274E-01 0.727E-04
CGA:  13    -0.334884712264E+03   -0.72971E-03   -0.73107E-03  7696   0.275E-01 0.701E-04
CGA:  14    -0.334885174003E+03   -0.46174E-03   -0.46264E-03  7696   0.567E-02-0.670E-05
CGA:  15    -0.334885378947E+03   -0.20494E-03   -0.20497E-03  7696   0.131E-01-0.440E-05
CGA:  16    -0.334885741700E+03   -0.36275E-03   -0.36262E-03  7696   0.557E-02-0.147E-04
CGA:  17    -0.334885830228E+03   -0.88527E-04   -0.88624E-04  7696   0.175E-02-0.976E-06
CGA:  18    -0.334885876885E+03   -0.46657E-04   -0.46678E-04  7696   0.274E-02 0.345E-05
CGA:  19    -0.334886012708E+03   -0.13582E-03   -0.13571E-03  7696   0.368E-02 0.603E-05
CGA:  20    -0.334886070139E+03   -0.57432E-04   -0.57534E-04  7696   0.658E-03 0.161E-05
CGA:  21    -0.334886082439E+03   -0.12299E-04   -0.12332E-04  7696   0.586E-03 0.110E-05
CGA:  22    -0.334886108252E+03   -0.25813E-04   -0.25801E-04  7696   0.574E-03 0.464E-06
CGA:  23    -0.334886126320E+03   -0.18068E-04   -0.18070E-04  7696   0.963E-03-0.434E-05
CGA:  24    -0.334886149855E+03   -0.23536E-04   -0.23497E-04  7696   0.294E-03-0.487E-05
CGA:  25    -0.334886155327E+03   -0.54715E-05   -0.54704E-05  7696   0.158E-03-0.367E-06
 105 F= -.33488616E+03 E0= -.33486025E+03  d E =-.325124E-03  mag=    32.0000
       N       E                     dE             d eps       ncg     rms          ort
SDA:   1    -0.334857089406E+03    0.29060E-01    0.00000E+00  7696   0.182E+01 0.000E+00
CGA:   2    -0.334874219149E+03   -0.17130E-01   -0.18465E-01  7696   0.104E+00-0.998E-01
CGA:   3    -0.334876179248E+03   -0.19601E-02   -0.19515E-02  7696   0.517E-01-0.257E-04
CGA:   4    -0.334879624302E+03   -0.34451E-02   -0.34597E-02  7696   0.872E-01-0.420E-03
CGA:   5    -0.334882038233E+03   -0.24139E-02   -0.24118E-02  7696   0.680E-01-0.304E-03
CGA:   6    -0.334883938526E+03   -0.19003E-02   -0.19045E-02  7696   0.293E-01 0.700E-03
CGA:   7    -0.334884514307E+03   -0.57578E-03   -0.57710E-03  7696   0.127E-01 0.768E-06
CGA:   8    -0.334885559680E+03   -0.10454E-02   -0.10426E-02  7696   0.201E-01 0.606E-04
CGA:   9    -0.334885867342E+03   -0.30766E-03   -0.30587E-03  7696   0.417E-02 0.621E-04
CGA:  10    -0.334886026316E+03   -0.15897E-03   -0.15891E-03  7696   0.585E-02 0.693E-05
CGA:  11    -0.334886299377E+03   -0.27306E-03   -0.27337E-03  7696   0.299E-02-0.193E-04
CGA:  12    -0.334886343774E+03   -0.44397E-04   -0.44498E-04  7696   0.638E-03-0.280E-05
CGA:  13    -0.334886371217E+03   -0.27443E-04   -0.27442E-04  7696   0.125E-02 0.540E-07
CGA:  14    -0.334886419645E+03   -0.48428E-04   -0.48423E-04  7696   0.517E-03 0.100E-05
CGA:  15    -0.334886435418E+03   -0.15772E-04   -0.15767E-04  7696   0.441E-03-0.173E-05
CGA:  16    -0.334886444192E+03   -0.87747E-05   -0.87681E-05  7696   0.139E-03-0.305E-06
 106 F= -.33488644E+03 E0= -.33486051E+03  d E =-.288865E-03  mag=    32.0000
       N       E                     dE             d eps       ncg     rms          ort
SDA:   1    -0.334793159212E+03    0.93276E-01    0.00000E+00  7696   0.505E+01 0.000E+00
CGA:   2    -0.334848192165E+03   -0.55033E-01   -0.44663E-01  7696   0.338E+00 0.969E+00
CGA:   3    -0.334853281736E+03   -0.50896E-02   -0.48839E-02  7696   0.140E+00 0.119E-01
CGA:   4    -0.334857365275E+03   -0.40835E-02   -0.40807E-02  7696   0.271E+00-0.388E-03
CGA:   5    -0.334867368239E+03   -0.10003E-01   -0.10009E-01  7696   0.472E+00-0.720E-03
CGA:   6    -0.334874692474E+03   -0.73242E-02   -0.73303E-02  7696   0.246E+00-0.121E-03
CGA:   7    -0.334879074579E+03   -0.43821E-02   -0.43939E-02  7696   0.136E+00-0.123E-03
CGA:   8    -0.334881019709E+03   -0.19451E-02   -0.19946E-02  7696   0.603E-01-0.166E-02
CGA:   9    -0.334882026569E+03   -0.10069E-02   -0.10157E-02  7696   0.318E-01-0.147E-03
CGA:  10    -0.334883056728E+03   -0.10302E-02   -0.10300E-02  7696   0.784E-01 0.172E-04
CGA:  11    -0.334885328760E+03   -0.22720E-02   -0.22722E-02  7696   0.258E-01-0.326E-03
CGA:  12    -0.334885598723E+03   -0.26996E-03   -0.27018E-03  7696   0.741E-02-0.161E-04
CGA:  13    -0.334885843280E+03   -0.24456E-03   -0.24455E-03  7696   0.114E-01 0.203E-05
CGA:  14    -0.334886117635E+03   -0.27436E-03   -0.27448E-03  7696   0.109E-01 0.149E-04
CGA:  15    -0.334886294298E+03   -0.17666E-03   -0.17704E-03  7696   0.240E-02 0.451E-05
CGA:  16    -0.334886339279E+03   -0.44981E-04   -0.44972E-04  7696   0.259E-02 0.184E-06
CGA:  17    -0.334886441474E+03   -0.10220E-03   -0.10256E-03  7696   0.398E-02-0.253E-04
CGA:  18    -0.334886514503E+03   -0.73029E-04   -0.73061E-04  7696   0.192E-02-0.176E-05
CGA:  19    -0.334886549844E+03   -0.35341E-04   -0.35405E-04  7696   0.141E-02 0.238E-05
CGA:  20    -0.334886579039E+03   -0.29195E-04   -0.29212E-04  7696   0.503E-03 0.103E-05
CGA:  21    -0.334886587588E+03   -0.85495E-05   -0.85354E-05  7696   0.488E-03-0.868E-06
CGA:  22    -0.334886614162E+03   -0.26574E-04   -0.26572E-04  7696   0.101E-02 0.682E-07
CGA:  23    -0.334886631164E+03   -0.17002E-04   -0.17022E-04  7696   0.435E-03 0.130E-05
CGA:  24    -0.334886637287E+03   -0.61228E-05   -0.61216E-05  7696   0.946E-04 0.170E-06
 107 F= -.33488664E+03 E0= -.33486070E+03  d E =-.193094E-03  mag=    32.0000
       N       E                     dE             d eps       ncg     rms          ort
SDA:   1    -0.334822544148E+03    0.64087E-01    0.00000E+00  7696   0.338E+01 0.000E+00
CGA:   2    -0.334855589001E+03   -0.33045E-01   -0.30900E-01  7696   0.132E+00 0.175E+00
CGA:   3    -0.334859125927E+03   -0.35369E-02   -0.35375E-02  7696   0.156E+00-0.221E-02
CGA:   4    -0.334869029631E+03   -0.99037E-02   -0.98168E-02  7696   0.472E+00 0.248E-02
CGA:   5    -0.334878591543E+03   -0.95619E-02   -0.95559E-02  7696   0.109E+00-0.115E-03
CGA:   6    -0.334880723922E+03   -0.21324E-02   -0.21278E-02  7696   0.538E-01-0.764E-04
CGA:   7    -0.334882608666E+03   -0.18847E-02   -0.18748E-02  7696   0.687E-01 0.888E-03
CGA:   8    -0.334883951225E+03   -0.13426E-02   -0.13463E-02  7696   0.300E-01 0.494E-04
CGA:   9    -0.334885429056E+03   -0.14778E-02   -0.15024E-02  7696   0.158E-01-0.103E-02
CGA:  10    -0.334885691955E+03   -0.26290E-03   -0.26319E-03  7696   0.108E-01 0.603E-06
CGA:  11    -0.334886169497E+03   -0.47754E-03   -0.47706E-03  7696   0.126E-01 0.260E-04
CGA:  12    -0.334886484765E+03   -0.31527E-03   -0.31537E-03  7696   0.240E-02 0.156E-04
CGA:  13    -0.334886522927E+03   -0.38162E-04   -0.38155E-04  7696   0.143E-02-0.172E-06
CGA:  14    -0.334886624281E+03   -0.10135E-03   -0.10204E-03  7696   0.382E-02-0.163E-04
CGA:  15    -0.334886706245E+03   -0.81964E-04   -0.81967E-04  7696   0.676E-03-0.259E-05
CGA:  16    -0.334886725507E+03   -0.19262E-04   -0.19264E-04  7696   0.681E-03 0.272E-05
CGA:  17    -0.334886738777E+03   -0.13270E-04   -0.13278E-04  7696   0.278E-03 0.395E-06
CGA:  18    -0.334886756351E+03   -0.17574E-04   -0.17495E-04  7696   0.534E-03 0.231E-05
CGA:  19    -0.334886771811E+03   -0.15460E-04   -0.15462E-04  7696   0.213E-03 0.163E-05
CGA:  20    -0.334886774707E+03   -0.28968E-05   -0.28849E-05  7696   0.599E-04-0.380E-06
 108 F= -.33488677E+03 E0= -.33486087E+03  d E =-.137421E-03  mag=    32.0000
       N       E                     dE             d eps       ncg     rms          ort
SDA:   1    -0.333963343306E+03    0.92343E+00    0.00000E+00  7696   0.624E+01 0.000E+00
CGA:   2    -0.334070308195E+03   -0.10696E+00   -0.10099E+00  7696   0.294E+01 0.197E+00
CGA:   3    -0.334409758084E+03   -0.33945E+00   -0.33857E+00  7696   0.153E+02 0.237E-01
CGA:   4    -0.334700103736E+03   -0.29035E+00   -0.28750E+00  7696   0.139E+01 0.576E-01
CGA:   5    -0.334742945783E+03   -0.42842E-01   -0.42927E-01  7696   0.115E+01 0.740E-02
CGA:   6    -0.334812064045E+03   -0.69118E-01   -0.69251E-01  7696   0.171E+01-0.496E-02
CGA:   7    -0.334842278754E+03   -0.30215E-01   -0.31016E-01  7696   0.580E+00-0.206E-01
CGA:   8    -0.334859282080E+03   -0.17003E-01   -0.16922E-01  7696   0.384E+00-0.422E-02
CGA:   9    -0.334866106089E+03   -0.68240E-02   -0.64289E-02  7696   0.124E+00 0.130E-01
CGA:  10    -0.334873465778E+03   -0.73597E-02   -0.73484E-02  7696   0.265E+00 0.436E-03
CGA:  11    -0.334878177896E+03   -0.47121E-02   -0.48420E-02  7696   0.665E-01-0.305E-02
CGA:  12    -0.334879568865E+03   -0.13910E-02   -0.13938E-02  7696   0.479E-01-0.258E-04
CGA:  13    -0.334881551705E+03   -0.19828E-02   -0.19937E-02  7696   0.681E-01-0.937E-03
CGA:  14    -0.334883324859E+03   -0.17732E-02   -0.17723E-02  7696   0.248E-01-0.254E-04
CGA:  15    -0.334883732554E+03   -0.40769E-03   -0.41002E-03  7696   0.127E-01-0.683E-04
CGA:  16    -0.334884209636E+03   -0.47708E-03   -0.47531E-03  7696   0.873E-02 0.240E-03
CGA:  17    -0.334884475394E+03   -0.26576E-03   -0.26566E-03  7696   0.122E-01-0.123E-04
CGA:  18    -0.334885001025E+03   -0.52563E-03   -0.52592E-03  7696   0.716E-02-0.201E-04
CGA:  19    -0.334885091458E+03   -0.90433E-04   -0.90745E-04  7696   0.141E-02-0.111E-04
CGA:  20    -0.334885176461E+03   -0.85003E-04   -0.84877E-04  7696   0.339E-02 0.423E-05
CGA:  21    -0.334885280037E+03   -0.10358E-03   -0.10356E-03  7696   0.231E-02-0.414E-05
CGA:  22    -0.334885330795E+03   -0.50758E-04   -0.50787E-04  7696   0.123E-02 0.373E-06
CGA:  23    -0.334885366557E+03   -0.35763E-04   -0.35751E-04  7696   0.105E-02-0.204E-05
CGA:  24    -0.334885392837E+03   -0.26280E-04   -0.26261E-04  7696   0.599E-03-0.967E-06
CGA:  25    -0.334885426279E+03   -0.33442E-04   -0.33344E-04  7696   0.927E-03 0.417E-05
CGA:  26    -0.334885441682E+03   -0.15403E-04   -0.15459E-04  7696   0.221E-03 0.893E-06
CGA:  27    -0.334885449361E+03   -0.76781E-05   -0.76772E-05  7696   0.386E-03 0.192E-06
CGA:  28    -0.334885470499E+03   -0.21139E-04   -0.21203E-04  7696   0.510E-03-0.324E-05
CGA:  29    -0.334885481347E+03   -0.10847E-04   -0.10849E-04  7696   0.144E-03 0.127E-06
CGA:  30    -0.334885485392E+03   -0.40454E-05   -0.40544E-05  7696   0.152E-03 0.146E-05
 109 F= -.33488549E+03 E0= -.33485963E+03  d E =0.128932E-02  mag=    32.0000
       N       E                     dE             d eps       ncg     rms          ort
SDA:   1    -0.334785049597E+03    0.10043E+00    0.00000E+00  7696   0.344E+01 0.000E+00
CGA:   2    -0.334824186869E+03   -0.39137E-01   -0.40787E-01  7696   0.324E+00-0.102E+00
CGA:   3    -0.334833401873E+03   -0.92150E-02   -0.92306E-02  7696   0.420E+00 0.293E-02
CGA:   4    -0.334853751434E+03   -0.20350E-01   -0.20405E-01  7696   0.465E+00-0.291E-02
CGA:   5    -0.334866485871E+03   -0.12734E-01   -0.12795E-01  7696   0.227E+00 0.438E-02
CGA:   6    -0.334873493082E+03   -0.70072E-02   -0.69768E-02  7696   0.137E+00-0.857E-02
CGA:   7    -0.334875950785E+03   -0.24577E-02   -0.24529E-02  7696   0.742E-01 0.873E-04
CGA:   8    -0.334882828036E+03   -0.68773E-02   -0.68149E-02  7696   0.514E-01 0.118E-02
CGA:   9    -0.334883936247E+03   -0.11082E-02   -0.11052E-02  7696   0.139E-01 0.238E-04
CGA:  10    -0.334884837254E+03   -0.90101E-03   -0.90028E-03  7696   0.284E-01 0.230E-04
CGA:  11    -0.334885547552E+03   -0.71030E-03   -0.70997E-03  7696   0.898E-02-0.635E-05
CGA:  12    -0.334885746793E+03   -0.19924E-03   -0.19883E-03  7696   0.693E-02 0.281E-06
CGA:  13    -0.334885955838E+03   -0.20904E-03   -0.20945E-03  7696   0.280E-02 0.431E-04
CGA:  14    -0.334886109354E+03   -0.15352E-03   -0.15349E-03  7696   0.298E-02 0.118E-05
CGA:  15    -0.334886199716E+03   -0.90362E-04   -0.90379E-04  7696   0.739E-03 0.132E-05
CGA:  16    -0.334886226639E+03   -0.26924E-04   -0.26929E-04  7696   0.148E-02-0.292E-05
CGA:  17    -0.334886292936E+03   -0.66296E-04   -0.66288E-04  7696   0.123E-02 0.404E-07
CGA:  18    -0.334886314184E+03   -0.21248E-04   -0.21252E-04  7696   0.234E-03-0.164E-05
CGA:  19    -0.334886323764E+03   -0.95797E-05   -0.95918E-05  7696   0.195E-03-0.160E-05
 110 F= -.33488632E+03 E0= -.33486040E+03  d E =-.838372E-03  mag=    32.0000
       N       E                     dE             d eps       ncg     rms          ort
SDA:   1    -0.334801795129E+03    0.84519E-01    0.00000E+00  7696   0.124E+01 0.000E+00
CGA:   2    -0.334821511967E+03   -0.19717E-01   -0.20236E-01  7696   0.253E+00-0.165E-01
CGA:   3    -0.334836388253E+03   -0.14876E-01   -0.16007E-01  7696   0.633E+00-0.380E-01
CGA:   4    -0.334853652024E+03   -0.17264E-01   -0.17228E-01  7696   0.625E+00-0.345E-02
CGA:   5    -0.334869755049E+03   -0.16103E-01   -0.16476E-01  7696   0.426E+00 0.677E-02
CGA:   6    -0.334877747204E+03   -0.79922E-02   -0.79660E-02  7696   0.420E-01 0.104E-02
CGA:   7    -0.334880835071E+03   -0.30879E-02   -0.31073E-02  7696   0.134E+00-0.506E-03
CGA:   8    -0.334884310305E+03   -0.34752E-02   -0.34783E-02  7696   0.458E-01 0.413E-04
CGA:   9    -0.334885059576E+03   -0.74927E-03   -0.74764E-03  7696   0.146E-01 0.490E-04
CGA:  10    -0.334885739547E+03   -0.67997E-03   -0.68034E-03  7696   0.221E-01-0.252E-04
CGA:  11    -0.334886279817E+03   -0.54027E-03   -0.54134E-03  7696   0.448E-02 0.556E-05
CGA:  12    -0.334886460800E+03   -0.18098E-03   -0.18125E-03  7696   0.368E-02-0.321E-04
CGA:  13    -0.334886571255E+03   -0.11046E-03   -0.11035E-03  7696   0.298E-02-0.737E-05
CGA:  14    -0.334886715193E+03   -0.14394E-03   -0.14375E-03  7696   0.412E-02 0.120E-04
CGA:  15    -0.334886808424E+03   -0.93232E-04   -0.93463E-04  7696   0.776E-03 0.318E-05
CGA:  16    -0.334886820640E+03   -0.12216E-04   -0.12175E-04  7696   0.366E-03-0.773E-06
CGA:  17    -0.334886862614E+03   -0.41974E-04   -0.42602E-04  7696   0.784E-03-0.785E-05
CGA:  18    -0.334886876540E+03   -0.13926E-04   -0.13916E-04  7696   0.224E-03-0.101E-05
CGA:  19    -0.334886885738E+03   -0.91985E-05   -0.91921E-05  7696   0.148E-03 0.123E-05
 111 F= -.33488689E+03 E0= -.33486094E+03  d E =-.561975E-03  mag=    32.0000
       N       E                     dE             d eps       ncg     rms          ort
SDA:   1    -0.334658138707E+03    0.22874E+00    0.00000E+00  7696   0.124E+01 0.000E+00
CGA:   2    -0.334687772664E+03   -0.29634E-01   -0.29421E-01  7696   0.122E+01 0.224E-02
CGA:   3    -0.334747065245E+03   -0.59293E-01   -0.58619E-01  7696   0.198E+01 0.401E-01
CGA:   4    -0.334800672910E+03   -0.53608E-01   -0.54537E-01  7696   0.108E+01 0.109E-01
CGA:   5    -0.334846533787E+03   -0.45861E-01   -0.47709E-01  7696   0.745E+00-0.173E+00
CGA:   6    -0.334857599343E+03   -0.11066E-01   -0.11108E-01  7696   0.203E+00-0.636E-03
CGA:   7    -0.334864709742E+03   -0.71104E-02   -0.71123E-02  7696   0.338E+00 0.130E-02
CGA:   8    -0.334876914520E+03   -0.12205E-01   -0.12204E-01  7696   0.105E+00 0.355E-02
CGA:   9    -0.334880530690E+03   -0.36162E-02   -0.36143E-02  7696   0.999E-01-0.523E-03
CGA:  10    -0.334882734176E+03   -0.22035E-02   -0.21620E-02  7696   0.524E-01 0.432E-03
CGA:  11    -0.334883816085E+03   -0.10819E-02   -0.10794E-02  7696   0.232E-01 0.319E-04
CGA:  12    -0.334885090108E+03   -0.12740E-02   -0.12682E-02  7696   0.224E-01 0.245E-03
CGA:  13    -0.334885464279E+03   -0.37417E-03   -0.37650E-03  7696   0.845E-02-0.769E-04
CGA:  14    -0.334885772722E+03   -0.30844E-03   -0.30840E-03  7696   0.127E-01 0.130E-04
CGA:  15    -0.334886128747E+03   -0.35603E-03   -0.35481E-03  7696   0.475E-02-0.509E-04
CGA:  16    -0.334886305895E+03   -0.17715E-03   -0.17709E-03  7696   0.442E-02 0.132E-04
CGA:  17    -0.334886414101E+03   -0.10821E-03   -0.10861E-03  7696   0.214E-02 0.868E-05
CGA:  18    -0.334886452977E+03   -0.38877E-04   -0.38808E-04  7696   0.117E-02-0.490E-06
CGA:  19    -0.334886553020E+03   -0.10004E-03   -0.10113E-03  7696   0.113E-02-0.220E-04
CGA:  20    -0.334886580172E+03   -0.27152E-04   -0.27173E-04  7696   0.816E-03 0.255E-06
CGA:  21    -0.334886602759E+03   -0.22588E-04   -0.22598E-04  7696   0.454E-03-0.298E-07
CGA:  22    -0.334886611448E+03   -0.86888E-05   -0.86943E-05  7696   0.216E-03 0.273E-06
CGA:  23    -0.334886625443E+03   -0.13995E-04   -0.13980E-04  7696   0.484E-03 0.449E-06
CGA:  24    -0.334886642844E+03   -0.17402E-04   -0.17402E-04  7696   0.151E-03-0.901E-06
CGA:  25    -0.334886647906E+03   -0.50617E-05   -0.50640E-05  7696   0.184E-03 0.104E-05
 112 F= -.33488665E+03 E0= -.33486074E+03  d E =0.237832E-03  mag=    32.0000
       N       E                     dE             d eps       ncg     rms          ort
SDA:   1    -0.334736064188E+03    0.15058E+00    0.00000E+00  7696   0.100E+02 0.000E+00
CGA:   2    -0.334822930640E+03   -0.86866E-01   -0.10390E+00  7696   0.624E+00-0.122E+01
CGA:   3    -0.334832477620E+03   -0.95470E-02   -0.93689E-02  7696   0.191E+00 0.468E-02
CGA:   4    -0.334853098397E+03   -0.20621E-01   -0.20404E-01  7696   0.891E+00 0.347E-02
CGA:   5    -0.334872839877E+03   -0.19741E-01   -0.19549E-01  7696   0.140E+00 0.248E-02
CGA:   6    -0.334876822773E+03   -0.39829E-02   -0.40149E-02  7696   0.107E+00 0.125E-02
CGA:   7    -0.334879553314E+03   -0.27305E-02   -0.27349E-02  7696   0.670E-01 0.507E-04
CGA:   8    -0.334882613701E+03   -0.30604E-02   -0.30511E-02  7696   0.907E-01 0.627E-03
CGA:   9    -0.334884891380E+03   -0.22777E-02   -0.22633E-02  7696   0.240E-01-0.129E-03
CGA:  10    -0.334885328063E+03   -0.43668E-03   -0.43715E-03  7696   0.908E-02-0.807E-05
CGA:  11    -0.334885881657E+03   -0.55359E-03   -0.55459E-03  7696   0.199E-01-0.342E-04
CGA:  12    -0.334886307795E+03   -0.42614E-03   -0.42668E-03  7696   0.299E-02 0.797E-05
CGA:  13    -0.334886389309E+03   -0.81514E-04   -0.81452E-04  7696   0.358E-02-0.296E-05
CGA:  14    -0.334886583729E+03   -0.19442E-03   -0.19431E-03  7696   0.279E-02 0.506E-05
CGA:  15    -0.334886633850E+03   -0.50120E-04   -0.50065E-04  7696   0.874E-03-0.146E-05
CGA:  16    -0.334886663293E+03   -0.29444E-04   -0.29444E-04  7696   0.857E-03-0.312E-07
CGA:  17    -0.334886694616E+03   -0.31323E-04   -0.31329E-04  7696   0.888E-03-0.183E-05
CGA:  18    -0.334886725100E+03   -0.30483E-04   -0.30483E-04  7696   0.757E-03 0.268E-05
CGA:  19    -0.334886741991E+03   -0.16891E-04   -0.16900E-04  7696   0.143E-03 0.791E-06
CGA:  20    -0.334886745168E+03   -0.31775E-05   -0.31858E-05  7696   0.119E-03 0.635E-06
CGA:  21    -0.334886756320E+03   -0.11151E-04   -0.11182E-04  7696   0.359E-03-0.517E-06
CGA:  22    -0.334886763422E+03   -0.71026E-05   -0.71122E-05  7696   0.533E-04 0.395E-06
 113 F= -.33488676E+03 E0= -.33486087E+03  d E =-.115516E-03  mag=    32.0000
