       N       E                     dE             d eps       ncg     rms          ort
DAV:   1     0.699839223323E+04    0.69984E+04   -0.30488E+05  9152   0.168E+03
DAV:   2     0.483170687862E+03   -0.65152E+04   -0.60526E+04  9152   0.482E+02
DAV:   3    -0.384161731109E+03   -0.86733E+03   -0.85312E+03  9152   0.188E+02
DAV:   4    -0.422257982146E+03   -0.38096E+02   -0.37643E+02  9152   0.372E+01
DAV:   5    -0.424877837926E+03   -0.26199E+01   -0.26043E+01  9152   0.689E+00
SDA:   6    -0.277590544805E+03    0.14729E+03   -0.26043E+01  9152   0.869E+03 0.000E+00
CGA:   7    -0.358031952420E+03   -0.80441E+02   -0.94292E+02  9152   0.281E+03-0.490E+02
CGA:   8    -0.366735624980E+03   -0.87037E+01   -0.22012E+02  9152   0.867E+02-0.622E+02
CGA:   9    -0.371693389488E+03   -0.49578E+01   -0.37724E+01  9152   0.545E+02-0.174E+02
CGA:  10    -0.374752532882E+03   -0.30591E+01   -0.23617E+01  9152   0.391E+02 0.523E+01
CGA:  11    -0.374533597690E+03    0.21894E+00   -0.23987E+01  9152   0.459E+02-0.181E+02
CGA:  12    -0.375835603194E+03   -0.13020E+01   -0.58206E+00  9152   0.617E+02 0.512E+02
CGA:  13    -0.374885539406E+03    0.95006E+00   -0.23509E+01  9152   0.146E+03-0.692E+02
CGA:  14    -0.373747144758E+03    0.11384E+01   -0.10339E+02  9152   0.522E+02-0.216E+02
CGA:  15    -0.376629875592E+03   -0.28827E+01   -0.14579E+01  9152   0.369E+02 0.304E+02
CGA:  16    -0.378502443835E+03   -0.18726E+01   -0.89921E+00  9152   0.363E+01 0.833E+01
CGA:  17    -0.378636389042E+03   -0.13395E+00   -0.17087E+00  9152   0.722E+01-0.559E+00
CGA:  18    -0.378901899494E+03   -0.26551E+00   -0.22809E+00  9152   0.100E+02 0.115E+01
CGA:  19    -0.379231286013E+03   -0.32939E+00   -0.28507E+00  9152   0.659E+01 0.752E-01
CGA:  20    -0.379389544689E+03   -0.15826E+00   -0.94536E-01  9152   0.712E+01 0.452E+01
CGA:  21    -0.379636676603E+03   -0.24713E+00   -0.27332E+00  9152   0.247E+01-0.650E+00
CGA:  22    -0.379816392718E+03   -0.17972E+00   -0.20107E+00  9152   0.201E+01 0.216E+00
CGA:  23    -0.380129620063E+03   -0.31323E+00   -0.30121E+00  9152   0.244E+01 0.323E+00
CGA:  24    -0.380366904323E+03   -0.23728E+00   -0.24514E+00  9152   0.116E+01 0.573E-01
CGA:  25    -0.380467461553E+03   -0.10056E+00   -0.10374E+00  9152   0.636E+00 0.273E-01
CGA:  26    -0.380515947492E+03   -0.48486E-01   -0.51722E-01  9152   0.146E+00 0.117E-01
CGA:  27    -0.380531130595E+03   -0.15183E-01   -0.15317E-01  9152   0.716E-01 0.742E-02
CGA:  28    -0.380541811970E+03   -0.10681E-01   -0.10444E-01  9152   0.406E-01 0.574E-02
CGA:  29    -0.380547698232E+03   -0.58863E-02   -0.58064E-02  9152   0.306E-01 0.249E-02
CGA:  30    -0.380551695731E+03   -0.39975E-02   -0.39754E-02  9152   0.151E-01 0.133E-02
CGA:  31    -0.380553912132E+03   -0.22164E-02   -0.21965E-02  9152   0.870E-02 0.499E-03
CGA:  32    -0.380555435757E+03   -0.15236E-02   -0.14944E-02  9152   0.518E-02 0.435E-03
CGA:  33    -0.380556380862E+03   -0.94510E-03   -0.93567E-03  9152   0.389E-02 0.125E-03
CGA:  34    -0.380556968316E+03   -0.58745E-03   -0.58614E-03  9152   0.257E-02 0.104E-04
CGA:  35    -0.380557453639E+03   -0.48532E-03   -0.48819E-03  9152   0.174E-02-0.498E-04
CGA:  36    -0.380557728237E+03   -0.27460E-03   -0.27594E-03  9152   0.899E-03-0.449E-04
CGA:  37    -0.380557897652E+03   -0.16942E-03   -0.17160E-03  9152   0.670E-03-0.341E-04
CGA:  38    -0.380557996408E+03   -0.98756E-04   -0.99182E-04  9152   0.400E-03-0.204E-04
CGA:  39    -0.380558077097E+03   -0.80689E-04   -0.81695E-04  9152   0.283E-03-0.129E-04
CGA:  40    -0.380558126692E+03   -0.49595E-04   -0.49463E-04  9152   0.178E-03 0.247E-05
CGA:  41    -0.380558162362E+03   -0.35671E-04   -0.35120E-04  9152   0.127E-03 0.933E-05
CGA:  42    -0.380558183885E+03   -0.21523E-04   -0.21325E-04  9152   0.809E-04 0.101E-04
CGA:  43    -0.380558202613E+03   -0.18728E-04   -0.18038E-04  9152   0.478E-04 0.106E-04
CGA:  44    -0.380558213662E+03   -0.11049E-04   -0.10718E-04  9152   0.405E-04 0.612E-05
CGA:  45    -0.380558222678E+03   -0.90154E-05   -0.88077E-05  9152   0.294E-04 0.455E-05
   1 F= -.38055822E+03 E0= -.38055772E+03  d E =-.380558E+03  mag=    58.0000
       N       E                     dE             d eps       ncg     rms          ort
SDA:   1    -0.380559791490E+03   -0.15778E-02    0.00000E+00  9152   0.791E-02 0.000E+00
CGA:   2    -0.380560585351E+03   -0.79386E-03   -0.79551E-03  9152   0.366E-02-0.258E-05
CGA:   3    -0.380561186959E+03   -0.60161E-03   -0.60165E-03  9152   0.144E-02-0.319E-05
CGA:   4    -0.380561416682E+03   -0.22972E-03   -0.22970E-03  9152   0.563E-03 0.199E-05
CGA:   5    -0.380561488905E+03   -0.72222E-04   -0.72239E-04  9152   0.148E-03 0.720E-06
CGA:   6    -0.380561514074E+03   -0.25169E-04   -0.25179E-04  9152   0.459E-04-0.447E-06
CGA:   7    -0.380561521353E+03   -0.72794E-05   -0.72805E-05  9152   0.299E-04-0.139E-06
   2 F= -.38056152E+03 E0= -.38056102E+03  d E =-.329868E-02  mag=    58.0000
       N       E                     dE             d eps       ncg     rms          ort
SDA:   1    -0.379737050686E+03    0.82446E+00    0.00000E+00  9152   0.277E+01 0.000E+00
CGA:   2    -0.380274385793E+03   -0.53734E+00   -0.53714E+00  9152   0.140E+01 0.334E-02
CGA:   3    -0.380495552509E+03   -0.22117E+00   -0.22113E+00  9152   0.739E+00 0.336E-02
CGA:   4    -0.380580315610E+03   -0.84763E-01   -0.84491E-01  9152   0.214E+00-0.121E-02
CGA:   5    -0.380611436084E+03   -0.31120E-01   -0.31120E-01  9152   0.521E-01-0.245E-04
CGA:   6    -0.380619780042E+03   -0.83440E-02   -0.83440E-02  9152   0.200E-01-0.544E-06
CGA:   7    -0.380622326138E+03   -0.25461E-02   -0.25464E-02  9152   0.797E-02 0.709E-05
CGA:   8    -0.380623585291E+03   -0.12592E-02   -0.12591E-02  9152   0.314E-02 0.366E-05
CGA:   9    -0.380624093658E+03   -0.50837E-03   -0.50827E-03  9152   0.182E-02 0.521E-05
CGA:  10    -0.380624386644E+03   -0.29299E-03   -0.29303E-03  9152   0.776E-03-0.292E-05
CGA:  11    -0.380624556912E+03   -0.17027E-03   -0.17021E-03  9152   0.602E-03 0.780E-06
CGA:  12    -0.380624644704E+03   -0.87792E-04   -0.87796E-04  9152   0.344E-03 0.438E-06
CGA:  13    -0.380624719624E+03   -0.74920E-04   -0.74807E-04  9152   0.183E-03 0.179E-05
CGA:  14    -0.380624752483E+03   -0.32859E-04   -0.32845E-04  9152   0.134E-03 0.652E-06
CGA:  15    -0.380624774977E+03   -0.22494E-04   -0.22489E-04  9152   0.597E-04 0.555E-06
CGA:  16    -0.380624786576E+03   -0.11599E-04   -0.11603E-04  9152   0.497E-04-0.109E-06
CGA:  17    -0.380624794840E+03   -0.82637E-05   -0.82628E-05  9152   0.216E-04 0.119E-06
   3 F= -.38062479E+03 E0= -.38062444E+03  d E =-.632735E-01  mag=    58.0000
       N       E                     dE             d eps       ncg     rms          ort
SDA:   1    -0.378991168189E+03    0.16336E+01    0.00000E+00  9152   0.535E+01 0.000E+00
CGA:   2    -0.379964722152E+03   -0.97355E+00   -0.97383E+00  9152   0.322E+01-0.861E-02
CGA:   3    -0.380366949459E+03   -0.40223E+00   -0.40494E+00  9152   0.153E+01 0.109E-01
CGA:   4    -0.380579677173E+03   -0.21273E+00   -0.21235E+00  9152   0.381E+00-0.449E-02
CGA:   5    -0.380639616344E+03   -0.59939E-01   -0.59939E-01  9152   0.110E+00 0.263E-04
CGA:   6    -0.380654244438E+03   -0.14628E-01   -0.14628E-01  9152   0.456E-01-0.513E-05
CGA:   7    -0.380660337347E+03   -0.60929E-02   -0.60939E-02  9152   0.141E-01 0.139E-04
CGA:   8    -0.380662692038E+03   -0.23547E-02   -0.23547E-02  9152   0.771E-02 0.924E-06
CGA:   9    -0.380663742066E+03   -0.10500E-02   -0.10511E-02  9152   0.328E-02 0.179E-04
CGA:  10    -0.380664437249E+03   -0.69518E-03   -0.69545E-03  9152   0.166E-02-0.414E-05
CGA:  11    -0.380664739898E+03   -0.30265E-03   -0.30258E-03  9152   0.146E-02 0.216E-05
CGA:  12    -0.380664979608E+03   -0.23971E-03   -0.23971E-03  9152   0.666E-03 0.299E-06
CGA:  13    -0.380665126297E+03   -0.14669E-03   -0.14653E-03  9152   0.526E-03 0.273E-05
CGA:  14    -0.380665204920E+03   -0.78623E-04   -0.78650E-04  9152   0.237E-03 0.164E-05
CGA:  15    -0.380665257110E+03   -0.52191E-04   -0.52111E-04  9152   0.160E-03 0.146E-05
CGA:  16    -0.380665280012E+03   -0.22901E-04   -0.22900E-04  9152   0.925E-04-0.982E-08
CGA:  17    -0.380665300662E+03   -0.20650E-04   -0.20648E-04  9152   0.509E-04 0.227E-07
CGA:  18    -0.380665309698E+03   -0.90361E-05   -0.90399E-05  9152   0.374E-04-0.424E-06
   4 F= -.38066531E+03 E0= -.38066512E+03  d E =-.405149E-01  mag=    58.0000
       N       E                     dE             d eps       ncg     rms          ort
SDA:   1    -0.380427447561E+03    0.23785E+00    0.00000E+00  9152   0.718E+00 0.000E+00
CGA:   2    -0.380588101056E+03   -0.16065E+00   -0.16065E+00  9152   0.334E+00 0.291E-04
CGA:   3    -0.380644078556E+03   -0.55977E-01   -0.55978E-01  9152   0.153E+00 0.184E-04
CGA:   4    -0.380661645260E+03   -0.17567E-01   -0.17555E-01  9152   0.475E-01-0.128E-04
CGA:   5    -0.380667654417E+03   -0.60092E-02   -0.60110E-02  9152   0.124E-01 0.431E-05
CGA:   6    -0.380669488334E+03   -0.18339E-02   -0.18330E-02  9152   0.499E-02-0.182E-04
CGA:   7    -0.380670147437E+03   -0.65910E-03   -0.65994E-03  9152   0.163E-02 0.833E-05
CGA:   8    -0.380670458016E+03   -0.31058E-03   -0.31063E-03  9152   0.770E-03-0.112E-05
CGA:   9    -0.380670579644E+03   -0.12163E-03   -0.12163E-03  9152   0.554E-03 0.323E-06
CGA:  10    -0.380670670732E+03   -0.91088E-04   -0.91087E-04  9152   0.271E-03-0.107E-05
CGA:  11    -0.380670736815E+03   -0.66083E-04   -0.66113E-04  9152   0.234E-03-0.379E-06
CGA:  12    -0.380670773920E+03   -0.37105E-04   -0.37106E-04  9152   0.127E-03 0.698E-07
CGA:  13    -0.380670800481E+03   -0.26561E-04   -0.26519E-04  9152   0.757E-04 0.106E-05
CGA:  14    -0.380670811139E+03   -0.10658E-04   -0.10674E-04  9152   0.431E-04 0.541E-06
CGA:  15    -0.380670819647E+03   -0.85084E-05   -0.84867E-05  9152   0.188E-04 0.816E-06
   5 F= -.38067082E+03 E0= -.38067067E+03  d E =-.550995E-02  mag=    58.0000
       N       E                     dE             d eps       ncg     rms          ort
SDA:   1    -0.380465942747E+03    0.20487E+00    0.00000E+00  9152   0.623E+00 0.000E+00
CGA:   2    -0.380592023520E+03   -0.12608E+00   -0.12610E+00  9152   0.436E+00-0.440E-03
CGA:   3    -0.380640348398E+03   -0.48325E-01   -0.48489E-01  9152   0.172E+00-0.268E-03
CGA:   4    -0.380666377881E+03   -0.26029E-01   -0.26023E-01  9152   0.357E-01-0.113E-03
CGA:   5    -0.380672125837E+03   -0.57480E-02   -0.57481E-02  9152   0.994E-02 0.111E-05
CGA:   6    -0.380673459824E+03   -0.13340E-02   -0.13329E-02  9152   0.485E-02-0.907E-05
CGA:   7    -0.380674071373E+03   -0.61155E-03   -0.61199E-03  9152   0.128E-02 0.467E-05
CGA:   8    -0.380674327251E+03   -0.25588E-03   -0.25583E-03  9152   0.675E-03 0.134E-05
CGA:   9    -0.380674424201E+03   -0.96950E-04   -0.96955E-04  9152   0.410E-03 0.294E-07
CGA:  10    -0.380674506862E+03   -0.82661E-04   -0.82708E-04  9152   0.222E-03-0.132E-05
CGA:  11    -0.380674555589E+03   -0.48728E-04   -0.48733E-04  9152   0.234E-03-0.132E-06
CGA:  12    -0.380674590330E+03   -0.34741E-04   -0.34732E-04  9152   0.944E-04-0.316E-06
CGA:  13    -0.380674613706E+03   -0.23375E-04   -0.23303E-04  9152   0.592E-04 0.922E-06
CGA:  14    -0.380674621659E+03   -0.79536E-05   -0.79687E-05  9152   0.329E-04 0.390E-06
   6 F= -.38067462E+03 E0= -.38067449E+03  d E =-.380201E-02  mag=    58.0000
       N       E                     dE             d eps       ncg     rms          ort
SDA:   1    -0.380464937257E+03    0.20968E+00    0.00000E+00  9152   0.584E+00 0.000E+00
CGA:   2    -0.380609914956E+03   -0.14498E+00   -0.14498E+00  9152   0.279E+00 0.126E-05
CGA:   3    -0.380658645167E+03   -0.48730E-01   -0.48730E-01  9152   0.102E+00-0.444E-04
CGA:   4    -0.380671371619E+03   -0.12726E-01   -0.12723E-01  9152   0.292E-01-0.724E-05
CGA:   5    -0.380675018800E+03   -0.36472E-02   -0.36482E-02  9152   0.869E-02-0.482E-05
CGA:   6    -0.380676253170E+03   -0.12344E-02   -0.12340E-02  9152   0.365E-02-0.536E-05
CGA:   7    -0.380676700013E+03   -0.44684E-03   -0.44752E-03  9152   0.118E-02 0.417E-05
CGA:   8    -0.380676919315E+03   -0.21930E-03   -0.21931E-03  9152   0.453E-03 0.119E-06
CGA:   9    -0.380677010471E+03   -0.91156E-04   -0.91132E-04  9152   0.323E-03 0.531E-06
CGA:  10    -0.380677063911E+03   -0.53439E-04   -0.53432E-04  9152   0.206E-03-0.117E-05
CGA:  11    -0.380677107106E+03   -0.43195E-04   -0.43203E-04  9152   0.167E-03-0.217E-06
CGA:  12    -0.380677132204E+03   -0.25099E-04   -0.25094E-04  9152   0.893E-04-0.224E-06
CGA:  13    -0.380677151276E+03   -0.19072E-04   -0.19052E-04  9152   0.409E-04 0.449E-06
CGA:  14    -0.380677158664E+03   -0.73884E-05   -0.73856E-05  9152   0.268E-04 0.409E-06
   7 F= -.38067716E+03 E0= -.38067703E+03  d E =-.253701E-02  mag=    58.0000
       N       E                     dE             d eps       ncg     rms          ort
SDA:   1    -0.379918088449E+03    0.75906E+00    0.00000E+00  9152   0.200E+01 0.000E+00
CGA:   2    -0.380440053011E+03   -0.52196E+00   -0.52196E+00  9152   0.122E+01 0.163E-03
CGA:   3    -0.380594952084E+03   -0.15490E+00   -0.15517E+00  9152   0.498E+00-0.295E-03
CGA:   4    -0.380655571173E+03   -0.60619E-01   -0.60504E-01  9152   0.119E+00-0.172E-03
CGA:   5    -0.380671178672E+03   -0.15607E-01   -0.15638E-01  9152   0.387E-01 0.144E-03
CGA:   6    -0.380676112967E+03   -0.49343E-02   -0.49102E-02  9152   0.130E-01-0.924E-04
CGA:   7    -0.380678214315E+03   -0.21013E-02   -0.21017E-02  9152   0.349E-02 0.299E-04
CGA:   8    -0.380678825370E+03   -0.61106E-03   -0.61111E-03  9152   0.200E-02-0.387E-05
CGA:   9    -0.380679078704E+03   -0.25333E-03   -0.25355E-03  9152   0.865E-03 0.237E-05
CGA:  10    -0.380679264596E+03   -0.18589E-03   -0.18592E-03  9152   0.600E-03-0.529E-06
CGA:  11    -0.380679367430E+03   -0.10283E-03   -0.10283E-03  9152   0.431E-03-0.328E-06
CGA:  12    -0.380679462894E+03   -0.95464E-04   -0.95513E-04  9152   0.224E-03-0.901E-06
CGA:  13    -0.380679504327E+03   -0.41433E-04   -0.41422E-04  9152   0.185E-03 0.737E-06
CGA:  14    -0.380679530855E+03   -0.26529E-04   -0.26542E-04  9152   0.657E-04 0.484E-06
CGA:  15    -0.380679544101E+03   -0.13246E-04   -0.13224E-04  9152   0.474E-04 0.720E-06
CGA:  16    -0.380679551745E+03   -0.76437E-05   -0.76419E-05  9152   0.217E-04-0.130E-06
   8 F= -.38067955E+03 E0= -.38067941E+03  d E =-.239308E-02  mag=    58.0000
       N       E                     dE             d eps       ncg     rms          ort
SDA:   1    -0.372167854385E+03    0.85117E+01    0.00000E+00  9152   0.221E+02 0.000E+00
CGA:   2    -0.378124901443E+03   -0.59570E+01   -0.59543E+01  9152   0.120E+02 0.286E-01
CGA:   3    -0.379910822397E+03   -0.17859E+01   -0.17896E+01  9152   0.445E+01 0.225E-01
CGA:   4    -0.380427222198E+03   -0.51640E+00   -0.50902E+00  9152   0.128E+01-0.577E-02
CGA:   5    -0.380591597965E+03   -0.16438E+00   -0.16471E+00  9152   0.359E+00 0.824E-03
CGA:   6    -0.380641640063E+03   -0.50042E-01   -0.49679E-01  9152   0.147E+00-0.264E-02
CGA:   7    -0.380661386816E+03   -0.19747E-01   -0.19848E-01  9152   0.405E-01 0.715E-03
CGA:   8    -0.380668829862E+03   -0.74430E-02   -0.74468E-02  9152   0.169E-01-0.149E-03
CGA:   9    -0.380671182857E+03   -0.23530E-02   -0.23563E-02  9152   0.102E-01 0.399E-04
CGA:  10    -0.380672921423E+03   -0.17386E-02   -0.17386E-02  9152   0.482E-02 0.869E-06
CGA:  11    -0.380673909438E+03   -0.98802E-03   -0.98755E-03  9152   0.405E-02 0.933E-05
CGA:  12    -0.380674592534E+03   -0.68310E-03   -0.68309E-03  9152   0.188E-02-0.685E-06
CGA:  13    -0.380675001771E+03   -0.40924E-03   -0.40902E-03  9152   0.136E-02 0.392E-05
CGA:  14    -0.380675178420E+03   -0.17665E-03   -0.17666E-03  9152   0.621E-03 0.940E-06
CGA:  15    -0.380675308249E+03   -0.12983E-03   -0.12970E-03  9152   0.349E-03 0.319E-05
CGA:  16    -0.380675367318E+03   -0.59069E-04   -0.59065E-04  9152   0.236E-03-0.747E-06
CGA:  17    -0.380675418338E+03   -0.51020E-04   -0.51039E-04  9152   0.139E-03-0.514E-06
CGA:  18    -0.380675442736E+03   -0.24399E-04   -0.24400E-04  9152   0.115E-03-0.877E-06
CGA:  19    -0.380675463082E+03   -0.20346E-04   -0.20346E-04  9152   0.491E-04-0.227E-06
CGA:  20    -0.380675472491E+03   -0.94093E-05   -0.94168E-05  9152   0.361E-04-0.442E-06
   9 F= -.38067547E+03 E0= -.38067533E+03  d E =0.407925E-02  mag=    58.0000
       N       E                     dE             d eps       ncg     rms          ort
SDA:   1    -0.379428388718E+03    0.12471E+01    0.00000E+00  9152   0.325E+01 0.000E+00
CGA:   2    -0.380282360494E+03   -0.85397E+00   -0.85342E+00  9152   0.200E+01 0.536E-02
CGA:   3    -0.380546431369E+03   -0.26407E+00   -0.26260E+00  9152   0.852E+00-0.529E-02
CGA:   4    -0.380639489159E+03   -0.93058E-01   -0.93340E-01  9152   0.196E+00-0.584E-03
CGA:   5    -0.380668592266E+03   -0.29103E-01   -0.29080E-01  9152   0.502E-01-0.296E-03
CGA:   6    -0.380676181036E+03   -0.75888E-02   -0.75966E-02  9152   0.218E-01 0.134E-03
CGA:   7    -0.380678846060E+03   -0.26650E-02   -0.26565E-02  9152   0.685E-02-0.206E-04
CGA:   8    -0.380679963080E+03   -0.11170E-02   -0.11171E-02  9152   0.261E-02 0.659E-05
CGA:   9    -0.380680318175E+03   -0.35510E-03   -0.35509E-03  9152   0.136E-02 0.113E-05
CGA:  10    -0.380680559114E+03   -0.24094E-03   -0.24091E-03  9152   0.561E-03 0.295E-05
CGA:  11    -0.380680683149E+03   -0.12403E-03   -0.12403E-03  9152   0.511E-03 0.747E-07
CGA:  12    -0.380680754540E+03   -0.71390E-04   -0.71405E-04  9152   0.235E-03 0.260E-06
CGA:  13    -0.380680807313E+03   -0.52774E-04   -0.52821E-04  9152   0.150E-03-0.832E-06
CGA:  14    -0.380680828109E+03   -0.20796E-04   -0.20809E-04  9152   0.766E-04 0.297E-06
CGA:  15    -0.380680843907E+03   -0.15798E-04   -0.15795E-04  9152   0.373E-04 0.912E-07
CGA:  16    -0.380680850032E+03   -0.61250E-05   -0.61259E-05  9152   0.304E-04 0.127E-06
  10 F= -.38068085E+03 E0= -.38068069E+03  d E =-.537754E-02  mag=    58.0000
       N       E                     dE             d eps       ncg     rms          ort
SDA:   1    -0.379244444958E+03    0.14364E+01    0.00000E+00  9152   0.373E+01 0.000E+00
CGA:   2    -0.380235619780E+03   -0.99117E+00   -0.99089E+00  9152   0.209E+01 0.282E-02
CGA:   3    -0.380559783988E+03   -0.32416E+00   -0.32422E+00  9152   0.693E+00 0.938E-03
CGA:   4    -0.380647110704E+03   -0.87327E-01   -0.87104E-01  9152   0.181E+00-0.387E-03
CGA:   5    -0.380672332593E+03   -0.25222E-01   -0.25217E-01  9152   0.493E-01-0.360E-04
CGA:   6    -0.380679981610E+03   -0.76490E-02   -0.76498E-02  9152   0.210E-01 0.165E-04
CGA:   7    -0.380682387749E+03   -0.24061E-02   -0.24022E-02  9152   0.774E-02-0.560E-05
CGA:   8    -0.380683570463E+03   -0.11827E-02   -0.11831E-02  9152   0.251E-02 0.120E-04
CGA:   9    -0.380684003181E+03   -0.43272E-03   -0.43275E-03  9152   0.145E-02-0.286E-05
CGA:  10    -0.380684253017E+03   -0.24984E-03   -0.24980E-03  9152   0.695E-03 0.498E-05
CGA:  11    -0.380684415502E+03   -0.16248E-03   -0.16258E-03  9152   0.568E-03-0.109E-05
CGA:  12    -0.380684495024E+03   -0.79522E-04   -0.79554E-04  9152   0.328E-03 0.615E-06
CGA:  13    -0.380684558725E+03   -0.63701E-04   -0.63714E-04  9152   0.182E-03-0.486E-06
CGA:  14    -0.380684586635E+03   -0.27910E-04   -0.27915E-04  9152   0.948E-04 0.286E-06
CGA:  15    -0.380684606243E+03   -0.19608E-04   -0.19601E-04  9152   0.434E-04 0.202E-06
CGA:  16    -0.380684615008E+03   -0.87648E-05   -0.87616E-05  9152   0.381E-04 0.105E-06
  11 F= -.38068462E+03 E0= -.38068444E+03  d E =-.376498E-02  mag=    58.0000
       N       E                     dE             d eps       ncg     rms          ort
SDA:   1    -0.312691959844E+03    0.67993E+02    0.00000E+00  9152   0.178E+03 0.000E+00
CGA:   2    -0.360389064061E+03   -0.47697E+02   -0.47900E+02  9152   0.107E+03-0.149E+01
CGA:   3    -0.374008634606E+03   -0.13620E+02   -0.14459E+02  9152   0.336E+02 0.539E+01
CGA:   4    -0.378622545591E+03   -0.46139E+01   -0.40418E+01  9152   0.874E+01 0.164E+01
CGA:   5    -0.379915122388E+03   -0.12926E+01   -0.12956E+01  9152   0.303E+01 0.154E-01
CGA:   6    -0.380324476614E+03   -0.40935E+00   -0.40862E+00  9152   0.116E+01-0.427E-02
CGA:   7    -0.380502288112E+03   -0.17781E+00   -0.17742E+00  9152   0.352E+00-0.920E-02
CGA:   8    -0.380557672961E+03   -0.55385E-01   -0.55528E-01  9152   0.192E+00 0.701E-02
CGA:   9    -0.380580934504E+03   -0.23262E-01   -0.23128E-01  9152   0.842E-01-0.159E-03
CGA:  10    -0.380596831657E+03   -0.15897E-01   -0.15884E-01  9152   0.511E-01 0.374E-03
CGA:  11    -0.380605679806E+03   -0.88481E-02   -0.88472E-02  9152   0.306E-01 0.104E-03
CGA:  12    -0.380612575198E+03   -0.68954E-02   -0.68929E-02  9152   0.149E-01 0.347E-04
CGA:  13    -0.380615749760E+03   -0.31746E-02   -0.31703E-02  9152   0.979E-02 0.754E-04
CGA:  14    -0.380617451159E+03   -0.17014E-02   -0.17014E-02  9152   0.428E-02 0.126E-04
CGA:  15    -0.380618483972E+03   -0.10328E-02   -0.10312E-02  9152   0.276E-02 0.224E-04
CGA:  16    -0.380619009925E+03   -0.52595E-03   -0.52580E-03  9152   0.219E-02 0.780E-05
CGA:  17    -0.380619429440E+03   -0.41952E-03   -0.41958E-03  9152   0.149E-02-0.485E-05
CGA:  18    -0.380619653093E+03   -0.22365E-03   -0.22367E-03  9152   0.875E-03-0.245E-05
CGA:  19    -0.380619834352E+03   -0.18126E-03   -0.18157E-03  9152   0.416E-03-0.858E-05
CGA:  20    -0.380619909698E+03   -0.75347E-04   -0.75358E-04  9152   0.232E-03-0.237E-05
CGA:  21    -0.380619955229E+03   -0.45530E-04   -0.45613E-04  9152   0.100E-03-0.381E-05
CGA:  22    -0.380619973842E+03   -0.18614E-04   -0.18633E-04  9152   0.734E-04-0.185E-05
CGA:  23    -0.380619985704E+03   -0.11862E-04   -0.11832E-04  9152   0.435E-04-0.202E-05
CGA:  24    -0.380619993127E+03   -0.74226E-05   -0.74204E-05  9152   0.326E-04-0.803E-06
  12 F= -.38061999E+03 E0= -.38061976E+03  d E =0.646219E-01  mag=    58.0000
       N       E                     dE             d eps       ncg     rms          ort
SDA:   1    -0.379160588877E+03    0.14594E+01    0.00000E+00  9152   0.472E+01 0.000E+00
CGA:   2    -0.380056404876E+03   -0.89582E+00   -0.89580E+00  9152   0.231E+01 0.107E-02
CGA:   3    -0.380488262151E+03   -0.43186E+00   -0.43176E+00  9152   0.914E+00 0.789E-02
CGA:   4    -0.380615084242E+03   -0.12682E+00   -0.12564E+00  9152   0.313E+00-0.457E-02
CGA:   5    -0.380653422899E+03   -0.38339E-01   -0.38829E-01  9152   0.988E-01 0.699E-03
CGA:   6    -0.380666798922E+03   -0.13376E-01   -0.13359E-01  9152   0.351E-01-0.868E-04
CGA:   7    -0.380671401721E+03   -0.46028E-02   -0.46056E-02  9152   0.135E-01 0.156E-04
CGA:   8    -0.380673574253E+03   -0.21725E-02   -0.21725E-02  9152   0.436E-02 0.260E-05
CGA:   9    -0.380674406236E+03   -0.83198E-03   -0.83191E-03  9152   0.224E-02 0.315E-05
CGA:  10    -0.380674722413E+03   -0.31618E-03   -0.31612E-03  9152   0.113E-02-0.706E-06
CGA:  11    -0.380674917513E+03   -0.19510E-03   -0.19510E-03  9152   0.580E-03 0.196E-05
CGA:  12    -0.380675011671E+03   -0.94158E-04   -0.94150E-04  9152   0.345E-03-0.213E-06
CGA:  13    -0.380675078431E+03   -0.66760E-04   -0.66734E-04  9152   0.156E-03 0.953E-06
CGA:  14    -0.380675109407E+03   -0.30977E-04   -0.31006E-04  9152   0.119E-03-0.103E-05
CGA:  15    -0.380675126063E+03   -0.16656E-04   -0.16653E-04  9152   0.517E-04-0.111E-06
CGA:  16    -0.380675136289E+03   -0.10226E-04   -0.10228E-04  9152   0.383E-04-0.600E-07
CGA:  17    -0.380675142624E+03   -0.63350E-05   -0.63362E-05  9152   0.187E-04 0.151E-06
  13 F= -.38067514E+03 E0= -.38067491E+03  d E =-.551495E-01  mag=    58.0000
       N       E                     dE             d eps       ncg     rms          ort
SDA:   1    -0.380663616086E+03    0.11520E-01    0.00000E+00  9152   0.365E-01 0.000E+00
CGA:   2    -0.380672227696E+03   -0.86116E-02   -0.86116E-02  9152   0.184E-01 0.922E-06
CGA:   3    -0.380675482789E+03   -0.32551E-02   -0.32551E-02  9152   0.630E-02 0.388E-05
CGA:   4    -0.380676300174E+03   -0.81739E-03   -0.81727E-03  9152   0.219E-02 0.811E-06
CGA:   5    -0.380676538663E+03   -0.23849E-03   -0.23861E-03  9152   0.600E-03 0.301E-06
CGA:   6    -0.380676633326E+03   -0.94663E-04   -0.94640E-04  9152   0.198E-03-0.139E-05
CGA:   7    -0.380676661670E+03   -0.28344E-04   -0.28353E-04  9152   0.869E-04 0.215E-06
CGA:   8    -0.380676674684E+03   -0.13014E-04   -0.13013E-04  9152   0.319E-04-0.126E-07
CGA:   9    -0.380676680940E+03   -0.62558E-05   -0.62483E-05  9152   0.209E-04 0.288E-06
  14 F= -.38067668E+03 E0= -.38067645E+03  d E =-.153832E-02  mag=    58.0000
       N       E                     dE             d eps       ncg     rms          ort
SDA:   1    -0.380355086852E+03    0.32159E+00    0.00000E+00  9152   0.985E+00 0.000E+00
CGA:   2    -0.380551709527E+03   -0.19662E+00   -0.19657E+00  9152   0.587E+00 0.112E-02
CGA:   3    -0.380633223064E+03   -0.81514E-01   -0.81314E-01  9152   0.301E+00-0.168E-02
CGA:   4    -0.380668960858E+03   -0.35738E-01   -0.35817E-01  9152   0.718E-01 0.156E-03
CGA:   5    -0.380679860292E+03   -0.10899E-01   -0.10897E-01  9152   0.182E-01-0.726E-04
CGA:   6    -0.380682553807E+03   -0.26935E-02   -0.26954E-02  9152   0.786E-02 0.393E-04
CGA:   7    -0.380683542640E+03   -0.98883E-03   -0.98731E-03  9152   0.262E-02-0.910E-05
CGA:   8    -0.380683985694E+03   -0.44305E-03   -0.44303E-03  9152   0.115E-02 0.302E-05
CGA:   9    -0.380684148220E+03   -0.16253E-03   -0.16253E-03  9152   0.607E-03 0.297E-06
CGA:  10    -0.380684260400E+03   -0.11218E-03   -0.11215E-03  9152   0.269E-03 0.120E-05
CGA:  11    -0.380684319506E+03   -0.59106E-04   -0.59089E-04  9152   0.251E-03 0.317E-06
CGA:  12    -0.380684355658E+03   -0.36153E-04   -0.36169E-04  9152   0.120E-03 0.676E-06
CGA:  13    -0.380684383669E+03   -0.28011E-04   -0.28051E-04  9152   0.786E-04-0.586E-06
CGA:  14    -0.380684395205E+03   -0.11536E-04   -0.11535E-04  9152   0.441E-04-0.860E-07
CGA:  15    -0.380684404239E+03   -0.90341E-05   -0.90534E-05  9152   0.229E-04-0.506E-06
  15 F= -.38068440E+03 E0= -.38068418E+03  d E =-.772330E-02  mag=    58.0000
       N       E                     dE             d eps       ncg     rms          ort
SDA:   1    -0.380603001001E+03    0.81394E-01    0.00000E+00  9152   0.235E+00 0.000E+00
CGA:   2    -0.380649842055E+03   -0.46841E-01   -0.46813E-01  9152   0.199E+00 0.627E-03
CGA:   3    -0.380672267482E+03   -0.22425E-01   -0.22337E-01  9152   0.631E-01 0.111E-04
CGA:   4    -0.380681948470E+03   -0.96810E-02   -0.96827E-02  9152   0.144E-01 0.586E-04
CGA:   5    -0.380683994990E+03   -0.20465E-02   -0.20452E-02  9152   0.489E-02-0.166E-04
CGA:   6    -0.380684610253E+03   -0.61526E-03   -0.61616E-03  9152   0.156E-02 0.314E-05
CGA:   7    -0.380684858355E+03   -0.24810E-03   -0.24808E-03  9152   0.550E-03-0.467E-05
CGA:   8    -0.380684930200E+03   -0.71845E-04   -0.71860E-04  9152   0.270E-03 0.306E-06
CGA:   9    -0.380684971345E+03   -0.41144E-04   -0.41151E-04  9152   0.880E-04 0.676E-06
CGA:  10    -0.380684991567E+03   -0.20223E-04   -0.20165E-04  9152   0.624E-04 0.856E-06
CGA:  11    -0.380685001314E+03   -0.97463E-05   -0.97465E-05  9152   0.412E-04 0.133E-09
  16 F= -.38068500E+03 E0= -.38068478E+03  d E =-.597074E-03  mag=    58.0000
       N       E                     dE             d eps       ncg     rms          ort
SDA:   1    -0.378591840391E+03    0.20932E+01    0.00000E+00  9152   0.577E+01 0.000E+00
CGA:   2    -0.379927380419E+03   -0.13355E+01   -0.13322E+01  9152   0.384E+01 0.429E-01
CGA:   3    -0.380395844845E+03   -0.46846E+00   -0.45979E+00  9152   0.164E+01-0.240E-01
CGA:   4    -0.380608983799E+03   -0.21314E+00   -0.21346E+00  9152   0.337E+00 0.236E-02
CGA:   5    -0.380658632410E+03   -0.49649E-01   -0.49572E-01  9152   0.104E+00-0.154E-02
CGA:   6    -0.380672450124E+03   -0.13818E-01   -0.13880E-01  9152   0.391E-01 0.581E-03
CGA:   7    -0.380678198778E+03   -0.57487E-02   -0.57426E-02  9152   0.121E-01-0.150E-03
CGA:   8    -0.380679999367E+03   -0.18006E-02   -0.18011E-02  9152   0.673E-02 0.179E-04
CGA:   9    -0.380680915621E+03   -0.91625E-03   -0.91652E-03  9152   0.248E-02 0.696E-05
CGA:  10    -0.380681494020E+03   -0.57840E-03   -0.57772E-03  9152   0.162E-02 0.870E-05
CGA:  11    -0.380681786992E+03   -0.29297E-03   -0.29295E-03  9152   0.133E-02 0.104E-05
CGA:  12    -0.380682033765E+03   -0.24677E-03   -0.24675E-03  9152   0.711E-03 0.609E-06
CGA:  13    -0.380682154167E+03   -0.12040E-03   -0.12041E-03  9152   0.510E-03-0.176E-05
CGA:  14    -0.380682240369E+03   -0.86203E-04   -0.86198E-04  9152   0.185E-03 0.784E-06
CGA:  15    -0.380682281111E+03   -0.40742E-04   -0.40765E-04  9152   0.141E-03-0.373E-06
CGA:  16    -0.380682301040E+03   -0.19928E-04   -0.19939E-04  9152   0.678E-04 0.320E-06
CGA:  17    -0.380682315887E+03   -0.14848E-04   -0.14863E-04  9152   0.532E-04-0.306E-06
CGA:  18    -0.380682323937E+03   -0.80498E-05   -0.80503E-05  9152   0.253E-04 0.211E-07
  17 F= -.38068232E+03 E0= -.38068209E+03  d E =0.267738E-02  mag=    58.0000
       N       E                     dE             d eps       ncg     rms          ort
SDA:   1    -0.372992474504E+03    0.76898E+01    0.00000E+00  9152   0.208E+02 0.000E+00
CGA:   2    -0.378289392228E+03   -0.52969E+01   -0.53252E+01  9152   0.111E+02-0.325E+00
CGA:   3    -0.379972581998E+03   -0.16832E+01   -0.17006E+01  9152   0.367E+01 0.314E+00
CGA:   4    -0.380480414238E+03   -0.50783E+00   -0.50421E+00  9152   0.879E+00-0.129E-01
CGA:   5    -0.380603888618E+03   -0.12347E+00   -0.12369E+00  9152   0.272E+00 0.175E-02
CGA:   6    -0.380645645221E+03   -0.41757E-01   -0.41764E-01  9152   0.105E+00 0.119E-03
CGA:   7    -0.380658190224E+03   -0.12545E-01   -0.12534E-01  9152   0.427E-01-0.285E-04
CGA:   8    -0.380664579425E+03   -0.63892E-02   -0.63981E-02  9152   0.163E-01 0.187E-03
CGA:   9    -0.380667486368E+03   -0.29069E-02   -0.29084E-02  9152   0.942E-02-0.751E-04
CGA:  10    -0.380669359824E+03   -0.18735E-02   -0.18702E-02  9152   0.555E-02 0.725E-04
CGA:  11    -0.380670704700E+03   -0.13449E-02   -0.13472E-02  9152   0.451E-02-0.264E-04
CGA:  12    -0.380671390905E+03   -0.68620E-03   -0.68676E-03  9152   0.270E-02 0.107E-04
CGA:  13    -0.380671870542E+03   -0.47964E-03   -0.47963E-03  9152   0.158E-02 0.768E-06
CGA:  14    -0.380672113265E+03   -0.24272E-03   -0.24279E-03  9152   0.705E-03 0.250E-05
CGA:  15    -0.380672265750E+03   -0.15249E-03   -0.15243E-03  9152   0.365E-03 0.129E-05
CGA:  16    -0.380672337724E+03   -0.71974E-04   -0.71973E-04  9152   0.268E-03-0.361E-07
CGA:  17    -0.380672386398E+03   -0.48674E-04   -0.48680E-04  9152   0.158E-03-0.950E-06
CGA:  18    -0.380672412129E+03   -0.25731E-04   -0.25731E-04  9152   0.107E-03-0.530E-07
CGA:  19    -0.380672431645E+03   -0.19516E-04   -0.19522E-04  9152   0.457E-04-0.720E-06
CGA:  20    -0.380672440695E+03   -0.90495E-05   -0.90543E-05  9152   0.288E-04-0.218E-06
  18 F= -.38067244E+03 E0= -.38067220E+03  d E =0.988324E-02  mag=    58.0000
       N       E                     dE             d eps       ncg     rms          ort
SDA:   1    -0.367434486237E+03    0.13238E+02    0.00000E+00  9152   0.344E+02 0.000E+00
CGA:   2    -0.376557564303E+03   -0.91231E+01   -0.92222E+01  9152   0.234E+02-0.971E+00
CGA:   3    -0.379302727420E+03   -0.27452E+01   -0.29548E+01  9152   0.720E+01 0.700E+00
CGA:   4    -0.380283182428E+03   -0.98046E+00   -0.92602E+00  9152   0.205E+01 0.192E-03
CGA:   5    -0.380533201176E+03   -0.25002E+00   -0.25094E+00  9152   0.674E+00-0.142E-03
CGA:   6    -0.380621104821E+03   -0.87904E-01   -0.87773E-01  9152   0.227E+00-0.663E-03
CGA:   7    -0.380656844363E+03   -0.35740E-01   -0.35740E-01  9152   0.660E-01 0.105E-04
CGA:   8    -0.380667920013E+03   -0.11076E-01   -0.11076E-01  9152   0.279E-01 0.873E-04
CGA:   9    -0.380672052513E+03   -0.41325E-02   -0.41342E-02  9152   0.137E-01 0.377E-04
CGA:  10    -0.380674353460E+03   -0.23009E-02   -0.23010E-02  9152   0.869E-02 0.778E-05
CGA:  11    -0.380675746500E+03   -0.13930E-02   -0.13938E-02  9152   0.512E-02 0.413E-04
CGA:  12    -0.380676842618E+03   -0.10961E-02   -0.10971E-02  9152   0.291E-02-0.154E-04
CGA:  13    -0.380677392126E+03   -0.54951E-03   -0.54900E-03  9152   0.185E-02 0.178E-04
CGA:  14    -0.380677708021E+03   -0.31590E-03   -0.31589E-03  9152   0.100E-02 0.151E-05
CGA:  15    -0.380677864514E+03   -0.15649E-03   -0.15657E-03  9152   0.612E-03 0.416E-05
CGA:  16    -0.380677974308E+03   -0.10979E-03   -0.10978E-03  9152   0.331E-03 0.110E-05
CGA:  17    -0.380678048155E+03   -0.73847E-04   -0.73876E-04  9152   0.240E-03-0.622E-06
CGA:  18    -0.380678093237E+03   -0.45082E-04   -0.45100E-04  9152   0.153E-03-0.126E-05
CGA:  19    -0.380678120937E+03   -0.27699E-04   -0.27701E-04  9152   0.104E-03-0.314E-06
CGA:  20    -0.380678137130E+03   -0.16194E-04   -0.16178E-04  9152   0.499E-04-0.811E-06
CGA:  21    -0.380678147047E+03   -0.99171E-05   -0.99287E-05  9152   0.268E-04-0.466E-06
  19 F= -.38067815E+03 E0= -.38067787E+03  d E =-.570635E-02  mag=    58.0000
       N       E                     dE             d eps       ncg     rms          ort
SDA:   1    -0.352365782074E+03    0.28312E+02    0.00000E+00  9152   0.764E+02 0.000E+00
CGA:   2    -0.370408840077E+03   -0.18043E+02   -0.18337E+02  9152   0.681E+02-0.334E+01
CGA:   3    -0.376599691161E+03   -0.61909E+01   -0.71818E+01  9152   0.217E+02 0.101E+00
CGA:   4    -0.379593224390E+03   -0.29935E+01   -0.29512E+01  9152   0.493E+01-0.128E+00
CGA:   5    -0.380289088459E+03   -0.69586E+00   -0.69804E+00  9152   0.156E+01 0.173E-01
CGA:   6    -0.380487969506E+03   -0.19888E+00   -0.19802E+00  9152   0.686E+00-0.428E-02
CGA:   7    -0.380572490022E+03   -0.84521E-01   -0.87034E-01  9152   0.230E+00 0.123E-01
CGA:   8    -0.380603794698E+03   -0.31305E-01   -0.30949E-01  9152   0.108E+00-0.223E-02
CGA:   9    -0.380619051479E+03   -0.15257E-01   -0.15316E-01  9152   0.369E-01 0.100E-02
CGA:  10    -0.380627235834E+03   -0.81844E-02   -0.81888E-02  9152   0.237E-01-0.530E-04
CGA:  11    -0.380630594381E+03   -0.33585E-02   -0.33651E-02  9152   0.183E-01 0.918E-04
CGA:  12    -0.380633997562E+03   -0.34032E-02   -0.34057E-02  9152   0.824E-02-0.794E-04
CGA:  13    -0.380636018470E+03   -0.20209E-02   -0.20052E-02  9152   0.559E-02 0.165E-03
CGA:  14    -0.380636800683E+03   -0.78221E-03   -0.78202E-03  9152   0.387E-02 0.203E-05
CGA:  15    -0.380637483523E+03   -0.68284E-03   -0.68270E-03  9152   0.141E-02 0.154E-04
CGA:  16    -0.380637838817E+03   -0.35529E-03   -0.35492E-03  9152   0.131E-02 0.413E-05
CGA:  17    -0.380638015699E+03   -0.17688E-03   -0.17705E-03  9152   0.675E-03 0.943E-06
CGA:  18    -0.380638171179E+03   -0.15548E-03   -0.15599E-03  9152   0.487E-03-0.753E-05
CGA:  19    -0.380638242876E+03   -0.71697E-04   -0.71727E-04  9152   0.267E-03-0.308E-06
CGA:  20    -0.380638297537E+03   -0.54661E-04   -0.54726E-04  9152   0.139E-03-0.207E-05
CGA:  21    -0.380638319809E+03   -0.22272E-04   -0.22263E-04  9152   0.926E-04-0.896E-06
CGA:  22    -0.380638333738E+03   -0.13929E-04   -0.13891E-04  9152   0.397E-04-0.156E-05
CGA:  23    -0.380638342428E+03   -0.86900E-05   -0.87342E-05  9152   0.221E-04-0.897E-06
  20 F= -.38063834E+03 E0= -.38063741E+03  d E =0.398046E-01  mag=    58.0000
       N       E                     dE             d eps       ncg     rms          ort
SDA:   1    -0.379754116748E+03    0.88422E+00    0.00000E+00  9152   0.271E+01 0.000E+00
CGA:   2    -0.380318772186E+03   -0.56466E+00   -0.56417E+00  9152   0.146E+01 0.975E-02
CGA:   3    -0.380539332672E+03   -0.22056E+00   -0.21895E+00  9152   0.801E+00-0.184E-01
CGA:   4    -0.380624833704E+03   -0.85501E-01   -0.87483E-01  9152   0.203E+00-0.143E-02
CGA:   5    -0.380652945522E+03   -0.28112E-01   -0.28114E-01  9152   0.528E-01 0.181E-04
CGA:   6    -0.380660729870E+03   -0.77843E-02   -0.77848E-02  9152   0.209E-01 0.143E-04
CGA:   7    -0.380663702492E+03   -0.29726E-02   -0.29724E-02  9152   0.719E-02 0.760E-06
CGA:   8    -0.380664835488E+03   -0.11330E-02   -0.11331E-02  9152   0.391E-02 0.646E-05
CGA:   9    -0.380665365139E+03   -0.52965E-03   -0.52905E-03  9152   0.175E-02-0.582E-05
CGA:  10    -0.380665751056E+03   -0.38592E-03   -0.38556E-03  9152   0.953E-03 0.546E-05
CGA:  11    -0.380665950650E+03   -0.19959E-03   -0.19968E-03  9152   0.914E-03-0.150E-05
CGA:  12    -0.380666092052E+03   -0.14140E-03   -0.14145E-03  9152   0.452E-03 0.228E-05
CGA:  13    -0.380666181964E+03   -0.89912E-04   -0.89908E-04  9152   0.316E-03 0.155E-06
CGA:  14    -0.380666231168E+03   -0.49203E-04   -0.49210E-04  9152   0.133E-03 0.388E-06
CGA:  15    -0.380666260450E+03   -0.29282E-04   -0.29284E-04  9152   0.933E-04-0.360E-07
CGA:  16    -0.380666272872E+03   -0.12422E-04   -0.12438E-04  9152   0.484E-04 0.352E-06
CGA:  17    -0.380666283844E+03   -0.10972E-04   -0.10989E-04  9152   0.281E-04-0.299E-06
CGA:  18    -0.380666288555E+03   -0.47105E-05   -0.47110E-05  9152   0.176E-04 0.744E-07
  21 F= -.38066629E+03 E0= -.38066562E+03  d E =-.279461E-01  mag=    58.0000
       N       E                     dE             d eps       ncg     rms          ort
SDA:   1    -0.380637243784E+03    0.29040E-01    0.00000E+00  9152   0.985E-01 0.000E+00
CGA:   2    -0.380658562215E+03   -0.21318E-01   -0.21317E-01  9152   0.453E-01 0.265E-04
CGA:   3    -0.380666768668E+03   -0.82065E-02   -0.82068E-02  9152   0.192E-01-0.414E-04
CGA:   4    -0.380669061664E+03   -0.22930E-02   -0.22993E-02  9152   0.661E-02 0.271E-05
CGA:   5    -0.380669806989E+03   -0.74532E-03   -0.74496E-03  9152   0.167E-02 0.263E-06
CGA:   6    -0.380670081028E+03   -0.27404E-03   -0.27406E-03  9152   0.581E-03 0.310E-05
CGA:   7    -0.380670166153E+03   -0.85125E-04   -0.85131E-04  9152   0.253E-03 0.290E-06
CGA:   8    -0.380670205333E+03   -0.39180E-04   -0.39181E-04  9152   0.114E-03 0.282E-07
CGA:   9    -0.380670224764E+03   -0.19430E-04   -0.19431E-04  9152   0.824E-04-0.424E-06
CGA:  10    -0.380670237993E+03   -0.13230E-04   -0.13233E-04  9152   0.429E-04 0.376E-06
CGA:  11    -0.380670249274E+03   -0.11281E-04   -0.11277E-04  9152   0.313E-04 0.480E-07
CGA:  12    -0.380670254470E+03   -0.51958E-05   -0.51981E-05  9152   0.237E-04 0.259E-06
  22 F= -.38067025E+03 E0= -.38066962E+03  d E =-.396592E-02  mag=    58.0000
       N       E                     dE             d eps       ncg     rms          ort
SDA:   1    -0.379103160170E+03    0.15671E+01    0.00000E+00  9152   0.489E+01 0.000E+00
CGA:   2    -0.380082593546E+03   -0.97943E+00   -0.97772E+00  9152   0.274E+01 0.399E-01
CGA:   3    -0.380425859940E+03   -0.34327E+00   -0.33402E+00  9152   0.139E+01-0.904E-02
CGA:   4    -0.380618841486E+03   -0.19298E+00   -0.19321E+00  9152   0.295E+00 0.207E-02
CGA:   5    -0.380662652218E+03   -0.43811E-01   -0.43814E-01  9152   0.870E-01 0.738E-04
CGA:   6    -0.380674764548E+03   -0.12112E-01   -0.12114E-01  9152   0.355E-01 0.309E-04
CGA:   7    -0.380679890500E+03   -0.51260E-02   -0.51267E-02  9152   0.126E-01 0.145E-04
CGA:   8    -0.380681784632E+03   -0.18941E-02   -0.18949E-02  9152   0.781E-02 0.212E-04
CGA:   9    -0.380683037938E+03   -0.12533E-02   -0.12531E-02  9152   0.356E-02-0.213E-04
CGA:  10    -0.380683977418E+03   -0.93948E-03   -0.93762E-03  9152   0.275E-02 0.171E-04
CGA:  11    -0.380684464245E+03   -0.48683E-03   -0.48686E-03  9152   0.240E-02-0.271E-05
CGA:  12    -0.380684890123E+03   -0.42588E-03   -0.42584E-03  9152   0.112E-02 0.479E-05
CGA:  13    -0.380685086128E+03   -0.19601E-03   -0.19600E-03  9152   0.717E-03 0.307E-06
CGA:  14    -0.380685205701E+03   -0.11957E-03   -0.11957E-03  9152   0.254E-03-0.133E-07
CGA:  15    -0.380685257417E+03   -0.51716E-04   -0.51735E-04  9152   0.209E-03-0.603E-06
CGA:  16    -0.380685285323E+03   -0.27906E-04   -0.27919E-04  9152   0.810E-04 0.244E-06
CGA:  17    -0.380685305037E+03   -0.19714E-04   -0.19755E-04  9152   0.639E-04-0.547E-06
CGA:  18    -0.380685314804E+03   -0.97674E-05   -0.97695E-05  9152   0.298E-04 0.718E-07
  23 F= -.38068531E+03 E0= -.38068492E+03  d E =-.150603E-01  mag=    58.0000
       N       E                     dE             d eps       ncg     rms          ort
SDA:   1    -0.380670096570E+03    0.15208E-01    0.00000E+00  9152   0.582E-01 0.000E+00
CGA:   2    -0.380677613762E+03   -0.75172E-02   -0.75032E-02  9152   0.347E-01-0.533E-04
CGA:   3    -0.380681845288E+03   -0.42315E-02   -0.42347E-02  9152   0.110E-01 0.289E-05
CGA:   4    -0.380684079751E+03   -0.22345E-02   -0.22342E-02  9152   0.285E-02 0.715E-05
CGA:   5    -0.380684523123E+03   -0.44337E-03   -0.44335E-03  9152   0.982E-03-0.121E-05
CGA:   6    -0.380684646292E+03   -0.12317E-03   -0.12307E-03  9152   0.401E-03-0.186E-05
CGA:   7    -0.380684703518E+03   -0.57226E-04   -0.57219E-04  9152   0.143E-03-0.280E-06
CGA:   8    -0.380684727183E+03   -0.23666E-04   -0.23665E-04  9152   0.895E-04-0.907E-07
CGA:   9    -0.380684742455E+03   -0.15271E-04   -0.15270E-04  9152   0.443E-04 0.525E-06
CGA:  10    -0.380684753541E+03   -0.11086E-04   -0.11115E-04  9152   0.356E-04-0.348E-06
CGA:  11    -0.380684758826E+03   -0.52848E-05   -0.52829E-05  9152   0.254E-04-0.730E-07
  24 F= -.38068476E+03 E0= -.38068435E+03  d E =0.555978E-03  mag=    58.0000
       N       E                     dE             d eps       ncg     rms          ort
SDA:   1    -0.380609728641E+03    0.75025E-01    0.00000E+00  9152   0.229E+00 0.000E+00
CGA:   2    -0.380658918527E+03   -0.49190E-01   -0.49171E-01  9152   0.127E+00 0.330E-03
CGA:   3    -0.380674597487E+03   -0.15679E-01   -0.15590E-01  9152   0.650E-01-0.131E-03
CGA:   4    -0.380683364655E+03   -0.87672E-02   -0.87717E-02  9152   0.127E-01 0.224E-04
CGA:   5    -0.380685228949E+03   -0.18643E-02   -0.18644E-02  9152   0.405E-02 0.482E-05
CGA:   6    -0.380685779253E+03   -0.55030E-03   -0.55046E-03  9152   0.149E-02 0.446E-05
CGA:   7    -0.380686003856E+03   -0.22460E-03   -0.22462E-03  9152   0.521E-03 0.765E-06
CGA:   8    -0.380686081622E+03   -0.77766E-04   -0.77774E-04  9152   0.329E-03 0.293E-06
CGA:   9    -0.380686134351E+03   -0.52729E-04   -0.52722E-04  9152   0.144E-03-0.986E-06
CGA:  10    -0.380686172885E+03   -0.38534E-04   -0.38433E-04  9152   0.119E-03 0.965E-06
CGA:  11    -0.380686193730E+03   -0.20845E-04   -0.20845E-04  9152   0.984E-04 0.133E-06
CGA:  12    -0.380686211951E+03   -0.18221E-04   -0.18212E-04  9152   0.486E-04 0.650E-06
CGA:  13    -0.380686220068E+03   -0.81163E-05   -0.81157E-05  9152   0.300E-04-0.118E-06
  25 F= -.38068622E+03 E0= -.38068585E+03  d E =-.146124E-02  mag=    58.0000
       N       E                     dE             d eps       ncg     rms          ort
SDA:   1    -0.379883725232E+03    0.80249E+00    0.00000E+00  9152   0.239E+01 0.000E+00
CGA:   2    -0.380377280003E+03   -0.49355E+00   -0.49316E+00  9152   0.171E+01 0.787E-02
CGA:   3    -0.380560493456E+03   -0.18321E+00   -0.18120E+00  9152   0.608E+00 0.351E-03
CGA:   4    -0.380663171435E+03   -0.10268E+00   -0.10268E+00  9152   0.110E+00 0.437E-03
CGA:   5    -0.380680623349E+03   -0.17452E-01   -0.17448E-01  9152   0.377E-01-0.146E-03
CGA:   6    -0.380685369404E+03   -0.47461E-02   -0.47683E-02  9152   0.152E-01 0.103E-03
CGA:   7    -0.380687529856E+03   -0.21605E-02   -0.21601E-02  9152   0.502E-02-0.238E-05
CGA:   8    -0.380688324422E+03   -0.79457E-03   -0.79460E-03  9152   0.305E-02 0.206E-05
CGA:   9    -0.380688828757E+03   -0.50433E-03   -0.50433E-03  9152   0.138E-02-0.365E-06
CGA:  10    -0.380689202135E+03   -0.37338E-03   -0.37309E-03  9152   0.126E-02 0.266E-05
CGA:  11    -0.380689397072E+03   -0.19494E-03   -0.19497E-03  9152   0.946E-03 0.156E-05
CGA:  12    -0.380689588766E+03   -0.19169E-03   -0.19155E-03  9152   0.404E-03 0.421E-05
CGA:  13    -0.380689665337E+03   -0.76571E-04   -0.76590E-04  9152   0.285E-03-0.792E-06
CGA:  14    -0.380689708438E+03   -0.43102E-04   -0.43106E-04  9152   0.979E-04 0.363E-07
CGA:  15    -0.380689726970E+03   -0.18532E-04   -0.18542E-04  9152   0.785E-04-0.593E-06
CGA:  16    -0.380689738113E+03   -0.11143E-04   -0.11142E-04  9152   0.274E-04-0.444E-07
CGA:  17    -0.380689745713E+03   -0.75999E-05   -0.76084E-05  9152   0.226E-04-0.823E-07
  26 F= -.38068975E+03 E0= -.38068944E+03  d E =-.352565E-02  mag=    58.0000
       N       E                     dE             d eps       ncg     rms          ort
SDA:   1    -0.378426777143E+03    0.22630E+01    0.00000E+00  9152   0.597E+01 0.000E+00
CGA:   2    -0.379983097684E+03   -0.15563E+01   -0.15543E+01  9152   0.380E+01 0.195E-01
CGA:   3    -0.380415020597E+03   -0.43192E+00   -0.42460E+00  9152   0.158E+01 0.232E-02
CGA:   4    -0.380626076206E+03   -0.21106E+00   -0.21104E+00  9152   0.285E+00-0.163E-03
CGA:   5    -0.380672668019E+03   -0.46592E-01   -0.46593E-01  9152   0.785E-01 0.909E-04
CGA:   6    -0.380684090207E+03   -0.11422E-01   -0.11426E-01  9152   0.393E-01 0.678E-04
CGA:   7    -0.380688700019E+03   -0.46098E-02   -0.46128E-02  9152   0.100E-01 0.581E-05
CGA:   8    -0.380690586482E+03   -0.18865E-02   -0.18862E-02  9152   0.449E-02 0.846E-05
CGA:   9    -0.380691241428E+03   -0.65495E-03   -0.65437E-03  9152   0.263E-02-0.102E-04
CGA:  10    -0.380691768614E+03   -0.52719E-03   -0.52691E-03  9152   0.149E-02 0.643E-05
CGA:  11    -0.380692070309E+03   -0.30170E-03   -0.30153E-03  9152   0.148E-02 0.437E-05
CGA:  12    -0.380692309393E+03   -0.23908E-03   -0.23914E-03  9152   0.585E-03 0.487E-05
CGA:  13    -0.380692456775E+03   -0.14738E-03   -0.14728E-03  9152   0.413E-03 0.118E-05
CGA:  14    -0.380692508685E+03   -0.51910E-04   -0.51945E-04  9152   0.193E-03 0.542E-06
CGA:  15    -0.380692551365E+03   -0.42679E-04   -0.42703E-04  9152   0.989E-04-0.482E-06
CGA:  16    -0.380692567585E+03   -0.16220E-04   -0.16225E-04  9152   0.723E-04 0.393E-06
CGA:  17    -0.380692582916E+03   -0.15331E-04   -0.15341E-04  9152   0.367E-04-0.273E-06
CGA:  18    -0.380692589473E+03   -0.65572E-05   -0.65580E-05  9152   0.316E-04-0.198E-06
  27 F= -.38069259E+03 E0= -.38069235E+03  d E =-.284376E-02  mag=    58.0000
       N       E                     dE             d eps       ncg     rms          ort
SDA:   1    -0.379912753235E+03    0.77983E+00    0.00000E+00  9152   0.197E+01 0.000E+00
CGA:   2    -0.380468716181E+03   -0.55596E+00   -0.55606E+00  9152   0.120E+01-0.676E-03
CGA:   3    -0.380615814104E+03   -0.14710E+00   -0.14741E+00  9152   0.486E+00-0.690E-03
CGA:   4    -0.380670886091E+03   -0.55072E-01   -0.54993E-01  9152   0.107E+00 0.400E-04
CGA:   5    -0.380687444619E+03   -0.16559E-01   -0.16562E-01  9152   0.258E-01 0.641E-04
CGA:   6    -0.380691612791E+03   -0.41682E-02   -0.41674E-02  9152   0.117E-01-0.230E-04
CGA:   7    -0.380692955553E+03   -0.13428E-02   -0.13452E-02  9152   0.364E-02 0.357E-05
CGA:   8    -0.380693553739E+03   -0.59819E-03   -0.59818E-03  9152   0.117E-02-0.812E-06
CGA:   9    -0.380693736833E+03   -0.18309E-03   -0.18310E-03  9152   0.699E-03-0.785E-07
CGA:  10    -0.380693848962E+03   -0.11213E-03   -0.11213E-03  9152   0.292E-03-0.392E-06
CGA:  11    -0.380693913363E+03   -0.64401E-04   -0.64310E-04  9152   0.250E-03 0.176E-05
CGA:  12    -0.380693948920E+03   -0.35557E-04   -0.35575E-04  9152   0.115E-03 0.681E-06
CGA:  13    -0.380693975968E+03   -0.27049E-04   -0.26987E-04  9152   0.610E-04 0.957E-06
CGA:  14    -0.380693985339E+03   -0.93706E-05   -0.93658E-05  9152   0.407E-04-0.207E-06
  28 F= -.38069399E+03 E0= -.38069378E+03  d E =-.139587E-02  mag=    58.0000
       N       E                     dE             d eps       ncg     rms          ort
SDA:   1    -0.378533654278E+03    0.21603E+01    0.00000E+00  9152   0.534E+01 0.000E+00
CGA:   2    -0.380119653402E+03   -0.15860E+01   -0.15879E+01  9152   0.314E+01-0.135E-01
CGA:   3    -0.380490693375E+03   -0.37104E+00   -0.37790E+00  9152   0.126E+01 0.213E-02
CGA:   4    -0.380636748845E+03   -0.14606E+00   -0.14504E+00  9152   0.268E+00 0.715E-03
CGA:   5    -0.380677337858E+03   -0.40589E-01   -0.40588E-01  9152   0.749E-01 0.120E-04
CGA:   6    -0.380688142051E+03   -0.10804E-01   -0.10804E-01  9152   0.314E-01 0.144E-05
CGA:   7    -0.380692387264E+03   -0.42452E-02   -0.42456E-02  9152   0.856E-02 0.430E-05
CGA:   8    -0.380693725277E+03   -0.13380E-02   -0.13380E-02  9152   0.418E-02-0.235E-05
CGA:   9    -0.380694260100E+03   -0.53482E-03   -0.53549E-03  9152   0.157E-02 0.386E-05
CGA:  10    -0.380694615391E+03   -0.35529E-03   -0.35545E-03  9152   0.848E-03-0.224E-05
CGA:  11    -0.380694773666E+03   -0.15828E-03   -0.15820E-03  9152   0.742E-03 0.325E-05
CGA:  12    -0.380694899010E+03   -0.12534E-03   -0.12535E-03  9152   0.339E-03 0.111E-05
CGA:  13    -0.380694964627E+03   -0.65617E-04   -0.65583E-04  9152   0.250E-03 0.143E-05
CGA:  14    -0.380695003194E+03   -0.38567E-04   -0.38577E-04  9152   0.902E-04 0.539E-06
CGA:  15    -0.380695023568E+03   -0.20374E-04   -0.20337E-04  9152   0.673E-04 0.677E-06
CGA:  16    -0.380695033150E+03   -0.95827E-05   -0.95820E-05  9152   0.370E-04-0.246E-07
  29 F= -.38069503E+03 E0= -.38069483E+03  d E =-.104781E-02  mag=    58.0000
       N       E                     dE             d eps       ncg     rms          ort
SDA:   1    -0.374601715908E+03    0.60933E+01    0.00000E+00  9152   0.160E+02 0.000E+00
CGA:   2    -0.378635195244E+03   -0.40335E+01   -0.40343E+01  9152   0.977E+01-0.525E-02
CGA:   3    -0.380100457389E+03   -0.14653E+01   -0.14775E+01  9152   0.306E+01 0.151E+00
CGA:   4    -0.380494607955E+03   -0.39415E+00   -0.38056E+00  9152   0.916E+00-0.166E-02
CGA:   5    -0.380611255331E+03   -0.11665E+00   -0.11684E+00  9152   0.294E+00 0.492E-03
CGA:   6    -0.380650264377E+03   -0.39009E-01   -0.38997E-01  9152   0.100E+00-0.802E-04
CGA:   7    -0.380665546576E+03   -0.15282E-01   -0.15281E-01  9152   0.306E-01-0.198E-04
CGA:   8    -0.380670835314E+03   -0.52887E-02   -0.52886E-02  9152   0.113E-01 0.223E-04
CGA:   9    -0.380672524796E+03   -0.16895E-02   -0.16898E-02  9152   0.624E-02 0.985E-05
CGA:  10    -0.380673497095E+03   -0.97230E-03   -0.97231E-03  9152   0.295E-02 0.964E-06
CGA:  11    -0.380674028185E+03   -0.53109E-03   -0.53091E-03  9152   0.181E-02 0.103E-04
CGA:  12    -0.380674369328E+03   -0.34114E-03   -0.34119E-03  9152   0.886E-03-0.484E-06
CGA:  13    -0.380674546559E+03   -0.17723E-03   -0.17708E-03  9152   0.567E-03 0.446E-05
CGA:  14    -0.380674627894E+03   -0.81334E-04   -0.81343E-04  9152   0.280E-03 0.320E-06
CGA:  15    -0.380674677335E+03   -0.49442E-04   -0.49436E-04  9152   0.148E-03 0.754E-06
CGA:  16    -0.380674704419E+03   -0.27083E-04   -0.27078E-04  9152   0.872E-04 0.407E-06
CGA:  17    -0.380674723982E+03   -0.19563E-04   -0.19547E-04  9152   0.596E-04 0.303E-06
CGA:  18    -0.380674734912E+03   -0.10931E-04   -0.10935E-04  9152   0.467E-04-0.487E-06
CGA:  19    -0.380674743180E+03   -0.82672E-05   -0.82684E-05  9152   0.254E-04-0.303E-06
  30 F= -.38067474E+03 E0= -.38067458E+03  d E =0.202900E-01  mag=    58.0000
       N       E                     dE             d eps       ncg     rms          ort
SDA:   1    -0.276703379474E+03    0.10397E+03    0.00000E+00  9152   0.521E+03 0.000E+00
CGA:   2    -0.341468004550E+03   -0.64765E+02   -0.45226E+02  9152   0.972E+02 0.939E+02
CGA:   3    -0.361536454513E+03   -0.20068E+02   -0.24668E+02  9152   0.342E+03-0.879E+02
CGA:   4    -0.371111173171E+03   -0.95747E+01   -0.31648E+02  9152   0.221E+02 0.626E+01
CGA:   5    -0.369488229936E+03    0.16229E+01   -0.45018E+01  9152   0.311E+03-0.122E+03
CGA:   6    -0.375786093072E+03   -0.62979E+01   -0.27033E+02  9152   0.104E+02-0.122E+02
CGA:   7    -0.371750882230E+03    0.40352E+01   -0.20842E+01  9152   0.289E+03-0.118E+03
CGA:   8    -0.377394636691E+03   -0.56438E+01   -0.24497E+02  9152   0.735E+01-0.132E+02
CGA:   9    -0.378513351527E+03   -0.11187E+01   -0.10646E+01  9152   0.295E+01-0.144E+01
CGA:  10    -0.378576134793E+03   -0.62783E-01   -0.33410E-01  9152   0.255E+01 0.207E+01
CGA:  11    -0.378818164117E+03   -0.24203E+00   -0.24291E+00  9152   0.107E+01-0.165E-01
CGA:  12    -0.378528246405E+03    0.28992E+00   -0.36630E+00  9152   0.297E+02-0.413E+01
CGA:  13    -0.379045457426E+03   -0.51721E+00   -0.24330E+01  9152   0.267E+01-0.199E+01
CGA:  14    -0.379261179194E+03   -0.21572E+00   -0.16180E+00  9152   0.364E+00 0.697E+00
CGA:  15    -0.379294723112E+03   -0.33544E-01   -0.22102E-01  9152   0.163E+00 0.214E+00
CGA:  16    -0.379322637796E+03   -0.27915E-01   -0.28359E-01  9152   0.139E+00-0.118E-01
CGA:  17    -0.379361879756E+03   -0.39242E-01   -0.41961E-01  9152   0.384E+00-0.168E-01
CGA:  18    -0.379389155727E+03   -0.27276E-01   -0.30690E-01  9152   0.743E-01-0.771E-02
CGA:  19    -0.379394815312E+03   -0.56596E-02   -0.58440E-02  9152   0.324E-01-0.963E-03
CGA:  20    -0.379399410684E+03   -0.45954E-02   -0.45956E-02  9152   0.136E-01 0.304E-04
CGA:  21    -0.379401055780E+03   -0.16451E-02   -0.16413E-02  9152   0.934E-02-0.320E-04
CGA:  22    -0.379402174439E+03   -0.11187E-02   -0.11217E-02  9152   0.434E-02 0.194E-04
CGA:  23    -0.379402848694E+03   -0.67425E-03   -0.67334E-03  9152   0.372E-02 0.650E-04
CGA:  24    -0.379403425500E+03   -0.57681E-03   -0.57677E-03  9152   0.251E-02-0.430E-05
CGA:  25    -0.379403692790E+03   -0.26729E-03   -0.26665E-03  9152   0.884E-03-0.247E-05
CGA:  26    -0.379403857826E+03   -0.16504E-03   -0.16488E-03  9152   0.687E-03 0.374E-05
CGA:  27    -0.379403928606E+03   -0.70780E-04   -0.70815E-04  9152   0.303E-03 0.629E-06
CGA:  28    -0.379403985061E+03   -0.56454E-04   -0.56420E-04  9152   0.241E-03 0.743E-06
CGA:  29    -0.379404017919E+03   -0.32858E-04   -0.32836E-04  9152   0.125E-03-0.109E-05
CGA:  30    -0.379404038393E+03   -0.20474E-04   -0.20494E-04  9152   0.133E-03-0.103E-05
CGA:  31    -0.379404056489E+03   -0.18096E-04   -0.18109E-04  9152   0.448E-04 0.992E-06
CGA:  32    -0.379404064569E+03   -0.80801E-05   -0.80453E-05  9152   0.562E-04 0.109E-05
  31 F= -.37940406E+03 E0= -.37940234E+03  d E =0.127068E+01  mag=    58.0000
       N       E                     dE             d eps       ncg     rms          ort
SDA:   1    -0.324490431439E+03    0.54914E+02    0.00000E+00  9152   0.542E+03 0.000E+00
CGA:   2    -0.355278569141E+03   -0.30788E+02   -0.44556E+02  9152   0.665E+02 0.554E+02
CGA:   3    -0.364439437042E+03   -0.91609E+01   -0.18644E+02  9152   0.143E+03-0.230E+02
CGA:   4    -0.374564346456E+03   -0.10125E+02   -0.57293E+01  9152   0.336E+02-0.276E+02
CGA:   5    -0.377286662132E+03   -0.27223E+01   -0.28206E+01  9152   0.152E+02 0.339E+00
CGA:   6    -0.378981419488E+03   -0.16948E+01   -0.16786E+01  9152   0.693E+01-0.289E+00
CGA:   7    -0.379870064075E+03   -0.88864E+00   -0.88565E+00  9152   0.236E+01-0.999E-01
CGA:   8    -0.380253555851E+03   -0.38349E+00   -0.38464E+00  9152   0.156E+01-0.346E-01
CGA:   9    -0.380431261503E+03   -0.17771E+00   -0.17845E+00  9152   0.734E+00 0.815E-02
CGA:  10    -0.380526385532E+03   -0.95124E-01   -0.95597E-01  9152   0.354E+00 0.171E-01
CGA:  11    -0.380584070580E+03   -0.57685E-01   -0.57539E-01  9152   0.141E+00 0.506E-02
CGA:  12    -0.380607572513E+03   -0.23502E-01   -0.23472E-01  9152   0.750E-01 0.906E-03
CGA:  13    -0.380618408324E+03   -0.10836E-01   -0.10836E-01  9152   0.457E-01 0.103E-03
CGA:  14    -0.380624724123E+03   -0.63158E-02   -0.63217E-02  9152   0.169E-01 0.591E-03
CGA:  15    -0.380628591193E+03   -0.38671E-02   -0.38669E-02  9152   0.725E-02-0.155E-06
CGA:  16    -0.380629955497E+03   -0.13643E-02   -0.13623E-02  9152   0.483E-02 0.327E-04
CGA:  17    -0.380630555770E+03   -0.60027E-03   -0.60047E-03  9152   0.203E-02-0.252E-05
CGA:  18    -0.380630974692E+03   -0.41892E-03   -0.41892E-03  9152   0.845E-03-0.112E-05
CGA:  19    -0.380631148990E+03   -0.17430E-03   -0.17445E-03  9152   0.641E-03-0.178E-05
CGA:  20    -0.380631235859E+03   -0.86869E-04   -0.86914E-04  9152   0.289E-03 0.266E-05
CGA:  21    -0.380631295513E+03   -0.59654E-04   -0.59645E-04  9152   0.146E-03 0.136E-06
CGA:  22    -0.380631323768E+03   -0.28255E-04   -0.28312E-04  9152   0.102E-03-0.148E-05
CGA:  23    -0.380631339480E+03   -0.15712E-04   -0.15710E-04  9152   0.486E-04-0.109E-05
CGA:  24    -0.380631350117E+03   -0.10637E-04   -0.10653E-04  9152   0.354E-04-0.232E-06
CGA:  25    -0.380631355240E+03   -0.51223E-05   -0.51164E-05  9152   0.217E-04-0.351E-06
  32 F= -.38063136E+03 E0= -.38063087E+03  d E =-.122729E+01  mag=    58.0000
       N       E                     dE             d eps       ncg     rms          ort
SDA:   1    -0.380203720422E+03    0.42763E+00    0.00000E+00  9152   0.137E+01 0.000E+00
CGA:   2    -0.380467392487E+03   -0.26367E+00   -0.26357E+00  9152   0.708E+00 0.243E-02
CGA:   3    -0.380591210545E+03   -0.12382E+00   -0.12380E+00  9152   0.326E+00 0.121E-02
CGA:   4    -0.380629928785E+03   -0.38718E-01   -0.38483E-01  9152   0.112E+00-0.432E-03
CGA:   5    -0.380643942267E+03   -0.14013E-01   -0.14017E-01  9152   0.295E-01 0.278E-04
CGA:   6    -0.380648445254E+03   -0.45030E-02   -0.45030E-02  9152   0.977E-02-0.229E-05
CGA:   7    -0.380649796185E+03   -0.13509E-02   -0.13510E-02  9152   0.400E-02 0.123E-05
CGA:   8    -0.380650402349E+03   -0.60616E-03   -0.60619E-03  9152   0.141E-02 0.232E-05
CGA:   9    -0.380650617748E+03   -0.21540E-03   -0.21541E-03  9152   0.752E-03 0.185E-05
CGA:  10    -0.380650722703E+03   -0.10496E-03   -0.10494E-03  9152   0.273E-03-0.427E-06
CGA:  11    -0.380650777957E+03   -0.55253E-04   -0.55231E-04  9152   0.139E-03 0.462E-06
CGA:  12    -0.380650799370E+03   -0.21413E-04   -0.21413E-04  9152   0.837E-04 0.597E-07
CGA:  13    -0.380650813536E+03   -0.14166E-04   -0.14161E-04  9152   0.368E-04 0.496E-06
CGA:  14    -0.380650819593E+03   -0.60573E-05   -0.60572E-05  9152   0.225E-04 0.268E-07
  33 F= -.38065082E+03 E0= -.38065043E+03  d E =-.194644E-01  mag=    58.0000
       N       E                     dE             d eps       ncg     rms          ort
SDA:   1    -0.378917285102E+03    0.17335E+01    0.00000E+00  9152   0.543E+01 0.000E+00
CGA:   2    -0.379883279526E+03   -0.96599E+00   -0.96887E+00  9152   0.396E+01-0.925E-01
CGA:   3    -0.380360244858E+03   -0.47697E+00   -0.48513E+00  9152   0.151E+01 0.494E-01
CGA:   4    -0.380579463335E+03   -0.21922E+00   -0.21914E+00  9152   0.437E+00-0.158E-02
CGA:   5    -0.380636793091E+03   -0.57330E-01   -0.57333E-01  9152   0.148E+00 0.433E-04
CGA:   6    -0.380656026082E+03   -0.19233E-01   -0.19234E-01  9152   0.383E-01 0.139E-04
CGA:   7    -0.380662687680E+03   -0.66616E-02   -0.66612E-02  9152   0.135E-01 0.122E-04
CGA:   8    -0.380664635502E+03   -0.19478E-02   -0.19480E-02  9152   0.760E-02 0.786E-05
CGA:   9    -0.380665631081E+03   -0.99558E-03   -0.99603E-03  9152   0.231E-02 0.953E-05
CGA:  10    -0.380666100000E+03   -0.46892E-03   -0.46902E-03  9152   0.132E-02-0.189E-05
CGA:  11    -0.380666295698E+03   -0.19570E-03   -0.19573E-03  9152   0.654E-03 0.146E-05
CGA:  12    -0.380666431260E+03   -0.13556E-03   -0.13560E-03  9152   0.370E-03-0.652E-06
CGA:  13    -0.380666484651E+03   -0.53391E-04   -0.53412E-04  9152   0.236E-03 0.134E-05
CGA:  14    -0.380666527797E+03   -0.43146E-04   -0.43112E-04  9152   0.893E-04 0.143E-05
CGA:  15    -0.380666545558E+03   -0.17761E-04   -0.17732E-04  9152   0.660E-04 0.763E-06
CGA:  16    -0.380666556193E+03   -0.10636E-04   -0.10636E-04  9152   0.308E-04 0.127E-06
CGA:  17    -0.380666562753E+03   -0.65592E-05   -0.65563E-05  9152   0.281E-04 0.516E-07
  34 F= -.38066656E+03 E0= -.38066632E+03  d E =-.157432E-01  mag=    58.0000
       N       E                     dE             d eps       ncg     rms          ort
SDA:   1    -0.380398024878E+03    0.26853E+00    0.00000E+00  9152   0.846E+00 0.000E+00
CGA:   2    -0.380545267365E+03   -0.14724E+00   -0.14758E+00  9152   0.799E+00-0.171E-01
CGA:   3    -0.380635997866E+03   -0.90731E-01   -0.91536E-01  9152   0.192E+00 0.183E-02
CGA:   4    -0.380667301424E+03   -0.31304E-01   -0.31303E-01  9152   0.672E-01 0.131E-03
CGA:   5    -0.380675351724E+03   -0.80503E-02   -0.80473E-02  9152   0.192E-01-0.159E-04
CGA:   6    -0.380678195555E+03   -0.28438E-02   -0.28439E-02  9152   0.426E-02 0.117E-05
CGA:   7    -0.380679025127E+03   -0.82957E-03   -0.82940E-03  9152   0.155E-02 0.432E-05
CGA:   8    -0.380679232065E+03   -0.20694E-03   -0.20698E-03  9152   0.851E-03 0.109E-05
CGA:   9    -0.380679349278E+03   -0.11721E-03   -0.11722E-03  9152   0.248E-03 0.349E-06
CGA:  10    -0.380679398994E+03   -0.49716E-04   -0.49824E-04  9152   0.159E-03-0.251E-05
CGA:  11    -0.380679421934E+03   -0.22940E-04   -0.22926E-04  9152   0.683E-04-0.104E-05
CGA:  12    -0.380679437927E+03   -0.15993E-04   -0.16026E-04  9152   0.380E-04-0.436E-06
CGA:  13    -0.380679442893E+03   -0.49661E-05   -0.49829E-05  9152   0.229E-04 0.535E-06
  35 F= -.38067944E+03 E0= -.38067922E+03  d E =-.128801E-01  mag=    58.0000
       N       E                     dE             d eps       ncg     rms          ort
SDA:   1    -0.377680346742E+03    0.29991E+01    0.00000E+00  9152   0.896E+01 0.000E+00
CGA:   2    -0.379212949267E+03   -0.15326E+01   -0.15506E+01  9152   0.989E+01-0.975E+00
CGA:   3    -0.380222332540E+03   -0.10094E+01   -0.10327E+01  9152   0.219E+01 0.728E-01
CGA:   4    -0.380533935083E+03   -0.31160E+00   -0.31232E+00  9152   0.937E+00 0.134E-01
CGA:   5    -0.380647244512E+03   -0.11331E+00   -0.11099E+00  9152   0.199E+00-0.663E-02
CGA:   6    -0.380679035879E+03   -0.31791E-01   -0.31791E-01  9152   0.779E-01 0.129E-03
CGA:   7    -0.380687437249E+03   -0.84014E-02   -0.84081E-02  9152   0.304E-01 0.945E-05
CGA:   8    -0.380692626407E+03   -0.51892E-02   -0.51887E-02  9152   0.730E-02 0.205E-04
CGA:   9    -0.380694272700E+03   -0.16463E-02   -0.16461E-02  9152   0.290E-02 0.138E-05
CGA:  10    -0.380694743696E+03   -0.47100E-03   -0.47099E-03  9152   0.178E-02-0.101E-05
CGA:  11    -0.380695043341E+03   -0.29964E-03   -0.29972E-03  9152   0.595E-03-0.781E-05
CGA:  12    -0.380695198456E+03   -0.15512E-03   -0.15523E-03  9152   0.418E-03-0.110E-05
CGA:  13    -0.380695243734E+03   -0.45278E-04   -0.45345E-04  9152   0.182E-03 0.861E-06
CGA:  14    -0.380695285438E+03   -0.41704E-04   -0.41458E-04  9152   0.486E-04 0.377E-05
CGA:  15    -0.380695299547E+03   -0.14110E-04   -0.13952E-04  9152   0.315E-04 0.136E-05
CGA:  16    -0.380695303860E+03   -0.43124E-05   -0.43186E-05  9152   0.195E-04 0.155E-06
  36 F= -.38069530E+03 E0= -.38069506E+03  d E =-.158610E-01  mag=    58.0000
       N       E                     dE             d eps       ncg     rms          ort
SDA:   1    -0.380624556098E+03    0.70743E-01    0.00000E+00  9152   0.235E+00 0.000E+00
CGA:   2    -0.380661245406E+03   -0.36689E-01   -0.36610E-01  9152   0.156E+00-0.181E-02
CGA:   3    -0.380684679488E+03   -0.23434E-01   -0.23506E-01  9152   0.594E-01 0.136E-02
CGA:   4    -0.380693357718E+03   -0.86782E-02   -0.86767E-02  9152   0.193E-01-0.176E-04
CGA:   5    -0.380695516867E+03   -0.21591E-02   -0.21597E-02  9152   0.610E-02 0.275E-05
CGA:   6    -0.380696374366E+03   -0.85750E-03   -0.85743E-03  9152   0.143E-02-0.292E-05
CGA:   7    -0.380696638994E+03   -0.26463E-03   -0.26470E-03  9152   0.534E-03-0.345E-05
CGA:   8    -0.380696711755E+03   -0.72761E-04   -0.72754E-04  9152   0.260E-03-0.184E-06
CGA:   9    -0.380696748885E+03   -0.37130E-04   -0.37155E-04  9152   0.857E-04 0.113E-05
CGA:  10    -0.380696763758E+03   -0.14873E-04   -0.14874E-04  9152   0.513E-04-0.620E-07
CGA:  11    -0.380696771808E+03   -0.80500E-05   -0.80501E-05  9152   0.201E-04 0.247E-07
  37 F= -.38069677E+03 E0= -.38069654E+03  d E =-.146795E-02  mag=    58.0000
       N       E                     dE             d eps       ncg     rms          ort
SDA:   1    -0.380632676455E+03    0.64087E-01    0.00000E+00  9152   0.189E+00 0.000E+00
CGA:   2    -0.380671946076E+03   -0.39270E-01   -0.39270E-01  9152   0.989E-01-0.772E-05
CGA:   3    -0.380689289110E+03   -0.17343E-01   -0.17343E-01  9152   0.371E-01 0.380E-06
CGA:   4    -0.380694184903E+03   -0.48958E-02   -0.48966E-02  9152   0.141E-01 0.136E-04
CGA:   5    -0.380695793706E+03   -0.16088E-02   -0.16088E-02  9152   0.385E-02 0.184E-05
CGA:   6    -0.380696379309E+03   -0.58560E-03   -0.58560E-03  9152   0.106E-02-0.120E-05
CGA:   7    -0.380696550646E+03   -0.17134E-03   -0.17133E-03  9152   0.497E-03-0.280E-05
CGA:   8    -0.380696616742E+03   -0.66096E-04   -0.66125E-04  9152   0.177E-03 0.533E-06
CGA:   9    -0.380696646995E+03   -0.30253E-04   -0.30248E-04  9152   0.812E-04 0.632E-06
CGA:  10    -0.380696658474E+03   -0.11479E-04   -0.11496E-04  9152   0.400E-04 0.767E-06
CGA:  11    -0.380696665985E+03   -0.75102E-05   -0.74981E-05  9152   0.162E-04 0.504E-06
  38 F= -.38069667E+03 E0= -.38069645E+03  d E =0.105824E-03  mag=    58.0000
       N       E                     dE             d eps       ncg     rms          ort
SDA:   1    -0.380539257273E+03    0.15740E+00    0.00000E+00  9152   0.518E+00 0.000E+00
CGA:   2    -0.380619001199E+03   -0.79744E-01   -0.79761E-01  9152   0.365E+00 0.665E-03
CGA:   3    -0.380666400334E+03   -0.47399E-01   -0.47383E-01  9152   0.134E+00-0.132E-03
CGA:   4    -0.380686899634E+03   -0.20499E-01   -0.20503E-01  9152   0.375E-01 0.167E-03
CGA:   5    -0.380692524126E+03   -0.56245E-02   -0.56229E-02  9152   0.119E-01-0.460E-04
CGA:   6    -0.380694009923E+03   -0.14858E-02   -0.14891E-02  9152   0.359E-02 0.204E-04
CGA:   7    -0.380694560473E+03   -0.55055E-03   -0.55048E-03  9152   0.132E-02-0.816E-05
CGA:   8    -0.380694744083E+03   -0.18361E-03   -0.18359E-03  9152   0.647E-03-0.758E-06
CGA:   9    -0.380694841547E+03   -0.97464E-04   -0.97471E-04  9152   0.198E-03 0.898E-06
CGA:  10    -0.380694883603E+03   -0.42056E-04   -0.41955E-04  9152   0.114E-03 0.188E-05
CGA:  11    -0.380694900744E+03   -0.17141E-04   -0.17148E-04  9152   0.680E-04 0.568E-06
CGA:  12    -0.380694913901E+03   -0.13157E-04   -0.13147E-04  9152   0.366E-04 0.297E-06
CGA:  13    -0.380694920145E+03   -0.62443E-05   -0.62489E-05  9152   0.238E-04-0.551E-06
  39 F= -.38069492E+03 E0= -.38069473E+03  d E =0.174584E-02  mag=    58.0000
       N       E                     dE             d eps       ncg     rms          ort
SDA:   1    -0.380573947401E+03    0.12097E+00    0.00000E+00  9152   0.356E+00 0.000E+00
CGA:   2    -0.380644890256E+03   -0.70943E-01   -0.71091E-01  9152   0.296E+00-0.280E-02
CGA:   3    -0.380678474688E+03   -0.33584E-01   -0.33917E-01  9152   0.895E-01 0.527E-03
CGA:   4    -0.380691996599E+03   -0.13522E-01   -0.13522E-01  9152   0.272E-01 0.137E-04
CGA:   5    -0.380695509611E+03   -0.35130E-02   -0.35127E-02  9152   0.860E-02-0.573E-05
CGA:   6    -0.380696704854E+03   -0.11952E-02   -0.11952E-02  9152   0.210E-02-0.194E-05
CGA:   7    -0.380697069148E+03   -0.36429E-03   -0.36426E-03  9152   0.880E-03 0.211E-05
CGA:   8    -0.380697178215E+03   -0.10907E-03   -0.10907E-03  9152   0.383E-03 0.248E-06
CGA:   9    -0.380697239043E+03   -0.60829E-04   -0.60828E-04  9152   0.115E-03 0.129E-06
CGA:  10    -0.380697261774E+03   -0.22731E-04   -0.22798E-04  9152   0.708E-04-0.164E-05
CGA:  11    -0.380697271808E+03   -0.10033E-04   -0.10023E-04  9152   0.298E-04-0.664E-06
CGA:  12    -0.380697277747E+03   -0.59394E-05   -0.59552E-05  9152   0.194E-04-0.378E-06
  40 F= -.38069728E+03 E0= -.38069707E+03  d E =-.235760E-02  mag=    58.0000
       N       E                     dE             d eps       ncg     rms          ort
SDA:   1    -0.380450728697E+03    0.24654E+00    0.00000E+00  9152   0.772E+00 0.000E+00
CGA:   2    -0.380581242092E+03   -0.13051E+00   -0.13064E+00  9152   0.555E+00-0.774E-02
CGA:   3    -0.380652289963E+03   -0.71048E-01   -0.71510E-01  9152   0.211E+00 0.425E-02
CGA:   4    -0.380683232388E+03   -0.30942E-01   -0.30943E-01  9152   0.625E-01 0.168E-04
CGA:   5    -0.380691424368E+03   -0.81920E-02   -0.81918E-02  9152   0.204E-01-0.423E-05
CGA:   6    -0.380694246624E+03   -0.28223E-02   -0.28222E-02  9152   0.523E-02-0.309E-05
CGA:   7    -0.380695128163E+03   -0.88154E-03   -0.88150E-03  9152   0.213E-02 0.323E-05
CGA:   8    -0.380695401137E+03   -0.27297E-03   -0.27297E-03  9152   0.967E-03 0.302E-06
CGA:   9    -0.380695549728E+03   -0.14859E-03   -0.14859E-03  9152   0.293E-03 0.916E-06
CGA:  10    -0.380695607364E+03   -0.57635E-04   -0.57725E-04  9152   0.169E-03-0.206E-05
CGA:  11    -0.380695631433E+03   -0.24069E-04   -0.24062E-04  9152   0.720E-04-0.586E-06
CGA:  12    -0.380695645345E+03   -0.13913E-04   -0.13933E-04  9152   0.447E-04-0.554E-06
CGA:  13    -0.380695651312E+03   -0.59669E-05   -0.59735E-05  9152   0.187E-04 0.280E-06
  41 F= -.38069565E+03 E0= -.38069540E+03  d E =0.162643E-02  mag=    58.0000
       N       E                     dE             d eps       ncg     rms          ort
SDA:   1    -0.380663516435E+03    0.32129E-01    0.00000E+00  9152   0.102E+00 0.000E+00
CGA:   2    -0.380683342459E+03   -0.19826E-01   -0.19825E-01  9152   0.599E-01 0.213E-04
CGA:   3    -0.380692068241E+03   -0.87258E-02   -0.87250E-02  9152   0.291E-01-0.190E-04
CGA:   4    -0.380695501598E+03   -0.34334E-02   -0.34350E-02  9152   0.801E-02 0.121E-04
CGA:   5    -0.380696708488E+03   -0.12069E-02   -0.12069E-02  9152   0.192E-02 0.499E-05
CGA:   6    -0.380697016321E+03   -0.30783E-03   -0.30784E-03  9152   0.717E-03-0.162E-05
CGA:   7    -0.380697102911E+03   -0.86590E-04   -0.86504E-04  9152   0.290E-03-0.214E-05
CGA:   8    -0.380697149749E+03   -0.46838E-04   -0.46839E-04  9152   0.855E-04-0.265E-06
CGA:   9    -0.380697165653E+03   -0.15905E-04   -0.15887E-04  9152   0.482E-04 0.614E-06
CGA:  10    -0.380697171849E+03   -0.61954E-05   -0.62169E-05  9152   0.199E-04 0.717E-06
  42 F= -.38069717E+03 E0= -.38069693E+03  d E =-.152054E-02  mag=    58.0000
       N       E                     dE             d eps       ncg     rms          ort
SDA:   1    -0.380511939208E+03    0.18523E+00    0.00000E+00  9152   0.573E+00 0.000E+00
CGA:   2    -0.380620220583E+03   -0.10828E+00   -0.10827E+00  9152   0.320E+00 0.194E-03
CGA:   3    -0.380671925836E+03   -0.51705E-01   -0.51705E-01  9152   0.139E+00 0.466E-04
CGA:   4    -0.380688950077E+03   -0.17024E-01   -0.17022E-01  9152   0.456E-01 0.768E-05
CGA:   5    -0.380694792287E+03   -0.58422E-02   -0.58413E-02  9152   0.122E-01 0.122E-05
CGA:   6    -0.380696534638E+03   -0.17424E-02   -0.17430E-02  9152   0.412E-02 0.165E-04
CGA:   7    -0.380697138586E+03   -0.60395E-03   -0.60370E-03  9152   0.144E-02-0.146E-04
CGA:   8    -0.380697378330E+03   -0.23974E-03   -0.23973E-03  9152   0.624E-03 0.869E-06
CGA:   9    -0.380697465084E+03   -0.86754E-04   -0.86775E-04  9152   0.316E-03 0.128E-05
CGA:  10    -0.380697518137E+03   -0.53053E-04   -0.53026E-04  9152   0.133E-03 0.234E-05
CGA:  11    -0.380697546903E+03   -0.28766E-04   -0.28727E-04  9152   0.944E-04 0.674E-06
CGA:  12    -0.380697562927E+03   -0.16024E-04   -0.16025E-04  9152   0.550E-04-0.553E-07
CGA:  13    -0.380697573260E+03   -0.10332E-04   -0.10353E-04  9152   0.364E-04-0.735E-06
CGA:  14    -0.380697578863E+03   -0.56037E-05   -0.56025E-05  9152   0.183E-04-0.254E-06
  43 F= -.38069758E+03 E0= -.38069736E+03  d E =-.407015E-03  mag=    58.0000
       N       E                     dE             d eps       ncg     rms          ort
SDA:   1    -0.380612246441E+03    0.85327E-01    0.00000E+00  9152   0.239E+00 0.000E+00
CGA:   2    -0.380667878771E+03   -0.55632E-01   -0.55631E-01  9152   0.119E+00 0.213E-04
CGA:   3    -0.380688441230E+03   -0.20562E-01   -0.20562E-01  9152   0.390E-01 0.707E-05
CGA:   4    -0.380694079694E+03   -0.56385E-02   -0.56388E-02  9152   0.126E-01 0.201E-04
CGA:   5    -0.380695486148E+03   -0.14065E-02   -0.14064E-02  9152   0.423E-02 0.182E-06
CGA:   6    -0.380696093620E+03   -0.60747E-03   -0.60737E-03  9152   0.111E-02-0.540E-05
CGA:   7    -0.380696292231E+03   -0.19861E-03   -0.19868E-03  9152   0.454E-03-0.394E-05
CGA:   8    -0.380696356995E+03   -0.64764E-04   -0.64797E-04  9152   0.236E-03 0.133E-05
CGA:   9    -0.380696396357E+03   -0.39362E-04   -0.39355E-04  9152   0.105E-03 0.156E-05
CGA:  10    -0.380696416348E+03   -0.19992E-04   -0.19962E-04  9152   0.832E-04 0.112E-05
CGA:  11    -0.380696431150E+03   -0.14802E-04   -0.14799E-04  9152   0.428E-04 0.278E-06
CGA:  12    -0.380696441319E+03   -0.10169E-04   -0.10192E-04  9152   0.308E-04-0.314E-06
CGA:  13    -0.380696445693E+03   -0.43736E-05   -0.43609E-05  9152   0.178E-04-0.486E-06
  44 F= -.38069645E+03 E0= -.38069623E+03  d E =0.113317E-02  mag=    58.0000
       N       E                     dE             d eps       ncg     rms          ort
SDA:   1    -0.380632472262E+03    0.63969E-01    0.00000E+00  9152   0.194E+00 0.000E+00
CGA:   2    -0.380671872864E+03   -0.39401E-01   -0.39409E-01  9152   0.113E+00-0.155E-03
CGA:   3    -0.380687631309E+03   -0.15758E-01   -0.15793E-01  9152   0.551E-01 0.338E-03
CGA:   4    -0.380694603168E+03   -0.69719E-02   -0.69667E-02  9152   0.143E-01-0.148E-04
CGA:   5    -0.380696563607E+03   -0.19604E-02   -0.19604E-02  9152   0.418E-02-0.709E-07
CGA:   6    -0.380697146361E+03   -0.58275E-03   -0.58268E-03  9152   0.141E-02-0.318E-05
CGA:   7    -0.380697366266E+03   -0.21991E-03   -0.21989E-03  9152   0.492E-03-0.174E-05
CGA:   8    -0.380697442828E+03   -0.76562E-04   -0.76559E-04  9152   0.262E-03-0.303E-06
CGA:   9    -0.380697478801E+03   -0.35973E-04   -0.35996E-04  9152   0.108E-03 0.810E-06
CGA:  10    -0.380697502258E+03   -0.23457E-04   -0.23461E-04  9152   0.631E-04-0.706E-07
CGA:  11    -0.380697514489E+03   -0.12231E-04   -0.12233E-04  9152   0.502E-04-0.793E-07
CGA:  12    -0.380697523683E+03   -0.91947E-05   -0.92050E-05  9152   0.292E-04-0.584E-06
  45 F= -.38069752E+03 E0= -.38069729E+03  d E =-.107799E-02  mag=    58.0000
       N       E                     dE             d eps       ncg     rms          ort
SDA:   1    -0.377870962079E+03    0.28266E+01    0.00000E+00  9152   0.857E+01 0.000E+00
CGA:   2    -0.379516477860E+03   -0.16455E+01   -0.16561E+01  9152   0.594E+01-0.257E+00
CGA:   3    -0.380236272989E+03   -0.71980E+00   -0.74537E+00  9152   0.221E+01 0.150E+00
CGA:   4    -0.380563448678E+03   -0.32718E+00   -0.32674E+00  9152   0.683E+00-0.649E-02
CGA:   5    -0.380640771680E+03   -0.77323E-01   -0.77256E-01  9152   0.208E+00-0.318E-03
CGA:   6    -0.380671184954E+03   -0.30413E-01   -0.30415E-01  9152   0.546E-01 0.627E-05
CGA:   7    -0.380681466366E+03   -0.10281E-01   -0.10282E-01  9152   0.196E-01-0.144E-04
CGA:   8    -0.380684291712E+03   -0.28253E-02   -0.28256E-02  9152   0.118E-01 0.683E-05
CGA:   9    -0.380685990871E+03   -0.16992E-02   -0.16996E-02  9152   0.443E-02 0.167E-04
CGA:  10    -0.380686999115E+03   -0.10082E-02   -0.10087E-02  9152   0.337E-02-0.487E-05
CGA:  11    -0.380687580012E+03   -0.58090E-03   -0.58074E-03  9152   0.214E-02 0.119E-04
CGA:  12    -0.380688057456E+03   -0.47744E-03   -0.47776E-03  9152   0.145E-02-0.497E-05
CGA:  13    -0.380688265970E+03   -0.20851E-03   -0.20854E-03  9152   0.888E-03 0.910E-06
CGA:  14    -0.380688445857E+03   -0.17989E-03   -0.17983E-03  9152   0.339E-03 0.165E-05
CGA:  15    -0.380688515173E+03   -0.69317E-04   -0.69271E-04  9152   0.268E-03 0.128E-05
CGA:  16    -0.380688556386E+03   -0.41213E-04   -0.41214E-04  9152   0.122E-03 0.605E-07
CGA:  17    -0.380688581171E+03   -0.24785E-04   -0.24786E-04  9152   0.998E-04-0.725E-07
CGA:  18    -0.380688597514E+03   -0.16343E-04   -0.16335E-04  9152   0.413E-04-0.966E-06
CGA:  19    -0.380688607443E+03   -0.99287E-05   -0.99346E-05  9152   0.307E-04-0.840E-07
  46 F= -.38068861E+03 E0= -.38068823E+03  d E =0.891624E-02  mag=    58.0000
       N       E                     dE             d eps       ncg     rms          ort
SDA:   1    -0.380413616901E+03    0.27498E+00    0.00000E+00  9152   0.807E+00 0.000E+00
CGA:   2    -0.380588749516E+03   -0.17513E+00   -0.17512E+00  9152   0.472E+00 0.112E-03
CGA:   3    -0.380659972134E+03   -0.71223E-01   -0.71130E-01  9152   0.208E+00-0.132E-02
CGA:   4    -0.380683580098E+03   -0.23608E-01   -0.23699E-01  9152   0.601E-01 0.389E-05
CGA:   5    -0.380691799623E+03   -0.82195E-02   -0.82205E-02  9152   0.150E-01 0.144E-04
CGA:   6    -0.380694138014E+03   -0.23384E-02   -0.23383E-02  9152   0.544E-02-0.641E-05
CGA:   7    -0.380694874951E+03   -0.73694E-03   -0.73680E-03  9152   0.208E-02-0.487E-05
CGA:   8    -0.380695191569E+03   -0.31662E-03   -0.31662E-03  9152   0.799E-03 0.539E-06
CGA:   9    -0.380695309497E+03   -0.11793E-03   -0.11794E-03  9152   0.395E-03 0.117E-05
CGA:  10    -0.380695376077E+03   -0.66580E-04   -0.66571E-04  9152   0.158E-03 0.258E-05
CGA:  11    -0.380695409336E+03   -0.33259E-04   -0.33249E-04  9152   0.115E-03 0.253E-06
CGA:  12    -0.380695425888E+03   -0.16552E-04   -0.16556E-04  9152   0.584E-04 0.165E-06
CGA:  13    -0.380695438047E+03   -0.12159E-04   -0.12180E-04  9152   0.316E-04-0.492E-06
CGA:  14    -0.380695443271E+03   -0.52231E-05   -0.52225E-05  9152   0.192E-04-0.280E-06
  47 F= -.38069544E+03 E0= -.38069511E+03  d E =-.683583E-02  mag=    58.0000
       N       E                     dE             d eps       ncg     rms          ort
SDA:   1    -0.379308246602E+03    0.13872E+01    0.00000E+00  9152   0.381E+01 0.000E+00
CGA:   2    -0.380258880471E+03   -0.95063E+00   -0.95049E+00  9152   0.183E+01 0.172E-02
CGA:   3    -0.380579220398E+03   -0.32034E+00   -0.32034E+00  9152   0.580E+00 0.180E-02
CGA:   4    -0.380664103325E+03   -0.84883E-01   -0.84854E-01  9152   0.133E+00-0.273E-03
CGA:   5    -0.380682732276E+03   -0.18629E-01   -0.18636E-01  9152   0.517E-01 0.456E-04
CGA:   6    -0.380689433549E+03   -0.67013E-02   -0.66991E-02  9152   0.178E-01-0.289E-04
CGA:   7    -0.380691851018E+03   -0.24175E-02   -0.24157E-02  9152   0.698E-02-0.210E-04
CGA:   8    -0.380692924897E+03   -0.10739E-02   -0.10745E-02  9152   0.278E-02 0.244E-04
CGA:   9    -0.380693517616E+03   -0.59272E-03   -0.59276E-03  9152   0.147E-02 0.144E-05
CGA:  10    -0.380693835703E+03   -0.31809E-03   -0.31784E-03  9152   0.139E-02 0.412E-05
CGA:  11    -0.380694058007E+03   -0.22230E-03   -0.22227E-03  9152   0.802E-03-0.261E-05
CGA:  12    -0.380694210751E+03   -0.15274E-03   -0.15276E-03  9152   0.505E-03-0.851E-06
CGA:  13    -0.380694297243E+03   -0.86491E-04   -0.86491E-04  9152   0.222E-03 0.334E-06
CGA:  14    -0.380694344483E+03   -0.47240E-04   -0.47219E-04  9152   0.119E-03 0.495E-06
CGA:  15    -0.380694363012E+03   -0.18529E-04   -0.18526E-04  9152   0.782E-04-0.182E-06
CGA:  16    -0.380694376948E+03   -0.13937E-04   -0.13936E-04  9152   0.413E-04-0.476E-09
CGA:  17    -0.380694384912E+03   -0.79638E-05   -0.79711E-05  9152   0.276E-04-0.347E-06
  48 F= -.38069438E+03 E0= -.38069405E+03  d E =0.105836E-02  mag=    58.0000
       N       E                     dE             d eps       ncg     rms          ort
SDA:   1    -0.360784290456E+03    0.19910E+02    0.00000E+00  9152   0.547E+02 0.000E+00
CGA:   2    -0.374091641041E+03   -0.13307E+02   -0.13347E+02  9152   0.318E+02-0.471E+00
CGA:   3    -0.378762029706E+03   -0.46704E+01   -0.47549E+01  9152   0.878E+01 0.115E+01
CGA:   4    -0.380184288955E+03   -0.14223E+01   -0.14168E+01  9152   0.229E+01-0.855E-01
CGA:   5    -0.380508048331E+03   -0.32376E+00   -0.32427E+00  9152   0.769E+00 0.432E-02
CGA:   6    -0.380610602820E+03   -0.10255E+00   -0.10254E+00  9152   0.302E+00-0.251E-03
CGA:   7    -0.380649547572E+03   -0.38945E-01   -0.38963E-01  9152   0.120E+00 0.130E-03
CGA:   8    -0.380666917021E+03   -0.17369E-01   -0.17438E-01  9152   0.403E-01 0.968E-03
CGA:   9    -0.380674886855E+03   -0.79698E-02   -0.79810E-02  9152   0.189E-01-0.250E-03
CGA:  10    -0.380678531205E+03   -0.36443E-02   -0.36372E-02  9152   0.114E-01 0.194E-03
CGA:  11    -0.380680659502E+03   -0.21283E-02   -0.21290E-02  9152   0.735E-02-0.299E-04
[...]
CGA:  11    -0.380695771741E+03   -0.13577E-03   -0.13572E-03  9152   0.485E-03 0.225E-05
CGA:  12    -0.380695845301E+03   -0.73560E-04   -0.73562E-04  9152   0.217E-03 0.203E-06
CGA:  13    -0.380695885372E+03   -0.40070E-04   -0.40072E-04  9152   0.136E-03-0.860E-07
CGA:  14    -0.380695906482E+03   -0.21111E-04   -0.21107E-04  9152   0.571E-04-0.631E-06
CGA:  15    -0.380695917882E+03   -0.11399E-04   -0.11413E-04  9152   0.339E-04-0.345E-06
CGA:  16    -0.380695922741E+03   -0.48593E-05   -0.48563E-05  9152   0.184E-04-0.173E-06
 164 F= -.38069592E+03 E0= -.38069563E+03  d E =-.186150E-01  mag=    58.0000
       N       E                     dE             d eps       ncg     rms          ort
SDA:   1    -0.380680922353E+03    0.14996E-01    0.00000E+00  9152   0.510E-01 0.000E+00
CGA:   2    -0.380688943916E+03   -0.80216E-02   -0.80221E-02  9152   0.376E-01 0.377E-04
CGA:   3    -0.380693562244E+03   -0.46183E-02   -0.46170E-02  9152   0.126E-01-0.654E-05
CGA:   4    -0.380695638906E+03   -0.20767E-02   -0.20766E-02  9152   0.316E-02 0.666E-05
CGA:   5    -0.380696168048E+03   -0.52914E-03   -0.52916E-03  9152   0.901E-03-0.234E-05
CGA:   6    -0.380696277593E+03   -0.10954E-03   -0.10958E-03  9152   0.391E-03 0.299E-06
CGA:   7    -0.380696331298E+03   -0.53705E-04   -0.53695E-04  9152   0.108E-03-0.403E-06
CGA:   8    -0.380696352230E+03   -0.20932E-04   -0.20927E-04  9152   0.547E-04 0.124E-06
CGA:   9    -0.380696359880E+03   -0.76494E-05   -0.76496E-05  9152   0.290E-04-0.747E-09
 165 F= -.38069636E+03 E0= -.38069607E+03  d E =-.437139E-03  mag=    58.0000
       N       E                     dE             d eps       ncg     rms          ort
SDA:   1    -0.380206024895E+03    0.49033E+00    0.00000E+00  9152   0.146E+01 0.000E+00
CGA:   2    -0.380492056870E+03   -0.28603E+00   -0.28597E+00  9152   0.944E+00 0.122E-02
CGA:   3    -0.380619880297E+03   -0.12782E+00   -0.12775E+00  9152   0.413E+00-0.103E-02
CGA:   4    -0.380672411809E+03   -0.52532E-01   -0.52527E-01  9152   0.110E+00-0.190E-04
CGA:   5    -0.380688007490E+03   -0.15596E-01   -0.15580E-01  9152   0.328E-01-0.322E-03
CGA:   6    -0.380692248559E+03   -0.42411E-02   -0.42515E-02  9152   0.103E-01 0.102E-03
CGA:   7    -0.380693933074E+03   -0.16845E-02   -0.16848E-02  9152   0.352E-02-0.234E-04
CGA:   8    -0.380694453682E+03   -0.52061E-03   -0.52067E-03  9152   0.188E-02 0.433E-05
CGA:   9    -0.380694711325E+03   -0.25764E-03   -0.25765E-03  9152   0.653E-03 0.788E-07
CGA:  10    -0.380694850904E+03   -0.13958E-03   -0.13958E-03  9152   0.388E-03-0.588E-07
CGA:  11    -0.380694917305E+03   -0.66401E-04   -0.66403E-04  9152   0.257E-03-0.207E-06
CGA:  12    -0.380694967471E+03   -0.50166E-04   -0.50149E-04  9152   0.151E-03 0.471E-06
CGA:  13    -0.380694991738E+03   -0.24267E-04   -0.24267E-04  9152   0.977E-04-0.166E-06
CGA:  14    -0.380695009554E+03   -0.17816E-04   -0.17804E-04  9152   0.389E-04 0.515E-06
CGA:  15    -0.380695017830E+03   -0.82757E-05   -0.82757E-05  9152   0.293E-04 0.426E-08
 166 F= -.38069502E+03 E0= -.38069475E+03  d E =0.134205E-02  mag=    58.0000
       N       E                     dE             d eps       ncg     rms          ort
SDA:   1    -0.380414752494E+03    0.28026E+00    0.00000E+00  9152   0.880E+00 0.000E+00
CGA:   2    -0.380581080006E+03   -0.16633E+00   -0.16631E+00  9152   0.468E+00 0.428E-03
CGA:   3    -0.380654897330E+03   -0.73817E-01   -0.73814E-01  9152   0.248E+00-0.241E-03
CGA:   4    -0.380683682927E+03   -0.28786E-01   -0.28780E-01  9152   0.682E-01-0.374E-04
CGA:   5    -0.380693506938E+03   -0.98240E-02   -0.98259E-02  9152   0.177E-01 0.425E-04
CGA:   6    -0.380696133696E+03   -0.26268E-02   -0.26257E-02  9152   0.683E-02-0.320E-04
CGA:   7    -0.380697060080E+03   -0.92638E-03   -0.92722E-03  9152   0.238E-02 0.131E-04
CGA:   8    -0.380697451137E+03   -0.39106E-03   -0.39106E-03  9152   0.107E-02 0.149E-06
CGA:   9    -0.380697599245E+03   -0.14811E-03   -0.14812E-03  9152   0.519E-03 0.446E-06
CGA:  10    -0.380697694428E+03   -0.95183E-04   -0.95200E-04  9152   0.218E-03-0.732E-06
CGA:  11    -0.380697741178E+03   -0.46750E-04   -0.46746E-04  9152   0.177E-03 0.695E-07
CGA:  12    -0.380697767579E+03   -0.26401E-04   -0.26405E-04  9152   0.906E-04 0.293E-06
CGA:  13    -0.380697786635E+03   -0.19056E-04   -0.19004E-04  9152   0.580E-04 0.110E-05
CGA:  14    -0.380697796056E+03   -0.94208E-05   -0.94210E-05  9152   0.323E-04 0.829E-07
 167 F= -.38069780E+03 E0= -.38069758E+03  d E =-.277823E-02  mag=    58.0000
       N       E                     dE             d eps       ncg     rms          ort
SDA:   1    -0.380544568912E+03    0.15322E+00    0.00000E+00  9152   0.421E+00 0.000E+00
CGA:   2    -0.380648421477E+03   -0.10385E+00   -0.10385E+00  9152   0.201E+00 0.236E-04
CGA:   3    -0.380684222899E+03   -0.35801E-01   -0.35806E-01  9152   0.703E-01-0.314E-03
CGA:   4    -0.380693481682E+03   -0.92588E-02   -0.92772E-02  9152   0.173E-01 0.982E-04
CGA:   5    -0.380695964059E+03   -0.24824E-02   -0.24806E-02  9152   0.490E-02-0.168E-04
CGA:   6    -0.380696816387E+03   -0.85233E-03   -0.85223E-03  9152   0.144E-02 0.109E-04
CGA:   7    -0.380697068393E+03   -0.25201E-03   -0.25202E-03  9152   0.693E-03-0.166E-05
CGA:   8    -0.380697166381E+03   -0.97988E-04   -0.98009E-04  9152   0.369E-03 0.145E-06
CGA:   9    -0.380697230217E+03   -0.63835E-04   -0.63841E-04  9152   0.230E-03-0.977E-06
CGA:  10    -0.380697271861E+03   -0.41644E-04   -0.41644E-04  9152   0.161E-03 0.230E-07
CGA:  11    -0.380697308526E+03   -0.36665E-04   -0.36618E-04  9152   0.854E-04 0.785E-06
CGA:  12    -0.380697327907E+03   -0.19382E-04   -0.19347E-04  9152   0.584E-04 0.640E-06
CGA:  13    -0.380697336924E+03   -0.90168E-05   -0.90197E-05  9152   0.288E-04 0.139E-06
 168 F= -.38069734E+03 E0= -.38069713E+03  d E =0.459132E-03  mag=    58.0000
       N       E                     dE             d eps       ncg     rms          ort
SDA:   1    -0.379462112130E+03    0.12352E+01    0.00000E+00  9152   0.332E+01 0.000E+00
CGA:   2    -0.380322506874E+03   -0.86039E+00   -0.86045E+00  9152   0.155E+01-0.708E-03
CGA:   3    -0.380597982066E+03   -0.27548E+00   -0.27548E+00  9152   0.544E+00-0.945E-03
CGA:   4    -0.380664866440E+03   -0.66884E-01   -0.66926E-01  9152   0.150E+00-0.163E-04
CGA:   5    -0.380683659570E+03   -0.18793E-01   -0.18785E-01  9152   0.480E-01 0.323E-05
CGA:   6    -0.380690418732E+03   -0.67592E-02   -0.67567E-02  9152   0.193E-01-0.122E-04
CGA:   7    -0.380692895861E+03   -0.24771E-02   -0.24838E-02  9152   0.611E-02 0.343E-04
CGA:   8    -0.380694056352E+03   -0.11605E-02   -0.11610E-02  9152   0.243E-02-0.156E-04
CGA:   9    -0.380694546532E+03   -0.49018E-03   -0.48993E-03  9152   0.184E-02 0.499E-05
CGA:  10    -0.380694847208E+03   -0.30068E-03   -0.30065E-03  9152   0.122E-02-0.207E-05
CGA:  11    -0.380695098641E+03   -0.25143E-03   -0.25133E-03  9152   0.926E-03 0.298E-05
CGA:  12    -0.380695250081E+03   -0.15144E-03   -0.15146E-03  9152   0.475E-03 0.182E-05
CGA:  13    -0.380695353670E+03   -0.10359E-03   -0.10352E-03  9152   0.226E-03 0.141E-05
CGA:  14    -0.380695392191E+03   -0.38521E-04   -0.38521E-04  9152   0.151E-03-0.825E-07
CGA:  15    -0.380695416011E+03   -0.23819E-04   -0.23824E-04  9152   0.695E-04 0.269E-06
CGA:  16    -0.380695428560E+03   -0.12549E-04   -0.12551E-04  9152   0.491E-04-0.241E-06
CGA:  17    -0.380695437854E+03   -0.92942E-05   -0.92907E-05  9152   0.225E-04 0.186E-06
 169 F= -.38069544E+03 E0= -.38069525E+03  d E =0.189907E-02  mag=    58.0000
       N       E                     dE             d eps       ncg     rms          ort
SDA:   1    -0.375616942890E+03    0.50785E+01    0.00000E+00  9152   0.132E+02 0.000E+00
CGA:   2    -0.379105064239E+03   -0.34881E+01   -0.34937E+01  9152   0.824E+01-0.531E-01
CGA:   3    -0.380117180307E+03   -0.10121E+01   -0.10309E+01  9152   0.355E+01 0.619E-02
CGA:   4    -0.380528775432E+03   -0.41160E+00   -0.40694E+00  9152   0.749E+00 0.531E-02
CGA:   5    -0.380642635725E+03   -0.11386E+00   -0.11385E+00  9152   0.200E+00-0.145E-03
CGA:   6    -0.380671926874E+03   -0.29291E-01   -0.29294E-01  9152   0.882E-01 0.523E-04
CGA:   7    -0.380683376004E+03   -0.11449E-01   -0.11451E-01  9152   0.253E-01 0.184E-04
CGA:   8    -0.380687511643E+03   -0.41356E-02   -0.41358E-02  9152   0.125E-01 0.669E-05
CGA:   9    -0.380689111455E+03   -0.15998E-02   -0.16037E-02  9152   0.519E-02 0.169E-04
CGA:  10    -0.380690261181E+03   -0.11497E-02   -0.11502E-02  9152   0.275E-02-0.687E-05
CGA:  11    -0.380690818826E+03   -0.55765E-03   -0.55707E-03  9152   0.262E-02 0.139E-04
CGA:  12    -0.380691227672E+03   -0.40885E-03   -0.40893E-03  9152   0.114E-02 0.447E-05
CGA:  13    -0.380691469026E+03   -0.24135E-03   -0.24119E-03  9152   0.845E-03 0.396E-05
CGA:  14    -0.380691592646E+03   -0.12362E-03   -0.12365E-03  9152   0.336E-03 0.879E-06
CGA:  15    -0.380691668657E+03   -0.76011E-04   -0.75965E-04  9152   0.223E-03 0.819E-06
CGA:  16    -0.380691700321E+03   -0.31664E-04   -0.31662E-04  9152   0.131E-03-0.897E-07
CGA:  17    -0.380691730453E+03   -0.30132E-04   -0.30097E-04  9152   0.772E-04 0.599E-06
CGA:  18    -0.380691744585E+03   -0.14132E-04   -0.14136E-04  9152   0.593E-04-0.683E-06
CGA:  19    -0.380691756006E+03   -0.11421E-04   -0.11431E-04  9152   0.280E-04-0.584E-06
CGA:  20    -0.380691760677E+03   -0.46713E-05   -0.46661E-05  9152   0.209E-04-0.592E-06
 170 F= -.38069176E+03 E0= -.38069160E+03  d E =0.367718E-02  mag=    58.0000
       N       E                     dE             d eps       ncg     rms          ort
SDA:   1    -0.368665624270E+03    0.12026E+02    0.00000E+00  9152   0.305E+02 0.000E+00
CGA:   2    -0.377395158706E+03   -0.87295E+01   -0.87279E+01  9152   0.150E+02 0.159E-01
CGA:   3    -0.379829225907E+03   -0.24341E+01   -0.24365E+01  9152   0.436E+01 0.482E-01
CGA:   4    -0.380425762111E+03   -0.59654E+00   -0.59102E+00  9152   0.120E+01-0.173E-01
CGA:   5    -0.380587560612E+03   -0.16180E+00   -0.16228E+00  9152   0.353E+00 0.213E-02
CGA:   6    -0.380643429442E+03   -0.55869E-01   -0.55871E-01  9152   0.133E+00 0.760E-04
CGA:   7    -0.380659554220E+03   -0.16125E-01   -0.16105E-01  9152   0.534E-01-0.169E-04
CGA:   8    -0.380667291353E+03   -0.77371E-02   -0.77513E-02  9152   0.166E-01 0.157E-03
CGA:   9    -0.380670637907E+03   -0.33466E-02   -0.33497E-02  9152   0.932E-02-0.693E-04
CGA:  10    -0.380672240070E+03   -0.16022E-02   -0.16022E-02  9152   0.535E-02 0.613E-04
CGA:  11    -0.380673415687E+03   -0.11756E-02   -0.11760E-02  9152   0.351E-02-0.391E-05
CGA:  12    -0.380673955156E+03   -0.53947E-03   -0.53972E-03  9152   0.234E-02 0.683E-05
CGA:  13    -0.380674368625E+03   -0.41347E-03   -0.41346E-03  9152   0.951E-03 0.202E-05
CGA:  14    -0.380674549460E+03   -0.18084E-03   -0.18080E-03  9152   0.584E-03 0.179E-05
CGA:  15    -0.380674654644E+03   -0.10518E-03   -0.10517E-03  9152   0.272E-03 0.180E-05
CGA:  16    -0.380674717188E+03   -0.62544E-04   -0.62494E-04  9152   0.237E-03 0.873E-06
CGA:  17    -0.380674753859E+03   -0.36671E-04   -0.36661E-04  9152   0.135E-03-0.481E-06
CGA:  18    -0.380674783188E+03   -0.29329E-04   -0.29356E-04  9152   0.903E-04-0.733E-06
CGA:  19    -0.380674799024E+03   -0.15836E-04   -0.15833E-04  9152   0.468E-04-0.136E-05
CGA:  20    -0.380674808934E+03   -0.99097E-05   -0.99364E-05  9152   0.260E-04-0.750E-06
 171 F= -.38067481E+03 E0= -.38067458E+03  d E =0.169517E-01  mag=    58.0000
       N       E                     dE             d eps       ncg     rms          ort
SDA:   1    -0.378751838570E+03    0.19230E+01    0.00000E+00  9152   0.569E+01 0.000E+00
CGA:   2    -0.379946786937E+03   -0.11949E+01   -0.11947E+01  9152   0.291E+01 0.641E-02
CGA:   3    -0.380484428481E+03   -0.53764E+00   -0.53764E+00  9152   0.103E+01 0.894E-03
CGA:   4    -0.380626005128E+03   -0.14158E+00   -0.14095E+00  9152   0.357E+00-0.230E-02
CGA:   5    -0.380666356261E+03   -0.40351E-01   -0.40518E-01  9152   0.107E+00-0.174E-03
CGA:   6    -0.380681916685E+03   -0.15560E-01   -0.15563E-01  9152   0.317E-01 0.133E-04
CGA:   7    -0.380687027065E+03   -0.51104E-02   -0.51102E-02  9152   0.135E-01-0.732E-05
CGA:   8    -0.380688934159E+03   -0.19071E-02   -0.19074E-02  9152   0.508E-02 0.627E-05
CGA:   9    -0.380689830993E+03   -0.89683E-03   -0.89681E-03  9152   0.246E-02 0.555E-05
CGA:  10    -0.380690193764E+03   -0.36277E-03   -0.36275E-03  9152   0.141E-02 0.536E-06
CGA:  11    -0.380690456790E+03   -0.26303E-03   -0.26299E-03  9152   0.627E-03 0.175E-05
CGA:  12    -0.380690595803E+03   -0.13901E-03   -0.13909E-03  9152   0.475E-03-0.132E-05
CGA:  13    -0.380690664931E+03   -0.69128E-04   -0.69144E-04  9152   0.230E-03 0.403E-06
CGA:  14    -0.380690710524E+03   -0.45593E-04   -0.45590E-04  9152   0.138E-03 0.692E-07
CGA:  15    -0.380690731133E+03   -0.20609E-04   -0.20612E-04  9152   0.703E-04 0.135E-06
CGA:  16    -0.380690747166E+03   -0.16034E-04   -0.16041E-04  9152   0.403E-04-0.135E-06
CGA:  17    -0.380690754429E+03   -0.72627E-05   -0.72627E-05  9152   0.325E-04-0.166E-07
 172 F= -.38069075E+03 E0= -.38069060E+03  d E =-.159455E-01  mag=    58.0000
       N       E                     dE             d eps       ncg     rms          ort
SDA:   1    -0.377366992433E+03    0.33238E+01    0.00000E+00  9152   0.851E+01 0.000E+00
CGA:   2    -0.379728777952E+03   -0.23618E+01   -0.23632E+01  9152   0.480E+01-0.118E-01
CGA:   3    -0.380370207878E+03   -0.64143E+00   -0.64775E+00  9152   0.204E+01 0.229E-01
CGA:   4    -0.380599372146E+03   -0.22916E+00   -0.22574E+00  9152   0.444E+00 0.587E-02
CGA:   5    -0.380665169494E+03   -0.65797E-01   -0.65782E-01  9152   0.124E+00-0.172E-03
CGA:   6    -0.380683572652E+03   -0.18403E-01   -0.18406E-01  9152   0.505E-01 0.214E-04
CGA:   7    -0.380690404185E+03   -0.68315E-02   -0.68304E-02  9152   0.145E-01-0.115E-04
CGA:   8    -0.380692791796E+03   -0.23876E-02   -0.23877E-02  9152   0.696E-02 0.517E-05
CGA:   9    -0.380693693167E+03   -0.90137E-03   -0.90243E-03  9152   0.313E-02 0.999E-05
CGA:  10    -0.380694367584E+03   -0.67442E-03   -0.67463E-03  9152   0.166E-02-0.266E-05
CGA:  11    -0.380694725299E+03   -0.35772E-03   -0.35748E-03  9152   0.153E-02 0.377E-05
CGA:  12    -0.380694971973E+03   -0.24667E-03   -0.24663E-03  9152   0.736E-03-0.268E-05
CGA:  13    -0.380695116628E+03   -0.14465E-03   -0.14462E-03  9152   0.538E-03 0.156E-05
CGA:  14    -0.380695195661E+03   -0.79033E-04   -0.79067E-04  9152   0.202E-03 0.120E-05
CGA:  15    -0.380695241993E+03   -0.46332E-04   -0.46266E-04  9152   0.126E-03 0.117E-05
CGA:  16    -0.380695261603E+03   -0.19611E-04   -0.19606E-04  9152   0.827E-04-0.249E-06
CGA:  17    -0.380695278962E+03   -0.17359E-04   -0.17370E-04  9152   0.514E-04-0.308E-06
CGA:  18    -0.380695287893E+03   -0.89309E-05   -0.89302E-05  9152   0.348E-04-0.441E-06
 173 F= -.38069529E+03 E0= -.38069511E+03  d E =-.453346E-02  mag=    58.0000
       N       E                     dE             d eps       ncg     rms          ort
SDA:   1    -0.365970251774E+03    0.14725E+02    0.00000E+00  9152   0.383E+02 0.000E+00
CGA:   2    -0.376187647621E+03   -0.10217E+02   -0.10215E+02  9152   0.237E+02 0.372E-01
CGA:   3    -0.379020701079E+03   -0.28331E+01   -0.28499E+01  9152   0.985E+01-0.428E+00
CGA:   4    -0.380267316285E+03   -0.12466E+01   -0.12263E+01  9152   0.177E+01-0.415E-01
CGA:   5    -0.380553226248E+03   -0.28591E+00   -0.28597E+00  9152   0.502E+00 0.196E-02
CGA:   6    -0.380626478128E+03   -0.73252E-01   -0.73190E-01  9152   0.250E+00-0.667E-03
CGA:   7    -0.380655405377E+03   -0.28927E-01   -0.28972E-01  9152   0.632E-01-0.255E-04
CGA:   8    -0.380667329306E+03   -0.11924E-01   -0.11924E-01  9152   0.272E-01-0.112E-04
CGA:   9    -0.380671219695E+03   -0.38904E-02   -0.38997E-02  9152   0.161E-01 0.111E-03
CGA:  10    -0.380674275927E+03   -0.30562E-02   -0.30567E-02  9152   0.826E-02-0.108E-04
CGA:  11    -0.380676001584E+03   -0.17257E-02   -0.17245E-02  9152   0.792E-02 0.218E-04
CGA:  12    -0.380677231474E+03   -0.12299E-02   -0.12301E-02  9152   0.327E-02 0.363E-05
CGA:  13    -0.380678025438E+03   -0.79396E-03   -0.79296E-03  9152   0.225E-02 0.129E-04
CGA:  14    -0.380678317281E+03   -0.29184E-03   -0.29202E-03  9152   0.108E-02 0.291E-05
CGA:  15    -0.380678552719E+03   -0.23544E-03   -0.23520E-03  9152   0.543E-03 0.495E-05
CGA:  16    -0.380678648842E+03   -0.96123E-04   -0.96123E-04  9152   0.444E-03-0.106E-05
CGA:  17    -0.380678735390E+03   -0.86548E-04   -0.86553E-04  9152   0.210E-03-0.458E-06
CGA:  18    -0.380678777470E+03   -0.42079E-04   -0.42102E-04  9152   0.194E-03-0.991E-06
CGA:  19    -0.380678809116E+03   -0.31646E-04   -0.31640E-04  9152   0.653E-04-0.466E-06
CGA:  20    -0.380678823991E+03   -0.14875E-04   -0.14936E-04  9152   0.583E-04-0.117E-05
CGA:  21    -0.380678831635E+03   -0.76432E-05   -0.76131E-05  9152   0.185E-04-0.655E-06
 174 F= -.38067883E+03 E0= -.38067864E+03  d E =0.164563E-01  mag=    58.0000
       N       E                     dE             d eps       ncg     rms          ort
SDA:   1    -0.379165145723E+03    0.15137E+01    0.00000E+00  9152   0.445E+01 0.000E+00
CGA:   2    -0.380107428198E+03   -0.94228E+00   -0.94248E+00  9152   0.248E+01-0.368E-02
CGA:   3    -0.380517758047E+03   -0.41033E+00   -0.41125E+00  9152   0.918E+00 0.221E-01
CGA:   4    -0.380643449659E+03   -0.12569E+00   -0.12368E+00  9152   0.253E+00-0.499E-02
CGA:   5    -0.380678872749E+03   -0.35423E-01   -0.35600E-01  9152   0.796E-01 0.112E-02
CGA:   6    -0.380689149566E+03   -0.10277E-01   -0.10269E-01  9152   0.330E-01-0.188E-04
CGA:   7    -0.380693484922E+03   -0.43354E-02   -0.43350E-02  9152   0.105E-01 0.415E-05
CGA:   8    -0.380695340564E+03   -0.18556E-02   -0.18556E-02  9152   0.383E-02 0.466E-05
CGA:   9    -0.380696003642E+03   -0.66308E-03   -0.66308E-03  9152   0.204E-02 0.719E-07
CGA:  10    -0.380696341673E+03   -0.33803E-03   -0.33803E-03  9152   0.102E-02-0.888E-07
CGA:  11    -0.380696517020E+03   -0.17535E-03   -0.17535E-03  9152   0.727E-03 0.150E-05
CGA:  12    -0.380696633568E+03   -0.11655E-03   -0.11654E-03  9152   0.341E-03 0.388E-07
CGA:  13    -0.380696708758E+03   -0.75190E-04   -0.75136E-04  9152   0.201E-03 0.104E-05
CGA:  14    -0.380696743297E+03   -0.34539E-04   -0.34537E-04  9152   0.115E-03-0.471E-06
CGA:  15    -0.380696763990E+03   -0.20693E-04   -0.20691E-04  9152   0.678E-04 0.282E-06
CGA:  16    -0.380696774642E+03   -0.10652E-04   -0.10652E-04  9152   0.433E-04-0.194E-07
CGA:  17    -0.380696783440E+03   -0.87975E-05   -0.87944E-05  9152   0.224E-04 0.111E-06
 175 F= -.38069678E+03 E0= -.38069658E+03  d E =-.179518E-01  mag=    58.0000
       N       E                     dE             d eps       ncg     rms          ort
SDA:   1    -0.380587721200E+03    0.10905E+00    0.00000E+00  9152   0.298E+00 0.000E+00
CGA:   2    -0.380662585996E+03   -0.74865E-01   -0.74860E-01  9152   0.158E+00 0.474E-04
CGA:   3    -0.380686698955E+03   -0.24113E-01   -0.24098E-01  9152   0.662E-01-0.154E-03
CGA:   4    -0.380693978879E+03   -0.72799E-02   -0.73029E-02  9152   0.194E-01-0.262E-04
CGA:   5    -0.380696582677E+03   -0.26038E-02   -0.26037E-02  9152   0.456E-02-0.155E-05
CGA:   6    -0.380697314616E+03   -0.73194E-03   -0.73186E-03  9152   0.177E-02-0.547E-05
CGA:   7    -0.380697546980E+03   -0.23236E-03   -0.23226E-03  9152   0.652E-03-0.246E-05
CGA:   8    -0.380697652960E+03   -0.10598E-03   -0.10599E-03  9152   0.262E-03 0.699E-06
CGA:   9    -0.380697692626E+03   -0.39666E-04   -0.39682E-04  9152   0.156E-03 0.868E-06
CGA:  10    -0.380697718952E+03   -0.26326E-04   -0.26327E-04  9152   0.687E-04 0.139E-05
CGA:  11    -0.380697736436E+03   -0.17485E-04   -0.17503E-04  9152   0.572E-04-0.216E-06
CGA:  12    -0.380697744675E+03   -0.82388E-05   -0.82326E-05  9152   0.325E-04-0.224E-06
 176 F= -.38069774E+03 E0= -.38069753E+03  d E =-.961235E-03  mag=    58.0000
