       N       E                     dE             d eps       ncg     rms          ort
DAV:   1     0.675909311625E+04    0.67591E+04   -0.30681E+05 19264   0.162E+03
DAV:   2     0.421945034432E+03   -0.63371E+04   -0.60211E+04 19264   0.464E+02
DAV:   3    -0.435959341760E+03   -0.85790E+03   -0.83479E+03 19264   0.182E+02
DAV:   4    -0.473798021449E+03   -0.37839E+02   -0.36724E+02 19264   0.422E+01
DAV:   5    -0.475207327680E+03   -0.14093E+01   -0.13960E+01 19264   0.727E+00
SDA:   6    -0.171714339596E+03    0.30349E+03   -0.13960E+01 19264   0.258E+04 0.000E+00
CGA:   7    -0.110670454581E+03    0.61044E+02   -0.13212E+03 19264   0.827E+04-0.347E+04
CGA:   8     0.202431586605E+03    0.31310E+03   -0.40523E+03 19264   0.335E+05-0.218E+05
CGA:   9     0.957833044460E+03    0.75540E+03   -0.20939E+04 19264   0.812E+04-0.452E+04
CGA:  10     0.219750242763E+03   -0.73808E+03   -0.68845E+02 19264   0.225E+05 0.416E+05
CGA:  11     0.533905214925E+03    0.31415E+03   -0.12211E+04 19264   0.390E+05-0.290E+05
CGA:  12     0.389649425585E+03   -0.14426E+03   -0.17052E+04 19264   0.351E+05-0.336E+05
CGA:  13     0.589355915515E+03    0.19971E+03   -0.18044E+04 19264   0.306E+04-0.294E+04
CGA:  14     0.434267824709E+03   -0.15509E+03   -0.18406E+02 19264   0.516E+05 0.541E+05
CGA:  15     0.752092144144E+03    0.31782E+03   -0.26905E+04 19264   0.334E+04-0.271E+04
CGA:  16     0.663953862304E+03   -0.88138E+02   -0.22497E+02 19264   0.224E+05 0.227E+05
CGA:  17    -0.120558833980E+03   -0.78451E+03   -0.71782E+03 19264   0.137E+05-0.265E+05
CGA:  18     0.115033362253E+03    0.23559E+03   -0.66429E+03 19264   0.260E+05-0.192E+05
CGA:  19     0.639080936289E+03    0.52405E+03   -0.13664E+04 19264   0.138E+05-0.858E+04
CGA:  20    -0.219803266150E+03   -0.85888E+03   -0.27393E+03 19264   0.935E+04-0.207E+05
CGA:  21    -0.288962982904E+03   -0.69160E+02   -0.26103E+03 19264   0.795E+04-0.545E+04
CGA:  22    -0.363146889158E+03   -0.74184E+02   -0.21087E+03 19264   0.180E+04-0.275E+04
CGA:  23    -0.400438324025E+03   -0.37291E+02   -0.17518E+02 19264   0.538E+03 0.104E+04
CGA:  24    -0.405976058293E+03   -0.55377E+01   -0.10023E+02 19264   0.185E+03-0.280E+03
CGA:  25    -0.407750369256E+03   -0.17743E+01   -0.31532E+01 19264   0.548E+02-0.806E+02
CGA:  26    -0.408863629363E+03   -0.11133E+01   -0.88480E+00 19264   0.833E+01 0.745E+01
CGA:  27    -0.410726400232E+03   -0.18628E+01   -0.20012E+01 19264   0.947E+02-0.220E+01
CGA:  28    -0.410275998728E+03    0.45040E+00   -0.14076E+01 19264   0.101E+03-0.110E+03
CGA:  29    -0.411344880635E+03   -0.10689E+01   -0.14221E+01 19264   0.136E+02-0.279E+02
CGA:  30    -0.411650950264E+03   -0.30607E+00   -0.29378E+00 19264   0.793E+01 0.201E+00
CGA:  31    -0.412235092070E+03   -0.58414E+00   -0.55605E+00 19264   0.315E+02-0.277E+00
CGA:  32    -0.413079005357E+03   -0.84391E+00   -0.46068E+00 19264   0.195E+02 0.253E+02
CGA:  33    -0.413261821233E+03   -0.18282E+00   -0.21380E+00 19264   0.372E+01-0.258E+01
CGA:  34    -0.413676557948E+03   -0.41474E+00   -0.41603E+00 19264   0.296E+02-0.172E-01
CGA:  35    -0.414340761343E+03   -0.66420E+00   -0.39445E+00 19264   0.538E+01 0.190E+02
CGA:  36    -0.414397152424E+03   -0.56391E-01   -0.65129E-01 19264   0.196E+01-0.662E+00
CGA:  37    -0.414717919661E+03   -0.32077E+00   -0.28269E+00 19264   0.591E+01 0.421E+00
CGA:  38    -0.414879708568E+03   -0.16179E+00   -0.18697E+00 19264   0.363E+01-0.663E+00
CGA:  39    -0.414965697557E+03   -0.85989E-01   -0.10215E+00 19264   0.177E+01-0.252E+00
CGA:  40    -0.415027053414E+03   -0.61356E-01   -0.64631E-01 19264   0.764E+00-0.323E-01
CGA:  41    -0.415050904335E+03   -0.23851E-01   -0.25188E-01 19264   0.619E+00-0.213E-01
CGA:  42    -0.415078704882E+03   -0.27801E-01   -0.28460E-01 19264   0.608E+00 0.755E-03
CGA:  43    -0.415112242717E+03   -0.33538E-01   -0.33842E-01 19264   0.583E+00 0.626E-02
CGA:  44    -0.415133842729E+03   -0.21600E-01   -0.21959E-01 19264   0.379E+00-0.288E-02
CGA:  45    -0.415147407135E+03   -0.13564E-01   -0.13781E-01 19264   0.188E+00-0.219E-02
CGA:  46    -0.415156196269E+03   -0.87891E-02   -0.89056E-02 19264   0.145E+00 0.895E-03
CGA:  47    -0.415161936649E+03   -0.57404E-02   -0.58324E-02 19264   0.115E+00-0.309E-03
CGA:  48    -0.415167375651E+03   -0.54390E-02   -0.54964E-02 19264   0.697E-01 0.766E-03
CGA:  49    -0.415170426761E+03   -0.30511E-02   -0.30769E-02 19264   0.541E-01 0.159E-03
CGA:  50    -0.415172591761E+03   -0.21650E-02   -0.21848E-02 19264   0.352E-01 0.972E-05
CGA:  51    -0.415174658469E+03   -0.20667E-02   -0.20681E-02 19264   0.354E-01 0.337E-03
CGA:  52    -0.415176189325E+03   -0.15309E-02   -0.15363E-02 19264   0.256E-01 0.113E-04
CGA:  53    -0.415177339924E+03   -0.11506E-02   -0.11547E-02 19264   0.135E-01 0.144E-04
CGA:  54    -0.415177910596E+03   -0.57067E-03   -0.57143E-03 19264   0.905E-02-0.241E-04
CGA:  55    -0.415178325226E+03   -0.41463E-03   -0.41538E-03 19264   0.720E-02-0.938E-05
CGA:  56    -0.415178780243E+03   -0.45502E-03   -0.45467E-03 19264   0.885E-02 0.248E-04
CGA:  57    -0.415179411871E+03   -0.63163E-03   -0.60008E-03 19264   0.190E-01 0.217E-02
CGA:  58    -0.415182364830E+03   -0.29530E-02    0.10288E-01 19264   0.193E+00-0.284E-01
CGA:  59    -0.415185330997E+03   -0.29662E-02   -0.29458E-02 19264   0.618E-02 0.104E-02
CGA:  60    -0.415185627862E+03   -0.29686E-03   -0.29690E-03 19264   0.580E-02 0.104E-05
CGA:  61    -0.415187350779E+03   -0.17229E-02   -0.16389E-04 19264   0.159E-01-0.103E-02
CGA:  62    -0.415187684982E+03   -0.33420E-03   -0.38004E-03 19264   0.329E-02-0.109E-02
CGA:  63    -0.415187770233E+03   -0.85251E-04   -0.85448E-04 19264   0.155E-02 0.654E-05
CGA:  64    -0.415187886468E+03   -0.11624E-03   -0.11634E-03 19264   0.239E-02 0.104E-04
CGA:  65    -0.415187968713E+03   -0.82245E-04   -0.83718E-04 19264   0.706E-03-0.823E-05
CGA:  66    -0.415187994065E+03   -0.25352E-04   -0.25521E-04 19264   0.215E-03 0.176E-05
CGA:  67    -0.415188004698E+03   -0.10633E-04   -0.10677E-04 19264   0.287E-03-0.505E-06
CGA:  68    -0.415188033205E+03   -0.28507E-04   -0.28553E-04 19264   0.636E-03-0.359E-05
CGA:  69    -0.415188063709E+03   -0.30503E-04   -0.30417E-04 19264   0.413E-03-0.281E-05
CGA:  70    -0.415188075024E+03   -0.11316E-04   -0.11288E-04 19264   0.128E-03-0.191E-05
CGA:  71    -0.415188088423E+03   -0.13398E-04   -0.13466E-04 19264   0.493E-03-0.283E-05
CGA:  72    -0.415188119764E+03   -0.31342E-04   -0.31302E-04 19264   0.180E-03-0.283E-05
CGA:  73    -0.415188126058E+03   -0.62940E-05   -0.62309E-05 19264   0.808E-04-0.112E-05
   1 F= -.41518813E+03 E0= -.41515497E+03  d E =-.415188E+03  mag=    34.0000
       N       E                     dE             d eps       ncg     rms          ort
SDA:   1    -0.415206822567E+03   -0.18703E-01    0.00000E+00 19264   0.726E-01 0.000E+00
CGA:   2    -0.415208488193E+03   -0.16656E-02   -0.16633E-02 19264   0.285E-01 0.125E-03
CGA:   3    -0.415209614001E+03   -0.11258E-02   -0.11249E-02 19264   0.210E-01 0.361E-04
CGA:   4    -0.415211854966E+03   -0.22410E-02   -0.22403E-02 19264   0.228E-01 0.217E-04
CGA:   5    -0.415212555982E+03   -0.70102E-03   -0.69997E-03 19264   0.769E-02 0.246E-04
CGA:   6    -0.415212802431E+03   -0.24645E-03   -0.24640E-03 19264   0.395E-02-0.651E-05
CGA:   7    -0.415213155397E+03   -0.35297E-03   -0.35329E-03 19264   0.262E-02-0.170E-04
CGA:   8    -0.415213310471E+03   -0.15507E-03   -0.15497E-03 19264   0.712E-03-0.823E-05
CGA:   9    -0.415213333218E+03   -0.22747E-04   -0.22756E-04 19264   0.481E-03 0.938E-06
CGA:  10    -0.415213361742E+03   -0.28524E-04   -0.28545E-04 19264   0.564E-03 0.214E-05
CGA:  11    -0.415213393002E+03   -0.31260E-04   -0.31308E-04 19264   0.143E-03 0.372E-05
CGA:  12    -0.415213396285E+03   -0.32831E-05   -0.33063E-05 19264   0.708E-04 0.594E-06
   2 F= -.41521340E+03 E0= -.41518025E+03  d E =-.252702E-01  mag=    34.0000
       N       E                     dE             d eps       ncg     rms          ort
SDA:   1    -0.385472101255E+03    0.29741E+02    0.00000E+00 19264   0.339E+03 0.000E+00
CGA:   2    -0.392028771246E+03   -0.65567E+01   -0.87701E+01 19264   0.171E+03-0.848E+02
CGA:   3    -0.399903090369E+03   -0.78743E+01   -0.75894E+01 19264   0.196E+03-0.162E+02
CGA:   4    -0.407966501193E+03   -0.80634E+01   -0.80114E+01 19264   0.159E+03-0.105E+01
CGA:   5    -0.409906526715E+03   -0.19400E+01   -0.26546E+01 19264   0.121E+03-0.417E+02
CGA:   6    -0.412420051770E+03   -0.25135E+01   -0.25321E+01 19264   0.750E+02-0.269E+01
CGA:   7    -0.413324551410E+03   -0.90450E+00   -0.10287E+01 19264   0.392E+02-0.875E+01
CGA:   8    -0.414319365588E+03   -0.99481E+00   -0.99813E+00 19264   0.305E+02-0.534E-01
CGA:   9    -0.414762520638E+03   -0.44316E+00   -0.45031E+00 19264   0.179E+02-0.584E+00
CGA:  10    -0.415356445799E+03   -0.59393E+00   -0.57857E+00 19264   0.203E+02 0.715E-01
CGA:  11    -0.415648572704E+03   -0.29213E+00   -0.30773E+00 19264   0.109E+02-0.103E+01
CGA:  12    -0.415977141443E+03   -0.32857E+00   -0.32913E+00 19264   0.111E+02-0.164E-01
CGA:  13    -0.416115382163E+03   -0.13824E+00   -0.13988E+00 19264   0.370E+01-0.249E+00
CGA:  14    -0.416229548051E+03   -0.11417E+00   -0.11520E+00 19264   0.438E+01-0.166E-01
CGA:  15    -0.416296220616E+03   -0.66673E-01   -0.70447E-01 19264   0.255E+01-0.181E+00
CGA:  16    -0.416401892049E+03   -0.10567E+00   -0.10551E+00 19264   0.345E+01-0.240E-01
CGA:  17    -0.416453892049E+03   -0.52000E-01   -0.64857E-01 19264   0.200E+01-0.441E+00
CGA:  18    -0.416517889824E+03   -0.63998E-01   -0.65053E-01 19264   0.570E+00 0.460E-01
CGA:  19    -0.416530172803E+03   -0.12283E-01   -0.12254E-01 19264   0.314E+00 0.491E-03
CGA:  20    -0.416547665177E+03   -0.17492E-01   -0.17207E-01 19264   0.424E+00 0.171E-01
CGA:  21    -0.416564373396E+03   -0.16708E-01   -0.16651E-01 19264   0.441E+00-0.316E-02
CGA:  22    -0.416577402522E+03   -0.13029E-01   -0.13437E-01 19264   0.120E+00 0.445E-02
CGA:  23    -0.416580531064E+03   -0.31285E-02   -0.31980E-02 19264   0.722E-01-0.404E-03
CGA:  24    -0.416583652834E+03   -0.31218E-02   -0.31226E-02 19264   0.722E-01-0.323E-03
CGA:  25    -0.416588126102E+03   -0.44733E-02   -0.44518E-02 19264   0.131E+00 0.826E-03
CGA:  26    -0.416591932748E+03   -0.38066E-02   -0.38584E-02 19264   0.289E-01 0.228E-03
CGA:  27    -0.416593061004E+03   -0.11283E-02   -0.11283E-02 19264   0.144E-01-0.134E-04
CGA:  28    -0.416593632246E+03   -0.57124E-03   -0.57146E-03 19264   0.188E-01 0.381E-04
CGA:  29    -0.416594844563E+03   -0.12123E-02   -0.12104E-02 19264   0.176E-01 0.709E-04
CGA:  30    -0.416595375495E+03   -0.53093E-03   -0.53102E-03 19264   0.763E-02 0.205E-05
CGA:  31    -0.416595624498E+03   -0.24900E-03   -0.24949E-03 19264   0.288E-02 0.177E-04
SDA:  32    -0.416595870494E+03   -0.24600E-03   -0.24460E-03 19264   0.677E-02 0.380E-04
CGA:  33    -0.416595973150E+03   -0.10266E-03   -0.10284E-03 19264   0.952E-03-0.628E-05
CGA:  34    -0.416596071276E+03   -0.98126E-04   -0.96946E-04 19264   0.291E-02 0.182E-04
CGA:  35    -0.416596390627E+03   -0.31935E-03   -0.31590E-03 19264   0.265E-02 0.557E-04
CGA:  36    -0.416596449521E+03   -0.58893E-04   -0.59126E-04 19264   0.761E-03 0.614E-05
CGA:  37    -0.416596626122E+03   -0.17660E-03   -0.17761E-03 19264   0.182E-02-0.591E-05
CGA:  38    -0.416596711575E+03   -0.85453E-04   -0.85400E-04 19264   0.822E-03-0.414E-05
CGA:  39    -0.416596746193E+03   -0.34618E-04   -0.34636E-04 19264   0.109E-02 0.707E-06
CGA:  40    -0.416596854353E+03   -0.10816E-03   -0.10774E-03 19264   0.133E-02 0.978E-05
CGA:  41    -0.416596898719E+03   -0.44366E-04   -0.44431E-04 19264   0.684E-03 0.449E-05
CGA:  42    -0.416596921820E+03   -0.23101E-04   -0.23156E-04 19264   0.508E-03 0.400E-05
CGA:  43    -0.416596971928E+03   -0.50108E-04   -0.49832E-04 19264   0.659E-03 0.627E-05
CGA:  44    -0.416597022882E+03   -0.50953E-04   -0.50864E-04 19264   0.793E-03 0.440E-05
CGA:  45    -0.416597043644E+03   -0.20762E-04   -0.20795E-04 19264   0.206E-03 0.311E-06
CGA:  46    -0.416597071009E+03   -0.27364E-04   -0.27789E-04 19264   0.761E-03-0.555E-05
CGA:  47    -0.416597104487E+03   -0.33479E-04   -0.33356E-04 19264   0.611E-03-0.772E-05
CGA:  48    -0.416597121198E+03   -0.16711E-04   -0.16566E-04 19264   0.115E-03-0.481E-05
CGA:  49    -0.416597132771E+03   -0.11573E-04   -0.11810E-04 19264   0.363E-03-0.534E-05
CGA:  50    -0.416597152098E+03   -0.19327E-04   -0.19285E-04 19264   0.362E-03-0.908E-05
CGA:  51    -0.416597167773E+03   -0.15675E-04   -0.15563E-04 19264   0.885E-04-0.705E-05
CGA:  52    -0.416597173004E+03   -0.52309E-05   -0.52320E-05 19264   0.990E-04-0.123E-05
   3 F= -.41659717E+03 E0= -.41656439E+03  d E =-.138378E+01  mag=    34.0000
       N       E                     dE             d eps       ncg     rms          ort
SDA:   1    -0.327856059990E+03    0.88741E+02    0.00000E+00 19264   0.146E+04 0.000E+00
CGA:   2    -0.354707345573E+03   -0.26851E+02   -0.35098E+02 19264   0.523E+03-0.485E+03
CGA:   3    -0.373059970832E+03   -0.18353E+02   -0.16421E+02 19264   0.441E+03-0.893E+02
CGA:   4    -0.392403703702E+03   -0.19344E+02   -0.18326E+02 19264   0.366E+03-0.727E+02
CGA:   5    -0.402380852439E+03   -0.99771E+01   -0.95067E+01 19264   0.247E+03-0.714E+01
CGA:   6    -0.407131220482E+03   -0.47504E+01   -0.54713E+01 19264   0.830E+02-0.193E+02
CGA:   7    -0.410060138778E+03   -0.29289E+01   -0.27814E+01 19264   0.794E+02-0.705E+00
CGA:   8    -0.412240420926E+03   -0.21803E+01   -0.22092E+01 19264   0.617E+02-0.346E+00
CGA:   9    -0.414271852653E+03   -0.20314E+01   -0.19678E+01 19264   0.607E+02-0.264E-01
CGA:  10    -0.415226983097E+03   -0.95513E+00   -0.98310E+00 19264   0.267E+02-0.343E+01
CGA:  11    -0.416033356389E+03   -0.80637E+00   -0.79461E+00 19264   0.121E+02-0.118E+00
CGA:  12    -0.416383147112E+03   -0.34979E+00   -0.36237E+00 19264   0.151E+02-0.123E+00
CGA:  13    -0.416677435610E+03   -0.29429E+00   -0.29014E+00 19264   0.967E+01 0.900E-02
CGA:  14    -0.416957014042E+03   -0.27958E+00   -0.28983E+00 19264   0.825E+01 0.812E-02
CGA:  15    -0.417134635529E+03   -0.17762E+00   -0.18234E+00 19264   0.369E+01-0.146E+00
CGA:  16    -0.417267194757E+03   -0.13256E+00   -0.13487E+00 19264   0.244E+01 0.122E+00
CGA:  17    -0.417332350786E+03   -0.65156E-01   -0.68392E-01 19264   0.237E+01-0.206E-01
CGA:  18    -0.417402768384E+03   -0.70418E-01   -0.71209E-01 19264   0.164E+01 0.543E-02
CGA:  19    -0.417450672651E+03   -0.47904E-01   -0.50226E-01 19264   0.123E+01 0.304E-01
CGA:  20    -0.417487762723E+03   -0.37090E-01   -0.38030E-01 19264   0.482E+00 0.143E-01
CGA:  21    -0.417506900859E+03   -0.19138E-01   -0.19156E-01 19264   0.455E+00 0.553E-02
CGA:  22    -0.417525794613E+03   -0.18894E-01   -0.18886E-01 19264   0.381E+00 0.118E-01
CGA:  23    -0.417543502763E+03   -0.17708E-01   -0.17633E-01 19264   0.274E+00 0.103E-01
CGA:  24    -0.417552092007E+03   -0.85892E-02   -0.87237E-02 19264   0.142E+00 0.274E-02
CGA:  25    -0.417558666796E+03   -0.65748E-02   -0.65643E-02 19264   0.109E+00 0.123E-02
CGA:  26    -0.417563659971E+03   -0.49932E-02   -0.49718E-02 19264   0.936E-01 0.283E-02
CGA:  27    -0.417567342966E+03   -0.36830E-02   -0.36870E-02 19264   0.461E-01 0.718E-03
CGA:  28    -0.417569115158E+03   -0.17722E-02   -0.17737E-02 19264   0.341E-01 0.268E-03
CGA:  29    -0.417570469415E+03   -0.13543E-02   -0.13544E-02 19264   0.246E-01 0.744E-04
CGA:  30    -0.417571657284E+03   -0.11879E-02   -0.11866E-02 19264   0.212E-01 0.123E-03
CGA:  31    -0.417572465190E+03   -0.80791E-03   -0.80850E-03 19264   0.115E-01 0.970E-04
SDA:  32    -0.417572999386E+03   -0.53420E-03   -0.53382E-03 19264   0.910E-02 0.515E-04
CGA:  33    -0.417573141015E+03   -0.14163E-03   -0.14184E-03 19264   0.197E-02-0.819E-05
CGA:  34    -0.417573533066E+03   -0.39205E-03   -0.12520E-05 19264   0.208E-01-0.444E-03
CGA:  35    -0.417574096331E+03   -0.56326E-03   -0.56612E-03 19264   0.118E-01 0.583E-05
CGA:  36    -0.417574334741E+03   -0.23841E-03   -0.24117E-03 19264   0.275E-02-0.816E-04
CGA:  37    -0.417574402396E+03   -0.67655E-04   -0.67919E-04 19264   0.239E-02-0.382E-05
CGA:  38    -0.417574741581E+03   -0.33918E-03   -0.33956E-03 19264   0.938E-02-0.937E-05
CGA:  39    -0.417574926644E+03   -0.18506E-03   -0.18622E-03 19264   0.136E-02-0.467E-04
CGA:  40    -0.417574971113E+03   -0.44469E-04   -0.44460E-04 19264   0.154E-02-0.245E-05
CGA:  41    -0.417575053991E+03   -0.82879E-04   -0.82785E-04 19264   0.240E-02-0.670E-05
CGA:  42    -0.417575158958E+03   -0.10497E-03   -0.10494E-03 19264   0.232E-02-0.802E-05
CGA:  43    -0.417575224790E+03   -0.65832E-04   -0.65986E-04 19264   0.145E-02-0.125E-04
CGA:  44    -0.417575275488E+03   -0.50698E-04   -0.50616E-04 19264   0.558E-03-0.273E-05
CGA:  45    -0.417575291642E+03   -0.16154E-04   -0.16155E-04 19264   0.649E-03 0.257E-06
CGA:  46    -0.417575367720E+03   -0.76078E-04   -0.75916E-04 19264   0.177E-02 0.187E-05
CGA:  47    -0.417575414226E+03   -0.46505E-04   -0.46926E-04 19264   0.655E-03-0.553E-05
CGA:  48    -0.417575430882E+03   -0.16657E-04   -0.16666E-04 19264   0.248E-03-0.358E-06
CGA:  49    -0.417575444523E+03   -0.13641E-04   -0.13631E-04 19264   0.614E-03-0.303E-05
CGA:  50    -0.417575486196E+03   -0.41673E-04   -0.41792E-04 19264   0.864E-03-0.119E-04
CGA:  51    -0.417575513807E+03   -0.27611E-04   -0.27466E-04 19264   0.388E-03-0.838E-05
CGA:  52    -0.417575521705E+03   -0.78977E-05   -0.78378E-05 19264   0.119E-03-0.211E-05
CGA:  53    -0.417575534477E+03   -0.12773E-04   -0.12780E-04 19264   0.517E-03-0.571E-06
CGA:  54    -0.417575557896E+03   -0.23419E-04   -0.23430E-04 19264   0.476E-03-0.206E-06
CGA:  55    -0.417575571648E+03   -0.13752E-04   -0.13751E-04 19264   0.108E-03-0.273E-06
CGA:  56    -0.417575574776E+03   -0.31278E-05   -0.31192E-05 19264   0.100E-03-0.271E-06
CGA:  57    -0.417575585213E+03   -0.10437E-04   -0.10535E-04 19264   0.253E-03-0.211E-05
CGA:  58    -0.417575594941E+03   -0.97277E-05   -0.96909E-05 19264   0.224E-03-0.206E-05
   4 F= -.41757559E+03 E0= -.41754324E+03  d E =-.978422E+00  mag=    34.0000
       N       E                     dE             d eps       ncg     rms          ort
SDA:   1    -0.414955538122E+03    0.26200E+01    0.00000E+00 19264   0.315E+02 0.000E+00
CGA:   2    -0.415446298916E+03   -0.49076E+00   -0.52342E+00 19264   0.814E+01-0.231E+01
CGA:   3    -0.416840239662E+03   -0.13939E+01   -0.14152E+01 19264   0.181E+02-0.276E+00
CGA:   4    -0.417198639881E+03   -0.35840E+00   -0.36892E+00 19264   0.333E+01-0.500E+00
CGA:   5    -0.417314223907E+03   -0.11558E+00   -0.11468E+00 19264   0.232E+01 0.496E-02
CGA:   6    -0.417497103974E+03   -0.18288E+00   -0.18251E+00 19264   0.355E+01 0.135E-01
CGA:   7    -0.417582302688E+03   -0.85199E-01   -0.83842E-01 19264   0.531E+00 0.340E-01
CGA:   8    -0.417606524670E+03   -0.24222E-01   -0.24273E-01 19264   0.387E+00 0.141E-02
CGA:   9    -0.417618808430E+03   -0.12284E-01   -0.12293E-01 19264   0.257E+00-0.413E-04
CGA:  10    -0.417633763314E+03   -0.14955E-01   -0.14939E-01 19264   0.196E+00 0.241E-02
CGA:  11    -0.417641332272E+03   -0.75690E-02   -0.75638E-02 19264   0.103E+00-0.509E-04
CGA:  12    -0.417643750059E+03   -0.24178E-02   -0.24347E-02 19264   0.243E-01-0.421E-03
CGA:  13    -0.417646710563E+03   -0.29605E-02   -0.29721E-02 19264   0.764E-01-0.175E-03
CGA:  14    -0.417648714367E+03   -0.20038E-02   -0.20334E-02 19264   0.120E-01-0.529E-03
CGA:  15    -0.417649147683E+03   -0.43332E-03   -0.43355E-03 19264   0.627E-02-0.377E-05
CGA:  16    -0.417649449646E+03   -0.30196E-03   -0.30211E-03 19264   0.878E-02 0.916E-05
CGA:  17    -0.417649946748E+03   -0.49710E-03   -0.49724E-03 19264   0.688E-02-0.308E-04
CGA:  18    -0.417650268067E+03   -0.32132E-03   -0.32159E-03 19264   0.453E-02 0.102E-04
CGA:  19    -0.417650386974E+03   -0.11891E-03   -0.11876E-03 19264   0.139E-02-0.131E-05
CGA:  20    -0.417650461699E+03   -0.74725E-04   -0.74721E-04 19264   0.145E-02-0.621E-06
CGA:  21    -0.417650561404E+03   -0.99704E-04   -0.99770E-04 19264   0.291E-02-0.481E-05
CGA:  22    -0.417650667337E+03   -0.10593E-03   -0.10616E-03 19264   0.466E-03 0.737E-06
CGA:  23    -0.417650685282E+03   -0.17946E-04   -0.17974E-04 19264   0.440E-03 0.129E-05
CGA:  24    -0.417650707664E+03   -0.22382E-04   -0.22385E-04 19264   0.500E-03 0.503E-05
CGA:  25    -0.417650742395E+03   -0.34731E-04   -0.34559E-04 19264   0.330E-03 0.955E-05
CGA:  26    -0.417650750695E+03   -0.82995E-05   -0.83739E-05 19264   0.133E-03 0.171E-05
   5 F= -.41765075E+03 E0= -.41761834E+03  d E =-.751558E-01  mag=    34.0000
       N       E                     dE             d eps       ncg     rms          ort
SDA:   1    -0.406449212326E+03    0.11202E+02    0.00000E+00 19264   0.449E+02 0.000E+00
CGA:   2    -0.408038893439E+03   -0.15897E+01   -0.16125E+01 19264   0.651E+02-0.832E-01
CGA:   3    -0.414255867765E+03   -0.62170E+01   -0.64589E+01 19264   0.813E+02-0.811E+01
CGA:   4    -0.415689757839E+03   -0.14339E+01   -0.12838E+01 19264   0.124E+02 0.643E+01
CGA:   5    -0.416100331317E+03   -0.41057E+00   -0.41775E+00 19264   0.112E+02-0.685E-01
CGA:   6    -0.416716636083E+03   -0.61630E+00   -0.61728E+00 19264   0.283E+02-0.103E+00
CGA:   7    -0.417385998614E+03   -0.66936E+00   -0.67445E+00 19264   0.295E+01-0.147E+00
CGA:   8    -0.417470080267E+03   -0.84082E-01   -0.86600E-01 19264   0.274E+01-0.187E-01
CGA:   9    -0.417533830983E+03   -0.63751E-01   -0.63148E-01 19264   0.118E+01 0.145E-01
CGA:  10    -0.417597866656E+03   -0.64036E-01   -0.63898E-01 19264   0.152E+01 0.119E-01
CGA:  11    -0.417655428191E+03   -0.57562E-01   -0.58571E-01 19264   0.102E+01 0.315E-01
CGA:  12    -0.417678332687E+03   -0.22904E-01   -0.22671E-01 19264   0.261E+00 0.529E-02
CGA:  13    -0.417686121437E+03   -0.77887E-02   -0.78652E-02 19264   0.174E+00-0.858E-04
CGA:  14    -0.417695752739E+03   -0.96313E-02   -0.96124E-02 19264   0.218E+00 0.116E-02
CGA:  15    -0.417708379606E+03   -0.12627E-01   -0.12647E-01 19264   0.137E+00-0.128E-02
CGA:  16    -0.417711216384E+03   -0.28368E-02   -0.28919E-02 19264   0.337E-01-0.139E-02
CGA:  17    -0.417712358131E+03   -0.11417E-02   -0.11418E-02 19264   0.279E-01-0.466E-04
CGA:  18    -0.417714704982E+03   -0.23469E-02   -0.23315E-02 19264   0.525E-01 0.351E-03
CGA:  19    -0.417716802961E+03   -0.20980E-02   -0.21006E-02 19264   0.170E-01 0.118E-03
CGA:  20    -0.417717322391E+03   -0.51943E-03   -0.51923E-03 19264   0.635E-02-0.138E-04
CGA:  21    -0.417717583855E+03   -0.26146E-03   -0.26151E-03 19264   0.706E-02 0.342E-05
CGA:  22    -0.417717911980E+03   -0.32812E-03   -0.32813E-03 19264   0.740E-02-0.359E-05
CGA:  23    -0.417718365892E+03   -0.45391E-03   -0.45348E-03 19264   0.682E-02 0.162E-04
CGA:  24    -0.417718566521E+03   -0.20063E-03   -0.20075E-03 19264   0.137E-02 0.188E-05
CGA:  25    -0.417718627882E+03   -0.61360E-04   -0.61360E-04 19264   0.140E-02 0.379E-05
CGA:  26    -0.417718731351E+03   -0.10347E-03   -0.10287E-03 19264   0.261E-02 0.202E-04
CGA:  27    -0.417718825702E+03   -0.94351E-04   -0.94545E-04 19264   0.134E-02 0.182E-04
CGA:  28    -0.417718864470E+03   -0.38767E-04   -0.38898E-04 19264   0.351E-03 0.562E-05
CGA:  29    -0.417718881748E+03   -0.17278E-04   -0.17268E-04 19264   0.475E-03 0.719E-06
CGA:  30    -0.417718923959E+03   -0.42211E-04   -0.42018E-04 19264   0.565E-03 0.269E-05
CGA:  31    -0.417718946159E+03   -0.22200E-04   -0.22222E-04 19264   0.298E-03 0.114E-05
SDA:  32    -0.417718957647E+03   -0.11488E-04   -0.11502E-04 19264   0.187E-03 0.528E-06
CGA:  33    -0.417718961792E+03   -0.41447E-05   -0.41559E-05 19264   0.106E-03-0.688E-06
   6 F= -.41771896E+03 E0= -.41768639E+03  d E =-.682111E-01  mag=    34.0000
       N       E                     dE             d eps       ncg     rms          ort
SDA:   1    -0.415690475926E+03    0.20285E+01    0.00000E+00 19264   0.725E+01 0.000E+00
CGA:   2    -0.416039729872E+03   -0.34925E+00   -0.34931E+00 19264   0.145E+02-0.233E-01
CGA:   3    -0.416986750060E+03   -0.94702E+00   -0.94940E+00 19264   0.123E+02-0.983E-01
CGA:   4    -0.417341187717E+03   -0.35444E+00   -0.35864E+00 19264   0.279E+01-0.242E-01
CGA:   5    -0.417431160706E+03   -0.89973E-01   -0.90282E-01 19264   0.222E+01 0.830E-03
CGA:   6    -0.417610458397E+03   -0.17930E+00   -0.17974E+00 19264   0.144E+01-0.118E-01
CGA:   7    -0.417679607442E+03   -0.69149E-01   -0.69144E-01 19264   0.412E+00 0.169E-01
CGA:   8    -0.417692298094E+03   -0.12691E-01   -0.12673E-01 19264   0.220E+00 0.959E-04
CGA:   9    -0.417703395827E+03   -0.11098E-01   -0.11097E-01 19264   0.171E+00 0.230E-03
CGA:  10    -0.417715515289E+03   -0.12119E-01   -0.12107E-01 19264   0.837E-01 0.434E-03
CGA:  11    -0.417718291414E+03   -0.27761E-02   -0.27807E-02 19264   0.362E-01 0.269E-04
CGA:  12    -0.417719378264E+03   -0.10868E-02   -0.10857E-02 19264   0.237E-01 0.172E-04
CGA:  13    -0.417721510417E+03   -0.21322E-02   -0.21309E-02 19264   0.448E-01 0.310E-04
CGA:  14    -0.417722602616E+03   -0.10922E-02   -0.10939E-02 19264   0.597E-02-0.381E-04
CGA:  15    -0.417722846072E+03   -0.24346E-03   -0.24350E-03 19264   0.302E-02 0.548E-06
CGA:  16    -0.417723197417E+03   -0.35135E-03   -0.35112E-03 19264   0.799E-02 0.384E-05
CGA:  17    -0.417723458760E+03   -0.26134E-03   -0.26139E-03 19264   0.238E-02-0.438E-05
CGA:  18    -0.417723555805E+03   -0.97045E-04   -0.97063E-04 19264   0.960E-03-0.685E-06
CGA:  19    -0.417723591337E+03   -0.35533E-04   -0.35534E-04 19264   0.109E-02-0.659E-06
CGA:  20    -0.417723654940E+03   -0.63603E-04   -0.63594E-04 19264   0.118E-02 0.823E-07
CGA:  21    -0.417723729199E+03   -0.74259E-04   -0.74232E-04 19264   0.796E-03 0.140E-05
CGA:  22    -0.417723750216E+03   -0.21017E-04   -0.21043E-04 19264   0.213E-03 0.166E-06
CGA:  23    -0.417723761351E+03   -0.11134E-04   -0.11127E-04 19264   0.220E-03 0.137E-05
CGA:  24    -0.417723789063E+03   -0.27712E-04   -0.27169E-04 19264   0.315E-03 0.688E-05
CGA:  25    -0.417723795596E+03   -0.65336E-05   -0.65902E-05 19264   0.558E-04 0.131E-05
   7 F= -.41772380E+03 E0= -.41769125E+03  d E =-.483380E-02  mag=    34.0000
       N       E                     dE             d eps       ncg     rms          ort
SDA:   1    -0.401914799793E+03    0.15809E+02    0.00000E+00 19264   0.500E+02 0.000E+00
CGA:   2    -0.405027178826E+03   -0.31124E+01   -0.30911E+01 19264   0.133E+03 0.153E+01
CGA:   3    -0.413765671861E+03   -0.87385E+01   -0.88971E+01 19264   0.520E+02-0.116E+02
CGA:   4    -0.414719962936E+03   -0.95429E+00   -0.94951E+00 19264   0.186E+02-0.575E+00
CGA:   5    -0.415744639949E+03   -0.10247E+01   -0.10207E+01 19264   0.246E+02 0.478E+00
CGA:   6    -0.416790521750E+03   -0.10459E+01   -0.10364E+01 19264   0.164E+02-0.248E+00
CGA:   7    -0.417217946645E+03   -0.42742E+00   -0.44616E+00 19264   0.584E+01-0.284E+00
CGA:   8    -0.417395046522E+03   -0.17710E+00   -0.17238E+00 19264   0.239E+01 0.360E-01
CGA:   9    -0.417460123539E+03   -0.65077E-01   -0.67086E-01 19264   0.173E+01-0.206E-01
CGA:  10    -0.417559915978E+03   -0.99792E-01   -0.99517E-01 19264   0.225E+01 0.181E-01
CGA:  11    -0.417624053350E+03   -0.64137E-01   -0.65286E-01 19264   0.611E+00-0.703E-02
CGA:  12    -0.417642649652E+03   -0.18596E-01   -0.18780E-01 19264   0.242E+00 0.140E-04
CGA:  13    -0.417655187872E+03   -0.12538E-01   -0.12544E-01 19264   0.349E+00-0.545E-03
CGA:  14    -0.417677850054E+03   -0.22662E-01   -0.22041E-01 19264   0.130E+00 0.271E-01
CGA:  15    -0.417681594185E+03   -0.37441E-02   -0.37410E-02 19264   0.451E-01 0.305E-04
CGA:  16    -0.417683635205E+03   -0.20410E-02   -0.20417E-02 19264   0.497E-01 0.335E-03
CGA:  17    -0.417687165637E+03   -0.35304E-02   -0.34956E-02 19264   0.663E-01 0.116E-02
CGA:  18    -0.417688971545E+03   -0.18059E-02   -0.18011E-02 19264   0.206E-01 0.299E-04
CGA:  19    -0.417689722004E+03   -0.75046E-03   -0.75314E-03 19264   0.103E-01 0.605E-04
CGA:  20    -0.417690281430E+03   -0.55943E-03   -0.55976E-03 19264   0.139E-01-0.359E-04
CGA:  21    -0.417691143538E+03   -0.86211E-03   -0.85623E-03 19264   0.103E-01 0.282E-03
CGA:  22    -0.417691558102E+03   -0.41456E-03   -0.41451E-03 19264   0.487E-02 0.116E-05
CGA:  23    -0.417691701981E+03   -0.14388E-03   -0.14426E-03 19264   0.267E-02 0.136E-05
CGA:  24    -0.417691891382E+03   -0.18940E-03   -0.18909E-03 19264   0.537E-02 0.108E-04
CGA:  25    -0.417692110987E+03   -0.21960E-03   -0.21973E-03 19264   0.265E-02 0.134E-04
CGA:  26    -0.417692207666E+03   -0.96679E-04   -0.96784E-04 19264   0.755E-03 0.636E-05
CGA:  27    -0.417692241808E+03   -0.34143E-04   -0.34147E-04 19264   0.933E-03 0.260E-05
CGA:  28    -0.417692318554E+03   -0.76746E-04   -0.76290E-04 19264   0.902E-03 0.115E-04
CGA:  29    -0.417692346038E+03   -0.27483E-04   -0.27573E-04 19264   0.385E-03 0.374E-05
CGA:  30    -0.417692358502E+03   -0.12464E-04   -0.12507E-04 19264   0.221E-03 0.189E-05
CGA:  31    -0.417692373303E+03   -0.14801E-04   -0.14706E-04 19264   0.375E-03 0.388E-05
SDA:  32    -0.417692391930E+03   -0.18627E-04   -0.18618E-04 19264   0.231E-03 0.552E-05
CGA:  33    -0.417692396537E+03   -0.46070E-05   -0.46123E-05 19264   0.644E-04-0.802E-06
   8 F= -.41769240E+03 E0= -.41765970E+03  d E =0.313991E-01  mag=    34.0000
       N       E                     dE             d eps       ncg     rms          ort
SDA:   1    -0.412790592393E+03    0.49018E+01    0.00000E+00 19264   0.237E+02 0.000E+00
CGA:   2    -0.413641032027E+03   -0.85044E+00   -0.85136E+00 19264   0.241E+02-0.272E-01
CGA:   3    -0.415402501879E+03   -0.17615E+01   -0.17777E+01 19264   0.291E+02-0.482E+00
CGA:   4    -0.416593836777E+03   -0.11913E+01   -0.11830E+01 19264   0.849E+01-0.527E+00
CGA:   5    -0.416991946769E+03   -0.39811E+00   -0.39863E+00 19264   0.665E+01-0.334E+00
CGA:   6    -0.417235557513E+03   -0.24361E+00   -0.24372E+00 19264   0.482E+01 0.414E-02
CGA:   7    -0.417505787803E+03   -0.27023E+00   -0.27074E+00 19264   0.284E+01-0.351E-01
CGA:   8    -0.417572758992E+03   -0.66971E-01   -0.67825E-01 19264   0.956E+00-0.171E-01
CGA:   9    -0.417603871432E+03   -0.31112E-01   -0.31096E-01 19264   0.390E+00 0.179E-03
CGA:  10    -0.417624383089E+03   -0.20512E-01   -0.20509E-01 19264   0.573E+00 0.119E-03
CGA:  11    -0.417651463022E+03   -0.27080E-01   -0.27070E-01 19264   0.151E+00 0.357E-02
CGA:  12    -0.417656174325E+03   -0.47113E-02   -0.47200E-02 19264   0.581E-01-0.349E-04
CGA:  13    -0.417659673585E+03   -0.34993E-02   -0.34853E-02 19264   0.920E-01 0.672E-03
CGA:  14    -0.417664630721E+03   -0.49571E-02   -0.49574E-02 19264   0.439E-01 0.121E-05
CGA:  15    -0.417666113315E+03   -0.14826E-02   -0.14842E-02 19264   0.245E-01 0.284E-04
CGA:  16    -0.417666889066E+03   -0.77575E-03   -0.77627E-03 19264   0.103E-01 0.148E-05
CGA:  17    -0.417667320619E+03   -0.43155E-03   -0.43157E-03 19264   0.109E-01 0.380E-05
CGA:  18    -0.417668079506E+03   -0.75889E-03   -0.75575E-03 19264   0.136E-01 0.105E-03
CGA:  19    -0.417668563028E+03   -0.48352E-03   -0.48365E-03 19264   0.249E-02 0.222E-05
CGA:  20    -0.417668665748E+03   -0.10272E-03   -0.10275E-03 19264   0.257E-02 0.322E-05
CGA:  21    -0.417668879687E+03   -0.21394E-03   -0.21351E-03 19264   0.339E-02 0.104E-04
CGA:  22    -0.417669032531E+03   -0.15284E-03   -0.15288E-03 19264   0.190E-02 0.103E-04
CGA:  23    -0.417669090848E+03   -0.58317E-04   -0.58363E-04 19264   0.904E-03 0.197E-05
CGA:  24    -0.417669128764E+03   -0.37916E-04   -0.37920E-04 19264   0.737E-03 0.703E-06
CGA:  25    -0.417669163804E+03   -0.35040E-04   -0.35037E-04 19264   0.888E-03 0.118E-05
CGA:  26    -0.417669222658E+03   -0.58854E-04   -0.58834E-04 19264   0.521E-03 0.629E-06
CGA:  27    -0.417669238731E+03   -0.16073E-04   -0.16085E-04 19264   0.176E-03-0.279E-06
CGA:  28    -0.417669246393E+03   -0.76617E-05   -0.76627E-05 19264   0.147E-03-0.400E-06
CGA:  29    -0.417669260753E+03   -0.14360E-04   -0.14291E-04 19264   0.277E-03 0.901E-06
CGA:  30    -0.417669268578E+03   -0.78247E-05   -0.78377E-05 19264   0.800E-04 0.292E-06
   9 F= -.41766927E+03 E0= -.41763680E+03  d E =0.231280E-01  mag=    34.0000
       N       E                     dE             d eps       ncg     rms          ort
SDA:   1    -0.414504240870E+03    0.31650E+01    0.00000E+00 19264   0.653E+02 0.000E+00
CGA:   2    -0.415458048981E+03   -0.95381E+00   -0.98148E+00 19264   0.803E+01-0.429E+01
CGA:   3    -0.416430492628E+03   -0.97244E+00   -0.96734E+00 19264   0.193E+02 0.672E-01
CGA:   4    -0.417016250829E+03   -0.58576E+00   -0.58360E+00 19264   0.781E+01-0.544E-01
CGA:   5    -0.417268755983E+03   -0.25251E+00   -0.25058E+00 19264   0.294E+01-0.596E-02
CGA:   6    -0.417443458835E+03   -0.17470E+00   -0.17449E+00 19264   0.345E+01 0.138E-01
CGA:   7    -0.417562481265E+03   -0.11902E+00   -0.11875E+00 19264   0.211E+01-0.204E-02
CGA:   8    -0.417652312589E+03   -0.89831E-01   -0.89783E-01 19264   0.661E+00-0.332E-02
CGA:   9    -0.417670968683E+03   -0.18656E-01   -0.18663E-01 19264   0.311E+00 0.988E-03
CGA:  10    -0.417682895361E+03   -0.11927E-01   -0.11931E-01 19264   0.206E+00 0.259E-03
CGA:  11    -0.417698315794E+03   -0.15420E-01   -0.15409E-01 19264   0.238E+00 0.403E-03
CGA:  12    -0.417703714321E+03   -0.53985E-02   -0.54335E-02 19264   0.415E-01-0.782E-03
CGA:  13    -0.417705533712E+03   -0.18194E-02   -0.18194E-02 19264   0.348E-01 0.163E-04
CGA:  14    -0.417707618162E+03   -0.20844E-02   -0.20819E-02 19264   0.555E-01 0.147E-03
CGA:  15    -0.417709691741E+03   -0.20736E-02   -0.20736E-02 19264   0.140E-01-0.212E-05
CGA:  16    -0.417710218707E+03   -0.52697E-03   -0.52742E-03 19264   0.979E-02 0.155E-04
CGA:  17    -0.417710544477E+03   -0.32577E-03   -0.32573E-03 19264   0.468E-02 0.314E-05
CGA:  18    -0.417710899194E+03   -0.35472E-03   -0.35384E-03 19264   0.828E-02 0.286E-04
CGA:  19    -0.417711236027E+03   -0.33683E-03   -0.33689E-03 19264   0.508E-02 0.930E-05
CGA:  20    -0.417711393971E+03   -0.15794E-03   -0.15806E-03 19264   0.117E-02 0.292E-05
CGA:  21    -0.417711451276E+03   -0.57306E-04   -0.57300E-04 19264   0.182E-02 0.998E-06
CGA:  22    -0.417711565889E+03   -0.11461E-03   -0.11449E-03 19264   0.175E-02 0.621E-05
CGA:  23    -0.417711640518E+03   -0.74629E-04   -0.74637E-04 19264   0.890E-03 0.107E-05
CGA:  24    -0.417711664483E+03   -0.23965E-04   -0.23967E-04 19264   0.342E-03-0.554E-06
CGA:  25    -0.417711686569E+03   -0.22086E-04   -0.22115E-04 19264   0.428E-03-0.202E-05
CGA:  26    -0.417711706306E+03   -0.19737E-04   -0.19737E-04 19264   0.451E-03-0.191E-05
CGA:  27    -0.417711726235E+03   -0.19929E-04   -0.19925E-04 19264   0.223E-03-0.217E-05
CGA:  28    -0.417711733773E+03   -0.75381E-05   -0.75297E-05 19264   0.861E-04-0.103E-05
  10 F= -.41771173E+03 E0= -.41767943E+03  d E =-.424652E-01  mag=    34.0000
       N       E                     dE             d eps       ncg     rms          ort
SDA:   1    -0.417411086657E+03    0.30064E+00    0.00000E+00 19264   0.410E+01 0.000E+00
CGA:   2    -0.417472395922E+03   -0.61309E-01   -0.61579E-01 19264   0.753E+00-0.243E-01
CGA:   3    -0.417619837744E+03   -0.14744E+00   -0.14765E+00 19264   0.135E+01-0.162E-02
CGA:   4    -0.417665506378E+03   -0.45669E-01   -0.45595E-01 19264   0.206E+00 0.495E-04
CGA:   5    -0.417682901638E+03   -0.17395E-01   -0.17446E-01 19264   0.472E+00-0.131E-02
CGA:   6    -0.417696083192E+03   -0.13182E-01   -0.13187E-01 19264   0.180E+00-0.615E-04
CGA:   7    -0.417704649845E+03   -0.85667E-02   -0.85726E-02 19264   0.485E-01 0.772E-03
CGA:   8    -0.417706204587E+03   -0.15547E-02   -0.15521E-02 19264   0.300E-01 0.188E-04
CGA:   9    -0.417707602607E+03   -0.13980E-02   -0.13983E-02 19264   0.220E-01 0.429E-04
CGA:  10    -0.417709207107E+03   -0.16045E-02   -0.16043E-02 19264   0.790E-02 0.669E-05
CGA:  11    -0.417709543169E+03   -0.33606E-03   -0.33599E-03 19264   0.261E-02-0.188E-05
CGA:  12    -0.417709740900E+03   -0.19773E-03   -0.19779E-03 19264   0.631E-02-0.250E-05
CGA:  13    -0.417709992053E+03   -0.25115E-03   -0.25113E-03 19264   0.237E-02-0.311E-05
CGA:  14    -0.417710060622E+03   -0.68569E-04   -0.68562E-04 19264   0.659E-03-0.112E-05
CGA:  15    -0.417710080511E+03   -0.19889E-04   -0.19885E-04 19264   0.512E-03-0.451E-06
CGA:  16    -0.417710138908E+03   -0.58398E-04   -0.58345E-04 19264   0.555E-03 0.647E-06
CGA:  17    -0.417710169630E+03   -0.30721E-04   -0.30717E-04 19264   0.219E-03 0.939E-06
CGA:  18    -0.417710176608E+03   -0.69779E-05   -0.69910E-05 19264   0.139E-03 0.426E-06
  11 F= -.41771018E+03 E0= -.41767787E+03  d E =0.155717E-02  mag=    34.0000
       N       E                     dE             d eps       ncg     rms          ort
SDA:   1    -0.417303737129E+03    0.40643E+00    0.00000E+00 19264   0.169E+01 0.000E+00
CGA:   2    -0.417353144507E+03   -0.49407E-01   -0.49559E-01 19264   0.198E+01-0.168E-02
CGA:   3    -0.417592256364E+03   -0.23911E+00   -0.23925E+00 19264   0.166E+01-0.286E-02
CGA:   4    -0.417640021808E+03   -0.47765E-01   -0.47766E-01 19264   0.552E+00-0.102E-03
CGA:   5    -0.417659198810E+03   -0.19177E-01   -0.19181E-01 19264   0.361E+00 0.227E-04
CGA:   6    -0.417685907766E+03   -0.26709E-01   -0.26694E-01 19264   0.268E+00 0.580E-03
CGA:   7    -0.417699362934E+03   -0.13455E-01   -0.13459E-01 19264   0.469E-01 0.697E-03
CGA:   8    -0.417701616774E+03   -0.22538E-02   -0.22535E-02 19264   0.374E-01-0.122E-04
CGA:   9    -0.417702858130E+03   -0.12414E-02   -0.12424E-02 19264   0.306E-01 0.126E-05
CGA:  10    -0.417704778274E+03   -0.19201E-02   -0.19189E-02 19264   0.225E-01 0.855E-04
CGA:  11    -0.417705387981E+03   -0.60971E-03   -0.60932E-03 19264   0.752E-02 0.103E-04
CGA:  12    -0.417705623063E+03   -0.23508E-03   -0.23523E-03 19264   0.272E-02-0.568E-06
CGA:  13    -0.417706045151E+03   -0.42209E-03   -0.42253E-03 19264   0.285E-02-0.450E-05
CGA:  14    -0.417706134327E+03   -0.89175E-04   -0.89153E-04 19264   0.941E-03-0.133E-05
CGA:  15    -0.417706160187E+03   -0.25860E-04   -0.25862E-04 19264   0.563E-03-0.681E-06
CGA:  16    -0.417706209535E+03   -0.49348E-04   -0.49276E-04 19264   0.935E-03 0.107E-05
CGA:  17    -0.417706245301E+03   -0.35766E-04   -0.35770E-04 19264   0.657E-03-0.665E-07
CGA:  18    -0.417706268936E+03   -0.23635E-04   -0.23656E-04 19264   0.153E-03 0.359E-06
CGA:  19    -0.417706278540E+03   -0.96040E-05   -0.95978E-05 19264   0.135E-03 0.229E-07
  12 F= -.41770628E+03 E0= -.41767400E+03  d E =0.389807E-02  mag=    34.0000
       N       E                     dE             d eps       ncg     rms          ort
SDA:   1    -0.412617874388E+03    0.50884E+01    0.00000E+00 19264   0.185E+02 0.000E+00
CGA:   2    -0.413294923453E+03   -0.67705E+00   -0.69030E+00 19264   0.306E+02-0.201E-01
CGA:   3    -0.416190717714E+03   -0.28958E+01   -0.29433E+01 19264   0.233E+02-0.151E+01
CGA:   4    -0.416868611240E+03   -0.67789E+00   -0.66566E+00 19264   0.423E+01 0.140E+00
CGA:   5    -0.417242099339E+03   -0.37349E+00   -0.37142E+00 19264   0.110E+02 0.545E-01
CGA:   6    -0.417489641597E+03   -0.24754E+00   -0.25433E+00 19264   0.349E+01-0.209E+00
CGA:   7    -0.417598493496E+03   -0.10885E+00   -0.11101E+00 19264   0.633E+00-0.133E-01
CGA:   8    -0.417625624169E+03   -0.27131E-01   -0.27126E-01 19264   0.805E+00 0.229E-03
CGA:   9    -0.417663171361E+03   -0.37547E-01   -0.37515E-01 19264   0.638E+00-0.228E-02
CGA:  10    -0.417684459957E+03   -0.21289E-01   -0.21822E-01 19264   0.341E+00 0.570E-03
CGA:  11    -0.417693017156E+03   -0.85572E-02   -0.84714E-02 19264   0.112E+00 0.178E-02
CGA:  12    -0.417698847542E+03   -0.58304E-02   -0.58259E-02 19264   0.717E-01 0.117E-02
CGA:  13    -0.417704966575E+03   -0.61190E-02   -0.61250E-02 19264   0.943E-01-0.403E-03
CGA:  14    -0.417707897944E+03   -0.29314E-02   -0.29868E-02 19264   0.337E-01-0.212E-03
CGA:  15    -0.417708710626E+03   -0.81268E-03   -0.80903E-03 19264   0.820E-02 0.747E-04
CGA:  16    -0.417709291549E+03   -0.58092E-03   -0.57701E-03 19264   0.208E-01 0.142E-03
CGA:  17    -0.417710352994E+03   -0.10614E-02   -0.10614E-02 19264   0.103E-01-0.717E-04
CGA:  18    -0.417710706953E+03   -0.35396E-03   -0.35487E-03 19264   0.294E-02 0.673E-05
CGA:  19    -0.417710793981E+03   -0.87028E-04   -0.87000E-04 19264   0.205E-02-0.687E-06
CGA:  20    -0.417710973027E+03   -0.17905E-03   -0.17761E-03 19264   0.439E-02 0.335E-04
CGA:  21    -0.417711177935E+03   -0.20491E-03   -0.20489E-03 19264   0.234E-02-0.744E-06
CGA:  22    -0.417711237288E+03   -0.59353E-04   -0.59578E-04 19264   0.531E-03-0.382E-05
CGA:  23    -0.417711276390E+03   -0.39102E-04   -0.39095E-04 19264   0.104E-02-0.137E-05
CGA:  24    -0.417711318260E+03   -0.41871E-04   -0.41915E-04 19264   0.832E-03 0.102E-05
CGA:  25    -0.417711363109E+03   -0.44848E-04   -0.44844E-04 19264   0.478E-03 0.835E-07
CGA:  26    -0.417711376176E+03   -0.13068E-04   -0.13098E-04 19264   0.145E-03-0.443E-06
CGA:  27    -0.417711381810E+03   -0.56332E-05   -0.56422E-05 19264   0.109E-03-0.632E-07
  13 F= -.41771138E+03 E0= -.41767896E+03  d E =-.510327E-02  mag=    34.0000
       N       E                     dE             d eps       ncg     rms          ort
SDA:   1    -0.408883208002E+03    0.88282E+01    0.00000E+00 19264   0.314E+02 0.000E+00
CGA:   2    -0.410420015980E+03   -0.15368E+01   -0.15366E+01 19264   0.576E+02-0.892E-01
CGA:   3    -0.414634491706E+03   -0.42145E+01   -0.42689E+01 19264   0.467E+02-0.232E+01
CGA:   4    -0.416069992072E+03   -0.14355E+01   -0.13853E+01 19264   0.123E+02 0.285E+00
CGA:   5    -0.416560275447E+03   -0.49028E+00   -0.48859E+00 19264   0.142E+02-0.211E-01
CGA:   6    -0.417075999609E+03   -0.51572E+00   -0.51393E+00 19264   0.793E+01-0.844E-02
CGA:   7    -0.417459310748E+03   -0.38331E+00   -0.38390E+00 19264   0.574E+01 0.423E+00
CGA:   8    -0.417602268539E+03   -0.14296E+00   -0.13870E+00 19264   0.137E+01 0.104E+00
CGA:   9    -0.417642584920E+03   -0.40316E-01   -0.41370E-01 19264   0.704E+00-0.562E-02
CGA:  10    -0.417686604258E+03   -0.44019E-01   -0.43999E-01 19264   0.122E+01 0.117E-02
CGA:  11    -0.417729301130E+03   -0.42697E-01   -0.42727E-01 19264   0.520E+00 0.873E-03
CGA:  12    -0.417742499889E+03   -0.13199E-01   -0.13365E-01 19264   0.112E+00-0.236E-02
CGA:  13    -0.417748413683E+03   -0.59138E-02   -0.59161E-02 19264   0.156E+00-0.228E-03
CGA:  14    -0.417757319025E+03   -0.89053E-02   -0.87787E-02 19264   0.132E+00 0.838E-02
CGA:  15    -0.417762160295E+03   -0.48413E-02   -0.48340E-02 19264   0.305E-01-0.122E-03
CGA:  16    -0.417763077909E+03   -0.91761E-03   -0.92126E-03 19264   0.209E-01-0.382E-06
CGA:  17    -0.417764311193E+03   -0.12333E-02   -0.12331E-02 19264   0.255E-01 0.112E-04
CGA:  18    -0.417765377816E+03   -0.10666E-02   -0.10671E-02 19264   0.242E-01 0.505E-04
CGA:  19    -0.417766357085E+03   -0.97927E-03   -0.98145E-03 19264   0.886E-02 0.157E-03
CGA:  20    -0.417766676292E+03   -0.31921E-03   -0.31941E-03 19264   0.412E-02 0.509E-05
CGA:  21    -0.417766941927E+03   -0.26563E-03   -0.26492E-03 19264   0.766E-02 0.276E-04
CGA:  22    -0.417767455709E+03   -0.51378E-03   -0.51370E-03 19264   0.564E-02 0.352E-05
CGA:  23    -0.417767650113E+03   -0.19440E-03   -0.19463E-03 19264   0.201E-02 0.249E-05
CGA:  24    -0.417767721168E+03   -0.71054E-04   -0.71073E-04 19264   0.189E-02-0.340E-06
CGA:  25    -0.417767861811E+03   -0.14064E-03   -0.14055E-03 19264   0.320E-02 0.225E-05
CGA:  26    -0.417767984810E+03   -0.12300E-03   -0.12311E-03 19264   0.189E-02 0.414E-05
CGA:  27    -0.417768058344E+03   -0.73534E-04   -0.73562E-04 19264   0.652E-03 0.201E-05
CGA:  28    -0.417768088052E+03   -0.29708E-04   -0.29712E-04 19264   0.527E-03 0.283E-05
CGA:  29    -0.417768119063E+03   -0.31011E-04   -0.30933E-04 19264   0.745E-03 0.537E-05
CGA:  30    -0.417768164250E+03   -0.45186E-04   -0.45045E-04 19264   0.547E-03 0.101E-04
CGA:  31    -0.417768180151E+03   -0.15901E-04   -0.15971E-04 19264   0.230E-03 0.285E-05
SDA:  32    -0.417768188291E+03   -0.81396E-05   -0.81586E-05 19264   0.173E-03 0.930E-06
  14 F= -.41776819E+03 E0= -.41773616E+03  d E =-.568065E-01  mag=    34.0000
       N       E                     dE             d eps       ncg     rms          ort
SDA:   1    -0.293505901090E+03    0.12426E+03    0.00000E+00 19264   0.209E+04 0.000E+00
CGA:   2    -0.350068604917E+03   -0.56563E+02   -0.45756E+02 19264   0.357E+03-0.901E+02
CGA:   3    -0.364791756124E+03   -0.14723E+02   -0.14661E+02 19264   0.300E+03-0.284E+02
CGA:   4    -0.386708548059E+03   -0.21917E+02   -0.27536E+02 19264   0.813E+03-0.108E+03
CGA:   5    -0.395209524986E+03   -0.85010E+01   -0.90534E+01 19264   0.532E+03-0.241E+02
CGA:   6    -0.401036625461E+03   -0.58271E+01   -0.94856E+01 19264   0.223E+03-0.158E+03
CGA:   7    -0.403162343252E+03   -0.21257E+01   -0.23256E+01 19264   0.102E+03-0.126E+02
CGA:   8    -0.406259654803E+03   -0.30973E+01   -0.29813E+01 19264   0.192E+03-0.127E+01
CGA:   9    -0.410170985986E+03   -0.39113E+01   -0.39913E+01 19264   0.118E+03-0.578E+01
CGA:  10    -0.411889929902E+03   -0.17189E+01   -0.17384E+01 19264   0.880E+02-0.107E+01
CGA:  11    -0.413562491967E+03   -0.16726E+01   -0.15991E+01 19264   0.415E+02 0.213E+01
CGA:  12    -0.414035986087E+03   -0.47349E+00   -0.40398E+00 19264   0.175E+02 0.620E+01
CGA:  13    -0.414338944261E+03   -0.30296E+00   -0.26539E+00 19264   0.169E+02 0.205E+01
CGA:  14    -0.414606949525E+03   -0.26801E+00   -0.26156E+00 19264   0.179E+02 0.243E+00
CGA:  15    -0.414849967579E+03   -0.24302E+00   -0.23215E+00 19264   0.257E+02 0.511E+00
CGA:  16    -0.415359222124E+03   -0.50925E+00   -0.53137E+00 19264   0.577E+02-0.455E+00
CGA:  17    -0.415892426327E+03   -0.53320E+00   -0.53615E+00 19264   0.304E+02-0.273E+01
CGA:  18    -0.416078470074E+03   -0.18604E+00   -0.22888E+00 19264   0.155E+02-0.497E+01
CGA:  19    -0.416186085950E+03   -0.10762E+00   -0.11577E+00 19264   0.985E+01-0.717E+00
CGA:  20    -0.416257620871E+03   -0.71535E-01   -0.77967E-01 19264   0.426E+01-0.633E+00
CGA:  21    -0.416298417516E+03   -0.40797E-01   -0.43719E-01 19264   0.441E+01-0.182E+00
CGA:  22    -0.416409039178E+03   -0.11062E+00   -0.11118E+00 19264   0.115E+02 0.200E+00
CGA:  23    -0.416656877355E+03   -0.24784E+00   -0.25556E+00 19264   0.803E+01 0.328E+00
CGA:  24    -0.416786063849E+03   -0.12919E+00   -0.13589E+00 19264   0.398E+01-0.681E-01
CGA:  25    -0.416863163916E+03   -0.77100E-01   -0.78201E-01 19264   0.130E+01 0.283E-01
CGA:  26    -0.416884851345E+03   -0.21687E-01   -0.21888E-01 19264   0.727E+00-0.116E-02
CGA:  27    -0.416925661976E+03   -0.40811E-01   -0.40075E-01 19264   0.185E+01 0.254E-01
CGA:  28    -0.416983409116E+03   -0.57747E-01   -0.57530E-01 19264   0.130E+01 0.475E-01
CGA:  29    -0.417020194802E+03   -0.36786E-01   -0.36785E-01 19264   0.627E+00 0.771E-02
CGA:  30    -0.417033149095E+03   -0.12954E-01   -0.13013E-01 19264   0.213E+00 0.147E-02
CGA:  31    -0.417040412938E+03   -0.72638E-02   -0.72464E-02 19264   0.254E+00 0.182E-02
SDA:  32    -0.417052150550E+03   -0.11738E-01   -0.11679E-01 19264   0.298E+00 0.283E-02
CGA:  33    -0.417058940705E+03   -0.67902E-02   -0.67795E-02 19264   0.112E+00-0.481E-03
CGA:  34    -0.417063061666E+03   -0.41210E-02   -0.41046E-02 19264   0.826E-01 0.137E-02
CGA:  35    -0.417072033590E+03   -0.89719E-02   -0.88395E-02 19264   0.145E+00 0.207E-02
CGA:  36    -0.417080181722E+03   -0.81481E-02   -0.81289E-02 19264   0.108E+00 0.779E-03
CGA:  37    -0.417082553584E+03   -0.23719E-02   -0.23834E-02 19264   0.104E-01-0.482E-04
CGA:  38    -0.417083546420E+03   -0.99284E-03   -0.97877E-03 19264   0.261E-01 0.235E-03
CGA:  39    -0.417085514721E+03   -0.19683E-02    0.20505E-01 19264   0.229E-01 0.282E-01
CGA:  40    -0.417086257097E+03   -0.74238E-03   -0.74282E-03 19264   0.893E-02 0.481E-04
CGA:  41    -0.417087228760E+03   -0.97166E-03   -0.11675E-02 19264   0.875E-01-0.269E-02
CGA:  42    -0.417088362920E+03   -0.11342E-02   -0.11945E-02 19264   0.229E+00-0.946E-02
CGA:  43    -0.417091063128E+03   -0.27002E-02   -0.17405E-02 19264   0.146E+00 0.114E+00
CGA:  44    -0.417093569877E+03   -0.25067E-02   -0.25074E-02 19264   0.157E-01-0.323E-04
CGA:  45    -0.417094044563E+03   -0.47469E-03   -0.47471E-03 19264   0.294E-02-0.374E-05
CGA:  46    -0.417094307684E+03   -0.26312E-03   -0.26245E-03 19264   0.471E-02 0.126E-04
CGA:  47    -0.417094691940E+03   -0.38426E-03   -0.38507E-03 19264   0.740E-02-0.212E-04
CGA:  48    -0.417094870640E+03   -0.17870E-03   -0.17854E-03 19264   0.198E-02-0.115E-04
CGA:  49    -0.417094947313E+03   -0.76673E-04   -0.76710E-04 19264   0.625E-03 0.758E-05
CGA:  50    -0.417095064916E+03   -0.11760E-03   -0.11492E-03 19264   0.225E-02 0.179E-04
CGA:  51    -0.417095191599E+03   -0.12668E-03   -0.12677E-03 19264   0.255E-02-0.623E-05
CGA:  52    -0.417095253117E+03   -0.61518E-04   -0.62295E-04 19264   0.401E-03-0.799E-05
CGA:  53    -0.417095273495E+03   -0.20379E-04   -0.20373E-04 19264   0.361E-03-0.610E-06
CGA:  54    -0.417095295158E+03   -0.21663E-04   -0.21705E-04 19264   0.708E-03-0.392E-05
CGA:  55    -0.417095332049E+03   -0.36891E-04   -0.36899E-04 19264   0.284E-03-0.364E-05
CGA:  56    -0.417095343659E+03   -0.11610E-04   -0.11604E-04 19264   0.924E-04-0.177E-05
CGA:  57    -0.417095346055E+03   -0.23957E-05   -0.24032E-05 19264   0.646E-04-0.740E-06
  15 F= -.41709535E+03 E0= -.41706286E+03  d E =0.672842E+00  mag=    34.0000
       N       E                     dE             d eps       ncg     rms          ort
SDA:   1    -0.391200278571E+03    0.25895E+02    0.00000E+00 19264   0.352E+03 0.000E+00
CGA:   2    -0.398663239195E+03   -0.74630E+01   -0.75407E+01 19264   0.968E+02-0.274E+02
CGA:   3    -0.403911981797E+03   -0.52487E+01   -0.52966E+01 19264   0.121E+03-0.362E+01
CGA:   4    -0.411418356001E+03   -0.75064E+01   -0.82236E+01 19264   0.959E+02-0.308E+02
CGA:   5    -0.413879539212E+03   -0.24612E+01   -0.23927E+01 19264   0.402E+02-0.231E+00
CGA:   6    -0.414814933109E+03   -0.93539E+00   -0.96496E+00 19264   0.229E+02-0.568E+00
CGA:   7    -0.416309835271E+03   -0.14949E+01   -0.14831E+01 19264   0.360E+02 0.475E+00
CGA:   8    -0.417053708015E+03   -0.74387E+00   -0.73873E+00 19264   0.140E+02 0.626E-01
CGA:   9    -0.417417254716E+03   -0.36355E+00   -0.38797E+00 19264   0.500E+01-0.182E+00
CGA:  10    -0.417521883676E+03   -0.10463E+00   -0.10694E+00 19264   0.213E+01-0.562E-01
CGA:  11    -0.417666013981E+03   -0.14413E+00   -0.14403E+00 19264   0.347E+01 0.359E-02
CGA:  12    -0.417788695789E+03   -0.12268E+00   -0.12391E+00 19264   0.177E+01 0.291E-01
CGA:  13    -0.417834631131E+03   -0.45935E-01   -0.45528E-01 19264   0.496E+00 0.582E-02
CGA:  14    -0.417852718773E+03   -0.18088E-01   -0.18348E-01 19264   0.547E+00 0.112E-01
CGA:  15    -0.417883822247E+03   -0.31103E-01   -0.30895E-01 19264   0.774E+00 0.130E-01
CGA:  16    -0.417910444724E+03   -0.26622E-01   -0.27253E-01 19264   0.215E+00 0.165E-01
CGA:  17    -0.417916105567E+03   -0.56608E-02   -0.57105E-02 19264   0.984E-01-0.401E-03
CGA:  18    -0.417920617796E+03   -0.45122E-02   -0.45073E-02 19264   0.112E+00 0.943E-03
CGA:  19    -0.417928246578E+03   -0.76288E-02   -0.75623E-02 19264   0.127E+00 0.225E-02
CGA:  20    -0.417931759539E+03   -0.35130E-02   -0.35693E-02 19264   0.280E-01-0.288E-03
CGA:  21    -0.417933153109E+03   -0.13936E-02   -0.13925E-02 19264   0.267E-01 0.111E-03
CGA:  22    -0.417934779537E+03   -0.16264E-02   -0.16124E-02 19264   0.341E-01 0.658E-03
CGA:  23    -0.417936507857E+03   -0.17283E-02   -0.17284E-02 19264   0.189E-01-0.155E-04
CGA:  24    -0.417937207015E+03   -0.69916E-03   -0.70075E-03 19264   0.886E-02 0.650E-04
CGA:  25    -0.417937558604E+03   -0.35159E-03   -0.35167E-03 19264   0.838E-02 0.500E-05
CGA:  26    -0.417938140808E+03   -0.58220E-03   -0.58208E-03 19264   0.135E-01 0.237E-05
CGA:  27    -0.417938621859E+03   -0.48105E-03   -0.48165E-03 19264   0.598E-02 0.129E-04
CGA:  28    -0.417938856844E+03   -0.23499E-03   -0.23498E-03 19264   0.263E-02-0.240E-05
CGA:  29    -0.417938987535E+03   -0.13069E-03   -0.13063E-03 19264   0.316E-02 0.565E-05
CGA:  30    -0.417939228363E+03   -0.24083E-03   -0.24081E-03 19264   0.337E-02-0.264E-06
CGA:  31    -0.417939368264E+03   -0.13990E-03   -0.13994E-03 19264   0.162E-02 0.167E-05
SDA:  32    -0.417939428105E+03   -0.59841E-04   -0.59850E-04 19264   0.970E-03-0.967E-06
CGA:  33    -0.417939448462E+03   -0.20357E-04   -0.20373E-04 19264   0.446E-03-0.137E-05
CGA:  34    -0.417939495885E+03   -0.47423E-04   -0.47353E-04 19264   0.137E-02 0.601E-07
CGA:  35    -0.417939591691E+03   -0.95806E-04   -0.95761E-04 19264   0.128E-02 0.967E-06
CGA:  36    -0.417939619981E+03   -0.28291E-04   -0.28294E-04 19264   0.185E-03-0.424E-06
CGA:  37    -0.417939634624E+03   -0.14643E-04   -0.14615E-04 19264   0.267E-03-0.285E-07
CGA:  38    -0.417939676918E+03   -0.42293E-04   -0.42275E-04 19264   0.305E-03-0.422E-06
CGA:  39    -0.417939690274E+03   -0.13356E-04   -0.13355E-04 19264   0.106E-03-0.748E-06
CGA:  40    -0.417939694708E+03   -0.44340E-05   -0.44274E-05 19264   0.158E-03-0.111E-05
CGA:  41    -0.417939705286E+03   -0.10579E-04   -0.10600E-04 19264   0.141E-03-0.202E-05
CGA:  42    -0.417939712361E+03   -0.70746E-05   -0.70707E-05 19264   0.104E-03-0.170E-05
  16 F= -.41793971E+03 E0= -.41790721E+03  d E =-.844366E+00  mag=    34.0000
       N       E                     dE             d eps       ncg     rms          ort
SDA:   1    -0.413119483790E+03    0.48202E+01    0.00000E+00 19264   0.688E+02 0.000E+00
CGA:   2    -0.414486127511E+03   -0.13666E+01   -0.14239E+01 19264   0.179E+02-0.267E+01
CGA:   3    -0.415423940398E+03   -0.93781E+00   -0.93800E+00 19264   0.191E+02-0.204E-01
CGA:   4    -0.416559440501E+03   -0.11355E+01   -0.11413E+01 19264   0.200E+02-0.416E+00
CGA:   5    -0.417133513510E+03   -0.57407E+00   -0.57930E+00 19264   0.974E+01-0.782E-01
CGA:   6    -0.417482061045E+03   -0.34855E+00   -0.34730E+00 19264   0.402E+01-0.765E-02
CGA:   7    -0.417674056033E+03   -0.19199E+00   -0.19186E+00 19264   0.482E+01-0.345E-01
CGA:   8    -0.417912744852E+03   -0.23869E+00   -0.23869E+00 19264   0.209E+01-0.533E-02
CGA:   9    -0.417966002630E+03   -0.53258E-01   -0.53709E-01 19264   0.744E+00-0.734E-02
CGA:  10    -0.417985667506E+03   -0.19665E-01   -0.19497E-01 19264   0.271E+00 0.297E-02
CGA:  11    -0.418003407488E+03   -0.17740E-01   -0.17721E-01 19264   0.498E+00 0.859E-03
CGA:  12    -0.418024113013E+03   -0.20706E-01   -0.20718E-01 19264   0.917E-01 0.736E-03
CGA:  13    -0.418026688332E+03   -0.25753E-02   -0.25824E-02 19264   0.489E-01-0.524E-04
CGA:  14    -0.418029197420E+03   -0.25091E-02   -0.25089E-02 19264   0.758E-01 0.337E-04
CGA:  15    -0.418033463946E+03   -0.42665E-02   -0.42643E-02 19264   0.604E-01 0.183E-03
CGA:  16    -0.418034960026E+03   -0.14961E-02   -0.14989E-02 19264   0.790E-02-0.460E-04
CGA:  17    -0.418035419382E+03   -0.45936E-03   -0.45915E-03 19264   0.133E-01 0.126E-04
CGA:  18    -0.418036302557E+03   -0.88318E-03   -0.88245E-03 19264   0.159E-01 0.345E-04
CGA:  19    -0.418036771966E+03   -0.46941E-03   -0.47050E-03 19264   0.471E-02 0.265E-05
CGA:  20    -0.418036894379E+03   -0.12241E-03   -0.12256E-03 19264   0.199E-02 0.517E-06
CGA:  21    -0.418037051587E+03   -0.15721E-03   -0.15715E-03 19264   0.363E-02 0.130E-05
CGA:  22    -0.418037263795E+03   -0.21221E-03   -0.21214E-03 19264   0.297E-02 0.376E-05
CGA:  23    -0.418037354895E+03   -0.91100E-04   -0.91109E-04 19264   0.689E-03-0.910E-06
CGA:  24    -0.418037382390E+03   -0.27496E-04   -0.27494E-04 19264   0.762E-03-0.151E-05
CGA:  25    -0.418037419664E+03   -0.37274E-04   -0.37274E-04 19264   0.770E-03-0.978E-06
CGA:  26    -0.418037465385E+03   -0.45721E-04   -0.45728E-04 19264   0.912E-03-0.141E-05
CGA:  27    -0.418037495894E+03   -0.30509E-04   -0.30510E-04 19264   0.137E-03-0.965E-06
CGA:  28    -0.418037501402E+03   -0.55077E-05   -0.55084E-05 19264   0.124E-03-0.664E-06
CGA:  29    -0.418037511835E+03   -0.10433E-04   -0.10427E-04 19264   0.271E-03-0.485E-06
CGA:  30    -0.418037523300E+03   -0.11465E-04   -0.11467E-04 19264   0.133E-03-0.162E-06
CGA:  31    -0.418037526452E+03   -0.31523E-05   -0.31527E-05 19264   0.384E-04-0.528E-06
  17 F= -.41803753E+03 E0= -.41800521E+03  d E =-.978141E-01  mag=    34.0000
       N       E                     dE             d eps       ncg     rms          ort
SDA:   1    -0.417526928610E+03    0.51059E+00    0.00000E+00 19264   0.500E+01 0.000E+00
CGA:   2    -0.417621776270E+03   -0.94848E-01   -0.93599E-01 19264   0.157E+01 0.411E-01
CGA:   3    -0.417776036160E+03   -0.15426E+00   -0.15422E+00 19264   0.367E+01 0.174E-02
CGA:   4    -0.417904027202E+03   -0.12799E+00   -0.12787E+00 19264   0.143E+01-0.912E-03
CGA:   5    -0.417941987980E+03   -0.37961E-01   -0.38061E-01 19264   0.512E+00-0.211E-02
CGA:   6    -0.418019337967E+03   -0.77350E-01   -0.77437E-01 19264   0.223E+00-0.911E-03
CGA:   7    -0.418028416561E+03   -0.90786E-02   -0.91009E-02 19264   0.739E-01 0.496E-03
CGA:   8    -0.418032153140E+03   -0.37366E-02   -0.37367E-02 19264   0.108E+00 0.105E-03
CGA:   9    -0.418037337660E+03   -0.51845E-02   -0.51846E-02 19264   0.254E-01 0.222E-04
CGA:  10    -0.418038331793E+03   -0.99413E-03   -0.99420E-03 19264   0.101E-01 0.630E-05
CGA:  11    -0.418038897725E+03   -0.56593E-03   -0.56592E-03 19264   0.182E-01 0.276E-05
CGA:  12    -0.418039591435E+03   -0.69371E-03   -0.69392E-03 19264   0.863E-02 0.597E-05
CGA:  13    -0.418040006462E+03   -0.41503E-03   -0.41500E-03 19264   0.359E-02-0.502E-05
CGA:  14    -0.418040110080E+03   -0.10362E-03   -0.10370E-03 19264   0.174E-02-0.136E-06
CGA:  15    -0.418040215610E+03   -0.10553E-03   -0.10554E-03 19264   0.197E-02 0.207E-06
CGA:  16    -0.418040384094E+03   -0.16848E-03   -0.16845E-03 19264   0.738E-03 0.922E-06
CGA:  17    -0.418040401563E+03   -0.17469E-04   -0.17461E-04 19264   0.359E-03 0.457E-07
CGA:  18    -0.418040422262E+03   -0.20698E-04   -0.20694E-04 19264   0.445E-03 0.315E-06
CGA:  19    -0.418040454650E+03   -0.32389E-04   -0.32375E-04 19264   0.618E-03 0.499E-06
CGA:  20    -0.418040471353E+03   -0.16702E-04   -0.16712E-04 19264   0.103E-03 0.769E-07
CGA:  21    -0.418040477268E+03   -0.59150E-05   -0.59163E-05 19264   0.104E-03-0.363E-06
  18 F= -.41804048E+03 E0= -.41800826E+03  d E =-.295082E-02  mag=    34.0000
       N       E                     dE             d eps       ncg     rms          ort
SDA:   1    -0.414454654278E+03    0.35858E+01    0.00000E+00 19264   0.223E+02 0.000E+00
CGA:   2    -0.414979275697E+03   -0.52462E+00   -0.52345E+00 19264   0.142E+02-0.853E-01
CGA:   3    -0.416181731437E+03   -0.12025E+01   -0.12094E+01 19264   0.255E+02-0.142E+00
CGA:   4    -0.417114381476E+03   -0.93265E+00   -0.92940E+00 19264   0.770E+01-0.136E-01
CGA:   5    -0.417325376734E+03   -0.21100E+00   -0.20899E+00 19264   0.427E+01 0.138E-01
CGA:   6    -0.417795367584E+03   -0.46999E+00   -0.46996E+00 19264   0.288E+01-0.327E-03
CGA:   7    -0.417905530456E+03   -0.11016E+00   -0.11012E+00 19264   0.965E+00 0.656E-04
CGA:   8    -0.417927143984E+03   -0.21614E-01   -0.21600E-01 19264   0.447E+00 0.318E-03
CGA:   9    -0.417965573513E+03   -0.38430E-01   -0.38323E-01 19264   0.588E+00 0.275E-02
CGA:  10    -0.417980193352E+03   -0.14620E-01   -0.14673E-01 19264   0.170E+00-0.113E-02
CGA:  11    -0.417987213629E+03   -0.70203E-02   -0.70209E-02 19264   0.627E-01 0.553E-04
CGA:  12    -0.417991791638E+03   -0.45780E-02   -0.45668E-02 19264   0.699E-01 0.411E-03
CGA:  13    -0.417995580430E+03   -0.37888E-02   -0.37880E-02 19264   0.905E-01 0.318E-03
CGA:  14    -0.417998046061E+03   -0.24656E-02   -0.24644E-02 19264   0.134E-01 0.297E-04
CGA:  15    -0.417998537045E+03   -0.49098E-03   -0.49154E-03 19264   0.127E-01 0.415E-05
CGA:  16    -0.417999274457E+03   -0.73741E-03   -0.73737E-03 19264   0.160E-01 0.336E-05
CGA:  17    -0.418000231713E+03   -0.95726E-03   -0.95662E-03 19264   0.400E-02 0.465E-04
CGA:  18    -0.418000375383E+03   -0.14367E-03   -0.14370E-03 19264   0.271E-02-0.735E-07
CGA:  19    -0.418000493229E+03   -0.11785E-03   -0.11788E-03 19264   0.339E-02 0.101E-05
CGA:  20    -0.418000767790E+03   -0.27456E-03   -0.27436E-03 19264   0.375E-02 0.578E-05
CGA:  21    -0.418000861054E+03   -0.93263E-04   -0.93337E-04 19264   0.113E-02-0.280E-06
CGA:  22    -0.418000918476E+03   -0.57423E-04   -0.57420E-04 19264   0.725E-03 0.864E-06
CGA:  23    -0.418000976438E+03   -0.57962E-04   -0.57944E-04 19264   0.126E-02 0.822E-06
CGA:  24    -0.418001034298E+03   -0.57860E-04   -0.57861E-04 19264   0.128E-02-0.721E-06
CGA:  25    -0.418001076028E+03   -0.41730E-04   -0.41732E-04 19264   0.260E-03-0.118E-05
CGA:  26    -0.418001084630E+03   -0.86017E-05   -0.86021E-05 19264   0.223E-03-0.764E-06
CGA:  27    -0.418001101018E+03   -0.16389E-04   -0.16389E-04 19264   0.309E-03-0.640E-06
CGA:  28    -0.418001124829E+03   -0.23811E-04   -0.23805E-04 19264   0.164E-03-0.289E-06
CGA:  29    -0.418001128734E+03   -0.39050E-05   -0.39066E-05 19264   0.634E-04-0.498E-06
  19 F= -.41800113E+03 E0= -.41796911E+03  d E =0.393485E-01  mag=    34.0000
       N       E                     dE             d eps       ncg     rms          ort
SDA:   1    -0.417498857901E+03    0.50227E+00    0.00000E+00 19264   0.254E+01 0.000E+00
CGA:   2    -0.417560573232E+03   -0.61715E-01   -0.61992E-01 19264   0.213E+01-0.835E-02
CGA:   3    -0.417807651851E+03   -0.24708E+00   -0.24727E+00 19264   0.214E+01-0.289E-02
CGA:   4    -0.417883379200E+03   -0.75727E-01   -0.75350E-01 19264   0.468E+00 0.458E-03
CGA:   5    -0.417949727281E+03   -0.66348E-01   -0.66619E-01 19264   0.627E+00-0.337E-02
CGA:   6    -0.417964986425E+03   -0.15259E-01   -0.15213E-01 19264   0.247E+00 0.118E-02
CGA:   7    -0.417972067363E+03   -0.70809E-02   -0.70929E-02 19264   0.730E-01-0.172E-03
CGA:   8    -0.417977118391E+03   -0.50510E-02   -0.50531E-02 19264   0.497E-01-0.916E-04
CGA:   9    -0.417980664595E+03   -0.35462E-02   -0.35457E-02 19264   0.371E-01 0.192E-04
CGA:  10    -0.417981516595E+03   -0.85200E-03   -0.85290E-03 19264   0.132E-01-0.330E-04
CGA:  11    -0.417982039261E+03   -0.52267E-03   -0.52263E-03 19264   0.775E-02-0.722E-06
CGA:  12    -0.417982742870E+03   -0.70361E-03   -0.70333E-03 19264   0.144E-01 0.836E-05
CGA:  13    -0.417983123617E+03   -0.38075E-03   -0.38081E-03 19264   0.256E-02-0.155E-05
CGA:  14    -0.417983226995E+03   -0.10338E-03   -0.10340E-03 19264   0.119E-02-0.674E-06
CGA:  15    -0.417983312097E+03   -0.85102E-04   -0.85125E-04 19264   0.329E-02-0.213E-05
CGA:  16    -0.417983443740E+03   -0.13164E-03   -0.13175E-03 19264   0.754E-03-0.754E-06
CGA:  17    -0.417983475682E+03   -0.31942E-04   -0.31941E-04 19264   0.305E-03-0.791E-06
CGA:  18    -0.417983496321E+03   -0.20640E-04   -0.20633E-04 19264   0.469E-03 0.322E-07
CGA:  19    -0.417983514221E+03   -0.17900E-04   -0.17903E-04 19264   0.479E-03-0.205E-06
CGA:  20    -0.417983544760E+03   -0.30538E-04   -0.30518E-04 19264   0.204E-03 0.143E-05
CGA:  21    -0.417983550788E+03   -0.60284E-05   -0.60349E-05 19264   0.114E-03-0.383E-07
  20 F= -.41798355E+03 E0= -.41795152E+03  d E =0.175779E-01  mag=    34.0000
       N       E                     dE             d eps       ncg     rms          ort
SDA:   1    -0.389907019327E+03    0.28077E+02    0.00000E+00 19264   0.222E+03 0.000E+00
CGA:   2    -0.394466036972E+03   -0.45590E+01   -0.50064E+01 19264   0.105E+03-0.110E+02
CGA:   3    -0.401527085644E+03   -0.70610E+01   -0.10265E+02 19264   0.518E+03-0.740E+02
CGA:   4    -0.406142508984E+03   -0.46154E+01   -0.10746E+02 19264   0.215E+03-0.179E+03
CGA:   5    -0.409185806539E+03   -0.30433E+01   -0.22851E+01 19264   0.453E+02 0.340E+02
CGA:   6    -0.410007355014E+03   -0.82155E+00   -0.62737E+00 19264   0.297E+02 0.130E+02
CGA:   7    -0.410957113227E+03   -0.94976E+00   -0.90381E+00 19264   0.622E+02 0.525E+00
CGA:   8    -0.411886260412E+03   -0.92915E+00   -0.10805E+01 19264   0.928E+02-0.617E+01
CGA:   9    -0.413312449729E+03   -0.14262E+01   -0.13905E+01 19264   0.137E+03 0.357E+01
CGA:  10    -0.415650032626E+03   -0.23376E+01   -0.23358E+01 19264   0.139E+03-0.301E+01
CGA:  11    -0.416692635039E+03   -0.10426E+01   -0.95473E+00 19264   0.350E+02 0.333E+01
CGA:  12    -0.416886699346E+03   -0.19406E+00   -0.19244E+00 19264   0.919E+01-0.935E-01
CGA:  13    -0.416953564230E+03   -0.66865E-01   -0.68140E-01 19264   0.620E+01-0.166E+00
CGA:  14    -0.417018739999E+03   -0.65176E-01   -0.68402E-01 19264   0.741E+01-0.232E+00
CGA:  15    -0.417104005597E+03   -0.85266E-01   -0.92696E-01 19264   0.102E+02-0.391E+00
CGA:  16    -0.417245020066E+03   -0.14101E+00   -0.14946E+00 19264   0.139E+02-0.274E+00
CGA:  17    -0.417401266465E+03   -0.15625E+00   -0.15781E+00 19264   0.877E+01-0.101E+00
CGA:  18    -0.417485602119E+03   -0.84336E-01   -0.86472E-01 19264   0.467E+01-0.182E+00
CGA:  19    -0.417531737990E+03   -0.46136E-01   -0.45273E-01 19264   0.224E+01 0.584E-01
CGA:  20    -0.417552227502E+03   -0.20490E-01   -0.20584E-01 19264   0.116E+01-0.101E-01
CGA:  21    -0.417570258579E+03   -0.18031E-01   -0.18380E-01 19264   0.203E+01-0.849E-02
CGA:  22    -0.417627802618E+03   -0.57544E-01   -0.57557E-01 19264   0.493E+01 0.318E-01
CGA:  23    -0.417692878534E+03   -0.65076E-01   -0.69123E-01 19264   0.255E+01-0.173E+00
CGA:  24    -0.417721286643E+03   -0.28408E-01   -0.29891E-01 19264   0.128E+01-0.707E-01
CGA:  25    -0.417739317035E+03   -0.18030E-01   -0.18068E-01 19264   0.639E+00-0.175E-02
CGA:  26    -0.417747064044E+03   -0.77470E-02   -0.78348E-02 19264   0.299E+00-0.418E-02
CGA:  27    -0.417754381922E+03   -0.73179E-02   -0.73193E-02 19264   0.589E+00 0.637E-03
CGA:  28    -0.417773202978E+03   -0.18821E-01   -0.18726E-01 19264   0.914E+00 0.113E-01
CGA:  29    -0.417787286974E+03   -0.14084E-01   -0.14343E-01 19264   0.342E+00-0.251E-02
CGA:  30    -0.417792921965E+03   -0.56350E-02   -0.56438E-02 19264   0.192E+00-0.111E-03
CGA:  31    -0.417796452460E+03   -0.35305E-02   -0.35342E-02 19264   0.116E+00 0.515E-04
CGA:  32    -0.417798889628E+03   -0.24372E-02   -0.24367E-02 19264   0.116E+00-0.682E-04
CGA:  33    -0.417802611209E+03   -0.37216E-02   -0.37182E-02 19264   0.207E+00 0.330E-03
SDA:  34    -0.417808118594E+03   -0.55074E-02   -0.55065E-02 19264   0.183E+00 0.321E-03
CGA:  35    -0.417811397153E+03   -0.32786E-02   -0.32848E-02 19264   0.447E-01 0.975E-04
CGA:  36    -0.417813263916E+03   -0.18668E-02   -0.18659E-02 19264   0.221E-01 0.473E-04
CGA:  37    -0.417814595292E+03   -0.13314E-02   -0.13291E-02 19264   0.438E-01 0.655E-04
CGA:  38    -0.417817318126E+03   -0.27228E-02   -0.27195E-02 19264   0.420E-01 0.921E-04
CGA:  39    -0.417818744920E+03   -0.14268E-02   -0.14270E-02 19264   0.258E-02-0.214E-04
CGA:  40    -0.417819072069E+03   -0.32715E-03   -0.32658E-03 19264   0.722E-02 0.515E-05
CGA:  41    -0.417819427772E+03   -0.35570E-03   -0.35566E-03 19264   0.812E-02 0.401E-06
CGA:  42    -0.417819637279E+03   -0.20951E-03   -0.20945E-03 19264   0.113E-02-0.427E-05
CGA:  43    -0.417819756166E+03   -0.11889E-03   -0.11868E-03 19264   0.253E-02 0.377E-06
CGA:  44    -0.417819986022E+03   -0.22986E-03   -0.22950E-03 19264   0.261E-02 0.422E-05
CGA:  45    -0.417820039542E+03   -0.53520E-04   -0.53566E-04 19264   0.417E-03 0.532E-06
CGA:  46    -0.417820077422E+03   -0.37880E-04   -0.37718E-04 19264   0.922E-03 0.187E-05
CGA:  47    -0.417820115860E+03   -0.38438E-04   -0.38440E-04 19264   0.108E-02 0.870E-06
CGA:  48    -0.417820177329E+03   -0.61469E-04   -0.61420E-04 19264   0.470E-03 0.221E-05
CGA:  49    -0.417820195341E+03   -0.18013E-04   -0.18014E-04 19264   0.902E-04-0.654E-06
CGA:  50    -0.417820208910E+03   -0.13568E-04   -0.13748E-04 19264   0.448E-03-0.267E-05
CGA:  51    -0.417820221467E+03   -0.12558E-04   -0.12524E-04 19264   0.117E-03-0.248E-05
CGA:  52    -0.417820225078E+03   -0.36106E-05   -0.35978E-05 19264   0.255E-04-0.161E-05
  21 F= -.41782023E+03 E0= -.41778824E+03  d E =0.163326E+00  mag=    34.0000
       N       E                     dE             d eps       ncg     rms          ort
SDA:   1    -0.406473300769E+03    0.11347E+02    0.00000E+00 19264   0.809E+02 0.000E+00
CGA:   2    -0.408243865666E+03   -0.17706E+01   -0.19158E+01 19264   0.493E+02-0.559E+01
CGA:   3    -0.411797506184E+03   -0.35536E+01   -0.36577E+01 19264   0.885E+02-0.318E+01
CGA:   4    -0.415339830019E+03   -0.35423E+01   -0.35069E+01 19264   0.244E+02-0.121E+01
CGA:   5    -0.415778537131E+03   -0.43871E+00   -0.44701E+00 19264   0.159E+02-0.320E+00
CGA:   6    -0.416743803700E+03   -0.96527E+00   -0.96204E+00 19264   0.226E+02 0.239E+00
CGA:   7    -0.417357363135E+03   -0.61356E+00   -0.60949E+00 19264   0.916E+01 0.499E-01
CGA:   8    -0.417595366976E+03   -0.23800E+00   -0.23704E+00 19264   0.428E+01 0.173E-01
CGA:   9    -0.417681267141E+03   -0.85900E-01   -0.87045E-01 19264   0.207E+01-0.368E-01
CGA:  10    -0.417764356729E+03   -0.83090E-01   -0.83018E-01 19264   0.124E+01-0.246E-02
CGA:  11    -0.417843071657E+03   -0.78715E-01   -0.78395E-01 19264   0.267E+01 0.165E-01
CGA:  12    -0.417894605562E+03   -0.51534E-01   -0.51794E-01 19264   0.474E+00-0.574E-02
CGA:  13    -0.417909683020E+03   -0.15077E-01   -0.15159E-01 19264   0.294E+00-0.902E-03
CGA:  14    -0.417924345563E+03   -0.14663E-01   -0.14634E-01 19264   0.423E+00 0.535E-02
CGA:  15    -0.417944044837E+03   -0.19699E-01   -0.19640E-01 19264   0.414E+00-0.206E-01
CGA:  16    -0.417951873923E+03   -0.78291E-02   -0.88245E-02 19264   0.138E+00-0.222E-01
CGA:  17    -0.417956213466E+03   -0.43395E-02   -0.43915E-02 19264   0.488E-01 0.675E-03
CGA:  18    -0.417958077955E+03   -0.18645E-02   -0.18584E-02 19264   0.715E-01-0.265E-03
CGA:  19    -0.417961476667E+03   -0.33987E-02   -0.33823E-02 19264   0.557E-01 0.310E-02
CGA:  20    -0.417963389135E+03   -0.19125E-02   -0.19169E-02 19264   0.395E-01 0.537E-04
CGA:  21    -0.417964747327E+03   -0.13582E-02   -0.13597E-02 19264   0.132E-01 0.399E-04
CGA:  22    -0.417965092004E+03   -0.34468E-03   -0.34704E-03 19264   0.102E-01-0.197E-04
CGA:  23    -0.417965740559E+03   -0.64856E-03   -0.64998E-03 19264   0.126E-01-0.571E-04
CGA:  24    -0.417966410606E+03   -0.67005E-03   -0.66943E-03 19264   0.124E-01 0.321E-04
CGA:  25    -0.417966700773E+03   -0.29017E-03   -0.29200E-03 19264   0.425E-02-0.327E-04
CGA:  26    -0.417966876650E+03   -0.17588E-03   -0.17587E-03 19264   0.304E-02-0.196E-05
CGA:  27    -0.417967005575E+03   -0.12893E-03   -0.12893E-03 19264   0.354E-02-0.264E-05
CGA:  28    -0.417967218524E+03   -0.21295E-03   -0.21275E-03 19264   0.323E-02 0.817E-05
CGA:  29    -0.417967305472E+03   -0.86947E-04   -0.86957E-04 19264   0.191E-02-0.949E-06
CGA:  30    -0.417967381150E+03   -0.75678E-04   -0.75686E-04 19264   0.664E-03-0.383E-06
CGA:  31    -0.417967416032E+03   -0.34882E-04   -0.34854E-04 19264   0.109E-02 0.180E-05
SDA:  32    -0.417967465905E+03   -0.49873E-04   -0.49861E-04 19264   0.115E-02 0.422E-05
CGA:  33    -0.417967487265E+03   -0.21360E-04   -0.21368E-04 19264   0.251E-03-0.846E-06
CGA:  34    -0.417967495969E+03   -0.87042E-05   -0.87086E-05 19264   0.221E-03-0.404E-06
  22 F= -.41796750E+03 E0= -.41793546E+03  d E =-.147271E+00  mag=    34.0000
       N       E                     dE             d eps       ncg     rms          ort
SDA:   1    -0.417802467865E+03    0.16502E+00    0.00000E+00 19264   0.328E+01 0.000E+00
CGA:   2    -0.417863209662E+03   -0.60742E-01   -0.59126E-01 19264   0.544E+00 0.749E-01
CGA:   3    -0.417888710697E+03   -0.25501E-01   -0.25641E-01 19264   0.579E+00-0.267E-03
CGA:   4    -0.417932233429E+03   -0.43523E-01   -0.43522E-01 19264   0.901E+00 0.251E-03
CGA:   5    -0.417953102630E+03   -0.20869E-01   -0.20758E-01 19264   0.159E+00 0.370E-02
CGA:   6    -0.417963636684E+03   -0.10534E-01   -0.10538E-01 19264   0.165E+00 0.464E-03
CGA:   7    -0.417974876732E+03   -0.11240E-01   -0.11239E-01 19264   0.108E+00-0.281E-03
CGA:   8    -0.417978204852E+03   -0.33281E-02   -0.33364E-02 19264   0.571E-01-0.162E-03
CGA:   9    -0.417980101693E+03   -0.18968E-02   -0.18860E-02 19264   0.899E-02 0.170E-03
CGA:  10    -0.417981020930E+03   -0.91924E-03   -0.91843E-03 19264   0.254E-01 0.213E-04
CGA:  11    -0.417981649978E+03   -0.62905E-03   -0.62939E-03 19264   0.466E-02-0.114E-05
CGA:  12    -0.417981826856E+03   -0.17688E-03   -0.17697E-03 19264   0.144E-02 0.335E-06
CGA:  13    -0.417981983137E+03   -0.15628E-03   -0.15629E-03 19264   0.353E-02 0.980E-07
CGA:  14    -0.417982105490E+03   -0.12235E-03   -0.12240E-03 19264   0.162E-02-0.802E-06
CGA:  15    -0.417982157425E+03   -0.51936E-04   -0.51947E-04 19264   0.357E-03 0.277E-06
CGA:  16    -0.417982178143E+03   -0.20717E-04   -0.20722E-04 19264   0.723E-03 0.857E-06
CGA:  17    -0.417982207859E+03   -0.29716E-04   -0.29747E-04 19264   0.415E-03 0.142E-05
CGA:  18    -0.417982240367E+03   -0.32509E-04   -0.32472E-04 19264   0.154E-03 0.213E-05
CGA:  19    -0.417982246550E+03   -0.61828E-05   -0.61837E-05 19264   0.104E-03-0.171E-07
  23 F= -.41798225E+03 E0= -.41795024E+03  d E =-.147506E-01  mag=    34.0000
       N       E                     dE             d eps       ncg     rms          ort
SDA:   1    -0.417758906233E+03    0.22333E+00    0.00000E+00 19264   0.622E+01 0.000E+00
CGA:   2    -0.417842466404E+03   -0.83560E-01   -0.85051E-01 19264   0.467E+00-0.132E+00
CGA:   3    -0.417920371069E+03   -0.77905E-01   -0.77657E-01 19264   0.107E+01 0.267E-02
CGA:   4    -0.417953740640E+03   -0.33370E-01   -0.33288E-01 19264   0.487E+00 0.138E-02
CGA:   5    -0.417966721129E+03   -0.12980E-01   -0.12973E-01 19264   0.144E+00 0.314E-03
CGA:   6    -0.417977903392E+03   -0.11182E-01   -0.11175E-01 19264   0.214E+00 0.370E-03
CGA:   7    -0.417985079907E+03   -0.71765E-02   -0.71799E-02 19264   0.119E+00-0.621E-05
CGA:   8    -0.417989597270E+03   -0.45174E-02   -0.45163E-02 19264   0.254E-01 0.187E-04
CGA:   9    -0.417990488795E+03   -0.89153E-03   -0.89197E-03 19264   0.166E-01 0.359E-04
CGA:  10    -0.417991074520E+03   -0.58572E-03   -0.58597E-03 19264   0.131E-01 0.583E-05
CGA:  11    -0.417992049624E+03   -0.97510E-03   -0.97531E-03 19264   0.753E-02-0.538E-05
CGA:  12    -0.417992297662E+03   -0.24804E-03   -0.24802E-03 19264   0.279E-02 0.663E-06
CGA:  13    -0.417992365980E+03   -0.68318E-04   -0.68320E-04 19264   0.123E-02-0.309E-07
CGA:  14    -0.417992545952E+03   -0.17997E-03   -0.18029E-03 19264   0.214E-02-0.262E-05
CGA:  15    -0.417992596688E+03   -0.50736E-04   -0.50726E-04 19264   0.568E-03 0.117E-07
CGA:  16    -0.417992616730E+03   -0.20042E-04   -0.20047E-04 19264   0.286E-03 0.360E-06
CGA:  17    -0.417992637225E+03   -0.20495E-04   -0.20479E-04 19264   0.510E-03 0.126E-05
CGA:  18    -0.417992656944E+03   -0.19719E-04   -0.19741E-04 19264   0.373E-03 0.157E-05
CGA:  19    -0.417992676520E+03   -0.19576E-04   -0.19582E-04 19264   0.121E-03 0.143E-05
CGA:  20    -0.417992680762E+03   -0.42418E-05   -0.42419E-05 19264   0.107E-03 0.599E-07
  24 F= -.41799268E+03 E0= -.41796069E+03  d E =-.104342E-01  mag=    34.0000
       N       E                     dE             d eps       ncg     rms          ort
SDA:   1    -0.417153246018E+03    0.83943E+00    0.00000E+00 19264   0.217E+02 0.000E+00
CGA:   2    -0.417444559663E+03   -0.29131E+00   -0.31019E+00 19264   0.195E+01-0.147E+01
CGA:   3    -0.417691438225E+03   -0.24688E+00   -0.24772E+00 19264   0.645E+01-0.922E-02
CGA:   4    -0.417855738360E+03   -0.16430E+00   -0.16383E+00 19264   0.101E+01 0.547E-02
CGA:   5    -0.417897697081E+03   -0.41959E-01   -0.41741E-01 19264   0.835E+00-0.213E-02
CGA:   6    -0.417938271564E+03   -0.40574E-01   -0.40582E-01 19264   0.943E+00 0.767E-03
CGA:   7    -0.417978551332E+03   -0.40280E-01   -0.40263E-01 19264   0.277E+00-0.211E-03
CGA:   8    -0.417985832920E+03   -0.72816E-02   -0.72973E-02 19264   0.105E+00-0.262E-03
CGA:   9    -0.417990146583E+03   -0.43137E-02   -0.43145E-02 19264   0.772E-01 0.673E-04
CGA:  10    -0.417994404673E+03   -0.42581E-02   -0.42575E-02 19264   0.727E-01 0.125E-03
CGA:  11    -0.417996736061E+03   -0.23314E-02   -0.23319E-02 19264   0.314E-01 0.108E-04
CGA:  12    -0.417997892930E+03   -0.11569E-02   -0.11574E-02 19264   0.104E-01 0.737E-05
CGA:  13    -0.417998248828E+03   -0.35590E-03   -0.35593E-03 19264   0.912E-02 0.852E-06
CGA:  14    -0.417998951810E+03   -0.70298E-03   -0.70277E-03 19264   0.108E-01 0.896E-05
CGA:  15    -0.417999282201E+03   -0.33039E-03   -0.33047E-03 19264   0.312E-02-0.439E-06
CGA:  16    -0.417999365873E+03   -0.83672E-04   -0.83683E-04 19264   0.109E-02 0.241E-06
CGA:  17    -0.417999460957E+03   -0.95084E-04   -0.95035E-04 19264   0.291E-02 0.158E-05
CGA:  18    -0.417999579316E+03   -0.11836E-03   -0.11840E-03 19264   0.109E-02 0.295E-05
CGA:  19    -0.417999616507E+03   -0.37191E-04   -0.37205E-04 19264   0.495E-03 0.125E-05
CGA:  20    -0.417999634213E+03   -0.17706E-04   -0.17712E-04 19264   0.355E-03 0.524E-06
CGA:  21    -0.417999657856E+03   -0.23643E-04   -0.23633E-04 19264   0.500E-03 0.786E-06
CGA:  22    -0.417999682461E+03   -0.24605E-04   -0.24605E-04 19264   0.473E-03 0.120E-05
CGA:  23    -0.417999698490E+03   -0.16029E-04   -0.16036E-04 19264   0.131E-03 0.579E-06
CGA:  24    -0.417999703256E+03   -0.47661E-05   -0.47667E-05 19264   0.987E-04 0.568E-07
  25 F= -.41799970E+03 E0= -.41796770E+03  d E =-.702249E-02  mag=    34.0000
       N       E                     dE             d eps       ncg     rms          ort
SDA:   1    -0.417777932798E+03    0.22177E+00    0.00000E+00 19264   0.363E+01 0.000E+00
CGA:   2    -0.417830901803E+03   -0.52969E-01   -0.53295E-01 19264   0.563E+00-0.256E-01
CGA:   3    -0.417903900326E+03   -0.72999E-01   -0.72769E-01 19264   0.950E+00 0.302E-02
CGA:   4    -0.417960082966E+03   -0.56183E-01   -0.56225E-01 19264   0.408E+00-0.342E-02
CGA:   5    -0.417972396599E+03   -0.12314E-01   -0.12331E-01 19264   0.267E+00 0.279E-04
CGA:   6    -0.417983900865E+03   -0.11504E-01   -0.11498E-01 19264   0.178E+00-0.169E-03
CGA:   7    -0.417993179372E+03   -0.92785E-02   -0.92792E-02 19264   0.157E+00-0.118E-03
CGA:   8    -0.417997362731E+03   -0.41834E-02   -0.41882E-02 19264   0.430E-01-0.890E-04
CGA:   9    -0.417998941675E+03   -0.15789E-02   -0.15780E-02 19264   0.892E-02-0.118E-04
CGA:  10    -0.417999896243E+03   -0.95457E-03   -0.95401E-03 19264   0.265E-01 0.168E-04
CGA:  11    -0.418000556988E+03   -0.66075E-03   -0.66104E-03 19264   0.414E-02 0.723E-05
CGA:  12    -0.418000712084E+03   -0.15510E-03   -0.15509E-03 19264   0.178E-02 0.555E-06
CGA:  13    -0.418000866713E+03   -0.15463E-03   -0.15464E-03 19264   0.390E-02 0.162E-06
CGA:  14    -0.418000991488E+03   -0.12477E-03   -0.12474E-03 19264   0.135E-02-0.662E-06
CGA:  15    -0.418001044450E+03   -0.52963E-04   -0.52958E-04 19264   0.565E-03-0.268E-06
CGA:  16    -0.418001061236E+03   -0.16785E-04   -0.16786E-04 19264   0.373E-03-0.263E-06
CGA:  17    -0.418001083909E+03   -0.22673E-04   -0.22670E-04 19264   0.359E-03 0.214E-06
CGA:  18    -0.418001112736E+03   -0.28828E-04   -0.28807E-04 19264   0.246E-03 0.666E-06
CGA:  19    -0.418001118549E+03   -0.58127E-05   -0.58176E-05 19264   0.968E-04 0.200E-06
  26 F= -.41800112E+03 E0= -.41796916E+03  d E =-.141529E-02  mag=    34.0000
       N       E                     dE             d eps       ncg     rms          ort
SDA:   1    -0.417493142648E+03    0.50797E+00    0.00000E+00 19264   0.308E+01 0.000E+00
CGA:   2    -0.417558066612E+03   -0.64924E-01   -0.65549E-01 19264   0.195E+01-0.221E-01
CGA:   3    -0.417823584011E+03   -0.26552E+00   -0.26435E+00 19264   0.226E+01 0.150E-01
CGA:   4    -0.417908171172E+03   -0.84587E-01   -0.83845E-01 19264   0.447E+00-0.372E-02
CGA:   5    -0.417944761138E+03   -0.36590E-01   -0.36540E-01 19264   0.825E+00 0.148E-02
CGA:   6    -0.417976452666E+03   -0.31692E-01   -0.31668E-01 19264   0.384E+00-0.156E-03
CGA:   7    -0.417988072133E+03   -0.11619E-01   -0.11605E-01 19264   0.427E-01 0.175E-03
CGA:   8    -0.417991757006E+03   -0.36849E-02   -0.36869E-02 19264   0.643E-01-0.414E-04
CGA:   9    -0.417994583106E+03   -0.28261E-02   -0.28266E-02 19264   0.587E-01 0.190E-04
CGA:  10    -0.417995954875E+03   -0.13718E-02   -0.13724E-02 19264   0.684E-02-0.166E-04
CGA:  11    -0.417996491250E+03   -0.53637E-03   -0.53605E-03 19264   0.100E-01 0.116E-04
CGA:  12    -0.417996869560E+03   -0.37831E-03   -0.37836E-03 19264   0.753E-02 0.230E-05
CGA:  13    -0.417997260183E+03   -0.39062E-03   -0.39062E-03 19264   0.214E-02 0.979E-05
CGA:  14    -0.417997347289E+03   -0.87107E-04   -0.87114E-04 19264   0.955E-03-0.632E-06
CGA:  15    -0.417997398882E+03   -0.51593E-04   -0.51592E-04 19264   0.192E-02-0.661E-06
CGA:  16    -0.417997491740E+03   -0.92857E-04   -0.92844E-04 19264   0.107E-02-0.433E-05
CGA:  17    -0.417997535461E+03   -0.43721E-04   -0.43725E-04 19264   0.228E-03-0.128E-05
CGA:  18    -0.417997543208E+03   -0.77476E-05   -0.77489E-05 19264   0.237E-03-0.377E-06
CGA:  19    -0.417997575112E+03   -0.31904E-04   -0.31739E-04 19264   0.287E-03 0.157E-05
CGA:  20    -0.417997585870E+03   -0.10757E-04   -0.10765E-04 19264   0.124E-03 0.358E-07
CGA:  21    -0.417997589015E+03   -0.31450E-05   -0.31523E-05 19264   0.669E-04-0.137E-06
  27 F= -.41799759E+03 E0= -.41796557E+03  d E =0.352953E-02  mag=    34.0000
       N       E                     dE             d eps       ncg     rms          ort
SDA:   1    -0.416511260519E+03    0.14863E+01    0.00000E+00 19264   0.755E+01 0.000E+00
CGA:   2    -0.416698527554E+03   -0.18727E+00   -0.19018E+00 19264   0.667E+01-0.813E-01
CGA:   3    -0.417506492009E+03   -0.80796E+00   -0.81630E+00 19264   0.689E+01-0.135E+00
CGA:   4    -0.417695319326E+03   -0.18883E+00   -0.18970E+00 19264   0.225E+01-0.192E-01
CGA:   5    -0.417779958046E+03   -0.84639E-01   -0.84785E-01 19264   0.167E+01 0.191E-02
CGA:   6    -0.417892675709E+03   -0.11272E+00   -0.11255E+00 19264   0.122E+01 0.839E-02
CGA:   7    -0.417940779705E+03   -0.48104E-01   -0.48345E-01 19264   0.797E+00 0.277E-02
CGA:   8    -0.417958267197E+03   -0.17487E-01   -0.17372E-01 19264   0.154E+00 0.358E-02
CGA:   9    -0.417966607492E+03   -0.83403E-02   -0.83374E-02 19264   0.102E+00 0.687E-03
CGA:  10    -0.417973482690E+03   -0.68752E-02   -0.68703E-02 19264   0.169E+00 0.258E-03
CGA:  11    -0.417978970350E+03   -0.54877E-02   -0.54939E-02 19264   0.295E-01-0.128E-04
CGA:  12    -0.417979928030E+03   -0.95768E-03   -0.95822E-03 19264   0.148E-01 0.585E-05
CGA:  13    -0.417980612024E+03   -0.68399E-03   -0.68397E-03 19264   0.245E-01 0.211E-05
CGA:  14    -0.417982179657E+03   -0.15676E-02   -0.15652E-02 19264   0.432E-02 0.117E-03
CGA:  15    -0.417982358370E+03   -0.17871E-03   -0.17865E-03 19264   0.339E-02-0.448E-05
CGA:  16    -0.417982498269E+03   -0.13990E-03   -0.13995E-03 19264   0.302E-02-0.115E-05
CGA:  17    -0.417982707918E+03   -0.20965E-03   -0.20968E-03 19264   0.335E-02-0.339E-05
CGA:  18    -0.417982813571E+03   -0.10565E-03   -0.10574E-03 19264   0.186E-02-0.245E-05
CGA:  19    -0.417982872728E+03   -0.59157E-04   -0.59156E-04 19264   0.452E-03-0.155E-05
CGA:  20    -0.417982906890E+03   -0.34162E-04   -0.34134E-04 19264   0.713E-03 0.270E-06
CGA:  21    -0.417982956563E+03   -0.49673E-04   -0.49637E-04 19264   0.121E-02 0.432E-06
CGA:  22    -0.417982994521E+03   -0.37958E-04   -0.38022E-04 19264   0.236E-03 0.818E-06
CGA:  23    -0.417983002146E+03   -0.76246E-05   -0.76317E-05 19264   0.161E-03-0.224E-06
  28 F= -.41798300E+03 E0= -.41795092E+03  d E =0.145869E-01  mag=    34.0000
       N       E                     dE             d eps       ncg     rms          ort
SDA:   1    -0.417886497854E+03    0.96497E-01    0.00000E+00 19264   0.122E+01 0.000E+00
CGA:   2    -0.417910142399E+03   -0.23645E-01   -0.23454E-01 19264   0.284E+00 0.661E-02
CGA:   3    -0.417927312727E+03   -0.17170E-01   -0.17174E-01 19264   0.442E+00-0.139E-03
CGA:   4    -0.417957387897E+03   -0.30075E-01   -0.30070E-01 19264   0.421E+00 0.312E-03
CGA:   5    -0.417965843551E+03   -0.84557E-02   -0.85084E-02 19264   0.777E-01-0.166E-02
CGA:   6    -0.417971614005E+03   -0.57705E-02   -0.57724E-02 19264   0.890E-01-0.426E-04
CGA:   7    -0.417977648773E+03   -0.60348E-02   -0.60355E-02 19264   0.280E-01-0.308E-04
CGA:   8    -0.417978471087E+03   -0.82231E-03   -0.82360E-03 19264   0.166E-01-0.604E-05
CGA:   9    -0.417978963581E+03   -0.49249E-03   -0.49222E-03 19264   0.622E-02 0.559E-05
CGA:  10    -0.417979517857E+03   -0.55428E-03   -0.55396E-03 19264   0.569E-02 0.827E-05
CGA:  11    -0.417979737083E+03   -0.21923E-03   -0.21932E-03 19264   0.359E-02 0.467E-05
CGA:  12    -0.417979833536E+03   -0.96454E-04   -0.96429E-04 19264   0.828E-03 0.257E-05
CGA:  13    -0.417979885454E+03   -0.51918E-04   -0.51914E-04 19264   0.141E-02 0.498E-06
CGA:  14    -0.417979948956E+03   -0.63502E-04   -0.63501E-04 19264   0.126E-02-0.151E-06
CGA:  15    -0.417979990449E+03   -0.41493E-04   -0.41494E-04 19264   0.118E-03-0.499E-07
CGA:  16    -0.417980001850E+03   -0.11401E-04   -0.11413E-04 19264   0.324E-03-0.195E-06
CGA:  17    -0.417980013702E+03   -0.11852E-04   -0.11849E-04 19264   0.237E-03-0.219E-06
CGA:  18    -0.417980023242E+03   -0.95396E-05   -0.95376E-05 19264   0.582E-04-0.265E-06
  29 F= -.41798002E+03 E0= -.41794798E+03  d E =0.297890E-02  mag=    34.0000
