       N       E                     dE             d eps       ncg     rms          ort
DAV:   1     0.674293494568E+04    0.67429E+04   -0.30666E+05 19264   0.162E+03
DAV:   2     0.418399721203E+03   -0.63245E+04   -0.60098E+04 19264   0.464E+02
DAV:   3    -0.437988991250E+03   -0.85639E+03   -0.83380E+03 19264   0.181E+02
DAV:   4    -0.474688968590E+03   -0.36700E+02   -0.35893E+02 19264   0.421E+01
DAV:   5    -0.476035833965E+03   -0.13469E+01   -0.13361E+01 19264   0.754E+00
SDA:   6    -0.271995086563E+03    0.20404E+03   -0.13361E+01 19264   0.149E+04 0.000E+00
CGA:   7    -0.294222665095E+03   -0.22228E+02   -0.83689E+02 19264   0.480E+04-0.115E+04
CGA:   8    -0.199318418773E+03    0.94904E+02   -0.25507E+03 19264   0.737E+04-0.411E+04
CGA:   9     0.135567129737E+03    0.33489E+03   -0.40797E+03 19264   0.332E+05-0.194E+05
CGA:  10     0.631542280463E+03    0.49598E+03   -0.19904E+04 19264   0.405E+04-0.232E+04
CGA:  11     0.489695315341E+03   -0.14185E+03   -0.30002E+02 19264   0.235E+05 0.246E+05
CGA:  12    -0.137147841886E+02   -0.50341E+03   -0.84071E+03 19264   0.246E+05-0.359E+05
CGA:  13     0.691797485719E+03    0.70551E+03   -0.16607E+04 19264   0.561E+04-0.264E+04
CGA:  14     0.343947372040E+03   -0.34785E+03   -0.53169E+02 19264   0.592E+05 0.728E+05
CGA:  15     0.818163496809E+03    0.47422E+03   -0.36943E+04 19264   0.405E+04-0.258E+04
CGA:  16     0.754878251113E+03   -0.63285E+02   -0.31071E+02 19264   0.378E+04 0.395E+04
CGA:  17     0.283541431017E+03   -0.47134E+03   -0.30276E+02 19264   0.297E+05 0.430E+05
CGA:  18     0.622456751554E+03    0.33892E+03   -0.15859E+04 19264   0.639E+04-0.447E+04
CGA:  19    -0.378887328246E+03   -0.10013E+04   -0.12982E+03 19264   0.731E+03 0.342E+04
CGA:  20    -0.408182694680E+03   -0.29295E+02   -0.16754E+02 19264   0.136E+03 0.117E+03
CGA:  21    -0.408664899903E+03   -0.48221E+00   -0.42497E+01 19264   0.151E+03-0.130E+03
CGA:  22    -0.410959760665E+03   -0.22949E+01   -0.38909E+01 19264   0.636E+02-0.612E+02
CGA:  23    -0.412248950752E+03   -0.12892E+01   -0.12255E+01 19264   0.252E+02 0.343E+01
CGA:  24    -0.413348176880E+03   -0.10992E+01   -0.88315E+00 19264   0.194E+02 0.520E+01
CGA:  25    -0.414128673221E+03   -0.78050E+00   -0.56218E+00 19264   0.138E+02 0.814E+01
CGA:  26    -0.415047268770E+03   -0.91860E+00   -0.55842E+00 19264   0.167E+02 0.111E+02
CGA:  27    -0.415315714788E+03   -0.26845E+00   -0.36678E+00 19264   0.117E+02-0.378E+01
CGA:  28    -0.416612187254E+03   -0.12965E+01   -0.17494E+01 19264   0.652E+02-0.515E+01
CGA:  29    -0.417433355879E+03   -0.82117E+00   -0.37766E+00 19264   0.412E+02 0.575E+02
CGA:  30    -0.417901817284E+03   -0.46846E+00   -0.63401E+00 19264   0.972E+01-0.107E+02
CGA:  31    -0.418077968598E+03   -0.17615E+00   -0.17280E+00 19264   0.343E+01 0.112E+00
CGA:  32    -0.418516415653E+03   -0.43845E+00   -0.41352E+00 19264   0.675E+01 0.461E+00
CGA:  33    -0.418932364601E+03   -0.41595E+00   -0.38079E+00 19264   0.615E+01 0.754E+00
CGA:  34    -0.419083184859E+03   -0.15082E+00   -0.11689E+00 19264   0.228E+01 0.177E+01
CGA:  35    -0.419147451413E+03   -0.64267E-01   -0.67402E-01 19264   0.216E+01-0.904E-01
CGA:  36    -0.419294032951E+03   -0.14658E+00   -0.14552E+00 19264   0.345E+01-0.201E-02
CGA:  37    -0.419367890481E+03   -0.73858E-01   -0.53445E-01 19264   0.214E+01 0.121E+01
CGA:  38    -0.419425848739E+03   -0.57958E-01   -0.54279E-01 19264   0.116E+01 0.178E+00
CGA:  39    -0.419447398833E+03   -0.21550E-01   -0.22395E-01 19264   0.703E+00-0.357E-01
CGA:  40    -0.419480506874E+03   -0.33108E-01   -0.34707E-01 19264   0.183E+01 0.163E-01
CGA:  41    -0.419524731055E+03   -0.44224E-01   -0.41876E-01 19264   0.620E+00 0.112E+00
CGA:  42    -0.419540971952E+03   -0.16241E-01   -0.16607E-01 19264   0.479E+00-0.905E-02
CGA:  43    -0.419551897041E+03   -0.10925E-01   -0.11537E-01 19264   0.176E+00-0.161E-01
CGA:  44    -0.419558018409E+03   -0.61214E-02   -0.63522E-02 19264   0.231E+00-0.132E-02
CGA:  45    -0.419565159492E+03   -0.71411E-02   -0.73488E-02 19264   0.132E+00-0.261E-02
CGA:  46    -0.419570472325E+03   -0.53128E-02   -0.54509E-02 19264   0.148E+00 0.107E-02
CGA:  47    -0.419575317001E+03   -0.48447E-02   -0.49708E-02 19264   0.702E-01-0.977E-03
CGA:  48    -0.419578223119E+03   -0.29061E-02   -0.29253E-02 19264   0.679E-01 0.149E-03
CGA:  49    -0.419580734691E+03   -0.25116E-02   -0.25365E-02 19264   0.365E-01-0.617E-04
CGA:  50    -0.419582866588E+03   -0.21319E-02   -0.21291E-02 19264   0.414E-01 0.353E-03
CGA:  51    -0.419584184049E+03   -0.13175E-02   -0.13207E-02 19264   0.214E-01-0.119E-03
CGA:  52    -0.419585376254E+03   -0.11922E-02   -0.11917E-02 19264   0.128E-01 0.537E-04
CGA:  53    -0.419585901166E+03   -0.52491E-03   -0.52552E-03 19264   0.112E-01-0.653E-04
CGA:  54    -0.419586400111E+03   -0.49894E-03   -0.49849E-03 19264   0.725E-02-0.819E-04
CGA:  55    -0.419586808161E+03   -0.40805E-03   -0.40813E-03 19264   0.785E-02-0.478E-04
CGA:  56    -0.419587136053E+03   -0.32789E-03   -0.32774E-03 19264   0.446E-02-0.544E-04
CGA:  57    -0.419587379599E+03   -0.24355E-03   -0.24364E-03 19264   0.338E-02-0.436E-04
CGA:  58    -0.419587506249E+03   -0.12665E-03   -0.12644E-03 19264   0.266E-02-0.242E-04
CGA:  59    -0.419587677287E+03   -0.17104E-03   -0.16951E-03 19264   0.261E-02 0.852E-04
SDA:  60    -0.419586651120E+03    0.10262E-02   -0.10427E-02 19264   0.155E+00-0.100E-01
CGA:  61    -0.419589639955E+03   -0.29888E-02   -0.30213E-02 19264   0.855E-02-0.150E-02
CGA:  62    -0.419589847929E+03   -0.20797E-03   -0.20668E-03 19264   0.561E-03 0.499E-04
CGA:  63    -0.419590018580E+03   -0.17065E-03   -0.16232E-03 19264   0.204E-02 0.409E-04
CGA:  64    -0.419590132058E+03   -0.11348E-03   -0.11435E-03 19264   0.144E-02 0.329E-04
CGA:  65    -0.419590168144E+03   -0.36087E-04   -0.36728E-04 19264   0.296E-03 0.191E-04
CGA:  66    -0.419590206126E+03   -0.37982E-04   -0.37357E-04 19264   0.433E-03 0.194E-04
CGA:  67    -0.419590238758E+03   -0.32632E-04   -0.33073E-04 19264   0.127E-03 0.200E-04
CGA:  68    -0.419590245059E+03   -0.63008E-05   -0.64846E-05 19264   0.779E-04 0.393E-05
   1 F= -.41959025E+03 E0= -.41955809E+03  d E =-.419590E+03  mag=    34.0000
       N       E                     dE             d eps       ncg     rms          ort
SDA:   1    -0.419576668880E+03    0.13570E-01    0.00000E+00 19264   0.882E+00 0.000E+00
CGA:   2    -0.419590455514E+03   -0.13787E-01   -0.14186E-01 19264   0.271E-01-0.236E-01
CGA:   3    -0.419591043639E+03   -0.58812E-03   -0.58925E-03 19264   0.103E-02-0.406E-04
CGA:   4    -0.419591079274E+03   -0.35635E-04   -0.35641E-04 19264   0.877E-03 0.199E-06
CGA:   5    -0.419591124790E+03   -0.45517E-04   -0.45509E-04 19264   0.839E-03 0.276E-06
CGA:   6    -0.419591172468E+03   -0.47677E-04   -0.47663E-04 19264   0.260E-03-0.767E-06
CGA:   7    -0.419591180526E+03   -0.80585E-05   -0.80426E-05 19264   0.193E-03-0.345E-06
CGA:   8    -0.419591200409E+03   -0.19883E-04   -0.19945E-04 19264   0.199E-03-0.219E-05
CGA:   9    -0.419591208419E+03   -0.80102E-05   -0.79743E-05 19264   0.748E-04-0.105E-05
   2 F= -.41959121E+03 E0= -.41955900E+03  d E =-.963360E-03  mag=    34.0000
       N       E                     dE             d eps       ncg     rms          ort
SDA:   1    -0.418893877186E+03    0.69732E+00    0.00000E+00 19264   0.496E+01 0.000E+00
CGA:   2    -0.419060230422E+03   -0.16635E+00   -0.16856E+00 19264   0.337E+01-0.336E-01
CGA:   3    -0.419277939002E+03   -0.21771E+00   -0.21788E+00 19264   0.439E+01 0.120E-01
CGA:   4    -0.419445090069E+03   -0.16715E+00   -0.16621E+00 19264   0.722E+00 0.751E-02
CGA:   5    -0.419556923967E+03   -0.11183E+00   -0.11214E+00 19264   0.240E+01-0.330E-02
CGA:   6    -0.419609744830E+03   -0.52821E-01   -0.53227E-01 19264   0.255E+00-0.153E-01
CGA:   7    -0.419620929350E+03   -0.11185E-01   -0.11179E-01 19264   0.163E+00 0.491E-04
CGA:   8    -0.419634956872E+03   -0.14028E-01   -0.14024E-01 19264   0.129E+00 0.149E-03
CGA:   9    -0.419637723853E+03   -0.27670E-02   -0.27656E-02 19264   0.202E-01 0.475E-04
CGA:  10    -0.419639222660E+03   -0.14988E-02   -0.14987E-02 19264   0.256E-01 0.166E-04
CGA:  11    -0.419641110250E+03   -0.18876E-02   -0.18876E-02 19264   0.176E-01 0.569E-05
CGA:  12    -0.419641473043E+03   -0.36279E-03   -0.36309E-03 19264   0.375E-02-0.445E-05
CGA:  13    -0.419641756728E+03   -0.28368E-03   -0.28361E-03 19264   0.545E-02 0.652E-05
CGA:  14    -0.419642160258E+03   -0.40353E-03   -0.40343E-03 19264   0.423E-02 0.103E-04
CGA:  15    -0.419642255093E+03   -0.94835E-04   -0.95003E-04 19264   0.685E-03-0.342E-06
CGA:  16    -0.419642319795E+03   -0.64702E-04   -0.64687E-04 19264   0.130E-02 0.810E-06
CGA:  17    -0.419642402059E+03   -0.82264E-04   -0.82265E-04 19264   0.986E-03 0.830E-06
CGA:  18    -0.419642423338E+03   -0.21279E-04   -0.21282E-04 19264   0.174E-03-0.200E-06
CGA:  19    -0.419642440179E+03   -0.16841E-04   -0.16855E-04 19264   0.327E-03-0.608E-06
CGA:  20    -0.419642458058E+03   -0.17879E-04   -0.17875E-04 19264   0.345E-03-0.612E-06
CGA:  21    -0.419642469827E+03   -0.11769E-04   -0.11763E-04 19264   0.706E-04-0.618E-06
CGA:  22    -0.419642473271E+03   -0.34441E-05   -0.34425E-05 19264   0.442E-04-0.224E-06
   3 F= -.41964247E+03 E0= -.41961042E+03  d E =-.512649E-01  mag=    34.0000
       N       E                     dE             d eps       ncg     rms          ort
SDA:   1    -0.417218977242E+03    0.24235E+01    0.00000E+00 19264   0.291E+02 0.000E+00
CGA:   2    -0.417813136341E+03   -0.59416E+00   -0.59834E+00 19264   0.800E+01-0.355E+00
CGA:   3    -0.418463967468E+03   -0.65083E+00   -0.65143E+00 19264   0.135E+02-0.182E-01
CGA:   4    -0.419089913618E+03   -0.62595E+00   -0.62718E+00 19264   0.452E+01 0.209E-01
CGA:   5    -0.419207495810E+03   -0.11758E+00   -0.12033E+00 19264   0.290E+01-0.764E-01
CGA:   6    -0.419581436648E+03   -0.37394E+00   -0.37488E+00 19264   0.997E+00-0.151E-01
CGA:   7    -0.419610566494E+03   -0.29130E-01   -0.29237E-01 19264   0.548E+00-0.227E-02
CGA:   8    -0.419640279118E+03   -0.29713E-01   -0.29713E-01 19264   0.494E+00 0.903E-04
CGA:   9    -0.419663444904E+03   -0.23166E-01   -0.23171E-01 19264   0.200E+00 0.811E-04
CGA:  10    -0.419669377505E+03   -0.59326E-02   -0.59550E-02 19264   0.970E-01-0.313E-03
CGA:  11    -0.419672984885E+03   -0.36074E-02   -0.36019E-02 19264   0.396E-01 0.221E-04
CGA:  12    -0.419677519219E+03   -0.45343E-02   -0.45265E-02 19264   0.658E-01 0.138E-03
CGA:  13    -0.419679210854E+03   -0.16916E-02   -0.16930E-02 19264   0.133E-01-0.225E-04
CGA:  14    -0.419679799793E+03   -0.58894E-03   -0.58958E-03 19264   0.885E-02 0.910E-05
CGA:  15    -0.419680463429E+03   -0.66364E-03   -0.66324E-03 19264   0.185E-01 0.213E-04
CGA:  16    -0.419681127963E+03   -0.66453E-03   -0.66470E-03 19264   0.401E-02 0.126E-04
CGA:  17    -0.419681284470E+03   -0.15651E-03   -0.15667E-03 19264   0.186E-02 0.220E-05
CGA:  18    -0.419681409157E+03   -0.12469E-03   -0.12468E-03 19264   0.363E-02 0.172E-06
CGA:  19    -0.419681599291E+03   -0.19013E-03   -0.19018E-03 19264   0.152E-02 0.296E-05
CGA:  20    -0.419681666128E+03   -0.66837E-04   -0.66838E-04 19264   0.943E-03-0.551E-06
CGA:  21    -0.419681694106E+03   -0.27978E-04   -0.27983E-04 19264   0.464E-03-0.699E-06
CGA:  22    -0.419681741740E+03   -0.47634E-04   -0.47647E-04 19264   0.839E-03-0.629E-06
CGA:  23    -0.419681779213E+03   -0.37473E-04   -0.37469E-04 19264   0.373E-03-0.104E-05
CGA:  24    -0.419681788920E+03   -0.97064E-05   -0.97057E-05 19264   0.884E-04-0.639E-06
   4 F= -.41968179E+03 E0= -.41964999E+03  d E =-.393156E-01  mag=    34.0000
       N       E                     dE             d eps       ncg     rms          ort
SDA:   1    -0.419266725275E+03    0.41505E+00    0.00000E+00 19264   0.357E+01 0.000E+00
CGA:   2    -0.419334857577E+03   -0.68132E-01   -0.68416E-01 19264   0.133E+01-0.133E-01
CGA:   3    -0.419533461823E+03   -0.19860E+00   -0.19875E+00 19264   0.247E+01-0.180E-02
CGA:   4    -0.419626900257E+03   -0.93438E-01   -0.93240E-01 19264   0.360E+00 0.861E-03
CGA:   5    -0.419646829442E+03   -0.19929E-01   -0.19939E-01 19264   0.578E+00 0.109E-02
CGA:   6    -0.419676274715E+03   -0.29445E-01   -0.29453E-01 19264   0.277E+00 0.384E-03
CGA:   7    -0.419687626503E+03   -0.11352E-01   -0.11333E-01 19264   0.469E-01-0.134E-04
CGA:   8    -0.419690054866E+03   -0.24284E-02   -0.24283E-02 19264   0.679E-01 0.396E-05
CGA:   9    -0.419692664336E+03   -0.26095E-02   -0.26103E-02 19264   0.322E-01-0.842E-05
CGA:  10    -0.419694519518E+03   -0.18552E-02   -0.18552E-02 19264   0.102E-01-0.329E-04
CGA:  11    -0.419694814444E+03   -0.29493E-03   -0.29476E-03 19264   0.547E-02-0.234E-05
CGA:  12    -0.419695210351E+03   -0.39591E-03   -0.39604E-03 19264   0.712E-02-0.760E-05
CGA:  13    -0.419695658410E+03   -0.44806E-03   -0.44812E-03 19264   0.210E-02-0.102E-04
CGA:  14    -0.419695711212E+03   -0.52802E-04   -0.52817E-04 19264   0.929E-03-0.250E-05
CGA:  15    -0.419695766393E+03   -0.55180E-04   -0.55182E-04 19264   0.123E-02-0.755E-06
CGA:  16    -0.419695869656E+03   -0.10326E-03   -0.10322E-03 19264   0.989E-03 0.119E-05
CGA:  17    -0.419695894774E+03   -0.25118E-04   -0.25119E-04 19264   0.274E-03-0.341E-06
CGA:  18    -0.419695909697E+03   -0.14923E-04   -0.14923E-04 19264   0.217E-03-0.181E-06
CGA:  19    -0.419695931106E+03   -0.21409E-04   -0.21424E-04 19264   0.436E-03-0.692E-06
CGA:  20    -0.419695946174E+03   -0.15068E-04   -0.15077E-04 19264   0.228E-03-0.314E-06
CGA:  21    -0.419695954393E+03   -0.82190E-05   -0.82242E-05 19264   0.539E-04 0.390E-07
   5 F= -.41969595E+03 E0= -.41966411E+03  d E =-.141655E-01  mag=    34.0000
       N       E                     dE             d eps       ncg     rms          ort
SDA:   1    -0.416607134839E+03    0.30888E+01    0.00000E+00 19264   0.128E+02 0.000E+00
CGA:   2    -0.417069485561E+03   -0.46235E+00   -0.46588E+00 19264   0.164E+02-0.127E-01
CGA:   3    -0.418834541818E+03   -0.17651E+01   -0.17784E+01 19264   0.135E+02-0.255E+00
CGA:   4    -0.419177958997E+03   -0.34342E+00   -0.33732E+00 19264   0.344E+01 0.182E+00
CGA:   5    -0.419307213662E+03   -0.12925E+00   -0.12917E+00 19264   0.357E+01 0.515E-03
CGA:   6    -0.419626385865E+03   -0.31917E+00   -0.31911E+00 19264   0.747E+00 0.139E-02
CGA:   7    -0.419659295960E+03   -0.32910E-01   -0.32949E-01 19264   0.478E+00 0.902E-03
CGA:   8    -0.419678565314E+03   -0.19269E-01   -0.19268E-01 19264   0.428E+00 0.781E-04
CGA:   9    -0.419703384060E+03   -0.24819E-01   -0.24805E-01 19264   0.156E+00 0.249E-02
CGA:  10    -0.419710294913E+03   -0.69109E-02   -0.69206E-02 19264   0.591E-01 0.231E-03
CGA:  11    -0.419712280245E+03   -0.19853E-02   -0.19884E-02 19264   0.552E-01-0.350E-04
CGA:  12    -0.419716339575E+03   -0.40593E-02   -0.40495E-02 19264   0.579E-01 0.386E-03
CGA:  13    -0.419718492633E+03   -0.21531E-02   -0.21542E-02 19264   0.138E-01-0.330E-04
CGA:  14    -0.419718852942E+03   -0.36031E-03   -0.36131E-03 19264   0.631E-02-0.294E-04
CGA:  15    -0.419719736519E+03   -0.88358E-03   -0.88318E-03 19264   0.105E-01 0.102E-05
CGA:  16    -0.419720203519E+03   -0.46700E-03   -0.46762E-03 19264   0.357E-02 0.107E-04
CGA:  17    -0.419720303460E+03   -0.99941E-04   -0.99977E-04 19264   0.170E-02-0.157E-05
CGA:  18    -0.419720442480E+03   -0.13902E-03   -0.13893E-03 19264   0.269E-02 0.134E-05
CGA:  19    -0.419720593927E+03   -0.15145E-03   -0.15145E-03 19264   0.315E-02 0.464E-06
CGA:  20    -0.419720692737E+03   -0.98809E-04   -0.98882E-04 19264   0.798E-03-0.918E-06
CGA:  21    -0.419720728885E+03   -0.36148E-04   -0.36159E-04 19264   0.416E-03 0.249E-06
CGA:  22    -0.419720770062E+03   -0.41177E-04   -0.41038E-04 19264   0.120E-02 0.186E-05
CGA:  23    -0.419720819545E+03   -0.49483E-04   -0.49552E-04 19264   0.236E-03 0.271E-05
CGA:  24    -0.419720829182E+03   -0.96370E-05   -0.96481E-05 19264   0.110E-03 0.295E-07
   6 F= -.41972083E+03 E0= -.41968889E+03  d E =-.248748E-01  mag=    34.0000
       N       E                     dE             d eps       ncg     rms          ort
SDA:   1    -0.417968791734E+03    0.17520E+01    0.00000E+00 19264   0.598E+01 0.000E+00
CGA:   2    -0.418259518417E+03   -0.29073E+00   -0.29051E+00 19264   0.118E+02-0.917E-02
CGA:   3    -0.419263469350E+03   -0.10040E+01   -0.10042E+01 19264   0.560E+01-0.114E-01
CGA:   4    -0.419418168405E+03   -0.15470E+00   -0.15518E+00 19264   0.226E+01-0.661E-02
CGA:   5    -0.419506482402E+03   -0.88314E-01   -0.87621E-01 19264   0.205E+01-0.316E-02
CGA:   6    -0.419666386911E+03   -0.15990E+00   -0.15980E+00 19264   0.575E+00 0.349E-02
CGA:   7    -0.419687355337E+03   -0.20968E-01   -0.21078E-01 19264   0.245E+00 0.107E-03
CGA:   8    -0.419697141667E+03   -0.97863E-02   -0.97833E-02 19264   0.288E+00 0.237E-04
CGA:   9    -0.419712035246E+03   -0.14894E-01   -0.14893E-01 19264   0.111E+00-0.183E-03
CGA:  10    -0.419717096138E+03   -0.50609E-02   -0.50683E-02 19264   0.529E-01 0.364E-03
CGA:  11    -0.419718510956E+03   -0.14148E-02   -0.14124E-02 19264   0.224E-01 0.480E-04
CGA:  12    -0.419721333803E+03   -0.28228E-02   -0.28179E-02 19264   0.277E-01 0.728E-04
CGA:  13    -0.419722314778E+03   -0.98098E-03   -0.98114E-03 19264   0.752E-02-0.540E-05
CGA:  14    -0.419722497481E+03   -0.18270E-03   -0.18277E-03 19264   0.358E-02-0.622E-05
CGA:  15    -0.419722912845E+03   -0.41536E-03   -0.41526E-03 19264   0.624E-02 0.104E-05
CGA:  16    -0.419723181753E+03   -0.26891E-03   -0.26890E-03 19264   0.248E-02-0.333E-05
CGA:  17    -0.419723243908E+03   -0.62155E-04   -0.62190E-04 19264   0.695E-03-0.249E-05
CGA:  18    -0.419723332401E+03   -0.88493E-04   -0.88453E-04 19264   0.114E-02-0.277E-06
CGA:  19    -0.419723418995E+03   -0.86593E-04   -0.86583E-04 19264   0.787E-03 0.736E-07
CGA:  20    -0.419723441586E+03   -0.22591E-04   -0.22610E-04 19264   0.284E-03-0.202E-06
CGA:  21    -0.419723455214E+03   -0.13628E-04   -0.13638E-04 19264   0.244E-03 0.205E-06
CGA:  22    -0.419723487592E+03   -0.32378E-04   -0.32120E-04 19264   0.289E-03 0.281E-05
CGA:  23    -0.419723495811E+03   -0.82195E-05   -0.82495E-05 19264   0.102E-03 0.350E-06
   7 F= -.41972350E+03 E0= -.41969143E+03  d E =-.266663E-02  mag=    34.0000
       N       E                     dE             d eps       ncg     rms          ort
SDA:   1    -0.401807225003E+03    0.17916E+02    0.00000E+00 19264   0.584E+02 0.000E+00
CGA:   2    -0.404849322344E+03   -0.30421E+01   -0.30584E+01 19264   0.118E+03 0.130E+01
CGA:   3    -0.414365685712E+03   -0.95164E+01   -0.10990E+02 19264   0.165E+03-0.474E+02
CGA:   4    -0.416281253403E+03   -0.19156E+01   -0.17887E+01 19264   0.259E+02 0.356E+01
CGA:   5    -0.416704052313E+03   -0.42280E+00   -0.45565E+00 19264   0.239E+02-0.157E+01
CGA:   6    -0.418172483578E+03   -0.14684E+01   -0.14646E+01 19264   0.410E+02 0.242E+00
CGA:   7    -0.418931142530E+03   -0.75866E+00   -0.66447E+00 19264   0.111E+02 0.483E+01
CGA:   8    -0.419110588755E+03   -0.17945E+00   -0.17608E+00 19264   0.308E+01 0.137E+00
CGA:   9    -0.419194272192E+03   -0.83683E-01   -0.86637E-01 19264   0.400E+01-0.427E-01
CGA:  10    -0.419374655334E+03   -0.18038E+00   -0.18064E+00 19264   0.715E+01 0.247E-01
CGA:  11    -0.419512422239E+03   -0.13777E+00   -0.14105E+00 19264   0.186E+01-0.156E+00
CGA:  12    -0.419559052058E+03   -0.46630E-01   -0.48075E-01 19264   0.104E+01-0.227E-01
CGA:  13    -0.419577616135E+03   -0.18564E-01   -0.18687E-01 19264   0.599E+00-0.433E-02
CGA:  14    -0.419630490211E+03   -0.52874E-01   -0.54607E-01 19264   0.170E+01-0.426E-01
CGA:  15    -0.419658319746E+03   -0.27830E-01   -0.34600E-01 19264   0.506E+00-0.144E+00
CGA:  16    -0.419674110675E+03   -0.15791E-01   -0.16239E-01 19264   0.165E+00 0.742E-02
CGA:  17    -0.419677776216E+03   -0.36655E-02   -0.36445E-02 19264   0.100E+00 0.515E-03
CGA:  18    -0.419687999975E+03   -0.10224E-01   -0.10146E-01 19264   0.218E+00 0.970E-03
CGA:  19    -0.419695864268E+03   -0.78643E-02   -0.80762E-02 19264   0.121E+00 0.430E-02
CGA:  20    -0.419699278976E+03   -0.34147E-02   -0.34112E-02 19264   0.200E-01-0.665E-05
CGA:  21    -0.419700329512E+03   -0.10505E-02   -0.10497E-02 19264   0.183E-01 0.776E-04
CGA:  22    -0.419702183923E+03   -0.18544E-02   -0.18593E-02 19264   0.535E-01-0.107E-03
CGA:  23    -0.419703785113E+03   -0.16012E-02   -0.16113E-02 19264   0.778E-02-0.296E-04
CGA:  24    -0.419704054538E+03   -0.26943E-03   -0.26987E-03 19264   0.393E-02 0.555E-05
CGA:  25    -0.419704213200E+03   -0.15866E-03   -0.15870E-03 19264   0.415E-02 0.132E-05
CGA:  26    -0.419704625478E+03   -0.41228E-03   -0.41065E-03 19264   0.503E-02 0.273E-04
CGA:  27    -0.419704817854E+03   -0.19238E-03   -0.19253E-03 19264   0.109E-02 0.356E-05
CGA:  28    -0.419704843806E+03   -0.25952E-04   -0.25990E-04 19264   0.530E-03-0.163E-05
CGA:  29    -0.419704900318E+03   -0.56512E-04   -0.56329E-04 19264   0.108E-02 0.157E-05
CGA:  30    -0.419704953631E+03   -0.53313E-04   -0.53318E-04 19264   0.949E-03 0.105E-05
CGA:  31    -0.419704981462E+03   -0.27831E-04   -0.27876E-04 19264   0.144E-03-0.219E-06
SDA:  32    -0.419704990622E+03   -0.91603E-05   -0.91588E-05 19264   0.191E-03-0.122E-05
   8 F= -.41970499E+03 E0= -.41967247E+03  d E =0.185052E-01  mag=    34.0000
       N       E                     dE             d eps       ncg     rms          ort
SDA:   1    -0.414587833158E+03    0.51171E+01    0.00000E+00 19264   0.142E+02 0.000E+00
CGA:   2    -0.416032671921E+03   -0.14448E+01   -0.14371E+01 19264   0.555E+02 0.197E+00
CGA:   3    -0.418521864823E+03   -0.24892E+01   -0.24813E+01 19264   0.870E+01-0.229E+00
CGA:   4    -0.418855424368E+03   -0.33356E+00   -0.33524E+00 19264   0.824E+01 0.207E-01
CGA:   5    -0.419273028188E+03   -0.41760E+00   -0.41765E+00 19264   0.766E+01 0.366E-01
CGA:   6    -0.419556971658E+03   -0.28394E+00   -0.28195E+00 19264   0.125E+01-0.177E-01
CGA:   7    -0.419620239900E+03   -0.63268E-01   -0.63268E-01 19264   0.856E+00 0.100E-02
CGA:   8    -0.419649967726E+03   -0.29728E-01   -0.29648E-01 19264   0.649E+00 0.979E-05
CGA:   9    -0.419696446798E+03   -0.46479E-01   -0.46297E-01 19264   0.211E+00 0.665E-02
CGA:  10    -0.419703575319E+03   -0.71285E-02   -0.71317E-02 19264   0.109E+00 0.423E-04
CGA:  11    -0.419708213229E+03   -0.46379E-02   -0.46402E-02 19264   0.133E+00 0.160E-03
CGA:  12    -0.419717244902E+03   -0.90317E-02   -0.90275E-02 19264   0.541E-01 0.184E-03
CGA:  13    -0.419718668813E+03   -0.14239E-02   -0.14245E-02 19264   0.189E-01 0.151E-05
CGA:  14    -0.419719489502E+03   -0.82069E-03   -0.82086E-03 19264   0.154E-01 0.188E-04
CGA:  15    -0.419721083331E+03   -0.15938E-02   -0.15938E-02 19264   0.116E-01 0.637E-05
CGA:  16    -0.419721527911E+03   -0.44458E-03   -0.44506E-03 19264   0.663E-02 0.763E-05
CGA:  17    -0.419721740442E+03   -0.21253E-03   -0.21249E-03 19264   0.262E-02 0.153E-05
CGA:  18    -0.419721979795E+03   -0.23935E-03   -0.23902E-03 19264   0.553E-02 0.510E-05
CGA:  19    -0.419722233081E+03   -0.25329E-03   -0.25339E-03 19264   0.426E-02 0.840E-05
CGA:  20    -0.419722351781E+03   -0.11870E-03   -0.11883E-03 19264   0.713E-03 0.122E-05
CGA:  21    -0.419722419079E+03   -0.67298E-04   -0.67201E-04 19264   0.172E-02 0.146E-05
CGA:  22    -0.419722503538E+03   -0.84459E-04   -0.84459E-04 19264   0.139E-02-0.715E-06
CGA:  23    -0.419722559418E+03   -0.55880E-04   -0.55898E-04 19264   0.295E-03-0.643E-06
CGA:  24    -0.419722574775E+03   -0.15357E-04   -0.15357E-04 19264   0.299E-03 0.120E-06
CGA:  25    -0.419722587228E+03   -0.12452E-04   -0.12466E-04 19264   0.304E-03 0.553E-06
CGA:  26    -0.419722606879E+03   -0.19652E-04   -0.19612E-04 19264   0.187E-03 0.262E-05
CGA:  27    -0.419722612798E+03   -0.59185E-05   -0.59435E-05 19264   0.706E-04 0.712E-06
   9 F= -.41972261E+03 E0= -.41968965E+03  d E =-.176222E-01  mag=    34.0000
       N       E                     dE             d eps       ncg     rms          ort
SDA:   1    -0.418647997836E+03    0.10746E+01    0.00000E+00 19264   0.339E+01 0.000E+00
CGA:   2    -0.418896461601E+03   -0.24846E+00   -0.24897E+00 19264   0.113E+02-0.145E-01
CGA:   3    -0.419473571494E+03   -0.57711E+00   -0.57711E+00 19264   0.177E+01-0.261E-01
CGA:   4    -0.419553936829E+03   -0.80365E-01   -0.80343E-01 19264   0.125E+01-0.534E-03
CGA:   5    -0.419695191256E+03   -0.14125E+00   -0.14114E+00 19264   0.430E+00 0.187E-02
CGA:   6    -0.419708563325E+03   -0.13372E-01   -0.13333E-01 19264   0.263E+00 0.503E-03
CGA:   7    -0.419721648254E+03   -0.13085E-01   -0.13084E-01 19264   0.201E+00-0.830E-05
CGA:   8    -0.419734823093E+03   -0.13175E-01   -0.13175E-01 19264   0.522E-01 0.704E-05
CGA:   9    -0.419736599526E+03   -0.17764E-02   -0.17775E-02 19264   0.376E-01 0.458E-05
CGA:  10    -0.419738045823E+03   -0.14463E-02   -0.14469E-02 19264   0.278E-01 0.182E-04
CGA:  11    -0.419740051554E+03   -0.20057E-02   -0.20054E-02 19264   0.176E-01 0.162E-04
CGA:  12    -0.419740813266E+03   -0.76171E-03   -0.76210E-03 19264   0.590E-02 0.150E-04
CGA:  13    -0.419740986841E+03   -0.17357E-03   -0.17362E-03 19264   0.375E-02 0.112E-05
CGA:  14    -0.419741394908E+03   -0.40807E-03   -0.40762E-03 19264   0.468E-02 0.658E-05
CGA:  15    -0.419741575643E+03   -0.18073E-03   -0.18076E-03 19264   0.187E-02 0.158E-05
CGA:  16    -0.419741619139E+03   -0.43496E-04   -0.43559E-04 19264   0.629E-03-0.108E-05
CGA:  17    -0.419741706009E+03   -0.86869E-04   -0.86487E-04 19264   0.132E-02 0.371E-05
CGA:  18    -0.419741765073E+03   -0.59065E-04   -0.59109E-04 19264   0.592E-03 0.191E-05
CGA:  19    -0.419741781692E+03   -0.16619E-04   -0.16637E-04 19264   0.244E-03 0.335E-06
CGA:  20    -0.419741798793E+03   -0.17101E-04   -0.17098E-04 19264   0.259E-03-0.194E-06
CGA:  21    -0.419741816446E+03   -0.17652E-04   -0.17659E-04 19264   0.468E-03-0.124E-05
CGA:  22    -0.419741830592E+03   -0.14147E-04   -0.14137E-04 19264   0.650E-04-0.141E-05
CGA:  23    -0.419741833806E+03   -0.32134E-05   -0.32120E-05 19264   0.417E-04-0.641E-06
  10 F= -.41974183E+03 E0= -.41970900E+03  d E =-.192210E-01  mag=    34.0000
       N       E                     dE             d eps       ncg     rms          ort
SDA:   1    -0.419111186168E+03    0.63064E+00    0.00000E+00 19264   0.240E+01 0.000E+00
CGA:   2    -0.419203235410E+03   -0.92049E-01   -0.92043E-01 19264   0.383E+01 0.111E-02
CGA:   3    -0.419594042279E+03   -0.39081E+00   -0.39087E+00 19264   0.160E+01-0.178E-02
CGA:   4    -0.419642516293E+03   -0.48474E-01   -0.48178E-01 19264   0.812E+00 0.419E-02
CGA:   5    -0.419683722691E+03   -0.41206E-01   -0.41263E-01 19264   0.877E+00 0.422E-02
CGA:   6    -0.419732840246E+03   -0.49118E-01   -0.49118E-01 19264   0.230E+00 0.719E-03
CGA:   7    -0.419742498040E+03   -0.96578E-02   -0.97026E-02 19264   0.796E-01 0.585E-03
CGA:   8    -0.419746425652E+03   -0.39276E-02   -0.39298E-02 19264   0.118E+00 0.165E-03
CGA:   9    -0.419751276002E+03   -0.48504E-02   -0.48484E-02 19264   0.458E-01-0.847E-05
CGA:  10    -0.419753414233E+03   -0.21382E-02   -0.21392E-02 19264   0.151E-01 0.458E-04
CGA:  11    -0.419753857311E+03   -0.44308E-03   -0.44326E-03 19264   0.100E-01 0.525E-06
CGA:  12    -0.419754785211E+03   -0.92790E-03   -0.92730E-03 19264   0.109E-01 0.142E-04
CGA:  13    -0.419755251190E+03   -0.46598E-03   -0.46598E-03 19264   0.300E-02-0.128E-06
CGA:  14    -0.419755322666E+03   -0.71476E-04   -0.71509E-04 19264   0.136E-02-0.102E-05
CGA:  15    -0.419755450338E+03   -0.12767E-03   -0.12755E-03 19264   0.233E-02 0.256E-05
CGA:  16    -0.419755574097E+03   -0.12376E-03   -0.12377E-03 19264   0.103E-02 0.419E-05
CGA:  17    -0.419755598377E+03   -0.24280E-04   -0.24318E-04 19264   0.294E-03 0.299E-06
CGA:  18    -0.419755625468E+03   -0.27091E-04   -0.26992E-04 19264   0.401E-03 0.189E-05
CGA:  19    -0.419755649339E+03   -0.23871E-04   -0.23861E-04 19264   0.656E-03 0.149E-05
CGA:  20    -0.419755672737E+03   -0.23398E-04   -0.23446E-04 19264   0.133E-03 0.104E-05
CGA:  21    -0.419755678293E+03   -0.55568E-05   -0.55578E-05 19264   0.892E-04-0.485E-06
  11 F= -.41975568E+03 E0= -.41972286E+03  d E =-.138445E-01  mag=    34.0000
       N       E                     dE             d eps       ncg     rms          ort
SDA:   1    -0.417885360696E+03    0.18703E+01    0.00000E+00 19264   0.615E+01 0.000E+00
CGA:   2    -0.418174546687E+03   -0.28919E+00   -0.28930E+00 19264   0.128E+02 0.416E-02
CGA:   3    -0.419294002885E+03   -0.11195E+01   -0.11180E+01 19264   0.665E+01 0.331E-01
CGA:   4    -0.419495424791E+03   -0.20142E+00   -0.19861E+00 19264   0.168E+01 0.378E-01
CGA:   5    -0.419577257424E+03   -0.81833E-01   -0.81868E-01 19264   0.244E+01 0.267E-02
CGA:   6    -0.419717125413E+03   -0.13987E+00   -0.13990E+00 19264   0.711E+00-0.704E-02
CGA:   7    -0.419743327595E+03   -0.26202E-01   -0.26142E-01 19264   0.120E+00 0.240E-04
CGA:   8    -0.419760662491E+03   -0.17335E-01   -0.17279E-01 19264   0.286E+00 0.688E-03
CGA:   9    -0.419767414418E+03   -0.67519E-02   -0.67658E-02 19264   0.447E-01-0.373E-03
CGA:  10    -0.419769421900E+03   -0.20075E-02   -0.20109E-02 19264   0.257E-01 0.793E-04
CGA:  11    -0.419771263114E+03   -0.18412E-02   -0.18413E-02 19264   0.556E-01-0.130E-04
CGA:  12    -0.419773022764E+03   -0.17596E-02   -0.17684E-02 19264   0.799E-02-0.101E-03
CGA:  13    -0.419773369110E+03   -0.34635E-03   -0.34645E-03 19264   0.410E-02 0.206E-05
CGA:  14    -0.419773643437E+03   -0.27433E-03   -0.27413E-03 19264   0.645E-02 0.108E-04
CGA:  15    -0.419773937100E+03   -0.29366E-03   -0.29376E-03 19264   0.449E-02 0.441E-05
CGA:  16    -0.419774133583E+03   -0.19648E-03   -0.19671E-03 19264   0.642E-03 0.594E-05
CGA:  17    -0.419774173047E+03   -0.39465E-04   -0.39454E-04 19264   0.141E-02-0.134E-05
CGA:  18    -0.419774259819E+03   -0.86772E-04   -0.86719E-04 19264   0.160E-02 0.408E-05
CGA:  19    -0.419774329039E+03   -0.69220E-04   -0.69238E-04 19264   0.408E-03 0.287E-06
CGA:  20    -0.419774341041E+03   -0.12002E-04   -0.12001E-04 19264   0.256E-03-0.149E-05
CGA:  21    -0.419774362913E+03   -0.21872E-04   -0.21914E-04 19264   0.440E-03-0.218E-05
CGA:  22    -0.419774391936E+03   -0.29023E-04   -0.29045E-04 19264   0.118E-03-0.257E-05
CGA:  23    -0.419774395721E+03   -0.37842E-05   -0.37894E-05 19264   0.775E-04-0.591E-06
  12 F= -.41977440E+03 E0= -.41974148E+03  d E =-.187174E-01  mag=    34.0000
       N       E                     dE             d eps       ncg     rms          ort
SDA:   1    -0.394613345614E+03    0.25161E+02    0.00000E+00 19264   0.717E+02 0.000E+00
CGA:   2    -0.400499017514E+03   -0.58857E+01   -0.57180E+01 19264   0.220E+03 0.538E+01
CGA:   3    -0.412714891989E+03   -0.12216E+02   -0.11624E+02 19264   0.125E+03-0.321E+02
CGA:   4    -0.415826220362E+03   -0.31113E+01   -0.29264E+01 19264   0.196E+02 0.238E+01
CGA:   5    -0.417189621232E+03   -0.13634E+01   -0.13679E+01 19264   0.636E+02-0.190E+00
CGA:   6    -0.418830765126E+03   -0.16411E+01   -0.16599E+01 19264   0.182E+02-0.502E+00
CGA:   7    -0.419240571761E+03   -0.40981E+00   -0.40648E+00 19264   0.413E+01 0.105E+00
CGA:   8    -0.419364524478E+03   -0.12395E+00   -0.12566E+00 19264   0.319E+01-0.152E-01
CGA:   9    -0.419522958947E+03   -0.15843E+00   -0.15844E+00 19264   0.609E+01 0.132E-01
CGA:  10    -0.419681489987E+03   -0.15853E+00   -0.16696E+00 19264   0.190E+01-0.129E+00
CGA:  11    -0.419736323779E+03   -0.54834E-01   -0.55410E-01 19264   0.431E+00-0.371E-02
CGA:  12    -0.419756854814E+03   -0.20531E-01   -0.20539E-01 19264   0.857E+00 0.123E-01
CGA:  13    -0.419787864841E+03   -0.31010E-01   -0.30791E-01 19264   0.458E+00-0.205E-02
CGA:  14    -0.419810958388E+03   -0.23094E-01   -0.22992E-01 19264   0.277E+00 0.200E-01
CGA:  15    -0.419817352884E+03   -0.63945E-02   -0.64036E-02 19264   0.615E-01-0.282E-03
CGA:  16    -0.419820676364E+03   -0.33235E-02   -0.32892E-02 19264   0.114E+00 0.300E-02
CGA:  17    -0.419826794934E+03   -0.61186E-02   -0.61533E-02 19264   0.128E+00-0.429E-02
CGA:  18    -0.419831048731E+03   -0.42538E-02   -0.43374E-02 19264   0.177E-01 0.139E-02
CGA:  19    -0.419831730465E+03   -0.68173E-03   -0.68171E-03 19264   0.175E-01-0.511E-05
CGA:  20    -0.419833257772E+03   -0.15273E-02   -0.14933E-02 19264   0.305E-01 0.812E-03
CGA:  21    -0.419834707225E+03   -0.14495E-02   -0.14479E-02 19264   0.144E-01-0.335E-03
CGA:  22    -0.419835063031E+03   -0.35581E-03   -0.36019E-03 19264   0.553E-02-0.692E-04
CGA:  23    -0.419835349256E+03   -0.28622E-03   -0.28625E-03 19264   0.581E-02-0.263E-05
CGA:  24    -0.419835735479E+03   -0.38622E-03   -0.38455E-03 19264   0.850E-02 0.691E-04
CGA:  25    -0.419836056581E+03   -0.32110E-03   -0.32079E-03 19264   0.208E-02-0.511E-05
CGA:  26    -0.419836139902E+03   -0.83321E-04   -0.83384E-04 19264   0.104E-02 0.323E-05
CGA:  27    -0.419836199684E+03   -0.59783E-04   -0.59705E-04 19264   0.168E-02 0.682E-05
CGA:  28    -0.419836304704E+03   -0.10502E-03   -0.10471E-03 19264   0.740E-03 0.193E-04
CGA:  29    -0.419836325661E+03   -0.20957E-04   -0.21050E-04 19264   0.318E-03 0.247E-05
CGA:  30    -0.419836339283E+03   -0.13622E-04   -0.13640E-04 19264   0.330E-03 0.217E-05
CGA:  31    -0.419836368299E+03   -0.29016E-04   -0.28670E-04 19264   0.478E-03 0.760E-05
SDA:  32    -0.419836382500E+03   -0.14201E-04   -0.14278E-04 19264   0.126E-03 0.257E-05
CGA:  33    -0.419836385479E+03   -0.29788E-05   -0.29787E-05 19264   0.618E-04-0.124E-05
  13 F= -.41983639E+03 E0= -.41980307E+03  d E =-.619898E-01  mag=    34.0000
       N       E                     dE             d eps       ncg     rms          ort
SDA:   1    -0.378402776307E+03    0.41434E+02    0.00000E+00 19264   0.136E+03 0.000E+00
CGA:   2    -0.385117183794E+03   -0.67144E+01   -0.67149E+01 19264   0.275E+03 0.656E+01
CGA:   3    -0.400654516158E+03   -0.15537E+02   -0.25021E+02 19264   0.100E+04-0.223E+03
CGA:   4    -0.407619241676E+03   -0.69647E+01   -0.16607E+02 19264   0.494E+03-0.639E+03
CGA:   5    -0.412747816212E+03   -0.51286E+01   -0.57127E+01 19264   0.378E+02-0.787E+02
CGA:   6    -0.413948518755E+03   -0.12007E+01   -0.12001E+01 19264   0.512E+02-0.955E-02
CGA:   7    -0.416345611572E+03   -0.23971E+01   -0.23966E+01 19264   0.569E+02-0.980E+00
CGA:   8    -0.417608843979E+03   -0.12632E+01   -0.12626E+01 19264   0.161E+02-0.698E+00
CGA:   9    -0.418022228865E+03   -0.41338E+00   -0.40887E+00 19264   0.125E+02 0.374E-01
CGA:  10    -0.418694082238E+03   -0.67185E+00   -0.66904E+00 19264   0.210E+02 0.259E+00
CGA:  11    -0.419294378290E+03   -0.60030E+00   -0.59707E+00 19264   0.940E+01-0.289E-01
CGA:  12    -0.419531567675E+03   -0.23719E+00   -0.25059E+00 19264   0.474E+01-0.133E+00
CGA:  13    -0.419653910021E+03   -0.12234E+00   -0.12291E+00 19264   0.215E+01-0.746E-02
CGA:  14    -0.419725747223E+03   -0.71837E-01   -0.73050E-01 19264   0.185E+01 0.353E-01
CGA:  15    -0.419795498672E+03   -0.69751E-01   -0.69784E-01 19264   0.137E+01 0.209E-02
CGA:  16    -0.419834330375E+03   -0.38832E-01   -0.39966E-01 19264   0.480E+00 0.657E-02
CGA:  17    -0.419846379191E+03   -0.12049E-01   -0.12095E-01 19264   0.216E+00-0.502E-03
CGA:  18    -0.419857293660E+03   -0.10914E-01   -0.10776E-01 19264   0.287E+00 0.995E-02
CGA:  19    -0.419869018290E+03   -0.11725E-01   -0.11716E-01 19264   0.203E+00-0.207E-02
CGA:  20    -0.419875771055E+03   -0.67528E-02   -0.68579E-02 19264   0.947E-01 0.458E-02
CGA:  21    -0.419879267222E+03   -0.34962E-02   -0.34940E-02 19264   0.861E-01-0.172E-03
CGA:  22    -0.419884666224E+03   -0.53990E-02   -0.52180E-02 19264   0.852E-01 0.733E-02
CGA:  23    -0.419887589090E+03   -0.29229E-02   -0.29144E-02 19264   0.516E-01-0.143E-03
CGA:  24    -0.419890262775E+03   -0.26737E-02   -0.26357E-02 19264   0.403E-01 0.262E-02
CGA:  25    -0.419891743881E+03   -0.14811E-02   -0.14799E-02 19264   0.284E-01-0.594E-04
CGA:  26    -0.419893406815E+03   -0.16629E-02   -0.16416E-02 19264   0.299E-01 0.102E-02
CGA:  27    -0.419894534109E+03   -0.11273E-02   -0.11263E-02 19264   0.161E-01-0.515E-04
CGA:  28    -0.419895215203E+03   -0.68109E-03   -0.68082E-03 19264   0.123E-01 0.225E-03
CGA:  29    -0.419895811856E+03   -0.59665E-03   -0.59675E-03 19264   0.104E-01-0.820E-05
CGA:  30    -0.419896244762E+03   -0.43291E-03   -0.43294E-03 19264   0.707E-02 0.750E-04
CGA:  31    -0.419896554558E+03   -0.30980E-03   -0.30977E-03 19264   0.477E-02 0.126E-04
CGA:  32    -0.419896748704E+03   -0.19415E-03   -0.19421E-03 19264   0.325E-02 0.272E-04
CGA:  33    -0.419896897181E+03   -0.14848E-03   -0.14839E-03 19264   0.250E-02 0.212E-04
CGA:  34    -0.419897016825E+03   -0.11964E-03   -0.11949E-03 19264   0.209E-02 0.241E-04
SDA:  35    -0.419897100785E+03   -0.83960E-04   -0.84012E-04 19264   0.117E-02 0.174E-04
CGA:  36    -0.419897121772E+03   -0.20988E-04   -0.21006E-04 19264   0.401E-03-0.258E-05
CGA:  37    -0.419897177727E+03   -0.55955E-04   -0.54963E-04 19264   0.113E-02 0.899E-05
CGA:  38    -0.419897277107E+03   -0.99381E-04   -0.98832E-04 19264   0.919E-03 0.125E-04
CGA:  39    -0.419897317239E+03   -0.40132E-04   -0.40166E-04 19264   0.357E-03 0.536E-05
CGA:  40    -0.419897327561E+03   -0.10321E-04   -0.10354E-04 19264   0.284E-03 0.496E-06
CGA:  41    -0.419897362632E+03   -0.35071E-04   -0.34768E-04 19264   0.575E-03 0.317E-05
CGA:  42    -0.419897386780E+03   -0.24148E-04   -0.24171E-04 19264   0.334E-03 0.157E-05
CGA:  43    -0.419897394386E+03   -0.76064E-05   -0.76179E-05 19264   0.403E-04-0.403E-06
  14 F= -.41989739E+03 E0= -.41986338E+03  d E =-.610089E-01  mag=    34.0000
       N       E                     dE             d eps       ncg     rms          ort
SDA:   1    -0.412407076727E+03    0.74903E+01    0.00000E+00 19264   0.518E+02 0.000E+00
CGA:   2    -0.413538745050E+03   -0.11317E+01   -0.11401E+01 19264   0.295E+02-0.825E+00
CGA:   3    -0.416473423999E+03   -0.29347E+01   -0.30521E+01 19264   0.439E+02-0.256E+01
CGA:   4    -0.418196700685E+03   -0.17233E+01   -0.17151E+01 19264   0.180E+02 0.524E-01
CGA:   5    -0.418618033088E+03   -0.42133E+00   -0.40084E+00 19264   0.672E+01 0.604E+00
CGA:   6    -0.419284022591E+03   -0.66599E+00   -0.66935E+00 19264   0.123E+02-0.806E-01
CGA:   7    -0.419657336951E+03   -0.37331E+00   -0.37195E+00 19264   0.291E+01 0.165E-01
CGA:   8    -0.419721180470E+03   -0.63844E-01   -0.70922E-01 19264   0.133E+01-0.167E+00
CGA:   9    -0.419781785834E+03   -0.60605E-01   -0.60551E-01 19264   0.934E+00-0.310E-02
CGA:  10    -0.419837124747E+03   -0.55339E-01   -0.55134E-01 19264   0.889E+00 0.229E-01
CGA:  11    -0.419861398110E+03   -0.24273E-01   -0.24261E-01 19264   0.212E+00 0.116E-03
CGA:  12    -0.419868623601E+03   -0.72255E-02   -0.73088E-02 19264   0.123E+00-0.433E-04
CGA:  13    -0.419877134087E+03   -0.85105E-02   -0.85380E-02 19264   0.229E+00-0.122E-02
CGA:  14    -0.419885962286E+03   -0.88282E-02   -0.89286E-02 19264   0.853E-01 0.144E-02
CGA:  15    -0.419888274805E+03   -0.23125E-02   -0.23087E-02 19264   0.202E-01 0.788E-04
CGA:  16    -0.419889428980E+03   -0.11542E-02   -0.11538E-02 19264   0.368E-01 0.429E-04
CGA:  17    -0.419891790563E+03   -0.23616E-02   -0.23569E-02 19264   0.228E-01 0.236E-03
CGA:  18    -0.419892707538E+03   -0.91698E-03   -0.91827E-03 19264   0.109E-01 0.162E-04
CGA:  19    -0.419893051063E+03   -0.34352E-03   -0.34376E-03 19264   0.555E-02 0.246E-05
CGA:  20    -0.419893406562E+03   -0.35550E-03   -0.35502E-03 19264   0.862E-02 0.245E-04
CGA:  21    -0.419893952795E+03   -0.54623E-03   -0.54634E-03 19264   0.986E-02-0.862E-05
CGA:  22    -0.419894223231E+03   -0.27044E-03   -0.27146E-03 19264   0.169E-02-0.157E-04
CGA:  23    -0.419894316851E+03   -0.93620E-04   -0.93617E-04 19264   0.240E-02-0.174E-05
CGA:  24    -0.419894484762E+03   -0.16791E-03   -0.16782E-03 19264   0.357E-02 0.172E-05
CGA:  25    -0.419894634655E+03   -0.14989E-03   -0.14987E-03 19264   0.117E-02-0.365E-05
CGA:  26    -0.419894675888E+03   -0.41233E-04   -0.41260E-04 19264   0.628E-03-0.912E-06
CGA:  27    -0.419894701830E+03   -0.25943E-04   -0.25959E-04 19264   0.561E-03 0.626E-06
CGA:  28    -0.419894741389E+03   -0.39559E-04   -0.39462E-04 19264   0.794E-03 0.370E-05
CGA:  29    -0.419894775881E+03   -0.34491E-04   -0.34527E-04 19264   0.412E-03 0.392E-05
CGA:  30    -0.419894787354E+03   -0.11474E-04   -0.11506E-04 19264   0.102E-03 0.845E-06
CGA:  31    -0.419894796904E+03   -0.95495E-05   -0.94827E-05 19264   0.271E-03 0.809E-06
SDA:  32    -0.419894810299E+03   -0.13395E-04   -0.13400E-04 19264   0.175E-03 0.126E-05
CGA:  33    -0.419894813963E+03   -0.36645E-05   -0.36650E-05 19264   0.565E-04-0.686E-06
  15 F= -.41989481E+03 E0= -.41986070E+03  d E =0.258042E-02  mag=    34.0000
       N       E                     dE             d eps       ncg     rms          ort
SDA:   1    -0.419326760471E+03    0.56805E+00    0.00000E+00 19264   0.227E+01 0.000E+00
CGA:   2    -0.419457374688E+03   -0.13061E+00   -0.13075E+00 19264   0.508E+01-0.103E-01
CGA:   3    -0.419687654519E+03   -0.23028E+00   -0.23027E+00 19264   0.196E+01-0.811E-03
CGA:   4    -0.419767154103E+03   -0.79500E-01   -0.79523E-01 19264   0.829E+00 0.111E-02
CGA:   5    -0.419836347275E+03   -0.69193E-01   -0.69095E-01 19264   0.151E+01 0.280E-02
CGA:   6    -0.419887178240E+03   -0.50831E-01   -0.50743E-01 19264   0.550E+00 0.426E-03
CGA:   7    -0.419903444605E+03   -0.16266E-01   -0.16244E-01 19264   0.889E-01 0.298E-03
CGA:   8    -0.419914744561E+03   -0.11300E-01   -0.11312E-01 19264   0.105E+00-0.148E-03
CGA:   9    -0.419917951183E+03   -0.32066E-02   -0.32088E-02 19264   0.414E-01-0.777E-05
CGA:  10    -0.419919014690E+03   -0.10635E-02   -0.10623E-02 19264   0.129E-01 0.223E-04
CGA:  11    -0.419920230456E+03   -0.12158E-02   -0.12155E-02 19264   0.213E-01 0.892E-05
CGA:  12    -0.419921057950E+03   -0.82749E-03   -0.82746E-03 19264   0.128E-01-0.645E-05
CGA:  13    -0.419921419073E+03   -0.36112E-03   -0.36083E-03 19264   0.284E-02 0.204E-05
CGA:  14    -0.419921609959E+03   -0.19089E-03   -0.19089E-03 19264   0.263E-02 0.412E-06
CGA:  15    -0.419921879273E+03   -0.26931E-03   -0.26894E-03 19264   0.345E-02 0.712E-05
CGA:  16    -0.419921955269E+03   -0.75996E-04   -0.76073E-04 19264   0.695E-03 0.149E-05
CGA:  17    -0.419921985862E+03   -0.30593E-04   -0.30606E-04 19264   0.571E-03 0.134E-05
CGA:  18    -0.419922046784E+03   -0.60922E-04   -0.60720E-04 19264   0.129E-02 0.369E-05
CGA:  19    -0.419922080104E+03   -0.33319E-04   -0.33387E-04 19264   0.235E-03 0.156E-05
CGA:  20    -0.419922091763E+03   -0.11659E-04   -0.11662E-04 19264   0.146E-03 0.483E-06
CGA:  21    -0.419922109565E+03   -0.17802E-04   -0.17736E-04 19264   0.418E-03 0.875E-06
CGA:  22    -0.419922122768E+03   -0.13204E-04   -0.13218E-04 19264   0.140E-03 0.273E-06
CGA:  23    -0.419922127317E+03   -0.45481E-05   -0.45506E-05 19264   0.413E-04 0.954E-08
  16 F= -.41992213E+03 E0= -.41988813E+03  d E =-.273134E-01  mag=    34.0000
       N       E                     dE             d eps       ncg     rms          ort
SDA:   1    -0.419757236182E+03    0.16489E+00    0.00000E+00 19264   0.994E+00 0.000E+00
CGA:   2    -0.419784520164E+03   -0.27284E-01   -0.27359E-01 19264   0.822E+00-0.142E-02
CGA:   3    -0.419849480697E+03   -0.64961E-01   -0.65014E-01 19264   0.846E+00-0.167E-02
CGA:   4    -0.419885303908E+03   -0.35823E-01   -0.35853E-01 19264   0.353E+00 0.520E-03
CGA:   5    -0.419896851735E+03   -0.11548E-01   -0.11562E-01 19264   0.256E+00-0.107E-04
CGA:   6    -0.419911578776E+03   -0.14727E-01   -0.14728E-01 19264   0.232E+00 0.681E-04
CGA:   7    -0.419923706900E+03   -0.12128E-01   -0.12128E-01 19264   0.453E-01-0.253E-03
CGA:   8    -0.419925373584E+03   -0.16667E-02   -0.16682E-02 19264   0.358E-01 0.197E-04
CGA:   9    -0.419926662570E+03   -0.12890E-02   -0.12876E-02 19264   0.196E-01 0.362E-05
CGA:  10    -0.419928106517E+03   -0.14439E-02   -0.14432E-02 19264   0.134E-01 0.273E-04
CGA:  11    -0.419928419077E+03   -0.31256E-03   -0.31309E-03 19264   0.355E-02-0.141E-04
CGA:  12    -0.419928569251E+03   -0.15017E-03   -0.15016E-03 19264   0.282E-02-0.192E-05
CGA:  13    -0.419928895992E+03   -0.32674E-03   -0.32698E-03 19264   0.245E-02-0.300E-05
CGA:  14    -0.419928955875E+03   -0.59883E-04   -0.59864E-04 19264   0.856E-03-0.139E-05
CGA:  15    -0.419928991692E+03   -0.35817E-04   -0.35824E-04 19264   0.527E-03 0.576E-06
CGA:  16    -0.419929039102E+03   -0.47410E-04   -0.47336E-04 19264   0.988E-03 0.185E-05
CGA:  17    -0.419929069115E+03   -0.30013E-04   -0.30059E-04 19264   0.396E-03 0.157E-05
CGA:  18    -0.419929086243E+03   -0.17129E-04   -0.17140E-04 19264   0.117E-03 0.110E-05
CGA:  19    -0.419929093837E+03   -0.75937E-05   -0.75849E-05 19264   0.208E-03 0.682E-06
CGA:  20    -0.419929106535E+03   -0.12699E-04   -0.12690E-04 19264   0.258E-03 0.102E-05
CGA:  21    -0.419929115363E+03   -0.88278E-05   -0.88425E-05 19264   0.442E-04 0.672E-06
  17 F= -.41992912E+03 E0= -.41989518E+03  d E =-.698805E-02  mag=    34.0000
       N       E                     dE             d eps       ncg     rms          ort
SDA:   1    -0.419888571038E+03    0.40535E-01    0.00000E+00 19264   0.560E+00 0.000E+00
CGA:   2    -0.419897713330E+03   -0.91423E-02   -0.91131E-02 19264   0.115E+00 0.130E-02
CGA:   3    -0.419912782594E+03   -0.15069E-01   -0.15065E-01 19264   0.256E+00 0.838E-04
CGA:   4    -0.419923130347E+03   -0.10348E-01   -0.10349E-01 19264   0.908E-01-0.197E-04
CGA:   5    -0.419925425014E+03   -0.22947E-02   -0.22952E-02 19264   0.361E-01 0.206E-04
CGA:   6    -0.419928212520E+03   -0.27875E-02   -0.27848E-02 19264   0.430E-01 0.116E-03
CGA:   7    -0.419930683622E+03   -0.24711E-02   -0.24711E-02 19264   0.590E-02 0.138E-04
CGA:   8    -0.419930974547E+03   -0.29092E-03   -0.29086E-03 19264   0.555E-02-0.357E-05
CGA:   9    -0.419931184428E+03   -0.20988E-03   -0.20990E-03 19264   0.422E-02-0.103E-05
CGA:  10    -0.419931440390E+03   -0.25596E-03   -0.25604E-03 19264   0.117E-02-0.811E-05
CGA:  11    -0.419931491497E+03   -0.51107E-04   -0.51090E-04 19264   0.509E-03-0.134E-05
CGA:  12    -0.419931521846E+03   -0.30349E-04   -0.30355E-04 19264   0.949E-03-0.820E-06
CGA:  13    -0.419931567163E+03   -0.45318E-04   -0.45311E-04 19264   0.464E-03-0.112E-05
CGA:  14    -0.419931583841E+03   -0.16677E-04   -0.16676E-04 19264   0.115E-03 0.603E-07
CGA:  15    -0.419931587771E+03   -0.39308E-05   -0.39376E-05 19264   0.131E-03 0.401E-06
CGA:  16    -0.419931602420E+03   -0.14648E-04   -0.14472E-04 19264   0.135E-03 0.304E-05
CGA:  17    -0.419931607547E+03   -0.51268E-05   -0.51439E-05 19264   0.393E-04 0.103E-05
  18 F= -.41993161E+03 E0= -.41989769E+03  d E =-.249218E-02  mag=    34.0000
       N       E                     dE             d eps       ncg     rms          ort
SDA:   1    -0.419218220173E+03    0.71338E+00    0.00000E+00 19264   0.157E+02 0.000E+00
CGA:   2    -0.419478473225E+03   -0.26025E+00   -0.26393E+00 19264   0.181E+01-0.383E+00
CGA:   3    -0.419582382523E+03   -0.10391E+00   -0.10388E+00 19264   0.258E+01 0.232E-02
CGA:   4    -0.419831816096E+03   -0.24943E+00   -0.24970E+00 19264   0.870E+00-0.617E-02
CGA:   5    -0.419860444363E+03   -0.28628E-01   -0.28642E-01 19264   0.598E+00 0.249E-04
CGA:   6    -0.419887570262E+03   -0.27126E-01   -0.27132E-01 19264   0.513E+00 0.432E-03
CGA:   7    -0.419923163294E+03   -0.35593E-01   -0.35578E-01 19264   0.226E+00 0.729E-03
CGA:   8    -0.419927820515E+03   -0.46572E-02   -0.46632E-02 19264   0.579E-01-0.195E-03
CGA:   9    -0.419930774821E+03   -0.29543E-02   -0.29543E-02 19264   0.488E-01-0.538E-05
CGA:  10    -0.419934006086E+03   -0.32313E-02   -0.32316E-02 19264   0.424E-01-0.157E-04
CGA:  11    -0.419935268775E+03   -0.12627E-02   -0.12615E-02 19264   0.153E-01 0.692E-05
CGA:  12    -0.419935802639E+03   -0.53386E-03   -0.53380E-03 19264   0.485E-02-0.358E-05
CGA:  13    -0.419936327089E+03   -0.52445E-03   -0.52432E-03 19264   0.105E-01 0.179E-05
CGA:  14    -0.419936690785E+03   -0.36370E-03   -0.36376E-03 19264   0.504E-02-0.428E-05
CGA:  15    -0.419936844045E+03   -0.15326E-03   -0.15335E-03 19264   0.942E-03-0.668E-06
CGA:  16    -0.419936901928E+03   -0.57882E-04   -0.57857E-04 19264   0.222E-02 0.182E-05
CGA:  17    -0.419937046902E+03   -0.14497E-03   -0.14484E-03 19264   0.160E-02 0.844E-05
CGA:  18    -0.419937101873E+03   -0.54971E-04   -0.55026E-04 19264   0.350E-03 0.287E-05
CGA:  19    -0.419937121551E+03   -0.19679E-04   -0.19676E-04 19264   0.612E-03 0.341E-06
CGA:  20    -0.419937159786E+03   -0.38235E-04   -0.38224E-04 19264   0.627E-03 0.225E-06
CGA:  21    -0.419937201100E+03   -0.41314E-04   -0.41316E-04 19264   0.285E-03-0.777E-06
CGA:  22    -0.419937208627E+03   -0.75269E-05   -0.75177E-05 19264   0.141E-03-0.644E-06
  19 F= -.41993721E+03 E0= -.41990328E+03  d E =-.560108E-02  mag=    34.0000
       N       E                     dE             d eps       ncg     rms          ort
SDA:   1    -0.419831568868E+03    0.10563E+00    0.00000E+00 19264   0.101E+01 0.000E+00
CGA:   2    -0.419851396605E+03   -0.19828E-01   -0.20054E-01 19264   0.384E+00-0.826E-02
CGA:   3    -0.419879912581E+03   -0.28516E-01   -0.28533E-01 19264   0.653E+00-0.529E-03
CGA:   4    -0.419919879971E+03   -0.39967E-01   -0.39972E-01 19264   0.162E+00-0.284E-03
CGA:   5    -0.419927932524E+03   -0.80526E-02   -0.80526E-02 19264   0.840E-01 0.591E-04
CGA:   6    -0.419931816303E+03   -0.38838E-02   -0.38847E-02 19264   0.121E+00 0.891E-04
CGA:   7    -0.419937698841E+03   -0.58825E-02   -0.58837E-02 19264   0.431E-01 0.185E-03
CGA:   8    -0.419939275214E+03   -0.15764E-02   -0.15758E-02 19264   0.106E-01 0.498E-05
CGA:   9    -0.419939566757E+03   -0.29154E-03   -0.29177E-03 19264   0.692E-02-0.557E-05
CGA:  10    -0.419940094045E+03   -0.52729E-03   -0.52761E-03 19264   0.773E-02-0.116E-04
CGA:  11    -0.419940493243E+03   -0.39920E-03   -0.39920E-03 19264   0.113E-02-0.506E-05
CGA:  12    -0.419940535478E+03   -0.42235E-04   -0.42236E-04 19264   0.134E-02-0.120E-06
CGA:  13    -0.419940618288E+03   -0.82810E-04   -0.82804E-04 19264   0.148E-02 0.259E-06
CGA:  14    -0.419940694691E+03   -0.76403E-04   -0.76401E-04 19264   0.377E-03 0.220E-05
CGA:  15    -0.419940709218E+03   -0.14527E-04   -0.14541E-04 19264   0.305E-03 0.106E-05
CGA:  16    -0.419940724029E+03   -0.14811E-04   -0.14815E-04 19264   0.379E-03 0.191E-05
CGA:  17    -0.419940753868E+03   -0.29840E-04   -0.29709E-04 19264   0.296E-03 0.448E-05
CGA:  18    -0.419940767020E+03   -0.13151E-04   -0.13165E-04 19264   0.179E-03 0.169E-05
CGA:  19    -0.419940771636E+03   -0.46166E-05   -0.46205E-05 19264   0.770E-04 0.770E-07
CGA:  20    -0.419940788447E+03   -0.16810E-04   -0.17277E-04 19264   0.187E-03-0.259E-05
CGA:  21    -0.419940793730E+03   -0.52838E-05   -0.52590E-05 19264   0.565E-04-0.836E-06
  20 F= -.41994079E+03 E0= -.41990683E+03  d E =-.358510E-02  mag=    34.0000
       N       E                     dE             d eps       ncg     rms          ort
SDA:   1    -0.413941895820E+03    0.59989E+01    0.00000E+00 19264   0.213E+02 0.000E+00
CGA:   2    -0.415003339809E+03   -0.10614E+01   -0.10660E+01 19264   0.434E+02 0.290E+00
CGA:   3    -0.418493513527E+03   -0.34902E+01   -0.35164E+01 19264   0.107E+02-0.109E+01
CGA:   4    -0.418855785085E+03   -0.36227E+00   -0.36028E+00 19264   0.752E+01-0.947E-02
CGA:   5    -0.419278688862E+03   -0.42290E+00   -0.42321E+00 19264   0.143E+02-0.234E+00
CGA:   6    -0.419760930599E+03   -0.48224E+00   -0.48681E+00 19264   0.155E+01-0.110E-01
CGA:   7    -0.419820916712E+03   -0.59986E-01   -0.60084E-01 19264   0.846E+00 0.117E-02
CGA:   8    -0.419862331286E+03   -0.41415E-01   -0.41402E-01 19264   0.135E+01-0.838E-03
CGA:   9    -0.419923655033E+03   -0.61324E-01   -0.61567E-01 19264   0.178E+00 0.105E-01
CGA:  10    -0.419931337816E+03   -0.76828E-02   -0.76816E-02 19264   0.120E+00-0.281E-04
CGA:  11    -0.419940049901E+03   -0.87121E-02   -0.86715E-02 19264   0.248E+00 0.160E-02
CGA:  12    -0.419947383032E+03   -0.73331E-02   -0.73502E-02 19264   0.590E-01-0.321E-03
CGA:  13    -0.419949772387E+03   -0.23894E-02   -0.23888E-02 19264   0.183E-01-0.487E-05
CGA:  14    -0.419951518404E+03   -0.17460E-02   -0.17467E-02 19264   0.440E-01-0.383E-04
CGA:  15    -0.419953201170E+03   -0.16828E-02   -0.16932E-02 19264   0.302E-01 0.109E-03
CGA:  16    -0.419954439472E+03   -0.12383E-02   -0.12388E-02 19264   0.631E-02 0.237E-04
CGA:  17    -0.419954756227E+03   -0.31676E-03   -0.31680E-03 19264   0.896E-02 0.766E-05
CGA:  18    -0.419955349236E+03   -0.59301E-03   -0.59269E-03 19264   0.175E-01 0.134E-04
CGA:  19    -0.419956205054E+03   -0.85582E-03   -0.85605E-03 19264   0.231E-02 0.200E-04
CGA:  20    -0.419956345376E+03   -0.14032E-03   -0.14032E-03 19264   0.446E-02-0.150E-05
CGA:  21    -0.419956620558E+03   -0.27518E-03   -0.27521E-03 19264   0.586E-02-0.552E-05
CGA:  22    -0.419956880173E+03   -0.25962E-03   -0.25965E-03 19264   0.116E-02-0.339E-05
CGA:  23    -0.419956921076E+03   -0.40903E-04   -0.40936E-04 19264   0.838E-03 0.169E-06
CGA:  24    -0.419956962024E+03   -0.40947E-04   -0.40965E-04 19264   0.116E-02 0.329E-05
CGA:  25    -0.419957062740E+03   -0.10072E-03   -0.10019E-03 19264   0.370E-03 0.144E-04
CGA:  26    -0.419957075186E+03   -0.12447E-04   -0.12485E-04 19264   0.233E-03 0.584E-06
CGA:  27    -0.419957085066E+03   -0.98801E-05   -0.98900E-05 19264   0.204E-03-0.222E-06
CGA:  28    -0.419957104033E+03   -0.18967E-04   -0.18921E-04 19264   0.279E-03 0.209E-06
CGA:  29    -0.419957115067E+03   -0.11033E-04   -0.11036E-04 19264   0.136E-03-0.622E-06
CGA:  30    -0.419957118353E+03   -0.32867E-05   -0.32889E-05 19264   0.379E-04-0.865E-06
  21 F= -.41995712E+03 E0= -.41992303E+03  d E =-.163246E-01  mag=    34.0000
       N       E                     dE             d eps       ncg     rms          ort
SDA:   1    -0.418011029156E+03    0.19461E+01    0.00000E+00 19264   0.777E+01 0.000E+00
CGA:   2    -0.418299972614E+03   -0.28894E+00   -0.28936E+00 19264   0.113E+02-0.754E-02
CGA:   3    -0.419466662059E+03   -0.11667E+01   -0.11672E+01 19264   0.405E+01-0.212E-01
CGA:   4    -0.419588966313E+03   -0.12230E+00   -0.12083E+00 19264   0.233E+01 0.216E-01
CGA:   5    -0.419708932700E+03   -0.11997E+00   -0.12003E+00 19264   0.347E+01 0.585E-02
CGA:   6    -0.419888173981E+03   -0.17924E+00   -0.17919E+00 19264   0.547E+00-0.522E-02
CGA:   7    -0.419909943486E+03   -0.21770E-01   -0.21861E-01 19264   0.201E+00 0.874E-03
CGA:   8    -0.419930419358E+03   -0.20476E-01   -0.20440E-01 19264   0.441E+00 0.773E-03
CGA:   9    -0.419940413294E+03   -0.99939E-02   -0.10050E-01 19264   0.631E-01-0.153E-02
CGA:  10    -0.419943141642E+03   -0.27283E-02   -0.27293E-02 19264   0.337E-01 0.284E-04
CGA:  11    -0.419946187416E+03   -0.30458E-02   -0.30460E-02 19264   0.574E-01-0.227E-04
CGA:  12    -0.419947937070E+03   -0.17497E-02   -0.17537E-02 19264   0.241E-01-0.560E-04
CGA:  13    -0.419948785759E+03   -0.84869E-03   -0.84932E-03 19264   0.582E-02-0.106E-04
CGA:  14    -0.419949244109E+03   -0.45835E-03   -0.45789E-03 19264   0.120E-01 0.119E-04
CGA:  15    -0.419949769867E+03   -0.52576E-03   -0.52590E-03 19264   0.115E-01-0.924E-05
CGA:  16    -0.419950275002E+03   -0.50513E-03   -0.50519E-03 19264   0.225E-02-0.100E-04
CGA:  17    -0.419950386070E+03   -0.11107E-03   -0.11108E-03 19264   0.225E-02-0.715E-06
CGA:  18    -0.419950580451E+03   -0.19438E-03   -0.19419E-03 19264   0.678E-02 0.417E-05
CGA:  19    -0.419950853610E+03   -0.27316E-03   -0.27337E-03 19264   0.828E-03 0.690E-05
CGA:  20    -0.419950899030E+03   -0.45420E-04   -0.45420E-04 19264   0.124E-02 0.191E-05
CGA:  21    -0.419950967416E+03   -0.68386E-04   -0.68387E-04 19264   0.166E-02 0.327E-05
CGA:  22    -0.419951058584E+03   -0.91168E-04   -0.91170E-04 19264   0.547E-03 0.497E-05
CGA:  23    -0.419951080123E+03   -0.21538E-04   -0.21552E-04 19264   0.262E-03-0.679E-08
CGA:  24    -0.419951090023E+03   -0.99004E-05   -0.98949E-05 19264   0.292E-03-0.108E-05
CGA:  25    -0.419951114420E+03   -0.24397E-04   -0.24450E-04 19264   0.290E-03-0.229E-05
CGA:  26    -0.419951127975E+03   -0.13555E-04   -0.13546E-04 19264   0.110E-03-0.170E-05
CGA:  27    -0.419951130547E+03   -0.25713E-05   -0.25690E-05 19264   0.422E-04-0.689E-06
  22 F= -.41995113E+03 E0= -.41991714E+03  d E =0.598781E-02  mag=    34.0000
       N       E                     dE             d eps       ncg     rms          ort
SDA:   1    -0.419876405626E+03    0.74722E-01    0.00000E+00 19264   0.960E+00 0.000E+00
CGA:   2    -0.419894779358E+03   -0.18374E-01   -0.18337E-01 19264   0.238E+00 0.104E-02
CGA:   3    -0.419906309613E+03   -0.11530E-01   -0.11535E-01 19264   0.321E+00 0.389E-03
CGA:   4    -0.419939173024E+03   -0.32863E-01   -0.32859E-01 19264   0.125E+00 0.912E-04
CGA:   5    -0.419943143868E+03   -0.39708E-02   -0.39677E-02 19264   0.681E-01 0.572E-04
CGA:   6    -0.419945876920E+03   -0.27331E-02   -0.27323E-02 19264   0.578E-01 0.171E-04
CGA:   7    -0.419950399851E+03   -0.45229E-02   -0.45249E-02 19264   0.111E-01-0.539E-04
CGA:   8    -0.419950833145E+03   -0.43329E-03   -0.43360E-03 19264   0.533E-02 0.517E-05
CGA:   9    -0.419951141340E+03   -0.30820E-03   -0.30819E-03 19264   0.895E-02 0.118E-05
CGA:  10    -0.419951493719E+03   -0.35238E-03   -0.35244E-03 19264   0.201E-02 0.110E-05
CGA:  11    -0.419951572298E+03   -0.78579E-04   -0.78590E-04 19264   0.928E-03-0.385E-06
CGA:  12    -0.419951606521E+03   -0.34223E-04   -0.34212E-04 19264   0.104E-02-0.555E-06
CGA:  13    -0.419951684373E+03   -0.77852E-04   -0.77919E-04 19264   0.532E-03-0.308E-05
CGA:  14    -0.419951709538E+03   -0.25166E-04   -0.25161E-04 19264   0.169E-03-0.128E-05
CGA:  15    -0.419951714374E+03   -0.48359E-05   -0.48243E-05 19264   0.114E-03-0.621E-06
CGA:  16    -0.419951726526E+03   -0.12152E-04   -0.12247E-04 19264   0.197E-03-0.191E-05
CGA:  17    -0.419951734622E+03   -0.80963E-05   -0.80811E-05 19264   0.388E-04-0.146E-05
  23 F= -.41995173E+03 E0= -.41991778E+03  d E =-.604076E-03  mag=    34.0000
       N       E                     dE             d eps       ncg     rms          ort
SDA:   1    -0.419752727753E+03    0.19900E+00    0.00000E+00 19264   0.117E+01 0.000E+00
CGA:   2    -0.419778666098E+03   -0.25938E-01   -0.25935E-01 19264   0.704E+00-0.151E-03
CGA:   3    -0.419880573780E+03   -0.10191E+00   -0.10192E+00 19264   0.139E+01-0.800E-05
CGA:   4    -0.419923814207E+03   -0.43240E-01   -0.43248E-01 19264   0.212E+00-0.190E-03
CGA:   5    -0.419930128613E+03   -0.63144E-02   -0.63247E-02 19264   0.177E+00 0.299E-04
CGA:   6    -0.419948570507E+03   -0.18442E-01   -0.18455E-01 19264   0.520E-01-0.251E-03
CGA:   7    -0.419950548328E+03   -0.19778E-02   -0.19822E-02 19264   0.210E-01 0.173E-04
CGA:   8    -0.419951320971E+03   -0.77264E-03   -0.77234E-03 19264   0.207E-01 0.168E-05
CGA:   9    -0.419952607006E+03   -0.12860E-02   -0.12861E-02 19264   0.134E-01-0.729E-05
CGA:  10    -0.419953132456E+03   -0.52545E-03   -0.52529E-03 19264   0.575E-02-0.326E-05
CGA:  11    -0.419953273682E+03   -0.14123E-03   -0.14128E-03 19264   0.206E-02-0.403E-05
CGA:  12    -0.419953423718E+03   -0.15004E-03   -0.15011E-03 19264   0.261E-02-0.383E-05
CGA:  13    -0.419953598403E+03   -0.17469E-03   -0.17473E-03 19264   0.909E-03-0.386E-05
CGA:  14    -0.419953618114E+03   -0.19711E-04   -0.19698E-04 19264   0.274E-03-0.741E-06
CGA:  15    -0.419953644398E+03   -0.26284E-04   -0.26299E-04 19264   0.522E-03-0.459E-06
CGA:  16    -0.419953677872E+03   -0.33474E-04   -0.33475E-04 19264   0.269E-03-0.290E-06
CGA:  17    -0.419953684218E+03   -0.63457E-05   -0.63420E-05 19264   0.908E-04-0.347E-06
  24 F= -.41995368E+03 E0= -.41991977E+03  d E =-.194960E-02  mag=    34.0000
       N       E                     dE             d eps       ncg     rms          ort
SDA:   1    -0.419252459563E+03    0.70122E+00    0.00000E+00 19264   0.234E+01 0.000E+00
CGA:   2    -0.419375800438E+03   -0.12334E+00   -0.12334E+00 19264   0.466E+01 0.259E-02
CGA:   3    -0.419710189723E+03   -0.33439E+00   -0.33458E+00 19264   0.448E+01-0.626E-02
CGA:   4    -0.419850176124E+03   -0.13999E+00   -0.14004E+00 19264   0.644E+00-0.258E-02
CGA:   5    -0.419880086436E+03   -0.29910E-01   -0.29935E-01 19264   0.884E+00 0.145E-02
CGA:   6    -0.419918154363E+03   -0.38068E-01   -0.38090E-01 19264   0.582E+00 0.679E-03
CGA:   7    -0.419945598650E+03   -0.27444E-01   -0.27431E-01 19264   0.718E-01-0.891E-03
CGA:   8    -0.419948837139E+03   -0.32385E-02   -0.32367E-02 19264   0.683E-01-0.754E-04
CGA:   9    -0.419951682793E+03   -0.28457E-02   -0.28471E-02 19264   0.602E-01 0.390E-04
CGA:  10    -0.419955384839E+03   -0.37020E-02   -0.37035E-02 19264   0.225E-01-0.971E-04
CGA:  11    -0.419956146376E+03   -0.76154E-03   -0.76145E-03 19264   0.933E-02-0.272E-05
CGA:  12    -0.419956420161E+03   -0.27378E-03   -0.27376E-03 19264   0.619E-02-0.234E-05
CGA:  13    -0.419957117504E+03   -0.69734E-03   -0.69793E-03 19264   0.522E-02-0.986E-05
CGA:  14    -0.419957272623E+03   -0.15512E-03   -0.15512E-03 19264   0.182E-02-0.171E-05
CGA:  15    -0.419957326616E+03   -0.53994E-04   -0.53982E-04 19264   0.848E-03-0.596E-06
CGA:  16    -0.419957467333E+03   -0.14072E-03   -0.14048E-03 19264   0.147E-02 0.165E-05
CGA:  17    -0.419957506774E+03   -0.39441E-04   -0.39459E-04 19264   0.556E-03-0.328E-06
CGA:  18    -0.419957527225E+03   -0.20450E-04   -0.20449E-04 19264   0.278E-03-0.523E-06
CGA:  19    -0.419957545807E+03   -0.18582E-04   -0.18587E-04 19264   0.428E-03-0.907E-06
CGA:  20    -0.419957573846E+03   -0.28039E-04   -0.28048E-04 19264   0.651E-03-0.123E-05
CGA:  21    -0.419957594385E+03   -0.20539E-04   -0.20520E-04 19264   0.808E-04-0.103E-05
CGA:  22    -0.419957600415E+03   -0.60295E-05   -0.60241E-05 19264   0.131E-03-0.845E-07
  25 F= -.41995760E+03 E0= -.41992371E+03  d E =-.391620E-02  mag=    34.0000
       N       E                     dE             d eps       ncg     rms          ort
SDA:   1    -0.418752052843E+03    0.12055E+01    0.00000E+00 19264   0.583E+01 0.000E+00
CGA:   2    -0.418907032961E+03   -0.15498E+00   -0.15686E+00 19264   0.498E+01-0.489E-01
CGA:   3    -0.419554053060E+03   -0.64702E+00   -0.65440E+00 19264   0.644E+01-0.108E+00
CGA:   4    -0.419761421077E+03   -0.20737E+00   -0.20913E+00 19264   0.223E+01-0.129E-01
CGA:   5    -0.419816057621E+03   -0.54637E-01   -0.54383E-01 19264   0.905E+00 0.603E-02
CGA:   6    -0.419900527948E+03   -0.84470E-01   -0.84446E-01 19264   0.977E+00 0.768E-03
CGA:   7    -0.419938465327E+03   -0.37937E-01   -0.37784E-01 19264   0.122E+00-0.222E-03
CGA:   8    -0.419943431506E+03   -0.49662E-02   -0.49717E-02 19264   0.147E+00 0.998E-04
CGA:   9    -0.419950161464E+03   -0.67300E-02   -0.67295E-02 19264   0.104E+00 0.860E-05
CGA:  10    -0.419955913209E+03   -0.57517E-02   -0.57518E-02 19264   0.275E-01-0.424E-04
CGA:  11    -0.419957071222E+03   -0.11580E-02   -0.11580E-02 19264   0.172E-01-0.562E-05
CGA:  12    -0.419957710486E+03   -0.63926E-03   -0.63956E-03 19264   0.178E-01-0.619E-05
CGA:  13    -0.419958940247E+03   -0.12298E-02   -0.12297E-02 19264   0.762E-02-0.294E-05
CGA:  14    -0.419959220882E+03   -0.28063E-03   -0.28057E-03 19264   0.199E-02-0.571E-05
CGA:  15    -0.419959292376E+03   -0.71494E-04   -0.71498E-04 19264   0.248E-02-0.340E-05
CGA:  16    -0.419959574385E+03   -0.28201E-03   -0.28177E-03 19264   0.120E-02 0.185E-05
CGA:  17    -0.419959611336E+03   -0.36951E-04   -0.36948E-04 19264   0.545E-03-0.215E-05
CGA:  18    -0.419959634152E+03   -0.22816E-04   -0.22822E-04 19264   0.583E-03-0.149E-05
CGA:  19    -0.419959677550E+03   -0.43398E-04   -0.43373E-04 19264   0.644E-03-0.298E-06
CGA:  20    -0.419959718726E+03   -0.41176E-04   -0.41163E-04 19264   0.356E-03 0.132E-06
CGA:  21    -0.419959726483E+03   -0.77566E-05   -0.77658E-05 19264   0.110E-03-0.723E-06
CGA:  22    -0.419959737803E+03   -0.11321E-04   -0.11315E-04 19264   0.221E-03-0.752E-06
CGA:  23    -0.419959751879E+03   -0.14076E-04   -0.14073E-04 19264   0.160E-03-0.417E-06
CGA:  24    -0.419959755362E+03   -0.34825E-05   -0.34865E-05 19264   0.311E-04-0.550E-06
  26 F= -.41995976E+03 E0= -.41992589E+03  d E =-.215495E-02  mag=    34.0000
       N       E                     dE             d eps       ncg     rms          ort
SDA:   1    -0.419861262084E+03    0.98490E-01    0.00000E+00 19264   0.404E+00 0.000E+00
CGA:   2    -0.419882021937E+03   -0.20760E-01   -0.20768E-01 19264   0.520E+00 0.124E-02
CGA:   3    -0.419916720281E+03   -0.34698E-01   -0.34708E-01 19264   0.810E+00-0.520E-03
CGA:   4    -0.419938243191E+03   -0.21523E-01   -0.21567E-01 19264   0.900E-01-0.866E-03
CGA:   5    -0.419946334167E+03   -0.80910E-02   -0.80934E-02 19264   0.143E+00-0.468E-04
CGA:   6    -0.419953424830E+03   -0.70907E-02   -0.70913E-02 19264   0.102E+00 0.216E-04
CGA:   7    -0.419955742951E+03   -0.23181E-02   -0.23091E-02 19264   0.111E-01 0.253E-03
CGA:   8    -0.419956758759E+03   -0.10158E-02   -0.10153E-02 19264   0.160E-01 0.157E-04
CGA:   9    -0.419957545173E+03   -0.78641E-03   -0.78645E-03 19264   0.756E-02 0.111E-04
CGA:  10    -0.419957703598E+03   -0.15843E-03   -0.15836E-03 19264   0.193E-02 0.809E-05
CGA:  11    -0.419957840146E+03   -0.13655E-03   -0.13655E-03 19264   0.182E-02 0.141E-05
CGA:  12    -0.419958007829E+03   -0.16768E-03   -0.16761E-03 19264   0.124E-02 0.212E-05
CGA:  13    -0.419958039488E+03   -0.31659E-04   -0.31645E-04 19264   0.496E-03-0.197E-06
CGA:  14    -0.419958060128E+03   -0.20640E-04   -0.20625E-04 19264   0.304E-03-0.783E-06
CGA:  15    -0.419958093452E+03   -0.33324E-04   -0.33478E-04 19264   0.643E-03-0.287E-05
CGA:  16    -0.419958114833E+03   -0.21381E-04   -0.21347E-04 19264   0.253E-03-0.193E-05
CGA:  17    -0.419958121299E+03   -0.64661E-05   -0.64508E-05 19264   0.663E-04-0.595E-06
CGA:  18    -0.419958138487E+03   -0.17188E-04   -0.17289E-04 19264   0.181E-03-0.524E-06
CGA:  19    -0.419958144145E+03   -0.56582E-05   -0.56558E-05 19264   0.741E-04-0.133E-06
  27 F= -.41995814E+03 E0= -.41992429E+03  d E =0.161122E-02  mag=    34.0000
       N       E                     dE             d eps       ncg     rms          ort
SDA:   1    -0.419175102656E+03    0.78304E+00    0.00000E+00 19264   0.110E+02 0.000E+00
CGA:   2    -0.419355873013E+03   -0.18077E+00   -0.18314E+00 19264   0.183E+01-0.195E+00
CGA:   3    -0.419782165202E+03   -0.42629E+00   -0.42610E+00 19264   0.200E+01 0.990E-03
CGA:   4    -0.419835930510E+03   -0.53765E-01   -0.54337E-01 19264   0.790E+00-0.135E-01
CGA:   5    -0.419871067515E+03   -0.35137E-01   -0.35277E-01 19264   0.901E+00 0.264E-03
CGA:   6    -0.419927004302E+03   -0.55937E-01   -0.55936E-01 19264   0.384E+00-0.256E-03
CGA:   7    -0.419937385734E+03   -0.10381E-01   -0.10287E-01 19264   0.139E+00 0.229E-02
CGA:   8    -0.419941928041E+03   -0.45423E-02   -0.45493E-02 19264   0.630E-01-0.802E-04
CGA:   9    -0.419947975247E+03   -0.60472E-02   -0.60428E-02 19264   0.574E-01 0.128E-03
CGA:  10    -0.419950013202E+03   -0.20380E-02   -0.20395E-02 19264   0.285E-01-0.227E-05
CGA:  11    -0.419950811559E+03   -0.79836E-03   -0.79954E-03 19264   0.830E-02-0.143E-04
CGA:  12    -0.419951461972E+03   -0.65041E-03   -0.65055E-03 19264   0.130E-01-0.500E-05
CGA:  13    -0.419952068903E+03   -0.60693E-03   -0.60719E-03 19264   0.100E-01 0.257E-05
CGA:  14    -0.419952319803E+03   -0.25090E-03   -0.25089E-03 19264   0.134E-02-0.277E-05
CGA:  15    -0.419952421600E+03   -0.10180E-03   -0.10182E-03 19264   0.230E-02-0.177E-05
CGA:  16    -0.419952561422E+03   -0.13982E-03   -0.13982E-03 19264   0.325E-02-0.277E-05
CGA:  17    -0.419952673058E+03   -0.11164E-03   -0.11159E-03 19264   0.427E-03-0.241E-05
CGA:  18    -0.419952700046E+03   -0.26988E-04   -0.26987E-04 19264   0.739E-03-0.429E-06
CGA:  19    -0.419952740758E+03   -0.40712E-04   -0.40717E-04 19264   0.998E-03 0.614E-06
CGA:  20    -0.419952791295E+03   -0.50537E-04   -0.50545E-04 19264   0.519E-03 0.547E-06
CGA:  21    -0.419952812233E+03   -0.20937E-04   -0.20954E-04 19264   0.233E-03 0.532E-06
CGA:  22    -0.419952819919E+03   -0.76860E-05   -0.76945E-05 19264   0.195E-03-0.122E-06
CGA:  23    -0.419952848973E+03   -0.29054E-04   -0.28860E-04 19264   0.182E-03 0.173E-05
CGA:  24    -0.419952854282E+03   -0.53089E-05   -0.53137E-05 19264   0.669E-04-0.222E-06
  28 F= -.41995285E+03 E0= -.41991901E+03  d E =0.528986E-02  mag=    34.0000
       N       E                     dE             d eps       ncg     rms          ort
SDA:   1    -0.419910977695E+03    0.41871E-01    0.00000E+00 19264   0.273E+00 0.000E+00
CGA:   2    -0.419917449129E+03   -0.64714E-02   -0.64678E-02 19264   0.170E+00 0.101E-03
CGA:   3    -0.419934201969E+03   -0.16753E-01   -0.16726E-01 19264   0.249E+00 0.629E-03
CGA:   4    -0.419944070740E+03   -0.98688E-02   -0.98603E-02 19264   0.734E-01-0.413E-04
CGA:   5    -0.419946420581E+03   -0.23498E-02   -0.23501E-02 19264   0.624E-01 0.534E-04
CGA:   6    -0.419951077957E+03   -0.46574E-02   -0.46581E-02 19264   0.437E-01-0.581E-05
CGA:   7    -0.419952747956E+03   -0.16700E-02   -0.16705E-02 19264   0.591E-02 0.132E-04
CGA:   8    -0.419953050518E+03   -0.30256E-03   -0.30255E-03 19264   0.895E-02 0.891E-06
CGA:   9    -0.419953453750E+03   -0.40323E-03   -0.40324E-03 19264   0.494E-02-0.586E-06
CGA:  10    -0.419953634688E+03   -0.18094E-03   -0.18090E-03 19264   0.119E-02-0.130E-05
CGA:  11    -0.419953678860E+03   -0.44172E-04   -0.44168E-04 19264   0.106E-02-0.991E-07
CGA:  12    -0.419953729269E+03   -0.50409E-04   -0.50405E-04 19264   0.894E-03-0.657E-06
CGA:  13    -0.419953792846E+03   -0.63577E-04   -0.63583E-04 19264   0.269E-03-0.387E-06
CGA:  14    -0.419953801603E+03   -0.87572E-05   -0.87551E-05 19264   0.155E-03-0.897E-07
  29 F= -.41995380E+03 E0= -.41991995E+03  d E =-.947322E-03  mag=    34.0000
