       N       E                     dE             d eps       ncg     rms          rms(c)
DAV:   1     0.371793832589E+04    0.37179E+04   -0.15283E+05 28608   0.153E+03
DAV:   2     0.186611198337E+03   -0.35313E+04   -0.33910E+04 28912   0.467E+02
DAV:   3    -0.225582910723E+03   -0.41219E+03   -0.40314E+03 33936   0.169E+02
DAV:   4    -0.241829668361E+03   -0.16247E+02   -0.16003E+02 39632   0.372E+01
DAV:   5    -0.242680483124E+03   -0.85081E+00   -0.84486E+00 48960   0.631E+00    0.457E+01
DAV:   6    -0.220748657946E+03    0.21932E+02   -0.13508E+02 39424   0.356E+01    0.232E+01
DAV:   7    -0.222323731066E+03   -0.15751E+01   -0.86943E+00 36912   0.104E+01    0.158E+01
DAV:   8    -0.222568242912E+03   -0.24451E+00   -0.12556E+00 36848   0.378E+00    0.723E+00
DAV:   9    -0.222702466991E+03   -0.13422E+00   -0.62984E-01 41200   0.241E+00    0.443E+00
DAV:  10    -0.222752366766E+03   -0.49900E-01   -0.15997E+00 39744   0.225E+00    0.641E+00
DAV:  11    -0.222688489527E+03    0.63877E-01   -0.76758E-01 39184   0.138E+00    0.200E+00
DAV:  12    -0.222686792360E+03    0.16972E-02   -0.61729E-02 41392   0.623E-01    0.695E-01
DAV:  13    -0.222691624710E+03   -0.48324E-02   -0.18566E-02 34720   0.305E-01    0.663E-01
DAV:  14    -0.222692728080E+03   -0.11034E-02   -0.25388E-02 39328   0.316E-01    0.795E-01
DAV:  15    -0.222693049331E+03   -0.32125E-03   -0.12012E-02 37232   0.231E-01    0.334E-01
DAV:  16    -0.222693663053E+03   -0.61372E-03   -0.41884E-03 38928   0.194E-01    0.367E-01
DAV:  17    -0.222693971277E+03   -0.30822E-03   -0.66955E-03 38384   0.180E-01    0.378E-01
DAV:  18    -0.222693822734E+03    0.14854E-03   -0.17997E-03 38976   0.116E-01    0.142E-01
DAV:  19    -0.222693994871E+03   -0.17214E-03   -0.37470E-04 30928   0.667E-02    0.109E-01
DAV:  20    -0.222694039817E+03   -0.44945E-04   -0.32525E-04 30864   0.647E-02    0.738E-02
DAV:  21    -0.222694038778E+03    0.10390E-05   -0.74590E-05 29216   0.446E-02
   1 F= -.22269404E+03 E0= -.22268090E+03  d E =-.222694E+03  mag=    22.0029
