       N       E                     dE             d eps       ncg     rms          rms(c)
DAV:   1     0.615382345687E+04    0.61538E+04   -0.31240E+05 36608   0.177E+03
DAV:   2     0.373258859948E+03   -0.57806E+04   -0.54941E+04 35344   0.531E+02
DAV:   3    -0.214168852625E+03   -0.58743E+03   -0.56104E+03 36168   0.187E+02
DAV:   4    -0.231967107639E+03   -0.17798E+02   -0.17694E+02 36608   0.353E+01
DAV:   5    -0.232460768842E+03   -0.49366E+00   -0.49115E+00 48456   0.473E+00    0.565E+00
DAV:   6    -0.236278630676E+03   -0.38179E+01   -0.23513E+01 42568   0.147E+01    0.468E+01
DAV:   7    -0.230899840708E+03    0.53788E+01   -0.17045E+01 38648   0.116E+01    0.629E+00
DAV:   8    -0.230861789280E+03    0.38051E-01   -0.71668E-01 39168   0.675E+00    0.534E+00
DAV:   9    -0.230879799558E+03   -0.18010E-01   -0.40412E-01 41744   0.400E+00    0.546E+00
DAV:  10    -0.230863399870E+03    0.16400E-01   -0.12314E-01 40344   0.237E+00    0.469E+00
DAV:  11    -0.230859239231E+03    0.41606E-02   -0.15291E-02 41520   0.583E-01    0.426E+00
DAV:  12    -0.230854800034E+03    0.44392E-02   -0.25590E-03 42328   0.293E-01    0.459E+00
DAV:  13    -0.230855062944E+03   -0.26291E-03   -0.65521E-04 33176   0.851E-02    0.458E+00
DAV:  14    -0.230853602232E+03    0.14607E-02   -0.22345E-04 37776   0.976E-02    0.427E+00
DAV:  15    -0.230865504668E+03   -0.11902E-01   -0.27062E-02 40496   0.107E+00    0.504E+00
DAV:  16    -0.230864224492E+03    0.12802E-02   -0.45967E-02 39496   0.119E+00    0.422E+00
DAV:  17    -0.230865776681E+03   -0.15522E-02   -0.21236E-02 43784   0.883E-01    0.240E+00
DAV:  18    -0.230869035129E+03   -0.32584E-02   -0.10538E-02 43464   0.625E-01    0.197E+00
DAV:  19    -0.230869365396E+03   -0.33027E-03   -0.26219E-03 42344   0.283E-01    0.197E+00
DAV:  20    -0.230868778143E+03    0.58725E-03   -0.51839E-04 39552   0.118E-01    0.199E+00
DAV:  21    -0.230869176134E+03   -0.39799E-03   -0.37467E-04 42512   0.104E-01    0.196E+00
DAV:  22    -0.230870779631E+03   -0.16035E-02   -0.40160E-03 41824   0.397E-01    0.152E+00
DAV:  23    -0.230871207148E+03   -0.42752E-03   -0.43139E-03 42488   0.377E-01    0.925E-01
DAV:  24    -0.230872209456E+03   -0.10023E-02   -0.22874E-03 41008   0.191E-01    0.847E-01
DAV:  25    -0.230872419950E+03   -0.21049E-03   -0.50085E-04 39520   0.119E-01    0.826E-01
DAV:  26    -0.230872431730E+03   -0.11780E-04   -0.86026E-05 32912   0.406E-02    0.837E-01
DAV:  27    -0.230872365750E+03    0.65980E-04   -0.32110E-05 23952   0.342E-02    0.835E-01
DAV:  28    -0.230872505445E+03   -0.13969E-03   -0.19981E-04 38568   0.104E-01    0.791E-01
DAV:  29    -0.230872751709E+03   -0.24626E-03   -0.79942E-04 42960   0.196E-01    0.652E-01
DAV:  30    -0.230872872621E+03   -0.12091E-03   -0.10506E-03 43448   0.183E-01    0.502E-01
DAV:  31    -0.230873117666E+03   -0.24504E-03   -0.60572E-04 43152   0.119E-01    0.437E-01
DAV:  32    -0.230873302385E+03   -0.18472E-03   -0.39186E-04 43944   0.108E-01    0.331E-01
DAV:  33    -0.230873372286E+03   -0.69901E-04   -0.27755E-04 43592   0.816E-02    0.204E-01
DAV:  34    -0.230873426008E+03   -0.53722E-04   -0.10780E-04 35544   0.637E-02    0.140E-01
DAV:  35    -0.230873462631E+03   -0.36623E-04   -0.74199E-05 30976   0.649E-02    0.124E-01
DAV:  36    -0.230873470425E+03   -0.77942E-05   -0.31569E-05 22920   0.364E-02
   1 F= -.23087347E+03 E0= -.23085713E+03  d E =-.230873E+03  mag=    -9.0691
       N       E                     dE             d eps       ncg     rms          rms(c)
DAV:   1    -0.231136924095E+03   -0.26346E+00   -0.40193E+00 37312   0.968E+00    0.575E+00
DAV:   2    -0.231738745372E+03   -0.60182E+00   -0.52828E+00 37616   0.138E+01    0.137E+01
DAV:   3    -0.231299258187E+03    0.43949E+00   -0.27467E+00 36904   0.110E+01    0.178E+01
DAV:   4    -0.230832888071E+03    0.46637E+00   -0.10008E+00 39016   0.564E+00    0.673E+00
DAV:   5    -0.230949327758E+03   -0.11644E+00   -0.32718E-01 41440   0.308E+00    0.708E+00
DAV:   6    -0.230917859982E+03    0.31468E-01   -0.62720E-01 40520   0.292E+00    0.625E+00
DAV:   7    -0.230888837534E+03    0.29022E-01   -0.11009E-01 40296   0.229E+00    0.361E+00
DAV:   8    -0.230895685052E+03   -0.68475E-02   -0.12826E-01 38224   0.236E+00    0.436E+00
DAV:   9    -0.230875623338E+03    0.20062E-01   -0.31091E-02 42056   0.118E+00    0.159E+00
DAV:  10    -0.230882033767E+03   -0.64104E-02   -0.27968E-02 41824   0.108E+00    0.249E+00
DAV:  11    -0.230878913025E+03    0.31207E-02   -0.19607E-02 39216   0.786E-01    0.151E+00
DAV:  12    -0.230877544130E+03    0.13689E-02   -0.54326E-03 40416   0.431E-01    0.127E+00
DAV:  13    -0.230876187155E+03    0.13570E-02   -0.11050E-03 38480   0.153E-01    0.138E+00
DAV:  14    -0.230875868816E+03    0.31834E-03   -0.20243E-04 38408   0.802E-02    0.138E+00
DAV:  15    -0.230876463778E+03   -0.59496E-03   -0.48130E-03 41160   0.416E-01    0.113E+00
DAV:  16    -0.230877606943E+03   -0.11432E-02   -0.87194E-03 41472   0.710E-01    0.898E-01
DAV:  17    -0.230877301564E+03    0.30538E-03   -0.69428E-03 41776   0.578E-01    0.958E-01
DAV:  18    -0.230877467306E+03   -0.16574E-03   -0.51329E-03 41808   0.390E-01    0.106E+00
DAV:  19    -0.230876919386E+03    0.54792E-03   -0.17951E-03 41408   0.248E-01    0.903E-01
DAV:  20    -0.230876642862E+03    0.27652E-03   -0.20174E-04 34328   0.537E-02    0.881E-01
DAV:  21    -0.230876359034E+03    0.28383E-03   -0.35413E-04 38528   0.144E-01    0.842E-01
DAV:  22    -0.230876241613E+03    0.11742E-03   -0.59036E-04 41368   0.199E-01    0.738E-01
DAV:  23    -0.230876436672E+03   -0.19506E-03   -0.54859E-04 40832   0.177E-01    0.713E-01
DAV:  24    -0.230876590064E+03   -0.15339E-03   -0.73973E-04 39776   0.261E-01    0.812E-01
DAV:  25    -0.230875747342E+03    0.84272E-03   -0.10372E-03 42104   0.189E-01    0.906E-01
DAV:  26    -0.230876017594E+03   -0.27025E-03   -0.25692E-04 38936   0.849E-02    0.843E-01
DAV:  27    -0.230876320283E+03   -0.30269E-03   -0.59552E-04 42408   0.162E-01    0.661E-01
DAV:  28    -0.230876666723E+03   -0.34644E-03   -0.16899E-03 42824   0.197E-01    0.278E-01
DAV:  29    -0.230876811243E+03   -0.14452E-03   -0.43094E-04 40792   0.101E-01    0.185E-01
DAV:  30    -0.230876807584E+03    0.36592E-05   -0.11344E-04 36400   0.549E-02    0.118E-01
DAV:  31    -0.230876809108E+03   -0.15237E-05   -0.67660E-05 26480   0.300E-02
   2 F= -.23087681E+03 E0= -.23086029E+03  d E =-.333868E-02  mag=    -9.1162
       N       E                     dE             d eps       ncg     rms          rms(c)
DAV:   1    -0.230898792401E+03   -0.21985E-01   -0.33820E-01 37248   0.281E+00    0.163E+00
DAV:   2    -0.231024885129E+03   -0.12609E+00   -0.19956E-01 37848   0.382E+00    0.122E+01
DAV:   3    -0.230867645305E+03    0.15724E+00   -0.14437E-01 35552   0.286E+00    0.361E+00
DAV:   4    -0.230875751216E+03   -0.81059E-02   -0.44288E-02 37936   0.204E+00    0.752E-01
DAV:   5    -0.230878443815E+03   -0.26926E-02   -0.16372E-02 44384   0.728E-01    0.108E+00
DAV:   6    -0.230875960983E+03    0.24828E-02   -0.10039E-02 40144   0.666E-01    0.677E-01
DAV:   7    -0.230876585692E+03   -0.62471E-03   -0.64992E-03 39504   0.491E-01    0.935E-01
DAV:   8    -0.230876956411E+03   -0.37072E-03   -0.10647E-02 37608   0.659E-01    0.102E+00
DAV:   9    -0.230877327716E+03   -0.37131E-03   -0.72483E-03 37640   0.505E-01    0.951E-01
DAV:  10    -0.230876475243E+03    0.85247E-03   -0.24205E-03 40152   0.281E-01    0.897E-01
DAV:  11    -0.230876168671E+03    0.30657E-03   -0.63813E-04 42648   0.137E-01    0.968E-01
DAV:  12    -0.230875793701E+03    0.37497E-03   -0.23650E-04 40416   0.938E-02    0.941E-01
DAV:  13    -0.230875811822E+03   -0.18121E-04   -0.40504E-04 41192   0.130E-01    0.652E-01
DAV:  14    -0.230876909119E+03   -0.10973E-02   -0.14285E-03 42104   0.265E-01    0.485E-01
DAV:  15    -0.230877308202E+03   -0.39908E-03   -0.18304E-03 42432   0.252E-01    0.398E-01
DAV:  16    -0.230877126782E+03    0.18142E-03   -0.94027E-04 40576   0.179E-01    0.292E-01
DAV:  17    -0.230877103751E+03    0.23031E-04   -0.35276E-04 39144   0.125E-01    0.169E-01
DAV:  18    -0.230877112448E+03   -0.86964E-05   -0.20063E-04 31984   0.901E-02    0.836E-02
DAV:  19    -0.230877128212E+03   -0.15764E-04   -0.50580E-05 25624   0.524E-02    0.607E-02
DAV:  20    -0.230877131544E+03   -0.33314E-05   -0.50421E-05 24312   0.522E-02
   3 F= -.23087713E+03 E0= -.23086065E+03  d E =-.366112E-02  mag=    -9.1005
       N       E                     dE             d eps       ncg     rms          rms(c)
DAV:   1    -0.230880497920E+03   -0.33697E-02   -0.94096E-01 32656   0.360E+00    0.932E-01
DAV:   2    -0.230916570519E+03   -0.36073E-01   -0.14538E-01 43680   0.202E+00    0.533E+00
DAV:   3    -0.230873653845E+03    0.42917E-01   -0.79681E-02 37224   0.169E+00    0.210E+00
DAV:   4    -0.230880027178E+03   -0.63733E-02   -0.16478E-02 38144   0.110E+00    0.958E-01
DAV:   5    -0.230880416381E+03   -0.38920E-03   -0.15225E-02 40824   0.673E-01    0.105E+00
DAV:   6    -0.230878751859E+03    0.16645E-02   -0.63981E-03 37992   0.458E-01    0.840E-01
DAV:   7    -0.230878591838E+03    0.16002E-03   -0.34107E-03 38992   0.340E-01    0.739E-01
DAV:   8    -0.230878396450E+03    0.19539E-03   -0.21438E-03 40976   0.274E-01    0.388E-01
DAV:   9    -0.230878812811E+03   -0.41636E-03   -0.10845E-03 38288   0.255E-01    0.411E-01
DAV:  10    -0.230878695768E+03    0.11704E-03   -0.78433E-04 41352   0.174E-01    0.348E-01
DAV:  11    -0.230878807804E+03   -0.11204E-03   -0.11005E-03 39536   0.188E-01    0.384E-01
DAV:  12    -0.230878962258E+03   -0.15445E-03   -0.10186E-03 40288   0.179E-01    0.469E-01
DAV:  13    -0.230878994156E+03   -0.31898E-04   -0.97084E-04 38416   0.216E-01    0.376E-01
DAV:  14    -0.230878922120E+03    0.72036E-04   -0.42813E-04 40504   0.137E-01    0.485E-01
DAV:  15    -0.230878688272E+03    0.23385E-03   -0.10515E-04 34536   0.587E-02    0.459E-01
DAV:  16    -0.230878589775E+03    0.98497E-04   -0.23593E-05 23088   0.335E-02    0.427E-01
DAV:  17    -0.230878632847E+03   -0.43072E-04   -0.11112E-04 33264   0.639E-02    0.373E-01
DAV:  18    -0.230878649989E+03   -0.17142E-04   -0.84661E-05 30632   0.492E-02    0.374E-01
DAV:  19    -0.230878724959E+03   -0.74970E-04   -0.33139E-05 24824   0.325E-02    0.323E-01
DAV:  20    -0.230878830610E+03   -0.10565E-03   -0.23901E-04 40144   0.115E-01    0.186E-01
DAV:  21    -0.230878864157E+03   -0.33548E-04   -0.27812E-04 40624   0.114E-01    0.723E-02
DAV:  22    -0.230878896111E+03   -0.31954E-04   -0.75383E-05 28888   0.442E-02    0.812E-02
DAV:  23    -0.230878891819E+03    0.42921E-05   -0.16997E-05 22144   0.349E-02
   4 F= -.23087889E+03 E0= -.23086234E+03  d E =-.176028E-02  mag=    -9.1035
       N       E                     dE             d eps       ncg     rms          rms(c)
DAV:   1    -0.230879520458E+03   -0.62435E-03   -0.20887E-01 32656   0.169E+00    0.447E-01
DAV:   2    -0.230889004957E+03   -0.94845E-02   -0.24760E-02 43872   0.976E-01    0.304E+00
DAV:   3    -0.230875982255E+03    0.13023E-01   -0.13175E-02 37832   0.810E-01    0.902E-01
DAV:   4    -0.230879484775E+03   -0.35025E-02   -0.42710E-03 38352   0.543E-01    0.434E-01
DAV:   5    -0.230879520365E+03   -0.35590E-04   -0.36281E-03 41960   0.331E-01    0.453E-01
DAV:   6    -0.230879155823E+03    0.36454E-03   -0.15068E-03 38200   0.227E-01    0.284E-01
DAV:   7    -0.230879150617E+03    0.52064E-05   -0.79384E-04 35176   0.163E-01    0.281E-01
DAV:   8    -0.230879162750E+03   -0.12133E-04   -0.36599E-04 35784   0.122E-01    0.253E-01
DAV:   9    -0.230879158893E+03    0.38576E-05   -0.22945E-04 33352   0.122E-01    0.163E-01
DAV:  10    -0.230879154360E+03    0.45328E-05   -0.69734E-05 27976   0.504E-02
   5 F= -.23087915E+03 E0= -.23086269E+03  d E =-.202282E-02  mag=    -9.1046
       N       E                     dE             d eps       ncg     rms          rms(c)
DAV:   1    -0.230874974082E+03    0.41848E-02   -0.56532E-01 32656   0.465E+00    0.942E-01
DAV:   2    -0.230920528766E+03   -0.45555E-01   -0.22874E-01 44544   0.207E+00    0.549E+00
DAV:   3    -0.230875258060E+03    0.45271E-01   -0.88212E-02 38936   0.185E+00    0.241E+00
DAV:   4    -0.230880562145E+03   -0.53041E-02   -0.17235E-02 38136   0.110E+00    0.700E-01
DAV:   5    -0.230881883591E+03   -0.13214E-02   -0.15173E-02 41744   0.644E-01    0.872E-01
DAV:   6    -0.230880417741E+03    0.14658E-02   -0.74196E-03 38568   0.489E-01    0.569E-01
DAV:   7    -0.230880394329E+03    0.23412E-04   -0.24658E-03 40128   0.292E-01    0.474E-01
DAV:   8    -0.230880159914E+03    0.23442E-03   -0.11427E-03 39272   0.208E-01    0.210E-01
DAV:   9    -0.230880240079E+03   -0.80165E-04   -0.52335E-04 37456   0.163E-01    0.259E-01
DAV:  10    -0.230880183041E+03    0.57038E-04   -0.23586E-04 34120   0.821E-02    0.251E-01
DAV:  11    -0.230880129285E+03    0.53756E-04   -0.21275E-05 23040   0.220E-02    0.282E-01
DAV:  12    -0.230880100926E+03    0.28359E-04   -0.17535E-05 20328   0.227E-02    0.276E-01
DAV:  13    -0.230880130056E+03   -0.29130E-04   -0.17738E-04 30936   0.931E-02    0.307E-01
DAV:  14    -0.230880144321E+03   -0.14264E-04   -0.20298E-04 36656   0.105E-01    0.330E-01
DAV:  15    -0.230880139170E+03    0.51502E-05   -0.24143E-04 33616   0.878E-02    0.299E-01
DAV:  16    -0.230880136134E+03    0.30358E-05   -0.14622E-04 27976   0.778E-02    0.195E-01
DAV:  17    -0.230880155994E+03   -0.19860E-04   -0.16793E-04 27448   0.680E-02    0.912E-02
DAV:  18    -0.230880181348E+03   -0.25353E-04   -0.79219E-05 27136   0.525E-02    0.687E-02
DAV:  19    -0.230880180201E+03    0.11467E-05   -0.32803E-05 24384   0.343E-02
   6 F= -.23088018E+03 E0= -.23086355E+03  d E =-.102584E-02  mag=    -9.1119
       N       E                     dE             d eps       ncg     rms          rms(c)
DAV:   1    -0.230877699297E+03    0.24821E-02   -0.29054E-01 32656   0.333E+00    0.649E-01
DAV:   2    -0.230906821908E+03   -0.29123E-01   -0.10846E-01 44760   0.152E+00    0.476E+00
DAV:   3    -0.230872301052E+03    0.34521E-01   -0.47448E-02 38848   0.130E+00    0.112E+00
DAV:   4    -0.230880707429E+03   -0.84064E-02   -0.78431E-03 38376   0.707E-01    0.506E-01
DAV:   5    -0.230880918744E+03   -0.21131E-03   -0.48670E-03 42696   0.380E-01    0.662E-01
DAV:   6    -0.230880262131E+03    0.65661E-03   -0.31224E-03 37808   0.312E-01    0.519E-01
DAV:   7    -0.230880524211E+03   -0.26208E-03   -0.22940E-03 37616   0.292E-01    0.549E-01
DAV:   8    -0.230880288379E+03    0.23583E-03   -0.18960E-03 38280   0.250E-01    0.282E-01
DAV:   9    -0.230880455261E+03   -0.16688E-03   -0.45106E-04 38728   0.134E-01    0.338E-01
DAV:  10    -0.230880278823E+03    0.17644E-03   -0.13845E-04 35912   0.705E-02    0.336E-01
DAV:  11    -0.230880162707E+03    0.11612E-03   -0.40556E-05 24336   0.393E-02    0.303E-01
DAV:  12    -0.230880164535E+03   -0.18280E-05   -0.20333E-05 22112   0.311E-02
   7 F= -.23088016E+03 E0= -.23086382E+03  d E =-.101018E-02  mag=    -9.1152
       N       E                     dE             d eps       ncg     rms          rms(c)
DAV:   1    -0.230879734920E+03    0.42779E-03   -0.72214E-02 32656   0.166E+00    0.442E-01
DAV:   2    -0.230893062386E+03   -0.13327E-01   -0.29748E-02 45240   0.101E+00    0.333E+00
DAV:   3    -0.230876714874E+03    0.16348E-01   -0.16656E-02 38712   0.954E-01    0.115E+00
DAV:   4    -0.230880884084E+03   -0.41692E-02   -0.54052E-03 37904   0.540E-01    0.631E-01
DAV:   5    -0.230880318932E+03    0.56515E-03   -0.25756E-03 43144   0.311E-01    0.333E-01
DAV:   6    -0.230880315390E+03    0.35423E-05   -0.70396E-04 40208   0.175E-01    0.231E-01
DAV:   7    -0.230880310757E+03    0.46331E-05   -0.29724E-04 35696   0.114E-01    0.211E-01
DAV:   8    -0.230880314739E+03   -0.39821E-05   -0.17791E-04 31896   0.733E-02    0.207E-01
DAV:   9    -0.230880301838E+03    0.12901E-04   -0.83472E-05 27416   0.613E-02    0.195E-01
DAV:  10    -0.230880302768E+03   -0.93041E-06   -0.69320E-05 25128   0.473E-02
   8 F= -.23088030E+03 E0= -.23086397E+03  d E =-.114841E-02  mag=    -9.1182
       N       E                     dE             d eps       ncg     rms          rms(c)
DAV:   1    -0.230877678915E+03    0.26229E-02   -0.28902E-01 32656   0.333E+00    0.701E-01
DAV:   2    -0.230907491310E+03   -0.29812E-01   -0.12148E-01 45208   0.160E+00    0.483E+00
DAV:   3    -0.230872005183E+03    0.35486E-01   -0.59532E-02 38728   0.139E+00    0.142E+00
DAV:   4    -0.230880905893E+03   -0.89007E-02   -0.10860E-02 38096   0.810E-01    0.821E-01
DAV:   5    -0.230880215637E+03    0.69026E-03   -0.83956E-03 41368   0.477E-01    0.618E-01
DAV:   6    -0.230880102313E+03    0.11332E-03   -0.26848E-03 39848   0.322E-01    0.687E-01
DAV:   7    -0.230879793849E+03    0.30846E-03   -0.22276E-03 38864   0.274E-01    0.661E-01
DAV:   8    -0.230879687472E+03    0.10638E-03   -0.12788E-03 40376   0.155E-01    0.560E-01
DAV:   9    -0.230879694386E+03   -0.69139E-05   -0.19107E-04 36904   0.868E-02    0.528E-01
DAV:  10    -0.230879669401E+03    0.24985E-04   -0.36072E-05 26984   0.242E-02    0.538E-01
DAV:  11    -0.230879656873E+03    0.12528E-04   -0.12057E-05 21000   0.234E-02    0.549E-01
DAV:  12    -0.230879695053E+03   -0.38181E-04   -0.97527E-05 27736   0.625E-02    0.560E-01
DAV:  13    -0.230879745959E+03   -0.50906E-04   -0.14274E-03 42880   0.218E-01    0.397E-01
DAV:  14    -0.230879843244E+03   -0.97285E-04   -0.17606E-03 40728   0.260E-01    0.350E-01
DAV:  15    -0.230880093937E+03   -0.25069E-03   -0.78273E-04 40488   0.171E-01    0.431E-01
DAV:  16    -0.230879895094E+03    0.19884E-03   -0.36517E-04 41256   0.113E-01    0.354E-01
DAV:  17    -0.230879812940E+03    0.82154E-04   -0.13067E-04 35680   0.611E-02    0.258E-01
DAV:  18    -0.230879844569E+03   -0.31629E-04   -0.42346E-05 24792   0.338E-02    0.266E-01
DAV:  19    -0.230879881027E+03   -0.36457E-04   -0.47331E-05 25744   0.458E-02    0.285E-01
DAV:  20    -0.230879915488E+03   -0.34462E-04   -0.13511E-04 37416   0.781E-02    0.143E-01
DAV:  21    -0.230879959781E+03   -0.44292E-04   -0.98059E-05 33520   0.838E-02    0.786E-02
DAV:  22    -0.230879975758E+03   -0.15977E-04   -0.60356E-05 25760   0.483E-02    0.101E-01
DAV:  23    -0.230879971666E+03    0.40922E-05   -0.20382E-05 21936   0.290E-02
   9 F= -.23087997E+03 E0= -.23086340E+03  d E =-.817306E-03  mag=    -9.1201
       N       E                     dE             d eps       ncg     rms          rms(c)
DAV:   1    -0.230879173269E+03    0.80249E-03   -0.11659E-01 32656   0.211E+00    0.389E-01
DAV:   2    -0.230887166629E+03   -0.79934E-02   -0.30521E-02 44160   0.887E-01    0.266E+00
DAV:   3    -0.230879057239E+03    0.81094E-02   -0.83638E-03 38944   0.673E-01    0.824E-01
DAV:   4    -0.230880500403E+03   -0.14432E-02   -0.31736E-03 38672   0.476E-01    0.369E-01
DAV:   5    -0.230880408404E+03    0.91999E-04   -0.18370E-03 41704   0.244E-01    0.311E-01
DAV:   6    -0.230880258861E+03    0.14954E-03   -0.62789E-04 39112   0.152E-01    0.224E-01
DAV:   7    -0.230880190632E+03    0.68229E-04   -0.18770E-04 33712   0.829E-02    0.194E-01
DAV:   8    -0.230880154726E+03    0.35906E-04   -0.12961E-04 30296   0.638E-02    0.184E-01
DAV:   9    -0.230880246236E+03   -0.91509E-04   -0.70067E-04 37872   0.156E-01    0.259E-01
DAV:  10    -0.230880253048E+03   -0.68122E-05   -0.14461E-03 36576   0.185E-01    0.270E-01
DAV:  11    -0.230880340416E+03   -0.87368E-04   -0.82267E-04 36720   0.154E-01    0.298E-01
DAV:  12    -0.230880288049E+03    0.52367E-04   -0.39497E-04 37952   0.125E-01    0.331E-01
DAV:  13    -0.230880169460E+03    0.11859E-03   -0.11595E-04 35032   0.869E-02    0.229E-01
DAV:  14    -0.230880187894E+03   -0.18434E-04   -0.13162E-04 33712   0.765E-02    0.143E-01
DAV:  15    -0.230880261876E+03   -0.73982E-04   -0.12739E-04 34880   0.589E-02    0.113E-01
DAV:  16    -0.230880261700E+03    0.17538E-06   -0.61586E-05 27376   0.403E-02
  10 F= -.23088026E+03 E0= -.23086375E+03  d E =-.110734E-02  mag=    -9.1174
       N       E                     dE             d eps       ncg     rms          rms(c)
DAV:   1    -0.230880210858E+03    0.51018E-04   -0.10496E-02 32656   0.635E-01    0.160E-01
DAV:   2    -0.230880826514E+03   -0.61566E-03   -0.31954E-03 42008   0.249E-01    0.687E-01
DAV:   3    -0.230880132274E+03    0.69424E-03   -0.40078E-04 38480   0.122E-01    0.321E-01
DAV:   4    -0.230880164141E+03   -0.31867E-04   -0.58045E-05 32792   0.391E-02    0.299E-01
DAV:   5    -0.230880200219E+03   -0.36078E-04   -0.26734E-04 34384   0.118E-01    0.449E-01
DAV:   6    -0.230880184371E+03    0.15848E-04   -0.48576E-05 26720   0.380E-02    0.444E-01
DAV:   7    -0.230880080763E+03    0.10361E-03   -0.75630E-04 40896   0.157E-01    0.181E-01
DAV:   8    -0.230880341444E+03   -0.26068E-03   -0.58803E-04 39304   0.157E-01    0.182E-01
DAV:   9    -0.230880343770E+03   -0.23257E-05   -0.27273E-04 35336   0.911E-02    0.161E-01
DAV:  10    -0.230880307736E+03    0.36035E-04   -0.12954E-04 28360   0.808E-02    0.142E-01
DAV:  11    -0.230880319617E+03   -0.11881E-04   -0.89509E-05 27968   0.490E-02    0.117E-01
DAV:  12    -0.230880315804E+03    0.38132E-05   -0.41952E-05 22128   0.378E-02
  11 F= -.23088032E+03 E0= -.23086374E+03  d E =-.116144E-02  mag=    -9.1164
       N       E                     dE             d eps       ncg     rms          rms(c)
DAV:   1    -0.230880325310E+03   -0.56932E-05   -0.22991E-03 32656   0.299E-01    0.103E-01
DAV:   2    -0.230880471050E+03   -0.14574E-03   -0.11761E-03 43112   0.138E-01    0.275E-01
DAV:   3    -0.230880363866E+03    0.10718E-03   -0.97858E-05 32720   0.453E-02    0.224E-01
DAV:   4    -0.230880390950E+03   -0.27084E-04   -0.15705E-04 31944   0.786E-02    0.408E-01
DAV:   5    -0.230880197814E+03    0.19314E-03   -0.45552E-04 36040   0.136E-01    0.252E-01
DAV:   6    -0.230880225637E+03   -0.27824E-04   -0.15414E-04 35272   0.890E-02    0.257E-01
DAV:   7    -0.230880265029E+03   -0.39392E-04   -0.23049E-05 24744   0.172E-02    0.263E-01
DAV:   8    -0.230880275033E+03   -0.10004E-04   -0.76501E-05 24112   0.494E-02    0.231E-01
DAV:   9    -0.230880278654E+03   -0.36206E-05   -0.76331E-05 23448   0.508E-02
  12 F= -.23088028E+03 E0= -.23086369E+03  d E =-.112429E-02  mag=    -9.1170
       N       E                     dE             d eps       ncg     rms          rms(c)
DAV:   1    -0.230880327542E+03   -0.52509E-04   -0.71315E-04 38264   0.172E-01    0.122E-01
DAV:   2    -0.230881023625E+03   -0.69608E-03   -0.25116E-03 41432   0.267E-01    0.649E-01
DAV:   3    -0.230880310779E+03    0.71285E-03   -0.11693E-03 37208   0.212E-01    0.366E-01
DAV:   4    -0.230880351701E+03   -0.40922E-04   -0.93284E-05 30536   0.455E-02    0.377E-01
DAV:   5    -0.230880283349E+03    0.68352E-04   -0.11702E-04 29224   0.542E-02    0.513E-01
DAV:   6    -0.230880077105E+03    0.20624E-03   -0.33635E-04 34432   0.108E-01    0.448E-01
DAV:   7    -0.230880000841E+03    0.76264E-04   -0.28999E-04 32936   0.917E-02    0.304E-01
DAV:   8    -0.230880141462E+03   -0.14062E-03   -0.80010E-05 27312   0.589E-02    0.303E-01
DAV:   9    -0.230880177170E+03   -0.35707E-04   -0.25217E-05 21480   0.339E-02    0.334E-01
DAV:  10    -0.230880123666E+03    0.53504E-04   -0.90126E-06 19096   0.159E-02    0.321E-01
DAV:  11    -0.230880110057E+03    0.13608E-04   -0.70811E-06 16864   0.166E-02    0.312E-01
DAV:  12    -0.230880119878E+03   -0.98202E-05   -0.18844E-06 16672   0.471E-03
  13 F= -.23088012E+03 E0= -.23086360E+03  d E =-.965518E-03  mag=    -9.1160
       N       E                     dE             d eps       ncg     rms          rms(c)
DAV:   1    -0.230880160103E+03   -0.50046E-04   -0.10327E-04 32304   0.654E-02    0.295E-01
DAV:   2    -0.230895238583E+03   -0.15078E-01   -0.79993E-03 39208   0.698E-01    0.410E+00
DAV:   3    -0.230875183701E+03    0.20055E-01   -0.74959E-03 37448   0.679E-01    0.600E-01
DAV:   4    -0.230879718672E+03   -0.45350E-02   -0.97322E-04 34176   0.176E-01    0.602E-01
DAV:   5    -0.230880106473E+03   -0.38780E-03   -0.31434E-04 41776   0.837E-02    0.557E-01
DAV:   6    -0.230879732383E+03    0.37409E-03   -0.89294E-04 39144   0.186E-01    0.398E-01
DAV:   7    -0.230879773769E+03   -0.41386E-04   -0.86179E-04 38024   0.202E-01    0.290E-01
DAV:   8    -0.230880039849E+03   -0.26608E-03   -0.68209E-04 41072   0.180E-01    0.279E-01
DAV:   9    -0.230880101173E+03   -0.61324E-04   -0.36495E-04 39936   0.142E-01    0.268E-01
DAV:  10    -0.230880309273E+03   -0.20810E-03   -0.48809E-04 34776   0.127E-01    0.238E-01
DAV:  11    -0.230880290130E+03    0.19142E-04   -0.27399E-04 35616   0.102E-01    0.143E-01
DAV:  12    -0.230880353611E+03   -0.63481E-04   -0.13127E-04 35792   0.746E-02    0.139E-01
DAV:  13    -0.230880347831E+03    0.57799E-05   -0.91364E-05 30504   0.645E-02
  14 F= -.23088035E+03 E0= -.23086379E+03  d E =-.119347E-02  mag=    -9.1138
       N       E                     dE             d eps       ncg     rms          rms(c)
DAV:   1    -0.230880371050E+03   -0.17439E-04   -0.10488E-04 36648   0.734E-02    0.784E-02
DAV:   2    -0.230881382566E+03   -0.10115E-02   -0.11448E-03 36896   0.249E-01    0.978E-01
DAV:   3    -0.230879988787E+03    0.13938E-02   -0.60464E-04 36392   0.189E-01    0.195E-01
DAV:   4    -0.230880320672E+03   -0.33188E-03   -0.12510E-04 31864   0.764E-02    0.151E-01
DAV:   5    -0.230880328693E+03   -0.80209E-05   -0.99015E-05 26736   0.481E-02    0.173E-01
DAV:   6    -0.230880305314E+03    0.23379E-04   -0.74156E-05 27200   0.617E-02    0.120E-01
DAV:   7    -0.230880336353E+03   -0.31039E-04   -0.84977E-06 18680   0.111E-02    0.117E-01
DAV:   8    -0.230880346297E+03   -0.99440E-05   -0.83095E-06 17808   0.210E-02
  15 F= -.23088035E+03 E0= -.23086380E+03  d E =-.119194E-02  mag=    -9.1141
       N       E                     dE             d eps       ncg     rms          rms(c)
DAV:   1    -0.230880360000E+03   -0.23647E-04   -0.27248E-05 19096   0.364E-02    0.875E-02
DAV:   2    -0.230881180547E+03   -0.82055E-03   -0.13723E-03 37024   0.230E-01    0.818E-01
DAV:   3    -0.230880146173E+03    0.10344E-02   -0.81731E-04 36072   0.206E-01    0.250E-01
DAV:   4    -0.230880350162E+03   -0.20399E-03   -0.11787E-04 31328   0.661E-02    0.143E-01
DAV:   5    -0.230880334701E+03    0.15461E-04   -0.11541E-04 26784   0.424E-02    0.182E-01
DAV:   6    -0.230880337994E+03   -0.32928E-05   -0.27941E-05 21080   0.312E-02
  16 F= -.23088034E+03 E0= -.23086380E+03  d E =-.118363E-02  mag=    -9.1142
       N       E                     dE             d eps       ncg     rms          rms(c)
DAV:   1    -0.230880340957E+03   -0.62560E-05   -0.80782E-06 18272   0.148E-02    0.181E-01
DAV:   2    -0.230886323165E+03   -0.59822E-02   -0.50445E-03 38280   0.471E-01    0.242E+00
DAV:   3    -0.230877357842E+03    0.89653E-02   -0.43946E-03 37408   0.484E-01    0.223E-01
DAV:   4    -0.230880103217E+03   -0.27454E-02   -0.48513E-04 32352   0.108E-01    0.154E-01
DAV:   5    -0.230880351736E+03   -0.24852E-03   -0.19436E-04 39152   0.657E-02    0.279E-01
DAV:   6    -0.230880360766E+03   -0.90302E-05   -0.55225E-05 29680   0.429E-02
  17 F= -.23088036E+03 E0= -.23086382E+03  d E =-.120641E-02  mag=    -9.1146
       N       E                     dE             d eps       ncg     rms          rms(c)
DAV:   1    -0.230891167626E+03   -0.10816E-01   -0.62447E-01 32448   0.381E+00    0.156E+00
DAV:   2    -0.231021608351E+03   -0.13044E+00   -0.86733E-01 41016   0.367E+00    0.720E+00
DAV:   3    -0.230881567554E+03    0.14004E+00   -0.16726E-01 36480   0.339E+00    0.316E+00
DAV:   4    -0.230881636760E+03   -0.69206E-04   -0.42307E-02 38776   0.168E+00    0.157E+00
DAV:   5    -0.230882899427E+03   -0.12627E-02   -0.11650E-02 42272   0.659E-01    0.174E+00
DAV:   6    -0.230879815113E+03    0.30843E-02   -0.10065E-02 40144   0.649E-01    0.115E+00
DAV:   7    -0.230881161159E+03   -0.13460E-02   -0.63780E-03 39992   0.609E-01    0.146E+00
DAV:   8    -0.230880997291E+03    0.16387E-03   -0.48791E-03 39328   0.479E-01    0.111E+00
DAV:   9    -0.230880027621E+03    0.96967E-03   -0.47929E-03 42352   0.380E-01    0.563E-01
DAV:  10    -0.230880843208E+03   -0.81559E-03   -0.27390E-03 39304   0.253E-01    0.581E-01
DAV:  11    -0.230880489742E+03    0.35347E-03   -0.68718E-04 39792   0.125E-01    0.582E-01
DAV:  12    -0.230880162780E+03    0.32696E-03   -0.55746E-05 29920   0.282E-02    0.612E-01
DAV:  13    -0.230880132033E+03    0.30747E-04   -0.80823E-05 27128   0.603E-02    0.591E-01
DAV:  14    -0.230880256399E+03   -0.12437E-03   -0.55014E-04 36824   0.141E-01    0.622E-01
DAV:  15    -0.230880400112E+03   -0.14371E-03   -0.77915E-04 41184   0.184E-01    0.496E-01
DAV:  16    -0.230880451961E+03   -0.51849E-04   -0.34863E-04 40232   0.152E-01    0.372E-01
DAV:  17    -0.230880511418E+03   -0.59458E-04   -0.39502E-04 40608   0.119E-01    0.328E-01
DAV:  18    -0.230880515943E+03   -0.45247E-05   -0.20190E-04 34616   0.892E-02    0.279E-01
DAV:  19    -0.230880553657E+03   -0.37713E-04   -0.62322E-05 24360   0.482E-02    0.229E-01
DAV:  20    -0.230880587946E+03   -0.34289E-04   -0.29377E-05 21464   0.309E-02    0.203E-01
DAV:  21    -0.230880605249E+03   -0.17302E-04   -0.10802E-05 18504   0.134E-02    0.185E-01
DAV:  22    -0.230880613537E+03   -0.82880E-05   -0.29792E-06 17240   0.611E-03
  18 F= -.23088061E+03 E0= -.23086405E+03  d E =-.252771E-03  mag=    -9.1238
       N       E                     dE             d eps       ncg     rms          rms(c)
DAV:   1    -0.230884061270E+03   -0.34560E-02   -0.20658E-01 32448   0.219E+00    0.876E-01
DAV:   2    -0.230926614286E+03   -0.42553E-01   -0.15797E-01 40816   0.199E+00    0.569E+00
DAV:   3    -0.230873934915E+03    0.52679E-01   -0.93234E-02 36920   0.180E+00    0.205E+00
DAV:   4    -0.230880887992E+03   -0.69531E-02   -0.15144E-02 38328   0.104E+00    0.679E-01
DAV:   5    -0.230881717580E+03   -0.82959E-03   -0.93113E-03 43392   0.505E-01    0.834E-01
DAV:   6    -0.230880815104E+03    0.90248E-03   -0.49713E-03 39520   0.410E-01    0.706E-01
DAV:   7    -0.230880509343E+03    0.30576E-03   -0.20751E-03 37016   0.300E-01    0.411E-01
DAV:   8    -0.230880625099E+03   -0.11576E-03   -0.10115E-03 38176   0.198E-01    0.299E-01
DAV:   9    -0.230880665075E+03   -0.39977E-04   -0.33670E-04 38232   0.110E-01    0.322E-01
DAV:  10    -0.230880499869E+03    0.16521E-03   -0.53801E-05 29768   0.349E-02    0.314E-01
DAV:  11    -0.230880430219E+03    0.69650E-04   -0.46692E-05 24464   0.444E-02    0.395E-01
DAV:  12    -0.230880343563E+03    0.86656E-04   -0.39434E-05 25200   0.428E-02    0.450E-01
DAV:  13    -0.230880369925E+03   -0.26362E-04   -0.36518E-05 23904   0.453E-02    0.481E-01
DAV:  14    -0.230880378104E+03   -0.81791E-05   -0.10893E-04 33984   0.874E-02    0.428E-01
DAV:  15    -0.230880405387E+03   -0.27283E-04   -0.25401E-04 40472   0.109E-01    0.139E-01
DAV:  16    -0.230880609177E+03   -0.20379E-03   -0.26693E-04 39248   0.991E-02    0.150E-01
DAV:  17    -0.230880587218E+03    0.21959E-04   -0.11590E-04 32536   0.485E-02    0.185E-01
DAV:  18    -0.230880529654E+03    0.57564E-04   -0.13035E-05 22584   0.140E-02    0.198E-01
DAV:  19    -0.230880490913E+03    0.38741E-04   -0.88157E-06 19168   0.154E-02    0.223E-01
DAV:  20    -0.230880470996E+03    0.19917E-04   -0.28298E-05 18848   0.328E-02    0.228E-01
DAV:  21    -0.230880476205E+03   -0.52093E-05   -0.27756E-05 22656   0.294E-02
  19 F= -.23088048E+03 E0= -.23086394E+03  d E =-.115439E-03  mag=    -9.1244
       N       E                     dE             d eps       ncg     rms          rms(c)
DAV:   1    -0.230881998346E+03   -0.15273E-02   -0.87578E-02 32448   0.143E+00    0.540E-01
DAV:   2    -0.230896291572E+03   -0.14293E-01   -0.24177E-02 40864   0.119E+00    0.402E+00
DAV:   3    -0.230878452266E+03    0.17839E-01   -0.16239E-02 37216   0.965E-01    0.126E+00
DAV:   4    -0.230880634895E+03   -0.21826E-02   -0.52884E-03 38336   0.631E-01    0.488E-01
DAV:   5    -0.230880330431E+03    0.30446E-03   -0.15692E-03 43600   0.195E-01    0.391E-01
DAV:   6    -0.230880208766E+03    0.12167E-03   -0.20474E-04 36144   0.776E-02    0.389E-01
DAV:   7    -0.230880018875E+03    0.18989E-03   -0.19416E-05 24280   0.173E-02    0.401E-01
DAV:   8    -0.230880040104E+03   -0.21229E-04   -0.46427E-04 40496   0.151E-01    0.292E-01
DAV:   9    -0.230880711351E+03   -0.67125E-03   -0.14304E-03 39080   0.269E-01    0.445E-01
DAV:  10    -0.230880681363E+03    0.29988E-04   -0.11159E-03 36976   0.219E-01    0.369E-01
DAV:  11    -0.230880534504E+03    0.14686E-03   -0.41984E-04 39184   0.120E-01    0.367E-01
DAV:  12    -0.230880396081E+03    0.13842E-03   -0.94000E-05 32552   0.589E-02    0.352E-01
DAV:  13    -0.230880258490E+03    0.13759E-03   -0.18184E-05 21976   0.249E-02    0.393E-01
DAV:  14    -0.230880250521E+03    0.79696E-05   -0.16198E-05 20112   0.232E-02
  20 F= -.23088025E+03 E0= -.23086374E+03  d E =0.110245E-03  mag=    -9.1200
       N       E                     dE             d eps       ncg     rms          rms(c)
DAV:   1    -0.230877339456E+03    0.29190E-02   -0.15128E-01 33144   0.261E+00    0.474E-01
DAV:   2    -0.230886365961E+03   -0.90265E-02   -0.46511E-02 37472   0.843E-01    0.208E+00
DAV:   3    -0.230881336534E+03    0.50294E-02   -0.11696E-02 38800   0.755E-01    0.141E+00
DAV:   4    -0.230881491201E+03   -0.15467E-03   -0.21768E-03 38472   0.306E-01    0.131E+00
DAV:   5    -0.230880472311E+03    0.10189E-02   -0.35148E-04 34552   0.808E-02    0.135E+00
DAV:   6    -0.230880602094E+03   -0.12978E-03   -0.52126E-04 39616   0.139E-01    0.157E+00
DAV:   7    -0.230879931879E+03    0.67022E-03   -0.37240E-04 40864   0.102E-01    0.139E+00
DAV:   8    -0.230879349926E+03    0.58195E-03   -0.52593E-03 40752   0.376E-01    0.758E-01
DAV:   9    -0.230880502775E+03   -0.11528E-02   -0.53130E-03 37800   0.444E-01    0.525E-01
DAV:  10    -0.230881212003E+03   -0.70923E-03   -0.24162E-03 40784   0.327E-01    0.708E-01
DAV:  11    -0.230880944988E+03    0.26701E-03   -0.81459E-04 41208   0.205E-01    0.686E-01
DAV:  12    -0.230880853353E+03    0.91635E-04   -0.13180E-04 35832   0.613E-02    0.664E-01
DAV:  13    -0.230880850887E+03    0.24661E-05   -0.21054E-05 24048   0.243E-02
  21 F= -.23088085E+03 E0= -.23086430E+03  d E =-.600367E-03  mag=    -9.1189
