       N       E                     dE             d eps       ncg     rms          rms(c)
DAV:   1     0.698194116023E+04    0.69819E+04   -0.24970E+05 32448   0.164E+03
DAV:   2     0.746454626813E+03   -0.62355E+04   -0.59504E+04 33064   0.507E+02
DAV:   3    -0.363614471896E+03   -0.11101E+04   -0.10895E+04 35128   0.208E+02
DAV:   4    -0.427671232462E+03   -0.64057E+02   -0.61377E+02 41744   0.521E+01
DAV:   5    -0.433439954862E+03   -0.57687E+01   -0.55417E+01 57840   0.125E+01    0.644E+01
DAV:   6    -0.395908488918E+03    0.37531E+02   -0.45123E+02 49200   0.595E+01    0.541E+01
DAV:   7    -0.448629989635E+03   -0.52722E+02   -0.33382E+02 47840   0.425E+01    0.650E+01
DAV:   8    -0.427203179308E+03    0.21427E+02   -0.11854E+02 46200   0.279E+01    0.719E+01
DAV:   9    -0.390307179534E+03    0.36896E+02   -0.54651E+01 45360   0.152E+01    0.380E+01
DAV:  10    -0.391552057580E+03   -0.12449E+01   -0.49579E+01 46536   0.110E+01    0.409E+01
DAV:  11    -0.389179409017E+03    0.23726E+01   -0.36008E+01 47672   0.117E+01    0.448E+01
DAV:  12    -0.384796547232E+03    0.43829E+01   -0.28640E+01 46664   0.960E+00    0.390E+01
DAV:  13    -0.385703318638E+03   -0.90677E+00   -0.34125E+01 46952   0.858E+00    0.285E+01
DAV:  14    -0.384284997343E+03    0.14183E+01   -0.31385E+00 45824   0.499E+00    0.262E+01
DAV:  15    -0.385032163982E+03   -0.74717E+00   -0.40668E+00 44680   0.468E+00    0.220E+01
DAV:  16    -0.385334456651E+03   -0.30229E+00   -0.30458E+00 45424   0.472E+00    0.222E+01
DAV:  17    -0.385249167988E+03    0.85289E-01   -0.19568E+00 45296   0.363E+00    0.194E+01
DAV:  18    -0.385417575378E+03   -0.16841E+00   -0.17012E+00 44464   0.269E+00    0.189E+01
DAV:  19    -0.385115608668E+03    0.30197E+00   -0.22213E+00 46096   0.292E+00    0.154E+01
DAV:  20    -0.385117605367E+03   -0.19967E-02   -0.14987E+00 45824   0.194E+00    0.115E+01
DAV:  21    -0.385126264166E+03   -0.86588E-02   -0.81893E-01 45160   0.208E+00    0.102E+01
DAV:  22    -0.385296204886E+03   -0.16994E+00   -0.21274E-01 45952   0.109E+00    0.993E+00
DAV:  23    -0.385365511415E+03   -0.69307E-01   -0.37179E-02 46448   0.565E-01    0.101E+01
DAV:  24    -0.385391329010E+03   -0.25818E-01   -0.12814E-02 45896   0.334E-01    0.959E+00
DAV:  25    -0.385418455285E+03   -0.27126E-01   -0.17012E-01 45872   0.109E+00    0.734E+00
DAV:  26    -0.385585106259E+03   -0.16665E+00   -0.19992E-01 44960   0.148E+00    0.685E+00
DAV:  27    -0.385614632589E+03   -0.29526E-01   -0.30656E-01 46272   0.159E+00    0.827E+00
DAV:  28    -0.385549147703E+03    0.65485E-01   -0.37267E-01 45480   0.145E+00    0.647E+00
DAV:  29    -0.385535751838E+03    0.13396E-01   -0.10663E-01 45080   0.967E-01    0.459E+00
DAV:  30    -0.385496017208E+03    0.39735E-01   -0.86806E-02 45936   0.781E-01    0.459E+00
DAV:  31    -0.385503778968E+03   -0.77618E-02   -0.37382E-02 42696   0.414E-01    0.342E+00
DAV:  32    -0.385539912313E+03   -0.36133E-01   -0.41264E-02 45480   0.530E-01    0.245E+00
DAV:  33    -0.385547800014E+03   -0.78877E-02   -0.13947E-02 43944   0.322E-01    0.213E+00
DAV:  34    -0.385560355296E+03   -0.12555E-01   -0.16241E-02 44672   0.278E-01    0.252E+00
DAV:  35    -0.385557971495E+03    0.23838E-02   -0.18472E-02 43640   0.317E-01    0.159E+00
DAV:  36    -0.385564120670E+03   -0.61492E-02   -0.90901E-03 44864   0.306E-01    0.133E+00
DAV:  37    -0.385570988665E+03   -0.68680E-02   -0.10901E-02 41848   0.281E-01    0.116E+00
DAV:  38    -0.385569235357E+03    0.17533E-02   -0.51431E-03 42520   0.204E-01    0.727E-01
DAV:  39    -0.385568521475E+03    0.71388E-03   -0.30265E-03 42720   0.133E-01    0.629E-01
DAV:  40    -0.385568103737E+03    0.41774E-03   -0.32839E-03 44256   0.133E-01    0.523E-01
DAV:  41    -0.385568467698E+03   -0.36396E-03   -0.12442E-03 42096   0.118E-01    0.444E-01
DAV:  42    -0.385568420028E+03    0.47670E-04   -0.48693E-04 42832   0.697E-02    0.378E-01
DAV:  43    -0.385568683590E+03   -0.26356E-03   -0.60689E-04 43080   0.707E-02    0.389E-01
DAV:  44    -0.385568941439E+03   -0.25785E-03   -0.58235E-04 41384   0.788E-02    0.270E-01
DAV:  45    -0.385569142844E+03   -0.20140E-03   -0.39704E-04 43992   0.561E-02    0.217E-01
DAV:  46    -0.385569164362E+03   -0.21518E-04   -0.15670E-04 34856   0.347E-02    0.156E-01
DAV:  47    -0.385569200058E+03   -0.35697E-04   -0.70614E-05 34544   0.230E-02    0.148E-01
DAV:  48    -0.385569210476E+03   -0.10418E-04   -0.43968E-05 29560   0.199E-02    0.136E-01
DAV:  49    -0.385569222950E+03   -0.12474E-04   -0.68340E-05 32928   0.221E-02    0.131E-01
DAV:  50    -0.385569241877E+03   -0.18927E-04   -0.59365E-05 31976   0.245E-02    0.981E-02
DAV:  51    -0.385569228894E+03    0.12982E-04   -0.42926E-05 29056   0.191E-02    0.496E-02
DAV:  52    -0.385569234263E+03   -0.53691E-05   -0.26164E-05 26496   0.150E-02
   1 F= -.38556923E+03 E0= -.38554727E+03  d E =-.385569E+03  mag=    19.9613
       N       E                     dE             d eps       ncg     rms          rms(c)
DAV:   1    -0.385552854999E+03    0.16374E-01   -0.31368E+00 34488   0.503E+00    0.600E-01
DAV:   2    -0.385586816843E+03   -0.33962E-01   -0.27319E-01 34472   0.106E+00    0.234E+00
DAV:   3    -0.385579617676E+03    0.71992E-02   -0.44116E-02 42576   0.474E-01    0.108E+00
DAV:   4    -0.385580090541E+03   -0.47286E-03   -0.19317E-02 44952   0.281E-01    0.886E-01
DAV:   5    -0.385578760749E+03    0.13298E-02   -0.77691E-03 45080   0.186E-01    0.518E-01
DAV:   6    -0.385578492447E+03    0.26830E-03   -0.28210E-03 45816   0.107E-01    0.386E-01
DAV:   7    -0.385579311288E+03   -0.81884E-03   -0.68726E-03 44992   0.117E-01    0.754E-01
DAV:   8    -0.385578324155E+03    0.98713E-03   -0.62944E-03 44424   0.143E-01    0.435E-01
DAV:   9    -0.385578367663E+03   -0.43509E-04   -0.19961E-03 45320   0.116E-01    0.476E-01
DAV:  10    -0.385578162724E+03    0.20494E-03   -0.10650E-03 44008   0.881E-02    0.269E-01
DAV:  11    -0.385578275424E+03   -0.11270E-03   -0.53972E-04 41880   0.743E-02    0.304E-01
DAV:  12    -0.385578156562E+03    0.11886E-03   -0.24510E-04 35000   0.547E-02    0.127E-01
DAV:  13    -0.385578198777E+03   -0.42215E-04   -0.75998E-05 29696   0.274E-02    0.143E-01
DAV:  14    -0.385578190575E+03    0.82015E-05   -0.46893E-05 28832   0.243E-02
   2 F= -.38557819E+03 E0= -.38555615E+03  d E =-.895631E-02  mag=    19.9850
       N       E                     dE             d eps       ncg     rms          rms(c)
DAV:   1    -0.385557903251E+03    0.20296E-01   -0.27825E+00 34336   0.473E+00    0.579E-01
DAV:   2    -0.385588218572E+03   -0.30315E-01   -0.24154E-01 34912   0.102E+00    0.218E+00
DAV:   3    -0.385581658136E+03    0.65604E-02   -0.38076E-02 43032   0.488E-01    0.109E+00
DAV:   4    -0.385581908738E+03   -0.25060E-03   -0.18860E-02 44536   0.270E-01    0.861E-01
DAV:   5    -0.385580687814E+03    0.12209E-02   -0.75281E-03 45152   0.186E-01    0.478E-01
DAV:   6    -0.385580377630E+03    0.31018E-03   -0.25111E-03 45312   0.112E-01    0.299E-01
DAV:   7    -0.385581384789E+03   -0.10072E-02   -0.45343E-03 44720   0.132E-01    0.854E-01
DAV:   8    -0.385580475471E+03    0.90932E-03   -0.75151E-03 45504   0.133E-01    0.474E-01
DAV:   9    -0.385580308645E+03    0.16683E-03   -0.33080E-03 44024   0.112E-01    0.382E-01
DAV:  10    -0.385580220077E+03    0.88568E-04   -0.88226E-04 43312   0.755E-02    0.268E-01
DAV:  11    -0.385580148179E+03    0.71897E-04   -0.25490E-04 35728   0.538E-02    0.158E-01
DAV:  12    -0.385580138290E+03    0.98892E-05   -0.11294E-04 30296   0.359E-02    0.138E-01
DAV:  13    -0.385580132333E+03    0.59575E-05   -0.83819E-05 29848   0.287E-02
   3 F= -.38558013E+03 E0= -.38555797E+03  d E =-.108981E-01  mag=    19.9947
       N       E                     dE             d eps       ncg     rms          rms(c)
DAV:   1    -0.385571581994E+03    0.85563E-02   -0.41709E+00 33648   0.518E+00    0.599E-01
DAV:   2    -0.385593916669E+03   -0.22335E-01   -0.21081E-01 34016   0.105E+00    0.218E+00
DAV:   3    -0.385587047910E+03    0.68688E-02   -0.71829E-02 42904   0.436E-01    0.110E+00
DAV:   4    -0.385589430467E+03   -0.23826E-02   -0.34600E-02 45968   0.291E-01    0.159E+00
DAV:   5    -0.385585437464E+03    0.39930E-02   -0.13115E-02 46040   0.238E-01    0.581E-01
DAV:   6    -0.385585440531E+03   -0.30675E-05   -0.23252E-03 45624   0.160E-01    0.528E-01
DAV:   7    -0.385585497860E+03   -0.57329E-04   -0.21972E-03 46616   0.150E-01    0.520E-01
DAV:   8    -0.385585225744E+03    0.27212E-03   -0.33033E-03 46016   0.134E-01    0.411E-01
DAV:   9    -0.385585007104E+03    0.21864E-03   -0.28160E-03 45000   0.945E-02    0.255E-01
DAV:  10    -0.385585020977E+03   -0.13874E-04   -0.65358E-04 40872   0.581E-02    0.233E-01
DAV:  11    -0.385584963114E+03    0.57863E-04   -0.21887E-04 33616   0.419E-02    0.160E-01
DAV:  12    -0.385584962913E+03    0.20161E-06   -0.14810E-04 30296   0.351E-02    0.152E-01
DAV:  13    -0.385584950129E+03    0.12784E-04   -0.14969E-04 31448   0.387E-02    0.114E-01
DAV:  14    -0.385584968672E+03   -0.18543E-04   -0.12618E-04 30784   0.387E-02    0.133E-01
DAV:  15    -0.385584957377E+03    0.11295E-04   -0.86044E-05 29272   0.311E-02    0.969E-02
DAV:  16    -0.385584951776E+03    0.56009E-05   -0.36668E-05 28032   0.212E-02
   4 F= -.38558495E+03 E0= -.38556270E+03  d E =-.481944E-02  mag=    19.9982
       N       E                     dE             d eps       ncg     rms          rms(c)
DAV:   1    -0.385548167342E+03    0.36790E-01   -0.11350E+01 33600   0.853E+00    0.980E-01
DAV:   2    -0.385606772107E+03   -0.58605E-01   -0.56416E-01 34040   0.172E+00    0.340E+00
DAV:   3    -0.385590657473E+03    0.16115E-01   -0.18439E-01 43144   0.706E-01    0.185E+00
DAV:   4    -0.385597585584E+03   -0.69281E-02   -0.12088E-01 46048   0.475E-01    0.272E+00
DAV:   5    -0.385585826486E+03    0.11759E-01   -0.44836E-02 45960   0.388E-01    0.909E-01
DAV:   6    -0.385586284609E+03   -0.45812E-03   -0.70212E-03 46208   0.267E-01    0.923E-01
DAV:   7    -0.385586201538E+03    0.83070E-04   -0.56424E-03 46696   0.241E-01    0.838E-01
DAV:   8    -0.385585575629E+03    0.62591E-03   -0.75051E-03 45976   0.211E-01    0.667E-01
DAV:   9    -0.385584985131E+03    0.59050E-03   -0.63699E-03 45752   0.154E-01    0.426E-01
DAV:  10    -0.385585045781E+03   -0.60651E-04   -0.21625E-03 44944   0.993E-02    0.443E-01
DAV:  11    -0.385584797621E+03    0.24816E-03   -0.11067E-03 42856   0.835E-02    0.318E-01
DAV:  12    -0.385584861530E+03   -0.63908E-04   -0.88789E-04 43488   0.828E-02    0.351E-01
DAV:  13    -0.385584844717E+03    0.16813E-04   -0.92724E-04 44792   0.828E-02    0.253E-01
DAV:  14    -0.385584856627E+03   -0.11910E-04   -0.37466E-04 41312   0.672E-02    0.218E-01
DAV:  15    -0.385584870882E+03   -0.14255E-04   -0.22020E-04 35600   0.484E-02    0.200E-01
DAV:  16    -0.385584818601E+03    0.52281E-04   -0.10255E-04 29544   0.351E-02    0.112E-01
DAV:  17    -0.385584827336E+03   -0.87349E-05   -0.53644E-05 29736   0.192E-02
   5 F= -.38558483E+03 E0= -.38556260E+03  d E =-.469500E-02  mag=    19.9994
       N       E                     dE             d eps       ncg     rms          rms(c)
DAV:   1    -0.385576955604E+03    0.78630E-02   -0.28529E+00 33528   0.428E+00    0.532E-01
DAV:   2    -0.385594102769E+03   -0.17147E-01   -0.14898E-01 34960   0.884E-01    0.221E+00
DAV:   3    -0.385587428372E+03    0.66744E-02   -0.54871E-02 42456   0.392E-01    0.875E-01
DAV:   4    -0.385590131686E+03   -0.27033E-02   -0.26448E-02 46104   0.253E-01    0.147E+00
DAV:   5    -0.385586353739E+03    0.37779E-02   -0.11213E-02 45816   0.219E-01    0.452E-01
DAV:   6    -0.385586468566E+03   -0.11483E-03   -0.18693E-03 44992   0.135E-01    0.498E-01
DAV:   7    -0.385586391089E+03    0.77478E-04   -0.17606E-03 46008   0.122E-01    0.452E-01
DAV:   8    -0.385586386151E+03    0.49374E-05   -0.38341E-03 45800   0.122E-01    0.488E-01
DAV:   9    -0.385586024399E+03    0.36175E-03   -0.36814E-03 44664   0.106E-01    0.274E-01
DAV:  10    -0.385586184981E+03   -0.16058E-03   -0.98682E-04 43008   0.826E-02    0.325E-01
DAV:  11    -0.385586128789E+03    0.56192E-04   -0.42617E-04 39704   0.637E-02    0.202E-01
DAV:  12    -0.385586128782E+03    0.69049E-08   -0.21591E-04 31280   0.407E-02    0.162E-01
DAV:  13    -0.385586148070E+03   -0.19288E-04   -0.93629E-05 31360   0.313E-02    0.146E-01
DAV:  14    -0.385586144095E+03    0.39747E-05   -0.57661E-05 29376   0.272E-02
   6 F= -.38558614E+03 E0= -.38556384E+03  d E =-.601176E-02  mag=    19.9998
       N       E                     dE             d eps       ncg     rms          rms(c)
DAV:   1    -0.385572113253E+03    0.14035E-01   -0.28116E+00 33776   0.478E+00    0.553E-01
DAV:   2    -0.385595397052E+03   -0.23284E-01   -0.19770E-01 33744   0.102E+00    0.199E+00
DAV:   3    -0.385590033501E+03    0.53636E-02   -0.20374E-02 44208   0.380E-01    0.814E-01
DAV:   4    -0.385591237819E+03   -0.12043E-02   -0.44889E-03 46040   0.220E-01    0.106E+00
DAV:   5    -0.385589326642E+03    0.19112E-02   -0.33806E-03 46688   0.170E-01    0.373E-01
DAV:   6    -0.385589740810E+03   -0.41417E-03   -0.38044E-03 46768   0.123E-01    0.581E-01
DAV:   7    -0.385589861390E+03   -0.12058E-03   -0.75943E-03 46432   0.131E-01    0.686E-01
DAV:   8    -0.385589393531E+03    0.46786E-03   -0.42870E-03 46152   0.131E-01    0.498E-01
DAV:   9    -0.385589189271E+03    0.20426E-03   -0.25833E-03 45280   0.980E-02    0.337E-01
DAV:  10    -0.385589105253E+03    0.84018E-04   -0.15736E-03 40968   0.844E-02    0.241E-01
DAV:  11    -0.385589157965E+03   -0.52711E-04   -0.12933E-03 39936   0.694E-02    0.266E-01
DAV:  12    -0.385589074064E+03    0.83901E-04   -0.49655E-04 33984   0.539E-02    0.146E-01
DAV:  13    -0.385589115183E+03   -0.41119E-04   -0.16134E-04 30288   0.396E-02    0.152E-01
DAV:  14    -0.385589102929E+03    0.12254E-04   -0.81052E-05 29464   0.320E-02    0.110E-01
DAV:  15    -0.385589137462E+03   -0.34532E-04   -0.76016E-05 29392   0.288E-02    0.157E-01
DAV:  16    -0.385589094991E+03    0.42471E-04   -0.73896E-05 30544   0.296E-02    0.718E-02
DAV:  17    -0.385589099147E+03   -0.41560E-05   -0.62827E-05 31640   0.193E-02
   7 F= -.38558910E+03 E0= -.38556687E+03  d E =-.295505E-02  mag=    19.9999
       N       E                     dE             d eps       ncg     rms          rms(c)
DAV:   1    -0.385588157806E+03    0.93718E-03   -0.17217E-01 33888   0.118E+00    0.148E-01
DAV:   2    -0.385589907640E+03   -0.17498E-02   -0.12230E-02 35120   0.265E-01    0.666E-01
DAV:   3    -0.385589194471E+03    0.71317E-03   -0.17130E-03 41688   0.123E-01    0.187E-01
DAV:   4    -0.385589406592E+03   -0.21212E-03   -0.10782E-03 40648   0.672E-02    0.367E-01
DAV:   5    -0.385589211988E+03    0.19460E-03   -0.95506E-04 35736   0.552E-02    0.177E-01
DAV:   6    -0.385589190160E+03    0.21829E-04   -0.26885E-04 28792   0.308E-02    0.117E-01
DAV:   7    -0.385589195004E+03   -0.48440E-05   -0.12695E-04 28888   0.328E-02    0.119E-01
DAV:   8    -0.385589181925E+03    0.13079E-04   -0.12053E-04 29968   0.324E-02    0.106E-01
DAV:   9    -0.385589175480E+03    0.64453E-05   -0.63977E-05 27832   0.197E-02
   8 F= -.38558918E+03 E0= -.38556707E+03  d E =-.303138E-02  mag=    20.0000
       N       E                     dE             d eps       ncg     rms          rms(c)
DAV:   1    -0.385585495085E+03    0.36868E-02   -0.19394E+00 33792   0.359E+00    0.490E-01
DAV:   2    -0.385599379230E+03   -0.13884E-01   -0.87464E-02 36752   0.777E-01    0.234E+00
DAV:   3    -0.385591512695E+03    0.78665E-02   -0.20468E-02 43672   0.386E-01    0.670E-01
DAV:   4    -0.385592654961E+03   -0.11423E-02   -0.51156E-03 45704   0.205E-01    0.916E-01
DAV:   5    -0.385591253034E+03    0.14019E-02   -0.52223E-03 46304   0.180E-01    0.442E-01
DAV:   6    -0.385591276946E+03   -0.23912E-04   -0.44929E-03 45824   0.137E-01    0.431E-01
DAV:   7    -0.385591770235E+03   -0.49329E-03   -0.56149E-03 45368   0.135E-01    0.672E-01
DAV:   8    -0.385591019916E+03    0.75032E-03   -0.29825E-03 44456   0.112E-01    0.307E-01
DAV:   9    -0.385591050797E+03   -0.30880E-04   -0.13075E-03 40192   0.689E-02    0.321E-01
DAV:  10    -0.385590925805E+03    0.12499E-03   -0.65790E-04 31776   0.446E-02    0.180E-01
DAV:  11    -0.385590896383E+03    0.29422E-04   -0.14468E-04 28952   0.289E-02    0.127E-01
DAV:  12    -0.385590878392E+03    0.17991E-04   -0.10157E-04 29560   0.337E-02    0.119E-01
DAV:  13    -0.385590929288E+03   -0.50896E-04   -0.19269E-04 31680   0.470E-02    0.184E-01
DAV:  14    -0.385590891344E+03    0.37943E-04   -0.18311E-04 30224   0.437E-02    0.106E-01
DAV:  15    -0.385590888345E+03    0.29992E-05   -0.49136E-05 28832   0.244E-02
   9 F= -.38559089E+03 E0= -.38556872E+03  d E =-.171287E-02  mag=    20.0000
       N       E                     dE             d eps       ncg     rms          rms(c)
DAV:   1    -0.385589406814E+03    0.14845E-02   -0.58572E-01 33816   0.198E+00    0.277E-01
DAV:   2    -0.385594005520E+03   -0.45987E-02   -0.26733E-02 37200   0.434E-01    0.137E+00
DAV:   3    -0.385591208252E+03    0.27973E-02   -0.64954E-03 43480   0.224E-01    0.379E-01
DAV:   4    -0.385591846176E+03   -0.63792E-03   -0.38519E-03 44800   0.127E-01    0.641E-01
DAV:   5    -0.385591280138E+03    0.56604E-03   -0.44376E-03 44496   0.105E-01    0.387E-01
DAV:   6    -0.385591136340E+03    0.14380E-03   -0.16778E-03 43128   0.798E-02    0.258E-01
DAV:   7    -0.385591232336E+03   -0.95996E-04   -0.13398E-03 42480   0.788E-02    0.311E-01
DAV:   8    -0.385591139324E+03    0.93012E-04   -0.12553E-03 40832   0.686E-02    0.234E-01
DAV:   9    -0.385591049324E+03    0.90000E-04   -0.42251E-04 30872   0.403E-02    0.108E-01
DAV:  10    -0.385591050416E+03   -0.10927E-05   -0.62910E-05 27216   0.218E-02
  10 F= -.38559105E+03 E0= -.38556879E+03  d E =-.187494E-02  mag=    20.0000
       N       E                     dE             d eps       ncg     rms          rms(c)
DAV:   1    -0.385584691555E+03    0.63578E-02   -0.15902E+00 34496   0.352E+00    0.289E-01
DAV:   2    -0.385592759221E+03   -0.80677E-02   -0.77812E-02 32576   0.668E-01    0.595E-01
DAV:   3    -0.385592897540E+03   -0.13832E-03   -0.46834E-03 45520   0.206E-01    0.609E-01
DAV:   4    -0.385592637346E+03    0.26019E-03   -0.29245E-03 44880   0.124E-01    0.473E-01
DAV:   5    -0.385592272005E+03    0.36534E-03   -0.11409E-03 44824   0.737E-02    0.173E-01
DAV:   6    -0.385592369263E+03   -0.97258E-04   -0.66077E-04 37928   0.550E-02    0.285E-01
DAV:   7    -0.385592393343E+03   -0.24080E-04   -0.14064E-03 38568   0.595E-02    0.341E-01
DAV:   8    -0.385592219656E+03    0.17369E-03   -0.99938E-04 37352   0.578E-02    0.166E-01
DAV:   9    -0.385592300222E+03   -0.80566E-04   -0.61921E-04 34368   0.545E-02    0.247E-01
DAV:  10    -0.385592216960E+03    0.83263E-04   -0.37036E-04 33120   0.482E-02    0.145E-01
DAV:  11    -0.385592210831E+03    0.61288E-05   -0.14409E-04 30624   0.408E-02    0.104E-01
DAV:  12    -0.385592227927E+03   -0.17097E-04   -0.10325E-04 30168   0.343E-02    0.108E-01
DAV:  13    -0.385592224412E+03    0.35151E-05   -0.56512E-05 28728   0.278E-02
  11 F= -.38559222E+03 E0= -.38556995E+03  d E =-.117400E-02  mag=    20.0000
       N       E                     dE             d eps       ncg     rms          rms(c)
DAV:   1    -0.385580669392E+03    0.11559E-01   -0.24699E+00 34568   0.438E+00    0.367E-01
DAV:   2    -0.385595822490E+03   -0.15153E-01   -0.12464E-01 34464   0.856E-01    0.148E+00
DAV:   3    -0.385592848865E+03    0.29736E-02   -0.14586E-02 43160   0.307E-01    0.666E-01
DAV:   4    -0.385593685863E+03   -0.83700E-03   -0.81227E-03 46832   0.171E-01    0.883E-01
DAV:   5    -0.385592600478E+03    0.10854E-02   -0.70802E-03 45176   0.140E-01    0.435E-01
DAV:   6    -0.385592382751E+03    0.21773E-03   -0.13746E-03 44016   0.762E-02    0.222E-01
DAV:   7    -0.385592434513E+03   -0.51762E-04   -0.54819E-04 44592   0.727E-02    0.286E-01
DAV:   8    -0.385592383159E+03    0.51354E-04   -0.64606E-04 44248   0.778E-02    0.215E-01
DAV:   9    -0.385592387543E+03   -0.43839E-05   -0.84068E-04 38312   0.609E-02    0.221E-01
DAV:  10    -0.385592360669E+03    0.26874E-04   -0.38974E-04 29896   0.373E-02    0.175E-01
DAV:  11    -0.385592341418E+03    0.19251E-04   -0.56555E-05 27288   0.211E-02    0.131E-01
DAV:  12    -0.385592338145E+03    0.32725E-05   -0.16587E-05 25032   0.130E-02
  12 F= -.38559234E+03 E0= -.38556993E+03  d E =-.128773E-02  mag=    20.0000
       N       E                     dE             d eps       ncg     rms          rms(c)
DAV:   1    -0.385591111761E+03    0.12297E-02   -0.27264E-01 34648   0.146E+00    0.174E-01
DAV:   2    -0.385594239236E+03   -0.31275E-02   -0.16055E-02 37744   0.323E-01    0.104E+00
DAV:   3    -0.385592426906E+03    0.18123E-02   -0.49247E-03 42288   0.183E-01    0.273E-01
DAV:   4    -0.385592734846E+03   -0.30794E-03   -0.25638E-03 42360   0.863E-02    0.401E-01
DAV:   5    -0.385592525059E+03    0.20979E-03   -0.15916E-03 37112   0.667E-02    0.232E-01
DAV:   6    -0.385592453517E+03    0.71541E-04   -0.20352E-04 29752   0.386E-02    0.866E-02
DAV:   7    -0.385592460014E+03   -0.64967E-05   -0.62778E-05 27800   0.210E-02
  13 F= -.38559246E+03 E0= -.38557014E+03  d E =-.140960E-02  mag=    20.0000
       N       E                     dE             d eps       ncg     rms          rms(c)
DAV:   1    -0.385587885505E+03    0.45680E-02   -0.12252E+00 34000   0.301E+00    0.274E-01
DAV:   2    -0.385594443766E+03   -0.65583E-02   -0.60633E-02 33336   0.581E-01    0.810E-01
DAV:   3    -0.385594163661E+03    0.28010E-03   -0.12944E-02 43432   0.222E-01    0.701E-01
DAV:   4    -0.385593987185E+03    0.17648E-03   -0.60963E-03 46144   0.128E-01    0.613E-01
DAV:   5    -0.385593428708E+03    0.55848E-03   -0.27663E-03 44312   0.907E-02    0.259E-01
DAV:   6    -0.385593422966E+03    0.57417E-05   -0.10740E-03 40336   0.665E-02    0.244E-01
DAV:   7    -0.385593476599E+03   -0.53633E-04   -0.91499E-04 39808   0.633E-02    0.290E-01
DAV:   8    -0.385593348763E+03    0.12784E-03   -0.46409E-04 39832   0.564E-02    0.132E-01
DAV:   9    -0.385593369704E+03   -0.20941E-04   -0.10202E-04 29448   0.341E-02    0.143E-01
DAV:  10    -0.385593360574E+03    0.91299E-05   -0.50874E-05 28296   0.244E-02
  14 F= -.38559336E+03 E0= -.38557100E+03  d E =-.900560E-03  mag=    20.0000
       N       E                     dE             d eps       ncg     rms          rms(c)
DAV:   1    -0.385578409613E+03    0.14960E-01   -0.34498E+00 34008   0.505E+00    0.468E-01
DAV:   2    -0.385598335206E+03   -0.19926E-01   -0.17435E-01 34552   0.977E-01    0.166E+00
DAV:   3    -0.385595246178E+03    0.30890E-02   -0.38860E-02 42720   0.394E-01    0.102E+00
DAV:   4    -0.385595508161E+03   -0.26198E-03   -0.15631E-02 46800   0.205E-01    0.103E+00
DAV:   5    -0.385593890681E+03    0.16175E-02   -0.81961E-03 46472   0.148E-01    0.445E-01
DAV:   6    -0.385593894716E+03   -0.40347E-05   -0.27304E-03 45448   0.101E-01    0.427E-01
DAV:   7    -0.385593868883E+03    0.25833E-04   -0.17947E-03 45520   0.979E-02    0.433E-01
DAV:   8    -0.385593574480E+03    0.29440E-03   -0.12060E-03 45680   0.107E-01    0.331E-01
DAV:   9    -0.385593535027E+03    0.39452E-04   -0.67230E-04 44328   0.876E-02    0.314E-01
DAV:  10    -0.385593606007E+03   -0.70980E-04   -0.77565E-04 43840   0.811E-02    0.332E-01
DAV:  11    -0.385593570800E+03    0.35208E-04   -0.76461E-04 41608   0.741E-02    0.270E-01
DAV:  12    -0.385593522675E+03    0.48125E-04   -0.41404E-04 34360   0.567E-02    0.163E-01
DAV:  13    -0.385593532078E+03   -0.94026E-05   -0.14734E-04 30208   0.392E-02    0.138E-01
DAV:  14    -0.385593526122E+03    0.59555E-05   -0.72094E-05 30200   0.295E-02
  15 F= -.38559353E+03 E0= -.38557116E+03  d E =-.106611E-02  mag=    20.0000
       N       E                     dE             d eps       ncg     rms          rms(c)
DAV:   1    -0.385587976926E+03    0.55552E-02   -0.20834E+00 33728   0.359E+00    0.320E-01
DAV:   2    -0.385597205285E+03   -0.92284E-02   -0.74676E-02 36256   0.696E-01    0.117E+00
DAV:   3    -0.385594897857E+03    0.23074E-02   -0.13748E-02 43408   0.297E-01    0.559E-01
DAV:   4    -0.385595433326E+03   -0.53547E-03   -0.86631E-03 46744   0.149E-01    0.750E-01
DAV:   5    -0.385594548711E+03    0.88462E-03   -0.67462E-03 46104   0.124E-01    0.388E-01
DAV:   6    -0.385594451240E+03    0.97470E-04   -0.19606E-03 43696   0.792E-02    0.301E-01
DAV:   7    -0.385594367282E+03    0.83959E-04   -0.83513E-04 42544   0.634E-02    0.217E-01
DAV:   8    -0.385594414999E+03   -0.47718E-04   -0.57096E-04 43784   0.705E-02    0.270E-01
DAV:   9    -0.385594329747E+03    0.85253E-04   -0.41970E-04 40512   0.544E-02    0.173E-01
DAV:  10    -0.385594306743E+03    0.23004E-04   -0.98948E-05 29256   0.300E-02    0.116E-01
DAV:  11    -0.385594305831E+03    0.91147E-06   -0.17732E-05 25544   0.139E-02
  16 F= -.38559431E+03 E0= -.38557188E+03  d E =-.779709E-03  mag=    20.0000
       N       E                     dE             d eps       ncg     rms          rms(c)
DAV:   1    -0.385590642393E+03    0.36643E-02   -0.12687E+00 33744   0.280E+00    0.244E-01
DAV:   2    -0.385594947771E+03   -0.43054E-02   -0.42902E-02 33392   0.514E-01    0.477E-01
DAV:   3    -0.385595115188E+03   -0.16742E-03   -0.32494E-03 45880   0.159E-01    0.608E-01
DAV:   4    -0.385594721568E+03    0.39362E-03   -0.18036E-03 46088   0.961E-02    0.355E-01
DAV:   5    -0.385594594442E+03    0.12713E-03   -0.10507E-03 43472   0.687E-02    0.264E-01
DAV:   6    -0.385594572753E+03    0.21689E-04   -0.99497E-04 35752   0.551E-02    0.265E-01
DAV:   7    -0.385594590261E+03   -0.17508E-04   -0.82371E-04 39248   0.586E-02    0.307E-01
DAV:   8    -0.385594438328E+03    0.15193E-03   -0.95661E-04 43528   0.684E-02    0.222E-01
DAV:   9    -0.385594468389E+03   -0.30061E-04   -0.97323E-04 41368   0.625E-02    0.236E-01
DAV:  10    -0.385594444629E+03    0.23760E-04   -0.61988E-04 37040   0.560E-02    0.167E-01
DAV:  11    -0.385594454463E+03   -0.98345E-05   -0.21075E-04 30400   0.389E-02    0.128E-01
DAV:  12    -0.385594450073E+03    0.43903E-05   -0.83735E-05 28864   0.273E-02
  17 F= -.38559445E+03 E0= -.38557194E+03  d E =-.923950E-03  mag=    20.0000
       N       E                     dE             d eps       ncg     rms          rms(c)
DAV:   1    -0.385592441966E+03    0.20125E-02   -0.69553E-01 33760   0.219E+00    0.191E-01
DAV:   2    -0.385595881860E+03   -0.34399E-02   -0.29411E-02 34920   0.428E-01    0.653E-01
DAV:   3    -0.385595473955E+03    0.40790E-03   -0.24726E-03 44912   0.153E-01    0.427E-01
DAV:   4    -0.385595381329E+03    0.92626E-04   -0.64290E-04 43872   0.738E-02    0.286E-01
DAV:   5    -0.385595255844E+03    0.12548E-03   -0.54302E-04 39408   0.630E-02    0.192E-01
DAV:   6    -0.385595292203E+03   -0.36358E-04   -0.50193E-04 30984   0.440E-02    0.238E-01
DAV:   7    -0.385595410486E+03   -0.11828E-03   -0.12396E-03 38272   0.586E-02    0.375E-01
DAV:   8    -0.385595190442E+03    0.22004E-03   -0.10926E-03 40480   0.603E-02    0.157E-01
DAV:   9    -0.385595191479E+03   -0.10370E-05   -0.38279E-04 31280   0.356E-02    0.126E-01
DAV:  10    -0.385595191309E+03    0.17000E-06   -0.16830E-04 28976   0.280E-02    0.878E-02
DAV:  11    -0.385595186322E+03    0.49866E-05   -0.33496E-05 27184   0.189E-02
  18 F= -.38559519E+03 E0= -.38557259E+03  d E =-.736250E-03  mag=    20.0000
