       N       E                     dE             d eps       ncg     rms          ort
DAV:   1     0.735347864007E+04    0.73535E+04   -0.35074E+05  9568   0.175E+03
DAV:   2     0.487489119311E+03   -0.68660E+04   -0.64402E+04  9568   0.512E+02
DAV:   3    -0.315564574308E+03   -0.80305E+03   -0.77848E+03  9568   0.195E+02
DAV:   4    -0.348958414886E+03   -0.33394E+02   -0.32956E+02  9568   0.384E+01
DAV:   5    -0.351193548643E+03   -0.22351E+01   -0.22083E+01  9568   0.760E+00
SDA:   6    -0.171209441038E+03    0.17998E+03   -0.22083E+01  9568   0.144E+04 0.000E+00
CGA:   7    -0.273126074203E+03   -0.10192E+03   -0.14164E+03  9568   0.826E+03-0.995E+01
CGA:   8    -0.286246212827E+03   -0.13120E+02   -0.18560E+02  9568   0.200E+03-0.648E+02
CGA:   9    -0.291290122175E+03   -0.50439E+01   -0.50418E+01  9568   0.211E+03-0.261E+02
CGA:  10    -0.284405624526E+03    0.68845E+01   -0.44255E+01  9568   0.161E+04-0.519E+03
CGA:  11    -0.290231856225E+03   -0.58262E+01   -0.49236E+02  9568   0.775E+03-0.290E+03
CGA:  12    -0.291240252896E+03   -0.10084E+01   -0.28857E+02  9568   0.328E+03-0.792E+02
CGA:  13    -0.293617238342E+03   -0.23770E+01   -0.76462E+01  9568   0.122E+04-0.174E+03
CGA:  14    -0.274264760253E+03    0.19352E+02   -0.59993E+02  9568   0.680E+03-0.176E+03
CGA:  15    -0.278002910967E+03   -0.37382E+01   -0.22991E+02  9568   0.156E+04-0.702E+03
CGA:  16    -0.295983201717E+03   -0.17980E+02   -0.38352E+02  9568   0.459E+03 0.545E+02
CGA:  17    -0.297212787234E+03   -0.12296E+01   -0.15312E+02  9568   0.691E+03-0.411E+03
CGA:  18    -0.293864348930E+03    0.33484E+01   -0.21317E+02  9568   0.444E+03-0.996E+01
CGA:  19    -0.298750288166E+03   -0.48859E+01   -0.98007E+01  9568   0.403E+03-0.128E+03
CGA:  20    -0.300665284697E+03   -0.19150E+01   -0.62530E+01  9568   0.171E+03-0.308E+02
CGA:  21    -0.301965927572E+03   -0.13006E+01   -0.15531E+01  9568   0.128E+03-0.257E+01
CGA:  22    -0.293133748948E+03    0.88322E+01   -0.27375E+01  9568   0.121E+04-0.536E+03
CGA:  23    -0.293533381631E+03   -0.39963E+00   -0.29498E+02  9568   0.125E+04-0.232E+03
CGA:  24    -0.291783636677E+03    0.17497E+01   -0.33105E+02  9568   0.248E+03-0.101E+03
CGA:  25    -0.298105633103E+03   -0.63220E+01   -0.26529E+01  9568   0.422E+03 0.511E+03
CGA:  26    -0.299308374032E+03   -0.12027E+01   -0.72226E+01  9568   0.115E+04-0.745E+03
CGA:  27    -0.296898507681E+03    0.24099E+01   -0.38371E+02  9568   0.375E+03-0.162E+03
CGA:  28    -0.294079778188E+03    0.28187E+01   -0.66483E+01  9568   0.140E+04-0.557E+03
CGA:  29    -0.295632446498E+03   -0.15527E+01   -0.42402E+02  9568   0.865E+03-0.379E+03
CGA:  30    -0.296339948335E+03   -0.70750E+00   -0.15756E+02  9568   0.139E+03-0.808E+02
CGA:  31    -0.304540482496E+03   -0.82005E+01   -0.15261E+01  9568   0.380E+02 0.521E+02
CGA:  32    -0.304418127928E+03    0.12235E+00   -0.38127E+00  9568   0.270E+03-0.477E+02
CGA:  33    -0.301281250273E+03    0.31369E+01   -0.55850E+01  9568   0.361E+03-0.212E+03
CGA:  34    -0.294760295775E+03    0.65210E+01   -0.80507E+01  9568   0.115E+04-0.533E+03
CGA:  35    -0.299772378757E+03   -0.50121E+01   -0.30059E+02  9568   0.258E+03-0.841E+02
CGA:  36    -0.299088556569E+03    0.68382E+00   -0.46343E+01  9568   0.704E+03-0.150E+03
CGA:  37    -0.295346600637E+03    0.37420E+01   -0.17303E+02  9568   0.117E+04-0.525E+03
CGA:  38    -0.295880075813E+03   -0.53348E+00   -0.32404E+02  9568   0.238E+03-0.110E+03
CGA:  39    -0.300062617238E+03   -0.41825E+01   -0.40447E+01  9568   0.549E+03-0.218E+03
CGA:  40    -0.297804544755E+03    0.22581E+01   -0.11452E+02  9568   0.999E+03-0.512E+03
CGA:  41    -0.297722845998E+03    0.81699E-01   -0.26100E+02  9568   0.369E+03-0.833E+02
CGA:  42    -0.298634244904E+03   -0.91140E+00   -0.65377E+01  9568   0.134E+04-0.968E+01
CGA:  43    -0.279206860982E+03    0.19427E+02   -0.25634E+02  9568   0.335E+03-0.314E+03
CGA:  44    -0.284394572137E+03   -0.51877E+01   -0.26833E+01  9568   0.286E+03 0.246E+03
CGA:  45    -0.287568048547E+03   -0.31735E+01   -0.15121E+01  9568   0.291E+03 0.319E+03
CGA:  46    -0.290748158544E+03   -0.31801E+01   -0.14393E+01  9568   0.334E+03 0.368E+03
CGA:  47    -0.295621083966E+03   -0.48729E+01   -0.18644E+01  9568   0.447E+03 0.542E+03
CGA:  48    -0.305117204826E+03   -0.94961E+01   -0.38711E+01  9568   0.170E+03 0.476E+03
CGA:  49    -0.305111166866E+03    0.60380E-02   -0.24641E+01  9568   0.400E+03-0.201E+03
CGA:  50    -0.303916434281E+03    0.11947E+01   -0.59994E+01  9568   0.370E+03-0.255E+03
CGA:  51    -0.304511037890E+03   -0.59460E+00   -0.47587E+01  9568   0.410E+03-0.435E+03
CGA:  52    -0.304439525015E+03    0.71513E-01   -0.54710E+01  9568   0.345E+03-0.334E+03
CGA:  53    -0.304819217446E+03   -0.37969E+00   -0.44665E+01  9568   0.379E+03-0.394E+03
CGA:  54    -0.305417109170E+03   -0.59789E+00   -0.46631E+01  9568   0.275E+03-0.304E+03
CGA:  55    -0.306218371067E+03   -0.80126E+00   -0.32259E+01  9568   0.236E+03-0.286E+03
CGA:  56    -0.307019252439E+03   -0.80088E+00   -0.24615E+01  9568   0.110E+03-0.154E+03
CGA:  57    -0.307682264234E+03   -0.66301E+00   -0.93759E+00  9568   0.188E+02-0.460E+02
CGA:  58    -0.307816694049E+03   -0.13443E+00   -0.13922E+00  9568   0.152E+01-0.293E+00
CGA:  59    -0.307864235167E+03   -0.47541E-01   -0.47545E-01  9568   0.505E+01-0.852E-03
CGA:  60    -0.305716105417E+03    0.21481E+01   -0.31732E+00  9568   0.277E+03-0.761E+02
CGA:  61    -0.307323061420E+03   -0.16070E+01   -0.28913E+01  9568   0.108E+03-0.166E+03
CGA:  62    -0.308010280432E+03   -0.68722E+00   -0.92136E+00  9568   0.186E+02-0.370E+02
CGA:  63    -0.308171994783E+03   -0.16171E+00   -0.15866E+00  9568   0.252E+01 0.587E-01
CGA:  64    -0.308221927101E+03   -0.49932E-01   -0.50518E-01  9568   0.206E+01 0.534E-02
CGA:  65    -0.308278216985E+03   -0.56290E-01   -0.56220E-01  9568   0.252E+01-0.787E-01
CGA:  66    -0.308355052494E+03   -0.76836E-01   -0.99029E-01  9568   0.957E+01-0.155E+01
CGA:  67    -0.308422655281E+03   -0.67603E-01   -0.87776E-01  9568   0.204E+01-0.165E+01
CGA:  68    -0.308449849226E+03   -0.27194E-01   -0.26609E-01  9568   0.949E+00 0.108E-01
CGA:  69    -0.308483527794E+03   -0.33679E-01   -0.32784E-01  9568   0.786E+00 0.817E-01
CGA:  70    -0.308509078726E+03   -0.25551E-01   -0.25831E-01  9568   0.162E+01-0.564E-01
CGA:  71    -0.308555634283E+03   -0.46556E-01   -0.47520E-01  9568   0.172E+01-0.173E+00
CGA:  72    -0.308571734665E+03   -0.16100E-01   -0.12745E-01  9568   0.103E+01 0.357E+00
CGA:  73    -0.308586933965E+03   -0.15199E-01   -0.15129E-01  9568   0.942E+00 0.742E-02
CGA:  74    -0.308600446724E+03   -0.13513E-01   -0.13467E-01  9568   0.811E+00 0.674E-02
CGA:  75    -0.308608952203E+03   -0.85055E-02   -0.80501E-02  9568   0.600E+00 0.333E-01
CGA:  76    -0.308618883867E+03   -0.99317E-02   -0.10396E-01  9568   0.884E+00 0.107E-02
CGA:  77    -0.308633640088E+03   -0.14756E-01   -0.14592E-01  9568   0.949E+00 0.253E-02
CGA:  78    -0.308645140242E+03   -0.11500E-01   -0.10865E-01  9568   0.648E+00 0.345E-01
CGA:  79    -0.308651978747E+03   -0.68385E-02   -0.66388E-02  9568   0.376E+00 0.178E-01
CGA:  80    -0.308656481113E+03   -0.45024E-02   -0.44929E-02  9568   0.326E+00 0.975E-03
CGA:  81    -0.308661048344E+03   -0.45672E-02   -0.46204E-02  9568   0.304E+00-0.103E-02
CGA:  82    -0.308664821272E+03   -0.37729E-02   -0.38653E-02  9568   0.270E+00-0.524E-02
CGA:  83    -0.308669823226E+03   -0.50020E-02   -0.50517E-02  9568   0.387E+00 0.566E-02
CGA:  84    -0.308676753149E+03   -0.69299E-02   -0.69997E-02  9568   0.232E+00 0.523E-02
CGA:  85    -0.308680231269E+03   -0.34781E-02   -0.35213E-02  9568   0.154E+00-0.855E-03
CGA:  86    -0.308684095640E+03   -0.38644E-02   -0.37864E-02  9568   0.124E+00 0.109E-01
CGA:  87    -0.308686255958E+03   -0.21603E-02   -0.21900E-02  9568   0.502E-01 0.728E-03
CGA:  88    -0.308689085365E+03   -0.28294E-02   -0.26386E-02  9568   0.898E-01 0.568E-02
CGA:  89    -0.308692093596E+03   -0.30082E-02   -0.30009E-02  9568   0.784E-01 0.149E-03
CGA:  90    -0.308695675543E+03   -0.35819E-02   -0.34287E-02  9568   0.311E-01 0.652E-02
CGA:  91    -0.308696565586E+03   -0.89004E-03   -0.88873E-03  9568   0.310E-01 0.121E-03
CGA:  92    -0.308698047588E+03   -0.14820E-02   -0.14252E-02  9568   0.265E-01 0.241E-02
CGA:  93    -0.308698980666E+03   -0.93308E-03   -0.93589E-03  9568   0.356E-01-0.321E-03
CGA:  94    -0.308700699929E+03   -0.17193E-02   -0.16695E-02  9568   0.183E-01 0.205E-02
CGA:  95    -0.308701275413E+03   -0.57548E-03   -0.57485E-03  9568   0.132E-01 0.769E-04
CGA:  96    -0.308701726309E+03   -0.45090E-03   -0.44860E-03  9568   0.818E-02 0.202E-03
SDA:  97    -0.308702015420E+03   -0.28911E-03   -0.28951E-03  9568   0.909E-02-0.560E-04
CGA:  98    -0.308702157979E+03   -0.14256E-03   -0.14313E-03  9568   0.359E-02-0.642E-05
CGA:  99    -0.308702306522E+03   -0.14854E-03   -0.14899E-03  9568   0.421E-02-0.275E-04
CGA: 100    -0.308702501982E+03   -0.19546E-03   -0.19496E-03  9568   0.551E-02 0.206E-04
CGA: 101    -0.308702903690E+03   -0.40171E-03   -0.39488E-03  9568   0.447E-02 0.169E-03
CGA: 102    -0.308703117031E+03   -0.21334E-03   -0.21256E-03  9568   0.305E-02 0.392E-04
CGA: 103    -0.308703258482E+03   -0.14145E-03   -0.14183E-03  9568   0.431E-02-0.241E-04
CGA: 104    -0.308703337673E+03   -0.79191E-04   -0.79738E-04  9568   0.816E-03-0.132E-04
CGA: 105    -0.308703395201E+03   -0.57529E-04   -0.57548E-04  9568   0.116E-02-0.554E-06
CGA: 106    -0.308703443395E+03   -0.48194E-04   -0.48182E-04  9568   0.997E-03-0.123E-05
CGA: 107    -0.308703477981E+03   -0.34586E-04   -0.34591E-04  9568   0.391E-03-0.681E-05
CGA: 108    -0.308703485939E+03   -0.79580E-05   -0.79433E-05  9568   0.295E-03-0.171E-05
CGA: 109    -0.308703511919E+03   -0.25980E-04   -0.26460E-04  9568   0.369E-03-0.829E-05
CGA: 110    -0.308703527062E+03   -0.15143E-04   -0.15179E-04  9568   0.246E-03-0.633E-05
CGA: 111    -0.308703538802E+03   -0.11739E-04   -0.11777E-04  9568   0.428E-03-0.377E-05
CGA: 112    -0.308703550742E+03   -0.11940E-04   -0.11913E-04  9568   0.201E-03-0.273E-05
CGA: 113    -0.308703555652E+03   -0.49103E-05   -0.48913E-05  9568   0.108E-03-0.203E-05
   1 F= -.30870356E+03 E0= -.30868248E+03  d E =-.308704E+03  mag=    25.7808
       N       E                     dE             d eps       ncg     rms          ort
SDA:   1    -0.308747102513E+03   -0.43552E-01    0.00000E+00  9568   0.290E+00 0.000E+00
CGA:   2    -0.308750632833E+03   -0.35303E-02   -0.37445E-02  9568   0.495E-01-0.123E-01
CGA:   3    -0.308751865315E+03   -0.12325E-02   -0.12309E-02  9568   0.242E-01-0.142E-04
CGA:   4    -0.308752761200E+03   -0.89589E-03   -0.89591E-03  9568   0.225E-01-0.136E-04
CGA:   5    -0.308754278210E+03   -0.15170E-02   -0.15184E-02  9568   0.271E-01-0.388E-04
CGA:   6    -0.308754928326E+03   -0.65012E-03   -0.65153E-03  9568   0.136E-01 0.966E-05
CGA:   7    -0.308755206977E+03   -0.27865E-03   -0.27808E-03  9568   0.355E-02 0.447E-05
CGA:   8    -0.308755498067E+03   -0.29109E-03   -0.29063E-03  9568   0.391E-02 0.119E-04
CGA:   9    -0.308755597415E+03   -0.99348E-04   -0.99069E-04  9568   0.342E-02-0.794E-05
CGA:  10    -0.308755725001E+03   -0.12759E-03   -0.12759E-03  9568   0.184E-02-0.237E-05
CGA:  11    -0.308755774182E+03   -0.49181E-04   -0.49147E-04  9568   0.827E-03-0.302E-05
CGA:  12    -0.308755803335E+03   -0.29153E-04   -0.29154E-04  9568   0.313E-03-0.190E-06
CGA:  13    -0.308755812126E+03   -0.87912E-05   -0.87799E-05  9568   0.420E-03-0.107E-05
CGA:  14    -0.308755838668E+03   -0.26541E-04   -0.26449E-04  9568   0.154E-03 0.354E-05
CGA:  15    -0.308755844257E+03   -0.55888E-05   -0.55887E-05  9568   0.163E-03 0.728E-07
   2 F= -.30875584E+03 E0= -.30873481E+03  d E =-.522886E-01  mag=    25.7831
       N       E                     dE             d eps       ncg     rms          ort
SDA:   1    -0.305918634505E+03    0.28372E+01    0.00000E+00  9568   0.135E+02 0.000E+00
CGA:   2    -0.306751730599E+03   -0.83310E+00   -0.78251E+00  9568   0.319E+02 0.215E+01
CGA:   3    -0.308410765318E+03   -0.16590E+01   -0.16657E+01  9568   0.322E+02-0.724E+00
CGA:   4    -0.308978951945E+03   -0.56819E+00   -0.66856E+00  9568   0.956E+01-0.225E+01
CGA:   5    -0.309257574169E+03   -0.27862E+00   -0.25405E+00  9568   0.395E+01-0.425E+00
CGA:   6    -0.309488331352E+03   -0.23076E+00   -0.24010E+00  9568   0.827E+01-0.328E+00
CGA:   7    -0.309675103916E+03   -0.18677E+00   -0.19674E+00  9568   0.535E+01 0.716E-02
CGA:   8    -0.309770273532E+03   -0.95170E-01   -0.90217E-01  9568   0.195E+01 0.166E+00
CGA:   9    -0.309815650281E+03   -0.45377E-01   -0.45816E-01  9568   0.679E+00-0.540E-02
CGA:  10    -0.309841285826E+03   -0.25636E-01   -0.25595E-01  9568   0.101E+01 0.156E-01
CGA:  11    -0.309863566037E+03   -0.22280E-01   -0.22486E-01  9568   0.640E+00-0.334E-02
CGA:  12    -0.309889979314E+03   -0.26413E-01   -0.26490E-01  9568   0.513E+00-0.846E-02
CGA:  13    -0.309900325135E+03   -0.10346E-01   -0.10553E-01  9568   0.164E+00-0.271E-02
CGA:  14    -0.309903638263E+03   -0.33131E-02   -0.32893E-02  9568   0.149E+00 0.415E-03
CGA:  15    -0.309910588682E+03   -0.69504E-02   -0.68859E-02  9568   0.164E+00 0.404E-02
CGA:  16    -0.309916511400E+03   -0.59227E-02   -0.59227E-02  9568   0.175E+00 0.656E-02
CGA:  17    -0.309920088283E+03   -0.35769E-02   -0.35262E-02  9568   0.817E-01 0.987E-03
CGA:  18    -0.309922638506E+03   -0.25502E-02   -0.25503E-02  9568   0.471E-01 0.291E-04
CGA:  19    -0.309924307170E+03   -0.16687E-02   -0.16659E-02  9568   0.417E-01 0.127E-02
CGA:  20    -0.309925630907E+03   -0.13237E-02   -0.13221E-02  9568   0.628E-01-0.173E-03
CGA:  21    -0.309927952284E+03   -0.23214E-02   -0.23202E-02  9568   0.429E-01 0.232E-03
CGA:  22    -0.309929337909E+03   -0.13856E-02   -0.13873E-02  9568   0.289E-01 0.404E-03
CGA:  23    -0.309929926665E+03   -0.58876E-03   -0.58920E-03  9568   0.191E-01 0.453E-06
CGA:  24    -0.309930642199E+03   -0.71553E-03   -0.71455E-03  9568   0.214E-01 0.160E-03
CGA:  25    -0.309931586229E+03   -0.94403E-03   -0.94302E-03  9568   0.183E-01 0.811E-04
CGA:  26    -0.309931997338E+03   -0.41111E-03   -0.41073E-03  9568   0.166E-01 0.343E-05
CGA:  27    -0.309932614501E+03   -0.61716E-03   -0.61644E-03  9568   0.105E-01 0.131E-03
CGA:  28    -0.309932915065E+03   -0.30056E-03   -0.30062E-03  9568   0.620E-02 0.757E-05
CGA:  29    -0.309933064778E+03   -0.14971E-03   -0.14965E-03  9568   0.594E-02-0.291E-05
CGA:  30    -0.309933299009E+03   -0.23423E-03   -0.23396E-03  9568   0.627E-02 0.310E-04
CGA:  31    -0.309933549091E+03   -0.25008E-03   -0.24996E-03  9568   0.400E-02 0.157E-04
SDA:  32    -0.309933619436E+03   -0.70345E-04   -0.70325E-04  9568   0.212E-02 0.287E-05
CGA:  33    -0.309933654661E+03   -0.35224E-04   -0.35359E-04  9568   0.116E-02 0.312E-05
CGA:  34    -0.309933719588E+03   -0.64928E-04   -0.64747E-04  9568   0.181E-02 0.671E-05
CGA:  35    -0.309933787208E+03   -0.67620E-04   -0.67596E-04  9568   0.140E-02 0.612E-05
CGA:  36    -0.309933859381E+03   -0.72173E-04   -0.72121E-04  9568   0.127E-02 0.265E-05
CGA:  37    -0.309933919231E+03   -0.59850E-04   -0.59923E-04  9568   0.459E-03-0.544E-05
CGA:  38    -0.309933949165E+03   -0.29934E-04   -0.30277E-04  9568   0.119E-02-0.113E-04
CGA:  39    -0.309933971190E+03   -0.22025E-04   -0.21950E-04  9568   0.276E-03-0.593E-05
CGA:  40    -0.309933995081E+03   -0.23891E-04   -0.24262E-04  9568   0.285E-03-0.736E-05
CGA:  41    -0.309934006353E+03   -0.11272E-04   -0.11279E-04  9568   0.566E-03-0.322E-05
CGA:  42    -0.309934022686E+03   -0.16333E-04   -0.16330E-04  9568   0.195E-03-0.127E-05
CGA:  43    -0.309934028656E+03   -0.59699E-05   -0.59633E-05  9568   0.175E-03-0.101E-05
   3 F= -.30993403E+03 E0= -.30991255E+03  d E =-.117818E+01  mag=    25.7912
       N       E                     dE             d eps       ncg     rms          ort
SDA:   1    -0.291463806487E+03    0.18470E+02    0.00000E+00  9568   0.991E+03 0.000E+00
CGA:   2    -0.295652261302E+03   -0.41885E+01   -0.19378E+02  9568   0.239E+03-0.951E+02
CGA:   3    -0.299141083820E+03   -0.34888E+01   -0.46096E+01  9568   0.179E+03-0.786E+02
CGA:   4    -0.300081368231E+03   -0.94028E+00   -0.14120E+01  9568   0.221E+03-0.527E+02
CGA:   5    -0.303368412180E+03   -0.32870E+01   -0.20514E+01  9568   0.459E+02 0.436E+02
CGA:   6    -0.304550971064E+03   -0.11826E+01   -0.13578E+01  9568   0.124E+03 0.177E+01
CGA:   7    -0.305280863922E+03   -0.72989E+00   -0.71366E+00  9568   0.914E+02-0.216E+02
CGA:   8    -0.305172798038E+03    0.10807E+00   -0.92783E+00  9568   0.312E+03-0.568E+02
CGA:   9    -0.307244909749E+03   -0.20721E+01   -0.49225E+01  9568   0.560E+02-0.490E+02
CGA:  10    -0.307798115414E+03   -0.55321E+00   -0.54732E+00  9568   0.295E+02-0.173E+01
CGA:  11    -0.308121658064E+03   -0.32354E+00   -0.17555E+00  9568   0.171E+02 0.217E+02
CGA:  12    -0.308329876586E+03   -0.20822E+00   -0.23435E+00  9568   0.118E+02-0.113E+01
CGA:  13    -0.308762086115E+03   -0.43221E+00   -0.45285E+00  9568   0.463E+02-0.124E+01
CGA:  14    -0.310253360192E+03   -0.14913E+01   -0.15111E+01  9568   0.482E+02-0.179E+01
CGA:  15    -0.310662046952E+03   -0.40869E+00   -0.44282E+00  9568   0.438E+01-0.375E+01
CGA:  16    -0.310740185759E+03   -0.78139E-01   -0.75635E-01  9568   0.174E+01-0.120E-01
CGA:  17    -0.310787102287E+03   -0.46917E-01   -0.46922E-01  9568   0.100E+01 0.710E-02
CGA:  18    -0.310806198146E+03   -0.19096E-01   -0.19244E-01  9568   0.107E+01 0.998E-03
CGA:  19    -0.310894635396E+03   -0.88437E-01   -0.88678E-01  9568   0.999E+00-0.457E-02
CGA:  20    -0.310916363739E+03   -0.21728E-01   -0.22009E-01  9568   0.398E+00 0.583E-02
CGA:  21    -0.310932841292E+03   -0.16478E-01   -0.16336E-01  9568   0.178E+00 0.968E-02
CGA:  22    -0.310941198487E+03   -0.83572E-02   -0.83546E-02  9568   0.430E+00 0.208E-03
CGA:  23    -0.310953108840E+03   -0.11910E-01   -0.11968E-01  9568   0.260E+00 0.783E-02
CGA:  24    -0.310959765753E+03   -0.66569E-02   -0.66301E-02  9568   0.178E+00-0.122E-02
CGA:  25    -0.310969113291E+03   -0.93475E-02   -0.93233E-02  9568   0.767E-01 0.977E-03
CGA:  26    -0.310973140578E+03   -0.40273E-02   -0.40461E-02  9568   0.105E+00-0.805E-03
CGA:  27    -0.310977595880E+03   -0.44553E-02   -0.44256E-02  9568   0.580E-01 0.219E-02
CGA:  28    -0.310979663311E+03   -0.20674E-02   -0.20662E-02  9568   0.435E-01 0.371E-03
CGA:  29    -0.310982472037E+03   -0.28087E-02   -0.27826E-02  9568   0.277E-01 0.838E-03
CGA:  30    -0.310983199862E+03   -0.72782E-03   -0.72600E-03  9568   0.299E-01-0.214E-04
CGA:  31    -0.310984248244E+03   -0.10484E-02   -0.10481E-02  9568   0.223E-01 0.181E-03
CGA:  32    -0.310984869463E+03   -0.62122E-03   -0.62226E-03  9568   0.147E-01 0.638E-04
CGA:  33    -0.310985827596E+03   -0.95813E-03   -0.95987E-03  9568   0.546E-02-0.549E-04
CGA:  34    -0.310986050539E+03   -0.22294E-03   -0.22266E-03  9568   0.797E-02 0.364E-04
CGA:  35    -0.310986415835E+03   -0.36530E-03   -0.36593E-03  9568   0.997E-02-0.471E-04
CGA:  36    -0.310986610441E+03   -0.19461E-03   -0.19584E-03  9568   0.426E-02-0.165E-04
CGA:  37    -0.310986803033E+03   -0.19259E-03   -0.19250E-03  9568   0.451E-02 0.744E-05
CGA:  38    -0.310987017703E+03   -0.21467E-03   -0.21494E-03  9568   0.250E-02-0.168E-04
CGA:  39    -0.310987121859E+03   -0.10416E-03   -0.10405E-03  9568   0.314E-02 0.149E-04
CGA:  40    -0.310987212132E+03   -0.90273E-04   -0.90240E-04  9568   0.239E-02-0.204E-05
CGA:  41    -0.310987274394E+03   -0.62262E-04   -0.62336E-04  9568   0.187E-02 0.271E-05
SDA:  42    -0.310987369943E+03   -0.95549E-04   -0.95584E-04  9568   0.628E-03-0.203E-05
CGA:  43    -0.310987388872E+03   -0.18929E-04   -0.18901E-04  9568   0.622E-03-0.379E-05
CGA:  44    -0.310987427530E+03   -0.38657E-04   -0.38819E-04  9568   0.414E-03-0.647E-05
CGA:  45    -0.310987457947E+03   -0.30417E-04   -0.30678E-04  9568   0.416E-03-0.724E-05
CGA:  46    -0.310987468753E+03   -0.10806E-04   -0.10809E-04  9568   0.552E-03-0.267E-06
CGA:  47    -0.310987494630E+03   -0.25877E-04   -0.25902E-04  9568   0.278E-03-0.291E-05
CGA:  48    -0.310987505437E+03   -0.10806E-04   -0.10806E-04  9568   0.243E-03 0.210E-06
CGA:  49    -0.310987518651E+03   -0.13215E-04   -0.13202E-04  9568   0.336E-03 0.703E-06
CGA:  50    -0.310987528785E+03   -0.10134E-04   -0.10135E-04  9568   0.177E-03-0.422E-07
CGA:  51    -0.310987533713E+03   -0.49275E-05   -0.49026E-05  9568   0.215E-03-0.221E-05
   4 F= -.31098753E+03 E0= -.31096543E+03  d E =-.105351E+01  mag=    25.8041
       N       E                     dE             d eps       ncg     rms          ort
SDA:   1    -0.279471352476E+03    0.31516E+02    0.00000E+00  9568   0.180E+04 0.000E+00
CGA:   2    -0.290105668336E+03   -0.10634E+02   -0.36652E+02  9568   0.281E+03-0.111E+03
CGA:   3    -0.295068071585E+03   -0.49624E+01   -0.64229E+01  9568   0.259E+03-0.437E+02
CGA:   4    -0.295669733627E+03   -0.60166E+00   -0.25400E+01  9568   0.262E+03-0.203E+03
CGA:   5    -0.300761497161E+03   -0.50918E+01   -0.31247E+01  9568   0.451E+02-0.292E+02
CGA:   6    -0.301543601760E+03   -0.78210E+00   -0.87448E+00  9568   0.128E+03-0.906E+00
CGA:   7    -0.303309026687E+03   -0.17654E+01   -0.12665E+01  9568   0.651E+02 0.329E+02
CGA:   8    -0.305598151992E+03   -0.22891E+01   -0.23975E+01  9568   0.209E+03 0.998E+01
CGA:   9    -0.306700793980E+03   -0.11026E+01   -0.25071E+01  9568   0.277E+03-0.133E+03
CGA:  10    -0.308989823812E+03   -0.22890E+01   -0.37494E+01  9568   0.510E+02-0.754E+02
CGA:  11    -0.309516607167E+03   -0.52678E+00   -0.51273E+00  9568   0.166E+02-0.162E+00
CGA:  12    -0.309751999417E+03   -0.23539E+00   -0.18260E+00  9568   0.475E+01 0.339E+01
CGA:  13    -0.309914115209E+03   -0.16212E+00   -0.16258E+00  9568   0.151E+02 0.324E+00
CGA:  14    -0.310893253037E+03   -0.97914E+00   -0.96379E+00  9568   0.203E+02 0.463E+00
CGA:  15    -0.311143487317E+03   -0.25023E+00   -0.23199E+00  9568   0.697E+01 0.119E+01
CGA:  16    -0.311268148057E+03   -0.12466E+00   -0.10482E+00  9568   0.389E+01 0.836E+00
CGA:  17    -0.311312786735E+03   -0.44639E-01   -0.45224E-01  9568   0.152E+01-0.495E-01
CGA:  18    -0.311344166095E+03   -0.31379E-01   -0.31704E-01  9568   0.234E+01 0.820E-02
CGA:  19    -0.311380221315E+03   -0.36055E-01   -0.36170E-01  9568   0.149E+01-0.489E-02
CGA:  20    -0.311414889614E+03   -0.34668E-01   -0.34727E-01  9568   0.273E+01 0.601E-02
CGA:  21    -0.311465295540E+03   -0.50406E-01   -0.50806E-01  9568   0.130E+01 0.276E-02
CGA:  22    -0.311479896288E+03   -0.14601E-01   -0.15037E-01  9568   0.551E+00-0.225E-01
CGA:  23    -0.311489170239E+03   -0.92740E-02   -0.90483E-02  9568   0.485E+00 0.781E-03
CGA:  24    -0.311501021878E+03   -0.11852E-01   -0.11855E-01  9568   0.674E+00 0.166E-02
CGA:  25    -0.311510526345E+03   -0.95045E-02   -0.99058E-02  9568   0.294E+00-0.777E-02
CGA:  26    -0.311518294122E+03   -0.77678E-02   -0.77628E-02  9568   0.630E+00 0.136E-02
CGA:  27    -0.311535683505E+03   -0.17389E-01   -0.17317E-01  9568   0.295E+00 0.162E-01
CGA:  28    -0.311539932683E+03   -0.42492E-02   -0.42221E-02  9568   0.224E+00 0.707E-03
CGA:  29    -0.311548187893E+03   -0.82552E-02   -0.83701E-02  9568   0.266E+00-0.766E-02
CGA:  30    -0.311551468042E+03   -0.32801E-02   -0.33632E-02  9568   0.114E+00-0.270E-02
CGA:  31    -0.311553791616E+03   -0.23236E-02   -0.23269E-02  9568   0.922E-01 0.314E-03
CGA:  32    -0.311556209359E+03   -0.24177E-02   -0.24171E-02  9568   0.133E+00 0.207E-03
CGA:  33    -0.311559062993E+03   -0.28536E-02   -0.28540E-02  9568   0.861E-01 0.895E-04
CGA:  34    -0.311560688789E+03   -0.16258E-02   -0.16320E-02  9568   0.594E-01 0.307E-03
CGA:  35    -0.311561780977E+03   -0.10922E-02   -0.10940E-02  9568   0.452E-01 0.700E-04
CGA:  36    -0.311563195399E+03   -0.14144E-02   -0.14142E-02  9568   0.449E-01 0.131E-04
CGA:  37    -0.311563846433E+03   -0.65103E-03   -0.65164E-03  9568   0.259E-01-0.258E-05
CGA:  38    -0.311565131528E+03   -0.12851E-02   -0.12796E-02  9568   0.481E-01 0.216E-03
CGA:  39    -0.311565752597E+03   -0.62107E-03   -0.62135E-03  9568   0.140E-01-0.254E-04
SDA:  40    -0.311566288291E+03   -0.53569E-03   -0.53635E-03  9568   0.271E-01-0.440E-04
CGA:  41    -0.311566625159E+03   -0.33687E-03   -0.33699E-03  9568   0.597E-02 0.327E-05
CGA:  42    -0.311566874645E+03   -0.24949E-03   -0.25044E-03  9568   0.112E-01-0.501E-04
CGA:  43    -0.311567314612E+03   -0.43997E-03   -0.43752E-03  9568   0.587E-02 0.150E-03
CGA:  44    -0.311567696647E+03   -0.38204E-03   -0.38114E-03  9568   0.557E-02 0.247E-04
CGA:  45    -0.311567982035E+03   -0.28539E-03   -0.28591E-03  9568   0.581E-02-0.213E-04
CGA:  46    -0.311568174560E+03   -0.19252E-03   -0.19239E-03  9568   0.736E-02 0.180E-04
CGA:  47    -0.311568330486E+03   -0.15593E-03   -0.15579E-03  9568   0.193E-02-0.166E-04
CGA:  48    -0.311568540909E+03   -0.21042E-03   -0.21264E-03  9568   0.485E-02-0.287E-04
CGA:  49    -0.311568644288E+03   -0.10338E-03   -0.10347E-03  9568   0.115E-02-0.571E-05
CGA:  50    -0.311568747987E+03   -0.10370E-03   -0.10301E-03  9568   0.345E-02 0.122E-04
CGA:  51    -0.311568813343E+03   -0.65356E-04   -0.65298E-04  9568   0.158E-02 0.361E-05
CGA:  52    -0.311568908464E+03   -0.95121E-04   -0.94715E-04  9568   0.642E-03 0.156E-04
CGA:  53    -0.311568931761E+03   -0.23297E-04   -0.23297E-04  9568   0.968E-03 0.892E-06
CGA:  54    -0.311568985131E+03   -0.53370E-04   -0.53341E-04  9568   0.932E-03 0.820E-06
CGA:  55    -0.311569001510E+03   -0.16379E-04   -0.16311E-04  9568   0.471E-03-0.281E-05
CGA:  56    -0.311569031768E+03   -0.30258E-04   -0.30334E-04  9568   0.480E-03-0.284E-05
CGA:  57    -0.311569050424E+03   -0.18656E-04   -0.18663E-04  9568   0.293E-03-0.335E-05
CGA:  58    -0.311569061949E+03   -0.11525E-04   -0.11525E-04  9568   0.398E-03-0.580E-06
CGA:  59    -0.311569070499E+03   -0.85501E-05   -0.85354E-05  9568   0.149E-03-0.975E-06
   5 F= -.31156907E+03 E0= -.31154662E+03  d E =-.581537E+00  mag=    25.8047
       N       E                     dE             d eps       ncg     rms          ort
SDA:   1    -0.255519112643E+03    0.56050E+02    0.00000E+00  9568   0.497E+03 0.000E+00
CGA:   2    -0.275327468203E+03   -0.19808E+02   -0.25789E+02  9568   0.467E+03-0.175E+03
CGA:   3    -0.282906509809E+03   -0.75790E+01   -0.82369E+01  9568   0.179E+03 0.225E+02
CGA:   4    -0.292575763395E+03   -0.96693E+01   -0.86064E+01  9568   0.386E+03 0.123E+03
CGA:   5    -0.301683475051E+03   -0.91077E+01   -0.82551E+01  9568   0.419E+02 0.336E+02
CGA:   6    -0.302654973595E+03   -0.97150E+00   -0.93401E+00  9568   0.651E+02-0.149E+01
CGA:   7    -0.303439271447E+03   -0.78430E+00   -0.10450E+01  9568   0.123E+03-0.137E+02
CGA:   8    -0.304309941590E+03   -0.87067E+00   -0.68533E+00  9568   0.136E+03-0.148E+02
CGA:   9    -0.303237480540E+03    0.10725E+01   -0.11671E+01  9568   0.489E+03-0.178E+03
CGA:  10    -0.307337856808E+03   -0.41004E+01   -0.89851E+01  9568   0.288E+02-0.120E+02
CGA:  11    -0.307894558229E+03   -0.55670E+00   -0.11525E+01  9568   0.872E+02-0.479E+02
CGA:  12    -0.308878038114E+03   -0.98348E+00   -0.10679E+01  9568   0.128E+02-0.795E+01
CGA:  13    -0.309145540287E+03   -0.26750E+00   -0.27203E+00  9568   0.155E+02 0.853E-01
CGA:  14    -0.310039031495E+03   -0.89349E+00   -0.94858E+00  9568   0.420E+02-0.161E+01
CGA:  15    -0.310987312715E+03   -0.94828E+00   -0.96149E+00  9568   0.258E+02 0.408E+00
CGA:  16    -0.311522552508E+03   -0.53524E+00   -0.50734E+00  9568   0.819E+01 0.951E+00
CGA:  17    -0.311667499369E+03   -0.14495E+00   -0.13836E+00  9568   0.149E+01 0.283E+00
CGA:  18    -0.311697204877E+03   -0.29706E-01   -0.29789E-01  9568   0.127E+01-0.757E-03
CGA:  19    -0.311743646502E+03   -0.46442E-01   -0.46534E-01  9568   0.139E+01-0.959E-02
CGA:  20    -0.311780142648E+03   -0.36496E-01   -0.36937E-01  9568   0.141E+01 0.464E-01
CGA:  21    -0.311846328339E+03   -0.66186E-01   -0.64798E-01  9568   0.129E+01 0.793E-01
CGA:  22    -0.311866917505E+03   -0.20589E-01   -0.19632E-01  9568   0.489E+00 0.368E-01
CGA:  23    -0.311886260966E+03   -0.19343E-01   -0.19067E-01  9568   0.462E+00 0.246E-01
CGA:  24    -0.311899464132E+03   -0.13203E-01   -0.13262E-01  9568   0.368E+00 0.747E-02
CGA:  25    -0.311915399709E+03   -0.15936E-01   -0.16046E-01  9568   0.395E+00-0.694E-02
CGA:  26    -0.311921983014E+03   -0.65833E-02   -0.68393E-02  9568   0.175E+00-0.447E-02
CGA:  27    -0.311928550418E+03   -0.65674E-02   -0.65723E-02  9568   0.143E+00-0.460E-03
CGA:  28    -0.311934132799E+03   -0.55824E-02   -0.55902E-02  9568   0.947E-01-0.652E-03
CGA:  29    -0.311938120601E+03   -0.39878E-02   -0.39753E-02  9568   0.127E+00 0.854E-03
CGA:  30    -0.311941546584E+03   -0.34260E-02   -0.34273E-02  9568   0.587E-01 0.923E-04
CGA:  31    -0.311942708069E+03   -0.11615E-02   -0.11696E-02  9568   0.413E-01-0.385E-04
CGA:  32    -0.311944737269E+03   -0.20292E-02   -0.20253E-02  9568   0.239E-01 0.181E-03
CGA:  33    -0.311946383205E+03   -0.16459E-02   -0.16291E-02  9568   0.154E-01 0.476E-03
CGA:  34    -0.311946758767E+03   -0.37556E-03   -0.37720E-03  9568   0.938E-02 0.330E-04
CGA:  35    -0.311947491277E+03   -0.73251E-03   -0.72926E-03  9568   0.899E-02 0.723E-04
CGA:  36    -0.311947737709E+03   -0.24643E-03   -0.24642E-03  9568   0.107E-01 0.148E-05
CGA:  37    -0.311948053795E+03   -0.31609E-03   -0.31684E-03  9568   0.571E-02 0.542E-04
CGA:  38    -0.311948297031E+03   -0.24324E-03   -0.24326E-03  9568   0.406E-02-0.304E-05
CGA:  39    -0.311948499818E+03   -0.20279E-03   -0.20239E-03  9568   0.248E-02 0.204E-04
CGA:  40    -0.311948602575E+03   -0.10276E-03   -0.10268E-03  9568   0.348E-02 0.946E-05
CGA:  41    -0.311948781371E+03   -0.17880E-03   -0.17792E-03  9568   0.234E-02 0.466E-04
SDA:  42    -0.311948850439E+03   -0.69068E-04   -0.69007E-04  9568   0.349E-02-0.310E-05
CGA:  43    -0.311948891027E+03   -0.40588E-04   -0.40735E-04  9568   0.838E-03-0.476E-05
CGA:  44    -0.311948929943E+03   -0.38915E-04   -0.38899E-04  9568   0.822E-03-0.272E-06
CGA:  45    -0.311948961487E+03   -0.31545E-04   -0.31556E-04  9568   0.946E-03-0.400E-05
CGA:  46    -0.311949025527E+03   -0.64040E-04   -0.64068E-04  9568   0.791E-03-0.136E-05
CGA:  47    -0.311949068315E+03   -0.42788E-04   -0.42817E-04  9568   0.783E-03-0.269E-05
CGA:  48    -0.311949100354E+03   -0.32039E-04   -0.32053E-04  9568   0.721E-03-0.457E-05
CGA:  49    -0.311949116051E+03   -0.15697E-04   -0.15712E-04  9568   0.633E-03-0.337E-06
CGA:  50    -0.311949147850E+03   -0.31798E-04   -0.31814E-04  9568   0.339E-03-0.174E-05
CGA:  51    -0.311949170742E+03   -0.22892E-04   -0.22893E-04  9568   0.777E-03-0.453E-06
CGA:  52    -0.311949197160E+03   -0.26419E-04   -0.26399E-04  9568   0.320E-03-0.332E-05
CGA:  53    -0.311949207909E+03   -0.10749E-04   -0.10761E-04  9568   0.468E-03 0.136E-05
CGA:  54    -0.311949218796E+03   -0.10887E-04   -0.10889E-04  9568   0.110E-03 0.457E-06
CGA:  55    -0.311949227472E+03   -0.86757E-05   -0.86482E-05  9568   0.183E-03 0.380E-06
   6 F= -.31194923E+03 E0= -.31192690E+03  d E =-.380157E+00  mag=    25.8179
       N       E                     dE             d eps       ncg     rms          ort
SDA:   1    -0.295073898533E+03    0.16875E+02    0.00000E+00  9568   0.115E+03 0.000E+00
CGA:   2    -0.297439233070E+03   -0.23653E+01   -0.22133E+01  9568   0.957E+02-0.809E+01
CGA:   3    -0.299937298273E+03   -0.24981E+01   -0.24046E+01  9568   0.157E+03-0.288E+01
CGA:   4    -0.303040349694E+03   -0.31031E+01   -0.31231E+01  9568   0.216E+03-0.899E+01
CGA:   5    -0.306958550292E+03   -0.39182E+01   -0.39569E+01  9568   0.425E+02-0.106E+02
CGA:   6    -0.308407112478E+03   -0.14486E+01   -0.18389E+01  9568   0.593E+02-0.302E+02
CGA:   7    -0.309414641139E+03   -0.10075E+01   -0.10345E+01  9568   0.177E+02-0.313E+01
CGA:   8    -0.310056847768E+03   -0.64221E+00   -0.64489E+00  9568   0.284E+02-0.639E+00
CGA:   9    -0.310618342943E+03   -0.56150E+00   -0.57740E+00  9568   0.209E+02-0.511E+00
CGA:  10    -0.311273346095E+03   -0.65500E+00   -0.64800E+00  9568   0.705E+01-0.703E+00
CGA:  11    -0.311418880445E+03   -0.14553E+00   -0.14755E+00  9568   0.246E+01-0.241E-01
CGA:  12    -0.311750288677E+03   -0.33141E+00   -0.32796E+00  9568   0.657E+01 0.512E-01
CGA:  13    -0.311889452193E+03   -0.13916E+00   -0.13760E+00  9568   0.198E+01 0.201E-01
CGA:  14    -0.311924894836E+03   -0.35443E-01   -0.35975E-01  9568   0.131E+01-0.179E-01
CGA:  15    -0.311963554890E+03   -0.38660E-01   -0.38171E-01  9568   0.749E+00-0.134E-01
CGA:  16    -0.312003679297E+03   -0.40124E-01   -0.39627E-01  9568   0.113E+01 0.239E-01
CGA:  17    -0.312032704619E+03   -0.29025E-01   -0.29275E-01  9568   0.513E+00 0.494E-03
CGA:  18    -0.312040344297E+03   -0.76397E-02   -0.77957E-02  9568   0.147E+00-0.687E-02
CGA:  19    -0.312048755226E+03   -0.84109E-02   -0.85038E-02  9568   0.285E+00-0.362E-02
CGA:  20    -0.312058785113E+03   -0.10030E-01   -0.10041E-01  9568   0.195E+00 0.428E-02
CGA:  21    -0.312062974828E+03   -0.41897E-02   -0.42220E-02  9568   0.148E+00-0.495E-03
CGA:  22    -0.312068834802E+03   -0.58600E-02   -0.58444E-02  9568   0.100E+00 0.304E-02
CGA:  23    -0.312072426547E+03   -0.35917E-02   -0.35940E-02  9568   0.102E+00 0.689E-03
CGA:  24    -0.312075725188E+03   -0.32986E-02   -0.33023E-02  9568   0.110E+00 0.288E-03
CGA:  25    -0.312078582781E+03   -0.28576E-02   -0.28550E-02  9568   0.506E-01-0.308E-04
CGA:  26    -0.312080841175E+03   -0.22584E-02   -0.22483E-02  9568   0.568E-01 0.822E-03
CGA:  27    -0.312082400768E+03   -0.15596E-02   -0.15554E-02  9568   0.384E-01-0.679E-04
CGA:  28    -0.312083348120E+03   -0.94735E-03   -0.94879E-03  9568   0.258E-01 0.293E-04
CGA:  29    -0.312084490238E+03   -0.11421E-02   -0.11424E-02  9568   0.183E-01-0.917E-05
CGA:  30    -0.312085042435E+03   -0.55220E-03   -0.55255E-03  9568   0.190E-01 0.313E-04
CGA:  31    -0.312085603542E+03   -0.56111E-03   -0.56097E-03  9568   0.135E-01-0.578E-05
CGA:  32    -0.312085963697E+03   -0.36016E-03   -0.36123E-03  9568   0.509E-02 0.337E-04
CGA:  33    -0.312086210733E+03   -0.24704E-03   -0.24726E-03  9568   0.997E-02-0.148E-04
CGA:  34    -0.312086524749E+03   -0.31402E-03   -0.31408E-03  9568   0.748E-02 0.956E-05
CGA:  35    -0.312086688684E+03   -0.16393E-03   -0.16419E-03  9568   0.200E-02-0.162E-05
CGA:  36    -0.312086795585E+03   -0.10690E-03   -0.10668E-03  9568   0.384E-02 0.103E-04
SDA:  37    -0.312086910918E+03   -0.11533E-03   -0.11540E-03  9568   0.318E-02 0.947E-05
CGA:  38    -0.312086948728E+03   -0.37809E-04   -0.37962E-04  9568   0.796E-03-0.386E-05
CGA:  39    -0.312086985020E+03   -0.36293E-04   -0.36283E-04  9568   0.102E-02-0.680E-06
CGA:  40    -0.312087031501E+03   -0.46481E-04   -0.46501E-04  9568   0.150E-02-0.266E-05
CGA:  41    -0.312087169839E+03   -0.13834E-03   -0.13804E-03  9568   0.126E-02 0.475E-05
CGA:  42    -0.312087205583E+03   -0.35744E-04   -0.35741E-04  9568   0.460E-03-0.110E-05
CGA:  43    -0.312087236710E+03   -0.31127E-04   -0.31336E-04  9568   0.127E-02-0.732E-05
CGA:  44    -0.312087261029E+03   -0.24319E-04   -0.24257E-04  9568   0.535E-03-0.361E-05
CGA:  45    -0.312087297486E+03   -0.36457E-04   -0.36614E-04  9568   0.296E-03-0.580E-05
CGA:  46    -0.312087311619E+03   -0.14133E-04   -0.14147E-04  9568   0.622E-03-0.177E-05
CGA:  47    -0.312087340029E+03   -0.28410E-04   -0.28385E-04  9568   0.642E-03 0.364E-05
CGA:  48    -0.312087350294E+03   -0.10264E-04   -0.10289E-04  9568   0.181E-03 0.495E-07
CGA:  49    -0.312087359194E+03   -0.89006E-05   -0.88873E-05  9568   0.159E-03 0.851E-06
   7 F= -.31208736E+03 E0= -.31206500E+03  d E =-.138132E+00  mag=    25.8352
       N       E                     dE             d eps       ncg     rms          ort
SDA:   1    -0.286442416383E+03    0.25645E+02    0.00000E+00  9568   0.854E+02 0.000E+00
CGA:   2    -0.291390153748E+03   -0.49477E+01   -0.51533E+01  9568   0.208E+03 0.164E-01
CGA:   3    -0.298655085969E+03   -0.72649E+01   -0.71018E+01  9568   0.339E+03-0.122E+02
CGA:   4    -0.305170714208E+03   -0.65156E+01   -0.58719E+01  9568   0.740E+02-0.506E+02
CGA:   5    -0.306770651430E+03   -0.15999E+01   -0.16002E+01  9568   0.930E+02-0.145E+01
CGA:   6    -0.308002955468E+03   -0.12323E+01   -0.12540E+01  9568   0.595E+02-0.110E+02
CGA:   7    -0.309308104693E+03   -0.13051E+01   -0.13600E+01  9568   0.714E+02-0.220E+00
CGA:   8    -0.310455973063E+03   -0.11479E+01   -0.11417E+01  9568   0.298E+02-0.221E+01
CGA:   9    -0.311105839666E+03   -0.64987E+00   -0.60032E+00  9568   0.943E+01 0.423E+00
CGA:  10    -0.311286271181E+03   -0.18043E+00   -0.18869E+00  9568   0.116E+02-0.204E+00
CGA:  11    -0.311520125433E+03   -0.23385E+00   -0.23865E+00  9568   0.101E+02-0.104E+00
CGA:  12    -0.311733813015E+03   -0.21369E+00   -0.21805E+00  9568   0.108E+02-0.490E-01
CGA:  13    -0.311872809857E+03   -0.13900E+00   -0.13222E+00  9568   0.393E+01 0.347E+00
CGA:  14    -0.311950512530E+03   -0.77703E-01   -0.75740E-01  9568   0.290E+01 0.244E-01
CGA:  15    -0.311988464274E+03   -0.37952E-01   -0.37524E-01  9568   0.155E+01 0.165E-01
CGA:  16    -0.312021681740E+03   -0.33217E-01   -0.32968E-01  9568   0.162E+01-0.256E-02
CGA:  17    -0.312050468994E+03   -0.28787E-01   -0.29223E-01  9568   0.208E+01-0.663E-02
CGA:  18    -0.312099485660E+03   -0.49017E-01   -0.49591E-01  9568   0.180E+01 0.288E-01
CGA:  19    -0.312121774713E+03   -0.22289E-01   -0.23156E-01  9568   0.838E+00-0.425E-01
CGA:  20    -0.312136187708E+03   -0.14413E-01   -0.14248E-01  9568   0.330E+00 0.155E-02
CGA:  21    -0.312142186708E+03   -0.59990E-02   -0.60108E-02  9568   0.370E+00 0.419E-04
CGA:  22    -0.312152037574E+03   -0.98509E-02   -0.98550E-02  9568   0.417E+00 0.310E-02
CGA:  23    -0.312163408703E+03   -0.11371E-01   -0.11379E-01  9568   0.589E+00 0.156E-01
CGA:  24    -0.312173548189E+03   -0.10139E-01   -0.10308E-01  9568   0.167E+00-0.126E-02
CGA:  25    -0.312177474653E+03   -0.39265E-02   -0.39362E-02  9568   0.849E-01 0.119E-02
CGA:  26    -0.312179620786E+03   -0.21461E-02   -0.21481E-02  9568   0.119E+00 0.624E-03
CGA:  27    -0.312184173814E+03   -0.45530E-02   -0.44927E-02  9568   0.113E+00 0.424E-02
CGA:  28    -0.312188010579E+03   -0.38368E-02   -0.38322E-02  9568   0.618E-01 0.586E-03
CGA:  29    -0.312189389079E+03   -0.13785E-02   -0.13803E-02  9568   0.491E-01 0.956E-04
CGA:  30    -0.312190521863E+03   -0.11328E-02   -0.11323E-02  9568   0.295E-01-0.222E-04
CGA:  31    -0.312191949023E+03   -0.14272E-02   -0.14184E-02  9568   0.330E-01 0.393E-03
SDA:  32    -0.312193063038E+03   -0.11140E-02   -0.11119E-02  9568   0.336E-01 0.272E-03
CGA:  33    -0.312193414833E+03   -0.35180E-03   -0.35132E-03  9568   0.620E-02 0.757E-05
CGA:  34    -0.312193954856E+03   -0.54002E-03   -0.53560E-03  9568   0.103E-01 0.831E-04
CGA:  35    -0.312194492558E+03   -0.53770E-03   -0.53925E-03  9568   0.172E-01-0.618E-04
CGA:  36    -0.312195301149E+03   -0.80859E-03   -0.80685E-03  9568   0.804E-02 0.939E-04
CGA:  37    -0.312195586824E+03   -0.28568E-03   -0.28565E-03  9568   0.521E-02 0.264E-05
CGA:  38    -0.312195814182E+03   -0.22736E-03   -0.22708E-03  9568   0.425E-02 0.196E-04
CGA:  39    -0.312195915045E+03   -0.10086E-03   -0.10095E-03  9568   0.510E-02 0.164E-05
CGA:  40    -0.312196208393E+03   -0.29335E-03   -0.29124E-03  9568   0.299E-02 0.804E-04
CGA:  41    -0.312196646271E+03   -0.43788E-03   -0.43414E-03  9568   0.169E-02 0.326E-04
CGA:  42    -0.312196735383E+03   -0.89112E-04   -0.88840E-04  9568   0.316E-02 0.176E-04
CGA:  43    -0.312196850153E+03   -0.11477E-03   -0.11470E-03  9568   0.165E-02-0.526E-05
CGA:  44    -0.312196890366E+03   -0.40213E-04   -0.40252E-04  9568   0.192E-02 0.129E-05
CGA:  45    -0.312196973468E+03   -0.83102E-04   -0.83120E-04  9568   0.101E-02-0.390E-05
CGA:  46    -0.312197053343E+03   -0.79874E-04   -0.80004E-04  9568   0.479E-03-0.344E-05
CGA:  47    -0.312197068070E+03   -0.14728E-04   -0.14712E-04  9568   0.446E-03-0.203E-05
CGA:  48    -0.312197087898E+03   -0.19828E-04   -0.19838E-04  9568   0.918E-03-0.270E-05
CGA:  49    -0.312197112859E+03   -0.24961E-04   -0.24900E-04  9568   0.354E-03-0.558E-05
CGA:  50    -0.312197124495E+03   -0.11636E-04   -0.11644E-04  9568   0.254E-03 0.180E-06
CGA:  51    -0.312197133604E+03   -0.91090E-05   -0.91090E-05  9568   0.982E-04-0.294E-06
CGA:  52    -0.312197144589E+03   -0.10985E-04   -0.10794E-04  9568   0.180E-03 0.251E-05
CGA:  53    -0.312197147197E+03   -0.26071E-05   -0.26044E-05  9568   0.579E-04-0.343E-06
   8 F= -.31219715E+03 E0= -.31217445E+03  d E =-.109788E+00  mag=    25.8494
       N       E                     dE             d eps       ncg     rms          ort
SDA:   1    -0.265801643249E+03    0.46396E+02    0.00000E+00  9568   0.108E+04 0.000E+00
CGA:   2    -0.273581782398E+03   -0.77801E+01   -0.24887E+02  9568   0.290E+03-0.451E+02
CGA:   3    -0.282586953544E+03   -0.90052E+01   -0.86459E+01  9568   0.165E+03-0.249E+02
CGA:   4    -0.286349061156E+03   -0.37621E+01   -0.75762E+01  9568   0.101E+04-0.247E+03
CGA:   5    -0.288868444545E+03   -0.25194E+01   -0.21541E+02  9568   0.415E+03-0.750E+02
CGA:   6    -0.297260316356E+03   -0.83919E+01   -0.81696E+01  9568   0.109E+03-0.709E+02
CGA:   7    -0.300991865666E+03   -0.37315E+01   -0.25002E+01  9568   0.536E+02-0.677E+00
CGA:   8    -0.302276535201E+03   -0.12847E+01   -0.13415E+01  9568   0.176E+03-0.875E+00
CGA:   9    -0.307780780965E+03   -0.55042E+01   -0.57584E+01  9568   0.530E+02 0.137E+02
CGA:  10    -0.309943466547E+03   -0.21627E+01   -0.21812E+01  9568   0.792E+02 0.106E+02
CGA:  11    -0.310545820273E+03   -0.60235E+00   -0.47874E+00  9568   0.358E+02-0.732E+01
CGA:  12    -0.310628543364E+03   -0.82723E-01   -0.18542E+00  9568   0.575E+02-0.188E+02
CGA:  13    -0.311070519558E+03   -0.44198E+00   -0.85850E+00  9568   0.178E+02-0.164E+02
CGA:  14    -0.311235342987E+03   -0.16482E+00   -0.17227E+00  9568   0.662E+01-0.496E+00
CGA:  15    -0.311343027830E+03   -0.10768E+00   -0.87540E-01  9568   0.268E+01 0.997E+00
CGA:  16    -0.311414214582E+03   -0.71187E-01   -0.70367E-01  9568   0.597E+01-0.826E-02
CGA:  17    -0.311612330809E+03   -0.19812E+00   -0.19875E+00  9568   0.114E+02-0.266E+00
CGA:  18    -0.311769158510E+03   -0.15683E+00   -0.15472E+00  9568   0.122E+02 0.705E-01
CGA:  19    -0.311890016238E+03   -0.12086E+00   -0.14347E+00  9568   0.315E+01-0.130E+01
CGA:  20    -0.311912903790E+03   -0.22888E-01   -0.26411E-01  9568   0.125E+01-0.287E+00
CGA:  21    -0.311954628737E+03   -0.41725E-01   -0.41455E-01  9568   0.245E+01 0.263E-01
CGA:  22    -0.311991230035E+03   -0.36601E-01   -0.35695E-01  9568   0.173E+01 0.330E-01
CGA:  23    -0.312048338503E+03   -0.57108E-01   -0.56853E-01  9568   0.211E+01 0.440E-01
CGA:  24    -0.312077377122E+03   -0.29039E-01   -0.30531E-01  9568   0.819E+00-0.501E-01
CGA:  25    -0.312099143734E+03   -0.21767E-01   -0.21777E-01  9568   0.360E+00 0.460E-02
CGA:  26    -0.312106588649E+03   -0.74449E-02   -0.74263E-02  9568   0.430E+00-0.280E-03
CGA:  27    -0.312122839470E+03   -0.16251E-01   -0.16100E-01  9568   0.399E+00 0.116E-01
CGA:  28    -0.312131627921E+03   -0.87885E-02   -0.89256E-02  9568   0.243E+00 0.438E-02
CGA:  29    -0.312136662450E+03   -0.50345E-02   -0.50412E-02  9568   0.185E+00 0.717E-04
CGA:  30    -0.312141871883E+03   -0.52094E-02   -0.52096E-02  9568   0.138E+00-0.128E-03
CGA:  31    -0.312146616003E+03   -0.47441E-02   -0.47103E-02  9568   0.165E+00 0.352E-02
CGA:  32    -0.312150262204E+03   -0.36462E-02   -0.36578E-02  9568   0.139E+00 0.389E-03
CGA:  33    -0.312156103816E+03   -0.58416E-02   -0.58534E-02  9568   0.704E-01-0.684E-03
CGA:  34    -0.312158033991E+03   -0.19302E-02   -0.19310E-02  9568   0.889E-01 0.485E-03
CGA:  35    -0.312160248016E+03   -0.22140E-02   -0.22117E-02  9568   0.412E-01-0.229E-03
CGA:  36    -0.312161867001E+03   -0.16190E-02   -0.16171E-02  9568   0.277E-01 0.130E-03
CGA:  37    -0.312162738493E+03   -0.87149E-03   -0.87077E-03  9568   0.476E-01 0.172E-03
CGA:  38    -0.312164324364E+03   -0.15859E-02   -0.15842E-02  9568   0.163E-01 0.245E-03
CGA:  39    -0.312164795159E+03   -0.47079E-03   -0.47075E-03  9568   0.111E-01-0.653E-04
CGA:  40    -0.312165182737E+03   -0.38758E-03   -0.38677E-03  9568   0.144E-01 0.864E-04
CGA:  41    -0.312165606664E+03   -0.42393E-03   -0.42393E-03  9568   0.119E-01-0.885E-05
CGA:  42    -0.312165940570E+03   -0.33391E-03   -0.33393E-03  9568   0.657E-02-0.533E-05
SDA:  43    -0.312166325754E+03   -0.38518E-03   -0.38434E-03  9568   0.680E-02 0.263E-04
CGA:  44    -0.312166433189E+03   -0.10744E-03   -0.10741E-03  9568   0.317E-02-0.521E-05
CGA:  45    -0.312166555907E+03   -0.12272E-03   -0.12258E-03  9568   0.349E-02 0.124E-04
CGA:  46    -0.312166757510E+03   -0.20160E-03   -0.20119E-03  9568   0.300E-02 0.143E-04
CGA:  47    -0.312167022834E+03   -0.26532E-03   -0.26191E-03  9568   0.289E-02 0.658E-04
CGA:  48    -0.312167093549E+03   -0.70715E-04   -0.70703E-04  9568   0.284E-02-0.148E-05
CGA:  49    -0.312167215722E+03   -0.12217E-03   -0.12193E-03  9568   0.222E-02 0.176E-04
CGA:  50    -0.312167271723E+03   -0.56000E-04   -0.55815E-04  9568   0.147E-02-0.106E-04
CGA:  51    -0.312167414121E+03   -0.14240E-03   -0.14309E-03  9568   0.103E-02-0.972E-05
CGA:  52    -0.312167463621E+03   -0.49500E-04   -0.49603E-04  9568   0.198E-02-0.865E-05
CGA:  53    -0.312167505092E+03   -0.41471E-04   -0.41490E-04  9568   0.605E-03-0.196E-05
CGA:  54    -0.312167532567E+03   -0.27475E-04   -0.27466E-04  9568   0.655E-03 0.638E-06
CGA:  55    -0.312167576512E+03   -0.43945E-04   -0.43799E-04  9568   0.335E-03 0.472E-05
CGA:  56    -0.312167586154E+03   -0.96417E-05   -0.96465E-05  9568   0.475E-03 0.383E-06
CGA:  57    -0.312167606079E+03   -0.19925E-04   -0.19903E-04  9568   0.266E-03 0.518E-05
CGA:  58    -0.312167614190E+03   -0.81107E-05   -0.81063E-05  9568   0.260E-03-0.378E-06
CGA:  59    -0.312167631429E+03   -0.17239E-04   -0.17202E-04  9568   0.168E-03 0.110E-05
CGA:  60    -0.312167644618E+03   -0.13189E-04   -0.13228E-04  9568   0.231E-03-0.115E-05
CGA:  61    -0.312167648051E+03   -0.34327E-05   -0.34460E-05  9568   0.701E-04 0.316E-06
   9 F= -.31216765E+03 E0= -.31214511E+03  d E =0.294991E-01  mag=    25.8578
       N       E                     dE             d eps       ncg     rms          ort
SDA:   1    -0.300450738458E+03    0.11717E+02    0.00000E+00  9568   0.258E+03 0.000E+00
CGA:   2    -0.302975026834E+03   -0.25243E+01   -0.57751E+01  9568   0.777E+02-0.155E+02
CGA:   3    -0.304627896544E+03   -0.16529E+01   -0.13306E+01  9568   0.552E+02 0.676E+01
CGA:   4    -0.305685415849E+03   -0.10575E+01   -0.94894E+00  9568   0.755E+02 0.378E+01
CGA:   5    -0.306867246746E+03   -0.11818E+01   -0.13795E+01  9568   0.802E+02-0.947E+01
CGA:   6    -0.308823630078E+03   -0.19564E+01   -0.20080E+01  9568   0.173E+03 0.817E+00
CGA:   7    -0.310381388042E+03   -0.15578E+01   -0.18444E+01  9568   0.535E+02-0.587E+02
CGA:   8    -0.310679886392E+03   -0.29850E+00   -0.34283E+00  9568   0.240E+02-0.447E+01
CGA:   9    -0.310941719473E+03   -0.26183E+00   -0.35603E+00  9568   0.123E+02-0.296E+01
CGA:  10    -0.311150517649E+03   -0.20880E+00   -0.21244E+00  9568   0.134E+02-0.101E+00
CGA:  11    -0.311333229266E+03   -0.18271E+00   -0.14443E+00  9568   0.860E+01 0.262E+01
CGA:  12    -0.311572146547E+03   -0.23892E+00   -0.24207E+00  9568   0.198E+02 0.437E-01
CGA:  13    -0.311809106361E+03   -0.23696E+00   -0.25898E+00  9568   0.139E+02-0.115E+01
CGA:  14    -0.311930641714E+03   -0.12154E+00   -0.12430E+00  9568   0.731E+01-0.339E+00
CGA:  15    -0.312014929907E+03   -0.84288E-01   -0.85210E-01  9568   0.488E+01-0.979E-01
CGA:  16    -0.312055568659E+03   -0.40639E-01   -0.39229E-01  9568   0.189E+01 0.119E+00
CGA:  17    -0.312078140877E+03   -0.22572E-01   -0.22447E-01  9568   0.188E+01 0.438E-02
CGA:  18    -0.312100844840E+03   -0.22704E-01   -0.24244E-01  9568   0.130E+01-0.635E-01
CGA:  19    -0.312115680304E+03   -0.14835E-01   -0.15301E-01  9568   0.143E+01-0.211E-01
CGA:  20    -0.312160227670E+03   -0.44547E-01   -0.44222E-01  9568   0.313E+01 0.351E-01
CGA:  21    -0.312189262715E+03   -0.29035E-01   -0.26396E-01  9568   0.831E+00 0.246E+00
CGA:  22    -0.312197928678E+03   -0.86660E-02   -0.84838E-02  9568   0.560E+00 0.128E-01
CGA:  23    -0.312206046295E+03   -0.81176E-02   -0.83577E-02  9568   0.620E+00-0.271E-02
CGA:  24    -0.312214189326E+03   -0.81430E-02   -0.86346E-02  9568   0.495E+00-0.749E-02
CGA:  25    -0.312222563321E+03   -0.83740E-02   -0.84833E-02  9568   0.444E+00 0.428E-02
CGA:  26    -0.312229972377E+03   -0.74091E-02   -0.73551E-02  9568   0.452E+00-0.112E-02
CGA:  27    -0.312237752196E+03   -0.77798E-02   -0.77759E-02  9568   0.366E+00-0.205E-05
CGA:  28    -0.312242552384E+03   -0.48002E-02   -0.49714E-02  9568   0.214E+00-0.196E-02
CGA:  29    -0.312245793170E+03   -0.32408E-02   -0.32560E-02  9568   0.117E+00 0.252E-03
CGA:  30    -0.312247877707E+03   -0.20845E-02   -0.20812E-02  9568   0.147E+00-0.321E-03
CGA:  31    -0.312251693159E+03   -0.38155E-02   -0.38224E-02  9568   0.159E+00-0.988E-03
SDA:  32    -0.312253627206E+03   -0.19340E-02   -0.19805E-02  9568   0.896E-01-0.927E-03
CGA:  33    -0.312255752735E+03   -0.21255E-02   -0.21245E-02  9568   0.424E-01 0.213E-03
CGA:  34    -0.312256696614E+03   -0.94388E-03   -0.94322E-03  9568   0.350E-01 0.311E-03
CGA:  35    -0.312258038779E+03   -0.13422E-02   -0.13421E-02  9568   0.415E-01 0.422E-06
CGA:  36    -0.312261100199E+03   -0.30614E-02   -0.30139E-02  9568   0.406E-01 0.108E-02
CGA:  37    -0.312262020676E+03   -0.92048E-03   -0.92035E-03  9568   0.186E-01-0.282E-04
CGA:  38    -0.312262861529E+03   -0.84085E-03   -0.83908E-03  9568   0.261E-01 0.805E-04
CGA:  39    -0.312263317977E+03   -0.45645E-03   -0.45606E-03  9568   0.938E-02-0.928E-05
CGA:  40    -0.312264521419E+03   -0.12034E-02   -0.67992E-05  9568   0.263E-01-0.188E-02
CGA:  41    -0.312264899542E+03   -0.37812E-03   -0.37969E-03  9568   0.873E-02-0.433E-04
CGA:  42    -0.312265278318E+03   -0.37878E-03   -0.37887E-03  9568   0.163E-01 0.751E-04
CGA:  43    -0.312265830348E+03   -0.55203E-03   -0.55082E-03  9568   0.129E-01-0.116E-04
CGA:  44    -0.312266254776E+03   -0.42443E-03   -0.42429E-03  9568   0.107E-01 0.995E-05
CGA:  45    -0.312266605365E+03   -0.35059E-03   -0.35094E-03  9568   0.725E-02 0.175E-04
CGA:  46    -0.312266772954E+03   -0.16759E-03   -0.16823E-03  9568   0.351E-02-0.230E-05
CGA:  47    -0.312266949888E+03   -0.17693E-03   -0.17715E-03  9568   0.414E-02-0.163E-04
CGA:  48    -0.312267034307E+03   -0.84419E-04   -0.85040E-04  9568   0.214E-02-0.726E-05
CGA:  49    -0.312267174757E+03   -0.14045E-03   -0.14029E-03  9568   0.438E-02 0.504E-05
CGA:  50    -0.312267259791E+03   -0.85034E-04   -0.85040E-04  9568   0.118E-02 0.667E-06
CGA:  51    -0.312267316432E+03   -0.56641E-04   -0.56722E-04  9568   0.190E-02-0.864E-05
CGA:  52    -0.312267367315E+03   -0.50882E-04   -0.51034E-04  9568   0.102E-02-0.103E-05
CGA:  53    -0.312267404652E+03   -0.37337E-04   -0.37323E-04  9568   0.104E-02-0.314E-05
CGA:  54    -0.312267439144E+03   -0.34493E-04   -0.34452E-04  9568   0.769E-03-0.341E-05
CGA:  55    -0.312267459600E+03   -0.20455E-04   -0.20446E-04  9568   0.567E-03-0.872E-06
CGA:  56    -0.312267487056E+03   -0.27457E-04   -0.27434E-04  9568   0.502E-03 0.177E-05
CGA:  57    -0.312267495717E+03   -0.86610E-05   -0.86232E-05  9568   0.153E-03 0.106E-06
CGA:  58    -0.312267507041E+03   -0.11324E-04   -0.11292E-04  9568   0.432E-03 0.758E-06
CGA:  59    -0.312267517103E+03   -0.10061E-04   -0.10063E-04  9568   0.163E-03 0.852E-06
CGA:  60    -0.312267523805E+03   -0.67026E-05   -0.67013E-05  9568   0.204E-03 0.763E-06
  10 F= -.31226752E+03 E0= -.31224419E+03  d E =-.998758E-01  mag=    25.8660
       N       E                     dE             d eps       ncg     rms          ort
SDA:   1    -0.311850073906E+03    0.41744E+00    0.00000E+00  9568   0.232E+01 0.000E+00
CGA:   2    -0.311907378204E+03   -0.57304E-01   -0.58271E-01  9568   0.317E+01-0.665E-02
CGA:   3    -0.312072654509E+03   -0.16528E+00   -0.16516E+00  9568   0.297E+01 0.683E-02
CGA:   4    -0.312134979898E+03   -0.62325E-01   -0.62164E-01  9568   0.822E+00 0.166E-02
CGA:   5    -0.312181385724E+03   -0.46406E-01   -0.46101E-01  9568   0.127E+01 0.138E-01
CGA:   6    -0.312226244939E+03   -0.44859E-01   -0.44817E-01  9568   0.826E+00-0.378E-02
CGA:   7    -0.312243267201E+03   -0.17022E-01   -0.16862E-01  9568   0.555E+00 0.331E-02
CGA:   8    -0.312264352560E+03   -0.21085E-01   -0.21085E-01  9568   0.111E+00 0.781E-02
CGA:   9    -0.312271497010E+03   -0.71445E-02   -0.71921E-02  9568   0.295E+00-0.165E-02
CGA:  10    -0.312278053103E+03   -0.65561E-02   -0.66001E-02  9568   0.804E-01-0.574E-03
CGA:  11    -0.312279705886E+03   -0.16528E-02   -0.16573E-02  9568   0.444E-01-0.942E-04
CGA:  12    -0.312281396533E+03   -0.16906E-02   -0.16897E-02  9568   0.160E-01 0.718E-03
CGA:  13    -0.312282694954E+03   -0.12984E-02   -0.13065E-02  9568   0.459E-01-0.195E-03
CGA:  14    -0.312283424217E+03   -0.72926E-03   -0.73074E-03  9568   0.844E-02-0.541E-04
CGA:  15    -0.312283857562E+03   -0.43335E-03   -0.43325E-03  9568   0.585E-02 0.465E-05
CGA:  16    -0.312284049151E+03   -0.19159E-03   -0.19159E-03  9568   0.437E-02-0.146E-05
CGA:  17    -0.312284346092E+03   -0.29694E-03   -0.29662E-03  9568   0.792E-02 0.114E-04
CGA:  18    -0.312284565935E+03   -0.21984E-03   -0.21955E-03  9568   0.189E-02-0.237E-05
CGA:  19    -0.312284615716E+03   -0.49782E-04   -0.49861E-04  9568   0.261E-02 0.246E-05
CGA:  20    -0.312284722607E+03   -0.10689E-03   -0.10689E-03  9568   0.119E-02-0.616E-06
CGA:  21    -0.312284840681E+03   -0.11807E-03   -0.11809E-03  9568   0.101E-02-0.481E-06
CGA:  22    -0.312284885357E+03   -0.44676E-04   -0.44680E-04  9568   0.161E-02-0.115E-05
CGA:  23    -0.312284922696E+03   -0.37340E-04   -0.37505E-04  9568   0.759E-03 0.235E-05
CGA:  24    -0.312284942243E+03   -0.19546E-04   -0.19568E-04  9568   0.494E-03 0.890E-06
CGA:  25    -0.312284969871E+03   -0.27628E-04   -0.27603E-04  9568   0.683E-03 0.145E-05
CGA:  26    -0.312284992668E+03   -0.22797E-04   -0.22805E-04  9568   0.328E-03 0.126E-05
CGA:  27    -0.312285012689E+03   -0.20021E-04   -0.19975E-04  9568   0.402E-03 0.217E-05
CGA:  28    -0.312285018628E+03   -0.59392E-05   -0.59136E-05  9568   0.123E-03-0.639E-06
CGA:  29    -0.312285029116E+03   -0.10488E-04   -0.10533E-04  9568   0.112E-03-0.107E-05
CGA:  30    -0.312285035877E+03   -0.67609E-05   -0.67912E-05  9568   0.232E-03-0.177E-05
  11 F= -.31228504E+03 E0= -.31226182E+03  d E =-.175121E-01  mag=    25.8630
       N       E                     dE             d eps       ncg     rms          ort
SDA:   1    -0.311148971484E+03    0.11361E+01    0.00000E+00  9568   0.269E+02 0.000E+00
CGA:   2    -0.311466858574E+03   -0.31789E+00   -0.27765E+00  9568   0.348E+01 0.195E+01
CGA:   3    -0.311567986012E+03   -0.10113E+00   -0.92422E-01  9568   0.543E+01 0.815E-01
CGA:   4    -0.311778179718E+03   -0.21019E+00   -0.21026E+00  9568   0.126E+02 0.137E-01
CGA:   5    -0.312008725582E+03   -0.23055E+00   -0.24116E+00  9568   0.373E+01-0.287E+00
CGA:   6    -0.312051146123E+03   -0.42421E-01   -0.41366E-01  9568   0.187E+01 0.665E-01
CGA:   7    -0.312114970992E+03   -0.63825E-01   -0.62983E-01  9568   0.318E+01-0.689E-01
CGA:   8    -0.312157195435E+03   -0.42224E-01   -0.43206E-01  9568   0.199E+01-0.448E-01
CGA:   9    -0.312195470307E+03   -0.38275E-01   -0.39307E-01  9568   0.219E+01-0.200E-01
CGA:  10    -0.312230259716E+03   -0.34789E-01   -0.35207E-01  9568   0.133E+01-0.158E-01
CGA:  11    -0.312252843445E+03   -0.22584E-01   -0.20425E-01  9568   0.799E+00 0.863E-01
CGA:  12    -0.312262179369E+03   -0.93359E-02   -0.89528E-02  9568   0.227E+00 0.278E-01
CGA:  13    -0.312265801404E+03   -0.36220E-02   -0.36282E-02  9568   0.287E+00-0.214E-03
CGA:  14    -0.312275225820E+03   -0.94244E-02   -0.94137E-02  9568   0.555E+00 0.402E-02
CGA:  15    -0.312283297744E+03   -0.80719E-02   -0.80363E-02  9568   0.310E+00 0.123E-02
CGA:  16    -0.312287159216E+03   -0.38615E-02   -0.37526E-02  9568   0.106E+00 0.598E-02
CGA:  17    -0.312288324934E+03   -0.11657E-02   -0.11806E-02  9568   0.538E-01-0.942E-03
CGA:  18    -0.312289662604E+03   -0.13377E-02   -0.13408E-02  9568   0.840E-01 0.315E-03
CGA:  19    -0.312290834398E+03   -0.11718E-02   -0.11767E-02  9568   0.370E-01-0.199E-03
CGA:  20    -0.312291653900E+03   -0.81950E-03   -0.81830E-03  9568   0.646E-01-0.657E-04
CGA:  21    -0.312293187093E+03   -0.15332E-02   -0.15339E-02  9568   0.581E-01 0.573E-04
CGA:  22    -0.312293981972E+03   -0.79488E-03   -0.79938E-03  9568   0.330E-01-0.140E-03
CGA:  23    -0.312294486148E+03   -0.50418E-03   -0.50573E-03  9568   0.171E-01-0.226E-04
CGA:  24    -0.312294780072E+03   -0.29392E-03   -0.29335E-03  9568   0.161E-01-0.463E-05
CGA:  25    -0.312295061881E+03   -0.28181E-03   -0.28199E-03  9568   0.900E-02 0.819E-05
CGA:  26    -0.312295204261E+03   -0.14238E-03   -0.14276E-03  9568   0.913E-02 0.920E-05
CGA:  27    -0.312295487113E+03   -0.28285E-03   -0.28258E-03  9568   0.150E-01 0.350E-04
CGA:  28    -0.312295753347E+03   -0.26623E-03   -0.26606E-03  9568   0.129E-01-0.250E-05
CGA:  29    -0.312295975878E+03   -0.22253E-03   -0.22228E-03  9568   0.645E-02-0.280E-05
CGA:  30    -0.312296062170E+03   -0.86291E-04   -0.86355E-04  9568   0.453E-02 0.410E-05
CGA:  31    -0.312296187286E+03   -0.12512E-03   -0.12498E-03  9568   0.517E-02 0.234E-04
SDA:  32    -0.312296249238E+03   -0.61952E-04   -0.61864E-04  9568   0.192E-02-0.610E-05
CGA:  33    -0.312296300971E+03   -0.51733E-04   -0.51774E-04  9568   0.165E-02-0.920E-05
CGA:  34    -0.312296390316E+03   -0.89345E-04   -0.89548E-04  9568   0.178E-02-0.663E-05
CGA:  35    -0.312296443012E+03   -0.52696E-04   -0.52670E-04  9568   0.265E-02 0.391E-05
CGA:  36    -0.312296549390E+03   -0.10638E-03   -0.10646E-03  9568   0.111E-02-0.514E-05
CGA:  37    -0.312296587198E+03   -0.37809E-04   -0.37770E-04  9568   0.600E-03 0.453E-05
CGA:  38    -0.312296620633E+03   -0.33434E-04   -0.33323E-04  9568   0.399E-03 0.340E-05
CGA:  39    -0.312296640077E+03   -0.19444E-04   -0.19301E-04  9568   0.117E-02 0.678E-05
CGA:  40    -0.312296680884E+03   -0.40807E-04   -0.40764E-04  9568   0.406E-03 0.794E-05
CGA:  41    -0.312296713411E+03   -0.32526E-04   -0.32467E-04  9568   0.588E-03 0.105E-05
CGA:  42    -0.312296727522E+03   -0.14111E-04   -0.14102E-04  9568   0.411E-03-0.117E-05
CGA:  43    -0.312296749027E+03   -0.21506E-04   -0.21544E-04  9568   0.821E-03-0.224E-05
CGA:  44    -0.312296766506E+03   -0.17479E-04   -0.17410E-04  9568   0.174E-03-0.523E-05
CGA:  45    -0.312296779547E+03   -0.13041E-04   -0.13017E-04  9568   0.145E-03 0.421E-06
CGA:  46    -0.312296784291E+03   -0.47447E-05   -0.47453E-05  9568   0.256E-03 0.202E-06
CGA:  47    -0.312296795173E+03   -0.10882E-04   -0.10842E-04  9568   0.179E-03 0.456E-05
CGA:  48    -0.312296799786E+03   -0.46127E-05   -0.46252E-05  9568   0.326E-04 0.127E-05
  12 F= -.31229680E+03 E0= -.31227366E+03  d E =-.117639E-01  mag=    25.8617
       N       E                     dE             d eps       ncg     rms          ort
SDA:   1    -0.308900785286E+03    0.33960E+01    0.00000E+00  9568   0.196E+02 0.000E+00
CGA:   2    -0.309272662459E+03   -0.37188E+00   -0.37417E+00  9568   0.169E+02-0.262E+00
CGA:   3    -0.310437886509E+03   -0.11652E+01   -0.12307E+01  9568   0.491E+02-0.166E+01
CGA:   4    -0.311125934000E+03   -0.68805E+00   -0.79194E+00  9568   0.111E+02-0.323E+01
CGA:   5    -0.311464419083E+03   -0.33849E+00   -0.34345E+00  9568   0.109E+02 0.998E+00
CGA:   6    -0.311665101856E+03   -0.20068E+00   -0.18952E+00  9568   0.523E+01 0.339E+00
CGA:   7    -0.311949160846E+03   -0.28406E+00   -0.28701E+00  9568   0.802E+01-0.137E+00
CGA:   8    -0.312111189189E+03   -0.16203E+00   -0.16519E+00  9568   0.226E+01-0.349E-01
CGA:   9    -0.312174375968E+03   -0.63187E-01   -0.64684E-01  9568   0.118E+01 0.816E-01
CGA:  10    -0.312201403492E+03   -0.27028E-01   -0.27413E-01  9568   0.866E+00-0.561E-03
CGA:  11    -0.312233025267E+03   -0.31622E-01   -0.31723E-01  9568   0.900E+00-0.197E-01
CGA:  12    -0.312260765837E+03   -0.27741E-01   -0.27794E-01  9568   0.521E+00 0.104E-01
CGA:  13    -0.312271714202E+03   -0.10948E-01   -0.10898E-01  9568   0.132E+00 0.362E-03
CGA:  14    -0.312276327852E+03   -0.46136E-02   -0.46106E-02  9568   0.132E+00 0.941E-03
CGA:  15    -0.312280443928E+03   -0.41161E-02   -0.41167E-02  9568   0.157E+00 0.132E-03
CGA:  16    -0.312286947769E+03   -0.65038E-02   -0.64549E-02  9568   0.856E-01 0.420E-02
CGA:  17    -0.312288976265E+03   -0.20285E-02   -0.20199E-02  9568   0.405E-01-0.400E-04
CGA:  18    -0.312290118105E+03   -0.11418E-02   -0.11432E-02  9568   0.226E-01 0.119E-03
CGA:  19    -0.312290870350E+03   -0.75224E-03   -0.75223E-03  9568   0.300E-01 0.373E-06
CGA:  20    -0.312292068482E+03   -0.11981E-02   -0.11918E-02  9568   0.285E-01 0.615E-03
CGA:  21    -0.312293195214E+03   -0.11267E-02   -0.11269E-02  9568   0.152E-01-0.112E-04
CGA:  22    -0.312293548817E+03   -0.35360E-03   -0.35482E-03  9568   0.981E-02 0.208E-04
CGA:  23    -0.312293811559E+03   -0.26274E-03   -0.26265E-03  9568   0.577E-02-0.807E-05
CGA:  24    -0.312294175183E+03   -0.36362E-03   -0.36299E-03  9568   0.127E-01 0.203E-04
CGA:  25    -0.312294554587E+03   -0.37940E-03   -0.37929E-03  9568   0.659E-02-0.723E-05
CGA:  26    -0.312294754447E+03   -0.19986E-03   -0.20010E-03  9568   0.569E-02 0.321E-04
CGA:  27    -0.312294908592E+03   -0.15414E-03   -0.15383E-03  9568   0.357E-02-0.617E-05
CGA:  28    -0.312295055066E+03   -0.14647E-03   -0.14624E-03  9568   0.267E-02 0.266E-04
CGA:  29    -0.312295158563E+03   -0.10350E-03   -0.10346E-03  9568   0.381E-02 0.768E-05
CGA:  30    -0.312295268111E+03   -0.10955E-03   -0.10965E-03  9568   0.255E-02 0.157E-04
CGA:  31    -0.312295382567E+03   -0.11446E-03   -0.11446E-03  9568   0.183E-02 0.155E-05
SDA:  32    -0.312295427170E+03   -0.44603E-04   -0.44709E-04  9568   0.123E-02 0.447E-05
CGA:  33    -0.312295448655E+03   -0.21485E-04   -0.21393E-04  9568   0.814E-03-0.384E-05
CGA:  34    -0.312295489333E+03   -0.40678E-04   -0.40778E-04  9568   0.106E-02-0.610E-05
CGA:  35    -0.312295523441E+03   -0.34108E-04   -0.34099E-04  9568   0.713E-03-0.667E-05
CGA:  36    -0.312295559847E+03   -0.36405E-04   -0.36497E-04  9568   0.682E-03-0.563E-05
CGA:  37    -0.312295583337E+03   -0.23490E-04   -0.23490E-04  9568   0.337E-03-0.528E-06
CGA:  38    -0.312295607754E+03   -0.24418E-04   -0.24267E-04  9568   0.194E-03 0.370E-05
CGA:  39    -0.312295614750E+03   -0.69956E-05   -0.69965E-05  9568   0.389E-03 0.911E-06
CGA:  40    -0.312295627524E+03   -0.12774E-04   -0.12793E-04  9568   0.112E-03 0.472E-05
CGA:  41    -0.312295642852E+03   -0.15327E-04   -0.15572E-04  9568   0.209E-03-0.260E-05
CGA:  42    -0.312295653454E+03   -0.10602E-04   -0.10638E-04  9568   0.345E-03-0.356E-05
CGA:  43    -0.312295661845E+03   -0.83906E-05   -0.83663E-05  9568   0.219E-03-0.178E-05
  13 F= -.31229566E+03 E0= -.31227261E+03  d E =0.113794E-02  mag=    25.8610
       N       E                     dE             d eps       ncg     rms          ort
SDA:   1    -0.311199729268E+03    0.10959E+01    0.00000E+00  9568   0.459E+01 0.000E+00
CGA:   2    -0.311403707047E+03   -0.20398E+00   -0.20339E+00  9568   0.651E+01 0.833E-01
CGA:   3    -0.311850962607E+03   -0.44726E+00   -0.43850E+00  9568   0.631E+01 0.304E+00
CGA:   4    -0.311981229903E+03   -0.13027E+00   -0.11934E+00  9568   0.287E+01 0.369E+00
CGA:   5    -0.312072720882E+03   -0.91491E-01   -0.93234E-01  9568   0.296E+01 0.362E-01
CGA:   6    -0.312164549584E+03   -0.91829E-01   -0.91398E-01  9568   0.180E+01-0.828E-02
CGA:   7    -0.312245557790E+03   -0.81008E-01   -0.81213E-01  9568   0.186E+01-0.219E-01
CGA:   8    -0.312272097756E+03   -0.26540E-01   -0.26944E-01  9568   0.289E+00-0.209E-01
CGA:   9    -0.312283599222E+03   -0.11501E-01   -0.11507E-01  9568   0.349E+00-0.149E-02
CGA:  10    -0.312301367717E+03   -0.17768E-01   -0.17702E-01  9568   0.154E+00 0.393E-02
CGA:  11    -0.312305582750E+03   -0.42150E-02   -0.42154E-02  9568   0.144E+00-0.399E-05
CGA:  12    -0.312308781367E+03   -0.31986E-02   -0.32205E-02  9568   0.405E-01-0.258E-03
CGA:  13    -0.312310167671E+03   -0.13863E-02   -0.13853E-02  9568   0.452E-01-0.123E-03
CGA:  14    -0.312312774110E+03   -0.26064E-02   -0.25995E-02  9568   0.312E-01 0.296E-03
CGA:  15    -0.312313469791E+03   -0.69568E-03   -0.69534E-03  9568   0.176E-01 0.582E-06
CGA:  16    -0.312313959146E+03   -0.48935E-03   -0.49136E-03  9568   0.128E-01 0.410E-04
CGA:  17    -0.312314298523E+03   -0.33938E-03   -0.33883E-03  9568   0.600E-02 0.152E-05
CGA:  18    -0.312314875594E+03   -0.57707E-03   -0.57326E-03  9568   0.104E-01 0.704E-04
CGA:  19    -0.312315061363E+03   -0.18577E-03   -0.18609E-03  9568   0.434E-02-0.156E-04
CGA:  20    -0.312315215163E+03   -0.15380E-03   -0.15393E-03  9568   0.377E-02 0.201E-04
CGA:  21    -0.312315337707E+03   -0.12254E-03   -0.12249E-03  9568   0.197E-02-0.330E-05
CGA:  22    -0.312315443444E+03   -0.10574E-03   -0.10558E-03  9568   0.447E-02 0.848E-05
CGA:  23    -0.312315577238E+03   -0.13379E-03   -0.13375E-03  9568   0.251E-02-0.205E-05
CGA:  24    -0.312315638507E+03   -0.61270E-04   -0.61367E-04  9568   0.153E-02 0.109E-05
CGA:  25    -0.312315711674E+03   -0.73167E-04   -0.73190E-04  9568   0.761E-03-0.124E-05
CGA:  26    -0.312315736223E+03   -0.24549E-04   -0.24563E-04  9568   0.130E-02 0.200E-05
CGA:  27    -0.312315801623E+03   -0.65400E-04   -0.65400E-04  9568   0.115E-02-0.859E-08
CGA:  28    -0.312315831901E+03   -0.30278E-04   -0.30334E-04  9568   0.535E-03 0.297E-05
CGA:  29    -0.312315852856E+03   -0.20955E-04   -0.20955E-04  9568   0.491E-03-0.356E-06
CGA:  30    -0.312315863496E+03   -0.10640E-04   -0.10667E-04  9568   0.285E-03 0.156E-05
CGA:  31    -0.312315878537E+03   -0.15041E-04   -0.15035E-04  9568   0.495E-03 0.177E-06
SDA:  32    -0.312315894914E+03   -0.16376E-04   -0.16385E-04  9568   0.167E-03 0.109E-05
CGA:  33    -0.312315898579E+03   -0.36656E-05   -0.36590E-05  9568   0.149E-03-0.419E-06
  14 F= -.31231590E+03 E0= -.31229271E+03  d E =-.202367E-01  mag=    25.8626
       N       E                     dE             d eps       ncg     rms          ort
SDA:   1    -0.308510783908E+03    0.38051E+01    0.00000E+00  9568   0.128E+02 0.000E+00
CGA:   2    -0.309294643651E+03   -0.78386E+00   -0.73342E+00  9568   0.300E+02 0.213E+01
CGA:   3    -0.310344520080E+03   -0.10499E+01   -0.10091E+01  9568   0.297E+02-0.968E+00
CGA:   4    -0.311277525250E+03   -0.93301E+00   -0.93405E+00  9568   0.110E+02 0.930E-01
CGA:   5    -0.311601365546E+03   -0.32384E+00   -0.31379E+00  9568   0.724E+01-0.292E+00
CGA:   6    -0.311788159730E+03   -0.18679E+00   -0.18920E+00  9568   0.729E+01 0.311E-01
CGA:   7    -0.312077988631E+03   -0.28983E+00   -0.29101E+00  9568   0.617E+01-0.186E+00
CGA:   8    -0.312189799019E+03   -0.11181E+00   -0.11467E+00  9568   0.972E+00-0.759E-01
CGA:   9    -0.312215595291E+03   -0.25796E-01   -0.25719E-01  9568   0.137E+01-0.185E-02
CGA:  10    -0.312277809564E+03   -0.62214E-01   -0.61640E-01  9568   0.623E+00 0.412E-01
CGA:  11    -0.312296030024E+03   -0.18220E-01   -0.18100E-01  9568   0.490E+00-0.413E-02
CGA:  12    -0.312306671071E+03   -0.10641E-01   -0.10810E-01  9568   0.248E+00-0.101E-02
CGA:  13    -0.312312702955E+03   -0.60319E-02   -0.60548E-02  9568   0.116E+00 0.211E-03
CGA:  14    -0.312320774133E+03   -0.80712E-02   -0.77917E-02  9568   0.218E+00 0.823E-02
CGA:  15    -0.312324922026E+03   -0.41479E-02   -0.40807E-02  9568   0.605E-01 0.193E-02
CGA:  16    -0.312326878660E+03   -0.19566E-02   -0.19596E-02  9568   0.627E-01 0.514E-03
CGA:  17    -0.312328832096E+03   -0.19534E-02   -0.19488E-02  9568   0.318E-01-0.479E-03
CGA:  18    -0.312329925637E+03   -0.10935E-02   -0.10932E-02  9568   0.456E-01 0.602E-03
CGA:  19    -0.312331317587E+03   -0.13920E-02   -0.13858E-02  9568   0.170E-01-0.474E-03
CGA:  20    -0.312331872536E+03   -0.55495E-03   -0.55560E-03  9568   0.197E-01 0.291E-03
CGA:  21    -0.312332522438E+03   -0.64990E-03   -0.64933E-03  9568   0.132E-01-0.147E-03
CGA:  22    -0.312332864697E+03   -0.34226E-03   -0.34369E-03  9568   0.948E-02 0.520E-04
CGA:  23    -0.312333334503E+03   -0.46981E-03   -0.47267E-03  9568   0.120E-01-0.145E-03
CGA:  24    -0.312333609125E+03   -0.27462E-03   -0.27655E-03  9568   0.609E-02 0.212E-04
CGA:  25    -0.312333836060E+03   -0.22693E-03   -0.22703E-03  9568   0.629E-02-0.153E-04
CGA:  26    -0.312334028542E+03   -0.19248E-03   -0.19290E-03  9568   0.391E-02 0.573E-04
CGA:  27    -0.312334170143E+03   -0.14160E-03   -0.14164E-03  9568   0.545E-02-0.903E-05
CGA:  28    -0.312334359875E+03   -0.18973E-03   -0.18969E-03  9568   0.265E-02 0.281E-04
CGA:  29    -0.312334436555E+03   -0.76679E-04   -0.76644E-04  9568   0.243E-02-0.232E-05
CGA:  30    -0.312334529565E+03   -0.93011E-04   -0.92900E-04  9568   0.212E-02 0.180E-04
CGA:  31    -0.312334584937E+03   -0.55371E-04   -0.55363E-04  9568   0.146E-02 0.245E-06
SDA:  32    -0.312334662461E+03   -0.77524E-04   -0.77392E-04  9568   0.180E-02 0.640E-05
CGA:  33    -0.312334681596E+03   -0.19135E-04   -0.19102E-04  9568   0.298E-03-0.210E-05
CGA:  34    -0.312334715743E+03   -0.34148E-04   -0.33978E-04  9568   0.916E-03 0.209E-05
CGA:  35    -0.312334750172E+03   -0.34429E-04   -0.34428E-04  9568   0.809E-03-0.246E-05
CGA:  36    -0.312334784034E+03   -0.33862E-04   -0.33861E-04  9568   0.332E-03 0.190E-06
CGA:  37    -0.312334794310E+03   -0.10275E-04   -0.10271E-04  9568   0.177E-03-0.606E-06
CGA:  38    -0.312334808319E+03   -0.14010E-04   -0.14014E-04  9568   0.151E-03-0.191E-06
CGA:  39    -0.312334812950E+03   -0.46302E-05   -0.46373E-05  9568   0.296E-03 0.685E-06
CGA:  40    -0.312334832914E+03   -0.19964E-04   -0.19985E-04  9568   0.143E-03-0.812E-06
CGA:  41    -0.312334841614E+03   -0.87004E-05   -0.87120E-05  9568   0.123E-03-0.656E-06
  15 F= -.31233484E+03 E0= -.31231143E+03  d E =-.189430E-01  mag=    25.8690
       N       E                     dE             d eps       ncg     rms          ort
SDA:   1    -0.268393621560E+03    0.43941E+02    0.00000E+00  9568   0.217E+03 0.000E+00
CGA:   2    -0.275601459549E+03   -0.72078E+01   -0.78240E+01  9568   0.167E+03 0.472E+02
CGA:   3    -0.283559335987E+03   -0.79579E+01   -0.89188E+01  9568   0.627E+03-0.164E+03
CGA:   4    -0.288493308951E+03   -0.49340E+01   -0.13484E+02  9568   0.127E+03-0.344E+02
CGA:   5    -0.292142729726E+03   -0.36494E+01   -0.15315E+01  9568   0.163E+03 0.201E+03
CGA:   6    -0.294501400370E+03   -0.23587E+01   -0.16267E+01  9568   0.458E+02 0.140E+02
CGA:   7    -0.296373091069E+03   -0.18717E+01   -0.18710E+01  9568   0.257E+03 0.128E+01
CGA:   8    -0.304572628395E+03   -0.81995E+01   -0.81864E+01  9568   0.188E+03 0.225E+00
CGA:   9    -0.308681435122E+03   -0.41088E+01   -0.37415E+01  9568   0.138E+03 0.630E+02
CGA:  10    -0.309530622504E+03   -0.84919E+00   -0.13282E+01  9568   0.772E+02-0.168E+03
CGA:  11    -0.310302663570E+03   -0.77204E+00   -0.90687E+00  9568   0.195E+02-0.123E+02
CGA:  12    -0.310572608122E+03   -0.26994E+00   -0.28096E+00  9568   0.172E+02-0.496E+00
CGA:  13    -0.310880009630E+03   -0.30740E+00   -0.32580E+00  9568   0.196E+02-0.333E+00
CGA:  14    -0.311268815873E+03   -0.38881E+00   -0.40928E+00  9568   0.203E+02-0.732E-01
CGA:  15    -0.311594202179E+03   -0.32539E+00   -0.31855E+00  9568   0.665E+01 0.128E+00
CGA:  16    -0.311769120380E+03   -0.17492E+00   -0.17557E+00  9568   0.216E+01 0.492E-01
CGA:  17    -0.311824076211E+03   -0.54956E-01   -0.56058E-01  9568   0.151E+01 0.748E-01
CGA:  18    -0.311887404356E+03   -0.63328E-01   -0.63237E-01  9568   0.330E+01 0.802E-02
CGA:  19    -0.311965819181E+03   -0.78415E-01   -0.80214E-01  9568   0.218E+01 0.642E-01
CGA:  20    -0.312004142999E+03   -0.38324E-01   -0.37636E-01  9568   0.485E+00 0.181E-01
CGA:  21    -0.312030468463E+03   -0.26325E-01   -0.26255E-01  9568   0.718E+00 0.274E-02
CGA:  22    -0.312068826028E+03   -0.38358E-01   -0.38455E-01  9568   0.841E+00-0.375E-02
CGA:  23    -0.312089073775E+03   -0.20248E-01   -0.20468E-01  9568   0.733E+00 0.571E-02
CGA:  24    -0.312104692565E+03   -0.15619E-01   -0.15686E-01  9568   0.276E+00 0.149E-03
CGA:  25    -0.312114202091E+03   -0.95095E-02   -0.95054E-02  9568   0.285E+00 0.891E-03
CGA:  26    -0.312130091487E+03   -0.15889E-01   -0.15752E-01  9568   0.184E+00 0.541E-02
CGA:  27    -0.312136100990E+03   -0.60095E-02   -0.60105E-02  9568   0.147E+00 0.937E-03
CGA:  28    -0.312140011961E+03   -0.39110E-02   -0.39218E-02  9568   0.152E+00 0.541E-03
CGA:  29    -0.312144860987E+03   -0.48490E-02   -0.48502E-02  9568   0.920E-01 0.111E-02
CGA:  30    -0.312148105771E+03   -0.32448E-02   -0.32487E-02  9568   0.716E-01-0.763E-03
CGA:  31    -0.312150587263E+03   -0.24815E-02   -0.24787E-02  9568   0.362E-01 0.669E-03
CGA:  32    -0.312151967568E+03   -0.13803E-02   -0.13795E-02  9568   0.639E-01 0.915E-04
CGA:  33    -0.312153857850E+03   -0.18903E-02   -0.18931E-02  9568   0.351E-01 0.383E-03
CGA:  34    -0.312154887774E+03   -0.10299E-02   -0.10303E-02  9568   0.145E-01 0.493E-04
CGA:  35    -0.312155641159E+03   -0.75338E-03   -0.75235E-03  9568   0.237E-01 0.445E-04
CGA:  36    -0.312156620525E+03   -0.97937E-03   -0.97792E-03  9568   0.167E-01 0.122E-03
CGA:  37    -0.312157001624E+03   -0.38110E-03   -0.38158E-03  9568   0.125E-01-0.126E-05
CGA:  38    -0.312157362549E+03   -0.36093E-03   -0.36085E-03  9568   0.591E-02-0.130E-04
CGA:  39    -0.312157650062E+03   -0.28751E-03   -0.28683E-03  9568   0.659E-02 0.363E-04
CGA:  40    -0.312157949193E+03   -0.29913E-03   -0.29915E-03  9568   0.658E-02-0.184E-05
SDA:  41    -0.312158125389E+03   -0.17620E-03   -0.17648E-03  9568   0.403E-02 0.161E-04
CGA:  42    -0.312158177930E+03   -0.52541E-04   -0.52460E-04  9568   0.144E-02-0.265E-05
CGA:  43    -0.312158260581E+03   -0.82650E-04   -0.82283E-04  9568   0.174E-02 0.135E-04
CGA:  44    -0.312158362081E+03   -0.10150E-03   -0.10146E-03  9568   0.204E-02 0.938E-06
CGA:  45    -0.312158491284E+03   -0.12920E-03   -0.12912E-03  9568   0.176E-02 0.179E-05
CGA:  46    -0.312158554744E+03   -0.63461E-04   -0.63450E-04  9568   0.196E-02-0.858E-05
CGA:  47    -0.312158624111E+03   -0.69367E-04   -0.69378E-04  9568   0.101E-02 0.512E-05
CGA:  48    -0.312158646244E+03   -0.22133E-04   -0.22091E-04  9568   0.991E-03-0.321E-05
CGA:  49    -0.312158716741E+03   -0.70498E-04   -0.70843E-04  9568   0.431E-03-0.101E-04
CGA:  50    -0.312158758205E+03   -0.41464E-04   -0.41866E-04  9568   0.538E-03-0.670E-05
CGA:  51    -0.312158774584E+03   -0.16379E-04   -0.16374E-04  9568   0.541E-03-0.158E-05
CGA:  52    -0.312158788533E+03   -0.13949E-04   -0.13896E-04  9568   0.366E-03-0.340E-05
CGA:  53    -0.312158800822E+03   -0.12289E-04   -0.12283E-04  9568   0.266E-03-0.136E-05
CGA:  54    -0.312158813310E+03   -0.12488E-04   -0.12488E-04  9568   0.282E-03-0.418E-06
CGA:  55    -0.312158821179E+03   -0.78695E-05   -0.78798E-05  9568   0.802E-04 0.179E-06
  16 F= -.31215882E+03 E0= -.31213550E+03  d E =0.176020E+00  mag=    25.8875
       N       E                     dE             d eps       ncg     rms          ort
SDA:   1    -0.264420534925E+03    0.47738E+02    0.00000E+00  9568   0.232E+03 0.000E+00
CGA:   2    -0.274157179952E+03   -0.97366E+01   -0.10650E+02  9568   0.728E+03-0.143E+03
CGA:   3    -0.287795643719E+03   -0.13638E+02   -0.20430E+02  9568   0.218E+03-0.369E+01
CGA:   4    -0.297005004424E+03   -0.92094E+01   -0.92207E+01  9568   0.838E+02-0.367E+02
CGA:   5    -0.209197710673E+03    0.87807E+02   -0.13468E+02  9568   0.181E+04-0.254E+03
CGA:   6    -0.282485033672E+03   -0.73287E+02   -0.57145E+02  9568   0.130E+04 0.878E+03
CGA:   7    -0.279059419488E+03    0.34256E+01   -0.69688E+02  9568   0.731E+03-0.677E+02
CGA:   8    -0.301479093048E+03   -0.22420E+02   -0.12325E+02  9568   0.127E+03 0.275E+03
CGA:   9    -0.306826572506E+03   -0.53475E+01   -0.31180E+01  9568   0.487E+02 0.992E+02
CGA:  10    -0.308054503882E+03   -0.12279E+01   -0.72407E+00  9568   0.236E+02 0.324E+02
CGA:  11    -0.308330241664E+03   -0.27574E+00   -0.14134E+00  9568   0.206E+02 0.225E+02
CGA:  12    -0.308541859943E+03   -0.21162E+00   -0.10563E+00  9568   0.194E+02 0.208E+02
CGA:  13    -0.308734262433E+03   -0.19240E+00   -0.92408E-01  9568   0.200E+02 0.213E+02
CGA:  14    -0.308948259799E+03   -0.21400E+00   -0.97239E-01  9568   0.226E+02 0.244E+02
CGA:  15    -0.309240001099E+03   -0.29174E+00   -0.12748E+00  9568   0.258E+02 0.292E+02
CGA:  16    -0.309647931336E+03   -0.40793E+00   -0.18862E+00  9568   0.223E+02 0.286E+02
CGA:  17    -0.310067154810E+03   -0.41922E+00   -0.23269E+00  9568   0.102E+02 0.162E+02
CGA:  18    -0.310351981645E+03   -0.28483E+00   -0.20277E+00  9568   0.457E+01 0.335E+01
CGA:  19    -0.310609885328E+03   -0.25790E+00   -0.18366E+00  9568   0.119E+02 0.670E+00
CGA:  20    -0.310725859922E+03   -0.11597E+00   -0.83492E-01  9568   0.213E+02 0.453E+01
CGA:  21    -0.310883431326E+03   -0.15757E+00   -0.31478E+00  9568   0.566E+02-0.205E+02
CGA:  22    -0.311236049565E+03   -0.35262E+00   -0.98649E+00  9568   0.161E+02-0.172E+02
CGA:  23    -0.311441345997E+03   -0.20530E+00   -0.12921E+00  9568   0.432E+01 0.555E+01
CGA:  24    -0.311493662945E+03   -0.52317E-01   -0.36914E-01  9568   0.154E+01 0.217E+01
CGA:  25    -0.311562665294E+03   -0.69002E-01   -0.70730E-01  9568   0.310E+01-0.141E+00
CGA:  26    -0.311822336572E+03   -0.25967E+00   -0.34261E+00  9568   0.607E+01-0.154E+01
CGA:  27    -0.311842072419E+03   -0.19736E-01   -0.12733E-01  9568   0.495E+01 0.163E+01
CGA:  28    -0.311897533906E+03   -0.55461E-01   -0.39280E-01  9568   0.436E+01 0.239E+01
CGA:  29    -0.311963951038E+03   -0.66417E-01   -0.44290E-01  9568   0.484E+01 0.305E+01
CGA:  30    -0.312020781146E+03   -0.56830E-01   -0.59648E-01  9568   0.219E+01-0.179E+00
CGA:  31    -0.312087276458E+03   -0.66495E-01   -0.67715E-01  9568   0.802E+00 0.145E+00
CGA:  32    -0.312104141706E+03   -0.16865E-01   -0.16282E-01  9568   0.482E+00 0.129E-01
CGA:  33    -0.312158784539E+03   -0.54643E-01   -0.56978E-01  9568   0.146E+01-0.377E-01
CGA:  34    -0.312196245944E+03   -0.37461E-01   -0.37957E-01  9568   0.830E+00 0.110E-01
CGA:  35    -0.312220649282E+03   -0.24403E-01   -0.23981E-01  9568   0.916E+00-0.675E-02
CGA:  36    -0.312242457635E+03   -0.21808E-01   -0.22028E-01  9568   0.468E+00-0.173E-02
CGA:  37    -0.312253343912E+03   -0.10886E-01   -0.10845E-01  9568   0.598E+00 0.741E-04
CGA:  38    -0.312288144947E+03   -0.34801E-01   -0.35720E-01  9568   0.646E+00-0.343E-01
CGA:  39    -0.312305492364E+03   -0.17347E-01   -0.17153E-01  9568   0.504E+00-0.726E-03
CGA:  40    -0.312315927204E+03   -0.10435E-01   -0.10442E-01  9568   0.253E+00-0.701E-03
CGA:  41    -0.312321193149E+03   -0.52659E-02   -0.51555E-02  9568   0.115E+00 0.184E-02
CGA:  42    -0.312325872175E+03   -0.46790E-02   -0.46483E-02  9568   0.145E+00 0.390E-02
CGA:  43    -0.312329086716E+03   -0.32145E-02   -0.32070E-02  9568   0.128E+00 0.186E-04
CGA:  44    -0.312336698297E+03   -0.76116E-02   -0.75982E-02  9568   0.143E+00 0.186E-03
CGA:  45    -0.312340058098E+03   -0.33598E-02   -0.33676E-02  9568   0.930E-01-0.104E-03
CGA:  46    -0.312342814944E+03   -0.27568E-02   -0.27611E-02  9568   0.768E-01 0.181E-03
CGA:  47    -0.312344930417E+03   -0.21155E-02   -0.21427E-02  9568   0.700E-01 0.864E-03
CGA:  48    -0.312347963120E+03   -0.30327E-02   -0.30059E-02  9568   0.690E-01 0.232E-02
CGA:  49    -0.312350671691E+03   -0.27086E-02   -0.27015E-02  9568   0.454E-01 0.150E-02
[...]
CGA:   7    -0.312511937650E+03   -0.36031E-02   -0.36027E-02  9568   0.158E-01 0.588E-04
CGA:   8    -0.312512980330E+03   -0.10427E-02   -0.10432E-02  9568   0.181E-01-0.200E-04
CGA:   9    -0.312513544734E+03   -0.56440E-03   -0.56780E-03  9568   0.880E-02 0.817E-05
CGA:  10    -0.312513940253E+03   -0.39552E-03   -0.39551E-03  9568   0.350E-02-0.237E-05
CGA:  11    -0.312514109866E+03   -0.16961E-03   -0.16962E-03  9568   0.224E-02-0.458E-05
CGA:  12    -0.312514221750E+03   -0.11188E-03   -0.11192E-03  9568   0.259E-02-0.689E-05
CGA:  13    -0.312514310948E+03   -0.89198E-04   -0.89342E-04  9568   0.744E-03 0.467E-05
CGA:  14    -0.312514371316E+03   -0.60368E-04   -0.60532E-04  9568   0.398E-03-0.449E-05
CGA:  15    -0.312514385797E+03   -0.14481E-04   -0.14496E-04  9568   0.419E-03 0.529E-06
CGA:  16    -0.312514410165E+03   -0.24368E-04   -0.24383E-04  9568   0.225E-03-0.103E-05
CGA:  17    -0.312514428705E+03   -0.18541E-04   -0.18474E-04  9568   0.213E-03 0.189E-05
CGA:  18    -0.312514434178E+03   -0.54725E-05   -0.54432E-05  9568   0.895E-04-0.745E-06
 157 F= -.31251443E+03 E0= -.31249711E+03  d E =-.347671E-02  mag=    24.3098
       N       E                     dE             d eps       ncg     rms          ort
SDA:   1    -0.311696953672E+03    0.81748E+00    0.00000E+00  9568   0.370E+01 0.000E+00
CGA:   2    -0.311929821716E+03   -0.23287E+00   -0.23215E+00  9568   0.588E+01 0.445E-01
CGA:   3    -0.312166519873E+03   -0.23670E+00   -0.23592E+00  9568   0.174E+01-0.176E-01
CGA:   4    -0.312273324029E+03   -0.10680E+00   -0.11276E+00  9568   0.224E+01-0.323E+00
CGA:   5    -0.312377297179E+03   -0.10397E+00   -0.10383E+00  9568   0.159E+01 0.188E-01
CGA:   6    -0.312442452941E+03   -0.65156E-01   -0.63689E-01  9568   0.722E+00-0.181E-01
CGA:   7    -0.312468014880E+03   -0.25562E-01   -0.26083E-01  9568   0.401E+00 0.278E-02
CGA:   8    -0.312488778524E+03   -0.20764E-01   -0.20766E-01  9568   0.416E+00-0.345E-02
CGA:   9    -0.312501818701E+03   -0.13040E-01   -0.12936E-01  9568   0.959E-01 0.668E-03
CGA:  10    -0.312504866286E+03   -0.30476E-02   -0.30516E-02  9568   0.591E-01-0.288E-04
CGA:  11    -0.312508313532E+03   -0.34472E-02   -0.34461E-02  9568   0.600E-01 0.808E-04
CGA:  12    -0.312510250759E+03   -0.19372E-02   -0.19529E-02  9568   0.276E-01-0.237E-06
CGA:  13    -0.312511386217E+03   -0.11355E-02   -0.11341E-02  9568   0.167E-01-0.619E-04
CGA:  14    -0.312511918618E+03   -0.53240E-03   -0.53207E-03  9568   0.861E-02-0.998E-05
CGA:  15    -0.312512484824E+03   -0.56621E-03   -0.56387E-03  9568   0.111E-01 0.102E-03
CGA:  16    -0.312512860146E+03   -0.37532E-03   -0.37521E-03  9568   0.475E-02 0.202E-05
CGA:  17    -0.312513053279E+03   -0.19313E-03   -0.19339E-03  9568   0.336E-02 0.168E-04
CGA:  18    -0.312513186545E+03   -0.13327E-03   -0.13319E-03  9568   0.208E-02-0.328E-05
CGA:  19    -0.312513294432E+03   -0.10789E-03   -0.10792E-03  9568   0.253E-02-0.519E-05
CGA:  20    -0.312513414070E+03   -0.11964E-03   -0.11963E-03  9568   0.124E-02 0.132E-04
CGA:  21    -0.312513458904E+03   -0.44834E-04   -0.44802E-04  9568   0.913E-03-0.199E-06
CGA:  22    -0.312513499575E+03   -0.40671E-04   -0.40674E-04  9568   0.547E-03 0.150E-05
CGA:  23    -0.312513525821E+03   -0.26246E-04   -0.26248E-04  9568   0.695E-03-0.104E-05
CGA:  24    -0.312513565089E+03   -0.39268E-04   -0.39277E-04  9568   0.459E-03-0.478E-06
CGA:  25    -0.312513579500E+03   -0.14411E-04   -0.14458E-04  9568   0.203E-03 0.280E-05
CGA:  26    -0.312513589958E+03   -0.10459E-04   -0.10462E-04  9568   0.237E-03-0.560E-06
CGA:  27    -0.312513601007E+03   -0.11048E-04   -0.11048E-04  9568   0.206E-03 0.309E-06
CGA:  28    -0.312513611685E+03   -0.10679E-04   -0.10673E-04  9568   0.156E-03 0.949E-06
CGA:  29    -0.312513616271E+03   -0.45854E-05   -0.45927E-05  9568   0.553E-04 0.420E-06
 158 F= -.31251362E+03 E0= -.31249631E+03  d E =0.817907E-03  mag=    24.3070
       N       E                     dE             d eps       ncg     rms          ort
SDA:   1    -0.312092100396E+03    0.42151E+00    0.00000E+00  9568   0.187E+01 0.000E+00
CGA:   2    -0.312250498345E+03   -0.15840E+00   -0.15963E+00  9568   0.219E+01-0.258E-01
CGA:   3    -0.312343464190E+03   -0.92966E-01   -0.93578E-01  9568   0.125E+01 0.400E-01
CGA:   4    -0.312384249876E+03   -0.40786E-01   -0.40923E-01  9568   0.874E+00-0.351E-03
CGA:   5    -0.312442406693E+03   -0.58157E-01   -0.58251E-01  9568   0.702E+00-0.363E-02
CGA:   6    -0.312484708093E+03   -0.42301E-01   -0.42347E-01  9568   0.371E+00-0.268E-02
CGA:   7    -0.312493581101E+03   -0.88730E-02   -0.93851E-02  9568   0.184E+00-0.930E-02
CGA:   8    -0.312507021600E+03   -0.13440E-01   -0.13440E-01  9568   0.803E-01-0.519E-05
CGA:   9    -0.312510374418E+03   -0.33528E-02   -0.33492E-02  9568   0.655E-01-0.139E-03
CGA:  10    -0.312512587645E+03   -0.22132E-02   -0.21961E-02  9568   0.194E-01-0.425E-04
CGA:  11    -0.312513864585E+03   -0.12769E-02   -0.12726E-02  9568   0.229E-01 0.198E-03
CGA:  12    -0.312514842245E+03   -0.97766E-03   -0.97669E-03  9568   0.105E-01-0.499E-04
CGA:  13    -0.312515129912E+03   -0.28767E-03   -0.28856E-03  9568   0.387E-02-0.104E-04
CGA:  14    -0.312515526401E+03   -0.39649E-03   -0.39679E-03  9568   0.454E-02-0.574E-05
CGA:  15    -0.312515654703E+03   -0.12830E-03   -0.12907E-03  9568   0.228E-02-0.313E-05
CGA:  16    -0.312515793936E+03   -0.13923E-03   -0.13923E-03  9568   0.119E-02 0.326E-06
CGA:  17    -0.312515857974E+03   -0.64038E-04   -0.64019E-04  9568   0.152E-02 0.379E-05
CGA:  18    -0.312515917495E+03   -0.59521E-04   -0.59477E-04  9568   0.710E-03-0.129E-05
CGA:  19    -0.312515970765E+03   -0.53271E-04   -0.53212E-04  9568   0.662E-03 0.229E-05
CGA:  20    -0.312515990496E+03   -0.19731E-04   -0.19692E-04  9568   0.337E-03-0.607E-06
CGA:  21    -0.312516014042E+03   -0.23547E-04   -0.23539E-04  9568   0.290E-03 0.568E-06
CGA:  22    -0.312516027263E+03   -0.13221E-04   -0.13206E-04  9568   0.260E-03-0.250E-05
CGA:  23    -0.312516039822E+03   -0.12559E-04   -0.12560E-04  9568   0.202E-03 0.552E-06
CGA:  24    -0.312516047824E+03   -0.80022E-05   -0.80078E-05  9568   0.682E-04 0.593E-06
 159 F= -.31251605E+03 E0= -.31249869E+03  d E =-.243155E-02  mag=    24.3043
       N       E                     dE             d eps       ncg     rms          ort
SDA:   1    -0.312300397518E+03    0.21564E+00    0.00000E+00  9568   0.302E+01 0.000E+00
CGA:   2    -0.312356256169E+03   -0.55859E-01   -0.66286E-01  9568   0.986E+00-0.299E+00
CGA:   3    -0.312396528756E+03   -0.40273E-01   -0.40132E-01  9568   0.905E+00-0.140E-01
CGA:   4    -0.312455962514E+03   -0.59434E-01   -0.59656E-01  9568   0.404E+00-0.926E-02
CGA:   5    -0.312470696909E+03   -0.14734E-01   -0.14592E-01  9568   0.383E+00-0.140E-02
CGA:   6    -0.312490639844E+03   -0.19943E-01   -0.19893E-01  9568   0.250E+00 0.984E-02
CGA:   7    -0.312503829317E+03   -0.13189E-01   -0.13201E-01  9568   0.866E-01-0.303E-02
CGA:   8    -0.312507566167E+03   -0.37369E-02   -0.37492E-02  9568   0.715E-01 0.819E-03
CGA:   9    -0.312509965017E+03   -0.23988E-02   -0.23793E-02  9568   0.327E-01 0.617E-05
CGA:  10    -0.312512022356E+03   -0.20573E-02   -0.20550E-02  9568   0.160E-01 0.117E-03
CGA:  11    -0.312512634394E+03   -0.61204E-03   -0.61243E-03  9568   0.963E-02 0.742E-05
CGA:  12    -0.312512965905E+03   -0.33151E-03   -0.33282E-03  9568   0.582E-02 0.182E-04
CGA:  13    -0.312513424326E+03   -0.45842E-03   -0.45916E-03  9568   0.378E-02-0.220E-04
CGA:  14    -0.312513574844E+03   -0.15052E-03   -0.15078E-03  9568   0.245E-02 0.121E-04
CGA:  15    -0.312513661738E+03   -0.86894E-04   -0.86810E-04  9568   0.159E-02-0.152E-05
CGA:  16    -0.312513779638E+03   -0.11790E-03   -0.11795E-03  9568   0.116E-02-0.205E-05
CGA:  17    -0.312513834495E+03   -0.54857E-04   -0.54856E-04  9568   0.107E-02 0.477E-06
CGA:  18    -0.312513872256E+03   -0.37762E-04   -0.37833E-04  9568   0.533E-03 0.273E-05
CGA:  19    -0.312513906526E+03   -0.34269E-04   -0.34323E-04  9568   0.412E-03-0.322E-05
CGA:  20    -0.312513931617E+03   -0.25091E-04   -0.25056E-04  9568   0.493E-03 0.281E-05
CGA:  21    -0.312513947151E+03   -0.15534E-04   -0.15530E-04  9568   0.182E-03 0.223E-06
CGA:  22    -0.312513958199E+03   -0.11048E-04   -0.11050E-04  9568   0.141E-03-0.204E-06
CGA:  23    -0.312513965838E+03   -0.76392E-05   -0.76378E-05  9568   0.158E-03 0.359E-06
 160 F= -.31251397E+03 E0= -.31249666E+03  d E =0.208199E-02  mag=    24.3145
       N       E                     dE             d eps       ncg     rms          ort
SDA:   1    -0.312330018553E+03    0.18394E+00    0.00000E+00  9568   0.192E+01 0.000E+00
CGA:   2    -0.312379486125E+03   -0.49468E-01   -0.47422E-01  9568   0.692E+00 0.275E-01
CGA:   3    -0.312415998105E+03   -0.36512E-01   -0.36516E-01  9568   0.871E+00-0.481E-03
CGA:   4    -0.312463575319E+03   -0.47577E-01   -0.47506E-01  9568   0.274E+00 0.696E-02
CGA:   5    -0.312477035298E+03   -0.13460E-01   -0.13460E-01  9568   0.415E+00-0.366E-03
CGA:   6    -0.312494716285E+03   -0.17681E-01   -0.17663E-01  9568   0.186E+00-0.109E-02
CGA:   7    -0.312506857876E+03   -0.12142E-01   -0.12231E-01  9568   0.537E-01-0.391E-02
CGA:   8    -0.312509777917E+03   -0.29200E-02   -0.29122E-02  9568   0.673E-01 0.766E-03
CGA:   9    -0.312511985357E+03   -0.22074E-02   -0.21974E-02  9568   0.226E-01 0.122E-04
CGA:  10    -0.312513525857E+03   -0.15405E-02   -0.15370E-02  9568   0.900E-02 0.144E-03
CGA:  11    -0.312513790833E+03   -0.26498E-03   -0.26689E-03  9568   0.719E-02-0.101E-04
CGA:  12    -0.312514385727E+03   -0.59489E-03   -0.59436E-03  9568   0.385E-02 0.146E-04
CGA:  13    -0.312514511439E+03   -0.12571E-03   -0.12583E-03  9568   0.212E-02 0.126E-05
CGA:  14    -0.312514617116E+03   -0.10568E-03   -0.10568E-03  9568   0.202E-02-0.274E-05
CGA:  15    -0.312514713953E+03   -0.96837E-04   -0.96851E-04  9568   0.872E-03 0.900E-05
CGA:  16    -0.312514778982E+03   -0.65029E-04   -0.65111E-04  9568   0.982E-03-0.312E-05
CGA:  17    -0.312514805761E+03   -0.26779E-04   -0.26846E-04  9568   0.359E-03 0.902E-06
CGA:  18    -0.312514837841E+03   -0.32080E-04   -0.32097E-04  9568   0.317E-03-0.271E-06
CGA:  19    -0.312514849926E+03   -0.12085E-04   -0.12103E-04  9568   0.321E-03 0.100E-05
CGA:  20    -0.312514866697E+03   -0.16771E-04   -0.16773E-04  9568   0.138E-03-0.109E-05
CGA:  21    -0.312514874542E+03   -0.78452E-05   -0.78479E-05  9568   0.142E-03-0.410E-06
 161 F= -.31251487E+03 E0= -.31249751E+03  d E =-.908704E-03  mag=    24.3072
       N       E                     dE             d eps       ncg     rms          ort
SDA:   1    -0.312461891755E+03    0.52975E-01    0.00000E+00  9568   0.759E+00 0.000E+00
CGA:   2    -0.312477039617E+03   -0.15148E-01   -0.15545E-01  9568   0.195E+00-0.139E-01
CGA:   3    -0.312487993751E+03   -0.10954E-01   -0.10965E-01  9568   0.229E+00-0.782E-03
CGA:   4    -0.312501401457E+03   -0.13408E-01   -0.13421E-01  9568   0.610E-01-0.880E-03
CGA:   5    -0.312505108339E+03   -0.37069E-02   -0.36877E-02  9568   0.127E+00 0.123E-02
CGA:   6    -0.312511284843E+03   -0.61765E-02   -0.61729E-02  9568   0.324E-01-0.569E-03
CGA:   7    -0.312512683741E+03   -0.13989E-02   -0.13995E-02  9568   0.230E-01 0.289E-04
CGA:   8    -0.312513617298E+03   -0.93356E-03   -0.93167E-03  9568   0.178E-01-0.603E-04
CGA:   9    -0.312514438495E+03   -0.82120E-03   -0.82156E-03  9568   0.569E-02 0.606E-04
CGA:  10    -0.312514667939E+03   -0.22944E-03   -0.22930E-03  9568   0.306E-02-0.808E-05
CGA:  11    -0.312514799280E+03   -0.13134E-03   -0.13138E-03  9568   0.311E-02 0.438E-05
CGA:  12    -0.312514977030E+03   -0.17775E-03   -0.17782E-03  9568   0.961E-03-0.606E-05
CGA:  13    -0.312515011996E+03   -0.34966E-04   -0.35006E-04  9568   0.777E-03 0.521E-06
CGA:  14    -0.312515048780E+03   -0.36785E-04   -0.36780E-04  9568   0.529E-03-0.374E-05
CGA:  15    -0.312515081549E+03   -0.32768E-04   -0.32737E-04  9568   0.440E-03 0.218E-05
CGA:  16    -0.312515096942E+03   -0.15393E-04   -0.15370E-04  9568   0.226E-03-0.664E-06
CGA:  17    -0.312515106524E+03   -0.95821E-05   -0.95773E-05  9568   0.142E-03-0.866E-06
CGA:  18    -0.312515117638E+03   -0.11114E-04   -0.11092E-04  9568   0.157E-03 0.709E-06
CGA:  19    -0.312515122581E+03   -0.49427E-05   -0.49533E-05  9568   0.836E-04 0.383E-06
 162 F= -.31251512E+03 E0= -.31249778E+03  d E =-.248038E-03  mag=    24.3105
       N       E                     dE             d eps       ncg     rms          ort
SDA:   1    -0.312494529212E+03    0.20588E-01    0.00000E+00  9568   0.511E+00 0.000E+00
CGA:   2    -0.312503633153E+03   -0.91039E-02   -0.81288E-02  9568   0.609E-01 0.468E-01
CGA:   3    -0.312506211581E+03   -0.25784E-02   -0.25768E-02  9568   0.479E-01-0.780E-04
CGA:   4    -0.312509275324E+03   -0.30637E-02   -0.30586E-02  9568   0.707E-01 0.245E-03
CGA:   5    -0.312510991521E+03   -0.17162E-02   -0.17117E-02  9568   0.190E-01 0.931E-04
CGA:   6    -0.312512244094E+03   -0.12526E-02   -0.12491E-02  9568   0.215E-01 0.148E-03
CGA:   7    -0.312512940600E+03   -0.69651E-03   -0.69722E-03  9568   0.195E-01 0.694E-05
CGA:   8    -0.312513938681E+03   -0.99808E-03   -0.99830E-03  9568   0.578E-02-0.353E-04
CGA:   9    -0.312514126496E+03   -0.18781E-03   -0.18781E-03  9568   0.452E-02-0.305E-05
CGA:  10    -0.312514298431E+03   -0.17193E-03   -0.17213E-03  9568   0.250E-02 0.938E-05
CGA:  11    -0.312514423479E+03   -0.12505E-03   -0.12509E-03  9568   0.194E-02-0.738E-05
CGA:  12    -0.312514484493E+03   -0.61014E-04   -0.60869E-04  9568   0.913E-03-0.119E-05
CGA:  13    -0.312514511550E+03   -0.27056E-04   -0.27132E-04  9568   0.302E-03 0.335E-05
CGA:  14    -0.312514541501E+03   -0.29952E-04   -0.29894E-04  9568   0.749E-03 0.104E-05
CGA:  15    -0.312514559215E+03   -0.17714E-04   -0.17731E-04  9568   0.122E-03 0.231E-06
CGA:  16    -0.312514567521E+03   -0.83063E-05   -0.83006E-05  9568   0.101E-03 0.243E-06
 163 F= -.31251457E+03 E0= -.31249721E+03  d E =0.555059E-03  mag=    24.3090
       N       E                     dE             d eps       ncg     rms          ort
SDA:   1    -0.312502444022E+03    0.12115E-01    0.00000E+00  9568   0.399E+00 0.000E+00
CGA:   2    -0.312508557114E+03   -0.61131E-02   -0.54238E-02  9568   0.237E-01 0.405E-01
CGA:   3    -0.312509777874E+03   -0.12208E-02   -0.12218E-02  9568   0.418E-01-0.302E-03
CGA:   4    -0.312511002864E+03   -0.12250E-02   -0.12326E-02  9568   0.241E-01-0.123E-04
CGA:   5    -0.312512047135E+03   -0.10443E-02   -0.10444E-02  9568   0.343E-01 0.437E-04
CGA:   6    -0.312512821304E+03   -0.77417E-03   -0.76926E-03  9568   0.789E-02 0.100E-03
CGA:   7    -0.312513101087E+03   -0.27978E-03   -0.27956E-03  9568   0.119E-01-0.568E-05
CGA:   8    -0.312513564924E+03   -0.46384E-03   -0.46385E-03  9568   0.805E-02 0.536E-05
CGA:   9    -0.312513797336E+03   -0.23241E-03   -0.23253E-03  9568   0.512E-02-0.439E-05
CGA:  10    -0.312513910294E+03   -0.11296E-03   -0.11257E-03  9568   0.152E-02 0.534E-05
CGA:  11    -0.312513962932E+03   -0.52638E-04   -0.52681E-04  9568   0.147E-02 0.553E-05
CGA:  12    -0.312514005531E+03   -0.42599E-04   -0.42681E-04  9568   0.988E-03 0.422E-05
CGA:  13    -0.312514052663E+03   -0.47132E-04   -0.47159E-04  9568   0.981E-03-0.373E-05
CGA:  14    -0.312514070904E+03   -0.18241E-04   -0.18203E-04  9568   0.185E-03-0.722E-06
CGA:  15    -0.312514078720E+03   -0.78160E-05   -0.78134E-05  9568   0.294E-03 0.824E-06
 164 F= -.31251408E+03 E0= -.31249675E+03  d E =0.488801E-03  mag=    24.3083
       N       E                     dE             d eps       ncg     rms          ort
SDA:   1    -0.312478797303E+03    0.35274E-01    0.00000E+00  9568   0.413E+00 0.000E+00
CGA:   2    -0.312486895689E+03   -0.80984E-02   -0.83289E-02  9568   0.123E+00-0.538E-02
CGA:   3    -0.312494130355E+03   -0.72347E-02   -0.73187E-02  9568   0.131E+00-0.336E-02
CGA:   4    -0.312502670978E+03   -0.85406E-02   -0.84827E-02  9568   0.178E+00 0.193E-02
CGA:   5    -0.312508841493E+03   -0.61705E-02   -0.61164E-02  9568   0.591E-01-0.233E-02
CGA:   6    -0.312510570699E+03   -0.17292E-02   -0.17446E-02  9568   0.144E-01 0.240E-03
CGA:   7    -0.312511738325E+03   -0.11676E-02   -0.11649E-02  9568   0.282E-01 0.664E-04
CGA:   8    -0.312512626556E+03   -0.88823E-03   -0.88703E-03  9568   0.376E-02-0.309E-04
CGA:   9    -0.312512815620E+03   -0.18906E-03   -0.18908E-03  9568   0.347E-02-0.541E-06
CGA:  10    -0.312512938580E+03   -0.12296E-03   -0.12288E-03  9568   0.212E-02-0.584E-05
CGA:  11    -0.312513063417E+03   -0.12484E-03   -0.12468E-03  9568   0.104E-02 0.861E-05
CGA:  12    -0.312513090885E+03   -0.27468E-04   -0.27458E-04  9568   0.456E-03 0.140E-05
CGA:  13    -0.312513122919E+03   -0.32034E-04   -0.32042E-04  9568   0.297E-03-0.258E-06
CGA:  14    -0.312513136001E+03   -0.13082E-04   -0.13081E-04  9568   0.306E-03 0.663E-06
CGA:  15    -0.312513150200E+03   -0.14199E-04   -0.14205E-04  9568   0.929E-04-0.159E-05
CGA:  16    -0.312513155003E+03   -0.48025E-05   -0.47898E-05  9568   0.104E-03 0.143E-05
 165 F= -.31251316E+03 E0= -.31249586E+03  d E =0.923717E-03  mag=    24.3079
       N       E                     dE             d eps       ncg     rms          ort
SDA:   1    -0.312502754338E+03    0.10396E-01    0.00000E+00  9568   0.159E+00 0.000E+00
CGA:   2    -0.312505407881E+03   -0.26535E-02   -0.25453E-02  9568   0.247E-01 0.476E-02
CGA:   3    -0.312508229044E+03   -0.28212E-02   -0.28146E-02  9568   0.428E-01 0.103E-03
CGA:   4    -0.312509985768E+03   -0.17567E-02   -0.17570E-02  9568   0.216E-01 0.221E-04
CGA:   5    -0.312510654012E+03   -0.66824E-03   -0.66565E-03  9568   0.156E-01-0.206E-04
CGA:   6    -0.312511604152E+03   -0.95014E-03   -0.94884E-03  9568   0.734E-02 0.644E-04
CGA:   7    -0.312511990855E+03   -0.38670E-03   -0.38646E-03  9568   0.769E-02 0.222E-04
CGA:   8    -0.312512193441E+03   -0.20259E-03   -0.20197E-03  9568   0.176E-02 0.123E-05
CGA:   9    -0.312512319243E+03   -0.12580E-03   -0.12570E-03  9568   0.116E-02 0.358E-05
CGA:  10    -0.312512357115E+03   -0.37873E-04   -0.37826E-04  9568   0.977E-03-0.105E-05
CGA:  11    -0.312512402157E+03   -0.45041E-04   -0.45043E-04  9568   0.277E-03-0.247E-05
CGA:  12    -0.312512424329E+03   -0.22173E-04   -0.22079E-04  9568   0.168E-03 0.267E-05
CGA:  13    -0.312512429651E+03   -0.53221E-05   -0.53081E-05  9568   0.155E-03-0.621E-06
CGA:  14    -0.312512440717E+03   -0.11066E-04   -0.11060E-04  9568   0.927E-04 0.200E-06
CGA:  15    -0.312512444241E+03   -0.35243E-05   -0.35355E-05  9568   0.302E-04 0.116E-05
 166 F= -.31251244E+03 E0= -.31249515E+03  d E =0.710762E-03  mag=    24.3086
       N       E                     dE             d eps       ncg     rms          ort
SDA:   1    -0.312502413998E+03    0.10027E-01    0.00000E+00  9568   0.338E+00 0.000E+00
CGA:   2    -0.312507461715E+03   -0.50477E-02   -0.48882E-02  9568   0.138E-01 0.837E-02
CGA:   3    -0.312508841304E+03   -0.13796E-02   -0.13716E-02  9568   0.294E-01 0.163E-03
CGA:   4    -0.312510025169E+03   -0.11839E-02   -0.11848E-02  9568   0.232E-01 0.288E-04
CGA:   5    -0.312510861051E+03   -0.83588E-03   -0.83440E-03  9568   0.728E-02-0.265E-04
CGA:   6    -0.312511217517E+03   -0.35647E-03   -0.35644E-03  9568   0.440E-02 0.283E-04
CGA:   7    -0.312511469545E+03   -0.25203E-03   -0.25189E-03  9568   0.632E-02 0.109E-04
CGA:   8    -0.312511651220E+03   -0.18167E-03   -0.18169E-03  9568   0.841E-03-0.483E-05
CGA:   9    -0.312511710913E+03   -0.59693E-04   -0.59730E-04  9568   0.646E-03-0.147E-05
CGA:  10    -0.312511738011E+03   -0.27097E-04   -0.27106E-04  9568   0.710E-03 0.965E-06
CGA:  11    -0.312511764099E+03   -0.26089E-04   -0.26078E-04  9568   0.113E-03-0.812E-06
CGA:  12    -0.312511773782E+03   -0.96822E-05   -0.96659E-05  9568   0.146E-03 0.440E-06
 167 F= -.31251177E+03 E0= -.31249448E+03  d E =0.670460E-03  mag=    24.3093
