       N       E                     dE             d eps       ncg     rms          rms(c)
DAV:   1     0.581482664947E+04    0.58148E+04   -0.21673E+05 28624   0.158E+03
DAV:   2     0.570637016947E+03   -0.52442E+04   -0.49062E+04 28968   0.474E+02
DAV:   3    -0.373080173652E+03   -0.94372E+03   -0.92595E+03 30400   0.206E+02
DAV:   4    -0.416528659361E+03   -0.43448E+02   -0.41843E+02 36456   0.486E+01
DAV:   5    -0.418466776323E+03   -0.19381E+01   -0.18862E+01 39432   0.945E+00    0.876E+01
DAV:   6    -0.311825207037E+03    0.10664E+03   -0.61272E+02 39048   0.770E+01    0.423E+01
DAV:   7    -0.338248826585E+03   -0.26424E+02   -0.38302E+02 39248   0.475E+01    0.412E+01
DAV:   8    -0.335650887702E+03    0.25979E+01   -0.78336E+01 36984   0.260E+01    0.404E+01
DAV:   9    -0.333093841331E+03    0.25570E+01   -0.76357E+01 37040   0.169E+01    0.401E+01
DAV:  10    -0.329975111299E+03    0.31187E+01   -0.40187E+01 35664   0.768E+00    0.351E+01
DAV:  11    -0.331951584726E+03   -0.19765E+01   -0.85455E+01 37072   0.142E+01    0.266E+01
DAV:  12    -0.333660303931E+03   -0.17087E+01   -0.94200E+00 38112   0.963E+00    0.333E+01
DAV:  13    -0.337910922378E+03   -0.42506E+01   -0.59021E+01 37552   0.106E+01    0.315E+01
DAV:  14    -0.340511536516E+03   -0.26006E+01   -0.60633E+00 35616   0.856E+00    0.209E+01
DAV:  15    -0.343980313087E+03   -0.34688E+01   -0.11361E+01 38840   0.579E+00    0.323E+01
DAV:  16    -0.344746772291E+03   -0.76646E+00   -0.59609E+01 35680   0.697E+00    0.239E+01
DAV:  17    -0.344291133590E+03    0.45564E+00   -0.85662E-01 35120   0.263E+00    0.131E+01
DAV:  18    -0.347514697298E+03   -0.32236E+01   -0.25264E+00 35608   0.385E+00    0.155E+01
DAV:  19    -0.347934677698E+03   -0.41998E+00   -0.50397E-01 32448   0.224E+00    0.113E+01
DAV:  20    -0.348479292274E+03   -0.54461E+00   -0.49809E-01 34992   0.194E+00    0.906E+00
DAV:  21    -0.349516655563E+03   -0.10374E+01   -0.55963E-01 35096   0.177E+00    0.863E+00
DAV:  22    -0.350316966421E+03   -0.80031E+00   -0.39770E-01 34920   0.157E+00    0.993E+00
DAV:  23    -0.350666899012E+03   -0.34993E+00   -0.17057E-01 36248   0.137E+00    0.102E+01
DAV:  24    -0.351017556627E+03   -0.35066E+00   -0.55828E-01 35448   0.192E+00    0.780E+00
DAV:  25    -0.351579037371E+03   -0.56148E+00   -0.52260E-01 34856   0.191E+00    0.714E+00
DAV:  26    -0.351663754336E+03   -0.84717E-01   -0.22300E-01 38336   0.151E+00    0.755E+00
DAV:  27    -0.351766073468E+03   -0.10232E+00   -0.10519E-01 35504   0.936E-01    0.770E+00
DAV:  28    -0.351774836928E+03   -0.87635E-02   -0.32591E-02 32976   0.557E-01    0.676E+00
DAV:  29    -0.351846376501E+03   -0.71540E-01   -0.31173E-02 36048   0.607E-01    0.557E+00
DAV:  30    -0.351959005631E+03   -0.11263E+00   -0.14299E-01 36064   0.769E-01    0.405E+00
DAV:  31    -0.351959125777E+03   -0.12015E-03   -0.16999E-02 30040   0.384E-01    0.458E+00
DAV:  32    -0.352026933880E+03   -0.67808E-01   -0.12091E-02 32792   0.393E-01    0.444E+00
DAV:  33    -0.352116068057E+03   -0.89134E-01   -0.25189E-02 35272   0.490E-01    0.410E+00
DAV:  34    -0.352185927129E+03   -0.69859E-01   -0.41817E-02 35224   0.581E-01    0.340E+00
DAV:  35    -0.352229638843E+03   -0.43712E-01   -0.40335E-02 34800   0.556E-01    0.366E+00
DAV:  36    -0.352230156844E+03   -0.51800E-03   -0.58557E-03 33608   0.282E-01    0.331E+00
DAV:  37    -0.352241275669E+03   -0.11119E-01   -0.37220E-03 33320   0.171E-01    0.326E+00
DAV:  38    -0.352263497628E+03   -0.22222E-01   -0.13140E-02 34576   0.329E-01    0.252E+00
DAV:  39    -0.352296540589E+03   -0.33043E-01   -0.39349E-02 33856   0.613E-01    0.164E+00
DAV:  40    -0.352302062970E+03   -0.55224E-02   -0.15524E-02 38816   0.359E-01    0.122E+00
DAV:  41    -0.352303280682E+03   -0.12177E-02   -0.29910E-03 31704   0.170E-01    0.130E+00
DAV:  42    -0.352303353371E+03   -0.72689E-04   -0.40172E-04 34056   0.588E-02    0.122E+00
DAV:  43    -0.352305579442E+03   -0.22261E-02   -0.15450E-03 36048   0.114E-01    0.124E+00
DAV:  44    -0.352307031944E+03   -0.14525E-02   -0.27421E-03 35504   0.160E-01    0.997E-01
DAV:  45    -0.352309198516E+03   -0.21666E-02   -0.11267E-02 34464   0.286E-01    0.766E-01
DAV:  46    -0.352308861987E+03    0.33653E-03   -0.86188E-03 34568   0.269E-01    0.708E-01
DAV:  47    -0.352308733092E+03    0.12890E-03   -0.18560E-03 33680   0.138E-01    0.600E-01
DAV:  48    -0.352308320095E+03    0.41300E-03   -0.12129E-03 34752   0.111E-01    0.372E-01
DAV:  49    -0.352308263420E+03    0.56675E-04   -0.64358E-04 35408   0.739E-02    0.269E-01
DAV:  50    -0.352308148730E+03    0.11469E-03   -0.48685E-04 35880   0.673E-02    0.307E-01
DAV:  51    -0.352307971817E+03    0.17691E-03   -0.66351E-04 37440   0.837E-02    0.226E-01
DAV:  52    -0.352307969372E+03    0.24443E-05   -0.25583E-04 33624   0.590E-02    0.124E-01
DAV:  53    -0.352307963908E+03    0.54644E-05   -0.17105E-04 32112   0.399E-02    0.145E-01
DAV:  54    -0.352307934461E+03    0.29447E-04   -0.41443E-05 24784   0.237E-02    0.134E-01
DAV:  55    -0.352307936588E+03   -0.21268E-05   -0.25343E-05 21960   0.162E-02
   1 F= -.35230794E+03 E0= -.35229206E+03  d E =-.352308E+03  mag=     8.0470
       N       E                     dE             d eps       ncg     rms          rms(c)
DAV:   1    -0.352320373883E+03   -0.12439E-01   -0.79267E-03 31128   0.203E-01    0.949E-02
DAV:   2    -0.352321890591E+03   -0.15167E-02   -0.56088E-03 36936   0.142E-01    0.831E-01
DAV:   3    -0.352320445670E+03    0.14449E-02   -0.19217E-03 34400   0.991E-02    0.325E-01
DAV:   4    -0.352320537428E+03   -0.91758E-04   -0.32629E-05 21344   0.148E-02    0.283E-01
DAV:   5    -0.352320515223E+03    0.22205E-04   -0.70586E-05 23256   0.312E-02    0.272E-01
DAV:   6    -0.352320475766E+03    0.39457E-04   -0.67676E-05 21544   0.257E-02    0.220E-01
DAV:   7    -0.352320438510E+03    0.37256E-04   -0.53009E-05 21032   0.238E-02    0.171E-01
DAV:   8    -0.352320428751E+03    0.97590E-05   -0.11764E-04 21024   0.285E-02    0.149E-01
DAV:   9    -0.352320412655E+03    0.16096E-04   -0.57014E-05 21328   0.239E-02    0.105E-01
DAV:  10    -0.352320405107E+03    0.75473E-05   -0.29533E-05 20544   0.194E-02
   2 F= -.35232041E+03 E0= -.35230445E+03  d E =-.124685E-01  mag=     8.0193
       N       E                     dE             d eps       ncg     rms          rms(c)
DAV:   1    -0.352861828216E+03   -0.54142E+00   -0.26746E+01 31528   0.116E+01    0.102E+00
DAV:   2    -0.352978922448E+03   -0.11709E+00   -0.11804E+00 28928   0.212E+00    0.233E+00
DAV:   3    -0.352976957247E+03    0.19652E-02   -0.13619E-01 41704   0.835E-01    0.208E+00
DAV:   4    -0.352969906897E+03    0.70503E-02   -0.43986E-02 39784   0.478E-01    0.123E+00
DAV:   5    -0.352966907253E+03    0.29996E-02   -0.10488E-02 39056   0.328E-01    0.758E-01
DAV:   6    -0.352967622539E+03   -0.71529E-03   -0.74161E-03 38856   0.248E-01    0.112E+00
DAV:   7    -0.352966023351E+03    0.15992E-02   -0.11559E-02 39256   0.315E-01    0.922E-01
DAV:   8    -0.352964616286E+03    0.14071E-02   -0.99790E-03 39488   0.270E-01    0.729E-01
DAV:   9    -0.352964069833E+03    0.54645E-03   -0.39769E-03 38880   0.188E-01    0.443E-01
DAV:  10    -0.352963958020E+03    0.11181E-03   -0.99400E-04 38960   0.121E-01    0.226E-01
DAV:  11    -0.352963942628E+03    0.15392E-04   -0.33757E-04 39136   0.728E-02    0.178E-01
DAV:  12    -0.352963936623E+03    0.60051E-05   -0.13466E-04 27912   0.403E-02    0.189E-01
DAV:  13    -0.352963904492E+03    0.32130E-04   -0.14122E-04 24176   0.398E-02    0.174E-01
DAV:  14    -0.352963884894E+03    0.19598E-04   -0.23126E-04 32640   0.594E-02    0.184E-01
DAV:  15    -0.352963891816E+03   -0.69217E-05   -0.39023E-04 35304   0.793E-02    0.233E-01
DAV:  16    -0.352963835937E+03    0.55879E-04   -0.49439E-04 30352   0.743E-02    0.137E-01
DAV:  17    -0.352963861262E+03   -0.25325E-04   -0.19813E-04 31912   0.523E-02    0.717E-02
DAV:  18    -0.352963888227E+03   -0.26965E-04   -0.80808E-05 27520   0.271E-02    0.566E-02
DAV:  19    -0.352963896336E+03   -0.81099E-05   -0.29691E-05 22888   0.190E-02
   3 F= -.35296390E+03 E0= -.35294813E+03  d E =-.643491E+00  mag=     8.0030
       N       E                     dE             d eps       ncg     rms          rms(c)
DAV:   1    -0.353342081825E+03   -0.37819E+00   -0.13716E+02 31448   0.265E+01    0.268E+00
DAV:   2    -0.354202363099E+03   -0.86028E+00   -0.75457E+00 29760   0.527E+00    0.132E+01
DAV:   3    -0.354013957225E+03    0.18841E+00   -0.19090E+00 39496   0.220E+00    0.405E+00
DAV:   4    -0.354028021902E+03   -0.14065E-01   -0.23279E-01 37888   0.119E+00    0.422E+00
DAV:   5    -0.353994784672E+03    0.33237E-01   -0.12790E-01 38040   0.937E-01    0.233E+00
DAV:   6    -0.354000849585E+03   -0.60649E-02   -0.56706E-02 39520   0.738E-01    0.256E+00
DAV:   7    -0.353996572376E+03    0.42772E-02   -0.85088E-02 40112   0.658E-01    0.202E+00
DAV:   8    -0.353991438239E+03    0.51341E-02   -0.42329E-02 38776   0.482E-01    0.148E+00
DAV:   9    -0.353992369564E+03   -0.93133E-03   -0.17087E-02 38960   0.429E-01    0.175E+00
DAV:  10    -0.353986251419E+03    0.61181E-02   -0.13426E-02 39544   0.397E-01    0.816E-01
DAV:  11    -0.353988265974E+03   -0.20146E-02   -0.12095E-02 38904   0.354E-01    0.131E+00
DAV:  12    -0.353985704156E+03    0.25618E-02   -0.96054E-03 39008   0.334E-01    0.850E-01
DAV:  13    -0.353984498432E+03    0.12057E-02   -0.43853E-03 39272   0.276E-01    0.501E-01
DAV:  14    -0.353984441328E+03    0.57104E-04   -0.16023E-03 39368   0.133E-01    0.415E-01
DAV:  15    -0.353984321206E+03    0.12012E-03   -0.47451E-04 37952   0.834E-02    0.391E-01
DAV:  16    -0.353984240366E+03    0.80839E-04   -0.34133E-04 32232   0.573E-02    0.400E-01
DAV:  17    -0.353983970091E+03    0.27028E-03   -0.58486E-04 37856   0.849E-02    0.320E-01
DAV:  18    -0.353983536908E+03    0.43318E-03   -0.12440E-03 36496   0.132E-01    0.180E-01
DAV:  19    -0.353983821326E+03   -0.28442E-03   -0.89356E-04 37752   0.108E-01    0.180E-01
DAV:  20    -0.353983850560E+03   -0.29234E-04   -0.34571E-04 37920   0.744E-02    0.105E-01
DAV:  21    -0.353983878863E+03   -0.28303E-04   -0.10705E-04 28640   0.315E-02    0.852E-02
DAV:  22    -0.353983889387E+03   -0.10524E-04   -0.28853E-05 22568   0.209E-02    0.784E-02
DAV:  23    -0.353983894115E+03   -0.47277E-05   -0.14790E-05 18704   0.147E-02
   4 F= -.35398389E+03 E0= -.35396816E+03  d E =-.102000E+01  mag=     8.0004
       N       E                     dE             d eps       ncg     rms          rms(c)
DAV:   1    -0.353972666981E+03    0.11222E-01   -0.10076E+02 30832   0.238E+01    0.226E+00
DAV:   2    -0.354600787189E+03   -0.62812E+00   -0.53744E+00 29088   0.482E+00    0.115E+01
DAV:   3    -0.354446174070E+03    0.15461E+00   -0.13271E+00 40240   0.197E+00    0.320E+00
DAV:   4    -0.354479722195E+03   -0.33548E-01   -0.20373E-01 38520   0.103E+00    0.453E+00
DAV:   5    -0.354438299981E+03    0.41422E-01   -0.85646E-02 38904   0.801E-01    0.143E+00
DAV:   6    -0.354451218571E+03   -0.12919E-01   -0.57382E-02 39016   0.620E-01    0.260E+00
DAV:   7    -0.354441216627E+03    0.10002E-01   -0.55844E-02 40040   0.561E-01    0.158E+00
DAV:   8    -0.354441098396E+03    0.11823E-03   -0.14522E-02 38952   0.385E-01    0.138E+00
DAV:   9    -0.354439606842E+03    0.14916E-02   -0.12900E-02 38968   0.348E-01    0.103E+00
DAV:  10    -0.354438429224E+03    0.11776E-02   -0.10419E-02 39024   0.322E-01    0.759E-01
DAV:  11    -0.354439552674E+03   -0.11234E-02   -0.91279E-03 38728   0.284E-01    0.107E+00
DAV:  12    -0.354437446994E+03    0.21057E-02   -0.52654E-03 38064   0.260E-01    0.512E-01
DAV:  13    -0.354437450603E+03   -0.36090E-05   -0.23985E-03 39472   0.179E-01    0.410E-01
DAV:  14    -0.354437507281E+03   -0.56678E-04   -0.68703E-04 37920   0.828E-02    0.373E-01
DAV:  15    -0.354437443416E+03    0.63866E-04   -0.92920E-05 28096   0.304E-02    0.360E-01
DAV:  16    -0.354437358849E+03    0.84567E-04   -0.99428E-05 25776   0.341E-02    0.389E-01
DAV:  17    -0.354437327238E+03    0.31611E-04   -0.34411E-05 23664   0.209E-02    0.392E-01
DAV:  18    -0.354437231356E+03    0.95882E-04   -0.59088E-04 34584   0.860E-02    0.290E-01
DAV:  19    -0.354436915028E+03    0.31633E-03   -0.11573E-03 37064   0.136E-01    0.173E-01
DAV:  20    -0.354436902056E+03    0.12973E-04   -0.60319E-04 38648   0.995E-02    0.164E-01
DAV:  21    -0.354436926325E+03   -0.24269E-04   -0.18256E-04 36584   0.557E-02    0.156E-01
DAV:  22    -0.354436972230E+03   -0.45905E-04   -0.10854E-04 29928   0.387E-02    0.998E-02
DAV:  23    -0.354436996825E+03   -0.24595E-04   -0.10857E-04 31752   0.355E-02    0.693E-02
DAV:  24    -0.354437000968E+03   -0.41426E-05   -0.55705E-05 26048   0.283E-02
   5 F= -.35443700E+03 E0= -.35442110E+03  d E =-.453107E+00  mag=     8.0000
       N       E                     dE             d eps       ncg     rms          rms(c)
DAV:   1    -0.354091982741E+03    0.34501E+00   -0.13333E+02 30040   0.282E+01    0.234E+00
DAV:   2    -0.354753317921E+03   -0.66134E+00   -0.62980E+00 28776   0.568E+00    0.709E+00
DAV:   3    -0.354708725522E+03    0.44592E-01   -0.83129E-01 40792   0.200E+00    0.447E+00
DAV:   4    -0.354679284485E+03    0.29441E-01   -0.17404E-01 39696   0.106E+00    0.285E+00
DAV:   5    -0.354672065445E+03    0.72190E-02   -0.80644E-02 39712   0.747E-01    0.234E+00
DAV:   6    -0.354670549157E+03    0.15163E-02   -0.58834E-02 39448   0.623E-01    0.211E+00
DAV:   7    -0.354668163415E+03    0.23857E-02   -0.50991E-02 38632   0.527E-01    0.202E+00
DAV:   8    -0.354664450239E+03    0.37132E-02   -0.20362E-02 39312   0.460E-01    0.177E+00
DAV:   9    -0.354661388800E+03    0.30614E-02   -0.19570E-02 40232   0.446E-01    0.143E+00
DAV:  10    -0.354659740667E+03    0.16481E-02   -0.15538E-02 39136   0.429E-01    0.119E+00
DAV:  11    -0.354659050569E+03    0.69010E-03   -0.11482E-02 39392   0.342E-01    0.985E-01
DAV:  12    -0.354658480085E+03    0.57048E-03   -0.45706E-03 37792   0.268E-01    0.601E-01
DAV:  13    -0.354658238166E+03    0.24192E-03   -0.22945E-03 39096   0.185E-01    0.436E-01
DAV:  14    -0.354658377741E+03   -0.13958E-03   -0.12719E-03 39704   0.141E-01    0.473E-01
DAV:  15    -0.354658246085E+03    0.13166E-03   -0.11122E-03 38056   0.108E-01    0.443E-01
DAV:  16    -0.354657992336E+03    0.25375E-03   -0.67767E-04 37288   0.943E-02    0.303E-01
DAV:  17    -0.354657773579E+03    0.21876E-03   -0.71016E-04 38368   0.106E-01    0.199E-01
DAV:  18    -0.354657893786E+03   -0.12021E-03   -0.76478E-04 36112   0.947E-02    0.147E-01
DAV:  19    -0.354657988138E+03   -0.94353E-04   -0.31317E-04 37544   0.745E-02    0.133E-01
DAV:  20    -0.354657983015E+03    0.51230E-05   -0.14413E-04 30600   0.440E-02    0.662E-02
DAV:  21    -0.354657999081E+03   -0.16066E-04   -0.29555E-05 22376   0.165E-02    0.584E-02
DAV:  22    -0.354658003176E+03   -0.40951E-05   -0.11447E-05 17696   0.123E-02
   6 F= -.35465800E+03 E0= -.35464188E+03  d E =-.221002E+00  mag=     8.0000
       N       E                     dE             d eps       ncg     rms          rms(c)
DAV:   1    -0.354205847842E+03    0.45215E+00   -0.13177E+02 29896   0.293E+01    0.220E+00
DAV:   2    -0.354790033143E+03   -0.58419E+00   -0.58284E+00 28384   0.564E+00    0.411E+00
DAV:   3    -0.354794972211E+03   -0.49391E-02   -0.46355E-01 40528   0.179E+00    0.446E+00
DAV:   4    -0.354757074254E+03    0.37898E-01   -0.19740E-01 39680   0.101E+00    0.234E+00
DAV:   5    -0.354757206885E+03   -0.13263E-03   -0.57954E-02 39720   0.697E-01    0.224E+00
DAV:   6    -0.354751313254E+03    0.58936E-02   -0.36371E-02 38952   0.511E-01    0.157E+00
DAV:   7    -0.354755205710E+03   -0.38925E-02   -0.38030E-02 39528   0.546E-01    0.232E+00
DAV:   8    -0.354747334559E+03    0.78712E-02   -0.35336E-02 39776   0.569E-01    0.186E+00
DAV:   9    -0.354742806985E+03    0.45276E-02   -0.15660E-02 39016   0.470E-01    0.865E-01
DAV:  10    -0.354743275852E+03   -0.46887E-03   -0.58151E-03 39032   0.335E-01    0.543E-01
DAV:  11    -0.354743315267E+03   -0.39416E-04   -0.28310E-03 39776   0.243E-01    0.407E-01
DAV:  12    -0.354743950775E+03   -0.63551E-03   -0.21060E-03 39192   0.144E-01    0.620E-01
DAV:  13    -0.354743381359E+03    0.56942E-03   -0.11992E-03 38536   0.122E-01    0.297E-01
DAV:  14    -0.354743495391E+03   -0.11403E-03   -0.51194E-04 39256   0.972E-02    0.276E-01
DAV:  15    -0.354743427174E+03    0.68217E-04   -0.53076E-04 40160   0.872E-02    0.212E-01
DAV:  16    -0.354743500537E+03   -0.73363E-04   -0.59659E-04 39512   0.932E-02    0.302E-01
DAV:  17    -0.354743447590E+03    0.52947E-04   -0.73568E-04 36912   0.785E-02    0.235E-01
DAV:  18    -0.354743377390E+03    0.70200E-04   -0.33365E-04 33128   0.664E-02    0.894E-02
DAV:  19    -0.354743394127E+03   -0.16737E-04   -0.60786E-05 26640   0.316E-02    0.745E-02
DAV:  20    -0.354743395808E+03   -0.16805E-05   -0.12129E-05 17928   0.118E-02
   7 F= -.35474340E+03 E0= -.35472718E+03  d E =-.853926E-01  mag=     8.0000
       N       E                     dE             d eps       ncg     rms          rms(c)
DAV:   1    -0.354458756767E+03    0.28464E+00   -0.85202E+01 30960   0.245E+01    0.173E+00
DAV:   2    -0.354803609924E+03   -0.34485E+00   -0.35140E+00 28288   0.442E+00    0.294E+00
DAV:   3    -0.354817556160E+03   -0.13946E-01   -0.34028E-01 39464   0.144E+00    0.383E+00
DAV:   4    -0.354792976345E+03    0.24580E-01   -0.15549E-01 39400   0.853E-01    0.246E+00
DAV:   5    -0.354785060527E+03    0.79158E-02   -0.36491E-02 38968   0.558E-01    0.117E+00
DAV:   6    -0.354785369136E+03   -0.30861E-03   -0.15409E-02 39560   0.383E-01    0.105E+00
DAV:   7    -0.354785869375E+03   -0.50024E-03   -0.21327E-02 38392   0.414E-01    0.134E+00
DAV:   8    -0.354782683603E+03    0.31858E-02   -0.18173E-02 39976   0.355E-01    0.101E+00
DAV:   9    -0.354782611286E+03    0.72317E-04   -0.76448E-03 38776   0.307E-01    0.949E-01
DAV:  10    -0.354781534115E+03    0.10772E-02   -0.39183E-03 39408   0.253E-01    0.392E-01
DAV:  11    -0.354781804776E+03   -0.27066E-03   -0.16563E-03 38632   0.171E-01    0.381E-01
DAV:  12    -0.354781861010E+03   -0.56234E-04   -0.82342E-04 38032   0.914E-02    0.376E-01
DAV:  13    -0.354781748661E+03    0.11235E-03   -0.37736E-04 35016   0.704E-02    0.252E-01
DAV:  14    -0.354781806032E+03   -0.57371E-04   -0.52838E-04 38712   0.840E-02    0.330E-01
DAV:  15    -0.354781732866E+03    0.73165E-04   -0.66927E-04 37136   0.922E-02    0.286E-01
DAV:  16    -0.354781606296E+03    0.12657E-03   -0.46653E-04 38920   0.786E-02    0.100E-01
DAV:  17    -0.354781695303E+03   -0.89007E-04   -0.21484E-04 39000   0.618E-02    0.106E-01
DAV:  18    -0.354781719104E+03   -0.23802E-04   -0.10276E-04 28792   0.418E-02    0.758E-02
DAV:  19    -0.354781730962E+03   -0.11858E-04   -0.30413E-05 23872   0.167E-02    0.713E-02
DAV:  20    -0.354781725734E+03    0.52282E-05   -0.57442E-06 16344   0.761E-03
   8 F= -.35478173E+03 E0= -.35476536E+03  d E =-.383299E-01  mag=     8.0000
       N       E                     dE             d eps       ncg     rms          rms(c)
DAV:   1    -0.354404220843E+03    0.37751E+00   -0.12044E+02 31032   0.288E+01    0.204E+00
DAV:   2    -0.354875704042E+03   -0.47148E+00   -0.48252E+00 28384   0.527E+00    0.418E+00
DAV:   3    -0.354874370436E+03    0.13336E-02   -0.45599E-01 37456   0.165E+00    0.406E+00
DAV:   4    -0.354849504458E+03    0.24866E-01   -0.16057E-01 39584   0.991E-01    0.271E+00
DAV:   5    -0.354840914232E+03    0.85902E-02   -0.52316E-02 39904   0.638E-01    0.167E+00
DAV:   6    -0.354840387566E+03    0.52667E-03   -0.29628E-02 39248   0.476E-01    0.149E+00
DAV:   7    -0.354843631851E+03   -0.32443E-02   -0.44700E-02 39280   0.550E-01    0.212E+00
DAV:   8    -0.354835867154E+03    0.77647E-02   -0.31671E-02 40232   0.465E-01    0.135E+00
DAV:   9    -0.354835900692E+03   -0.33538E-04   -0.16027E-02 38920   0.379E-01    0.132E+00
DAV:  10    -0.354833179159E+03    0.27215E-02   -0.56234E-03 39720   0.326E-01    0.717E-01
DAV:  11    -0.354833902612E+03   -0.72345E-03   -0.43675E-03 39320   0.275E-01    0.921E-01
DAV:  12    -0.354833087146E+03    0.81547E-03   -0.42146E-03 39384   0.247E-01    0.682E-01
DAV:  13    -0.354832333469E+03    0.75368E-03   -0.27980E-03 39976   0.209E-01    0.335E-01
DAV:  14    -0.354832997273E+03   -0.66380E-03   -0.32208E-03 39088   0.205E-01    0.422E-01
DAV:  15    -0.354832937234E+03    0.60039E-04   -0.16024E-03 38832   0.162E-01    0.247E-01
DAV:  16    -0.354833176073E+03   -0.23884E-03   -0.53695E-04 39176   0.787E-02    0.293E-01
DAV:  17    -0.354833113868E+03    0.62205E-04   -0.26159E-04 32720   0.511E-02    0.213E-01
DAV:  18    -0.354833200486E+03   -0.86618E-04   -0.20809E-04 33424   0.527E-02    0.175E-01
DAV:  19    -0.354833215422E+03   -0.14937E-04   -0.29793E-04 35472   0.570E-02    0.143E-01
DAV:  20    -0.354833203070E+03    0.12352E-04   -0.13400E-04 32224   0.383E-02    0.119E-01
DAV:  21    -0.354833149096E+03    0.53974E-04   -0.12595E-04 31880   0.434E-02    0.800E-02
DAV:  22    -0.354833161670E+03   -0.12573E-04   -0.89066E-05 30968   0.309E-02    0.552E-02
DAV:  23    -0.354833167933E+03   -0.62633E-05   -0.38901E-05 22976   0.220E-02
   9 F= -.35483317E+03 E0= -.35481672E+03  d E =-.514422E-01  mag=     8.0000
       N       E                     dE             d eps       ncg     rms          rms(c)
DAV:   1    -0.353678973403E+03    0.11542E+01   -0.13641E+02 31696   0.348E+01    0.389E+00
DAV:   2    -0.354887302122E+03   -0.12083E+01   -0.11412E+01 28304   0.778E+00    0.135E+01
DAV:   3    -0.354662217697E+03    0.22508E+00   -0.23310E+00 36584   0.294E+00    0.637E+00
DAV:   4    -0.354613920676E+03    0.48297E-01   -0.29153E-01 39536   0.154E+00    0.363E+00
DAV:   5    -0.354649342716E+03   -0.35422E-01   -0.22163E-01 38728   0.126E+00    0.532E+00
DAV:   6    -0.354604435589E+03    0.44907E-01   -0.13697E-01 39288   0.109E+00    0.296E+00
DAV:   7    -0.354630412838E+03   -0.25977E-01   -0.82715E-02 40088   0.104E+00    0.470E+00
DAV:   8    -0.354609924602E+03    0.20488E-01   -0.15142E-01 38576   0.112E+00    0.379E+00
DAV:   9    -0.354587498494E+03    0.22426E-01   -0.78339E-02 39752   0.105E+00    0.238E+00
DAV:  10    -0.354604168252E+03   -0.16670E-01   -0.12925E-01 38360   0.950E-01    0.331E+00
DAV:  11    -0.354584311143E+03    0.19857E-01   -0.90341E-02 39064   0.798E-01    0.111E+00
DAV:  12    -0.354590402253E+03   -0.60911E-02   -0.14307E-02 38944   0.466E-01    0.154E+00
DAV:  13    -0.354590065677E+03    0.33658E-03   -0.10524E-02 38496   0.387E-01    0.144E+00
DAV:  14    -0.354587394661E+03    0.26710E-02   -0.53793E-03 38040   0.316E-01    0.740E-01
DAV:  15    -0.354587151686E+03    0.24297E-03   -0.41563E-03 39552   0.249E-01    0.600E-01
DAV:  16    -0.354587136671E+03    0.15015E-04   -0.15195E-03 34688   0.132E-01    0.429E-01
DAV:  17    -0.354586972003E+03    0.16467E-03   -0.56372E-04 36712   0.903E-02    0.243E-01
DAV:  18    -0.354587050096E+03   -0.78093E-04   -0.37928E-04 38392   0.732E-02    0.231E-01
DAV:  19    -0.354587044630E+03    0.54655E-05   -0.29593E-04 35344   0.633E-02    0.173E-01
DAV:  20    -0.354587096684E+03   -0.52054E-04   -0.24685E-04 31256   0.447E-02    0.167E-01
DAV:  21    -0.354587099048E+03   -0.23641E-05   -0.70272E-05 26696   0.239E-02
  10 F= -.35458710E+03 E0= -.35457108E+03  d E =0.246069E+00  mag=     8.0000
       N       E                     dE             d eps       ncg     rms          rms(c)
DAV:   1    -0.354703418185E+03   -0.11632E+00   -0.16754E+01 31848   0.130E+01    0.162E+00
DAV:   2    -0.354888666726E+03   -0.18525E+00   -0.19172E+00 28784   0.303E+00    0.385E+00
DAV:   3    -0.354866097336E+03    0.22569E-01   -0.10275E-01 37768   0.948E-01    0.232E+00
DAV:   4    -0.354866912164E+03   -0.81483E-03   -0.46777E-02 39432   0.493E-01    0.242E+00
DAV:   5    -0.354863350237E+03    0.35619E-02   -0.28728E-02 36720   0.393E-01    0.207E+00
DAV:   6    -0.354862390511E+03    0.95973E-03   -0.42623E-02 38312   0.491E-01    0.197E+00
DAV:   7    -0.354864017400E+03   -0.16269E-02   -0.47589E-02 39224   0.690E-01    0.211E+00
DAV:   8    -0.354869397528E+03   -0.53801E-02   -0.68639E-02 38048   0.636E-01    0.285E+00
DAV:   9    -0.354853924174E+03    0.15473E-01   -0.30988E-02 38888   0.523E-01    0.758E-01
DAV:  10    -0.354855602285E+03   -0.16781E-02   -0.54824E-03 38576   0.318E-01    0.683E-01
DAV:  11    -0.354854880429E+03    0.72186E-03   -0.35217E-03 37480   0.211E-01    0.313E-01
DAV:  12    -0.354854963799E+03   -0.83370E-04   -0.77715E-04 37360   0.111E-01    0.302E-01
DAV:  13    -0.354854899338E+03    0.64462E-04   -0.33767E-04 33584   0.676E-02    0.256E-01
DAV:  14    -0.354854857810E+03    0.41527E-04   -0.22079E-04 31808   0.606E-02    0.190E-01
DAV:  15    -0.354854864065E+03   -0.62548E-05   -0.55734E-04 39592   0.820E-02    0.156E-01
DAV:  16    -0.354854911193E+03   -0.47128E-04   -0.16132E-04 33072   0.490E-02    0.148E-01
DAV:  17    -0.354854920733E+03   -0.95394E-05   -0.78124E-05 26048   0.367E-02
  11 F= -.35485492E+03 E0= -.35483881E+03  d E =-.267822E+00  mag=     8.0000
       N       E                     dE             d eps       ncg     rms          rms(c)
DAV:   1    -0.354877915517E+03   -0.23004E-01   -0.33638E+00 32008   0.581E+00    0.625E-01
DAV:   2    -0.354912650298E+03   -0.34735E-01   -0.37249E-01 28800   0.128E+00    0.151E+00
DAV:   3    -0.354909317535E+03    0.33328E-02   -0.22404E-02 37136   0.430E-01    0.807E-01
DAV:   4    -0.354910153189E+03   -0.83565E-03   -0.11711E-02 38496   0.257E-01    0.969E-01
DAV:   5    -0.354908771266E+03    0.13819E-02   -0.62007E-03 35808   0.189E-01    0.628E-01
DAV:   6    -0.354908805612E+03   -0.34346E-04   -0.53185E-03 38584   0.175E-01    0.637E-01
DAV:   7    -0.354909631458E+03   -0.82585E-03   -0.81654E-03 38408   0.253E-01    0.941E-01
DAV:   8    -0.354908400715E+03    0.12307E-02   -0.66499E-03 37848   0.224E-01    0.683E-01
DAV:   9    -0.354907959922E+03    0.44079E-03   -0.19033E-03 38792   0.156E-01    0.437E-01
DAV:  10    -0.354907709342E+03    0.25058E-03   -0.64159E-04 38072   0.115E-01    0.194E-01
DAV:  11    -0.354907691699E+03    0.17643E-04   -0.25901E-04 38424   0.657E-02    0.115E-01
DAV:  12    -0.354907695212E+03   -0.35133E-05   -0.56706E-05 25104   0.249E-02
  12 F= -.35490770E+03 E0= -.35489151E+03  d E =-.527745E-01  mag=     8.0000
       N       E                     dE             d eps       ncg     rms          rms(c)
DAV:   1    -0.354909183683E+03   -0.14920E-02   -0.21481E+00 30808   0.457E+00    0.435E-01
DAV:   2    -0.354927562208E+03   -0.18379E-01   -0.20248E-01 28512   0.954E-01    0.925E-01
DAV:   3    -0.354927020743E+03    0.54147E-03   -0.12816E-02 37568   0.317E-01    0.665E-01
DAV:   4    -0.354926881714E+03    0.13903E-03   -0.60942E-03 37720   0.190E-01    0.598E-01
DAV:   5    -0.354926477496E+03    0.40422E-03   -0.32198E-03 37728   0.143E-01    0.475E-01
DAV:   6    -0.354926281351E+03    0.19614E-03   -0.25633E-03 38520   0.121E-01    0.392E-01
DAV:   7    -0.354926480768E+03   -0.19942E-03   -0.29367E-03 38784   0.172E-01    0.618E-01
DAV:   8    -0.354926037147E+03    0.44362E-03   -0.27469E-03 38456   0.162E-01    0.515E-01
DAV:   9    -0.354925696886E+03    0.34026E-03   -0.10116E-03 38408   0.120E-01    0.239E-01
DAV:  10    -0.354925781869E+03   -0.84983E-04   -0.47120E-04 37952   0.859E-02    0.236E-01
DAV:  11    -0.354925732084E+03    0.49785E-04   -0.22350E-04 36040   0.580E-02    0.112E-01
DAV:  12    -0.354925752544E+03   -0.20460E-04   -0.62917E-05 23216   0.271E-02    0.983E-02
DAV:  13    -0.354925756126E+03   -0.35820E-05   -0.18954E-05 20080   0.155E-02
  13 F= -.35492576E+03 E0= -.35490961E+03  d E =-.180609E-01  mag=     8.0000
       N       E                     dE             d eps       ncg     rms          rms(c)
DAV:   1    -0.354929181612E+03   -0.34291E-02   -0.12668E+00 29816   0.316E+00    0.259E-01
DAV:   2    -0.354935016780E+03   -0.58352E-02   -0.62697E-02 28288   0.595E-01    0.408E-01
DAV:   3    -0.354934914338E+03    0.10244E-03   -0.27416E-03 38704   0.159E-01    0.340E-01
DAV:   4    -0.354934915038E+03   -0.69938E-06   -0.20018E-03 39480   0.110E-01    0.345E-01
DAV:   5    -0.354934778205E+03    0.13683E-03   -0.12378E-03 36184   0.838E-02    0.288E-01
DAV:   6    -0.354934737479E+03    0.40725E-04   -0.58040E-04 35072   0.690E-02    0.268E-01
DAV:   7    -0.354934835154E+03   -0.97675E-04   -0.11736E-03 38136   0.977E-02    0.377E-01
DAV:   8    -0.354934501461E+03    0.33369E-03   -0.10451E-03 38608   0.983E-02    0.199E-01
DAV:   9    -0.354934603405E+03   -0.10194E-03   -0.49707E-04 37152   0.727E-02    0.287E-01
DAV:  10    -0.354934516650E+03    0.86755E-04   -0.35348E-04 34264   0.648E-02    0.112E-01
DAV:  11    -0.354934562639E+03   -0.45989E-04   -0.11632E-04 26528   0.408E-02    0.106E-01
DAV:  12    -0.354934562125E+03    0.51464E-06   -0.43345E-05 21368   0.218E-02
  14 F= -.35493456E+03 E0= -.35491840E+03  d E =-.880600E-02  mag=     8.0000
       N       E                     dE             d eps       ncg     rms          rms(c)
DAV:   1    -0.354911013728E+03    0.23549E-01   -0.16663E+01 29896   0.103E+01    0.821E-01
DAV:   2    -0.354969259954E+03   -0.58246E-01   -0.60718E-01 28296   0.185E+00    0.136E+00
DAV:   3    -0.354969453606E+03   -0.19365E-03   -0.29802E-02 40328   0.542E-01    0.143E+00
DAV:   4    -0.354967146050E+03    0.23076E-02   -0.12880E-02 39984   0.361E-01    0.985E-01
DAV:   5    -0.354966266559E+03    0.87949E-03   -0.77153E-03 39640   0.283E-01    0.787E-01
DAV:   6    -0.354965856750E+03    0.40981E-03   -0.55704E-03 38488   0.202E-01    0.648E-01
DAV:   7    -0.354966081420E+03   -0.22467E-03   -0.55138E-03 39832   0.215E-01    0.783E-01
DAV:   8    -0.354965252061E+03    0.82936E-03   -0.69483E-03 39624   0.212E-01    0.666E-01
DAV:   9    -0.354964662271E+03    0.58979E-03   -0.42160E-03 38736   0.163E-01    0.426E-01
DAV:  10    -0.354964619244E+03    0.43027E-04   -0.21182E-03 39096   0.158E-01    0.404E-01
DAV:  11    -0.354964951228E+03   -0.33198E-03   -0.16527E-03 39256   0.155E-01    0.505E-01
DAV:  12    -0.354964729130E+03    0.22210E-03   -0.95075E-04 37448   0.119E-01    0.303E-01
DAV:  13    -0.354964735649E+03   -0.65192E-05   -0.44898E-04 38656   0.781E-02    0.186E-01
DAV:  14    -0.354964810973E+03   -0.75324E-04   -0.16726E-04 34872   0.485E-02    0.173E-01
DAV:  15    -0.354964849706E+03   -0.38733E-04   -0.22369E-04 34432   0.572E-02    0.119E-01
DAV:  16    -0.354964861823E+03   -0.12117E-04   -0.10450E-04 26840   0.326E-02    0.121E-01
DAV:  17    -0.354964855915E+03    0.59075E-05   -0.70710E-05 28616   0.328E-02
  15 F= -.35496486E+03 E0= -.35494887E+03  d E =-.302938E-01  mag=     8.0000
       N       E                     dE             d eps       ncg     rms          rms(c)
DAV:   1    -0.354532289287E+03    0.43257E+00   -0.13392E+02 30480   0.291E+01    0.238E+00
DAV:   2    -0.355090828341E+03   -0.55854E+00   -0.56267E+00 28680   0.537E+00    0.546E+00
DAV:   3    -0.355063512181E+03    0.27316E-01   -0.60323E-01 37680   0.178E+00    0.388E+00
DAV:   4    -0.355064483812E+03   -0.97163E-03   -0.26194E-01 40488   0.108E+00    0.412E+00
DAV:   5    -0.355030790592E+03    0.33693E-01   -0.11180E-01 39024   0.841E-01    0.152E+00
DAV:   6    -0.355038251261E+03   -0.74607E-02   -0.36974E-02 40128   0.571E-01    0.208E+00
DAV:   7    -0.355032960819E+03    0.52904E-02   -0.14845E-02 39008   0.495E-01    0.144E+00
DAV:   8    -0.355033013752E+03   -0.52933E-04   -0.15825E-02 38864   0.417E-01    0.152E+00
DAV:   9    -0.355030762002E+03    0.22518E-02   -0.16140E-02 38984   0.352E-01    0.118E+00
DAV:  10    -0.355028380214E+03    0.23818E-02   -0.11034E-02 39888   0.296E-01    0.689E-01
DAV:  11    -0.355030180006E+03   -0.17998E-02   -0.67898E-03 39536   0.280E-01    0.112E+00
DAV:  12    -0.355028606853E+03    0.15732E-02   -0.51342E-03 38888   0.267E-01    0.552E-01
DAV:  13    -0.355028674310E+03   -0.67457E-04   -0.22427E-03 38912   0.201E-01    0.318E-01
DAV:  14    -0.355029000897E+03   -0.32659E-03   -0.12871E-03 38920   0.115E-01    0.330E-01
DAV:  15    -0.355029033027E+03   -0.32130E-04   -0.55528E-04 35696   0.829E-02    0.327E-01
DAV:  16    -0.355028913745E+03    0.11928E-03   -0.27562E-04 32144   0.640E-02    0.210E-01
DAV:  17    -0.355028918819E+03   -0.50734E-05   -0.28089E-04 37608   0.679E-02    0.199E-01
DAV:  18    -0.355028825658E+03    0.93160E-04   -0.35774E-04 38808   0.802E-02    0.944E-02
DAV:  19    -0.355028873625E+03   -0.47967E-04   -0.20730E-04 36664   0.616E-02    0.117E-01
DAV:  20    -0.355028855309E+03    0.18316E-04   -0.84343E-05 29304   0.402E-02    0.770E-02
DAV:  21    -0.355028859631E+03   -0.43221E-05   -0.32593E-05 22312   0.211E-02
  16 F= -.35502886E+03 E0= -.35501295E+03  d E =-.640037E-01  mag=     8.0000
       N       E                     dE             d eps       ncg     rms          rms(c)
DAV:   1    -0.353095622517E+03    0.19332E+01   -0.14530E+02 33056   0.367E+01    0.529E+00
DAV:   2    -0.355050393718E+03   -0.19548E+01   -0.17431E+01 28872   0.882E+00    0.176E+01
DAV:   3    -0.354714164442E+03    0.33623E+00   -0.35836E+00 35176   0.426E+00    0.932E+00
DAV:   4    -0.354524513692E+03    0.18965E+00   -0.73327E-01 39384   0.238E+00    0.551E+00
DAV:   5    -0.354563269065E+03   -0.38755E-01   -0.43903E-01 37872   0.197E+00    0.713E+00
DAV:   6    -0.354482626872E+03    0.80642E-01   -0.27269E-01 38528   0.151E+00    0.350E+00
DAV:   7    -0.354491998637E+03   -0.93718E-02   -0.20559E-01 37672   0.110E+00    0.333E+00
DAV:   8    -0.354491048997E+03    0.94964E-03   -0.14464E-01 39160   0.875E-01    0.347E+00
DAV:   9    -0.354479816467E+03    0.11233E-01   -0.59512E-02 38992   0.680E-01    0.247E+00
DAV:  10    -0.354474068245E+03    0.57482E-02   -0.20814E-02 38960   0.637E-01    0.173E+00
DAV:  11    -0.354472638793E+03    0.14295E-02   -0.21721E-02 39176   0.568E-01    0.175E+00
DAV:  12    -0.354469961944E+03    0.26768E-02   -0.24477E-02 39232   0.581E-01    0.150E+00
DAV:  13    -0.354466374219E+03    0.35877E-02   -0.18206E-02 38840   0.503E-01    0.983E-01
DAV:  14    -0.354466299709E+03    0.74510E-04   -0.93685E-03 38568   0.403E-01    0.112E+00
DAV:  15    -0.354466022710E+03    0.27700E-03   -0.83033E-03 37664   0.293E-01    0.109E+00
DAV:  16    -0.354464534139E+03    0.14886E-02   -0.32265E-03 38184   0.230E-01    0.600E-01
DAV:  17    -0.354464298207E+03    0.23593E-03   -0.16390E-03 39080   0.141E-01    0.469E-01
DAV:  18    -0.354464193612E+03    0.10459E-03   -0.12517E-03 38360   0.160E-01    0.441E-01
DAV:  19    -0.354463837073E+03    0.35654E-03   -0.12681E-03 39560   0.164E-01    0.294E-01
DAV:  20    -0.354463936936E+03   -0.99864E-04   -0.10894E-03 38808   0.102E-01    0.167E-01
DAV:  21    -0.354464084160E+03   -0.14722E-03   -0.42522E-04 35336   0.622E-02    0.154E-01
DAV:  22    -0.354464107367E+03   -0.23207E-04   -0.24038E-04 34896   0.505E-02    0.113E-01
DAV:  23    -0.354464125530E+03   -0.18163E-04   -0.13123E-04 32184   0.366E-02    0.929E-02
DAV:  24    -0.354464129172E+03   -0.36428E-05   -0.54644E-05 26680   0.316E-02
  17 F= -.35446413E+03 E0= -.35444782E+03  d E =0.564730E+00  mag=     8.0000
       N       E                     dE             d eps       ncg     rms          rms(c)
DAV:   1    -0.354617168327E+03   -0.15304E+00   -0.31644E+01 32152   0.173E+01    0.214E+00
DAV:   2    -0.354996524092E+03   -0.37936E+00   -0.40632E+00 28840   0.404E+00    0.501E+00
DAV:   3    -0.354964891548E+03    0.31633E-01   -0.23600E-01 37088   0.138E+00    0.338E+00
DAV:   4    -0.354959010078E+03    0.58815E-02   -0.10937E-01 39256   0.776E-01    0.285E+00
DAV:   5    -0.354959865505E+03   -0.85543E-03   -0.66993E-02 36344   0.585E-01    0.304E+00
DAV:   6    -0.354951931856E+03    0.79336E-02   -0.74275E-02 37680   0.650E-01    0.241E+00
DAV:   7    -0.354949463436E+03    0.24684E-02   -0.50237E-02 38600   0.810E-01    0.224E+00
DAV:   8    -0.354949032358E+03    0.43108E-03   -0.58397E-02 38728   0.828E-01    0.245E+00
DAV:   9    -0.354938742318E+03    0.10290E-01   -0.27278E-02 37560   0.585E-01    0.940E-01
DAV:  10    -0.354939872529E+03   -0.11302E-02   -0.81852E-03 38800   0.353E-01    0.890E-01
DAV:  11    -0.354939512367E+03    0.36016E-03   -0.75240E-03 38984   0.253E-01    0.629E-01
DAV:  12    -0.354939120771E+03    0.39160E-03   -0.36655E-03 38544   0.185E-01    0.429E-01
DAV:  13    -0.354939026440E+03    0.94331E-04   -0.63298E-04 38136   0.984E-02    0.279E-01
DAV:  14    -0.354939077958E+03   -0.51518E-04   -0.18988E-04 31520   0.487E-02    0.271E-01
DAV:  15    -0.354939081173E+03   -0.32146E-05   -0.10931E-04 25264   0.406E-02    0.275E-01
DAV:  16    -0.354939035760E+03    0.45413E-04   -0.23616E-04 31504   0.510E-02    0.236E-01
DAV:  17    -0.354938846037E+03    0.18972E-03   -0.41871E-04 37280   0.837E-02    0.132E-01
DAV:  18    -0.354938840721E+03    0.53159E-05   -0.30199E-04 38432   0.692E-02    0.120E-01
DAV:  19    -0.354938848040E+03   -0.73196E-05   -0.12261E-04 32032   0.469E-02    0.940E-02
DAV:  20    -0.354938858065E+03   -0.10025E-04   -0.75916E-05 27272   0.334E-02    0.645E-02
DAV:  21    -0.354938858822E+03   -0.75650E-06   -0.58051E-05 28680   0.264E-02
  18 F= -.35493886E+03 E0= -.35492257E+03  d E =-.474730E+00  mag=     8.0000
       N       E                     dE             d eps       ncg     rms          rms(c)
DAV:   1    -0.354919166788E+03    0.19691E-01   -0.13375E+01 32584   0.107E+01    0.109E+00
DAV:   2    -0.355055750222E+03   -0.13658E+00   -0.15736E+00 28456   0.225E+00    0.173E+00
DAV:   3    -0.355069215191E+03   -0.13465E-01   -0.15466E-01 37296   0.863E-01    0.293E+00
DAV:   4    -0.355052830628E+03    0.16385E-01   -0.73002E-02 37920   0.575E-01    0.117E+00
DAV:   5    -0.355051390285E+03    0.14403E-02   -0.86312E-03 38120   0.355E-01    0.694E-01
DAV:   6    -0.355053359970E+03   -0.19697E-02   -0.14565E-02 38296   0.331E-01    0.129E+00
DAV:   7    -0.355050353918E+03    0.30061E-02   -0.23837E-02 38768   0.382E-01    0.926E-01
DAV:   8    -0.355049394628E+03    0.95929E-03   -0.98610E-03 39416   0.296E-01    0.753E-01
DAV:   9    -0.355049111658E+03    0.28297E-03   -0.32808E-03 39504   0.209E-01    0.630E-01
DAV:  10    -0.355048347484E+03    0.76417E-03   -0.15443E-03 38464   0.152E-01    0.188E-01
DAV:  11    -0.355048443497E+03   -0.96014E-04   -0.45162E-04 39408   0.907E-02    0.203E-01
DAV:  12    -0.355048466236E+03   -0.22738E-04   -0.33877E-04 35640   0.652E-02    0.216E-01
DAV:  13    -0.355048402252E+03    0.63984E-04   -0.16597E-04 29328   0.507E-02    0.106E-01
DAV:  14    -0.355048414944E+03   -0.12692E-04   -0.59773E-05 25808   0.302E-02    0.999E-02
DAV:  15    -0.355048428977E+03   -0.14033E-04   -0.79375E-05 26712   0.370E-02    0.122E-01
DAV:  16    -0.355048416496E+03    0.12481E-04   -0.58307E-05 22536   0.266E-02    0.928E-02
DAV:  17    -0.355048400830E+03    0.15666E-04   -0.35519E-05 23416   0.280E-02    0.521E-02
DAV:  18    -0.355048394766E+03    0.60636E-05   -0.59400E-05 29360   0.313E-02
  19 F= -.35504839E+03 E0= -.35503222E+03  d E =-.109536E+00  mag=     8.0000
       N       E                     dE             d eps       ncg     rms          rms(c)
DAV:   1    -0.355046340747E+03    0.20601E-02   -0.19231E+00 30864   0.352E+00    0.368E-01
DAV:   2    -0.355060599027E+03   -0.14258E-01   -0.15162E-01 28304   0.761E-01    0.851E-01
DAV:   3    -0.355059702428E+03    0.89660E-03   -0.98176E-03 37264   0.238E-01    0.567E-01
DAV:   4    -0.355059620314E+03    0.82115E-04   -0.30351E-03 38592   0.128E-01    0.489E-01
DAV:   5    -0.355059479870E+03    0.14044E-03   -0.11100E-03 38608   0.103E-01    0.430E-01
DAV:   6    -0.355059528545E+03   -0.48675E-04   -0.11918E-03 36560   0.109E-01    0.483E-01
DAV:   7    -0.355059328193E+03    0.20035E-03   -0.21273E-03 38720   0.146E-01    0.420E-01
DAV:   8    -0.355059297464E+03    0.30729E-04   -0.25089E-03 38824   0.139E-01    0.475E-01
DAV:   9    -0.355058959616E+03    0.33785E-03   -0.11742E-03 38696   0.113E-01    0.240E-01
DAV:  10    -0.355058965895E+03   -0.62791E-05   -0.36084E-04 37328   0.781E-02    0.178E-01
DAV:  11    -0.355058963098E+03    0.27977E-05   -0.24243E-04 32512   0.601E-02    0.132E-01
DAV:  12    -0.355058964437E+03   -0.13396E-05   -0.80819E-05 25256   0.349E-02
  20 F= -.35505896E+03 E0= -.35504281E+03  d E =-.105697E-01  mag=     8.0000
       N       E                     dE             d eps       ncg     rms          rms(c)
DAV:   1    -0.355062944547E+03   -0.39814E-02   -0.11598E+00 30536   0.243E+00    0.245E-01
DAV:   2    -0.355067418701E+03   -0.44742E-02   -0.40565E-02 30600   0.496E-01    0.660E-01
DAV:   3    -0.355066562211E+03    0.85649E-03   -0.18144E-03 36584   0.139E-01    0.389E-01
DAV:   4    -0.355066685740E+03   -0.12353E-03   -0.68891E-04 36336   0.672E-02    0.444E-01
DAV:   5    -0.355066461889E+03    0.22385E-03   -0.84152E-04 33000   0.680E-02    0.310E-01
DAV:   6    -0.355066507943E+03   -0.46054E-04   -0.52877E-04 32024   0.682E-02    0.329E-01
DAV:   7    -0.355066532557E+03   -0.24614E-04   -0.69055E-04 38016   0.912E-02    0.346E-01
DAV:   8    -0.355066557767E+03   -0.25210E-04   -0.16580E-03 38128   0.110E-01    0.351E-01
DAV:   9    -0.355066380352E+03    0.17742E-03   -0.13492E-03 37784   0.936E-02    0.229E-01
DAV:  10    -0.355066354250E+03    0.26102E-04   -0.32496E-04 33608   0.650E-02    0.134E-01
DAV:  11    -0.355066365343E+03   -0.11092E-04   -0.80459E-05 24936   0.364E-02    0.895E-02
DAV:  12    -0.355066366596E+03   -0.12535E-05   -0.13774E-05 18824   0.123E-02
  21 F= -.35506637E+03 E0= -.35505018E+03  d E =-.740216E-02  mag=     8.0000
       N       E                     dE             d eps       ncg     rms          rms(c)
DAV:   1    -0.355062882212E+03    0.34831E-02   -0.36932E+00 29216   0.454E+00    0.397E-01
DAV:   2    -0.355077811126E+03   -0.14929E-01   -0.14391E-01 29072   0.898E-01    0.997E-01
DAV:   3    -0.355075949208E+03    0.18619E-02   -0.63807E-03 36976   0.247E-01    0.568E-01
DAV:   4    -0.355076091621E+03   -0.14241E-03   -0.17408E-03 38080   0.113E-01    0.575E-01
DAV:   5    -0.355075895831E+03    0.19579E-03   -0.10873E-03 38376   0.916E-02    0.488E-01
DAV:   6    -0.355076066075E+03   -0.17024E-03   -0.16433E-03 37552   0.999E-02    0.585E-01
DAV:   7    -0.355076189502E+03   -0.12343E-03   -0.32668E-03 38912   0.146E-01    0.651E-01
DAV:   8    -0.355075770092E+03    0.41941E-03   -0.30279E-03 37424   0.163E-01    0.566E-01
DAV:   9    -0.355075333625E+03    0.43647E-03   -0.16745E-03 39328   0.152E-01    0.338E-01
DAV:  10    -0.355075361537E+03   -0.27911E-04   -0.10466E-03 38880   0.125E-01    0.246E-01
DAV:  11    -0.355075385078E+03   -0.23541E-04   -0.52851E-04 37704   0.823E-02    0.145E-01
DAV:  12    -0.355075415839E+03   -0.30762E-04   -0.84176E-05 26888   0.349E-02    0.134E-01
DAV:  13    -0.355075406459E+03    0.93799E-05   -0.20152E-05 20280   0.163E-02
  22 F= -.35507541E+03 E0= -.35505929E+03  d E =-.903986E-02  mag=     8.0000
       N       E                     dE             d eps       ncg     rms          rms(c)
DAV:   1    -0.355074748201E+03    0.66764E-03   -0.11500E+00 30448   0.296E+00    0.230E-01
DAV:   2    -0.355079956464E+03   -0.52083E-02   -0.51567E-02 28288   0.545E-01    0.467E-01
DAV:   3    -0.355079812484E+03    0.14398E-03   -0.32248E-03 38536   0.169E-01    0.394E-01
DAV:   4    -0.355079648991E+03    0.16349E-03   -0.12417E-03 38464   0.869E-02    0.284E-01
DAV:   5    -0.355079545996E+03    0.10300E-03   -0.38430E-04 31936   0.551E-02    0.204E-01
DAV:   6    -0.355079535229E+03    0.10767E-04   -0.17876E-04 25360   0.376E-02    0.206E-01
DAV:   7    -0.355079511640E+03    0.23589E-04   -0.33752E-04 32552   0.518E-02    0.232E-01
DAV:   8    -0.355079385280E+03    0.12636E-03   -0.41800E-04 37104   0.710E-02    0.210E-01
DAV:   9    -0.355079379032E+03    0.62479E-05   -0.43864E-04 38488   0.833E-02    0.231E-01
DAV:  10    -0.355079417323E+03   -0.38290E-04   -0.41542E-04 35024   0.700E-02    0.134E-01
DAV:  11    -0.355079449705E+03   -0.32382E-04   -0.11761E-04 28728   0.451E-02    0.981E-02
DAV:  12    -0.355079459524E+03   -0.98188E-05   -0.58201E-05 22176   0.232E-02
  23 F= -.35507946E+03 E0= -.35506329E+03  d E =-.405306E-02  mag=     8.0000
       N       E                     dE             d eps       ncg     rms          rms(c)
DAV:   1    -0.354818013767E+03    0.26144E+00   -0.78698E+01 30688   0.234E+01    0.156E+00
DAV:   2    -0.355127720409E+03   -0.30971E+00   -0.30896E+00 28288   0.418E+00    0.349E+00
DAV:   3    -0.355125905751E+03    0.18147E-02   -0.26860E-01 39728   0.128E+00    0.329E+00
DAV:   4    -0.355113795129E+03    0.12111E-01   -0.10872E-01 40440   0.783E-01    0.240E+00
DAV:   5    -0.355104490810E+03    0.93043E-02   -0.32857E-02 39096   0.534E-01    0.107E+00
DAV:   6    -0.355105954294E+03   -0.14635E-02   -0.13207E-02 40128   0.338E-01    0.125E+00
DAV:   7    -0.355104901334E+03    0.10530E-02   -0.11953E-02 38144   0.370E-01    0.116E+00
DAV:   8    -0.355103422562E+03    0.14788E-02   -0.20885E-02 39096   0.354E-01    0.100E+00
DAV:   9    -0.355101964829E+03    0.14577E-02   -0.67291E-03 39336   0.259E-01    0.605E-01
DAV:  10    -0.355102219061E+03   -0.25423E-03   -0.27219E-03 39088   0.183E-01    0.595E-01
DAV:  11    -0.355101981965E+03    0.23710E-03   -0.19379E-03 38816   0.157E-01    0.360E-01
DAV:  12    -0.355102162678E+03   -0.18071E-03   -0.84619E-04 37912   0.108E-01    0.269E-01
DAV:  13    -0.355102225994E+03   -0.63316E-04   -0.42416E-04 38032   0.759E-02    0.222E-01
DAV:  14    -0.355102317969E+03   -0.91975E-04   -0.34633E-04 37632   0.702E-02    0.249E-01
DAV:  15    -0.355102306082E+03    0.11887E-04   -0.30031E-04 33768   0.612E-02    0.240E-01
DAV:  16    -0.355102240033E+03    0.66049E-04   -0.19791E-04 29864   0.564E-02    0.150E-01
DAV:  17    -0.355102198893E+03    0.41139E-04   -0.18552E-04 34192   0.549E-02    0.778E-02
DAV:  18    -0.355102220309E+03   -0.21415E-04   -0.10453E-04 31352   0.391E-02    0.688E-02
DAV:  19    -0.355102227972E+03   -0.76627E-05   -0.41885E-05 24528   0.314E-02
  24 F= -.35510223E+03 E0= -.35508589E+03  d E =-.227684E-01  mag=     8.0000
       N       E                     dE             d eps       ncg     rms          rms(c)
DAV:   1    -0.354673773163E+03    0.42845E+00   -0.56345E+01 31976   0.210E+01    0.185E+00
DAV:   2    -0.355037592199E+03   -0.36382E+00   -0.37955E+00 28296   0.436E+00    0.440E+00
DAV:   3    -0.355021198798E+03    0.16393E-01   -0.35067E-01 36960   0.148E+00    0.367E+00
DAV:   4    -0.354997464277E+03    0.23735E-01   -0.11387E-01 39200   0.802E-01    0.170E+00
DAV:   5    -0.355003733015E+03   -0.62687E-02   -0.42592E-02 38216   0.563E-01    0.236E+00
DAV:   6    -0.354995998969E+03    0.77340E-02   -0.28829E-02 38040   0.484E-01    0.170E+00
DAV:   7    -0.355001567937E+03   -0.55690E-02   -0.26437E-02 37776   0.600E-01    0.269E+00
DAV:   8    -0.354987731872E+03    0.13836E-01   -0.29362E-02 38248   0.616E-01    0.134E+00
DAV:   9    -0.354985931826E+03    0.18000E-02   -0.13113E-02 38968   0.486E-01    0.935E-01
DAV:  10    -0.354986001098E+03   -0.69272E-04   -0.95133E-03 38600   0.346E-01    0.771E-01
DAV:  11    -0.354985753266E+03    0.24783E-03   -0.43425E-03 39288   0.255E-01    0.478E-01
DAV:  12    -0.354986259309E+03   -0.50604E-03   -0.21422E-03 37992   0.149E-01    0.542E-01
DAV:  13    -0.354986053939E+03    0.20537E-03   -0.94272E-04 37616   0.981E-02    0.360E-01
DAV:  14    -0.354986158182E+03   -0.10424E-03   -0.38571E-04 35936   0.687E-02    0.368E-01
DAV:  15    -0.354986227343E+03   -0.69161E-04   -0.41770E-04 38592   0.767E-02    0.372E-01
DAV:  16    -0.354986141833E+03    0.85510E-04   -0.34694E-04 33856   0.663E-02    0.308E-01
DAV:  17    -0.354986049739E+03    0.92094E-04   -0.28630E-04 37200   0.751E-02    0.227E-01
DAV:  18    -0.354985962519E+03    0.87220E-04   -0.37075E-04 39648   0.858E-02    0.148E-01
DAV:  19    -0.354985961137E+03    0.13825E-05   -0.25338E-04 39304   0.604E-02    0.118E-01
DAV:  20    -0.354985982927E+03   -0.21790E-04   -0.12383E-04 28216   0.368E-02    0.851E-02
DAV:  21    -0.354985987143E+03   -0.42159E-05   -0.30612E-05 23656   0.204E-02
  25 F= -.35498599E+03 E0= -.35497016E+03  d E =0.116241E+00  mag=     8.0000
       N       E                     dE             d eps       ncg     rms          rms(c)
DAV:   1    -0.355026308922E+03   -0.40326E-01   -0.44289E+00 32616   0.691E+00    0.722E-01
DAV:   2    -0.355074218329E+03   -0.47909E-01   -0.52545E-01 28544   0.151E+00    0.187E+00
DAV:   3    -0.355070281321E+03    0.39370E-02   -0.52350E-02 35560   0.555E-01    0.113E+00
DAV:   4    -0.355069124914E+03    0.11564E-02   -0.90547E-03 38736   0.273E-01    0.753E-01
DAV:   5    -0.355069624681E+03   -0.49977E-03   -0.65543E-03 38416   0.244E-01    0.986E-01
DAV:   6    -0.355068394027E+03    0.12307E-02   -0.63452E-03 39232   0.228E-01    0.709E-01
DAV:   7    -0.355069620310E+03   -0.12263E-02   -0.73517E-03 38128   0.308E-01    0.118E+00
DAV:   8    -0.355067280369E+03    0.23399E-02   -0.64408E-03 37680   0.289E-01    0.569E-01
DAV:   9    -0.355067067722E+03    0.21265E-03   -0.18488E-03 38144   0.171E-01    0.303E-01
DAV:  10    -0.355067104761E+03   -0.37038E-04   -0.93562E-04 38304   0.989E-02    0.270E-01
DAV:  11    -0.355067018802E+03    0.85958E-04   -0.36796E-04 35280   0.651E-02    0.148E-01
DAV:  12    -0.355067027073E+03   -0.82707E-05   -0.57697E-05 22160   0.269E-02
  26 F= -.35506703E+03 E0= -.35505087E+03  d E =-.810399E-01  mag=     8.0000
       N       E                     dE             d eps       ncg     rms          rms(c)
DAV:   1    -0.355079712361E+03   -0.12694E-01   -0.81755E-01 32696   0.283E+00    0.301E-01
DAV:   2    -0.355086764846E+03   -0.70525E-02   -0.83451E-02 28352   0.590E-01    0.405E-01
DAV:   3    -0.355087667996E+03   -0.90315E-03   -0.77233E-03 37496   0.213E-01    0.743E-01
DAV:   4    -0.355086552392E+03    0.11156E-02   -0.35436E-03 37448   0.137E-01    0.291E-01
DAV:   5    -0.355086722149E+03   -0.16976E-03   -0.11253E-03 37984   0.107E-01    0.399E-01
DAV:   6    -0.355086510896E+03    0.21125E-03   -0.95718E-04 39032   0.110E-01    0.282E-01
DAV:   7    -0.355086423880E+03    0.87016E-04   -0.73668E-04 38312   0.967E-02    0.257E-01
DAV:   8    -0.355086372279E+03    0.51601E-04   -0.58929E-04 36328   0.753E-02    0.210E-01
DAV:   9    -0.355086327541E+03    0.44739E-04   -0.20354E-04 29856   0.529E-02    0.119E-01
DAV:  10    -0.355086329576E+03   -0.20348E-05   -0.10470E-04 26320   0.343E-02    0.106E-01
DAV:  11    -0.355086321004E+03    0.85714E-05   -0.32961E-05 19944   0.187E-02
  27 F= -.35508632E+03 E0= -.35506994E+03  d E =-.192939E-01  mag=     8.0000
       N       E                     dE             d eps       ncg     rms          rms(c)
DAV:   1    -0.355081788638E+03    0.45409E-02   -0.35434E+00 32960   0.522E+00    0.496E-01
DAV:   2    -0.355108777166E+03   -0.26989E-01   -0.28898E-01 28336   0.112E+00    0.137E+00
DAV:   3    -0.355106743554E+03    0.20336E-02   -0.29726E-02 35640   0.406E-01    0.865E-01
DAV:   4    -0.355105802490E+03    0.94106E-03   -0.52251E-03 38336   0.191E-01    0.496E-01
DAV:   5    -0.355106087730E+03   -0.28524E-03   -0.32571E-03 38496   0.165E-01    0.669E-01
DAV:   6    -0.355105573601E+03    0.51413E-03   -0.30895E-03 39008   0.147E-01    0.518E-01
DAV:   7    -0.355105284305E+03    0.28930E-03   -0.25404E-03 37552   0.182E-01    0.546E-01
DAV:   8    -0.355104966052E+03    0.31825E-03   -0.16759E-03 37904   0.170E-01    0.441E-01
DAV:   9    -0.355104749444E+03    0.21661E-03   -0.97325E-04 38016   0.122E-01    0.278E-01
DAV:  10    -0.355104684337E+03    0.65106E-04   -0.36394E-04 38232   0.767E-02    0.155E-01
DAV:  11    -0.355104688322E+03   -0.39844E-05   -0.70881E-05 27528   0.296E-02
  28 F= -.35510469E+03 E0= -.35508827E+03  d E =-.183673E-01  mag=     8.0000
       N       E                     dE             d eps       ncg     rms          rms(c)
DAV:   1    -0.355106101885E+03   -0.14175E-02   -0.82825E-01 31552   0.188E+00    0.228E-01
DAV:   2    -0.355109245050E+03   -0.31432E-02   -0.29368E-02 29296   0.391E-01    0.591E-01
DAV:   3    -0.355108721097E+03    0.52395E-03   -0.12689E-03 35816   0.105E-01    0.378E-01
DAV:   4    -0.355108727137E+03   -0.60395E-05   -0.23336E-04 30800   0.425E-02    0.384E-01
DAV:   5    -0.355108653750E+03    0.73387E-04   -0.35779E-04 28840   0.481E-02    0.360E-01
DAV:   6    -0.355108692700E+03   -0.38951E-04   -0.91370E-04 30984   0.688E-02    0.388E-01
DAV:   7    -0.355108709535E+03   -0.16834E-04   -0.10308E-03 37312   0.106E-01    0.399E-01
DAV:   8    -0.355108530895E+03    0.17864E-03   -0.83243E-04 38136   0.104E-01    0.270E-01
DAV:   9    -0.355108531048E+03   -0.15261E-06   -0.32093E-04 34248   0.721E-02    0.212E-01
DAV:  10    -0.355108509521E+03    0.21526E-04   -0.13928E-04 27736   0.448E-02    0.146E-01
DAV:  11    -0.355108510069E+03   -0.54781E-06   -0.23888E-05 22032   0.175E-02
  29 F= -.35510851E+03 E0= -.35509204E+03  d E =-.382175E-02  mag=     8.0000
       N       E                     dE             d eps       ncg     rms          rms(c)
DAV:   1    -0.355105106153E+03    0.34034E-02   -0.28800E+00 30400   0.360E+00    0.433E-01
DAV:   2    -0.355115684208E+03   -0.10578E-01   -0.90927E-02 30496   0.734E-01    0.118E+00
DAV:   3    -0.355113073316E+03    0.26109E-02   -0.62268E-03 34528   0.230E-01    0.671E-01
DAV:   4    -0.355113098955E+03   -0.25639E-04   -0.27972E-04 35680   0.499E-02    0.631E-01
DAV:   5    -0.355113165591E+03   -0.66635E-04   -0.30274E-04 30608   0.465E-02    0.653E-01
DAV:   6    -0.355113200493E+03   -0.34903E-04   -0.15812E-03 35336   0.855E-02    0.687E-01
DAV:   7    -0.355114034834E+03   -0.83434E-03   -0.44406E-03 38320   0.176E-01    0.937E-01
DAV:   8    -0.355113149470E+03    0.88536E-03   -0.56409E-03 37512   0.220E-01    0.767E-01
DAV:   9    -0.355112299504E+03    0.84997E-03   -0.26406E-03 39112   0.196E-01    0.462E-01
DAV:  10    -0.355112416352E+03   -0.11685E-03   -0.11300E-03 38272   0.134E-01    0.388E-01
DAV:  11    -0.355112420667E+03   -0.43149E-05   -0.70775E-04 38064   0.934E-02    0.247E-01
DAV:  12    -0.355112453936E+03   -0.33269E-04   -0.17402E-04 27864   0.476E-02    0.219E-01
DAV:  13    -0.355112461675E+03   -0.77390E-05   -0.27928E-05 22224   0.189E-02
  30 F= -.35511246E+03 E0= -.35509608E+03  d E =-.395161E-02  mag=     8.0000
       N       E                     dE             d eps       ncg     rms          rms(c)
DAV:   1    -0.355112663881E+03   -0.20994E-03   -0.17278E-01 31656   0.116E+00    0.268E-01
DAV:   2    -0.355117422172E+03   -0.47583E-02   -0.21631E-02 34480   0.410E-01    0.136E+00
DAV:   3    -0.355113383539E+03    0.40386E-02   -0.11135E-02 36184   0.287E-01    0.419E-01
DAV:   4    -0.355113589221E+03   -0.20568E-03   -0.43709E-04 31928   0.681E-02    0.318E-01
DAV:   5    -0.355113761233E+03   -0.17201E-03   -0.35703E-04 29240   0.452E-02    0.419E-01
DAV:   6    -0.355113653193E+03    0.10804E-03   -0.34587E-04 29688   0.463E-02    0.379E-01
DAV:   7    -0.355113719162E+03   -0.65969E-04   -0.31149E-05 21184   0.150E-02    0.389E-01
DAV:   8    -0.355113875050E+03   -0.15589E-03   -0.86978E-04 37592   0.113E-01    0.544E-01
DAV:   9    -0.355113361894E+03    0.51316E-03   -0.99426E-04 39144   0.102E-01    0.216E-01
DAV:  10    -0.355113399743E+03   -0.37849E-04   -0.29348E-04 34520   0.667E-02    0.158E-01
DAV:  11    -0.355113392573E+03    0.71702E-05   -0.97381E-05 27944   0.454E-02
  31 F= -.35511339E+03 E0= -.35509694E+03  d E =-.930898E-03  mag=     8.0000
       N       E                     dE             d eps       ncg     rms          rms(c)
DAV:   1    -0.355113309009E+03    0.90734E-04   -0.22525E-01 31360   0.132E+00    0.145E-01
DAV:   2    -0.355114971870E+03   -0.16629E-02   -0.11043E-02 29040   0.282E-01    0.648E-01
DAV:   3    -0.355114091333E+03    0.88054E-03   -0.20423E-03 36968   0.139E-01    0.154E-01
DAV:   4    -0.355114213413E+03   -0.12208E-03   -0.23903E-04 29576   0.445E-02    0.168E-01
DAV:   5    -0.355114182329E+03    0.31084E-04   -0.11549E-04 22328   0.297E-02    0.121E-01
DAV:   6    -0.355114182142E+03    0.18672E-06   -0.49161E-05 21232   0.226E-02
  32 F= -.35511418E+03 E0= -.35509770E+03  d E =-.789569E-03  mag=     8.0000
       N       E                     dE             d eps       ncg     rms          rms(c)
DAV:   1    -0.355110055616E+03    0.41267E-02   -0.19287E+00 31616   0.368E+00    0.276E-01
DAV:   2    -0.355118525817E+03   -0.84702E-02   -0.71043E-02 28520   0.669E-01    0.110E+00
DAV:   3    -0.355116104469E+03    0.24213E-02   -0.74154E-03 37856   0.248E-01    0.304E-01
DAV:   4    -0.355116330725E+03   -0.22626E-03   -0.88436E-04 39392   0.983E-02    0.283E-01
DAV:   5    -0.355116351532E+03   -0.20806E-04   -0.10652E-03 33800   0.824E-02    0.332E-01
DAV:   6    -0.355116205548E+03    0.14598E-03   -0.75430E-04 34304   0.733E-02    0.238E-01
DAV:   7    -0.355116329384E+03   -0.12384E-03   -0.72658E-04 37096   0.857E-02    0.375E-01
DAV:   8    -0.355116053909E+03    0.27547E-03   -0.84873E-04 37056   0.103E-01    0.230E-01
DAV:   9    -0.355116034364E+03    0.19545E-04   -0.49018E-04 38320   0.813E-02    0.168E-01
DAV:  10    -0.355116090327E+03   -0.55963E-04   -0.32420E-04 34872   0.599E-02    0.136E-01
DAV:  11    -0.355116105849E+03   -0.15522E-04   -0.11148E-04 28672   0.403E-02    0.974E-02
DAV:  12    -0.355116102783E+03    0.30665E-05   -0.18983E-05 19824   0.133E-02
  33 F= -.35511610E+03 E0= -.35509966E+03  d E =-.192064E-02  mag=     8.0000
       N       E                     dE             d eps       ncg     rms          rms(c)
DAV:   1    -0.354983906547E+03    0.13220E+00   -0.43558E+01 30872   0.174E+01    0.976E-01
DAV:   2    -0.355129761443E+03   -0.14585E+00   -0.14900E+00 28288   0.296E+00    0.147E+00
DAV:   3    -0.355143908790E+03   -0.14147E-01   -0.14825E-01 40000   0.810E-01    0.291E+00
DAV:   4    -0.355125030821E+03    0.18878E-01   -0.51870E-02 38928   0.519E-01    0.760E-01
DAV:   5    -0.355125991804E+03   -0.96098E-03   -0.49450E-03 41016   0.247E-01    0.596E-01
DAV:   6    -0.355126019069E+03   -0.27265E-04   -0.37701E-03 38264   0.226E-01    0.745E-01
DAV:   7    -0.355125094596E+03    0.92447E-03   -0.39747E-03 37904   0.211E-01    0.572E-01
DAV:   8    -0.355124643848E+03    0.45075E-03   -0.15858E-03 38440   0.140E-01    0.374E-01
DAV:   9    -0.355124531896E+03    0.11195E-03   -0.67622E-04 38880   0.912E-02    0.329E-01
DAV:  10    -0.355124548615E+03   -0.16720E-04   -0.60437E-04 39440   0.856E-02    0.371E-01
DAV:  11    -0.355124425479E+03    0.12314E-03   -0.80305E-04 37800   0.106E-01    0.290E-01
DAV:  12    -0.355124370821E+03    0.54658E-04   -0.12387E-03 39408   0.111E-01    0.263E-01
DAV:  13    -0.355124565128E+03   -0.19431E-03   -0.13669E-03 36592   0.101E-01    0.348E-01
DAV:  14    -0.355124481270E+03    0.83858E-04   -0.82696E-04 37496   0.879E-02    0.140E-01
DAV:  15    -0.355124536313E+03   -0.55043E-04   -0.21239E-04 35768   0.546E-02    0.148E-01
DAV:  16    -0.355124527961E+03    0.83516E-05   -0.10830E-04 27152   0.364E-02    0.113E-01
DAV:  17    -0.355124522815E+03    0.51466E-05   -0.51557E-05 23568   0.300E-02
  34 F= -.35512452E+03 E0= -.35510786E+03  d E =-.842003E-02  mag=     8.0000
       N       E                     dE             d eps       ncg     rms          rms(c)
DAV:   1    -0.354876390181E+03    0.24814E+00   -0.78361E+01 31016   0.236E+01    0.136E+00
DAV:   2    -0.355132883818E+03   -0.25649E+00   -0.26676E+00 28288   0.409E+00    0.177E+00
DAV:   3    -0.355137788611E+03   -0.49048E-02   -0.93021E-02 39344   0.978E-01    0.243E+00
DAV:   4    -0.355132533776E+03    0.52548E-02   -0.65117E-02 39288   0.636E-01    0.194E+00
DAV:   5    -0.355127528042E+03    0.50057E-02   -0.29942E-02 38264   0.432E-01    0.114E+00
DAV:   6    -0.355127530591E+03   -0.25491E-05   -0.99629E-03 40896   0.272E-01    0.114E+00
DAV:   7    -0.355126669987E+03    0.86060E-03   -0.12327E-02 38184   0.303E-01    0.118E+00
DAV:   8    -0.355123977338E+03    0.26926E-02   -0.92347E-03 38848   0.276E-01    0.782E-01
DAV:   9    -0.355123701853E+03    0.27549E-03   -0.53142E-03 39160   0.269E-01    0.913E-01
DAV:  10    -0.355123374318E+03    0.32753E-03   -0.77301E-03 39616   0.282E-01    0.994E-01
DAV:  11    -0.355122358002E+03    0.10163E-02   -0.56012E-03 39472   0.276E-01    0.546E-01
DAV:  12    -0.355123822368E+03   -0.14644E-02   -0.62439E-03 38368   0.210E-01    0.759E-01
DAV:  13    -0.355122978275E+03    0.84409E-03   -0.36999E-03 36824   0.155E-01    0.400E-01
DAV:  14    -0.355123229680E+03   -0.25140E-03   -0.68078E-04 39664   0.975E-02    0.326E-01
DAV:  15    -0.355123288416E+03   -0.58737E-04   -0.57439E-04 38640   0.963E-02    0.239E-01
DAV:  16    -0.355123484198E+03   -0.19578E-03   -0.56111E-04 38992   0.849E-02    0.356E-01
DAV:  17    -0.355123284392E+03    0.19981E-03   -0.40725E-04 37488   0.821E-02    0.102E-01
DAV:  18    -0.355123329346E+03   -0.44954E-04   -0.15068E-04 33424   0.420E-02    0.725E-02
DAV:  19    -0.355123336009E+03   -0.66629E-05   -0.42828E-05 24824   0.245E-02
  35 F= -.35512334E+03 E0= -.35510654E+03  d E =0.118681E-02  mag=     8.0000
       N       E                     dE             d eps       ncg     rms          rms(c)
DAV:   1    -0.355001380717E+03    0.12195E+00   -0.15004E+01 33568   0.122E+01    0.115E+00
DAV:   2    -0.355140317689E+03   -0.13894E+00   -0.13185E+00 29024   0.265E+00    0.338E+00
DAV:   3    -0.355122787698E+03    0.17530E-01   -0.87092E-02 36672   0.843E-01    0.182E+00
DAV:   4    -0.355120485108E+03    0.23026E-02   -0.10710E-02 39256   0.332E-01    0.118E+00
DAV:   5    -0.355122885099E+03   -0.24000E-02   -0.13396E-02 37168   0.256E-01    0.162E+00
DAV:   6    -0.355120539811E+03    0.23453E-02   -0.15134E-02 37840   0.247E-01    0.126E+00
DAV:   7    -0.355120904233E+03   -0.36442E-03   -0.99129E-03 39552   0.285E-01    0.144E+00
DAV:   8    -0.355116725960E+03    0.41783E-02   -0.12797E-02 38064   0.389E-01    0.108E+00
DAV:   9    -0.355116853493E+03   -0.12753E-03   -0.10438E-02 38584   0.397E-01    0.125E+00
DAV:  10    -0.355116684801E+03    0.16869E-03   -0.15174E-02 38936   0.372E-01    0.114E+00
DAV:  11    -0.355116046293E+03    0.63851E-03   -0.54822E-03 38008   0.280E-01    0.550E-01
DAV:  12    -0.355116714925E+03   -0.66863E-03   -0.27481E-03 36624   0.145E-01    0.645E-01
DAV:  13    -0.355116448436E+03    0.26649E-03   -0.59355E-04 33464   0.731E-02    0.543E-01
DAV:  14    -0.355116580300E+03   -0.13186E-03   -0.16566E-04 36552   0.544E-02    0.534E-01
DAV:  15    -0.355117083947E+03   -0.50365E-03   -0.12191E-03 37368   0.115E-01    0.606E-01
DAV:  16    -0.355116759994E+03    0.32395E-03   -0.22577E-03 36704   0.187E-01    0.261E-01
DAV:  17    -0.355116799337E+03   -0.39343E-04   -0.92768E-04 37352   0.982E-02    0.165E-01
DAV:  18    -0.355116794386E+03    0.49507E-05   -0.21883E-04 33744   0.487E-02    0.117E-01
DAV:  19    -0.355116793574E+03    0.81153E-06   -0.79700E-05 29256   0.341E-02
  36 F= -.35511679E+03 E0= -.35509984E+03  d E =0.654243E-02  mag=     8.0000
       N       E                     dE             d eps       ncg     rms          rms(c)
DAV:   1    -0.355092349901E+03    0.24444E-01   -0.66435E+00 32912   0.813E+00    0.724E-01
DAV:   2    -0.355149314684E+03   -0.56965E-01   -0.52300E-01 28664   0.166E+00    0.253E+00
DAV:   3    -0.355139482269E+03    0.98324E-02   -0.61430E-02 36080   0.652E-01    0.116E+00
DAV:   4    -0.355138988511E+03    0.49376E-03   -0.83305E-03 39016   0.236E-01    0.704E-01
DAV:   5    -0.355139549638E+03   -0.56113E-03   -0.32405E-03 38000   0.166E-01    0.859E-01
DAV:   6    -0.355139108331E+03    0.44131E-03   -0.37125E-03 39144   0.173E-01    0.774E-01
DAV:   7    -0.355139091764E+03    0.16567E-04   -0.39578E-03 39392   0.188E-01    0.836E-01
DAV:   8    -0.355137407243E+03    0.16845E-02   -0.46006E-03 38008   0.242E-01    0.674E-01
DAV:   9    -0.355137399837E+03    0.74058E-05   -0.60349E-03 39088   0.234E-01    0.780E-01
DAV:  10    -0.355137069750E+03    0.33009E-03   -0.35143E-03 38648   0.219E-01    0.486E-01
DAV:  11    -0.355137436350E+03   -0.36660E-03   -0.22608E-03 38720   0.168E-01    0.438E-01
DAV:  12    -0.355137346948E+03    0.89402E-04   -0.97421E-04 33696   0.968E-02    0.326E-01
DAV:  13    -0.355137401776E+03   -0.54828E-04   -0.20122E-04 35048   0.528E-02    0.308E-01
DAV:  14    -0.355137480465E+03   -0.78688E-04   -0.16308E-04 35632   0.497E-02    0.295E-01
DAV:  15    -0.355137533078E+03   -0.52614E-04   -0.70496E-04 34976   0.995E-02    0.161E-01
DAV:  16    -0.355137551947E+03   -0.18869E-04   -0.47748E-04 39216   0.756E-02    0.102E-01
DAV:  17    -0.355137594236E+03   -0.42289E-04   -0.21671E-04 31128   0.461E-02    0.153E-01
DAV:  18    -0.355137552928E+03    0.41308E-04   -0.62975E-05 24496   0.315E-02    0.694E-02
DAV:  19    -0.355137563969E+03   -0.11040E-04   -0.24641E-05 21216   0.188E-02    0.511E-02
DAV:  20    -0.355137565448E+03   -0.14793E-05   -0.13875E-05 18432   0.166E-02
  37 F= -.35513757E+03 E0= -.35512068E+03  d E =-.207719E-01  mag=     8.0000
       N       E                     dE             d eps       ncg     rms          rms(c)
DAV:   1    -0.355136627740E+03    0.93623E-03   -0.64634E-01 31712   0.231E+00    0.144E-01
DAV:   2    -0.355139349348E+03   -0.27216E-02   -0.27485E-02 28440   0.410E-01    0.300E-01
DAV:   3    -0.355139371779E+03   -0.22431E-04   -0.21139E-03 39752   0.115E-01    0.309E-01
DAV:   4    -0.355139248275E+03    0.12350E-03   -0.99044E-04 34408   0.681E-02    0.177E-01
DAV:   5    -0.355139218825E+03    0.29450E-04   -0.22022E-04 26776   0.452E-02    0.120E-01
DAV:   6    -0.355139219377E+03   -0.55192E-06   -0.10557E-04 26360   0.408E-02    0.123E-01
DAV:   7    -0.355139246574E+03   -0.27197E-04   -0.20225E-04 30712   0.486E-02    0.174E-01
DAV:   8    -0.355139175948E+03    0.70626E-04   -0.14533E-04 34008   0.446E-02    0.543E-02
DAV:   9    -0.355139187100E+03   -0.11151E-04   -0.43010E-05 23608   0.286E-02    0.716E-02
DAV:  10    -0.355139184200E+03    0.28998E-05   -0.61671E-05 20256   0.238E-02
  38 F= -.35513918E+03 E0= -.35512225E+03  d E =-.161875E-02  mag=     8.0000
       N       E                     dE             d eps       ncg     rms          rms(c)
DAV:   1    -0.355106476513E+03    0.32711E-01   -0.10742E+01 31312   0.903E+00    0.489E-01
DAV:   2    -0.355142032398E+03   -0.35556E-01   -0.36501E-01 28288   0.153E+00    0.587E-01
DAV:   3    -0.355145502540E+03   -0.34701E-02   -0.21945E-02 40256   0.369E-01    0.144E+00
DAV:   4    -0.355141291374E+03    0.42112E-02   -0.11877E-02 38176   0.265E-01    0.387E-01
DAV:   5    -0.355141680310E+03   -0.38894E-03   -0.30405E-03 40088   0.126E-01    0.427E-01
DAV:   6    -0.355141433108E+03    0.24720E-03   -0.19675E-03 38400   0.111E-01    0.306E-01
DAV:   7    -0.355141223804E+03    0.20930E-03   -0.89341E-04 36520   0.118E-01    0.256E-01
DAV:   8    -0.355141194912E+03    0.28892E-04   -0.69887E-04 38624   0.103E-01    0.234E-01
DAV:   9    -0.355141153210E+03    0.41702E-04   -0.47044E-04 37344   0.719E-02    0.174E-01
DAV:  10    -0.355141128190E+03    0.25021E-04   -0.19109E-04 35824   0.522E-02    0.985E-02
DAV:  11    -0.355141142454E+03   -0.14264E-04   -0.14077E-04 26040   0.369E-02    0.907E-02
DAV:  12    -0.355141151485E+03   -0.90307E-05   -0.70049E-05 22192   0.268E-02
  39 F= -.35514115E+03 E0= -.35512416E+03  d E =-.196728E-02  mag=     8.0000
       N       E                     dE             d eps       ncg     rms          rms(c)
DAV:   1    -0.352528689644E+03    0.26125E+01   -0.16040E+02 32856   0.439E+01    0.632E+00
DAV:   2    -0.354957293918E+03   -0.24286E+01   -0.22516E+01 28576   0.103E+01    0.132E+01
DAV:   3    -0.354971584476E+03   -0.14291E-01   -0.77858E+00 38472   0.537E+00    0.134E+01
DAV:   4    -0.354830434180E+03    0.14115E+00   -0.17772E+00 38920   0.314E+00    0.890E+00
DAV:   5    -0.354661923212E+03    0.16851E+00   -0.51506E-01 38920   0.208E+00    0.857E+00
DAV:   6    -0.354504757676E+03    0.15717E+00   -0.37871E-01 37904   0.150E+00    0.395E+00
DAV:   7    -0.354529131575E+03   -0.24374E-01   -0.21513E-01 39360   0.136E+00    0.568E+00
DAV:   8    -0.354505261457E+03    0.23870E-01   -0.23575E-01 38760   0.116E+00    0.351E+00
DAV:   9    -0.354517800761E+03   -0.12539E-01   -0.34781E-02 36488   0.686E-01    0.305E+00
DAV:  10    -0.354521505936E+03   -0.37052E-02   -0.18963E-02 38088   0.476E-01    0.282E+00
DAV:  11    -0.354516196087E+03    0.53098E-02   -0.19127E-02 39880   0.582E-01    0.222E+00
DAV:  12    -0.354506736727E+03    0.94594E-02   -0.47955E-02 39056   0.780E-01    0.196E+00
DAV:  13    -0.354508814877E+03   -0.20782E-02   -0.63298E-02 38616   0.665E-01    0.227E+00
DAV:  14    -0.354503429030E+03    0.53858E-02   -0.44175E-02 38512   0.557E-01    0.167E+00
DAV:  15    -0.354504888763E+03   -0.14597E-02   -0.19724E-02 39544   0.527E-01    0.185E+00
DAV:  16    -0.354501294405E+03    0.35944E-02   -0.18954E-02 39176   0.434E-01    0.976E-01
DAV:  17    -0.354502711038E+03   -0.14166E-02   -0.60157E-03 37992   0.233E-01    0.817E-01
DAV:  18    -0.354503183631E+03   -0.47259E-03   -0.20769E-03 39440   0.175E-01    0.782E-01
DAV:  19    -0.354502971540E+03    0.21209E-03   -0.15081E-03 39680   0.145E-01    0.666E-01
DAV:  20    -0.354502391097E+03    0.58044E-03   -0.20613E-03 38432   0.167E-01    0.530E-01
DAV:  21    -0.354501339675E+03    0.10514E-02   -0.44562E-03 38832   0.265E-01    0.429E-01
DAV:  22    -0.354501468678E+03   -0.12900E-03   -0.21869E-03 36536   0.175E-01    0.421E-01
DAV:  23    -0.354501474264E+03   -0.55860E-05   -0.96736E-04 38192   0.128E-01    0.305E-01
DAV:  24    -0.354501487901E+03   -0.13636E-04   -0.10724E-03 37992   0.119E-01    0.178E-01
DAV:  25    -0.354501485063E+03    0.28370E-05   -0.36094E-04 33736   0.521E-02    0.126E-01
DAV:  26    -0.354501471153E+03    0.13911E-04   -0.14871E-04 31832   0.386E-02    0.650E-02
DAV:  27    -0.354501494822E+03   -0.23670E-04   -0.71280E-05 27064   0.272E-02    0.470E-02
DAV:  28    -0.354501501887E+03   -0.70644E-05   -0.24117E-05 22240   0.170E-02
  40 F= -.35450150E+03 E0= -.35448463E+03  d E =0.639650E+00  mag=     7.9959
       N       E                     dE             d eps       ncg     rms          rms(c)
DAV:   1    -0.354601679838E+03   -0.10019E+00   -0.27473E+01 33064   0.177E+01    0.220E+00
DAV:   2    -0.355015341622E+03   -0.41366E+00   -0.40916E+00 28496   0.430E+00    0.613E+00
DAV:   3    -0.354964212124E+03    0.51129E-01   -0.35398E-01 37288   0.146E+00    0.383E+00
DAV:   4    -0.354952407489E+03    0.11805E-01   -0.94065E-02 39688   0.653E-01    0.294E+00
DAV:   5    -0.354959952463E+03   -0.75450E-02   -0.37587E-02 37760   0.579E-01    0.372E+00
DAV:   6    -0.354945094438E+03    0.14858E-01   -0.45315E-02 38056   0.556E-01    0.251E+00
DAV:   7    -0.354962124039E+03   -0.17030E-01   -0.70003E-02 38568   0.906E-01    0.392E+00
DAV:   8    -0.354938779286E+03    0.23345E-01   -0.94511E-02 38816   0.943E-01    0.229E+00
DAV:   9    -0.354935968982E+03    0.28103E-02   -0.43208E-02 36984   0.715E-01    0.157E+00
DAV:  10    -0.354932860091E+03    0.31089E-02   -0.19251E-02 39296   0.386E-01    0.778E-01
DAV:  11    -0.354934406270E+03   -0.15462E-02   -0.13887E-02 38888   0.305E-01    0.981E-01
DAV:  12    -0.354933160447E+03    0.12458E-02   -0.62049E-03 37456   0.237E-01    0.529E-01
DAV:  13    -0.354933425987E+03   -0.26554E-03   -0.11297E-03 38288   0.117E-01    0.434E-01
DAV:  14    -0.354933496196E+03   -0.70209E-04   -0.27687E-04 33592   0.537E-02    0.423E-01
DAV:  15    -0.354933465626E+03    0.30570E-04   -0.31128E-05 23760   0.157E-02    0.431E-01
DAV:  16    -0.354933365642E+03    0.99984E-04   -0.54760E-04 35416   0.771E-02    0.531E-01
DAV:  17    -0.354933145627E+03    0.22001E-03   -0.49263E-04 38240   0.834E-02    0.404E-01
DAV:  18    -0.354932795662E+03    0.34997E-03   -0.49941E-04 38608   0.818E-02    0.413E-01
DAV:  19    -0.354932417392E+03    0.37827E-03   -0.49684E-04 38632   0.846E-02    0.449E-01
DAV:  20    -0.354931935329E+03    0.48206E-03   -0.60111E-04 36480   0.806E-02    0.547E-01
DAV:  21    -0.354931833673E+03    0.10166E-03   -0.19577E-04 34216   0.355E-02    0.576E-01
DAV:  22    -0.354932313952E+03   -0.48028E-03   -0.13598E-04 31128   0.421E-02    0.528E-01
DAV:  23    -0.354932883556E+03   -0.56960E-03   -0.13288E-03 35088   0.129E-01    0.348E-01
DAV:  24    -0.354933140451E+03   -0.25690E-03   -0.10189E-03 38320   0.996E-02    0.216E-01
DAV:  25    -0.354933306295E+03   -0.16584E-03   -0.60361E-04 35600   0.699E-02    0.131E-01
DAV:  26    -0.354933345802E+03   -0.39507E-04   -0.33362E-04 34920   0.519E-02    0.678E-02
DAV:  27    -0.354933374368E+03   -0.28567E-04   -0.10132E-04 29480   0.276E-02    0.521E-02
DAV:  28    -0.354933374711E+03   -0.34305E-06   -0.26630E-05 19768   0.156E-02
  41 F= -.35493337E+03 E0= -.35491607E+03  d E =-.431873E+00  mag=     7.9997
       N       E                     dE             d eps       ncg     rms          rms(c)
DAV:   1    -0.354971470075E+03   -0.38096E-01   -0.58578E+00 33168   0.854E+00    0.799E-01
DAV:   2    -0.355053499809E+03   -0.82030E-01   -0.85877E-01 28392   0.184E+00    0.204E+00
DAV:   3    -0.355050705060E+03    0.27947E-02   -0.87028E-02 35704   0.631E-01    0.148E+00
DAV:   4    -0.355047781945E+03    0.29231E-02   -0.21037E-02 39032   0.359E-01    0.779E-01
DAV:   5    -0.355047750933E+03    0.31012E-04   -0.56115E-03 38760   0.270E-01    0.828E-01
DAV:   6    -0.355047146948E+03    0.60398E-03   -0.69982E-03 38192   0.227E-01    0.726E-01
DAV:   7    -0.355046680819E+03    0.46613E-03   -0.78690E-03 37616   0.250E-01    0.887E-01
DAV:   8    -0.355045280824E+03    0.14000E-02   -0.61524E-03 37496   0.233E-01    0.540E-01
DAV:   9    -0.355045082396E+03    0.19843E-03   -0.18704E-03 38296   0.203E-01    0.427E-01
DAV:  10    -0.355045246586E+03   -0.16419E-03   -0.21361E-03 39648   0.168E-01    0.479E-01
DAV:  11    -0.355045155988E+03    0.90597E-04   -0.12875E-03 39256   0.131E-01    0.301E-01
DAV:  12    -0.355045301936E+03   -0.14595E-03   -0.65290E-04 37064   0.785E-02    0.292E-01
DAV:  13    -0.355045274328E+03    0.27608E-04   -0.20450E-04 32832   0.480E-02    0.221E-01
DAV:  14    -0.355045297035E+03   -0.22707E-04   -0.65940E-05 26464   0.308E-02    0.215E-01
DAV:  15    -0.355045374422E+03   -0.77387E-04   -0.16397E-04 32960   0.438E-02    0.216E-01
DAV:  16    -0.355045356124E+03    0.18298E-04   -0.14139E-04 29360   0.386E-02    0.158E-01
DAV:  17    -0.355045358510E+03   -0.23864E-05   -0.29192E-04 35624   0.686E-02    0.740E-02
DAV:  18    -0.355045355415E+03    0.30950E-05   -0.19039E-04 37328   0.449E-02    0.663E-02
DAV:  19    -0.355045355810E+03   -0.39512E-06   -0.46597E-05 24904   0.271E-02
  42 F= -.35504536E+03 E0= -.35502802E+03  d E =-.111981E+00  mag=     8.0000
       N       E                     dE             d eps       ncg     rms          rms(c)
DAV:   1    -0.355029171602E+03    0.16184E-01   -0.82131E+00 32736   0.941E+00    0.839E-01
DAV:   2    -0.355124600237E+03   -0.95429E-01   -0.98048E-01 28376   0.201E+00    0.230E+00
DAV:   3    -0.355120222356E+03    0.43779E-02   -0.97682E-02 36032   0.699E-01    0.150E+00
DAV:   4    -0.355117766294E+03    0.24561E-02   -0.19874E-02 37064   0.336E-01    0.896E-01
DAV:   5    -0.355117106060E+03    0.66023E-03   -0.57372E-03 39048   0.221E-01    0.727E-01
DAV:   6    -0.355116600681E+03    0.50538E-03   -0.38043E-03 38480   0.187E-01    0.701E-01
DAV:   7    -0.355115582897E+03    0.10178E-02   -0.45428E-03 37328   0.209E-01    0.713E-01
DAV:   8    -0.355114877927E+03    0.70497E-03   -0.41176E-03 38440   0.228E-01    0.703E-01
DAV:   9    -0.355114561346E+03    0.31658E-03   -0.40979E-03 39016   0.236E-01    0.708E-01
DAV:  10    -0.355114431405E+03    0.12994E-03   -0.63887E-03 39016   0.218E-01    0.709E-01
DAV:  11    -0.355114258264E+03    0.17314E-03   -0.32388E-03 39088   0.196E-01    0.520E-01
DAV:  12    -0.355114329313E+03   -0.71049E-04   -0.15659E-03 38504   0.129E-01    0.385E-01
DAV:  13    -0.355114359459E+03   -0.30146E-04   -0.54613E-04 38288   0.933E-02    0.302E-01
DAV:  14    -0.355114517749E+03   -0.15829E-03   -0.44909E-04 38672   0.688E-02    0.245E-01
DAV:  15    -0.355114606891E+03   -0.89142E-04   -0.32939E-04 38944   0.641E-02    0.256E-01
DAV:  16    -0.355114612140E+03   -0.52488E-05   -0.39692E-04 36080   0.656E-02    0.208E-01
DAV:  17    -0.355114576724E+03    0.35416E-04   -0.33860E-04 38216   0.684E-02    0.100E-01
DAV:  18    -0.355114579336E+03   -0.26119E-05   -0.22108E-04 36168   0.526E-02    0.862E-02
DAV:  19    -0.355114593351E+03   -0.14015E-04   -0.81301E-05 30072   0.318E-02    0.893E-02
DAV:  20    -0.355114588560E+03    0.47907E-05   -0.27927E-05 21416   0.218E-02
  43 F= -.35511459E+03 E0= -.35509729E+03  d E =-.692327E-01  mag=     8.0000
       N       E                     dE             d eps       ncg     rms          rms(c)
DAV:   1    -0.355107912415E+03    0.66809E-02   -0.36445E+00 33200   0.540E+00    0.491E-01
DAV:   2    -0.355136056227E+03   -0.28144E-01   -0.27674E-01 28656   0.113E+00    0.140E+00
DAV:   3    -0.355133330474E+03    0.27258E-02   -0.20292E-02 36496   0.370E-01    0.801E-01
DAV:   4    -0.355132893700E+03    0.43677E-03   -0.42010E-03 39376   0.162E-01    0.526E-01
DAV:   5    -0.355133294906E+03   -0.40121E-03   -0.23887E-03 37032   0.126E-01    0.652E-01
DAV:   6    -0.355132842888E+03    0.45202E-03   -0.20289E-03 38576   0.125E-01    0.531E-01
DAV:   7    -0.355132964654E+03   -0.12177E-03   -0.23815E-03 37904   0.155E-01    0.663E-01
DAV:   8    -0.355132244740E+03    0.71991E-03   -0.24670E-03 38912   0.176E-01    0.550E-01
DAV:   9    -0.355132074010E+03    0.17073E-03   -0.22606E-03 39968   0.164E-01    0.486E-01
DAV:  10    -0.355132133400E+03   -0.59390E-04   -0.30548E-03 38736   0.145E-01    0.482E-01
DAV:  11    -0.355131988477E+03    0.14492E-03   -0.17141E-03 39152   0.140E-01    0.330E-01
DAV:  12    -0.355132018503E+03   -0.30026E-04   -0.59985E-04 35504   0.871E-02    0.266E-01
DAV:  13    -0.355132019592E+03   -0.10893E-05   -0.17500E-04 31304   0.560E-02    0.212E-01
DAV:  14    -0.355132056528E+03   -0.36936E-04   -0.77425E-05 28232   0.342E-02    0.205E-01
DAV:  15    -0.355132130380E+03   -0.73852E-04   -0.40408E-04 35296   0.720E-02    0.135E-01
DAV:  16    -0.355132158948E+03   -0.28568E-04   -0.23025E-04 32720   0.455E-02    0.157E-01
DAV:  17    -0.355132128308E+03    0.30640E-04   -0.12995E-04 32712   0.466E-02    0.579E-02
DAV:  18    -0.355132131022E+03   -0.27140E-05   -0.80680E-05 30752   0.313E-02
  44 F= -.35513213E+03 E0= -.35511497E+03  d E =-.175425E-01  mag=     8.0000
       N       E                     dE             d eps       ncg     rms          rms(c)
DAV:   1    -0.355127278256E+03    0.48501E-02   -0.21968E+00 32504   0.354E+00    0.380E-01
DAV:   2    -0.355138767343E+03   -0.11489E-01   -0.10903E-01 29072   0.740E-01    0.935E-01
DAV:   3    -0.355137287912E+03    0.14794E-02   -0.42271E-03 35408   0.202E-01    0.570E-01
DAV:   4    -0.355137496123E+03   -0.20821E-03   -0.12121E-03 38200   0.927E-02    0.620E-01
DAV:   5    -0.355137275708E+03    0.22042E-03   -0.16065E-03 35128   0.893E-02    0.528E-01
DAV:   6    -0.355137280255E+03   -0.45465E-05   -0.17083E-03 35048   0.947E-02    0.530E-01
DAV:   7    -0.355137334805E+03   -0.54551E-04   -0.23934E-03 38152   0.141E-01    0.546E-01
[...]
DAV:   3    -0.355155944747E+03   -0.16647E-02   -0.12682E-02 39216   0.358E-01    0.112E+00
DAV:   4    -0.355153709149E+03    0.22356E-02   -0.41778E-03 39376   0.223E-01    0.507E-01
DAV:   5    -0.355153776655E+03   -0.67507E-04   -0.13276E-03 41520   0.108E-01    0.545E-01
DAV:   6    -0.355153567415E+03    0.20924E-03   -0.33345E-03 38112   0.113E-01    0.598E-01
DAV:   7    -0.355152873164E+03    0.69425E-03   -0.34900E-03 38608   0.137E-01    0.508E-01
DAV:   8    -0.355152413328E+03    0.45984E-03   -0.32418E-03 38048   0.206E-01    0.579E-01
DAV:   9    -0.355153050772E+03   -0.63744E-03   -0.42276E-03 37752   0.229E-01    0.794E-01
DAV:  10    -0.355152507754E+03    0.54302E-03   -0.33284E-03 39152   0.182E-01    0.354E-01
DAV:  11    -0.355152843151E+03   -0.33540E-03   -0.72186E-04 37320   0.102E-01    0.307E-01
DAV:  12    -0.355152924417E+03   -0.81267E-04   -0.47251E-04 37856   0.668E-02    0.313E-01
DAV:  13    -0.355152891743E+03    0.32674E-04   -0.23436E-04 32032   0.443E-02    0.268E-01
DAV:  14    -0.355152953767E+03   -0.62024E-04   -0.41056E-04 34208   0.820E-02    0.170E-01
DAV:  15    -0.355152997517E+03   -0.43750E-04   -0.29404E-04 38152   0.627E-02    0.179E-01
DAV:  16    -0.355152992836E+03    0.46810E-05   -0.26989E-04 30936   0.557E-02    0.156E-01
DAV:  17    -0.355152966410E+03    0.26426E-04   -0.14457E-04 31368   0.464E-02    0.761E-02
DAV:  18    -0.355152978830E+03   -0.12420E-04   -0.47850E-05 24272   0.224E-02    0.566E-02
DAV:  19    -0.355152983550E+03   -0.47199E-05   -0.20079E-05 20384   0.187E-02
  54 F= -.35515298E+03 E0= -.35513596E+03  d E =-.952219E-03  mag=     8.0000
       N       E                     dE             d eps       ncg     rms          rms(c)
DAV:   1    -0.355035398972E+03    0.11758E+00   -0.28292E+01 32248   0.165E+01    0.910E-01
DAV:   2    -0.355156910655E+03   -0.12151E+00   -0.12436E+00 28288   0.292E+00    0.158E+00
DAV:   3    -0.355161724554E+03   -0.48139E-02   -0.95495E-02 38512   0.669E-01    0.215E+00
DAV:   4    -0.355153295813E+03    0.84287E-02   -0.40116E-02 38808   0.417E-01    0.825E-01
DAV:   5    -0.355154170025E+03   -0.87421E-03   -0.85714E-03 38760   0.318E-01    0.942E-01
DAV:   6    -0.355154159828E+03    0.10197E-04   -0.64463E-03 38920   0.276E-01    0.103E+00
DAV:   7    -0.355153386812E+03    0.77302E-03   -0.74548E-03 38616   0.289E-01    0.920E-01
DAV:   8    -0.355152020748E+03    0.13661E-02   -0.47657E-03 38560   0.246E-01    0.603E-01
DAV:   9    -0.355151978241E+03    0.42507E-04   -0.23462E-03 38120   0.174E-01    0.512E-01
DAV:  10    -0.355151718428E+03    0.25981E-03   -0.20501E-03 39136   0.145E-01    0.396E-01
DAV:  11    -0.355151537936E+03    0.18049E-03   -0.94168E-04 39552   0.116E-01    0.249E-01
DAV:  12    -0.355151991231E+03   -0.45330E-03   -0.12999E-03 38224   0.114E-01    0.511E-01
DAV:  13    -0.355151610781E+03    0.38045E-03   -0.78067E-04 37424   0.102E-01    0.174E-01
DAV:  14    -0.355151789219E+03   -0.17844E-03   -0.31056E-04 37656   0.672E-02    0.187E-01
DAV:  15    -0.355151855466E+03   -0.66247E-04   -0.33568E-04 36624   0.602E-02    0.187E-01
DAV:  16    -0.355151828087E+03    0.27378E-04   -0.22800E-04 29816   0.447E-02    0.131E-01
DAV:  17    -0.355151827986E+03    0.10123E-06   -0.96567E-05 31440   0.389E-02
  55 F= -.35515183E+03 E0= -.35513484E+03  d E =0.115556E-02  mag=     8.0000
       N       E                     dE             d eps       ncg     rms          rms(c)
DAV:   1    -0.355097628782E+03    0.54199E-01   -0.78485E+00 32464   0.954E+00    0.687E-01
DAV:   2    -0.355153580779E+03   -0.55952E-01   -0.56460E-01 28288   0.187E+00    0.145E+00
DAV:   3    -0.355152587586E+03    0.99319E-03   -0.24255E-02 38056   0.478E-01    0.116E+00
DAV:   4    -0.355151202917E+03    0.13847E-02   -0.66951E-03 41088   0.236E-01    0.643E-01
DAV:   5    -0.355151385762E+03   -0.18284E-03   -0.46347E-03 38552   0.190E-01    0.711E-01
DAV:   6    -0.355151066885E+03    0.31888E-03   -0.25867E-03 39224   0.115E-01    0.675E-01
DAV:   7    -0.355150779622E+03    0.28726E-03   -0.24142E-03 38728   0.114E-01    0.669E-01
DAV:   8    -0.355150361719E+03    0.41790E-03   -0.24982E-03 39328   0.125E-01    0.604E-01
DAV:   9    -0.355150276091E+03    0.85629E-04   -0.34326E-03 39120   0.201E-01    0.788E-01
DAV:  10    -0.355149673171E+03    0.60292E-03   -0.51118E-03 38240   0.235E-01    0.733E-01
DAV:  11    -0.355149469874E+03    0.20330E-03   -0.33137E-03 39264   0.209E-01    0.567E-01
DAV:  12    -0.355149578505E+03   -0.10863E-03   -0.18030E-03 36864   0.138E-01    0.494E-01
DAV:  13    -0.355149426621E+03    0.15188E-03   -0.87682E-04 37072   0.108E-01    0.343E-01
DAV:  14    -0.355149675229E+03   -0.24861E-03   -0.66490E-04 38336   0.101E-01    0.307E-01
DAV:  15    -0.355149657537E+03    0.17692E-04   -0.61533E-04 38448   0.992E-02    0.177E-01
DAV:  16    -0.355149738053E+03   -0.80516E-04   -0.30707E-04 34800   0.552E-02    0.222E-01
DAV:  17    -0.355149684967E+03    0.53087E-04   -0.15128E-04 30968   0.511E-02    0.874E-02
DAV:  18    -0.355149704006E+03   -0.19039E-04   -0.89594E-05 30448   0.360E-02    0.668E-02
DAV:  19    -0.355149703469E+03    0.53658E-06   -0.40661E-05 25640   0.272E-02
  56 F= -.35514970E+03 E0= -.35513257E+03  d E =0.212452E-02  mag=     8.0000
       N       E                     dE             d eps       ncg     rms          rms(c)
DAV:   1    -0.355130764860E+03    0.18939E-01   -0.25618E+00 33088   0.572E+00    0.438E-01
DAV:   2    -0.355151110459E+03   -0.20346E-01   -0.20972E-01 28288   0.115E+00    0.856E-01
DAV:   3    -0.355150690580E+03    0.41988E-03   -0.98007E-03 38448   0.307E-01    0.670E-01
DAV:   4    -0.355150417762E+03    0.27282E-03   -0.32095E-03 40000   0.154E-01    0.548E-01
DAV:   5    -0.355150150035E+03    0.26773E-03   -0.29560E-03 37048   0.127E-01    0.421E-01
DAV:   6    -0.355150591339E+03   -0.44130E-03   -0.40051E-03 37896   0.149E-01    0.653E-01
DAV:   7    -0.355150138121E+03    0.45322E-03   -0.38682E-03 39296   0.161E-01    0.497E-01
DAV:   8    -0.355149767156E+03    0.37096E-03   -0.18724E-03 40072   0.154E-01    0.351E-01
DAV:   9    -0.355149762453E+03    0.47035E-05   -0.20352E-03 37896   0.117E-01    0.293E-01
DAV:  10    -0.355149716489E+03    0.45964E-04   -0.94944E-04 38872   0.841E-02    0.177E-01
DAV:  11    -0.355149740116E+03   -0.23627E-04   -0.19775E-04 32568   0.452E-02    0.156E-01
DAV:  12    -0.355149729246E+03    0.10870E-04   -0.44862E-05 22096   0.237E-02    0.133E-01
DAV:  13    -0.355149725937E+03    0.33088E-05   -0.72463E-06 16312   0.883E-03
  57 F= -.35514973E+03 E0= -.35513272E+03  d E =-.224682E-04  mag=     8.0000
       N       E                     dE             d eps       ncg     rms          rms(c)
DAV:   1    -0.355145765794E+03    0.39635E-02   -0.12719E+00 32920   0.365E+00    0.242E-01
DAV:   2    -0.355152402014E+03   -0.66362E-02   -0.65796E-02 28288   0.671E-01    0.550E-01
DAV:   3    -0.355152124183E+03    0.27783E-03   -0.43984E-03 37368   0.165E-01    0.399E-01
DAV:   4    -0.355151964256E+03    0.15993E-03   -0.14294E-03 38000   0.852E-02    0.280E-01
DAV:   5    -0.355151900334E+03    0.63922E-04   -0.44121E-04 34680   0.631E-02    0.229E-01
DAV:   6    -0.355151937251E+03   -0.36916E-04   -0.42895E-04 34520   0.704E-02    0.296E-01
DAV:   7    -0.355151901200E+03    0.36051E-04   -0.10031E-03 38752   0.892E-02    0.306E-01
DAV:   8    -0.355151692531E+03    0.20867E-03   -0.95140E-04 38928   0.919E-02    0.198E-01
DAV:   9    -0.355151809771E+03   -0.11724E-03   -0.76268E-04 33832   0.755E-02    0.256E-01
DAV:  10    -0.355151772748E+03    0.37023E-04   -0.41388E-04 32544   0.573E-02    0.121E-01
DAV:  11    -0.355151796492E+03   -0.23744E-04   -0.50031E-05 24224   0.238E-02    0.129E-01
DAV:  12    -0.355151791713E+03    0.47790E-05   -0.94388E-06 17000   0.104E-02
  58 F= -.35515179E+03 E0= -.35513463E+03  d E =-.206578E-02  mag=     8.0000
       N       E                     dE             d eps       ncg     rms          rms(c)
DAV:   1    -0.355147886355E+03    0.39101E-02   -0.59401E-01 31824   0.236E+00    0.182E-01
DAV:   2    -0.355150976594E+03   -0.30902E-02   -0.28384E-02 28416   0.434E-01    0.595E-01
DAV:   3    -0.355150411938E+03    0.56466E-03   -0.44888E-03 34848   0.151E-01    0.281E-01
DAV:   4    -0.355150404828E+03    0.71095E-05   -0.63480E-04 36696   0.694E-02    0.228E-01
DAV:   5    -0.355150335042E+03    0.69786E-04   -0.19122E-04 29432   0.460E-02    0.157E-01
DAV:   6    -0.355150307302E+03    0.27741E-04   -0.86118E-05 23576   0.361E-02    0.130E-01
DAV:   7    -0.355150324616E+03   -0.17315E-04   -0.31838E-04 35112   0.568E-02    0.199E-01
DAV:   8    -0.355150289339E+03    0.35277E-04   -0.56373E-04 35728   0.684E-02    0.176E-01
DAV:   9    -0.355150312843E+03   -0.23504E-04   -0.34247E-04 28648   0.544E-02    0.164E-01
DAV:  10    -0.355150301994E+03    0.10850E-04   -0.12476E-04 24856   0.368E-02    0.989E-02
DAV:  11    -0.355150311069E+03   -0.90754E-05   -0.30988E-05 21368   0.201E-02
  59 F= -.35515031E+03 E0= -.35513328E+03  d E =0.148064E-02  mag=     8.0000
       N       E                     dE             d eps       ncg     rms          rms(c)
DAV:   1    -0.354594791395E+03    0.55551E+00   -0.14344E+02 32016   0.346E+01    0.208E+00
DAV:   2    -0.355145587971E+03   -0.55080E+00   -0.56060E+00 28384   0.607E+00    0.352E+00
DAV:   3    -0.355169028076E+03   -0.23440E-01   -0.22485E-01 38384   0.144E+00    0.474E+00
DAV:   4    -0.355131093429E+03    0.37935E-01   -0.10369E-01 39464   0.923E-01    0.209E+00
DAV:   5    -0.355125578475E+03    0.55150E-02   -0.41410E-02 38976   0.511E-01    0.127E+00
DAV:   6    -0.355126240934E+03   -0.66246E-03   -0.15625E-02 39648   0.362E-01    0.148E+00
DAV:   7    -0.355121907589E+03    0.43333E-02   -0.20219E-02 39672   0.400E-01    0.119E+00
DAV:   8    -0.355123696583E+03   -0.17890E-02   -0.22443E-02 39384   0.427E-01    0.173E+00
DAV:   9    -0.355120147621E+03    0.35490E-02   -0.39617E-02 39192   0.444E-01    0.155E+00
DAV:  10    -0.355119894498E+03    0.25312E-03   -0.23100E-02 38488   0.453E-01    0.161E+00
DAV:  11    -0.355116253583E+03    0.36409E-02   -0.11257E-02 38592   0.374E-01    0.664E-01
DAV:  12    -0.355118349489E+03   -0.20959E-02   -0.46695E-03 37888   0.218E-01    0.528E-01
DAV:  13    -0.355118579722E+03   -0.23023E-03   -0.13161E-03 36920   0.135E-01    0.503E-01
DAV:  14    -0.355118856462E+03   -0.27674E-03   -0.68381E-04 38480   0.796E-02    0.503E-01
DAV:  15    -0.355118825102E+03    0.31361E-04   -0.32119E-04 33576   0.611E-02    0.446E-01
DAV:  16    -0.355119025777E+03   -0.20068E-03   -0.52425E-04 35912   0.813E-02    0.368E-01
DAV:  17    -0.355119100161E+03   -0.74385E-04   -0.72244E-04 36800   0.994E-02    0.285E-01
DAV:  18    -0.355119032979E+03    0.67183E-04   -0.96890E-04 37736   0.119E-01    0.158E-01
DAV:  19    -0.355119094365E+03   -0.61386E-04   -0.53000E-04 37264   0.747E-02    0.159E-01
DAV:  20    -0.355119112012E+03   -0.17647E-04   -0.14241E-04 31984   0.507E-02    0.128E-01
DAV:  21    -0.355119122375E+03   -0.10363E-04   -0.53473E-05 26296   0.288E-02    0.939E-02
DAV:  22    -0.355119129563E+03   -0.71880E-05   -0.21560E-05 21584   0.132E-02
  60 F= -.35511913E+03 E0= -.35510228E+03  d E =0.311815E-01  mag=     8.0000
       N       E                     dE             d eps       ncg     rms          rms(c)
DAV:   1    -0.354890175445E+03    0.22895E+00   -0.37304E+01 32896   0.203E+01    0.144E+00
DAV:   2    -0.355134149567E+03   -0.24397E+00   -0.22506E+00 28480   0.392E+00    0.510E+00
DAV:   3    -0.355092067788E+03    0.42082E-01   -0.27697E-01 36976   0.141E+00    0.224E+00
DAV:   4    -0.355095179471E+03   -0.31117E-02   -0.53552E-02 37128   0.528E-01    0.197E+00
DAV:   5    -0.355090995598E+03    0.41839E-02   -0.23936E-02 36880   0.385E-01    0.138E+00
DAV:   6    -0.355092646969E+03   -0.16514E-02   -0.19879E-02 37904   0.348E-01    0.164E+00
DAV:   7    -0.355090023507E+03    0.26235E-02   -0.15051E-02 39456   0.358E-01    0.126E+00
DAV:   8    -0.355088450084E+03    0.15734E-02   -0.10960E-02 39032   0.362E-01    0.125E+00
DAV:   9    -0.355087317199E+03    0.11329E-02   -0.10653E-02 38888   0.354E-01    0.125E+00
DAV:  10    -0.355085060270E+03    0.22569E-02   -0.12334E-02 39744   0.369E-01    0.950E-01
DAV:  11    -0.355086749551E+03   -0.16893E-02   -0.11121E-02 39200   0.387E-01    0.135E+00
DAV:  12    -0.355085281823E+03    0.14677E-02   -0.78583E-03 38352   0.311E-01    0.882E-01
DAV:  13    -0.355085286203E+03   -0.43803E-05   -0.41608E-03 37880   0.233E-01    0.531E-01
DAV:  14    -0.355086194139E+03   -0.90794E-03   -0.21507E-03 40208   0.165E-01    0.626E-01
DAV:  15    -0.355086162418E+03    0.31721E-04   -0.10975E-03 39360   0.113E-01    0.552E-01
DAV:  16    -0.355086052521E+03    0.10990E-03   -0.28999E-04 36880   0.620E-02    0.491E-01
DAV:  17    -0.355085980442E+03    0.72079E-04   -0.18313E-04 33752   0.456E-02    0.408E-01
DAV:  18    -0.355086026321E+03   -0.45879E-04   -0.92344E-04 37840   0.130E-01    0.308E-01
DAV:  19    -0.355086038660E+03   -0.12340E-04   -0.72818E-04 39040   0.113E-01    0.250E-01
DAV:  20    -0.355085988249E+03    0.50412E-04   -0.23714E-04 33384   0.547E-02    0.170E-01
DAV:  21    -0.355085963689E+03    0.24560E-04   -0.99015E-05 30576   0.315E-02    0.967E-02
DAV:  22    -0.355085968515E+03   -0.48263E-05   -0.53898E-05 24104   0.283E-02
  61 F= -.35508597E+03 E0= -.35506856E+03  d E =0.331610E-01  mag=     8.0000
       N       E                     dE             d eps       ncg     rms          rms(c)
DAV:   1    -0.354655327131E+03    0.43064E+00   -0.12040E+02 31800   0.330E+01    0.200E+00
DAV:   2    -0.355162768439E+03   -0.50744E+00   -0.52655E+00 28384   0.590E+00    0.289E+00
DAV:   3    -0.355202728452E+03   -0.39960E-01   -0.30984E-01 38784   0.154E+00    0.518E+00
DAV:   4    -0.355153879143E+03    0.48849E-01   -0.17532E-01 38072   0.101E+00    0.222E+00
DAV:   5    -0.355152170904E+03    0.17082E-02   -0.63314E-02 38496   0.588E-01    0.170E+00
DAV:   6    -0.355152110330E+03    0.60574E-04   -0.27148E-02 39432   0.531E-01    0.174E+00
DAV:   7    -0.355150214310E+03    0.18960E-02   -0.36506E-02 38552   0.538E-01    0.168E+00
DAV:   8    -0.355145392870E+03    0.48214E-02   -0.25621E-02 40000   0.529E-01    0.105E+00
DAV:   9    -0.355145979683E+03   -0.58681E-03   -0.19043E-02 39104   0.372E-01    0.110E+00
DAV:  10    -0.355144287468E+03    0.16922E-02   -0.79188E-03 38416   0.286E-01    0.482E-01
DAV:  11    -0.355144978297E+03   -0.69083E-03   -0.26043E-03 38192   0.200E-01    0.575E-01
DAV:  12    -0.355144949130E+03    0.29167E-04   -0.19967E-03 38280   0.155E-01    0.435E-01
DAV:  13    -0.355144983327E+03   -0.34196E-04   -0.71200E-04 38296   0.968E-02    0.317E-01
DAV:  14    -0.355145042741E+03   -0.59414E-04   -0.11863E-04 31752   0.344E-02    0.311E-01
DAV:  15    -0.355145064703E+03   -0.21962E-04   -0.83703E-05 24584   0.350E-02    0.312E-01
DAV:  16    -0.355145091946E+03   -0.27243E-04   -0.18682E-04 31400   0.552E-02    0.322E-01
DAV:  17    -0.355144995580E+03    0.96366E-04   -0.42075E-04 35680   0.871E-02    0.220E-01
DAV:  18    -0.355144923979E+03    0.71601E-04   -0.48502E-04 38592   0.907E-02    0.151E-01
DAV:  19    -0.355144931939E+03   -0.79593E-05   -0.27676E-04 36840   0.632E-02    0.132E-01
DAV:  20    -0.355144917819E+03    0.14120E-04   -0.11216E-04 30168   0.435E-02    0.726E-02
DAV:  21    -0.355144932938E+03   -0.15119E-04   -0.96813E-05 29400   0.296E-02    0.493E-02
DAV:  22    -0.355144939356E+03   -0.64176E-05   -0.23069E-05 21648   0.172E-02
  62 F= -.35514494E+03 E0= -.35512782E+03  d E =-.589708E-01  mag=     8.0000
       N       E                     dE             d eps       ncg     rms          rms(c)
DAV:   1    -0.354982624553E+03    0.16231E+00   -0.16146E+01 32552   0.150E+01    0.116E+00
DAV:   2    -0.355121322750E+03   -0.13870E+00   -0.14066E+00 28288   0.305E+00    0.310E+00
DAV:   3    -0.355111555527E+03    0.97672E-02   -0.11323E-01 36992   0.967E-01    0.193E+00
DAV:   4    -0.355108662691E+03    0.28928E-02   -0.17487E-02 39104   0.407E-01    0.123E+00
DAV:   5    -0.355109373546E+03   -0.71086E-03   -0.13372E-02 38904   0.328E-01    0.140E+00
DAV:   6    -0.355108345857E+03    0.10277E-02   -0.14124E-02 38520   0.263E-01    0.128E+00
DAV:   7    -0.355107686104E+03    0.65975E-03   -0.12039E-02 38776   0.289E-01    0.124E+00
DAV:   8    -0.355104982220E+03    0.27039E-02   -0.10254E-02 39264   0.347E-01    0.106E+00
DAV:   9    -0.355103874472E+03    0.11077E-02   -0.87935E-03 38640   0.325E-01    0.937E-01
DAV:  10    -0.355103578874E+03    0.29560E-03   -0.78225E-03 39456   0.323E-01    0.849E-01
DAV:  11    -0.355103786604E+03   -0.20773E-03   -0.12332E-02 39048   0.297E-01    0.782E-01
DAV:  12    -0.355103495824E+03    0.29078E-03   -0.34335E-03 38584   0.206E-01    0.511E-01
DAV:  13    -0.355103638016E+03   -0.14219E-03   -0.13165E-03 38512   0.136E-01    0.403E-01
DAV:  14    -0.355103938986E+03   -0.30097E-03   -0.85186E-04 39200   0.978E-02    0.493E-01
DAV:  15    -0.355103848511E+03    0.90475E-04   -0.78871E-04 37440   0.958E-02    0.316E-01
DAV:  16    -0.355103888535E+03   -0.40024E-04   -0.28752E-04 37368   0.646E-02    0.284E-01
DAV:  17    -0.355103890826E+03   -0.22906E-05   -0.31531E-04 35896   0.661E-02    0.201E-01
DAV:  18    -0.355103902243E+03   -0.11417E-04   -0.39676E-04 37208   0.797E-02    0.155E-01
DAV:  19    -0.355103921968E+03   -0.19725E-04   -0.26191E-04 37056   0.571E-02    0.145E-01
DAV:  20    -0.355103914282E+03    0.76859E-05   -0.85625E-05 28488   0.378E-02
  63 F= -.35510391E+03 E0= -.35508682E+03  d E =0.410251E-01  mag=     8.0000
       N       E                     dE             d eps       ncg     rms          rms(c)
DAV:   1    -0.355049027611E+03    0.54894E-01   -0.13414E+01 33456   0.134E+01    0.103E+00
DAV:   2    -0.355167526470E+03   -0.11850E+00   -0.11001E+00 28392   0.271E+00    0.366E+00
DAV:   3    -0.355145093769E+03    0.22433E-01   -0.11834E-01 36048   0.104E+00    0.143E+00
DAV:   4    -0.355147515315E+03   -0.24215E-02   -0.25939E-02 38488   0.381E-01    0.139E+00
DAV:   5    -0.355145034131E+03    0.24812E-02   -0.13086E-02 37104   0.253E-01    0.936E-01
DAV:   6    -0.355145989795E+03   -0.95566E-03   -0.12063E-02 38440   0.242E-01    0.116E+00
DAV:   7    -0.355144323424E+03    0.16664E-02   -0.75070E-03 39728   0.254E-01    0.896E-01
DAV:   8    -0.355143030018E+03    0.12934E-02   -0.60598E-03 38976   0.274E-01    0.823E-01
DAV:   9    -0.355142706586E+03    0.32343E-03   -0.62224E-03 39144   0.268E-01    0.885E-01
DAV:  10    -0.355141708097E+03    0.99849E-03   -0.61877E-03 39432   0.262E-01    0.616E-01
DAV:  11    -0.355142364201E+03   -0.65610E-03   -0.47945E-03 39176   0.257E-01    0.772E-01
DAV:  12    -0.355142092284E+03    0.27192E-03   -0.29919E-03 37672   0.194E-01    0.551E-01
DAV:  13    -0.355142142639E+03   -0.50355E-04   -0.13995E-03 37936   0.141E-01    0.347E-01
DAV:  14    -0.355142566651E+03   -0.42401E-03   -0.10449E-03 38312   0.110E-01    0.413E-01
DAV:  15    -0.355142442780E+03    0.12387E-03   -0.38709E-04 35032   0.674E-02    0.339E-01
DAV:  16    -0.355142409296E+03    0.33484E-04   -0.18482E-04 31696   0.539E-02    0.271E-01
DAV:  17    -0.355142383686E+03    0.25610E-04   -0.28951E-04 37872   0.669E-02    0.170E-01
DAV:  18    -0.355142402059E+03   -0.18373E-04   -0.34845E-04 37152   0.684E-02    0.125E-01
DAV:  19    -0.355142452092E+03   -0.50033E-04   -0.15524E-04 33072   0.459E-02    0.145E-01
DAV:  20    -0.355142437583E+03    0.14508E-04   -0.38774E-05 22672   0.255E-02    0.125E-01
DAV:  21    -0.355142414282E+03    0.23301E-04   -0.38321E-05 22848   0.215E-02    0.762E-02
DAV:  22    -0.355142410900E+03    0.33825E-05   -0.27778E-05 20384   0.184E-02
  64 F= -.35514241E+03 E0= -.35512530E+03  d E =-.384966E-01  mag=     8.0000
