       N       E                     dE             d eps       ncg     rms          rms(c)
DAV:   1     0.562665885831E+04    0.56267E+04   -0.26009E+05 34856   0.164E+03
DAV:   2     0.342776899651E+03   -0.52839E+04   -0.49095E+04 34200   0.475E+02
DAV:   3    -0.298485649364E+03   -0.64126E+03   -0.61353E+03 34072   0.178E+02
DAV:   4    -0.318781247898E+03   -0.20296E+02   -0.20185E+02 35144   0.329E+01
DAV:   5    -0.319297336811E+03   -0.51609E+00   -0.51387E+00 46768   0.404E+00    0.632E-01
DAV:   6    -0.319608240534E+03   -0.31090E+00   -0.12997E-01 40312   0.112E+00    0.136E+00
DAV:   7    -0.319607337541E+03    0.90299E-03   -0.19651E-02 35640   0.523E-01    0.697E-01
DAV:   8    -0.319607892370E+03   -0.55483E-03   -0.30580E-03 35440   0.160E-01    0.361E-01
DAV:   9    -0.319607969752E+03   -0.77382E-04   -0.48069E-04 34896   0.699E-02    0.262E-01
DAV:  10    -0.319608092128E+03   -0.12238E-03   -0.11508E-04 32984   0.396E-02    0.178E-01
DAV:  11    -0.319608113791E+03   -0.21663E-04   -0.30611E-05 24992   0.209E-02    0.149E-01
DAV:  12    -0.319608141536E+03   -0.27746E-04   -0.13224E-05 20456   0.138E-02    0.119E-01
DAV:  13    -0.319608150691E+03   -0.91543E-05   -0.71258E-06 18424   0.850E-03
   1 F= -.31960815E+03 E0= -.31960347E+03  d E =-.319608E+03  mag=    44.0000
