       N       E                     dE             d eps       ncg     rms          rms(c)
DAV:   1     0.371620356169E+04    0.37162E+04   -0.15268E+05 28544   0.153E+03
DAV:   2     0.227758127015E+03   -0.34884E+04   -0.33321E+04 28056   0.470E+02
DAV:   3    -0.217059459306E+03   -0.44482E+03   -0.43328E+03 30936   0.176E+02
DAV:   4    -0.237978592360E+03   -0.20919E+02   -0.20461E+02 37208   0.411E+01
DAV:   5    -0.239296673458E+03   -0.13181E+01   -0.12932E+01 49160   0.779E+00    0.504E+01
DAV:   6    -0.220181386443E+03    0.19115E+02   -0.15021E+02 38888   0.390E+01    0.282E+01
DAV:   7    -0.222501990137E+03   -0.23206E+01   -0.15637E+01 38144   0.172E+01    0.226E+01
DAV:   8    -0.221993911172E+03    0.50808E+00   -0.42255E+00 39000   0.771E+00    0.126E+01
DAV:   9    -0.222347669762E+03   -0.35376E+00   -0.15816E+00 35400   0.436E+00    0.843E+00
DAV:  10    -0.222506681600E+03   -0.15901E+00   -0.15730E+00 38472   0.486E+00    0.954E+00
DAV:  11    -0.222355171378E+03    0.15151E+00   -0.57881E-01 38440   0.280E+00    0.591E+00
DAV:  12    -0.222304108056E+03    0.51063E-01   -0.28517E-01 39128   0.142E+00    0.179E+00
DAV:  13    -0.222326866674E+03   -0.22759E-01   -0.96929E-02 38032   0.970E-01    0.178E+00
DAV:  14    -0.222322882981E+03    0.39837E-02   -0.19647E-02 37464   0.674E-01    0.855E-01
DAV:  15    -0.222324358328E+03   -0.14753E-02   -0.75607E-03 38776   0.300E-01    0.726E-01
DAV:  16    -0.222325290055E+03   -0.93173E-03   -0.66452E-03 37800   0.306E-01    0.650E-01
DAV:  17    -0.222326265249E+03   -0.97519E-03   -0.39313E-03 35136   0.262E-01    0.592E-01
DAV:  18    -0.222326066101E+03    0.19915E-03   -0.83852E-03 38504   0.250E-01    0.342E-01
DAV:  19    -0.222326232381E+03   -0.16628E-03   -0.65295E-04 37480   0.133E-01    0.256E-01
DAV:  20    -0.222326219241E+03    0.13139E-04   -0.78602E-04 34728   0.846E-02    0.120E-01
DAV:  21    -0.222326237923E+03   -0.18682E-04   -0.16666E-04 30384   0.498E-02    0.102E-01
DAV:  22    -0.222326257142E+03   -0.19219E-04   -0.10328E-04 27328   0.536E-02    0.121E-01
DAV:  23    -0.222326260741E+03   -0.35994E-05   -0.58893E-04 29648   0.647E-02    0.988E-02
DAV:  24    -0.222326250438E+03    0.10303E-04   -0.11437E-04 25072   0.359E-02    0.347E-02
DAV:  25    -0.222326251253E+03   -0.81546E-06   -0.10972E-05 19392   0.163E-02
   1 F= -.22232625E+03 E0= -.22231712E+03  d E =-.222326E+03  mag=    22.0012
       N       E                     dE             d eps       ncg     rms          rms(c)
DAV:   1    -0.222326792305E+03   -0.54187E-03   -0.74528E-03 31032   0.449E-01    0.379E-02
DAV:   2    -0.222326873910E+03   -0.81605E-04   -0.77930E-04 28896   0.857E-02    0.558E-02
DAV:   3    -0.222326876252E+03   -0.23419E-05   -0.10731E-04 24912   0.307E-02    0.534E-02
DAV:   4    -0.222326873996E+03    0.22560E-05   -0.43462E-05 18568   0.191E-02
   2 F= -.22232687E+03 E0= -.22231774E+03  d E =-.622743E-03  mag=    22.0002
       N       E                     dE             d eps       ncg     rms          rms(c)
DAV:   1    -0.222325838737E+03    0.10375E-02   -0.60826E-01 30080   0.399E+00    0.316E-01
DAV:   2    -0.222331740147E+03   -0.59014E-02   -0.57103E-02 28208   0.731E-01    0.218E-01
DAV:   3    -0.222332117380E+03   -0.37723E-03   -0.14653E-03 40048   0.163E-01    0.251E-01
DAV:   4    -0.222332042173E+03    0.75206E-04   -0.79227E-04 37824   0.103E-01    0.147E-01
DAV:   5    -0.222332047473E+03   -0.52996E-05   -0.48343E-04 28448   0.563E-02    0.141E-01
DAV:   6    -0.222332024502E+03    0.22971E-04   -0.19717E-04 34496   0.537E-02    0.565E-02
DAV:   7    -0.222332038541E+03   -0.14039E-04   -0.59522E-05 29736   0.484E-02    0.555E-02
DAV:   8    -0.222332034902E+03    0.36393E-05   -0.28718E-05 23704   0.326E-02
   3 F= -.22233203E+03 E0= -.22232291E+03  d E =-.516091E-02  mag=    22.0000
       N       E                     dE             d eps       ncg     rms          rms(c)
DAV:   1    -0.222335167006E+03   -0.31285E-02   -0.16345E+00 29296   0.527E+00    0.365E-01
DAV:   2    -0.222343417023E+03   -0.82500E-02   -0.84961E-02 28152   0.943E-01    0.232E-01
DAV:   3    -0.222343741243E+03   -0.32422E-03   -0.18920E-03 39240   0.185E-01    0.272E-01
DAV:   4    -0.222343644595E+03    0.96648E-04   -0.98169E-04 40200   0.124E-01    0.179E-01
DAV:   5    -0.222343695548E+03   -0.50953E-04   -0.11712E-03 37248   0.889E-02    0.251E-01
DAV:   6    -0.222343575459E+03    0.12009E-03   -0.72640E-04 38776   0.826E-02    0.811E-02
DAV:   7    -0.222343592315E+03   -0.16856E-04   -0.10152E-04 36032   0.604E-02    0.570E-02
DAV:   8    -0.222343590376E+03    0.19386E-05   -0.33131E-05 23720   0.338E-02
   4 F= -.22234359E+03 E0= -.22233447E+03  d E =-.115555E-01  mag=    22.0000
       N       E                     dE             d eps       ncg     rms          rms(c)
DAV:   1    -0.222350316482E+03   -0.67242E-02   -0.16855E+00 28800   0.424E+00    0.299E-01
DAV:   2    -0.222356042786E+03   -0.57263E-02   -0.62193E-02 28400   0.735E-01    0.196E-01
DAV:   3    -0.222356172802E+03   -0.13002E-03   -0.13498E-03 40280   0.167E-01    0.266E-01
DAV:   4    -0.222356017605E+03    0.15520E-03   -0.42948E-04 40848   0.103E-01    0.942E-02
DAV:   5    -0.222356001377E+03    0.16228E-04   -0.17695E-04 35544   0.694E-02    0.109E-01
DAV:   6    -0.222356001809E+03   -0.43154E-06   -0.31000E-04 37584   0.615E-02    0.101E-01
DAV:   7    -0.222355994448E+03    0.73610E-05   -0.20040E-04 24632   0.372E-02    0.630E-02
DAV:   8    -0.222355989496E+03    0.49518E-05   -0.41516E-05 19648   0.265E-02
   5 F= -.22235599E+03 E0= -.22234687E+03  d E =-.123991E-01  mag=    22.0000
       N       E                     dE             d eps       ncg     rms          rms(c)
DAV:   1    -0.221714692972E+03    0.64130E+00   -0.15419E+02 28968   0.411E+01    0.295E+00
DAV:   2    -0.222458556735E+03   -0.74386E+00   -0.78837E+00 28448   0.745E+00    0.244E+00
DAV:   3    -0.222469564584E+03   -0.11008E-01   -0.20257E-01 40408   0.200E+00    0.292E+00
DAV:   4    -0.222450054251E+03    0.19510E-01   -0.72965E-02 41056   0.101E+00    0.891E-01
DAV:   5    -0.222454783411E+03   -0.47292E-02   -0.55486E-02 38312   0.725E-01    0.211E+00
DAV:   6    -0.222446910136E+03    0.78733E-02   -0.63617E-02 39656   0.582E-01    0.635E-01
DAV:   7    -0.222448055676E+03   -0.11455E-02   -0.61386E-03 39816   0.350E-01    0.531E-01
DAV:   8    -0.222447672198E+03    0.38348E-03   -0.20410E-03 38536   0.228E-01    0.210E-01
DAV:   9    -0.222447704228E+03   -0.32030E-04   -0.50562E-04 38888   0.131E-01    0.162E-01
DAV:  10    -0.222447679218E+03    0.25010E-04   -0.15727E-04 35616   0.794E-02    0.527E-02
DAV:  11    -0.222447694739E+03   -0.15521E-04   -0.47668E-05 26456   0.377E-02    0.546E-02
DAV:  12    -0.222447695511E+03   -0.77155E-06   -0.42901E-05 24200   0.369E-02
   6 F= -.22244770E+03 E0= -.22243853E+03  d E =-.917060E-01  mag=    22.0000
       N       E                     dE             d eps       ncg     rms          rms(c)
DAV:   1    -0.220856876980E+03    0.15908E+01   -0.15032E+02 29304   0.581E+01    0.484E+00
DAV:   2    -0.222369661280E+03   -0.15128E+01   -0.15263E+01 27872   0.112E+01    0.290E+00
DAV:   3    -0.222449324022E+03   -0.79663E-01   -0.33320E-01 39192   0.242E+00    0.376E+00
DAV:   4    -0.222428155559E+03    0.21168E-01   -0.14622E-01 40168   0.137E+00    0.182E+00
DAV:   5    -0.222439694550E+03   -0.11539E-01   -0.12020E-01 40672   0.962E-01    0.304E+00
DAV:   6    -0.222429358239E+03    0.10336E-01   -0.15155E-01 40152   0.833E-01    0.189E+00
DAV:   7    -0.222425910202E+03    0.34480E-02   -0.37577E-02 40232   0.661E-01    0.834E-01
DAV:   8    -0.222427242908E+03   -0.13327E-02   -0.91334E-03 39880   0.445E-01    0.722E-01
DAV:   9    -0.222426343770E+03    0.89914E-03   -0.30457E-03 38952   0.302E-01    0.242E-01
DAV:  10    -0.222426557601E+03   -0.21383E-03   -0.10567E-03 39936   0.159E-01    0.287E-01
DAV:  11    -0.222426517315E+03    0.40286E-04   -0.62579E-04 38776   0.130E-01    0.132E-01
DAV:  12    -0.222426566424E+03   -0.49109E-04   -0.19910E-04 33632   0.583E-02    0.803E-02
DAV:  13    -0.222426552044E+03    0.14380E-04   -0.50479E-05 26520   0.405E-02    0.607E-02
DAV:  14    -0.222426543560E+03    0.84835E-05   -0.42798E-05 24784   0.358E-02
   7 F= -.22242654E+03 E0= -.22241733E+03  d E =0.211520E-01  mag=    22.0000
       N       E                     dE             d eps       ncg     rms          rms(c)
DAV:   1    -0.222220526759E+03    0.20603E+00   -0.15495E+01 29816   0.227E+01    0.216E+00
DAV:   2    -0.222475042751E+03   -0.25452E+00   -0.24689E+00 28224   0.442E+00    0.159E+00
DAV:   3    -0.222495789259E+03   -0.20747E-01   -0.95296E-02 40400   0.123E+00    0.241E+00
DAV:   4    -0.222488999848E+03    0.67894E-02   -0.10195E-01 38744   0.713E-01    0.141E+00
DAV:   5    -0.222486896491E+03    0.21034E-02   -0.19494E-02 40264   0.382E-01    0.565E-01
DAV:   6    -0.222487099148E+03   -0.20266E-03   -0.28217E-03 36552   0.239E-01    0.329E-01
DAV:   7    -0.222487726051E+03   -0.62690E-03   -0.21895E-03 40504   0.251E-01    0.472E-01
DAV:   8    -0.222487376163E+03    0.34989E-03   -0.12223E-03 39232   0.173E-01    0.148E-01
DAV:   9    -0.222487393370E+03   -0.17207E-04   -0.19838E-04 38688   0.848E-02    0.101E-01
DAV:  10    -0.222487372884E+03    0.20486E-04   -0.86488E-05 29912   0.539E-02    0.552E-02
DAV:  11    -0.222487386253E+03   -0.13369E-04   -0.71300E-05 26672   0.342E-02    0.439E-02
DAV:  12    -0.222487391849E+03   -0.55962E-05   -0.31110E-05 22808   0.282E-02
   8 F= -.22248739E+03 E0= -.22247805E+03  d E =-.608483E-01  mag=    22.0000
       N       E                     dE             d eps       ncg     rms          rms(c)
DAV:   1    -0.222379745829E+03    0.10764E+00   -0.68052E+00 29984   0.151E+01    0.143E+00
DAV:   2    -0.222493514463E+03   -0.11377E+00   -0.11008E+00 28336   0.292E+00    0.916E-01
DAV:   3    -0.222502239863E+03   -0.87254E-02   -0.32343E-02 40592   0.743E-01    0.128E+00
DAV:   4    -0.222500042735E+03    0.21971E-02   -0.23139E-02 38672   0.451E-01    0.697E-01
DAV:   5    -0.222499801445E+03    0.24129E-03   -0.77972E-03 40504   0.220E-01    0.447E-01
DAV:   6    -0.222499707972E+03    0.93473E-04   -0.17159E-03 38600   0.176E-01    0.214E-01
DAV:   7    -0.222499990685E+03   -0.28271E-03   -0.10434E-03 40408   0.179E-01    0.304E-01
DAV:   8    -0.222499852138E+03    0.13855E-03   -0.52022E-04 39352   0.121E-01    0.951E-02
DAV:   9    -0.222499851406E+03    0.73171E-06   -0.92029E-05 34848   0.589E-02
   9 F= -.22249985E+03 E0= -.22249053E+03  d E =-.124596E-01  mag=    22.0000
       N       E                     dE             d eps       ncg     rms          rms(c)
DAV:   1    -0.222499998139E+03   -0.14600E-03   -0.54811E-01 29488   0.296E+00    0.192E-01
DAV:   2    -0.222502623636E+03   -0.26255E-02   -0.25810E-02 28456   0.514E-01    0.141E-01
DAV:   3    -0.222502762083E+03   -0.13845E-03   -0.78121E-04 40240   0.126E-01    0.191E-01
DAV:   4    -0.222502706331E+03    0.55753E-04   -0.34571E-04 34216   0.743E-02    0.892E-02
DAV:   5    -0.222502708157E+03   -0.18266E-05   -0.15773E-04 25440   0.344E-02    0.827E-02
DAV:   6    -0.222502696230E+03    0.11928E-04   -0.95588E-05 27632   0.378E-02    0.571E-02
DAV:   7    -0.222502694992E+03    0.12375E-05   -0.50317E-05 26608   0.382E-02
  10 F= -.22250269E+03 E0= -.22249334E+03  d E =-.284359E-02  mag=    22.0000
       N       E                     dE             d eps       ncg     rms          rms(c)
DAV:   1    -0.222499866719E+03    0.28295E-02   -0.37719E+00 29000   0.599E+00    0.297E-01
DAV:   2    -0.222509735484E+03   -0.98688E-02   -0.99437E-02 27792   0.985E-01    0.194E-01
DAV:   3    -0.222509869421E+03   -0.13394E-03   -0.19710E-03 40144   0.181E-01    0.238E-01
DAV:   4    -0.222509782657E+03    0.86764E-04   -0.84620E-04 39968   0.989E-02    0.162E-01
DAV:   5    -0.222509749689E+03    0.32968E-04   -0.43791E-04 33112   0.623E-02    0.144E-01
DAV:   6    -0.222509688984E+03    0.60705E-04   -0.34740E-04 35872   0.774E-02    0.125E-01
DAV:   7    -0.222509663893E+03    0.25091E-04   -0.18286E-04 36256   0.689E-02    0.446E-02
DAV:   8    -0.222509672110E+03   -0.82161E-05   -0.37161E-05 27480   0.316E-02
  11 F= -.22250967E+03 E0= -.22250029E+03  d E =-.697712E-02  mag=    22.0000
       N       E                     dE             d eps       ncg     rms          rms(c)
DAV:   1    -0.222507935251E+03    0.17286E-02   -0.36348E+00 29072   0.534E+00    0.257E-01
DAV:   2    -0.222516330376E+03   -0.83951E-02   -0.85332E-02 27736   0.854E-01    0.143E-01
DAV:   3    -0.222516413370E+03   -0.82995E-04   -0.19257E-03 39944   0.146E-01    0.242E-01
DAV:   4    -0.222516312227E+03    0.10114E-03   -0.84308E-04 40248   0.750E-02    0.109E-01
DAV:   5    -0.222516283491E+03    0.28736E-04   -0.18971E-04 34368   0.616E-02    0.129E-01
DAV:   6    -0.222516213790E+03    0.69701E-04   -0.18605E-04 33912   0.657E-02    0.563E-02
DAV:   7    -0.222516222375E+03   -0.85851E-05   -0.77717E-05 33296   0.447E-02
  12 F= -.22251622E+03 E0= -.22250680E+03  d E =-.655027E-02  mag=    22.0000
       N       E                     dE             d eps       ncg     rms          rms(c)
DAV:   1    -0.222367904535E+03    0.14831E+00   -0.74842E+01 28256   0.235E+01    0.129E+00
DAV:   2    -0.222555043435E+03   -0.18714E+00   -0.19514E+00 27784   0.388E+00    0.911E-01
DAV:   3    -0.222555580841E+03   -0.53741E-03   -0.37405E-02 39192   0.795E-01    0.121E+00
DAV:   4    -0.222551880974E+03    0.36999E-02   -0.10110E-02 41320   0.432E-01    0.451E-01
DAV:   5    -0.222552176282E+03   -0.29531E-03   -0.15239E-02 35264   0.382E-01    0.113E+00
DAV:   6    -0.222549808750E+03    0.23675E-02   -0.15135E-02 38056   0.305E-01    0.241E-01
DAV:   7    -0.222550216161E+03   -0.40741E-03   -0.11879E-03 39784   0.165E-01    0.310E-01
DAV:   8    -0.222550052342E+03    0.16382E-03   -0.48717E-04 38544   0.116E-01    0.766E-02
DAV:   9    -0.222550081146E+03   -0.28804E-04   -0.84235E-05 33456   0.542E-02    0.691E-02
DAV:  10    -0.222550079591E+03    0.15554E-05   -0.39318E-05 24896   0.394E-02
  13 F= -.22255008E+03 E0= -.22254044E+03  d E =-.338572E-01  mag=    22.0000
       N       E                     dE             d eps       ncg     rms          rms(c)
DAV:   1    -0.221549292373E+03    0.10008E+01   -0.17548E+02 29352   0.559E+01    0.382E+00
DAV:   2    -0.222511503253E+03   -0.96221E+00   -0.95850E+00 27808   0.958E+00    0.207E+00
DAV:   3    -0.222554563186E+03   -0.43060E-01   -0.19537E-01 36712   0.168E+00    0.234E+00
DAV:   4    -0.222549608621E+03    0.49546E-02   -0.10410E-01 40864   0.836E-01    0.170E+00
DAV:   5    -0.222547843740E+03    0.17649E-02   -0.41421E-02 38648   0.647E-01    0.138E+00
DAV:   6    -0.222545602791E+03    0.22409E-02   -0.18385E-02 38496   0.617E-01    0.775E-01
DAV:   7    -0.222546924000E+03   -0.13212E-02   -0.72184E-03 39368   0.497E-01    0.688E-01
DAV:   8    -0.222546529742E+03    0.39426E-03   -0.43313E-03 39024   0.333E-01    0.384E-01
DAV:   9    -0.222546351983E+03    0.17776E-03   -0.10722E-03 38760   0.180E-01    0.171E-01
DAV:  10    -0.222546355061E+03   -0.30778E-05   -0.31798E-04 38672   0.990E-02    0.125E-01
DAV:  11    -0.222546362288E+03   -0.72268E-05   -0.18515E-04 31776   0.721E-02    0.103E-01
DAV:  12    -0.222546357174E+03    0.51141E-05   -0.74688E-05 27360   0.490E-02
  14 F= -.22254636E+03 E0= -.22253605E+03  d E =0.372242E-02  mag=    22.0000
       N       E                     dE             d eps       ncg     rms          rms(c)
DAV:   1    -0.222390177732E+03    0.15618E+00   -0.21002E+01 29952   0.236E+01    0.195E+00
DAV:   2    -0.222594945184E+03   -0.20477E+00   -0.19669E+00 28128   0.429E+00    0.227E+00
DAV:   3    -0.222602109423E+03   -0.71642E-02   -0.11774E-01 39096   0.140E+00    0.202E+00
DAV:   4    -0.222598007688E+03    0.41017E-02   -0.33038E-02 39592   0.676E-01    0.101E+00
DAV:   5    -0.222598044093E+03   -0.36405E-04   -0.23162E-02 39808   0.357E-01    0.840E-01
DAV:   6    -0.222597628338E+03    0.41575E-03   -0.99046E-03 38520   0.294E-01    0.471E-01
DAV:   7    -0.222597753200E+03   -0.12486E-03   -0.25663E-03 39424   0.260E-01    0.387E-01
DAV:   8    -0.222597738381E+03    0.14819E-04   -0.96808E-04 39032   0.168E-01    0.246E-01
DAV:   9    -0.222597689531E+03    0.48850E-04   -0.47392E-04 39600   0.120E-01    0.132E-01
DAV:  10    -0.222597711356E+03   -0.21825E-04   -0.15891E-04 31864   0.740E-02    0.954E-02
DAV:  11    -0.222597713914E+03   -0.25580E-05   -0.81127E-05 26928   0.540E-02
  15 F= -.22259771E+03 E0= -.22258750E+03  d E =-.513567E-01  mag=    22.0000
       N       E                     dE             d eps       ncg     rms          rms(c)
DAV:   1    -0.222568298839E+03    0.29413E-01   -0.22586E+00 31512   0.875E+00    0.815E-01
DAV:   2    -0.222602637219E+03   -0.34338E-01   -0.32181E-01 28544   0.158E+00    0.707E-01
DAV:   3    -0.222605358160E+03   -0.27209E-02   -0.11831E-02 39232   0.502E-01    0.845E-01
DAV:   4    -0.222604330026E+03    0.10281E-02   -0.42843E-03 38776   0.278E-01    0.302E-01
DAV:   5    -0.222604477834E+03   -0.14781E-03   -0.24439E-03 39624   0.121E-01    0.322E-01
DAV:   6    -0.222604469558E+03    0.82761E-05   -0.12564E-03 38296   0.113E-01    0.192E-01
DAV:   7    -0.222604504412E+03   -0.34855E-04   -0.41328E-04 38536   0.104E-01    0.156E-01
DAV:   8    -0.222604515915E+03   -0.11503E-04   -0.16021E-04 33584   0.762E-02    0.988E-02
DAV:   9    -0.222604502001E+03    0.13914E-04   -0.47412E-05 26216   0.503E-02    0.351E-02
DAV:  10    -0.222604503588E+03   -0.15876E-05   -0.22313E-05 20664   0.267E-02
  16 F= -.22260450E+03 E0= -.22259433E+03  d E =-.678967E-02  mag=    22.0000
       N       E                     dE             d eps       ncg     rms          rms(c)
DAV:   1    -0.222595067065E+03    0.94349E-02   -0.84186E-01 29472   0.485E+00    0.411E-01
DAV:   2    -0.222603773862E+03   -0.87068E-02   -0.87397E-02 27904   0.889E-01    0.219E-01
DAV:   3    -0.222604312213E+03   -0.53835E-03   -0.19014E-03 41416   0.173E-01    0.271E-01
DAV:   4    -0.222604232364E+03    0.79849E-04   -0.11714E-03 38216   0.114E-01    0.194E-01
DAV:   5    -0.222604266454E+03   -0.34090E-04   -0.95373E-04 33008   0.820E-02    0.220E-01
DAV:   6    -0.222604194854E+03    0.71599E-04   -0.43138E-04 36104   0.779E-02    0.927E-02
DAV:   7    -0.222604207747E+03   -0.12893E-04   -0.95776E-05 28952   0.624E-02    0.784E-02
DAV:   8    -0.222604205334E+03    0.24130E-05   -0.40065E-05 24752   0.411E-02
  17 F= -.22260421E+03 E0= -.22259403E+03  d E =0.298254E-03  mag=    22.0000
       N       E                     dE             d eps       ncg     rms          rms(c)
DAV:   1    -0.222591768398E+03    0.12439E-01   -0.17207E+00 28944   0.552E+00    0.447E-01
DAV:   2    -0.222602134219E+03   -0.10366E-01   -0.11005E-01 28256   0.103E+00    0.376E-01
DAV:   3    -0.222602694971E+03   -0.56075E-03   -0.41535E-03 41672   0.285E-01    0.526E-01
DAV:   4    -0.222602250419E+03    0.44455E-03   -0.31280E-03 39024   0.181E-01    0.307E-01
DAV:   5    -0.222602190229E+03    0.60190E-04   -0.18811E-03 39368   0.103E-01    0.212E-01
DAV:   6    -0.222602110883E+03    0.79346E-04   -0.39069E-04 37888   0.851E-02    0.954E-02
DAV:   7    -0.222602112638E+03   -0.17559E-05   -0.98132E-05 37696   0.675E-02
  18 F= -.22260211E+03 E0= -.22259191E+03  d E =0.209270E-02  mag=    22.0000
       N       E                     dE             d eps       ncg     rms          rms(c)
DAV:   1    -0.222600617455E+03    0.14934E-02   -0.40981E-01 29576   0.230E+00    0.156E-01
DAV:   2    -0.222602123223E+03   -0.15058E-02   -0.15064E-02 29496   0.410E-01    0.254E-01
DAV:   3    -0.222602054787E+03    0.68436E-04   -0.70224E-04 40120   0.134E-01    0.133E-01
DAV:   4    -0.222602028306E+03    0.26481E-04   -0.83505E-05 33024   0.530E-02    0.578E-02
DAV:   5    -0.222602028268E+03    0.37166E-07   -0.42079E-05 25248   0.383E-02
  19 F= -.22260203E+03 E0= -.22259179E+03  d E =0.843700E-04  mag=    22.0000
       N       E                     dE             d eps       ncg     rms          rms(c)
DAV:   1    -0.222600008258E+03    0.20200E-02   -0.18006E+00 29376   0.371E+00    0.184E-01
DAV:   2    -0.222604215549E+03   -0.42073E-02   -0.42011E-02 29712   0.617E-01    0.454E-01
DAV:   3    -0.222603970561E+03    0.24499E-03   -0.43628E-03 39352   0.180E-01    0.239E-01
DAV:   4    -0.222603886739E+03    0.83822E-04   -0.61991E-04 39288   0.821E-02    0.115E-01
DAV:   5    -0.222603856119E+03    0.30619E-04   -0.65568E-05 30584   0.440E-02    0.658E-02
DAV:   6    -0.222603830569E+03    0.25550E-04   -0.67221E-05 32224   0.477E-02    0.707E-02
DAV:   7    -0.222603811730E+03    0.18839E-04   -0.65472E-05 31808   0.438E-02    0.205E-02
DAV:   8    -0.222603814252E+03   -0.25215E-05   -0.17161E-05 18432   0.174E-02
  20 F= -.22260381E+03 E0= -.22259349E+03  d E =-.178598E-02  mag=    22.0000
       N       E                     dE             d eps       ncg     rms          rms(c)
DAV:   1    -0.222598656984E+03    0.51547E-02   -0.37145E+00 29088   0.588E+00    0.289E-01
DAV:   2    -0.222607891164E+03   -0.92342E-02   -0.92867E-02 27664   0.947E-01    0.250E-01
DAV:   3    -0.222608111511E+03   -0.22035E-03   -0.24897E-03 38848   0.207E-01    0.379E-01
DAV:   4    -0.222607843615E+03    0.26790E-03   -0.14567E-03 39000   0.122E-01    0.172E-01
DAV:   5    -0.222607826644E+03    0.16972E-04   -0.47254E-04 33544   0.582E-02    0.131E-01
DAV:   6    -0.222607745467E+03    0.81177E-04   -0.24454E-04 33800   0.704E-02    0.860E-02
DAV:   7    -0.222607749588E+03   -0.41208E-05   -0.12071E-04 36152   0.545E-02    0.673E-02
DAV:   8    -0.222607747792E+03    0.17955E-05   -0.23040E-05 22120   0.288E-02
  21 F= -.22260775E+03 E0= -.22259733E+03  d E =-.393354E-02  mag=    22.0000
       N       E                     dE             d eps       ncg     rms          rms(c)
DAV:   1    -0.222516970609E+03    0.90779E-01   -0.42427E+01 29376   0.190E+01    0.949E-01
DAV:   2    -0.222620041160E+03   -0.10307E+00   -0.10507E+00 27664   0.306E+00    0.675E-01
DAV:   3    -0.222622191221E+03   -0.21501E-02   -0.29859E-02 38144   0.623E-01    0.119E+00
DAV:   4    -0.222619467949E+03    0.27233E-02   -0.15479E-02 40120   0.345E-01    0.540E-01
DAV:   5    -0.222619258672E+03    0.20928E-03   -0.39215E-03 40960   0.182E-01    0.426E-01
DAV:   6    -0.222618187381E+03    0.10713E-02   -0.25170E-03 34344   0.200E-01    0.166E-01
DAV:   7    -0.222618340093E+03   -0.15271E-03   -0.10193E-03 34496   0.118E-01    0.160E-01
DAV:   8    -0.222618313491E+03    0.26602E-04   -0.20304E-04 38848   0.710E-02    0.945E-02
DAV:   9    -0.222618301313E+03    0.12179E-04   -0.66965E-05 31656   0.451E-02    0.584E-02
DAV:  10    -0.222618312782E+03   -0.11470E-04   -0.57692E-05 26304   0.467E-02    0.625E-02
DAV:  11    -0.222618317355E+03   -0.45724E-05   -0.39138E-05 22896   0.357E-02
  22 F= -.22261832E+03 E0= -.22260745E+03  d E =-.105696E-01  mag=    22.0000
       N       E                     dE             d eps       ncg     rms          rms(c)
DAV:   1    -0.222522411065E+03    0.95902E-01   -0.41882E+01 29376   0.186E+01    0.897E-01
DAV:   2    -0.222620311157E+03   -0.97900E-01   -0.99312E-01 27752   0.300E+00    0.863E-01
DAV:   3    -0.222621987617E+03   -0.16765E-02   -0.28819E-02 39000   0.665E-01    0.121E+00
DAV:   4    -0.222618639518E+03    0.33481E-02   -0.99828E-03 40096   0.370E-01    0.485E-01
DAV:   5    -0.222618590359E+03    0.49159E-04   -0.46912E-03 40184   0.175E-01    0.457E-01
DAV:   6    -0.222617893757E+03    0.69660E-03   -0.41796E-03 35080   0.227E-01    0.444E-01
DAV:   7    -0.222617571315E+03    0.32244E-03   -0.14362E-03 37752   0.158E-01    0.180E-01
DAV:   8    -0.222617582284E+03   -0.10969E-04   -0.24468E-04 37864   0.741E-02    0.940E-02
DAV:   9    -0.222617586391E+03   -0.41064E-05   -0.11109E-04 34296   0.597E-02    0.948E-02
DAV:  10    -0.222617585989E+03    0.40158E-06   -0.11182E-04 27736   0.567E-02    0.776E-02
DAV:  11    -0.222617595124E+03   -0.91349E-05   -0.73273E-05 27464   0.468E-02
  23 F= -.22261760E+03 E0= -.22260633E+03  d E =0.722231E-03  mag=    22.0000
       N       E                     dE             d eps       ncg     rms          rms(c)
DAV:   1    -0.221056910018E+03    0.15607E+01   -0.23418E+02 29504   0.662E+01    0.497E+00
DAV:   2    -0.222599888215E+03   -0.15430E+01   -0.15076E+01 28048   0.122E+01    0.616E+00
DAV:   3    -0.222576542943E+03    0.23345E-01   -0.11523E+00 38080   0.338E+00    0.510E+00
DAV:   4    -0.222547226350E+03    0.29317E-01   -0.27420E-01 38632   0.175E+00    0.283E+00
DAV:   5    -0.222544148541E+03    0.30778E-02   -0.40580E-02 39144   0.103E+00    0.134E+00
DAV:   6    -0.222552647409E+03   -0.84989E-02   -0.72204E-02 38320   0.787E-01    0.238E+00
DAV:   7    -0.222544432158E+03    0.82153E-02   -0.50202E-02 38592   0.594E-01    0.112E+00
DAV:   8    -0.222545672947E+03   -0.12408E-02   -0.18671E-02 39096   0.543E-01    0.880E-01
DAV:   9    -0.222545399324E+03    0.27362E-03   -0.57461E-03 39144   0.335E-01    0.688E-01
DAV:  10    -0.222544795970E+03    0.60335E-03   -0.33422E-03 38960   0.297E-01    0.379E-01
DAV:  11    -0.222544997845E+03   -0.20188E-03   -0.13703E-03 38352   0.184E-01    0.312E-01
DAV:  12    -0.222544973306E+03    0.24539E-04   -0.81429E-04 38792   0.140E-01    0.150E-01
DAV:  13    -0.222545009097E+03   -0.35791E-04   -0.20299E-04 37152   0.731E-02    0.976E-02
DAV:  14    -0.222545006269E+03    0.28282E-05   -0.62792E-05 25968   0.494E-02
  24 F= -.22254501E+03 E0= -.22253349E+03  d E =0.725889E-01  mag=    22.0000
       N       E                     dE             d eps       ncg     rms          rms(c)
DAV:   1    -0.221804129048E+03    0.74088E+00   -0.18544E+02 29664   0.485E+01    0.297E+00
DAV:   2    -0.222517134949E+03   -0.71301E+00   -0.73047E+00 27856   0.842E+00    0.207E+00
DAV:   3    -0.222550869363E+03   -0.33734E-01   -0.30736E-01 40152   0.187E+00    0.396E+00
DAV:   4    -0.222521231240E+03    0.29638E-01   -0.18382E-01 40696   0.102E+00    0.134E+00
DAV:   5    -0.222522264720E+03   -0.10335E-02   -0.22456E-02 40368   0.638E-01    0.137E+00
DAV:   6    -0.222516742779E+03    0.55219E-02   -0.16970E-02 35672   0.609E-01    0.611E-01
DAV:   7    -0.222517696044E+03   -0.95326E-03   -0.72210E-03 38776   0.450E-01    0.581E-01
DAV:   8    -0.222517269432E+03    0.42661E-03   -0.28997E-03 39752   0.275E-01    0.299E-01
DAV:   9    -0.222517217022E+03    0.52410E-04   -0.10305E-03 38680   0.160E-01    0.184E-01
DAV:  10    -0.222517177101E+03    0.39921E-04   -0.26497E-04 38600   0.943E-02    0.944E-02
DAV:  11    -0.222517190008E+03   -0.12907E-04   -0.14034E-04 32176   0.592E-02    0.813E-02
DAV:  12    -0.222517196878E+03   -0.68702E-05   -0.80491E-05 26424   0.492E-02
  25 F= -.22251720E+03 E0= -.22250657E+03  d E =0.278094E-01  mag=    22.0000
       N       E                     dE             d eps       ncg     rms          rms(c)
DAV:   1    -0.218671883798E+03    0.38453E+01   -0.28786E+02 30544   0.897E+01    0.796E+00
DAV:   2    -0.222299725587E+03   -0.36278E+01   -0.33511E+01 27912   0.169E+01    0.895E+00
DAV:   3    -0.222398418992E+03   -0.98693E-01   -0.15063E+00 38304   0.477E+00    0.825E+00
DAV:   4    -0.222425582767E+03   -0.27164E-01   -0.20923E+00 38416   0.265E+00    0.677E+00
DAV:   5    -0.222336638227E+03    0.88945E-01   -0.24403E-01 38360   0.168E+00    0.262E+00
DAV:   6    -0.222348001343E+03   -0.11363E-01   -0.10414E-01 39664   0.111E+00    0.272E+00
DAV:   7    -0.222349572735E+03   -0.15714E-02   -0.45484E-02 38424   0.877E-01    0.178E+00
DAV:   8    -0.222353533811E+03   -0.39611E-02   -0.32466E-02 38904   0.815E-01    0.176E+00
DAV:   9    -0.222351359315E+03    0.21745E-02   -0.28636E-02 38280   0.704E-01    0.108E+00
DAV:  10    -0.222353300447E+03   -0.19411E-02   -0.11082E-02 38536   0.496E-01    0.898E-01
DAV:  11    -0.222353408056E+03   -0.10761E-03   -0.11674E-02 38248   0.388E-01    0.566E-01
DAV:  12    -0.222353719494E+03   -0.31144E-03   -0.30445E-03 38240   0.237E-01    0.457E-01
DAV:  13    -0.222353558147E+03    0.16135E-03   -0.16409E-03 38520   0.176E-01    0.251E-01
DAV:  14    -0.222353525227E+03    0.32920E-04   -0.37019E-04 38176   0.101E-01    0.159E-01
DAV:  15    -0.222353505063E+03    0.20164E-04   -0.20373E-04 30528   0.547E-02    0.118E-01
DAV:  16    -0.222353500516E+03    0.45461E-05   -0.41529E-04 29840   0.552E-02    0.908E-02
DAV:  17    -0.222353503571E+03   -0.30550E-05   -0.79566E-05 25984   0.447E-02
  26 F= -.22235350E+03 E0= -.22234267E+03  d E =0.163693E+00  mag=    22.0000
       N       E                     dE             d eps       ncg     rms          rms(c)
DAV:   1    -0.221844748424E+03    0.50875E+00   -0.39311E+01 31264   0.355E+01    0.338E+00
DAV:   2    -0.222485141897E+03   -0.64039E+00   -0.59976E+00 28504   0.687E+00    0.370E+00
DAV:   3    -0.222494301444E+03   -0.91595E-02   -0.28608E-01 37920   0.212E+00    0.275E+00
DAV:   4    -0.222496337440E+03   -0.20360E-02   -0.11737E-01 38816   0.105E+00    0.187E+00
DAV:   5    -0.222495123582E+03    0.12139E-02   -0.60676E-02 39912   0.539E-01    0.134E+00
DAV:   6    -0.222494594070E+03    0.52951E-03   -0.18695E-02 38640   0.436E-01    0.703E-01
DAV:   7    -0.222496841971E+03   -0.22479E-02   -0.91999E-03 38680   0.419E-01    0.944E-01
DAV:   8    -0.222495428746E+03    0.14132E-02   -0.44133E-03 38552   0.317E-01    0.348E-01
DAV:   9    -0.222495662164E+03   -0.23342E-03   -0.11078E-03 38520   0.199E-01    0.223E-01
DAV:  10    -0.222495695377E+03   -0.33213E-04   -0.47483E-04 38072   0.110E-01    0.133E-01
DAV:  11    -0.222495720016E+03   -0.24639E-04   -0.21922E-04 31888   0.793E-02    0.122E-01
DAV:  12    -0.222495706107E+03    0.13908E-04   -0.13395E-04 26664   0.513E-02    0.467E-02
DAV:  13    -0.222495713333E+03   -0.72261E-05   -0.44091E-05 24000   0.312E-02
  27 F= -.22249571E+03 E0= -.22248559E+03  d E =-.142210E+00  mag=    22.0000
       N       E                     dE             d eps       ncg     rms          rms(c)
DAV:   1    -0.222314012891E+03    0.18169E+00   -0.13583E+01 30600   0.205E+01    0.190E+00
DAV:   2    -0.222517411115E+03   -0.20340E+00   -0.19035E+00 28488   0.389E+00    0.196E+00
DAV:   3    -0.222525497452E+03   -0.80863E-02   -0.77673E-02 38160   0.123E+00    0.192E+00
DAV:   4    -0.222523966407E+03    0.15310E-02   -0.58570E-02 38672   0.665E-01    0.120E+00
DAV:   5    -0.222522732443E+03    0.12340E-02   -0.17444E-02 40464   0.318E-01    0.571E-01
DAV:   6    -0.222523257162E+03   -0.52472E-03   -0.35040E-03 38744   0.267E-01    0.493E-01
DAV:   7    -0.222523179585E+03    0.77576E-04   -0.17236E-03 38360   0.210E-01    0.323E-01
DAV:   8    -0.222523271061E+03   -0.91476E-04   -0.72236E-04 38928   0.137E-01    0.125E-01
DAV:   9    -0.222523303769E+03   -0.32708E-04   -0.19169E-04 38448   0.890E-02    0.928E-02
DAV:  10    -0.222523302136E+03    0.16327E-05   -0.62093E-05 27160   0.493E-02
  28 F= -.22252330E+03 E0= -.22251348E+03  d E =-.275888E-01  mag=    22.0000
       N       E                     dE             d eps       ncg     rms          rms(c)
DAV:   1    -0.222486762477E+03    0.36541E-01   -0.41916E+00 29072   0.982E+00    0.758E-01
DAV:   2    -0.222521041933E+03   -0.34279E-01   -0.32662E-01 28232   0.174E+00    0.730E-01
DAV:   3    -0.222523030137E+03   -0.19882E-02   -0.15061E-02 38776   0.501E-01    0.873E-01
DAV:   4    -0.222522319558E+03    0.71058E-03   -0.11216E-02 38736   0.291E-01    0.511E-01
DAV:   5    -0.222522075282E+03    0.24428E-03   -0.30075E-03 39576   0.143E-01    0.221E-01
DAV:   6    -0.222522145556E+03   -0.70274E-04   -0.52941E-04 37792   0.118E-01    0.210E-01
DAV:   7    -0.222522115416E+03    0.30140E-04   -0.37610E-04 38456   0.105E-01    0.120E-01
DAV:   8    -0.222522149879E+03   -0.34462E-04   -0.13908E-04 36032   0.681E-02    0.819E-02
DAV:   9    -0.222522141467E+03    0.84112E-05   -0.39588E-05 25928   0.457E-02
  29 F= -.22252214E+03 E0= -.22251242E+03  d E =0.116067E-02  mag=    22.0000
       N       E                     dE             d eps       ncg     rms          rms(c)
DAV:   1    -0.222446177234E+03    0.75973E-01   -0.17286E+01 28800   0.150E+01    0.867E-01
DAV:   2    -0.222506357905E+03   -0.60181E-01   -0.60291E-01 27696   0.250E+00    0.582E-01
DAV:   3    -0.222508945265E+03   -0.25874E-02   -0.17883E-02 37856   0.511E-01    0.955E-01
DAV:   4    -0.222507470662E+03    0.14746E-02   -0.11783E-02 39920   0.307E-01    0.438E-01
DAV:   5    -0.222507447272E+03    0.23390E-04   -0.32454E-03 39888   0.167E-01    0.375E-01
DAV:   6    -0.222507047192E+03    0.40008E-03   -0.16433E-03 35552   0.168E-01    0.196E-01
DAV:   7    -0.222507132697E+03   -0.85505E-04   -0.76537E-04 38840   0.144E-01    0.178E-01
DAV:   8    -0.222507110665E+03    0.22032E-04   -0.22381E-04 38528   0.791E-02    0.712E-02
DAV:   9    -0.222507109064E+03    0.16003E-05   -0.40445E-05 25816   0.405E-02
  30 F= -.22250711E+03 E0= -.22249751E+03  d E =0.150324E-01  mag=    22.0000
       N       E                     dE             d eps       ncg     rms          rms(c)
DAV:   1    -0.222249711586E+03    0.25740E+00   -0.88734E+01 28800   0.266E+01    0.142E+00
DAV:   2    -0.222473134438E+03   -0.22342E+00   -0.23259E+00 27672   0.438E+00    0.827E-01
DAV:   3    -0.222472373093E+03    0.76134E-03   -0.39312E-02 38376   0.719E-01    0.868E-01
DAV:   4    -0.222471480884E+03    0.89221E-03   -0.19147E-02 41376   0.384E-01    0.821E-01
DAV:   5    -0.222470502748E+03    0.97814E-03   -0.17176E-02 38176   0.377E-01    0.892E-01
DAV:   6    -0.222468359860E+03    0.21429E-02   -0.74966E-03 35920   0.336E-01    0.190E-01
DAV:   7    -0.222468607935E+03   -0.24808E-03   -0.13798E-03 38480   0.167E-01    0.194E-01
DAV:   8    -0.222468577103E+03    0.30832E-04   -0.42043E-04 38400   0.107E-01    0.117E-01
DAV:   9    -0.222468584054E+03   -0.69505E-05   -0.14173E-04 34360   0.647E-02    0.101E-01
DAV:  10    -0.222468578773E+03    0.52809E-05   -0.72801E-05 26376   0.539E-02
  31 F= -.22246858E+03 E0= -.22245925E+03  d E =0.385303E-01  mag=    22.0000
       N       E                     dE             d eps       ncg     rms          rms(c)
DAV:   1    -0.219500101102E+03    0.29685E+01   -0.33473E+02 29328   0.865E+01    0.666E+00
DAV:   2    -0.222244876447E+03   -0.27448E+01   -0.26181E+01 27776   0.158E+01    0.807E+00
DAV:   3    -0.222279420806E+03   -0.34544E-01   -0.16434E+00 39152   0.426E+00    0.585E+00
DAV:   4    -0.222281217026E+03   -0.17962E-02   -0.65936E-01 38448   0.214E+00    0.486E+00
DAV:   5    -0.222240863695E+03    0.40353E-01   -0.28135E-01 39392   0.121E+00    0.213E+00
DAV:   6    -0.222250313079E+03   -0.94494E-02   -0.65068E-02 38872   0.876E-01    0.209E+00
DAV:   7    -0.222250381586E+03   -0.68507E-04   -0.37542E-02 38864   0.791E-01    0.165E+00
DAV:   8    -0.222249160337E+03    0.12212E-02   -0.21732E-02 38288   0.760E-01    0.128E+00
DAV:   9    -0.222253848928E+03   -0.46886E-02   -0.36099E-02 39016   0.680E-01    0.154E+00
DAV:  10    -0.222249717322E+03    0.41316E-02   -0.87578E-03 38512   0.486E-01    0.604E-01
DAV:  11    -0.222250186403E+03   -0.46908E-03   -0.58005E-03 38760   0.265E-01    0.417E-01
DAV:  12    -0.222250226411E+03   -0.40009E-04   -0.19633E-03 38552   0.181E-01    0.311E-01
DAV:  13    -0.222250154808E+03    0.71604E-04   -0.10757E-03 38320   0.126E-01    0.181E-01
DAV:  14    -0.222250089611E+03    0.65196E-04   -0.18753E-04 33624   0.664E-02    0.917E-02
DAV:  15    -0.222250097806E+03   -0.81943E-05   -0.14142E-04 28400   0.490E-02    0.592E-02
DAV:  16    -0.222250118189E+03   -0.20384E-04   -0.50238E-05 25024   0.379E-02    0.563E-02
DAV:  17    -0.222250116156E+03    0.20335E-05   -0.24402E-05 21072   0.233E-02
  32 F= -.22225012E+03 E0= -.22224039E+03  d E =0.218463E+00  mag=    22.0000
       N       E                     dE             d eps       ncg     rms          rms(c)
DAV:   1    -0.221385038643E+03    0.86508E+00   -0.61373E+01 30696   0.443E+01    0.432E+00
DAV:   2    -0.222405399448E+03   -0.10204E+01   -0.96350E+00 28368   0.867E+00    0.474E+00
DAV:   3    -0.222428858609E+03   -0.23459E-01   -0.59915E-01 37968   0.266E+00    0.428E+00
DAV:   4    -0.222422475517E+03    0.63831E-02   -0.39398E-01 38856   0.142E+00    0.310E+00
DAV:   5    -0.222413282858E+03    0.91927E-02   -0.48229E-02 38832   0.809E-01    0.103E+00
DAV:   6    -0.222418233998E+03   -0.49511E-02   -0.13308E-02 39160   0.516E-01    0.101E+00
DAV:   7    -0.222417555337E+03    0.67866E-03   -0.76054E-03 38008   0.430E-01    0.590E-01
DAV:   8    -0.222418310661E+03   -0.75532E-03   -0.26318E-03 39424   0.246E-01    0.402E-01
DAV:   9    -0.222418875718E+03   -0.56506E-03   -0.31051E-03 38840   0.253E-01    0.437E-01
DAV:  10    -0.222418756047E+03    0.11967E-03   -0.13056E-03 38432   0.173E-01    0.229E-01
DAV:  11    -0.222418695873E+03    0.60174E-04   -0.38723E-04 37080   0.962E-02    0.944E-02
DAV:  12    -0.222418696729E+03   -0.85627E-06   -0.12450E-04 28216   0.556E-02    0.764E-02
DAV:  13    -0.222418689797E+03    0.69320E-05   -0.63941E-05 26080   0.405E-02
  33 F= -.22241869E+03 E0= -.22240954E+03  d E =-.168574E+00  mag=    22.0000
       N       E                     dE             d eps       ncg     rms          rms(c)
DAV:   1    -0.222313596226E+03    0.10510E+00   -0.86322E+00 29984   0.159E+01    0.143E+00
DAV:   2    -0.222424532733E+03   -0.11094E+00   -0.10465E+00 28384   0.288E+00    0.126E+00
DAV:   3    -0.222433380191E+03   -0.88475E-02   -0.56192E-02 38592   0.855E-01    0.174E+00
DAV:   4    -0.222429781365E+03    0.35988E-02   -0.42471E-02 38776   0.526E-01    0.799E-01
DAV:   5    -0.222429649794E+03    0.13157E-03   -0.75965E-03 39400   0.257E-01    0.430E-01
DAV:   6    -0.222429844316E+03   -0.19452E-03   -0.22002E-03 38592   0.203E-01    0.328E-01
DAV:   7    -0.222429930642E+03   -0.86326E-04   -0.12074E-03 38488   0.177E-01    0.254E-01
DAV:   8    -0.222429938341E+03   -0.76985E-05   -0.47227E-04 38672   0.103E-01    0.926E-02
DAV:   9    -0.222429944309E+03   -0.59686E-05   -0.86996E-05 31856   0.600E-02
  34 F= -.22242994E+03 E0= -.22242091E+03  d E =-.112545E-01  mag=    22.0000
       N       E                     dE             d eps       ncg     rms          rms(c)
DAV:   1    -0.222413560651E+03    0.16378E-01   -0.16726E+00 28488   0.573E+00    0.438E-01
DAV:   2    -0.222425114984E+03   -0.11554E-01   -0.11401E-01 28072   0.103E+00    0.254E-01
DAV:   3    -0.222425791948E+03   -0.67696E-03   -0.30407E-03 37032   0.198E-01    0.340E-01
DAV:   4    -0.222425656355E+03    0.13559E-03   -0.21236E-03 40192   0.122E-01    0.204E-01
DAV:   5    -0.222425648094E+03    0.82609E-05   -0.58482E-04 35280   0.870E-02    0.166E-01
DAV:   6    -0.222425611051E+03    0.37044E-04   -0.26357E-04 38080   0.797E-02    0.965E-02
DAV:   7    -0.222425627619E+03   -0.16569E-04   -0.16971E-04 35768   0.685E-02    0.942E-02
DAV:   8    -0.222425618012E+03    0.96077E-05   -0.59598E-05 25520   0.437E-02
  35 F= -.22242562E+03 E0= -.22241653E+03  d E =0.432630E-02  mag=    22.0000
       N       E                     dE             d eps       ncg     rms          rms(c)
DAV:   1    -0.222396793405E+03    0.28834E-01   -0.47110E+00 28976   0.785E+00    0.494E-01
DAV:   2    -0.222414236621E+03   -0.17443E-01   -0.17884E-01 28136   0.135E+00    0.379E-01
DAV:   3    -0.222414783456E+03   -0.54684E-03   -0.46507E-03 39672   0.316E-01    0.446E-01
DAV:   4    -0.222414404940E+03    0.37852E-03   -0.14921E-03 39984   0.171E-01    0.197E-01
DAV:   5    -0.222414503327E+03   -0.98387E-04   -0.19023E-03 39888   0.109E-01    0.315E-01
DAV:   6    -0.222414296297E+03    0.20703E-03   -0.12799E-03 37096   0.107E-01    0.118E-01
DAV:   7    -0.222414318848E+03   -0.22551E-04   -0.23621E-04 39016   0.817E-02    0.841E-02
DAV:   8    -0.222414316390E+03    0.24578E-05   -0.59555E-05 27776   0.426E-02
  36 F= -.22241432E+03 E0= -.22240521E+03  d E =0.113016E-01  mag=    22.0000
       N       E                     dE             d eps       ncg     rms          rms(c)
DAV:   1    -0.222375311321E+03    0.39008E-01   -0.10275E+01 28800   0.911E+00    0.493E-01
DAV:   2    -0.222400550802E+03   -0.25239E-01   -0.26146E-01 28504   0.151E+00    0.403E-01
DAV:   3    -0.222400678732E+03   -0.12793E-03   -0.55341E-03 39424   0.327E-01    0.450E-01
DAV:   4    -0.222400131473E+03    0.54726E-03   -0.10774E-03 40888   0.164E-01    0.154E-01
DAV:   5    -0.222400044775E+03    0.86698E-04   -0.14713E-03 34016   0.134E-01    0.276E-01
DAV:   6    -0.222399948596E+03    0.96180E-04   -0.13535E-03 36256   0.934E-02    0.111E-01
DAV:   7    -0.222399948258E+03    0.33775E-06   -0.10602E-04 28760   0.466E-02    0.459E-02
DAV:   8    -0.222399947847E+03    0.41099E-06   -0.19015E-05 21216   0.263E-02
  37 F= -.22239995E+03 E0= -.22239084E+03  d E =0.143685E-01  mag=    22.0000
       N       E                     dE             d eps       ncg     rms          rms(c)
DAV:   1    -0.221808088616E+03    0.59186E+00   -0.21413E+02 29272   0.419E+01    0.217E+00
DAV:   2    -0.222366669078E+03   -0.55858E+00   -0.57832E+00 27664   0.701E+00    0.139E+00
DAV:   3    -0.222364024084E+03    0.26450E-02   -0.11933E-01 40200   0.131E+00    0.159E+00
DAV:   4    -0.222359200188E+03    0.48239E-02   -0.42280E-02 41080   0.599E-01    0.106E+00
DAV:   5    -0.222357095983E+03    0.21042E-02   -0.23370E-02 39656   0.418E-01    0.104E+00
DAV:   6    -0.222351501395E+03    0.55946E-02   -0.14679E-02 33720   0.478E-01    0.296E-01
DAV:   7    -0.222352044850E+03   -0.54346E-03   -0.48103E-03 35752   0.287E-01    0.368E-01
DAV:   8    -0.222351889788E+03    0.15506E-03   -0.14244E-03 39000   0.177E-01    0.203E-01
DAV:   9    -0.222351902673E+03   -0.12886E-04   -0.43088E-04 38152   0.103E-01    0.158E-01
DAV:  10    -0.222351905770E+03   -0.30963E-05   -0.16673E-04 35080   0.786E-02    0.914E-02
DAV:  11    -0.222351930339E+03   -0.24570E-04   -0.13177E-04 26488   0.437E-02    0.538E-02
DAV:  12    -0.222351933332E+03   -0.29927E-05   -0.28242E-05 22696   0.278E-02
  38 F= -.22235193E+03 E0= -.22234282E+03  d E =0.480145E-01  mag=    22.0000
       N       E                     dE             d eps       ncg     rms          rms(c)
DAV:   1    -0.221577109512E+03    0.77482E+00   -0.22060E+02 29184   0.501E+01    0.281E+00
DAV:   2    -0.222298468274E+03   -0.72136E+00   -0.73631E+00 27864   0.855E+00    0.224E+00
DAV:   3    -0.222308693305E+03   -0.10225E-01   -0.25857E-01 39088   0.184E+00    0.233E+00
DAV:   4    -0.222294571875E+03    0.14121E-01   -0.43062E-02 39872   0.884E-01    0.891E-01
DAV:   5    -0.222295225731E+03   -0.65386E-03   -0.28897E-02 38784   0.627E-01    0.151E+00
DAV:   6    -0.222292096944E+03    0.31288E-02   -0.35938E-02 37536   0.542E-01    0.118E+00
DAV:   7    -0.222290524742E+03    0.15722E-02   -0.19944E-02 39584   0.390E-01    0.692E-01
DAV:   8    -0.222290274378E+03    0.25036E-03   -0.63923E-03 38736   0.273E-01    0.350E-01
DAV:   9    -0.222290291805E+03   -0.17427E-04   -0.14667E-03 38304   0.168E-01    0.271E-01
DAV:  10    -0.222290205594E+03    0.86211E-04   -0.65210E-04 38896   0.120E-01    0.148E-01
DAV:  11    -0.222290250277E+03   -0.44682E-04   -0.27106E-04 36696   0.864E-02    0.115E-01
DAV:  12    -0.222290272410E+03   -0.22133E-04   -0.12409E-04 29608   0.627E-02    0.707E-02
DAV:  13    -0.222290272350E+03    0.59510E-07   -0.42973E-05 23568   0.331E-02
  39 F= -.22229027E+03 E0= -.22228118E+03  d E =0.616610E-01  mag=    22.0000
       N       E                     dE             d eps       ncg     rms          rms(c)
DAV:   1    -0.221871347868E+03    0.41892E+00   -0.16151E+02 29216   0.406E+01    0.217E+00
DAV:   2    -0.222350858384E+03   -0.47951E+00   -0.48704E+00 27816   0.686E+00    0.183E+00
DAV:   3    -0.222353986934E+03   -0.31285E-02   -0.11352E-01 39288   0.151E+00    0.206E+00
DAV:   4    -0.222346326166E+03    0.76608E-02   -0.60608E-02 39880   0.750E-01    0.104E+00
DAV:   5    -0.222345616237E+03    0.70993E-03   -0.26891E-02 40928   0.391E-01    0.104E+00
DAV:   6    -0.222342067803E+03    0.35484E-02   -0.18576E-02 35136   0.513E-01    0.743E-01
DAV:   7    -0.222341540245E+03    0.52756E-03   -0.57912E-03 38096   0.335E-01    0.396E-01
DAV:   8    -0.222341558518E+03   -0.18273E-04   -0.15125E-03 40136   0.180E-01    0.186E-01
DAV:   9    -0.222341595591E+03   -0.37073E-04   -0.45456E-04 38264   0.123E-01    0.168E-01
DAV:  10    -0.222341577951E+03    0.17640E-04   -0.24305E-04 36160   0.836E-02    0.903E-02
DAV:  11    -0.222341630361E+03   -0.52410E-04   -0.19970E-04 29264   0.626E-02    0.122E-01
DAV:  12    -0.222341620349E+03    0.10013E-04   -0.95215E-05 25952   0.469E-02    0.480E-02
DAV:  13    -0.222341620697E+03   -0.34799E-06   -0.13443E-05 19208   0.179E-02
  40 F= -.22234162E+03 E0= -.22233254E+03  d E =-.513483E-01  mag=    22.0000
       N       E                     dE             d eps       ncg     rms          rms(c)
DAV:   1    -0.221870650404E+03    0.47097E+00   -0.11179E+02 28800   0.369E+01    0.269E+00
DAV:   2    -0.222427914685E+03   -0.55726E+00   -0.58865E+00 28472   0.675E+00    0.228E+00
DAV:   3    -0.222437540613E+03   -0.96259E-02   -0.16437E-01 40480   0.178E+00    0.261E+00
DAV:   4    -0.222422688882E+03    0.14852E-01   -0.62239E-02 40600   0.935E-01    0.871E-01
DAV:   5    -0.222431703523E+03   -0.90146E-02   -0.78171E-02 40736   0.687E-01    0.247E+00
DAV:   6    -0.222419574423E+03    0.12129E-01   -0.68779E-02 39816   0.589E-01    0.425E-01
DAV:   7    -0.222421553216E+03   -0.19788E-02   -0.41407E-03 39888   0.284E-01    0.533E-01
DAV:   8    -0.222421114503E+03    0.43871E-03   -0.17068E-03 38792   0.200E-01    0.160E-01
DAV:   9    -0.222421148687E+03   -0.34184E-04   -0.28286E-04 39032   0.884E-02    0.110E-01
DAV:  10    -0.222421148018E+03    0.66888E-06   -0.11023E-04 32496   0.686E-02    0.654E-02
DAV:  11    -0.222421164955E+03   -0.16937E-04   -0.58556E-05 25464   0.381E-02    0.477E-02
DAV:  12    -0.222421167789E+03   -0.28343E-05   -0.26816E-05 22192   0.307E-02
  41 F= -.22242117E+03 E0= -.22241202E+03  d E =-.795471E-01  mag=    22.0000
       N       E                     dE             d eps       ncg     rms          rms(c)
DAV:   1    -0.222328021204E+03    0.93144E-01   -0.19412E+01 29376   0.158E+01    0.101E+00
DAV:   2    -0.222398870080E+03   -0.70849E-01   -0.74424E-01 28240   0.270E+00    0.758E-01
DAV:   3    -0.222400991974E+03   -0.21219E-02   -0.20953E-02 40392   0.631E-01    0.990E-01
DAV:   4    -0.222399148686E+03    0.18433E-02   -0.11252E-02 39952   0.367E-01    0.526E-01
DAV:   5    -0.222399168916E+03   -0.20230E-04   -0.91508E-03 40224   0.215E-01    0.543E-01
DAV:   6    -0.222398425877E+03    0.74304E-03   -0.29025E-03 35144   0.185E-01    0.164E-01
DAV:   7    -0.222398587503E+03   -0.16163E-03   -0.81144E-04 37240   0.126E-01    0.205E-01
DAV:   8    -0.222398521925E+03    0.65578E-04   -0.27160E-04 38712   0.788E-02    0.466E-02
DAV:   9    -0.222398526091E+03   -0.41658E-05   -0.31456E-05 24408   0.301E-02
  42 F= -.22239853E+03 E0= -.22238937E+03  d E =0.226417E-01  mag=    22.0000
       N       E                     dE             d eps       ncg     rms          rms(c)
DAV:   1    -0.222401459154E+03   -0.29372E-02   -0.25209E+00 29080   0.493E+00    0.304E-01
DAV:   2    -0.222408629954E+03   -0.71708E-02   -0.75413E-02 28760   0.830E-01    0.277E-01
DAV:   3    -0.222408708713E+03   -0.78759E-04   -0.22175E-03 39736   0.205E-01    0.307E-01
DAV:   4    -0.222408523672E+03    0.18504E-03   -0.11283E-03 39776   0.116E-01    0.178E-01
DAV:   5    -0.222408503785E+03    0.19887E-04   -0.88298E-04 36952   0.713E-02    0.155E-01
DAV:   6    -0.222408434594E+03    0.69192E-04   -0.33076E-04 33704   0.649E-02    0.749E-02
DAV:   7    -0.222408438136E+03   -0.35427E-05   -0.95689E-05 34200   0.471E-02
  43 F= -.22240844E+03 E0= -.22239926E+03  d E =-.991205E-02  mag=    22.0000
       N       E                     dE             d eps       ncg     rms          rms(c)
DAV:   1    -0.219811179220E+03    0.25973E+01   -0.55735E+02 29000   0.709E+01    0.500E+00
DAV:   2    -0.222608932599E+03   -0.27978E+01   -0.29604E+01 28464   0.137E+01    0.535E+00
DAV:   3    -0.222604136149E+03    0.47964E-02   -0.13556E+00 38544   0.349E+00    0.569E+00
DAV:   4    -0.222522197713E+03    0.81938E-01   -0.25787E-01 40960   0.175E+00    0.180E+00
DAV:   5    -0.222509441298E+03    0.12756E-01   -0.78520E-02 35008   0.109E+00    0.170E+00
DAV:   6    -0.222512254571E+03   -0.28133E-02   -0.11239E-01 39160   0.900E-01    0.204E+00
DAV:   7    -0.222509764949E+03    0.24896E-02   -0.82721E-02 39424   0.686E-01    0.160E+00
DAV:   8    -0.222506557161E+03    0.32078E-02   -0.31604E-02 40152   0.502E-01    0.644E-01
DAV:   9    -0.222506904122E+03   -0.34696E-03   -0.61061E-03 39056   0.363E-01    0.538E-01
DAV:  10    -0.222506563726E+03    0.34040E-03   -0.16040E-03 39224   0.219E-01    0.188E-01
DAV:  11    -0.222506653870E+03   -0.90143E-04   -0.54933E-04 38536   0.123E-01    0.220E-01
DAV:  12    -0.222506588014E+03    0.65856E-04   -0.27963E-04 37520   0.870E-02    0.941E-02
DAV:  13    -0.222506587345E+03    0.66880E-06   -0.72994E-05 31168   0.486E-02
  44 F= -.22250659E+03 E0= -.22249718E+03  d E =-.981492E-01  mag=    22.0000
       N       E                     dE             d eps       ncg     rms          rms(c)
DAV:   1    -0.221428272804E+03    0.10783E+01   -0.10866E+02 29368   0.494E+01    0.396E+00
DAV:   2    -0.222449211019E+03   -0.10209E+01   -0.10326E+01 28080   0.938E+00    0.393E+00
DAV:   3    -0.222490331866E+03   -0.41121E-01   -0.64737E-01 40072   0.251E+00    0.381E+00
DAV:   4    -0.222475867583E+03    0.14464E-01   -0.25432E-01 40824   0.131E+00    0.298E+00
DAV:   5    -0.222459904949E+03    0.15963E-01   -0.93548E-02 39936   0.734E-01    0.121E+00
DAV:   6    -0.222465875293E+03   -0.59703E-02   -0.20094E-02 39016   0.767E-01    0.176E+00
DAV:   7    -0.222461063266E+03    0.48120E-02   -0.15140E-02 39960   0.606E-01    0.112E+00
DAV:   8    -0.222459201810E+03    0.18615E-02   -0.12294E-02 40600   0.407E-01    0.407E-01
DAV:   9    -0.222459799605E+03   -0.59779E-03   -0.25437E-03 38752   0.237E-01    0.372E-01
DAV:  10    -0.222459681447E+03    0.11816E-03   -0.14365E-03 39896   0.156E-01    0.171E-01
DAV:  11    -0.222459743881E+03   -0.62434E-04   -0.40107E-04 38424   0.916E-02    0.136E-01
DAV:  12    -0.222459733507E+03    0.10374E-04   -0.11905E-04 29168   0.637E-02    0.865E-02
DAV:  13    -0.222459720515E+03    0.12992E-04   -0.47768E-05 25160   0.337E-02    0.578E-02
DAV:  14    -0.222459709529E+03    0.10986E-04   -0.38687E-05 24176   0.306E-02    0.347E-02
DAV:  15    -0.222459718383E+03   -0.88534E-05   -0.46013E-05 22032   0.257E-02
  45 F= -.22245972E+03 E0= -.22245017E+03  d E =0.468690E-01  mag=    22.0000
       N       E                     dE             d eps       ncg     rms          rms(c)
DAV:   1    -0.222417065955E+03    0.42644E-01   -0.12391E+01 30184   0.154E+01    0.123E+00
DAV:   2    -0.222498275178E+03   -0.81209E-01   -0.85229E-01 28240   0.277E+00    0.940E-01
DAV:   3    -0.222502626945E+03   -0.43518E-02   -0.27473E-02 40328   0.741E-01    0.129E+00
DAV:   4    -0.222499823332E+03    0.28036E-02   -0.18411E-02 39088   0.451E-01    0.636E-01
DAV:   5    -0.222500077313E+03   -0.25398E-03   -0.12303E-02 41152   0.261E-01    0.684E-01
DAV:   6    -0.222499507212E+03    0.57010E-03   -0.68027E-03 38736   0.237E-01    0.458E-01
DAV:   7    -0.222499205995E+03    0.30122E-03   -0.15079E-03 39192   0.174E-01    0.148E-01
DAV:   8    -0.222499284577E+03   -0.78582E-04   -0.16606E-04 39608   0.686E-02    0.452E-02
DAV:   9    -0.222499283666E+03    0.91133E-06   -0.46520E-05 30352   0.323E-02
  46 F= -.22249928E+03 E0= -.22248978E+03  d E =-.395653E-01  mag=    22.0000
       N       E                     dE             d eps       ncg     rms          rms(c)
DAV:   1    -0.222464438919E+03    0.34846E-01   -0.80010E+00 29752   0.126E+01    0.101E+00
DAV:   2    -0.222519549439E+03   -0.55111E-01   -0.57364E-01 28216   0.229E+00    0.795E-01
DAV:   3    -0.222522841464E+03   -0.32920E-02   -0.21174E-02 40376   0.628E-01    0.116E+00
DAV:   4    -0.222520914509E+03    0.19270E-02   -0.17398E-02 39064   0.388E-01    0.629E-01
DAV:   5    -0.222520727444E+03    0.18706E-03   -0.78068E-03 40464   0.214E-01    0.451E-01
DAV:   6    -0.222520666715E+03    0.60729E-04   -0.35851E-03 39136   0.207E-01    0.425E-01
DAV:   7    -0.222520345464E+03    0.32125E-03   -0.11578E-03 39328   0.153E-01    0.111E-01
DAV:   8    -0.222520414228E+03   -0.68764E-04   -0.12436E-04 37648   0.598E-02    0.482E-02
DAV:   9    -0.222520413983E+03    0.24482E-06   -0.41481E-05 26072   0.355E-02
  47 F= -.22252041E+03 E0= -.22251093E+03  d E =-.211303E-01  mag=    22.0000
       N       E                     dE             d eps       ncg     rms          rms(c)
DAV:   1    -0.222519485950E+03    0.92828E-03   -0.86327E-01 29248   0.415E+00    0.314E-01
DAV:   2    -0.222525137837E+03   -0.56519E-02   -0.57150E-02 28248   0.748E-01    0.240E-01
DAV:   3    -0.222525533243E+03   -0.39541E-03   -0.23373E-03 39032   0.201E-01    0.384E-01
DAV:   4    -0.222525315991E+03    0.21725E-03   -0.18066E-03 38976   0.127E-01    0.191E-01
DAV:   5    -0.222525299628E+03    0.16364E-04   -0.60216E-04 30728   0.647E-02    0.123E-01
DAV:   6    -0.222525290680E+03    0.89478E-05   -0.20317E-04 35176   0.627E-02    0.101E-01
DAV:   7    -0.222525279716E+03    0.10964E-04   -0.92017E-05 31392   0.487E-02    0.519E-02
DAV:   8    -0.222525281755E+03   -0.20394E-05   -0.15852E-05 21520   0.261E-02
  48 F= -.22252528E+03 E0= -.22251577E+03  d E =-.486777E-02  mag=    22.0000
       N       E                     dE             d eps       ncg     rms          rms(c)
DAV:   1    -0.222523964883E+03    0.13148E-02   -0.14643E+00 28872   0.465E+00    0.300E-01
DAV:   2    -0.222530266214E+03   -0.63013E-02   -0.63466E-02 28000   0.809E-01    0.236E-01
DAV:   3    -0.222530621303E+03   -0.35509E-03   -0.26350E-03 38944   0.198E-01    0.389E-01
DAV:   4    -0.222530390893E+03    0.23041E-03   -0.19738E-03 39352   0.125E-01    0.190E-01
DAV:   5    -0.222530367099E+03    0.23793E-04   -0.48126E-04 31896   0.632E-02    0.112E-01
DAV:   6    -0.222530349594E+03    0.17505E-04   -0.17379E-04 34816   0.629E-02    0.100E-01
DAV:   7    -0.222530339934E+03    0.96600E-05   -0.10437E-04 36096   0.520E-02    0.572E-02
DAV:   8    -0.222530341977E+03   -0.20429E-05   -0.18869E-05 21888   0.289E-02
  49 F= -.22253034E+03 E0= -.22252080E+03  d E =-.506022E-02  mag=    22.0000
       N       E                     dE             d eps       ncg     rms          rms(c)
DAV:   1    -0.222525433401E+03    0.49065E-02   -0.53190E+00 28800   0.695E+00    0.382E-01
DAV:   2    -0.222539468054E+03   -0.14035E-01   -0.14499E-01 27752   0.115E+00    0.289E-01
DAV:   3    -0.222539758025E+03   -0.28997E-03   -0.38742E-03 38592   0.245E-01    0.440E-01
DAV:   4    -0.222539414935E+03    0.34309E-03   -0.25901E-03 40640   0.153E-01    0.248E-01
DAV:   5    -0.222539362272E+03    0.52663E-04   -0.10445E-03 38728   0.856E-02    0.183E-01
DAV:   6    -0.222539241092E+03    0.12118E-03   -0.48249E-04 33872   0.908E-02    0.115E-01
DAV:   7    -0.222539244069E+03   -0.29772E-05   -0.20911E-04 37952   0.703E-02    0.821E-02
DAV:   8    -0.222539241719E+03    0.23505E-05   -0.34451E-05 25520   0.360E-02
  50 F= -.22253924E+03 E0= -.22252964E+03  d E =-.889974E-02  mag=    22.0000
       N       E                     dE             d eps       ncg     rms          rms(c)
DAV:   1    -0.222395474785E+03    0.14377E+00   -0.68831E+01 28800   0.230E+01    0.131E+00
DAV:   2    -0.222574174467E+03   -0.17870E+00   -0.18694E+00 27784   0.385E+00    0.963E-01
DAV:   3    -0.222575631826E+03   -0.14574E-02   -0.40460E-02 38768   0.821E-01    0.136E+00
DAV:   4    -0.222571464616E+03    0.41672E-02   -0.16864E-02 40744   0.470E-01    0.609E-01
DAV:   5    -0.222572383975E+03   -0.91936E-03   -0.17332E-02 40376   0.314E-01    0.108E+00
DAV:   6    -0.222569635747E+03    0.27482E-02   -0.14780E-02 34464   0.338E-01    0.436E-01
DAV:   7    -0.222569658712E+03   -0.22965E-04   -0.22296E-03 38256   0.209E-01    0.237E-01
DAV:   8    -0.222569667185E+03   -0.84733E-05   -0.32964E-04 37688   0.972E-02    0.827E-02
DAV:   9    -0.222569674737E+03   -0.75515E-05   -0.89677E-05 37016   0.581E-02
  51 F= -.22256967E+03 E0= -.22255986E+03  d E =-.304330E-01  mag=    22.0000
       N       E                     dE             d eps       ncg     rms          rms(c)
DAV:   1    -0.221585231250E+03    0.98444E+00   -0.14479E+02 29824   0.523E+01    0.375E+00
DAV:   2    -0.222522941679E+03   -0.93771E+00   -0.90207E+00 28296   0.935E+00    0.362E+00
DAV:   3    -0.222575139376E+03   -0.52198E-01   -0.42885E-01 39104   0.245E+00    0.391E+00
DAV:   4    -0.222554459953E+03    0.20679E-01   -0.14883E-01 38584   0.129E+00    0.264E+00
DAV:   5    -0.222543832657E+03    0.10627E-01   -0.63502E-02 39536   0.633E-01    0.115E+00
DAV:   6    -0.222544849115E+03   -0.10165E-02   -0.12104E-02 38464   0.581E-01    0.109E+00
DAV:   7    -0.222545376866E+03   -0.52775E-03   -0.12728E-02 37664   0.541E-01    0.115E+00
DAV:   8    -0.222543419712E+03    0.19572E-02   -0.75529E-03 38416   0.461E-01    0.432E-01
DAV:   9    -0.222543949277E+03   -0.52957E-03   -0.24921E-03 38880   0.256E-01    0.324E-01
DAV:  10    -0.222543883331E+03    0.65947E-04   -0.10299E-03 38464   0.165E-01    0.213E-01
DAV:  11    -0.222543870614E+03    0.12717E-04   -0.49033E-04 38544   0.984E-02    0.140E-01
DAV:  12    -0.222543846250E+03    0.24365E-04   -0.10222E-04 29112   0.568E-02    0.962E-02
DAV:  13    -0.222543828508E+03    0.17742E-04   -0.76497E-05 27328   0.434E-02    0.675E-02
DAV:  14    -0.222543824327E+03    0.41804E-05   -0.72798E-05 26048   0.430E-02
  52 F= -.22254382E+03 E0= -.22253374E+03  d E =0.258504E-01  mag=    22.0000
       N       E                     dE             d eps       ncg     rms          rms(c)
DAV:   1    -0.222360334306E+03    0.18349E+00   -0.17702E+01 29832   0.234E+01    0.203E+00
DAV:   2    -0.222588850279E+03   -0.22852E+00   -0.22024E+00 27992   0.438E+00    0.173E+00
DAV:   3    -0.222615590915E+03   -0.26741E-01   -0.17416E-01 39576   0.130E+00    0.329E+00
DAV:   4    -0.222597178473E+03    0.18412E-01   -0.97852E-02 38616   0.775E-01    0.886E-01
DAV:   5    -0.222598956410E+03   -0.17779E-02   -0.78234E-03 40128   0.360E-01    0.712E-01
DAV:   6    -0.222598744388E+03    0.21202E-03   -0.51627E-03 38328   0.321E-01    0.476E-01
DAV:   7    -0.222599014376E+03   -0.26999E-03   -0.28605E-03 39448   0.263E-01    0.435E-01
DAV:   8    -0.222598833148E+03    0.18123E-03   -0.14841E-03 38600   0.188E-01    0.174E-01
DAV:   9    -0.222598822795E+03    0.10353E-04   -0.28985E-04 39504   0.988E-02    0.972E-02
DAV:  10    -0.222598823234E+03   -0.43862E-06   -0.11898E-04 30992   0.601E-02    0.689E-02
DAV:  11    -0.222598823426E+03   -0.19145E-06   -0.53229E-05 25424   0.398E-02
  53 F= -.22259882E+03 E0= -.22258869E+03  d E =-.549991E-01  mag=    22.0000
       N       E                     dE             d eps       ncg     rms          rms(c)
DAV:   1    -0.222564299928E+03    0.34523E-01   -0.36494E+00 29808   0.105E+01    0.891E-01
DAV:   2    -0.222608288426E+03   -0.43988E-01   -0.42333E-01 28120   0.195E+00    0.773E-01
DAV:   3    -0.222612884718E+03   -0.45963E-02   -0.29804E-02 39208   0.583E-01    0.139E+00
DAV:   4    -0.222610011458E+03    0.28733E-02   -0.20209E-02 38736   0.368E-01    0.499E-01
DAV:   5    -0.222610110765E+03   -0.99307E-04   -0.25514E-03 40384   0.168E-01    0.292E-01
DAV:   6    -0.222610123805E+03   -0.13040E-04   -0.80884E-04 38656   0.141E-01    0.228E-01
DAV:   7    -0.222610154011E+03   -0.30205E-04   -0.63407E-04 39664   0.128E-01    0.197E-01
DAV:   8    -0.222610125756E+03    0.28255E-04   -0.25071E-04 38000   0.892E-02    0.691E-02
DAV:   9    -0.222610125146E+03    0.60975E-06   -0.45992E-05 26816   0.456E-02
  54 F= -.22261013E+03 E0= -.22259996E+03  d E =-.113017E-01  mag=    22.0000
       N       E                     dE             d eps       ncg     rms          rms(c)
DAV:   1    -0.222602649812E+03    0.74759E-02   -0.12626E+00 29408   0.548E+00    0.423E-01
DAV:   2    -0.222613261142E+03   -0.10611E-01   -0.10238E-01 28176   0.100E+00    0.397E-01
DAV:   3    -0.222614271789E+03   -0.10106E-02   -0.82705E-03 39088   0.292E-01    0.684E-01
DAV:   4    -0.222613604126E+03    0.66766E-03   -0.52782E-03 38752   0.182E-01    0.262E-01
DAV:   5    -0.222613606989E+03   -0.28622E-05   -0.54212E-04 35600   0.880E-02    0.150E-01
DAV:   6    -0.222613614782E+03   -0.77933E-05   -0.19553E-04 37608   0.794E-02    0.137E-01
DAV:   7    -0.222613609073E+03    0.57093E-05   -0.19304E-04 37144   0.748E-02    0.101E-01
DAV:   8    -0.222613608700E+03    0.37256E-06   -0.81853E-05 27752   0.555E-02
  55 F= -.22261361E+03 E0= -.22260334E+03  d E =-.348355E-02  mag=    22.0000
       N       E                     dE             d eps       ncg     rms          rms(c)
DAV:   1    -0.222613583819E+03    0.25253E-04   -0.48555E-01 29536   0.243E+00    0.140E-01
DAV:   2    -0.222615269945E+03   -0.16861E-02   -0.16618E-02 28224   0.423E-01    0.145E-01
DAV:   3    -0.222615334397E+03   -0.64452E-04   -0.76239E-04 38896   0.964E-02    0.196E-01
DAV:   4    -0.222615286506E+03    0.47892E-04   -0.51963E-04 30240   0.604E-02    0.110E-01
DAV:   5    -0.222615278120E+03    0.83861E-05   -0.91084E-05 24728   0.343E-02
  56 F= -.22261528E+03 E0= -.22260491E+03  d E =-.166942E-02  mag=    22.0000
       N       E                     dE             d eps       ncg     rms          rms(c)
DAV:   1    -0.222615213356E+03    0.73150E-04   -0.84433E-01 29392   0.297E+00    0.160E-01
DAV:   2    -0.222617514541E+03   -0.23012E-02   -0.23006E-02 28072   0.492E-01    0.209E-01
DAV:   3    -0.222617554854E+03   -0.40313E-04   -0.12673E-03 39496   0.131E-01    0.230E-01
DAV:   4    -0.222617485034E+03    0.69820E-04   -0.71607E-04 35776   0.714E-02    0.135E-01
DAV:   5    -0.222617466199E+03    0.18836E-04   -0.15528E-04 25952   0.444E-02    0.889E-02
DAV:   6    -0.222617448276E+03    0.17922E-04   -0.65753E-05 31952   0.481E-02    0.654E-02
DAV:   7    -0.222617443628E+03    0.46487E-05   -0.62812E-05 32560   0.468E-02
  57 F= -.22261744E+03 E0= -.22260706E+03  d E =-.216551E-02  mag=    22.0000
       N       E                     dE             d eps       ncg     rms          rms(c)
DAV:   1    -0.222614539715E+03    0.29086E-02   -0.30813E+00 29376   0.527E+00    0.273E-01
DAV:   2    -0.222622107086E+03   -0.75674E-02   -0.78252E-02 27696   0.856E-01    0.164E-01
DAV:   3    -0.222622187442E+03   -0.80356E-04   -0.13589E-03 37600   0.164E-01    0.238E-01
DAV:   4    -0.222622075613E+03    0.11183E-03   -0.51001E-04 40600   0.939E-02    0.117E-01
DAV:   5    -0.222622112112E+03   -0.36499E-04   -0.71272E-04 34912   0.721E-02    0.226E-01
DAV:   6    -0.222622004499E+03    0.10761E-03   -0.63151E-04 36528   0.727E-02    0.980E-02
DAV:   7    -0.222622006252E+03   -0.17524E-05   -0.11778E-04 35912   0.528E-02    0.577E-02
DAV:   8    -0.222622005595E+03    0.65621E-06   -0.19258E-05 20960   0.292E-02
  58 F= -.22262201E+03 E0= -.22261150E+03  d E =-.456197E-02  mag=    22.0000
       N       E                     dE             d eps       ncg     rms          rms(c)
DAV:   1    -0.222438683526E+03    0.18332E+00   -0.83669E+01 28512   0.255E+01    0.138E+00
DAV:   2    -0.222646585227E+03   -0.20790E+00   -0.21747E+00 27696   0.421E+00    0.884E-01
DAV:   3    -0.222646998784E+03   -0.41356E-03   -0.41937E-02 37064   0.788E-01    0.128E+00
DAV:   4    -0.222643933945E+03    0.30648E-02   -0.14586E-02 40992   0.444E-01    0.702E-01
DAV:   5    -0.222644996561E+03   -0.10626E-02   -0.20895E-02 39248   0.377E-01    0.129E+00
DAV:   6    -0.222641442223E+03    0.35543E-02   -0.18270E-02 36832   0.384E-01    0.440E-01
DAV:   7    -0.222641561019E+03   -0.11880E-03   -0.23757E-03 37544   0.250E-01    0.255E-01
DAV:   8    -0.222641580938E+03   -0.19920E-04   -0.81176E-04 38456   0.141E-01    0.226E-01
DAV:   9    -0.222641493429E+03    0.87510E-04   -0.32076E-04 38400   0.100E-01    0.108E-01
DAV:  10    -0.222641520995E+03   -0.27566E-04   -0.14841E-04 32488   0.680E-02    0.130E-01
DAV:  11    -0.222641508854E+03    0.12141E-04   -0.12860E-04 27272   0.635E-02    0.618E-02
DAV:  12    -0.222641520144E+03   -0.11291E-04   -0.43935E-05 24096   0.369E-02    0.442E-02
DAV:  13    -0.222641519610E+03    0.53392E-06   -0.16209E-05 19920   0.237E-02
  59 F= -.22264152E+03 E0= -.22263033E+03  d E =-.195140E-01  mag=    22.0000
       N       E                     dE             d eps       ncg     rms          rms(c)
DAV:   1    -0.221573118009E+03    0.10684E+01   -0.27337E+02 29376   0.603E+01    0.367E+00
DAV:   2    -0.222657670562E+03   -0.10846E+01   -0.10922E+01 27760   0.104E+01    0.426E+00
DAV:   3    -0.222706935004E+03   -0.49264E-01   -0.99651E-01 38496   0.277E+00    0.556E+00
DAV:   4    -0.222641818171E+03    0.65117E-01   -0.22573E-01 39560   0.139E+00    0.161E+00
DAV:   5    -0.222648583102E+03   -0.67649E-02   -0.63579E-02 39440   0.755E-01    0.226E+00
DAV:   6    -0.222641459014E+03    0.71241E-02   -0.37368E-02 37792   0.625E-01    0.131E+00
DAV:   7    -0.222641363432E+03    0.95582E-04   -0.24489E-02 38688   0.558E-01    0.126E+00
DAV:   8    -0.222639773808E+03    0.15896E-02   -0.16193E-02 38536   0.438E-01    0.645E-01
DAV:   9    -0.222639525909E+03    0.24790E-03   -0.29687E-03 39264   0.322E-01    0.457E-01
DAV:  10    -0.222639708303E+03   -0.18239E-03   -0.31902E-03 38376   0.256E-01    0.430E-01
DAV:  11    -0.222639643090E+03    0.65213E-04   -0.18584E-03 39032   0.205E-01    0.265E-01
DAV:  12    -0.222639664826E+03   -0.21736E-04   -0.49993E-04 39016   0.118E-01    0.154E-01
DAV:  13    -0.222639646566E+03    0.18260E-04   -0.18083E-04 36592   0.732E-02    0.104E-01
DAV:  14    -0.222639627201E+03    0.19365E-04   -0.56418E-05 26720   0.472E-02    0.586E-02
DAV:  15    -0.222639623857E+03    0.33445E-05   -0.32712E-05 24584   0.370E-02
  60 F= -.22263962E+03 E0= -.22262679E+03  d E =0.189575E-02  mag=    22.0000
       N       E                     dE             d eps       ncg     rms          rms(c)
DAV:   1    -0.222199290541E+03    0.44034E+00   -0.10317E+02 29376   0.399E+01    0.248E+00
DAV:   2    -0.222643215778E+03   -0.44393E+00   -0.44246E+00 27800   0.671E+00    0.146E+00
DAV:   3    -0.222662930144E+03   -0.19714E-01   -0.96292E-02 38304   0.126E+00    0.207E+00
DAV:   4    -0.222654495842E+03    0.84343E-02   -0.24351E-02 39480   0.744E-01    0.790E-01
DAV:   5    -0.222656600079E+03   -0.21042E-02   -0.17219E-02 39056   0.499E-01    0.147E+00
DAV:   6    -0.222652879607E+03    0.37205E-02   -0.23135E-02 37752   0.453E-01    0.743E-01
DAV:   7    -0.222653883903E+03   -0.10043E-02   -0.16485E-02 39488   0.344E-01    0.865E-01
DAV:   8    -0.222652865290E+03    0.10186E-02   -0.48333E-03 38584   0.248E-01    0.147E-01
DAV:   9    -0.222653037017E+03   -0.17173E-03   -0.60870E-04 39168   0.132E-01    0.166E-01
DAV:  10    -0.222653023149E+03    0.13868E-04   -0.29663E-04 37576   0.914E-02    0.940E-02
DAV:  11    -0.222653028117E+03   -0.49687E-05   -0.10154E-04 27568   0.582E-02    0.663E-02
DAV:  12    -0.222653024869E+03    0.32479E-05   -0.36359E-05 24712   0.350E-02
  61 F= -.22265302E+03 E0= -.22264134E+03  d E =-.134010E-01  mag=    22.0000
       N       E                     dE             d eps       ncg     rms          rms(c)
DAV:   1    -0.222604301643E+03    0.48726E-01   -0.11852E+01 29320   0.127E+01    0.744E-01
DAV:   2    -0.222647398354E+03   -0.43097E-01   -0.42809E-01 27824   0.211E+00    0.437E-01
DAV:   3    -0.222648944471E+03   -0.15461E-02   -0.80116E-03 38224   0.393E-01    0.556E-01
DAV:   4    -0.222648481283E+03    0.46319E-03   -0.33830E-03 40240   0.218E-01    0.324E-01
DAV:   5    -0.222648522800E+03   -0.41517E-04   -0.27238E-03 39824   0.144E-01    0.387E-01
DAV:   6    -0.222648310765E+03    0.21204E-03   -0.21408E-03 37864   0.143E-01    0.263E-01
DAV:   7    -0.222648227344E+03    0.83421E-04   -0.73537E-04 37752   0.130E-01    0.130E-01
DAV:   8    -0.222648260131E+03   -0.32788E-04   -0.22853E-04 38792   0.827E-02    0.101E-01
DAV:   9    -0.222648245572E+03    0.14559E-04   -0.71511E-05 26952   0.503E-02    0.389E-02
DAV:  10    -0.222648251814E+03   -0.62422E-05   -0.30204E-05 22608   0.329E-02
  62 F= -.22264825E+03 E0= -.22263691E+03  d E =0.477306E-02  mag=    22.0000
       N       E                     dE             d eps       ncg     rms          rms(c)
DAV:   1    -0.222639570613E+03    0.86750E-02   -0.16011E+00 29936   0.568E+00    0.410E-01
DAV:   2    -0.222650113424E+03   -0.10543E-01   -0.10047E-01 28024   0.981E-01    0.408E-01
DAV:   3    -0.222650805742E+03   -0.69232E-03   -0.39317E-03 39480   0.282E-01    0.524E-01
DAV:   4    -0.222650367888E+03    0.43785E-03   -0.13781E-03 39048   0.160E-01    0.165E-01
DAV:   5    -0.222650402584E+03   -0.34696E-04   -0.65290E-04 32288   0.653E-02    0.162E-01
DAV:   6    -0.222650372672E+03    0.29912E-04   -0.33458E-04 35288   0.623E-02    0.893E-02
DAV:   7    -0.222650391539E+03   -0.18867E-04   -0.14129E-04 32592   0.624E-02    0.105E-01
DAV:   8    -0.222650382068E+03    0.94706E-05   -0.54098E-05 25776   0.436E-02
  63 F= -.22265038E+03 E0= -.22263898E+03  d E =-.213025E-02  mag=    22.0000
       N       E                     dE             d eps       ncg     rms          rms(c)
DAV:   1    -0.222650004120E+03    0.38742E-03   -0.57617E-01 28984   0.231E+00    0.118E-01
DAV:   2    -0.222651445150E+03   -0.14410E-02   -0.14476E-02 27664   0.381E-01    0.114E-01
DAV:   3    -0.222651474354E+03   -0.29204E-04   -0.38162E-04 39984   0.952E-02    0.140E-01
DAV:   4    -0.222651430544E+03    0.43810E-04   -0.86968E-05 27576   0.474E-02    0.468E-02
DAV:   5    -0.222651432648E+03   -0.21042E-05   -0.64173E-05 21344   0.292E-02
  64 F= -.22265143E+03 E0= -.22263997E+03  d E =-.105058E-02  mag=    22.0000
       N       E                     dE             d eps       ncg     rms          rms(c)
DAV:   1    -0.221997201520E+03    0.65423E+00   -0.26366E+02 29136   0.435E+01    0.233E+00
DAV:   2    -0.222675678788E+03   -0.67848E+00   -0.70536E+00 27688   0.722E+00    0.168E+00
DAV:   3    -0.222669511362E+03    0.61674E-02   -0.14073E-01 38328   0.150E+00    0.224E+00
DAV:   4    -0.222659330079E+03    0.10181E-01   -0.43532E-02 42280   0.673E-01    0.101E+00
DAV:   5    -0.222655951562E+03    0.33785E-02   -0.24357E-02 37096   0.582E-01    0.139E+00
DAV:   6    -0.222652590986E+03    0.33606E-02   -0.42390E-02 37504   0.521E-01    0.121E+00
DAV:   7    -0.222650570513E+03    0.20205E-02   -0.17779E-02 38248   0.392E-01    0.602E-01
DAV:   8    -0.222650538666E+03    0.31847E-04   -0.33976E-03 38344   0.291E-01    0.489E-01
DAV:   9    -0.222650117819E+03    0.42085E-03   -0.13795E-03 38392   0.211E-01    0.271E-01
DAV:  10    -0.222650164988E+03   -0.47169E-04   -0.96118E-04 38280   0.158E-01    0.309E-01
DAV:  11    -0.222650059890E+03    0.10510E-03   -0.90074E-04 37904   0.147E-01    0.147E-01
DAV:  12    -0.222650158809E+03   -0.98919E-04   -0.35984E-04 37256   0.962E-02    0.112E-01
DAV:  13    -0.222650161267E+03   -0.24583E-05   -0.93506E-05 31648   0.518E-02
  65 F= -.22265016E+03 E0= -.22263806E+03  d E =0.127138E-02  mag=    22.0000
       N       E                     dE             d eps       ncg     rms          rms(c)
DAV:   1    -0.219551992944E+03    0.30982E+01   -0.74622E+02 28568   0.826E+01    0.540E+00
DAV:   2    -0.222652184006E+03   -0.31002E+01   -0.32737E+01 27952   0.157E+01    0.447E+00
DAV:   3    -0.222606210707E+03    0.45973E-01   -0.73446E-01 39808   0.352E+00    0.437E+00
DAV:   4    -0.222576884348E+03    0.29326E-01   -0.24994E-01 41288   0.173E+00    0.350E+00
DAV:   5    -0.222561028657E+03    0.15856E-01   -0.20703E-01 39016   0.118E+00    0.309E+00
DAV:   6    -0.222544132326E+03    0.16896E-01   -0.14044E-01 37856   0.127E+00    0.292E+00
DAV:   7    -0.222527928021E+03    0.16204E-01   -0.70354E-02 38008   0.101E+00    0.101E+00
DAV:   8    -0.222530191991E+03   -0.22640E-02   -0.18169E-02 39424   0.661E-01    0.106E+00
DAV:   9    -0.222528163186E+03    0.20288E-02   -0.11803E-02 38784   0.489E-01    0.485E-01
DAV:  10    -0.222528423666E+03   -0.26048E-03   -0.31832E-03 39032   0.276E-01    0.430E-01
DAV:  11    -0.222528208233E+03    0.21543E-03   -0.16706E-03 39056   0.191E-01    0.284E-01
DAV:  12    -0.222528144510E+03    0.63722E-04   -0.62773E-04 38648   0.123E-01    0.180E-01
DAV:  13    -0.222528119105E+03    0.25405E-04   -0.35137E-04 38200   0.101E-01    0.118E-01
DAV:  14    -0.222528107935E+03    0.11170E-04   -0.13568E-04 38064   0.607E-02    0.537E-02
DAV:  15    -0.222528108308E+03   -0.37374E-06   -0.43739E-05 26432   0.326E-02
  66 F= -.22252811E+03 E0= -.22251752E+03  d E =0.122053E+00  mag=    22.0000
       N       E                     dE             d eps       ncg     rms          rms(c)
DAV:   1    -0.222505302422E+03    0.22806E-01   -0.11498E+01 29744   0.140E+01    0.950E-01
DAV:   2    -0.222563893624E+03   -0.58591E-01   -0.58754E-01 27880   0.247E+00    0.775E-01
DAV:   3    -0.222567248175E+03   -0.33546E-02   -0.22035E-02 38904   0.593E-01    0.117E+00
DAV:   4    -0.222565504165E+03    0.17440E-02   -0.18436E-02 39072   0.368E-01    0.706E-01
DAV:   5    -0.222565211813E+03    0.29235E-03   -0.61634E-03 41104   0.229E-01    0.481E-01
DAV:   6    -0.222565109305E+03    0.10251E-03   -0.16583E-03 38704   0.212E-01    0.393E-01
DAV:   7    -0.222564868901E+03    0.24040E-03   -0.11247E-03 38440   0.191E-01    0.190E-01
DAV:   8    -0.222564946868E+03   -0.77968E-04   -0.57034E-04 38984   0.114E-01    0.168E-01
DAV:   9    -0.222564897779E+03    0.49089E-04   -0.18496E-04 34160   0.650E-02    0.504E-02
DAV:  10    -0.222564896875E+03    0.90483E-06   -0.26171E-05 23416   0.291E-02
  67 F= -.22256490E+03 E0= -.22255432E+03  d E =-.367886E-01  mag=    22.0000
       N       E                     dE             d eps       ncg     rms          rms(c)
DAV:   1    -0.222567975414E+03   -0.30776E-02   -0.19944E+00 29600   0.572E+00    0.390E-01
DAV:   2    -0.222577666297E+03   -0.96909E-02   -0.97524E-02 28024   0.102E+00    0.338E-01
DAV:   3    -0.222578165347E+03   -0.49905E-03   -0.35138E-03 39176   0.251E-01    0.472E-01
DAV:   4    -0.222577897747E+03    0.26760E-03   -0.30111E-03 39256   0.158E-01    0.292E-01
DAV:   5    -0.222577858513E+03    0.39234E-04   -0.12611E-03 38784   0.977E-02    0.221E-01
DAV:   6    -0.222577832485E+03    0.26028E-04   -0.36561E-04 37720   0.925E-02    0.170E-01
DAV:   7    -0.222577782592E+03    0.49894E-04   -0.18590E-04 38136   0.799E-02    0.576E-02
DAV:   8    -0.222577801018E+03   -0.18426E-04   -0.71663E-05 30800   0.440E-02    0.667E-02
DAV:   9    -0.222577792840E+03    0.81777E-05   -0.27349E-05 22920   0.281E-02
  68 F= -.22257779E+03 E0= -.22256720E+03  d E =-.128960E-01  mag=    22.0000
       N       E                     dE             d eps       ncg     rms          rms(c)
DAV:   1    -0.222520304045E+03    0.57497E-01   -0.15251E+01 29288   0.163E+01    0.112E+00
DAV:   2    -0.222603005865E+03   -0.82702E-01   -0.82140E-01 28056   0.295E+00    0.110E+00
DAV:   3    -0.222607326713E+03   -0.43208E-02   -0.39130E-02 38904   0.737E-01    0.151E+00
DAV:   4    -0.222604693784E+03    0.26329E-02   -0.30749E-02 39352   0.439E-01    0.867E-01
DAV:   5    -0.222604406113E+03    0.28767E-03   -0.85533E-03 40720   0.302E-01    0.648E-01
DAV:   6    -0.222604235214E+03    0.17090E-03   -0.25089E-03 38448   0.269E-01    0.533E-01
DAV:   7    -0.222603774310E+03    0.46090E-03   -0.17722E-03 38376   0.247E-01    0.198E-01
DAV:   8    -0.222603912155E+03   -0.13785E-03   -0.76762E-04 38416   0.151E-01    0.180E-01
DAV:   9    -0.222603862095E+03    0.50060E-04   -0.27564E-04 37640   0.848E-02    0.737E-02
DAV:  10    -0.222603854775E+03    0.73202E-05   -0.41810E-05 24928   0.386E-02
  69 F= -.22260385E+03 E0= -.22259330E+03  d E =-.260619E-01  mag=    22.0000
       N       E                     dE             d eps       ncg     rms          rms(c)
DAV:   1    -0.222599313985E+03    0.45481E-02   -0.11229E+00 28728   0.391E+00    0.245E-01
DAV:   2    -0.222604010929E+03   -0.46969E-02   -0.44881E-02 28528   0.709E-01    0.336E-01
DAV:   3    -0.222603989517E+03    0.21412E-04   -0.13383E-03 37872   0.168E-01    0.244E-01
DAV:   4    -0.222604009453E+03   -0.19935E-04   -0.79550E-04 37936   0.914E-02    0.238E-01
DAV:   5    -0.222603978528E+03    0.30925E-04   -0.54542E-04 29520   0.618E-02    0.187E-01
DAV:   6    -0.222603976104E+03    0.24240E-05   -0.25527E-04 33384   0.691E-02    0.173E-01
DAV:   7    -0.222603941039E+03    0.35065E-04   -0.23272E-04 35440   0.786E-02    0.917E-02
DAV:   8    -0.222603942868E+03   -0.18282E-05   -0.10961E-04 34144   0.549E-02    0.699E-02
DAV:   9    -0.222603937088E+03    0.57795E-05   -0.24129E-05 22856   0.294E-02
  70 F= -.22260394E+03 E0= -.22259341E+03  d E =-.823134E-04  mag=    22.0000
       N       E                     dE             d eps       ncg     rms          rms(c)
DAV:   1    -0.222507855098E+03    0.96088E-01   -0.27101E+01 28800   0.157E+01    0.976E-01
DAV:   2    -0.222585935125E+03   -0.78080E-01   -0.82989E-01 28280   0.272E+00    0.828E-01
DAV:   3    -0.222587539756E+03   -0.16046E-02   -0.25180E-02 39824   0.658E-01    0.119E+00
DAV:   4    -0.222585273417E+03    0.22663E-02   -0.21645E-02 40160   0.415E-01    0.773E-01
DAV:   5    -0.222584631305E+03    0.64211E-03   -0.94844E-03 40056   0.241E-01    0.474E-01
DAV:   6    -0.222584254487E+03    0.37682E-03   -0.25054E-03 37728   0.261E-01    0.412E-01
DAV:   7    -0.222583940394E+03    0.31409E-03   -0.11875E-03 38656   0.202E-01    0.166E-01
DAV:   8    -0.222583965465E+03   -0.25071E-04   -0.31686E-04 39048   0.953E-02    0.132E-01
DAV:   9    -0.222583938022E+03    0.27443E-04   -0.95226E-05 31704   0.528E-02    0.451E-02
DAV:  10    -0.222583940572E+03   -0.25491E-05   -0.31088E-05 24448   0.303E-02
  71 F= -.22258394E+03 E0= -.22257368E+03  d E =0.199965E-01  mag=    22.0000
       N       E                     dE             d eps       ncg     rms          rms(c)
DAV:   1    -0.221953914458E+03    0.63002E+00   -0.17298E+02 28904   0.396E+01    0.251E+00
DAV:   2    -0.222531844385E+03   -0.57793E+00   -0.61335E+00 28112   0.693E+00    0.178E+00
DAV:   3    -0.222536790946E+03   -0.49466E-02   -0.14579E-01 40984   0.149E+00    0.233E+00
DAV:   4    -0.222524441248E+03    0.12350E-01   -0.48825E-02 41360   0.917E-01    0.101E+00
DAV:   5    -0.222530872525E+03   -0.64313E-02   -0.78074E-02 39800   0.695E-01    0.235E+00
DAV:   6    -0.222519444536E+03    0.11428E-01   -0.42890E-02 38608   0.607E-01    0.629E-01
DAV:   7    -0.222520303916E+03   -0.85938E-03   -0.64527E-03 39392   0.344E-01    0.549E-01
DAV:   8    -0.222519913363E+03    0.39055E-03   -0.22844E-03 39984   0.223E-01    0.209E-01
DAV:   9    -0.222519958048E+03   -0.44685E-04   -0.67452E-04 38864   0.128E-01    0.174E-01
DAV:  10    -0.222519941122E+03    0.16926E-04   -0.30963E-04 37680   0.955E-02    0.111E-01
DAV:  11    -0.222519942279E+03   -0.11567E-05   -0.11894E-04 28040   0.606E-02    0.761E-02
DAV:  12    -0.222519946768E+03   -0.44889E-05   -0.78676E-05 26552   0.456E-02
  72 F= -.22251995E+03 E0= -.22251021E+03  d E =0.639938E-01  mag=    22.0000
       N       E                     dE             d eps       ncg     rms          rms(c)
[...]
DAV:   6    -0.222439089313E+03    0.35855E-03   -0.18267E-03 37384   0.162E-01    0.148E-01
DAV:   7    -0.222439220049E+03   -0.13074E-03   -0.58130E-04 39584   0.113E-01    0.201E-01
DAV:   8    -0.222439153290E+03    0.66760E-04   -0.20442E-04 36184   0.726E-02    0.322E-02
DAV:   9    -0.222439160347E+03   -0.70573E-05   -0.20125E-05 23016   0.246E-02
  84 F= -.22243916E+03 E0= -.22242990E+03  d E =-.215704E-01  mag=    22.0000
       N       E                     dE             d eps       ncg     rms          rms(c)
DAV:   1    -0.222439207374E+03   -0.54084E-04   -0.46192E-01 29360   0.288E+00    0.191E-01
DAV:   2    -0.222441639108E+03   -0.24317E-02   -0.23514E-02 28104   0.503E-01    0.192E-01
DAV:   3    -0.222441716142E+03   -0.77035E-04   -0.75372E-04 39368   0.132E-01    0.170E-01
DAV:   4    -0.222441678018E+03    0.38125E-04   -0.17443E-04 32688   0.644E-02    0.639E-02
DAV:   5    -0.222441692459E+03   -0.14441E-04   -0.17238E-04 25568   0.398E-02    0.110E-01
DAV:   6    -0.222441674494E+03    0.17965E-04   -0.18707E-04 26504   0.393E-02    0.598E-02
DAV:   7    -0.222441674970E+03   -0.47524E-06   -0.58637E-05 23120   0.353E-02
  85 F= -.22244167E+03 E0= -.22243240E+03  d E =-.251462E-02  mag=    22.0000
       N       E                     dE             d eps       ncg     rms          rms(c)
DAV:   1    -0.222401796904E+03    0.39878E-01   -0.23135E+01 28800   0.146E+01    0.925E-01
DAV:   2    -0.222470801739E+03   -0.69005E-01   -0.72856E-01 28680   0.253E+00    0.877E-01
DAV:   3    -0.222471122455E+03   -0.32072E-03   -0.18696E-02 39304   0.617E-01    0.882E-01
DAV:   4    -0.222469181194E+03    0.19413E-02   -0.46568E-03 40520   0.313E-01    0.288E-01
DAV:   5    -0.222469911436E+03   -0.73024E-03   -0.84855E-03 37496   0.262E-01    0.838E-01
DAV:   6    -0.222468648638E+03    0.12628E-02   -0.83866E-03 39096   0.213E-01    0.181E-01
DAV:   7    -0.222468817939E+03   -0.16930E-03   -0.40587E-04 39592   0.104E-01    0.134E-01
DAV:   8    -0.222468796279E+03    0.21660E-04   -0.13695E-04 31912   0.633E-02    0.542E-02
DAV:   9    -0.222468798508E+03   -0.22293E-05   -0.33546E-05 23928   0.361E-02
  86 F= -.22246880E+03 E0= -.22245947E+03  d E =-.271235E-01  mag=    22.0000
       N       E                     dE             d eps       ncg     rms          rms(c)
DAV:   1    -0.221105837401E+03    0.13630E+01   -0.41207E+02 28800   0.582E+01    0.375E+00
DAV:   2    -0.222612363296E+03   -0.15065E+01   -0.15971E+01 28016   0.106E+01    0.326E+00
DAV:   3    -0.222609649976E+03    0.27133E-02   -0.46024E-01 37520   0.270E+00    0.409E+00
DAV:   4    -0.222567894273E+03    0.41756E-01   -0.13923E-01 40568   0.127E+00    0.135E+00
DAV:   5    -0.222568581297E+03   -0.68702E-03   -0.91276E-02 37568   0.965E-01    0.268E+00
DAV:   6    -0.222555446173E+03    0.13135E-01   -0.11474E-01 38600   0.778E-01    0.106E+00
DAV:   7    -0.222556781487E+03   -0.13353E-02   -0.18332E-02 40000   0.552E-01    0.101E+00
DAV:   8    -0.222555284056E+03    0.14974E-02   -0.56255E-03 38376   0.403E-01    0.346E-01
DAV:   9    -0.222555508640E+03   -0.22458E-03   -0.18150E-03 38992   0.240E-01    0.325E-01
DAV:  10    -0.222555424003E+03    0.84636E-04   -0.71939E-04 38464   0.153E-01    0.154E-01
DAV:  11    -0.222555455480E+03   -0.31476E-04   -0.28403E-04 36856   0.932E-02    0.133E-01
DAV:  12    -0.222555452738E+03    0.27421E-05   -0.16418E-04 31704   0.625E-02    0.781E-02
DAV:  13    -0.222555450540E+03    0.21974E-05   -0.52798E-05 25232   0.444E-02
  87 F= -.22255545E+03 E0= -.22254584E+03  d E =-.866520E-01  mag=    22.0000
       N       E                     dE             d eps       ncg     rms          rms(c)
DAV:   1    -0.221959910139E+03    0.59554E+00   -0.53209E+01 29600   0.372E+01    0.302E+00
DAV:   2    -0.222495358400E+03   -0.53545E+00   -0.51442E+00 28392   0.689E+00    0.194E+00
DAV:   3    -0.222532528971E+03   -0.37171E-01   -0.13629E-01 39104   0.153E+00    0.238E+00
DAV:   4    -0.222522803479E+03    0.97255E-02   -0.37692E-02 38640   0.854E-01    0.954E-01
DAV:   5    -0.222525518569E+03   -0.27151E-02   -0.23971E-02 39736   0.516E-01    0.141E+00
DAV:   6    -0.222524771190E+03    0.74738E-03   -0.39700E-02 38848   0.479E-01    0.117E+00
DAV:   7    -0.222523404519E+03    0.13667E-02   -0.19216E-02 38800   0.438E-01    0.556E-01
DAV:   8    -0.222524161326E+03   -0.75681E-03   -0.37641E-03 38720   0.308E-01    0.516E-01
DAV:   9    -0.222523702726E+03    0.45860E-03   -0.14733E-03 38568   0.199E-01    0.137E-01
DAV:  10    -0.222523704590E+03   -0.18639E-05   -0.22732E-04 39032   0.808E-02    0.774E-02
DAV:  11    -0.222523704348E+03    0.24206E-06   -0.90143E-05 30656   0.561E-02
  88 F= -.22252370E+03 E0= -.22251384E+03  d E =0.317462E-01  mag=    22.0000
       N       E                     dE             d eps       ncg     rms          rms(c)
DAV:   1    -0.222503684124E+03    0.20020E-01   -0.30654E+00 30184   0.100E+01    0.908E-01
DAV:   2    -0.222547498477E+03   -0.43814E-01   -0.41955E-01 28128   0.187E+00    0.526E-01
DAV:   3    -0.222550787934E+03   -0.32895E-02   -0.95331E-03 39416   0.432E-01    0.595E-01
DAV:   4    -0.222550319326E+03    0.46861E-03   -0.31497E-03 38568   0.230E-01    0.304E-01
DAV:   5    -0.222550595708E+03   -0.27638E-03   -0.33869E-03 40016   0.144E-01    0.450E-01
DAV:   6    -0.222550360527E+03    0.23518E-03   -0.25456E-03 38848   0.146E-01    0.205E-01
DAV:   7    -0.222550432020E+03   -0.71493E-04   -0.53182E-04 39248   0.124E-01    0.172E-01
DAV:   8    -0.222550418318E+03    0.13702E-04   -0.24141E-04 36608   0.848E-02    0.102E-01
DAV:   9    -0.222550401469E+03    0.16849E-04   -0.58324E-05 27560   0.491E-02    0.264E-02
DAV:  10    -0.222550402660E+03   -0.11912E-05   -0.19900E-05 20416   0.227E-02
  89 F= -.22255040E+03 E0= -.22254050E+03  d E =-.266983E-01  mag=    22.0000
       N       E                     dE             d eps       ncg     rms          rms(c)
DAV:   1    -0.222541755473E+03    0.86460E-02   -0.14596E+00 29976   0.683E+00    0.609E-01
DAV:   2    -0.222561574577E+03   -0.19819E-01   -0.19051E-01 28336   0.128E+00    0.351E-01
DAV:   3    -0.222563081287E+03   -0.15067E-02   -0.44373E-03 39824   0.284E-01    0.430E-01
DAV:   4    -0.222562832481E+03    0.24881E-03   -0.19803E-03 39104   0.155E-01    0.233E-01
DAV:   5    -0.222562907806E+03   -0.75324E-04   -0.14866E-03 37064   0.966E-02    0.272E-01
DAV:   6    -0.222562819837E+03    0.87969E-04   -0.74825E-04 38720   0.925E-02    0.102E-01
DAV:   7    -0.222562867801E+03   -0.47964E-04   -0.16584E-04 37504   0.789E-02    0.103E-01
DAV:   8    -0.222562855846E+03    0.11956E-04   -0.75779E-05 29008   0.558E-02    0.517E-02
DAV:   9    -0.222562852457E+03    0.33888E-05   -0.20152E-05 21416   0.272E-02
  90 F= -.22256285E+03 E0= -.22255294E+03  d E =-.124498E-01  mag=    22.0000
       N       E                     dE             d eps       ncg     rms          rms(c)
DAV:   1    -0.222539655883E+03    0.23200E-01   -0.20370E+00 30592   0.810E+00    0.731E-01
DAV:   2    -0.222568656647E+03   -0.29001E-01   -0.27676E-01 28512   0.151E+00    0.400E-01
DAV:   3    -0.222570748597E+03   -0.20920E-02   -0.57325E-03 39400   0.306E-01    0.418E-01
DAV:   4    -0.222570597815E+03    0.15078E-03   -0.25513E-03 38984   0.162E-01    0.290E-01
DAV:   5    -0.222570660470E+03   -0.62656E-04   -0.18825E-03 38856   0.113E-01    0.298E-01
DAV:   6    -0.222570578556E+03    0.81914E-04   -0.91164E-04 38728   0.111E-01    0.137E-01
DAV:   7    -0.222570631036E+03   -0.52480E-04   -0.22103E-04 38344   0.949E-02    0.110E-01
DAV:   8    -0.222570620569E+03    0.10466E-04   -0.93634E-05 31616   0.637E-02    0.544E-02
DAV:   9    -0.222570617225E+03    0.33440E-05   -0.27570E-05 22952   0.300E-02
  91 F= -.22257062E+03 E0= -.22256071E+03  d E =-.776477E-02  mag=    22.0000
       N       E                     dE             d eps       ncg     rms          rms(c)
DAV:   1    -0.222566565135E+03    0.40554E-02   -0.33865E-01 30144   0.314E+00    0.262E-01
DAV:   2    -0.222570415810E+03   -0.38507E-02   -0.37163E-02 28120   0.587E-01    0.144E-01
DAV:   3    -0.222570659605E+03   -0.24379E-03   -0.66837E-04 38960   0.110E-01    0.141E-01
DAV:   4    -0.222570637456E+03    0.22149E-04   -0.18337E-04 30112   0.609E-02    0.909E-02
DAV:   5    -0.222570662453E+03   -0.24998E-04   -0.29095E-04 26680   0.470E-02    0.143E-01
DAV:   6    -0.222570634392E+03    0.28061E-04   -0.27013E-04 26944   0.471E-02    0.587E-02
DAV:   7    -0.222570641115E+03   -0.67221E-05   -0.45304E-05 26040   0.402E-02
  92 F= -.22257064E+03 E0= -.22256074E+03  d E =-.238890E-04  mag=    22.0000
       N       E                     dE             d eps       ncg     rms          rms(c)
DAV:   1    -0.222565842749E+03    0.47916E-02   -0.50338E-01 29168   0.329E+00    0.243E-01
DAV:   2    -0.222569304448E+03   -0.34617E-02   -0.34623E-02 27944   0.601E-01    0.167E-01
DAV:   3    -0.222569494117E+03   -0.18967E-03   -0.82791E-04 40616   0.144E-01    0.210E-01
DAV:   4    -0.222569415900E+03    0.78217E-04   -0.24451E-04 36752   0.836E-02    0.851E-02
DAV:   5    -0.222569438827E+03   -0.22927E-04   -0.23295E-04 28032   0.556E-02    0.140E-01
DAV:   6    -0.222569422165E+03    0.16661E-04   -0.38424E-04 28640   0.520E-02    0.106E-01
DAV:   7    -0.222569409884E+03    0.12281E-04   -0.13860E-04 28136   0.490E-02    0.482E-02
DAV:   8    -0.222569413104E+03   -0.32200E-05   -0.26052E-05 22272   0.298E-02
  93 F= -.22256941E+03 E0= -.22255952E+03  d E =0.122801E-02  mag=    22.0000
       N       E                     dE             d eps       ncg     rms          rms(c)
DAV:   1    -0.222569177259E+03    0.23262E-03   -0.10594E-01 29376   0.118E+00    0.713E-02
DAV:   2    -0.222569552809E+03   -0.37555E-03   -0.37902E-03 27936   0.201E-01    0.510E-02
DAV:   3    -0.222569566252E+03   -0.13443E-04   -0.85553E-05 34672   0.455E-02    0.649E-02
DAV:   4    -0.222569557873E+03    0.83788E-05   -0.26182E-05 21744   0.234E-02
  94 F= -.22256956E+03 E0= -.22255964E+03  d E =-.144769E-03  mag=    22.0000
       N       E                     dE             d eps       ncg     rms          rms(c)
DAV:   1    -0.222569395468E+03    0.17078E-03   -0.82041E-01 29096   0.259E+00    0.129E-01
DAV:   2    -0.222571390746E+03   -0.19953E-02   -0.19938E-02 28208   0.424E-01    0.266E-01
DAV:   3    -0.222571339108E+03    0.51638E-04   -0.18462E-03 38096   0.114E-01    0.180E-01
DAV:   4    -0.222571283091E+03    0.56018E-04   -0.25946E-04 32096   0.494E-02    0.605E-02
DAV:   5    -0.222571280919E+03    0.21719E-05   -0.50206E-05 28232   0.392E-02
  95 F= -.22257128E+03 E0= -.22256133E+03  d E =-.172305E-02  mag=    22.0000
       N       E                     dE             d eps       ncg     rms          rms(c)
DAV:   1    -0.222567387703E+03    0.38954E-02   -0.42455E+00 28888   0.560E+00    0.268E-01
DAV:   2    -0.222576719899E+03   -0.93322E-02   -0.94941E-02 27664   0.888E-01    0.207E-01
DAV:   3    -0.222576927934E+03   -0.20803E-03   -0.34817E-03 37904   0.188E-01    0.415E-01
DAV:   4    -0.222576622016E+03    0.30592E-03   -0.18469E-03 41600   0.106E-01    0.137E-01
DAV:   5    -0.222576611136E+03    0.10880E-04   -0.18231E-04 33848   0.641E-02    0.130E-01
DAV:   6    -0.222576532566E+03    0.78569E-04   -0.25179E-04 33512   0.742E-02    0.109E-01
DAV:   7    -0.222576525459E+03    0.71071E-05   -0.16455E-04 35976   0.577E-02    0.494E-02
DAV:   8    -0.222576526553E+03   -0.10936E-05   -0.18725E-05 22256   0.245E-02
  96 F= -.22257653E+03 E0= -.22256652E+03  d E =-.524563E-02  mag=    22.0000
       N       E                     dE             d eps       ncg     rms          rms(c)
DAV:   1    -0.220646361934E+03    0.19302E+01   -0.36607E+02 29184   0.697E+01    0.479E+00
DAV:   2    -0.222587931895E+03   -0.19416E+01   -0.20219E+01 27984   0.128E+01    0.410E+00
DAV:   3    -0.222661831665E+03   -0.73900E-01   -0.10099E+00 39160   0.337E+00    0.604E+00
DAV:   4    -0.222583808409E+03    0.78023E-01   -0.29787E-01 40232   0.171E+00    0.286E+00
DAV:   5    -0.222577953920E+03    0.58545E-02   -0.97625E-02 40232   0.871E-01    0.180E+00
DAV:   6    -0.222574114242E+03    0.38397E-02   -0.30982E-02 36272   0.720E-01    0.156E+00
DAV:   7    -0.222574593843E+03   -0.47960E-03   -0.30937E-02 38976   0.739E-01    0.179E+00
DAV:   8    -0.222570312780E+03    0.42811E-02   -0.34459E-02 41320   0.566E-01    0.992E-01
DAV:   9    -0.222570548512E+03   -0.23573E-03   -0.14631E-02 39488   0.380E-01    0.785E-01
DAV:  10    -0.222569948855E+03    0.59966E-03   -0.28434E-03 39720   0.262E-01    0.271E-01
DAV:  11    -0.222570064858E+03   -0.11600E-03   -0.93009E-04 39392   0.149E-01    0.218E-01
DAV:  12    -0.222570082605E+03   -0.17748E-04   -0.62765E-04 38760   0.112E-01    0.140E-01
DAV:  13    -0.222570084359E+03   -0.17537E-05   -0.17195E-04 33088   0.694E-02    0.844E-02
DAV:  14    -0.222570078510E+03    0.58490E-05   -0.38198E-05 25576   0.361E-02
  97 F= -.22257008E+03 E0= -.22255959E+03  d E =0.644804E-02  mag=    22.0000
       N       E                     dE             d eps       ncg     rms          rms(c)
DAV:   1    -0.222182833509E+03    0.38725E+00   -0.50764E+01 29328   0.345E+01    0.277E+00
DAV:   2    -0.222613208438E+03   -0.43037E+00   -0.42321E+00 28080   0.629E+00    0.359E+00
DAV:   3    -0.222632742753E+03   -0.19534E-01   -0.42434E-01 38888   0.189E+00    0.360E+00
DAV:   4    -0.222627023180E+03    0.57196E-02   -0.23267E-01 39632   0.106E+00    0.290E+00
DAV:   5    -0.222611798548E+03    0.15225E-01   -0.49443E-02 40128   0.672E-01    0.779E-01
DAV:   6    -0.222615129579E+03   -0.33310E-02   -0.11851E-02 38968   0.478E-01    0.114E+00
DAV:   7    -0.222613865817E+03    0.12638E-02   -0.70641E-03 39816   0.440E-01    0.827E-01
DAV:   8    -0.222612745602E+03    0.11202E-02   -0.44413E-03 39688   0.297E-01    0.269E-01
DAV:   9    -0.222613007262E+03   -0.26166E-03   -0.12325E-03 39344   0.175E-01    0.234E-01
DAV:  10    -0.222612970162E+03    0.37100E-04   -0.53729E-04 38728   0.114E-01    0.116E-01
DAV:  11    -0.222612974921E+03   -0.47589E-05   -0.16002E-04 34464   0.683E-02    0.852E-02
DAV:  12    -0.222612978134E+03   -0.32130E-05   -0.10289E-04 26416   0.480E-02    0.622E-02
DAV:  13    -0.222612977506E+03    0.62761E-06   -0.33968E-05 24160   0.334E-02
  98 F= -.22261298E+03 E0= -.22260248E+03  d E =-.428990E-01  mag=    22.0000
       N       E                     dE             d eps       ncg     rms          rms(c)
DAV:   1    -0.222585682971E+03    0.27295E-01   -0.37300E+00 29296   0.880E+00    0.681E-01
DAV:   2    -0.222611311436E+03   -0.25628E-01   -0.25862E-01 28024   0.158E+00    0.547E-01
DAV:   3    -0.222613881413E+03   -0.25700E-02   -0.17444E-02 39944   0.453E-01    0.105E+00
DAV:   4    -0.222612147953E+03    0.17335E-02   -0.12628E-02 38896   0.286E-01    0.444E-01
DAV:   5    -0.222612067008E+03    0.80945E-04   -0.20532E-03 41528   0.149E-01    0.230E-01
DAV:   6    -0.222612068198E+03   -0.11895E-05   -0.59404E-04 37456   0.128E-01    0.212E-01
DAV:   7    -0.222612015701E+03    0.52496E-04   -0.46679E-04 39704   0.109E-01    0.109E-01
DAV:   8    -0.222612037255E+03   -0.21554E-04   -0.10169E-04 34600   0.584E-02    0.836E-02
DAV:   9    -0.222612024610E+03    0.12645E-04   -0.37842E-05 25296   0.360E-02    0.319E-02
DAV:  10    -0.222612024118E+03    0.49217E-06   -0.11011E-05 18680   0.215E-02
  99 F= -.22261202E+03 E0= -.22260157E+03  d E =0.953388E-03  mag=    22.0000
       N       E                     dE             d eps       ncg     rms          rms(c)
DAV:   1    -0.222573990724E+03    0.38034E-01   -0.51348E+00 29344   0.984E+00    0.741E-01
DAV:   2    -0.222605324082E+03   -0.31333E-01   -0.31703E-01 27976   0.174E+00    0.483E-01
DAV:   3    -0.222607550620E+03   -0.22265E-02   -0.11331E-02 39960   0.417E-01    0.870E-01
DAV:   4    -0.222606341595E+03    0.12090E-02   -0.85198E-03 39464   0.269E-01    0.375E-01
DAV:   5    -0.222606442746E+03   -0.10115E-03   -0.30526E-03 41208   0.155E-01    0.364E-01
DAV:   6    -0.222606271674E+03    0.17107E-03   -0.13725E-03 39056   0.145E-01    0.236E-01
DAV:   7    -0.222606219953E+03    0.51721E-04   -0.54729E-04 39144   0.121E-01    0.112E-01
DAV:   8    -0.222606246269E+03   -0.26316E-04   -0.11521E-04 35984   0.601E-02    0.719E-02
DAV:   9    -0.222606239126E+03    0.71424E-05   -0.31684E-05 24344   0.361E-02
 100 F= -.22260624E+03 E0= -.22259584E+03  d E =0.578499E-02  mag=    22.0000
       N       E                     dE             d eps       ncg     rms          rms(c)
DAV:   1    -0.222603121530E+03    0.31247E-02   -0.23650E-01 29384   0.241E+00    0.190E-01
DAV:   2    -0.222605056626E+03   -0.19351E-02   -0.18774E-02 28208   0.423E-01    0.159E-01
DAV:   3    -0.222605264579E+03   -0.20795E-03   -0.13297E-03 39456   0.130E-01    0.288E-01
DAV:   4    -0.222605144875E+03    0.11970E-03   -0.10323E-03 34456   0.861E-02    0.120E-01
DAV:   5    -0.222605141054E+03    0.38207E-05   -0.14334E-04 26952   0.425E-02    0.612E-02
DAV:   6    -0.222605141684E+03   -0.62995E-06   -0.26847E-05 23336   0.295E-02
 101 F= -.22260514E+03 E0= -.22259473E+03  d E =0.109744E-02  mag=    22.0000
       N       E                     dE             d eps       ncg     rms          rms(c)
DAV:   1    -0.222603553744E+03    0.15873E-02   -0.13679E-01 29640   0.177E+00    0.136E-01
DAV:   2    -0.222604616377E+03   -0.10626E-02   -0.10008E-02 28744   0.316E-01    0.188E-01
DAV:   3    -0.222604645006E+03   -0.28629E-04   -0.82530E-04 38504   0.111E-01    0.169E-01
DAV:   4    -0.222604640320E+03    0.46867E-05   -0.57555E-04 28184   0.621E-02    0.135E-01
DAV:   5    -0.222604614356E+03    0.25964E-04   -0.14827E-04 25320   0.389E-02    0.373E-02
DAV:   6    -0.222604618258E+03   -0.39021E-05   -0.18678E-05 21064   0.231E-02
 102 F= -.22260462E+03 E0= -.22259422E+03  d E =0.523426E-03  mag=    22.0000
       N       E                     dE             d eps       ncg     rms          rms(c)
DAV:   1    -0.222604765122E+03   -0.15077E-03   -0.54928E-02 29376   0.953E-01    0.649E-02
DAV:   2    -0.222605032987E+03   -0.26786E-03   -0.26922E-03 28176   0.172E-01    0.902E-02
DAV:   3    -0.222605045556E+03   -0.12570E-04   -0.34194E-04 32544   0.579E-02    0.110E-01
DAV:   4    -0.222605030812E+03    0.14745E-04   -0.15323E-04 24224   0.339E-02    0.496E-02
DAV:   5    -0.222605028133E+03    0.26781E-05   -0.16713E-05 18248   0.200E-02
 103 F= -.22260503E+03 E0= -.22259461E+03  d E =-.409875E-03  mag=    22.0000
       N       E                     dE             d eps       ncg     rms          rms(c)
DAV:   1    -0.222605585067E+03   -0.55426E-03   -0.26379E-01 28808   0.187E+00    0.128E-01
DAV:   2    -0.222606587091E+03   -0.10020E-02   -0.10372E-02 28192   0.327E-01    0.139E-01
DAV:   3    -0.222606601700E+03   -0.14609E-04   -0.37105E-04 40232   0.935E-02    0.135E-01
DAV:   4    -0.222606573271E+03    0.28429E-04   -0.19509E-04 27872   0.523E-02    0.882E-02
DAV:   5    -0.222606566478E+03    0.67925E-05   -0.15882E-04 23888   0.351E-02    0.640E-02
DAV:   6    -0.222606563191E+03    0.32873E-05   -0.67330E-05 22584   0.355E-02
 104 F= -.22260656E+03 E0= -.22259614E+03  d E =-.153506E-02  mag=    22.0000
       N       E                     dE             d eps       ncg     rms          rms(c)
DAV:   1    -0.222605663738E+03    0.90274E-03   -0.36877E-01 29296   0.208E+00    0.113E-01
DAV:   2    -0.222606777847E+03   -0.11141E-02   -0.11083E-02 27784   0.345E-01    0.960E-02
DAV:   3    -0.222606820699E+03   -0.42852E-04   -0.29662E-04 38048   0.838E-02    0.137E-01
DAV:   4    -0.222606783386E+03    0.37313E-04   -0.10291E-04 26224   0.442E-02    0.462E-02
DAV:   5    -0.222606787443E+03   -0.40571E-05   -0.72725E-05 20328   0.239E-02
 105 F= -.22260679E+03 E0= -.22259633E+03  d E =-.224252E-03  mag=    22.0000
