       N       E                     dE             d eps       ncg     rms          ort
DAV:   1     0.696215286673E+04    0.69622E+04   -0.30569E+05  9360   0.165E+03
DAV:   2     0.472906913198E+03   -0.64892E+04   -0.60260E+04  9360   0.473E+02
DAV:   3    -0.370746260977E+03   -0.84365E+03   -0.82837E+03  9360   0.184E+02
DAV:   4    -0.411532189197E+03   -0.40786E+02   -0.40278E+02  9360   0.360E+01
DAV:   5    -0.413761937916E+03   -0.22297E+01   -0.22091E+01  9360   0.636E+00
SDA:   6    -0.266941549285E+03    0.14682E+03   -0.22091E+01  9360   0.924E+03 0.000E+00
CGA:   7    -0.344965758009E+03   -0.78024E+02   -0.98408E+02  9360   0.733E+03-0.133E+03
CGA:   8    -0.356768476191E+03   -0.11803E+02   -0.28506E+02  9360   0.242E+03-0.175E+03
CGA:   9    -0.359403690769E+03   -0.26352E+01   -0.15163E+02  9360   0.190E+03-0.398E+02
CGA:  10    -0.361239341098E+03   -0.18357E+01   -0.13366E+02  9360   0.132E+03-0.643E+01
CGA:  11    -0.363105850863E+03   -0.18665E+01   -0.89961E+01  9360   0.123E+03-0.848E+01
CGA:  12    -0.365635256122E+03   -0.25294E+01   -0.87027E+01  9360   0.647E+02-0.249E+02
CGA:  13    -0.367401083145E+03   -0.17658E+01   -0.34558E+01  9360   0.953E+02-0.453E+02
CGA:  14    -0.362099257795E+03    0.53018E+01   -0.54888E+01  9360   0.175E+03-0.847E+02
CGA:  15    -0.366045143757E+03   -0.39459E+01   -0.10645E+02  9360   0.611E+02-0.547E+02
CGA:  16    -0.372287476426E+03   -0.62423E+01   -0.21110E+01  9360   0.663E+02-0.782E+02
CGA:  17    -0.371934091620E+03    0.35338E+00   -0.37897E+01  9360   0.608E+02-0.248E+02
CGA:  18    -0.372663343325E+03   -0.72925E+00   -0.18961E+01  9360   0.794E+02-0.168E+02
CGA:  19    -0.371532733949E+03    0.11306E+01   -0.30968E+01  9360   0.522E+02-0.287E+02
CGA:  20    -0.373785272096E+03   -0.22525E+01   -0.12266E+01  9360   0.217E+02 0.241E+02
CGA:  21    -0.373631263141E+03    0.15401E+00   -0.84479E+00  9360   0.545E+02-0.538E+02
CGA:  22    -0.373379035788E+03    0.25223E+00   -0.27305E+01  9360   0.285E+02-0.214E+02
CGA:  23    -0.374388098347E+03   -0.10091E+01   -0.55857E+00  9360   0.942E+01 0.121E+02
CGA:  24    -0.374622832037E+03   -0.23473E+00   -0.25296E+00  9360   0.178E+01-0.412E+01
CGA:  25    -0.374670276797E+03   -0.47445E-01   -0.54697E-01  9360   0.148E+01-0.628E-01
CGA:  26    -0.374717522350E+03   -0.47246E-01   -0.58176E-01  9360   0.115E+01-0.167E+00
CGA:  27    -0.374785817833E+03   -0.68295E-01   -0.69315E-01  9360   0.920E+00-0.200E-02
CGA:  28    -0.374842658592E+03   -0.56841E-01   -0.64747E-01  9360   0.487E+00 0.203E-01
CGA:  29    -0.374873700056E+03   -0.31041E-01   -0.29416E-01  9360   0.285E+00 0.121E-01
CGA:  30    -0.374889108553E+03   -0.15408E-01   -0.16194E-01  9360   0.219E+00-0.502E-02
CGA:  31    -0.374906784208E+03   -0.17676E-01   -0.18143E-01  9360   0.186E+00 0.131E-01
CGA:  32    -0.374917730124E+03   -0.10946E-01   -0.11062E-01  9360   0.717E-01-0.513E-03
CGA:  33    -0.374922628698E+03   -0.48986E-02   -0.49362E-02  9360   0.404E-01 0.222E-03
CGA:  34    -0.374926354288E+03   -0.37256E-02   -0.37296E-02  9360   0.278E-01 0.172E-02
CGA:  35    -0.374928676403E+03   -0.23221E-02   -0.23233E-02  9360   0.169E-01 0.380E-04
CGA:  36    -0.374930071002E+03   -0.13946E-02   -0.14010E-02  9360   0.941E-02 0.247E-03
CGA:  37    -0.374931022437E+03   -0.95143E-03   -0.94685E-03  9360   0.650E-02 0.338E-03
CGA:  38    -0.374931716025E+03   -0.69359E-03   -0.69527E-03  9360   0.457E-02-0.120E-03
CGA:  39    -0.374932169848E+03   -0.45382E-03   -0.45257E-03  9360   0.315E-02 0.623E-04
CGA:  40    -0.374932466489E+03   -0.29664E-03   -0.29666E-03  9360   0.184E-02-0.790E-06
CGA:  41    -0.374932668983E+03   -0.20249E-03   -0.20357E-03  9360   0.142E-02-0.520E-04
CGA:  42    -0.374932820337E+03   -0.15135E-03   -0.15135E-03  9360   0.876E-03-0.120E-04
CGA:  43    -0.374932911126E+03   -0.90789E-04   -0.90990E-04  9360   0.639E-03-0.231E-04
CGA:  44    -0.374932977340E+03   -0.66215E-04   -0.66478E-04  9360   0.437E-03-0.252E-04
CGA:  45    -0.374933024668E+03   -0.47327E-04   -0.47687E-04  9360   0.325E-03-0.212E-04
CGA:  46    -0.374933060957E+03   -0.36290E-04   -0.36656E-04  9360   0.236E-03-0.167E-04
CGA:  47    -0.374933086055E+03   -0.25097E-04   -0.25225E-04  9360   0.153E-03-0.913E-05
CGA:  48    -0.374933101142E+03   -0.15088E-04   -0.15103E-04  9360   0.108E-03-0.369E-05
CGA:  49    -0.374933113995E+03   -0.12853E-04   -0.12937E-04  9360   0.916E-04-0.334E-05
CGA:  50    -0.374933123830E+03   -0.98348E-05   -0.98449E-05  9360   0.571E-04-0.107E-05
   1 F= -.37493312E+03 E0= -.37492611E+03  d E =-.374933E+03  mag=    58.0000
       N       E                     dE             d eps       ncg     rms          ort
SDA:   1    -0.375002253504E+03   -0.69140E-01    0.00000E+00  9360   0.289E-01 0.000E+00
CGA:   2    -0.375003954240E+03   -0.17007E-02   -0.16821E-02  9360   0.122E-01 0.118E-03
CGA:   3    -0.375006073399E+03   -0.21192E-02   -0.21170E-02  9360   0.300E-02 0.276E-04
CGA:   4    -0.375006592132E+03   -0.51873E-03   -0.51927E-03  9360   0.337E-02-0.782E-05
CGA:   5    -0.375006816226E+03   -0.22409E-03   -0.22315E-03  9360   0.666E-03-0.395E-05
CGA:   6    -0.375006892679E+03   -0.76453E-04   -0.76430E-04  9360   0.305E-03 0.183E-05
CGA:   7    -0.375006939184E+03   -0.46505E-04   -0.46403E-04  9360   0.870E-04 0.220E-05
CGA:   8    -0.375006952797E+03   -0.13613E-04   -0.13601E-04  9360   0.108E-03 0.261E-06
CGA:   9    -0.375006961526E+03   -0.87283E-05   -0.87292E-05  9360   0.386E-04-0.384E-07
   2 F= -.37500696E+03 E0= -.37499994E+03  d E =-.738377E-01  mag=    58.0000
       N       E                     dE             d eps       ncg     rms          ort
SDA:   1    -0.373671969985E+03    0.13350E+01    0.00000E+00  9360   0.885E+01 0.000E+00
CGA:   2    -0.375690120434E+03   -0.20182E+01   -0.19981E+01  9360   0.424E+01 0.165E+00
CGA:   3    -0.376047701981E+03   -0.35758E+00   -0.30365E+00  9360   0.235E+01 0.163E+00
CGA:   4    -0.376456661264E+03   -0.40896E+00   -0.40925E+00  9360   0.549E+00-0.539E-02
CGA:   5    -0.376509232811E+03   -0.52572E-01   -0.53302E-01  9360   0.483E+00 0.955E-02
CGA:   6    -0.376554018961E+03   -0.44786E-01   -0.44533E-01  9360   0.107E+00-0.210E-02
CGA:   7    -0.376570249554E+03   -0.16231E-01   -0.16251E-01  9360   0.756E-01-0.428E-03
CGA:   8    -0.376576386234E+03   -0.61367E-02   -0.61684E-02  9360   0.364E-01 0.390E-04
CGA:   9    -0.376581036612E+03   -0.46504E-02   -0.46520E-02  9360   0.321E-01-0.716E-04
CGA:  10    -0.376584656102E+03   -0.36195E-02   -0.36217E-02  9360   0.154E-01 0.290E-03
CGA:  11    -0.376587276569E+03   -0.26205E-02   -0.26205E-02  9360   0.103E-01 0.364E-05
CGA:  12    -0.376588972995E+03   -0.16964E-02   -0.16956E-02  9360   0.555E-02 0.167E-04
CGA:  13    -0.376589708761E+03   -0.73577E-03   -0.73529E-03  9360   0.451E-02 0.282E-04
CGA:  14    -0.376590139289E+03   -0.43053E-03   -0.42984E-03  9360   0.265E-02-0.331E-06
CGA:  15    -0.376590483177E+03   -0.34389E-03   -0.34381E-03  9360   0.805E-03 0.746E-05
CGA:  16    -0.376590638141E+03   -0.15496E-03   -0.15491E-03  9360   0.923E-03 0.943E-06
CGA:  17    -0.376590713279E+03   -0.75138E-04   -0.75193E-04  9360   0.306E-03 0.187E-05
CGA:  18    -0.376590746625E+03   -0.33346E-04   -0.33328E-04  9360   0.283E-03-0.848E-06
CGA:  19    -0.376590785612E+03   -0.38987E-04   -0.39011E-04  9360   0.889E-04-0.158E-05
CGA:  20    -0.376590800889E+03   -0.15278E-04   -0.15313E-04  9360   0.614E-04-0.698E-06
CGA:  21    -0.376590808875E+03   -0.79860E-05   -0.79885E-05  9360   0.541E-04-0.410E-06
   3 F= -.37659081E+03 E0= -.37658355E+03  d E =-.158385E+01  mag=    58.0000
       N       E                     dE             d eps       ncg     rms          ort
SDA:   1    -0.369762573143E+03    0.68282E+01    0.00000E+00  9360   0.258E+02 0.000E+00
CGA:   2    -0.375337302127E+03   -0.55747E+01   -0.54270E+01  9360   0.140E+02 0.123E+01
CGA:   3    -0.376501721492E+03   -0.11644E+01   -0.10346E+01  9360   0.641E+01 0.310E+00
CGA:   4    -0.377553151607E+03   -0.10514E+01   -0.10534E+01  9360   0.336E+01-0.628E-01
CGA:   5    -0.377736687927E+03   -0.18354E+00   -0.21463E+00  9360   0.222E+01-0.237E+00
CGA:   6    -0.377860770183E+03   -0.12408E+00   -0.13007E+00  9360   0.107E+01-0.412E-01
CGA:   7    -0.377936485652E+03   -0.75715E-01   -0.74630E-01  9360   0.527E+00 0.390E-03
CGA:   8    -0.377965345919E+03   -0.28860E-01   -0.28459E-01  9360   0.354E+00 0.231E-02
CGA:   9    -0.377993604144E+03   -0.28258E-01   -0.28462E-01  9360   0.224E+00 0.287E-03
CGA:  10    -0.378007892173E+03   -0.14288E-01   -0.14615E-01  9360   0.128E+00-0.118E-02
CGA:  11    -0.378017130460E+03   -0.92383E-02   -0.91663E-02  9360   0.876E-01 0.909E-05
CGA:  12    -0.378025390289E+03   -0.82598E-02   -0.83250E-02  9360   0.768E-01 0.171E-02
CGA:  13    -0.378031746028E+03   -0.63557E-02   -0.64367E-02  9360   0.521E-01 0.649E-03
CGA:  14    -0.378035281562E+03   -0.35355E-02   -0.34534E-02  9360   0.289E-01 0.287E-03
CGA:  15    -0.378038486566E+03   -0.32050E-02   -0.32057E-02  9360   0.303E-01-0.582E-04
CGA:  16    -0.378040540221E+03   -0.20537E-02   -0.20613E-02  9360   0.152E-01-0.469E-07
CGA:  17    -0.378041872802E+03   -0.13326E-02   -0.13280E-02  9360   0.918E-02-0.917E-04
CGA:  18    -0.378042692917E+03   -0.82012E-03   -0.82041E-03  9360   0.832E-02 0.133E-04
CGA:  19    -0.378043407922E+03   -0.71500E-03   -0.71645E-03  9360   0.454E-02 0.370E-04
CGA:  20    -0.378043775000E+03   -0.36708E-03   -0.36677E-03  9360   0.246E-02 0.544E-06
CGA:  21    -0.378043980396E+03   -0.20540E-03   -0.20576E-03  9360   0.212E-02 0.753E-05
CGA:  22    -0.378044205775E+03   -0.22538E-03   -0.22526E-03  9360   0.145E-02 0.117E-04
CGA:  23    -0.378044302295E+03   -0.96520E-04   -0.96440E-04  9360   0.596E-03 0.136E-05
CGA:  24    -0.378044360725E+03   -0.58430E-04   -0.58431E-04  9360   0.649E-03-0.265E-05
CGA:  25    -0.378044424303E+03   -0.63578E-04   -0.63579E-04  9360   0.394E-03-0.295E-05
CGA:  26    -0.378044454787E+03   -0.30485E-04   -0.30429E-04  9360   0.206E-03-0.118E-05
CGA:  27    -0.378044470550E+03   -0.15763E-04   -0.15737E-04  9360   0.145E-03-0.111E-05
CGA:  28    -0.378044488103E+03   -0.17553E-04   -0.17606E-04  9360   0.128E-03-0.204E-05
CGA:  29    -0.378044497379E+03   -0.92763E-05   -0.92613E-05  9360   0.680E-04-0.505E-06
   4 F= -.37804450E+03 E0= -.37803680E+03  d E =-.145369E+01  mag=    58.0000
       N       E                     dE             d eps       ncg     rms          ort
SDA:   1    -0.371862700055E+03    0.61818E+01    0.00000E+00  9360   0.213E+02 0.000E+00
CGA:   2    -0.376222672840E+03   -0.43600E+01   -0.43105E+01  9360   0.110E+02 0.446E+00
CGA:   3    -0.377579233361E+03   -0.13566E+01   -0.13035E+01  9360   0.409E+01 0.202E+01
CGA:   4    -0.378120061019E+03   -0.54083E+00   -0.77922E+00  9360   0.961E+01-0.399E+01
CGA:   5    -0.378412433095E+03   -0.29237E+00   -0.57238E+00  9360   0.103E+01-0.222E+00
CGA:   6    -0.378525427899E+03   -0.11299E+00   -0.84497E-01  9360   0.614E+00-0.393E+00
CGA:   7    -0.378557172252E+03   -0.31744E-01   -0.31864E-01  9360   0.106E+01 0.197E-02
CGA:   8    -0.378597315882E+03   -0.40144E-01   -0.47670E-01  9360   0.415E+00-0.976E-01
CGA:   9    -0.378625655454E+03   -0.28340E-01   -0.28044E-01  9360   0.198E+00-0.248E-02
CGA:  10    -0.378641466292E+03   -0.15811E-01   -0.15456E-01  9360   0.151E+00-0.556E-02
CGA:  11    -0.378652862017E+03   -0.11396E-01   -0.11405E-01  9360   0.659E-01 0.160E-03
CGA:  12    -0.378657888968E+03   -0.50270E-02   -0.51278E-02  9360   0.493E-01 0.176E-02
CGA:  13    -0.378662039859E+03   -0.41509E-02   -0.41502E-02  9360   0.314E-01-0.106E-04
CGA:  14    -0.378665005960E+03   -0.29661E-02   -0.29665E-02  9360   0.230E-01-0.158E-03
CGA:  15    -0.378666623723E+03   -0.16178E-02   -0.16300E-02  9360   0.146E-01 0.116E-03
CGA:  16    -0.378668195374E+03   -0.15717E-02   -0.15706E-02  9360   0.111E-01 0.498E-04
CGA:  17    -0.378669259268E+03   -0.10639E-02   -0.10644E-02  9360   0.936E-02-0.103E-03
CGA:  18    -0.378670066699E+03   -0.80743E-03   -0.80768E-03  9360   0.478E-02 0.222E-04
CGA:  19    -0.378670479096E+03   -0.41240E-03   -0.41297E-03  9360   0.274E-02 0.430E-04
CGA:  20    -0.378670701837E+03   -0.22274E-03   -0.22279E-03  9360   0.181E-02 0.513E-05
CGA:  21    -0.378670905386E+03   -0.20355E-03   -0.20354E-03  9360   0.116E-02 0.674E-06
CGA:  22    -0.378670990380E+03   -0.84993E-04   -0.85139E-04  9360   0.584E-03 0.278E-05
CGA:  23    -0.378671043642E+03   -0.53263E-04   -0.53263E-04  9360   0.416E-03 0.124E-05
CGA:  24    -0.378671099164E+03   -0.55522E-04   -0.55663E-04  9360   0.448E-03-0.259E-05
CGA:  25    -0.378671132024E+03   -0.32860E-04   -0.32859E-04  9360   0.177E-03-0.292E-06
CGA:  26    -0.378671149034E+03   -0.17009E-04   -0.17007E-04  9360   0.129E-03 0.654E-06
CGA:  27    -0.378671163572E+03   -0.14538E-04   -0.14555E-04  9360   0.132E-03-0.730E-06
CGA:  28    -0.378671174741E+03   -0.11169E-04   -0.11160E-04  9360   0.464E-04-0.100E-05
CGA:  29    -0.378671178862E+03   -0.41205E-05   -0.41206E-05  9360   0.353E-04 0.351E-07
   5 F= -.37867118E+03 E0= -.37866319E+03  d E =-.626681E+00  mag=    58.0000
       N       E                     dE             d eps       ncg     rms          ort
SDA:   1    -0.361305016679E+03    0.17366E+02    0.00000E+00  9360   0.907E+02 0.000E+00
CGA:   2    -0.368201070088E+03   -0.68961E+01   -0.74941E+01  9360   0.375E+02 0.224E+02
CGA:   3    -0.372575331795E+03   -0.43743E+01   -0.46892E+01  9360   0.752E+02-0.271E+02
CGA:   4    -0.374649108702E+03   -0.20738E+01   -0.36840E+01  9360   0.197E+02-0.119E+02
CGA:   5    -0.376230234698E+03   -0.15811E+01   -0.14121E+01  9360   0.268E+02-0.108E+02
CGA:   6    -0.376780292205E+03   -0.55006E+00   -0.12357E+01  9360   0.115E+02-0.423E+01
CGA:   7    -0.377770144378E+03   -0.98985E+00   -0.10554E+01  9360   0.137E+02-0.223E+01
CGA:   8    -0.378920499849E+03   -0.11504E+01   -0.11344E+01  9360   0.189E+01 0.728E+00
CGA:   9    -0.379010275424E+03   -0.89776E-01   -0.85439E-01  9360   0.547E+00 0.201E-01
CGA:  10    -0.379105034115E+03   -0.94759E-01   -0.90906E-01  9360   0.680E+00 0.478E-01
CGA:  11    -0.379156198273E+03   -0.51164E-01   -0.51318E-01  9360   0.264E+00-0.984E-03
CGA:  12    -0.379178153285E+03   -0.21955E-01   -0.22106E-01  9360   0.113E+00 0.915E-02
CGA:  13    -0.379186832751E+03   -0.86795E-02   -0.87126E-02  9360   0.492E-01 0.567E-03
CGA:  14    -0.379192838744E+03   -0.60060E-02   -0.59589E-02  9360   0.464E-01 0.114E-02
CGA:  15    -0.379197399786E+03   -0.45610E-02   -0.45603E-02  9360   0.296E-01 0.100E-03
CGA:  16    -0.379200782421E+03   -0.33826E-02   -0.33684E-02  9360   0.213E-01 0.451E-03
CGA:  17    -0.379202556970E+03   -0.17745E-02   -0.17808E-02  9360   0.824E-02 0.233E-03
CGA:  18    -0.379203508834E+03   -0.95186E-03   -0.95263E-03  9360   0.753E-02-0.196E-04
CGA:  19    -0.379204216248E+03   -0.70741E-03   -0.70737E-03  9360   0.343E-02 0.261E-04
CGA:  20    -0.379204558654E+03   -0.34241E-03   -0.34221E-03  9360   0.226E-02 0.212E-04
CGA:  21    -0.379204837581E+03   -0.27893E-03   -0.27867E-03  9360   0.177E-02 0.792E-05
CGA:  22    -0.379204994372E+03   -0.15679E-03   -0.15680E-03  9360   0.888E-03 0.333E-05
CGA:  23    -0.379205090481E+03   -0.96109E-04   -0.96054E-04  9360   0.572E-03 0.266E-05
CGA:  24    -0.379205156429E+03   -0.65948E-04   -0.65936E-04  9360   0.463E-03 0.943E-06
CGA:  25    -0.379205203546E+03   -0.47117E-04   -0.47118E-04  9360   0.257E-03-0.227E-06
CGA:  26    -0.379205229845E+03   -0.26300E-04   -0.26296E-04  9360   0.173E-03 0.494E-06
CGA:  27    -0.379205249128E+03   -0.19282E-04   -0.19288E-04  9360   0.115E-03-0.391E-06
CGA:  28    -0.379205260268E+03   -0.11140E-04   -0.11140E-04  9360   0.581E-04 0.509E-07
CGA:  29    -0.379205266349E+03   -0.60812E-05   -0.60867E-05  9360   0.432E-04-0.778E-06
   6 F= -.37920527E+03 E0= -.37919719E+03  d E =-.534087E+00  mag=    58.0000
       N       E                     dE             d eps       ncg     rms          ort
SDA:   1    -0.349373400198E+03    0.29832E+02    0.00000E+00  9360   0.100E+03 0.000E+00
CGA:   2    -0.362920464557E+03   -0.13547E+02   -0.12661E+02  9360   0.732E+02 0.236E+02
CGA:   3    -0.372632115611E+03   -0.97117E+01   -0.96228E+01  9360   0.405E+02 0.673E+01
CGA:   4    -0.375549707497E+03   -0.29176E+01   -0.27969E+01  9360   0.393E+02-0.201E+01
CGA:   5    -0.376601476262E+03   -0.10518E+01   -0.13492E+01  9360   0.496E+02-0.112E+02
CGA:   6    -0.377441930367E+03   -0.84045E+00   -0.10217E+01  9360   0.293E+02-0.112E+02
CGA:   7    -0.377806801274E+03   -0.36487E+00   -0.61720E+00  9360   0.351E+02-0.777E+01
CGA:   8    -0.378130276360E+03   -0.32348E+00   -0.44490E+00  9360   0.341E+02-0.115E+02
CGA:   9    -0.378102274353E+03    0.28002E-01   -0.30060E+00  9360   0.268E+02-0.297E+02
CGA:  10    -0.378814027156E+03   -0.71175E+00   -0.91068E+00  9360   0.644E+01-0.705E+01
CGA:  11    -0.379090532818E+03   -0.27651E+00   -0.28330E+00  9360   0.515E+01-0.148E-01
CGA:  12    -0.379272694599E+03   -0.18216E+00   -0.19923E+00  9360   0.208E+01-0.326E+00
CGA:  13    -0.379436267279E+03   -0.16357E+00   -0.16200E+00  9360   0.915E+00 0.128E+00
CGA:  14    -0.379487884280E+03   -0.51617E-01   -0.53853E-01  9360   0.590E+00 0.117E-01
CGA:  15    -0.379524706302E+03   -0.36822E-01   -0.37724E-01  9360   0.329E+00 0.233E-01
CGA:  16    -0.379546584518E+03   -0.21878E-01   -0.22082E-01  9360   0.155E+00 0.708E-02
CGA:  17    -0.379560270545E+03   -0.13686E-01   -0.13516E-01  9360   0.659E-01 0.948E-02
CGA:  18    -0.379566772843E+03   -0.65023E-02   -0.64614E-02  9360   0.501E-01 0.162E-02
CGA:  19    -0.379571839620E+03   -0.50668E-02   -0.49587E-02  9360   0.394E-01 0.365E-02
CGA:  20    -0.379575442505E+03   -0.36029E-02   -0.36026E-02  9360   0.218E-01 0.251E-04
CGA:  21    -0.379577846260E+03   -0.24038E-02   -0.23474E-02  9360   0.138E-01 0.144E-02
CGA:  22    -0.379579449473E+03   -0.16032E-02   -0.15923E-02  9360   0.939E-02 0.287E-03
CGA:  23    -0.379580514387E+03   -0.10649E-02   -0.10564E-02  9360   0.568E-02 0.226E-03
CGA:  24    -0.379580970648E+03   -0.45626E-03   -0.45649E-03  9360   0.307E-02 0.375E-04
CGA:  25    -0.379581383950E+03   -0.41330E-03   -0.40992E-03  9360   0.204E-02 0.596E-04
CGA:  26    -0.379581594842E+03   -0.21089E-03   -0.21057E-03  9360   0.125E-02 0.138E-04
CGA:  27    -0.379581744667E+03   -0.14983E-03   -0.14930E-03  9360   0.100E-02 0.134E-04
CGA:  28    -0.379581849189E+03   -0.10452E-03   -0.10444E-03  9360   0.669E-03 0.322E-05
CGA:  29    -0.379581927025E+03   -0.77836E-04   -0.77796E-04  9360   0.550E-03 0.153E-05
CGA:  30    -0.379581991885E+03   -0.64859E-04   -0.64943E-04  9360   0.304E-03-0.242E-05
CGA:  31    -0.379582030761E+03   -0.38876E-04   -0.38877E-04  9360   0.283E-03-0.159E-06
CGA:  32    -0.379582059953E+03   -0.29192E-04   -0.29224E-04  9360   0.188E-03-0.262E-05
CGA:  33    -0.379582077469E+03   -0.17516E-04   -0.17517E-04  9360   0.895E-04-0.637E-06
CGA:  34    -0.379582089632E+03   -0.12163E-04   -0.12254E-04  9360   0.821E-04-0.202E-05
CGA:  35    -0.379582097607E+03   -0.79750E-05   -0.79801E-05  9360   0.381E-04-0.113E-05
   7 F= -.37958210E+03 E0= -.37957436E+03  d E =-.376831E+00  mag=    58.0000
       N       E                     dE             d eps       ncg     rms          ort
SDA:   1    -0.347904688484E+03    0.31677E+02    0.00000E+00  9360   0.849E+02 0.000E+00
CGA:   2    -0.365447799652E+03   -0.17543E+02   -0.18661E+02  9360   0.207E+03-0.878E+01
CGA:   3    -0.372241487797E+03   -0.67937E+01   -0.93168E+01  9360   0.508E+02-0.220E+02
CGA:   4    -0.376118249671E+03   -0.38768E+01   -0.38300E+01  9360   0.306E+02-0.116E+01
CGA:   5    -0.378397623410E+03   -0.22794E+01   -0.22293E+01  9360   0.901E+01-0.580E+00
CGA:   6    -0.378890370126E+03   -0.49275E+00   -0.55088E+00  9360   0.884E+01-0.141E+00
CGA:   7    -0.379391986850E+03   -0.50162E+00   -0.50631E+00  9360   0.207E+01-0.133E+00
CGA:   8    -0.379592817863E+03   -0.20083E+00   -0.20291E+00  9360   0.122E+01-0.209E+00
CGA:   9    -0.379696980173E+03   -0.10416E+00   -0.10413E+00  9360   0.481E+00 0.218E-01
CGA:  10    -0.379733847132E+03   -0.36867E-01   -0.36869E-01  9360   0.409E+00-0.388E-03
CGA:  11    -0.379766899000E+03   -0.33052E-01   -0.33253E-01  9360   0.124E+00 0.638E-02
CGA:  12    -0.379780113173E+03   -0.13214E-01   -0.13180E-01  9360   0.770E-01 0.174E-02
CGA:  13    -0.379787137679E+03   -0.70245E-02   -0.70264E-02  9360   0.633E-01 0.296E-03
CGA:  14    -0.379791961568E+03   -0.48239E-02   -0.48414E-02  9360   0.198E-01 0.333E-03
CGA:  15    -0.379795128222E+03   -0.31667E-02   -0.31350E-02  9360   0.181E-01 0.440E-03
CGA:  16    -0.379796457961E+03   -0.13297E-02   -0.13358E-02  9360   0.119E-01 0.538E-04
CGA:  17    -0.379797772984E+03   -0.13150E-02   -0.13138E-02  9360   0.531E-02 0.571E-04
CGA:  18    -0.379798470380E+03   -0.69740E-03   -0.69673E-03  9360   0.505E-02 0.154E-04
CGA:  19    -0.379798891059E+03   -0.42068E-03   -0.42119E-03  9360   0.336E-02 0.128E-04
CGA:  20    -0.379799194912E+03   -0.30385E-03   -0.30400E-03  9360   0.151E-02 0.158E-04
CGA:  21    -0.379799436835E+03   -0.24192E-03   -0.24153E-03  9360   0.164E-02 0.649E-05
CGA:  22    -0.379799555894E+03   -0.11906E-03   -0.11930E-03  9360   0.811E-03 0.366E-05
CGA:  23    -0.379799658308E+03   -0.10241E-03   -0.10215E-03  9360   0.788E-03 0.833E-05
CGA:  24    -0.379799741070E+03   -0.82762E-04   -0.82767E-04  9360   0.467E-03 0.805E-07
CGA:  25    -0.379799800130E+03   -0.59060E-04   -0.59111E-04  9360   0.393E-03-0.214E-05
CGA:  26    -0.379799837493E+03   -0.37363E-04   -0.37357E-04  9360   0.324E-03-0.114E-05
CGA:  27    -0.379799870423E+03   -0.32931E-04   -0.32936E-04  9360   0.185E-03-0.308E-05
CGA:  28    -0.379799894884E+03   -0.24460E-04   -0.24574E-04  9360   0.115E-03-0.344E-05
CGA:  29    -0.379799906609E+03   -0.11725E-04   -0.11727E-04  9360   0.126E-03-0.125E-05
CGA:  30    -0.379799917849E+03   -0.11240E-04   -0.11211E-04  9360   0.445E-04-0.229E-05
CGA:  31    -0.379799924182E+03   -0.63325E-05   -0.64086E-05  9360   0.415E-04-0.170E-05
   8 F= -.37979992E+03 E0= -.37979324E+03  d E =-.217827E+00  mag=    58.0000
       N       E                     dE             d eps       ncg     rms          ort
SDA:   1    -0.338746296271E+03    0.41054E+02    0.00000E+00  9360   0.127E+03 0.000E+00
CGA:   2    -0.364854813443E+03   -0.26109E+02   -0.24412E+02  9360   0.585E+02 0.155E+02
CGA:   3    -0.371834103511E+03   -0.69793E+01   -0.67652E+01  9360   0.701E+02-0.197E+02
CGA:   4    -0.376745575928E+03   -0.49115E+01   -0.48391E+01  9360   0.275E+02-0.999E+01
CGA:   5    -0.377654234382E+03   -0.90866E+00   -0.10341E+01  9360   0.162E+02-0.470E+01
CGA:   6    -0.378634976611E+03   -0.98074E+00   -0.90904E+00  9360   0.756E+01 0.789E+00
CGA:   7    -0.379030532060E+03   -0.39556E+00   -0.40717E+00  9360   0.515E+01-0.268E+00
CGA:   8    -0.379266671989E+03   -0.23614E+00   -0.25670E+00  9360   0.341E+01-0.243E+00
CGA:   9    -0.379528810710E+03   -0.26214E+00   -0.25672E+00  9360   0.181E+01-0.792E-01
CGA:  10    -0.379622347358E+03   -0.93537E-01   -0.74869E-01  9360   0.106E+01 0.273E+00
CGA:  11    -0.379687292421E+03   -0.64945E-01   -0.69575E-01  9360   0.970E+00-0.198E-01
CGA:  12    -0.379748696896E+03   -0.61404E-01   -0.64026E-01  9360   0.842E+00 0.176E-01
CGA:  13    -0.379778184701E+03   -0.29488E-01   -0.30911E-01  9360   0.254E+00-0.388E-01
CGA:  14    -0.379805690842E+03   -0.27506E-01   -0.27247E-01  9360   0.294E+00 0.772E-02
CGA:  15    -0.379821614752E+03   -0.15924E-01   -0.16565E-01  9360   0.129E+00-0.200E-02
CGA:  16    -0.379834519845E+03   -0.12905E-01   -0.12886E-01  9360   0.529E-01 0.912E-03
CGA:  17    -0.379841244854E+03   -0.67250E-02   -0.66527E-02  9360   0.561E-01 0.156E-02
CGA:  18    -0.379845917183E+03   -0.46723E-02   -0.46933E-02  9360   0.276E-01 0.969E-03
CGA:  19    -0.379848608527E+03   -0.26913E-02   -0.26881E-02  9360   0.165E-01 0.302E-03
CGA:  20    -0.379850493252E+03   -0.18847E-02   -0.18799E-02  9360   0.129E-01 0.150E-03
CGA:  21    -0.379852069809E+03   -0.15766E-02   -0.15763E-02  9360   0.497E-02 0.458E-05
CGA:  22    -0.379852935399E+03   -0.86559E-03   -0.86432E-03  9360   0.686E-02 0.149E-04
CGA:  23    -0.379853433367E+03   -0.49797E-03   -0.50017E-03  9360   0.294E-02 0.173E-04
CGA:  24    -0.379853964977E+03   -0.53161E-03   -0.53102E-03  9360   0.181E-02 0.667E-05
CGA:  25    -0.379854208965E+03   -0.24399E-03   -0.24374E-03  9360   0.185E-02 0.600E-05
CGA:  26    -0.379854401394E+03   -0.19243E-03   -0.19240E-03  9360   0.103E-02 0.733E-05
CGA:  27    -0.379854510439E+03   -0.10904E-03   -0.10906E-03  9360   0.755E-03-0.414E-05
CGA:  28    -0.379854587612E+03   -0.77173E-04   -0.77175E-04  9360   0.460E-03-0.284E-05
CGA:  29    -0.379854642673E+03   -0.55062E-04   -0.55164E-04  9360   0.226E-03-0.505E-05
CGA:  30    -0.379854681249E+03   -0.38576E-04   -0.38826E-04  9360   0.173E-03-0.354E-05
CGA:  31    -0.379854693256E+03   -0.12007E-04   -0.12004E-04  9360   0.107E-03 0.897E-07
SDA:  32    -0.379854711777E+03   -0.18522E-04   -0.18515E-04  9360   0.509E-04 0.109E-06
CGA:  33    -0.379854717327E+03   -0.55490E-05   -0.55487E-05  9360   0.440E-04 0.262E-06
   9 F= -.37985472E+03 E0= -.37984879E+03  d E =-.547931E-01  mag=    58.0000
       N       E                     dE             d eps       ncg     rms          ort
SDA:   1    -0.370400946580E+03    0.94538E+01    0.00000E+00  9360   0.299E+02 0.000E+00
CGA:   2    -0.377007410895E+03   -0.66065E+01   -0.66003E+01  9360   0.145E+02 0.164E+00
CGA:   3    -0.378401813134E+03   -0.13944E+01   -0.14052E+01  9360   0.101E+02 0.254E+00
CGA:   4    -0.379496801598E+03   -0.10950E+01   -0.10961E+01  9360   0.487E+01 0.468E-01
CGA:   5    -0.379744462610E+03   -0.24766E+00   -0.33218E+00  9360   0.195E+01-0.259E+00
CGA:   6    -0.379909615104E+03   -0.16515E+00   -0.16500E+00  9360   0.107E+01-0.766E-02
CGA:   7    -0.379959577009E+03   -0.49962E-01   -0.50119E-01  9360   0.490E+00-0.137E-01
CGA:   8    -0.379997325553E+03   -0.37749E-01   -0.37999E-01  9360   0.346E+00 0.710E-03
CGA:   9    -0.380019266298E+03   -0.21941E-01   -0.22165E-01  9360   0.188E+00-0.125E-02
CGA:  10    -0.380031989350E+03   -0.12723E-01   -0.12502E-01  9360   0.742E-01 0.425E-03
CGA:  11    -0.380039910229E+03   -0.79209E-02   -0.79220E-02  9360   0.855E-01-0.135E-03
CGA:  12    -0.380046049124E+03   -0.61389E-02   -0.62038E-02  9360   0.417E-01 0.252E-03
CGA:  13    -0.380049713072E+03   -0.36639E-02   -0.36631E-02  9360   0.257E-01-0.205E-05
CGA:  14    -0.380052716798E+03   -0.30037E-02   -0.30025E-02  9360   0.282E-01 0.522E-04
CGA:  15    -0.380054808981E+03   -0.20922E-02   -0.21096E-02  9360   0.139E-01 0.109E-03
CGA:  16    -0.380056303590E+03   -0.14946E-02   -0.14951E-02  9360   0.955E-02-0.393E-04
CGA:  17    -0.380057337990E+03   -0.10344E-02   -0.10343E-02  9360   0.967E-02 0.953E-05
CGA:  18    -0.380058087224E+03   -0.74923E-03   -0.75297E-03  9360   0.438E-02 0.411E-04
CGA:  19    -0.380058529044E+03   -0.44182E-03   -0.44181E-03  9360   0.282E-02 0.884E-05
CGA:  20    -0.380058830076E+03   -0.30103E-03   -0.30095E-03  9360   0.275E-02 0.675E-05
CGA:  21    -0.380059046835E+03   -0.21676E-03   -0.21727E-03  9360   0.122E-02 0.923E-05
CGA:  22    -0.380059165092E+03   -0.11826E-03   -0.11826E-03  9360   0.746E-03 0.195E-05
CGA:  23    -0.380059251010E+03   -0.85918E-04   -0.85935E-04  9360   0.878E-03-0.143E-05
CGA:  24    -0.380059319921E+03   -0.68912E-04   -0.68953E-04  9360   0.308E-03 0.229E-06
CGA:  25    -0.380059350930E+03   -0.31009E-04   -0.31010E-04  9360   0.237E-03-0.791E-06
CGA:  26    -0.380059377644E+03   -0.26714E-04   -0.26760E-04  9360   0.254E-03-0.308E-05
CGA:  27    -0.380059396921E+03   -0.19277E-04   -0.19258E-04  9360   0.899E-04-0.121E-05
CGA:  28    -0.380059405964E+03   -0.90428E-05   -0.90443E-05  9360   0.706E-04-0.687E-06
  10 F= -.38005941E+03 E0= -.38005327E+03  d E =-.204689E+00  mag=    58.0000
       N       E                     dE             d eps       ncg     rms          ort
SDA:   1    -0.379755628226E+03    0.30377E+00    0.00000E+00  9360   0.920E+00 0.000E+00
CGA:   2    -0.379915593331E+03   -0.15997E+00   -0.15841E+00  9360   0.130E+01 0.218E-01
CGA:   3    -0.380007107179E+03   -0.91514E-01   -0.90087E-01  9360   0.363E+00-0.659E-02
CGA:   4    -0.380059336852E+03   -0.52230E-01   -0.52337E-01  9360   0.109E+00-0.192E-02
CGA:   5    -0.380069038850E+03   -0.97020E-02   -0.97257E-02  9360   0.620E-01 0.617E-03
CGA:   6    -0.380074359167E+03   -0.53203E-02   -0.53132E-02  9360   0.210E-01-0.134E-03
CGA:   7    -0.380076139082E+03   -0.17799E-02   -0.17776E-02  9360   0.842E-02-0.367E-04
CGA:   8    -0.380077114857E+03   -0.97577E-03   -0.97590E-03  9360   0.464E-02-0.644E-05
CGA:   9    -0.380077482211E+03   -0.36735E-03   -0.36805E-03  9360   0.147E-02 0.925E-05
CGA:  10    -0.380077669768E+03   -0.18756E-03   -0.18755E-03  9360   0.130E-02 0.126E-06
CGA:  11    -0.380077766525E+03   -0.96757E-04   -0.96970E-04  9360   0.338E-03 0.310E-05
CGA:  12    -0.380077825893E+03   -0.59369E-04   -0.59453E-04  9360   0.310E-03-0.105E-05
CGA:  13    -0.380077853473E+03   -0.27580E-04   -0.27605E-04  9360   0.180E-03 0.136E-05
CGA:  14    -0.380077873081E+03   -0.19607E-04   -0.19608E-04  9360   0.110E-03-0.118E-06
CGA:  15    -0.380077887899E+03   -0.14818E-04   -0.14793E-04  9360   0.810E-04 0.778E-06
CGA:  16    -0.380077896059E+03   -0.81597E-05   -0.81584E-05  9360   0.439E-04-0.273E-06
  11 F= -.38007790E+03 E0= -.38007178E+03  d E =-.184901E-01  mag=    58.0000
       N       E                     dE             d eps       ncg     rms          ort
SDA:   1    -0.356962632514E+03    0.23115E+02    0.00000E+00  9360   0.605E+02 0.000E+00
CGA:   2    -0.373189575366E+03   -0.16227E+02   -0.16081E+02  9360   0.354E+02 0.112E+01
CGA:   3    -0.377339709917E+03   -0.41501E+01   -0.41438E+01  9360   0.189E+02 0.182E+01
CGA:   4    -0.379139572423E+03   -0.17999E+01   -0.15834E+01  9360   0.719E+01-0.368E+01
CGA:   5    -0.379824682059E+03   -0.68511E+00   -0.69250E+00  9360   0.271E+01-0.514E+00
CGA:   6    -0.379998384695E+03   -0.17370E+00   -0.19285E+00  9360   0.129E+01 0.265E-01
CGA:   7    -0.380103075822E+03   -0.10469E+00   -0.10419E+00  9360   0.801E+00-0.903E-02
CGA:   8    -0.380154570885E+03   -0.51495E-01   -0.53515E-01  9360   0.229E+00-0.675E-02
CGA:   9    -0.380183018077E+03   -0.28447E-01   -0.28603E-01  9360   0.145E+00-0.500E-02
CGA:  10    -0.380194486502E+03   -0.11468E-01   -0.11626E-01  9360   0.753E-01 0.116E-02
CGA:  11    -0.380199851365E+03   -0.53649E-02   -0.53791E-02  9360   0.442E-01-0.452E-04
CGA:  12    -0.380205307761E+03   -0.54564E-02   -0.54363E-02  9360   0.202E-01 0.716E-03
CGA:  13    -0.380207494168E+03   -0.21864E-02   -0.21866E-02  9360   0.155E-01-0.930E-04
CGA:  14    -0.380209176388E+03   -0.16822E-02   -0.16814E-02  9360   0.126E-01 0.121E-03
CGA:  15    -0.380210226915E+03   -0.10505E-02   -0.10621E-02  9360   0.483E-02 0.127E-03
CGA:  16    -0.380211022427E+03   -0.79551E-03   -0.79104E-03  9360   0.407E-02 0.684E-04
CGA:  17    -0.380211423085E+03   -0.40066E-03   -0.40137E-03  9360   0.185E-02 0.295E-04
CGA:  18    -0.380211606668E+03   -0.18358E-03   -0.18372E-03  9360   0.160E-02 0.998E-05
CGA:  19    -0.380211782980E+03   -0.17631E-03   -0.17632E-03  9360   0.662E-03-0.830E-06
CGA:  20    -0.380211865338E+03   -0.82358E-04   -0.82238E-04  9360   0.487E-03 0.546E-05
CGA:  21    -0.380211941787E+03   -0.76449E-04   -0.76480E-04  9360   0.455E-03-0.256E-06
CGA:  22    -0.380211981927E+03   -0.40140E-04   -0.40187E-04  9360   0.276E-03 0.175E-05
CGA:  23    -0.380212018708E+03   -0.36780E-04   -0.36810E-04  9360   0.246E-03-0.124E-05
CGA:  24    -0.380212051868E+03   -0.33161E-04   -0.33174E-04  9360   0.125E-03-0.480E-06
CGA:  25    -0.380212067716E+03   -0.15848E-04   -0.15877E-04  9360   0.123E-03-0.183E-05
CGA:  26    -0.380212080272E+03   -0.12556E-04   -0.12547E-04  9360   0.776E-04-0.918E-06
CGA:  27    -0.380212087912E+03   -0.76393E-05   -0.76187E-05  9360   0.374E-04-0.155E-05
  12 F= -.38021209E+03 E0= -.38020613E+03  d E =-.134192E+00  mag=    58.0000
       N       E                     dE             d eps       ncg     rms          ort
SDA:   1    -0.350228175298E+03    0.29984E+02    0.00000E+00  9360   0.877E+02 0.000E+00
CGA:   2    -0.367978832105E+03   -0.17751E+02   -0.17061E+02  9360   0.526E+02 0.574E+01
CGA:   3    -0.375398987509E+03   -0.74202E+01   -0.74841E+01  9360   0.351E+02-0.418E+01
CGA:   4    -0.378380786542E+03   -0.29818E+01   -0.28090E+01  9360   0.151E+02-0.837E+01
CGA:   5    -0.379358764618E+03   -0.97798E+00   -0.78879E+00  9360   0.527E+01 0.592E+00
CGA:   6    -0.379821056112E+03   -0.46229E+00   -0.48545E+00  9360   0.224E+01 0.210E+00
CGA:   7    -0.380022772731E+03   -0.20172E+00   -0.19260E+00  9360   0.111E+01-0.530E-01
CGA:   8    -0.380120264018E+03   -0.97491E-01   -0.98129E-01  9360   0.785E+00 0.977E-02
CGA:   9    -0.380157522227E+03   -0.37258E-01   -0.40529E-01  9360   0.388E+00-0.380E-01
CGA:  10    -0.380190109121E+03   -0.32587E-01   -0.32462E-01  9360   0.145E+00-0.201E-02
CGA:  11    -0.380204103901E+03   -0.13995E-01   -0.14071E-01  9360   0.105E+00 0.391E-02
CGA:  12    -0.380212327122E+03   -0.82232E-02   -0.83343E-02  9360   0.650E-01 0.515E-03
CGA:  13    -0.380218017007E+03   -0.56899E-02   -0.57650E-02  9360   0.255E-01 0.156E-02
CGA:  14    -0.380221145412E+03   -0.31284E-02   -0.31125E-02  9360   0.245E-01 0.643E-03
CGA:  15    -0.380223287674E+03   -0.21423E-02   -0.21522E-02  9360   0.137E-01 0.166E-03
CGA:  16    -0.380224442427E+03   -0.11548E-02   -0.11539E-02  9360   0.689E-02-0.769E-05
CGA:  17    -0.380225494256E+03   -0.10518E-02   -0.10493E-02  9360   0.542E-02 0.451E-04
CGA:  18    -0.380225872381E+03   -0.37813E-03   -0.37958E-03  9360   0.258E-02 0.202E-05
CGA:  19    -0.380226201672E+03   -0.32929E-03   -0.32848E-03  9360   0.178E-02 0.261E-04
CGA:  20    -0.380226385012E+03   -0.18334E-03   -0.18338E-03  9360   0.102E-02 0.925E-05
CGA:  21    -0.380226477745E+03   -0.92733E-04   -0.92836E-04  9360   0.759E-03 0.500E-05
CGA:  22    -0.380226568853E+03   -0.91108E-04   -0.91119E-04  9360   0.465E-03 0.142E-06
CGA:  23    -0.380226623217E+03   -0.54364E-04   -0.54318E-04  9360   0.357E-03 0.296E-05
CGA:  24    -0.380226659732E+03   -0.36515E-04   -0.36512E-04  9360   0.305E-03-0.106E-05
CGA:  25    -0.380226695253E+03   -0.35521E-04   -0.35519E-04  9360   0.162E-03 0.111E-06
CGA:  26    -0.380226715341E+03   -0.20089E-04   -0.20125E-04  9360   0.154E-03-0.195E-05
CGA:  27    -0.380226729123E+03   -0.13781E-04   -0.13772E-04  9360   0.894E-04-0.630E-06
CGA:  28    -0.380226740195E+03   -0.11073E-04   -0.11109E-04  9360   0.606E-04-0.188E-05
CGA:  29    -0.380226746427E+03   -0.62318E-05   -0.62308E-05  9360   0.424E-04-0.882E-06
  13 F= -.38022675E+03 E0= -.38022091E+03  d E =-.146585E-01  mag=    58.0000
       N       E                     dE             d eps       ncg     rms          ort
SDA:   1    -0.374838374673E+03    0.53884E+01    0.00000E+00  9360   0.184E+02 0.000E+00
CGA:   2    -0.377861469375E+03   -0.30231E+01   -0.30113E+01  9360   0.993E+01 0.194E+00
CGA:   3    -0.379096395336E+03   -0.12349E+01   -0.12172E+01  9360   0.806E+01 0.927E+00
CGA:   4    -0.379832246714E+03   -0.73585E+00   -0.70494E+00  9360   0.303E+01-0.439E+00
CGA:   5    -0.380125133737E+03   -0.29289E+00   -0.28970E+00  9360   0.133E+01-0.192E+00
CGA:   6    -0.380239917459E+03   -0.11478E+00   -0.11659E+00  9360   0.422E+00 0.437E-01
CGA:   7    -0.380277729707E+03   -0.37812E-01   -0.37397E-01  9360   0.284E+00-0.531E-02
CGA:   8    -0.380301571874E+03   -0.23842E-01   -0.23854E-01  9360   0.917E-01 0.302E-04
CGA:   9    -0.380311273751E+03   -0.97019E-02   -0.97046E-02  9360   0.478E-01-0.153E-02
CGA:  10    -0.380316459259E+03   -0.51855E-02   -0.51826E-02  9360   0.308E-01 0.322E-03
CGA:  11    -0.380318602485E+03   -0.21432E-02   -0.21345E-02  9360   0.121E-01 0.125E-04
CGA:  12    -0.380320317119E+03   -0.17146E-02   -0.17074E-02  9360   0.843E-02 0.149E-03
CGA:  13    -0.380321078181E+03   -0.76106E-03   -0.75970E-03  9360   0.378E-02-0.257E-04
CGA:  14    -0.380321481125E+03   -0.40294E-03   -0.40290E-03  9360   0.357E-02 0.126E-04
CGA:  15    -0.380321850602E+03   -0.36948E-03   -0.36951E-03  9360   0.115E-02 0.130E-04
CGA:  16    -0.380322005510E+03   -0.15491E-03   -0.15468E-03  9360   0.126E-02 0.690E-05
CGA:  17    -0.380322122104E+03   -0.11659E-03   -0.11663E-03  9360   0.587E-03 0.151E-05
CGA:  18    -0.380322176812E+03   -0.54707E-04   -0.54757E-04  9360   0.325E-03 0.240E-05
CGA:  19    -0.380322222477E+03   -0.45666E-04   -0.45703E-04  9360   0.226E-03-0.912E-06
CGA:  20    -0.380322242276E+03   -0.19799E-04   -0.19821E-04  9360   0.141E-03 0.904E-06
CGA:  21    -0.380322257836E+03   -0.15559E-04   -0.15561E-04  9360   0.957E-04-0.309E-06
CGA:  22    -0.380322271212E+03   -0.13377E-04   -0.13349E-04  9360   0.687E-04 0.786E-06
CGA:  23    -0.380322278209E+03   -0.69964E-05   -0.69945E-05  9360   0.536E-04-0.343E-06
  14 F= -.38032228E+03 E0= -.38031643E+03  d E =-.955318E-01  mag=    58.0000
       N       E                     dE             d eps       ncg     rms          ort
SDA:   1    -0.380110678265E+03    0.21159E+00    0.00000E+00  9360   0.653E+00 0.000E+00
CGA:   2    -0.380223714462E+03   -0.11304E+00   -0.11259E+00  9360   0.803E+00 0.666E-02
CGA:   3    -0.380276766960E+03   -0.53052E-01   -0.52960E-01  9360   0.306E+00-0.444E-02
CGA:   4    -0.380316099899E+03   -0.39333E-01   -0.39559E-01  9360   0.126E+00-0.697E-02
CGA:   5    -0.380325418587E+03   -0.93187E-02   -0.95188E-02  9360   0.443E-01 0.502E-03
CGA:   6    -0.380329968439E+03   -0.45499E-02   -0.45479E-02  9360   0.243E-01-0.162E-03
CGA:   7    -0.380331537974E+03   -0.15695E-02   -0.15719E-02  9360   0.725E-02-0.525E-05
CGA:   8    -0.380332525714E+03   -0.98774E-03   -0.98809E-03  9360   0.310E-02-0.837E-05
CGA:   9    -0.380332815060E+03   -0.28935E-03   -0.28936E-03  9360   0.191E-02 0.246E-05
CGA:  10    -0.380332969075E+03   -0.15401E-03   -0.15394E-03  9360   0.872E-03-0.145E-05
CGA:  11    -0.380333067083E+03   -0.98008E-04   -0.97996E-04  9360   0.368E-03 0.120E-05
CGA:  12    -0.380333108768E+03   -0.41685E-04   -0.41697E-04  9360   0.272E-03-0.101E-05
CGA:  13    -0.380333133216E+03   -0.24448E-04   -0.24464E-04  9360   0.154E-03 0.916E-06
CGA:  14    -0.380333149761E+03   -0.16545E-04   -0.16547E-04  9360   0.959E-04-0.601E-06
CGA:  15    -0.380333160682E+03   -0.10922E-04   -0.10919E-04  9360   0.486E-04 0.256E-06
CGA:  16    -0.380333166671E+03   -0.59884E-05   -0.59947E-05  9360   0.539E-04-0.340E-06
  15 F= -.38033317E+03 E0= -.38032733E+03  d E =-.108885E-01  mag=    58.0000
       N       E                     dE             d eps       ncg     rms          ort
SDA:   1    -0.379252469363E+03    0.10807E+01    0.00000E+00  9360   0.294E+01 0.000E+00
CGA:   2    -0.379872448042E+03   -0.61998E+00   -0.62167E+00  9360   0.445E+01 0.428E-03
CGA:   3    -0.380122026835E+03   -0.24958E+00   -0.26622E+00  9360   0.135E+01-0.232E+00
CGA:   4    -0.380292281634E+03   -0.17025E+00   -0.17118E+00  9360   0.384E+00-0.250E-01
CGA:   5    -0.380323007923E+03   -0.30726E-01   -0.30918E-01  9360   0.232E+00 0.792E-03
CGA:   6    -0.380341494113E+03   -0.18486E-01   -0.18444E-01  9360   0.638E-01-0.302E-03
CGA:   7    -0.380348216872E+03   -0.67228E-02   -0.67230E-02  9360   0.304E-01 0.136E-03
CGA:   8    -0.380350796413E+03   -0.25795E-02   -0.25728E-02  9360   0.182E-01-0.777E-04
CGA:   9    -0.380352400466E+03   -0.16041E-02   -0.16055E-02  9360   0.486E-02 0.312E-04
CGA:  10    -0.380352999783E+03   -0.59932E-03   -0.59914E-03  9360   0.427E-02 0.491E-05
CGA:  11    -0.380353305776E+03   -0.30599E-03   -0.30640E-03  9360   0.124E-02 0.290E-05
CGA:  12    -0.380353481573E+03   -0.17580E-03   -0.17594E-03  9360   0.107E-02-0.289E-05
CGA:  13    -0.380353572145E+03   -0.90571E-04   -0.90706E-04  9360   0.563E-03 0.295E-05
CGA:  14    -0.380353639746E+03   -0.67601E-04   -0.67602E-04  9360   0.389E-03-0.430E-06
CGA:  15    -0.380353679424E+03   -0.39678E-04   -0.39683E-04  9360   0.263E-03 0.145E-05
CGA:  16    -0.380353710315E+03   -0.30892E-04   -0.30895E-04  9360   0.174E-03-0.191E-06
CGA:  17    -0.380353725772E+03   -0.15456E-04   -0.15478E-04  9360   0.988E-04 0.111E-05
CGA:  18    -0.380353737884E+03   -0.12112E-04   -0.12109E-04  9360   0.616E-04 0.258E-06
CGA:  19    -0.380353743883E+03   -0.59995E-05   -0.60077E-05  9360   0.383E-04 0.934E-06
  16 F= -.38035374E+03 E0= -.38034790E+03  d E =-.205772E-01  mag=    58.0000
       N       E                     dE             d eps       ncg     rms          ort
SDA:   1    -0.377701413071E+03    0.26523E+01    0.00000E+00  9360   0.658E+01 0.000E+00
CGA:   2    -0.379709510414E+03   -0.20081E+01   -0.20089E+01  9360   0.425E+01-0.128E-02
CGA:   3    -0.380022435920E+03   -0.31293E+00   -0.32610E+00  9360   0.294E+01-0.829E-01
CGA:   4    -0.380279215445E+03   -0.25678E+00   -0.25192E+00  9360   0.585E+00-0.475E-01
CGA:   5    -0.380343906059E+03   -0.64691E-01   -0.64667E-01  9360   0.254E+00 0.157E-01
CGA:   6    -0.380364546263E+03   -0.20640E-01   -0.19974E-01  9360   0.128E+00-0.921E-03
CGA:   7    -0.380375702564E+03   -0.11156E-01   -0.11195E-01  9360   0.500E-01 0.450E-03
CGA:   8    -0.380380864690E+03   -0.51621E-02   -0.51536E-02  9360   0.220E-01-0.631E-03
CGA:   9    -0.380382903448E+03   -0.20388E-02   -0.20385E-02  9360   0.103E-01-0.439E-05
CGA:  10    -0.380383748660E+03   -0.84521E-03   -0.84259E-03  9360   0.574E-02-0.228E-04
CGA:  11    -0.380384298908E+03   -0.55025E-03   -0.55061E-03  9360   0.235E-02 0.150E-04
CGA:  12    -0.380384640872E+03   -0.34196E-03   -0.34221E-03  9360   0.173E-02-0.449E-05
CGA:  13    -0.380384773003E+03   -0.13213E-03   -0.13236E-03  9360   0.114E-02 0.375E-05
CGA:  14    -0.380384945931E+03   -0.17293E-03   -0.17279E-03  9360   0.587E-03 0.268E-05
CGA:  15    -0.380385015111E+03   -0.69180E-04   -0.69155E-04  9360   0.581E-03 0.274E-05
CGA:  16    -0.380385070689E+03   -0.55578E-04   -0.55577E-04  9360   0.333E-03 0.278E-06
CGA:  17    -0.380385105677E+03   -0.34988E-04   -0.34995E-04  9360   0.172E-03 0.166E-05
CGA:  18    -0.380385125708E+03   -0.20031E-04   -0.20030E-04  9360   0.121E-03 0.236E-06
CGA:  19    -0.380385137738E+03   -0.12030E-04   -0.12043E-04  9360   0.785E-04 0.125E-05
CGA:  20    -0.380385144872E+03   -0.71334E-05   -0.71336E-05  9360   0.439E-04 0.468E-07
  17 F= -.38038514E+03 E0= -.38037926E+03  d E =-.314010E-01  mag=    58.0000
       N       E                     dE             d eps       ncg     rms          ort
SDA:   1    -0.359413909541E+03    0.20971E+02    0.00000E+00  9360   0.591E+02 0.000E+00
CGA:   2    -0.372186436919E+03   -0.12773E+02   -0.12028E+02  9360   0.356E+02 0.530E+01
CGA:   3    -0.377242121925E+03   -0.50557E+01   -0.49961E+01  9360   0.182E+02 0.113E+01
CGA:   4    -0.379129313413E+03   -0.18872E+01   -0.17080E+01  9360   0.103E+02-0.419E+01
CGA:   5    -0.379931199896E+03   -0.80189E+00   -0.76314E+00  9360   0.267E+01-0.713E+00
CGA:   6    -0.380180425986E+03   -0.24923E+00   -0.24908E+00  9360   0.105E+01-0.522E-02
CGA:   7    -0.380292524194E+03   -0.11210E+00   -0.11248E+00  9360   0.530E+00 0.346E-01
CGA:   8    -0.380328491203E+03   -0.35967E-01   -0.35054E-01  9360   0.295E+00 0.351E-02
CGA:   9    -0.380355896122E+03   -0.27405E-01   -0.27624E-01  9360   0.173E+00 0.412E-02
CGA:  10    -0.380370003834E+03   -0.14108E-01   -0.13898E-01  9360   0.495E-01-0.101E-02
CGA:  11    -0.380378181507E+03   -0.81777E-02   -0.81361E-02  9360   0.276E-01 0.620E-03
CGA:  12    -0.380381563105E+03   -0.33816E-02   -0.33794E-02  9360   0.171E-01 0.131E-03
CGA:  13    -0.380383500934E+03   -0.19378E-02   -0.19374E-02  9360   0.122E-01 0.138E-03
CGA:  14    -0.380384611498E+03   -0.11106E-02   -0.11152E-02  9360   0.939E-02 0.673E-04
CGA:  15    -0.380385421817E+03   -0.81032E-03   -0.81661E-03  9360   0.380E-02 0.715E-04
CGA:  16    -0.380385964350E+03   -0.54253E-03   -0.54076E-03  9360   0.226E-02 0.414E-04
CGA:  17    -0.380386279230E+03   -0.31488E-03   -0.31417E-03  9360   0.118E-02 0.197E-04
CGA:  18    -0.380386395462E+03   -0.11623E-03   -0.11626E-03  9360   0.838E-03 0.600E-06
CGA:  19    -0.380386479300E+03   -0.83838E-04   -0.83885E-04  9360   0.650E-03 0.274E-05
CGA:  20    -0.380386535714E+03   -0.56414E-04   -0.56386E-04  9360   0.232E-03-0.431E-07
CGA:  21    -0.380386580794E+03   -0.45080E-04   -0.44905E-04  9360   0.197E-03 0.207E-05
CGA:  22    -0.380386605162E+03   -0.24368E-04   -0.24370E-04  9360   0.149E-03-0.584E-07
CGA:  23    -0.380386620708E+03   -0.15547E-04   -0.15552E-04  9360   0.125E-03 0.360E-06
CGA:  24    -0.380386632954E+03   -0.12245E-04   -0.12231E-04  9360   0.811E-04-0.887E-06
CGA:  25    -0.380386644152E+03   -0.11199E-04   -0.11213E-04  9360   0.413E-04-0.576E-06
CGA:  26    -0.380386650375E+03   -0.62228E-05   -0.62647E-05  9360   0.368E-04-0.107E-05
  18 F= -.38038665E+03 E0= -.38038061E+03  d E =-.150550E-02  mag=    58.0000
       N       E                     dE             d eps       ncg     rms          ort
SDA:   1    -0.378609732322E+03    0.17769E+01    0.00000E+00  9360   0.934E+01 0.000E+00
CGA:   2    -0.379172787312E+03   -0.56305E+00   -0.66166E+00  9360   0.739E+01-0.101E+01
CGA:   3    -0.379908677204E+03   -0.73589E+00   -0.73564E+00  9360   0.230E+01-0.804E-01
CGA:   4    -0.380246754904E+03   -0.33808E+00   -0.33389E+00  9360   0.138E+01 0.962E-01
CGA:   5    -0.380350916143E+03   -0.10416E+00   -0.99837E-01  9360   0.687E+00-0.613E-02
CGA:   6    -0.380394138341E+03   -0.43222E-01   -0.47149E-01  9360   0.339E+00-0.120E-01
CGA:   7    -0.380423390357E+03   -0.29252E-01   -0.29602E-01  9360   0.123E+00 0.389E-02
CGA:   8    -0.380430114869E+03   -0.67245E-02   -0.66688E-02  9360   0.746E-01 0.289E-03
CGA:   9    -0.380436885951E+03   -0.67711E-02   -0.67575E-02  9360   0.344E-01-0.280E-03
CGA:  10    -0.380439021480E+03   -0.21355E-02   -0.21512E-02  9360   0.215E-01-0.673E-04
CGA:  11    -0.380440525575E+03   -0.15041E-02   -0.14960E-02  9360   0.961E-02-0.476E-05
CGA:  12    -0.380441503949E+03   -0.97837E-03   -0.97837E-03  9360   0.621E-02-0.560E-05
CGA:  13    -0.380441895160E+03   -0.39121E-03   -0.39252E-03  9360   0.379E-02 0.229E-05
CGA:  14    -0.380442258399E+03   -0.36324E-03   -0.36319E-03  9360   0.154E-02-0.446E-05
CGA:  15    -0.380442414853E+03   -0.15645E-03   -0.15645E-03  9360   0.168E-02 0.287E-07
CGA:  16    -0.380442535905E+03   -0.12105E-03   -0.12130E-03  9360   0.778E-03 0.165E-05
CGA:  17    -0.380442607663E+03   -0.71758E-04   -0.71781E-04  9360   0.372E-03 0.145E-05
CGA:  18    -0.380442646686E+03   -0.39023E-04   -0.39023E-04  9360   0.489E-03-0.280E-06
CGA:  19    -0.380442682578E+03   -0.35892E-04   -0.35947E-04  9360   0.142E-03 0.146E-05
CGA:  20    -0.380442696590E+03   -0.14011E-04   -0.14009E-04  9360   0.113E-03 0.128E-05
CGA:  21    -0.380442705625E+03   -0.90348E-05   -0.90397E-05  9360   0.912E-04 0.165E-06
  19 F= -.38044271E+03 E0= -.38043675E+03  d E =-.560552E-01  mag=    58.0000
       N       E                     dE             d eps       ncg     rms          ort
SDA:   1    -0.380369477744E+03    0.73219E-01    0.00000E+00  9360   0.289E+00 0.000E+00
CGA:   2    -0.380399846825E+03   -0.30369E-01   -0.30354E-01  9360   0.336E+00 0.103E-02
CGA:   3    -0.380426081537E+03   -0.26235E-01   -0.26287E-01  9360   0.110E+00 0.625E-03
CGA:   4    -0.380442137063E+03   -0.16056E-01   -0.16152E-01  9360   0.615E-01-0.160E-02
CGA:   5    -0.380447158621E+03   -0.50216E-02   -0.50364E-02  9360   0.192E-01 0.315E-03
CGA:   6    -0.380448980659E+03   -0.18220E-02   -0.18217E-02  9360   0.119E-01-0.620E-04
CGA:   7    -0.380449765873E+03   -0.78521E-03   -0.78666E-03  9360   0.354E-02 0.434E-05
CGA:   8    -0.380450169378E+03   -0.40350E-03   -0.40359E-03  9360   0.142E-02-0.349E-05
CGA:   9    -0.380450351587E+03   -0.18221E-03   -0.18217E-03  9360   0.684E-03 0.151E-05
CGA:  10    -0.380450401269E+03   -0.49682E-04   -0.49657E-04  9360   0.445E-03-0.101E-05
CGA:  11    -0.380450449006E+03   -0.47738E-04   -0.47729E-04  9360   0.151E-03 0.731E-06
CGA:  12    -0.380450467914E+03   -0.18907E-04   -0.18914E-04  9360   0.107E-03-0.193E-06
CGA:  13    -0.380450478347E+03   -0.10433E-04   -0.10434E-04  9360   0.602E-04 0.493E-06
CGA:  14    -0.380450483888E+03   -0.55408E-05   -0.55381E-05  9360   0.469E-04-0.426E-06
  20 F= -.38045048E+03 E0= -.38044453E+03  d E =-.777826E-02  mag=    58.0000
       N       E                     dE             d eps       ncg     rms          ort
SDA:   1    -0.378179168504E+03    0.22713E+01    0.00000E+00  9360   0.745E+01 0.000E+00
CGA:   2    -0.379262155041E+03   -0.10830E+01   -0.10958E+01  9360   0.797E+01-0.162E+00
CGA:   3    -0.379795371282E+03   -0.53322E+00   -0.58183E+00  9360   0.423E+01 0.253E+00
CGA:   4    -0.380155575367E+03   -0.36020E+00   -0.35786E+00  9360   0.240E+01-0.779E-01
CGA:   5    -0.380359520313E+03   -0.20394E+00   -0.20527E+00  9360   0.681E+00 0.360E-01
CGA:   6    -0.380413328715E+03   -0.53808E-01   -0.54725E-01  9360   0.457E+00 0.122E-01
CGA:   7    -0.380441288045E+03   -0.27959E-01   -0.27781E-01  9360   0.155E+00-0.285E-03
CGA:   8    -0.380458178538E+03   -0.16890E-01   -0.16870E-01  9360   0.498E-01 0.918E-03
CGA:   9    -0.380462625704E+03   -0.44472E-02   -0.44537E-02  9360   0.512E-01 0.387E-03
CGA:  10    -0.380466342865E+03   -0.37172E-02   -0.37052E-02  9360   0.113E-01-0.865E-04
CGA:  11    -0.380467953034E+03   -0.16102E-02   -0.16060E-02  9360   0.704E-02 0.727E-04
CGA:  12    -0.380468523246E+03   -0.57021E-03   -0.57280E-03  9360   0.506E-02 0.528E-04
CGA:  13    -0.380468946089E+03   -0.42284E-03   -0.42236E-03  9360   0.249E-02-0.117E-04
CGA:  14    -0.380469189064E+03   -0.24298E-03   -0.24293E-03  9360   0.117E-02 0.108E-04
CGA:  15    -0.380469372729E+03   -0.18367E-03   -0.18346E-03  9360   0.830E-03 0.297E-05
CGA:  16    -0.380469438637E+03   -0.65908E-04   -0.65888E-04  9360   0.644E-03-0.735E-06
CGA:  17    -0.380469496030E+03   -0.57393E-04   -0.57421E-04  9360   0.281E-03 0.266E-05
CGA:  18    -0.380469544212E+03   -0.48182E-04   -0.48064E-04  9360   0.140E-03 0.161E-05
CGA:  19    -0.380469556800E+03   -0.12588E-04   -0.12588E-04  9360   0.134E-03 0.142E-06
CGA:  20    -0.380469569112E+03   -0.12312E-04   -0.12324E-04  9360   0.723E-04 0.134E-05
CGA:  21    -0.380469576421E+03   -0.73091E-05   -0.73091E-05  9360   0.358E-04 0.201E-06
  21 F= -.38046958E+03 E0= -.38046356E+03  d E =-.190925E-01  mag=    58.0000
       N       E                     dE             d eps       ncg     rms          ort
SDA:   1    -0.379997993714E+03    0.47158E+00    0.00000E+00  9360   0.122E+01 0.000E+00
CGA:   2    -0.380332688021E+03   -0.33469E+00   -0.33484E+00  9360   0.105E+01-0.499E-03
CGA:   3    -0.380399425210E+03   -0.66737E-01   -0.68254E-01  9360   0.622E+00-0.167E-01
CGA:   4    -0.380459179470E+03   -0.59754E-01   -0.59671E-01  9360   0.106E+00-0.297E-02
CGA:   5    -0.380473639518E+03   -0.14460E-01   -0.14414E-01  9360   0.617E-01 0.115E-02
CGA:   6    -0.380477402034E+03   -0.37625E-02   -0.36627E-02  9360   0.198E-01 0.685E-03
CGA:   7    -0.380479650710E+03   -0.22487E-02   -0.22479E-02  9360   0.120E-01 0.764E-04
CGA:   8    -0.380480645243E+03   -0.99453E-03   -0.99070E-03  9360   0.318E-02-0.337E-04
CGA:   9    -0.380481047226E+03   -0.40198E-03   -0.40186E-03  9360   0.278E-02 0.551E-05
CGA:  10    -0.380481217321E+03   -0.17009E-03   -0.16943E-03  9360   0.715E-03 0.308E-05
CGA:  11    -0.380481334209E+03   -0.11689E-03   -0.11675E-03  9360   0.441E-03 0.224E-05
CGA:  12    -0.380481374335E+03   -0.40125E-04   -0.40086E-04  9360   0.364E-03-0.128E-05
CGA:  13    -0.380481411586E+03   -0.37252E-04   -0.37256E-04  9360   0.188E-03 0.950E-06
CGA:  14    -0.380481432546E+03   -0.20960E-04   -0.20962E-04  9360   0.139E-03-0.136E-06
CGA:  15    -0.380481450842E+03   -0.18296E-04   -0.18261E-04  9360   0.996E-04 0.140E-05
CGA:  16    -0.380481458482E+03   -0.76404E-05   -0.76362E-05  9360   0.580E-04-0.350E-07
  22 F= -.38048146E+03 E0= -.38047542E+03  d E =-.118821E-01  mag=    58.0000
       N       E                     dE             d eps       ncg     rms          ort
SDA:   1    -0.348667868643E+03    0.31814E+02    0.00000E+00  9360   0.950E+02 0.000E+00
CGA:   2    -0.365737268170E+03   -0.17069E+02   -0.16331E+02  9360   0.600E+02 0.794E+01
CGA:   3    -0.373008429748E+03   -0.72712E+01   -0.90984E+01  9360   0.897E+02-0.348E+02
CGA:   4    -0.376780943598E+03   -0.37725E+01   -0.54473E+01  9360   0.155E+02-0.809E+01
CGA:   5    -0.378361035594E+03   -0.15801E+01   -0.80830E+00  9360   0.614E+01 0.112E+02
CGA:   6    -0.378764824837E+03   -0.40379E+00   -0.32769E+00  9360   0.549E+01 0.530E+00
CGA:   7    -0.379820461040E+03   -0.10556E+01   -0.10584E+01  9360   0.490E+01-0.376E-01
CGA:   8    -0.380130354443E+03   -0.30989E+00   -0.34723E+00  9360   0.224E+01-0.578E-01
CGA:   9    -0.380265349374E+03   -0.13499E+00   -0.13929E+00  9360   0.162E+01-0.274E-01
CGA:  10    -0.380332740434E+03   -0.67391E-01   -0.79449E-01  9360   0.720E+00-0.137E+00
CGA:  11    -0.380378629165E+03   -0.45889E-01   -0.46021E-01  9360   0.540E+00-0.934E-03
CGA:  12    -0.380407253770E+03   -0.28625E-01   -0.26422E-01  9360   0.721E-01 0.221E-01
CGA:  13    -0.380414261138E+03   -0.70074E-02   -0.70095E-02  9360   0.141E+00 0.256E-03
CGA:  14    -0.380427045004E+03   -0.12784E-01   -0.12792E-01  9360   0.670E-01 0.575E-03
CGA:  15    -0.380430314911E+03   -0.32699E-02   -0.33735E-02  9360   0.348E-01-0.979E-03
CGA:  16    -0.380432943699E+03   -0.26288E-02   -0.26294E-02  9360   0.284E-01-0.163E-04
CGA:  17    -0.380435684904E+03   -0.27412E-02   -0.27421E-02  9360   0.186E-01-0.158E-03
CGA:  18    -0.380436627286E+03   -0.94238E-03   -0.94761E-03  9360   0.760E-02-0.444E-04
CGA:  19    -0.380437321492E+03   -0.69421E-03   -0.69421E-03  9360   0.471E-02 0.156E-04
CGA:  20    -0.380437756314E+03   -0.43482E-03   -0.43481E-03  9360   0.545E-02 0.187E-04
CGA:  21    -0.380438114249E+03   -0.35793E-03   -0.35943E-03  9360   0.167E-02 0.263E-04
CGA:  22    -0.380438304519E+03   -0.19027E-03   -0.18960E-03  9360   0.227E-02 0.230E-04
CGA:  23    -0.380438467161E+03   -0.16264E-03   -0.16276E-03  9360   0.131E-02 0.316E-05
CGA:  24    -0.380438597500E+03   -0.13034E-03   -0.13036E-03  9360   0.736E-03-0.556E-06
CGA:  25    -0.380438651620E+03   -0.54120E-04   -0.54182E-04  9360   0.629E-03 0.225E-05
CGA:  26    -0.380438716703E+03   -0.65083E-04   -0.65121E-04  9360   0.594E-03-0.206E-05
CGA:  27    -0.380438778391E+03   -0.61688E-04   -0.61676E-04  9360   0.274E-03 0.408E-06
CGA:  28    -0.380438793880E+03   -0.15490E-04   -0.15531E-04  9360   0.188E-03 0.635E-06
CGA:  29    -0.380438832472E+03   -0.38592E-04   -0.38648E-04  9360   0.177E-03-0.486E-06
CGA:  30    -0.380438842382E+03   -0.99104E-05   -0.98593E-05  9360   0.889E-04-0.114E-05
  23 F= -.38043884E+03 E0= -.38043269E+03  d E =0.426161E-01  mag=    58.0000
       N       E                     dE             d eps       ncg     rms          ort
SDA:   1    -0.372835912020E+03    0.76029E+01    0.00000E+00  9360   0.294E+02 0.000E+00
CGA:   2    -0.376169191465E+03   -0.33333E+01   -0.34631E+01  9360   0.278E+02-0.249E+01
CGA:   3    -0.377962039631E+03   -0.17928E+01   -0.19086E+01  9360   0.143E+02 0.862E+00
CGA:   4    -0.379209657597E+03   -0.12476E+01   -0.12035E+01  9360   0.103E+02-0.180E+01
CGA:   5    -0.379998624639E+03   -0.78897E+00   -0.78376E+00  9360   0.453E+01-0.412E+00
CGA:   6    -0.380261905831E+03   -0.26328E+00   -0.26508E+00  9360   0.232E+01-0.425E-01
CGA:   7    -0.380390696889E+03   -0.12879E+00   -0.12642E+00  9360   0.914E+00-0.458E-02
CGA:   8    -0.380480618419E+03   -0.89922E-01   -0.89922E-01  9360   0.425E+00-0.113E-03
CGA:   9    -0.380505918250E+03   -0.25300E-01   -0.26440E-01  9360   0.209E+00 0.125E-02
CGA:  10    -0.380521850782E+03   -0.15933E-01   -0.15884E-01  9360   0.163E+00-0.130E-02
CGA:  11    -0.380532519872E+03   -0.10669E-01   -0.10723E-01  9360   0.479E-01 0.414E-03
CGA:  12    -0.380537874283E+03   -0.53544E-02   -0.53314E-02  9360   0.419E-01 0.691E-03
CGA:  13    -0.380540244922E+03   -0.23706E-02   -0.23661E-02  9360   0.179E-01 0.113E-04
CGA:  14    -0.380542622392E+03   -0.23775E-02   -0.23574E-02  9360   0.868E-02 0.373E-03
CGA:  15    -0.380543462676E+03   -0.84028E-03   -0.83974E-03  9360   0.625E-02 0.536E-04
CGA:  16    -0.380543963495E+03   -0.50082E-03   -0.50069E-03  9360   0.431E-02-0.669E-05
CGA:  17    -0.380544368736E+03   -0.40524E-03   -0.40455E-03  9360   0.250E-02 0.739E-04
CGA:  18    -0.380544612212E+03   -0.24348E-03   -0.24347E-03  9360   0.939E-03 0.113E-05
CGA:  19    -0.380544769316E+03   -0.15710E-03   -0.15711E-03  9360   0.148E-02-0.422E-07
CGA:  20    -0.380544849432E+03   -0.80115E-04   -0.80513E-04  9360   0.343E-03 0.109E-05
CGA:  21    -0.380544901992E+03   -0.52561E-04   -0.52378E-04  9360   0.239E-03 0.282E-05
CGA:  22    -0.380544934449E+03   -0.32457E-04   -0.32426E-04  9360   0.234E-03 0.632E-06
CGA:  23    -0.380544948305E+03   -0.13856E-04   -0.13904E-04  9360   0.909E-04 0.900E-06
CGA:  24    -0.380544960413E+03   -0.12108E-04   -0.12093E-04  9360   0.805E-04 0.367E-06
CGA:  25    -0.380544969821E+03   -0.94073E-05   -0.94080E-05  9360   0.502E-04 0.680E-08
  24 F= -.38054497E+03 E0= -.38053873E+03  d E =-.106127E+00  mag=    58.0000
       N       E                     dE             d eps       ncg     rms          ort
SDA:   1    -0.380416445477E+03    0.12851E+00    0.00000E+00  9360   0.753E+00 0.000E+00
CGA:   2    -0.380455976345E+03   -0.39531E-01   -0.40797E-01  9360   0.439E+00-0.161E-01
CGA:   3    -0.380515540309E+03   -0.59564E-01   -0.59635E-01  9360   0.151E+00-0.131E-02
CGA:   4    -0.380542225501E+03   -0.26685E-01   -0.26654E-01  9360   0.691E-01 0.384E-03
CGA:   5    -0.380546764034E+03   -0.45385E-02   -0.44769E-02  9360   0.393E-01 0.125E-03
CGA:   6    -0.380550504911E+03   -0.37409E-02   -0.37408E-02  9360   0.118E-01 0.145E-05
CGA:   7    -0.380551561964E+03   -0.10571E-02   -0.10561E-02  9360   0.545E-02-0.366E-04
CGA:   8    -0.380552112160E+03   -0.55020E-03   -0.55016E-03  9360   0.289E-02 0.154E-04
CGA:   9    -0.380552320520E+03   -0.20836E-03   -0.20814E-03  9360   0.138E-02-0.225E-05
CGA:  10    -0.380552447433E+03   -0.12691E-03   -0.12697E-03  9360   0.671E-03 0.512E-05
CGA:  11    -0.380552535538E+03   -0.88105E-04   -0.88139E-04  9360   0.279E-03-0.806E-06
CGA:  12    -0.380552557568E+03   -0.22031E-04   -0.22055E-04  9360   0.244E-03 0.104E-05
CGA:  13    -0.380552587802E+03   -0.30234E-04   -0.30234E-04  9360   0.865E-04 0.276E-07
CGA:  14    -0.380552597454E+03   -0.96521E-05   -0.96423E-05  9360   0.759E-04 0.774E-06
  25 F= -.38055260E+03 E0= -.38054632E+03  d E =-.762763E-02  mag=    58.0000
       N       E                     dE             d eps       ncg     rms          ort
SDA:   1    -0.380489186773E+03    0.63401E-01    0.00000E+00  9360   0.208E+00 0.000E+00
CGA:   2    -0.380523038673E+03   -0.33852E-01   -0.34211E-01  9360   0.275E+00-0.491E-02
CGA:   3    -0.380539984905E+03   -0.16946E-01   -0.17467E-01  9360   0.108E+00-0.145E-02
CGA:   4    -0.380549893519E+03   -0.99086E-02   -0.98873E-02  9360   0.657E-01-0.821E-03
CGA:   5    -0.380555236182E+03   -0.53427E-02   -0.53694E-02  9360   0.122E-01 0.375E-03
CGA:   6    -0.380557084763E+03   -0.18486E-02   -0.18497E-02  9360   0.472E-02-0.190E-04
CGA:   7    -0.380557472357E+03   -0.38759E-03   -0.38780E-03  9360   0.309E-02 0.287E-05
CGA:   8    -0.380557694524E+03   -0.22217E-03   -0.22185E-03  9360   0.122E-02-0.348E-05
CGA:   9    -0.380557839679E+03   -0.14516E-03   -0.14511E-03  9360   0.359E-03 0.191E-05
CGA:  10    -0.380557887765E+03   -0.48086E-04   -0.48116E-04  9360   0.347E-03-0.738E-06
CGA:  11    -0.380557913539E+03   -0.25774E-04   -0.25815E-04  9360   0.132E-03 0.928E-06
CGA:  12    -0.380557925026E+03   -0.11487E-04   -0.11481E-04  9360   0.969E-04-0.229E-06
CGA:  13    -0.380557937963E+03   -0.12937E-04   -0.12918E-04  9360   0.403E-04 0.564E-06
CGA:  14    -0.380557944009E+03   -0.60457E-05   -0.60530E-05  9360   0.440E-04-0.163E-06
  26 F= -.38055794E+03 E0= -.38055165E+03  d E =-.534655E-02  mag=    58.0000
       N       E                     dE             d eps       ncg     rms          ort
SDA:   1    -0.380256881378E+03    0.30106E+00    0.00000E+00  9360   0.894E+00 0.000E+00
CGA:   2    -0.380407887053E+03   -0.15101E+00   -0.14996E+00  9360   0.140E+01 0.175E-01
CGA:   3    -0.380496040254E+03   -0.88153E-01   -0.86896E-01  9360   0.391E+00-0.645E-02
CGA:   4    -0.380543297855E+03   -0.47258E-01   -0.47153E-01  9360   0.178E+00 0.398E-02
CGA:   5    -0.380558640294E+03   -0.15342E-01   -0.15206E-01  9360   0.601E-01-0.180E-02
CGA:   6    -0.380564049958E+03   -0.54097E-02   -0.54301E-02  9360   0.311E-01 0.580E-03
CGA:   7    -0.380566223016E+03   -0.21731E-02   -0.21758E-02  9360   0.133E-01-0.128E-04
CGA:   8    -0.380567390270E+03   -0.11673E-02   -0.11694E-02  9360   0.434E-02 0.534E-04
CGA:   9    -0.380568024265E+03   -0.63400E-03   -0.63479E-03  9360   0.213E-02-0.144E-04
CGA:  10    -0.380568164127E+03   -0.13986E-03   -0.14003E-03  9360   0.124E-02 0.166E-05
CGA:  11    -0.380568302758E+03   -0.13863E-03   -0.13866E-03  9360   0.551E-03-0.210E-05
CGA:  12    -0.380568362216E+03   -0.59458E-04   -0.59438E-04  9360   0.352E-03 0.231E-05
CGA:  13    -0.380568399758E+03   -0.37542E-04   -0.37546E-04  9360   0.254E-03-0.590E-06
CGA:  14    -0.380568423117E+03   -0.23358E-04   -0.23369E-04  9360   0.196E-03 0.950E-06
CGA:  15    -0.380568443789E+03   -0.20672E-04   -0.20673E-04  9360   0.913E-04-0.200E-06
CGA:  16    -0.380568457886E+03   -0.14097E-04   -0.14052E-04  9360   0.797E-04 0.866E-06
CGA:  17    -0.380568464369E+03   -0.64835E-05   -0.64801E-05  9360   0.578E-04-0.124E-06
  27 F= -.38056846E+03 E0= -.38056212E+03  d E =-.105204E-01  mag=    58.0000
       N       E                     dE             d eps       ncg     rms          ort
SDA:   1    -0.378659487011E+03    0.19090E+01    0.00000E+00  9360   0.496E+01 0.000E+00
CGA:   2    -0.380009495576E+03   -0.13500E+01   -0.13470E+01  9360   0.340E+01 0.232E-01
CGA:   3    -0.380318834239E+03   -0.30934E+00   -0.31076E+00  9360   0.235E+01-0.116E-01
CGA:   4    -0.380482754739E+03   -0.16392E+00   -0.16403E+00  9360   0.814E+00-0.249E-01
CGA:   5    -0.380550569960E+03   -0.67815E-01   -0.66919E-01  9360   0.261E+00-0.712E-02
CGA:   6    -0.380575390317E+03   -0.24820E-01   -0.24928E-01  9360   0.110E+00 0.366E-02
CGA:   7    -0.380586453390E+03   -0.11063E-01   -0.11036E-01  9360   0.429E-01-0.134E-02
CGA:   8    -0.380589801885E+03   -0.33485E-02   -0.33501E-02  9360   0.324E-01 0.578E-05
CGA:   9    -0.380592684428E+03   -0.28825E-02   -0.28788E-02  9360   0.604E-02-0.762E-04
CGA:  10    -0.380593586024E+03   -0.90160E-03   -0.89962E-03  9360   0.545E-02 0.357E-04
CGA:  11    -0.380593966948E+03   -0.38092E-03   -0.38076E-03  9360   0.247E-02-0.142E-05
CGA:  12    -0.380594212876E+03   -0.24593E-03   -0.24601E-03  9360   0.148E-02 0.967E-05
CGA:  13    -0.380594394894E+03   -0.18202E-03   -0.18217E-03  9360   0.116E-02-0.515E-05
CGA:  14    -0.380594520236E+03   -0.12534E-03   -0.12532E-03  9360   0.676E-03 0.450E-05
CGA:  15    -0.380594582924E+03   -0.62688E-04   -0.62685E-04  9360   0.663E-03-0.293E-07
CGA:  16    -0.380594661131E+03   -0.78207E-04   -0.78175E-04  9360   0.262E-03 0.256E-05
CGA:  17    -0.380594697896E+03   -0.36765E-04   -0.36748E-04  9360   0.230E-03 0.460E-06
CGA:  18    -0.380594716172E+03   -0.18276E-04   -0.18310E-04  9360   0.155E-03 0.117E-05
CGA:  19    -0.380594733377E+03   -0.17205E-04   -0.17204E-04  9360   0.739E-04 0.234E-06
CGA:  20    -0.380594741170E+03   -0.77932E-05   -0.77939E-05  9360   0.553E-04 0.543E-06
  28 F= -.38059474E+03 E0= -.38058828E+03  d E =-.262768E-01  mag=    58.0000
       N       E                     dE             d eps       ncg     rms          ort
SDA:   1    -0.355799217653E+03    0.24796E+02    0.00000E+00  9360   0.742E+02 0.000E+00
CGA:   2    -0.365525366597E+03   -0.97261E+01   -0.11278E+02  9360   0.130E+03-0.146E+02
CGA:   3    -0.373988753965E+03   -0.84634E+01   -0.80923E+01  9360   0.413E+02-0.857E+01
CGA:   4    -0.378184376441E+03   -0.41956E+01   -0.41918E+01  9360   0.142E+02 0.258E+01
CGA:   5    -0.379319795407E+03   -0.11354E+01   -0.10872E+01  9360   0.113E+02-0.819E+00
CGA:   6    -0.379979458736E+03   -0.65966E+00   -0.68742E+00  9360   0.277E+01-0.231E+00
CGA:   7    -0.380239203726E+03   -0.25974E+00   -0.26395E+00  9360   0.156E+01 0.268E+00
CGA:   8    -0.380363013215E+03   -0.12381E+00   -0.11504E+00  9360   0.837E+00 0.150E-02
CGA:   9    -0.380433012593E+03   -0.69999E-01   -0.66320E-01  9360   0.350E+00-0.368E-01
CGA:  10    -0.380467235717E+03   -0.34223E-01   -0.34207E-01  9360   0.264E+00 0.626E-02
CGA:  11    -0.380485326699E+03   -0.18091E-01   -0.17282E-01  9360   0.948E-01 0.130E-02
CGA:  12    -0.380501573427E+03   -0.16247E-01   -0.16165E-01  9360   0.467E-01 0.108E-02
CGA:  13    -0.380508144067E+03   -0.65706E-02   -0.62736E-02  9360   0.661E-01 0.785E-02
CGA:  14    -0.380513547743E+03   -0.54037E-02   -0.25468E-02  9360   0.419E-01 0.829E-01
CGA:  15    -0.380518778517E+03   -0.52308E-02   -0.78445E-02  9360   0.270E+00-0.330E-01
CGA:  16    -0.380527662161E+03   -0.88836E-02   -0.10492E-01  9360   0.609E-01-0.289E-01
CGA:  17    -0.380533626966E+03   -0.59648E-02   -0.62624E-02  9360   0.102E+00-0.137E-01
CGA:  18    -0.380542933579E+03   -0.93066E-02   -0.99516E-02  9360   0.205E+00-0.199E-01
CGA:  19    -0.380548094867E+03   -0.51613E-02   -0.68793E-02  9360   0.781E-01-0.199E-01
CGA:  20    -0.380550194859E+03   -0.21000E-02   -0.22919E-02  9360   0.278E-01-0.382E-02
CGA:  21    -0.380551897675E+03   -0.17028E-02   -0.17198E-02  9360   0.170E-01 0.275E-04
CGA:  22    -0.380552544516E+03   -0.64684E-03   -0.65954E-03  9360   0.581E-02-0.228E-03
CGA:  23    -0.380552898171E+03   -0.35365E-03   -0.35345E-03  9360   0.376E-02-0.256E-05
CGA:  24    -0.380553118128E+03   -0.21996E-03   -0.22058E-03  9360   0.339E-02 0.525E-06
CGA:  25    -0.380553369175E+03   -0.25105E-03   -0.25126E-03  9360   0.187E-02 0.389E-05
CGA:  26    -0.380553451192E+03   -0.82016E-04   -0.81975E-04  9360   0.972E-03-0.192E-05
CGA:  27    -0.380553521512E+03   -0.70321E-04   -0.70331E-04  9360   0.778E-03 0.315E-06
CGA:  28    -0.380553571322E+03   -0.49810E-04   -0.49831E-04  9360   0.769E-03 0.861E-06
CGA:  29    -0.380553621015E+03   -0.49693E-04   -0.49694E-04  9360   0.376E-03-0.826E-06
CGA:  30    -0.380553644021E+03   -0.23006E-04   -0.22987E-04  9360   0.419E-03-0.837E-06
CGA:  31    -0.380553679126E+03   -0.35105E-04   -0.35102E-04  9360   0.250E-03 0.166E-05
CGA:  32    -0.380553691562E+03   -0.12436E-04   -0.12485E-04  9360   0.186E-03 0.104E-05
CGA:  33    -0.380553708709E+03   -0.17147E-04   -0.17147E-04  9360   0.159E-03 0.450E-07
CGA:  34    -0.380553717802E+03   -0.90926E-05   -0.90834E-05  9360   0.123E-03-0.831E-06
  29 F= -.38055372E+03 E0= -.38054708E+03  d E =0.410234E-01  mag=    58.0000
       N       E                     dE             d eps       ncg     rms          ort
SDA:   1    -0.378718910929E+03    0.18348E+01    0.00000E+00  9360   0.648E+01 0.000E+00
CGA:   2    -0.379598523094E+03   -0.87961E+00   -0.84961E+00  9360   0.630E+01 0.591E+00
CGA:   3    -0.380076766946E+03   -0.47824E+00   -0.46576E+00  9360   0.314E+01-0.428E+00
CGA:   4    -0.380468406097E+03   -0.39164E+00   -0.39261E+00  9360   0.111E+01-0.789E-02
CGA:   5    -0.380558248725E+03   -0.89843E-01   -0.89374E-01  9360   0.755E+00-0.600E-01
CGA:   6    -0.380616935413E+03   -0.58687E-01   -0.58673E-01  9360   0.233E+00-0.400E-02
CGA:   7    -0.380633728033E+03   -0.16793E-01   -0.16557E-01  9360   0.116E+00-0.632E-02
CGA:   8    -0.380646283795E+03   -0.12556E-01   -0.12507E-01  9360   0.435E-01 0.130E-02
CGA:   9    -0.380649429063E+03   -0.31453E-02   -0.31453E-02  9360   0.276E-01-0.625E-05
CGA:  10    -0.380652069585E+03   -0.26405E-02   -0.26411E-02  9360   0.131E-01-0.262E-04
CGA:  11    -0.380653439874E+03   -0.13703E-02   -0.13684E-02  9360   0.589E-02 0.691E-04
CGA:  12    -0.380653897456E+03   -0.45758E-03   -0.45765E-03  9360   0.470E-02 0.769E-05
CGA:  13    -0.380654464458E+03   -0.56700E-03   -0.56677E-03  9360   0.179E-02 0.610E-05
CGA:  14    -0.380654609945E+03   -0.14549E-03   -0.14559E-03  9360   0.133E-02 0.105E-04
CGA:  15    -0.380654791947E+03   -0.18200E-03   -0.18164E-03  9360   0.990E-03 0.673E-05
CGA:  16    -0.380654856679E+03   -0.64732E-04   -0.64821E-04  9360   0.421E-03 0.306E-05
CGA:  17    -0.380654924503E+03   -0.67825E-04   -0.67737E-04  9360   0.391E-03 0.121E-05
CGA:  18    -0.380654957364E+03   -0.32861E-04   -0.32868E-04  9360   0.243E-03 0.880E-06
CGA:  19    -0.380654977705E+03   -0.20340E-04   -0.20333E-04  9360   0.126E-03-0.115E-05
CGA:  20    -0.380654996694E+03   -0.18989E-04   -0.19000E-04  9360   0.118E-03-0.203E-06
CGA:  21    -0.380655004887E+03   -0.81926E-05   -0.81724E-05  9360   0.501E-04-0.771E-06
  30 F= -.38065500E+03 E0= -.38064815E+03  d E =-.101287E+00  mag=    58.0000
       N       E                     dE             d eps       ncg     rms          ort
SDA:   1    -0.380615738499E+03    0.39258E-01    0.00000E+00  9360   0.384E+00 0.000E+00
CGA:   2    -0.380631990485E+03   -0.16252E-01   -0.16146E-01  9360   0.124E+00-0.184E-02
CGA:   3    -0.380651998650E+03   -0.20008E-01   -0.20042E-01  9360   0.667E-01-0.444E-03
CGA:   4    -0.380658344349E+03   -0.63457E-02   -0.63458E-02  9360   0.441E-01 0.672E-03
CGA:   5    -0.380662895428E+03   -0.45511E-02   -0.45552E-02  9360   0.121E-01-0.345E-03
CGA:   6    -0.380664040567E+03   -0.11451E-02   -0.11452E-02  9360   0.862E-02 0.234E-04
CGA:   7    -0.380664586884E+03   -0.54632E-03   -0.54622E-03  9360   0.300E-02-0.365E-05
CGA:   8    -0.380664874674E+03   -0.28779E-03   -0.28778E-03  9360   0.933E-03 0.364E-05
CGA:   9    -0.380664994101E+03   -0.11943E-03   -0.11955E-03  9360   0.750E-03-0.274E-05
CGA:  10    -0.380665048057E+03   -0.53955E-04   -0.54001E-04  9360   0.254E-03 0.115E-05
CGA:  11    -0.380665071890E+03   -0.23833E-04   -0.23833E-04  9360   0.259E-03-0.528E-06
CGA:  12    -0.380665097179E+03   -0.25289E-04   -0.25285E-04  9360   0.688E-04 0.117E-05
CGA:  13    -0.380665108562E+03   -0.11382E-04   -0.11376E-04  9360   0.798E-04 0.906E-07
CGA:  14    -0.380665115336E+03   -0.67741E-05   -0.67832E-05  9360   0.510E-04 0.627E-06
  31 F= -.38066512E+03 E0= -.38065823E+03  d E =-.101104E-01  mag=    58.0000
       N       E                     dE             d eps       ncg     rms          ort
SDA:   1    -0.379186252586E+03    0.14789E+01    0.00000E+00  9360   0.537E+01 0.000E+00
CGA:   2    -0.379845371501E+03   -0.65912E+00   -0.65530E+00  9360   0.577E+01 0.158E+00
CGA:   3    -0.380240696856E+03   -0.39533E+00   -0.38995E+00  9360   0.222E+01-0.215E+00
CGA:   4    -0.380541386019E+03   -0.30069E+00   -0.30045E+00  9360   0.982E+00 0.683E-02
CGA:   5    -0.380628116338E+03   -0.86730E-01   -0.86552E-01  9360   0.597E+00-0.703E-02
CGA:   6    -0.380667787698E+03   -0.39671E-01   -0.39184E-01  9360   0.193E+00-0.196E-02
CGA:   7    -0.380688415378E+03   -0.20628E-01   -0.20624E-01  9360   0.709E-01 0.200E-03
CGA:   8    -0.380693951960E+03   -0.55366E-02   -0.55668E-02  9360   0.471E-01 0.409E-03
CGA:   9    -0.380698422950E+03   -0.44710E-02   -0.44707E-02  9360   0.170E-01-0.609E-04
CGA:  10    -0.380699787654E+03   -0.13647E-02   -0.13682E-02  9360   0.109E-01 0.709E-04
CGA:  11    -0.380701012903E+03   -0.12252E-02   -0.12245E-02  9360   0.485E-02 0.327E-04
CGA:  12    -0.380701447341E+03   -0.43444E-03   -0.43443E-03  9360   0.386E-02 0.377E-05
CGA:  13    -0.380701807292E+03   -0.35995E-03   -0.35993E-03  9360   0.190E-02-0.204E-05
CGA:  14    -0.380702055231E+03   -0.24794E-03   -0.24774E-03  9360   0.132E-02 0.517E-05
CGA:  15    -0.380702159629E+03   -0.10440E-03   -0.10443E-03  9360   0.942E-03 0.258E-06
CGA:  16    -0.380702287491E+03   -0.12786E-03   -0.12775E-03  9360   0.575E-03 0.287E-05
CGA:  17    -0.380702339531E+03   -0.52040E-04   -0.52037E-04  9360   0.441E-03-0.192E-07
CGA:  18    -0.380702391038E+03   -0.51507E-04   -0.51483E-04  9360   0.290E-03 0.128E-05
CGA:  19    -0.380702416986E+03   -0.25948E-04   -0.25941E-04  9360   0.203E-03-0.596E-06
CGA:  20    -0.380702437600E+03   -0.20613E-04   -0.20610E-04  9360   0.106E-03 0.769E-06
CGA:  21    -0.380702451706E+03   -0.14106E-04   -0.14122E-04  9360   0.112E-03-0.478E-06
CGA:  22    -0.380702460025E+03   -0.83189E-05   -0.83276E-05  9360   0.495E-04 0.349E-06
  32 F= -.38070246E+03 E0= -.38069550E+03  d E =-.373447E-01  mag=    58.0000
       N       E                     dE             d eps       ncg     rms          ort
SDA:   1    -0.380650235230E+03    0.52216E-01    0.00000E+00  9360   0.311E+00 0.000E+00
CGA:   2    -0.380666034574E+03   -0.15799E-01   -0.16059E-01  9360   0.163E+00-0.422E-02
CGA:   3    -0.380686508426E+03   -0.20474E-01   -0.20484E-01  9360   0.581E-01-0.243E-03
CGA:   4    -0.380696959370E+03   -0.10451E-01   -0.10469E-01  9360   0.388E-01-0.215E-03
CGA:   5    -0.380699265360E+03   -0.23060E-02   -0.23452E-02  9360   0.168E-01-0.207E-03
CGA:   6    -0.380700940486E+03   -0.16751E-02   -0.16751E-02  9360   0.776E-02-0.128E-04
CGA:   7    -0.380701450192E+03   -0.50971E-03   -0.51272E-03  9360   0.253E-02-0.330E-05
CGA:   8    -0.380701753826E+03   -0.30363E-03   -0.30364E-03  9360   0.125E-02-0.269E-06
CGA:   9    -0.380701855439E+03   -0.10161E-03   -0.10160E-03  9360   0.701E-03 0.880E-06
CGA:  10    -0.380701906258E+03   -0.50819E-04   -0.50787E-04  9360   0.304E-03-0.731E-06
CGA:  11    -0.380701948238E+03   -0.41980E-04   -0.41958E-04  9360   0.132E-03 0.503E-06
CGA:  12    -0.380701958720E+03   -0.10482E-04   -0.10467E-04  9360   0.971E-04-0.518E-06
CGA:  13    -0.380701970264E+03   -0.11544E-04   -0.11539E-04  9360   0.582E-04 0.290E-06
CGA:  14    -0.380701974333E+03   -0.40688E-05   -0.40614E-05  9360   0.246E-04-0.194E-06
  33 F= -.38070197E+03 E0= -.38069502E+03  d E =0.485692E-03  mag=    58.0000
       N       E                     dE             d eps       ncg     rms          ort
SDA:   1    -0.380681141937E+03    0.20828E-01    0.00000E+00  9360   0.101E+00 0.000E+00
CGA:   2    -0.380687823347E+03   -0.66814E-02   -0.66665E-02  9360   0.907E-01-0.920E-04
CGA:   3    -0.380699732636E+03   -0.11909E-01   -0.11913E-01  9360   0.282E-01-0.876E-04
CGA:   4    -0.380702921480E+03   -0.31888E-02   -0.31849E-02  9360   0.208E-01 0.221E-03
CGA:   5    -0.380704572668E+03   -0.16512E-02   -0.16474E-02  9360   0.356E-02-0.329E-04
CGA:   6    -0.380705140756E+03   -0.56809E-03   -0.56790E-03  9360   0.117E-02 0.291E-05
CGA:   7    -0.380705228433E+03   -0.87677E-04   -0.87469E-04  9360   0.826E-03-0.181E-05
CGA:   8    -0.380705306941E+03   -0.78508E-04   -0.78516E-04  9360   0.367E-03 0.845E-06
CGA:   9    -0.380705331028E+03   -0.24088E-04   -0.24046E-04  9360   0.129E-03-0.296E-07
CGA:  10    -0.380705349920E+03   -0.18891E-04   -0.18878E-04  9360   0.590E-04 0.284E-06
CGA:  11    -0.380705356273E+03   -0.63532E-05   -0.63538E-05  9360   0.387E-04-0.168E-06
  34 F= -.38070536E+03 E0= -.38069838E+03  d E =-.338194E-02  mag=    58.0000
       N       E                     dE             d eps       ncg     rms          ort
SDA:   1    -0.379895649997E+03    0.80970E+00    0.00000E+00  9360   0.245E+01 0.000E+00
CGA:   2    -0.380224018343E+03   -0.32837E+00   -0.32593E+00  9360   0.403E+01 0.795E-01
CGA:   3    -0.380531385867E+03   -0.30737E+00   -0.30352E+00  9360   0.103E+01-0.676E-01
CGA:   4    -0.380651848748E+03   -0.12046E+00   -0.11935E+00  9360   0.520E+00 0.462E-01
CGA:   5    -0.380692902312E+03   -0.41054E-01   -0.38591E-01  9360   0.155E+00-0.463E-02
CGA:   6    -0.380708991392E+03   -0.16089E-01   -0.16088E-01  9360   0.101E+00 0.164E-03
CGA:   7    -0.380715046625E+03   -0.60552E-02   -0.60754E-02  9360   0.285E-01-0.202E-03
CGA:   8    -0.380718126227E+03   -0.30796E-02   -0.30764E-02  9360   0.145E-01 0.226E-03
CGA:   9    -0.380719554591E+03   -0.14284E-02   -0.14280E-02  9360   0.751E-02-0.685E-04
CGA:  10    -0.380720081299E+03   -0.52671E-03   -0.52602E-03  9360   0.315E-02 0.893E-06
CGA:  11    -0.380720407633E+03   -0.32633E-03   -0.32641E-03  9360   0.233E-02-0.970E-05
CGA:  12    -0.380720603122E+03   -0.19549E-03   -0.19571E-03  9360   0.709E-03 0.629E-05
CGA:  13    -0.380720707397E+03   -0.10428E-03   -0.10437E-03  9360   0.925E-03-0.174E-05
CGA:  14    -0.380720776712E+03   -0.69315E-04   -0.69356E-04  9360   0.359E-03 0.177E-05
CGA:  15    -0.380720816989E+03   -0.40277E-04   -0.40274E-04  9360   0.314E-03 0.220E-06
CGA:  16    -0.380720854031E+03   -0.37042E-04   -0.37005E-04  9360   0.203E-03 0.183E-05
CGA:  17    -0.380720874119E+03   -0.20088E-04   -0.20088E-04  9360   0.125E-03 0.401E-06
CGA:  18    -0.380720884781E+03   -0.10663E-04   -0.10677E-04  9360   0.941E-04 0.917E-06
CGA:  19    -0.380720896320E+03   -0.11539E-04   -0.11541E-04  9360   0.413E-04-0.603E-07
CGA:  20    -0.380720900322E+03   -0.40014E-05   -0.40032E-05  9360   0.325E-04 0.394E-06
  35 F= -.38072090E+03 E0= -.38071386E+03  d E =-.155440E-01  mag=    58.0000
       N       E                     dE             d eps       ncg     rms          ort
SDA:   1    -0.378997624081E+03    0.17233E+01    0.00000E+00  9360   0.460E+01 0.000E+00
CGA:   2    -0.380085194212E+03   -0.10876E+01   -0.10961E+01  9360   0.500E+01-0.522E-01
CGA:   3    -0.380416247306E+03   -0.33105E+00   -0.37789E+00  9360   0.230E+01 0.968E-01
CGA:   4    -0.380615658149E+03   -0.19941E+00   -0.20032E+00  9360   0.115E+01 0.212E-02
CGA:   5    -0.380681741795E+03   -0.66084E-01   -0.70060E-01  9360   0.389E+00-0.345E-01
CGA:   6    -0.380716188730E+03   -0.34447E-01   -0.34590E-01  9360   0.190E+00 0.422E-02
CGA:   7    -0.380727737900E+03   -0.11549E-01   -0.11655E-01  9360   0.109E+00-0.891E-03
CGA:   8    -0.380735089914E+03   -0.73520E-02   -0.74488E-02  9360   0.410E-01 0.425E-04
CGA:   9    -0.380738140252E+03   -0.30503E-02   -0.30816E-02  9360   0.314E-01 0.231E-03
CGA:  10    -0.380740151815E+03   -0.20116E-02   -0.20079E-02  9360   0.141E-01-0.265E-05
CGA:  11    -0.380741099501E+03   -0.94769E-03   -0.94719E-03  9360   0.591E-02-0.286E-05
CGA:  12    -0.380741573470E+03   -0.47397E-03   -0.47416E-03  9360   0.543E-02 0.675E-05
CGA:  13    -0.380741939648E+03   -0.36618E-03   -0.36567E-03  9360   0.196E-02-0.167E-05
CGA:  14    -0.380742123058E+03   -0.18341E-03   -0.18342E-03  9360   0.170E-02-0.573E-05
CGA:  15    -0.380742242634E+03   -0.11958E-03   -0.11959E-03  9360   0.112E-02 0.249E-05
CGA:  16    -0.380742343628E+03   -0.10099E-03   -0.10099E-03  9360   0.728E-03 0.252E-06
CGA:  17    -0.380742410314E+03   -0.66686E-04   -0.66686E-04  9360   0.543E-03-0.127E-05
CGA:  18    -0.380742449343E+03   -0.39028E-04   -0.39062E-04  9360   0.420E-03 0.176E-05
CGA:  19    -0.380742493263E+03   -0.43920E-04   -0.43902E-04  9360   0.241E-03 0.143E-05
CGA:  20    -0.380742512548E+03   -0.19285E-04   -0.19279E-04  9360   0.204E-03-0.240E-06
CGA:  21    -0.380742528421E+03   -0.15873E-04   -0.15886E-04  9360   0.128E-03 0.803E-06
CGA:  22    -0.380742539894E+03   -0.11473E-04   -0.11474E-04  9360   0.814E-04 0.518E-06
CGA:  23    -0.380742546891E+03   -0.69962E-05   -0.69957E-05  9360   0.693E-04-0.101E-06
  36 F= -.38074255E+03 E0= -.38073541E+03  d E =-.216466E-01  mag=    58.0000
       N       E                     dE             d eps       ncg     rms          ort
[...]
CGA:   3    -0.381062494493E+03   -0.17660E+00   -0.22850E+00  9360   0.398E+01-0.109E+01
CGA:   4    -0.381179795854E+03   -0.11730E+00   -0.17145E+00  9360   0.823E+00-0.653E+00
CGA:   5    -0.381246691482E+03   -0.66896E-01   -0.69394E-01  9360   0.547E+00-0.774E-01
CGA:   6    -0.381292050812E+03   -0.45359E-01   -0.44914E-01  9360   0.201E+00 0.258E-01
CGA:   7    -0.381315195102E+03   -0.23144E-01   -0.23652E-01  9360   0.254E+00-0.120E-01
CGA:   8    -0.381335714053E+03   -0.20519E-01   -0.20476E-01  9360   0.285E-01 0.595E-02
CGA:   9    -0.381338319862E+03   -0.26058E-02   -0.26154E-02  9360   0.188E-01-0.728E-03
CGA:  10    -0.381339968207E+03   -0.16483E-02   -0.16464E-02  9360   0.953E-02 0.155E-03
CGA:  11    -0.381340698223E+03   -0.73002E-03   -0.72763E-03  9360   0.339E-02-0.133E-03
CGA:  12    -0.381341281835E+03   -0.58361E-03   -0.58209E-03  9360   0.430E-02 0.171E-04
CGA:  13    -0.381341567754E+03   -0.28592E-03   -0.28488E-03  9360   0.140E-02-0.933E-05
CGA:  14    -0.381341739872E+03   -0.17212E-03   -0.17176E-03  9360   0.888E-03 0.833E-05
CGA:  15    -0.381341832562E+03   -0.92690E-04   -0.92763E-04  9360   0.788E-03-0.293E-05
CGA:  16    -0.381341896187E+03   -0.63625E-04   -0.63646E-04  9360   0.232E-03 0.169E-05
CGA:  17    -0.381341927071E+03   -0.30884E-04   -0.30918E-04  9360   0.277E-03-0.619E-06
CGA:  18    -0.381341955761E+03   -0.28690E-04   -0.28674E-04  9360   0.172E-03 0.100E-05
CGA:  19    -0.381341969119E+03   -0.13358E-04   -0.13349E-04  9360   0.694E-04-0.307E-06
CGA:  20    -0.381341981481E+03   -0.12362E-04   -0.12263E-04  9360   0.935E-04 0.114E-05
CGA:  21    -0.381341988383E+03   -0.69014E-05   -0.69025E-05  9360   0.402E-04 0.127E-06
 110 F= -.38134199E+03 E0= -.38133380E+03  d E =-.285046E-01  mag=    58.0000
       N       E                     dE             d eps       ncg     rms          ort
SDA:   1    -0.381110506547E+03    0.23147E+00    0.00000E+00  9360   0.754E+00 0.000E+00
CGA:   2    -0.381236341221E+03   -0.12583E+00   -0.12364E+00  9360   0.615E+00 0.296E-01
CGA:   3    -0.381283357270E+03   -0.47016E-01   -0.43909E-01  9360   0.382E+00-0.906E-02
CGA:   4    -0.381326530901E+03   -0.43174E-01   -0.42980E-01  9360   0.132E+00 0.744E-02
CGA:   5    -0.381339844630E+03   -0.13314E-01   -0.13321E-01  9360   0.489E-01-0.393E-02
CGA:   6    -0.381345488709E+03   -0.56441E-02   -0.56664E-02  9360   0.251E-01-0.712E-03
CGA:   7    -0.381346783311E+03   -0.12946E-02   -0.13141E-02  9360   0.908E-02-0.160E-03
CGA:   8    -0.381348019168E+03   -0.12359E-02   -0.12427E-02  9360   0.321E-02-0.133E-03
CGA:   9    -0.381348388934E+03   -0.36977E-03   -0.36848E-03  9360   0.159E-02 0.482E-04
CGA:  10    -0.381348583131E+03   -0.19420E-03   -0.19432E-03  9360   0.128E-02-0.341E-05
CGA:  11    -0.381348664379E+03   -0.81248E-04   -0.81627E-04  9360   0.540E-03 0.941E-06
CGA:  12    -0.381348739027E+03   -0.74647E-04   -0.74680E-04  9360   0.287E-03-0.650E-06
CGA:  13    -0.381348784818E+03   -0.45791E-04   -0.45713E-04  9360   0.190E-03 0.130E-05
CGA:  14    -0.381348805440E+03   -0.20623E-04   -0.20627E-04  9360   0.180E-03-0.675E-06
CGA:  15    -0.381348820260E+03   -0.14819E-04   -0.14828E-04  9360   0.113E-03 0.201E-06
CGA:  16    -0.381348835478E+03   -0.15218E-04   -0.15230E-04  9360   0.475E-04-0.263E-06
CGA:  17    -0.381348843368E+03   -0.78901E-05   -0.78807E-05  9360   0.421E-04 0.132E-06
 111 F= -.38134884E+03 E0= -.38134069E+03  d E =-.685499E-02  mag=    58.0000
       N       E                     dE             d eps       ncg     rms          ort
SDA:   1    -0.381229195743E+03    0.11964E+00    0.00000E+00  9360   0.436E+00 0.000E+00
CGA:   2    -0.381270707760E+03   -0.41512E-01   -0.41214E-01  9360   0.588E+00-0.894E-02
CGA:   3    -0.381320177424E+03   -0.49470E-01   -0.49732E-01  9360   0.145E+00 0.316E-02
CGA:   4    -0.381341628015E+03   -0.21451E-01   -0.21436E-01  9360   0.741E-01 0.262E-03
CGA:   5    -0.381347627084E+03   -0.59991E-02   -0.59143E-02  9360   0.360E-01-0.435E-03
CGA:   6    -0.381349999419E+03   -0.23723E-02   -0.24098E-02  9360   0.164E-01-0.801E-04
CGA:   7    -0.381351575500E+03   -0.15761E-02   -0.15755E-02  9360   0.342E-02-0.307E-04
CGA:   8    -0.381352118164E+03   -0.54266E-03   -0.54617E-03  9360   0.163E-02-0.528E-04
CGA:   9    -0.381352283353E+03   -0.16519E-03   -0.16528E-03  9360   0.119E-02 0.121E-04
CGA:  10    -0.381352361877E+03   -0.78524E-04   -0.78243E-04  9360   0.511E-03 0.130E-05
CGA:  11    -0.381352428416E+03   -0.66539E-04   -0.66506E-04  9360   0.266E-03 0.123E-05
CGA:  12    -0.381352462876E+03   -0.34460E-04   -0.34480E-04  9360   0.134E-03-0.770E-06
CGA:  13    -0.381352486368E+03   -0.23492E-04   -0.23455E-04  9360   0.175E-03 0.523E-06
CGA:  14    -0.381352497155E+03   -0.10787E-04   -0.10764E-04  9360   0.671E-04-0.113E-06
CGA:  15    -0.381352509240E+03   -0.12085E-04   -0.12091E-04  9360   0.589E-04-0.879E-07
CGA:  16    -0.381352516452E+03   -0.72121E-05   -0.72122E-05  9360   0.284E-04 0.590E-07
 112 F= -.38135252E+03 E0= -.38134438E+03  d E =-.367308E-02  mag=    58.0000
       N       E                     dE             d eps       ncg     rms          ort
SDA:   1    -0.381309464430E+03    0.43045E-01    0.00000E+00  9360   0.145E+00 0.000E+00
CGA:   2    -0.381327009746E+03   -0.17545E-01   -0.17465E-01  9360   0.189E+00 0.564E-02
CGA:   3    -0.381342559182E+03   -0.15549E-01   -0.15261E-01  9360   0.623E-01-0.560E-03
CGA:   4    -0.381349223767E+03   -0.66646E-02   -0.66696E-02  9360   0.278E-01 0.616E-03
CGA:   5    -0.381352137658E+03   -0.29139E-02   -0.29074E-02  9360   0.112E-01-0.372E-03
CGA:   6    -0.381352887139E+03   -0.74948E-03   -0.75599E-03  9360   0.583E-02-0.176E-04
CGA:   7    -0.381353432059E+03   -0.54492E-03   -0.54397E-03  9360   0.136E-02-0.226E-04
CGA:   8    -0.381353587207E+03   -0.15515E-03   -0.15507E-03  9360   0.929E-03 0.746E-05
CGA:   9    -0.381353654075E+03   -0.66868E-04   -0.66758E-04  9360   0.447E-03 0.713E-06
CGA:  10    -0.381353699412E+03   -0.45337E-04   -0.45355E-04  9360   0.173E-03 0.229E-05
CGA:  11    -0.381353720822E+03   -0.21410E-04   -0.21411E-04  9360   0.133E-03 0.262E-07
CGA:  12    -0.381353731813E+03   -0.10991E-04   -0.10999E-04  9360   0.862E-04 0.174E-06
CGA:  13    -0.381353740546E+03   -0.87331E-05   -0.87305E-05  9360   0.397E-04-0.478E-06
 113 F= -.38135374E+03 E0= -.38134560E+03  d E =-.122409E-02  mag=    58.0000
       N       E                     dE             d eps       ncg     rms          ort
SDA:   1    -0.381241115845E+03    0.11262E+00    0.00000E+00  9360   0.354E+00 0.000E+00
CGA:   2    -0.381289131835E+03   -0.48016E-01   -0.47077E-01  9360   0.411E+00 0.262E-01
CGA:   3    -0.381326436496E+03   -0.37305E-01   -0.35954E-01  9360   0.195E+00-0.796E-02
CGA:   4    -0.381342234147E+03   -0.15798E-01   -0.15994E-01  9360   0.610E-01 0.169E-02
CGA:   5    -0.381350138785E+03   -0.79046E-02   -0.79910E-02  9360   0.225E-01-0.258E-02
CGA:   6    -0.381352034496E+03   -0.18957E-02   -0.19104E-02  9360   0.121E-01 0.214E-03
CGA:   7    -0.381352834883E+03   -0.80039E-03   -0.78949E-03  9360   0.423E-02 0.387E-04
CGA:   8    -0.381353301767E+03   -0.46688E-03   -0.46673E-03  9360   0.140E-02 0.184E-04
CGA:   9    -0.381353455555E+03   -0.15379E-03   -0.15383E-03  9360   0.112E-02-0.507E-05
CGA:  10    -0.381353537996E+03   -0.82441E-04   -0.82605E-04  9360   0.481E-03 0.158E-05
CGA:  11    -0.381353586683E+03   -0.48687E-04   -0.48684E-04  9360   0.198E-03-0.289E-06
CGA:  12    -0.381353615513E+03   -0.28830E-04   -0.28824E-04  9360   0.193E-03 0.670E-07
CGA:  13    -0.381353629106E+03   -0.13593E-04   -0.13566E-04  9360   0.917E-04-0.385E-06
CGA:  14    -0.381353641500E+03   -0.12394E-04   -0.12375E-04  9360   0.684E-04 0.556E-06
CGA:  15    -0.381353650806E+03   -0.93057E-05   -0.93086E-05  9360   0.541E-04-0.703E-07
 114 F= -.38135365E+03 E0= -.38134550E+03  d E =0.897397E-04  mag=    58.0000
       N       E                     dE             d eps       ncg     rms          ort
SDA:   1    -0.381300781823E+03    0.52860E-01    0.00000E+00  9360   0.147E+00 0.000E+00
CGA:   2    -0.381322865996E+03   -0.22084E-01   -0.21586E-01  9360   0.241E+00 0.952E-02
CGA:   3    -0.381342186926E+03   -0.19321E-01   -0.18902E-01  9360   0.659E-01-0.703E-03
CGA:   4    -0.381348349165E+03   -0.61622E-02   -0.61804E-02  9360   0.268E-01 0.576E-03
CGA:   5    -0.381351135043E+03   -0.27859E-02   -0.27846E-02  9360   0.127E-01-0.282E-03
CGA:   6    -0.381351903272E+03   -0.76823E-03   -0.77650E-03  9360   0.444E-02-0.375E-04
CGA:   7    -0.381352341463E+03   -0.43819E-03   -0.43815E-03  9360   0.151E-02-0.401E-05
CGA:   8    -0.381352520755E+03   -0.17929E-03   -0.17927E-03  9360   0.965E-03 0.699E-06
CGA:   9    -0.381352580588E+03   -0.59833E-04   -0.59627E-04  9360   0.347E-03 0.119E-06
CGA:  10    -0.381352625291E+03   -0.44703E-04   -0.44664E-04  9360   0.177E-03 0.118E-05
CGA:  11    -0.381352641861E+03   -0.16570E-04   -0.16560E-04  9360   0.959E-04-0.650E-06
CGA:  12    -0.381352650493E+03   -0.86316E-05   -0.86343E-05  9360   0.779E-04 0.141E-06
 115 F= -.38135265E+03 E0= -.38134448E+03  d E =0.100031E-02  mag=    58.0000
       N       E                     dE             d eps       ncg     rms          ort
SDA:   1    -0.367537301334E+03    0.13815E+02    0.00000E+00  9360   0.351E+02 0.000E+00
CGA:   2    -0.377413363650E+03   -0.98761E+01   -0.92015E+01  9360   0.249E+02 0.249E+01
CGA:   3    -0.379752398033E+03   -0.23390E+01   -0.25640E+01  9360   0.606E+01 0.632E+01
CGA:   4    -0.380438973596E+03   -0.68658E+00   -0.63996E+00  9360   0.911E+01-0.139E+01
CGA:   5    -0.380650080345E+03   -0.21111E+00   -0.19150E+00  9360   0.798E+01 0.167E+00
CGA:   6    -0.380914253904E+03   -0.26417E+00   -0.20407E+00  9360   0.691E+01 0.236E+01
CGA:   7    -0.381077793309E+03   -0.16354E+00   -0.17074E+00  9360   0.200E+01-0.989E+00
CGA:   8    -0.381155094006E+03   -0.77301E-01   -0.99339E-01  9360   0.182E+01-0.235E-01
CGA:   9    -0.381213792907E+03   -0.58699E-01   -0.46879E-01  9360   0.755E+00 0.359E+00
CGA:  10    -0.381245595749E+03   -0.31803E-01   -0.25312E-01  9360   0.611E+00 0.158E+00
CGA:  11    -0.381264614325E+03   -0.19019E-01   -0.15041E-01  9360   0.604E+00 0.155E+00
CGA:  12    -0.381282144340E+03   -0.17530E-01   -0.19443E-01  9360   0.685E+00-0.596E-01
CGA:  13    -0.381292282786E+03   -0.10138E-01   -0.11589E-01  9360   0.463E+00-0.659E-01
CGA:  14    -0.381298377260E+03   -0.60945E-02   -0.84318E-02  9360   0.353E+00-0.965E-01
CGA:  15    -0.381305084558E+03   -0.67073E-02   -0.79292E-02  9360   0.300E+00-0.277E-01
CGA:  16    -0.381310455104E+03   -0.53705E-02   -0.47371E-02  9360   0.141E+00 0.309E-01
CGA:  17    -0.381313596600E+03   -0.31415E-02   -0.30242E-02  9360   0.895E-01 0.445E-02
CGA:  18    -0.381315998847E+03   -0.24022E-02   -0.22177E-02  9360   0.100E+00 0.543E-02
CGA:  19    -0.381318681352E+03   -0.26825E-02   -0.26926E-02  9360   0.115E+00-0.408E-03
CGA:  20    -0.381321194943E+03   -0.25136E-02   -0.28516E-02  9360   0.873E-01-0.914E-02
CGA:  21    -0.381322842500E+03   -0.16476E-02   -0.17910E-02  9360   0.639E-01-0.462E-02
CGA:  22    -0.381324789446E+03   -0.19469E-02   -0.20883E-02  9360   0.682E-01-0.113E-02
CGA:  23    -0.381326663478E+03   -0.18740E-02   -0.17534E-02  9360   0.296E-01 0.274E-02
CGA:  24    -0.381327350921E+03   -0.68744E-03   -0.67133E-03  9360   0.143E-01 0.498E-03
CGA:  25    -0.381327840139E+03   -0.48922E-03   -0.48301E-03  9360   0.169E-01 0.516E-04
CGA:  26    -0.381328482220E+03   -0.64208E-03   -0.64206E-03  9360   0.215E-01 0.143E-04
CGA:  27    -0.381329134507E+03   -0.65229E-03   -0.66815E-03  9360   0.166E-01-0.120E-03
CGA:  28    -0.381329629732E+03   -0.49523E-03   -0.50464E-03  9360   0.134E-01-0.551E-04
CGA:  29    -0.381330077134E+03   -0.44740E-03   -0.44975E-03  9360   0.930E-02 0.222E-04
CGA:  30    -0.381330321399E+03   -0.24426E-03   -0.23967E-03  9360   0.514E-02 0.959E-04
CGA:  31    -0.381330495652E+03   -0.17425E-03   -0.17377E-03  9360   0.614E-02-0.226E-05
SDA:  32    -0.381330756338E+03   -0.26069E-03   -0.26051E-03  9360   0.872E-02-0.168E-04
CGA:  33    -0.381331091733E+03   -0.33539E-03   -0.33639E-03  9360   0.143E-02 0.262E-04
CGA:  34    -0.381331366772E+03   -0.27504E-03   -0.27623E-03  9360   0.112E-02-0.603E-05
CGA:  35    -0.381331536156E+03   -0.16938E-03   -0.17036E-03  9360   0.520E-03-0.105E-04
CGA:  36    -0.381331591020E+03   -0.54864E-04   -0.54661E-04  9360   0.561E-03 0.415E-05
CGA:  37    -0.381331660130E+03   -0.69110E-04   -0.69119E-04  9360   0.550E-03-0.157E-06
CGA:  38    -0.381331709127E+03   -0.48998E-04   -0.48870E-04  9360   0.255E-03 0.478E-05
CGA:  39    -0.381331767860E+03   -0.58733E-04   -0.59265E-04  9360   0.252E-03-0.341E-05
CGA:  40    -0.381331809707E+03   -0.41847E-04   -0.42096E-04  9360   0.100E-03-0.264E-05
CGA:  41    -0.381331819561E+03   -0.98542E-05   -0.98550E-05  9360   0.153E-03-0.970E-07
CGA:  42    -0.381331844101E+03   -0.24539E-04   -0.24611E-04  9360   0.520E-04-0.887E-06
CGA:  43    -0.381331850665E+03   -0.65642E-05   -0.65615E-05  9360   0.423E-04 0.566E-07
 116 F= -.38133185E+03 E0= -.38132358E+03  d E =0.207998E-01  mag=    58.0000
       N       E                     dE             d eps       ncg     rms          ort
SDA:   1    -0.377511636980E+03    0.38202E+01    0.00000E+00  9360   0.103E+02 0.000E+00
CGA:   2    -0.379716382971E+03   -0.22047E+01   -0.19683E+01  9360   0.743E+01 0.199E+01
CGA:   3    -0.380574897531E+03   -0.85851E+00   -0.95294E+00  9360   0.972E+01-0.397E+01
CGA:   4    -0.380895753702E+03   -0.32086E+00   -0.50554E+00  9360   0.212E+01-0.151E+01
CGA:   5    -0.381043570433E+03   -0.14782E+00   -0.22489E+00  9360   0.463E+01-0.159E+01
CGA:   6    -0.381160247350E+03   -0.11668E+00   -0.22108E+00  9360   0.107E+01-0.124E+01
CGA:   7    -0.381234627484E+03   -0.74380E-01   -0.75502E-01  9360   0.634E+00-0.171E+00
CGA:   8    -0.381298153205E+03   -0.63526E-01   -0.62130E-01  9360   0.288E+00 0.420E-01
CGA:   9    -0.381321726609E+03   -0.23573E-01   -0.22875E-01  9360   0.143E+00-0.951E-02
CGA:  10    -0.381336819464E+03   -0.15093E-01   -0.14916E-01  9360   0.625E-01 0.740E-02
CGA:  11    -0.381341951626E+03   -0.51322E-02   -0.50224E-02  9360   0.222E-01-0.178E-02
CGA:  12    -0.381343835173E+03   -0.18835E-02   -0.18866E-02  9360   0.123E-01 0.276E-03
CGA:  13    -0.381345142460E+03   -0.13073E-02   -0.13111E-02  9360   0.727E-02-0.180E-03
CGA:  14    -0.381345832011E+03   -0.68955E-03   -0.68921E-03  9360   0.405E-02 0.598E-04
CGA:  15    -0.381346181586E+03   -0.34958E-03   -0.34905E-03  9360   0.212E-02-0.281E-04
CGA:  16    -0.381346452470E+03   -0.27088E-03   -0.26970E-03  9360   0.177E-02 0.269E-04
CGA:  17    -0.381346617607E+03   -0.16514E-03   -0.16511E-03  9360   0.107E-02-0.414E-05
CGA:  18    -0.381346726169E+03   -0.10856E-03   -0.10849E-03  9360   0.603E-03 0.675E-05
CGA:  19    -0.381346791385E+03   -0.65217E-04   -0.65219E-04  9360   0.446E-03 0.738E-06
CGA:  20    -0.381346832537E+03   -0.41152E-04   -0.41165E-04  9360   0.237E-03 0.288E-05
CGA:  21    -0.381346856078E+03   -0.23541E-04   -0.23544E-04  9360   0.125E-03-0.385E-06
CGA:  22    -0.381346868492E+03   -0.12414E-04   -0.12411E-04  9360   0.878E-04 0.699E-06
CGA:  23    -0.381346877011E+03   -0.85189E-05   -0.85188E-05  9360   0.477E-04 0.130E-06
 117 F= -.38134688E+03 E0= -.38133867E+03  d E =-.150263E-01  mag=    58.0000
       N       E                     dE             d eps       ncg     rms          ort
SDA:   1    -0.381164097398E+03    0.18277E+00    0.00000E+00  9360   0.717E+00 0.000E+00
CGA:   2    -0.381226336752E+03   -0.62239E-01   -0.63029E-01  9360   0.657E+00 0.367E-01
CGA:   3    -0.381298791934E+03   -0.72455E-01   -0.73225E-01  9360   0.367E+00-0.452E-01
CGA:   4    -0.381326782510E+03   -0.27991E-01   -0.28371E-01  9360   0.120E+00 0.950E-02
CGA:   5    -0.381342488137E+03   -0.15706E-01   -0.15881E-01  9360   0.555E-01-0.397E-02
CGA:   6    -0.381345658156E+03   -0.31700E-02   -0.32285E-02  9360   0.224E-01-0.206E-03
CGA:   7    -0.381347998236E+03   -0.23401E-02   -0.23448E-02  9360   0.757E-02-0.296E-03
CGA:   8    -0.381348687904E+03   -0.68967E-03   -0.69045E-03  9360   0.381E-02 0.956E-04
CGA:   9    -0.381349016042E+03   -0.32814E-03   -0.32788E-03  9360   0.227E-02-0.866E-05
CGA:  10    -0.381349211294E+03   -0.19525E-03   -0.19548E-03  9360   0.858E-03 0.108E-04
CGA:  11    -0.381349320256E+03   -0.10896E-03   -0.10907E-03  9360   0.541E-03-0.264E-05
CGA:  12    -0.381349362824E+03   -0.42569E-04   -0.42611E-04  9360   0.359E-03 0.111E-05
CGA:  13    -0.381349406270E+03   -0.43445E-04   -0.43450E-04  9360   0.188E-03-0.106E-06
CGA:  14    -0.381349428672E+03   -0.22402E-04   -0.22398E-04  9360   0.172E-03 0.411E-07
CGA:  15    -0.381349446659E+03   -0.17987E-04   -0.17993E-04  9360   0.142E-03-0.875E-06
CGA:  16    -0.381349460598E+03   -0.13939E-04   -0.13939E-04  9360   0.674E-04 0.248E-06
CGA:  17    -0.381349470507E+03   -0.99092E-05   -0.99208E-05  9360   0.677E-04-0.224E-06
 118 F= -.38134947E+03 E0= -.38134125E+03  d E =-.259350E-02  mag=    58.0000
       N       E                     dE             d eps       ncg     rms          ort
SDA:   1    -0.381241972712E+03    0.10749E+00    0.00000E+00  9360   0.268E+00 0.000E+00
CGA:   2    -0.381315458471E+03   -0.73486E-01   -0.73009E-01  9360   0.242E+00 0.315E-02
CGA:   3    -0.381330854328E+03   -0.15396E-01   -0.14694E-01  9360   0.122E+00 0.369E-02
CGA:   4    -0.381343260793E+03   -0.12406E-01   -0.12416E-01  9360   0.270E-01 0.718E-03
CGA:   5    -0.381347071308E+03   -0.38105E-02   -0.38093E-02  9360   0.769E-02 0.285E-04
CGA:   6    -0.381347965343E+03   -0.89404E-03   -0.89400E-03  9360   0.490E-02 0.205E-05
CGA:   7    -0.381348295856E+03   -0.33051E-03   -0.32764E-03  9360   0.199E-02 0.660E-05
CGA:   8    -0.381348471504E+03   -0.17565E-03   -0.17591E-03  9360   0.925E-03 0.496E-05
CGA:   9    -0.381348574004E+03   -0.10250E-03   -0.10250E-03  9360   0.259E-03-0.409E-06
CGA:  10    -0.381348615275E+03   -0.41271E-04   -0.41283E-04  9360   0.121E-03-0.159E-06
CGA:  11    -0.381348628197E+03   -0.12922E-04   -0.12922E-04  9360   0.135E-03-0.278E-06
CGA:  12    -0.381348638876E+03   -0.10679E-04   -0.10696E-04  9360   0.444E-04 0.379E-06
CGA:  13    -0.381348646427E+03   -0.75510E-05   -0.75317E-05  9360   0.399E-04 0.330E-06
 119 F= -.38134865E+03 E0= -.38134043E+03  d E =0.824081E-03  mag=    58.0000
       N       E                     dE             d eps       ncg     rms          ort
SDA:   1    -0.381182452923E+03    0.16619E+00    0.00000E+00  9360   0.412E+00 0.000E+00
CGA:   2    -0.381295893570E+03   -0.11344E+00   -0.11228E+00  9360   0.363E+00 0.763E-02
CGA:   3    -0.381326280044E+03   -0.30386E-01   -0.28803E-01  9360   0.150E+00 0.783E-03
CGA:   4    -0.381338129446E+03   -0.11849E-01   -0.12105E-01  9360   0.801E-01 0.382E-03
CGA:   5    -0.381344664108E+03   -0.65347E-02   -0.63942E-02  9360   0.176E-01-0.270E-03
CGA:   6    -0.381346917571E+03   -0.22535E-02   -0.22520E-02  9360   0.712E-02 0.572E-04
CGA:   7    -0.381347498783E+03   -0.58121E-03   -0.57788E-03  9360   0.497E-02-0.117E-04
CGA:   8    -0.381347894581E+03   -0.39580E-03   -0.39786E-03  9360   0.124E-02 0.756E-05
CGA:   9    -0.381348071577E+03   -0.17700E-03   -0.17753E-03  9360   0.637E-03-0.120E-04
CGA:  10    -0.381348122101E+03   -0.50524E-04   -0.50631E-04  9360   0.344E-03 0.551E-06
CGA:  11    -0.381348152602E+03   -0.30501E-04   -0.30464E-04  9360   0.205E-03-0.641E-06
CGA:  12    -0.381348174567E+03   -0.21965E-04   -0.21967E-04  9360   0.917E-04 0.662E-06
CGA:  13    -0.381348188243E+03   -0.13676E-04   -0.13694E-04  9360   0.819E-04-0.411E-06
CGA:  14    -0.381348194660E+03   -0.64168E-05   -0.64257E-05  9360   0.586E-04 0.186E-06
 120 F= -.38134819E+03 E0= -.38133998E+03  d E =0.451767E-03  mag=    58.0000
