       N       E                     dE             d eps       ncg     rms          rms(c)
DAV:   1     0.219844933736E+04    0.21984E+04   -0.10195E+05118160   0.182E+03
DAV:   2     0.173069845066E+02   -0.21811E+04   -0.20683E+04107215   0.561E+02
DAV:   3    -0.216468402916E+03   -0.23378E+03   -0.22810E+03115260   0.203E+02
DAV:   4    -0.226879341674E+03   -0.10411E+02   -0.10281E+02145715   0.383E+01
DAV:   5    -0.227374134327E+03   -0.49479E+00   -0.48098E+00167465   0.657E+00    0.312E+01
DAV:   6    -0.178609209184E+03    0.48765E+02   -0.13718E+02128585   0.679E+01    0.483E+01
DAV:   7    -0.178321879178E+03    0.28733E+00   -0.81366E+00123850   0.219E+01    0.318E+01
DAV:   8    -0.177810340260E+03    0.51154E+00   -0.33406E+00120160   0.187E+01    0.159E+01
DAV:   9    -0.177954489857E+03   -0.14415E+00   -0.10974E+00113415   0.595E+00    0.198E+00
DAV:  10    -0.177947893771E+03    0.65961E-02   -0.22298E-01142300   0.324E+00    0.575E-01
DAV:  11    -0.177949660691E+03   -0.17669E-02   -0.32850E-02128755   0.106E+00    0.365E-01
DAV:  12    -0.177949512764E+03    0.14793E-03   -0.57247E-03135235   0.511E-01    0.137E-01
DAV:  13    -0.177949576533E+03   -0.63769E-04   -0.13115E-03138500   0.230E-01    0.554E-02
DAV:  14    -0.177949676487E+03   -0.99954E-04   -0.14025E-04112145   0.741E-02    0.358E-02
DAV:  15    -0.177949685859E+03   -0.93723E-05   -0.30984E-05 89915   0.354E-02
   1 F= -.17794969E+03 E0= -.17794969E+03  d E =-.177950E+03  mag=     8.0002
       N       E                     dE             d eps       ncg     rms          rms(c)
DAV:   1    -0.177913539616E+03    0.36137E-01   -0.71558E-01126200   0.164E+01    0.680E-01
DAV:   2    -0.177949873493E+03   -0.36334E-01   -0.35257E-01106945   0.244E+00    0.340E-01
DAV:   3    -0.177951160122E+03   -0.12866E-02   -0.93135E-03133285   0.446E-01    0.181E-01
DAV:   4    -0.177951169653E+03   -0.95317E-05   -0.25430E-04141275   0.976E-02    0.133E-01
DAV:   5    -0.177951177143E+03   -0.74900E-05   -0.10887E-04124040   0.120E-01    0.482E-02
DAV:   6    -0.177951171101E+03    0.60419E-05   -0.40209E-05 96415   0.407E-02
   2 F= -.17795117E+03 E0= -.17795117E+03  d E =-.148524E-02  mag=     8.0000
       N       E                     dE             d eps       ncg     rms          rms(c)
DAV:   1    -0.177949039555E+03    0.21376E-02   -0.42949E-02125435   0.400E+00    0.164E-01
DAV:   2    -0.177951195188E+03   -0.21556E-02   -0.20911E-02106890   0.603E-01    0.815E-02
DAV:   3    -0.177951260442E+03   -0.65254E-04   -0.54040E-04126000   0.107E-01    0.434E-02
DAV:   4    -0.177951263357E+03   -0.29158E-05   -0.20981E-05 71435   0.259E-02    0.320E-02
DAV:   5    -0.177951269144E+03   -0.57870E-05   -0.89762E-06 57635   0.318E-02    0.115E-02
DAV:   6    -0.177951266637E+03    0.25072E-05   -0.41790E-06 56855   0.126E-02
   3 F= -.17795127E+03 E0= -.17795127E+03  d E =-.158078E-02  mag=     8.0000
       N       E                     dE             d eps       ncg     rms          rms(c)
DAV:   1    -0.177916829807E+03    0.34439E-01   -0.73419E-01121140   0.159E+01    0.655E-01
DAV:   2    -0.177950405917E+03   -0.33576E-01   -0.32735E-01106735   0.237E+00    0.332E-01
DAV:   3    -0.177951745510E+03   -0.13396E-02   -0.86411E-03131345   0.429E-01    0.174E-01
DAV:   4    -0.177951722616E+03    0.22893E-04   -0.19190E-04132160   0.916E-02    0.126E-01
DAV:   5    -0.177951774166E+03   -0.51550E-04   -0.10033E-04121685   0.111E-01    0.466E-02
DAV:   6    -0.177951741461E+03    0.32705E-04   -0.34420E-05 85970   0.406E-02    0.138E-02
DAV:   7    -0.177951736000E+03    0.54610E-05   -0.13980E-05 61770   0.245E-02
   4 F= -.17795174E+03 E0= -.17795174E+03  d E =-.469363E-03  mag=     8.0000
       N       E                     dE             d eps       ncg     rms          rms(c)
DAV:   1    -0.177950142759E+03    0.15987E-02   -0.34438E-02121630   0.345E+00    0.140E-01
DAV:   2    -0.177951746476E+03   -0.16037E-02   -0.15326E-02106840   0.507E-01    0.712E-02
DAV:   3    -0.177951787166E+03   -0.40690E-04   -0.40581E-04127090   0.936E-02    0.374E-02
DAV:   4    -0.177951785601E+03    0.15649E-05   -0.70236E-06 60405   0.199E-02    0.272E-02
DAV:   5    -0.177951770555E+03    0.15046E-04   -0.67487E-06 54180   0.284E-02    0.891E-03
DAV:   6    -0.177951777733E+03   -0.71782E-05   -0.33280E-06 53955   0.121E-02
   5 F= -.17795178E+03 E0= -.17795178E+03  d E =-.511096E-03  mag=     8.0000
       N       E                     dE             d eps       ncg     rms          rms(c)
DAV:   1    -0.177937827974E+03    0.13943E-01   -0.32467E-01122635   0.101E+01    0.439E-01
DAV:   2    -0.177951433933E+03   -0.13606E-01   -0.13521E-01105500   0.159E+00    0.213E-01
DAV:   3    -0.177952079297E+03   -0.64536E-03   -0.37498E-03118895   0.307E-01    0.118E-01
DAV:   4    -0.177952021722E+03    0.57576E-04   -0.16127E-04122830   0.735E-02    0.866E-02
DAV:   5    -0.177952017457E+03    0.42642E-05   -0.34190E-05 99280   0.591E-02    0.393E-02
DAV:   6    -0.177951969432E+03    0.48025E-04   -0.18258E-05 77835   0.333E-02    0.903E-03
DAV:   7    -0.177951953755E+03    0.15677E-04   -0.65363E-06 56070   0.148E-02    0.498E-03
DAV:   8    -0.177951953890E+03   -0.13441E-06   -0.15265E-06 54675   0.702E-03
   6 F= -.17795195E+03 E0= -.17795195E+03  d E =-.176157E-03  mag=     8.0000
       N       E                     dE             d eps       ncg     rms          rms(c)
DAV:   1    -0.177950245321E+03    0.17084E-02   -0.42021E-02122930   0.363E+00    0.157E-01
DAV:   2    -0.177951988583E+03   -0.17433E-02   -0.17418E-02105520   0.572E-01    0.756E-02
DAV:   3    -0.177951988125E+03    0.45762E-06   -0.47732E-04118870   0.111E-01    0.425E-02
DAV:   4    -0.177952007022E+03   -0.18896E-04   -0.18390E-05 64815   0.264E-02    0.315E-02
DAV:   5    -0.177952001975E+03    0.50468E-05   -0.71699E-06 55030   0.239E-02    0.138E-02
DAV:   6    -0.177952019671E+03   -0.17696E-04   -0.31820E-06 52830   0.140E-02    0.445E-03
DAV:   7    -0.177952033879E+03   -0.14208E-04   -0.13683E-06 52700   0.817E-03    0.375E-03
DAV:   8    -0.177952032729E+03    0.11491E-05   -0.58385E-07 52660   0.473E-03
   7 F= -.17795203E+03 E0= -.17795203E+03  d E =-.254996E-03  mag=     8.0000
