       N       E                     dE             d eps       ncg     rms          rms(c)
DAV:   1     0.371377427357E+04    0.37138E+04   -0.15275E+05 28488   0.153E+03
DAV:   2     0.225969787617E+03   -0.34878E+04   -0.33352E+04 28048   0.469E+02
DAV:   3    -0.217389034775E+03   -0.44336E+03   -0.43204E+03 30960   0.176E+02
DAV:   4    -0.237890676940E+03   -0.20502E+02   -0.20060E+02 36568   0.410E+01
DAV:   5    -0.239174989291E+03   -0.12843E+01   -0.12626E+01 48808   0.776E+00    0.497E+01
DAV:   6    -0.220220546353E+03    0.18954E+02   -0.14622E+02 38496   0.376E+01    0.264E+01
DAV:   7    -0.223106036092E+03   -0.28855E+01   -0.15076E+01 37944   0.164E+01    0.240E+01
DAV:   8    -0.222557824824E+03    0.54821E+00   -0.73819E+00 38624   0.870E+00    0.155E+01
DAV:   9    -0.223314803673E+03   -0.75698E+00   -0.34844E+00 37952   0.735E+00    0.181E+01
DAV:  10    -0.223216419128E+03    0.98385E-01   -0.98519E+00 37632   0.528E+00    0.103E+01
DAV:  11    -0.222910222231E+03    0.30620E+00   -0.77728E-01 38128   0.372E+00    0.986E+00
DAV:  12    -0.222748426459E+03    0.16180E+00   -0.51518E-01 39120   0.247E+00    0.676E+00
DAV:  13    -0.222753180267E+03   -0.47538E-02   -0.13932E+00 39496   0.224E+00    0.742E+00
DAV:  14    -0.222709023805E+03    0.44156E-01   -0.81300E-01 37976   0.174E+00    0.462E+00
DAV:  15    -0.222726633607E+03   -0.17610E-01   -0.43411E-01 38816   0.135E+00    0.442E+00
DAV:  16    -0.222699839576E+03    0.26794E-01   -0.91490E-02 37920   0.818E-01    0.277E+00
DAV:  17    -0.222691044203E+03    0.87954E-02   -0.92762E-02 38752   0.680E-01    0.138E+00
DAV:  18    -0.222692449905E+03   -0.14057E-02   -0.34617E-03 36744   0.261E-01    0.121E+00
DAV:  19    -0.222691335365E+03    0.11145E-02   -0.19018E-03 38128   0.220E-01    0.939E-01
DAV:  20    -0.222689954191E+03    0.13812E-02   -0.42122E-03 37600   0.269E-01    0.556E-01
DAV:  21    -0.222690611717E+03   -0.65753E-03   -0.64066E-03 36528   0.305E-01    0.573E-01
DAV:  22    -0.222690572532E+03    0.39185E-04   -0.16675E-03 37520   0.216E-01    0.428E-01
DAV:  23    -0.222690339617E+03    0.23291E-03   -0.53113E-04 38152   0.105E-01    0.229E-01
DAV:  24    -0.222690304631E+03    0.34986E-04   -0.17474E-04 35952   0.570E-02    0.160E-01
DAV:  25    -0.222690274873E+03    0.29759E-04   -0.23498E-04 31400   0.596E-02    0.502E-02
DAV:  26    -0.222690293769E+03   -0.18896E-04   -0.54826E-05 27592   0.308E-02    0.422E-02
DAV:  27    -0.222690292287E+03    0.14819E-05   -0.13343E-05 17464   0.155E-02
   1 F= -.22269029E+03 E0= -.22267431E+03  d E =-.222690E+03  mag=    22.0012
       N       E                     dE             d eps       ncg     rms          rms(c)
DAV:   1    -0.222690395990E+03   -0.10222E-03   -0.34368E-03 31528   0.283E-01    0.284E-02
DAV:   2    -0.222690434081E+03   -0.38091E-04   -0.30363E-04 32600   0.607E-02    0.719E-02
DAV:   3    -0.222690424984E+03    0.90969E-05   -0.38854E-05 24152   0.308E-02    0.262E-02
DAV:   4    -0.222690426619E+03   -0.16350E-05   -0.12705E-05 15520   0.127E-02
   2 F= -.22269043E+03 E0= -.22267444E+03  d E =-.134332E-03  mag=    22.0002
       N       E                     dE             d eps       ncg     rms          rms(c)
DAV:   1    -0.222688915916E+03    0.15091E-02   -0.27465E-01 31016   0.251E+00    0.193E-01
DAV:   2    -0.222691233143E+03   -0.23172E-02   -0.21674E-02 28520   0.461E-01    0.223E-01
DAV:   3    -0.222691421351E+03   -0.18821E-03   -0.17639E-03 38560   0.126E-01    0.331E-01
DAV:   4    -0.222691272122E+03    0.14923E-03   -0.69040E-04 32744   0.799E-02    0.870E-02
DAV:   5    -0.222691287200E+03   -0.15078E-04   -0.56839E-05 26352   0.411E-02    0.778E-02
DAV:   6    -0.222691293362E+03   -0.61626E-05   -0.11485E-04 26328   0.390E-02    0.918E-02
DAV:   7    -0.222691288692E+03    0.46707E-05   -0.16549E-04 27072   0.425E-02    0.653E-02
DAV:   8    -0.222691289458E+03   -0.76644E-06   -0.60936E-05 22232   0.322E-02
   3 F= -.22269129E+03 E0= -.22267530E+03  d E =-.862839E-03  mag=    22.0000
       N       E                     dE             d eps       ncg     rms          rms(c)
DAV:   1    -0.222688685318E+03    0.26034E-02   -0.47993E-01 30296   0.301E+00    0.205E-01
DAV:   2    -0.222691598496E+03   -0.29132E-02   -0.27717E-02 28296   0.546E-01    0.232E-01
DAV:   3    -0.222691794698E+03   -0.19620E-03   -0.18924E-03 38376   0.135E-01    0.341E-01
DAV:   4    -0.222691638971E+03    0.15573E-03   -0.84324E-04 35616   0.837E-02    0.111E-01
DAV:   5    -0.222691651356E+03   -0.12384E-04   -0.75146E-05 26936   0.479E-02    0.990E-02
DAV:   6    -0.222691662889E+03   -0.11533E-04   -0.16650E-04 28064   0.446E-02    0.128E-01
DAV:   7    -0.222691641834E+03    0.21055E-04   -0.16041E-04 32112   0.529E-02    0.555E-02
DAV:   8    -0.222691649299E+03   -0.74649E-05   -0.44494E-05 25216   0.348E-02
   4 F= -.22269165E+03 E0= -.22267562E+03  d E =-.359841E-03  mag=    22.0000
       N       E                     dE             d eps       ncg     rms          rms(c)
DAV:   1    -0.222691195317E+03    0.44652E-03   -0.21178E-01 30032   0.151E+00    0.812E-02
DAV:   2    -0.222691832357E+03   -0.63704E-03   -0.64090E-03 28136   0.266E-01    0.107E-01
DAV:   3    -0.222691844071E+03   -0.11714E-04   -0.37014E-04 38232   0.645E-02    0.123E-01
DAV:   4    -0.222691821980E+03    0.22091E-04   -0.13703E-04 25456   0.386E-02    0.566E-02
DAV:   5    -0.222691821840E+03    0.13979E-06   -0.19760E-05 18728   0.222E-02
   5 F= -.22269182E+03 E0= -.22267575E+03  d E =-.172541E-03  mag=    22.0000
       N       E                     dE             d eps       ncg     rms          rms(c)
DAV:   1    -0.222637077604E+03    0.54744E-01   -0.19253E+01 29016   0.143E+01    0.751E-01
DAV:   2    -0.222692634319E+03   -0.55557E-01   -0.56335E-01 27664   0.242E+00    0.807E-01
DAV:   3    -0.222695035902E+03   -0.24016E-02   -0.38318E-02 40800   0.563E-01    0.135E+00
DAV:   4    -0.222691856027E+03    0.31799E-02   -0.14780E-02 39432   0.331E-01    0.398E-01
DAV:   5    -0.222692190740E+03   -0.33471E-03   -0.29462E-03 39928   0.183E-01    0.513E-01
DAV:   6    -0.222691662601E+03    0.52814E-03   -0.25574E-03 37576   0.201E-01    0.362E-01
DAV:   7    -0.222691479934E+03    0.18267E-03   -0.12624E-03 38264   0.194E-01    0.209E-01
DAV:   8    -0.222691487769E+03   -0.78351E-05   -0.49026E-04 38240   0.113E-01    0.147E-01
DAV:   9    -0.222691464435E+03    0.23334E-04   -0.12820E-04 29576   0.609E-02    0.805E-02
DAV:  10    -0.222691464215E+03    0.22033E-06   -0.12009E-04 24520   0.404E-02    0.875E-02
DAV:  11    -0.222691461973E+03    0.22419E-05   -0.10526E-04 23576   0.388E-02    0.686E-02
DAV:  12    -0.222691461681E+03    0.29158E-06   -0.43976E-05 23968   0.332E-02
   6 F= -.22269146E+03 E0= -.22267518E+03  d E =0.360159E-03  mag=    22.0000
       N       E                     dE             d eps       ncg     rms          rms(c)
DAV:   1    -0.222051745936E+03    0.63972E+00   -0.54378E+01 29936   0.375E+01    0.326E+00
DAV:   2    -0.222683972638E+03   -0.63223E+00   -0.57254E+00 28280   0.718E+00    0.583E+00
DAV:   3    -0.222647272953E+03    0.36700E-01   -0.81312E-01 37888   0.228E+00    0.377E+00
DAV:   4    -0.222654472798E+03   -0.71998E-02   -0.23575E-01 39320   0.132E+00    0.297E+00
DAV:   5    -0.222642799242E+03    0.11674E-01   -0.48910E-02 38408   0.868E-01    0.140E+00
DAV:   6    -0.222645127573E+03   -0.23283E-02   -0.13328E-02 38232   0.490E-01    0.130E+00
DAV:   7    -0.222644288872E+03    0.83870E-03   -0.20022E-02 38128   0.443E-01    0.101E+00
DAV:   8    -0.222645509993E+03   -0.12211E-02   -0.27987E-02 38544   0.437E-01    0.114E+00
DAV:   9    -0.222644364552E+03    0.11454E-02   -0.18076E-02 38448   0.368E-01    0.576E-01
DAV:  10    -0.222644412894E+03   -0.48342E-04   -0.25252E-03 38384   0.262E-01    0.399E-01
DAV:  11    -0.222644518721E+03   -0.10583E-03   -0.17366E-03 38336   0.160E-01    0.195E-01
DAV:  12    -0.222644583234E+03   -0.64513E-04   -0.41299E-04 37088   0.101E-01    0.189E-01
DAV:  13    -0.222644534811E+03    0.48423E-04   -0.19464E-04 29752   0.697E-02    0.119E-01
DAV:  14    -0.222644514644E+03    0.20167E-04   -0.52070E-05 26480   0.366E-02    0.763E-02
DAV:  15    -0.222644502592E+03    0.12052E-04   -0.31228E-05 24296   0.314E-02    0.374E-02
DAV:  16    -0.222644502364E+03    0.22773E-06   -0.20296E-05 20344   0.232E-02
   7 F= -.22264450E+03 E0= -.22262868E+03  d E =0.469593E-01  mag=    22.0000
       N       E                     dE             d eps       ncg     rms          rms(c)
DAV:   1    -0.222570741251E+03    0.73761E-01   -0.95783E+00 30568   0.160E+01    0.142E+00
DAV:   2    -0.222682534644E+03   -0.11179E+00   -0.10251E+00 27888   0.294E+00    0.197E+00
DAV:   3    -0.222689897095E+03   -0.73625E-02   -0.13966E-01 37808   0.993E-01    0.217E+00
DAV:   4    -0.222684209222E+03    0.56879E-02   -0.30168E-02 38960   0.560E-01    0.791E-01
DAV:   5    -0.222684309893E+03   -0.10067E-03   -0.64658E-03 41216   0.272E-01    0.530E-01
DAV:   6    -0.222684704582E+03   -0.39469E-03   -0.41895E-03 38816   0.231E-01    0.558E-01
DAV:   7    -0.222684456820E+03    0.24776E-03   -0.26453E-03 38432   0.213E-01    0.324E-01
DAV:   8    -0.222684745888E+03   -0.28907E-03   -0.24204E-03 38424   0.180E-01    0.402E-01
DAV:   9    -0.222684544347E+03    0.20154E-03   -0.17643E-03 38384   0.139E-01    0.218E-01
DAV:  10    -0.222684506004E+03    0.38343E-04   -0.26272E-04 32872   0.814E-02    0.829E-02
DAV:  11    -0.222684518292E+03   -0.12289E-04   -0.81825E-05 27112   0.489E-02    0.794E-02
DAV:  12    -0.222684518664E+03   -0.37174E-06   -0.63001E-05 24976   0.393E-02
   8 F= -.22268452E+03 E0= -.22266852E+03  d E =-.400163E-01  mag=    22.0000
       N       E                     dE             d eps       ncg     rms          rms(c)
DAV:   1    -0.222639639214E+03    0.44879E-01   -0.46674E+00 30328   0.113E+01    0.987E-01
DAV:   2    -0.222693796799E+03   -0.54158E-01   -0.49647E-01 28064   0.207E+00    0.139E+00
DAV:   3    -0.222697102531E+03   -0.33057E-02   -0.64781E-02 37936   0.715E-01    0.154E+00
DAV:   4    -0.222694424815E+03    0.26777E-02   -0.15498E-02 38656   0.399E-01    0.522E-01
DAV:   5    -0.222694578669E+03   -0.15385E-03   -0.32714E-03 41200   0.185E-01    0.380E-01
DAV:   6    -0.222694735107E+03   -0.15644E-03   -0.21304E-03 38760   0.158E-01    0.383E-01
DAV:   7    -0.222694640942E+03    0.94165E-04   -0.11543E-03 38328   0.155E-01    0.219E-01
DAV:   8    -0.222694743099E+03   -0.10216E-03   -0.85942E-04 38368   0.125E-01    0.236E-01
DAV:   9    -0.222694692943E+03    0.50156E-04   -0.67005E-04 33480   0.908E-02    0.162E-01
DAV:  10    -0.222694659056E+03    0.33887E-04   -0.14989E-04 27320   0.570E-02    0.544E-02
DAV:  11    -0.222694664499E+03   -0.54436E-05   -0.36151E-05 24344   0.331E-02
   9 F= -.22269466E+03 E0= -.22267858E+03  d E =-.101458E-01  mag=    22.0000
       N       E                     dE             d eps       ncg     rms          rms(c)
DAV:   1    -0.222694029652E+03    0.62940E-03   -0.26910E-01 29608   0.211E+00    0.140E-01
DAV:   2    -0.222695450782E+03   -0.14211E-02   -0.13307E-02 28584   0.384E-01    0.266E-01
DAV:   3    -0.222695401905E+03    0.48876E-04   -0.10928E-03 37432   0.102E-01    0.162E-01
DAV:   4    -0.222695408578E+03   -0.66729E-05   -0.23579E-04 28760   0.547E-02    0.114E-01
DAV:   5    -0.222695402181E+03    0.63972E-05   -0.98698E-05 24936   0.382E-02
  10 F= -.22269540E+03 E0= -.22267921E+03  d E =-.737682E-03  mag=    22.0000
       N       E                     dE             d eps       ncg     rms          rms(c)
DAV:   1    -0.222692312518E+03    0.30961E-02   -0.13283E+00 29352   0.366E+00    0.216E-01
DAV:   2    -0.222696322577E+03   -0.40101E-02   -0.39156E-02 30008   0.655E-01    0.449E-01
DAV:   3    -0.222696095126E+03    0.22745E-03   -0.21064E-03 37880   0.157E-01    0.241E-01
DAV:   4    -0.222696086937E+03    0.81883E-05   -0.21301E-04 35536   0.606E-02    0.197E-01
DAV:   5    -0.222696139613E+03   -0.52676E-04   -0.30394E-04 33008   0.727E-02    0.275E-01
DAV:   6    -0.222696087090E+03    0.52524E-04   -0.67663E-04 38568   0.837E-02    0.235E-01
DAV:   7    -0.222696034545E+03    0.52545E-04   -0.55746E-04 38184   0.986E-02    0.140E-01
DAV:   8    -0.222696016294E+03    0.18251E-04   -0.15191E-04 34832   0.617E-02    0.648E-02
DAV:   9    -0.222696017286E+03   -0.99223E-06   -0.70412E-05 22824   0.289E-02
  11 F= -.22269602E+03 E0= -.22267979E+03  d E =-.615105E-03  mag=    22.0000
       N       E                     dE             d eps       ncg     rms          rms(c)
DAV:   1    -0.222695072309E+03    0.94398E-03   -0.36214E-01 28976   0.210E+00    0.120E-01
DAV:   2    -0.222696270867E+03   -0.11986E-02   -0.11889E-02 27784   0.359E-01    0.143E-01
DAV:   3    -0.222696338442E+03   -0.67575E-04   -0.67328E-04 39424   0.936E-02    0.221E-01
DAV:   4    -0.222696258264E+03    0.80178E-04   -0.26313E-04 29096   0.562E-02    0.649E-02
DAV:   5    -0.222696262103E+03   -0.38397E-05   -0.44117E-05 23416   0.292E-02
  12 F= -.22269626E+03 E0= -.22268007E+03  d E =-.244818E-03  mag=    22.0000
       N       E                     dE             d eps       ncg     rms          rms(c)
DAV:   1    -0.222676307526E+03    0.19951E-01   -0.84693E+00 29376   0.870E+00    0.446E-01
DAV:   2    -0.222698084254E+03   -0.21777E-01   -0.21888E-01 28632   0.147E+00    0.752E-01
DAV:   3    -0.222697900110E+03    0.18414E-03   -0.12095E-02 40704   0.381E-01    0.614E-01
DAV:   4    -0.222697098935E+03    0.80117E-03   -0.18363E-03 39784   0.182E-01    0.189E-01
DAV:   5    -0.222697173300E+03   -0.74365E-04   -0.13262E-03 39192   0.147E-01    0.386E-01
DAV:   6    -0.222696941508E+03    0.23179E-03   -0.15248E-03 39936   0.124E-01    0.243E-01
DAV:   7    -0.222696889941E+03    0.51567E-04   -0.51574E-04 38576   0.988E-02    0.146E-01
DAV:   8    -0.222696895497E+03   -0.55560E-05   -0.28081E-04 29936   0.560E-02    0.125E-01
DAV:   9    -0.222696873496E+03    0.22001E-04   -0.13501E-04 24928   0.401E-02    0.491E-02
DAV:  10    -0.222696873766E+03   -0.26987E-06   -0.22394E-05 19960   0.266E-02
  13 F= -.22269687E+03 E0= -.22268069E+03  d E =-.611662E-03  mag=    22.0000
       N       E                     dE             d eps       ncg     rms          rms(c)
DAV:   1    -0.222175433185E+03    0.52144E+00   -0.85952E+01 29088   0.381E+01    0.254E+00
DAV:   2    -0.222648105250E+03   -0.47267E+00   -0.44921E+00 28024   0.697E+00    0.377E+00
DAV:   3    -0.222657644800E+03   -0.95395E-02   -0.39976E-01 37928   0.159E+00    0.365E+00
DAV:   4    -0.222649202553E+03    0.84422E-02   -0.13989E-01 38640   0.107E+00    0.213E+00
DAV:   5    -0.222646828649E+03    0.23739E-02   -0.18945E-02 39536   0.687E-01    0.167E+00
DAV:   6    -0.222647501142E+03   -0.67249E-03   -0.15999E-02 38704   0.541E-01    0.164E+00
DAV:   7    -0.222646831265E+03    0.66988E-03   -0.33147E-02 36040   0.648E-01    0.146E+00
DAV:   8    -0.222646101938E+03    0.72933E-03   -0.34994E-02 38240   0.530E-01    0.128E+00
DAV:   9    -0.222644182432E+03    0.19195E-02   -0.17229E-02 38360   0.406E-01    0.553E-01
DAV:  10    -0.222644153339E+03    0.29093E-04   -0.25212E-03 38576   0.232E-01    0.232E-01
DAV:  11    -0.222644198093E+03   -0.44754E-04   -0.45427E-04 37824   0.102E-01    0.160E-01
DAV:  12    -0.222644166044E+03    0.32049E-04   -0.12612E-04 30384   0.635E-02    0.100E-01
DAV:  13    -0.222644146481E+03    0.19563E-04   -0.10411E-04 31408   0.496E-02    0.834E-02
DAV:  14    -0.222644142434E+03    0.40473E-05   -0.64476E-05 27016   0.448E-02
  14 F= -.22264414E+03 E0= -.22262858E+03  d E =0.527313E-01  mag=    22.0000
       N       E                     dE             d eps       ncg     rms          rms(c)
DAV:   1    -0.222579671283E+03    0.64475E-01   -0.17866E+01 29616   0.178E+01    0.124E+00
DAV:   2    -0.222681441605E+03   -0.10177E+00   -0.96997E-01 27872   0.315E+00    0.118E+00
DAV:   3    -0.222689294335E+03   -0.78527E-02   -0.66953E-02 38464   0.737E-01    0.198E+00
DAV:   4    -0.222684086905E+03    0.52074E-02   -0.38545E-02 38552   0.476E-01    0.767E-01
DAV:   5    -0.222684463579E+03   -0.37667E-03   -0.38681E-03 41160   0.230E-01    0.663E-01
DAV:   6    -0.222684236029E+03    0.22755E-03   -0.32935E-03 38320   0.244E-01    0.558E-01
DAV:   7    -0.222684088850E+03    0.14718E-03   -0.39411E-03 37856   0.271E-01    0.416E-01
DAV:   8    -0.222684376301E+03   -0.28745E-03   -0.54765E-03 38648   0.203E-01    0.479E-01
DAV:   9    -0.222684037554E+03    0.33875E-03   -0.19055E-03 38288   0.138E-01    0.123E-01
DAV:  10    -0.222684048877E+03   -0.11323E-04   -0.94093E-05 32240   0.573E-02    0.648E-02
DAV:  11    -0.222684040994E+03    0.78827E-05   -0.32512E-05 23960   0.311E-02
  15 F= -.22268404E+03 E0= -.22266846E+03  d E =-.398986E-01  mag=    22.0000
       N       E                     dE             d eps       ncg     rms          rms(c)
DAV:   1    -0.222672682554E+03    0.11366E-01   -0.42463E+00 29408   0.827E+00    0.574E-01
DAV:   2    -0.222695315507E+03   -0.22633E-01   -0.21365E-01 28216   0.149E+00    0.830E-01
DAV:   3    -0.222695826860E+03   -0.51135E-03   -0.16528E-02 38152   0.369E-01    0.819E-01
DAV:   4    -0.222695302575E+03    0.52429E-03   -0.58820E-03 38432   0.217E-01    0.410E-01
DAV:   5    -0.222695351238E+03   -0.48663E-04   -0.10896E-03 39680   0.129E-01    0.382E-01
DAV:   6    -0.222695297360E+03    0.53878E-04   -0.91948E-04 38576   0.129E-01    0.328E-01
DAV:   7    -0.222695252873E+03    0.44487E-04   -0.10233E-03 37752   0.153E-01    0.228E-01
DAV:   8    -0.222695257131E+03   -0.42578E-05   -0.86839E-04 38544   0.121E-01    0.176E-01
DAV:   9    -0.222695245766E+03    0.11365E-04   -0.55738E-04 31528   0.713E-02    0.136E-01
DAV:  10    -0.222695219840E+03    0.25926E-04   -0.12246E-04 25384   0.417E-02    0.490E-02
DAV:  11    -0.222695218628E+03    0.12116E-05   -0.11895E-05 17552   0.193E-02
  16 F= -.22269522E+03 E0= -.22267949E+03  d E =-.111776E-01  mag=    22.0000
       N       E                     dE             d eps       ncg     rms          rms(c)
DAV:   1    -0.222692499660E+03    0.27202E-02   -0.17544E+00 29480   0.473E+00    0.297E-01
DAV:   2    -0.222699687886E+03   -0.71882E-02   -0.68033E-02 28520   0.856E-01    0.540E-01
DAV:   3    -0.222699495409E+03    0.19248E-03   -0.36677E-03 37760   0.192E-01    0.357E-01
DAV:   4    -0.222699492146E+03    0.32636E-05   -0.92160E-04 38040   0.983E-02    0.268E-01
DAV:   5    -0.222699518458E+03   -0.26312E-04   -0.40221E-04 33336   0.824E-02    0.283E-01
DAV:   6    -0.222699495998E+03    0.22460E-04   -0.42161E-04 36824   0.834E-02    0.252E-01
DAV:   7    -0.222699426822E+03    0.69176E-04   -0.41504E-04 36880   0.101E-01    0.143E-01
DAV:   8    -0.222699428547E+03   -0.17256E-05   -0.27460E-04 37064   0.827E-02    0.976E-02
DAV:   9    -0.222699428835E+03   -0.28797E-06   -0.18000E-04 27112   0.457E-02    0.859E-02
DAV:  10    -0.222699419385E+03    0.94499E-05   -0.66933E-05 22176   0.287E-02
  17 F= -.22269942E+03 E0= -.22268356E+03  d E =-.420076E-02  mag=    22.0000
       N       E                     dE             d eps       ncg     rms          rms(c)
DAV:   1    -0.222695071625E+03    0.43572E-02   -0.21555E+00 29152   0.469E+00    0.249E-01
DAV:   2    -0.222701725821E+03   -0.66542E-02   -0.64436E-02 28496   0.844E-01    0.460E-01
DAV:   3    -0.222701534723E+03    0.19110E-03   -0.20502E-03 37256   0.166E-01    0.302E-01
DAV:   4    -0.222701533353E+03    0.13693E-05   -0.60135E-04 39288   0.839E-02    0.282E-01
DAV:   5    -0.222701535787E+03   -0.24333E-05   -0.30393E-04 33776   0.771E-02    0.283E-01
DAV:   6    -0.222701537718E+03   -0.19316E-05   -0.43460E-04 35952   0.756E-02    0.294E-01
DAV:   7    -0.222701410898E+03    0.12682E-03   -0.49264E-04 35216   0.106E-01    0.156E-01
DAV:   8    -0.222701402790E+03    0.81075E-05   -0.28088E-04 38064   0.841E-02    0.934E-02
DAV:   9    -0.222701400878E+03    0.19122E-05   -0.18151E-04 27040   0.436E-02    0.800E-02
DAV:  10    -0.222701393105E+03    0.77733E-05   -0.57067E-05 21840   0.284E-02
  18 F= -.22270139E+03 E0= -.22268540E+03  d E =-.197372E-02  mag=    22.0000
       N       E                     dE             d eps       ncg     rms          rms(c)
DAV:   1    -0.222700728970E+03    0.67191E-03   -0.29825E-01 28880   0.207E+00    0.132E-01
DAV:   2    -0.222701992829E+03   -0.12639E-02   -0.12250E-02 27864   0.359E-01    0.190E-01
DAV:   3    -0.222702034987E+03   -0.42158E-04   -0.10612E-03 39376   0.107E-01    0.213E-01
DAV:   4    -0.222701981095E+03    0.53892E-04   -0.31721E-04 29760   0.614E-02    0.873E-02
DAV:   5    -0.222701977891E+03    0.32044E-05   -0.89969E-05 23552   0.316E-02
  19 F= -.22270198E+03 E0= -.22268595E+03  d E =-.584786E-03  mag=    22.0000
       N       E                     dE             d eps       ncg     rms          rms(c)
DAV:   1    -0.222700093325E+03    0.18878E-02   -0.11873E+00 29088   0.330E+00    0.170E-01
DAV:   2    -0.222703105094E+03   -0.30118E-02   -0.30743E-02 27696   0.550E-01    0.183E-01
DAV:   3    -0.222703195200E+03   -0.90106E-04   -0.16493E-03 42064   0.140E-01    0.277E-01
DAV:   4    -0.222703041727E+03    0.15347E-03   -0.56968E-04 38240   0.814E-02    0.814E-02
DAV:   5    -0.222703043715E+03   -0.19875E-05   -0.87529E-05 26792   0.434E-02
  20 F= -.22270304E+03 E0= -.22268696E+03  d E =-.106582E-02  mag=    22.0000
       N       E                     dE             d eps       ncg     rms          rms(c)
DAV:   1    -0.222697496062E+03    0.55457E-02   -0.29975E+00 29376   0.529E+00    0.310E-01
DAV:   2    -0.222706236032E+03   -0.87400E-02   -0.83742E-02 29744   0.914E-01    0.912E-01
DAV:   3    -0.222705104703E+03    0.11313E-02   -0.97027E-03 40184   0.302E-01    0.357E-01
DAV:   4    -0.222705077371E+03    0.27332E-04   -0.95170E-04 40856   0.129E-01    0.248E-01
DAV:   5    -0.222704974124E+03    0.10325E-03   -0.43365E-04 38528   0.805E-02    0.133E-01
DAV:   6    -0.222704963530E+03    0.10594E-04   -0.21098E-04 34640   0.683E-02    0.152E-01
DAV:   7    -0.222704893259E+03    0.70271E-04   -0.24266E-04 34576   0.776E-02    0.776E-02
DAV:   8    -0.222704896353E+03   -0.30940E-05   -0.90340E-05 35408   0.466E-02
  21 F= -.22270490E+03 E0= -.22268889E+03  d E =-.185264E-02  mag=    22.0000
       N       E                     dE             d eps       ncg     rms          rms(c)
DAV:   1    -0.222619086784E+03    0.85806E-01   -0.35541E+01 28512   0.182E+01    0.969E-01
DAV:   2    -0.222713405976E+03   -0.94319E-01   -0.97732E-01 27648   0.305E+00    0.751E-01
DAV:   3    -0.222717150441E+03   -0.37445E-02   -0.43890E-02 40936   0.702E-01    0.154E+00
DAV:   4    -0.222712279364E+03    0.48711E-02   -0.15960E-02 39520   0.407E-01    0.430E-01
DAV:   5    -0.222712895896E+03   -0.61653E-03   -0.42389E-03 39680   0.213E-01    0.670E-01
DAV:   6    -0.222711907500E+03    0.98840E-03   -0.40504E-03 35264   0.243E-01    0.465E-01
DAV:   7    -0.222711680621E+03    0.22688E-03   -0.27371E-03 38768   0.183E-01    0.261E-01
DAV:   8    -0.222711745762E+03   -0.65141E-04   -0.12956E-03 38568   0.113E-01    0.230E-01
DAV:   9    -0.222711666756E+03    0.79006E-04   -0.37497E-04 37336   0.785E-02    0.702E-02
DAV:  10    -0.222711674355E+03   -0.75989E-05   -0.60328E-05 27968   0.430E-02
  22 F= -.22271167E+03 E0= -.22269567E+03  d E =-.677800E-02  mag=    22.0000
       N       E                     dE             d eps       ncg     rms          rms(c)
DAV:   1    -0.222564715857E+03    0.14695E+00   -0.58262E+01 29320   0.237E+01    0.129E+00
DAV:   2    -0.222724529339E+03   -0.15981E+00   -0.16529E+00 27648   0.398E+00    0.124E+00
DAV:   3    -0.222731726934E+03   -0.71976E-02   -0.10894E-01 41016   0.958E-01    0.229E+00
DAV:   4    -0.222722640956E+03    0.90860E-02   -0.45471E-02 39280   0.568E-01    0.101E+00
DAV:   5    -0.222721953759E+03    0.68720E-03   -0.72336E-03 39696   0.300E-01    0.555E-01
DAV:   6    -0.222721802222E+03    0.15154E-03   -0.36641E-03 37632   0.326E-01    0.725E-01
DAV:   7    -0.222720732662E+03    0.10696E-02   -0.56748E-03 38984   0.300E-01    0.439E-01
DAV:   8    -0.222720803582E+03   -0.70921E-04   -0.39541E-03 38808   0.186E-01    0.396E-01
DAV:   9    -0.222720598199E+03    0.20538E-03   -0.12470E-03 39304   0.122E-01    0.147E-01
DAV:  10    -0.222720591764E+03    0.64349E-05   -0.11786E-04 34832   0.666E-02    0.105E-01
DAV:  11    -0.222720591725E+03    0.39214E-07   -0.11897E-04 27848   0.569E-02    0.116E-01
DAV:  12    -0.222720596916E+03   -0.51912E-05   -0.11536E-04 26840   0.590E-02    0.778E-02
DAV:  13    -0.222720613157E+03   -0.16241E-04   -0.52486E-05 25024   0.326E-02    0.399E-02
DAV:  14    -0.222720612541E+03    0.61585E-06   -0.85728E-06 18776   0.191E-02
  23 F= -.22272061E+03 E0= -.22270434E+03  d E =-.893819E-02  mag=    22.0000
       N       E                     dE             d eps       ncg     rms          rms(c)
DAV:   1    -0.221044057676E+03    0.16766E+01   -0.49203E+02 29064   0.703E+01    0.431E+00
DAV:   2    -0.222804909248E+03   -0.17609E+01   -0.18485E+01 27648   0.127E+01    0.449E+00
DAV:   3    -0.222839441540E+03   -0.34532E-01   -0.12153E+00 39440   0.321E+00    0.495E+00
DAV:   4    -0.222767886204E+03    0.71555E-01   -0.20793E-01 39096   0.167E+00    0.312E+00
DAV:   5    -0.222754725472E+03    0.13161E-01   -0.90131E-02 40144   0.803E-01    0.219E+00
DAV:   6    -0.222750847966E+03    0.38775E-02   -0.77886E-02 38936   0.854E-01    0.218E+00
DAV:   7    -0.222754654728E+03   -0.38068E-02   -0.88667E-02 37936   0.938E-01    0.327E+00
DAV:   8    -0.222743687782E+03    0.10967E-01   -0.52087E-02 38864   0.692E-01    0.249E+00
DAV:   9    -0.222734063744E+03    0.96240E-02   -0.38119E-02 39024   0.591E-01    0.784E-01
DAV:  10    -0.222737501929E+03   -0.34382E-02   -0.13638E-02 39520   0.443E-01    0.960E-01
DAV:  11    -0.222735582092E+03    0.19198E-02   -0.51146E-03 37968   0.300E-01    0.452E-01
DAV:  12    -0.222735443824E+03    0.13827E-03   -0.11375E-03 39248   0.172E-01    0.303E-01
DAV:  13    -0.222735422210E+03    0.21613E-04   -0.54960E-04 38424   0.117E-01    0.167E-01
DAV:  14    -0.222735537929E+03   -0.11572E-03   -0.40553E-04 37704   0.848E-02    0.145E-01
DAV:  15    -0.222735537483E+03    0.44611E-06   -0.93925E-05 29192   0.640E-02
  24 F= -.22273554E+03 E0= -.22271924E+03  d E =-.149249E-01  mag=    22.0000
       N       E                     dE             d eps       ncg     rms          rms(c)
DAV:   1    -0.222337791528E+03    0.39775E+00   -0.14325E+02 29376   0.366E+01    0.199E+00
DAV:   2    -0.222744868927E+03   -0.40708E+00   -0.41834E+00 27672   0.629E+00    0.243E+00
DAV:   3    -0.222759922168E+03   -0.15053E-01   -0.32337E-01 40696   0.152E+00    0.379E+00
DAV:   4    -0.222734770997E+03    0.25151E-01   -0.11928E-01 39320   0.879E-01    0.131E+00
DAV:   5    -0.222734318081E+03    0.45292E-03   -0.11491E-02 39112   0.491E-01    0.955E-01
DAV:   6    -0.222733662369E+03    0.65571E-03   -0.14549E-02 38296   0.453E-01    0.122E+00
DAV:   7    -0.222729995779E+03    0.36666E-02   -0.13397E-02 37112   0.458E-01    0.454E-01
DAV:   8    -0.222730811248E+03   -0.81547E-03   -0.76384E-03 38472   0.304E-01    0.702E-01
DAV:   9    -0.222730246632E+03    0.56462E-03   -0.56620E-03 39192   0.233E-01    0.342E-01
DAV:  10    -0.222730336618E+03   -0.89986E-04   -0.15638E-03 38624   0.160E-01    0.277E-01
DAV:  11    -0.222730324273E+03    0.12346E-04   -0.83450E-04 38376   0.109E-01    0.207E-01
DAV:  12    -0.222730311264E+03    0.13008E-04   -0.22564E-04 34008   0.780E-02    0.113E-01
DAV:  13    -0.222730319572E+03   -0.83076E-05   -0.65309E-05 26728   0.451E-02
  25 F= -.22273032E+03 E0= -.22271417E+03  d E =0.521791E-02  mag=    22.0000
       N       E                     dE             d eps       ncg     rms          rms(c)
DAV:   1    -0.222136507409E+03    0.59380E+00   -0.86730E+01 29848   0.412E+01    0.301E+00
DAV:   2    -0.222736928814E+03   -0.60042E+00   -0.57554E+00 28264   0.768E+00    0.533E+00
DAV:   3    -0.222728579673E+03    0.83491E-02   -0.59977E-01 38760   0.215E+00    0.429E+00
DAV:   4    -0.222714026998E+03    0.14553E-01   -0.15471E-01 38480   0.119E+00    0.226E+00
DAV:   5    -0.222713299246E+03    0.72775E-03   -0.62631E-02 38672   0.768E-01    0.169E+00
DAV:   6    -0.222713493821E+03   -0.19457E-03   -0.34624E-02 39360   0.589E-01    0.166E+00
DAV:   7    -0.222711781893E+03    0.17119E-02   -0.19861E-02 38512   0.520E-01    0.134E+00
DAV:   8    -0.222712384643E+03   -0.60275E-03   -0.27765E-02 38560   0.586E-01    0.136E+00
DAV:   9    -0.222711448592E+03    0.93605E-03   -0.14826E-02 38688   0.456E-01    0.900E-01
DAV:  10    -0.222710912371E+03    0.53622E-03   -0.86739E-03 38288   0.345E-01    0.523E-01
DAV:  11    -0.222710963427E+03   -0.51056E-04   -0.28235E-03 38432   0.221E-01    0.373E-01
DAV:  12    -0.222710917463E+03    0.45964E-04   -0.71866E-04 38232   0.144E-01    0.173E-01
DAV:  13    -0.222710995821E+03   -0.78357E-04   -0.36063E-04 37704   0.889E-02    0.159E-01
DAV:  14    -0.222710973911E+03    0.21910E-04   -0.22272E-04 30896   0.701E-02    0.107E-01
DAV:  15    -0.222710959369E+03    0.14542E-04   -0.90797E-05 27400   0.447E-02    0.475E-02
DAV:  16    -0.222710961712E+03   -0.23433E-05   -0.36733E-05 21952   0.257E-02
  26 F= -.22271096E+03 E0= -.22269471E+03  d E =0.193579E-01  mag=    22.0000
       N       E                     dE             d eps       ncg     rms          rms(c)
DAV:   1    -0.222672068546E+03    0.38891E-01   -0.54140E+00 30840   0.122E+01    0.104E+00
DAV:   2    -0.222733812628E+03   -0.61744E-01   -0.57413E-01 28384   0.225E+00    0.158E+00
DAV:   3    -0.222737467385E+03   -0.36548E-02   -0.89770E-02 38176   0.770E-01    0.182E+00
DAV:   4    -0.222734325389E+03    0.31420E-02   -0.24286E-02 38728   0.416E-01    0.739E-01
DAV:   5    -0.222734064581E+03    0.26081E-03   -0.56430E-03 39960   0.209E-01    0.376E-01
DAV:   6    -0.222734306779E+03   -0.24220E-03   -0.13308E-03 38976   0.171E-01    0.399E-01
DAV:   7    -0.222734218047E+03    0.88731E-04   -0.11567E-03 38744   0.152E-01    0.253E-01
DAV:   8    -0.222734335453E+03   -0.11741E-03   -0.10452E-03 38560   0.152E-01    0.298E-01
DAV:   9    -0.222734272930E+03    0.62522E-04   -0.84305E-04 37768   0.104E-01    0.161E-01
DAV:  10    -0.222734254416E+03    0.18514E-04   -0.14033E-04 29080   0.638E-02    0.729E-02
DAV:  11    -0.222734258007E+03   -0.35912E-05   -0.62087E-05 24704   0.350E-02
  27 F= -.22273426E+03 E0= -.22271804E+03  d E =-.232963E-01  mag=    22.0000
       N       E                     dE             d eps       ncg     rms          rms(c)
DAV:   1    -0.222719623056E+03    0.14631E-01   -0.24261E+00 30704   0.771E+00    0.618E-01
DAV:   2    -0.222742302710E+03   -0.22680E-01   -0.21199E-01 28392   0.141E+00    0.953E-01
DAV:   3    -0.222743497261E+03   -0.11946E-02   -0.27372E-02 38376   0.462E-01    0.108E+00
DAV:   4    -0.222742398487E+03    0.10988E-02   -0.72821E-03 38736   0.259E-01    0.444E-01
DAV:   5    -0.222742337136E+03    0.61351E-04   -0.21385E-03 39184   0.135E-01    0.266E-01
DAV:   6    -0.222742403532E+03   -0.66396E-04   -0.67787E-04 38160   0.111E-01    0.263E-01
DAV:   7    -0.222742362904E+03    0.40628E-04   -0.50092E-04 38072   0.105E-01    0.169E-01
DAV:   8    -0.222742401427E+03   -0.38524E-04   -0.47033E-04 37600   0.102E-01    0.176E-01
DAV:   9    -0.222742387264E+03    0.14163E-04   -0.29912E-04 30616   0.637E-02    0.106E-01
DAV:  10    -0.222742374723E+03    0.12541E-04   -0.50037E-05 24824   0.397E-02    0.417E-02
DAV:  11    -0.222742376378E+03   -0.16550E-05   -0.19377E-05 19112   0.202E-02
  28 F= -.22274238E+03 E0= -.22272620E+03  d E =-.811837E-02  mag=    22.0000
       N       E                     dE             d eps       ncg     rms          rms(c)
DAV:   1    -0.222739369311E+03    0.30054E-02   -0.94715E-01 30088   0.422E+00    0.295E-01
DAV:   2    -0.222745085654E+03   -0.57163E-02   -0.54168E-02 28496   0.751E-01    0.420E-01
DAV:   3    -0.222745395711E+03   -0.31006E-03   -0.45725E-03 38568   0.218E-01    0.516E-01
DAV:   4    -0.222745105863E+03    0.28985E-03   -0.15187E-03 38656   0.123E-01    0.205E-01
DAV:   5    -0.222745118878E+03   -0.13016E-04   -0.40948E-04 31000   0.761E-02    0.174E-01
DAV:   6    -0.222745128608E+03   -0.97299E-05   -0.39373E-04 31600   0.651E-02    0.178E-01
DAV:   7    -0.222745094693E+03    0.33915E-04   -0.23282E-04 35760   0.661E-02    0.927E-02
DAV:   8    -0.222745105762E+03   -0.11069E-04   -0.10300E-04 32528   0.590E-02    0.811E-02
DAV:   9    -0.222745103851E+03    0.19109E-05   -0.63927E-05 24416   0.355E-02
  29 F= -.22274510E+03 E0= -.22272898E+03  d E =-.272747E-02  mag=    22.0000
       N       E                     dE             d eps       ncg     rms          rms(c)
DAV:   1    -0.222736334962E+03    0.87708E-02   -0.23852E+00 29448   0.596E+00    0.371E-01
DAV:   2    -0.222746767572E+03   -0.10433E-01   -0.99826E-02 28464   0.105E+00    0.543E-01
DAV:   3    -0.222747053294E+03   -0.28572E-03   -0.58130E-03 38352   0.266E-01    0.595E-01
DAV:   4    -0.222746705611E+03    0.34768E-03   -0.23570E-03 38704   0.148E-01    0.298E-01
DAV:   5    -0.222746698186E+03    0.74250E-05   -0.48910E-04 38448   0.108E-01    0.244E-01
DAV:   6    -0.222746754605E+03   -0.56419E-04   -0.89320E-04 38328   0.930E-02    0.309E-01
DAV:   7    -0.222746643335E+03    0.11127E-03   -0.10895E-03 37448   0.105E-01    0.184E-01
DAV:   8    -0.222746634778E+03    0.85574E-05   -0.37038E-04 38248   0.898E-02    0.113E-01
DAV:   9    -0.222746633294E+03    0.14835E-05   -0.14045E-04 28816   0.515E-02    0.763E-02
DAV:  10    -0.222746625166E+03    0.81280E-05   -0.30321E-05 22232   0.285E-02
  30 F= -.22274663E+03 E0= -.22273054E+03  d E =-.152132E-02  mag=    22.0000
       N       E                     dE             d eps       ncg     rms          rms(c)
DAV:   1    -0.222732842886E+03    0.13790E-01   -0.42893E+00 28936   0.688E+00    0.372E-01
DAV:   2    -0.222746235466E+03   -0.13393E-01   -0.13153E-01 27936   0.120E+00    0.515E-01
DAV:   3    -0.222746335164E+03   -0.99698E-04   -0.45941E-03 39496   0.275E-01    0.522E-01
DAV:   4    -0.222746111393E+03    0.22377E-03   -0.24269E-03 40224   0.151E-01    0.362E-01
DAV:   5    -0.222746011732E+03    0.99661E-04   -0.79600E-04 38672   0.113E-01    0.265E-01
DAV:   6    -0.222746019092E+03   -0.73598E-05   -0.70054E-04 38688   0.951E-02    0.308E-01
DAV:   7    -0.222745887052E+03    0.13204E-03   -0.12342E-03 35960   0.118E-01    0.221E-01
DAV:   8    -0.222745854151E+03    0.32901E-04   -0.63339E-04 38352   0.980E-02    0.120E-01
DAV:   9    -0.222745860316E+03   -0.61642E-05   -0.18640E-04 28360   0.508E-02    0.907E-02
DAV:  10    -0.222745848016E+03    0.12299E-04   -0.40007E-05 22816   0.304E-02    0.447E-02
DAV:  11    -0.222745846467E+03    0.15495E-05   -0.83805E-06 15512   0.133E-02
  31 F= -.22274585E+03 E0= -.22272982E+03  d E =0.778700E-03  mag=    22.0000
       N       E                     dE             d eps       ncg     rms          rms(c)
DAV:   1    -0.222264247310E+03    0.48160E+00   -0.71860E+01 30312   0.363E+01    0.258E+00
DAV:   2    -0.222716108188E+03   -0.45186E+00   -0.43049E+00 28480   0.665E+00    0.428E+00
DAV:   3    -0.222717568386E+03   -0.14602E-02   -0.48133E-01 38440   0.178E+00    0.361E+00
DAV:   4    -0.222707311117E+03    0.10257E-01   -0.10202E-01 38280   0.102E+00    0.188E+00
DAV:   5    -0.222706507793E+03    0.80332E-03   -0.23664E-02 38744   0.677E-01    0.157E+00
DAV:   6    -0.222707178361E+03   -0.67057E-03   -0.17578E-02 38696   0.479E-01    0.160E+00
DAV:   7    -0.222706944344E+03    0.23402E-03   -0.31874E-02 38616   0.543E-01    0.162E+00
DAV:   8    -0.222705534171E+03    0.14102E-02   -0.26867E-02 38264   0.598E-01    0.110E+00
DAV:   9    -0.222704826599E+03    0.70757E-03   -0.13168E-02 38152   0.413E-01    0.643E-01
DAV:  10    -0.222704648709E+03    0.17789E-03   -0.24845E-03 38288   0.225E-01    0.332E-01
DAV:  11    -0.222704798050E+03   -0.14934E-03   -0.12465E-03 38424   0.130E-01    0.354E-01
DAV:  12    -0.222704689828E+03    0.10822E-03   -0.11066E-03 38304   0.117E-01    0.218E-01
DAV:  13    -0.222704700178E+03   -0.10350E-04   -0.34915E-04 35888   0.841E-02    0.155E-01
DAV:  14    -0.222704672129E+03    0.28049E-04   -0.18512E-04 29320   0.681E-02    0.100E-01
DAV:  15    -0.222704665919E+03    0.62101E-05   -0.88035E-05 27080   0.389E-02
  32 F= -.22270467E+03 E0= -.22268851E+03  d E =0.411805E-01  mag=    22.0000
       N       E                     dE             d eps       ncg     rms          rms(c)
DAV:   1    -0.222621270700E+03    0.83401E-01   -0.14011E+01 30864   0.181E+01    0.141E+00
DAV:   2    -0.222738454639E+03   -0.11718E+00   -0.11028E+00 28248   0.323E+00    0.188E+00
DAV:   3    -0.222747361592E+03   -0.89070E-02   -0.15559E-01 38088   0.995E-01    0.244E+00
DAV:   4    -0.222740813624E+03    0.65480E-02   -0.43416E-02 38536   0.556E-01    0.102E+00
DAV:   5    -0.222740382867E+03    0.43076E-03   -0.98569E-03 39816   0.316E-01    0.644E-01
DAV:   6    -0.222740730937E+03   -0.34807E-03   -0.43528E-03 39104   0.254E-01    0.659E-01
DAV:   7    -0.222740473487E+03    0.25745E-03   -0.34042E-03 37648   0.237E-01    0.430E-01
DAV:   8    -0.222740686749E+03   -0.21326E-03   -0.25555E-03 38576   0.241E-01    0.471E-01
DAV:   9    -0.222740538748E+03    0.14800E-03   -0.23660E-03 38544   0.165E-01    0.294E-01
DAV:  10    -0.222740449630E+03    0.89118E-04   -0.38063E-04 38296   0.106E-01    0.106E-01
DAV:  11    -0.222740461822E+03   -0.12192E-04   -0.11986E-04 27648   0.488E-02    0.948E-02
DAV:  12    -0.222740449454E+03    0.12368E-04   -0.63216E-05 24520   0.384E-02    0.543E-02
DAV:  13    -0.222740448845E+03    0.60930E-06   -0.18776E-05 21584   0.283E-02
  33 F= -.22274045E+03 E0= -.22272437E+03  d E =-.357829E-01  mag=    22.0000
       N       E                     dE             d eps       ncg     rms          rms(c)
DAV:   1    -0.222727309348E+03    0.13140E-01   -0.33073E+00 30336   0.791E+00    0.563E-01
DAV:   2    -0.222747619224E+03   -0.20310E-01   -0.19246E-01 28432   0.140E+00    0.730E-01
DAV:   3    -0.222748785111E+03   -0.11659E-02   -0.15994E-02 37936   0.387E-01    0.908E-01
DAV:   4    -0.222747896652E+03    0.88846E-03   -0.55422E-03 38504   0.226E-01    0.409E-01
DAV:   5    -0.222747911201E+03   -0.14548E-04   -0.13535E-03 38904   0.149E-01    0.340E-01
DAV:   6    -0.222747961743E+03   -0.50542E-04   -0.14568E-03 38760   0.120E-01    0.357E-01
DAV:   7    -0.222747855041E+03    0.10670E-03   -0.10367E-03 36976   0.127E-01    0.212E-01
DAV:   8    -0.222747870102E+03   -0.15060E-04   -0.42100E-04 38240   0.116E-01    0.157E-01
DAV:   9    -0.222747868324E+03    0.17777E-05   -0.28484E-04 33208   0.661E-02    0.125E-01
DAV:  10    -0.222747843278E+03    0.25046E-04   -0.67055E-05 25240   0.392E-02    0.464E-02
DAV:  11    -0.222747841774E+03    0.15044E-05   -0.11668E-05 17504   0.188E-02
  34 F= -.22274784E+03 E0= -.22273185E+03  d E =-.739293E-02  mag=    22.0000
       N       E                     dE             d eps       ncg     rms          rms(c)
DAV:   1    -0.222746420824E+03    0.14225E-02   -0.76865E-01 29544   0.320E+00    0.197E-01
DAV:   2    -0.222749500392E+03   -0.30796E-02   -0.29510E-02 28736   0.562E-01    0.269E-01
DAV:   3    -0.222749487079E+03    0.13313E-04   -0.65765E-04 36912   0.122E-01    0.186E-01
DAV:   4    -0.222749509261E+03   -0.22182E-04   -0.21001E-04 33688   0.724E-02    0.182E-01
DAV:   5    -0.222749511298E+03   -0.20371E-05   -0.14180E-04 28096   0.516E-02    0.190E-01
DAV:   6    -0.222749518076E+03   -0.67785E-05   -0.33422E-04 32632   0.590E-02    0.201E-01
DAV:   7    -0.222749462546E+03    0.55530E-04   -0.27813E-04 35936   0.741E-02    0.832E-02
DAV:   8    -0.222749471171E+03   -0.86248E-05   -0.79780E-05 30104   0.472E-02
  35 F= -.22274947E+03 E0= -.22273356E+03  d E =-.162940E-02  mag=    22.0000
       N       E                     dE             d eps       ncg     rms          rms(c)
DAV:   1    -0.222745992841E+03    0.34697E-02   -0.11063E+00 28800   0.362E+00    0.208E-01
DAV:   2    -0.222749969067E+03   -0.39762E-02   -0.37896E-02 28904   0.650E-01    0.373E-01
DAV:   3    -0.222749820168E+03    0.14890E-03   -0.10667E-03 36624   0.137E-01    0.214E-01
DAV:   4    -0.222749877125E+03   -0.56957E-04   -0.42621E-04 34576   0.714E-02    0.247E-01
DAV:   5    -0.222749849282E+03    0.27842E-04   -0.22333E-04 27928   0.494E-02    0.206E-01
DAV:   6    -0.222749873580E+03   -0.24297E-04   -0.31446E-04 35400   0.698E-02    0.234E-01
DAV:   7    -0.222749830685E+03    0.42895E-04   -0.49453E-04 37120   0.842E-02    0.183E-01
DAV:   8    -0.222749798996E+03    0.31689E-04   -0.32619E-04 33264   0.597E-02    0.914E-02
DAV:   9    -0.222749798501E+03    0.49475E-06   -0.76105E-05 25168   0.378E-02
  36 F= -.22274980E+03 E0= -.22273392E+03  d E =-.327329E-03  mag=    22.0000
       N       E                     dE             d eps       ncg     rms          rms(c)
DAV:   1    -0.222747803500E+03    0.19955E-02   -0.54416E-01 29376   0.244E+00    0.138E-01
DAV:   2    -0.222749616007E+03   -0.18125E-02   -0.17293E-02 29896   0.443E-01    0.292E-01
DAV:   3    -0.222749512093E+03    0.10391E-03   -0.90862E-04 37832   0.112E-01    0.152E-01
DAV:   4    -0.222749531715E+03   -0.19622E-04   -0.29942E-04 30408   0.572E-02    0.163E-01
DAV:   5    -0.222749506577E+03    0.25138E-04   -0.10970E-04 24960   0.401E-02    0.111E-01
DAV:   6    -0.222749507463E+03   -0.88615E-06   -0.78985E-05 22952   0.318E-02
  37 F= -.22274951E+03 E0= -.22273368E+03  d E =0.291038E-03  mag=    22.0000
       N       E                     dE             d eps       ncg     rms          rms(c)
DAV:   1    -0.222683537429E+03    0.65969E-01   -0.16752E+01 29664   0.148E+01    0.884E-01
DAV:   2    -0.222745475705E+03   -0.61938E-01   -0.59753E-01 27752   0.255E+00    0.147E+00
DAV:   3    -0.222746044172E+03   -0.56847E-03   -0.43005E-02 39048   0.683E-01    0.141E+00
DAV:   4    -0.222744109951E+03    0.19342E-02   -0.14230E-02 39232   0.359E-01    0.744E-01
DAV:   5    -0.222743548446E+03    0.56150E-03   -0.41775E-03 38920   0.219E-01    0.443E-01
DAV:   6    -0.222743782039E+03   -0.23359E-03   -0.35666E-03 39096   0.205E-01    0.616E-01
DAV:   7    -0.222743283725E+03    0.49831E-03   -0.49226E-03 37320   0.218E-01    0.367E-01
DAV:   8    -0.222743213676E+03    0.70049E-04   -0.15527E-03 38040   0.169E-01    0.239E-01
DAV:   9    -0.222743255176E+03   -0.41500E-04   -0.59238E-04 38608   0.889E-02    0.177E-01
DAV:  10    -0.222743211922E+03    0.43255E-04   -0.10261E-04 28480   0.562E-02    0.977E-02
DAV:  11    -0.222743201035E+03    0.10887E-04   -0.28758E-05 22184   0.254E-02    0.798E-02
DAV:  12    -0.222743197160E+03    0.38752E-05   -0.37672E-05 24232   0.343E-02
  38 F= -.22274320E+03 E0= -.22272764E+03  d E =0.631030E-02  mag=    22.0000
       N       E                     dE             d eps       ncg     rms          rms(c)
DAV:   1    -0.222661768029E+03    0.81433E-01   -0.18656E+01 30208   0.173E+01    0.113E+00
DAV:   2    -0.222749019055E+03   -0.87251E-01   -0.83804E-01 27648   0.293E+00    0.185E+00
DAV:   3    -0.222750486517E+03   -0.14675E-02   -0.10887E-01 39056   0.825E-01    0.173E+00
DAV:   4    -0.222747535619E+03    0.29509E-02   -0.17986E-02 39464   0.458E-01    0.701E-01
DAV:   5    -0.222747217464E+03    0.31816E-03   -0.29557E-03 39488   0.241E-01    0.370E-01
DAV:   6    -0.222747317121E+03   -0.99656E-04   -0.16533E-03 38152   0.192E-01    0.444E-01
DAV:   7    -0.222746983689E+03    0.33343E-03   -0.13150E-03 38560   0.188E-01    0.206E-01
DAV:   8    -0.222747168817E+03   -0.18513E-03   -0.87222E-04 38488   0.126E-01    0.228E-01
DAV:   9    -0.222747127605E+03    0.41212E-04   -0.80501E-04 38448   0.850E-02    0.157E-01
DAV:  10    -0.222747106606E+03    0.20999E-04   -0.16789E-04 26096   0.452E-02    0.908E-02
DAV:  11    -0.222747100304E+03    0.63019E-05   -0.37862E-05 24168   0.316E-02
  39 F= -.22274710E+03 E0= -.22273171E+03  d E =-.390314E-02  mag=    22.0000
       N       E                     dE             d eps       ncg     rms          rms(c)
DAV:   1    -0.222698581618E+03    0.48525E-01   -0.15077E+01 29352   0.136E+01    0.786E-01
DAV:   2    -0.222751913705E+03   -0.53332E-01   -0.51621E-01 27752   0.238E+00    0.118E+00
DAV:   3    -0.222751335034E+03    0.57867E-03   -0.20759E-02 38600   0.576E-01    0.800E-01
DAV:   4    -0.222751067254E+03    0.26778E-03   -0.62178E-03 39424   0.287E-01    0.594E-01
DAV:   5    -0.222750872438E+03    0.19482E-03   -0.28653E-03 39544   0.182E-01    0.508E-01
DAV:   6    -0.222751058667E+03   -0.18623E-03   -0.31471E-03 39120   0.208E-01    0.641E-01
DAV:   7    -0.222750662087E+03    0.39658E-03   -0.33896E-03 37208   0.210E-01    0.493E-01
DAV:   8    -0.222750426975E+03    0.23511E-03   -0.24199E-03 38272   0.181E-01    0.259E-01
DAV:   9    -0.222750435583E+03   -0.86078E-05   -0.79503E-04 38456   0.112E-01    0.188E-01
DAV:  10    -0.222750383847E+03    0.51736E-04   -0.27629E-04 29864   0.670E-02    0.104E-01
DAV:  11    -0.222750378070E+03    0.57772E-05   -0.10317E-04 25472   0.419E-02    0.909E-02
DAV:  12    -0.222750367445E+03    0.10625E-04   -0.58678E-05 24232   0.379E-02    0.493E-02
DAV:  13    -0.222750381769E+03   -0.14324E-04   -0.41102E-05 23416   0.323E-02    0.468E-02
DAV:  14    -0.222750384102E+03   -0.23328E-05   -0.20261E-05 21336   0.256E-02
  40 F= -.22275038E+03 E0= -.22273477E+03  d E =-.328380E-02  mag=    22.0000
       N       E                     dE             d eps       ncg     rms          rms(c)
DAV:   1    -0.222713821203E+03    0.36561E-01   -0.55522E+00 29944   0.105E+01    0.772E-01
DAV:   2    -0.222751590980E+03   -0.37770E-01   -0.35106E-01 27792   0.184E+00    0.151E+00
DAV:   3    -0.222750561930E+03    0.10291E-02   -0.43953E-02 38528   0.591E-01    0.107E+00
DAV:   4    -0.222749951368E+03    0.61056E-03   -0.71090E-03 39944   0.290E-01    0.371E-01
DAV:   5    -0.222749992979E+03   -0.41611E-04   -0.20716E-03 39432   0.139E-01    0.288E-01
DAV:   6    -0.222749983303E+03    0.96762E-05   -0.10600E-03 38496   0.116E-01    0.241E-01
DAV:   7    -0.222749966594E+03    0.16709E-04   -0.78447E-04 38288   0.122E-01    0.168E-01
DAV:   8    -0.222750015162E+03   -0.48568E-04   -0.47562E-04 38656   0.845E-02    0.170E-01
DAV:   9    -0.222749969648E+03    0.45513E-04   -0.15230E-04 27824   0.609E-02    0.740E-02
DAV:  10    -0.222749971628E+03   -0.19797E-05   -0.48663E-05 24632   0.341E-02
  41 F= -.22274997E+03 E0= -.22273447E+03  d E =0.412473E-03  mag=    22.0000
       N       E                     dE             d eps       ncg     rms          rms(c)
DAV:   1    -0.222740821182E+03    0.91485E-02   -0.16795E+00 29344   0.565E+00    0.404E-01
DAV:   2    -0.222751204426E+03   -0.10383E-01   -0.97722E-02 27656   0.976E-01    0.658E-01
DAV:   3    -0.222751537732E+03   -0.33331E-03   -0.11007E-02 38856   0.311E-01    0.657E-01
DAV:   4    -0.222751090642E+03    0.44709E-03   -0.24635E-03 39600   0.167E-01    0.202E-01
DAV:   5    -0.222751103886E+03   -0.13244E-04   -0.43489E-04 36240   0.761E-02    0.126E-01
DAV:   6    -0.222751130108E+03   -0.26222E-04   -0.38725E-04 33016   0.643E-02    0.169E-01
DAV:   7    -0.222751083345E+03    0.46763E-04   -0.22459E-04 34176   0.608E-02    0.569E-02
DAV:   8    -0.222751105473E+03   -0.22128E-04   -0.77760E-05 28104   0.407E-02    0.808E-02
DAV:   9    -0.222751095157E+03    0.10316E-04   -0.50892E-05 23344   0.341E-02    0.271E-02
DAV:  10    -0.222751097440E+03   -0.22826E-05   -0.11553E-05 16688   0.169E-02
  42 F= -.22275110E+03 E0= -.22273552E+03  d E =-.112581E-02  mag=    22.0000
       N       E                     dE             d eps       ncg     rms          rms(c)
DAV:   1    -0.222750601635E+03    0.49352E-03   -0.50336E-02 30872   0.115E+00    0.100E-01
DAV:   2    -0.222751156275E+03   -0.55464E-03   -0.49332E-03 28208   0.212E-01    0.225E-01
DAV:   3    -0.222751116923E+03    0.39351E-04   -0.66329E-04 34048   0.814E-02    0.129E-01
DAV:   4    -0.222751117476E+03   -0.55248E-06   -0.91684E-05 25488   0.373E-02
  43 F= -.22275112E+03 E0= -.22273551E+03  d E =-.200356E-04  mag=    22.0000
       N       E                     dE             d eps       ncg     rms          rms(c)
DAV:   1    -0.222648941476E+03    0.10218E+00   -0.18944E+01 29664   0.179E+01    0.119E+00
DAV:   2    -0.222745057244E+03   -0.96116E-01   -0.90420E-01 27720   0.318E+00    0.209E+00
DAV:   3    -0.222744632929E+03    0.42431E-03   -0.74494E-02 39424   0.898E-01    0.183E+00
DAV:   4    -0.222742227733E+03    0.24052E-02   -0.26212E-02 39048   0.467E-01    0.936E-01
DAV:   5    -0.222741719232E+03    0.50850E-03   -0.66054E-03 39320   0.310E-01    0.624E-01
DAV:   6    -0.222742108626E+03   -0.38939E-03   -0.34741E-03 38944   0.254E-01    0.729E-01
DAV:   7    -0.222741331784E+03    0.77684E-03   -0.39812E-03 37424   0.246E-01    0.461E-01
DAV:   8    -0.222741655415E+03   -0.32363E-03   -0.52089E-03 38160   0.250E-01    0.529E-01
DAV:   9    -0.222741383354E+03    0.27206E-03   -0.31618E-03 38648   0.160E-01    0.251E-01
DAV:  10    -0.222741354983E+03    0.28371E-04   -0.37397E-04 38224   0.836E-02    0.118E-01
DAV:  11    -0.222741359863E+03   -0.48797E-05   -0.51926E-05 25232   0.323E-02
  44 F= -.22274136E+03 E0= -.22272605E+03  d E =0.975761E-02  mag=    22.0000
       N       E                     dE             d eps       ncg     rms          rms(c)
DAV:   1    -0.222431773747E+03    0.30958E+00   -0.30389E+01 30320   0.284E+01    0.241E+00
DAV:   2    -0.222738846366E+03   -0.30707E+00   -0.28236E+00 28192   0.510E+00    0.379E+00
DAV:   3    -0.222752161701E+03   -0.13315E-01   -0.43888E-01 39072   0.166E+00    0.345E+00
DAV:   4    -0.222741812277E+03    0.10349E-01   -0.91638E-02 39032   0.888E-01    0.191E+00
DAV:   5    -0.222738172458E+03    0.36398E-02   -0.26055E-02 38592   0.502E-01    0.105E+00
DAV:   6    -0.222739792438E+03   -0.16200E-02   -0.12163E-02 39344   0.484E-01    0.110E+00
DAV:   7    -0.222739761769E+03    0.30669E-04   -0.11201E-02 38872   0.372E-01    0.961E-01
DAV:   8    -0.222740192834E+03   -0.43107E-03   -0.19085E-02 38424   0.395E-01    0.995E-01
DAV:   9    -0.222739354321E+03    0.83851E-03   -0.98829E-03 38720   0.302E-01    0.577E-01
DAV:  10    -0.222739053600E+03    0.30072E-03   -0.29677E-03 39000   0.204E-01    0.257E-01
DAV:  11    -0.222739143750E+03   -0.90150E-04   -0.73597E-04 38520   0.123E-01    0.209E-01
DAV:  12    -0.222739172640E+03   -0.28890E-04   -0.41688E-04 38248   0.114E-01    0.164E-01
DAV:  13    -0.222739161051E+03    0.11589E-04   -0.20127E-04 31488   0.689E-02    0.686E-02
DAV:  14    -0.222739164401E+03   -0.33501E-05   -0.34529E-05 25008   0.371E-02
  45 F= -.22273916E+03 E0= -.22272343E+03  d E =0.219546E-02  mag=    22.0000
       N       E                     dE             d eps       ncg     rms          rms(c)
DAV:   1    -0.222725772355E+03    0.13389E-01   -0.13799E+00 31176   0.687E+00    0.665E-01
DAV:   2    -0.222747127692E+03   -0.21355E-01   -0.19761E-01 28688   0.123E+00    0.772E-01
DAV:   3    -0.222749848268E+03   -0.27206E-02   -0.17314E-02 39048   0.460E-01    0.126E+00
DAV:   4    -0.222747823600E+03    0.20247E-02   -0.91573E-03 39032   0.288E-01    0.366E-01
DAV:   5    -0.222747932592E+03   -0.10899E-03   -0.11338E-03 38880   0.122E-01    0.195E-01
DAV:   6    -0.222748010787E+03   -0.78195E-04   -0.35921E-04 39120   0.895E-02    0.176E-01
DAV:   7    -0.222748019774E+03   -0.89863E-05   -0.35547E-04 38472   0.973E-02    0.141E-01
DAV:   8    -0.222748051054E+03   -0.31281E-04   -0.40977E-04 32032   0.749E-02    0.158E-01
DAV:   9    -0.222748015007E+03    0.36047E-04   -0.26912E-04 27128   0.565E-02    0.654E-02
DAV:  10    -0.222748014414E+03    0.59306E-06   -0.51630E-05 22736   0.290E-02
  46 F= -.22274801E+03 E0= -.22273247E+03  d E =-.885001E-02  mag=    22.0000
       N       E                     dE             d eps       ncg     rms          rms(c)
DAV:   1    -0.222736640391E+03    0.11375E-01   -0.10090E+00 31072   0.577E+00    0.546E-01
DAV:   2    -0.222751037695E+03   -0.14397E-01   -0.13332E-01 28768   0.103E+00    0.672E-01
DAV:   3    -0.222752736737E+03   -0.16990E-02   -0.13108E-02 39000   0.384E-01    0.103E+00
DAV:   4    -0.222751384073E+03    0.13527E-02   -0.58643E-03 39312   0.238E-01    0.264E-01
DAV:   5    -0.222751509138E+03   -0.12506E-03   -0.65968E-04 37736   0.950E-02    0.172E-01
DAV:   6    -0.222751548328E+03   -0.39190E-04   -0.33355E-04 37920   0.752E-02    0.155E-01
DAV:   7    -0.222751553071E+03   -0.47434E-05   -0.34144E-04 36072   0.782E-02    0.121E-01
DAV:   8    -0.222751577955E+03   -0.24883E-04   -0.37671E-04 29024   0.611E-02    0.139E-01
DAV:   9    -0.222751549037E+03    0.28917E-04   -0.18148E-04 26248   0.452E-02    0.443E-02
DAV:  10    -0.222751550026E+03   -0.98881E-06   -0.16214E-05 19464   0.228E-02
  47 F= -.22275155E+03 E0= -.22273610E+03  d E =-.353561E-02  mag=    22.0000
       N       E                     dE             d eps       ncg     rms          rms(c)
DAV:   1    -0.222750651743E+03    0.89729E-03   -0.13495E-01 30592   0.192E+00    0.164E-01
DAV:   2    -0.222752063824E+03   -0.14121E-02   -0.12929E-02 28696   0.342E-01    0.276E-01
DAV:   3    -0.222752105035E+03   -0.41211E-04   -0.13976E-03 38624   0.126E-01    0.268E-01
DAV:   4    -0.222752038940E+03    0.66095E-04   -0.37093E-04 29704   0.644E-02    0.797E-02
DAV:   5    -0.222752045075E+03   -0.61346E-05   -0.49822E-05 24784   0.300E-02
  48 F= -.22275205E+03 E0= -.22273663E+03  d E =-.495049E-03  mag=    22.0000
       N       E                     dE             d eps       ncg     rms          rms(c)
DAV:   1    -0.222751276059E+03    0.76288E-03   -0.18012E-01 29960   0.184E+00    0.145E-01
DAV:   2    -0.222752457911E+03   -0.11819E-02   -0.10330E-02 30336   0.334E-01    0.370E-01
DAV:   3    -0.222752279316E+03    0.17859E-03   -0.12390E-03 37536   0.131E-01    0.167E-01
DAV:   4    -0.222752305397E+03   -0.26081E-04   -0.24384E-04 28080   0.547E-02    0.131E-01
DAV:   5    -0.222752288120E+03    0.17277E-04   -0.11791E-04 25736   0.414E-02    0.778E-02
DAV:   6    -0.222752301576E+03   -0.13456E-04   -0.90440E-05 24688   0.362E-02    0.105E-01
DAV:   7    -0.222752292033E+03    0.95436E-05   -0.16161E-04 31168   0.450E-02    0.636E-02
DAV:   8    -0.222752291239E+03    0.79369E-06   -0.63497E-05 23392   0.304E-02
  49 F= -.22275229E+03 E0= -.22273691E+03  d E =-.246164E-03  mag=    22.0000
       N       E                     dE             d eps       ncg     rms          rms(c)
DAV:   1    -0.222751449471E+03    0.84256E-03   -0.23653E-01 29952   0.180E+00    0.113E-01
DAV:   2    -0.222752417578E+03   -0.96811E-03   -0.90278E-03 28368   0.320E-01    0.254E-01
DAV:   3    -0.222752361516E+03    0.56062E-04   -0.75509E-04 38840   0.970E-02    0.160E-01
DAV:   4    -0.222752346227E+03    0.15290E-04   -0.11493E-04 26160   0.414E-02    0.759E-02
DAV:   5    -0.222752346503E+03   -0.27621E-06   -0.36378E-05 24064   0.314E-02
  50 F= -.22275235E+03 E0= -.22273705E+03  d E =-.552640E-04  mag=    22.0000
       N       E                     dE             d eps       ncg     rms          rms(c)
DAV:   1    -0.222746690454E+03    0.56558E-02   -0.21233E+00 29376   0.423E+00    0.237E-01
DAV:   2    -0.222752206253E+03   -0.55158E-02   -0.54523E-02 29872   0.739E-01    0.481E-01
DAV:   3    -0.222751984803E+03    0.22145E-03   -0.27322E-03 40088   0.185E-01    0.313E-01
DAV:   4    -0.222751897478E+03    0.87325E-04   -0.42664E-04 39320   0.705E-02    0.214E-01
DAV:   5    -0.222751903377E+03   -0.58994E-05   -0.45385E-04 31504   0.672E-02    0.241E-01
DAV:   6    -0.222751926158E+03   -0.22781E-04   -0.73632E-04 38144   0.101E-01    0.296E-01
DAV:   7    -0.222751781715E+03    0.14444E-03   -0.80875E-04 38824   0.101E-01    0.124E-01
DAV:   8    -0.222751778120E+03    0.35950E-05   -0.14732E-04 34784   0.534E-02    0.831E-02
DAV:   9    -0.222751772286E+03    0.58337E-05   -0.44210E-05 23504   0.273E-02
  51 F= -.22275177E+03 E0= -.22273655E+03  d E =0.574217E-03  mag=    22.0000
       N       E                     dE             d eps       ncg     rms          rms(c)
DAV:   1    -0.222422719670E+03    0.32906E+00   -0.56303E+01 29776   0.302E+01    0.203E+00
DAV:   2    -0.222712504845E+03   -0.28979E+00   -0.27690E+00 28616   0.546E+00    0.293E+00
DAV:   3    -0.222716002420E+03   -0.34976E-02   -0.17297E-01 37880   0.130E+00    0.273E+00
DAV:   4    -0.222710345980E+03    0.56564E-02   -0.64826E-02 38608   0.747E-01    0.164E+00
DAV:   5    -0.222711574667E+03   -0.12287E-02   -0.21170E-02 39576   0.560E-01    0.168E+00
DAV:   6    -0.222709933056E+03    0.16416E-02   -0.13745E-02 39232   0.460E-01    0.139E+00
DAV:   7    -0.222712848210E+03   -0.29152E-02   -0.43667E-02 38752   0.600E-01    0.189E+00
DAV:   8    -0.222707613519E+03    0.52347E-02   -0.27175E-02 38672   0.531E-01    0.515E-01
DAV:   9    -0.222708684672E+03   -0.10712E-02   -0.57045E-03 38456   0.299E-01    0.595E-01
DAV:  10    -0.222708124681E+03    0.55999E-03   -0.32566E-03 38336   0.197E-01    0.252E-01
DAV:  11    -0.222708133828E+03   -0.91477E-05   -0.54891E-04 38344   0.115E-01    0.208E-01
DAV:  12    -0.222708053202E+03    0.80626E-04   -0.23295E-04 34880   0.792E-02    0.117E-01
DAV:  13    -0.222708096449E+03   -0.43247E-04   -0.19754E-04 31760   0.728E-02    0.100E-01
DAV:  14    -0.222708105764E+03   -0.93144E-05   -0.89962E-05 26832   0.514E-02
  52 F= -.22270811E+03 E0= -.22269232E+03  d E =0.436665E-01  mag=    22.0000
       N       E                     dE             d eps       ncg     rms          rms(c)
DAV:   1    -0.222659156344E+03    0.48940E-01   -0.90751E+00 30240   0.149E+01    0.119E+00
DAV:   2    -0.222739102650E+03   -0.79946E-01   -0.74683E-01 28584   0.267E+00    0.156E+00
DAV:   3    -0.222744197604E+03   -0.50950E-02   -0.65878E-02 38936   0.809E-01    0.197E+00
DAV:   4    -0.222739988310E+03    0.42093E-02   -0.28538E-02 38656   0.462E-01    0.715E-01
DAV:   5    -0.222740155385E+03   -0.16707E-03   -0.38446E-03 39456   0.293E-01    0.539E-01
DAV:   6    -0.222740250107E+03   -0.94722E-04   -0.19375E-03 39288   0.211E-01    0.482E-01
DAV:   7    -0.222740099970E+03    0.15014E-03   -0.21486E-03 38424   0.224E-01    0.348E-01
DAV:   8    -0.222740347047E+03   -0.24708E-03   -0.31374E-03 39032   0.179E-01    0.431E-01
DAV:   9    -0.222740073450E+03    0.27360E-03   -0.15716E-03 38616   0.135E-01    0.131E-01
DAV:  10    -0.222740107784E+03   -0.34334E-04   -0.24751E-04 32288   0.603E-02    0.111E-01
DAV:  11    -0.222740099875E+03    0.79088E-05   -0.12243E-04 25680   0.400E-02    0.781E-02
DAV:  12    -0.222740094068E+03    0.58069E-05   -0.35398E-05 22784   0.305E-02
  53 F= -.22274009E+03 E0= -.22272455E+03  d E =-.319883E-01  mag=    22.0000
       N       E                     dE             d eps       ncg     rms          rms(c)
DAV:   1    -0.222732946213E+03    0.71537E-02   -0.25131E+00 30168   0.694E+00    0.506E-01
DAV:   2    -0.222748765864E+03   -0.15820E-01   -0.14727E-01 28728   0.124E+00    0.819E-01
DAV:   3    -0.222748981687E+03   -0.21582E-03   -0.12461E-02 38576   0.362E-01    0.753E-01
DAV:   4    -0.222748542858E+03    0.43883E-03   -0.34656E-03 38416   0.195E-01    0.341E-01
DAV:   5    -0.222748570461E+03   -0.27602E-04   -0.82603E-04 38704   0.142E-01    0.302E-01
DAV:   6    -0.222748550932E+03    0.19528E-04   -0.43936E-04 38512   0.106E-01    0.254E-01
DAV:   7    -0.222748503509E+03    0.47423E-04   -0.49833E-04 37400   0.124E-01    0.160E-01
DAV:   8    -0.222748535484E+03   -0.31975E-04   -0.38197E-04 38160   0.900E-02    0.139E-01
DAV:   9    -0.222748514516E+03    0.20969E-04   -0.20605E-04 28336   0.544E-02    0.817E-02
DAV:  10    -0.222748508434E+03    0.60818E-05   -0.61212E-05 22072   0.291E-02
  54 F= -.22274851E+03 E0= -.22273315E+03  d E =-.841437E-02  mag=    22.0000
       N       E                     dE             d eps       ncg     rms          rms(c)
DAV:   1    -0.222746686878E+03    0.18276E-02   -0.15704E+00 29464   0.428E+00    0.258E-01
DAV:   2    -0.222752416829E+03   -0.57300E-02   -0.53875E-02 28936   0.775E-01    0.523E-01
DAV:   3    -0.222752145871E+03    0.27096E-03   -0.22625E-03 37296   0.181E-01    0.318E-01
DAV:   4    -0.222752149288E+03   -0.34169E-05   -0.52761E-04 34936   0.771E-02    0.267E-01
DAV:   5    -0.222752190236E+03   -0.40948E-04   -0.41446E-04 34472   0.863E-02    0.290E-01
DAV:   6    -0.222752155325E+03    0.34911E-04   -0.24467E-04 34864   0.709E-02    0.247E-01
DAV:   7    -0.222752114335E+03    0.40990E-04   -0.67962E-04 34464   0.100E-01    0.199E-01
DAV:   8    -0.222752081808E+03    0.32527E-04   -0.61073E-04 36008   0.779E-02    0.117E-01
DAV:   9    -0.222752075708E+03    0.60999E-05   -0.13238E-04 26368   0.475E-02    0.595E-02
DAV:  10    -0.222752073172E+03    0.25361E-05   -0.24903E-05 21048   0.266E-02
  55 F= -.22275207E+03 E0= -.22273683E+03  d E =-.356474E-02  mag=    22.0000
       N       E                     dE             d eps       ncg     rms          rms(c)
DAV:   1    -0.222751603943E+03    0.47176E-03   -0.48324E-01 29376   0.222E+00    0.119E-01
DAV:   2    -0.222753132455E+03   -0.15285E-02   -0.14321E-02 31128   0.407E-01    0.272E-01
DAV:   3    -0.222753034641E+03    0.97814E-04   -0.33382E-04 35432   0.800E-02    0.157E-01
DAV:   4    -0.222753053653E+03   -0.19012E-04   -0.67453E-05 26208   0.369E-02    0.176E-01
DAV:   5    -0.222753042474E+03    0.11180E-04   -0.44133E-05 22832   0.276E-02    0.155E-01
DAV:   6    -0.222753064654E+03   -0.22181E-04   -0.15380E-04 27832   0.437E-02    0.193E-01
DAV:   7    -0.222753025737E+03    0.38918E-04   -0.24165E-04 33912   0.558E-02    0.119E-01
DAV:   8    -0.222753010677E+03    0.15060E-04   -0.13585E-04 29456   0.439E-02    0.528E-02
DAV:   9    -0.222753012339E+03   -0.16624E-05   -0.40294E-05 21728   0.262E-02
  56 F= -.22275301E+03 E0= -.22273783E+03  d E =-.939168E-03  mag=    22.0000
       N       E                     dE             d eps       ncg     rms          rms(c)
DAV:   1    -0.222752300963E+03    0.70971E-03   -0.25754E-01 29288   0.177E+00    0.101E-01
DAV:   2    -0.222753253531E+03   -0.95257E-03   -0.89280E-03 29632   0.325E-01    0.209E-01
DAV:   3    -0.222753197142E+03    0.56389E-04   -0.27132E-04 35304   0.730E-02    0.109E-01
DAV:   4    -0.222753214999E+03   -0.17857E-04   -0.76696E-05 25280   0.354E-02    0.132E-01
DAV:   5    -0.222753205570E+03    0.94286E-05   -0.38975E-05 20960   0.239E-02
  57 F= -.22275321E+03 E0= -.22273802E+03  d E =-.193231E-03  mag=    22.0000
       N       E                     dE             d eps       ncg     rms          rms(c)
DAV:   1    -0.222751794775E+03    0.14202E-02   -0.37646E-01 28856   0.201E+00    0.159E-01
DAV:   2    -0.222753068094E+03   -0.12733E-02   -0.12079E-02 32328   0.363E-01    0.364E-01
DAV:   3    -0.222752916933E+03    0.15116E-03   -0.11605E-03 37448   0.114E-01    0.190E-01
DAV:   4    -0.222752916024E+03    0.90945E-06   -0.78212E-05 26688   0.366E-02
  58 F= -.22275292E+03 E0= -.22273778E+03  d E =0.289546E-03  mag=    22.0000
       N       E                     dE             d eps       ncg     rms          rms(c)
DAV:   1    -0.222747918059E+03    0.49989E-02   -0.98401E-01 29168   0.395E+00    0.311E-01
DAV:   2    -0.222753799462E+03   -0.58814E-02   -0.50233E-02 30416   0.735E-01    0.984E-01
DAV:   3    -0.222752277046E+03    0.15224E-02   -0.79923E-03 38360   0.285E-01    0.252E-01
DAV:   4    -0.222752451988E+03   -0.17494E-03   -0.37427E-04 38160   0.901E-02    0.137E-01
DAV:   5    -0.222752447915E+03    0.40737E-05   -0.15050E-04 36208   0.784E-02    0.146E-01
DAV:   6    -0.222752445560E+03    0.23545E-05   -0.36813E-04 37544   0.731E-02    0.168E-01
DAV:   7    -0.222752418120E+03    0.27440E-04   -0.37750E-04 34768   0.617E-02    0.913E-02
DAV:   8    -0.222752423029E+03   -0.49090E-05   -0.11561E-04 24888   0.359E-02    0.706E-02
DAV:   9    -0.222752416112E+03    0.69171E-05   -0.27257E-05 19408   0.248E-02
  59 F= -.22275242E+03 E0= -.22273738E+03  d E =0.499912E-03  mag=    22.0000
       N       E                     dE             d eps       ncg     rms          rms(c)
DAV:   1    -0.222658158666E+03    0.94264E-01   -0.66549E+00 30288   0.138E+01    0.128E+00
DAV:   2    -0.222753437413E+03   -0.95279E-01   -0.87391E-01 28312   0.264E+00    0.298E+00
DAV:   3    -0.222744865551E+03    0.85719E-02   -0.15899E-01 37904   0.952E-01    0.144E+00
DAV:   4    -0.222747259620E+03   -0.23941E-02   -0.17859E-02 38696   0.496E-01    0.113E+00
DAV:   5    -0.222745548653E+03    0.17110E-02   -0.10078E-02 38480   0.344E-01    0.377E-01
DAV:   6    -0.222746228499E+03   -0.67985E-03   -0.36578E-03 39600   0.189E-01    0.539E-01
DAV:   7    -0.222745954506E+03    0.27399E-03   -0.25920E-03 38592   0.179E-01    0.283E-01
DAV:   8    -0.222746057725E+03   -0.10322E-03   -0.75826E-04 38424   0.136E-01    0.253E-01
DAV:   9    -0.222745995375E+03    0.62350E-04   -0.48871E-04 37984   0.100E-01    0.136E-01
DAV:  10    -0.222746010548E+03   -0.15172E-04   -0.21010E-04 31120   0.709E-02    0.119E-01
DAV:  11    -0.222746024760E+03   -0.14212E-04   -0.12567E-04 26872   0.514E-02    0.734E-02
DAV:  12    -0.222746031147E+03   -0.63874E-05   -0.46977E-05 25000   0.381E-02
  60 F= -.22274603E+03 E0= -.22273086E+03  d E =0.638496E-02  mag=    22.0000
       N       E                     dE             d eps       ncg     rms          rms(c)
DAV:   1    -0.222706039350E+03    0.39985E-01   -0.33093E+00 30480   0.999E+00    0.945E-01
DAV:   2    -0.222754973835E+03   -0.48934E-01   -0.44255E-01 28152   0.186E+00    0.186E+00
DAV:   3    -0.222752807443E+03    0.21664E-02   -0.62663E-02 38000   0.685E-01    0.119E+00
DAV:   4    -0.222752852284E+03   -0.44841E-04   -0.10342E-02 38872   0.347E-01    0.547E-01
DAV:   5    -0.222752624348E+03    0.22794E-03   -0.28588E-03 39528   0.178E-01    0.262E-01
DAV:   6    -0.222752852882E+03   -0.22853E-03   -0.13003E-03 39264   0.126E-01    0.318E-01
DAV:   7    -0.222752795388E+03    0.57494E-04   -0.14896E-03 38568   0.127E-01    0.209E-01
DAV:   8    -0.222752828834E+03   -0.33446E-04   -0.54099E-04 37584   0.874E-02    0.155E-01
DAV:   9    -0.222752812564E+03    0.16270E-04   -0.19207E-04 30464   0.613E-02    0.984E-02
DAV:  10    -0.222752811485E+03    0.10794E-05   -0.92835E-05 26072   0.436E-02
  61 F= -.22275281E+03 E0= -.22273786E+03  d E =-.678034E-02  mag=    22.0000
       N       E                     dE             d eps       ncg     rms          rms(c)
DAV:   1    -0.222745294191E+03    0.75184E-02   -0.10794E+00 29432   0.468E+00    0.367E-01
DAV:   2    -0.222754029736E+03   -0.87355E-02   -0.78525E-02 28592   0.875E-01    0.887E-01
DAV:   3    -0.222753052787E+03    0.97695E-03   -0.87527E-03 37992   0.298E-01    0.369E-01
DAV:   4    -0.222753294069E+03   -0.24128E-03   -0.12187E-03 39656   0.139E-01    0.293E-01
DAV:   5    -0.222753196273E+03    0.97796E-04   -0.39569E-04 34688   0.866E-02    0.161E-01
DAV:   6    -0.222753253852E+03   -0.57579E-04   -0.53279E-04 33232   0.734E-02    0.227E-01
DAV:   7    -0.222753192003E+03    0.61850E-04   -0.45823E-04 36888   0.744E-02    0.989E-02
DAV:   8    -0.222753226795E+03   -0.34793E-04   -0.22984E-04 32792   0.615E-02    0.123E-01
DAV:   9    -0.222753207221E+03    0.19574E-04   -0.11967E-04 25696   0.414E-02    0.574E-02
DAV:  10    -0.222753203797E+03    0.34236E-05   -0.11677E-05 19352   0.234E-02
  62 F= -.22275320E+03 E0= -.22273823E+03  d E =-.392312E-03  mag=    22.0000
       N       E                     dE             d eps       ncg     rms          rms(c)
DAV:   1    -0.222751540675E+03    0.16665E-02   -0.16621E-01 30184   0.206E+00    0.193E-01
DAV:   2    -0.222753621707E+03   -0.20810E-02   -0.18158E-02 28632   0.386E-01    0.477E-01
DAV:   3    -0.222753362357E+03    0.25935E-03   -0.26564E-03 37816   0.154E-01    0.206E-01
DAV:   4    -0.222753431815E+03   -0.69458E-04   -0.36965E-04 32216   0.708E-02    0.156E-01
DAV:   5    -0.222753399166E+03    0.32649E-04   -0.20151E-04 26376   0.526E-02    0.676E-02
DAV:   6    -0.222753407956E+03   -0.87900E-05   -0.54487E-05 23072   0.302E-02
  63 F= -.22275341E+03 E0= -.22273832E+03  d E =-.204158E-03  mag=    22.0000
       N       E                     dE             d eps       ncg     rms          rms(c)
DAV:   1    -0.222753276442E+03    0.12272E-03   -0.22656E-02 29776   0.594E-01    0.708E-02
DAV:   2    -0.222753509182E+03   -0.23274E-03   -0.17856E-03 32848   0.135E-01    0.289E-01
DAV:   3    -0.222753365375E+03    0.14381E-03   -0.77435E-04 34312   0.905E-02    0.552E-02
DAV:   4    -0.222753383445E+03   -0.18070E-04   -0.29638E-05 23048   0.259E-02    0.485E-02
DAV:   5    -0.222753381821E+03    0.16237E-05   -0.15228E-05 17136   0.158E-02
  64 F= -.22275338E+03 E0= -.22273831E+03  d E =0.261344E-04  mag=    22.0000
       N       E                     dE             d eps       ncg     rms          rms(c)
DAV:   1    -0.222724384056E+03    0.28999E-01   -0.10358E+01 29752   0.101E+01    0.528E-01
DAV:   2    -0.222753936202E+03   -0.29552E-01   -0.28523E-01 29120   0.171E+00    0.126E+00
DAV:   3    -0.222752201038E+03    0.17352E-02   -0.23959E-02 39024   0.450E-01    0.630E-01
DAV:   4    -0.222751831102E+03    0.36994E-03   -0.21829E-03 39560   0.201E-01    0.307E-01
DAV:   5    -0.222751742586E+03    0.88516E-04   -0.80070E-04 39264   0.126E-01    0.267E-01
DAV:   6    -0.222751634667E+03    0.10792E-03   -0.70922E-04 38416   0.124E-01    0.277E-01
DAV:   7    -0.222751468485E+03    0.16618E-03   -0.82997E-04 36160   0.128E-01    0.184E-01
DAV:   8    -0.222751486709E+03   -0.18224E-04   -0.70155E-04 38704   0.897E-02    0.159E-01
DAV:   9    -0.222751462431E+03    0.24278E-04   -0.30064E-04 28136   0.546E-02    0.712E-02
DAV:  10    -0.222751463139E+03   -0.70839E-06   -0.47609E-05 23136   0.338E-02
  65 F= -.22275146E+03 E0= -.22273644E+03  d E =0.191868E-02  mag=    22.0000
       N       E                     dE             d eps       ncg     rms          rms(c)
DAV:   1    -0.222572247478E+03    0.17921E+00   -0.21747E+01 30264   0.217E+01    0.172E+00
DAV:   2    -0.222766770495E+03   -0.19452E+00   -0.17562E+00 29768   0.411E+00    0.460E+00
DAV:   3    -0.222734057306E+03    0.32713E-01   -0.25956E-01 37784   0.137E+00    0.151E+00
DAV:   4    -0.222741088286E+03   -0.70310E-02   -0.36726E-02 40256   0.663E-01    0.146E+00
DAV:   5    -0.222738898140E+03    0.21901E-02   -0.21404E-02 38392   0.483E-01    0.837E-01
DAV:   6    -0.222738906305E+03   -0.81657E-05   -0.60022E-03 38576   0.274E-01    0.685E-01
DAV:   7    -0.222739161254E+03   -0.25495E-03   -0.58009E-03 38792   0.311E-01    0.675E-01
DAV:   8    -0.222738683161E+03    0.47809E-03   -0.47125E-03 38376   0.287E-01    0.369E-01
DAV:   9    -0.222738914571E+03   -0.23141E-03   -0.16799E-03 38488   0.196E-01    0.362E-01
DAV:  10    -0.222738737254E+03    0.17732E-03   -0.65094E-04 38376   0.133E-01    0.120E-01
DAV:  11    -0.222738777082E+03   -0.39828E-04   -0.16996E-04 30640   0.721E-02    0.109E-01
DAV:  12    -0.222738787949E+03   -0.10867E-04   -0.14105E-04 27488   0.563E-02    0.853E-02
DAV:  13    -0.222738801326E+03   -0.13377E-04   -0.92481E-05 26016   0.422E-02    0.806E-02
DAV:  14    -0.222738792576E+03    0.87499E-05   -0.35404E-05 23872   0.344E-02
  66 F= -.22273879E+03 E0= -.22272388E+03  d E =0.126706E-01  mag=    22.0000
       N       E                     dE             d eps       ncg     rms          rms(c)
DAV:   1    -0.222726302830E+03    0.12498E-01   -0.17752E+00 30576   0.700E+00    0.648E-01
DAV:   2    -0.222751826193E+03   -0.25523E-01   -0.21598E-01 30768   0.135E+00    0.204E+00
DAV:   3    -0.222746017786E+03    0.58084E-02   -0.43601E-02 37448   0.551E-01    0.585E-01
DAV:   4    -0.222747208525E+03   -0.11907E-02   -0.27034E-03 38736   0.228E-01    0.435E-01
DAV:   5    -0.222746974695E+03    0.23383E-03   -0.13935E-03 38352   0.153E-01    0.217E-01
DAV:   6    -0.222747019454E+03   -0.44759E-04   -0.33141E-04 38256   0.967E-02    0.182E-01
DAV:   7    -0.222747044309E+03   -0.24856E-04   -0.41874E-04 38072   0.866E-02    0.164E-01
DAV:   8    -0.222747056613E+03   -0.12304E-04   -0.63011E-04 31840   0.725E-02    0.171E-01
DAV:   9    -0.222747022018E+03    0.34595E-04   -0.25940E-04 27144   0.544E-02    0.617E-02
DAV:  10    -0.222747028567E+03   -0.65490E-05   -0.34256E-05 24088   0.356E-02
  67 F= -.22274703E+03 E0= -.22273205E+03  d E =-.823599E-02  mag=    22.0000
       N       E                     dE             d eps       ncg     rms          rms(c)
DAV:   1    -0.222746556621E+03    0.46540E-03   -0.23388E-01 30760   0.246E+00    0.229E-01
DAV:   2    -0.222749668396E+03   -0.31118E-02   -0.25016E-02 31360   0.480E-01    0.765E-01
DAV:   3    -0.222748806381E+03    0.86201E-03   -0.45054E-03 37272   0.214E-01    0.200E-01
DAV:   4    -0.222748971544E+03   -0.16516E-03   -0.33718E-04 35888   0.848E-02    0.155E-01
DAV:   5    -0.222748945195E+03    0.26349E-04   -0.15546E-04 27488   0.570E-02    0.801E-02
DAV:   6    -0.222748954176E+03   -0.89811E-05   -0.59823E-05 25400   0.385E-02
  68 F= -.22274895E+03 E0= -.22273382E+03  d E =-.192561E-02  mag=    22.0000
       N       E                     dE             d eps       ncg     rms          rms(c)
DAV:   1    -0.222732768389E+03    0.16177E-01   -0.23670E+00 30608   0.725E+00    0.575E-01
DAV:   2    -0.222753948822E+03   -0.21180E-01   -0.18750E-01 28848   0.134E+00    0.152E+00
DAV:   3    -0.222751156774E+03    0.27920E-02   -0.27100E-02 38032   0.458E-01    0.610E-01
DAV:   4    -0.222751578321E+03   -0.42155E-03   -0.19896E-03 38744   0.201E-01    0.327E-01
DAV:   5    -0.222751569879E+03    0.84424E-05   -0.88708E-04 38648   0.138E-01    0.281E-01
DAV:   6    -0.222751575208E+03   -0.53290E-05   -0.60137E-04 39312   0.108E-01    0.256E-01
DAV:   7    -0.222751562156E+03    0.13052E-04   -0.76340E-04 37856   0.107E-01    0.204E-01
DAV:   8    -0.222751572687E+03   -0.10531E-04   -0.10044E-03 37264   0.943E-02    0.187E-01
DAV:   9    -0.222751535640E+03    0.37047E-04   -0.36958E-04 28064   0.602E-02    0.719E-02
DAV:  10    -0.222751536692E+03   -0.10516E-05   -0.62131E-05 24776   0.342E-02
  69 F= -.22275154E+03 E0= -.22273635E+03  d E =-.258252E-02  mag=    22.0000
       N       E                     dE             d eps       ncg     rms          rms(c)
DAV:   1    -0.222750837044E+03    0.69860E-03   -0.17120E-01 29256   0.157E+00    0.106E-01
DAV:   2    -0.222751715661E+03   -0.87862E-03   -0.76370E-03 30656   0.299E-01    0.326E-01
DAV:   3    -0.222751558948E+03    0.15671E-03   -0.85546E-04 36968   0.971E-02    0.114E-01
DAV:   4    -0.222751571915E+03   -0.12967E-04   -0.71119E-05 25600   0.413E-02    0.759E-02
DAV:   5    -0.222751573521E+03   -0.16060E-05   -0.38435E-05 22872   0.329E-02
  70 F= -.22275157E+03 E0= -.22273626E+03  d E =-.368293E-04  mag=    22.0000
       N       E                     dE             d eps       ncg     rms          rms(c)
DAV:   1    -0.222747857306E+03    0.37146E-02   -0.11277E+00 29376   0.339E+00    0.195E-01
DAV:   2    -0.222751184056E+03   -0.33267E-02   -0.32878E-02 29024   0.600E-01    0.334E-01
DAV:   3    -0.222751097849E+03    0.86207E-04   -0.11784E-03 38768   0.128E-01    0.233E-01
DAV:   4    -0.222751072484E+03    0.25364E-04   -0.30469E-04 33680   0.609E-02    0.196E-01
DAV:   5    -0.222751066456E+03    0.60288E-05   -0.17656E-04 28320   0.534E-02    0.200E-01
DAV:   6    -0.222751073677E+03   -0.72219E-05   -0.56097E-04 38496   0.784E-02    0.236E-01
DAV:   7    -0.222751002351E+03    0.71327E-04   -0.74571E-04 38168   0.921E-02    0.131E-01
DAV:   8    -0.222750989674E+03    0.12676E-04   -0.19085E-04 34616   0.621E-02    0.676E-02
DAV:   9    -0.222750987704E+03    0.19705E-05   -0.48365E-05 23512   0.303E-02
  71 F= -.22275099E+03 E0= -.22273572E+03  d E =0.585817E-03  mag=    22.0000
       N       E                     dE             d eps       ncg     rms          rms(c)
DAV:   1    -0.222745601524E+03    0.53882E-02   -0.15329E+00 29336   0.464E+00    0.271E-01
DAV:   2    -0.222751542927E+03   -0.59414E-02   -0.57904E-02 27656   0.835E-01    0.361E-01
DAV:   3    -0.222751514592E+03    0.28335E-04   -0.15741E-03 38136   0.169E-01    0.276E-01
DAV:   4    -0.222751553259E+03   -0.38667E-04   -0.10849E-03 38808   0.106E-01    0.296E-01
DAV:   5    -0.222751480507E+03    0.72751E-04   -0.39127E-04 33144   0.752E-02    0.218E-01
DAV:   6    -0.222751540443E+03   -0.59935E-04   -0.64968E-04 38624   0.803E-02    0.296E-01
DAV:   7    -0.222751447301E+03    0.93142E-04   -0.88975E-04 38456   0.963E-02    0.176E-01
DAV:   8    -0.222751423775E+03    0.23526E-04   -0.29227E-04 35680   0.754E-02    0.838E-02
DAV:   9    -0.222751421626E+03    0.21488E-05   -0.71026E-05 25256   0.369E-02
  72 F= -.22275142E+03 E0= -.22273615E+03  d E =-.433922E-03  mag=    22.0000
       N       E                     dE             d eps       ncg     rms          rms(c)
DAV:   1    -0.222627334054E+03    0.12409E+00   -0.11933E+01 30928   0.175E+01    0.143E+00
DAV:   2    -0.222747186446E+03   -0.11985E+00   -0.11050E+00 28400   0.318E+00    0.260E+00
DAV:   3    -0.222744374437E+03    0.28120E-02   -0.13310E-01 38336   0.104E+00    0.191E+00
DAV:   4    -0.222742723964E+03    0.16505E-02   -0.29296E-02 39576   0.538E-01    0.688E-01
DAV:   5    -0.222742956273E+03   -0.23231E-03   -0.44145E-03 38896   0.298E-01    0.546E-01
DAV:   6    -0.222742956001E+03    0.27132E-06   -0.25515E-03 39392   0.224E-01    0.420E-01
DAV:   7    -0.222743062802E+03   -0.10680E-03   -0.27814E-03 38808   0.206E-01    0.413E-01
DAV:   8    -0.222743047714E+03    0.15088E-04   -0.37640E-03 38856   0.179E-01    0.357E-01
DAV:   9    -0.222742938360E+03    0.10935E-03   -0.13902E-03 38544   0.118E-01    0.148E-01
DAV:  10    -0.222742979194E+03   -0.40835E-04   -0.41772E-04 32912   0.738E-02    0.143E-01
DAV:  11    -0.222742973391E+03    0.58039E-05   -0.16970E-04 27400   0.540E-02    0.882E-02
DAV:  12    -0.222742970370E+03    0.30209E-05   -0.44895E-05 24664   0.392E-02
  73 F= -.22274297E+03 E0= -.22272774E+03  d E =0.845126E-02  mag=    22.0000
       N       E                     dE             d eps       ncg     rms          rms(c)
DAV:   1    -0.222715013155E+03    0.27960E-01   -0.26454E+00 30896   0.908E+00    0.827E-01
DAV:   2    -0.222752678963E+03   -0.37666E-01   -0.33997E-01 28656   0.168E+00    0.172E+00
DAV:   3    -0.222751049716E+03    0.16292E-02   -0.57633E-02 38184   0.604E-01    0.107E+00
DAV:   4    -0.222751089541E+03   -0.39825E-04   -0.61524E-03 39760   0.305E-01    0.520E-01
DAV:   5    -0.222750815702E+03    0.27384E-03   -0.14590E-03 39232   0.177E-01    0.235E-01
DAV:   6    -0.222751057526E+03   -0.24182E-03   -0.84472E-04 39632   0.121E-01    0.332E-01
DAV:   7    -0.222750919775E+03    0.13775E-03   -0.73171E-04 38880   0.110E-01    0.169E-01
DAV:   8    -0.222751008745E+03   -0.88971E-04   -0.76430E-04 37368   0.922E-02    0.226E-01
DAV:   9    -0.222750939544E+03    0.69202E-04   -0.63297E-04 30480   0.734E-02    0.926E-02
DAV:  10    -0.222750941248E+03   -0.17044E-05   -0.67926E-05 25768   0.442E-02
  74 F= -.22275094E+03 E0= -.22273575E+03  d E =-.797088E-02  mag=    22.0000
       N       E                     dE             d eps       ncg     rms          rms(c)
DAV:   1    -0.222745003020E+03    0.59365E-02   -0.55084E-01 31152   0.405E+00    0.368E-01
DAV:   2    -0.222752577464E+03   -0.75744E-02   -0.67520E-02 28768   0.757E-01    0.817E-01
[...]
DAV:   4    -0.222751972644E+03   -0.67779E-05   -0.47680E-04 37504   0.784E-02    0.148E-01
DAV:   5    -0.222751959016E+03    0.13628E-04   -0.28177E-04 27096   0.517E-02    0.115E-01
DAV:   6    -0.222751953719E+03    0.52974E-05   -0.12384E-04 29184   0.457E-02    0.100E-01
DAV:   7    -0.222751949132E+03    0.45865E-05   -0.14681E-04 32056   0.475E-02    0.867E-02
DAV:   8    -0.222751945843E+03    0.32888E-05   -0.75587E-05 26584   0.401E-02
  82 F= -.22275195E+03 E0= -.22273656E+03  d E =-.231647E-04  mag=    22.0000
       N       E                     dE             d eps       ncg     rms          rms(c)
DAV:   1    -0.222745756249E+03    0.61929E-02   -0.70070E-01 30680   0.407E+00    0.357E-01
DAV:   2    -0.222752832212E+03   -0.70760E-02   -0.62193E-02 28976   0.735E-01    0.858E-01
DAV:   3    -0.222751973178E+03    0.85903E-03   -0.86789E-03 37984   0.292E-01    0.389E-01
DAV:   4    -0.222752126994E+03   -0.15382E-03   -0.11555E-03 39432   0.129E-01    0.209E-01
DAV:   5    -0.222752078842E+03    0.48152E-04   -0.40269E-04 31640   0.758E-02    0.107E-01
DAV:   6    -0.222752103066E+03   -0.24224E-04   -0.26048E-04 27856   0.507E-02    0.132E-01
DAV:   7    -0.222752086271E+03    0.16796E-04   -0.22959E-04 32744   0.555E-02    0.698E-02
DAV:   8    -0.222752102941E+03   -0.16670E-04   -0.98994E-05 26624   0.409E-02    0.880E-02
DAV:   9    -0.222752091966E+03    0.10975E-04   -0.40517E-05 22928   0.312E-02    0.279E-02
DAV:  10    -0.222752092289E+03   -0.32254E-06   -0.67968E-06 16288   0.151E-02
  83 F= -.22275209E+03 E0= -.22273673E+03  d E =-.146445E-03  mag=    22.0000
       N       E                     dE             d eps       ncg     rms          rms(c)
DAV:   1    -0.222750371843E+03    0.17201E-02   -0.17322E-01 30680   0.214E+00    0.177E-01
DAV:   2    -0.222752068662E+03   -0.16968E-02   -0.16144E-02 28352   0.380E-01    0.154E-01
DAV:   3    -0.222752243334E+03   -0.17467E-03   -0.10283E-03 38728   0.113E-01    0.252E-01
DAV:   4    -0.222752147488E+03    0.95846E-04   -0.51155E-04 30208   0.758E-02    0.894E-02
DAV:   5    -0.222752157515E+03   -0.10026E-04   -0.97251E-05 26216   0.355E-02    0.859E-02
DAV:   6    -0.222752157075E+03    0.43970E-06   -0.63205E-05 23424   0.298E-02
  84 F= -.22275216E+03 E0= -.22273682E+03  d E =-.647864E-04  mag=    22.0000
       N       E                     dE             d eps       ncg     rms          rms(c)
DAV:   1    -0.222751617609E+03    0.53991E-03   -0.43279E-02 30816   0.112E+00    0.128E-01
DAV:   2    -0.222752413708E+03   -0.79610E-03   -0.71384E-03 31632   0.237E-01    0.420E-01
DAV:   3    -0.222752147172E+03    0.26654E-03   -0.21193E-03 36672   0.131E-01    0.871E-02
DAV:   4    -0.222752204603E+03   -0.57431E-04   -0.11922E-04 26912   0.492E-02    0.821E-02
DAV:   5    -0.222752195937E+03    0.86657E-05   -0.50985E-05 23832   0.345E-02
  85 F= -.22275220E+03 E0= -.22273680E+03  d E =-.388622E-04  mag=    22.0000
       N       E                     dE             d eps       ncg     rms          rms(c)
DAV:   1    -0.222750953034E+03    0.12516E-02   -0.10877E-01 30744   0.169E+00    0.151E-01
DAV:   2    -0.222752197303E+03   -0.12443E-02   -0.11228E-02 27824   0.310E-01    0.345E-01
DAV:   3    -0.222752077715E+03    0.11959E-03   -0.15206E-03 37984   0.119E-01    0.164E-01
DAV:   4    -0.222752113747E+03   -0.36032E-04   -0.22153E-04 28760   0.527E-02    0.111E-01
DAV:   5    -0.222752100852E+03    0.12895E-04   -0.13822E-04 24304   0.368E-02    0.537E-02
DAV:   6    -0.222752109443E+03   -0.85910E-05   -0.41892E-05 21640   0.282E-02
  86 F= -.22275211E+03 E0= -.22273668E+03  d E =0.864944E-04  mag=    22.0000
       N       E                     dE             d eps       ncg     rms          rms(c)
DAV:   1    -0.222742686929E+03    0.94139E-02   -0.20242E+00 29728   0.564E+00    0.358E-01
DAV:   2    -0.222752175004E+03   -0.94881E-02   -0.89243E-02 27872   0.971E-01    0.788E-01
DAV:   3    -0.222751631753E+03    0.54325E-03   -0.96481E-03 38968   0.278E-01    0.433E-01
DAV:   4    -0.222751642081E+03   -0.10328E-04   -0.12818E-03 39456   0.141E-01    0.240E-01
DAV:   5    -0.222751566125E+03    0.75956E-04   -0.38146E-04 36768   0.807E-02    0.119E-01
DAV:   6    -0.222751567611E+03   -0.14853E-05   -0.18019E-04 36136   0.630E-02    0.134E-01
DAV:   7    -0.222751557291E+03    0.10320E-04   -0.32431E-04 36136   0.639E-02    0.116E-01
DAV:   8    -0.222751557687E+03   -0.39607E-06   -0.26949E-04 27632   0.501E-02    0.931E-02
DAV:   9    -0.222751551655E+03    0.60313E-05   -0.78304E-05 23272   0.366E-02
  87 F= -.22275155E+03 E0= -.22273607E+03  d E =0.557787E-03  mag=    22.0000
       N       E                     dE             d eps       ncg     rms          rms(c)
DAV:   1    -0.222451486948E+03    0.30007E+00   -0.22589E+01 30888   0.253E+01    0.257E+00
DAV:   2    -0.222813533709E+03   -0.36205E+00   -0.32522E+00 32456   0.510E+00    0.620E+00
DAV:   3    -0.222734045797E+03    0.79488E-01   -0.46760E-01 37520   0.205E+00    0.308E+00
DAV:   4    -0.222730638198E+03    0.34076E-02   -0.11798E-01 39104   0.101E+00    0.172E+00
DAV:   5    -0.222734391701E+03   -0.37535E-02   -0.27631E-02 38584   0.720E-01    0.135E+00
DAV:   6    -0.222732165161E+03    0.22265E-02   -0.98408E-03 38688   0.442E-01    0.567E-01
DAV:   7    -0.222733789911E+03   -0.16248E-02   -0.11358E-02 38864   0.313E-01    0.871E-01
DAV:   8    -0.222733054934E+03    0.73498E-03   -0.10402E-02 38768   0.298E-01    0.459E-01
DAV:   9    -0.222733209143E+03   -0.15421E-03   -0.17649E-03 38784   0.208E-01    0.303E-01
DAV:  10    -0.222733242784E+03   -0.33641E-04   -0.62065E-04 38616   0.138E-01    0.200E-01
DAV:  11    -0.222733273935E+03   -0.31150E-04   -0.54990E-04 37432   0.959E-02    0.175E-01
DAV:  12    -0.222733249346E+03    0.24589E-04   -0.21273E-04 32192   0.647E-02    0.978E-02
DAV:  13    -0.222733250588E+03   -0.12421E-05   -0.11142E-04 25600   0.432E-02    0.783E-02
DAV:  14    -0.222733242137E+03    0.84513E-05   -0.23441E-05 22328   0.301E-02
  88 F= -.22273324E+03 E0= -.22271817E+03  d E =0.183095E-01  mag=    22.0000
       N       E                     dE             d eps       ncg     rms          rms(c)
DAV:   1    -0.222720306545E+03    0.12944E-01   -0.14672E+00 30160   0.685E+00    0.717E-01
DAV:   2    -0.222748707576E+03   -0.28401E-01   -0.24269E-01 29472   0.132E+00    0.201E+00
DAV:   3    -0.222743610510E+03    0.50971E-02   -0.46708E-02 37672   0.579E-01    0.693E-01
DAV:   4    -0.222744749898E+03   -0.11394E-02   -0.32097E-03 39184   0.219E-01    0.397E-01
DAV:   5    -0.222744599152E+03    0.15075E-03   -0.16356E-03 38608   0.136E-01    0.209E-01
DAV:   6    -0.222744737218E+03   -0.13807E-03   -0.79563E-04 39560   0.956E-02    0.244E-01
DAV:   7    -0.222744691758E+03    0.45460E-04   -0.65753E-04 36280   0.882E-02    0.154E-01
DAV:   8    -0.222744713894E+03   -0.22136E-04   -0.25913E-04 31160   0.611E-02    0.124E-01
DAV:   9    -0.222744695781E+03    0.18112E-04   -0.15112E-04 26792   0.494E-02    0.560E-02
DAV:  10    -0.222744704441E+03   -0.86599E-05   -0.33326E-05 23584   0.313E-02
  89 F= -.22274470E+03 E0= -.22272964E+03  d E =-.114623E-01  mag=    22.0000
       N       E                     dE             d eps       ncg     rms          rms(c)
DAV:   1    -0.222738209111E+03    0.64867E-02   -0.66132E-01 30664   0.465E+00    0.500E-01
DAV:   2    -0.222752165467E+03   -0.13956E-01   -0.11499E-01 30936   0.920E-01    0.154E+00
DAV:   3    -0.222748952531E+03    0.32129E-02   -0.22321E-02 37440   0.426E-01    0.445E-01
DAV:   4    -0.222749652213E+03   -0.69968E-03   -0.13280E-03 39296   0.148E-01    0.252E-01
DAV:   5    -0.222749594210E+03    0.58003E-04   -0.57221E-04 33928   0.915E-02    0.143E-01
DAV:   6    -0.222749671390E+03   -0.77179E-04   -0.43010E-04 33064   0.699E-02    0.191E-01
DAV:   7    -0.222749632981E+03    0.38409E-04   -0.32089E-04 31368   0.669E-02    0.957E-02
DAV:   8    -0.222749662710E+03   -0.29729E-04   -0.15861E-04 27528   0.454E-02    0.118E-01
DAV:   9    -0.222749639363E+03    0.23348E-04   -0.97086E-05 24792   0.372E-02    0.288E-02
DAV:  10    -0.222749644258E+03   -0.48955E-05   -0.14516E-05 16856   0.182E-02
  90 F= -.22274964E+03 E0= -.22273452E+03  d E =-.493982E-02  mag=    22.0000
       N       E                     dE             d eps       ncg     rms          rms(c)
DAV:   1    -0.222736062884E+03    0.13576E-01   -0.95826E-01 30896   0.562E+00    0.599E-01
DAV:   2    -0.222756042855E+03   -0.19980E-01   -0.16709E-01 30552   0.110E+00    0.181E+00
DAV:   3    -0.222751643061E+03    0.43998E-02   -0.34185E-02 37568   0.496E-01    0.537E-01
DAV:   4    -0.222752645833E+03   -0.10028E-02   -0.21336E-03 38824   0.178E-01    0.325E-01
DAV:   5    -0.222752543931E+03    0.10190E-03   -0.11282E-03 36384   0.112E-01    0.174E-01
DAV:   6    -0.222752650397E+03   -0.10647E-03   -0.56763E-04 36424   0.830E-02    0.211E-01
DAV:   7    -0.222752610736E+03    0.39661E-04   -0.39646E-04 32912   0.784E-02    0.119E-01
DAV:   8    -0.222752643003E+03   -0.32267E-04   -0.18628E-04 28688   0.539E-02    0.126E-01
DAV:   9    -0.222752617936E+03    0.25067E-04   -0.10584E-04 26160   0.424E-02    0.383E-02
DAV:  10    -0.222752623780E+03   -0.58436E-05   -0.23763E-05 21168   0.245E-02
  91 F= -.22275262E+03 E0= -.22273745E+03  d E =-.297952E-02  mag=    22.0000
       N       E                     dE             d eps       ncg     rms          rms(c)
DAV:   1    -0.222751120833E+03    0.14971E-02   -0.11176E-01 31496   0.191E+00    0.201E-01
DAV:   2    -0.222753337828E+03   -0.22170E-02   -0.18238E-02 30520   0.373E-01    0.612E-01
DAV:   3    -0.222752811194E+03    0.52663E-03   -0.33317E-03 37432   0.170E-01    0.172E-01
DAV:   4    -0.222752928222E+03   -0.11703E-03   -0.19325E-04 31640   0.601E-02    0.950E-02
DAV:   5    -0.222752921980E+03    0.62412E-05   -0.75960E-05 24856   0.372E-02
  92 F= -.22275292E+03 E0= -.22273761E+03  d E =-.298201E-03  mag=    22.0000
       N       E                     dE             d eps       ncg     rms          rms(c)
DAV:   1    -0.222752271023E+03    0.65720E-03   -0.65251E-02 31400   0.133E+00    0.132E-01
DAV:   2    -0.222753236269E+03   -0.96525E-03   -0.81821E-03 31848   0.270E-01    0.444E-01
DAV:   3    -0.222752921270E+03    0.31500E-03   -0.17908E-03 36752   0.130E-01    0.103E-01
DAV:   4    -0.222752993649E+03   -0.72380E-04   -0.17485E-04 28496   0.552E-02    0.124E-01
DAV:   5    -0.222752978742E+03    0.14907E-04   -0.11599E-04 24712   0.384E-02    0.638E-02
DAV:   6    -0.222752981174E+03   -0.24315E-05   -0.41800E-05 21320   0.251E-02
  93 F= -.22275298E+03 E0= -.22273771E+03  d E =-.591932E-04  mag=    22.0000
       N       E                     dE             d eps       ncg     rms          rms(c)
DAV:   1    -0.222752955342E+03    0.23400E-04   -0.88879E-03 30264   0.436E-01    0.553E-02
DAV:   2    -0.222753081373E+03   -0.12603E-03   -0.82183E-04 34744   0.104E-01    0.202E-01
DAV:   3    -0.222753009735E+03    0.71638E-04   -0.32906E-04 28912   0.696E-02    0.567E-02
DAV:   4    -0.222753015721E+03   -0.59863E-05   -0.40313E-05 21720   0.237E-02
  94 F= -.22275302E+03 E0= -.22273773E+03  d E =-.345476E-04  mag=    22.0000
       N       E                     dE             d eps       ncg     rms          rms(c)
DAV:   1    -0.222752922673E+03    0.87062E-04   -0.32595E-02 29472   0.709E-01    0.554E-02
DAV:   2    -0.222753121151E+03   -0.19848E-03   -0.16118E-03 31712   0.131E-01    0.214E-01
DAV:   3    -0.222753046193E+03    0.74958E-04   -0.32911E-04 29360   0.607E-02    0.432E-02
DAV:   4    -0.222753055716E+03   -0.95236E-05   -0.13992E-05 18712   0.172E-02
  95 F= -.22275306E+03 E0= -.22273778E+03  d E =-.399952E-04  mag=    22.0000
       N       E                     dE             d eps       ncg     rms          rms(c)
DAV:   1    -0.222752671213E+03    0.37498E-03   -0.14499E-01 29072   0.131E+00    0.870E-02
DAV:   2    -0.222753252591E+03   -0.58138E-03   -0.50518E-03 30576   0.235E-01    0.319E-01
DAV:   3    -0.222753087382E+03    0.16521E-03   -0.77550E-04 37968   0.951E-02    0.716E-02
DAV:   4    -0.222753102435E+03   -0.15053E-04   -0.39795E-05 23376   0.249E-02    0.513E-02
DAV:   5    -0.222753100857E+03    0.15784E-05   -0.50004E-05 18720   0.241E-02
  96 F= -.22275310E+03 E0= -.22273785E+03  d E =-.451405E-04  mag=    22.0000
       N       E                     dE             d eps       ncg     rms          rms(c)
DAV:   1    -0.222545017800E+03    0.20808E+00   -0.17029E+01 30768   0.216E+01    0.196E+00
DAV:   2    -0.222750279829E+03   -0.20526E+00   -0.18737E+00 28152   0.389E+00    0.462E+00
DAV:   3    -0.222735711605E+03    0.14568E-01   -0.47547E-01 37432   0.148E+00    0.245E+00
DAV:   4    -0.222736791902E+03   -0.10803E-02   -0.30919E-02 38496   0.667E-01    0.123E+00
DAV:   5    -0.222734968391E+03    0.18235E-02   -0.80064E-03 40408   0.388E-01    0.690E-01
DAV:   6    -0.222736088274E+03   -0.11199E-02   -0.68126E-03 38920   0.277E-01    0.744E-01
DAV:   7    -0.222735901389E+03    0.18688E-03   -0.73280E-03 38512   0.259E-01    0.527E-01
DAV:   8    -0.222736014180E+03   -0.11279E-03   -0.31203E-03 38424   0.217E-01    0.480E-01
DAV:   9    -0.222735752980E+03    0.26120E-03   -0.22830E-03 38744   0.169E-01    0.272E-01
DAV:  10    -0.222735871587E+03   -0.11861E-03   -0.67655E-04 38568   0.136E-01    0.261E-01
DAV:  11    -0.222735914427E+03   -0.42840E-04   -0.68115E-04 38472   0.109E-01    0.189E-01
DAV:  12    -0.222735899369E+03    0.15058E-04   -0.27231E-04 30968   0.761E-02    0.113E-01
DAV:  13    -0.222735887379E+03    0.11990E-04   -0.48488E-05 26296   0.434E-02    0.489E-02
DAV:  14    -0.222735883746E+03    0.36336E-05   -0.14639E-05 20696   0.228E-02
  97 F= -.22273588E+03 E0= -.22272077E+03  d E =0.172171E-01  mag=    22.0000
       N       E                     dE             d eps       ncg     rms          rms(c)
DAV:   1    -0.222671302015E+03    0.64585E-01   -0.50614E+00 31552   0.129E+01    0.138E+00
DAV:   2    -0.222771579596E+03   -0.10028E+00   -0.86236E-01 31184   0.253E+00    0.373E+00
DAV:   3    -0.222747539030E+03    0.24041E-01   -0.14012E-01 37440   0.113E+00    0.113E+00
DAV:   4    -0.222752154715E+03   -0.46157E-02   -0.15441E-02 39688   0.507E-01    0.981E-01
DAV:   5    -0.222751018823E+03    0.11359E-02   -0.53696E-03 38952   0.353E-01    0.409E-01
DAV:   6    -0.222751374235E+03   -0.35541E-03   -0.28316E-03 39224   0.176E-01    0.435E-01
DAV:   7    -0.222751376208E+03   -0.19732E-05   -0.28712E-03 38544   0.170E-01    0.328E-01
DAV:   8    -0.222751447511E+03   -0.71303E-04   -0.17656E-03 38888   0.143E-01    0.297E-01
DAV:   9    -0.222751357852E+03    0.89659E-04   -0.58969E-04 38176   0.956E-02    0.753E-02
DAV:  10    -0.222751395483E+03   -0.37631E-04   -0.76203E-05 27960   0.425E-02    0.648E-02
DAV:  11    -0.222751399760E+03   -0.42768E-05   -0.49307E-05 24064   0.354E-02
  98 F= -.22275140E+03 E0= -.22273635E+03  d E =-.155160E-01  mag=    22.0000
       N       E                     dE             d eps       ncg     rms          rms(c)
DAV:   1    -0.222747671448E+03    0.37240E-02   -0.38358E-01 30864   0.344E+00    0.338E-01
DAV:   2    -0.222753744633E+03   -0.60732E-02   -0.51627E-02 30296   0.644E-01    0.914E-01
DAV:   3    -0.222752610182E+03    0.11345E-02   -0.82440E-03 37416   0.291E-01    0.333E-01
DAV:   4    -0.222752831145E+03   -0.22096E-03   -0.79655E-04 38512   0.114E-01    0.179E-01
DAV:   5    -0.222752804722E+03    0.26423E-04   -0.22914E-04 29752   0.722E-02    0.104E-01
DAV:   6    -0.222752830450E+03   -0.25727E-04   -0.20436E-04 28080   0.495E-02    0.122E-01
DAV:   7    -0.222752825263E+03    0.51866E-05   -0.26019E-04 28256   0.525E-02    0.868E-02
DAV:   8    -0.222752829056E+03   -0.37929E-05   -0.11207E-04 25088   0.438E-02    0.671E-02
DAV:   9    -0.222752825805E+03    0.32512E-05   -0.40544E-05 22576   0.308E-02
  99 F= -.22275283E+03 E0= -.22273787E+03  d E =-.142605E-02  mag=    22.0000
       N       E                     dE             d eps       ncg     rms          rms(c)
DAV:   1    -0.222749248661E+03    0.35804E-02   -0.50625E-01 30096   0.344E+00    0.286E-01
DAV:   2    -0.222753961139E+03   -0.47125E-02   -0.41154E-02 30376   0.631E-01    0.736E-01
DAV:   3    -0.222753274933E+03    0.68621E-03   -0.55024E-03 37800   0.245E-01    0.317E-01
DAV:   4    -0.222753363482E+03   -0.88548E-04   -0.67234E-04 37184   0.964E-02    0.166E-01
DAV:   5    -0.222753343948E+03    0.19533E-04   -0.17918E-04 29464   0.666E-02    0.115E-01
DAV:   6    -0.222753354278E+03   -0.10330E-04   -0.13318E-04 30344   0.494E-02    0.116E-01
DAV:   7    -0.222753351866E+03    0.24121E-05   -0.21067E-04 30328   0.543E-02    0.972E-02
DAV:   8    -0.222753350675E+03    0.11916E-05   -0.16245E-04 25784   0.458E-02    0.705E-02
DAV:   9    -0.222753348056E+03    0.26185E-05   -0.61583E-05 22376   0.313E-02
 100 F= -.22275335E+03 E0= -.22273835E+03  d E =-.522251E-03  mag=    22.0000
       N       E                     dE             d eps       ncg     rms          rms(c)
DAV:   1    -0.222753182753E+03    0.16792E-03   -0.54562E-02 29576   0.937E-01    0.678E-02
DAV:   2    -0.222753530857E+03   -0.34810E-03   -0.28955E-03 31656   0.175E-01    0.246E-01
DAV:   3    -0.222753431456E+03    0.99401E-04   -0.41393E-04 31152   0.626E-02    0.425E-02
DAV:   4    -0.222753448409E+03   -0.16953E-04   -0.23280E-05 22624   0.237E-02    0.432E-02
DAV:   5    -0.222753446197E+03    0.22116E-05   -0.13759E-05 17544   0.188E-02
 101 F= -.22275345E+03 E0= -.22273840E+03  d E =-.981410E-04  mag=    22.0000
       N       E                     dE             d eps       ncg     rms          rms(c)
DAV:   1    -0.222753194658E+03    0.25375E-03   -0.61095E-02 29632   0.994E-01    0.739E-02
DAV:   2    -0.222753568491E+03   -0.37383E-03   -0.32522E-03 31144   0.182E-01    0.257E-01
DAV:   3    -0.222753463387E+03    0.10510E-03   -0.53929E-04 32912   0.699E-02    0.531E-02
DAV:   4    -0.222753485630E+03   -0.22243E-04   -0.56492E-05 23632   0.286E-02    0.729E-02
DAV:   5    -0.222753477224E+03    0.84065E-05   -0.33735E-05 19264   0.227E-02
 102 F= -.22275348E+03 E0= -.22273840E+03  d E =-.310262E-04  mag=    22.0000
       N       E                     dE             d eps       ncg     rms          rms(c)
DAV:   1    -0.222753353609E+03    0.13202E-03   -0.42230E-02 29376   0.696E-01    0.594E-02
DAV:   2    -0.222753580698E+03   -0.22709E-03   -0.17754E-03 32856   0.144E-01    0.253E-01
DAV:   3    -0.222753461481E+03    0.11922E-03   -0.51379E-04 33096   0.800E-02    0.426E-02
DAV:   4    -0.222753474570E+03   -0.13090E-04   -0.36326E-05 22088   0.225E-02    0.454E-02
DAV:   5    -0.222753471935E+03    0.26354E-05   -0.16202E-05 16632   0.154E-02
 103 F= -.22275347E+03 E0= -.22273838E+03  d E =0.528849E-05  mag=    22.0000
       N       E                     dE             d eps       ncg     rms          rms(c)
DAV:   1    -0.222753128142E+03    0.34643E-03   -0.12107E-01 29376   0.114E+00    0.633E-02
DAV:   2    -0.222753488538E+03   -0.36040E-03   -0.35730E-03 29592   0.194E-01    0.143E-01
DAV:   3    -0.222753465103E+03    0.23435E-04   -0.37114E-04 34736   0.583E-02    0.646E-02
DAV:   4    -0.222753462303E+03    0.28001E-05   -0.37178E-05 20288   0.249E-02
 104 F= -.22275346E+03 E0= -.22273833E+03  d E =0.963198E-05  mag=    22.0000
       N       E                     dE             d eps       ncg     rms          rms(c)
DAV:   1    -0.222753031524E+03    0.43358E-03   -0.16565E-01 29088   0.124E+00    0.647E-02
DAV:   2    -0.222753464204E+03   -0.43268E-03   -0.42503E-03 29440   0.208E-01    0.157E-01
DAV:   3    -0.222753430780E+03    0.33424E-04   -0.32908E-04 36800   0.617E-02    0.720E-02
DAV:   4    -0.222753425139E+03    0.56409E-05   -0.37867E-05 21936   0.241E-02
 105 F= -.22275343E+03 E0= -.22273828E+03  d E =0.371645E-04  mag=    22.0000
