       N       E                     dE             d eps       ncg     rms          rms(c)
DAV:   1     0.717347358692E+04    0.71735E+04   -0.33743E+05 41408   0.173E+03
DAV:   2     0.492336417510E+03   -0.66811E+04   -0.62844E+04 40008   0.524E+02
DAV:   3    -0.273436712986E+03   -0.76577E+03   -0.73986E+03 41440   0.194E+02
DAV:   4    -0.307679117498E+03   -0.34242E+02   -0.33991E+02 44920   0.401E+01
DAV:   5    -0.310387678401E+03   -0.27086E+01   -0.27009E+01 69912   0.778E+00    0.275E+00
DAV:   6    -0.311709799609E+03   -0.13221E+01   -0.26827E+00 50688   0.537E+00    0.115E+01
DAV:   7    -0.311458057236E+03    0.25174E+00   -0.17465E+00 48328   0.376E+00    0.690E+00
DAV:   8    -0.311496928741E+03   -0.38872E-01   -0.12923E+00 48112   0.321E+00    0.555E+00
DAV:   9    -0.311488678620E+03    0.82501E-02   -0.57796E-01 47240   0.247E+00    0.590E+00
DAV:  10    -0.311453285645E+03    0.35393E-01   -0.36477E-01 44480   0.172E+00    0.191E+00
DAV:  11    -0.311474250465E+03   -0.20965E-01   -0.80897E-02 46320   0.125E+00    0.226E+00
DAV:  12    -0.311470377225E+03    0.38732E-02   -0.66735E-02 46000   0.899E-01    0.158E+00
DAV:  13    -0.311469144437E+03    0.12328E-02   -0.14800E-02 45984   0.543E-01    0.111E+00
DAV:  14    -0.311469392652E+03   -0.24822E-03   -0.36596E-03 45896   0.296E-01    0.900E-01
DAV:  15    -0.311469413158E+03   -0.20506E-04   -0.15736E-03 51024   0.163E-01    0.863E-01
DAV:  16    -0.311469512520E+03   -0.99362E-04   -0.19018E-03 43680   0.148E-01    0.734E-01
DAV:  17    -0.311469720196E+03   -0.20768E-03   -0.20617E-03 44880   0.204E-01    0.630E-01
DAV:  18    -0.311469868667E+03   -0.14847E-03   -0.18873E-03 46992   0.193E-01    0.580E-01
DAV:  19    -0.311469797802E+03    0.70865E-04   -0.12549E-03 45288   0.142E-01    0.506E-01
DAV:  20    -0.311469695553E+03    0.10225E-03   -0.67724E-04 45096   0.115E-01    0.356E-01
DAV:  21    -0.311469836289E+03   -0.14074E-03   -0.18151E-04 40416   0.666E-02    0.322E-01
DAV:  22    -0.311469861178E+03   -0.24888E-04   -0.65495E-05 33176   0.458E-02    0.299E-01
DAV:  23    -0.311469878898E+03   -0.17720E-04   -0.41621E-05 29816   0.335E-02    0.269E-01
DAV:  24    -0.311469880423E+03   -0.15250E-05   -0.73582E-05 34096   0.325E-02
   1 F= -.31146988E+03 E0= -.31144814E+03  d E =-.311470E+03  mag=    25.9093
       N       E                     dE             d eps       ncg     rms          rms(c)
DAV:   1    -0.311468261018E+03    0.16179E-02   -0.18769E-01 38240   0.269E+00    0.540E-01
DAV:   2    -0.311473763602E+03   -0.55026E-02   -0.70434E-02 47928   0.806E-01    0.166E+00
DAV:   3    -0.311474152583E+03   -0.38898E-03   -0.78269E-02 45248   0.686E-01    0.230E+00
DAV:   4    -0.311471258051E+03    0.28945E-02   -0.57352E-02 43056   0.601E-01    0.169E+00
DAV:   5    -0.311470971287E+03    0.28676E-03   -0.33562E-02 42208   0.568E-01    0.135E+00
DAV:   6    -0.311469802976E+03    0.11683E-02   -0.18986E-02 43232   0.380E-01    0.516E-01
DAV:   7    -0.311471215712E+03   -0.14127E-02   -0.51035E-03 44024   0.291E-01    0.723E-01
DAV:   8    -0.311470602507E+03    0.61321E-03   -0.22348E-03 42800   0.240E-01    0.302E-01
DAV:   9    -0.311470771507E+03   -0.16900E-03   -0.11122E-03 41328   0.142E-01    0.289E-01
DAV:  10    -0.311470710091E+03    0.61416E-04   -0.29944E-04 37696   0.767E-02    0.217E-01
DAV:  11    -0.311470698405E+03    0.11686E-04   -0.46959E-05 27152   0.341E-02    0.189E-01
DAV:  12    -0.311470701173E+03   -0.27676E-05   -0.46989E-05 26656   0.379E-02
   2 F= -.31147070E+03 E0= -.31144887E+03  d E =-.820750E-03  mag=    25.9364
