       N       E                     dE             d eps       ncg     rms          ort
DAV:   1     0.898183281174E+04    0.89818E+04   -0.41373E+05  8208   0.179E+03
DAV:   2     0.631033407098E+03   -0.83508E+04   -0.78210E+04  8208   0.528E+02
DAV:   3    -0.351703796674E+03   -0.98274E+03   -0.94717E+03  8208   0.203E+02
DAV:   4    -0.395355297232E+03   -0.43652E+02   -0.43137E+02  8208   0.401E+01
DAV:   5    -0.397381119582E+03   -0.20258E+01   -0.20101E+01  8208   0.744E+00
SDA:   6    -0.186710475973E+03    0.21067E+03   -0.20101E+01  8208   0.150E+04 0.000E+00
CGA:   7    -0.296649611043E+03   -0.10994E+03   -0.11675E+03  8208   0.757E+03 0.851E+02
CGA:   8    -0.319407327223E+03   -0.22758E+02   -0.22759E+02  8208   0.198E+03 0.201E+03
CGA:   9    -0.320141812012E+03   -0.73448E+00   -0.88994E+01  8208   0.465E+03-0.108E+03
CGA:  10    -0.323813496056E+03   -0.36717E+01   -0.17200E+02  8208   0.454E+03-0.304E+03
CGA:  11    -0.331011377454E+03   -0.71979E+01   -0.11756E+02  8208   0.259E+03-0.740E+02
CGA:  12    -0.325062672168E+03    0.59487E+01   -0.84925E+01  8208   0.411E+03-0.107E+03
CGA:  13    -0.333575034917E+03   -0.85124E+01   -0.60024E+01  8208   0.370E+03 0.510E+02
CGA:  14    -0.335951195770E+03   -0.23762E+01   -0.14984E+02  8208   0.166E+03-0.105E+02
CGA:  15    -0.331692165978E+03    0.42590E+01   -0.61918E+01  8208   0.703E+03-0.216E+03
CGA:  16    -0.335633530673E+03   -0.39414E+01   -0.26358E+02  8208   0.495E+03-0.577E+02
CGA:  17    -0.333292445242E+03    0.23411E+01   -0.16837E+02  8208   0.748E+03-0.506E+02
CGA:  18    -0.331533385687E+03    0.17591E+01   -0.20840E+02  8208   0.152E+03-0.649E+02
CGA:  19    -0.333419212525E+03   -0.18858E+01   -0.84453E+00  8208   0.188E+03 0.186E+03
CGA:  20    -0.337935038042E+03   -0.45158E+01   -0.14213E+01  8208   0.281E+03 0.374E+03
CGA:  21    -0.343423650487E+03   -0.54886E+01   -0.46405E+01  8208   0.105E+03-0.190E+03
CGA:  22    -0.342363622265E+03    0.10600E+01   -0.42710E+01  8208   0.106E+03-0.364E+02
CGA:  23    -0.344476131625E+03   -0.21125E+01   -0.15021E+01  8208   0.708E+02 0.205E+02
CGA:  24    -0.331587421623E+03    0.12889E+02   -0.19645E+01  8208   0.105E+04-0.309E+03
CGA:  25    -0.335276328535E+03   -0.36889E+01   -0.38756E+02  8208   0.456E+03-0.224E+03
CGA:  26    -0.339292212893E+03   -0.40159E+01   -0.10674E+02  8208   0.190E+03-0.796E+02
CGA:  27    -0.344619165596E+03   -0.53270E+01   -0.44053E+01  8208   0.761E+02-0.544E+00
CGA:  28    -0.343292191307E+03    0.13270E+01   -0.16904E+01  8208   0.113E+03-0.722E+02
CGA:  29    -0.342746368182E+03    0.54582E+00   -0.35624E+01  8208   0.130E+03-0.926E+02
CGA:  30    -0.342927593014E+03   -0.18122E+00   -0.36971E+01  8208   0.222E+03-0.123E+03
CGA:  31    -0.343099289591E+03   -0.17170E+00   -0.75762E+01  8208   0.829E+02-0.313E+02
CGA:  32    -0.344606382872E+03   -0.15071E+01   -0.12933E+01  8208   0.122E+03 0.543E+02
CGA:  33    -0.345130601536E+03   -0.52422E+00   -0.26149E+01  8208   0.133E+03-0.113E+03
CGA:  34    -0.344629514692E+03    0.50109E+00   -0.38958E+01  8208   0.505E+02-0.289E+02
CGA:  35    -0.345539918306E+03   -0.91040E+00   -0.39863E+00  8208   0.551E+02 0.506E+02
CGA:  36    -0.346444656653E+03   -0.90474E+00   -0.61475E+00  8208   0.311E+01 0.231E+01
CGA:  37    -0.346491167574E+03   -0.46511E-01   -0.43550E-01  8208   0.150E+01 0.163E+00
CGA:  38    -0.346637738460E+03   -0.14657E+00   -0.13776E+00  8208   0.135E+02 0.267E+00
CGA:  39    -0.344799625155E+03    0.18381E+01   -0.28763E+00  8208   0.796E+02 0.237E+00
CGA:  40    -0.345911658229E+03   -0.11120E+01   -0.43391E+00  8208   0.273E+02 0.630E+02
CGA:  41    -0.346368697508E+03   -0.45704E+00   -0.77739E+00  8208   0.593E+01-0.467E+01
CGA:  42    -0.346474159130E+03   -0.10546E+00   -0.12469E+00  8208   0.368E+01-0.443E+00
CGA:  43    -0.346588314271E+03   -0.11416E+00   -0.11267E+00  8208   0.274E+01 0.647E-02
CGA:  44    -0.346734182791E+03   -0.14587E+00   -0.14541E+00  8208   0.102E+02-0.578E+00
CGA:  45    -0.346833784240E+03   -0.99601E-01   -0.56982E-01  8208   0.105E+02 0.525E+01
CGA:  46    -0.346961235509E+03   -0.12745E+00   -0.15879E+00  8208   0.198E+01-0.188E+01
CGA:  47    -0.347018541074E+03   -0.57306E-01   -0.60467E-01  8208   0.186E+01 0.485E-01
CGA:  48    -0.347111539148E+03   -0.92998E-01   -0.93023E-01  8208   0.282E+01-0.409E-01
CGA:  49    -0.347225822947E+03   -0.11428E+00   -0.11605E+00  8208   0.113E+01 0.120E+00
CGA:  50    -0.347277953164E+03   -0.52130E-01   -0.53077E-01  8208   0.103E+01 0.130E+00
CGA:  51    -0.347339667777E+03   -0.61715E-01   -0.63027E-01  8208   0.181E+01-0.118E+00
CGA:  52    -0.347401114992E+03   -0.61447E-01   -0.60296E-01  8208   0.859E+00-0.146E-01
CGA:  53    -0.347418132915E+03   -0.17018E-01   -0.17749E-01  8208   0.374E+00-0.280E-01
CGA:  54    -0.347431666545E+03   -0.13534E-01   -0.13709E-01  8208   0.302E+00 0.390E-02
CGA:  55    -0.347442745719E+03   -0.11079E-01   -0.11498E-01  8208   0.228E+00 0.132E-01
CGA:  56    -0.347461043320E+03   -0.18298E-01   -0.17163E-01  8208   0.242E+00 0.343E-01
CGA:  57    -0.347471398076E+03   -0.10355E-01   -0.10512E-01  8208   0.876E-01 0.407E-02
CGA:  58    -0.347479890042E+03   -0.84920E-02   -0.80692E-02  8208   0.667E-01 0.907E-02
CGA:  59    -0.347484130693E+03   -0.42407E-02   -0.42285E-02  8208   0.493E-01 0.867E-03
CGA:  60    -0.347487078635E+03   -0.29479E-02   -0.29402E-02  8208   0.341E-01 0.509E-03
CGA:  61    -0.347489266717E+03   -0.21881E-02   -0.21750E-02  8208   0.244E-01 0.676E-03
CGA:  62    -0.347491313256E+03   -0.20465E-02   -0.20194E-02  8208   0.224E-01 0.742E-03
CGA:  63    -0.347492542912E+03   -0.12297E-02   -0.12294E-02  8208   0.128E-01 0.877E-04
CGA:  64    -0.347493433594E+03   -0.89068E-03   -0.88585E-03  8208   0.145E-01 0.206E-03
CGA:  65    -0.347494759890E+03   -0.13263E-02   -0.13138E-02  8208   0.104E-01 0.313E-03
CGA:  66    -0.347495332572E+03   -0.57268E-03   -0.57276E-03  8208   0.671E-02 0.699E-04
CGA:  67    -0.347495794151E+03   -0.46158E-03   -0.45905E-03  8208   0.590E-02 0.134E-03
CGA:  68    -0.347496289122E+03   -0.49497E-03   -0.49407E-03  8208   0.601E-02 0.287E-04
CGA:  69    -0.347496756024E+03   -0.46690E-03   -0.46497E-03  8208   0.532E-02 0.717E-04
CGA:  70    -0.347497102276E+03   -0.34625E-03   -0.34560E-03  8208   0.408E-02 0.581E-04
CGA:  71    -0.347497379257E+03   -0.27698E-03   -0.27640E-03  8208   0.292E-02 0.412E-04
CGA:  72    -0.347497637081E+03   -0.25782E-03   -0.25774E-03  8208   0.351E-02 0.351E-05
CGA:  73    -0.347497887136E+03   -0.25006E-03   -0.24936E-03  8208   0.258E-02 0.441E-04
CGA:  74    -0.347498035952E+03   -0.14882E-03   -0.14897E-03  8208   0.132E-02 0.222E-04
CGA:  75    -0.347498148936E+03   -0.11298E-03   -0.11261E-03  8208   0.146E-02 0.129E-04
SDA:  76    -0.347498265442E+03   -0.11651E-03   -0.11630E-03  8208   0.160E-02 0.960E-05
CGA:  77    -0.347498304955E+03   -0.39513E-04   -0.39586E-04  8208   0.287E-03-0.138E-05
CGA:  78    -0.347498339627E+03   -0.34673E-04   -0.34357E-04  8208   0.418E-03 0.513E-05
CGA:  79    -0.347498394969E+03   -0.55342E-04   -0.54506E-04  8208   0.642E-03 0.126E-04
CGA:  80    -0.347498462611E+03   -0.67642E-04   -0.67148E-04  8208   0.420E-03 0.136E-04
CGA:  81    -0.347498496268E+03   -0.33656E-04   -0.33583E-04  8208   0.296E-03 0.668E-05
CGA:  82    -0.347498526009E+03   -0.29742E-04   -0.29508E-04  8208   0.304E-03 0.759E-05
CGA:  83    -0.347498542295E+03   -0.16285E-04   -0.16359E-04  8208   0.199E-03 0.335E-05
CGA:  84    -0.347498553214E+03   -0.10919E-04   -0.10958E-04  8208   0.645E-04 0.235E-05
CGA:  85    -0.347498566829E+03   -0.13615E-04   -0.12938E-04  8208   0.729E-04 0.521E-05
CGA:  86    -0.347498583118E+03   -0.16290E-04   -0.15708E-04  8208   0.205E-03 0.465E-05
CGA:  87    -0.347498592774E+03   -0.96558E-05   -0.97988E-05  8208   0.783E-04 0.238E-05
   1 F= -.34749859E+03 E0= -.34747803E+03  d E =-.347499E+03  mag=    31.2365
       N       E                     dE             d eps       ncg     rms          ort
SDA:   1    -0.347507591345E+03   -0.90082E-02    0.00000E+00  8208   0.120E+00 0.000E+00
CGA:   2    -0.347510603047E+03   -0.30117E-02   -0.29887E-02  8208   0.762E-02 0.642E-03
CGA:   3    -0.347510888939E+03   -0.28589E-03   -0.28992E-03  8208   0.308E-02-0.506E-04
CGA:   4    -0.347511391738E+03   -0.50280E-03   -0.50265E-03  8208   0.259E-02 0.163E-05
CGA:   5    -0.347511544043E+03   -0.15230E-03   -0.15222E-03  8208   0.923E-03-0.303E-05
CGA:   6    -0.347511640488E+03   -0.96445E-04   -0.96511E-04  8208   0.486E-03-0.269E-05
CGA:   7    -0.347511661449E+03   -0.20960E-04   -0.20950E-04  8208   0.311E-03-0.597E-06
CGA:   8    -0.347511682480E+03   -0.21031E-04   -0.21029E-04  8208   0.686E-04-0.146E-06
CGA:   9    -0.347511690883E+03   -0.84028E-05   -0.83293E-05  8208   0.470E-04 0.168E-05
   2 F= -.34751169E+03 E0= -.34749123E+03  d E =-.130981E-01  mag=    31.2178
       N       E                     dE             d eps       ncg     rms          ort
SDA:   1    -0.343956125046E+03    0.35556E+01    0.00000E+00  8208   0.111E+02 0.000E+00
CGA:   2    -0.346940225788E+03   -0.29841E+01   -0.29850E+01  8208   0.120E+02-0.394E-02
CGA:   3    -0.347417107658E+03   -0.47688E+00   -0.56586E+00  8208   0.849E+01-0.962E+00
CGA:   4    -0.347877921646E+03   -0.46081E+00   -0.47679E+00  8208   0.358E+01 0.254E-01
CGA:   5    -0.348077248336E+03   -0.19933E+00   -0.19485E+00  8208   0.118E+01-0.413E-02
CGA:   6    -0.348167071751E+03   -0.89823E-01   -0.90360E-01  8208   0.116E+01 0.299E-01
CGA:   7    -0.348214036132E+03   -0.46964E-01   -0.49715E-01  8208   0.421E+00-0.340E-01
CGA:   8    -0.348233952996E+03   -0.19917E-01   -0.20843E-01  8208   0.196E+00-0.262E-02
CGA:   9    -0.348250268143E+03   -0.16315E-01   -0.16311E-01  8208   0.112E+00 0.702E-03
CGA:  10    -0.348255265975E+03   -0.49978E-02   -0.50960E-02  8208   0.830E-01-0.747E-03
CGA:  11    -0.348260297883E+03   -0.50319E-02   -0.50453E-02  8208   0.338E-01 0.218E-03
CGA:  12    -0.348262702905E+03   -0.24050E-02   -0.24058E-02  8208   0.226E-01 0.640E-04
CGA:  13    -0.348263885599E+03   -0.11827E-02   -0.11857E-02  8208   0.216E-01 0.193E-04
CGA:  14    -0.348265321187E+03   -0.14356E-02   -0.14371E-02  8208   0.743E-02 0.768E-04
CGA:  15    -0.348265819846E+03   -0.49866E-03   -0.49896E-03  8208   0.665E-02 0.186E-04
CGA:  16    -0.348266262436E+03   -0.44259E-03   -0.44264E-03  8208   0.735E-02 0.575E-05
CGA:  17    -0.348266666091E+03   -0.40366E-03   -0.40510E-03  8208   0.298E-02 0.165E-04
CGA:  18    -0.348266863947E+03   -0.19786E-03   -0.19805E-03  8208   0.204E-02 0.141E-04
CGA:  19    -0.348266999633E+03   -0.13569E-03   -0.13572E-03  8208   0.241E-02 0.344E-05
CGA:  20    -0.348267123260E+03   -0.12363E-03   -0.12374E-03  8208   0.942E-03 0.344E-05
CGA:  21    -0.348267201759E+03   -0.78500E-04   -0.78392E-04  8208   0.718E-03 0.916E-05
CGA:  22    -0.348267235285E+03   -0.33525E-04   -0.33680E-04  8208   0.545E-03 0.525E-05
CGA:  23    -0.348267271253E+03   -0.35969E-04   -0.36011E-04  8208   0.289E-03 0.747E-05
CGA:  24    -0.348267293859E+03   -0.22606E-04   -0.22558E-04  8208   0.216E-03 0.733E-05
CGA:  25    -0.348267303086E+03   -0.92268E-05   -0.93100E-05  8208   0.129E-03 0.258E-05
CGA:  26    -0.348267313881E+03   -0.10796E-04   -0.10774E-04  8208   0.128E-03 0.157E-05
CGA:  27    -0.348267323763E+03   -0.98819E-05   -0.98779E-05  8208   0.806E-04 0.551E-06
   3 F= -.34826732E+03 E0= -.34824697E+03  d E =-.755633E+00  mag=    31.1957
       N       E                     dE             d eps       ncg     rms          ort
SDA:   1    -0.324604733349E+03    0.23663E+02    0.00000E+00  8208   0.981E+02 0.000E+00
CGA:   2    -0.332980357239E+03   -0.83756E+01   -0.79317E+01  8208   0.807E+02 0.237E+02
CGA:   3    -0.341821261564E+03   -0.88409E+01   -0.87223E+01  8208   0.627E+02 0.895E+01
CGA:   4    -0.345722276847E+03   -0.39010E+01   -0.39638E+01  8208   0.446E+02-0.108E+01
CGA:   5    -0.346907538131E+03   -0.11853E+01   -0.11778E+01  8208   0.214E+02-0.489E+01
CGA:   6    -0.348212962264E+03   -0.13054E+01   -0.11276E+01  8208   0.131E+02-0.654E+01
CGA:   7    -0.348880325717E+03   -0.66736E+00   -0.67567E+00  8208   0.916E+01-0.729E+00
CGA:   8    -0.349111398967E+03   -0.23107E+00   -0.25844E+00  8208   0.255E+01-0.751E+00
CGA:   9    -0.349268906772E+03   -0.15751E+00   -0.15762E+00  8208   0.145E+01-0.455E-01
CGA:  10    -0.349407951354E+03   -0.13904E+00   -0.14109E+00  8208   0.127E+01-0.541E-01
CGA:  11    -0.349450809991E+03   -0.42859E-01   -0.42383E-01  8208   0.467E+00 0.371E-02
CGA:  12    -0.349478595826E+03   -0.27786E-01   -0.27680E-01  8208   0.471E+00-0.564E-02
CGA:  13    -0.349514946633E+03   -0.36351E-01   -0.36364E-01  8208   0.329E+00-0.370E-03
CGA:  14    -0.349529139884E+03   -0.14193E-01   -0.14271E-01  8208   0.150E+00-0.175E-03
CGA:  15    -0.349537516988E+03   -0.83771E-02   -0.84491E-02  8208   0.114E+00 0.295E-02
CGA:  16    -0.349545064906E+03   -0.75479E-02   -0.75479E-02  8208   0.112E+00 0.362E-03
CGA:  17    -0.349553117326E+03   -0.80524E-02   -0.80433E-02  8208   0.247E-01 0.841E-03
CGA:  18    -0.349556665233E+03   -0.35479E-02   -0.33253E-02  8208   0.229E-01 0.316E-02
CGA:  19    -0.349558367535E+03   -0.17023E-02   -0.17045E-02  8208   0.190E-01 0.414E-03
CGA:  20    -0.349559683468E+03   -0.13159E-02   -0.13159E-02  8208   0.133E-01-0.118E-04
CGA:  21    -0.349560283333E+03   -0.59986E-03   -0.60244E-03  8208   0.655E-02 0.491E-05
CGA:  22    -0.349560871661E+03   -0.58833E-03   -0.58173E-03  8208   0.397E-02 0.226E-03
CGA:  23    -0.349561199648E+03   -0.32799E-03   -0.32729E-03  8208   0.284E-02 0.461E-04
CGA:  24    -0.349561488242E+03   -0.28859E-03   -0.28746E-03  8208   0.161E-02 0.377E-04
CGA:  25    -0.349561590566E+03   -0.10232E-03   -0.10247E-03  8208   0.153E-02 0.111E-04
CGA:  26    -0.349561685310E+03   -0.94744E-04   -0.94826E-04  8208   0.110E-02 0.638E-05
CGA:  27    -0.349561767028E+03   -0.81718E-04   -0.81666E-04  8208   0.803E-03 0.655E-05
CGA:  28    -0.349561833642E+03   -0.66614E-04   -0.66613E-04  8208   0.363E-03-0.111E-05
CGA:  29    -0.349561879401E+03   -0.45759E-04   -0.45698E-04  8208   0.591E-03 0.785E-06
CGA:  30    -0.349561909052E+03   -0.29651E-04   -0.29667E-04  8208   0.346E-03 0.396E-06
CGA:  31    -0.349561934147E+03   -0.25096E-04   -0.25094E-04  8208   0.289E-03 0.210E-05
SDA:  32    -0.349561955799E+03   -0.21652E-04   -0.21646E-04  8208   0.143E-03 0.208E-05
CGA:  33    -0.349561963834E+03   -0.80353E-05   -0.80361E-05  8208   0.108E-03-0.285E-06
CGA:  34    -0.349561974592E+03   -0.10758E-04   -0.10782E-04  8208   0.167E-03-0.102E-05
CGA:  35    -0.349561985102E+03   -0.10509E-04   -0.10504E-04  8208   0.137E-03-0.826E-06
CGA:  36    -0.349561992599E+03   -0.74976E-05   -0.74978E-05  8208   0.303E-04-0.422E-08
   4 F= -.34956199E+03 E0= -.34954135E+03  d E =-.129467E+01  mag=    31.2463
       N       E                     dE             d eps       ncg     rms          ort
SDA:   1    -0.329638138977E+03    0.19924E+02    0.00000E+00  8208   0.807E+02 0.000E+00
CGA:   2    -0.336618329107E+03   -0.69802E+01   -0.67398E+01  8208   0.712E+02 0.173E+02
CGA:   3    -0.343313242593E+03   -0.66949E+01   -0.66962E+01  8208   0.604E+02 0.108E+00
CGA:   4    -0.346649440909E+03   -0.33362E+01   -0.32626E+01  8208   0.407E+02-0.528E+01
CGA:   5    -0.347841790021E+03   -0.11923E+01   -0.11124E+01  8208   0.179E+02-0.148E+01
CGA:   6    -0.348874675411E+03   -0.10329E+01   -0.71716E+00  8208   0.674E+01 0.271E+01
CGA:   7    -0.349403372318E+03   -0.52870E+00   -0.52988E+00  8208   0.121E+02 0.192E+00
CGA:   8    -0.349715657674E+03   -0.31229E+00   -0.37751E+00  8208   0.741E+01-0.139E+01
CGA:   9    -0.349856880387E+03   -0.14122E+00   -0.14996E+00  8208   0.341E+01-0.396E+00
CGA:  10    -0.349950127145E+03   -0.93247E-01   -0.83401E-01  8208   0.110E+01 0.267E+00
CGA:  11    -0.349984671168E+03   -0.34544E-01   -0.33579E-01  8208   0.140E+01 0.165E-01
CGA:  12    -0.350060538967E+03   -0.75868E-01   -0.75277E-01  8208   0.212E+01-0.185E-01
CGA:  13    -0.350103371155E+03   -0.42832E-01   -0.47365E-01  8208   0.834E+00-0.146E+00
CGA:  14    -0.350120518312E+03   -0.17147E-01   -0.19921E-01  8208   0.442E+00-0.689E-01
CGA:  15    -0.350131106639E+03   -0.10588E-01   -0.10567E-01  8208   0.235E+00 0.466E-05
CGA:  16    -0.350146731723E+03   -0.15625E-01   -0.15583E-01  8208   0.583E+00 0.299E-02
CGA:  17    -0.350166180336E+03   -0.19449E-01   -0.19303E-01  8208   0.227E+00 0.162E-02
CGA:  18    -0.350172091219E+03   -0.59109E-02   -0.60025E-02  8208   0.123E+00-0.201E-02
CGA:  19    -0.350176628500E+03   -0.45373E-02   -0.46339E-02  8208   0.776E-01 0.404E-03
CGA:  20    -0.350180193693E+03   -0.35652E-02   -0.35706E-02  8208   0.113E+00 0.230E-03
CGA:  21    -0.350185408408E+03   -0.52147E-02   -0.51947E-02  8208   0.610E-01-0.886E-03
CGA:  22    -0.350187308844E+03   -0.19004E-02   -0.19274E-02  8208   0.448E-01-0.196E-03
CGA:  23    -0.350189567186E+03   -0.22583E-02   -0.22625E-02  8208   0.246E-01 0.148E-02
CGA:  24    -0.350190389835E+03   -0.82265E-03   -0.82124E-03  8208   0.180E-01 0.192E-04
CGA:  25    -0.350191629394E+03   -0.12396E-02   -0.12438E-02  8208   0.160E-01-0.172E-03
CGA:  26    -0.350192196914E+03   -0.56752E-03   -0.56924E-03  8208   0.126E-01 0.173E-04
CGA:  27    -0.350192901218E+03   -0.70430E-03   -0.70188E-03  8208   0.700E-02 0.300E-03
CGA:  28    -0.350193147862E+03   -0.24664E-03   -0.24696E-03  8208   0.500E-02 0.590E-05
CGA:  29    -0.350193447650E+03   -0.29979E-03   -0.29998E-03  8208   0.368E-02-0.914E-05
CGA:  30    -0.350193637938E+03   -0.19029E-03   -0.19026E-03  8208   0.468E-02 0.168E-04
CGA:  31    -0.350193862007E+03   -0.22407E-03   -0.22427E-03  8208   0.142E-02 0.303E-04
SDA:  32    -0.350193923344E+03   -0.61336E-04   -0.61384E-04  8208   0.151E-02 0.410E-05
CGA:  33    -0.350193971661E+03   -0.48318E-04   -0.48405E-04  8208   0.775E-03 0.157E-06
CGA:  34    -0.350194092535E+03   -0.12087E-03   -0.12065E-03  8208   0.112E-02 0.191E-05
CGA:  35    -0.350194177099E+03   -0.84564E-04   -0.84608E-04  8208   0.436E-03-0.330E-05
CGA:  36    -0.350194218292E+03   -0.41193E-04   -0.41259E-04  8208   0.484E-03-0.207E-05
CGA:  37    -0.350194258256E+03   -0.39963E-04   -0.40016E-04  8208   0.401E-03-0.228E-05
CGA:  38    -0.350194281214E+03   -0.22958E-04   -0.22959E-04  8208   0.285E-03 0.483E-07
CGA:  39    -0.350194296758E+03   -0.15544E-04   -0.15553E-04  8208   0.188E-03 0.179E-05
CGA:  40    -0.350194327842E+03   -0.31085E-04   -0.30186E-04  8208   0.935E-04 0.877E-05
CGA:  41    -0.350194346937E+03   -0.19095E-04   -0.19359E-04  8208   0.696E-04-0.201E-05
CGA:  42    -0.350194349740E+03   -0.28033E-05   -0.27844E-05  8208   0.531E-04-0.729E-06
   5 F= -.35019435E+03 E0= -.35017340E+03  d E =-.632357E+00  mag=    31.2619
       N       E                     dE             d eps       ncg     rms          ort
SDA:   1    -0.332161340605E+03    0.18033E+02    0.00000E+00  8208   0.711E+02 0.000E+00
CGA:   2    -0.338110891929E+03   -0.59496E+01   -0.57621E+01  8208   0.670E+02 0.132E+02
CGA:   3    -0.344241963209E+03   -0.61311E+01   -0.61920E+01  8208   0.503E+02-0.469E+01
CGA:   4    -0.347168095596E+03   -0.29261E+01   -0.28096E+01  8208   0.371E+02-0.527E+01
CGA:   5    -0.348174061165E+03   -0.10060E+01   -0.10626E+01  8208   0.244E+02-0.289E+01
CGA:   6    -0.349114126332E+03   -0.94007E+00   -0.72248E+00  8208   0.898E+01 0.271E+01
CGA:   7    -0.349687171487E+03   -0.57305E+00   -0.55459E+00  8208   0.850E+01-0.364E+00
CGA:   8    -0.349956666398E+03   -0.26949E+00   -0.30218E+00  8208   0.585E+01-0.397E+00
CGA:   9    -0.350144535113E+03   -0.18787E+00   -0.21047E+00  8208   0.353E+01-0.182E+00
CGA:  10    -0.350211668988E+03   -0.67134E-01   -0.57157E-01  8208   0.101E+01 0.460E+00
CGA:  11    -0.350251767902E+03   -0.40099E-01   -0.39686E-01  8208   0.150E+01 0.237E-02
CGA:  12    -0.350299184681E+03   -0.47417E-01   -0.46702E-01  8208   0.185E+01 0.924E-02
CGA:  13    -0.350345023032E+03   -0.45838E-01   -0.48843E-01  8208   0.129E+01-0.726E-01
CGA:  14    -0.350371282888E+03   -0.26260E-01   -0.29154E-01  8208   0.403E+00-0.832E-01
CGA:  15    -0.350378390083E+03   -0.71072E-02   -0.67191E-02  8208   0.224E+00 0.163E-01
CGA:  16    -0.350389524307E+03   -0.11134E-01   -0.11125E-01  8208   0.505E+00-0.489E-03
CGA:  17    -0.350403576080E+03   -0.14052E-01   -0.14043E-01  8208   0.424E+00 0.157E-03
CGA:  18    -0.350413227693E+03   -0.96516E-02   -0.10251E-01  8208   0.293E+00-0.140E-01
CGA:  19    -0.350420326067E+03   -0.70984E-02   -0.78762E-02  8208   0.124E+00-0.102E-01
CGA:  20    -0.350422964508E+03   -0.26384E-02   -0.26534E-02  8208   0.649E-01-0.416E-03
CGA:  21    -0.350426078399E+03   -0.31139E-02   -0.31133E-02  8208   0.859E-01-0.586E-03
CGA:  22    -0.350428933948E+03   -0.28555E-02   -0.28843E-02  8208   0.829E-01 0.153E-03
CGA:  23    -0.350432767544E+03   -0.38336E-02   -0.38407E-02  8208   0.792E-01 0.212E-02
CGA:  24    -0.350434747522E+03   -0.19800E-02   -0.19980E-02  8208   0.209E-01-0.295E-03
CGA:  25    -0.350435919957E+03   -0.11724E-02   -0.11724E-02  8208   0.315E-01 0.363E-05
CGA:  26    -0.350436930626E+03   -0.10107E-02   -0.10155E-02  8208   0.108E-01 0.285E-04
CGA:  27    -0.350437477911E+03   -0.54728E-03   -0.54685E-03  8208   0.181E-01 0.602E-04
CGA:  28    -0.350438407690E+03   -0.92978E-03   -0.92866E-03  8208   0.852E-02 0.148E-03
CGA:  29    -0.350438699651E+03   -0.29196E-03   -0.29217E-03  8208   0.645E-02 0.126E-04
CGA:  30    -0.350439007560E+03   -0.30791E-03   -0.30793E-03  8208   0.449E-02-0.334E-05
CGA:  31    -0.350439238498E+03   -0.23094E-03   -0.23055E-03  8208   0.564E-02 0.481E-04
SDA:  32    -0.350439474521E+03   -0.23602E-03   -0.23673E-03  8208   0.201E-02 0.599E-04
CGA:  33    -0.350439582203E+03   -0.10768E-03   -0.10761E-03  8208   0.129E-02 0.603E-05
CGA:  34    -0.350439680920E+03   -0.98718E-04   -0.98858E-04  8208   0.158E-02-0.513E-05
CGA:  35    -0.350439785826E+03   -0.10491E-03   -0.10501E-03  8208   0.152E-02-0.693E-05
CGA:  36    -0.350439891542E+03   -0.10572E-03   -0.10576E-03  8208   0.578E-03-0.326E-05
CGA:  37    -0.350439934808E+03   -0.43266E-04   -0.43189E-04  8208   0.323E-03 0.299E-05
CGA:  38    -0.350439976222E+03   -0.41414E-04   -0.40960E-04  8208   0.260E-03 0.605E-05
CGA:  39    -0.350440029109E+03   -0.52887E-04   -0.52155E-04  8208   0.366E-03 0.472E-05
CGA:  40    -0.350440044755E+03   -0.15646E-04   -0.15664E-04  8208   0.223E-03 0.299E-06
CGA:  41    -0.350440061633E+03   -0.16879E-04   -0.16887E-04  8208   0.187E-03-0.907E-06
CGA:  42    -0.350440074763E+03   -0.13130E-04   -0.13138E-04  8208   0.149E-03-0.120E-05
CGA:  43    -0.350440088682E+03   -0.13919E-04   -0.13943E-04  8208   0.489E-04-0.839E-06
CGA:  44    -0.350440100959E+03   -0.12277E-04   -0.12175E-04  8208   0.784E-04 0.475E-06
CGA:  45    -0.350440103598E+03   -0.26388E-05   -0.26512E-05  8208   0.321E-04 0.173E-06
   6 F= -.35044010E+03 E0= -.35041898E+03  d E =-.245754E+00  mag=    31.3074
       N       E                     dE             d eps       ncg     rms          ort
SDA:   1    -0.337370451384E+03    0.13070E+02    0.00000E+00  8208   0.519E+02 0.000E+00
CGA:   2    -0.341000695124E+03   -0.36302E+01   -0.36738E+01  8208   0.498E+02 0.931E+01
CGA:   3    -0.345909692232E+03   -0.49090E+01   -0.51507E+01  8208   0.447E+02-0.843E+01
CGA:   4    -0.348377668955E+03   -0.24680E+01   -0.23957E+01  8208   0.140E+02-0.350E+01
CGA:   5    -0.349322020449E+03   -0.94435E+00   -0.94503E+00  8208   0.176E+02-0.164E+01
CGA:   6    -0.349978214337E+03   -0.65619E+00   -0.67618E+00  8208   0.367E+01-0.199E+00
CGA:   7    -0.350154130064E+03   -0.17592E+00   -0.17769E+00  8208   0.256E+01-0.800E-02
CGA:   8    -0.350329492544E+03   -0.17536E+00   -0.17560E+00  8208   0.139E+01 0.660E-01
CGA:   9    -0.350390426954E+03   -0.60934E-01   -0.57370E-01  8208   0.730E+00 0.284E-01
CGA:  10    -0.350432902334E+03   -0.42475E-01   -0.42455E-01  8208   0.369E+00-0.544E-03
CGA:  11    -0.350463795984E+03   -0.30894E-01   -0.31075E-01  8208   0.496E+00-0.747E-02
CGA:  12    -0.350480834894E+03   -0.17039E-01   -0.17875E-01  8208   0.124E+00-0.102E-01
CGA:  13    -0.350490948722E+03   -0.10114E-01   -0.10124E-01  8208   0.156E+00-0.411E-03
CGA:  14    -0.350498053006E+03   -0.71043E-02   -0.72836E-02  8208   0.737E-01 0.396E-03
CGA:  15    -0.350502843840E+03   -0.47908E-02   -0.47920E-02  8208   0.627E-01 0.253E-03
CGA:  16    -0.350505853047E+03   -0.30092E-02   -0.30565E-02  8208   0.280E-01 0.338E-03
CGA:  17    -0.350507983506E+03   -0.21305E-02   -0.21314E-02  8208   0.294E-01-0.681E-04
CGA:  18    -0.350509444495E+03   -0.14610E-02   -0.14791E-02  8208   0.154E-01 0.215E-03
CGA:  19    -0.350510562166E+03   -0.11177E-02   -0.11171E-02  8208   0.116E-01 0.593E-04
CGA:  20    -0.350511154570E+03   -0.59240E-03   -0.59539E-03  8208   0.591E-02 0.452E-04
CGA:  21    -0.350511541118E+03   -0.38655E-03   -0.38655E-03  8208   0.570E-02 0.821E-05
CGA:  22    -0.350511976440E+03   -0.43532E-03   -0.43440E-03  8208   0.276E-02 0.599E-04
CGA:  23    -0.350512097223E+03   -0.12078E-03   -0.12095E-03  8208   0.163E-02 0.509E-05
CGA:  24    -0.350512267819E+03   -0.17060E-03   -0.16981E-03  8208   0.165E-02 0.176E-04
CGA:  25    -0.350512350355E+03   -0.82536E-04   -0.82666E-04  8208   0.895E-03 0.307E-05
CGA:  26    -0.350512414321E+03   -0.63966E-04   -0.63935E-04  8208   0.663E-03 0.410E-05
CGA:  27    -0.350512452343E+03   -0.38023E-04   -0.38054E-04  8208   0.475E-03 0.241E-05
CGA:  28    -0.350512496399E+03   -0.44056E-04   -0.43980E-04  8208   0.481E-03 0.247E-05
CGA:  29    -0.350512520602E+03   -0.24203E-04   -0.24218E-04  8208   0.262E-03 0.110E-06
CGA:  30    -0.350512542891E+03   -0.22289E-04   -0.22279E-04  8208   0.258E-03 0.152E-06
CGA:  31    -0.350512558310E+03   -0.15420E-04   -0.15426E-04  8208   0.177E-03 0.516E-06
SDA:  32    -0.350512571847E+03   -0.13536E-04   -0.13532E-04  8208   0.188E-03 0.346E-06
CGA:  33    -0.350512577183E+03   -0.53357E-05   -0.53176E-05  8208   0.643E-04-0.320E-06
   7 F= -.35051258E+03 E0= -.35049158E+03  d E =-.724736E-01  mag=    31.3305
       N       E                     dE             d eps       ncg     rms          ort
SDA:   1    -0.327271809223E+03    0.23241E+02    0.00000E+00  8208   0.119E+03 0.000E+00
CGA:   2    -0.332523197152E+03   -0.52514E+01   -0.60370E+01  8208   0.796E+02 0.974E+01
CGA:   3    -0.339555410354E+03   -0.70322E+01   -0.11042E+02  8208   0.198E+03-0.487E+02
CGA:   4    -0.345062591736E+03   -0.55072E+01   -0.75979E+01  8208   0.470E+02-0.657E+02
CGA:   5    -0.347195874636E+03   -0.21333E+01   -0.22499E+01  8208   0.359E+02-0.191E+02
CGA:   6    -0.348663916684E+03   -0.14680E+01   -0.14689E+01  8208   0.193E+02-0.653E+00
CGA:   7    -0.349239398481E+03   -0.57548E+00   -0.61434E+00  8208   0.107E+02-0.145E+01
CGA:   8    -0.349749839349E+03   -0.51044E+00   -0.52953E+00  8208   0.754E+01 0.393E+00
CGA:   9    -0.350255558074E+03   -0.50572E+00   -0.50695E+00  8208   0.212E+01 0.664E+00
CGA:  10    -0.350392131696E+03   -0.13657E+00   -0.13799E+00  8208   0.987E+00 0.103E+00
CGA:  11    -0.350459881508E+03   -0.67750E-01   -0.67749E-01  8208   0.114E+01-0.347E-01
CGA:  12    -0.350519478379E+03   -0.59597E-01   -0.60444E-01  8208   0.449E+00 0.268E-01
CGA:  13    -0.350542533129E+03   -0.23055E-01   -0.23360E-01  8208   0.177E+00 0.497E-02
CGA:  14    -0.350553042694E+03   -0.10510E-01   -0.10552E-01  8208   0.164E+00 0.321E-02
CGA:  15    -0.350564904614E+03   -0.11862E-01   -0.11837E-01  8208   0.168E+00 0.212E-02
CGA:  16    -0.350574420528E+03   -0.95159E-02   -0.95587E-02  8208   0.699E-01 0.191E-02
CGA:  17    -0.350578920730E+03   -0.45002E-02   -0.45005E-02  8208   0.386E-01 0.669E-03
CGA:  18    -0.350582948488E+03   -0.40278E-02   -0.39928E-02  8208   0.709E-01 0.795E-03
CGA:  19    -0.350586079224E+03   -0.31307E-02   -0.30954E-02  8208   0.277E-01 0.112E-03
CGA:  20    -0.350587909886E+03   -0.18307E-02   -0.18306E-02  8208   0.105E-01 0.379E-04
CGA:  21    -0.350588974387E+03   -0.10645E-02   -0.10633E-02  8208   0.109E-01 0.280E-04
CGA:  22    -0.350589572330E+03   -0.59794E-03   -0.59860E-03  8208   0.934E-02 0.259E-04
CGA:  23    -0.350590029953E+03   -0.45762E-03   -0.45876E-03  8208   0.251E-02 0.261E-04
CGA:  24    -0.350590229410E+03   -0.19946E-03   -0.19945E-03  8208   0.231E-02 0.178E-05
CGA:  25    -0.350590419179E+03   -0.18977E-03   -0.18940E-03  8208   0.237E-02 0.196E-04
CGA:  26    -0.350590544683E+03   -0.12550E-03   -0.12588E-03  8208   0.149E-02 0.131E-04
CGA:  27    -0.350590627136E+03   -0.82453E-04   -0.82589E-04  8208   0.915E-03 0.647E-05
CGA:  28    -0.350590725591E+03   -0.98455E-04   -0.98112E-04  8208   0.880E-03 0.739E-05
CGA:  29    -0.350590797459E+03   -0.71867E-04   -0.71822E-04  8208   0.112E-02 0.370E-05
CGA:  30    -0.350590850259E+03   -0.52800E-04   -0.53157E-04  8208   0.539E-03 0.517E-05
CGA:  31    -0.350590909495E+03   -0.59236E-04   -0.58994E-04  8208   0.501E-03 0.542E-05
CGA:  32    -0.350590955820E+03   -0.46325E-04   -0.46025E-04  8208   0.538E-03 0.118E-04
CGA:  33    -0.350590979306E+03   -0.23487E-04   -0.23531E-04  8208   0.292E-03 0.272E-05
SDA:  34    -0.350591010928E+03   -0.31621E-04   -0.31507E-04  8208   0.258E-03 0.260E-05
CGA:  35    -0.350591020476E+03   -0.95481E-05   -0.95899E-05  8208   0.966E-04 0.731E-06
   8 F= -.35059102E+03 E0= -.35057022E+03  d E =-.784433E-01  mag=    31.2948
       N       E                     dE             d eps       ncg     rms          ort
SDA:   1    -0.343934716531E+03    0.66563E+01    0.00000E+00  8208   0.241E+02 0.000E+00
CGA:   2    -0.346007105695E+03   -0.20724E+01   -0.20676E+01  8208   0.379E+02 0.502E+00
CGA:   3    -0.348283054564E+03   -0.22759E+01   -0.21749E+01  8208   0.174E+02-0.254E+01
CGA:   4    -0.349259048846E+03   -0.97599E+00   -0.96659E+00  8208   0.969E+01-0.263E+00
CGA:   5    -0.350161151930E+03   -0.90210E+00   -0.93287E+00  8208   0.587E+01-0.813E+00
CGA:   6    -0.350343653112E+03   -0.18250E+00   -0.20398E+00  8208   0.260E+01-0.273E+00
CGA:   7    -0.350493118634E+03   -0.14947E+00   -0.15031E+00  8208   0.116E+01 0.393E-01
CGA:   8    -0.350571460945E+03   -0.78342E-01   -0.78440E-01  8208   0.464E+00 0.324E-01
CGA:   9    -0.350604078600E+03   -0.32618E-01   -0.32620E-01  8208   0.271E+00-0.271E-02
CGA:  10    -0.350617981750E+03   -0.13903E-01   -0.13997E-01  8208   0.206E+00 0.112E-02
CGA:  11    -0.350630794504E+03   -0.12813E-01   -0.12841E-01  8208   0.698E-01 0.244E-02
CGA:  12    -0.350635715933E+03   -0.49214E-02   -0.49193E-02  8208   0.520E-01 0.457E-03
CGA:  13    -0.350639082866E+03   -0.33669E-02   -0.33659E-02  8208   0.441E-01-0.152E-03
CGA:  14    -0.350641424460E+03   -0.23416E-02   -0.23535E-02  8208   0.144E-01 0.250E-03
CGA:  15    -0.350642656014E+03   -0.12316E-02   -0.12317E-02  8208   0.153E-01 0.238E-05
CGA:  16    -0.350643473113E+03   -0.81710E-03   -0.81944E-03  8208   0.916E-02 0.532E-04
CGA:  17    -0.350644132788E+03   -0.65968E-03   -0.65912E-03  8208   0.507E-02 0.641E-04
CGA:  18    -0.350644482430E+03   -0.34964E-03   -0.34960E-03  8208   0.472E-02 0.174E-04
CGA:  19    -0.350644801603E+03   -0.31917E-03   -0.31917E-03  8208   0.329E-02 0.100E-04
CGA:  20    -0.350645001679E+03   -0.20008E-03   -0.20012E-03  8208   0.188E-02 0.613E-05
CGA:  21    -0.350645133075E+03   -0.13140E-03   -0.13138E-03  8208   0.143E-02 0.466E-05
CGA:  22    -0.350645228333E+03   -0.95258E-04   -0.95260E-04  8208   0.105E-02 0.746E-05
CGA:  23    -0.350645289885E+03   -0.61552E-04   -0.61599E-04  8208   0.674E-03 0.372E-05
CGA:  24    -0.350645345520E+03   -0.55635E-04   -0.55609E-04  8208   0.403E-03 0.145E-05
CGA:  25    -0.350645367256E+03   -0.21736E-04   -0.21753E-04  8208   0.328E-03 0.112E-05
CGA:  26    -0.350645394415E+03   -0.27159E-04   -0.27112E-04  8208   0.212E-03 0.271E-05
CGA:  27    -0.350645409386E+03   -0.14971E-04   -0.14969E-04  8208   0.156E-03 0.550E-06
CGA:  28    -0.350645418216E+03   -0.88301E-05   -0.88419E-05  8208   0.118E-03 0.919E-06
CGA:  29    -0.350645428622E+03   -0.10406E-04   -0.10360E-04  8208   0.828E-04 0.208E-05
CGA:  30    -0.350645434702E+03   -0.60803E-05   -0.60774E-05  8208   0.802E-04 0.559E-06
   9 F= -.35064543E+03 E0= -.35062511E+03  d E =-.544142E-01  mag=    31.1945
       N       E                     dE             d eps       ncg     rms          ort
SDA:   1    -0.339425456090E+03    0.11220E+02    0.00000E+00  8208   0.423E+02 0.000E+00
CGA:   2    -0.341890530935E+03   -0.24651E+01   -0.25639E+01  8208   0.453E+02 0.553E+01
CGA:   3    -0.346014474413E+03   -0.41239E+01   -0.63903E+01  8208   0.133E+03-0.299E+02
CGA:   4    -0.348128479726E+03   -0.21140E+01   -0.48223E+01  8208   0.216E+02-0.169E+02
CGA:   5    -0.349200892792E+03   -0.10724E+01   -0.59849E+00  8208   0.895E+01 0.135E+02
CGA:   6    -0.349484297833E+03   -0.28341E+00   -0.20516E+00  8208   0.299E+01 0.222E+01
CGA:   7    -0.349820188474E+03   -0.33589E+00   -0.33166E+00  8208   0.110E+02 0.132E+00
CGA:   8    -0.350151668774E+03   -0.33148E+00   -0.33917E+00  8208   0.702E+01-0.192E+00
CGA:   9    -0.350368893234E+03   -0.21722E+00   -0.22024E+00  8208   0.308E+01-0.788E-01
CGA:  10    -0.350437496541E+03   -0.68603E-01   -0.74985E-01  8208   0.139E+01-0.184E+00
CGA:  11    -0.350527602906E+03   -0.90106E-01   -0.90079E-01  8208   0.246E+01 0.198E-02
CGA:  12    -0.350608323674E+03   -0.80721E-01   -0.82082E-01  8208   0.614E+00-0.148E-01
CGA:  13    -0.350629194834E+03   -0.20871E-01   -0.21084E-01  8208   0.378E+00-0.144E-02
CGA:  14    -0.350645425629E+03   -0.16231E-01   -0.16300E-01  8208   0.216E+00 0.867E-03
CGA:  15    -0.350657718205E+03   -0.12293E-01   -0.12293E-01  8208   0.188E+00 0.752E-03
CGA:  16    -0.350666693015E+03   -0.89748E-02   -0.90064E-02  8208   0.171E+00 0.936E-03
CGA:  17    -0.350675056056E+03   -0.83630E-02   -0.83704E-02  8208   0.686E-01 0.275E-03
CGA:  18    -0.350678466402E+03   -0.34103E-02   -0.34108E-02  8208   0.789E-01 0.121E-04
CGA:  19    -0.350683137456E+03   -0.46711E-02   -0.46665E-02  8208   0.488E-01 0.840E-03
CGA:  20    -0.350686070827E+03   -0.29334E-02   -0.29319E-02  8208   0.393E-01 0.253E-03
CGA:  21    -0.350687967018E+03   -0.18962E-02   -0.18953E-02  8208   0.240E-01-0.292E-04
CGA:  22    -0.350688977945E+03   -0.10109E-02   -0.10110E-02  8208   0.775E-02 0.442E-05
CGA:  23    -0.350689672714E+03   -0.69477E-03   -0.69358E-03  8208   0.161E-01 0.320E-04
CGA:  24    -0.350690463811E+03   -0.79110E-03   -0.79151E-03  8208   0.545E-02 0.323E-04
CGA:  25    -0.350690741824E+03   -0.27801E-03   -0.27818E-03  8208   0.316E-02 0.149E-04
CGA:  26    -0.350691003477E+03   -0.26165E-03   -0.26164E-03  8208   0.454E-02-0.144E-05
CGA:  27    -0.350691206632E+03   -0.20316E-03   -0.20302E-03  8208   0.158E-02-0.965E-05
CGA:  28    -0.350691352458E+03   -0.14583E-03   -0.14575E-03  8208   0.173E-02 0.196E-05
CGA:  29    -0.350691434583E+03   -0.82125E-04   -0.82313E-04  8208   0.119E-02 0.112E-04
CGA:  30    -0.350691510846E+03   -0.76263E-04   -0.76179E-04  8208   0.950E-03 0.147E-04
CGA:  31    -0.350691577118E+03   -0.66272E-04   -0.66213E-04  8208   0.649E-03 0.565E-05
CGA:  32    -0.350691611511E+03   -0.34394E-04   -0.34389E-04  8208   0.672E-03-0.968E-06
CGA:  33    -0.350691660000E+03   -0.48489E-04   -0.48534E-04  8208   0.318E-03-0.355E-05
CGA:  34    -0.350691680173E+03   -0.20173E-04   -0.20172E-04  8208   0.350E-03-0.795E-07
CGA:  35    -0.350691705469E+03   -0.25296E-04   -0.25287E-04  8208   0.372E-03 0.201E-06
SDA:  36    -0.350691724175E+03   -0.18706E-04   -0.18702E-04  8208   0.120E-03-0.549E-06
CGA:  37    -0.350691741348E+03   -0.17173E-04   -0.16881E-04  8208   0.142E-03 0.350E-05
CGA:  38    -0.350691748248E+03   -0.69001E-05   -0.69202E-05  8208   0.114E-03 0.980E-06
CGA:  39    -0.350691761957E+03   -0.13709E-04   -0.13665E-04  8208   0.450E-04 0.713E-06
CGA:  40    -0.350691766245E+03   -0.42880E-05   -0.42844E-05  8208   0.342E-04 0.645E-07
  10 F= -.35069177E+03 E0= -.35067209E+03  d E =-.463315E-01  mag=    31.0533
       N       E                     dE             d eps       ncg     rms          ort
SDA:   1    -0.316287223281E+03    0.34405E+02    0.00000E+00  8208   0.178E+03 0.000E+00
CGA:   2    -0.326645630257E+03   -0.10358E+02   -0.10711E+02  8208   0.986E+02 0.185E+02
CGA:   3    -0.336206577618E+03   -0.95609E+01   -0.12304E+02  8208   0.157E+03-0.458E+02
CGA:   4    -0.342029203231E+03   -0.58226E+01   -0.66606E+01  8208   0.642E+02-0.454E+02
CGA:   5    -0.344822838645E+03   -0.27936E+01   -0.28509E+01  8208   0.478E+02 0.296E+01
CGA:   6    -0.347261072210E+03   -0.24382E+01   -0.23313E+01  8208   0.338E+02-0.221E+01
CGA:   7    -0.348651510789E+03   -0.13904E+01   -0.14853E+01  8208   0.732E+01 0.161E+00
CGA:   8    -0.349367247388E+03   -0.71574E+00   -0.70837E+00  8208   0.747E+01 0.215E+00
CGA:   9    -0.349829674503E+03   -0.46243E+00   -0.46184E+00  8208   0.277E+01-0.271E-01
CGA:  10    -0.350144332498E+03   -0.31466E+00   -0.31261E+00  8208   0.193E+01 0.444E-01
CGA:  11    -0.350344626706E+03   -0.20029E+00   -0.21569E+00  8208   0.153E+01-0.355E+00
CGA:  12    -0.350425582787E+03   -0.80956E-01   -0.80588E-01  8208   0.933E+00-0.182E-01
CGA:  13    -0.350489286212E+03   -0.63703E-01   -0.63504E-01  8208   0.729E+00-0.282E-01
CGA:  14    -0.350564743219E+03   -0.75457E-01   -0.73754E-01  8208   0.288E+00 0.387E-01
CGA:  15    -0.350594547835E+03   -0.29805E-01   -0.30407E-01  8208   0.453E+00-0.172E-01
CGA:  16    -0.350623924320E+03   -0.29376E-01   -0.29450E-01  8208   0.160E+00 0.602E-02
CGA:  17    -0.350636914831E+03   -0.12991E-01   -0.12941E-01  8208   0.123E+00 0.511E-02
CGA:  18    -0.350651042858E+03   -0.14128E-01   -0.13738E-01  8208   0.996E-01 0.891E-02
CGA:  19    -0.350658302043E+03   -0.72592E-02   -0.72862E-02  8208   0.454E-01 0.129E-02
CGA:  20    -0.350662303682E+03   -0.40016E-02   -0.39904E-02  8208   0.604E-01 0.657E-03
CGA:  21    -0.350665521480E+03   -0.32178E-02   -0.32194E-02  8208   0.290E-01 0.450E-05
CGA:  22    -0.350668162767E+03   -0.26413E-02   -0.26367E-02  8208   0.163E-01 0.194E-03
CGA:  23    -0.350669480001E+03   -0.13172E-02   -0.13160E-02  8208   0.162E-01 0.164E-03
CGA:  24    -0.350670709203E+03   -0.12292E-02   -0.12292E-02  8208   0.112E-01 0.109E-04
CGA:  25    -0.350671568101E+03   -0.85890E-03   -0.85888E-03  8208   0.982E-02 0.244E-04
CGA:  26    -0.350672092399E+03   -0.52430E-03   -0.52487E-03  8208   0.498E-02 0.626E-05
CGA:  27    -0.350672827850E+03   -0.73545E-03   -0.73008E-03  8208   0.490E-02 0.746E-04
CGA:  28    -0.350673151402E+03   -0.32355E-03   -0.32366E-03  8208   0.476E-02 0.709E-05
CGA:  29    -0.350673463476E+03   -0.31207E-03   -0.31259E-03  8208   0.282E-02 0.179E-04
CGA:  30    -0.350673868492E+03   -0.40502E-03   -0.40364E-03  8208   0.280E-02 0.210E-04
CGA:  31    -0.350674050191E+03   -0.18170E-03   -0.18253E-03  8208   0.252E-02 0.190E-04
SDA:  32    -0.350674246961E+03   -0.19677E-03   -0.19682E-03  8208   0.218E-02 0.163E-04
CGA:  33    -0.350674347139E+03   -0.10018E-03   -0.99991E-04  8208   0.165E-02 0.616E-06
CGA:  34    -0.350674512546E+03   -0.16541E-03   -0.16534E-03  8208   0.199E-02 0.283E-05
CGA:  35    -0.350674684558E+03   -0.17201E-03   -0.17183E-03  8208   0.107E-02 0.174E-04
CGA:  36    -0.350674759394E+03   -0.74836E-04   -0.74892E-04  8208   0.347E-03 0.343E-05
CGA:  37    -0.350674800190E+03   -0.40796E-04   -0.40717E-04  8208   0.517E-03 0.201E-05
CGA:  38    -0.350674880226E+03   -0.80036E-04   -0.78893E-04  8208   0.546E-03 0.158E-04
CGA:  39    -0.350674957911E+03   -0.77685E-04   -0.76698E-04  8208   0.859E-03 0.179E-04
CGA:  40    -0.350674999657E+03   -0.41746E-04   -0.42151E-04  8208   0.487E-03 0.478E-05
CGA:  41    -0.350675141723E+03   -0.14207E-03   -0.13554E-03  8208   0.369E-03 0.353E-04
CGA:  42    -0.350675201495E+03   -0.59772E-04   -0.59154E-04  8208   0.905E-03 0.109E-04
CGA:  43    -0.350675277909E+03   -0.76415E-04   -0.77060E-04  8208   0.615E-03 0.214E-04
CGA:  44    -0.350675320480E+03   -0.42571E-04   -0.42820E-04  8208   0.400E-03 0.710E-05
CGA:  45    -0.350675353438E+03   -0.32958E-04   -0.33144E-04  8208   0.185E-03 0.915E-05
CGA:  46    -0.350675391431E+03   -0.37993E-04   -0.37198E-04  8208   0.229E-03 0.763E-05
CGA:  47    -0.350675404684E+03   -0.13253E-04   -0.13453E-04  8208   0.134E-03 0.160E-05
CGA:  48    -0.350675417258E+03   -0.12574E-04   -0.12581E-04  8208   0.988E-04 0.168E-05
CGA:  49    -0.350675426087E+03   -0.88285E-05   -0.88466E-05  8208   0.824E-04 0.150E-05
  11 F= -.35067543E+03 E0= -.35065773E+03  d E =0.163402E-01  mag=    30.6668
       N       E                     dE             d eps       ncg     rms          ort
SDA:   1    -0.339637647386E+03    0.11038E+02    0.00000E+00  8208   0.495E+02 0.000E+00
CGA:   2    -0.343964900939E+03   -0.43273E+01   -0.43260E+01  8208   0.464E+02-0.639E+00
CGA:   3    -0.346869252302E+03   -0.29044E+01   -0.27911E+01  8208   0.184E+02-0.124E+01
CGA:   4    -0.348267172872E+03   -0.13979E+01   -0.13370E+01  8208   0.232E+02-0.100E+01
CGA:   5    -0.349680411466E+03   -0.14132E+01   -0.13489E+01  8208   0.101E+02-0.153E+00
CGA:   6    -0.350096273348E+03   -0.41586E+00   -0.30776E+00  8208   0.302E+01 0.241E+01
CGA:   7    -0.350448827334E+03   -0.35255E+00   -0.35145E+00  8208   0.365E+01 0.138E+00
CGA:   8    -0.350588278563E+03   -0.13945E+00   -0.14951E+00  8208   0.129E+01-0.172E+00
CGA:   9    -0.350650794942E+03   -0.62516E-01   -0.62999E-01  8208   0.854E+00-0.132E-03
CGA:  10    -0.350683749980E+03   -0.32955E-01   -0.32016E-01  8208   0.444E+00 0.138E-01
CGA:  11    -0.350712409781E+03   -0.28660E-01   -0.28690E-01  8208   0.451E+00 0.219E-03
CGA:  12    -0.350731728237E+03   -0.19318E-01   -0.20533E-01  8208   0.176E+00-0.922E-02
CGA:  13    -0.350739636421E+03   -0.79082E-02   -0.80581E-02  8208   0.101E+00-0.714E-03
CGA:  14    -0.350750033617E+03   -0.10397E-01   -0.10399E-01  8208   0.683E-01-0.343E-04
CGA:  15    -0.350753471307E+03   -0.34377E-02   -0.34964E-02  8208   0.491E-01-0.850E-04
CGA:  16    -0.350756867951E+03   -0.33966E-02   -0.34057E-02  8208   0.151E-01 0.401E-03
CGA:  17    -0.350758724622E+03   -0.18567E-02   -0.18496E-02  8208   0.283E-01 0.107E-03
CGA:  18    -0.350760123387E+03   -0.13988E-02   -0.14151E-02  8208   0.884E-02-0.444E-04
CGA:  19    -0.350760950050E+03   -0.82666E-03   -0.82549E-03  8208   0.336E-02 0.541E-04
CGA:  20    -0.350761215406E+03   -0.26536E-03   -0.26536E-03  8208   0.542E-02 0.324E-05
CGA:  21    -0.350761719337E+03   -0.50393E-03   -0.50310E-03  8208   0.124E-02 0.420E-04
CGA:  22    -0.350761846692E+03   -0.12735E-03   -0.12733E-03  8208   0.149E-02 0.185E-06
CGA:  23    -0.350761948550E+03   -0.10186E-03   -0.10189E-03  8208   0.121E-02-0.822E-06
CGA:  24    -0.350762049069E+03   -0.10052E-03   -0.10050E-03  8208   0.622E-03 0.462E-05
CGA:  25    -0.350762097554E+03   -0.48485E-04   -0.48508E-04  8208   0.342E-03 0.609E-05
CGA:  26    -0.350762141812E+03   -0.44258E-04   -0.43830E-04  8208   0.533E-03 0.886E-05
CGA:  27    -0.350762173442E+03   -0.31630E-04   -0.31781E-04  8208   0.283E-03 0.473E-05
CGA:  28    -0.350762213542E+03   -0.40099E-04   -0.39923E-04  8208   0.135E-03 0.277E-05
CGA:  29    -0.350762236133E+03   -0.22592E-04   -0.22559E-04  8208   0.245E-03 0.352E-06
CGA:  30    -0.350762252823E+03   -0.16690E-04   -0.16735E-04  8208   0.202E-03 0.198E-05
CGA:  31    -0.350762273558E+03   -0.20735E-04   -0.20626E-04  8208   0.114E-03 0.688E-05
SDA:  32    -0.350762286669E+03   -0.13110E-04   -0.13038E-04  8208   0.122E-03 0.333E-05
CGA:  33    -0.350762294644E+03   -0.79748E-05   -0.79843E-05  8208   0.748E-04 0.232E-06
  12 F= -.35076229E+03 E0= -.35074614E+03  d E =-.868686E-01  mag=    30.5203
       N       E                     dE             d eps       ncg     rms          ort
SDA:   1    -0.350381212548E+03    0.38107E+00    0.00000E+00  8208   0.149E+01 0.000E+00
CGA:   2    -0.350504525071E+03   -0.12331E+00   -0.12288E+00  8208   0.201E+01-0.244E-01
CGA:   3    -0.350649671205E+03   -0.14515E+00   -0.14634E+00  8208   0.573E+00 0.220E-01
CGA:   4    -0.350721459332E+03   -0.71788E-01   -0.72262E-01  8208   0.489E+00-0.102E-01
CGA:   5    -0.350751169652E+03   -0.29710E-01   -0.30221E-01  8208   0.164E+00 0.122E-02
CGA:   6    -0.350760205625E+03   -0.90360E-02   -0.93255E-02  8208   0.913E-01-0.578E-03
CGA:   7    -0.350768170541E+03   -0.79649E-02   -0.79649E-02  8208   0.165E-01-0.367E-03
CGA:   8    -0.350770553521E+03   -0.23830E-02   -0.23784E-02  8208   0.101E-01 0.743E-04
CGA:   9    -0.350771216128E+03   -0.66261E-03   -0.66201E-03  8208   0.598E-02-0.140E-05
CGA:  10    -0.350771613279E+03   -0.39715E-03   -0.39633E-03  8208   0.261E-02-0.524E-05
CGA:  11    -0.350771881306E+03   -0.26803E-03   -0.26786E-03  8208   0.151E-02 0.920E-05
CGA:  12    -0.350772021549E+03   -0.14024E-03   -0.14025E-03  8208   0.446E-03-0.129E-05
CGA:  13    -0.350772109756E+03   -0.88207E-04   -0.87699E-04  8208   0.350E-03 0.478E-05
CGA:  14    -0.350772136070E+03   -0.26314E-04   -0.26329E-04  8208   0.264E-03 0.732E-06
CGA:  15    -0.350772158450E+03   -0.22380E-04   -0.22391E-04  8208   0.213E-03 0.104E-05
CGA:  16    -0.350772179014E+03   -0.20563E-04   -0.20555E-04  8208   0.105E-03 0.255E-05
CGA:  17    -0.350772191026E+03   -0.12013E-04   -0.11999E-04  8208   0.579E-04 0.707E-06
CGA:  18    -0.350772202925E+03   -0.11898E-04   -0.11662E-04  8208   0.407E-04 0.223E-05
CGA:  19    -0.350772207273E+03   -0.43488E-05   -0.43469E-05  8208   0.407E-04 0.570E-06
  13 F= -.35077221E+03 E0= -.35075675E+03  d E =-.991263E-02  mag=    30.4518
       N       E                     dE             d eps       ncg     rms          ort
SDA:   1    -0.344088161045E+03    0.66840E+01    0.00000E+00  8208   0.192E+02 0.000E+00
CGA:   2    -0.347556295415E+03   -0.34681E+01   -0.33644E+01  8208   0.251E+02 0.112E+01
CGA:   3    -0.349227154904E+03   -0.16709E+01   -0.16053E+01  8208   0.818E+01 0.602E+00
CGA:   4    -0.350394314577E+03   -0.11672E+01   -0.11761E+01  8208   0.253E+01-0.187E+00
CGA:   5    -0.350581033187E+03   -0.18672E+00   -0.18319E+00  8208   0.216E+01-0.195E-01
CGA:   6    -0.350714632847E+03   -0.13360E+00   -0.14030E+00  8208   0.415E+00-0.986E-02
CGA:   7    -0.350756182970E+03   -0.41550E-01   -0.41550E-01  8208   0.274E+00-0.202E-02
CGA:   8    -0.350777722961E+03   -0.21540E-01   -0.21818E-01  8208   0.117E+00 0.337E-02
CGA:   9    -0.350785563644E+03   -0.78407E-02   -0.78630E-02  8208   0.602E-01 0.511E-04
CGA:  10    -0.350790874215E+03   -0.53106E-02   -0.53113E-02  8208   0.308E-01 0.511E-04
CGA:  11    -0.350794184218E+03   -0.33100E-02   -0.33073E-02  8208   0.107E-01 0.169E-03
CGA:  12    -0.350795052764E+03   -0.86855E-03   -0.87288E-03  8208   0.114E-01 0.818E-04
CGA:  13    -0.350796310053E+03   -0.12573E-02   -0.12576E-02  8208   0.361E-02-0.910E-05
CGA:  14    -0.350796719845E+03   -0.40979E-03   -0.40870E-03  8208   0.399E-02 0.485E-04
CGA:  15    -0.350797110645E+03   -0.39080E-03   -0.39077E-03  8208   0.253E-02-0.360E-05
CGA:  16    -0.350797310504E+03   -0.19986E-03   -0.20035E-03  8208   0.124E-02 0.114E-04
CGA:  17    -0.350797440011E+03   -0.12951E-03   -0.12938E-03  8208   0.822E-03 0.133E-04
CGA:  18    -0.350797541291E+03   -0.10128E-03   -0.10103E-03  8208   0.610E-03 0.878E-05
CGA:  19    -0.350797578510E+03   -0.37219E-04   -0.37284E-04  8208   0.241E-03 0.158E-05
CGA:  20    -0.350797619781E+03   -0.41271E-04   -0.40893E-04  8208   0.207E-03 0.514E-05
CGA:  21    -0.350797638437E+03   -0.18656E-04   -0.18671E-04  8208   0.150E-03 0.111E-05
CGA:  22    -0.350797653775E+03   -0.15337E-04   -0.15334E-04  8208   0.119E-03 0.189E-05
CGA:  23    -0.350797669399E+03   -0.15625E-04   -0.15511E-04  8208   0.116E-03 0.331E-05
CGA:  24    -0.350797682823E+03   -0.13424E-04   -0.13414E-04  8208   0.781E-04 0.978E-06
CGA:  25    -0.350797692048E+03   -0.92247E-05   -0.92063E-05  8208   0.104E-03 0.921E-06
CGA:  26    -0.350797703199E+03   -0.11151E-04   -0.11148E-04  8208   0.498E-04 0.114E-05
CGA:  27    -0.350797709734E+03   -0.65346E-05   -0.65278E-05  8208   0.471E-04 0.174E-06
  14 F= -.35079771E+03 E0= -.35078389E+03  d E =-.255025E-01  mag=    30.3177
       N       E                     dE             d eps       ncg     rms          ort
SDA:   1    -0.283554232184E+03    0.67243E+02    0.00000E+00  8208   0.421E+03 0.000E+00
CGA:   2    -0.307936431901E+03   -0.24382E+02   -0.29600E+02  8208   0.254E+03 0.141E+02
CGA:   3    -0.329484916021E+03   -0.21548E+02   -0.22627E+02  8208   0.867E+02 0.563E+02
CGA:   4    -0.337004333678E+03   -0.75194E+01   -0.88052E+01  8208   0.873E+02 0.318E+02
CGA:   5    -0.337802106936E+03   -0.79777E+00   -0.44991E+01  8208   0.162E+03-0.948E+02
CGA:   6    -0.341721650525E+03   -0.39195E+01   -0.76859E+01  8208   0.920E+02-0.342E+02
CGA:   7    -0.341627238849E+03    0.94412E-01   -0.35163E+01  8208   0.212E+03-0.159E+02
CGA:   8    -0.342579894174E+03   -0.95266E+00   -0.75388E+01  8208   0.729E+02-0.277E+02
CGA:   9    -0.345774408485E+03   -0.31945E+01   -0.15794E+01  8208   0.536E+02 0.676E+02
CGA:  10    -0.347925254407E+03   -0.21508E+01   -0.10847E+01  8208   0.303E+02 0.496E+02
CGA:  11    -0.348864495057E+03   -0.93924E+00   -0.53428E+00  8208   0.127E+02 0.224E+02
CGA:  12    -0.349161092427E+03   -0.29660E+00   -0.16225E+00  8208   0.634E+01 0.984E+01
CGA:  13    -0.349347216265E+03   -0.18612E+00   -0.12088E+00  8208   0.248E+01 0.290E+01
CGA:  14    -0.349507442207E+03   -0.16023E+00   -0.14287E+00  8208   0.792E+01 0.156E+00
CGA:  15    -0.349728054844E+03   -0.22061E+00   -0.26573E+00  8208   0.213E+02-0.105E+01
CGA:  16    -0.349877782494E+03   -0.14973E+00   -0.13054E+00  8208   0.116E+02 0.279E+01
CGA:  17    -0.349945694899E+03   -0.67912E-01   -0.14583E+00  8208   0.303E+01-0.611E+01
CGA:  18    -0.350253818635E+03   -0.30812E+00   -0.32110E+00  8208   0.294E+01-0.290E+00
CGA:  19    -0.350362912851E+03   -0.10909E+00   -0.10737E+00  8208   0.131E+01 0.610E-02
CGA:  20    -0.350418660526E+03   -0.55748E-01   -0.59933E-01  8208   0.560E+00 0.227E-01
CGA:  21    -0.350458122324E+03   -0.39462E-01   -0.39538E-01  8208   0.715E+00-0.814E-02
CGA:  22    -0.350501004417E+03   -0.42882E-01   -0.43083E-01  8208   0.459E+00 0.283E-01
CGA:  23    -0.350579873736E+03   -0.78869E-01   -0.77864E-01  8208   0.211E+00 0.814E-02
CGA:  24    -0.350598113845E+03   -0.18240E-01   -0.18086E-01  8208   0.238E+00 0.693E-02
CGA:  25    -0.350611612946E+03   -0.13499E-01   -0.13652E-01  8208   0.154E+00 0.244E-02
CGA:  26    -0.350623807235E+03   -0.12194E-01   -0.12132E-01  8208   0.477E-01 0.429E-02
CGA:  27    -0.350627446237E+03   -0.36390E-02   -0.36350E-02  8208   0.346E-01 0.505E-03
CGA:  28    -0.350630307380E+03   -0.28611E-02   -0.28437E-02  8208   0.253E-01 0.965E-03
CGA:  29    -0.350632815342E+03   -0.25080E-02   -0.24868E-02  8208   0.228E-01 0.649E-03
CGA:  30    -0.350634327555E+03   -0.15122E-02   -0.15180E-02  8208   0.135E-01 0.352E-03
CGA:  31    -0.350635972546E+03   -0.16450E-02   -0.16310E-02  8208   0.829E-02 0.262E-03
CGA:  32    -0.350636857857E+03   -0.88531E-03   -0.88050E-03  8208   0.105E-01 0.126E-03
CGA:  33    -0.350637742751E+03   -0.88489E-03   -0.88237E-03  8208   0.583E-02 0.217E-03
CGA:  34    -0.350638322157E+03   -0.57941E-03   -0.57365E-03  8208   0.296E-02 0.205E-03
CGA:  35    -0.350638679944E+03   -0.35779E-03   -0.35349E-03  8208   0.343E-02 0.952E-04
CGA:  36    -0.350639065968E+03   -0.38602E-03   -0.38440E-03  8208   0.317E-02 0.429E-04
CGA:  37    -0.350639371517E+03   -0.30555E-03   -0.30365E-03  8208   0.206E-02 0.864E-04
CGA:  38    -0.350639608859E+03   -0.23734E-03   -0.23713E-03  8208   0.129E-02 0.539E-05
CGA:  39    -0.350639829346E+03   -0.22049E-03   -0.21456E-03  8208   0.159E-02 0.705E-04
CGA:  40    -0.350639968013E+03   -0.13867E-03   -0.13874E-03  8208   0.775E-03 0.139E-04
CGA:  41    -0.350640059342E+03   -0.91328E-04   -0.90536E-04  8208   0.641E-03 0.214E-04
CGA:  42    -0.350640156395E+03   -0.97053E-04   -0.97426E-04  8208   0.434E-03-0.601E-05
CGA:  43    -0.350640200127E+03   -0.43732E-04   -0.43604E-04  8208   0.351E-03 0.772E-05
CGA:  44    -0.350640245473E+03   -0.45346E-04   -0.45448E-04  8208   0.251E-03-0.220E-05
CGA:  45    -0.350640278191E+03   -0.32718E-04   -0.32467E-04  8208   0.174E-03 0.573E-05
CGA:  46    -0.350640296738E+03   -0.18547E-04   -0.18543E-04  8208   0.103E-03 0.645E-06
CGA:  47    -0.350640310937E+03   -0.14199E-04   -0.14101E-04  8208   0.109E-03 0.205E-05
SDA:  48    -0.350640323474E+03   -0.12537E-04   -0.12536E-04  8208   0.509E-04 0.108E-06
CGA:  49    -0.350640326821E+03   -0.33477E-05   -0.33629E-05  8208   0.254E-04 0.342E-06
  15 F= -.35064033E+03 E0= -.35062835E+03  d E =0.157383E+00  mag=    30.2070
       N       E                     dE             d eps       ncg     rms          ort
SDA:   1    -0.278008169128E+03    0.72632E+02    0.00000E+00  8208   0.434E+03 0.000E+00
CGA:   2    -0.313421296296E+03   -0.35413E+02   -0.33248E+02  8208   0.199E+03-0.644E+02
CGA:   3    -0.330157988230E+03   -0.16737E+02   -0.14451E+02  8208   0.157E+03-0.108E+03
CGA:   4    -0.333648314236E+03   -0.34903E+01   -0.78487E+01  8208   0.150E+03-0.500E+02
CGA:   5    -0.339795684675E+03   -0.61474E+01   -0.42610E+01  8208   0.724E+02 0.987E+01
CGA:   6    -0.340955381161E+03   -0.11597E+01   -0.17051E+01  8208   0.133E+03-0.771E+02
CGA:   7    -0.340047206389E+03    0.90817E+00   -0.54039E+01  8208   0.824E+02-0.152E+02
CGA:   8    -0.344562128132E+03   -0.45149E+01   -0.19837E+01  8208   0.447E+02-0.206E+02
CGA:   9    -0.344814261569E+03   -0.25213E+00   -0.37343E+00  8208   0.519E+02-0.171E+02
CGA:  10    -0.344683710689E+03    0.13055E+00   -0.91838E+00  8208   0.202E+03-0.150E+02
CGA:  11    -0.348886040161E+03   -0.42023E+01   -0.47527E+01  8208   0.297E+02-0.110E+02
CGA:  12    -0.349761097443E+03   -0.87506E+00   -0.88754E+00  8208   0.665E+01 0.303E+01
CGA:  13    -0.349929465628E+03   -0.16837E+00   -0.96962E-01  8208   0.378E+01 0.520E+01
CGA:  14    -0.350155734380E+03   -0.22627E+00   -0.20453E+00  8208   0.400E+01-0.224E+00
CGA:  15    -0.350506051402E+03   -0.35032E+00   -0.34964E+00  8208   0.165E+01 0.186E-01
CGA:  16    -0.350558368142E+03   -0.52317E-01   -0.57589E-01  8208   0.956E+00-0.684E-01
CGA:  17    -0.350658504484E+03   -0.10014E+00   -0.10179E+00  8208   0.122E+01-0.308E-01
CGA:  18    -0.350726069308E+03   -0.67565E-01   -0.65751E-01  8208   0.731E+00-0.311E-01
CGA:  19    -0.350753114908E+03   -0.27046E-01   -0.26855E-01  8208   0.384E+00 0.359E-02
CGA:  20    -0.350771798848E+03   -0.18684E-01   -0.18830E-01  8208   0.362E+00 0.871E-03
CGA:  21    -0.350791371641E+03   -0.19573E-01   -0.19662E-01  8208   0.321E+00 0.185E-02
CGA:  22    -0.350806099944E+03   -0.14728E-01   -0.15242E-01  8208   0.228E+00 0.212E-02
CGA:  23    -0.350818885551E+03   -0.12786E-01   -0.12913E-01  8208   0.107E+00 0.488E-02
CGA:  24    -0.350826289232E+03   -0.74037E-02   -0.74103E-02  8208   0.828E-01-0.131E-02
CGA:  25    -0.350831100793E+03   -0.48116E-02   -0.48403E-02  8208   0.527E-01 0.196E-02
CGA:  26    -0.350836384794E+03   -0.52840E-02   -0.51722E-02  8208   0.327E-01 0.287E-02
CGA:  27    -0.350838562501E+03   -0.21777E-02   -0.21775E-02  8208   0.209E-01-0.143E-04
CGA:  28    -0.350840619939E+03   -0.20574E-02   -0.20093E-02  8208   0.119E-01 0.128E-02
CGA:  29    -0.350841789349E+03   -0.11694E-02   -0.11652E-02  8208   0.144E-01 0.136E-03
CGA:  30    -0.350842999834E+03   -0.12105E-02   -0.12096E-02  8208   0.910E-02 0.539E-04
CGA:  31    -0.350843913432E+03   -0.91360E-03   -0.89247E-03  8208   0.519E-02 0.585E-03
CGA:  32    -0.350844625996E+03   -0.71256E-03   -0.69885E-03  8208   0.659E-02 0.222E-03
CGA:  33    -0.350845101309E+03   -0.47531E-03   -0.47606E-03  8208   0.365E-02 0.721E-04
CGA:  34    -0.350845558438E+03   -0.45713E-03   -0.45940E-03  8208   0.234E-02-0.424E-04
CGA:  35    -0.350845809542E+03   -0.25110E-03   -0.24747E-03  8208   0.142E-02 0.902E-04
CGA:  36    -0.350846013607E+03   -0.20407E-03   -0.20238E-03  8208   0.112E-02 0.271E-04
CGA:  37    -0.350846164067E+03   -0.15046E-03   -0.14956E-03  8208   0.645E-03 0.163E-04
CGA:  38    -0.350846261798E+03   -0.97731E-04   -0.97407E-04  8208   0.912E-03 0.464E-05
CGA:  39    -0.350846338739E+03   -0.76942E-04   -0.76987E-04  8208   0.575E-03 0.746E-05
CGA:  40    -0.350846402363E+03   -0.63623E-04   -0.63431E-04  8208   0.341E-03 0.715E-05
CGA:  41    -0.350846459254E+03   -0.56891E-04   -0.56416E-04  8208   0.234E-03 0.624E-05
CGA:  42    -0.350846486715E+03   -0.27461E-04   -0.27328E-04  8208   0.158E-03 0.499E-05
CGA:  43    -0.350846510247E+03   -0.23533E-04   -0.23571E-04  8208   0.137E-03-0.728E-06
SDA:  44    -0.350846523036E+03   -0.12789E-04   -0.12791E-04  8208   0.106E-03 0.861E-06
CGA:  45    -0.350846528489E+03   -0.54529E-05   -0.54490E-05  8208   0.426E-04 0.426E-07
  16 F= -.35084653E+03 E0= -.35083308E+03  d E =-.206202E+00  mag=    30.2844
       N       E                     dE             d eps       ncg     rms          ort
SDA:   1    -0.347317424461E+03    0.35291E+01    0.00000E+00  8208   0.174E+02 0.000E+00
CGA:   2    -0.348926586749E+03   -0.16092E+01   -0.16160E+01  8208   0.822E+01 0.939E+00
CGA:   3    -0.349801014517E+03   -0.87443E+00   -0.88141E+00  8208   0.517E+01-0.742E+00
CGA:   4    -0.350350148049E+03   -0.54913E+00   -0.61105E+00  8208   0.758E+01-0.149E+01
CGA:   5    -0.350626220726E+03   -0.27607E+00   -0.27774E+00  8208   0.151E+01 0.163E-01
CGA:   6    -0.350743531452E+03   -0.11731E+00   -0.11983E+00  8208   0.118E+01 0.474E-01
CGA:   7    -0.350816098217E+03   -0.72567E-01   -0.68805E-01  8208   0.303E+00 0.182E-01
CGA:   8    -0.350845407470E+03   -0.29309E-01   -0.29284E-01  8208   0.172E+00 0.548E-02
CGA:   9    -0.350856010269E+03   -0.10603E-01   -0.10915E-01  8208   0.120E+00 0.361E-03
CGA:  10    -0.350866193731E+03   -0.10183E-01   -0.10229E-01  8208   0.392E-01 0.300E-02
CGA:  11    -0.350869656008E+03   -0.34623E-02   -0.34645E-02  8208   0.361E-01 0.230E-03
CGA:  12    -0.350873031075E+03   -0.33751E-02   -0.33743E-02  8208   0.169E-01 0.212E-03
CGA:  13    -0.350874037775E+03   -0.10067E-02   -0.10389E-02  8208   0.729E-02 0.511E-04
CGA:  14    -0.350875147565E+03   -0.11098E-02   -0.11079E-02  8208   0.423E-02 0.266E-04
CGA:  15    -0.350875520146E+03   -0.37258E-03   -0.37266E-03  8208   0.304E-02 0.651E-05
CGA:  16    -0.350875738345E+03   -0.21820E-03   -0.21887E-03  8208   0.130E-02 0.594E-05
CGA:  17    -0.350875955603E+03   -0.21726E-03   -0.21602E-03  8208   0.455E-03 0.146E-04
CGA:  18    -0.350876018705E+03   -0.63102E-04   -0.63024E-04  8208   0.639E-03 0.162E-05
CGA:  19    -0.350876066110E+03   -0.47405E-04   -0.47482E-04  8208   0.249E-03 0.612E-06
CGA:  20    -0.350876096358E+03   -0.30248E-04   -0.30189E-04  8208   0.121E-03 0.168E-05
CGA:  21    -0.350876113849E+03   -0.17491E-04   -0.17448E-04  8208   0.116E-03 0.784E-06
CGA:  22    -0.350876124813E+03   -0.10964E-04   -0.10968E-04  8208   0.658E-04 0.397E-06
CGA:  23    -0.350876130044E+03   -0.52310E-05   -0.52511E-05  8208   0.439E-04 0.834E-06
  17 F= -.35087613E+03 E0= -.35086301E+03  d E =-.296016E-01  mag=    30.2639
       N       E                     dE             d eps       ncg     rms          ort
SDA:   1    -0.350524632445E+03    0.35149E+00    0.00000E+00  8208   0.130E+01 0.000E+00
CGA:   2    -0.350710229093E+03   -0.18560E+00   -0.18538E+00  8208   0.666E+00 0.424E-02
CGA:   3    -0.350786378028E+03   -0.76149E-01   -0.76060E-01  8208   0.566E+00 0.517E-02
CGA:   4    -0.350842308315E+03   -0.55930E-01   -0.55708E-01  8208   0.270E+00-0.155E-01
CGA:   5    -0.350861325580E+03   -0.19017E-01   -0.19229E-01  8208   0.102E+00 0.685E-03
CGA:   6    -0.350870939355E+03   -0.96138E-02   -0.96209E-02  8208   0.216E-01 0.386E-03
CGA:   7    -0.350873700260E+03   -0.27609E-02   -0.27636E-02  8208   0.132E-01-0.699E-04
CGA:   8    -0.350874674529E+03   -0.97427E-03   -0.97093E-03  8208   0.538E-02-0.102E-04
CGA:   9    -0.350875176393E+03   -0.50186E-03   -0.50223E-03  8208   0.284E-02 0.230E-04
CGA:  10    -0.350875471817E+03   -0.29542E-03   -0.29543E-03  8208   0.105E-02 0.143E-06
CGA:  11    -0.350875590801E+03   -0.11898E-03   -0.11895E-03  8208   0.612E-03 0.265E-05
CGA:  12    -0.350875651083E+03   -0.60282E-04   -0.60273E-04  8208   0.431E-03-0.155E-05
CGA:  13    -0.350875687352E+03   -0.36269E-04   -0.36297E-04  8208   0.164E-03 0.867E-06
CGA:  14    -0.350875712435E+03   -0.25083E-04   -0.25074E-04  8208   0.126E-03 0.175E-06
CGA:  15    -0.350875724270E+03   -0.11835E-04   -0.11840E-04  8208   0.585E-04 0.488E-06
CGA:  16    -0.350875730775E+03   -0.65052E-05   -0.65050E-05  8208   0.549E-04 0.264E-07
  18 F= -.35087573E+03 E0= -.35086281E+03  d E =0.399269E-03  mag=    30.2474
       N       E                     dE             d eps       ncg     rms          ort
SDA:   1    -0.350344417459E+03    0.53131E+00    0.00000E+00  8208   0.161E+01 0.000E+00
CGA:   2    -0.350656099822E+03   -0.31168E+00   -0.31184E+00  8208   0.961E+00-0.164E-02
CGA:   3    -0.350786264306E+03   -0.13016E+00   -0.12952E+00  8208   0.637E+00 0.158E-01
CGA:   4    -0.350836508762E+03   -0.50244E-01   -0.50479E-01  8208   0.225E+00 0.140E-02
CGA:   5    -0.350856595165E+03   -0.20086E-01   -0.19849E-01  8208   0.113E+00-0.345E-02
CGA:   6    -0.350864927656E+03   -0.83325E-02   -0.83703E-02  8208   0.259E-01 0.118E-03
CGA:   7    -0.350868912853E+03   -0.39852E-02   -0.39849E-02  8208   0.908E-02 0.825E-05
CGA:   8    -0.350869774897E+03   -0.86204E-03   -0.86271E-03  8208   0.612E-02 0.264E-04
CGA:   9    -0.350870369443E+03   -0.59455E-03   -0.59410E-03  8208   0.276E-02-0.168E-04
CGA:  10    -0.350870582824E+03   -0.21338E-03   -0.21365E-03  8208   0.116E-02 0.323E-05
CGA:  11    -0.350870763510E+03   -0.18069E-03   -0.18058E-03  8208   0.579E-03 0.182E-05
CGA:  12    -0.350870826151E+03   -0.62641E-04   -0.62641E-04  8208   0.413E-03 0.477E-06
CGA:  13    -0.350870872441E+03   -0.46290E-04   -0.46296E-04  8208   0.340E-03-0.709E-06
CGA:  14    -0.350870903206E+03   -0.30765E-04   -0.30799E-04  8208   0.128E-03 0.156E-05
CGA:  15    -0.350870921065E+03   -0.17860E-04   -0.17848E-04  8208   0.105E-03 0.357E-06
CGA:  16    -0.350870932908E+03   -0.11842E-04   -0.11837E-04  8208   0.391E-04 0.113E-05
CGA:  17    -0.350870936632E+03   -0.37241E-05   -0.37237E-05  8208   0.351E-04-0.974E-08
  19 F= -.35087094E+03 E0= -.35085815E+03  d E =0.479414E-02  mag=    30.2324
       N       E                     dE             d eps       ncg     rms          ort
SDA:   1    -0.350163625661E+03    0.70731E+00    0.00000E+00  8208   0.197E+01 0.000E+00
CGA:   2    -0.350576925912E+03   -0.41330E+00   -0.41683E+00  8208   0.182E+01-0.350E-01
CGA:   3    -0.350739320018E+03   -0.16239E+00   -0.16497E+00  8208   0.785E+00 0.377E-01
CGA:   4    -0.350830846317E+03   -0.91526E-01   -0.91531E-01  8208   0.192E+00-0.128E-02
CGA:   5    -0.350853222214E+03   -0.22376E-01   -0.22386E-01  8208   0.108E+00-0.119E-02
CGA:   6    -0.350859747004E+03   -0.65248E-02   -0.67815E-02  8208   0.354E-01-0.139E-02
CGA:   7    -0.350863615600E+03   -0.38686E-02   -0.38686E-02  8208   0.152E-01-0.273E-04
CGA:   8    -0.350865125740E+03   -0.15101E-02   -0.15100E-02  8208   0.569E-02-0.787E-06
CGA:   9    -0.350865806629E+03   -0.68089E-03   -0.68101E-03  8208   0.281E-02-0.641E-05
CGA:  10    -0.350866088622E+03   -0.28199E-03   -0.28215E-03  8208   0.148E-02 0.876E-05
CGA:  11    -0.350866207871E+03   -0.11925E-03   -0.11907E-03  8208   0.805E-03-0.637E-06
CGA:  12    -0.350866323406E+03   -0.11553E-03   -0.11547E-03  8208   0.385E-03 0.189E-05
CGA:  13    -0.350866370240E+03   -0.46833E-04   -0.46817E-04  8208   0.313E-03 0.130E-05
CGA:  14    -0.350866411009E+03   -0.40770E-04   -0.40734E-04  8208   0.183E-03 0.175E-05
CGA:  15    -0.350866426421E+03   -0.15412E-04   -0.15397E-04  8208   0.119E-03-0.170E-06
CGA:  16    -0.350866441640E+03   -0.15219E-04   -0.15202E-04  8208   0.565E-04 0.896E-06
CGA:  17    -0.350866448315E+03   -0.66744E-05   -0.66747E-05  8208   0.293E-04-0.144E-06
  20 F= -.35086645E+03 E0= -.35085372E+03  d E =0.448832E-02  mag=    30.2222
       N       E                     dE             d eps       ncg     rms          ort
SDA:   1    -0.339723898646E+03    0.11143E+02    0.00000E+00  8208   0.310E+02 0.000E+00
CGA:   2    -0.346361098803E+03   -0.66372E+01   -0.66196E+01  8208   0.249E+02 0.135E+00
CGA:   3    -0.348651798071E+03   -0.22907E+01   -0.21586E+01  8208   0.189E+02-0.256E+00
CGA:   4    -0.350153039775E+03   -0.15012E+01   -0.15670E+01  8208   0.428E+01 0.362E+00
CGA:   5    -0.350550168358E+03   -0.39713E+00   -0.38802E+00  8208   0.236E+01-0.937E-01
CGA:   6    -0.350744180425E+03   -0.19401E+00   -0.19378E+00  8208   0.492E+00-0.277E-03
CGA:   7    -0.350817281607E+03   -0.73101E-01   -0.72797E-01  8208   0.305E+00 0.619E-02
CGA:   8    -0.350836399969E+03   -0.19118E-01   -0.17848E-01  8208   0.128E+00 0.105E-01
CGA:   9    -0.350850673442E+03   -0.14273E-01   -0.14275E-01  8208   0.590E-01 0.328E-03
CGA:  10    -0.350858089072E+03   -0.74156E-02   -0.74094E-02  8208   0.171E-01 0.263E-03
CGA:  11    -0.350860653812E+03   -0.25647E-02   -0.25349E-02  8208   0.179E-01 0.602E-03
CGA:  12    -0.350862313606E+03   -0.16598E-02   -0.16544E-02  8208   0.631E-02-0.458E-04
CGA:  13    -0.350863043971E+03   -0.73036E-03   -0.73020E-03  8208   0.777E-02 0.237E-04
CGA:  14    -0.350863786535E+03   -0.74256E-03   -0.74499E-03  8208   0.243E-02 0.617E-04
CGA:  15    -0.350864131529E+03   -0.34499E-03   -0.34459E-03  8208   0.162E-02 0.121E-04
CGA:  16    -0.350864339053E+03   -0.20752E-03   -0.20721E-03  8208   0.106E-02 0.155E-04
CGA:  17    -0.350864442090E+03   -0.10304E-03   -0.10308E-03  8208   0.394E-03 0.272E-05
CGA:  18    -0.350864488212E+03   -0.46123E-04   -0.46098E-04  8208   0.427E-03 0.424E-05
CGA:  19    -0.350864527362E+03   -0.39150E-04   -0.39225E-04  8208   0.108E-03 0.243E-05
CGA:  20    -0.350864545244E+03   -0.17881E-04   -0.17789E-04  8208   0.111E-03 0.167E-05
CGA:  21    -0.350864559665E+03   -0.14421E-04   -0.14401E-04  8208   0.658E-04 0.125E-05
CGA:  22    -0.350864567472E+03   -0.78074E-05   -0.78073E-05  8208   0.548E-04-0.526E-07
  21 F= -.35086457E+03 E0= -.35085128E+03  d E =0.188084E-02  mag=    30.2302
       N       E                     dE             d eps       ncg     rms          ort
SDA:   1    -0.312637214957E+03    0.38227E+02    0.00000E+00  8208   0.209E+03 0.000E+00
CGA:   2    -0.329189632347E+03   -0.16552E+02   -0.18838E+02  8208   0.765E+02 0.283E+02
CGA:   3    -0.339014068364E+03   -0.98244E+01   -0.85761E+01  8208   0.735E+02-0.251E+02
CGA:   4    -0.344782252992E+03   -0.57682E+01   -0.63555E+01  8208   0.977E+02-0.276E+02
CGA:   5    -0.346039808405E+03   -0.12576E+01   -0.20582E+01  8208   0.465E+02-0.229E+02
CGA:   6    -0.346853808629E+03   -0.81400E+00   -0.18528E+01  8208   0.249E+02-0.483E+01
CGA:   7    -0.347921955187E+03   -0.10681E+01   -0.59373E+00  8208   0.145E+02 0.169E+02
CGA:   8    -0.348456009785E+03   -0.53405E+00   -0.33172E+00  8208   0.742E+01 0.741E+01
CGA:   9    -0.349534750856E+03   -0.10787E+01   -0.10857E+01  8208   0.239E+02-0.102E+00
CGA:  10    -0.350275641991E+03   -0.74089E+00   -0.72221E+00  8208   0.344E+01-0.573E+00
CGA:  11    -0.350374950367E+03   -0.99308E-01   -0.11931E+00  8208   0.116E+01-0.409E+00
CGA:  12    -0.350465181670E+03   -0.90231E-01   -0.89420E-01  8208   0.106E+01-0.432E-01
CGA:  13    -0.350569054789E+03   -0.10387E+00   -0.10403E+00  8208   0.613E+00-0.130E-01
CGA:  14    -0.350598083846E+03   -0.29029E-01   -0.29863E-01  8208   0.652E+00-0.118E-01
CGA:  15    -0.350625259353E+03   -0.27176E-01   -0.27038E-01  8208   0.373E+00-0.250E-02
CGA:  16    -0.350643390535E+03   -0.18131E-01   -0.17810E-01  8208   0.351E+00 0.404E-02
CGA:  17    -0.350667256635E+03   -0.23866E-01   -0.24685E-01  8208   0.188E+00 0.108E-01
CGA:  18    -0.350676318641E+03   -0.90620E-02   -0.92096E-02  8208   0.125E+00-0.169E-02
CGA:  19    -0.350685008470E+03   -0.86898E-02   -0.88940E-02  8208   0.126E+00 0.486E-02
CGA:  20    -0.350692574395E+03   -0.75659E-02   -0.78787E-02  8208   0.833E-01 0.148E-02
CGA:  21    -0.350698140445E+03   -0.55661E-02   -0.56129E-02  8208   0.496E-01 0.765E-03
CGA:  22    -0.350700805930E+03   -0.26655E-02   -0.27192E-02  8208   0.332E-01 0.257E-04
CGA:  23    -0.350704819138E+03   -0.40132E-02   -0.38865E-02  8208   0.173E-01 0.282E-02
CGA:  24    -0.350707430540E+03   -0.26114E-02   -0.26089E-02  8208   0.299E-01 0.359E-04
CGA:  25    -0.350710160824E+03   -0.27303E-02   -0.27104E-02  8208   0.145E-01 0.229E-02
CGA:  26    -0.350711764907E+03   -0.16041E-02   -0.15950E-02  8208   0.161E-01 0.360E-03
CGA:  27    -0.350713068438E+03   -0.13035E-02   -0.13120E-02  8208   0.156E-01 0.494E-03
CGA:  28    -0.350714772406E+03   -0.17040E-02   -0.16923E-02  8208   0.907E-02 0.415E-03
CGA:  29    -0.350715639572E+03   -0.86717E-03   -0.86638E-03  8208   0.809E-02 0.872E-04
CGA:  30    -0.350716642176E+03   -0.10026E-02   -0.98103E-03  8208   0.667E-02 0.509E-03
CGA:  31    -0.350717236671E+03   -0.59449E-03   -0.59538E-03  8208   0.560E-02 0.798E-04
CGA:  32    -0.350717845543E+03   -0.60887E-03   -0.60606E-03  8208   0.299E-02 0.105E-03
CGA:  33    -0.350718188434E+03   -0.34289E-03   -0.34187E-03  8208   0.348E-02 0.356E-04
CGA:  34    -0.350718584641E+03   -0.39621E-03   -0.39301E-03  8208   0.183E-02 0.107E-03
CGA:  35    -0.350718783664E+03   -0.19902E-03   -0.19892E-03  8208   0.168E-02 0.599E-05
CGA:  36    -0.350718972101E+03   -0.18844E-03   -0.18714E-03  8208   0.114E-02 0.471E-04
CGA:  37    -0.350719117384E+03   -0.14528E-03   -0.14482E-03  8208   0.942E-03 0.130E-04
CGA:  38    -0.350719213112E+03   -0.95728E-04   -0.95648E-04  8208   0.574E-03 0.103E-04
SDA:  39    -0.350719280858E+03   -0.67746E-04   -0.67493E-04  8208   0.506E-03 0.103E-04
CGA:  40    -0.350719312481E+03   -0.31623E-04   -0.31522E-04  8208   0.239E-03-0.167E-05
CGA:  41    -0.350719342641E+03   -0.30160E-04   -0.30173E-04  8208   0.293E-03-0.622E-06
CGA:  42    -0.350719385818E+03   -0.43177E-04   -0.43233E-04  8208   0.161E-03-0.112E-05
CGA:  43    -0.350719407353E+03   -0.21535E-04   -0.21463E-04  8208   0.738E-04 0.203E-05
CGA:  44    -0.350719429798E+03   -0.22445E-04   -0.21931E-04  8208   0.848E-04 0.262E-05
CGA:  45    -0.350719439238E+03   -0.94406E-05   -0.94371E-05  8208   0.655E-04-0.120E-05
  22 F= -.35071944E+03 E0= -.35070677E+03  d E =0.145128E+00  mag=    30.2374
       N       E                     dE             d eps       ncg     rms          ort
SDA:   1    -0.343928950493E+03    0.67905E+01    0.00000E+00  8208   0.262E+02 0.000E+00
CGA:   2    -0.347736122646E+03   -0.38072E+01   -0.38014E+01  8208   0.109E+02 0.128E+00
CGA:   3    -0.349450368397E+03   -0.17142E+01   -0.17599E+01  8208   0.115E+02-0.110E+01
CGA:   4    -0.350294945591E+03   -0.84458E+00   -0.85242E+00  8208   0.352E+01 0.100E+00
CGA:   5    -0.350681637727E+03   -0.38669E+00   -0.38747E+00  8208   0.133E+01 0.995E-01
CGA:   6    -0.350775060198E+03   -0.93422E-01   -0.86323E-01  8208   0.503E+00 0.466E-01
CGA:   7    -0.350837579605E+03   -0.62519E-01   -0.62565E-01  8208   0.164E+00-0.262E-02
CGA:   8    -0.350855728132E+03   -0.18149E-01   -0.18147E-01  8208   0.814E-01 0.986E-03
CGA:   9    -0.350864026582E+03   -0.82985E-02   -0.83147E-02  8208   0.492E-01 0.766E-03
CGA:  10    -0.350868175953E+03   -0.41494E-02   -0.41251E-02  8208   0.193E-01-0.132E-03
CGA:  11    -0.350869991535E+03   -0.18156E-02   -0.18148E-02  8208   0.138E-01-0.366E-05
CGA:  12    -0.350871411696E+03   -0.14202E-02   -0.14208E-02  8208   0.429E-02 0.623E-04
CGA:  13    -0.350871957141E+03   -0.54544E-03   -0.54579E-03  8208   0.393E-02-0.894E-05
CGA:  14    -0.350872375630E+03   -0.41849E-03   -0.41848E-03  8208   0.186E-02-0.738E-07
CGA:  15    -0.350872519398E+03   -0.14377E-03   -0.14430E-03  8208   0.113E-02 0.523E-05
CGA:  16    -0.350872671432E+03   -0.15203E-03   -0.15192E-03  8208   0.527E-03 0.377E-05
CGA:  17    -0.350872739529E+03   -0.68097E-04   -0.68041E-04  8208   0.342E-03 0.264E-05
CGA:  18    -0.350872767464E+03   -0.27935E-04   -0.27919E-04  8208   0.243E-03 0.114E-06
CGA:  19    -0.350872797456E+03   -0.29993E-04   -0.29966E-04  8208   0.771E-04 0.160E-05
CGA:  20    -0.350872807995E+03   -0.10538E-04   -0.10529E-04  8208   0.748E-04 0.303E-06
CGA:  21    -0.350872814715E+03   -0.67198E-05   -0.67374E-05  8208   0.445E-04 0.705E-06
  23 F= -.35087281E+03 E0= -.35085949E+03  d E =-.153375E+00  mag=    30.2608
       N       E                     dE             d eps       ncg     rms          ort
SDA:   1    -0.348754528926E+03    0.21183E+01    0.00000E+00  8208   0.791E+01 0.000E+00
CGA:   2    -0.349935886887E+03   -0.11814E+01   -0.11805E+01  8208   0.383E+01 0.156E-01
CGA:   3    -0.350400029287E+03   -0.46414E+00   -0.46029E+00  8208   0.322E+01 0.251E+00
CGA:   4    -0.350717014650E+03   -0.31699E+00   -0.29356E+00  8208   0.123E+01-0.132E+00
CGA:   5    -0.350851615675E+03   -0.13460E+00   -0.13436E+00  8208   0.379E+00 0.344E-01
CGA:   6    -0.350880921935E+03   -0.29306E-01   -0.27320E-01  8208   0.190E+00 0.452E-02
CGA:   7    -0.350900959368E+03   -0.20037E-01   -0.20059E-01  8208   0.527E-01 0.230E-02
CGA:   8    -0.350906170658E+03   -0.52113E-02   -0.52015E-02  8208   0.434E-01-0.341E-03
CGA:   9    -0.350909754478E+03   -0.35838E-02   -0.36091E-02  8208   0.115E-01 0.261E-03
CGA:  10    -0.350911092937E+03   -0.13385E-02   -0.13396E-02  8208   0.943E-02-0.681E-04
CGA:  11    -0.350911885150E+03   -0.79221E-03   -0.79593E-03  8208   0.369E-02 0.481E-04
CGA:  12    -0.350912256039E+03   -0.37089E-03   -0.37085E-03  8208   0.226E-02-0.186E-05
CGA:  13    -0.350912507911E+03   -0.25187E-03   -0.25178E-03  8208   0.155E-02 0.108E-04
CGA:  14    -0.350912650667E+03   -0.14276E-03   -0.14266E-03  8208   0.688E-03-0.171E-05
CGA:  15    -0.350912727081E+03   -0.76414E-04   -0.76379E-04  8208   0.578E-03 0.459E-05
CGA:  16    -0.350912785595E+03   -0.58514E-04   -0.58513E-04  8208   0.216E-03 0.431E-06
CGA:  17    -0.350912805549E+03   -0.19955E-04   -0.19981E-04  8208   0.161E-03 0.155E-05
CGA:  18    -0.350912825817E+03   -0.20267E-04   -0.20264E-04  8208   0.767E-04 0.191E-06
CGA:  19    -0.350912831903E+03   -0.60862E-05   -0.61021E-05  8208   0.431E-04 0.440E-06
  24 F= -.35091283E+03 E0= -.35089915E+03  d E =-.400172E-01  mag=    30.2732
       N       E                     dE             d eps       ncg     rms          ort
SDA:   1    -0.350353320830E+03    0.55950E+00    0.00000E+00  8208   0.192E+01 0.000E+00
CGA:   2    -0.350666922317E+03   -0.31360E+00   -0.31345E+00  8208   0.123E+01 0.223E-02
CGA:   3    -0.350780034957E+03   -0.11311E+00   -0.11449E+00  8208   0.947E+00 0.310E-01
CGA:   4    -0.350873299048E+03   -0.93264E-01   -0.91985E-01  8208   0.298E+00-0.346E-01
CGA:   5    -0.350902675649E+03   -0.29377E-01   -0.29431E-01  8208   0.140E+00 0.561E-02
CGA:   6    -0.350913364214E+03   -0.10689E-01   -0.10442E-01  8208   0.428E-01-0.215E-03
CGA:   7    -0.350917850043E+03   -0.44858E-02   -0.44860E-02  8208   0.245E-01 0.420E-03
CGA:   8    -0.350919682133E+03   -0.18321E-02   -0.18260E-02  8208   0.784E-02-0.237E-05
CGA:   9    -0.350920644303E+03   -0.96217E-03   -0.96095E-03  8208   0.476E-02 0.484E-04
CGA:  10    -0.350921018024E+03   -0.37372E-03   -0.37268E-03  8208   0.215E-02-0.361E-05
CGA:  11    -0.350921258181E+03   -0.24016E-03   -0.24001E-03  8208   0.124E-02 0.119E-04
CGA:  12    -0.350921373656E+03   -0.11547E-03   -0.11539E-03  8208   0.637E-03-0.314E-05
CGA:  13    -0.350921446336E+03   -0.72680E-04   -0.72632E-04  8208   0.465E-03 0.316E-05
CGA:  14    -0.350921490614E+03   -0.44278E-04   -0.44264E-04  8208   0.259E-03-0.697E-06
CGA:  15    -0.350921518876E+03   -0.28262E-04   -0.28255E-04  8208   0.153E-03 0.106E-05
CGA:  16    -0.350921535565E+03   -0.16689E-04   -0.16688E-04  8208   0.101E-03 0.341E-06
CGA:  17    -0.350921544381E+03   -0.88166E-05   -0.88353E-05  8208   0.479E-04 0.958E-06
  25 F= -.35092154E+03 E0= -.35090780E+03  d E =-.871248E-02  mag=    30.2722
       N       E                     dE             d eps       ncg     rms          ort
SDA:   1    -0.350283089124E+03    0.63845E+00    0.00000E+00  8208   0.193E+01 0.000E+00
CGA:   2    -0.350675645935E+03   -0.39256E+00   -0.39259E+00  8208   0.109E+01-0.221E-03
CGA:   3    -0.350831810803E+03   -0.15616E+00   -0.15498E+00  8208   0.674E+00 0.256E-01
CGA:   4    -0.350879473089E+03   -0.47662E-01   -0.42285E-01  8208   0.233E+00 0.359E-01
CGA:   5    -0.350910578799E+03   -0.31106E-01   -0.31095E-01  8208   0.505E-01 0.390E-03
CGA:   6    -0.350918431145E+03   -0.78523E-02   -0.78461E-02  8208   0.223E-01 0.116E-03
CGA:   7    -0.350920349985E+03   -0.19188E-02   -0.19116E-02  8208   0.101E-01-0.437E-04
CGA:   8    -0.350921653068E+03   -0.13031E-02   -0.13025E-02  8208   0.372E-02 0.215E-04
CGA:   9    -0.350922001519E+03   -0.34845E-03   -0.34882E-03  8208   0.275E-02 0.100E-04
CGA:  10    -0.350922247164E+03   -0.24564E-03   -0.24524E-03  8208   0.133E-02-0.607E-05
CGA:  11    -0.350922385674E+03   -0.13851E-03   -0.13853E-03  8208   0.590E-03 0.287E-05
CGA:  12    -0.350922471196E+03   -0.85521E-04   -0.85555E-04  8208   0.492E-03-0.735E-06
CGA:  13    -0.350922526451E+03   -0.55255E-04   -0.55252E-04  8208   0.212E-03 0.179E-05
CGA:  14    -0.350922547753E+03   -0.21301E-04   -0.21298E-04  8208   0.222E-03 0.117E-06
CGA:  15    -0.350922571158E+03   -0.23405E-04   -0.23413E-04  8208   0.635E-04 0.161E-05
CGA:  16    -0.350922578709E+03   -0.75513E-05   -0.75465E-05  8208   0.512E-04 0.554E-06
  26 F= -.35092258E+03 E0= -.35090891E+03  d E =-.103433E-02  mag=    30.2614
       N       E                     dE             d eps       ncg     rms          ort
SDA:   1    -0.350640156376E+03    0.28241E+00    0.00000E+00  8208   0.870E+00 0.000E+00
CGA:   2    -0.350792563387E+03   -0.15241E+00   -0.15139E+00  8208   0.754E+00 0.137E-01
CGA:   3    -0.350850476886E+03   -0.57913E-01   -0.54496E-01  8208   0.374E+00 0.101E-01
CGA:   4    -0.350898162519E+03   -0.47686E-01   -0.47633E-01  8208   0.103E+00 0.232E-02
CGA:   5    -0.350910485876E+03   -0.12323E-01   -0.12334E-01  8208   0.588E-01-0.933E-03
CGA:   6    -0.350914499922E+03   -0.40140E-02   -0.40550E-02  8208   0.158E-01-0.957E-04
CGA:   7    -0.350916212642E+03   -0.17127E-02   -0.17126E-02  8208   0.106E-01-0.392E-04
CGA:   8    -0.350916978141E+03   -0.76550E-03   -0.76583E-03  8208   0.287E-02 0.591E-05
CGA:   9    -0.350917384575E+03   -0.40643E-03   -0.40645E-03  8208   0.163E-02 0.827E-06
CGA:  10    -0.350917542143E+03   -0.15757E-03   -0.15768E-03  8208   0.924E-03 0.404E-05
CGA:  11    -0.350917616532E+03   -0.74389E-04   -0.74255E-04  8208   0.460E-03-0.132E-05
CGA:  12    -0.350917687101E+03   -0.70569E-04   -0.70519E-04  8208   0.256E-03 0.815E-06
CGA:  13    -0.350917712037E+03   -0.24936E-04   -0.24927E-04  8208   0.186E-03-0.429E-06
CGA:  14    -0.350917736849E+03   -0.24812E-04   -0.24775E-04  8208   0.141E-03 0.139E-05
CGA:  15    -0.350917747669E+03   -0.10820E-04   -0.10827E-04  8208   0.531E-04 0.152E-06
CGA:  16    -0.350917756559E+03   -0.88894E-05   -0.88541E-05  8208   0.402E-04 0.576E-06
  27 F= -.35091776E+03 E0= -.35090421E+03  d E =0.482215E-02  mag=    30.2497
       N       E                     dE             d eps       ncg     rms          ort
SDA:   1    -0.350830847647E+03    0.86900E-01    0.00000E+00  8208   0.271E+00 0.000E+00
CGA:   2    -0.350867655391E+03   -0.36808E-01   -0.37180E-01  8208   0.331E+00-0.960E-02
CGA:   3    -0.350888280949E+03   -0.20626E-01   -0.21444E-01  8208   0.111E+00-0.281E-02
[...]
CGA:  16    -0.349976921180E+03   -0.36761E+00   -0.38903E+00  8208   0.410E+01-0.568E+00
CGA:  17    -0.350105562614E+03   -0.12864E+00   -0.13743E+00  8208   0.216E+01-0.133E+00
CGA:  18    -0.350204179506E+03   -0.98617E-01   -0.99687E-01  8208   0.201E+01 0.118E-01
CGA:  19    -0.350305762056E+03   -0.10158E+00   -0.10204E+00  8208   0.169E+01 0.798E-02
CGA:  20    -0.350382592724E+03   -0.76831E-01   -0.77652E-01  8208   0.105E+01 0.856E-02
CGA:  21    -0.350426968190E+03   -0.44375E-01   -0.46347E-01  8208   0.670E+00 0.104E-01
CGA:  22    -0.350457566786E+03   -0.30599E-01   -0.30307E-01  8208   0.437E+00-0.231E-02
CGA:  23    -0.350482233592E+03   -0.24667E-01   -0.24772E-01  8208   0.363E+00 0.247E-01
CGA:  24    -0.350500837603E+03   -0.18604E-01   -0.18531E-01  8208   0.256E+00-0.168E-02
CGA:  25    -0.350515097272E+03   -0.14260E-01   -0.14320E-01  8208   0.173E+00 0.130E-01
CGA:  26    -0.350523754723E+03   -0.86575E-02   -0.85539E-02  8208   0.118E+00-0.230E-02
CGA:  27    -0.350532394000E+03   -0.86393E-02   -0.83415E-02  8208   0.856E-01 0.148E-01
CGA:  28    -0.350536859060E+03   -0.44651E-02   -0.44297E-02  8208   0.540E-01-0.640E-03
CGA:  29    -0.350540727437E+03   -0.38684E-02   -0.37880E-02  8208   0.388E-01 0.424E-02
CGA:  30    -0.350543118296E+03   -0.23909E-02   -0.23887E-02  8208   0.301E-01-0.804E-03
CGA:  31    -0.350545459455E+03   -0.23412E-02   -0.22338E-02  8208   0.183E-01 0.441E-02
CGA:  32    -0.350546771861E+03   -0.13124E-02   -0.13159E-02  8208   0.156E-01-0.544E-03
CGA:  33    -0.350548260655E+03   -0.14888E-02   -0.13893E-02  8208   0.144E-01 0.254E-02
CGA:  34    -0.350549301608E+03   -0.10410E-02   -0.10422E-02  8208   0.899E-02-0.547E-03
CGA:  35    -0.350550259247E+03   -0.95764E-03   -0.87124E-03  8208   0.595E-02 0.185E-02
CGA:  36    -0.350550713168E+03   -0.45392E-03   -0.45406E-03  8208   0.488E-02-0.275E-03
CGA:  37    -0.350551365762E+03   -0.65259E-03   -0.59507E-03  8208   0.396E-02 0.820E-03
CGA:  38    -0.350551682954E+03   -0.31719E-03   -0.31703E-03  8208   0.195E-02 0.388E-04
CGA:  39    -0.350552012581E+03   -0.32963E-03   -0.31490E-03  8208   0.253E-02 0.159E-03
CGA:  40    -0.350552164252E+03   -0.15167E-03   -0.14944E-03  8208   0.144E-02-0.291E-04
CGA:  41    -0.350552360052E+03   -0.19580E-03   -0.18753E-03  8208   0.968E-03 0.125E-03
CGA:  42    -0.350552463794E+03   -0.10374E-03   -0.10437E-03  8208   0.835E-03-0.208E-04
CGA:  43    -0.350552571347E+03   -0.10755E-03   -0.10744E-03  8208   0.554E-03 0.744E-06
SDA:  44    -0.350552610085E+03   -0.38739E-04   -0.38825E-04  8208   0.439E-03 0.403E-05
CGA:  45    -0.350552628979E+03   -0.18894E-04   -0.18825E-04  8208   0.202E-03 0.285E-06
CGA:  46    -0.350552663512E+03   -0.34533E-04   -0.34343E-04  8208   0.304E-03 0.136E-05
CGA:  47    -0.350552694570E+03   -0.31058E-04   -0.30970E-04  8208   0.243E-03 0.332E-05
CGA:  48    -0.350552727176E+03   -0.32607E-04   -0.32640E-04  8208   0.120E-03-0.115E-05
CGA:  49    -0.350552746586E+03   -0.19410E-04   -0.19382E-04  8208   0.137E-03-0.385E-06
CGA:  50    -0.350552754821E+03   -0.82345E-05   -0.82217E-05  8208   0.733E-04-0.720E-06
  34 F= -.35055275E+03 E0= -.35053612E+03  d E =0.276209E+00  mag=    30.4503
       N       E                     dE             d eps       ncg     rms          ort
SDA:   1    -0.307339785420E+03    0.43213E+02    0.00000E+00  8208   0.725E+03 0.000E+00
CGA:   2    -0.329795277182E+03   -0.22455E+02   -0.35120E+02  8208   0.108E+03-0.409E+02
CGA:   3    -0.339689364149E+03   -0.98941E+01   -0.81204E+01  8208   0.494E+02-0.372E+02
CGA:   4    -0.340339589299E+03   -0.65023E+00   -0.82457E+00  8208   0.173E+03-0.852E+01
CGA:   5    -0.344365571237E+03   -0.40260E+01   -0.41563E+01  8208   0.949E+02-0.775E+02
CGA:   6    -0.346721520774E+03   -0.23559E+01   -0.25029E+01  8208   0.509E+02-0.599E+00
CGA:   7    -0.348479521331E+03   -0.17580E+01   -0.13759E+01  8208   0.190E+02-0.882E+01
CGA:   8    -0.348887392628E+03   -0.40787E+00   -0.47721E+00  8208   0.167E+02-0.154E+01
CGA:   9    -0.349340328511E+03   -0.45294E+00   -0.36606E+00  8208   0.190E+02 0.298E+01
CGA:  10    -0.349867645351E+03   -0.52732E+00   -0.60089E+00  8208   0.118E+02-0.193E+01
CGA:  11    -0.350137140065E+03   -0.26949E+00   -0.26828E+00  8208   0.771E+01 0.139E-01
CGA:  12    -0.350414254429E+03   -0.27711E+00   -0.27810E+00  8208   0.503E+01 0.654E-01
CGA:  13    -0.350492998705E+03   -0.78744E-01   -0.59315E-01  8208   0.194E+01 0.148E+01
CGA:  14    -0.350540669960E+03   -0.47671E-01   -0.46317E-01  8208   0.210E+01 0.468E-01
CGA:  15    -0.350588924088E+03   -0.48254E-01   -0.42825E-01  8208   0.284E+01 0.217E+00
CGA:  16    -0.350638498742E+03   -0.49575E-01   -0.44487E-01  8208   0.280E+01 0.324E+00
CGA:  17    -0.350690410904E+03   -0.51912E-01   -0.60085E-01  8208   0.298E+01-0.330E+00
CGA:  18    -0.350726194985E+03   -0.35784E-01   -0.37725E-01  8208   0.235E+01-0.132E+00
CGA:  19    -0.350755553247E+03   -0.29358E-01   -0.35617E-01  8208   0.180E+01-0.319E+00
CGA:  20    -0.350781172105E+03   -0.25619E-01   -0.26752E-01  8208   0.135E+01-0.458E-01
CGA:  21    -0.350798055743E+03   -0.16884E-01   -0.13500E-01  8208   0.696E+00 0.285E+00
CGA:  22    -0.350808659801E+03   -0.10604E-01   -0.10287E-01  8208   0.502E+00 0.193E-01
CGA:  23    -0.350818701595E+03   -0.10042E-01   -0.10423E-01  8208   0.835E+00-0.113E-01
CGA:  24    -0.350832037403E+03   -0.13336E-01   -0.12753E-01  8208   0.887E+00 0.277E-01
CGA:  25    -0.350843726313E+03   -0.11689E-01   -0.13360E-01  8208   0.638E+00-0.818E-01
CGA:  26    -0.350851909037E+03   -0.81827E-02   -0.90796E-02  8208   0.500E+00-0.386E-01
CGA:  27    -0.350861169644E+03   -0.92606E-02   -0.98454E-02  8208   0.536E+00-0.112E-01
CGA:  28    -0.350872821698E+03   -0.11652E-01   -0.12195E-01  8208   0.339E+00-0.381E-02
CGA:  29    -0.350879172229E+03   -0.63505E-02   -0.66473E-02  8208   0.148E+00-0.653E-02
CGA:  30    -0.350883660085E+03   -0.44879E-02   -0.45139E-02  8208   0.163E+00 0.112E-02
CGA:  31    -0.350890282600E+03   -0.66225E-02   -0.66180E-02  8208   0.164E+00 0.683E-03
SDA:  32    -0.350894623735E+03   -0.43411E-02   -0.44087E-02  8208   0.814E-01 0.729E-03
CGA:  33    -0.350900886268E+03   -0.62625E-02   -0.61728E-02  8208   0.571E-01 0.228E-02
CGA:  34    -0.350904588366E+03   -0.37021E-02   -0.36881E-02  8208   0.418E-01 0.530E-03
CGA:  35    -0.350907613198E+03   -0.30248E-02   -0.29784E-02  8208   0.380E-01 0.141E-02
CGA:  36    -0.350910349618E+03   -0.27364E-02   -0.27405E-02  8208   0.191E-01-0.139E-03
CGA:  37    -0.350912061017E+03   -0.17114E-02   -0.16997E-02  8208   0.797E-02 0.250E-03
CGA:  38    -0.350912568734E+03   -0.50772E-03   -0.50599E-03  8208   0.661E-02 0.706E-04
CGA:  39    -0.350913510807E+03   -0.94207E-03   -0.92965E-03  8208   0.931E-02 0.155E-03
CGA:  40    -0.350913966902E+03   -0.45610E-03   -0.45628E-03  8208   0.480E-02 0.301E-04
CGA:  41    -0.350914504089E+03   -0.53719E-03   -0.52875E-03  8208   0.227E-02 0.144E-03
CGA:  42    -0.350914822720E+03   -0.31863E-03   -0.31591E-03  8208   0.313E-02 0.345E-04
CGA:  43    -0.350915050784E+03   -0.22806E-03   -0.22723E-03  8208   0.340E-02 0.450E-04
CGA:  44    -0.350915413936E+03   -0.36315E-03   -0.36020E-03  8208   0.273E-02 0.601E-04
CGA:  45    -0.350915586969E+03   -0.17303E-03   -0.17298E-03  8208   0.141E-02 0.204E-04
CGA:  46    -0.350915840616E+03   -0.25365E-03   -0.24932E-03  8208   0.224E-02 0.400E-04
CGA:  47    -0.350915992141E+03   -0.15153E-03   -0.15158E-03  8208   0.102E-02 0.511E-04
CGA:  48    -0.350916089391E+03   -0.97250E-04   -0.96381E-04  8208   0.136E-02 0.294E-04
CGA:  49    -0.350916209466E+03   -0.12008E-03   -0.11998E-03  8208   0.928E-03 0.891E-05
CGA:  50    -0.350916363588E+03   -0.15412E-03   -0.14771E-03  8208   0.717E-03 0.740E-04
CGA:  51    -0.350916442422E+03   -0.78833E-04   -0.78712E-04  8208   0.113E-02 0.518E-05
CGA:  52    -0.350916537056E+03   -0.94634E-04   -0.94218E-04  8208   0.661E-03 0.354E-04
CGA:  53    -0.350916651975E+03   -0.11492E-03   -0.11154E-03  8208   0.684E-03 0.381E-04
CGA:  54    -0.350916711968E+03   -0.59992E-04   -0.59953E-04  8208   0.519E-03 0.104E-04
CGA:  55    -0.350916816233E+03   -0.10427E-03   -0.98885E-04  8208   0.718E-03 0.508E-04
CGA:  56    -0.350916864474E+03   -0.48241E-04   -0.48307E-04  8208   0.456E-03 0.497E-05
CGA:  57    -0.350916929245E+03   -0.64771E-04   -0.63398E-04  8208   0.329E-03 0.226E-04
CGA:  58    -0.350916966644E+03   -0.37399E-04   -0.37469E-04  8208   0.320E-03-0.159E-05
CGA:  59    -0.350917008727E+03   -0.42084E-04   -0.41441E-04  8208   0.112E-03 0.135E-04
CGA:  60    -0.350917033942E+03   -0.25215E-04   -0.24665E-04  8208   0.222E-03 0.429E-05
CGA:  61    -0.350917053527E+03   -0.19584E-04   -0.19656E-04  8208   0.113E-03 0.436E-05
CGA:  62    -0.350917064764E+03   -0.11238E-04   -0.11237E-04  8208   0.884E-04 0.738E-07
SDA:  63    -0.350917072361E+03   -0.75970E-05   -0.76023E-05  8208   0.553E-04 0.373E-07
  35 F= -.35091707E+03 E0= -.35090044E+03  d E =-.364318E+00  mag=    30.4133
       N       E                     dE             d eps       ncg     rms          ort
SDA:   1    -0.347229286360E+03    0.36878E+01    0.00000E+00  8208   0.166E+02 0.000E+00
CGA:   2    -0.348790813805E+03   -0.15615E+01   -0.15619E+01  8208   0.101E+02 0.232E+01
CGA:   3    -0.349713064522E+03   -0.92225E+00   -0.87027E+00  8208   0.609E+01-0.417E+00
CGA:   4    -0.350377615311E+03   -0.66455E+00   -0.68754E+00  8208   0.758E+01-0.695E+00
CGA:   5    -0.350565165461E+03   -0.18755E+00   -0.26863E+00  8208   0.450E+01-0.109E+01
CGA:   6    -0.350739001631E+03   -0.17384E+00   -0.18068E+00  8208   0.121E+01-0.445E-01
CGA:   7    -0.350815462186E+03   -0.76461E-01   -0.72660E-01  8208   0.138E+01-0.320E-02
CGA:   8    -0.350876489162E+03   -0.61027E-01   -0.60286E-01  8208   0.508E+00 0.695E-02
CGA:   9    -0.350902565755E+03   -0.26077E-01   -0.26803E-01  8208   0.258E+00-0.312E-02
CGA:  10    -0.350914909278E+03   -0.12344E-01   -0.12216E-01  8208   0.177E+00 0.873E-03
CGA:  11    -0.350929721628E+03   -0.14812E-01   -0.14821E-01  8208   0.797E-01-0.293E-02
CGA:  12    -0.350934649703E+03   -0.49281E-02   -0.49747E-02  8208   0.513E-01 0.542E-03
CGA:  13    -0.350938012688E+03   -0.33630E-02   -0.33665E-02  8208   0.458E-01 0.761E-04
CGA:  14    -0.350941420194E+03   -0.34075E-02   -0.34172E-02  8208   0.126E-01 0.699E-03
CGA:  15    -0.350942688425E+03   -0.12682E-02   -0.12654E-02  8208   0.118E-01 0.105E-03
CGA:  16    -0.350943462284E+03   -0.77386E-03   -0.77265E-03  8208   0.862E-02-0.167E-04
CGA:  17    -0.350944036402E+03   -0.57412E-03   -0.57878E-03  8208   0.295E-02 0.114E-03
CGA:  18    -0.350944349036E+03   -0.31263E-03   -0.31237E-03  8208   0.232E-02 0.765E-05
CGA:  19    -0.350944533765E+03   -0.18473E-03   -0.18472E-03  8208   0.206E-02-0.269E-05
CGA:  20    -0.350944655782E+03   -0.12202E-03   -0.12324E-03  8208   0.624E-03 0.119E-04
CGA:  21    -0.350944735720E+03   -0.79938E-04   -0.79918E-04  8208   0.616E-03 0.335E-06
CGA:  22    -0.350944785617E+03   -0.49898E-04   -0.49901E-04  8208   0.413E-03 0.243E-05
CGA:  23    -0.350944809668E+03   -0.24051E-04   -0.24251E-04  8208   0.196E-03 0.223E-05
CGA:  24    -0.350944833596E+03   -0.23928E-04   -0.23944E-04  8208   0.149E-03-0.393E-06
CGA:  25    -0.350944848720E+03   -0.15125E-04   -0.15088E-04  8208   0.110E-03 0.177E-05
CGA:  26    -0.350944856024E+03   -0.73032E-05   -0.73316E-05  8208   0.715E-04 0.985E-06
  36 F= -.35094486E+03 E0= -.35092794E+03  d E =-.277837E-01  mag=    30.4472
       N       E                     dE             d eps       ncg     rms          ort
SDA:   1    -0.350426161911E+03    0.51869E+00    0.00000E+00  8208   0.204E+01 0.000E+00
CGA:   2    -0.350664641302E+03   -0.23848E+00   -0.23654E+00  8208   0.182E+01 0.463E-01
CGA:   3    -0.350773473774E+03   -0.10883E+00   -0.10653E+00  8208   0.777E+00-0.288E-02
CGA:   4    -0.350886008120E+03   -0.11253E+00   -0.11066E+00  8208   0.368E+00 0.280E-01
CGA:   5    -0.350918610661E+03   -0.32603E-01   -0.32549E-01  8208   0.230E+00-0.179E-01
CGA:   6    -0.350935825409E+03   -0.17215E-01   -0.17268E-01  8208   0.672E-01 0.280E-02
CGA:   7    -0.350940361649E+03   -0.45362E-02   -0.45018E-02  8208   0.385E-01-0.295E-03
CGA:   8    -0.350943648681E+03   -0.32870E-02   -0.32872E-02  8208   0.139E-01-0.212E-03
CGA:   9    -0.350945018181E+03   -0.13695E-02   -0.13703E-02  8208   0.562E-02-0.300E-04
CGA:  10    -0.350945483215E+03   -0.46503E-03   -0.46505E-03  8208   0.458E-02 0.535E-05
CGA:  11    -0.350945872593E+03   -0.38938E-03   -0.38933E-03  8208   0.190E-02-0.206E-04
CGA:  12    -0.350946004517E+03   -0.13192E-03   -0.13194E-03  8208   0.941E-03 0.140E-05
CGA:  13    -0.350946137341E+03   -0.13282E-03   -0.13271E-03  8208   0.610E-03 0.194E-05
CGA:  14    -0.350946179144E+03   -0.41803E-04   -0.41827E-04  8208   0.377E-03 0.313E-06
CGA:  15    -0.350946214117E+03   -0.34972E-04   -0.34975E-04  8208   0.223E-03-0.413E-06
CGA:  16    -0.350946240724E+03   -0.26608E-04   -0.26547E-04  8208   0.144E-03 0.172E-05
CGA:  17    -0.350946250338E+03   -0.96135E-05   -0.96043E-05  8208   0.649E-04-0.143E-06
  37 F= -.35094625E+03 E0= -.35092960E+03  d E =-.139431E-02  mag=    30.4294
       N       E                     dE             d eps       ncg     rms          ort
SDA:   1    -0.350391729492E+03    0.55451E+00    0.00000E+00  8208   0.232E+01 0.000E+00
CGA:   2    -0.350601049155E+03   -0.20932E+00   -0.20902E+00  8208   0.193E+01 0.224E+00
CGA:   3    -0.350759265890E+03   -0.15822E+00   -0.15400E+00  8208   0.923E+00-0.648E-01
CGA:   4    -0.350865825607E+03   -0.10656E+00   -0.10520E+00  8208   0.453E+00 0.331E-01
CGA:   5    -0.350907511656E+03   -0.41686E-01   -0.41687E-01  8208   0.259E+00 0.410E-03
CGA:   6    -0.350924745491E+03   -0.17234E-01   -0.17335E-01  8208   0.927E-01 0.764E-03
CGA:   7    -0.350931702475E+03   -0.69570E-02   -0.68787E-02  8208   0.438E-01-0.151E-02
CGA:   8    -0.350935604899E+03   -0.39024E-02   -0.39018E-02  8208   0.142E-01 0.142E-03
CGA:   9    -0.350936955645E+03   -0.13507E-02   -0.13524E-02  8208   0.115E-01-0.133E-03
CGA:  10    -0.350937682650E+03   -0.72700E-03   -0.73018E-03  8208   0.398E-02 0.236E-04
CGA:  11    -0.350938121244E+03   -0.43859E-03   -0.43819E-03  8208   0.210E-02 0.153E-04
CGA:  12    -0.350938315634E+03   -0.19439E-03   -0.19441E-03  8208   0.165E-02-0.177E-05
CGA:  13    -0.350938441059E+03   -0.12543E-03   -0.12532E-03  8208   0.741E-03-0.311E-05
CGA:  14    -0.350938509015E+03   -0.67956E-04   -0.67933E-04  8208   0.536E-03 0.371E-05
CGA:  15    -0.350938567570E+03   -0.58555E-04   -0.58664E-04  8208   0.288E-03-0.405E-05
CGA:  16    -0.350938591447E+03   -0.23878E-04   -0.23888E-04  8208   0.227E-03 0.101E-05
CGA:  17    -0.350938611257E+03   -0.19810E-04   -0.19811E-04  8208   0.115E-03 0.570E-06
CGA:  18    -0.350938623423E+03   -0.12166E-04   -0.12157E-04  8208   0.734E-04 0.542E-06
CGA:  19    -0.350938629407E+03   -0.59841E-05   -0.59901E-05  8208   0.430E-04 0.644E-06
  38 F= -.35093863E+03 E0= -.35092217E+03  d E =0.762093E-02  mag=    30.4212
       N       E                     dE             d eps       ncg     rms          ort
SDA:   1    -0.350854963343E+03    0.83660E-01    0.00000E+00  8208   0.257E+00 0.000E+00
CGA:   2    -0.350891423426E+03   -0.36460E-01   -0.35838E-01  8208   0.254E+00 0.106E-01
CGA:   3    -0.350908922321E+03   -0.17499E-01   -0.16702E-01  8208   0.111E+00-0.856E-03
CGA:   4    -0.350920533959E+03   -0.11612E-01   -0.11648E-01  8208   0.813E-01-0.155E-02
CGA:   5    -0.350926037307E+03   -0.55033E-02   -0.55293E-02  8208   0.194E-01 0.211E-03
CGA:   6    -0.350928591364E+03   -0.25541E-02   -0.25553E-02  8208   0.781E-02-0.231E-04
CGA:   7    -0.350929075550E+03   -0.48419E-03   -0.48335E-03  8208   0.435E-02 0.311E-05
CGA:   8    -0.350929449198E+03   -0.37365E-03   -0.37380E-03  8208   0.188E-02 0.175E-04
CGA:   9    -0.350929613057E+03   -0.16386E-03   -0.16384E-03  8208   0.804E-03-0.151E-05
CGA:  10    -0.350929692274E+03   -0.79217E-04   -0.79169E-04  8208   0.497E-03 0.479E-05
CGA:  11    -0.350929742077E+03   -0.49803E-04   -0.49821E-04  8208   0.368E-03-0.133E-05
CGA:  12    -0.350929764200E+03   -0.22123E-04   -0.22106E-04  8208   0.141E-03-0.287E-06
CGA:  13    -0.350929789541E+03   -0.25342E-04   -0.25384E-04  8208   0.115E-03-0.421E-06
CGA:  14    -0.350929798759E+03   -0.92178E-05   -0.92082E-05  8208   0.724E-04-0.616E-06
  39 F= -.35092980E+03 E0= -.35091343E+03  d E =0.883065E-02  mag=    30.4135
       N       E                     dE             d eps       ncg     rms          ort
SDA:   1    -0.350694101962E+03    0.23569E+00    0.00000E+00  8208   0.885E+00 0.000E+00
CGA:   2    -0.350763625853E+03   -0.69524E-01   -0.66832E-01  8208   0.107E+01-0.356E-01
CGA:   3    -0.350851644378E+03   -0.88019E-01   -0.88142E-01  8208   0.247E+00 0.663E-02
CGA:   4    -0.350884343330E+03   -0.32699E-01   -0.32544E-01  8208   0.251E+00 0.319E-02
CGA:   5    -0.350898355350E+03   -0.14012E-01   -0.13476E-01  8208   0.745E-01 0.385E-02
CGA:   6    -0.350905162120E+03   -0.68068E-02   -0.68006E-02  8208   0.472E-01-0.988E-03
CGA:   7    -0.350908637469E+03   -0.34753E-02   -0.34892E-02  8208   0.901E-02 0.225E-03
CGA:   8    -0.350909791873E+03   -0.11544E-02   -0.11571E-02  8208   0.101E-01-0.564E-04
CGA:   9    -0.350910301485E+03   -0.50961E-03   -0.51306E-03  8208   0.240E-02-0.180E-04
CGA:  10    -0.350910595010E+03   -0.29352E-03   -0.29327E-03  8208   0.193E-02 0.815E-05
CGA:  11    -0.350910777133E+03   -0.18212E-03   -0.18213E-03  8208   0.928E-03-0.338E-05
CGA:  12    -0.350910872135E+03   -0.95003E-04   -0.94989E-04  8208   0.585E-03 0.112E-05
CGA:  13    -0.350910929200E+03   -0.57065E-04   -0.57072E-04  8208   0.740E-03-0.142E-05
CGA:  14    -0.350910990315E+03   -0.61115E-04   -0.61097E-04  8208   0.203E-03-0.121E-05
CGA:  15    -0.350911027914E+03   -0.37598E-04   -0.37507E-04  8208   0.175E-03 0.972E-06
CGA:  16    -0.350911048178E+03   -0.20265E-04   -0.20267E-04  8208   0.117E-03-0.134E-07
CGA:  17    -0.350911057270E+03   -0.90922E-05   -0.91167E-05  8208   0.579E-04 0.104E-05
  40 F= -.35091106E+03 E0= -.35089484E+03  d E =0.187415E-01  mag=    30.4008
       N       E                     dE             d eps       ncg     rms          ort
SDA:   1    -0.350744133671E+03    0.16691E+00    0.00000E+00  8208   0.562E+00 0.000E+00
CGA:   2    -0.350798612101E+03   -0.54478E-01   -0.54482E-01  8208   0.718E+00 0.360E-02
CGA:   3    -0.350853958523E+03   -0.55346E-01   -0.55937E-01  8208   0.199E+00 0.725E-02
CGA:   4    -0.350874592265E+03   -0.20634E-01   -0.20687E-01  8208   0.161E+00-0.451E-02
CGA:   5    -0.350888266720E+03   -0.13674E-01   -0.13688E-01  8208   0.328E-01 0.546E-03
CGA:   6    -0.350892563128E+03   -0.42964E-02   -0.42978E-02  8208   0.196E-01-0.291E-04
CGA:   7    -0.350893530935E+03   -0.96781E-03   -0.95496E-03  8208   0.665E-02 0.137E-03
CGA:   8    -0.350894296671E+03   -0.76574E-03   -0.76431E-03  8208   0.328E-02 0.550E-04
CGA:   9    -0.350894615790E+03   -0.31912E-03   -0.31912E-03  8208   0.137E-02-0.382E-05
CGA:  10    -0.350894764898E+03   -0.14911E-03   -0.14900E-03  8208   0.920E-03 0.672E-05
CGA:  11    -0.350894877675E+03   -0.11278E-03   -0.11288E-03  8208   0.312E-03-0.313E-05
CGA:  12    -0.350894938794E+03   -0.61120E-04   -0.61080E-04  8208   0.354E-03 0.531E-06
CGA:  13    -0.350894970184E+03   -0.31389E-04   -0.31369E-04  8208   0.192E-03-0.103E-05
CGA:  14    -0.350894991867E+03   -0.21683E-04   -0.21683E-04  8208   0.179E-03 0.117E-06
CGA:  15    -0.350895005214E+03   -0.13347E-04   -0.13386E-04  8208   0.115E-03 0.921E-06
CGA:  16    -0.350895016989E+03   -0.11775E-04   -0.11775E-04  8208   0.403E-04 0.126E-06
CGA:  17    -0.350895023123E+03   -0.61335E-05   -0.60932E-05  8208   0.259E-04 0.800E-06
  41 F= -.35089502E+03 E0= -.35087891E+03  d E =0.160341E-01  mag=    30.3885
