       N       E                     dE             d eps       ncg     rms          rms(c)
DAV:   1     0.599556788808E+04    0.59956E+04   -0.25160E+05 35184   0.157E+03
DAV:   2     0.343391062408E+03   -0.56522E+04   -0.51679E+04 34248   0.462E+02
DAV:   3    -0.365676927696E+03   -0.70907E+03   -0.69437E+03 34656   0.182E+02
DAV:   4    -0.387190991761E+03   -0.21514E+02   -0.21383E+02 36976   0.330E+01
DAV:   5    -0.387590577923E+03   -0.39959E+00   -0.39581E+00 44056   0.405E+00    0.925E+01
DAV:   6    -0.293991970814E+03    0.93599E+02   -0.35317E+02 39952   0.652E+01    0.774E+01
DAV:   7    -0.313764124737E+03   -0.19772E+02   -0.11474E+02 35760   0.582E+01    0.847E+01
DAV:   8    -0.324618676602E+03   -0.10855E+02   -0.98274E+01 36824   0.367E+01    0.898E+01
DAV:   9    -0.297523933302E+03    0.27095E+02   -0.61416E+01 36136   0.239E+01    0.486E+01
DAV:  10    -0.325152359202E+03   -0.27628E+02   -0.44167E+01 36528   0.221E+01    0.926E+01
DAV:  11    -0.302855971836E+03    0.22296E+02   -0.43691E+01 35136   0.297E+01    0.474E+01
DAV:  12    -0.302495286952E+03    0.36068E+00   -0.11666E+01 36440   0.181E+01    0.352E+01
DAV:  13    -0.304210628043E+03   -0.17153E+01   -0.85527E+00 35136   0.885E+00    0.228E+01
DAV:  14    -0.306909099155E+03   -0.26985E+01   -0.45447E+00 35240   0.472E+00    0.221E+01
DAV:  15    -0.308356819976E+03   -0.14477E+01   -0.88930E-01 34688   0.324E+00    0.182E+01
DAV:  16    -0.308455041226E+03   -0.98221E-01   -0.18114E-01 34368   0.117E+00    0.177E+01
DAV:  17    -0.308280250628E+03    0.17479E+00   -0.36688E-02 36568   0.738E-01    0.174E+01
DAV:  18    -0.307646264748E+03    0.63399E+00   -0.32853E-01 39848   0.233E+00    0.146E+01
DAV:  19    -0.308215228851E+03   -0.56896E+00   -0.41076E-01 38664   0.270E+00    0.125E+01
DAV:  20    -0.309907581876E+03   -0.16924E+01   -0.64409E-01 37888   0.289E+00    0.109E+01
DAV:  21    -0.311450037286E+03   -0.15425E+01   -0.54537E-01 36200   0.190E+00    0.115E+01
DAV:  22    -0.311964029013E+03   -0.51399E+00   -0.81650E-02 35200   0.952E-01    0.124E+01
DAV:  23    -0.313000262699E+03   -0.10362E+01   -0.13676E-01 36944   0.107E+00    0.965E+00
DAV:  24    -0.314815182858E+03   -0.18149E+01   -0.43661E-01 38000   0.174E+00    0.619E+00
DAV:  25    -0.316418848992E+03   -0.16037E+01   -0.52094E-01 35832   0.155E+00    0.478E+00
DAV:  26    -0.317334287262E+03   -0.91544E+00   -0.32681E-01 36768   0.145E+00    0.416E+00
DAV:  27    -0.317950042032E+03   -0.61575E+00   -0.26361E-01 36096   0.133E+00    0.405E+00
DAV:  28    -0.318289123447E+03   -0.33908E+00   -0.14647E-01 36120   0.105E+00    0.345E+00
DAV:  29    -0.318504025117E+03   -0.21490E+00   -0.75066E-02 35072   0.618E-01    0.296E+00
DAV:  30    -0.318663980923E+03   -0.15996E+00   -0.94414E-02 36256   0.934E-01    0.250E+00
DAV:  31    -0.318704032004E+03   -0.40051E-01   -0.34178E-02 33888   0.525E-01    0.200E+00
DAV:  32    -0.318722778963E+03   -0.18747E-01   -0.14409E-02 33888   0.330E-01    0.148E+00
DAV:  33    -0.318723683188E+03   -0.90423E-03   -0.61057E-03 34272   0.283E-01    0.110E+00
DAV:  34    -0.318722008276E+03    0.16749E-02   -0.20621E-03 36376   0.191E-01    0.906E-01
DAV:  35    -0.318719441484E+03    0.25668E-02   -0.90818E-04 37032   0.166E-01    0.701E-01
DAV:  36    -0.318716896792E+03    0.25447E-02   -0.77778E-04 41184   0.170E-01    0.587E-01
DAV:  37    -0.318714476627E+03    0.24202E-02   -0.76860E-04 40720   0.181E-01    0.482E-01
DAV:  38    -0.318713538600E+03    0.93803E-03   -0.77091E-04 40888   0.110E-01    0.378E-01
DAV:  39    -0.318712722004E+03    0.81660E-03   -0.18348E-04 40696   0.100E-01    0.283E-01
DAV:  40    -0.318712229327E+03    0.49268E-03   -0.26741E-04 41504   0.995E-02    0.193E-01
DAV:  41    -0.318712155851E+03    0.73475E-04   -0.28765E-04 33768   0.461E-02    0.138E-01
DAV:  42    -0.318712108985E+03    0.46866E-04   -0.19292E-05 26528   0.267E-02    0.911E-02
DAV:  43    -0.318712047041E+03    0.61944E-04   -0.28759E-05 28824   0.414E-02    0.455E-02
DAV:  44    -0.318712040158E+03    0.68836E-05   -0.46428E-05 31328   0.185E-02
   1 F= -.31871204E+03 E0= -.31870786E+03  d E =-.318712E+03  mag=    37.9988
       N       E                     dE             d eps       ncg     rms          rms(c)
DAV:   1    -0.318713677831E+03   -0.16308E-02   -0.46978E-04 37360   0.827E-02    0.156E-02
DAV:   2    -0.318713683230E+03   -0.53991E-05   -0.52424E-05 32016   0.177E-02    0.183E-02
DAV:   3    -0.318713683193E+03    0.37478E-07   -0.51746E-06 18704   0.106E-02    0.167E-02
DAV:   4    -0.318713682979E+03    0.21381E-06   -0.10247E-06 17472   0.466E-03
   2 F= -.31871368E+03 E0= -.31870950E+03  d E =-.164282E-02  mag=    37.9993
       N       E                     dE             d eps       ncg     rms          rms(c)
DAV:   1    -0.318752012293E+03   -0.38329E-01   -0.31451E-01 38320   0.209E+00    0.248E-01
DAV:   2    -0.318755095096E+03   -0.30828E-02   -0.31156E-02 34440   0.375E-01    0.166E-01
DAV:   3    -0.318755200178E+03   -0.10508E-03   -0.10757E-03 39064   0.108E-01    0.168E-01
DAV:   4    -0.318755163773E+03    0.36405E-04   -0.20795E-04 36408   0.618E-02    0.886E-02
DAV:   5    -0.318755146510E+03    0.17262E-04   -0.45966E-05 30472   0.314E-02    0.710E-02
DAV:   6    -0.318755134982E+03    0.11529E-04   -0.43448E-05 31472   0.291E-02    0.465E-02
DAV:   7    -0.318755134750E+03    0.23156E-06   -0.22415E-05 27584   0.214E-02
   3 F= -.31875513E+03 E0= -.31875095E+03  d E =-.414518E-01  mag=    37.9998
       N       E                     dE             d eps       ncg     rms          rms(c)
DAV:   1    -0.318838571035E+03   -0.83436E-01   -0.27437E+00 38016   0.617E+00    0.737E-01
DAV:   2    -0.318866048010E+03   -0.27477E-01   -0.27641E-01 34192   0.111E+00    0.502E-01
DAV:   3    -0.318866972082E+03   -0.92407E-03   -0.97350E-03 39728   0.329E-01    0.543E-01
DAV:   4    -0.318866601381E+03    0.37070E-03   -0.19491E-03 37928   0.191E-01    0.264E-01
DAV:   5    -0.318866455286E+03    0.14609E-03   -0.39053E-04 34880   0.899E-02    0.201E-01
DAV:   6    -0.318866357396E+03    0.97890E-04   -0.36754E-04 36248   0.848E-02    0.140E-01
DAV:   7    -0.318866353333E+03    0.40634E-05   -0.20337E-04 36936   0.636E-02    0.111E-01
DAV:   8    -0.318866341495E+03    0.11838E-04   -0.60962E-05 31984   0.388E-02    0.369E-02
DAV:   9    -0.318866341789E+03   -0.29472E-06   -0.14622E-05 22832   0.166E-02
   4 F= -.31886634E+03 E0= -.31886217E+03  d E =-.111207E+00  mag=    37.9999
       N       E                     dE             d eps       ncg     rms          rms(c)
DAV:   1    -0.318934554156E+03   -0.68213E-01   -0.71143E+00 37600   0.101E+01    0.122E+00
DAV:   2    -0.319009862155E+03   -0.75308E-01   -0.75459E-01 34232   0.182E+00    0.853E-01
DAV:   3    -0.319012622367E+03   -0.27602E-02   -0.27230E-02 39808   0.556E-01    0.939E-01
DAV:   4    -0.319011519483E+03    0.11029E-02   -0.55303E-03 38000   0.326E-01    0.422E-01
DAV:   5    -0.319011168840E+03    0.35064E-03   -0.10622E-03 35336   0.146E-01    0.336E-01
DAV:   6    -0.319010902809E+03    0.26603E-03   -0.96855E-04 36328   0.139E-01    0.227E-01
DAV:   7    -0.319010887624E+03    0.15185E-04   -0.53296E-04 37552   0.104E-01    0.180E-01
DAV:   8    -0.319010858472E+03    0.29152E-04   -0.17448E-04 34696   0.633E-02    0.621E-02
DAV:   9    -0.319010858941E+03   -0.46899E-06   -0.40220E-05 27896   0.274E-02
   5 F= -.31901086E+03 E0= -.31900670E+03  d E =-.144517E+00  mag=    38.0000
       N       E                     dE             d eps       ncg     rms          rms(c)
DAV:   1    -0.318930528249E+03    0.80330E-01   -0.18829E+01 37312   0.170E+01    0.215E+00
DAV:   2    -0.319157153129E+03   -0.22662E+00   -0.22421E+00 34352   0.311E+00    0.157E+00
DAV:   3    -0.319166781873E+03   -0.96287E-02   -0.82375E-02 39832   0.991E-01    0.179E+00
DAV:   4    -0.319162932042E+03    0.38498E-02   -0.17011E-02 37048   0.586E-01    0.672E-01
DAV:   5    -0.319162164990E+03    0.76705E-03   -0.30254E-03 35384   0.236E-01    0.559E-01
DAV:   6    -0.319161503576E+03    0.66141E-03   -0.25930E-03 36104   0.229E-01    0.396E-01
DAV:   7    -0.319161407383E+03    0.96193E-04   -0.14572E-03 36824   0.177E-01    0.285E-01
DAV:   8    -0.319161338463E+03    0.68920E-04   -0.58973E-04 36888   0.109E-01    0.106E-01
DAV:   9    -0.319161340970E+03   -0.25071E-05   -0.12491E-04 33184   0.471E-02    0.816E-02
DAV:  10    -0.319161334340E+03    0.66297E-05   -0.32612E-05 26296   0.272E-02
   6 F= -.31916133E+03 E0= -.31915714E+03  d E =-.150475E+00  mag=    38.0000
       N       E                     dE             d eps       ncg     rms          rms(c)
DAV:   1    -0.319029089240E+03    0.13225E+00   -0.19835E+01 37248   0.165E+01    0.201E+00
DAV:   2    -0.319232713541E+03   -0.20362E+00   -0.19970E+00 34352   0.300E+00    0.165E+00
DAV:   3    -0.319240572344E+03   -0.78588E-02   -0.66969E-02 39024   0.960E-01    0.189E+00
DAV:   4    -0.319236270786E+03    0.43016E-02   -0.14584E-02 35960   0.590E-01    0.581E-01
DAV:   5    -0.319235805390E+03    0.46540E-03   -0.29011E-03 36144   0.229E-01    0.536E-01
DAV:   6    -0.319235254023E+03    0.55137E-03   -0.21728E-03 36744   0.223E-01    0.367E-01
DAV:   7    -0.319235175970E+03    0.78054E-04   -0.13294E-03 37080   0.163E-01    0.251E-01
DAV:   8    -0.319235128074E+03    0.47896E-04   -0.54015E-04 35816   0.973E-02    0.999E-02
DAV:   9    -0.319235130535E+03   -0.24613E-05   -0.91624E-05 32184   0.412E-02
   7 F= -.31923513E+03 E0= -.31923080E+03  d E =-.737962E-01  mag=    38.0000
       N       E                     dE             d eps       ncg     rms          rms(c)
DAV:   1    -0.319014409553E+03    0.22072E+00   -0.45394E+01 36808   0.205E+01    0.212E+00
DAV:   2    -0.319291496328E+03   -0.27709E+00   -0.27771E+00 33664   0.373E+00    0.176E+00
DAV:   3    -0.319297298129E+03   -0.58018E-02   -0.75100E-02 40024   0.999E-01    0.187E+00
DAV:   4    -0.319292799747E+03    0.44984E-02   -0.13989E-02 37432   0.566E-01    0.679E-01
DAV:   5    -0.319291752610E+03    0.10471E-02   -0.42860E-03 35168   0.285E-01    0.619E-01
DAV:   6    -0.319290922231E+03    0.83038E-03   -0.40967E-03 36040   0.289E-01    0.420E-01
DAV:   7    -0.319290910812E+03    0.11419E-04   -0.19338E-03 37152   0.186E-01    0.327E-01
DAV:   8    -0.319290834149E+03    0.76663E-04   -0.61034E-04 35392   0.102E-01    0.127E-01
DAV:   9    -0.319290835899E+03   -0.17501E-05   -0.95663E-05 31760   0.438E-02
   8 F= -.31929084E+03 E0= -.31928650E+03  d E =-.557054E-01  mag=    38.0000
       N       E                     dE             d eps       ncg     rms          rms(c)
DAV:   1    -0.318966566877E+03    0.32427E+00   -0.60479E+01 36752   0.238E+01    0.237E+00
DAV:   2    -0.319318243627E+03   -0.35168E+00   -0.34979E+00 33976   0.428E+00    0.186E+00
DAV:   3    -0.319325119631E+03   -0.68760E-02   -0.10468E-01 38432   0.116E+00    0.189E+00
DAV:   4    -0.319320709197E+03    0.44104E-02   -0.17843E-02 37048   0.567E-01    0.790E-01
DAV:   5    -0.319319201338E+03    0.15079E-02   -0.46782E-03 35680   0.283E-01    0.707E-01
DAV:   6    -0.319317593441E+03    0.16079E-02   -0.47219E-03 35904   0.297E-01    0.455E-01
DAV:   7    -0.319317590296E+03    0.31457E-05   -0.30354E-03 37208   0.240E-01    0.467E-01
DAV:   8    -0.319317415917E+03    0.17438E-03   -0.12021E-03 37456   0.156E-01    0.166E-01
DAV:   9    -0.319317410388E+03    0.55291E-05   -0.27956E-04 34184   0.716E-02    0.106E-01
DAV:  10    -0.319317392431E+03    0.17958E-04   -0.58775E-05 29432   0.381E-02    0.493E-02
DAV:  11    -0.319317386655E+03    0.57751E-05   -0.19480E-05 24256   0.230E-02
   9 F= -.31931739E+03 E0= -.31931293E+03  d E =-.265508E-01  mag=    38.0000
       N       E                     dE             d eps       ncg     rms          rms(c)
DAV:   1    -0.319154174313E+03    0.16322E+00   -0.75654E+00 43816   0.149E+01    0.191E+00
DAV:   2    -0.319325305328E+03   -0.17113E+00   -0.17005E+00 34632   0.256E+00    0.129E+00
DAV:   3    -0.319335127614E+03   -0.98223E-02   -0.72913E-02 33712   0.831E-01    0.120E+00
DAV:   4    -0.319333555202E+03    0.15724E-02   -0.10256E-02 36264   0.435E-01    0.550E-01
DAV:   5    -0.319332922274E+03    0.63293E-03   -0.19512E-03 36208   0.186E-01    0.457E-01
DAV:   6    -0.319332352318E+03    0.56996E-03   -0.14642E-03 36248   0.184E-01    0.309E-01
DAV:   7    -0.319332118703E+03    0.23361E-03   -0.82340E-04 37136   0.144E-01    0.187E-01
DAV:   8    -0.319332108150E+03    0.10553E-04   -0.48031E-04 35744   0.899E-02    0.126E-01
DAV:   9    -0.319332083490E+03    0.24660E-04   -0.11573E-04 32936   0.483E-02    0.605E-02
DAV:  10    -0.319332078148E+03    0.53425E-05   -0.32836E-05 26336   0.243E-02
  10 F= -.31933208E+03 E0= -.31932789E+03  d E =-.146915E-01  mag=    38.0000
       N       E                     dE             d eps       ncg     rms          rms(c)
DAV:   1    -0.319325130093E+03    0.69534E-02   -0.76188E-01 42896   0.410E+00    0.568E-01
DAV:   2    -0.319340589145E+03   -0.15459E-01   -0.15594E-01 34720   0.701E-01    0.333E-01
DAV:   3    -0.319341547551E+03   -0.95841E-03   -0.66181E-03 33712   0.215E-01    0.346E-01
DAV:   4    -0.319341396810E+03    0.15074E-03   -0.81711E-04 36728   0.109E-01    0.140E-01
DAV:   5    -0.319341328075E+03    0.68735E-04   -0.15036E-04 34024   0.489E-02    0.103E-01
DAV:   6    -0.319341282911E+03    0.45164E-04   -0.11917E-04 34984   0.509E-02    0.948E-02
DAV:   7    -0.319341264145E+03    0.18766E-04   -0.69939E-05 33312   0.411E-02    0.570E-02
DAV:   8    -0.319341263245E+03    0.89986E-06   -0.35231E-05 28112   0.249E-02
  11 F= -.31934126E+03 E0= -.31933701E+03  d E =-.918510E-02  mag=    38.0000
       N       E                     dE             d eps       ncg     rms          rms(c)
DAV:   1    -0.319329243331E+03    0.12021E-01   -0.13807E+00 38368   0.487E+00    0.560E-01
DAV:   2    -0.319346207457E+03   -0.16964E-01   -0.16887E-01 34608   0.883E-01    0.361E-01
DAV:   3    -0.319347006877E+03   -0.79942E-03   -0.60822E-03 35824   0.228E-01    0.403E-01
DAV:   4    -0.319346806572E+03    0.20030E-03   -0.87747E-04 37416   0.118E-01    0.140E-01
DAV:   5    -0.319346729483E+03    0.77089E-04   -0.17108E-04 35024   0.510E-02    0.969E-02
DAV:   6    -0.319346684919E+03    0.44564E-04   -0.14671E-04 37608   0.564E-02    0.950E-02
DAV:   7    -0.319346667415E+03    0.17504E-04   -0.82826E-05 33320   0.417E-02    0.362E-02
DAV:   8    -0.319346669235E+03   -0.18195E-05   -0.27709E-05 27176   0.203E-02
  12 F= -.31934667E+03 E0= -.31934239E+03  d E =-.540599E-02  mag=    38.0000
       N       E                     dE             d eps       ncg     rms          rms(c)
DAV:   1    -0.319318223249E+03    0.28444E-01   -0.52753E+00 36016   0.741E+00    0.787E-01
DAV:   2    -0.319355429249E+03   -0.37206E-01   -0.36149E-01 33696   0.134E+00    0.498E-01
DAV:   3    -0.319356375543E+03   -0.94629E-03   -0.84542E-03 37864   0.283E-01    0.528E-01
DAV:   4    -0.319356076718E+03    0.29882E-03   -0.14877E-03 37576   0.161E-01    0.224E-01
DAV:   5    -0.319355945368E+03    0.13135E-03   -0.29093E-04 34776   0.764E-02    0.167E-01
DAV:   6    -0.319355882253E+03    0.63114E-04   -0.31368E-04 37696   0.823E-02    0.147E-01
DAV:   7    -0.319355866117E+03    0.16137E-04   -0.20169E-04 36024   0.630E-02    0.107E-01
DAV:   8    -0.319355860519E+03    0.55971E-05   -0.77240E-05 32560   0.352E-02
  13 F= -.31935586E+03 E0= -.31935162E+03  d E =-.919128E-02  mag=    38.0000
       N       E                     dE             d eps       ncg     rms          rms(c)
DAV:   1    -0.317488963539E+03    0.18669E+01   -0.82010E+01 40832   0.425E+01    0.614E+00
DAV:   2    -0.319055034500E+03   -0.15661E+01   -0.15521E+01 34896   0.763E+00    0.560E+00
DAV:   3    -0.319125145777E+03   -0.70111E-01   -0.70389E-01 34600   0.279E+00    0.359E+00
DAV:   4    -0.319109992971E+03    0.15153E-01   -0.96115E-02 36192   0.139E+00    0.154E+00
DAV:   5    -0.319104418700E+03    0.55743E-02   -0.18745E-02 35600   0.495E-01    0.122E+00
DAV:   6    -0.319101513585E+03    0.29051E-02   -0.90482E-03 37536   0.464E-01    0.116E+00
DAV:   7    -0.319098259719E+03    0.32539E-02   -0.71506E-03 37600   0.429E-01    0.527E-01
DAV:   8    -0.319098146468E+03    0.11325E-03   -0.42511E-03 35480   0.275E-01    0.485E-01
DAV:   9    -0.319097847481E+03    0.29899E-03   -0.14796E-03 34968   0.163E-01    0.185E-01
DAV:  10    -0.319097816754E+03    0.30726E-04   -0.33076E-04 34504   0.738E-02    0.124E-01
DAV:  11    -0.319097766317E+03    0.50438E-04   -0.11332E-04 33224   0.475E-02    0.639E-02
DAV:  12    -0.319097733301E+03    0.33016E-04   -0.49792E-05 32152   0.337E-02    0.527E-02
DAV:  13    -0.319097715912E+03    0.17389E-04   -0.27275E-05 26496   0.230E-02    0.281E-02
DAV:  14    -0.319097708480E+03    0.74315E-05   -0.96324E-06 21216   0.131E-02
  14 F= -.31909771E+03 E0= -.31909396E+03  d E =0.258152E+00  mag=    38.0000
       N       E                     dE             d eps       ncg     rms          rms(c)
DAV:   1    -0.318671134177E+03    0.42658E+00   -0.27600E+01 45112   0.249E+01    0.401E+00
DAV:   2    -0.319341989851E+03   -0.67086E+00   -0.67487E+00 34904   0.446E+00    0.386E+00
DAV:   3    -0.319377107684E+03   -0.35118E-01   -0.37098E-01 34416   0.204E+00    0.326E+00
DAV:   4    -0.319366107363E+03    0.11000E-01   -0.52535E-02 35616   0.102E+00    0.126E+00
DAV:   5    -0.319364225559E+03    0.18818E-02   -0.92348E-03 37880   0.438E-01    0.106E+00
DAV:   6    -0.319361062692E+03    0.31629E-02   -0.65204E-03 35408   0.387E-01    0.670E-01
DAV:   7    -0.319360462690E+03    0.60000E-03   -0.45251E-03 36728   0.322E-01    0.708E-01
DAV:   8    -0.319359844211E+03    0.61848E-03   -0.27006E-03 35616   0.239E-01    0.269E-01
DAV:   9    -0.319359794969E+03    0.49242E-04   -0.54726E-04 34376   0.104E-01    0.124E-01
DAV:  10    -0.319359756349E+03    0.38620E-04   -0.14800E-04 34328   0.537E-02    0.506E-02
DAV:  11    -0.319359735099E+03    0.21250E-04   -0.40015E-05 29632   0.284E-02    0.544E-02
DAV:  12    -0.319359719576E+03    0.15523E-04   -0.26296E-05 26504   0.242E-02    0.349E-02
DAV:  13    -0.319359709401E+03    0.10175E-04   -0.13198E-05 21744   0.160E-02    0.196E-02
DAV:  14    -0.319359704015E+03    0.53860E-05   -0.68015E-06 20600   0.954E-03
  15 F= -.31935970E+03 E0= -.31935558E+03  d E =-.261996E+00  mag=    38.0000
       N       E                     dE             d eps       ncg     rms          rms(c)
DAV:   1    -0.319346725323E+03    0.12984E-01   -0.10125E+00 44872   0.485E+00    0.694E-01
DAV:   2    -0.319369283649E+03   -0.22558E-01   -0.22756E-01 34712   0.818E-01    0.390E-01
DAV:   3    -0.319370696475E+03   -0.14128E-02   -0.96480E-03 33840   0.251E-01    0.381E-01
DAV:   4    -0.319370510441E+03    0.18603E-03   -0.11284E-03 36760   0.127E-01    0.178E-01
DAV:   5    -0.319370392721E+03    0.11772E-03   -0.21706E-04 34320   0.591E-02    0.127E-01
DAV:   6    -0.319370314771E+03    0.77950E-04   -0.17895E-04 35128   0.613E-02    0.121E-01
DAV:   7    -0.319370272084E+03    0.42687E-04   -0.11452E-04 34392   0.522E-02    0.598E-02
DAV:   8    -0.319370270010E+03    0.20737E-05   -0.50872E-05 29760   0.302E-02
  16 F= -.31937027E+03 E0= -.31936609E+03  d E =-.105660E-01  mag=    38.0000
       N       E                     dE             d eps       ncg     rms          rms(c)
DAV:   1    -0.319361494424E+03    0.87777E-02   -0.58215E-01 40800   0.356E+00    0.456E-01
DAV:   2    -0.319371726241E+03   -0.10232E-01   -0.10232E-01 34792   0.629E-01    0.257E-01
DAV:   3    -0.319372249263E+03   -0.52302E-03   -0.37740E-03 34368   0.161E-01    0.203E-01
DAV:   4    -0.319372193645E+03    0.55618E-04   -0.38783E-04 36160   0.719E-02    0.112E-01
DAV:   5    -0.319372132952E+03    0.60693E-04   -0.11287E-04 32384   0.403E-02    0.756E-02
DAV:   6    -0.319372107429E+03    0.25523E-04   -0.82120E-05 34992   0.473E-02    0.905E-02
DAV:   7    -0.319372097862E+03    0.95675E-05   -0.49595E-05 29832   0.339E-02
  17 F= -.31937210E+03 E0= -.31936791E+03  d E =-.182785E-02  mag=    38.0000
       N       E                     dE             d eps       ncg     rms          rms(c)
DAV:   1    -0.319371132222E+03    0.97521E-03   -0.35221E-01 36672   0.202E+00    0.222E-01
DAV:   2    -0.319373738290E+03   -0.26061E-02   -0.25181E-02 33808   0.363E-01    0.159E-01
DAV:   3    -0.319373820140E+03   -0.81850E-04   -0.75790E-04 36288   0.974E-02    0.178E-01
DAV:   4    -0.319373785774E+03    0.34365E-04   -0.13747E-04 32896   0.507E-02    0.642E-02
DAV:   5    -0.319373781362E+03    0.44118E-05   -0.26278E-05 25968   0.244E-02
  18 F= -.31937378E+03 E0= -.31936962E+03  d E =-.168350E-02  mag=    38.0000
       N       E                     dE             d eps       ncg     rms          rms(c)
DAV:   1    -0.319359153244E+03    0.14633E-01   -0.25020E+00 35872   0.524E+00    0.551E-01
DAV:   2    -0.319376954224E+03   -0.17801E-01   -0.17153E-01 33728   0.955E-01    0.430E-01
DAV:   3    -0.319377479270E+03   -0.52505E-03   -0.51534E-03 36456   0.257E-01    0.488E-01
DAV:   4    -0.319377216765E+03    0.26250E-03   -0.94254E-04 36512   0.129E-01    0.162E-01
DAV:   5    -0.319377191975E+03    0.24790E-04   -0.16239E-04 35288   0.568E-02    0.143E-01
DAV:   6    -0.319377141953E+03    0.50022E-04   -0.17424E-04 34696   0.672E-02    0.108E-01
DAV:   7    -0.319377145543E+03   -0.35898E-05   -0.13130E-04 37032   0.510E-02    0.968E-02
DAV:   8    -0.319377137247E+03    0.82956E-05   -0.47973E-05 29488   0.324E-02
  19 F= -.31937714E+03 E0= -.31937302E+03  d E =-.335588E-02  mag=    38.0000
       N       E                     dE             d eps       ncg     rms          rms(c)
DAV:   1    -0.319222059461E+03    0.15509E+00   -0.21070E+01 35832   0.154E+01    0.159E+00
DAV:   2    -0.319380687122E+03   -0.15863E+00   -0.15255E+00 33112   0.282E+00    0.114E+00
DAV:   3    -0.319385816980E+03   -0.51299E-02   -0.41386E-02 35560   0.668E-01    0.141E+00
DAV:   4    -0.319383633775E+03    0.21832E-02   -0.77763E-03 35760   0.355E-01    0.355E-01
DAV:   5    -0.319383424840E+03    0.20894E-03   -0.99918E-04 34496   0.126E-01    0.343E-01
DAV:   6    -0.319383147552E+03    0.27729E-03   -0.72001E-04 36344   0.124E-01    0.241E-01
DAV:   7    -0.319383022441E+03    0.12511E-03   -0.60828E-04 37008   0.119E-01    0.189E-01
DAV:   8    -0.319383008688E+03    0.13753E-04   -0.41470E-04 37864   0.773E-02    0.787E-02
DAV:   9    -0.319383013487E+03   -0.47988E-05   -0.78981E-05 31936   0.344E-02
  20 F= -.31938301E+03 E0= -.31937898E+03  d E =-.587624E-02  mag=    38.0000
       N       E                     dE             d eps       ncg     rms          rms(c)
DAV:   1    -0.319076694899E+03    0.30631E+00   -0.29002E+01 38272   0.203E+01    0.218E+00
DAV:   2    -0.319348358085E+03   -0.27166E+00   -0.26885E+00 34288   0.375E+00    0.185E+00
DAV:   3    -0.319358205965E+03   -0.98479E-02   -0.99237E-02 34240   0.115E+00    0.178E+00
DAV:   4    -0.319354607340E+03    0.35986E-02   -0.15890E-02 36328   0.598E-01    0.863E-01
DAV:   5    -0.319353787949E+03    0.81939E-03   -0.33166E-03 36832   0.259E-01    0.614E-01
DAV:   6    -0.319352663441E+03    0.11245E-02   -0.34400E-03 36744   0.281E-01    0.395E-01
DAV:   7    -0.319352565077E+03    0.98364E-04   -0.18507E-03 36920   0.197E-01    0.302E-01
DAV:   8    -0.319352506768E+03    0.58309E-04   -0.83147E-04 36648   0.118E-01    0.144E-01
DAV:   9    -0.319352480871E+03    0.25897E-04   -0.17980E-04 34192   0.609E-02    0.926E-02
DAV:  10    -0.319352462779E+03    0.18092E-04   -0.48012E-05 30208   0.338E-02    0.378E-02
DAV:  11    -0.319352455083E+03    0.76964E-05   -0.15063E-05 23192   0.180E-02
  21 F= -.31935246E+03 E0= -.31934816E+03  d E =0.305584E-01  mag=    38.0000
       N       E                     dE             d eps       ncg     rms          rms(c)
DAV:   1    -0.319290331814E+03    0.62131E-01   -0.39576E+00 44272   0.102E+01    0.138E+00
DAV:   2    -0.319376707571E+03   -0.86376E-01   -0.86674E-01 35048   0.171E+00    0.903E-01
DAV:   3    -0.319381860829E+03   -0.51533E-02   -0.37554E-02 33128   0.586E-01    0.809E-01
DAV:   4    -0.319381121266E+03    0.73956E-03   -0.52983E-03 36856   0.304E-01    0.435E-01
DAV:   5    -0.319380782256E+03    0.33901E-03   -0.10027E-03 36352   0.139E-01    0.335E-01
DAV:   6    -0.319380480120E+03    0.30214E-03   -0.79016E-04 39128   0.138E-01    0.244E-01
DAV:   7    -0.319380379847E+03    0.10027E-03   -0.45825E-04 35976   0.108E-01    0.143E-01
DAV:   8    -0.319380369009E+03    0.10838E-04   -0.22629E-04 34256   0.658E-02    0.912E-02
DAV:   9    -0.319380356970E+03    0.12039E-04   -0.57975E-05 30064   0.345E-02    0.454E-02
DAV:  10    -0.319380352961E+03    0.40083E-05   -0.19379E-05 24784   0.197E-02
  22 F= -.31938035E+03 E0= -.31937624E+03  d E =-.278979E-01  mag=    38.0000
       N       E                     dE             d eps       ncg     rms          rms(c)
DAV:   1    -0.319375210196E+03    0.51468E-02   -0.62202E-01 40456   0.335E+00    0.411E-01
DAV:   2    -0.319383090511E+03   -0.78803E-02   -0.78267E-02 34720   0.611E-01    0.351E-01
DAV:   3    -0.319383444475E+03   -0.35396E-03   -0.35109E-03 33856   0.216E-01    0.330E-01
DAV:   4    -0.319383338726E+03    0.10575E-03   -0.52945E-04 36072   0.103E-01    0.170E-01
DAV:   5    -0.319383311421E+03    0.27305E-04   -0.13530E-04 33488   0.544E-02    0.141E-01
DAV:   6    -0.319383270887E+03    0.40534E-04   -0.16687E-04 34512   0.623E-02    0.933E-02
DAV:   7    -0.319383268698E+03    0.21887E-05   -0.73334E-05 32432   0.414E-02
  23 F= -.31938327E+03 E0= -.31937922E+03  d E =-.291574E-02  mag=    38.0000
       N       E                     dE             d eps       ncg     rms          rms(c)
DAV:   1    -0.319383264622E+03    0.62644E-05   -0.17029E-01 37800   0.154E+00    0.202E-01
DAV:   2    -0.319385157985E+03   -0.18934E-02   -0.18979E-02 34808   0.291E-01    0.169E-01
DAV:   3    -0.319385238413E+03   -0.80428E-04   -0.76322E-04 34512   0.969E-02    0.178E-01
DAV:   4    -0.319385206061E+03    0.32351E-04   -0.11960E-04 32976   0.472E-02    0.705E-02
DAV:   5    -0.319385201710E+03    0.43512E-05   -0.38485E-05 28360   0.289E-02
  24 F= -.31938520E+03 E0= -.31938113E+03  d E =-.193301E-02  mag=    38.0000
       N       E                     dE             d eps       ncg     rms          rms(c)
DAV:   1    -0.319380538890E+03    0.46672E-02   -0.90509E-01 36048   0.326E+00    0.381E-01
DAV:   2    -0.319387392963E+03   -0.68541E-02   -0.67915E-02 34480   0.625E-01    0.377E-01
DAV:   3    -0.319387542339E+03   -0.14938E-03   -0.27067E-03 36336   0.204E-01    0.317E-01
DAV:   4    -0.319387442752E+03    0.99588E-04   -0.37402E-04 35192   0.881E-02    0.146E-01
DAV:   5    -0.319387437089E+03    0.56622E-05   -0.15843E-04 34392   0.588E-02    0.163E-01
DAV:   6    -0.319387400767E+03    0.36322E-04   -0.17132E-04 34936   0.637E-02    0.700E-02
DAV:   7    -0.319387408477E+03   -0.77103E-05   -0.62826E-05 30568   0.354E-02
  25 F= -.31938741E+03 E0= -.31938335E+03  d E =-.220677E-02  mag=    38.0000
       N       E                     dE             d eps       ncg     rms          rms(c)
DAV:   1    -0.319385508906E+03    0.18919E-02   -0.36685E-01 36368   0.207E+00    0.201E-01
DAV:   2    -0.319388141936E+03   -0.26330E-02   -0.25647E-02 33416   0.377E-01    0.150E-01
DAV:   3    -0.319388228504E+03   -0.86568E-04   -0.72883E-04 35160   0.953E-02    0.182E-01
DAV:   4    -0.319388192338E+03    0.36166E-04   -0.13496E-04 32672   0.491E-02    0.538E-02
DAV:   5    -0.319388188540E+03    0.37977E-05   -0.15930E-05 22816   0.179E-02
  26 F= -.31938819E+03 E0= -.31938415E+03  d E =-.780063E-03  mag=    38.0000
       N       E                     dE             d eps       ncg     rms          rms(c)
DAV:   1    -0.319322034493E+03    0.66158E-01   -0.10737E+01 36864   0.106E+01    0.972E-01
DAV:   2    -0.319389626658E+03   -0.67592E-01   -0.65220E-01 32672   0.188E+00    0.754E-01
DAV:   3    -0.319391484265E+03   -0.18576E-02   -0.16448E-02 35824   0.448E-01    0.887E-01
DAV:   4    -0.319390584637E+03    0.89963E-03   -0.32417E-03 35944   0.231E-01    0.223E-01
DAV:   5    -0.319390467832E+03    0.11681E-03   -0.45107E-04 34568   0.846E-02    0.221E-01
DAV:   6    -0.319390357736E+03    0.11010E-03   -0.33721E-04 37248   0.849E-02    0.168E-01
DAV:   7    -0.319390318244E+03    0.39492E-04   -0.29388E-04 35640   0.813E-02    0.132E-01
DAV:   8    -0.319390311130E+03    0.71137E-05   -0.17485E-04 35704   0.508E-02    0.417E-02
DAV:   9    -0.319390314030E+03   -0.28999E-05   -0.30419E-05 27432   0.218E-02
  27 F= -.31939031E+03 E0= -.31938629E+03  d E =-.212549E-02  mag=    38.0000
       N       E                     dE             d eps       ncg     rms          rms(c)
DAV:   1    -0.318697446637E+03    0.69286E+00   -0.56282E+01 37704   0.300E+01    0.327E+00
DAV:   2    -0.319308954625E+03   -0.61151E+00   -0.60666E+00 33888   0.551E+00    0.237E+00
DAV:   3    -0.319331267091E+03   -0.22312E-01   -0.19386E-01 34176   0.145E+00    0.193E+00
DAV:   4    -0.319327099636E+03    0.41675E-02   -0.25001E-02 37408   0.699E-01    0.838E-01
DAV:   5    -0.319325345696E+03    0.17539E-02   -0.54344E-03 35936   0.296E-01    0.758E-01
DAV:   6    -0.319324124018E+03    0.12217E-02   -0.42239E-03 37488   0.320E-01    0.643E-01
DAV:   7    -0.319323507475E+03    0.61654E-03   -0.27297E-03 37592   0.268E-01    0.344E-01
DAV:   8    -0.319323502046E+03    0.54286E-05   -0.15477E-03 35816   0.154E-01    0.228E-01
DAV:   9    -0.319323454364E+03    0.47683E-04   -0.31829E-04 34040   0.764E-02    0.860E-02
DAV:  10    -0.319323445196E+03    0.91673E-05   -0.70825E-05 31960   0.378E-02
  28 F= -.31932345E+03 E0= -.31931965E+03  d E =0.668688E-01  mag=    38.0000
       N       E                     dE             d eps       ncg     rms          rms(c)
DAV:   1    -0.318815533096E+03    0.50792E+00   -0.24010E+01 43288   0.231E+01    0.359E+00
DAV:   2    -0.319343165436E+03   -0.52763E+00   -0.52735E+00 35256   0.404E+00    0.305E+00
DAV:   3    -0.319377822802E+03   -0.34657E-01   -0.28419E-01 34384   0.172E+00    0.258E+00
DAV:   4    -0.319369479976E+03    0.83428E-02   -0.41228E-02 35624   0.878E-01    0.103E+00
DAV:   5    -0.319367914242E+03    0.15657E-02   -0.69888E-03 36512   0.346E-01    0.724E-01
DAV:   6    -0.319365789441E+03    0.21248E-02   -0.44695E-03 35456   0.297E-01    0.512E-01
DAV:   7    -0.319365202141E+03    0.58730E-03   -0.26615E-03 36288   0.242E-01    0.517E-01
DAV:   8    -0.319364846079E+03    0.35606E-03   -0.15889E-03 35792   0.181E-01    0.240E-01
DAV:   9    -0.319364778392E+03    0.67688E-04   -0.38645E-04 34552   0.882E-02    0.106E-01
DAV:  10    -0.319364742320E+03    0.36071E-04   -0.12491E-04 33576   0.457E-02    0.461E-02
DAV:  11    -0.319364721543E+03    0.20777E-04   -0.33559E-05 28472   0.247E-02    0.442E-02
DAV:  12    -0.319364709165E+03    0.12379E-04   -0.18988E-05 25176   0.195E-02    0.284E-02
DAV:  13    -0.319364698563E+03    0.10602E-04   -0.10761E-05 20736   0.134E-02    0.170E-02
DAV:  14    -0.319364693311E+03    0.52523E-05   -0.55516E-06 20456   0.897E-03
  29 F= -.31936469E+03 E0= -.31936050E+03  d E =-.412481E-01  mag=    38.0000
       N       E                     dE             d eps       ncg     rms          rms(c)
DAV:   1    -0.319337591907E+03    0.27107E-01   -0.20066E+00 44960   0.643E+00    0.100E+00
DAV:   2    -0.319383227009E+03   -0.45635E-01   -0.46157E-01 34904   0.108E+00    0.622E-01
DAV:   3    -0.319386154291E+03   -0.29273E-02   -0.20351E-02 33680   0.387E-01    0.584E-01
DAV:   4    -0.319385725092E+03    0.42920E-03   -0.25954E-03 36288   0.210E-01    0.267E-01
DAV:   5    -0.319385544029E+03    0.18106E-03   -0.49537E-04 35424   0.904E-02    0.221E-01
DAV:   6    -0.319385373349E+03    0.17068E-03   -0.33100E-04 36240   0.863E-02    0.148E-01
DAV:   7    -0.319385299990E+03    0.73359E-04   -0.18050E-04 35408   0.657E-02    0.864E-02
DAV:   8    -0.319385295979E+03    0.40107E-05   -0.11622E-04 33104   0.419E-02    0.691E-02
DAV:   9    -0.319385287051E+03    0.89286E-05   -0.27046E-05 25440   0.223E-02
  30 F= -.31938529E+03 E0= -.31938121E+03  d E =-.205937E-01  mag=    38.0000
       N       E                     dE             d eps       ncg     rms          rms(c)
DAV:   1    -0.319370597673E+03    0.14698E-01   -0.85951E-01 41408   0.413E+00    0.590E-01
DAV:   2    -0.319386851487E+03   -0.16254E-01   -0.16467E-01 35184   0.718E-01    0.377E-01
DAV:   3    -0.319387960159E+03   -0.11087E-02   -0.77107E-03 33912   0.251E-01    0.450E-01
DAV:   4    -0.319387704648E+03    0.25551E-03   -0.10203E-03 36152   0.131E-01    0.162E-01
DAV:   5    -0.319387616548E+03    0.88100E-04   -0.17970E-04 33848   0.540E-02    0.120E-01
DAV:   6    -0.319387547333E+03    0.69215E-04   -0.16473E-04 34256   0.580E-02    0.122E-01
DAV:   7    -0.319387512260E+03    0.35073E-04   -0.10751E-04 33896   0.494E-02    0.735E-02
DAV:   8    -0.319387504782E+03    0.74779E-05   -0.52658E-05 28832   0.321E-02
  31 F= -.31938750E+03 E0= -.31938352E+03  d E =-.221773E-02  mag=    38.0000
       N       E                     dE             d eps       ncg     rms          rms(c)
DAV:   1    -0.319386758590E+03    0.75367E-03   -0.43500E-01 36336   0.220E+00    0.280E-01
DAV:   2    -0.319389709023E+03   -0.29504E-02   -0.30065E-02 34384   0.420E-01    0.267E-01
DAV:   3    -0.319389777026E+03   -0.68003E-04   -0.12862E-03 35488   0.148E-01    0.259E-01
DAV:   4    -0.319389703764E+03    0.73262E-04   -0.24741E-04 34552   0.729E-02    0.121E-01
DAV:   5    -0.319389695777E+03    0.79870E-05   -0.83901E-05 32208   0.463E-02
  32 F= -.31938970E+03 E0= -.31938572E+03  d E =-.219100E-02  mag=    38.0000
       N       E                     dE             d eps       ncg     rms          rms(c)
DAV:   1    -0.319386708503E+03    0.29953E-02   -0.42113E-01 37160   0.276E+00    0.341E-01
DAV:   2    -0.319392425452E+03   -0.57169E-02   -0.56942E-02 34384   0.513E-01    0.370E-01
DAV:   3    -0.319392696233E+03   -0.27078E-03   -0.28727E-03 35528   0.194E-01    0.348E-01
DAV:   4    -0.319392571020E+03    0.12521E-03   -0.39774E-04 34520   0.917E-02    0.963E-02
DAV:   5    -0.319392564774E+03    0.62453E-05   -0.81613E-05 32208   0.402E-02
  33 F= -.31939256E+03 E0= -.31938859E+03  d E =-.286900E-02  mag=    38.0000
       N       E                     dE             d eps       ncg     rms          rms(c)
DAV:   1    -0.319388979728E+03    0.35913E-02   -0.34720E-01 37576   0.238E+00    0.261E-01
DAV:   2    -0.319392925800E+03   -0.39461E-02   -0.39295E-02 35104   0.438E-01    0.269E-01
DAV:   3    -0.319393100922E+03   -0.17512E-03   -0.17088E-03 35584   0.145E-01    0.271E-01
DAV:   4    -0.319393017044E+03    0.83879E-04   -0.24822E-04 34016   0.697E-02    0.682E-02
DAV:   5    -0.319393004751E+03    0.12293E-04   -0.56905E-05 29848   0.311E-02    0.776E-02
DAV:   6    -0.319392987909E+03    0.16841E-04   -0.40009E-05 29080   0.297E-02    0.446E-02
DAV:   7    -0.319392983032E+03    0.48773E-05   -0.26307E-05 25856   0.250E-02
  34 F= -.31939298E+03 E0= -.31938900E+03  d E =-.418258E-03  mag=    38.0000
       N       E                     dE             d eps       ncg     rms          rms(c)
DAV:   1    -0.319331981974E+03    0.61006E-01   -0.98067E+00 36696   0.103E+01    0.917E-01
DAV:   2    -0.319393591301E+03   -0.61609E-01   -0.59909E-01 32456   0.183E+00    0.663E-01
DAV:   3    -0.319395300335E+03   -0.17090E-02   -0.14843E-02 35608   0.416E-01    0.782E-01
DAV:   4    -0.319394604072E+03    0.69626E-03   -0.27966E-03 35936   0.215E-01    0.214E-01
DAV:   5    -0.319394466624E+03    0.13745E-03   -0.32698E-04 33944   0.727E-02    0.161E-01
DAV:   6    -0.319394405591E+03    0.61034E-04   -0.31682E-04 40272   0.892E-02    0.191E-01
DAV:   7    -0.319394367625E+03    0.37966E-04   -0.27203E-04 36256   0.759E-02    0.113E-01
DAV:   8    -0.319394364828E+03    0.27972E-05   -0.99566E-05 34248   0.416E-02
  35 F= -.31939436E+03 E0= -.31939037E+03  d E =-.138180E-02  mag=    38.0000
       N       E                     dE             d eps       ncg     rms          rms(c)
DAV:   1    -0.318380782212E+03    0.10136E+01   -0.98873E+01 37488   0.365E+01    0.393E+00
DAV:   2    -0.319282126699E+03   -0.90134E+00   -0.89331E+00 33904   0.664E+00    0.274E+00
DAV:   3    -0.319310737161E+03   -0.28610E-01   -0.24230E-01 35136   0.157E+00    0.220E+00
DAV:   4    -0.319304878449E+03    0.58587E-02   -0.35595E-02 36448   0.823E-01    0.121E+00
DAV:   5    -0.319301817610E+03    0.30608E-02   -0.82240E-03 35752   0.375E-01    0.872E-01
DAV:   6    -0.319299457753E+03    0.23599E-02   -0.53083E-03 36152   0.356E-01    0.615E-01
DAV:   7    -0.319298728365E+03    0.72939E-03   -0.40183E-03 37848   0.301E-01    0.605E-01
DAV:   8    -0.319298431065E+03    0.29730E-03   -0.24075E-03 36712   0.199E-01    0.226E-01
DAV:   9    -0.319298419196E+03    0.11869E-04   -0.49128E-04 34208   0.910E-02    0.118E-01
DAV:  10    -0.319298398829E+03    0.20367E-04   -0.13112E-04 33400   0.491E-02    0.618E-02
DAV:  11    -0.319298379804E+03    0.19026E-04   -0.33541E-05 27176   0.272E-02    0.410E-02
DAV:  12    -0.319298368600E+03    0.11204E-04   -0.24455E-05 24616   0.231E-02    0.284E-02
DAV:  13    -0.319298362425E+03    0.61742E-05   -0.11690E-05 20416   0.138E-02
  36 F= -.31929836E+03 E0= -.31929419E+03  d E =0.960024E-01  mag=    38.0000
       N       E                     dE             d eps       ncg     rms          rms(c)
DAV:   1    -0.290197191811E+03    0.29101E+02   -0.88004E+02 40792   0.114E+02    0.343E+01
DAV:   2    -0.360900480628E+03   -0.70703E+02   -0.18432E+02 34648   0.404E+01    0.137E+02
DAV:   3    -0.336913212988E+03    0.23987E+02   -0.53046E+01 34952   0.187E+01    0.849E+01
DAV:   4    -0.324294707807E+03    0.12619E+02   -0.46009E+01 36736   0.376E+01    0.467E+01
DAV:   5    -0.318525630376E+03    0.57691E+01   -0.34099E+01 37136   0.118E+01    0.329E+01
DAV:   6    -0.314380550345E+03    0.41451E+01   -0.30820E+00 37664   0.667E+00    0.237E+01
DAV:   7    -0.313908813170E+03    0.47174E+00   -0.25065E+00 38024   0.381E+00    0.176E+01
DAV:   8    -0.313657839476E+03    0.25097E+00   -0.44124E+00 35944   0.229E+00    0.178E+01
DAV:   9    -0.313766726042E+03   -0.10889E+00   -0.86183E-01 34576   0.224E+00    0.141E+01
DAV:  10    -0.314079694798E+03   -0.31297E+00   -0.27638E-01 34232   0.887E-01    0.137E+01
DAV:  11    -0.313864230544E+03    0.21546E+00   -0.19581E-01 34904   0.704E-01    0.173E+01
DAV:  12    -0.314171824087E+03   -0.30759E+00   -0.59200E-02 33528   0.740E-01    0.151E+01
DAV:  13    -0.314880328882E+03   -0.70850E+00   -0.39542E-01 37360   0.188E+00    0.136E+01
DAV:  14    -0.314961596314E+03   -0.81267E-01   -0.64424E-02 34224   0.580E-01    0.138E+01
DAV:  15    -0.314953111318E+03    0.84850E-02   -0.10669E-02 37464   0.265E-01    0.135E+01
DAV:  16    -0.315134610905E+03   -0.18150E+00   -0.35081E-01 37208   0.172E+00    0.142E+01
DAV:  17    -0.315048758363E+03    0.85853E-01   -0.60737E-01 36368   0.101E+00    0.938E+00
DAV:  18    -0.315302762409E+03   -0.25400E+00   -0.98401E-02 33664   0.875E-01    0.107E+01
DAV:  19    -0.315338076956E+03   -0.35315E-01   -0.28427E-02 34704   0.331E-01    0.105E+01
DAV:  20    -0.315347772670E+03   -0.96957E-02   -0.47291E-03 34608   0.150E-01    0.105E+01
DAV:  21    -0.315285677623E+03    0.62095E-01   -0.19066E-02 35392   0.326E-01    0.960E+00
DAV:  22    -0.315270537102E+03    0.15141E-01   -0.33955E-03 34712   0.110E-01    0.951E+00
DAV:  23    -0.315332363330E+03   -0.61826E-01   -0.49256E-02 34832   0.523E-01    0.928E+00
DAV:  24    -0.315510430342E+03   -0.17807E+00   -0.20863E-01 35184   0.103E+00    0.144E+01
DAV:  25    -0.316516380300E+03   -0.10059E+01   -0.23267E+00 36128   0.106E+00    0.169E+01
DAV:  26    -0.316410048206E+03    0.10633E+00   -0.29195E-02 33648   0.361E-01    0.168E+01
DAV:  27    -0.315933805244E+03    0.47624E+00   -0.28520E-02 37536   0.479E-01    0.162E+01
DAV:  28    -0.315722972746E+03    0.21083E+00   -0.18415E-02 36512   0.246E-01    0.157E+01
DAV:  29    -0.315742819352E+03   -0.19847E-01   -0.25217E-03 33632   0.970E-02    0.158E+01
DAV:  30    -0.315759293854E+03   -0.16475E-01   -0.15983E-03 39304   0.119E-01    0.158E+01
DAV:  31    -0.315732305897E+03    0.26988E-01   -0.98841E-04 34760   0.553E-02    0.157E+01
DAV:  32    -0.315652282263E+03    0.80024E-01   -0.29057E-02 38720   0.136E-01    0.145E+01
DAV:  33    -0.315643818026E+03    0.84642E-02   -0.17311E-03 33056   0.794E-02    0.144E+01
DAV:  34    -0.315623486378E+03    0.20332E-01   -0.15392E-03 34000   0.739E-02    0.143E+01
DAV:  35    -0.315621205073E+03    0.22813E-02   -0.84991E-03 33712   0.820E-02    0.137E+01
DAV:  36    -0.315695410736E+03   -0.74206E-01   -0.23515E-02 35792   0.228E-01    0.139E+01
DAV:  37    -0.315688715496E+03    0.66952E-02   -0.19069E-03 32608   0.721E-02    0.139E+01
DAV:  38    -0.315714205529E+03   -0.25490E-01   -0.30170E-03 36256   0.861E-02    0.140E+01
DAV:  39    -0.315589894301E+03    0.12431E+00   -0.12693E-01 36312   0.278E-01    0.124E+01
DAV:  40    -0.315323025805E+03    0.26687E+00   -0.14848E-01 36024   0.513E-01    0.124E+01
DAV:  41    -0.315690770756E+03   -0.36774E+00   -0.37456E-01 34080   0.462E-01    0.159E+01
DAV:  42    -0.316514563436E+03   -0.82379E+00   -0.14683E-01 38656   0.767E-01    0.171E+01
DAV:  43    -0.316651646914E+03   -0.13708E+00   -0.17112E-01 35552   0.471E-01    0.177E+01
DAV:  44    -0.316701412508E+03   -0.49766E-01   -0.82119E-02 33576   0.398E-01    0.175E+01
DAV:  45    -0.316100563440E+03    0.60085E+00   -0.81670E-01 34832   0.105E+00    0.201E+01
DAV:  46    -0.316055379825E+03    0.45184E-01   -0.39561E-02 33944   0.297E-01    0.202E+01
DAV:  47    -0.290406941012E+03    0.25648E+02   -0.30115E+01 34152   0.506E+00    0.334E+01
DAV:  48    -0.290515054889E+03   -0.10811E+00   -0.11882E+00 34544   0.128E+00    0.348E+01
DAV:  49    -0.291316095015E+03   -0.80104E+00   -0.83007E-02 34920   0.353E-01    0.345E+01
DAV:  50    -0.291739324927E+03   -0.42323E+00   -0.91681E-02 35704   0.246E-01    0.341E+01
DAV:  51    -0.291793766127E+03   -0.54441E-01   -0.10925E-02 32784   0.929E-02    0.342E+01
DAV:  52    -0.292040514153E+03   -0.24675E+00   -0.13139E+00 34496   0.172E+00    0.329E+01
DAV:  53    -0.302654757632E+03   -0.10614E+02   -0.32302E+00 35448   0.137E+00    0.269E+01
DAV:  54    -0.308605247280E+03   -0.59505E+01   -0.26853E+00 35128   0.144E+00    0.296E+01
DAV:  55    -0.312326072300E+03   -0.37208E+01   -0.11322E+00 36648   0.980E-01    0.297E+01
DAV:  56    -0.312396160596E+03   -0.70088E-01   -0.41290E-02 35552   0.287E-01    0.299E+01
DAV:  57    -0.262709426917E+03    0.49687E+02   -0.73436E+01 34528   0.578E+00    0.579E+01
DAV:  58    -0.261914050271E+03    0.79538E+00   -0.25833E+00 34152   0.157E+00    0.578E+01
DAV:  59    -0.258206257235E+03    0.37078E+01   -0.83132E-01 36816   0.599E-01    0.585E+01
DAV:  60    -0.259556192345E+03   -0.13499E+01   -0.49129E-01 34664   0.526E-01    0.581E+01
DAV:  61    -0.261730315180E+03   -0.21741E+01   -0.27999E-01 35304   0.343E-01    0.577E+01
DAV:  62    -0.279608157722E+03   -0.17878E+02   -0.29810E+00 34640   0.136E+00    0.547E+01
DAV:  63    -0.279419566570E+03    0.18859E+00   -0.54704E-02 35160   0.270E-01    0.547E+01
DAV:  64    -0.282971276864E+03   -0.35517E+01   -0.26465E-01 34976   0.572E-01    0.535E+01
DAV:  65    -0.283100028379E+03   -0.12875E+00   -0.19243E-01 36112   0.525E-01    0.534E+01
DAV:  66    -0.282405114379E+03    0.69491E+00   -0.12661E-01 33624   0.335E-01    0.538E+01
DAV:  67    -0.289267491537E+03   -0.68624E+01   -0.15613E+00 37584   0.129E+00    0.483E+01
DAV:  68    -0.288081128994E+03    0.11864E+01   -0.20885E-01 34304   0.556E-01    0.487E+01
DAV:  69    -0.290088540781E+03   -0.20074E+01   -0.36212E-01 35792   0.842E-01    0.483E+01
DAV:  70    -0.285444022854E+03    0.46445E+01   -0.25298E+00 36080   0.177E+00    0.536E+01
DAV:  71    -0.285702592566E+03   -0.25857E+00   -0.87697E-01 34448   0.108E+00    0.545E+01
DAV:  72    -0.288515253923E+03   -0.28127E+01   -0.11085E+00 38856   0.227E+00    0.568E+01
DAV:  73    -0.289266590892E+03   -0.75134E+00   -0.20210E-01 34560   0.849E-01    0.566E+01
DAV:  74    -0.291706658746E+03   -0.24401E+01   -0.16769E-01 35200   0.660E-01    0.565E+01
DAV:  75    -0.294804538450E+03   -0.30979E+01   -0.77127E-01 35456   0.897E-01    0.631E+01
DAV:  76    -0.294983368947E+03   -0.17883E+00   -0.40167E-02 34232   0.338E-01    0.643E+01
DAV:  77    -0.317353258601E+03   -0.22370E+02   -0.16404E+01 36312   0.336E+00    0.513E+01
DAV:  78    -0.314087444241E+03    0.32658E+01   -0.15239E+00 34184   0.155E+00    0.517E+01
DAV:  79    -0.314444084804E+03   -0.35664E+00   -0.46804E-02 34936   0.324E-01    0.517E+01
DAV:  80    -0.312931890831E+03    0.15122E+01   -0.27057E-01 38008   0.337E-01    0.518E+01
DAV:  81    -0.310415371135E+03    0.25165E+01   -0.13469E-01 35672   0.484E-01    0.520E+01
DAV:  82    -0.310160490398E+03    0.25488E+00   -0.66878E+01 42776   0.104E+01    0.225E+01
DAV:  83    -0.313029906543E+03   -0.28694E+01   -0.83599E+00 35112   0.462E+00    0.176E+01
DAV:  84    -0.314428248616E+03   -0.13983E+01   -0.84578E-01 34608   0.170E+00    0.150E+01
DAV:  85    -0.315427136493E+03   -0.99889E+00   -0.60405E-01 34912   0.169E+00    0.134E+01
DAV:  86    -0.315501930396E+03   -0.74794E-01   -0.34468E-01 36392   0.173E+00    0.132E+01
DAV:  87    -0.314592684270E+03    0.90925E+00   -0.46116E-01 37056   0.201E+00    0.122E+01
DAV:  88    -0.315121380720E+03   -0.52870E+00   -0.34202E-01 36048   0.154E+00    0.175E+01
DAV:  89    -0.315260665630E+03   -0.13928E+00   -0.99836E-02 33504   0.610E-01    0.182E+01
DAV:  90    -0.315275871161E+03   -0.15206E-01   -0.36940E-03 35144   0.144E-01    0.182E+01
DAV:  91    -0.315283318842E+03   -0.74477E-02   -0.91724E-04 35104   0.535E-02    0.184E+01
DAV:  92    -0.317200987669E+03   -0.19177E+01   -0.22876E+00 38056   0.213E+00    0.272E+01
DAV:  93    -0.316758965108E+03    0.44202E+00   -0.11467E+00 34208   0.951E-01    0.287E+01
DAV:  94    -0.316698690980E+03    0.60274E-01   -0.27191E-01 36024   0.388E-01    0.286E+01
DAV:  95    -0.316856403308E+03   -0.15771E+00   -0.48918E-01 35592   0.785E-01    0.296E+01
DAV:  96    -0.316062477688E+03    0.79393E+00   -0.59006E-01 34896   0.682E-01    0.267E+01
DAV:  97    -0.315795984529E+03    0.26649E+00   -0.10316E+00 36376   0.210E+00    0.210E+01
DAV:  98    -0.316297002171E+03   -0.50102E+00   -0.33141E-01 34280   0.109E+00    0.273E+01
DAV:  99    -0.316551586466E+03   -0.25458E+00   -0.26419E-02 33288   0.368E-01    0.275E+01
DAV: 100    -0.316832007016E+03   -0.28042E+00   -0.24213E-02 36440   0.279E-01    0.280E+01
DAV: 101    -0.316824129932E+03    0.78771E-02   -0.63588E-03 33896   0.133E-01    0.278E+01
DAV: 102    -0.318501719473E+03   -0.16776E+01   -0.40747E-01 38040   0.127E+00    0.283E+01
DAV: 103    -0.317536927452E+03    0.96479E+00   -0.10878E-01 34152   0.885E-01    0.277E+01
DAV: 104    -0.317325250206E+03    0.21168E+00   -0.11972E-01 35528   0.504E-01    0.256E+01
DAV: 105    -0.317153239900E+03    0.17201E+00   -0.84756E-01 35136   0.513E-01    0.204E+01
DAV: 106    -0.317193865396E+03   -0.40625E-01   -0.98039E-02 33824   0.450E-01    0.196E+01
DAV: 107    -0.316161341772E+03    0.10325E+01   -0.24053E+00 38400   0.235E+00    0.231E+01
DAV: 108    -0.316809389142E+03   -0.64805E+00   -0.35385E-01 34464   0.148E+00    0.251E+01
DAV: 109    -0.316960739988E+03   -0.15135E+00   -0.30421E-02 34624   0.381E-01    0.268E+01
DAV: 110    -0.317228062549E+03   -0.26732E+00   -0.15431E-01 36400   0.453E-01    0.283E+01
DAV: 111    -0.317265584036E+03   -0.37521E-01   -0.20560E-01 36664   0.593E-01    0.310E+01
DAV: 112    -0.317498364236E+03   -0.23278E+00   -0.65897E-01 35464   0.102E+00    0.294E+01
DAV: 113    -0.318211166922E+03   -0.71280E+00   -0.14149E-01 36784   0.805E-01    0.298E+01
DAV: 114    -0.318991279660E+03   -0.78011E+00   -0.14599E-01 35224   0.459E-01    0.293E+01
DAV: 115    -0.318929660888E+03    0.61619E-01   -0.11316E-02 33504   0.175E-01    0.294E+01
DAV: 116    -0.319245236025E+03   -0.31558E+00   -0.29058E-02 35184   0.291E-01    0.291E+01
DAV: 117    -0.318012103071E+03    0.12331E+01   -0.75901E-01 36680   0.170E+00    0.267E+01
DAV: 118    -0.316958080684E+03    0.10540E+01   -0.22191E-01 35280   0.987E-01    0.261E+01
DAV: 119    -0.316634817225E+03    0.32326E+00   -0.47999E-02 35504   0.435E-01    0.258E+01
DAV: 120    -0.315553352307E+03    0.10815E+01   -0.64481E-02 39112   0.588E-01    0.254E+01
DAV: 121    -0.315494458127E+03    0.58894E-01   -0.13580E-02 34584   0.180E-01    0.253E+01
DAV: 122    -0.318330168698E+03   -0.28357E+01   -0.69439E-01 38112   0.191E+00    0.255E+01
DAV: 123    -0.317484292087E+03    0.84588E+00   -0.14775E-01 34256   0.820E-01    0.249E+01
DAV: 124    -0.315193206324E+03    0.22911E+01   -0.13462E-01 38944   0.105E+00    0.238E+01
DAV: 125    -0.313830632015E+03    0.13626E+01   -0.71380E-01 36384   0.711E-01    0.192E+01
DAV: 126    -0.313773325194E+03    0.57307E-01   -0.24727E-02 33728   0.317E-01    0.194E+01
DAV: 127    -0.313448593141E+03    0.32473E+00   -0.37572E-02 34608   0.349E-01    0.190E+01
DAV: 128    -0.313454885539E+03   -0.62924E-02   -0.25615E-03 34224   0.102E-01    0.190E+01
DAV: 129    -0.313390661360E+03    0.64224E-01   -0.63149E-02 40328   0.252E-01    0.185E+01
DAV: 130    -0.313359698679E+03    0.30963E-01   -0.95998E-03 35176   0.172E-01    0.182E+01
DAV: 131    -0.313734205118E+03   -0.37451E+00   -0.11007E-01 34272   0.454E-01    0.120E+01
DAV: 132    -0.314034013598E+03   -0.29981E+00   -0.26397E-01 36160   0.119E+00    0.102E+01
DAV: 133    -0.313742931673E+03    0.29108E+00   -0.82499E-02 33632   0.820E-01    0.103E+01
DAV: 134    -0.313580166228E+03    0.16277E+00   -0.13010E-01 37704   0.598E-01    0.102E+01
DAV: 135    -0.313535539660E+03    0.44627E-01   -0.98275E-02 38096   0.706E-01    0.991E+00
DAV: 136    -0.313557307204E+03   -0.21768E-01   -0.15766E-02 33480   0.217E-01    0.997E+00
DAV: 137    -0.313820654256E+03   -0.26335E+00   -0.15261E-01 39760   0.108E+00    0.111E+01
DAV: 138    -0.314100942963E+03   -0.28029E+00   -0.10001E-01 34512   0.737E-01    0.120E+01
DAV: 139    -0.313830866711E+03    0.27008E+00   -0.58700E-02 33832   0.312E-01    0.113E+01
DAV: 140    -0.313824584439E+03    0.62823E-02   -0.10560E-01 35168   0.470E-01    0.120E+01
DAV: 141    -0.313960908611E+03   -0.13632E+00   -0.91784E-02 36048   0.476E-01    0.115E+01
DAV: 142    -0.315709761987E+03   -0.17489E+01   -0.44801E+00 39328   0.354E+00    0.145E+01
DAV: 143    -0.314983614982E+03    0.72615E+00   -0.14422E+00 33920   0.141E+00    0.117E+01
DAV: 144    -0.315101739677E+03   -0.11812E+00   -0.61229E-02 34400   0.703E-01    0.122E+01
DAV: 145    -0.315022261073E+03    0.79479E-01   -0.25489E-02 34904   0.231E-01    0.124E+01
DAV: 146    -0.314953026605E+03    0.69234E-01   -0.26966E-03 36848   0.121E-01    0.124E+01
DAV: 147    -0.315164384305E+03   -0.21136E+00   -0.97083E+00 38208   0.128E+00    0.721E+00
DAV: 148    -0.315275716175E+03   -0.11133E+00   -0.11691E-01 33480   0.680E-01    0.768E+00
DAV: 149    -0.315381067424E+03   -0.10535E+00   -0.34751E-02 36640   0.636E-01    0.785E+00
DAV: 150    -0.315433392440E+03   -0.52325E-01   -0.27300E-02 35464   0.482E-01    0.768E+00
DAV: 151    -0.315599395348E+03   -0.16600E+00   -0.24355E-02 39632   0.582E-01    0.762E+00
DAV: 152    -0.316354448151E+03   -0.75505E+00   -0.25628E-01 40392   0.178E+00    0.786E+00
DAV: 153    -0.316622371322E+03   -0.26792E+00   -0.17837E-01 34848   0.852E-01    0.814E+00
DAV: 154    -0.316943614680E+03   -0.32124E+00   -0.25155E-02 41656   0.821E-01    0.847E+00
DAV: 155    -0.317172282880E+03   -0.22867E+00   -0.31327E-02 36096   0.605E-01    0.866E+00
DAV: 156    -0.317253474102E+03   -0.81191E-01   -0.21974E-02 37096   0.406E-01    0.871E+00
DAV: 157    -0.317891294474E+03   -0.63782E+00   -0.34796E-02 44832   0.132E+00    0.900E+00
DAV: 158    -0.317710794922E+03    0.18050E+00   -0.46603E-02 34536   0.543E-01    0.865E+00
DAV: 159    -0.317259086892E+03    0.45171E+00   -0.25867E-02 41080   0.961E-01    0.796E+00
DAV: 160    -0.316810515097E+03    0.44857E+00   -0.87528E-02 38656   0.114E+00    0.721E+00
DAV: 161    -0.316666711549E+03    0.14380E+00   -0.64647E-02 35904   0.572E-01    0.683E+00
DAV: 162    -0.316613282353E+03    0.53429E-01   -0.61814E-03 36848   0.261E-01    0.671E+00
DAV: 163    -0.316667250332E+03   -0.53968E-01   -0.28843E-03 34728   0.246E-01    0.684E+00
DAV: 164    -0.316637379405E+03    0.29871E-01   -0.65797E-04 34312   0.133E-01    0.681E+00
DAV: 165    -0.316382201688E+03    0.25518E+00   -0.12220E-02 44608   0.750E-01    0.636E+00
DAV: 166    -0.315850915769E+03    0.53129E+00   -0.12398E-01 41736   0.166E+00    0.517E+00
DAV: 167    -0.315350037986E+03    0.50088E+00   -0.33899E-01 38896   0.194E+00    0.351E+00
DAV: 168    -0.315476230027E+03   -0.12619E+00   -0.98272E-02 34400   0.681E-01    0.387E+00
DAV: 169    -0.315418536009E+03    0.57694E-01   -0.98778E-03 34888   0.268E-01    0.370E+00
DAV: 170    -0.315390902716E+03    0.27633E-01   -0.49639E-03 38312   0.205E-01    0.367E+00
DAV: 171    -0.315348672144E+03    0.42231E-01   -0.41531E-03 37848   0.225E-01    0.355E+00
DAV: 172    -0.315498729276E+03   -0.15006E+00   -0.16094E-01 38464   0.141E+00    0.144E+01
DAV: 173    -0.315323343420E+03    0.17539E+00   -0.85951E-02 33320   0.545E-01    0.117E+01
DAV: 174    -0.315394012463E+03   -0.70669E-01   -0.11232E-02 33896   0.244E-01    0.126E+01
DAV: 175    -0.315411124706E+03   -0.17112E-01   -0.26241E-03 34464   0.105E-01    0.130E+01
DAV: 176    -0.315317928686E+03    0.93196E-01   -0.18166E-02 37024   0.312E-01    0.121E+01
DAV: 177    -0.315175530529E+03    0.14240E+00   -0.34613E+00 37192   0.697E-01    0.397E+00
DAV: 178    -0.315280256680E+03   -0.10473E+00   -0.75794E-02 34688   0.608E-01    0.428E+00
DAV: 179    -0.315382836540E+03   -0.10258E+00   -0.40918E-02 38600   0.587E-01    0.480E+00
DAV: 180    -0.315402764186E+03   -0.19928E-01   -0.21452E-02 35224   0.270E-01    0.501E+00
DAV: 181    -0.315431616885E+03   -0.28853E-01   -0.37794E-03 41104   0.213E-01    0.516E+00
DAV: 182    -0.315443399613E+03   -0.11783E-01   -0.28429E-03 33960   0.144E-01    0.510E+00
DAV: 183    -0.315521638184E+03   -0.78239E-01   -0.50727E-03 38608   0.290E-01    0.525E+00
DAV: 184    -0.315799012268E+03   -0.27737E+00   -0.54683E-02 38632   0.798E-01    0.588E+00
DAV: 185    -0.315955328362E+03   -0.15632E+00   -0.44426E-02 35544   0.493E-01    0.618E+00
DAV: 186    -0.316169992485E+03   -0.21466E+00   -0.23622E-02 41248   0.581E-01    0.658E+00
DAV: 187    -0.316202885860E+03   -0.32893E-01   -0.11088E-02 35024   0.215E-01    0.655E+00
DAV: 188    -0.316523641395E+03   -0.32076E+00   -0.21745E-02 41744   0.803E-01    0.699E+00
DAV: 189    -0.316701284259E+03   -0.17764E+00   -0.30114E-02 35368   0.518E-01    0.725E+00
DAV: 190    -0.316643301305E+03    0.57983E-01   -0.68150E-03 34824   0.214E-01    0.724E+00
DAV: 191    -0.316573570549E+03    0.69731E-01   -0.34337E-03 38560   0.187E-01    0.716E+00
DAV: 192    -0.316407575769E+03    0.16599E+00   -0.13564E-02 43824   0.454E-01    0.696E+00
DAV: 193    -0.316301463615E+03    0.10611E+00   -0.15210E-02 35136   0.309E-01    0.687E+00
DAV: 194    -0.316225473791E+03    0.75990E-01   -0.18806E-03 39536   0.199E-01    0.683E+00
DAV: 195    -0.316135580221E+03    0.89894E-01   -0.46739E-03 37712   0.221E-01    0.681E+00
DAV: 196    -0.316061736319E+03    0.73844E-01   -0.35377E-03 36408   0.174E-01    0.684E+00
DAV: 197    -0.315989177067E+03    0.72559E-01   -0.20410E-03 38672   0.167E-01    0.685E+00
DAV: 198    -0.315971074037E+03    0.18103E-01   -0.11421E-03 34120   0.590E-02    0.690E+00
DAV: 199    -0.315983696716E+03   -0.12623E-01   -0.91709E-05 31016   0.263E-02    0.687E+00
DAV: 200    -0.316010458886E+03   -0.26762E-01   -0.52441E-04 35624   0.467E-02
  37 F= -.31601046E+03 E0= -.31600741E+03  d E =0.328790E+01  mag=    39.0410
       N       E                     dE             d eps       ncg     rms          rms(c)
DAV:   1    -0.313175695307E+03    0.28080E+01   -0.28708E+02 39664   0.613E+01    0.188E+01
DAV:   2    -0.319388946843E+03   -0.62133E+01   -0.60732E+01 35296   0.174E+01    0.261E+01
DAV:   3    -0.318792857426E+03    0.59609E+00   -0.75713E+00 34224   0.107E+01    0.144E+01
DAV:   4    -0.318741846770E+03    0.51011E-01   -0.50100E-01 34960   0.230E+00    0.964E+00
DAV:   5    -0.318756835929E+03   -0.14989E-01   -0.37850E-01 37168   0.289E+00    0.102E+01
DAV:   6    -0.318676895977E+03    0.79940E-01   -0.62194E-01 36864   0.377E+00    0.647E+00
DAV:   7    -0.318656233831E+03    0.20662E-01   -0.22496E-01 36568   0.221E+00    0.370E+00
DAV:   8    -0.318641154499E+03    0.15079E-01   -0.60768E-02 34920   0.124E+00    0.213E+00
DAV:   9    -0.318635056734E+03    0.60978E-02   -0.20557E-02 35784   0.656E-01    0.672E-01
DAV:  10    -0.318635487222E+03   -0.43049E-03   -0.44082E-03 33400   0.276E-01    0.468E-01
DAV:  11    -0.318635170981E+03    0.31624E-03   -0.14269E-03 34288   0.170E-01    0.284E-01
DAV:  12    -0.318634711906E+03    0.45907E-03   -0.63666E-04 34272   0.110E-01    0.205E-01
DAV:  13    -0.318634275382E+03    0.43652E-03   -0.47814E-04 33856   0.935E-02    0.126E-01
DAV:  14    -0.318634007224E+03    0.26816E-03   -0.20048E-04 34192   0.517E-02    0.897E-02
DAV:  15    -0.318633893730E+03    0.11349E-03   -0.89132E-05 32608   0.368E-02    0.719E-02
DAV:  16    -0.318633811561E+03    0.82168E-04   -0.61945E-05 30656   0.291E-02    0.431E-02
DAV:  17    -0.318633740671E+03    0.70890E-04   -0.55137E-05 29888   0.224E-02    0.375E-02
DAV:  18    -0.318633715454E+03    0.25217E-04   -0.24777E-05 27792   0.177E-02    0.246E-02
DAV:  19    -0.318633707532E+03    0.79215E-05   -0.10668E-05 20696   0.108E-02
  38 F= -.31863371E+03 E0= -.31863054E+03  d E =-.262325E+01  mag=    38.0049
       N       E                     dE             d eps       ncg     rms          rms(c)
DAV:   1    -0.318149854950E+03    0.48386E+00   -0.37311E+01 45400   0.293E+01    0.475E+00
DAV:   2    -0.319056328142E+03   -0.90647E+00   -0.90346E+00 35024   0.537E+00    0.503E+00
DAV:   3    -0.319102076041E+03   -0.45748E-01   -0.54024E-01 34728   0.249E+00    0.400E+00
DAV:   4    -0.319086371639E+03    0.15704E-01   -0.70889E-02 35664   0.118E+00    0.158E+00
DAV:   5    -0.319084403763E+03    0.19679E-02   -0.13712E-02 37304   0.527E-01    0.135E+00
DAV:   6    -0.319080521284E+03    0.38825E-02   -0.12266E-02 35104   0.532E-01    0.104E+00
DAV:   7    -0.319079919958E+03    0.60133E-03   -0.99145E-03 36440   0.454E-01    0.100E+00
DAV:   8    -0.319078761493E+03    0.11585E-02   -0.46135E-03 35504   0.335E-01    0.415E-01
DAV:   9    -0.319078640658E+03    0.12083E-03   -0.10031E-03 34880   0.149E-01    0.172E-01
DAV:  10    -0.319078585970E+03    0.54688E-04   -0.25219E-04 35288   0.717E-02    0.786E-02
DAV:  11    -0.319078557623E+03    0.28347E-04   -0.68827E-05 32648   0.372E-02    0.698E-02
DAV:  12    -0.319078532463E+03    0.25160E-04   -0.43141E-05 28824   0.314E-02    0.440E-02
DAV:  13    -0.319078512016E+03    0.20447E-04   -0.24973E-05 25904   0.206E-02    0.258E-02
DAV:  14    -0.319078503678E+03    0.83378E-05   -0.10705E-05 22384   0.132E-02
  39 F= -.31907850E+03 E0= -.31907466E+03  d E =-.444796E+00  mag=    38.0004
       N       E                     dE             d eps       ncg     rms          rms(c)
DAV:   1    -0.318821614994E+03    0.25690E+00   -0.21319E+01 43824   0.205E+01    0.307E+00
DAV:   2    -0.319222065203E+03   -0.40045E+00   -0.39733E+00 35048   0.344E+00    0.219E+00
DAV:   3    -0.319250024676E+03   -0.27959E-01   -0.18156E-01 34192   0.135E+00    0.233E+00
DAV:   4    -0.319243012301E+03    0.70124E-02   -0.29256E-02 35728   0.724E-01    0.752E-01
DAV:   5    -0.319241879206E+03    0.11331E-02   -0.40772E-03 36712   0.279E-01    0.570E-01
DAV:   6    -0.319240374956E+03    0.15042E-02   -0.30894E-03 35616   0.255E-01    0.453E-01
DAV:   7    -0.319239906547E+03    0.46841E-03   -0.21195E-03 35976   0.206E-01    0.405E-01
DAV:   8    -0.319239649971E+03    0.25658E-03   -0.10299E-03 36280   0.151E-01    0.177E-01
DAV:   9    -0.319239586291E+03    0.63680E-04   -0.26899E-04 33408   0.713E-02    0.964E-02
DAV:  10    -0.319239556907E+03    0.29384E-04   -0.85901E-05 32976   0.388E-02    0.463E-02
DAV:  11    -0.319239532749E+03    0.24158E-04   -0.26504E-05 25280   0.212E-02    0.355E-02
DAV:  12    -0.319239516991E+03    0.15758E-04   -0.19026E-05 25056   0.191E-02    0.308E-02
DAV:  13    -0.319239508275E+03    0.87160E-05   -0.10270E-05 20912   0.127E-02
  40 F= -.31923951E+03 E0= -.31923532E+03  d E =-.161005E+00  mag=    38.0000
       N       E                     dE             d eps       ncg     rms          rms(c)
DAV:   1    -0.319217720564E+03    0.21796E-01   -0.82786E+00 40088   0.921E+00    0.131E+00
DAV:   2    -0.319295276898E+03   -0.77556E-01   -0.76988E-01 34856   0.165E+00    0.104E+00
DAV:   3    -0.319299239627E+03   -0.39627E-02   -0.31170E-02 34104   0.610E-01    0.103E+00
DAV:   4    -0.319298009940E+03    0.12297E-02   -0.50159E-03 36248   0.322E-01    0.468E-01
DAV:   5    -0.319297891306E+03    0.11863E-03   -0.19887E-03 37288   0.190E-01    0.560E-01
DAV:   6    -0.319297332717E+03    0.55859E-03   -0.18795E-03 35296   0.198E-01    0.222E-01
DAV:   7    -0.319297337432E+03   -0.47150E-05   -0.40826E-04 36128   0.863E-02    0.122E-01
DAV:   8    -0.319297328332E+03    0.90993E-05   -0.22480E-04 33688   0.609E-02    0.817E-02
DAV:   9    -0.319297312780E+03    0.15553E-04   -0.31101E-05 27416   0.300E-02    0.324E-02
DAV:  10    -0.319297310248E+03    0.25319E-05   -0.18909E-05 24880   0.181E-02
  41 F= -.31929731E+03 E0= -.31929307E+03  d E =-.578020E-01  mag=    38.0000
       N       E                     dE             d eps       ncg     rms          rms(c)
DAV:   1    -0.319235176005E+03    0.62137E-01   -0.40298E+01 34368   0.125E+01    0.251E+00
DAV:   2    -0.319377741765E+03   -0.14257E+00   -0.14059E+00 35168   0.252E+00    0.261E+00
DAV:   3    -0.319373206820E+03    0.45349E-02   -0.80394E-02 34408   0.117E+00    0.179E+00
DAV:   4    -0.319369719932E+03    0.34869E-02   -0.13338E-02 35560   0.524E-01    0.100E+00
DAV:   5    -0.319370901899E+03   -0.11820E-02   -0.10542E-02 36664   0.495E-01    0.143E+00
DAV:   6    -0.319368636514E+03    0.22654E-02   -0.67157E-03 34728   0.387E-01    0.385E-01
DAV:   7    -0.319368983078E+03   -0.34656E-03   -0.13654E-03 36128   0.186E-01    0.379E-01
DAV:   8    -0.319368859421E+03    0.12366E-03   -0.52201E-04 34744   0.108E-01    0.174E-01
DAV:   9    -0.319368825489E+03    0.33932E-04   -0.10417E-04 31360   0.500E-02    0.102E-01
DAV:  10    -0.319368806161E+03    0.19328E-04   -0.46758E-05 27592   0.315E-02    0.536E-02
DAV:  11    -0.319368798027E+03    0.81334E-05   -0.24047E-05 25248   0.210E-02
  42 F= -.31936880E+03 E0= -.31936463E+03  d E =-.714878E-01  mag=    38.0000
       N       E                     dE             d eps       ncg     rms          rms(c)
DAV:   1    -0.319311006083E+03    0.57800E-01   -0.94039E+00 37080   0.834E+00    0.131E+00
DAV:   2    -0.319389229940E+03   -0.78224E-01   -0.78492E-01 35112   0.158E+00    0.107E+00
DAV:   3    -0.319392036114E+03   -0.28062E-02   -0.32248E-02 34232   0.560E-01    0.987E-01
DAV:   4    -0.319390906266E+03    0.11298E-02   -0.45790E-03 36624   0.285E-01    0.484E-01
DAV:   5    -0.319390734687E+03    0.17158E-03   -0.21365E-03 36832   0.193E-01    0.582E-01
DAV:   6    -0.319390231282E+03    0.50340E-03   -0.18932E-03 35864   0.208E-01    0.256E-01
DAV:   7    -0.319390236841E+03   -0.55590E-05   -0.46858E-04 35456   0.924E-02    0.112E-01
DAV:   8    -0.319390235031E+03    0.18097E-05   -0.17119E-04 33280   0.573E-02    0.103E-01
DAV:   9    -0.319390219873E+03    0.15158E-04   -0.45213E-05 27720   0.334E-02    0.531E-02
DAV:  10    -0.319390215750E+03    0.41230E-05   -0.15303E-05 25000   0.186E-02
  43 F= -.31939022E+03 E0= -.31938620E+03  d E =-.214177E-01  mag=    38.0000
       N       E                     dE             d eps       ncg     rms          rms(c)
DAV:   1    -0.319385416185E+03    0.48037E-02   -0.67238E-01 38200   0.321E+00    0.366E-01
DAV:   2    -0.319392803721E+03   -0.73875E-02   -0.74833E-02 34144   0.586E-01    0.248E-01
DAV:   3    -0.319393149010E+03   -0.34529E-03   -0.27434E-03 34864   0.161E-01    0.287E-01
DAV:   4    -0.319393050484E+03    0.98526E-04   -0.39792E-04 35536   0.838E-02    0.113E-01
DAV:   5    -0.319393011631E+03    0.38853E-04   -0.90802E-05 32376   0.411E-02    0.827E-02
DAV:   6    -0.319392977311E+03    0.34320E-04   -0.83890E-05 33560   0.429E-02    0.664E-02
DAV:   7    -0.319392967056E+03    0.10255E-04   -0.40364E-05 29408   0.304E-02    0.371E-02
DAV:   8    -0.319392966691E+03    0.36419E-06   -0.19669E-05 25544   0.185E-02
  44 F= -.31939297E+03 E0= -.31938899E+03  d E =-.275094E-02  mag=    38.0000
       N       E                     dE             d eps       ncg     rms          rms(c)
DAV:   1    -0.319379125326E+03    0.13842E-01   -0.27083E+00 36616   0.539E+00    0.530E-01
DAV:   2    -0.319395999460E+03   -0.16874E-01   -0.17002E-01 33704   0.987E-01    0.464E-01
DAV:   3    -0.319396522628E+03   -0.52317E-03   -0.48829E-03 36472   0.264E-01    0.545E-01
DAV:   4    -0.319396184710E+03    0.33792E-03   -0.10624E-03 35952   0.147E-01    0.186E-01
DAV:   5    -0.319396131377E+03    0.53334E-04   -0.26115E-04 36416   0.764E-02    0.164E-01
DAV:   6    -0.319396070017E+03    0.61360E-04   -0.26370E-04 35536   0.773E-02    0.111E-01
DAV:   7    -0.319396070028E+03   -0.11605E-07   -0.13777E-04 35200   0.479E-02    0.930E-02
DAV:   8    -0.319396060790E+03    0.92381E-05   -0.46420E-05 28192   0.300E-02
  45 F= -.31939606E+03 E0= -.31939215E+03  d E =-.309410E-02  mag=    38.0000
       N       E                     dE             d eps       ncg     rms          rms(c)
DAV:   1    -0.319269544837E+03    0.12653E+00   -0.15639E+01 36432   0.135E+01    0.134E+00
DAV:   2    -0.319386059600E+03   -0.11651E+00   -0.11726E+00 33432   0.251E+00    0.117E+00
DAV:   3    -0.319390062050E+03   -0.40025E-02   -0.34907E-02 35792   0.654E-01    0.138E+00
DAV:   4    -0.319387793158E+03    0.22689E-02   -0.68974E-03 36296   0.368E-01    0.406E-01
DAV:   5    -0.319387373863E+03    0.41930E-03   -0.12591E-03 35408   0.157E-01    0.306E-01
DAV:   6    -0.319387087970E+03    0.28589E-03   -0.10328E-03 37456   0.160E-01    0.242E-01
DAV:   7    -0.319387058507E+03    0.29464E-04   -0.61049E-04 37368   0.109E-01    0.170E-01
DAV:   8    -0.319387046583E+03    0.11923E-04   -0.24892E-04 35112   0.616E-02    0.881E-02
DAV:   9    -0.319387042620E+03    0.39637E-05   -0.36854E-05 27704   0.280E-02
  46 F= -.31938704E+03 E0= -.31938318E+03  d E =0.901817E-02  mag=    38.0000
       N       E                     dE             d eps       ncg     rms          rms(c)
DAV:   1    -0.271494042102E+03    0.47893E+02   -0.12962E+03 38608   0.133E+02    0.433E+01
DAV:   2    -0.351882663315E+03   -0.80389E+02   -0.27520E+02 35240   0.444E+01    0.159E+02
DAV:   3    -0.336192926248E+03    0.15690E+02   -0.69330E+01 34928   0.193E+01    0.104E+02
DAV:   4    -0.327834428653E+03    0.83585E+01   -0.71345E+01 36064   0.414E+01    0.634E+01
DAV:   5    -0.314918935054E+03    0.12915E+02   -0.11453E+01 37816   0.128E+01    0.356E+01
DAV:   6    -0.309852975950E+03    0.50660E+01   -0.85464E+00 36928   0.857E+00    0.209E+01
DAV:   7    -0.309706182990E+03    0.14679E+00   -0.20197E+00 38112   0.563E+00    0.164E+01
DAV:   8    -0.309578448013E+03    0.12773E+00   -0.15271E+00 36720   0.330E+00    0.193E+01
DAV:   9    -0.309387244271E+03    0.19120E+00   -0.42417E-01 33960   0.223E+00    0.135E+01
DAV:  10    -0.309827491041E+03   -0.44025E+00   -0.14317E+00 35072   0.286E+00    0.233E+01
DAV:  11    -0.309627290398E+03    0.20020E+00   -0.28141E-01 34568   0.171E+00    0.189E+01
DAV:  12    -0.309919685887E+03   -0.29240E+00   -0.43232E+00 40176   0.144E+00    0.175E+01
DAV:  13    -0.310114161109E+03   -0.19448E+00   -0.39049E-01 34992   0.129E+00    0.160E+01
DAV:  14    -0.310156829409E+03   -0.42668E-01   -0.49858E-02 35040   0.574E-01    0.162E+01
DAV:  15    -0.310206408952E+03   -0.49580E-01   -0.15380E-02 36944   0.305E-01    0.164E+01
DAV:  16    -0.310549660694E+03   -0.34325E+00   -0.18838E-01 36304   0.105E+00    0.188E+01
DAV:  17    -0.310682466415E+03   -0.13281E+00   -0.17393E-01 35424   0.701E-01    0.200E+01
DAV:  18    -0.310337108209E+03    0.34536E+00   -0.44458E-01 36344   0.107E+00    0.155E+01
DAV:  19    -0.310331656719E+03    0.54515E-02   -0.47790E-01 35712   0.186E+00    0.131E+01
DAV:  20    -0.310588894005E+03   -0.25724E+00   -0.18434E-01 35072   0.147E+00    0.133E+01
DAV:  21    -0.310741027074E+03   -0.15213E+00   -0.10588E-01 35304   0.764E-01    0.137E+01
DAV:  22    -0.310688097098E+03    0.52930E-01   -0.10196E-01 37576   0.915E-01    0.113E+01
DAV:  23    -0.310660630657E+03    0.27466E-01   -0.70765E-02 37336   0.736E-01    0.102E+01
DAV:  24    -0.310673968333E+03   -0.13338E-01   -0.19778E-02 34200   0.484E-01    0.920E+00
DAV:  25    -0.310683792140E+03   -0.98238E-02   -0.56050E-03 36064   0.215E-01    0.898E+00
DAV:  26    -0.310681202318E+03    0.25898E-02   -0.84400E-04 33432   0.730E-02    0.902E+00
DAV:  27    -0.310697079270E+03   -0.15877E-01   -0.22722E-03 37864   0.174E-01    0.874E+00
DAV:  28    -0.310739617502E+03   -0.42538E-01   -0.13430E-02 36912   0.400E-01    0.748E+00
DAV:  29    -0.310762139032E+03   -0.22522E-01   -0.15694E-02 35424   0.382E-01    0.631E+00
DAV:  30    -0.310746873156E+03    0.15266E-01   -0.60304E-03 34888   0.235E-01    0.583E+00
DAV:  31    -0.310744229609E+03    0.26435E-02   -0.95413E-04 34208   0.788E-02    0.577E+00
DAV:  32    -0.310740007734E+03    0.42219E-02   -0.58974E-04 35392   0.759E-02    0.589E+00
DAV:  33    -0.310742768848E+03   -0.27611E-02   -0.17735E-04 32672   0.434E-02    0.577E+00
DAV:  34    -0.310749374344E+03   -0.66055E-02   -0.67209E-03 38352   0.261E-01    0.476E+00
DAV:  35    -0.310754766853E+03   -0.53925E-02   -0.96512E-03 36872   0.251E-01    0.390E+00
DAV:  36    -0.310758740407E+03   -0.39736E-02   -0.24519E-03 35320   0.121E-01    0.361E+00
DAV:  37    -0.310760439760E+03   -0.16994E-02   -0.42625E-04 35152   0.441E-02    0.343E+00
DAV:  38    -0.310759757514E+03    0.68225E-03   -0.83816E-04 36776   0.843E-02    0.315E+00
DAV:  39    -0.310756239910E+03    0.35176E-02   -0.11094E-02 39008   0.253E-01    0.230E+00
DAV:  40    -0.310756319337E+03   -0.79427E-04   -0.19529E-03 34424   0.100E-01    0.213E+00
DAV:  41    -0.310755309252E+03    0.10101E-02   -0.86099E-04 35864   0.517E-02    0.216E+00
DAV:  42    -0.310754777245E+03    0.53201E-03   -0.21507E-04 33184   0.467E-02    0.205E+00
DAV:  43    -0.310754696599E+03    0.80646E-04   -0.42126E-05 29288   0.159E-02    0.203E+00
DAV:  44    -0.310752574103E+03    0.21225E-02   -0.52306E-04 34712   0.575E-02    0.174E+00
DAV:  45    -0.310747711037E+03    0.48631E-02   -0.18936E-03 37000   0.157E-01    0.115E+00
DAV:  46    -0.310744106802E+03    0.36042E-02   -0.16401E-03 39664   0.113E-01    0.883E-01
DAV:  47    -0.310740101622E+03    0.40052E-02   -0.18529E-03 37992   0.158E-01    0.956E-01
DAV:  48    -0.310739419928E+03    0.68169E-03   -0.10508E-03 35976   0.721E-02    0.686E-01
DAV:  49    -0.310739135667E+03    0.28426E-03   -0.21025E-04 36720   0.429E-02    0.577E-01
DAV:  50    -0.310738881621E+03    0.25405E-03   -0.43460E-04 36848   0.611E-02    0.435E-01
DAV:  51    -0.310739118065E+03   -0.23644E-03   -0.51603E-04 33736   0.490E-02    0.339E-01
DAV:  52    -0.310738979456E+03    0.13861E-03   -0.23234E-04 32184   0.357E-02    0.382E-01
DAV:  53    -0.310738583286E+03    0.39617E-03   -0.34163E-04 32352   0.361E-02    0.324E-01
DAV:  54    -0.310738334882E+03    0.24840E-03   -0.23400E-04 31584   0.309E-02    0.396E-01
DAV:  55    -0.310738466098E+03   -0.13122E-03   -0.42383E-05 26536   0.148E-02    0.424E-01
DAV:  56    -0.310738459995E+03    0.61027E-05   -0.57333E-06 20784   0.526E-03
  47 F= -.31073846E+03 E0= -.31072936E+03  d E =0.864858E+01  mag=    37.9724
       N       E                     dE             d eps       ncg     rms          rms(c)
DAV:   1    -0.302956142036E+03    0.77823E+01   -0.79894E+02 40248   0.855E+01    0.400E+01
DAV:   2    -0.367045533711E+03   -0.64089E+02   -0.20291E+02 36120   0.360E+01    0.944E+01
DAV:   3    -0.316185119449E+03    0.50860E+02   -0.68773E+01 35456   0.306E+01    0.402E+01
DAV:   4    -0.318060841210E+03   -0.18757E+01   -0.63911E+00 35584   0.764E+00    0.324E+01
DAV:   5    -0.317982486744E+03    0.78354E-01   -0.10872E+00 35768   0.464E+00    0.305E+01
DAV:   6    -0.317828876920E+03    0.15361E+00   -0.10090E+00 36048   0.454E+00    0.224E+01
DAV:   7    -0.318018679347E+03   -0.18980E+00   -0.52314E-01 35056   0.328E+00    0.170E+01
DAV:   8    -0.318189503909E+03   -0.17082E+00   -0.22142E-01 34008   0.189E+00    0.153E+01
DAV:   9    -0.318189799369E+03   -0.29546E-03   -0.34533E-01 35520   0.232E+00    0.121E+01
DAV:  10    -0.318207961655E+03   -0.18162E-01   -0.90918E-02 34824   0.128E+00    0.901E+00
DAV:  11    -0.318239703081E+03   -0.31741E-01   -0.17110E-02 36792   0.441E-01    0.778E+00
DAV:  12    -0.318290552199E+03   -0.50849E-01   -0.17964E-02 36896   0.697E-01    0.486E+00
DAV:  13    -0.318285796480E+03    0.47557E-02   -0.28877E-02 37360   0.797E-01    0.388E+00
DAV:  14    -0.318289474514E+03   -0.36780E-02   -0.95334E-03 36392   0.513E-01    0.263E+00
DAV:  15    -0.318290159388E+03   -0.68487E-03   -0.71586E-03 37432   0.395E-01    0.188E+00
DAV:  16    -0.318288792903E+03    0.13665E-02   -0.71066E-03 36592   0.330E-01    0.137E+00
DAV:  17    -0.318289142787E+03   -0.34988E-03   -0.21608E-03 36464   0.174E-01    0.110E+00
DAV:  18    -0.318289239572E+03   -0.96786E-04   -0.51104E-04 36456   0.986E-02    0.921E-01
DAV:  19    -0.318289693688E+03   -0.45412E-03   -0.52229E-04 37952   0.117E-01    0.421E-01
DAV:  20    -0.318289097246E+03    0.59644E-03   -0.66383E-04 37200   0.120E-01    0.233E-01
DAV:  21    -0.318288827611E+03    0.26963E-03   -0.33286E-04 34264   0.664E-02    0.125E-01
DAV:  22    -0.318288487604E+03    0.34001E-03   -0.18431E-04 32896   0.446E-02    0.100E-01
DAV:  23    -0.318288230462E+03    0.25714E-03   -0.17928E-04 33504   0.428E-02    0.755E-02
DAV:  24    -0.318288129455E+03    0.10101E-03   -0.10070E-04 31136   0.328E-02    0.637E-02
DAV:  25    -0.318288111441E+03    0.18014E-04   -0.30861E-05 29032   0.190E-02    0.275E-02
DAV:  26    -0.318288103058E+03    0.83831E-05   -0.11239E-05 21616   0.116E-02
  48 F= -.31828810E+03 E0= -.31828331E+03  d E =-.754964E+01  mag=    37.9965
       N       E                     dE             d eps       ncg     rms          rms(c)
DAV:   1    -0.318322874817E+03   -0.34763E-01   -0.16031E+01 45688   0.195E+01    0.318E+00
DAV:   2    -0.318691070398E+03   -0.36820E+00   -0.36438E+00 35096   0.349E+00    0.295E+00
DAV:   3    -0.318710194209E+03   -0.19124E-01   -0.17850E-01 34872   0.149E+00    0.253E+00
DAV:   4    -0.318705252531E+03    0.49417E-02   -0.25588E-02 36120   0.701E-01    0.108E+00
DAV:   5    -0.318705553347E+03   -0.30082E-03   -0.12560E-02 35704   0.467E-01    0.150E+00
DAV:   6    -0.318702472983E+03    0.30804E-02   -0.12252E-02 37768   0.485E-01    0.650E-01
DAV:   7    -0.318702847352E+03   -0.37437E-03   -0.48884E-03 36256   0.294E-01    0.661E-01
DAV:   8    -0.318702360285E+03    0.48707E-03   -0.21609E-03 35536   0.212E-01    0.214E-01
DAV:   9    -0.318702357176E+03    0.31089E-05   -0.28479E-04 33800   0.843E-02    0.126E-01
DAV:  10    -0.318702325641E+03    0.31535E-04   -0.11763E-04 34048   0.499E-02    0.512E-02
DAV:  11    -0.318702315303E+03    0.10338E-04   -0.31739E-05 27272   0.287E-02    0.559E-02
DAV:  12    -0.318702305574E+03    0.97295E-05   -0.19708E-05 26344   0.210E-02
  49 F= -.31870231E+03 E0= -.31869758E+03  d E =-.414203E+00  mag=    37.9996
       N       E                     dE             d eps       ncg     rms          rms(c)
DAV:   1    -0.317634127360E+03    0.10682E+01   -0.61970E+01 45528   0.375E+01    0.620E+00
DAV:   2    -0.319082895753E+03   -0.14488E+01   -0.14224E+01 34760   0.662E+00    0.630E+00
DAV:   3    -0.319151040984E+03   -0.68145E-01   -0.75297E-01 34632   0.308E+00    0.439E+00
DAV:   4    -0.319135071528E+03    0.15969E-01   -0.11217E-01 35824   0.145E+00    0.169E+00
DAV:   5    -0.319132219533E+03    0.28520E-02   -0.24148E-02 36056   0.607E-01    0.151E+00
DAV:   6    -0.319127026809E+03    0.51927E-02   -0.11353E-02 36760   0.494E-01    0.867E-01
DAV:   7    -0.319125836910E+03    0.11899E-02   -0.95289E-03 36312   0.460E-01    0.110E+00
DAV:   8    -0.319124258420E+03    0.15785E-02   -0.70022E-03 36248   0.376E-01    0.431E-01
DAV:   9    -0.319124205981E+03    0.52440E-04   -0.13936E-03 34616   0.167E-01    0.268E-01
DAV:  10    -0.319124101306E+03    0.10467E-03   -0.54932E-04 34920   0.102E-01    0.102E-01
DAV:  11    -0.319124064351E+03    0.36955E-04   -0.10794E-04 33144   0.490E-02    0.927E-02
DAV:  12    -0.319124027512E+03    0.36838E-04   -0.55941E-05 31440   0.357E-02    0.488E-02
DAV:  13    -0.319123998311E+03    0.29202E-04   -0.32847E-05 26320   0.238E-02    0.314E-02
DAV:  14    -0.319123985564E+03    0.12747E-04   -0.15933E-05 23280   0.153E-02    0.243E-02
DAV:  15    -0.319123979772E+03    0.57916E-05   -0.61020E-06 20528   0.976E-03
  50 F= -.31912398E+03 E0= -.31911954E+03  d E =-.421674E+00  mag=    38.0000
       N       E                     dE             d eps       ncg     rms          rms(c)
DAV:   1    -0.319106827619E+03    0.17158E-01   -0.91056E+00 40224   0.102E+01    0.143E+00
DAV:   2    -0.319200767585E+03   -0.93940E-01   -0.92823E-01 34976   0.179E+00    0.107E+00
DAV:   3    -0.319205672506E+03   -0.49049E-02   -0.39150E-02 34464   0.643E-01    0.110E+00
DAV:   4    -0.319204063309E+03    0.16092E-02   -0.63480E-03 36648   0.337E-01    0.457E-01
DAV:   5    -0.319203831772E+03    0.23154E-03   -0.18694E-03 36416   0.183E-01    0.529E-01
DAV:   6    -0.319203375342E+03    0.45643E-03   -0.15619E-03 36088   0.192E-01    0.302E-01
DAV:   7    -0.319203334279E+03    0.41063E-04   -0.69325E-04 36240   0.129E-01    0.228E-01
DAV:   8    -0.319203288672E+03    0.45607E-04   -0.35457E-04 33936   0.806E-02    0.903E-02
DAV:   9    -0.319203281667E+03    0.70051E-05   -0.58225E-05 28984   0.378E-02
  51 F= -.31920328E+03 E0= -.31919895E+03  d E =-.793019E-01  mag=    38.0000
       N       E                     dE             d eps       ncg     rms          rms(c)
DAV:   1    -0.318931138146E+03    0.27215E+00   -0.67717E+01 34984   0.219E+01    0.317E+00
DAV:   2    -0.319298318587E+03   -0.36718E+00   -0.36561E+00 34808   0.422E+00    0.306E+00
DAV:   3    -0.319300583995E+03   -0.22654E-02   -0.15822E-01 34520   0.159E+00    0.242E+00
DAV:   4    -0.319293153054E+03    0.74309E-02   -0.24194E-02 36384   0.730E-01    0.113E+00
DAV:   5    -0.319293608382E+03   -0.45533E-03   -0.15290E-02 37184   0.527E-01    0.160E+00
DAV:   6    -0.319290228600E+03    0.33798E-02   -0.11487E-02 35832   0.502E-01    0.472E-01
DAV:   7    -0.319290712639E+03   -0.48404E-03   -0.27609E-03 35128   0.219E-01    0.421E-01
DAV:   8    -0.319290562799E+03    0.14984E-03   -0.94129E-04 35480   0.139E-01    0.215E-01
DAV:   9    -0.319290514576E+03    0.48223E-04   -0.17823E-04 32576   0.674E-02    0.119E-01
[...]
  74 F= -.31940846E+03 E0= -.31940477E+03  d E =0.112144E-02  mag=    38.0000
       N       E                     dE             d eps       ncg     rms          rms(c)
DAV:   1    -0.318957078161E+03    0.45138E+00   -0.70970E+01 35776   0.261E+01    0.240E+00
DAV:   2    -0.319382100733E+03   -0.42502E+00   -0.42426E+00 32848   0.473E+00    0.149E+00
DAV:   3    -0.319390645776E+03   -0.85450E-02   -0.89708E-02 34216   0.898E-01    0.105E+00
DAV:   4    -0.319389043751E+03    0.16020E-02   -0.10863E-02 37968   0.412E-01    0.636E-01
DAV:   5    -0.319387396107E+03    0.16476E-02   -0.27755E-03 34592   0.247E-01    0.414E-01
DAV:   6    -0.319386944882E+03    0.45123E-03   -0.26943E-03 36264   0.246E-01    0.456E-01
DAV:   7    -0.319386789178E+03    0.15570E-03   -0.16572E-03 37896   0.175E-01    0.190E-01
DAV:   8    -0.319386830137E+03   -0.40959E-04   -0.38727E-04 34896   0.777E-02    0.137E-01
DAV:   9    -0.319386815470E+03    0.14667E-04   -0.10940E-04 32152   0.498E-02    0.595E-02
DAV:  10    -0.319386815990E+03   -0.51993E-06   -0.19191E-05 25032   0.203E-02
  75 F= -.31938682E+03 E0= -.31938319E+03  d E =0.216405E-01  mag=    38.0000
       N       E                     dE             d eps       ncg     rms          rms(c)
DAV:   1    -0.319147462966E+03    0.23935E+00   -0.22341E+01 37832   0.180E+01    0.193E+00
DAV:   2    -0.319358741193E+03   -0.21128E+00   -0.20944E+00 33840   0.323E+00    0.128E+00
DAV:   3    -0.319366425601E+03   -0.76844E-02   -0.63724E-02 33240   0.804E-01    0.114E+00
DAV:   4    -0.319365348199E+03    0.10774E-02   -0.90540E-03 37408   0.395E-01    0.605E-01
DAV:   5    -0.319364695454E+03    0.65275E-03   -0.20868E-03 35120   0.213E-01    0.548E-01
DAV:   6    -0.319364316105E+03    0.37935E-03   -0.21392E-03 37632   0.236E-01    0.459E-01
DAV:   7    -0.319364195610E+03    0.12050E-03   -0.14074E-03 36168   0.191E-01    0.301E-01
DAV:   8    -0.319364144696E+03    0.50913E-04   -0.52605E-04 36456   0.107E-01    0.112E-01
DAV:   9    -0.319364136351E+03    0.83451E-05   -0.14403E-04 34840   0.549E-02    0.730E-02
DAV:  10    -0.319364128797E+03    0.75541E-05   -0.32706E-05 26152   0.281E-02
  76 F= -.31936413E+03 E0= -.31936058E+03  d E =0.226872E-01  mag=    38.0000
       N       E                     dE             d eps       ncg     rms          rms(c)
DAV:   1    -0.319134809817E+03    0.22933E+00   -0.20653E+01 39936   0.206E+01    0.230E+00
DAV:   2    -0.319392790600E+03   -0.25798E+00   -0.25274E+00 34280   0.358E+00    0.158E+00
DAV:   3    -0.319406443487E+03   -0.13653E-01   -0.82828E-02 33760   0.104E+00    0.174E+00
DAV:   4    -0.319403261558E+03    0.31819E-02   -0.12881E-02 35632   0.500E-01    0.589E-01
DAV:   5    -0.319402703048E+03    0.55851E-03   -0.22534E-03 36240   0.216E-01    0.479E-01
DAV:   6    -0.319402071143E+03    0.63190E-03   -0.23904E-03 36760   0.235E-01    0.355E-01
DAV:   7    -0.319402015245E+03    0.55898E-04   -0.13970E-03 36240   0.184E-01    0.334E-01
DAV:   8    -0.319401923731E+03    0.91514E-04   -0.61293E-04 36496   0.113E-01    0.870E-02
DAV:   9    -0.319401933549E+03   -0.98174E-05   -0.11254E-04 33208   0.473E-02    0.533E-02
DAV:  10    -0.319401929632E+03    0.39165E-05   -0.25612E-05 27704   0.255E-02
  77 F= -.31940193E+03 E0= -.31939837E+03  d E =-.378008E-01  mag=    38.0000
       N       E                     dE             d eps       ncg     rms          rms(c)
DAV:   1    -0.319356901966E+03    0.45032E-01   -0.62246E+00 36480   0.860E+00    0.819E-01
DAV:   2    -0.319402606736E+03   -0.45705E-01   -0.45423E-01 32592   0.156E+00    0.499E-01
DAV:   3    -0.319403898151E+03   -0.12914E-02   -0.11325E-02 33320   0.314E-01    0.391E-01
DAV:   4    -0.319403752616E+03    0.14553E-03   -0.13104E-03 37632   0.142E-01    0.260E-01
DAV:   5    -0.319403594861E+03    0.15776E-03   -0.35039E-04 35400   0.874E-02    0.192E-01
DAV:   6    -0.319403523403E+03    0.71458E-04   -0.35945E-04 35784   0.936E-02    0.164E-01
DAV:   7    -0.319403510662E+03    0.12741E-04   -0.25058E-04 35328   0.761E-02    0.118E-01
DAV:   8    -0.319403504521E+03    0.61406E-05   -0.88403E-05 32976   0.404E-02
  78 F= -.31940350E+03 E0= -.31939996E+03  d E =-.157489E-02  mag=    38.0000
       N       E                     dE             d eps       ncg     rms          rms(c)
DAV:   1    -0.309385111400E+03    0.10018E+02   -0.37370E+02 43120   0.995E+01    0.157E+01
DAV:   2    -0.317985654337E+03   -0.86005E+01   -0.79556E+01 35016   0.199E+01    0.259E+01
DAV:   3    -0.317693969535E+03    0.29168E+00   -0.56321E+00 35104   0.101E+01    0.944E+00
DAV:   4    -0.317757779358E+03   -0.63810E-01   -0.58016E-01 34896   0.332E+00    0.697E+00
DAV:   5    -0.317742612392E+03    0.15167E-01   -0.21665E-01 38560   0.209E+00    0.565E+00
DAV:   6    -0.317708517400E+03    0.34095E-01   -0.14132E-01 36848   0.186E+00    0.403E+00
DAV:   7    -0.317706198643E+03    0.23188E-02   -0.89055E-02 37632   0.168E+00    0.348E+00
DAV:   8    -0.317694263116E+03    0.11936E-01   -0.48489E-02 34416   0.108E+00    0.887E-01
DAV:   9    -0.317695175154E+03   -0.91204E-03   -0.11063E-02 34968   0.469E-01    0.618E-01
DAV:  10    -0.317694930289E+03    0.24486E-03   -0.26135E-03 35224   0.258E-01    0.356E-01
DAV:  11    -0.317694725581E+03    0.20471E-03   -0.71027E-04 34544   0.145E-01    0.169E-01
DAV:  12    -0.317694666865E+03    0.58715E-04   -0.33953E-04 34632   0.869E-02    0.155E-01
DAV:  13    -0.317694605838E+03    0.61027E-04   -0.20971E-04 34768   0.677E-02    0.645E-02
DAV:  14    -0.317694591901E+03    0.13937E-04   -0.69081E-05 33224   0.351E-02    0.510E-02
DAV:  15    -0.317694585442E+03    0.64589E-05   -0.25944E-05 25400   0.211E-02
  79 F= -.31769459E+03 E0= -.31769062E+03  d E =0.170892E+01  mag=    38.0000
       N       E                     dE             d eps       ncg     rms          rms(c)
DAV:   1    -0.316034927486E+03    0.16597E+01   -0.13117E+02 44872   0.571E+01    0.102E+01
DAV:   2    -0.319156075158E+03   -0.31211E+01   -0.30701E+01 35544   0.115E+01    0.145E+01
DAV:   3    -0.319129366751E+03    0.26708E-01   -0.18288E+00 34632   0.558E+00    0.718E+00
DAV:   4    -0.319120671123E+03    0.86956E-02   -0.20765E-01 34128   0.184E+00    0.422E+00
DAV:   5    -0.319122447087E+03   -0.17760E-02   -0.86183E-02 36544   0.135E+00    0.456E+00
DAV:   6    -0.319100846113E+03    0.21601E-01   -0.82380E-02 36824   0.145E+00    0.242E+00
DAV:   7    -0.319108184751E+03   -0.73386E-02   -0.54082E-02 35888   0.114E+00    0.306E+00
DAV:   8    -0.319096678674E+03    0.11506E-01   -0.25944E-02 34104   0.810E-01    0.639E-01
DAV:   9    -0.319097196721E+03   -0.51805E-03   -0.30684E-03 35312   0.267E-01    0.281E-01
DAV:  10    -0.319097099689E+03    0.97032E-04   -0.97698E-04 35648   0.136E-01    0.166E-01
DAV:  11    -0.319097024180E+03    0.75509E-04   -0.29216E-04 35456   0.839E-02    0.124E-01
DAV:  12    -0.319096970847E+03    0.53333E-04   -0.17208E-04 35160   0.587E-02    0.764E-02
DAV:  13    -0.319096953134E+03    0.17713E-04   -0.67581E-05 32176   0.357E-02    0.464E-02
DAV:  14    -0.319096940532E+03    0.12602E-04   -0.19132E-05 24512   0.207E-02    0.196E-02
DAV:  15    -0.319096936218E+03    0.43143E-05   -0.63886E-06 20320   0.975E-03
  80 F= -.31909694E+03 E0= -.31909325E+03  d E =-.140235E+01  mag=    38.0000
       N       E                     dE             d eps       ncg     rms          rms(c)
DAV:   1    -0.319088935764E+03    0.80048E-02   -0.58978E+00 46448   0.139E+01    0.181E+00
DAV:   2    -0.319229918429E+03   -0.14098E+00   -0.13821E+00 34088   0.232E+00    0.120E+00
DAV:   3    -0.319238270076E+03   -0.83516E-02   -0.47202E-02 33296   0.724E-01    0.106E+00
DAV:   4    -0.319237247792E+03    0.10223E-02   -0.68121E-03 36560   0.351E-01    0.492E-01
DAV:   5    -0.319236765619E+03    0.48217E-03   -0.15175E-03 36792   0.179E-01    0.370E-01
DAV:   6    -0.319236572331E+03    0.19329E-03   -0.13507E-03 36680   0.187E-01    0.310E-01
DAV:   7    -0.319236538117E+03    0.34214E-04   -0.77921E-04 35896   0.138E-01    0.246E-01
DAV:   8    -0.319236490751E+03    0.47366E-04   -0.29116E-04 35424   0.800E-02    0.959E-02
DAV:   9    -0.319236486959E+03    0.37920E-05   -0.72428E-05 31808   0.416E-02
  81 F= -.31923649E+03 E0= -.31923284E+03  d E =-.139551E+00  mag=    38.0000
       N       E                     dE             d eps       ncg     rms          rms(c)
DAV:   1    -0.318720217346E+03    0.51627E+00   -0.29787E+01 45976   0.297E+01    0.392E+00
DAV:   2    -0.319351397069E+03   -0.63118E+00   -0.61126E+00 34472   0.496E+00    0.332E+00
DAV:   3    -0.319388294358E+03   -0.36897E-01   -0.22599E-01 33704   0.171E+00    0.269E+00
DAV:   4    -0.319382392993E+03    0.59014E-02   -0.43996E-02 35504   0.931E-01    0.131E+00
DAV:   5    -0.319380513184E+03    0.18798E-02   -0.88054E-03 35368   0.413E-01    0.869E-01
DAV:   6    -0.319379549977E+03    0.96321E-03   -0.66268E-03 35832   0.413E-01    0.590E-01
DAV:   7    -0.319379587884E+03   -0.37907E-04   -0.38792E-03 35688   0.299E-01    0.538E-01
DAV:   8    -0.319379345497E+03    0.24239E-03   -0.14334E-03 36304   0.171E-01    0.227E-01
DAV:   9    -0.319379339459E+03    0.60381E-05   -0.28773E-04 34408   0.858E-02    0.134E-01
DAV:  10    -0.319379314000E+03    0.25460E-04   -0.10075E-04 33120   0.515E-02    0.668E-02
DAV:  11    -0.319379308478E+03    0.55214E-05   -0.27492E-05 25728   0.270E-02
  82 F= -.31937931E+03 E0= -.31937574E+03  d E =-.142822E+00  mag=    38.0000
       N       E                     dE             d eps       ncg     rms          rms(c)
DAV:   1    -0.319370289466E+03    0.90245E-02   -0.10713E+00 42480   0.495E+00    0.620E-01
DAV:   2    -0.319386592761E+03   -0.16303E-01   -0.15866E-01 33896   0.862E-01    0.415E-01
DAV:   3    -0.319387538140E+03   -0.94538E-03   -0.58437E-03 33112   0.265E-01    0.424E-01
DAV:   4    -0.319387387392E+03    0.15075E-03   -0.87495E-04 37448   0.129E-01    0.210E-01
DAV:   5    -0.319387352217E+03    0.35176E-04   -0.22529E-04 35688   0.738E-02    0.197E-01
DAV:   6    -0.319387312863E+03    0.39354E-04   -0.30749E-04 35928   0.879E-02    0.145E-01
DAV:   7    -0.319387304740E+03    0.81222E-05   -0.15567E-04 33864   0.588E-02    0.101E-01
DAV:   8    -0.319387293552E+03    0.11189E-04   -0.56049E-05 30760   0.368E-02    0.295E-02
DAV:   9    -0.319387293565E+03   -0.13169E-07   -0.11327E-05 21816   0.158E-02
  83 F= -.31938729E+03 E0= -.31938372E+03  d E =-.798509E-02  mag=    38.0000
       N       E                     dE             d eps       ncg     rms          rms(c)
DAV:   1    -0.319353831528E+03    0.33462E-01   -0.46175E+00 36904   0.811E+00    0.936E-01
DAV:   2    -0.319394981465E+03   -0.41150E-01   -0.40544E-01 34040   0.150E+00    0.958E-01
DAV:   3    -0.319396525532E+03   -0.15441E-02   -0.17948E-02 33496   0.526E-01    0.852E-01
DAV:   4    -0.319395769833E+03    0.75570E-03   -0.31235E-03 34392   0.262E-01    0.379E-01
DAV:   5    -0.319395681921E+03    0.87912E-04   -0.73779E-04 38200   0.136E-01    0.340E-01
DAV:   6    -0.319395522667E+03    0.15925E-03   -0.96819E-04 35752   0.145E-01    0.269E-01
DAV:   7    -0.319395495533E+03    0.27134E-04   -0.58601E-04 36592   0.114E-01    0.181E-01
DAV:   8    -0.319395465682E+03    0.29851E-04   -0.16911E-04 33736   0.634E-02    0.597E-02
DAV:   9    -0.319395462879E+03    0.28033E-05   -0.29979E-05 26472   0.248E-02
  84 F= -.31939546E+03 E0= -.31939188E+03  d E =-.816931E-02  mag=    38.0000
       N       E                     dE             d eps       ncg     rms          rms(c)
DAV:   1    -0.319394452547E+03    0.10131E-02   -0.36540E-01 37936   0.246E+00    0.269E-01
DAV:   2    -0.319398098213E+03   -0.36457E-02   -0.35492E-02 33624   0.447E-01    0.274E-01
DAV:   3    -0.319398247243E+03   -0.14903E-03   -0.14378E-03 33792   0.145E-01    0.234E-01
DAV:   4    -0.319398193857E+03    0.53386E-04   -0.24164E-04 34520   0.715E-02    0.904E-02
DAV:   5    -0.319398184705E+03    0.91526E-05   -0.40811E-05 30344   0.300E-02
  85 F= -.31939818E+03 E0= -.31939459E+03  d E =-.272183E-02  mag=    38.0000
       N       E                     dE             d eps       ncg     rms          rms(c)
DAV:   1    -0.319377172640E+03    0.21021E-01   -0.26131E+00 37568   0.628E+00    0.675E-01
DAV:   2    -0.319400975438E+03   -0.23803E-01   -0.23250E-01 34336   0.115E+00    0.764E-01
DAV:   3    -0.319401758094E+03   -0.78266E-03   -0.90548E-03 34264   0.373E-01    0.605E-01
DAV:   4    -0.319401414683E+03    0.34341E-03   -0.16348E-03 35480   0.186E-01    0.242E-01
DAV:   5    -0.319401359750E+03    0.54933E-04   -0.36092E-04 36400   0.863E-02    0.218E-01
DAV:   6    -0.319401296581E+03    0.63170E-04   -0.39622E-04 36336   0.902E-02    0.195E-01
DAV:   7    -0.319401268233E+03    0.28348E-04   -0.22340E-04 36480   0.682E-02    0.951E-02
DAV:   8    -0.319401267853E+03    0.38007E-06   -0.65772E-05 31416   0.367E-02
  86 F= -.31940127E+03 E0= -.31939769E+03  d E =-.308315E-02  mag=    38.0000
       N       E                     dE             d eps       ncg     rms          rms(c)
DAV:   1    -0.319396415530E+03    0.48527E-02   -0.92565E-01 36520   0.307E+00    0.322E-01
DAV:   2    -0.319402288715E+03   -0.58732E-02   -0.59078E-02 34200   0.567E-01    0.354E-01
DAV:   3    -0.319402435772E+03   -0.14706E-03   -0.22281E-03 35800   0.184E-01    0.279E-01
DAV:   4    -0.319402345801E+03    0.89972E-04   -0.32052E-04 35760   0.813E-02    0.116E-01
DAV:   5    -0.319402324221E+03    0.21580E-04   -0.10073E-04 33744   0.447E-02    0.929E-02
DAV:   6    -0.319402300204E+03    0.24017E-04   -0.11141E-04 34128   0.499E-02    0.709E-02
DAV:   7    -0.319402300639E+03   -0.43547E-06   -0.44807E-05 30544   0.297E-02
  87 F= -.31940230E+03 E0= -.31939871E+03  d E =-.103279E-02  mag=    38.0000
       N       E                     dE             d eps       ncg     rms          rms(c)
DAV:   1    -0.319368736916E+03    0.33563E-01   -0.26556E+00 36840   0.636E+00    0.774E-01
DAV:   2    -0.319400210016E+03   -0.31473E-01   -0.31644E-01 34488   0.114E+00    0.624E-01
DAV:   3    -0.319401858048E+03   -0.16480E-02   -0.13749E-02 35664   0.379E-01    0.659E-01
DAV:   4    -0.319401335659E+03    0.52239E-03   -0.19322E-03 36448   0.190E-01    0.203E-01
DAV:   5    -0.319401226154E+03    0.10951E-03   -0.37385E-04 36680   0.784E-02    0.168E-01
DAV:   6    -0.319401121739E+03    0.10441E-03   -0.32137E-04 37480   0.840E-02    0.120E-01
DAV:   7    -0.319401096882E+03    0.24856E-04   -0.14213E-04 36256   0.544E-02    0.585E-02
DAV:   8    -0.319401099118E+03   -0.22355E-05   -0.60358E-05 32128   0.311E-02
  88 F= -.31940110E+03 E0= -.31939757E+03  d E =0.120152E-02  mag=    38.0000
       N       E                     dE             d eps       ncg     rms          rms(c)
DAV:   1    -0.319388700706E+03    0.12396E-01   -0.69017E-01 43360   0.366E+00    0.568E-01
DAV:   2    -0.319403730383E+03   -0.15030E-01   -0.15179E-01 34768   0.633E-01    0.350E-01
DAV:   3    -0.319404682561E+03   -0.95218E-03   -0.66098E-03 33840   0.214E-01    0.374E-01
DAV:   4    -0.319404507396E+03    0.17516E-03   -0.75358E-04 36112   0.108E-01    0.134E-01
DAV:   5    -0.319404434122E+03    0.73275E-04   -0.14315E-04 33280   0.456E-02    0.912E-02
DAV:   6    -0.319404388376E+03    0.45746E-04   -0.12234E-04 34048   0.540E-02    0.885E-02
DAV:   7    -0.319404374052E+03    0.14324E-04   -0.65495E-05 30824   0.398E-02    0.370E-02
DAV:   8    -0.319404374271E+03   -0.21915E-06   -0.21720E-05 25816   0.194E-02
  89 F= -.31940437E+03 E0= -.31940079E+03  d E =-.327515E-02  mag=    38.0000
       N       E                     dE             d eps       ncg     rms          rms(c)
DAV:   1    -0.319403912036E+03    0.46202E-03   -0.10748E-01 36352   0.101E+00    0.106E-01
DAV:   2    -0.319404530207E+03   -0.61817E-03   -0.60631E-03 34608   0.187E-01    0.135E-01
DAV:   3    -0.319404537476E+03   -0.72687E-05   -0.21820E-04 34584   0.577E-02    0.888E-02
DAV:   4    -0.319404528397E+03    0.90787E-05   -0.36186E-05 26712   0.286E-02
  90 F= -.31940453E+03 E0= -.31940096E+03  d E =-.154126E-03  mag=    38.0000
       N       E                     dE             d eps       ncg     rms          rms(c)
DAV:   1    -0.319401498796E+03    0.30387E-02   -0.54754E-01 37072   0.234E+00    0.231E-01
DAV:   2    -0.319404679428E+03   -0.31806E-02   -0.31326E-02 34248   0.422E-01    0.233E-01
DAV:   3    -0.319404755498E+03   -0.76070E-04   -0.97452E-04 36528   0.119E-01    0.216E-01
DAV:   4    -0.319404698736E+03    0.56762E-04   -0.20809E-04 34176   0.694E-02    0.917E-02
DAV:   5    -0.319404690307E+03    0.84289E-05   -0.62291E-05 32000   0.362E-02
  91 F= -.31940469E+03 E0= -.31940116E+03  d E =-.161910E-03  mag=    38.0000
       N       E                     dE             d eps       ncg     rms          rms(c)
DAV:   1    -0.319372203668E+03    0.32495E-01   -0.42666E+00 36128   0.731E+00    0.695E-01
DAV:   2    -0.319403773011E+03   -0.31569E-01   -0.31387E-01 33968   0.135E+00    0.488E-01
DAV:   3    -0.319404741526E+03   -0.96851E-03   -0.86056E-03 34912   0.325E-01    0.566E-01
DAV:   4    -0.319404350323E+03    0.39120E-03   -0.15056E-03 36368   0.174E-01    0.206E-01
DAV:   5    -0.319404258567E+03    0.91756E-04   -0.31071E-04 35128   0.746E-02    0.176E-01
DAV:   6    -0.319404176170E+03    0.82397E-04   -0.29190E-04 37352   0.790E-02    0.131E-01
DAV:   7    -0.319404162648E+03    0.13521E-04   -0.17005E-04 36576   0.598E-02    0.960E-02
DAV:   8    -0.319404160009E+03    0.26390E-05   -0.78678E-05 32600   0.355E-02
  92 F= -.31940416E+03 E0= -.31940076E+03  d E =0.530297E-03  mag=    38.0000
       N       E                     dE             d eps       ncg     rms          rms(c)
DAV:   1    -0.319378968612E+03    0.25194E-01   -0.30154E+00 37200   0.650E+00    0.641E-01
DAV:   2    -0.319405095493E+03   -0.26127E-01   -0.25881E-01 33360   0.120E+00    0.434E-01
DAV:   3    -0.319406014039E+03   -0.91855E-03   -0.73932E-03 35224   0.284E-01    0.483E-01
DAV:   4    -0.319405753368E+03    0.26067E-03   -0.11003E-03 35920   0.141E-01    0.183E-01
DAV:   5    -0.319405676281E+03    0.77087E-04   -0.21380E-04 34624   0.662E-02    0.137E-01
DAV:   6    -0.319405607750E+03    0.68531E-04   -0.17667E-04 36056   0.655E-02    0.981E-02
DAV:   7    -0.319405600017E+03    0.77334E-05   -0.13013E-04 35704   0.523E-02    0.936E-02
DAV:   8    -0.319405593910E+03    0.61062E-05   -0.56166E-05 31672   0.323E-02
  93 F= -.31940559E+03 E0= -.31940218E+03  d E =-.143390E-02  mag=    38.0000
       N       E                     dE             d eps       ncg     rms          rms(c)
DAV:   1    -0.319389558380E+03    0.16042E-01   -0.18125E+00 36792   0.506E+00    0.529E-01
DAV:   2    -0.319404599784E+03   -0.15041E-01   -0.14702E-01 34320   0.905E-01    0.406E-01
DAV:   3    -0.319405290780E+03   -0.69100E-03   -0.40332E-03 34472   0.241E-01    0.483E-01
DAV:   4    -0.319405042238E+03    0.24854E-03   -0.77250E-04 35200   0.122E-01    0.133E-01
DAV:   5    -0.319405010434E+03    0.31804E-04   -0.15931E-04 34240   0.593E-02    0.126E-01
DAV:   6    -0.319404987304E+03    0.23130E-04   -0.13259E-04 37104   0.563E-02    0.825E-02
DAV:   7    -0.319404985386E+03    0.19181E-05   -0.78498E-05 33104   0.424E-02
  94 F= -.31940499E+03 E0= -.31940152E+03  d E =0.608525E-03  mag=    38.0000
       N       E                     dE             d eps       ncg     rms          rms(c)
DAV:   1    -0.319403899450E+03    0.10879E-02   -0.72812E-02 44792   0.149E+00    0.175E-01
DAV:   2    -0.319405345493E+03   -0.14460E-02   -0.14451E-02 33840   0.253E-01    0.119E-01
DAV:   3    -0.319405433999E+03   -0.88507E-04   -0.53771E-04 33048   0.726E-02    0.109E-01
DAV:   4    -0.319405424528E+03    0.94713E-05   -0.69693E-05 32208   0.345E-02
  95 F= -.31940542E+03 E0= -.31940197E+03  d E =-.439142E-03  mag=    38.0000
