       N       E                     dE             d eps       ncg     rms          ort
DAV:   1     0.694191056157E+04    0.69419E+04   -0.26993E+05  8320   0.167E+03
DAV:   2     0.721259279469E+03   -0.62207E+04   -0.59060E+04  8320   0.498E+02
DAV:   3    -0.359299774997E+03   -0.10806E+04   -0.10587E+04  8320   0.204E+02
DAV:   4    -0.423218958587E+03   -0.63919E+02   -0.61268E+02  8320   0.506E+01
DAV:   5    -0.429073782967E+03   -0.58548E+01   -0.56526E+01  8320   0.119E+01
SDA:   6    -0.150045502125E+03    0.27903E+03   -0.56526E+01  8320   0.207E+04 0.000E+00
CGA:   7    -0.258721522237E+03   -0.10868E+03   -0.11130E+03  8320   0.313E+04-0.759E+03
CGA:   8    -0.337566613581E+03   -0.78845E+02   -0.85346E+02  8320   0.510E+03-0.398E+02
CGA:   9    -0.348958469344E+03   -0.11392E+02   -0.11076E+02  8320   0.192E+03-0.448E+01
CGA:  10    -0.356274462216E+03   -0.73160E+01   -0.89523E+01  8320   0.259E+03-0.457E+02
CGA:  11    -0.360926150206E+03   -0.46517E+01   -0.62879E+01  8320   0.181E+03-0.466E+02
CGA:  12    -0.365758943250E+03   -0.48328E+01   -0.56669E+01  8320   0.209E+03-0.127E+03
CGA:  13    -0.369779847230E+03   -0.40209E+01   -0.33431E+01  8320   0.662E+02 0.285E+02
CGA:  14    -0.371252955843E+03   -0.14731E+01   -0.22747E+01  8320   0.547E+02-0.307E+02
CGA:  15    -0.371827356240E+03   -0.57440E+00   -0.10804E+01  8320   0.768E+02-0.124E+02
CGA:  16    -0.371973253355E+03   -0.14590E+00   -0.18697E+01  8320   0.162E+03-0.782E+02
CGA:  17    -0.369749355260E+03    0.22239E+01   -0.57604E+01  8320   0.337E+03-0.123E+03
CGA:  18    -0.370709458167E+03   -0.96010E+00   -0.78778E+01  8320   0.297E+03-0.305E+03
CGA:  19    -0.372000606092E+03   -0.12911E+01   -0.65382E+01  8320   0.243E+03-0.274E+03
CGA:  20    -0.372739219319E+03   -0.73861E+00   -0.54630E+01  8320   0.192E+03-0.203E+03
CGA:  21    -0.372899123138E+03   -0.15990E+00   -0.45622E+01  8320   0.202E+03-0.194E+03
CGA:  22    -0.373583864029E+03   -0.68474E+00   -0.46094E+01  8320   0.147E+03-0.156E+03
CGA:  23    -0.374416556960E+03   -0.83269E+00   -0.32599E+01  8320   0.104E+03-0.123E+03
CGA:  24    -0.375075634692E+03   -0.65908E+00   -0.22404E+01  8320   0.560E+02-0.667E+02
CGA:  25    -0.375755633773E+03   -0.68000E+00   -0.98490E+00  8320   0.120E+02-0.205E+02
CGA:  26    -0.376075023673E+03   -0.31939E+00   -0.35343E+00  8320   0.769E+01-0.466E+00
CGA:  27    -0.376435788564E+03   -0.36076E+00   -0.40695E+00  8320   0.109E+02-0.773E-01
CGA:  28    -0.377238393132E+03   -0.80260E+00   -0.83826E+00  8320   0.927E+01 0.117E+01
CGA:  29    -0.377675853239E+03   -0.43746E+00   -0.39196E+00  8320   0.180E+01 0.154E+01
CGA:  30    -0.377882123202E+03   -0.20627E+00   -0.20167E+00  8320   0.267E+01 0.254E+00
CGA:  31    -0.378194721648E+03   -0.31260E+00   -0.30269E+00  8320   0.159E+01 0.439E+00
CGA:  32    -0.378349212560E+03   -0.15449E+00   -0.15545E+00  8320   0.858E+00 0.176E+00
CGA:  33    -0.378462670979E+03   -0.11346E+00   -0.10912E+00  8320   0.894E+00 0.697E-01
CGA:  34    -0.378563790677E+03   -0.10112E+00   -0.10127E+00  8320   0.303E+01 0.679E-02
CGA:  35    -0.378636857449E+03   -0.73067E-01   -0.42313E-01  8320   0.252E+01 0.189E+01
CGA:  36    -0.378717383351E+03   -0.80526E-01   -0.79754E-01  8320   0.391E+00 0.639E-01
CGA:  37    -0.378766282025E+03   -0.48899E-01   -0.51520E-01  8320   0.136E+01-0.512E-01
CGA:  38    -0.378869789908E+03   -0.10351E+00   -0.10375E+00  8320   0.437E+01-0.316E-01
CGA:  39    -0.378939388711E+03   -0.69599E-01   -0.37087E-01  8320   0.375E+01 0.330E+01
CGA:  40    -0.379071156572E+03   -0.13177E+00   -0.12670E+00  8320   0.195E+01 0.833E-01
CGA:  41    -0.379150069034E+03   -0.78912E-01   -0.82400E-01  8320   0.774E+00-0.356E-01
CGA:  42    -0.379206519738E+03   -0.56451E-01   -0.56555E-01  8320   0.205E+01 0.204E-01
CGA:  43    -0.379305664937E+03   -0.99145E-01   -0.83861E-01  8320   0.193E+01 0.195E+00
CGA:  44    -0.379438917352E+03   -0.13325E+00   -0.13183E+00  8320   0.213E+01-0.156E-01
CGA:  45    -0.379491512464E+03   -0.52595E-01   -0.56952E-01  8320   0.158E+01-0.598E-01
CGA:  46    -0.379586614097E+03   -0.95102E-01   -0.86220E-01  8320   0.291E+01-0.994E-01
CGA:  47    -0.379653522147E+03   -0.66908E-01   -0.48466E-01  8320   0.326E+01 0.926E+00
CGA:  48    -0.379766402686E+03   -0.11288E+00   -0.12216E+00  8320   0.223E+01 0.617E-01
CGA:  49    -0.379823225583E+03   -0.56823E-01   -0.68469E-01  8320   0.965E+00-0.170E+00
CGA:  50    -0.379847992774E+03   -0.24767E-01   -0.22395E-01  8320   0.629E+00 0.660E-01
CGA:  51    -0.379877024953E+03   -0.29032E-01   -0.27723E-01  8320   0.574E+00 0.408E-02
CGA:  52    -0.379902752706E+03   -0.25728E-01   -0.26562E-01  8320   0.772E+00 0.971E-02
CGA:  53    -0.379926704405E+03   -0.23952E-01   -0.21591E-01  8320   0.562E+00 0.536E-01
CGA:  54    -0.379950197492E+03   -0.23493E-01   -0.23792E-01  8320   0.424E+00 0.144E-02
CGA:  55    -0.379959446964E+03   -0.92495E-02   -0.96014E-02  8320   0.242E+00-0.973E-02
CGA:  56    -0.379968757453E+03   -0.93105E-02   -0.92577E-02  8320   0.181E+00-0.134E-03
CGA:  57    -0.379976891949E+03   -0.81345E-02   -0.81269E-02  8320   0.256E+00-0.305E-03
CGA:  58    -0.379986128605E+03   -0.92367E-02   -0.95338E-02  8320   0.252E+00 0.121E-02
CGA:  59    -0.380000192169E+03   -0.14064E-01   -0.14059E-01  8320   0.166E+00 0.179E-02
CGA:  60    -0.380006891011E+03   -0.66988E-02   -0.66975E-02  8320   0.114E+00-0.923E-04
CGA:  61    -0.380010465969E+03   -0.35750E-02   -0.35628E-02  8320   0.937E-01 0.949E-04
CGA:  62    -0.380014847373E+03   -0.43814E-02   -0.43828E-02  8320   0.823E-01 0.747E-04
CGA:  63    -0.380021169526E+03   -0.63222E-02   -0.62795E-02  8320   0.115E+00 0.142E-02
CGA:  64    -0.380025176854E+03   -0.40073E-02   -0.39590E-02  8320   0.803E-01 0.239E-03
CGA:  65    -0.380027488112E+03   -0.23113E-02   -0.23043E-02  8320   0.357E-01 0.119E-03
CGA:  66    -0.380029685483E+03   -0.21974E-02   -0.21949E-02  8320   0.415E-01 0.176E-03
CGA:  67    -0.380031299705E+03   -0.16142E-02   -0.16030E-02  8320   0.518E-01-0.759E-04
CGA:  68    -0.380033741279E+03   -0.24416E-02   -0.24494E-02  8320   0.475E-01 0.973E-03
CGA:  69    -0.380036248506E+03   -0.25072E-02   -0.25063E-02  8320   0.343E-01 0.473E-03
SDA:  70    -0.380037294175E+03   -0.10457E-02   -0.99760E-03  8320   0.304E-01 0.639E-03
CGA:  71    -0.380038157302E+03   -0.86313E-03   -0.86159E-03  8320   0.224E-01-0.125E-04
CGA:  72    -0.380039121547E+03   -0.96424E-03   -0.96224E-03  8320   0.153E-01-0.163E-03
CGA:  73    -0.380041407270E+03   -0.22857E-02   -0.22913E-02  8320   0.286E-01-0.999E-05
CGA:  74    -0.380043436879E+03   -0.20296E-02   -0.20566E-02  8320   0.203E-01-0.201E-02
CGA:  75    -0.380043916087E+03   -0.47921E-03   -0.15855E-02  8320   0.200E+00-0.349E-01
CGA:  76    -0.380046381755E+03   -0.24657E-02   -0.25836E-02  8320   0.162E-01-0.785E-02
CGA:  77    -0.380047585573E+03   -0.12038E-02   -0.12074E-02  8320   0.200E-01-0.109E-03
CGA:  78    -0.380048333903E+03   -0.74833E-03   -0.75334E-03  8320   0.252E-01 0.707E-04
CGA:  79    -0.380049466508E+03   -0.11326E-02   -0.11199E-02  8320   0.917E-02-0.259E-03
CGA:  80    -0.380049808960E+03   -0.34245E-03   -0.34565E-03  8320   0.806E-02 0.449E-04
CGA:  81    -0.380050137213E+03   -0.32825E-03   -0.32081E-03  8320   0.101E-01-0.685E-04
CGA:  82    -0.380051051860E+03   -0.91465E-03   -0.93656E-03  8320   0.262E-01-0.900E-03
CGA:  83    -0.380051718118E+03   -0.66626E-03   -0.41416E-03  8320   0.257E-01 0.126E-01
CGA:  84    -0.380052472271E+03   -0.75415E-03   -0.57509E-03  8320   0.144E-01 0.106E-01
CGA:  85    -0.380052823616E+03   -0.35135E-03   -0.38016E-03  8320   0.890E-02-0.973E-03
CGA:  86    -0.380053037751E+03   -0.21413E-03   -0.21412E-03  8320   0.624E-02 0.147E-04
CGA:  87    -0.380053129199E+03   -0.91448E-04   -0.84918E-04  8320   0.318E-02 0.372E-03
CGA:  88    -0.380053228155E+03   -0.98956E-04   -0.97530E-04  8320   0.566E-02-0.341E-05
CGA:  89    -0.380053349789E+03   -0.12163E-03   -0.12299E-03  8320   0.581E-02-0.554E-04
CGA:  90    -0.380053469021E+03   -0.11923E-03   -0.12013E-03  8320   0.557E-02-0.450E-04
CGA:  91    -0.380053563120E+03   -0.94099E-04   -0.90207E-04  8320   0.343E-02 0.145E-03
CGA:  92    -0.380053621599E+03   -0.58479E-04   -0.57021E-04  8320   0.241E-02 0.476E-04
CGA:  93    -0.380053666139E+03   -0.44539E-04   -0.44273E-04  8320   0.261E-02 0.297E-06
CGA:  94    -0.380053745972E+03   -0.79834E-04   -0.79974E-04  8320   0.561E-02-0.143E-05
CGA:  95    -0.380053853029E+03   -0.10706E-03   -0.10491E-03  8320   0.416E-02 0.643E-04
CGA:  96    -0.380053929071E+03   -0.76042E-04   -0.74914E-04  8320   0.491E-02 0.375E-04
CGA:  97    -0.380054054031E+03   -0.12496E-03   -0.12560E-03  8320   0.704E-02 0.877E-05
CGA:  98    -0.380054169907E+03   -0.11588E-03   -0.11389E-03  8320   0.451E-02 0.106E-03
CGA:  99    -0.380054239736E+03   -0.69828E-04   -0.66812E-04  8320   0.324E-02 0.144E-03
CGA: 100    -0.380054297912E+03   -0.58176E-04   -0.56718E-04  8320   0.354E-02 0.531E-04
CGA: 101    -0.380054363208E+03   -0.65296E-04   -0.65262E-04  8320   0.422E-02 0.156E-04
CGA: 102    -0.380054435619E+03   -0.72412E-04   -0.74950E-04  8320   0.485E-02-0.350E-04
CGA: 103    -0.380054540588E+03   -0.10497E-03   -0.10673E-03  8320   0.604E-02 0.411E-04
CGA: 104    -0.380054632143E+03   -0.91555E-04   -0.86645E-04  8320   0.355E-02 0.248E-03
CGA: 105    -0.380054684304E+03   -0.52161E-04   -0.51076E-04  8320   0.290E-02 0.697E-04
SDA: 106    -0.380054733887E+03   -0.49583E-04   -0.49583E-04  8320   0.322E-02 0.200E-04
CGA: 107    -0.380054850074E+03   -0.11619E-03   -0.11605E-03  8320   0.333E-02 0.143E-04
CGA: 108    -0.380055076043E+03   -0.22597E-03   -0.22758E-03  8320   0.911E-02-0.462E-04
CGA: 109    -0.380055373015E+03   -0.29697E-03   -0.29646E-03  8320   0.752E-02 0.166E-03
CGA: 110    -0.380055701322E+03   -0.32831E-03   -0.32598E-03  8320   0.160E-02 0.159E-03
CGA: 111    -0.380055794856E+03   -0.93534E-04   -0.93294E-04  8320   0.629E-03 0.828E-05
CGA: 112    -0.380055824656E+03   -0.29800E-04   -0.29732E-04  8320   0.180E-02 0.278E-05
CGA: 113    -0.380055939783E+03   -0.11513E-03   -0.11749E-03  8320   0.113E-02-0.784E-04
CGA: 114    -0.380055980784E+03   -0.41000E-04   -0.40910E-04  8320   0.426E-03 0.207E-04
CGA: 115    -0.380055994195E+03   -0.13411E-04   -0.13409E-04  8320   0.334E-03 0.285E-06
CGA: 116    -0.380056009884E+03   -0.15689E-04   -0.15621E-04  8320   0.727E-03 0.506E-05
CGA: 117    -0.380056059977E+03   -0.50093E-04   -0.50021E-04  8320   0.261E-03 0.505E-06
CGA: 118    -0.380056069442E+03   -0.94650E-05   -0.94675E-05  8320   0.248E-03 0.911E-06
   1 F= -.38005607E+03 E0= -.38003369E+03  d E =-.380056E+03  mag=    14.5726
       N       E                     dE             d eps       ncg     rms          ort
SDA:   1    -0.380108382625E+03   -0.52323E-01    0.00000E+00  8320   0.543E+00 0.000E+00
CGA:   2    -0.380114688727E+03   -0.63061E-02   -0.60455E-02  8320   0.441E-01 0.182E-01
CGA:   3    -0.380116359641E+03   -0.16709E-02   -0.16713E-02  8320   0.204E-01-0.159E-03
CGA:   4    -0.380117321143E+03   -0.96150E-03   -0.96009E-03  8320   0.449E-01 0.954E-04
CGA:   5    -0.380118814371E+03   -0.14932E-02   -0.14928E-02  8320   0.244E-01-0.395E-04
CGA:   6    -0.380119498123E+03   -0.68375E-03   -0.68379E-03  8320   0.700E-02 0.536E-06
CGA:   7    -0.380119736878E+03   -0.23875E-03   -0.23876E-03  8320   0.455E-02-0.173E-05
CGA:   8    -0.380119857540E+03   -0.12066E-03   -0.12054E-03  8320   0.513E-02-0.660E-05
CGA:   9    -0.380120244558E+03   -0.38702E-03   -0.38826E-03  8320   0.140E-02-0.302E-04
CGA:  10    -0.380120290155E+03   -0.45596E-04   -0.45582E-04  8320   0.128E-02-0.431E-05
CGA:  11    -0.380120316424E+03   -0.26269E-04   -0.26205E-04  8320   0.448E-03-0.251E-05
CGA:  12    -0.380120368187E+03   -0.51764E-04   -0.52628E-04  8320   0.499E-03-0.106E-04
CGA:  13    -0.380120382485E+03   -0.14298E-04   -0.14284E-04  8320   0.391E-03-0.164E-05
CGA:  14    -0.380120391813E+03   -0.93272E-05   -0.93174E-05  8320   0.156E-03-0.550E-06
   2 F= -.38012039E+03 E0= -.38009801E+03  d E =-.643224E-01  mag=    14.5716
       N       E                     dE             d eps       ncg     rms          ort
SDA:   1    -0.379531285853E+03    0.58910E+00    0.00000E+00  8320   0.682E+01 0.000E+00
CGA:   2    -0.379791982552E+03   -0.26070E+00   -0.26044E+00  8320   0.141E+02-0.257E+00
CGA:   3    -0.380313506108E+03   -0.52152E+00   -0.52165E+00  8320   0.966E+01 0.249E+00
CGA:   4    -0.380690456229E+03   -0.37695E+00   -0.37701E+00  8320   0.559E+01 0.849E-01
CGA:   5    -0.380790893354E+03   -0.10044E+00   -0.92180E-01  8320   0.155E+01 0.316E+00
CGA:   6    -0.380843420559E+03   -0.52527E-01   -0.52794E-01  8320   0.158E+01 0.179E-01
CGA:   7    -0.380951423125E+03   -0.10800E+00   -0.10832E+00  8320   0.272E+01-0.102E-01
CGA:   8    -0.380998376387E+03   -0.46953E-01   -0.44633E-01  8320   0.776E+00 0.871E-01
CGA:   9    -0.381024852878E+03   -0.26476E-01   -0.26528E-01  8320   0.304E+00 0.402E-02
CGA:  10    -0.381029997155E+03   -0.51443E-02   -0.52768E-02  8320   0.191E+00-0.446E-02
CGA:  11    -0.381044089412E+03   -0.14092E-01   -0.14094E-01  8320   0.208E+00-0.504E-04
CGA:  12    -0.381049688886E+03   -0.55995E-02   -0.55758E-02  8320   0.209E+00-0.158E-03
CGA:  13    -0.381054466658E+03   -0.47778E-02   -0.47850E-02  8320   0.288E-01-0.106E-03
CGA:  14    -0.381055749586E+03   -0.12829E-02   -0.12807E-02  8320   0.567E-01 0.194E-03
CGA:  15    -0.381057197434E+03   -0.14478E-02   -0.14454E-02  8320   0.291E-01 0.738E-06
CGA:  16    -0.381060100762E+03   -0.29033E-02   -0.29042E-02  8320   0.435E-01-0.212E-04
CGA:  17    -0.381060718689E+03   -0.61793E-03   -0.62503E-03  8320   0.106E-01-0.362E-03
CGA:  18    -0.381061243575E+03   -0.52489E-03   -0.52410E-03  8320   0.952E-02 0.485E-04
CGA:  19    -0.381061767846E+03   -0.52427E-03   -0.52427E-03  8320   0.241E-01 0.145E-05
CGA:  20    -0.381062607426E+03   -0.83958E-03   -0.84019E-03  8320   0.194E-01 0.396E-04
CGA:  21    -0.381063117149E+03   -0.50972E-03   -0.50895E-03  8320   0.491E-02-0.130E-05
CGA:  22    -0.381063322063E+03   -0.20491E-03   -0.20492E-03  8320   0.647E-02 0.174E-05
CGA:  23    -0.381063494218E+03   -0.17216E-03   -0.17247E-03  8320   0.620E-02 0.805E-05
CGA:  24    -0.381064080565E+03   -0.58635E-03   -0.58392E-03  8320   0.467E-02 0.436E-04
CGA:  25    -0.381064179483E+03   -0.98918E-04   -0.98887E-04  8320   0.360E-02 0.107E-04
CGA:  26    -0.381064313082E+03   -0.13360E-03   -0.13364E-03  8320   0.135E-02 0.945E-05
CGA:  27    -0.381064425079E+03   -0.11200E-03   -0.11174E-03  8320   0.470E-02 0.580E-05
CGA:  28    -0.381064538467E+03   -0.11339E-03   -0.11340E-03  8320   0.201E-02 0.810E-05
CGA:  29    -0.381064615893E+03   -0.77426E-04   -0.77446E-04  8320   0.948E-03 0.608E-05
CGA:  30    -0.381064641476E+03   -0.25583E-04   -0.25603E-04  8320   0.553E-03 0.104E-05
CGA:  31    -0.381064659316E+03   -0.17840E-04   -0.17854E-04  8320   0.825E-03 0.183E-05
SDA:  32    -0.381064721216E+03   -0.61900E-04   -0.61581E-04  8320   0.656E-03 0.922E-05
CGA:  33    -0.381064739629E+03   -0.18413E-04   -0.18403E-04  8320   0.233E-03-0.793E-06
CGA:  34    -0.381064744289E+03   -0.46600E-05   -0.46618E-05  8320   0.133E-03 0.183E-06
CGA:  35    -0.381064757817E+03   -0.13528E-04   -0.13493E-04  8320   0.412E-03 0.529E-06
CGA:  36    -0.381064781374E+03   -0.23558E-04   -0.23562E-04  8320   0.276E-03-0.281E-06
CGA:  37    -0.381064793348E+03   -0.11974E-04   -0.11974E-04  8320   0.584E-04 0.355E-06
CGA:  38    -0.381064800272E+03   -0.69238E-05   -0.69258E-05  8320   0.249E-03-0.924E-07
   3 F= -.38106480E+03 E0= -.38104242E+03  d E =-.944408E+00  mag=    14.5663
       N       E                     dE             d eps       ncg     rms          ort
SDA:   1    -0.363243949468E+03    0.17821E+02    0.00000E+00  8320   0.172E+03 0.000E+00
CGA:   2    -0.367479668127E+03   -0.42357E+01   -0.28458E+01  8320   0.744E+02 0.297E+02
CGA:   3    -0.370396437334E+03   -0.29168E+01   -0.31137E+01  8320   0.107E+03 0.536E+01
CGA:   4    -0.374405654407E+03   -0.40092E+01   -0.40683E+01  8320   0.147E+03 0.168E+01
CGA:   5    -0.377481050906E+03   -0.30754E+01   -0.33623E+01  8320   0.230E+03-0.256E+02
CGA:   6    -0.379109380104E+03   -0.16283E+01   -0.13049E+01  8320   0.810E+02 0.235E+01
CGA:   7    -0.379389151235E+03   -0.27977E+00   -0.56068E+00  8320   0.660E+02-0.421E+02
CGA:   8    -0.380227342134E+03   -0.83819E+00   -0.11928E+01  8320   0.305E+02-0.113E+02
CGA:   9    -0.380745019236E+03   -0.51768E+00   -0.45493E+00  8320   0.109E+02 0.195E+01
CGA:  10    -0.381404423851E+03   -0.65940E+00   -0.66756E+00  8320   0.332E+02-0.324E+00
CGA:  11    -0.381835432252E+03   -0.43101E+00   -0.47112E+00  8320   0.168E+02-0.215E+01
CGA:  12    -0.382239344450E+03   -0.40391E+00   -0.39918E+00  8320   0.740E+01-0.157E-02
CGA:  13    -0.382326710826E+03   -0.87366E-01   -0.76210E-01  8320   0.196E+01 0.830E+00
CGA:  14    -0.382374930424E+03   -0.48220E-01   -0.47373E-01  8320   0.323E+01 0.877E-02
CGA:  15    -0.382450987023E+03   -0.76057E-01   -0.74481E-01  8320   0.577E+01 0.185E-02
CGA:  16    -0.382574446684E+03   -0.12346E+00   -0.12468E+00  8320   0.799E+01 0.163E-02
CGA:  17    -0.382676688396E+03   -0.10224E+00   -0.12535E+00  8320   0.395E+01-0.809E+00
CGA:  18    -0.382737919924E+03   -0.61232E-01   -0.65642E-01  8320   0.205E+01-0.594E-01
CGA:  19    -0.382767557617E+03   -0.29638E-01   -0.29645E-01  8320   0.512E+00-0.352E-03
CGA:  20    -0.382783458317E+03   -0.15901E-01   -0.15899E-01  8320   0.683E+00 0.777E-02
CGA:  21    -0.382798271914E+03   -0.14814E-01   -0.15003E-01  8320   0.342E+00 0.192E-02
CGA:  22    -0.382823707580E+03   -0.25436E-01   -0.25022E-01  8320   0.871E+00 0.959E-02
CGA:  23    -0.382837355699E+03   -0.13648E-01   -0.13871E-01  8320   0.135E+00-0.828E-02
CGA:  24    -0.382841972747E+03   -0.46170E-02   -0.46127E-02  8320   0.119E+00 0.979E-03
CGA:  25    -0.382846764596E+03   -0.47918E-02   -0.48011E-02  8320   0.196E+00-0.795E-03
CGA:  26    -0.382853335195E+03   -0.65706E-02   -0.65685E-02  8320   0.219E+00 0.763E-03
CGA:  27    -0.382863294687E+03   -0.99595E-02   -0.98887E-02  8320   0.110E+00 0.429E-02
CGA:  28    -0.382865349636E+03   -0.20549E-02   -0.20416E-02  8320   0.630E-01 0.318E-03
CGA:  29    -0.382867988137E+03   -0.26385E-02   -0.26335E-02  8320   0.483E-01 0.388E-03
CGA:  30    -0.382871531494E+03   -0.35434E-02   -0.35203E-02  8320   0.146E+00 0.602E-03
CGA:  31    -0.382875564953E+03   -0.40335E-02   -0.40367E-02  8320   0.669E-01 0.186E-03
CGA:  32    -0.382877154053E+03   -0.15891E-02   -0.15918E-02  8320   0.165E-01 0.447E-04
CGA:  33    -0.382877808303E+03   -0.65425E-03   -0.65397E-03  8320   0.121E-01 0.344E-04
CGA:  34    -0.382878174431E+03   -0.36613E-03   -0.36597E-03  8320   0.188E-01-0.129E-04
CGA:  35    -0.382880070994E+03   -0.18966E-02   -0.18968E-02  8320   0.244E-01-0.136E-06
CGA:  36    -0.382880885727E+03   -0.81473E-03   -0.81520E-03  8320   0.180E-01 0.471E-04
CGA:  37    -0.382881254226E+03   -0.36850E-03   -0.36737E-03  8320   0.661E-02 0.294E-04
SDA:  38    -0.382881494802E+03   -0.24058E-03   -0.24057E-03  8320   0.648E-02 0.103E-04
CGA:  39    -0.382881706864E+03   -0.21206E-03   -0.21214E-03  8320   0.516E-02 0.150E-04
CGA:  40    -0.382882189440E+03   -0.48258E-03   -0.48185E-03  8320   0.617E-02 0.116E-04
CGA:  41    -0.382882594915E+03   -0.40548E-03   -0.40500E-03  8320   0.797E-02 0.181E-04
CGA:  42    -0.382882740425E+03   -0.14551E-03   -0.14622E-03  8320   0.251E-02-0.134E-04
CGA:  43    -0.382882859763E+03   -0.11934E-03   -0.11931E-03  8320   0.138E-02 0.207E-05
CGA:  44    -0.382883157962E+03   -0.29820E-03   -0.35518E-05  8320   0.680E-02-0.223E-03
CGA:  45    -0.382883290287E+03   -0.13233E-03   -0.13186E-03  8320   0.212E-02-0.194E-05
CGA:  46    -0.382883344844E+03   -0.54557E-04   -0.54570E-04  8320   0.134E-02-0.427E-05
CGA:  47    -0.382883395006E+03   -0.50162E-04   -0.50266E-04  8320   0.127E-02 0.241E-06
CGA:  48    -0.382883536425E+03   -0.14142E-03   -0.14131E-03  8320   0.365E-02 0.248E-05
CGA:  49    -0.382883638991E+03   -0.10257E-03   -0.10328E-03  8320   0.144E-02-0.120E-04
CGA:  50    -0.382883679925E+03   -0.40934E-04   -0.40992E-04  8320   0.862E-03 0.186E-05
CGA:  51    -0.382883701448E+03   -0.21524E-04   -0.21671E-04  8320   0.506E-03-0.721E-06
CGA:  52    -0.382883770568E+03   -0.69120E-04   -0.68560E-04  8320   0.215E-02 0.756E-05
CGA:  53    -0.382883836098E+03   -0.65530E-04   -0.65770E-04  8320   0.452E-03 0.518E-05
CGA:  54    -0.382883853945E+03   -0.17848E-04   -0.17876E-04  8320   0.565E-03 0.989E-06
CGA:  55    -0.382883872994E+03   -0.19048E-04   -0.19095E-04  8320   0.574E-03 0.159E-05
CGA:  56    -0.382883911896E+03   -0.38902E-04   -0.38885E-04  8320   0.112E-02 0.268E-05
CGA:  57    -0.382883950858E+03   -0.38962E-04   -0.39035E-04  8320   0.427E-03 0.996E-06
CGA:  58    -0.382883968910E+03   -0.18052E-04   -0.18063E-04  8320   0.170E-03 0.108E-05
CGA:  59    -0.382883972865E+03   -0.39550E-05   -0.39830E-05  8320   0.101E-03 0.608E-06
   4 F= -.38288397E+03 E0= -.38286144E+03  d E =-.181917E+01  mag=    14.5447
       N       E                     dE             d eps       ncg     rms          ort
SDA:   1    -0.368607014856E+03    0.14277E+02    0.00000E+00  8320   0.128E+03 0.000E+00
CGA:   2    -0.371374030562E+03   -0.27670E+01   -0.17997E+01  8320   0.439E+02 0.452E+02
CGA:   3    -0.373252018800E+03   -0.18780E+01   -0.20540E+01  8320   0.123E+03-0.152E+01
CGA:   4    -0.375167479512E+03   -0.19155E+01   -0.25479E+01  8320   0.136E+03-0.246E+02
CGA:   5    -0.377474657325E+03   -0.23072E+01   -0.21171E+01  8320   0.148E+03 0.164E+02
CGA:   6    -0.379388984678E+03   -0.19143E+01   -0.26629E+01  8320   0.137E+03-0.425E+02
CGA:   7    -0.380042636531E+03   -0.65365E+00   -0.55682E+00  8320   0.565E+02-0.311E+01
CGA:   8    -0.380247192519E+03   -0.20456E+00   -0.28682E+00  8320   0.347E+02-0.199E+02
CGA:   9    -0.380345860823E+03   -0.98668E-01   -0.10803E+00  8320   0.453E+02-0.202E+01
CGA:  10    -0.380594365641E+03   -0.24850E+00   -0.47613E+00  8320   0.799E+02-0.183E+02
CGA:  11    -0.380721620673E+03   -0.12726E+00   -0.29233E+00  8320   0.649E+02-0.230E+02
CGA:  12    -0.380835003644E+03   -0.11338E+00   -0.32938E+00  8320   0.560E+02-0.273E+02
CGA:  13    -0.381026326681E+03   -0.19132E+00   -0.18218E+00  8320   0.609E+02 0.238E+01
CGA:  14    -0.381553848594E+03   -0.52752E+00   -0.39904E+00  8320   0.547E+02 0.194E+02
CGA:  15    -0.382121560764E+03   -0.56771E+00   -0.49236E+00  8320   0.359E+02 0.695E+01
CGA:  16    -0.382325480486E+03   -0.20392E+00   -0.21318E+00  8320   0.189E+02-0.282E+01
CGA:  17    -0.382400055962E+03   -0.74575E-01   -0.82703E-01  8320   0.125E+02-0.158E+01
CGA:  18    -0.382460287160E+03   -0.60231E-01   -0.67857E-01  8320   0.121E+02-0.108E+01
CGA:  19    -0.382535971054E+03   -0.75684E-01   -0.84433E-01  8320   0.147E+02-0.935E+00
CGA:  20    -0.382626437074E+03   -0.90466E-01   -0.91937E-01  8320   0.136E+02-0.276E+00
CGA:  21    -0.382703786192E+03   -0.77349E-01   -0.79895E-01  8320   0.103E+02-0.446E+00
CGA:  22    -0.382761700094E+03   -0.57914E-01   -0.51200E-01  8320   0.901E+01 0.117E+01
CGA:  23    -0.382828714744E+03   -0.67015E-01   -0.58545E-01  8320   0.111E+02 0.123E+01
CGA:  24    -0.382920546709E+03   -0.91832E-01   -0.86726E-01  8320   0.182E+02 0.559E+00
CGA:  25    -0.383026654639E+03   -0.10611E+00   -0.11669E+00  8320   0.213E+02-0.153E+01
CGA:  26    -0.383098106227E+03   -0.71452E-01   -0.87164E-01  8320   0.137E+02-0.294E+01
CGA:  27    -0.383139468088E+03   -0.41362E-01   -0.55727E-01  8320   0.910E+01-0.257E+01
CGA:  28    -0.383177852737E+03   -0.38385E-01   -0.45373E-01  8320   0.892E+01-0.899E+00
CGA:  29    -0.383230409881E+03   -0.52557E-01   -0.59737E-01  8320   0.811E+01-0.708E+00
CGA:  30    -0.383281957703E+03   -0.51548E-01   -0.62579E-01  8320   0.464E+01-0.775E+00
CGA:  31    -0.383312687669E+03   -0.30730E-01   -0.30043E-01  8320   0.252E+01 0.675E-01
SDA:  32    -0.383339131129E+03   -0.26443E-01   -0.25957E-01  8320   0.295E+01 0.205E-01
CGA:  33    -0.383388712315E+03   -0.49581E-01   -0.49701E-01  8320   0.134E+01 0.418E-01
CGA:  34    -0.383439026783E+03   -0.50314E-01   -0.50359E-01  8320   0.158E+01-0.146E-02
CGA:  35    -0.383548674647E+03   -0.10965E+00   -0.10820E+00  8320   0.260E+01 0.362E-01
CGA:  36    -0.383615119109E+03   -0.66444E-01   -0.65991E-01  8320   0.361E+00 0.840E-01
CGA:  37    -0.383633464235E+03   -0.18345E-01   -0.17969E-01  8320   0.135E+00 0.146E-01
CGA:  38    -0.383641353895E+03   -0.78897E-02   -0.79595E-02  8320   0.401E+00-0.220E-02
CGA:  39    -0.383653493308E+03   -0.12139E-01   -0.12161E-01  8320   0.214E+00-0.283E-02
CGA:  40    -0.383663655653E+03   -0.10162E-01   -0.10189E-01  8320   0.104E+00-0.116E-02
CGA:  41    -0.383665284879E+03   -0.16292E-02   -0.16324E-02  8320   0.428E-01-0.427E-04
CGA:  42    -0.383669658062E+03   -0.43732E-02   -0.43342E-02  8320   0.103E+00 0.607E-03
CGA:  43    -0.383673538903E+03   -0.38808E-02   -0.38471E-02  8320   0.587E-01 0.307E-02
CGA:  44    -0.383675240746E+03   -0.17018E-02   -0.17017E-02  8320   0.286E-01-0.115E-04
CGA:  45    -0.383675778777E+03   -0.53803E-03   -0.53997E-03  8320   0.886E-02-0.688E-06
CGA:  46    -0.383676596910E+03   -0.81813E-03   -0.80636E-03  8320   0.156E-01 0.214E-03
CGA:  47    -0.383677690609E+03   -0.10937E-02   -0.10941E-02  8320   0.323E-01-0.127E-04
CGA:  48    -0.383678456280E+03   -0.76567E-03   -0.76703E-03  8320   0.102E-01 0.255E-04
CGA:  49    -0.383678693091E+03   -0.23681E-03   -0.23768E-03  8320   0.383E-02 0.128E-04
CGA:  50    -0.383678964331E+03   -0.27124E-03   -0.27077E-03  8320   0.555E-02 0.130E-04
CGA:  51    -0.383679318792E+03   -0.35446E-03   -0.35404E-03  8320   0.179E-01 0.119E-04
CGA:  52    -0.383679947069E+03   -0.62828E-03   -0.62836E-03  8320   0.414E-02 0.167E-04
CGA:  53    -0.383680083075E+03   -0.13601E-03   -0.13602E-03  8320   0.224E-02 0.560E-06
CGA:  54    -0.383680184273E+03   -0.10120E-03   -0.10105E-03  8320   0.318E-02 0.140E-04
CGA:  55    -0.383680321906E+03   -0.13763E-03   -0.13749E-03  8320   0.532E-02 0.210E-04
CGA:  56    -0.383680564680E+03   -0.24277E-03   -0.24228E-03  8320   0.170E-02 0.494E-04
CGA:  57    -0.383680640660E+03   -0.75980E-04   -0.75887E-04  8320   0.116E-02 0.119E-04
CGA:  58    -0.383680672435E+03   -0.31775E-04   -0.31789E-04  8320   0.124E-02 0.317E-05
CGA:  59    -0.383680768480E+03   -0.96046E-04   -0.95692E-04  8320   0.211E-02 0.871E-05
CGA:  60    -0.383680844151E+03   -0.75670E-04   -0.75678E-04  8320   0.893E-03 0.440E-05
CGA:  61    -0.383680881689E+03   -0.37538E-04   -0.37540E-04  8320   0.669E-03-0.987E-06
CGA:  62    -0.383680894952E+03   -0.13263E-04   -0.13246E-04  8320   0.317E-03-0.285E-05
SDA:  63    -0.383680941787E+03   -0.46835E-04   -0.48099E-04  8320   0.792E-03-0.110E-04
CGA:  64    -0.383680959013E+03   -0.17226E-04   -0.17210E-04  8320   0.160E-03-0.504E-06
CGA:  65    -0.383680965510E+03   -0.64969E-05   -0.64984E-05  8320   0.117E-03 0.491E-06
   5 F= -.38368097E+03 E0= -.38365848E+03  d E =-.796993E+00  mag=    14.5142
       N       E                     dE             d eps       ncg     rms          ort
SDA:   1    -0.347685788515E+03    0.35995E+02    0.00000E+00  8320   0.246E+03 0.000E+00
CGA:   2    -0.355254848447E+03   -0.75691E+01   -0.46122E+01  8320   0.100E+03 0.109E+03
CGA:   3    -0.358948755538E+03   -0.36939E+01   -0.39113E+01  8320   0.290E+03-0.614E+01
CGA:   4    -0.363297432207E+03   -0.43487E+01   -0.52811E+01  8320   0.290E+03-0.429E+02
CGA:   5    -0.369506649748E+03   -0.62092E+01   -0.59878E+01  8320   0.317E+03 0.298E+01
CGA:   6    -0.375548681426E+03   -0.60420E+01   -0.51994E+01  8320   0.197E+03 0.338E+01
CGA:   7    -0.376902190037E+03   -0.13535E+01   -0.10499E+01  8320   0.804E+02 0.389E+02
CGA:   8    -0.377344634129E+03   -0.44244E+00   -0.33298E+00  8320   0.455E+02 0.250E+02
CGA:   9    -0.377607149658E+03   -0.26252E+00   -0.21315E+00  8320   0.493E+02 0.118E+02
CGA:  10    -0.377907234185E+03   -0.30008E+00   -0.29743E+00  8320   0.104E+03-0.621E+00
CGA:  11    -0.378185226378E+03   -0.27799E+00   -0.47062E+00  8320   0.243E+03-0.365E+02
CGA:  12    -0.378185092085E+03    0.13429E-03   -0.44471E+00  8320   0.337E+03-0.956E+02
CGA:  13    -0.378067007575E+03    0.11808E+00   -0.47194E+00  8320   0.294E+03-0.125E+03
CGA:  14    -0.378042922139E+03    0.24085E-01   -0.43782E+00  8320   0.216E+03-0.132E+03
CGA:  15    -0.378041287563E+03    0.16346E-02   -0.31887E+00  8320   0.201E+03-0.986E+02
CGA:  16    -0.378219184269E+03   -0.17790E+00   -0.29442E+00  8320   0.210E+03-0.329E+02
CGA:  17    -0.378795073875E+03   -0.57589E+00   -0.54791E+00  8320   0.178E+03 0.151E+01
CGA:  18    -0.379285252190E+03   -0.49018E+00   -0.60675E+00  8320   0.129E+03-0.492E+02
CGA:  19    -0.379480929947E+03   -0.19568E+00   -0.22488E+00  8320   0.106E+03-0.194E+02
CGA:  20    -0.379675874766E+03   -0.19494E+00   -0.20990E+00  8320   0.773E+02-0.136E+02
CGA:  21    -0.379796447596E+03   -0.12057E+00   -0.14609E+00  8320   0.514E+02-0.152E+02
CGA:  22    -0.379862267466E+03   -0.65820E-01   -0.78602E-01  8320   0.342E+02-0.746E+01
CGA:  23    -0.379912078063E+03   -0.49811E-01   -0.52449E-01  8320   0.238E+02-0.164E+01
CGA:  24    -0.379956406713E+03   -0.44329E-01   -0.44987E-01  8320   0.199E+02-0.328E+00
CGA:  25    -0.380002611323E+03   -0.46205E-01   -0.47799E-01  8320   0.234E+02-0.560E+00
CGA:  26    -0.380065849203E+03   -0.63238E-01   -0.68724E-01  8320   0.372E+02-0.154E+01
CGA:  27    -0.380165956233E+03   -0.10011E+00   -0.12228E+00  8320   0.640E+02-0.519E+01
CGA:  28    -0.380307116028E+03   -0.14116E+00   -0.20649E+00  8320   0.895E+02-0.135E+02
CGA:  29    -0.380484270588E+03   -0.17715E+00   -0.21124E+00  8320   0.821E+02-0.759E+01
CGA:  30    -0.380687924827E+03   -0.20365E+00   -0.21066E+00  8320   0.656E+02-0.148E+01
CGA:  31    -0.380887293907E+03   -0.19937E+00   -0.20826E+00  8320   0.704E+02-0.250E+01
SDA:  32    -0.381131160137E+03   -0.24387E+00   -0.27003E+00  8320   0.103E+03-0.559E+01
CGA:  33    -0.382375641542E+03   -0.12445E+01   -0.12454E+01  8320   0.343E+02 0.258E+01
CGA:  34    -0.383081757219E+03   -0.70612E+00   -0.70265E+00  8320   0.511E+01 0.250E+00
CGA:  35    -0.383203998351E+03   -0.12224E+00   -0.12059E+00  8320   0.431E+01 0.146E+00
CGA:  36    -0.383467193644E+03   -0.26320E+00   -0.24607E+00  8320   0.866E+01 0.504E+00
CGA:  37    -0.383723876766E+03   -0.25668E+00   -0.27504E+00  8320   0.114E+02-0.132E+01
CGA:  38    -0.384026526735E+03   -0.30265E+00   -0.29946E+00  8320   0.153E+01 0.206E+00
CGA:  39    -0.384058007627E+03   -0.31481E-01   -0.31152E-01  8320   0.133E+01 0.669E-01
CGA:  40    -0.384108015278E+03   -0.50008E-01   -0.50827E-01  8320   0.110E+01-0.445E-01
CGA:  41    -0.384151179460E+03   -0.43164E-01   -0.42580E-01  8320   0.153E+01 0.265E-01
CGA:  42    -0.384212158354E+03   -0.60979E-01   -0.59997E-01  8320   0.693E+00 0.488E-01
CGA:  43    -0.384227773200E+03   -0.15615E-01   -0.15610E-01  8320   0.496E+00 0.166E-02
CGA:  44    -0.384243757862E+03   -0.15985E-01   -0.15746E-01  8320   0.209E+00 0.176E-01
CGA:  45    -0.384276384231E+03   -0.32626E-01   -0.39713E-02  8320   0.737E+00 0.312E-01
CGA:  46    -0.384299215737E+03   -0.22832E-01   -0.23409E-01  8320   0.614E+00 0.306E-04
CGA:  47    -0.384314575030E+03   -0.15359E-01   -0.15086E-01  8320   0.121E+00 0.536E-03
CGA:  48    -0.384317808339E+03   -0.32333E-02   -0.32482E-02  8320   0.853E-01 0.257E-03
CGA:  49    -0.384327171517E+03   -0.93632E-02   -0.91190E-02  8320   0.177E+00 0.381E-02
CGA:  50    -0.384340290727E+03   -0.13119E-01   -0.13427E-01  8320   0.130E+00-0.871E-02
CGA:  51    -0.384343915123E+03   -0.36244E-02   -0.36658E-02  8320   0.393E-01 0.505E-03
CGA:  52    -0.384345420026E+03   -0.15049E-02   -0.15055E-02  8320   0.260E-01 0.110E-03
CGA:  53    -0.384348206164E+03   -0.27861E-02   -0.27764E-02  8320   0.889E-01 0.167E-03
CGA:  54    -0.384350708557E+03   -0.25024E-02   -0.25054E-02  8320   0.424E-01-0.406E-04
CGA:  55    -0.384352456490E+03   -0.17479E-02   -0.17478E-02  8320   0.149E-01-0.631E-04
CGA:  56    -0.384353121201E+03   -0.66471E-03   -0.66450E-03  8320   0.136E-01 0.621E-04
CGA:  57    -0.384353928784E+03   -0.80758E-03   -0.80763E-03  8320   0.186E-01-0.600E-05
CGA:  58    -0.384355082501E+03   -0.11537E-02   -0.11550E-02  8320   0.158E-01-0.587E-04
CGA:  59    -0.384355464128E+03   -0.38163E-03   -0.38235E-03  8320   0.811E-02-0.122E-04
CGA:  60    -0.384355750582E+03   -0.28645E-03   -0.28651E-03  8320   0.409E-02 0.903E-05
CGA:  61    -0.384356198980E+03   -0.44840E-03   -0.44383E-03  8320   0.107E-01 0.721E-04
CGA:  62    -0.384356759352E+03   -0.56037E-03   -0.56022E-03  8320   0.790E-02 0.350E-04
SDA:  63    -0.384356990258E+03   -0.23091E-03   -0.23130E-03  8320   0.257E-02 0.115E-04
CGA:  64    -0.384357054356E+03   -0.64098E-04   -0.63833E-04  8320   0.246E-02-0.873E-06
CGA:  65    -0.384357231455E+03   -0.17710E-03   -0.17764E-03  8320   0.314E-02-0.206E-04
CGA:  66    -0.384357552161E+03   -0.32071E-03   -0.32394E-03  8320   0.171E-02-0.572E-04
CGA:  67    -0.384357612398E+03   -0.60237E-04   -0.60192E-04  8320   0.126E-02-0.263E-05
CGA:  68    -0.384357667061E+03   -0.54663E-04   -0.54706E-04  8320   0.144E-02 0.681E-05
CGA:  69    -0.384357773627E+03   -0.10657E-03   -0.10604E-03  8320   0.417E-02 0.211E-04
CGA:  70    -0.384357924265E+03   -0.15064E-03   -0.15121E-03  8320   0.864E-03 0.313E-04
CGA:  71    -0.384357967582E+03   -0.43316E-04   -0.43312E-04  8320   0.390E-03 0.535E-05
CGA:  72    -0.384358053230E+03   -0.85649E-04   -0.86440E-04  8320   0.164E-02-0.454E-05
CGA:  73    -0.384358096033E+03   -0.42803E-04   -0.42712E-04  8320   0.902E-03-0.176E-05
CGA:  74    -0.384358127502E+03   -0.31469E-04   -0.31428E-04  8320   0.394E-03-0.314E-05
CGA:  75    -0.384358140157E+03   -0.12655E-04   -0.12623E-04  8320   0.319E-03-0.132E-05
CGA:  76    -0.384358177362E+03   -0.37206E-04   -0.37306E-04  8320   0.540E-03-0.183E-05
CGA:  77    -0.384358240658E+03   -0.63295E-04   -0.63140E-04  8320   0.130E-03 0.235E-05
CGA:  78    -0.384358248957E+03   -0.82988E-05   -0.82920E-05  8320   0.258E-03 0.158E-05
CGA:  79    -0.384358260097E+03   -0.11140E-04   -0.11178E-04  8320   0.334E-03 0.184E-05
CGA:  80    -0.384358279516E+03   -0.19419E-04   -0.19424E-04  8320   0.339E-03 0.382E-05
CGA:  81    -0.384358287353E+03   -0.78370E-05   -0.78966E-05  8320   0.399E-04 0.123E-05
   6 F= -.38435829E+03 E0= -.38433579E+03  d E =-.677322E+00  mag=    14.4434
       N       E                     dE             d eps       ncg     rms          ort
SDA:   1    -0.360936399881E+03    0.23422E+02    0.00000E+00  8320   0.129E+03 0.000E+00
CGA:   2    -0.364848656226E+03   -0.39123E+01   -0.28636E+01  8320   0.786E+02 0.170E+02
CGA:   3    -0.371963755152E+03   -0.71151E+01   -0.70210E+01  8320   0.128E+03 0.321E+01
CGA:   4    -0.378712132085E+03   -0.67484E+01   -0.57952E+01  8320   0.105E+03 0.304E+01
CGA:   5    -0.380591824054E+03   -0.18797E+01   -0.15449E+01  8320   0.522E+02 0.138E+02
CGA:   6    -0.381078372296E+03   -0.48655E+00   -0.37415E+00  8320   0.226E+02 0.149E+02
CGA:   7    -0.381414722600E+03   -0.33635E+00   -0.35551E+00  8320   0.408E+02-0.137E+01
CGA:   8    -0.381883983413E+03   -0.46926E+00   -0.48105E+00  8320   0.750E+02-0.626E+00
CGA:   9    -0.382433286405E+03   -0.54930E+00   -0.84117E+00  8320   0.977E+02-0.219E+02
CGA:  10    -0.382929487459E+03   -0.49620E+00   -0.49641E+00  8320   0.719E+02 0.255E+01
CGA:  11    -0.383369557319E+03   -0.44007E+00   -0.36599E+00  8320   0.317E+02 0.141E+02
CGA:  12    -0.383620817886E+03   -0.25126E+00   -0.23265E+00  8320   0.187E+02 0.273E+01
CGA:  13    -0.383762833181E+03   -0.14202E+00   -0.11130E+00  8320   0.137E+02 0.509E+01
CGA:  14    -0.383867242192E+03   -0.10441E+00   -0.93098E-01  8320   0.795E+01 0.165E+01
CGA:  15    -0.383915870784E+03   -0.48629E-01   -0.53547E-01  8320   0.554E+01-0.800E+00
CGA:  16    -0.383943934054E+03   -0.28063E-01   -0.29529E-01  8320   0.562E+01-0.233E+00
CGA:  17    -0.383986320721E+03   -0.42387E-01   -0.46929E-01  8320   0.946E+01-0.431E+00
CGA:  18    -0.384063947729E+03   -0.77627E-01   -0.84963E-01  8320   0.144E+02-0.629E+00
CGA:  19    -0.384152768821E+03   -0.88821E-01   -0.10214E+00  8320   0.135E+02-0.142E+01
CGA:  20    -0.384238490941E+03   -0.85722E-01   -0.10785E+00  8320   0.118E+02-0.176E+01
CGA:  21    -0.384313631393E+03   -0.75140E-01   -0.83750E-01  8320   0.755E+01-0.807E+00
CGA:  22    -0.384367556447E+03   -0.53925E-01   -0.65836E-01  8320   0.374E+01-0.889E+00
CGA:  23    -0.384393193217E+03   -0.25637E-01   -0.25795E-01  8320   0.149E+01-0.961E-02
CGA:  24    -0.384407207231E+03   -0.14014E-01   -0.14143E-01  8320   0.104E+01-0.101E-01
CGA:  25    -0.384421990290E+03   -0.14783E-01   -0.14714E-01  8320   0.134E+01 0.198E-02
CGA:  26    -0.384441052475E+03   -0.19062E-01   -0.19170E-01  8320   0.155E+01-0.218E-02
CGA:  27    -0.384462563947E+03   -0.21511E-01   -0.22102E-01  8320   0.184E+01-0.917E-02
CGA:  28    -0.384495399792E+03   -0.32836E-01   -0.33514E-01  8320   0.228E+01 0.261E-01
CGA:  29    -0.384530374789E+03   -0.34975E-01   -0.35330E-01  8320   0.170E+01-0.324E-02
CGA:  30    -0.384552809812E+03   -0.22435E-01   -0.22952E-01  8320   0.771E+00-0.109E-01
CGA:  31    -0.384561676054E+03   -0.88662E-02   -0.89899E-02  8320   0.316E+00-0.459E-02
SDA:  32    -0.384567364913E+03   -0.56889E-02   -0.56802E-02  8320   0.367E+00-0.494E-03
CGA:  33    -0.384575135198E+03   -0.77703E-02   -0.77760E-02  8320   0.249E+00 0.261E-02
CGA:  34    -0.384601080253E+03   -0.25945E-01   -0.46057E-05  8320   0.457E+00-0.717E-01
CGA:  35    -0.384606486095E+03   -0.54058E-02   -0.55332E-02  8320   0.125E+00-0.498E-02
CGA:  36    -0.384609793594E+03   -0.33075E-02   -0.33131E-02  8320   0.719E-01 0.739E-05
CGA:  37    -0.384611481567E+03   -0.16880E-02   -0.16867E-02  8320   0.559E-01 0.431E-04
CGA:  38    -0.384615879769E+03   -0.43982E-02   -0.43767E-02  8320   0.138E+00 0.525E-03
CGA:  39    -0.384619136259E+03   -0.32565E-02   -0.32691E-02  8320   0.643E-01-0.803E-04
CGA:  40    -0.384621428685E+03   -0.22924E-02   -0.22934E-02  8320   0.459E-01 0.147E-03
CGA:  41    -0.384622333924E+03   -0.90524E-03   -0.90732E-03  8320   0.130E-01-0.284E-04
CGA:  42    -0.384622820239E+03   -0.48632E-03   -0.48630E-03  8320   0.160E-01-0.160E-04
CGA:  43    -0.384623321010E+03   -0.50077E-03   -0.50080E-03  8320   0.161E-01 0.278E-05
CGA:  44    -0.384624559667E+03   -0.12387E-02   -0.12369E-02  8320   0.397E-01 0.425E-04
CGA:  45    -0.384625324336E+03   -0.76467E-03   -0.76493E-03  8320   0.790E-02-0.242E-04
CGA:  46    -0.384625574729E+03   -0.25039E-03   -0.25051E-03  8320   0.626E-02 0.320E-05
CGA:  47    -0.384625731504E+03   -0.15677E-03   -0.15694E-03  8320   0.416E-02 0.298E-05
CGA:  48    -0.384626062616E+03   -0.33111E-03   -0.33041E-03  8320   0.130E-01 0.153E-04
CGA:  49    -0.384626455277E+03   -0.39266E-03   -0.39273E-03  8320   0.595E-02 0.670E-05
CGA:  50    -0.384626626739E+03   -0.17146E-03   -0.17146E-03  8320   0.347E-02 0.449E-05
CGA:  51    -0.384626705758E+03   -0.79019E-04   -0.79131E-04  8320   0.157E-02 0.179E-05
CGA:  52    -0.384626829793E+03   -0.12404E-03   -0.12390E-03  8320   0.525E-02 0.258E-05
CGA:  53    -0.384626987984E+03   -0.15819E-03   -0.15808E-03  8320   0.304E-02-0.187E-05
CGA:  54    -0.384627121023E+03   -0.13304E-03   -0.13304E-03  8320   0.259E-02 0.787E-07
CGA:  55    -0.384627171094E+03   -0.50072E-04   -0.50224E-04  8320   0.932E-03-0.414E-05
CGA:  56    -0.384627225434E+03   -0.54339E-04   -0.54329E-04  8320   0.169E-02-0.838E-07
CGA:  57    -0.384627280673E+03   -0.55239E-04   -0.55208E-04  8320   0.166E-02-0.249E-05
CGA:  58    -0.384627376744E+03   -0.96071E-04   -0.96113E-04  8320   0.220E-02-0.248E-05
CGA:  59    -0.384627421247E+03   -0.44504E-04   -0.44538E-04  8320   0.547E-03 0.144E-05
CGA:  60    -0.384627441781E+03   -0.20534E-04   -0.20540E-04  8320   0.501E-03 0.301E-05
CGA:  61    -0.384627458443E+03   -0.16662E-04   -0.16676E-04  8320   0.640E-03 0.217E-05
CGA:  62    -0.384627516357E+03   -0.57914E-04   -0.57405E-04  8320   0.776E-03 0.964E-05
SDA:  63    -0.384627530920E+03   -0.14563E-04   -0.14608E-04  8320   0.266E-03 0.237E-05
CGA:  64    -0.384627540845E+03   -0.99251E-05   -0.99193E-05  8320   0.275E-03-0.258E-05
   7 F= -.38462754E+03 E0= -.38460435E+03  d E =-.269253E+00  mag=    14.3571
       N       E                     dE             d eps       ncg     rms          ort
SDA:   1    -0.358035247257E+03    0.26592E+02    0.00000E+00  8320   0.909E+02 0.000E+00
CGA:   2    -0.362399732900E+03   -0.43645E+01   -0.45279E+01  8320   0.232E+03-0.728E+01
CGA:   3    -0.377068791350E+03   -0.14669E+02   -0.14234E+02  8320   0.846E+02 0.676E+01
CGA:   4    -0.379464854453E+03   -0.23961E+01   -0.19443E+01  8320   0.602E+02 0.603E+01
CGA:   5    -0.380526580822E+03   -0.10617E+01   -0.97417E+00  8320   0.284E+02 0.259E+01
CGA:   6    -0.381139762082E+03   -0.61318E+00   -0.59615E+00  8320   0.512E+02 0.199E+00
CGA:   7    -0.382815742068E+03   -0.16760E+01   -0.16960E+01  8320   0.786E+02 0.118E+01
CGA:   8    -0.383696044922E+03   -0.88030E+00   -0.84198E+00  8320   0.164E+02 0.328E+01
CGA:   9    -0.383960116139E+03   -0.26407E+00   -0.28386E+00  8320   0.142E+02-0.773E+00
CGA:  10    -0.384150588812E+03   -0.19047E+00   -0.14087E+00  8320   0.502E+01 0.380E+01
CGA:  11    -0.384207436246E+03   -0.56847E-01   -0.50478E-01  8320   0.241E+01 0.657E+00
CGA:  12    -0.384278803723E+03   -0.71367E-01   -0.71515E-01  8320   0.913E+01 0.332E-02
CGA:  13    -0.384461038544E+03   -0.18223E+00   -0.18386E+00  8320   0.149E+02-0.121E-01
CGA:  14    -0.384572657673E+03   -0.11162E+00   -0.10318E+00  8320   0.521E+01 0.984E+00
CGA:  15    -0.384610658071E+03   -0.38000E-01   -0.37964E-01  8320   0.264E+01-0.166E-01
CGA:  16    -0.384638539395E+03   -0.27881E-01   -0.29466E-01  8320   0.272E+01-0.100E+00
CGA:  17    -0.384660175571E+03   -0.21636E-01   -0.22128E-01  8320   0.118E+01-0.484E-01
CGA:  18    -0.384668278091E+03   -0.81025E-02   -0.84130E-02  8320   0.613E+00-0.358E-01
CGA:  19    -0.384677602858E+03   -0.93248E-02   -0.95646E-02  8320   0.139E+01-0.351E-02
CGA:  20    -0.384719431884E+03   -0.41829E-01   -0.41436E-01  8320   0.303E+01 0.615E-01
CGA:  21    -0.384748273008E+03   -0.28841E-01   -0.25263E-01  8320   0.112E+01 0.340E+00
CGA:  22    -0.384758966548E+03   -0.10694E-01   -0.10504E-01  8320   0.703E+00 0.159E-01
CGA:  23    -0.384767887030E+03   -0.89205E-02   -0.89960E-02  8320   0.795E+00-0.293E-02
CGA:  24    -0.384775449838E+03   -0.75628E-02   -0.80739E-02  8320   0.415E+00-0.298E-01
CGA:  25    -0.384778706521E+03   -0.32567E-02   -0.34821E-02  8320   0.190E+00-0.175E-01
CGA:  26    -0.384781345782E+03   -0.26393E-02   -0.26651E-02  8320   0.252E+00-0.894E-04
CGA:  27    -0.384786444835E+03   -0.50991E-02   -0.50964E-02  8320   0.334E+00-0.577E-03
CGA:  28    -0.384790364893E+03   -0.39201E-02   -0.38955E-02  8320   0.195E+00 0.834E-03
CGA:  29    -0.384793057310E+03   -0.26924E-02   -0.26885E-02  8320   0.216E+00 0.987E-05
CGA:  30    -0.384797180934E+03   -0.41236E-02   -0.41295E-02  8320   0.300E+00 0.108E-02
CGA:  31    -0.384800809324E+03   -0.36284E-02   -0.36808E-02  8320   0.129E+00-0.117E-02
SDA:  32    -0.384802108250E+03   -0.12989E-02   -0.13058E-02  8320   0.653E-01-0.388E-03
CGA:  33    -0.384804132149E+03   -0.20239E-02   -0.20265E-02  8320   0.326E-01-0.219E-03
CGA:  34    -0.384805344342E+03   -0.12122E-02   -0.12126E-02  8320   0.468E-01-0.355E-04
CGA:  35    -0.384809982867E+03   -0.46385E-02   -0.39985E-06  8320   0.303E-01-0.135E-01
CGA:  36    -0.384810888400E+03   -0.90553E-03   -0.90516E-03  8320   0.220E-01 0.717E-04
CGA:  37    -0.384811628746E+03   -0.74035E-03   -0.74061E-03  8320   0.174E-01 0.230E-04
CGA:  38    -0.384812652709E+03   -0.10240E-02   -0.10228E-02  8320   0.167E-01 0.518E-04
CGA:  39    -0.384813631525E+03   -0.97882E-03   -0.97809E-03  8320   0.216E-01 0.373E-04
CGA:  40    -0.384814252302E+03   -0.62078E-03   -0.62097E-03  8320   0.577E-02 0.162E-04
CGA:  41    -0.384814556496E+03   -0.30419E-03   -0.30438E-03  8320   0.652E-02-0.106E-04
CGA:  42    -0.384814908582E+03   -0.35209E-03   -0.35208E-03  8320   0.106E-01-0.398E-06
CGA:  43    -0.384815471732E+03   -0.56315E-03   -0.56300E-03  8320   0.747E-02 0.954E-05
CGA:  44    -0.384815792458E+03   -0.32073E-03   -0.32073E-03  8320   0.430E-02-0.355E-05
CGA:  45    -0.384815910218E+03   -0.11776E-03   -0.11779E-03  8320   0.227E-02 0.129E-05
CGA:  46    -0.384816129752E+03   -0.21953E-03   -0.22010E-03  8320   0.491E-02-0.117E-04
CGA:  47    -0.384816353831E+03   -0.22408E-03   -0.22406E-03  8320   0.473E-02 0.815E-05
CGA:  48    -0.384816515228E+03   -0.16140E-03   -0.16133E-03  8320   0.179E-02-0.185E-05
CGA:  49    -0.384816606978E+03   -0.91749E-04   -0.91797E-04  8320   0.195E-02-0.495E-05
CGA:  50    -0.384816691602E+03   -0.84625E-04   -0.84620E-04  8320   0.218E-02-0.604E-05
CGA:  51    -0.384816819189E+03   -0.12759E-03   -0.12762E-03  8320   0.150E-02-0.255E-05
CGA:  52    -0.384816870717E+03   -0.51528E-04   -0.51489E-04  8320   0.871E-03-0.348E-05
CGA:  53    -0.384816897934E+03   -0.27217E-04   -0.27202E-04  8320   0.378E-03-0.102E-05
CGA:  54    -0.384816933408E+03   -0.35474E-04   -0.35604E-04  8320   0.108E-02-0.276E-05
CGA:  55    -0.384816976975E+03   -0.43567E-04   -0.43568E-04  8320   0.711E-03-0.646E-07
CGA:  56    -0.384817005650E+03   -0.28675E-04   -0.28666E-04  8320   0.285E-03-0.745E-06
CGA:  57    -0.384817016118E+03   -0.10468E-04   -0.10477E-04  8320   0.256E-03 0.928E-06
CGA:  58    -0.384817029470E+03   -0.13352E-04   -0.13343E-04  8320   0.306E-03 0.131E-05
CGA:  59    -0.384817054786E+03   -0.25316E-04   -0.25123E-04  8320   0.382E-03 0.523E-05
CGA:  60    -0.384817064842E+03   -0.10056E-04   -0.10075E-04  8320   0.146E-03 0.923E-06
CGA:  61    -0.384817072556E+03   -0.77139E-05   -0.77179E-05  8320   0.137E-03-0.666E-06
   8 F= -.38481707E+03 E0= -.38479228E+03  d E =-.189532E+00  mag=    14.2790
       N       E                     dE             d eps       ncg     rms          ort
SDA:   1    -0.334154903465E+03    0.50662E+02    0.00000E+00  8320   0.187E+03 0.000E+00
CGA:   2    -0.344602349386E+03   -0.10447E+02   -0.11685E+02  8320   0.635E+03-0.463E+02
CGA:   3    -0.363402222782E+03   -0.18800E+02   -0.18943E+02  8320   0.346E+03 0.150E+02
CGA:   4    -0.370237769533E+03   -0.68355E+01   -0.63634E+01  8320   0.304E+03-0.616E+02
CGA:   5    -0.372522883458E+03   -0.22851E+01   -0.33841E+01  8320   0.300E+03-0.935E+02
CGA:   6    -0.373906908349E+03   -0.13840E+01   -0.13270E+01  8320   0.178E+03-0.250E+02
CGA:   7    -0.374656097314E+03   -0.74919E+00   -0.10075E+01  8320   0.191E+03-0.496E+02
CGA:   8    -0.375076516877E+03   -0.42042E+00   -0.98331E+00  8320   0.366E+03-0.814E+02
CGA:   9    -0.374976338301E+03    0.10018E+00   -0.13191E+01  8320   0.512E+03-0.228E+03
CGA:  10    -0.379090494706E+03   -0.41142E+01   -0.61674E+01  8320   0.137E+03-0.153E+03
CGA:  11    -0.380484010608E+03   -0.13935E+01   -0.16091E+01  8320   0.423E+02-0.759E+01
CGA:  12    -0.381036959985E+03   -0.55295E+00   -0.57250E+00  8320   0.216E+02-0.109E+01
CGA:  13    -0.382164859853E+03   -0.11279E+01   -0.11763E+01  8320   0.546E+02-0.189E+01
CGA:  14    -0.383370720421E+03   -0.12059E+01   -0.12452E+01  8320   0.390E+02 0.281E+00
CGA:  15    -0.383881734719E+03   -0.51101E+00   -0.57888E+00  8320   0.135E+02-0.313E+01
CGA:  16    -0.384047505561E+03   -0.16577E+00   -0.16762E+00  8320   0.319E+01-0.855E-01
CGA:  17    -0.384132805259E+03   -0.85300E-01   -0.86078E-01  8320   0.416E+01 0.431E-01
CGA:  18    -0.384303440756E+03   -0.17064E+00   -0.16924E+00  8320   0.766E+01 0.122E+00
CGA:  19    -0.384508842572E+03   -0.20540E+00   -0.20704E+00  8320   0.730E+01 0.388E-01
CGA:  20    -0.384677644283E+03   -0.16880E+00   -0.17602E+00  8320   0.109E+01 0.143E+00
CGA:  21    -0.384712113167E+03   -0.34469E-01   -0.34545E-01  8320   0.103E+01 0.432E-01
CGA:  22    -0.384756915451E+03   -0.44802E-01   -0.44019E-01  8320   0.947E+00 0.620E-01
CGA:  23    -0.384787361073E+03   -0.30446E-01   -0.30494E-01  8320   0.105E+01 0.101E-01
CGA:  24    -0.384817597959E+03   -0.30237E-01   -0.30214E-01  8320   0.316E+00-0.230E-02
CGA:  25    -0.384829674726E+03   -0.12077E-01   -0.11995E-01  8320   0.267E+00 0.905E-02
CGA:  26    -0.384838330636E+03   -0.86559E-02   -0.86652E-02  8320   0.204E+00 0.498E-02
CGA:  27    -0.384851487745E+03   -0.13157E-01   -0.12774E-01  8320   0.455E+00 0.126E-01
CGA:  28    -0.384864727219E+03   -0.13239E-01   -0.13300E-01  8320   0.135E+00 0.276E-02
CGA:  29    -0.384869700673E+03   -0.49735E-02   -0.49636E-02  8320   0.917E-01 0.197E-02
CGA:  30    -0.384874105448E+03   -0.44048E-02   -0.43702E-02  8320   0.121E+00 0.205E-02
CGA:  31    -0.384884485579E+03   -0.10380E-01   -0.10335E-01  8320   0.148E+00 0.108E-02
CGA:  32    -0.384889116995E+03   -0.46314E-02   -0.46209E-02  8320   0.603E-01-0.520E-03
CGA:  33    -0.384891230409E+03   -0.21134E-02   -0.21142E-02  8320   0.361E-01 0.306E-03
CGA:  34    -0.384893230687E+03   -0.20003E-02   -0.19962E-02  8320   0.648E-01 0.188E-03
CGA:  35    -0.384895782365E+03   -0.25517E-02   -0.25511E-02  8320   0.332E-01 0.198E-03
CGA:  36    -0.384896953169E+03   -0.11708E-02   -0.11712E-02  8320   0.208E-01 0.683E-04
CGA:  37    -0.384897726773E+03   -0.77360E-03   -0.77356E-03  8320   0.126E-01-0.987E-04
CGA:  38    -0.384898665573E+03   -0.93880E-03   -0.92996E-03  8320   0.189E-01 0.238E-03
CGA:  39    -0.384899394381E+03   -0.72881E-03   -0.72877E-03  8320   0.121E-01 0.192E-05
SDA:  40    -0.384900013621E+03   -0.61924E-03   -0.61837E-03  8320   0.827E-02 0.563E-04
CGA:  41    -0.384900157917E+03   -0.14430E-03   -0.14401E-03  8320   0.305E-02 0.904E-05
CGA:  42    -0.384900523667E+03   -0.36575E-03   -0.36764E-03  8320   0.823E-02-0.234E-04
CGA:  43    -0.384900885412E+03   -0.36175E-03   -0.36176E-03  8320   0.765E-02-0.147E-04
CGA:  44    -0.384901093329E+03   -0.20792E-03   -0.20706E-03  8320   0.186E-02-0.674E-05
CGA:  45    -0.384901465148E+03   -0.37182E-03   -0.37473E-03  8320   0.447E-02-0.195E-04
CGA:  46    -0.384901723718E+03   -0.25857E-03   -0.25862E-03  8320   0.432E-02-0.597E-05
CGA:  47    -0.384901817148E+03   -0.93430E-04   -0.93503E-04  8320   0.154E-02-0.601E-05
CGA:  48    -0.384901909332E+03   -0.92183E-04   -0.92176E-04  8320   0.135E-02 0.962E-06
CGA:  49    -0.384902107095E+03   -0.19776E-03   -0.19656E-03  8320   0.167E-02 0.128E-04
CGA:  50    -0.384902149537E+03   -0.42442E-04   -0.42532E-04  8320   0.725E-03 0.692E-06
CGA:  51    -0.384902177649E+03   -0.28113E-04   -0.28131E-04  8320   0.374E-03 0.165E-05
CGA:  52    -0.384902261489E+03   -0.83840E-04   -0.82579E-04  8320   0.578E-03 0.746E-05
CGA:  53    -0.384902295059E+03   -0.33570E-04   -0.33583E-04  8320   0.240E-03 0.350E-05
CGA:  54    -0.384902304164E+03   -0.91047E-05   -0.91471E-05  8320   0.338E-03 0.148E-05
CGA:  55    -0.384902331003E+03   -0.26839E-04   -0.26686E-04  8320   0.329E-03 0.783E-05
CGA:  56    -0.384902347849E+03   -0.16846E-04   -0.16897E-04  8320   0.387E-03 0.490E-05
CGA:  57    -0.384902357473E+03   -0.96244E-05   -0.97441E-05  8320   0.102E-03 0.261E-05
   9 F= -.38490236E+03 E0= -.38487778E+03  d E =-.852849E-01  mag=    14.2538
       N       E                     dE             d eps       ncg     rms          ort
SDA:   1    -0.375444611013E+03    0.94577E+01    0.00000E+00  8320   0.573E+02 0.000E+00
CGA:   2    -0.377021420659E+03   -0.15768E+01   -0.15154E+01  8320   0.574E+02-0.120E+01
CGA:   3    -0.380369099003E+03   -0.33477E+01   -0.33704E+01  8320   0.617E+02-0.389E+01
CGA:   4    -0.382488724572E+03   -0.21196E+01   -0.19621E+01  8320   0.360E+02-0.113E+01
CGA:   5    -0.383133729316E+03   -0.64500E+00   -0.57330E+00  8320   0.126E+02 0.324E+01
CGA:   6    -0.383677818271E+03   -0.54409E+00   -0.54583E+00  8320   0.210E+02 0.606E-02
CGA:   7    -0.384058180814E+03   -0.38036E+00   -0.41841E+00  8320   0.998E+01-0.146E+01
CGA:   8    -0.384318799978E+03   -0.26062E+00   -0.26037E+00  8320   0.811E+01 0.200E-01
CGA:   9    -0.384647238816E+03   -0.32844E+00   -0.33050E+00  8320   0.505E+01 0.603E-01
CGA:  10    -0.384794525967E+03   -0.14729E+00   -0.14255E+00  8320   0.371E+01 0.969E-01
CGA:  11    -0.384863337898E+03   -0.68812E-01   -0.66110E-01  8320   0.577E+00 0.104E+00
CGA:  12    -0.384898923846E+03   -0.35586E-01   -0.35525E-01  8320   0.161E+01 0.340E-02
CGA:  13    -0.384940334315E+03   -0.41410E-01   -0.41218E-01  8320   0.931E+00 0.259E-02
CGA:  14    -0.384976157095E+03   -0.35823E-01   -0.36102E-01  8320   0.434E+00 0.106E-01
CGA:  15    -0.384983049429E+03   -0.68923E-02   -0.70988E-02  8320   0.139E+00-0.887E-02
CGA:  16    -0.384991213288E+03   -0.81639E-02   -0.81713E-02  8320   0.226E+00-0.410E-03
CGA:  17    -0.384998800145E+03   -0.75869E-02   -0.75794E-02  8320   0.199E+00-0.888E-04
CGA:  18    -0.385007876291E+03   -0.90761E-02   -0.90706E-02  8320   0.154E+00 0.433E-02
CGA:  19    -0.385011540025E+03   -0.36637E-02   -0.37262E-02  8320   0.850E-01-0.117E-02
CGA:  20    -0.385015147886E+03   -0.36079E-02   -0.36084E-02  8320   0.423E-01 0.239E-03
CGA:  21    -0.385018373084E+03   -0.32252E-02   -0.32134E-02  8320   0.134E+00 0.338E-03
CGA:  22    -0.385022300462E+03   -0.39274E-02   -0.39391E-02  8320   0.390E-01-0.426E-04
CGA:  23    -0.385024774781E+03   -0.24743E-02   -0.24751E-02  8320   0.338E-01-0.341E-04
CGA:  24    -0.385025859738E+03   -0.10850E-02   -0.10867E-02  8320   0.337E-01 0.241E-04
CGA:  25    -0.385027234472E+03   -0.13747E-02   -0.13753E-02  8320   0.242E-01 0.633E-04
CGA:  26    -0.385029277903E+03   -0.20434E-02   -0.20426E-02  8320   0.463E-01 0.200E-04
CGA:  27    -0.385030297063E+03   -0.10192E-02   -0.10303E-02  8320   0.616E-02-0.253E-03
CGA:  28    -0.385030616004E+03   -0.31894E-03   -0.31878E-03  8320   0.958E-02 0.175E-04
CGA:  29    -0.385030970984E+03   -0.35498E-03   -0.35467E-03  8320   0.966E-02-0.723E-07
CGA:  30    -0.385031610700E+03   -0.63972E-03   -0.63949E-03  8320   0.338E-02 0.121E-04
CGA:  31    -0.385031777815E+03   -0.16712E-03   -0.16707E-03  8320   0.410E-02 0.995E-05
SDA:  32    -0.385031882348E+03   -0.10453E-03   -0.10469E-03  8320   0.174E-02 0.522E-05
CGA:  33    -0.385031940506E+03   -0.58158E-04   -0.58142E-04  8320   0.148E-02-0.118E-05
CGA:  34    -0.385031994481E+03   -0.53975E-04   -0.53979E-04  8320   0.143E-02 0.759E-06
CGA:  35    -0.385032152665E+03   -0.15818E-03   -0.15794E-03  8320   0.143E-02 0.372E-05
CGA:  36    -0.385032227878E+03   -0.75213E-04   -0.75196E-04  8320   0.796E-03 0.244E-05
CGA:  37    -0.385032253111E+03   -0.25233E-04   -0.25224E-04  8320   0.695E-03 0.432E-06
CGA:  38    -0.385032316918E+03   -0.63807E-04   -0.63732E-04  8320   0.798E-03 0.162E-05
CGA:  39    -0.385032387120E+03   -0.70202E-04   -0.70177E-04  8320   0.105E-02 0.556E-06
CGA:  40    -0.385032412839E+03   -0.25720E-04   -0.25734E-04  8320   0.497E-03 0.110E-05
CGA:  41    -0.385032431607E+03   -0.18768E-04   -0.18779E-04  8320   0.157E-03 0.674E-06
CGA:  42    -0.385032468989E+03   -0.37382E-04   -0.36302E-04  8320   0.338E-03 0.590E-05
CGA:  43    -0.385032484922E+03   -0.15933E-04   -0.15956E-04  8320   0.171E-03 0.171E-05
CGA:  44    -0.385032489301E+03   -0.43786E-05   -0.43984E-05  8320   0.120E-03 0.783E-06
CGA:  45    -0.385032505684E+03   -0.16384E-04   -0.16236E-04  8320   0.288E-03 0.187E-05
CGA:  46    -0.385032515447E+03   -0.97627E-05   -0.97982E-05  8320   0.203E-03 0.108E-05
  10 F= -.38503252E+03 E0= -.38500836E+03  d E =-.130158E+00  mag=    14.2659
       N       E                     dE             d eps       ncg     rms          ort
SDA:   1    -0.384883508244E+03    0.14900E+00    0.00000E+00  8320   0.591E+00 0.000E+00
CGA:   2    -0.384929050876E+03   -0.45543E-01   -0.45636E-01  8320   0.127E+01-0.355E-02
CGA:   3    -0.384972725618E+03   -0.43675E-01   -0.44030E-01  8320   0.103E+01-0.284E-02
CGA:   4    -0.385008954888E+03   -0.36229E-01   -0.36349E-01  8320   0.191E+00-0.428E-03
CGA:   5    -0.385027457880E+03   -0.18503E-01   -0.18678E-01  8320   0.330E+00-0.390E-02
CGA:   6    -0.385035933703E+03   -0.84758E-02   -0.86900E-02  8320   0.142E+00-0.454E-02
CGA:   7    -0.385042327380E+03   -0.63937E-02   -0.64108E-02  8320   0.375E-01 0.432E-03
CGA:   8    -0.385044228225E+03   -0.19008E-02   -0.19029E-02  8320   0.294E-01 0.137E-03
CGA:   9    -0.385044961502E+03   -0.73328E-03   -0.73270E-03  8320   0.182E-01 0.944E-05
CGA:  10    -0.385046465554E+03   -0.15041E-02   -0.15046E-02  8320   0.743E-02-0.207E-04
CGA:  11    -0.385046800691E+03   -0.33514E-03   -0.33509E-03  8320   0.210E-02-0.257E-05
CGA:  12    -0.385046963322E+03   -0.16263E-03   -0.16239E-03  8320   0.480E-02 0.928E-05
CGA:  13    -0.385047140845E+03   -0.17752E-03   -0.17744E-03  8320   0.233E-02 0.670E-05
CGA:  14    -0.385047246490E+03   -0.10564E-03   -0.10573E-03  8320   0.500E-03 0.559E-05
CGA:  15    -0.385047272176E+03   -0.25686E-04   -0.25692E-04  8320   0.833E-03 0.150E-05
CGA:  16    -0.385047304059E+03   -0.31883E-04   -0.31906E-04  8320   0.692E-03 0.137E-05
CGA:  17    -0.385047351547E+03   -0.47488E-04   -0.47426E-04  8320   0.220E-03 0.417E-05
CGA:  18    -0.385047367040E+03   -0.15493E-04   -0.15469E-04  8320   0.186E-03 0.152E-05
CGA:  19    -0.385047374964E+03   -0.79236E-05   -0.79297E-05  8320   0.299E-03 0.459E-06
CGA:  20    -0.385047400788E+03   -0.25824E-04   -0.25795E-04  8320   0.165E-03 0.908E-06
CGA:  21    -0.385047405943E+03   -0.51558E-05   -0.51582E-05  8320   0.146E-03 0.203E-06
  11 F= -.38504741E+03 E0= -.38502335E+03  d E =-.148905E-01  mag=    14.2637
       N       E                     dE             d eps       ncg     rms          ort
SDA:   1    -0.380515074889E+03    0.45323E+01    0.00000E+00  8320   0.153E+02 0.000E+00
CGA:   2    -0.381524008269E+03   -0.10089E+01   -0.10424E+01  8320   0.572E+02-0.164E+01
CGA:   3    -0.383467854006E+03   -0.19438E+01   -0.19605E+01  8320   0.190E+02 0.284E-01
CGA:   4    -0.383989817243E+03   -0.52196E+00   -0.52249E+00  8320   0.880E+01 0.740E-01
CGA:   5    -0.384322272689E+03   -0.33246E+00   -0.30932E+00  8320   0.595E+01-0.182E-01
CGA:   6    -0.384664903308E+03   -0.34263E+00   -0.34250E+00  8320   0.107E+02 0.145E-01
CGA:   7    -0.384928469619E+03   -0.26357E+00   -0.27610E+00  8320   0.222E+01-0.261E+00
CGA:   8    -0.384978637406E+03   -0.50168E-01   -0.48281E-01  8320   0.121E+01 0.523E-01
CGA:   9    -0.385012346011E+03   -0.33709E-01   -0.34022E-01  8320   0.593E+00-0.372E-02
CGA:  10    -0.385048907973E+03   -0.36562E-01   -0.36411E-01  8320   0.125E+01 0.824E-02
CGA:  11    -0.385077958172E+03   -0.29050E-01   -0.29036E-01  8320   0.301E+00 0.250E-03
CGA:  12    -0.385087796201E+03   -0.98380E-02   -0.97532E-02  8320   0.198E+00-0.302E-04
CGA:  13    -0.385092157047E+03   -0.43608E-02   -0.44529E-02  8320   0.771E-01-0.223E-02
CGA:  14    -0.385095442569E+03   -0.32855E-02   -0.32861E-02  8320   0.116E+00 0.101E-03
CGA:  15    -0.385100348265E+03   -0.49057E-02   -0.48992E-02  8320   0.833E-01-0.802E-03
CGA:  16    -0.385103200816E+03   -0.28526E-02   -0.28582E-02  8320   0.752E-01 0.125E-03
CGA:  17    -0.385104950680E+03   -0.17499E-02   -0.17546E-02  8320   0.124E-01-0.557E-04
CGA:  18    -0.385105556155E+03   -0.60548E-03   -0.60619E-03  8320   0.239E-01-0.804E-04
CGA:  19    -0.385106486942E+03   -0.93079E-03   -0.93115E-03  8320   0.198E-01 0.303E-04
CGA:  20    -0.385107372888E+03   -0.88595E-03   -0.88583E-03  8320   0.214E-01 0.761E-04
CGA:  21    -0.385108006671E+03   -0.63378E-03   -0.63330E-03  8320   0.813E-02 0.623E-05
CGA:  22    -0.385108278071E+03   -0.27140E-03   -0.27156E-03  8320   0.850E-02 0.688E-05
CGA:  23    -0.385108597449E+03   -0.31938E-03   -0.31949E-03  8320   0.605E-02 0.121E-04
CGA:  24    -0.385109101612E+03   -0.50416E-03   -0.50425E-03  8320   0.173E-01-0.285E-05
CGA:  25    -0.385109542073E+03   -0.44046E-03   -0.44168E-03  8320   0.492E-02-0.870E-05
CGA:  26    -0.385109704778E+03   -0.16271E-03   -0.16284E-03  8320   0.328E-02 0.207E-05
CGA:  27    -0.385109826455E+03   -0.12168E-03   -0.12158E-03  8320   0.353E-02-0.662E-05
CGA:  28    -0.385110039141E+03   -0.21269E-03   -0.21283E-03  8320   0.643E-02-0.864E-05
CGA:  29    -0.385110216392E+03   -0.17725E-03   -0.17712E-03  8320   0.191E-02-0.634E-05
CGA:  30    -0.385110295918E+03   -0.79525E-04   -0.79519E-04  8320   0.166E-02-0.284E-05
CGA:  31    -0.385110336760E+03   -0.40842E-04   -0.40865E-04  8320   0.100E-02-0.336E-06
SDA:  32    -0.385110420057E+03   -0.83297E-04   -0.83122E-04  8320   0.184E-02 0.396E-05
CGA:  33    -0.385110452400E+03   -0.32343E-04   -0.32261E-04  8320   0.386E-03 0.486E-05
CGA:  34    -0.385110477634E+03   -0.25233E-04   -0.25200E-04  8320   0.412E-03 0.119E-05
CGA:  35    -0.385110499457E+03   -0.21824E-04   -0.21809E-04  8320   0.922E-03 0.142E-05
CGA:  36    -0.385110553036E+03   -0.53579E-04   -0.53533E-04  8320   0.264E-03 0.311E-05
CGA:  37    -0.385110568101E+03   -0.15065E-04   -0.15062E-04  8320   0.135E-03 0.228E-06
CGA:  38    -0.385110586956E+03   -0.18856E-04   -0.18994E-04  8320   0.464E-03-0.160E-05
CGA:  39    -0.385110601692E+03   -0.14736E-04   -0.14711E-04  8320   0.221E-03-0.141E-05
CGA:  40    -0.385110609345E+03   -0.76526E-05   -0.76407E-05  8320   0.774E-04-0.852E-06
  12 F= -.38511061E+03 E0= -.38508719E+03  d E =-.632034E-01  mag=    14.2559
       N       E                     dE             d eps       ncg     rms          ort
SDA:   1    -0.375604876931E+03    0.95057E+01    0.00000E+00  8320   0.317E+02 0.000E+00
CGA:   2    -0.378343912389E+03   -0.27390E+01   -0.27953E+01  8320   0.107E+03-0.177E+01
CGA:   3    -0.381650853038E+03   -0.33069E+01   -0.33445E+01  8320   0.314E+02-0.251E-01
CGA:   4    -0.382689160425E+03   -0.10383E+01   -0.85209E+00  8320   0.227E+02 0.427E+01
CGA:   5    -0.383469984019E+03   -0.78082E+00   -0.81103E+00  8320   0.152E+02-0.203E+00
CGA:   6    -0.383857482326E+03   -0.38750E+00   -0.37285E+00  8320   0.179E+02 0.235E+00
CGA:   7    -0.384477105395E+03   -0.61962E+00   -0.60532E+00  8320   0.821E+01-0.687E-01
CGA:   8    -0.384691886249E+03   -0.21478E+00   -0.23225E+00  8320   0.773E+01-0.102E+00
CGA:   9    -0.384898151118E+03   -0.20626E+00   -0.20084E+00  8320   0.259E+01 0.160E+00
CGA:  10    -0.384942740938E+03   -0.44590E-01   -0.39038E-01  8320   0.108E+01 0.281E+00
CGA:  11    -0.384985345397E+03   -0.42604E-01   -0.42537E-01  8320   0.162E+01-0.286E-02
CGA:  12    -0.385018464447E+03   -0.33119E-01   -0.34281E-01  8320   0.131E+01-0.263E-01
CGA:  13    -0.385060796469E+03   -0.42332E-01   -0.42586E-01  8320   0.147E+01 0.805E-02
CGA:  14    -0.385084403457E+03   -0.23607E-01   -0.23499E-01  8320   0.346E+00 0.360E-02
CGA:  15    -0.385092897332E+03   -0.84939E-02   -0.83888E-02  8320   0.365E+00 0.914E-03
CGA:  16    -0.385100861031E+03   -0.79637E-02   -0.80031E-02  8320   0.141E+00-0.618E-03
CGA:  17    -0.385104033569E+03   -0.31725E-02   -0.32169E-02  8320   0.179E+00-0.469E-03
CGA:  18    -0.385113501382E+03   -0.94678E-02   -0.94098E-02  8320   0.236E+00 0.288E-02
CGA:  19    -0.385117856567E+03   -0.43552E-02   -0.43100E-02  8320   0.120E+00 0.138E-02
CGA:  20    -0.385121330251E+03   -0.34737E-02   -0.34678E-02  8320   0.698E-01-0.149E-03
CGA:  21    -0.385122398963E+03   -0.10687E-02   -0.10809E-02  8320   0.266E-01-0.488E-03
CGA:  22    -0.385123951127E+03   -0.15522E-02   -0.15437E-02  8320   0.836E-01 0.321E-03
CGA:  23    -0.385126544366E+03   -0.25932E-02   -0.25954E-02  8320   0.516E-01 0.120E-03
CGA:  24    -0.385127754208E+03   -0.12098E-02   -0.12117E-02  8320   0.327E-01 0.200E-05
CGA:  25    -0.385128621824E+03   -0.86762E-03   -0.86806E-03  8320   0.206E-01 0.447E-05
CGA:  26    -0.385129113777E+03   -0.49195E-03   -0.49237E-03  8320   0.158E-01 0.222E-06
CGA:  27    -0.385130020620E+03   -0.90684E-03   -0.90811E-03  8320   0.439E-01-0.539E-04
CGA:  28    -0.385131217843E+03   -0.11972E-02   -0.12010E-02  8320   0.207E-01 0.880E-04
CGA:  29    -0.385131824173E+03   -0.60633E-03   -0.60701E-03  8320   0.218E-01 0.251E-04
CGA:  30    -0.385132338934E+03   -0.51476E-03   -0.51457E-03  8320   0.772E-02-0.514E-05
CGA:  31    -0.385132575762E+03   -0.23683E-03   -0.23668E-03  8320   0.915E-02-0.137E-04
SDA:  32    -0.385132823550E+03   -0.24779E-03   -0.24792E-03  8320   0.534E-02 0.439E-05
CGA:  33    -0.385133042509E+03   -0.21896E-03   -0.21876E-03  8320   0.334E-02 0.202E-04
CGA:  34    -0.385133192118E+03   -0.14961E-03   -0.14962E-03  8320   0.445E-02 0.119E-05
CGA:  35    -0.385133427016E+03   -0.23490E-03   -0.23466E-03  8320   0.392E-02 0.123E-04
CGA:  36    -0.385133593677E+03   -0.16666E-03   -0.16662E-03  8320   0.419E-02 0.689E-05
CGA:  37    -0.385133746047E+03   -0.15237E-03   -0.15237E-03  8320   0.976E-03 0.454E-05
CGA:  38    -0.385133836613E+03   -0.90565E-04   -0.90404E-04  8320   0.105E-02 0.274E-05
CGA:  39    -0.385133949331E+03   -0.11272E-03   -0.11282E-03  8320   0.187E-02-0.191E-05
CGA:  40    -0.385133994464E+03   -0.45133E-04   -0.45132E-04  8320   0.932E-03-0.166E-05
CGA:  41    -0.385134043566E+03   -0.49101E-04   -0.49112E-04  8320   0.548E-03-0.536E-06
CGA:  42    -0.385134087888E+03   -0.44322E-04   -0.44221E-04  8320   0.113E-02 0.253E-05
CGA:  43    -0.385134134606E+03   -0.46718E-04   -0.46725E-04  8320   0.696E-03 0.317E-05
CGA:  44    -0.385134176009E+03   -0.41402E-04   -0.41345E-04  8320   0.226E-03 0.376E-05
CGA:  45    -0.385134190864E+03   -0.14856E-04   -0.14866E-04  8320   0.284E-03-0.547E-06
CGA:  46    -0.385134209424E+03   -0.18560E-04   -0.18601E-04  8320   0.719E-03-0.204E-05
CGA:  47    -0.385134234159E+03   -0.24734E-04   -0.24686E-04  8320   0.101E-03-0.403E-05
CGA:  48    -0.385134245228E+03   -0.11070E-04   -0.11146E-04  8320   0.137E-03-0.119E-05
CGA:  49    -0.385134254508E+03   -0.92791E-05   -0.92896E-05  8320   0.263E-03-0.570E-06
  13 F= -.38513425E+03 E0= -.38511158E+03  d E =-.236452E-01  mag=    14.2636
       N       E                     dE             d eps       ncg     rms          ort
SDA:   1    -0.380942783568E+03    0.41915E+01    0.00000E+00  8320   0.137E+02 0.000E+00
CGA:   2    -0.382836758487E+03   -0.18940E+01   -0.20208E+01  8320   0.309E+02-0.179E+01
CGA:   3    -0.383503179417E+03   -0.66642E+00   -0.61138E+00  8320   0.149E+02 0.154E+01
CGA:   4    -0.384122557386E+03   -0.61938E+00   -0.63743E+00  8320   0.896E+01 0.367E+00
CGA:   5    -0.384470900675E+03   -0.34834E+00   -0.35279E+00  8320   0.106E+02 0.593E-01
CGA:   6    -0.384772453872E+03   -0.30155E+00   -0.29452E+00  8320   0.372E+01 0.865E-01
CGA:   7    -0.384978992710E+03   -0.20654E+00   -0.20717E+00  8320   0.377E+01-0.765E-01
CGA:   8    -0.385047818045E+03   -0.68825E-01   -0.63912E-01  8320   0.843E+00 0.250E+00
CGA:   9    -0.385072902660E+03   -0.25085E-01   -0.24801E-01  8320   0.684E+00 0.443E-02
CGA:  10    -0.385095078816E+03   -0.22176E-01   -0.21995E-01  8320   0.651E+00-0.171E-04
CGA:  11    -0.385118227253E+03   -0.23148E-01   -0.23452E-01  8320   0.719E+00 0.579E-02
CGA:  12    -0.385138108824E+03   -0.19882E-01   -0.19901E-01  8320   0.256E+00-0.238E-03
CGA:  13    -0.385143026111E+03   -0.49173E-02   -0.46841E-02  8320   0.125E+00 0.839E-02
CGA:  14    -0.385147614648E+03   -0.45885E-02   -0.45841E-02  8320   0.955E-01-0.138E-03
CGA:  15    -0.385149840856E+03   -0.22262E-02   -0.22580E-02  8320   0.895E-01-0.548E-03
CGA:  16    -0.385154431761E+03   -0.45909E-02   -0.45859E-02  8320   0.986E-01 0.378E-03
CGA:  17    -0.385156534972E+03   -0.21032E-02   -0.20838E-02  8320   0.620E-01 0.518E-03
CGA:  18    -0.385158589561E+03   -0.20546E-02   -0.20564E-02  8320   0.254E-01 0.705E-04
CGA:  19    -0.385159019611E+03   -0.43005E-03   -0.43397E-03  8320   0.126E-01-0.139E-03
CGA:  20    -0.385159824207E+03   -0.80460E-03   -0.80291E-03  8320   0.243E-01 0.631E-04
CGA:  21    -0.385160474807E+03   -0.65060E-03   -0.64914E-03  8320   0.210E-01 0.274E-04
CGA:  22    -0.385161268681E+03   -0.79387E-03   -0.79396E-03  8320   0.126E-01 0.251E-04
CGA:  23    -0.385161499875E+03   -0.23119E-03   -0.23273E-03  8320   0.504E-02-0.399E-04
CGA:  24    -0.385161686743E+03   -0.18687E-03   -0.18687E-03  8320   0.613E-02 0.409E-05
CGA:  25    -0.385161901572E+03   -0.21483E-03   -0.21477E-03  8320   0.631E-02-0.690E-06
CGA:  26    -0.385162148539E+03   -0.24697E-03   -0.24697E-03  8320   0.871E-02 0.107E-04
CGA:  27    -0.385162388517E+03   -0.23998E-03   -0.24030E-03  8320   0.306E-02 0.536E-05
CGA:  28    -0.385162470705E+03   -0.82188E-04   -0.82149E-04  8320   0.298E-02-0.149E-05
CGA:  29    -0.385162565055E+03   -0.94350E-04   -0.94307E-04  8320   0.134E-02-0.662E-05
CGA:  30    -0.385162613013E+03   -0.47958E-04   -0.47951E-04  8320   0.240E-02-0.462E-05
CGA:  31    -0.385162721991E+03   -0.10898E-03   -0.10904E-03  8320   0.182E-02-0.845E-05
SDA:  32    -0.385162776129E+03   -0.54138E-04   -0.54111E-04  8320   0.169E-02-0.380E-05
CGA:  33    -0.385162803042E+03   -0.26913E-04   -0.26936E-04  8320   0.353E-03-0.195E-05
CGA:  34    -0.385162821346E+03   -0.18303E-04   -0.18279E-04  8320   0.318E-03 0.139E-05
CGA:  35    -0.385162858839E+03   -0.37494E-04   -0.37087E-04  8320   0.593E-03 0.503E-05
CGA:  36    -0.385162886795E+03   -0.27956E-04   -0.27948E-04  8320   0.493E-03 0.149E-05
CGA:  37    -0.385162903078E+03   -0.16283E-04   -0.16282E-04  8320   0.122E-03-0.571E-06
CGA:  38    -0.385162918270E+03   -0.15192E-04   -0.15753E-04  8320   0.335E-03-0.649E-05
CGA:  39    -0.385162930807E+03   -0.12537E-04   -0.12509E-04  8320   0.369E-03-0.465E-05
CGA:  40    -0.385162943480E+03   -0.12673E-04   -0.12630E-04  8320   0.968E-04-0.438E-05
CGA:  41    -0.385162953190E+03   -0.97107E-05   -0.96694E-05  8320   0.144E-03 0.674E-06
  14 F= -.38516295E+03 E0= -.38514050E+03  d E =-.286987E-01  mag=    14.2508
       N       E                     dE             d eps       ncg     rms          ort
SDA:   1    -0.384812859219E+03    0.35008E+00    0.00000E+00  8320   0.178E+01 0.000E+00
CGA:   2    -0.384898272617E+03   -0.85413E-01   -0.85431E-01  8320   0.279E+01-0.260E-01
CGA:   3    -0.385000235015E+03   -0.10196E+00   -0.10098E+00  8320   0.117E+01-0.174E-01
CGA:   4    -0.385055907315E+03   -0.55672E-01   -0.55692E-01  8320   0.187E+01-0.156E-01
CGA:   5    -0.385121308388E+03   -0.65401E-01   -0.66530E-01  8320   0.407E+00 0.204E-01
CGA:   6    -0.385144478079E+03   -0.23170E-01   -0.23130E-01  8320   0.501E+00 0.272E-02
CGA:   7    -0.385158835598E+03   -0.14358E-01   -0.13917E-01  8320   0.318E+00 0.460E-02
CGA:   8    -0.385173640188E+03   -0.14805E-01   -0.14805E-01  8320   0.936E-01 0.116E-02
CGA:   9    -0.385176051120E+03   -0.24109E-02   -0.24234E-02  8320   0.460E-01-0.172E-03
CGA:  10    -0.385178240169E+03   -0.21890E-02   -0.21897E-02  8320   0.330E-01-0.136E-03
CGA:  11    -0.385179645910E+03   -0.14057E-02   -0.14059E-02  8320   0.411E-01 0.364E-04
CGA:  12    -0.385181002172E+03   -0.13563E-02   -0.13567E-02  8320   0.134E-01 0.110E-04
CGA:  13    -0.385181617330E+03   -0.61516E-03   -0.61519E-03  8320   0.521E-02-0.150E-04
CGA:  14    -0.385181847196E+03   -0.22987E-03   -0.22986E-03  8320   0.725E-02-0.802E-05
CGA:  15    -0.385182112807E+03   -0.26561E-03   -0.26548E-03  8320   0.428E-02-0.109E-04
CGA:  16    -0.385182360031E+03   -0.24722E-03   -0.24720E-03  8320   0.422E-02-0.154E-05
CGA:  17    -0.385182459341E+03   -0.99310E-04   -0.99180E-04  8320   0.769E-03-0.287E-05
CGA:  18    -0.385182531550E+03   -0.72208E-04   -0.72462E-04  8320   0.148E-02-0.509E-05
CGA:  19    -0.385182567338E+03   -0.35788E-04   -0.35793E-04  8320   0.778E-03-0.346E-05
CGA:  20    -0.385182625359E+03   -0.58021E-04   -0.58043E-04  8320   0.478E-03-0.817E-06
CGA:  21    -0.385182644525E+03   -0.19166E-04   -0.19161E-04  8320   0.370E-03-0.178E-06
CGA:  22    -0.385182655736E+03   -0.11211E-04   -0.11207E-04  8320   0.214E-03-0.244E-06
CGA:  23    -0.385182672870E+03   -0.17135E-04   -0.17121E-04  8320   0.557E-03 0.325E-06
CGA:  24    -0.385182690546E+03   -0.17676E-04   -0.17681E-04  8320   0.147E-03 0.164E-06
CGA:  25    -0.385182697623E+03   -0.70773E-05   -0.70764E-05  8320   0.783E-04 0.653E-06
  15 F= -.38518270E+03 E0= -.38516016E+03  d E =-.197444E-01  mag=    14.2549
       N       E                     dE             d eps       ncg     rms          ort
SDA:   1    -0.384976941655E+03    0.20575E+00    0.00000E+00  8320   0.186E+01 0.000E+00
CGA:   2    -0.385012196236E+03   -0.35255E-01   -0.33973E-01  8320   0.836E+00 0.461E-01
CGA:   3    -0.385102556973E+03   -0.90361E-01   -0.92330E-01  8320   0.673E+00-0.349E-01
CGA:   4    -0.385143139441E+03   -0.40582E-01   -0.40438E-01  8320   0.734E+00 0.730E-02
CGA:   5    -0.385161131499E+03   -0.17992E-01   -0.18065E-01  8320   0.236E+00-0.122E-02
CGA:   6    -0.385173254015E+03   -0.12123E-01   -0.12109E-01  8320   0.294E+00 0.214E-02
CGA:   7    -0.385183207188E+03   -0.99532E-02   -0.98118E-02  8320   0.143E+00-0.449E-03
CGA:   8    -0.385190645439E+03   -0.74383E-02   -0.74314E-02  8320   0.356E-01 0.857E-03
CGA:   9    -0.385192099140E+03   -0.14537E-02   -0.14522E-02  8320   0.232E-01-0.708E-04
CGA:  10    -0.385192988378E+03   -0.88924E-03   -0.89009E-03  8320   0.218E-01 0.230E-04
CGA:  11    -0.385194126695E+03   -0.11383E-02   -0.11385E-02  8320   0.169E-01-0.185E-04
CGA:  12    -0.385194563922E+03   -0.43723E-03   -0.43782E-03  8320   0.582E-02-0.164E-04
CGA:  13    -0.385194827893E+03   -0.26397E-03   -0.26396E-03  8320   0.244E-02-0.107E-04
CGA:  14    -0.385195009874E+03   -0.18198E-03   -0.18229E-03  8320   0.351E-02-0.108E-04
CGA:  15    -0.385195143942E+03   -0.13407E-03   -0.13399E-03  8320   0.302E-02-0.747E-05
CGA:  16    -0.385195260220E+03   -0.11628E-03   -0.11626E-03  8320   0.984E-03-0.566E-05
CGA:  17    -0.385195283654E+03   -0.23434E-04   -0.23389E-04  8320   0.452E-03 0.203E-06
CGA:  18    -0.385195358132E+03   -0.74478E-04   -0.74563E-04  8320   0.927E-03-0.615E-06
CGA:  19    -0.385195390728E+03   -0.32596E-04   -0.32578E-04  8320   0.371E-03-0.438E-06
CGA:  20    -0.385195401494E+03   -0.10766E-04   -0.10766E-04  8320   0.243E-03-0.805E-06
CGA:  21    -0.385195423547E+03   -0.22053E-04   -0.22060E-04  8320   0.670E-03-0.168E-06
CGA:  22    -0.385195449926E+03   -0.26379E-04   -0.26375E-04  8320   0.343E-03-0.402E-06
CGA:  23    -0.385195466924E+03   -0.16998E-04   -0.16999E-04  8320   0.115E-03 0.438E-06
CGA:  24    -0.385195474724E+03   -0.77997E-05   -0.77934E-05  8320   0.261E-03 0.372E-06
CGA:  25    -0.385195486764E+03   -0.12040E-04   -0.12046E-04  8320   0.200E-03 0.106E-05
CGA:  26    -0.385195495850E+03   -0.90858E-05   -0.90873E-05  8320   0.185E-03 0.227E-06
  16 F= -.38519550E+03 E0= -.38517294E+03  d E =-.127982E-01  mag=    14.2563
       N       E                     dE             d eps       ncg     rms          ort
SDA:   1    -0.385125763008E+03    0.69724E-01    0.00000E+00  8320   0.343E+00 0.000E+00
CGA:   2    -0.385138332776E+03   -0.12570E-01   -0.12403E-01  8320   0.529E+00-0.145E-02
CGA:   3    -0.385175909748E+03   -0.37577E-01   -0.37601E-01  8320   0.354E+00-0.896E-03
CGA:   4    -0.385186027727E+03   -0.10118E-01   -0.10159E-01  8320   0.153E+00-0.450E-03
CGA:   5    -0.385191573308E+03   -0.55456E-02   -0.55552E-02  8320   0.741E-01 0.118E-03
CGA:   6    -0.385200433772E+03   -0.88605E-02   -0.88486E-02  8320   0.549E-01 0.180E-03
CGA:   7    -0.385202559200E+03   -0.21254E-02   -0.21287E-02  8320   0.111E-01 0.420E-04
CGA:   8    -0.385202927486E+03   -0.36829E-03   -0.36798E-03  8320   0.123E-01-0.173E-05
CGA:   9    -0.385203551916E+03   -0.62443E-03   -0.62443E-03  8320   0.802E-02-0.413E-05
CGA:  10    -0.385203974027E+03   -0.42211E-03   -0.42220E-03  8320   0.331E-02-0.284E-04
CGA:  11    -0.385204061833E+03   -0.87806E-04   -0.87984E-04  8320   0.145E-02-0.583E-05
CGA:  12    -0.385204151426E+03   -0.89593E-04   -0.89581E-04  8320   0.981E-03 0.550E-06
CGA:  13    -0.385204208075E+03   -0.56649E-04   -0.56655E-04  8320   0.175E-02-0.915E-06
CGA:  14    -0.385204263314E+03   -0.55239E-04   -0.55215E-04  8320   0.624E-03 0.119E-06
CGA:  15    -0.385204291028E+03   -0.27713E-04   -0.27714E-04  8320   0.192E-03 0.576E-07
CGA:  16    -0.385204309693E+03   -0.18665E-04   -0.18606E-04  8320   0.432E-03 0.121E-05
CGA:  17    -0.385204329801E+03   -0.20108E-04   -0.20113E-04  8320   0.462E-03 0.849E-06
CGA:  18    -0.385204348237E+03   -0.18435E-04   -0.18443E-04  8320   0.202E-03 0.951E-06
CGA:  19    -0.385204355267E+03   -0.70307E-05   -0.70300E-05  8320   0.208E-03-0.246E-06
CGA:  20    -0.385204368417E+03   -0.13150E-04   -0.13153E-04  8320   0.171E-03-0.222E-06
CGA:  21    -0.385204390178E+03   -0.21761E-04   -0.21806E-04  8320   0.123E-03-0.605E-06
CGA:  22    -0.385204393767E+03   -0.35891E-05   -0.35910E-05  8320   0.104E-03 0.151E-06
  17 F= -.38520439E+03 E0= -.38518185E+03  d E =-.889792E-02  mag=    14.2552
       N       E                     dE             d eps       ncg     rms          ort
SDA:   1    -0.372285910106E+03    0.12918E+02    0.00000E+00  8320   0.436E+02 0.000E+00
CGA:   2    -0.376292416989E+03   -0.40065E+01   -0.45724E+01  8320   0.247E+03-0.106E+02
CGA:   3    -0.380517623928E+03   -0.42252E+01   -0.44516E+01  8320   0.862E+02-0.710E+01
CGA:   4    -0.381658279202E+03   -0.11407E+01   -0.12642E+01  8320   0.244E+02-0.413E+01
CGA:   5    -0.382455501544E+03   -0.79722E+00   -0.78034E+00  8320   0.271E+02-0.316E-01
CGA:   6    -0.383270880826E+03   -0.81538E+00   -0.78539E+00  8320   0.348E+02 0.446E+00
CGA:   7    -0.384558876157E+03   -0.12880E+01   -0.12845E+01  8320   0.201E+02 0.699E-01
CGA:   8    -0.384807732360E+03   -0.24886E+00   -0.23339E+00  8320   0.317E+01 0.126E+01
CGA:   9    -0.384895797788E+03   -0.88065E-01   -0.88784E-01  8320   0.442E+01-0.697E-02
CGA:  10    -0.385008463549E+03   -0.11267E+00   -0.11149E+00  8320   0.291E+01 0.248E-01
CGA:  11    -0.385076622356E+03   -0.68159E-01   -0.69488E-01  8320   0.337E+01-0.198E-01
CGA:  12    -0.385172635326E+03   -0.96013E-01   -0.95036E-01  8320   0.208E+01 0.503E-02
CGA:  13    -0.385204670183E+03   -0.32035E-01   -0.32275E-01  8320   0.903E+00-0.839E-02
CGA:  14    -0.385227317876E+03   -0.22648E-01   -0.22961E-01  8320   0.596E+00-0.259E-02
CGA:  15    -0.385237503358E+03   -0.10185E-01   -0.10371E-01  8320   0.283E+00-0.668E-02
CGA:  16    -0.385247820438E+03   -0.10317E-01   -0.10324E-01  8320   0.465E+00 0.872E-03
CGA:  17    -0.385261272386E+03   -0.13452E-01   -0.13471E-01  8320   0.373E+00 0.247E-03
CGA:  18    -0.385271466838E+03   -0.10194E-01   -0.10288E-01  8320   0.318E+00 0.593E-03
CGA:  19    -0.385278625255E+03   -0.71584E-02   -0.72348E-02  8320   0.981E-01-0.861E-03
CGA:  20    -0.385280448666E+03   -0.18234E-02   -0.18032E-02  8320   0.578E-01 0.614E-03
CGA:  21    -0.385283049384E+03   -0.26007E-02   -0.25982E-02  8320   0.799E-01 0.235E-03
CGA:  22    -0.385285143310E+03   -0.20939E-02   -0.21107E-02  8320   0.823E-01 0.141E-03
CGA:  23    -0.385289239457E+03   -0.40961E-02   -0.40932E-02  8320   0.964E-01 0.181E-03
CGA:  24    -0.385290975258E+03   -0.17358E-02   -0.17060E-02  8320   0.328E-01 0.986E-03
CGA:  25    -0.385292023314E+03   -0.10481E-02   -0.10483E-02  8320   0.323E-01 0.301E-04
CGA:  26    -0.385292899507E+03   -0.87619E-03   -0.87852E-03  8320   0.306E-01 0.476E-04
CGA:  27    -0.385294399893E+03   -0.15004E-02   -0.14982E-02  8320   0.640E-01 0.130E-03
CGA:  28    -0.385296466465E+03   -0.20666E-02   -0.20665E-02  8320   0.424E-01 0.206E-05
CGA:  29    -0.385297398694E+03   -0.93223E-03   -0.93418E-03  8320   0.247E-01-0.150E-04
[...]
CGA:   8    -0.386105428081E+03   -0.50378E-02   -0.50453E-02  8320   0.422E-01 0.682E-04
CGA:   9    -0.386109154006E+03   -0.37259E-02   -0.37227E-02  8320   0.592E-01 0.871E-04
CGA:  10    -0.386111468694E+03   -0.23147E-02   -0.23180E-02  8320   0.240E-01 0.341E-04
CGA:  11    -0.386112131884E+03   -0.66319E-03   -0.66131E-03  8320   0.133E-01 0.363E-04
CGA:  12    -0.386112829338E+03   -0.69745E-03   -0.69750E-03  8320   0.689E-02 0.138E-04
CGA:  13    -0.386113276208E+03   -0.44687E-03   -0.44686E-03  8320   0.614E-02 0.245E-05
CGA:  14    -0.386113641713E+03   -0.36550E-03   -0.36548E-03  8320   0.409E-02 0.356E-05
CGA:  15    -0.386113753966E+03   -0.11225E-03   -0.11220E-03  8320   0.233E-02 0.393E-05
CGA:  16    -0.386113884389E+03   -0.13042E-03   -0.13041E-03  8320   0.189E-02 0.297E-05
CGA:  17    -0.386114004658E+03   -0.12027E-03   -0.12023E-03  8320   0.953E-03 0.313E-05
CGA:  18    -0.386114055427E+03   -0.50769E-04   -0.50772E-04  8320   0.103E-02 0.366E-05
CGA:  19    -0.386114120591E+03   -0.65164E-04   -0.65148E-04  8320   0.157E-02 0.203E-05
CGA:  20    -0.386114170019E+03   -0.49428E-04   -0.49479E-04  8320   0.532E-03 0.503E-06
CGA:  21    -0.386114198041E+03   -0.28022E-04   -0.28020E-04  8320   0.297E-03-0.224E-05
CGA:  22    -0.386114243593E+03   -0.45552E-04   -0.46325E-04  8320   0.676E-03-0.765E-05
CGA:  23    -0.386114263225E+03   -0.19632E-04   -0.19587E-04  8320   0.298E-03-0.191E-05
CGA:  24    -0.386114273283E+03   -0.10058E-04   -0.10048E-04  8320   0.162E-03-0.398E-06
CGA:  25    -0.386114282961E+03   -0.96775E-05   -0.96727E-05  8320   0.159E-03 0.895E-06
CGA:  26    -0.386114296689E+03   -0.13729E-04   -0.13658E-04  8320   0.110E-03 0.231E-05
CGA:  27    -0.386114301310E+03   -0.46205E-05   -0.46174E-05  8320   0.990E-04-0.211E-06
 103 F= -.38611430E+03 E0= -.38609651E+03  d E =-.742560E-02  mag=    14.0000
       N       E                     dE             d eps       ncg     rms          ort
SDA:   1    -0.384910035023E+03    0.12043E+01    0.00000E+00  8320   0.345E+01 0.000E+00
CGA:   2    -0.385427279121E+03   -0.51724E+00   -0.51861E+00  8320   0.916E+01-0.145E-01
CGA:   3    -0.385829539598E+03   -0.40226E+00   -0.40108E+00  8320   0.315E+01-0.737E-02
CGA:   4    -0.385913852400E+03   -0.84313E-01   -0.88428E-01  8320   0.168E+01-0.913E-01
CGA:   5    -0.385989437998E+03   -0.75586E-01   -0.75166E-01  8320   0.150E+01-0.786E-02
CGA:   6    -0.386078686707E+03   -0.89249E-01   -0.89236E-01  8320   0.598E+00 0.293E-02
CGA:   7    -0.386099198811E+03   -0.20512E-01   -0.20382E-01  8320   0.183E+00 0.997E-03
CGA:   8    -0.386105405174E+03   -0.62064E-02   -0.62272E-02  8320   0.164E+00-0.118E-03
CGA:   9    -0.386115774924E+03   -0.10370E-01   -0.10369E-01  8320   0.848E-01 0.897E-04
CGA:  10    -0.386120170163E+03   -0.43952E-02   -0.43959E-02  8320   0.432E-01 0.910E-04
CGA:  11    -0.386121599276E+03   -0.14291E-02   -0.14331E-02  8320   0.251E-01-0.231E-04
CGA:  12    -0.386122452963E+03   -0.85369E-03   -0.85457E-03  8320   0.115E-01 0.586E-05
CGA:  13    -0.386123813449E+03   -0.13605E-02   -0.13602E-02  8320   0.124E-01 0.650E-05
CGA:  14    -0.386124184055E+03   -0.37061E-03   -0.37054E-03  8320   0.520E-02 0.371E-05
CGA:  15    -0.386124339754E+03   -0.15570E-03   -0.15562E-03  8320   0.192E-02-0.503E-06
CGA:  16    -0.386124574718E+03   -0.23496E-03   -0.23481E-03  8320   0.406E-02 0.247E-05
CGA:  17    -0.386124738617E+03   -0.16390E-03   -0.16382E-03  8320   0.212E-02-0.242E-05
CGA:  18    -0.386124809826E+03   -0.71209E-04   -0.71195E-04  8320   0.116E-02 0.122E-06
CGA:  19    -0.386124869467E+03   -0.59641E-04   -0.59648E-04  8320   0.120E-02 0.107E-05
CGA:  20    -0.386124984112E+03   -0.11464E-03   -0.11431E-03  8320   0.117E-02 0.832E-05
CGA:  21    -0.386125032389E+03   -0.48278E-04   -0.48336E-04  8320   0.128E-02 0.287E-05
CGA:  22    -0.386125089913E+03   -0.57524E-04   -0.57584E-04  8320   0.503E-03 0.484E-05
CGA:  23    -0.386125129660E+03   -0.39746E-04   -0.39679E-04  8320   0.717E-03 0.283E-05
CGA:  24    -0.386125166853E+03   -0.37194E-04   -0.37207E-04  8320   0.595E-03 0.236E-05
CGA:  25    -0.386125184515E+03   -0.17662E-04   -0.17671E-04  8320   0.275E-03 0.251E-07
CGA:  26    -0.386125211421E+03   -0.26906E-04   -0.26894E-04  8320   0.241E-03 0.239E-06
CGA:  27    -0.386125223183E+03   -0.11762E-04   -0.11761E-04  8320   0.221E-03-0.307E-06
CGA:  28    -0.386125229717E+03   -0.65339E-05   -0.65354E-05  8320   0.926E-04 0.538E-07
CGA:  29    -0.386125241649E+03   -0.11932E-04   -0.11982E-04  8320   0.135E-03-0.709E-06
CGA:  30    -0.386125246449E+03   -0.48002E-05   -0.48034E-05  8320   0.796E-04 0.260E-07
 104 F= -.38612525E+03 E0= -.38610768E+03  d E =-.109451E-01  mag=    14.0000
       N       E                     dE             d eps       ncg     rms          ort
SDA:   1    -0.385895488724E+03    0.22975E+00    0.00000E+00  8320   0.826E+00 0.000E+00
CGA:   2    -0.385941910215E+03   -0.46421E-01   -0.46425E-01  8320   0.164E+01 0.190E-02
CGA:   3    -0.386042499146E+03   -0.10059E+00   -0.10053E+00  8320   0.147E+01 0.840E-02
CGA:   4    -0.386080031241E+03   -0.37532E-01   -0.39476E-01  8320   0.249E+00-0.421E-01
CGA:   5    -0.386100063682E+03   -0.20032E-01   -0.20021E-01  8320   0.299E+00 0.390E-03
CGA:   6    -0.386118791528E+03   -0.18728E-01   -0.18734E-01  8320   0.832E-01-0.638E-03
CGA:   7    -0.386121207961E+03   -0.24164E-02   -0.24113E-02  8320   0.506E-01 0.929E-04
CGA:   8    -0.386123298858E+03   -0.20909E-02   -0.20906E-02  8320   0.308E-01-0.317E-05
CGA:   9    -0.386125016962E+03   -0.17181E-02   -0.17181E-02  8320   0.186E-01 0.417E-04
CGA:  10    -0.386125955442E+03   -0.93848E-03   -0.93825E-03  8320   0.709E-02-0.143E-04
CGA:  11    -0.386126345653E+03   -0.39021E-03   -0.39021E-03  8320   0.299E-02 0.605E-06
CGA:  12    -0.386126599219E+03   -0.25357E-03   -0.25358E-03  8320   0.478E-02-0.133E-06
CGA:  13    -0.386126736618E+03   -0.13740E-03   -0.13741E-03  8320   0.188E-02-0.406E-05
CGA:  14    -0.386126810324E+03   -0.73707E-04   -0.73753E-04  8320   0.992E-03-0.122E-05
CGA:  15    -0.386126882746E+03   -0.72422E-04   -0.72466E-04  8320   0.922E-03-0.218E-05
CGA:  16    -0.386126931190E+03   -0.48444E-04   -0.48440E-04  8320   0.259E-03-0.177E-05
CGA:  17    -0.386126963330E+03   -0.32139E-04   -0.32079E-04  8320   0.611E-03 0.898E-06
CGA:  18    -0.386126995354E+03   -0.32025E-04   -0.32024E-04  8320   0.345E-03-0.723E-07
CGA:  19    -0.386127004849E+03   -0.94948E-05   -0.95154E-05  8320   0.195E-03 0.477E-06
CGA:  20    -0.386127019757E+03   -0.14908E-04   -0.14883E-04  8320   0.283E-03 0.122E-05
CGA:  21    -0.386127040300E+03   -0.20543E-04   -0.20510E-04  8320   0.180E-03 0.200E-05
CGA:  22    -0.386127051649E+03   -0.11350E-04   -0.11347E-04  8320   0.110E-03 0.729E-06
CGA:  23    -0.386127057911E+03   -0.62618E-05   -0.62609E-05  8320   0.887E-04-0.481E-06
 105 F= -.38612706E+03 E0= -.38610959E+03  d E =-.181146E-02  mag=    14.0000
       N       E                     dE             d eps       ncg     rms          ort
SDA:   1    -0.385310969197E+03    0.81608E+00    0.00000E+00  8320   0.344E+01 0.000E+00
CGA:   2    -0.385424734486E+03   -0.11377E+00   -0.11140E+00  8320   0.403E+01 0.255E-01
CGA:   3    -0.385810917574E+03   -0.38618E+00   -0.39130E+00  8320   0.500E+01-0.120E+00
CGA:   4    -0.385981148678E+03   -0.17023E+00   -0.17204E+00  8320   0.832E+00-0.189E-01
CGA:   5    -0.386035494980E+03   -0.54346E-01   -0.54598E-01  8320   0.100E+01-0.195E-01
CGA:   6    -0.386092757671E+03   -0.57263E-01   -0.57262E-01  8320   0.381E+00 0.459E-02
CGA:   7    -0.386108404545E+03   -0.15647E-01   -0.15619E-01  8320   0.131E+00-0.653E-04
CGA:   8    -0.386114017886E+03   -0.56133E-02   -0.56144E-02  8320   0.119E+00 0.105E-04
CGA:   9    -0.386117836371E+03   -0.38185E-02   -0.38404E-02  8320   0.550E-01-0.205E-03
CGA:  10    -0.386123196814E+03   -0.53604E-02   -0.53491E-02  8320   0.167E-01 0.256E-03
CGA:  11    -0.386123856184E+03   -0.65937E-03   -0.65983E-03  8320   0.883E-02 0.531E-05
CGA:  12    -0.386124599146E+03   -0.74296E-03   -0.74278E-03  8320   0.135E-01 0.318E-05
CGA:  13    -0.386125139419E+03   -0.54027E-03   -0.54048E-03  8320   0.626E-02-0.747E-05
CGA:  14    -0.386125301437E+03   -0.16202E-03   -0.16172E-03  8320   0.230E-02-0.105E-06
CGA:  15    -0.386125503192E+03   -0.20175E-03   -0.20170E-03  8320   0.182E-02 0.194E-06
CGA:  16    -0.386125606508E+03   -0.10332E-03   -0.10332E-03  8320   0.105E-02 0.880E-08
CGA:  17    -0.386125685116E+03   -0.78608E-04   -0.78565E-04  8320   0.174E-02 0.201E-05
CGA:  18    -0.386125740012E+03   -0.54897E-04   -0.54900E-04  8320   0.858E-03 0.579E-07
CGA:  19    -0.386125800886E+03   -0.60874E-04   -0.60810E-04  8320   0.687E-03 0.336E-05
CGA:  20    -0.386125836739E+03   -0.35853E-04   -0.35865E-04  8320   0.342E-03 0.152E-05
CGA:  21    -0.386125873139E+03   -0.36400E-04   -0.36335E-04  8320   0.101E-02 0.114E-05
CGA:  22    -0.386125913859E+03   -0.40720E-04   -0.40706E-04  8320   0.438E-03-0.112E-05
CGA:  23    -0.386125926310E+03   -0.12451E-04   -0.12452E-04  8320   0.157E-03-0.533E-06
CGA:  24    -0.386125939802E+03   -0.13493E-04   -0.13536E-04  8320   0.192E-03-0.169E-05
CGA:  25    -0.386125956906E+03   -0.17104E-04   -0.17125E-04  8320   0.129E-03-0.852E-06
CGA:  26    -0.386125961103E+03   -0.41962E-05   -0.41896E-05  8320   0.973E-04-0.393E-06
 106 F= -.38612596E+03 E0= -.38610858E+03  d E =0.109681E-02  mag=    14.0000
       N       E                     dE             d eps       ncg     rms          ort
SDA:   1    -0.385339199562E+03    0.78676E+00    0.00000E+00  8320   0.226E+01 0.000E+00
CGA:   2    -0.385725033178E+03   -0.38583E+00   -0.38378E+00  8320   0.510E+01 0.226E-01
CGA:   3    -0.385890397636E+03   -0.16536E+00   -0.16155E+00  8320   0.198E+01 0.617E-01
CGA:   4    -0.385959348661E+03   -0.68951E-01   -0.71734E-01  8320   0.142E+01-0.247E-01
CGA:   5    -0.386040591748E+03   -0.81243E-01   -0.81132E-01  8320   0.894E+00-0.164E-01
CGA:   6    -0.386082991708E+03   -0.42400E-01   -0.42670E-01  8320   0.355E+00 0.514E-02
CGA:   7    -0.386100863773E+03   -0.17872E-01   -0.17860E-01  8320   0.126E+00-0.351E-03
CGA:   8    -0.386106119202E+03   -0.52554E-02   -0.52649E-02  8320   0.111E+00 0.688E-04
CGA:   9    -0.386110640153E+03   -0.45210E-02   -0.45293E-02  8320   0.900E-01 0.343E-04
CGA:  10    -0.386115622061E+03   -0.49819E-02   -0.49819E-02  8320   0.163E-01-0.634E-05
CGA:  11    -0.386116607368E+03   -0.98531E-03   -0.98539E-03  8320   0.127E-01-0.169E-04
CGA:  12    -0.386117267940E+03   -0.66057E-03   -0.66056E-03  8320   0.194E-01 0.138E-05
CGA:  13    -0.386118064524E+03   -0.79658E-03   -0.79640E-03  8320   0.439E-02-0.351E-05
CGA:  14    -0.386118302090E+03   -0.23757E-03   -0.23758E-03  8320   0.322E-02 0.214E-05
CGA:  15    -0.386118513435E+03   -0.21135E-03   -0.21136E-03  8320   0.297E-02-0.812E-06
CGA:  16    -0.386118622414E+03   -0.10898E-03   -0.10901E-03  8320   0.200E-02 0.240E-05
CGA:  17    -0.386118712816E+03   -0.90402E-04   -0.90378E-04  8320   0.160E-02 0.259E-06
CGA:  18    -0.386118805136E+03   -0.92320E-04   -0.92314E-04  8320   0.104E-02 0.183E-05
CGA:  19    -0.386118875980E+03   -0.70844E-04   -0.70843E-04  8320   0.823E-03 0.393E-06
CGA:  20    -0.386118916130E+03   -0.40150E-04   -0.40169E-04  8320   0.905E-03 0.241E-05
CGA:  21    -0.386118950055E+03   -0.33925E-04   -0.33962E-04  8320   0.537E-03 0.177E-05
CGA:  22    -0.386119002112E+03   -0.52057E-04   -0.51910E-04  8320   0.606E-03 0.360E-05
CGA:  23    -0.386119034190E+03   -0.32078E-04   -0.32078E-04  8320   0.232E-03 0.179E-06
CGA:  24    -0.386119042261E+03   -0.80710E-05   -0.80644E-05  8320   0.248E-03-0.224E-06
CGA:  25    -0.386119064714E+03   -0.22453E-04   -0.22545E-04  8320   0.247E-03-0.259E-05
CGA:  26    -0.386119078057E+03   -0.13343E-04   -0.13340E-04  8320   0.768E-04-0.118E-05
CGA:  27    -0.386119082304E+03   -0.42464E-05   -0.42473E-05  8320   0.134E-03 0.219E-06
 107 F= -.38611908E+03 E0= -.38610180E+03  d E =0.687880E-02  mag=    14.0000
       N       E                     dE             d eps       ncg     rms          ort
SDA:   1    -0.385822526137E+03    0.29655E+00    0.00000E+00  8320   0.119E+01 0.000E+00
CGA:   2    -0.385881721899E+03   -0.59196E-01   -0.59425E-01  8320   0.192E+01 0.119E-01
CGA:   3    -0.385993138875E+03   -0.11142E+00   -0.11141E+00  8320   0.187E+01 0.304E-02
CGA:   4    -0.386053176850E+03   -0.60038E-01   -0.60865E-01  8320   0.374E+00-0.856E-02
CGA:   5    -0.386080051722E+03   -0.26875E-01   -0.26818E-01  8320   0.392E+00 0.249E-02
CGA:   6    -0.386103713352E+03   -0.23662E-01   -0.23679E-01  8320   0.201E+00-0.255E-02
CGA:   7    -0.386112562237E+03   -0.88489E-02   -0.88521E-02  8320   0.522E-01 0.634E-04
CGA:   8    -0.386114582825E+03   -0.20206E-02   -0.20187E-02  8320   0.535E-01-0.957E-05
CGA:   9    -0.386116798023E+03   -0.22152E-02   -0.22155E-02  8320   0.244E-01 0.697E-05
CGA:  10    -0.386118650651E+03   -0.18526E-02   -0.18510E-02  8320   0.132E-01 0.561E-04
CGA:  11    -0.386119167624E+03   -0.51697E-03   -0.51666E-03  8320   0.414E-02-0.257E-05
CGA:  12    -0.386119419666E+03   -0.25204E-03   -0.25199E-03  8320   0.420E-02 0.533E-05
CGA:  13    -0.386119721021E+03   -0.30135E-03   -0.30124E-03  8320   0.605E-02 0.773E-05
CGA:  14    -0.386119872102E+03   -0.15108E-03   -0.15126E-03  8320   0.980E-03-0.149E-05
CGA:  15    -0.386119930026E+03   -0.57924E-04   -0.57922E-04  8320   0.834E-03 0.385E-06
CGA:  16    -0.386120013917E+03   -0.83891E-04   -0.83844E-04  8320   0.943E-03 0.882E-06
CGA:  17    -0.386120058998E+03   -0.45081E-04   -0.45092E-04  8320   0.506E-03 0.546E-06
CGA:  18    -0.386120078517E+03   -0.19519E-04   -0.19514E-04  8320   0.532E-03-0.534E-06
CGA:  19    -0.386120111101E+03   -0.32584E-04   -0.32585E-04  8320   0.424E-03-0.217E-06
CGA:  20    -0.386120132476E+03   -0.21374E-04   -0.21372E-04  8320   0.303E-03-0.696E-06
CGA:  21    -0.386120159664E+03   -0.27188E-04   -0.27198E-04  8320   0.209E-03-0.306E-06
CGA:  22    -0.386120176152E+03   -0.16488E-04   -0.16513E-04  8320   0.279E-03-0.120E-05
CGA:  23    -0.386120185343E+03   -0.91907E-05   -0.91912E-05  8320   0.160E-03 0.497E-07
 108 F= -.38612019E+03 E0= -.38610283E+03  d E =-.110304E-02  mag=    14.0000
       N       E                     dE             d eps       ncg     rms          ort
SDA:   1    -0.385898854259E+03    0.22132E+00    0.00000E+00  8320   0.784E+00 0.000E+00
CGA:   2    -0.385951487615E+03   -0.52633E-01   -0.52526E-01  8320   0.170E+01 0.659E-02
CGA:   3    -0.386028907534E+03   -0.77420E-01   -0.77248E-01  8320   0.106E+01-0.339E-02
CGA:   4    -0.386065560659E+03   -0.36653E-01   -0.36844E-01  8320   0.288E+00-0.966E-03
CGA:   5    -0.386090347229E+03   -0.24787E-01   -0.24866E-01  8320   0.388E+00-0.215E-02
CGA:   6    -0.386108571058E+03   -0.18224E-01   -0.18229E-01  8320   0.115E+00 0.180E-03
CGA:   7    -0.386112294247E+03   -0.37232E-02   -0.37035E-02  8320   0.566E-01 0.207E-03
CGA:   8    -0.386114269079E+03   -0.19748E-02   -0.19706E-02  8320   0.353E-01 0.123E-04
CGA:   9    -0.386116430268E+03   -0.21612E-02   -0.21612E-02  8320   0.204E-01 0.243E-05
CGA:  10    -0.386117657635E+03   -0.12274E-02   -0.12271E-02  8320   0.995E-02 0.235E-04
CGA:  11    -0.386118040097E+03   -0.38246E-03   -0.38237E-03  8320   0.708E-02 0.786E-06
CGA:  12    -0.386118278773E+03   -0.23868E-03   -0.23852E-03  8320   0.384E-02-0.355E-07
CGA:  13    -0.386118605158E+03   -0.32638E-03   -0.32636E-03  8320   0.211E-02 0.105E-05
CGA:  14    -0.386118709119E+03   -0.10396E-03   -0.10397E-03  8320   0.157E-02 0.114E-05
CGA:  15    -0.386118772947E+03   -0.63827E-04   -0.63847E-04  8320   0.140E-02 0.175E-05
CGA:  16    -0.386118840631E+03   -0.67684E-04   -0.67680E-04  8320   0.844E-03-0.311E-06
CGA:  17    -0.386118872283E+03   -0.31652E-04   -0.31655E-04  8320   0.310E-03-0.349E-06
CGA:  18    -0.386118911381E+03   -0.39098E-04   -0.39154E-04  8320   0.632E-03-0.746E-06
CGA:  19    -0.386118931970E+03   -0.20589E-04   -0.20588E-04  8320   0.353E-03 0.239E-06
CGA:  20    -0.386118945278E+03   -0.13308E-04   -0.13297E-04  8320   0.140E-03-0.649E-06
CGA:  21    -0.386118958155E+03   -0.12877E-04   -0.12896E-04  8320   0.203E-03-0.539E-06
CGA:  22    -0.386118971823E+03   -0.13669E-04   -0.13680E-04  8320   0.228E-03-0.107E-05
CGA:  23    -0.386118978900E+03   -0.70772E-05   -0.70746E-05  8320   0.117E-03-0.130E-06
 109 F= -.38611898E+03 E0= -.38610154E+03  d E =0.120644E-02  mag=    14.0000
       N       E                     dE             d eps       ncg     rms          ort
SDA:   1    -0.386001513199E+03    0.11746E+00    0.00000E+00  8320   0.522E+00 0.000E+00
CGA:   2    -0.386022383026E+03   -0.20870E-01   -0.20839E-01  8320   0.695E+00-0.171E-03
CGA:   3    -0.386068617117E+03   -0.46234E-01   -0.46209E-01  8320   0.655E+00 0.153E-02
CGA:   4    -0.386090676222E+03   -0.22059E-01   -0.22094E-01  8320   0.180E+00-0.203E-03
CGA:   5    -0.386102126092E+03   -0.11450E-01   -0.11463E-01  8320   0.149E+00-0.884E-03
CGA:   6    -0.386114003882E+03   -0.11878E-01   -0.11860E-01  8320   0.617E-01 0.580E-03
CGA:   7    -0.386116383591E+03   -0.23797E-02   -0.23755E-02  8320   0.385E-01-0.912E-05
CGA:   8    -0.386117431512E+03   -0.10479E-02   -0.10455E-02  8320   0.132E-01 0.364E-04
CGA:   9    -0.386118463265E+03   -0.10318E-02   -0.10297E-02  8320   0.111E-01 0.684E-04
CGA:  10    -0.386119190847E+03   -0.72758E-03   -0.72768E-03  8320   0.529E-02-0.540E-05
CGA:  11    -0.386119380464E+03   -0.18962E-03   -0.18975E-03  8320   0.211E-02 0.129E-06
CGA:  12    -0.386119473124E+03   -0.92660E-04   -0.92663E-04  8320   0.230E-02 0.709E-06
CGA:  13    -0.386119590099E+03   -0.11697E-03   -0.11699E-03  8320   0.218E-02 0.448E-05
CGA:  14    -0.386119701532E+03   -0.11143E-03   -0.11144E-03  8320   0.318E-03 0.341E-05
CGA:  15    -0.386119731874E+03   -0.30342E-04   -0.30272E-04  8320   0.543E-03 0.158E-05
CGA:  16    -0.386119756404E+03   -0.24529E-04   -0.24535E-04  8320   0.563E-03 0.490E-06
CGA:  17    -0.386119777346E+03   -0.20943E-04   -0.20953E-04  8320   0.199E-03 0.697E-06
CGA:  18    -0.386119791339E+03   -0.13993E-04   -0.13987E-04  8320   0.194E-03 0.333E-06
CGA:  19    -0.386119801865E+03   -0.10525E-04   -0.10525E-04  8320   0.131E-03-0.156E-07
CGA:  20    -0.386119811238E+03   -0.93731E-05   -0.93781E-05  8320   0.184E-03-0.324E-06
 110 F= -.38611981E+03 E0= -.38610240E+03  d E =-.832337E-03  mag=    14.0000
       N       E                     dE             d eps       ncg     rms          ort
SDA:   1    -0.386092053580E+03    0.27748E-01    0.00000E+00  8320   0.442E+00 0.000E+00
CGA:   2    -0.386099654558E+03   -0.76010E-02   -0.75405E-02  8320   0.822E-01 0.273E-02
CGA:   3    -0.386105908847E+03   -0.62543E-02   -0.62729E-02  8320   0.142E+00-0.635E-03
CGA:   4    -0.386114321738E+03   -0.84129E-02   -0.84084E-02  8320   0.633E-01 0.460E-03
CGA:   5    -0.386117200155E+03   -0.28784E-02   -0.28823E-02  8320   0.244E-01 0.145E-03
CGA:   6    -0.386119061069E+03   -0.18609E-02   -0.18622E-02  8320   0.163E-01-0.487E-04
CGA:   7    -0.386120112643E+03   -0.10516E-02   -0.10519E-02  8320   0.854E-02-0.213E-04
CGA:   8    -0.386120471320E+03   -0.35868E-03   -0.35882E-03  8320   0.462E-02 0.369E-05
CGA:   9    -0.386120597027E+03   -0.12571E-03   -0.12574E-03  8320   0.213E-02 0.407E-05
CGA:  10    -0.386120741211E+03   -0.14418E-03   -0.14415E-03  8320   0.165E-02 0.269E-05
CGA:  11    -0.386120818377E+03   -0.77166E-04   -0.77175E-04  8320   0.539E-03 0.137E-05
CGA:  12    -0.386120849105E+03   -0.30728E-04   -0.30730E-04  8320   0.523E-03-0.239E-06
CGA:  13    -0.386120878696E+03   -0.29591E-04   -0.29590E-04  8320   0.351E-03 0.483E-06
CGA:  14    -0.386120887914E+03   -0.92176E-05   -0.92099E-05  8320   0.140E-03-0.416E-06
 111 F= -.38612089E+03 E0= -.38610350E+03  d E =-.107668E-02  mag=    14.0000
