       N       E                     dE             d eps       ncg     rms          ort
DAV:   1     0.562235426579E+04    0.56224E+04   -0.26859E+05  7696   0.164E+03
DAV:   2     0.245434604145E+03   -0.53769E+04   -0.49766E+04  7696   0.461E+02
DAV:   3    -0.371565507267E+03   -0.61700E+03   -0.60666E+03  7696   0.173E+02
DAV:   4    -0.388211798225E+03   -0.16646E+02   -0.16521E+02  7696   0.291E+01
DAV:   5    -0.388630459169E+03   -0.41866E+00   -0.41776E+00  7696   0.394E+00
SDA:   6    -0.148954071269E+03    0.23968E+03   -0.41776E+00  7696   0.110E+04 0.000E+00
CGA:   7    -0.229382818202E+03   -0.80429E+02   -0.11681E+03  7696   0.224E+04-0.115E+03
CGA:   8    -0.270701014455E+03   -0.41318E+02   -0.43813E+02  7696   0.582E+03-0.150E+03
CGA:   9    -0.281151175705E+03   -0.10450E+02   -0.16491E+02  7696   0.716E+03-0.315E+03
CGA:  10    -0.273288751787E+03    0.78624E+01   -0.34941E+02  7696   0.111E+04-0.192E+03
CGA:  11    -0.270948505336E+03    0.23402E+01   -0.17087E+02  7696   0.422E+04-0.159E+04
CGA:  12    -0.273823331383E+03   -0.28748E+01   -0.19722E+03  7696   0.100E+04-0.275E+03
CGA:  13    -0.299226808233E+03   -0.25403E+02   -0.16333E+02  7696   0.335E+03-0.378E+03
CGA:  14    -0.291434267236E+03    0.77925E+01   -0.61367E+01  7696   0.805E+03-0.488E+03
CGA:  15    -0.274826955723E+03    0.16607E+02   -0.33122E+02  7696   0.107E+04-0.401E+03
CGA:  16    -0.290944597821E+03   -0.16118E+02   -0.56764E+01  7696   0.210E+04 0.112E+04
CGA:  17    -0.272829827873E+03    0.18115E+02   -0.78833E+02  7696   0.157E+04-0.405E+03
CGA:  18    -0.301565772050E+03   -0.28736E+02   -0.26101E+02  7696   0.103E+04-0.143E+04
CGA:  19    -0.302922300167E+03   -0.13565E+01   -0.42898E+02  7696   0.473E+03-0.419E+03
CGA:  20    -0.310947082950E+03   -0.80248E+01   -0.89321E+01  7696   0.700E+03 0.448E+02
CGA:  21    -0.258080988601E+03    0.52866E+02   -0.30935E+02  7696   0.637E+03-0.180E+03
CGA:  22    -0.267302019850E+03   -0.92210E+01   -0.29889E+01  7696   0.133E+04 0.128E+04
CGA:  23    -0.304822255821E+03   -0.37520E+02   -0.18891E+02  7696   0.450E+03 0.827E+03
CGA:  24    -0.310538297700E+03   -0.57160E+01   -0.87452E+01  7696   0.895E+03-0.750E+03
CGA:  25    -0.290190809072E+03    0.20347E+02   -0.33508E+02  7696   0.912E+03-0.425E+03
CGA:  26    -0.301249766975E+03   -0.11059E+02   -0.46174E+01  7696   0.873E+03 0.726E+03
CGA:  27    -0.308098223133E+03   -0.68485E+01   -0.17763E+02  7696   0.571E+03-0.576E+03
CGA:  28    -0.296450260584E+03    0.11648E+02   -0.16457E+02  7696   0.804E+03-0.552E+03
CGA:  29    -0.315322095684E+03   -0.18872E+02   -0.12654E+02  7696   0.186E+03-0.264E+03
CGA:  30    -0.321404680394E+03   -0.60826E+01   -0.18566E+01  7696   0.157E+03-0.563E+02
CGA:  31    -0.315470726986E+03    0.59340E+01   -0.10593E+01  7696   0.889E+03-0.537E+03
CGA:  32    -0.311701238638E+03    0.37695E+01   -0.30656E+02  7696   0.275E+03-0.612E+02
CGA:  33    -0.314385406074E+03   -0.26842E+01   -0.42093E+01  7696   0.409E+03-0.867E+02
CGA:  34    -0.281370305777E+03    0.33015E+02   -0.39467E+01  7696   0.209E+04-0.136E+04
CGA:  35    -0.305142437714E+03   -0.23772E+02   -0.44980E+02  7696   0.580E+03-0.349E+03
CGA:  36    -0.312685387417E+03   -0.75429E+01   -0.12520E+02  7696   0.394E+03-0.350E+03
CGA:  37    -0.313769778629E+03   -0.10844E+01   -0.69240E+01  7696   0.167E+04-0.119E+04
CGA:  38    -0.297362169961E+03    0.16408E+02   -0.44319E+02  7696   0.871E+03-0.320E+03
CGA:  39    -0.309178118210E+03   -0.11816E+02   -0.12886E+02  7696   0.152E+04-0.167E+04
CGA:  40    -0.294195944319E+03    0.14982E+02   -0.37575E+02  7696   0.376E+03-0.228E+03
CGA:  41    -0.316920391231E+03   -0.22724E+02   -0.31075E+01  7696   0.509E+03 0.908E+03
CGA:  42    -0.311253710624E+03    0.56667E+01   -0.81290E+01  7696   0.114E+04-0.644E+03
CGA:  43    -0.302364123137E+03    0.88896E+01   -0.22664E+02  7696   0.136E+04-0.541E+03
CGA:  44    -0.306863480786E+03   -0.44994E+01   -0.15186E+02  7696   0.321E+04-0.149E+04
CGA:  45    -0.293802115841E+03    0.13061E+02   -0.71563E+02  7696   0.653E+03-0.339E+03
CGA:  46    -0.312746770581E+03   -0.18945E+02   -0.86661E+01  7696   0.871E+03-0.112E+04
CGA:  47    -0.307793390247E+03    0.49534E+01   -0.16063E+02  7696   0.692E+03-0.310E+03
CGA:  48    -0.310898661092E+03   -0.31053E+01   -0.67707E+01  7696   0.295E+04-0.733E+03
CGA:  49    -0.314685745501E+03   -0.37871E+01   -0.62044E+02  7696   0.353E+03-0.107E+03
CGA:  50    -0.319261511767E+03   -0.45758E+01   -0.25589E+01  7696   0.210E+03 0.186E+03
CGA:  51    -0.320796696249E+03   -0.15352E+01   -0.95327E+00  7696   0.716E+02 0.115E+03
CGA:  52    -0.321085691274E+03   -0.28900E+00   -0.13562E+00  7696   0.746E+02 0.827E+02
CGA:  53    -0.321414832269E+03   -0.32914E+00   -0.14166E+00  7696   0.931E+02 0.101E+03
CGA:  54    -0.321931350804E+03   -0.51652E+00   -0.20876E+00  7696   0.125E+03 0.139E+03
CGA:  55    -0.322812976538E+03   -0.88163E+00   -0.36450E+00  7696   0.141E+03 0.173E+03
CGA:  56    -0.323912031830E+03   -0.10991E+01   -0.54226E+00  7696   0.846E+02 0.131E+03
CGA:  57    -0.324613168609E+03   -0.70114E+00   -0.46751E+00  7696   0.154E+02 0.353E+02
CGA:  58    -0.324750926164E+03   -0.13776E+00   -0.12730E+00  7696   0.347E+01 0.136E+01
CGA:  59    -0.324788571406E+03   -0.37645E-01   -0.41674E-01  7696   0.285E+01-0.242E+00
CGA:  60    -0.324869965092E+03   -0.81394E-01   -0.79983E-01  7696   0.109E+02 0.235E+00
CGA:  61    -0.325186097673E+03   -0.31613E+00   -0.29498E+00  7696   0.932E+01-0.474E+01
CGA:  62    -0.325198195362E+03   -0.12098E-01   -0.80209E-02  7696   0.769E+01 0.260E+01
CGA:  63    -0.325231405280E+03   -0.33210E-01   -0.30507E-01  7696   0.400E+01 0.805E+00
CGA:  64    -0.325251628772E+03   -0.20223E-01   -0.23943E-01  7696   0.525E+01-0.585E+00
CGA:  65    -0.325273049417E+03   -0.21421E-01   -0.24037E-01  7696   0.683E+01-0.374E+00
CGA:  66    -0.325299003118E+03   -0.25954E-01   -0.22933E-01  7696   0.571E+01 0.836E+00
CGA:  67    -0.325328800304E+03   -0.29797E-01   -0.27520E-01  7696   0.550E+01 0.533E+00
CGA:  68    -0.325358980415E+03   -0.30180E-01   -0.24898E-01  7696   0.610E+01 0.117E+01
CGA:  69    -0.325391999572E+03   -0.33019E-01   -0.27064E-01  7696   0.594E+01 0.150E+01
CGA:  70    -0.325422492641E+03   -0.30493E-01   -0.28021E-01  7696   0.540E+01 0.645E+00
CGA:  71    -0.325444897401E+03   -0.22405E-01   -0.22386E-01  7696   0.486E+01 0.714E-01
CGA:  72    -0.325463660227E+03   -0.18763E-01   -0.21457E-01  7696   0.500E+01-0.471E+00
CGA:  73    -0.325482292881E+03   -0.18633E-01   -0.22299E-01  7696   0.497E+01-0.533E+00
CGA:  74    -0.325500168393E+03   -0.17876E-01   -0.18298E-01  7696   0.312E+01-0.932E-02
CGA:  75    -0.325512600257E+03   -0.12432E-01   -0.12425E-01  7696   0.173E+01 0.972E-02
CGA:  76    -0.325521611598E+03   -0.90113E-02   -0.84881E-02  7696   0.178E+01 0.791E-01
CGA:  77    -0.325532904682E+03   -0.11293E-01   -0.10040E-01  7696   0.232E+01 0.173E+00
CGA:  78    -0.325544101572E+03   -0.11197E-01   -0.10008E-01  7696   0.198E+01 0.261E+00
CGA:  79    -0.325551976870E+03   -0.78753E-02   -0.82553E-02  7696   0.130E+01-0.780E-01
CGA:  80    -0.325557070220E+03   -0.50933E-02   -0.54046E-02  7696   0.140E+01-0.543E-01
CGA:  81    -0.325565202262E+03   -0.81320E-02   -0.86892E-02  7696   0.236E+01-0.413E-01
CGA:  82    -0.325580295247E+03   -0.15093E-01   -0.16616E-01  7696   0.205E+01-0.467E-01
CGA:  83    -0.325589871560E+03   -0.95763E-02   -0.93600E-02  7696   0.951E+00 0.355E-01
CGA:  84    -0.325595940981E+03   -0.60694E-02   -0.59087E-02  7696   0.965E+00 0.115E-01
CGA:  85    -0.325603041920E+03   -0.71009E-02   -0.70715E-02  7696   0.115E+01 0.574E-03
CGA:  86    -0.325609619895E+03   -0.65780E-02   -0.66323E-02  7696   0.822E+00-0.290E-02
SDA:  87    -0.325613932603E+03   -0.43127E-02   -0.44024E-02  7696   0.578E+00-0.947E-02
CGA:  88    -0.325620858665E+03   -0.69261E-02   -0.69148E-02  7696   0.226E+00 0.415E-02
CGA:  89    -0.325624111431E+03   -0.32528E-02   -0.32384E-02  7696   0.223E+00 0.219E-02
CGA:  90    -0.325642494022E+03   -0.18383E-01   -0.34822E-02  7696   0.218E+00 0.512E-01
CGA:  91    -0.325649422881E+03   -0.69289E-02   -0.68752E-02  7696   0.476E+00 0.635E-02
CGA:  92    -0.325656872579E+03   -0.74497E-02   -0.73165E-02  7696   0.141E+00-0.403E-02
CGA:  93    -0.325660690216E+03   -0.38176E-02   -0.37487E-02  7696   0.244E+00 0.724E-02
CGA:  94    -0.325665400091E+03   -0.47099E-02   -0.47293E-02  7696   0.894E-01 0.375E-02
CGA:  95    -0.325666680741E+03   -0.12807E-02   -0.12721E-02  7696   0.752E-01-0.325E-03
CGA:  96    -0.325668274720E+03   -0.15940E-02   -0.15917E-02  7696   0.455E-01 0.786E-03
CGA:  97    -0.325669748783E+03   -0.14741E-02   -0.14845E-02  7696   0.759E-01-0.792E-03
CGA:  98    -0.325671200876E+03   -0.14521E-02   -0.14540E-02  7696   0.361E-01 0.630E-03
CGA:  99    -0.325671951468E+03   -0.75059E-03   -0.75050E-03  7696   0.573E-01 0.432E-03
CGA: 100    -0.325673166315E+03   -0.12148E-02   -0.12150E-02  7696   0.256E-01-0.271E-03
CGA: 101    -0.325673722041E+03   -0.55573E-03   -0.55531E-03  7696   0.228E-01 0.157E-03
CGA: 102    -0.325674467608E+03   -0.74557E-03   -0.74984E-03  7696   0.283E-01-0.311E-03
CGA: 103    -0.325675274097E+03   -0.80649E-03   -0.79709E-03  7696   0.158E-01 0.970E-03
CGA: 104    -0.325675704160E+03   -0.43006E-03   -0.43045E-03  7696   0.227E-01-0.393E-04
CGA: 105    -0.325676322376E+03   -0.61822E-03   -0.61241E-03  7696   0.196E-01 0.801E-03
CGA: 106    -0.325676624292E+03   -0.30192E-03   -0.30082E-03  7696   0.153E-01 0.616E-04
CGA: 107    -0.325676999013E+03   -0.37472E-03   -0.37326E-03  7696   0.724E-02 0.374E-03
CGA: 108    -0.325677247224E+03   -0.24821E-03   -0.24737E-03  7696   0.119E-01 0.713E-04
CGA: 109    -0.325677516485E+03   -0.26926E-03   -0.26926E-03  7696   0.547E-02 0.573E-04
CGA: 110    -0.325677939049E+03   -0.42256E-03   -0.41633E-03  7696   0.172E-01 0.104E-03
CGA: 111    -0.325678192585E+03   -0.25354E-03   -0.25939E-03  7696   0.777E-02-0.144E-04
CGA: 112    -0.325678351855E+03   -0.15927E-03   -0.15889E-03  7696   0.763E-02 0.106E-05
CGA: 113    -0.325678490447E+03   -0.13859E-03   -0.13911E-03  7696   0.382E-02 0.416E-04
CGA: 114    -0.325678674271E+03   -0.18382E-03   -0.18303E-03  7696   0.558E-02 0.327E-04
CGA: 115    -0.325678787380E+03   -0.11311E-03   -0.11340E-03  7696   0.477E-02 0.234E-04
CGA: 116    -0.325678959013E+03   -0.17163E-03   -0.17253E-03  7696   0.909E-02-0.662E-04
CGA: 117    -0.325679109639E+03   -0.15063E-03   -0.15212E-03  7696   0.582E-02-0.112E-05
SDA: 118    -0.325679245958E+03   -0.13632E-03   -0.13628E-03  7696   0.408E-02-0.141E-04
CGA: 119    -0.325679298819E+03   -0.52862E-04   -0.52648E-04  7696   0.202E-02-0.194E-05
CGA: 120    -0.325679350373E+03   -0.51554E-04   -0.51584E-04  7696   0.235E-02-0.242E-04
CGA: 121    -0.325679409329E+03   -0.58956E-04   -0.58977E-04  7696   0.379E-02-0.263E-04
CGA: 122    -0.325679503973E+03   -0.94644E-04   -0.94684E-04  7696   0.354E-02-0.529E-04
CGA: 123    -0.325679721825E+03   -0.21785E-03   -0.22324E-03  7696   0.386E-02-0.138E-03
CGA: 124    -0.325679893990E+03   -0.17216E-03   -0.17120E-03  7696   0.567E-02 0.378E-04
CGA: 125    -0.325680010485E+03   -0.11649E-03   -0.11564E-03  7696   0.948E-02-0.665E-04
CGA: 126    -0.325680307199E+03   -0.29671E-03   -0.29692E-03  7696   0.158E-02-0.824E-04
CGA: 127    -0.325680357500E+03   -0.50301E-04   -0.50288E-04  7696   0.515E-02-0.144E-05
CGA: 128    -0.325680536521E+03   -0.17902E-03   -0.17951E-03  7696   0.720E-02-0.523E-04
CGA: 129    -0.325680711627E+03   -0.17511E-03   -0.17539E-03  7696   0.433E-02 0.329E-04
CGA: 130    -0.325680790288E+03   -0.78661E-04   -0.78944E-04  7696   0.361E-02 0.839E-05
CGA: 131    -0.325680930553E+03   -0.14027E-03   -0.14071E-03  7696   0.433E-02-0.233E-04
CGA: 132    -0.325680996003E+03   -0.65450E-04   -0.66023E-04  7696   0.431E-02 0.202E-04
CGA: 133    -0.325681204004E+03   -0.20800E-03   -0.20556E-03  7696   0.363E-02 0.120E-03
CGA: 134    -0.325681325544E+03   -0.12154E-03   -0.12118E-03  7696   0.470E-02 0.780E-04
CGA: 135    -0.325681395767E+03   -0.70223E-04   -0.71342E-04  7696   0.363E-02 0.222E-04
CGA: 136    -0.325681666071E+03   -0.27030E-03   -0.26403E-03  7696   0.951E-02 0.140E-03
CGA: 137    -0.325681798713E+03   -0.13264E-03   -0.13543E-03  7696   0.176E-02 0.457E-05
CGA: 138    -0.325681869787E+03   -0.71074E-04   -0.70580E-04  7696   0.341E-02 0.439E-04
CGA: 139    -0.325682056465E+03   -0.18668E-03   -0.18290E-03  7696   0.111E-01 0.160E-03
CGA: 140    -0.325682269738E+03   -0.21327E-03   -0.21766E-03  7696   0.405E-02 0.456E-04
CGA: 141    -0.325682390926E+03   -0.12119E-03   -0.12121E-03  7696   0.435E-02 0.409E-04
CGA: 142    -0.325682475184E+03   -0.84258E-04   -0.84611E-04  7696   0.159E-02 0.184E-04
CGA: 143    -0.325682564434E+03   -0.89250E-04   -0.89639E-04  7696   0.297E-02-0.144E-04
CGA: 144    -0.325682635692E+03   -0.71258E-04   -0.71480E-04  7696   0.357E-02 0.198E-05
CGA: 145    -0.325682718002E+03   -0.82311E-04   -0.82579E-04  7696   0.941E-03-0.616E-05
CGA: 146    -0.325682778495E+03   -0.60493E-04   -0.60891E-04  7696   0.409E-02-0.112E-04
CGA: 147    -0.325682892313E+03   -0.11382E-03   -0.11378E-03  7696   0.776E-03-0.459E-04
CGA: 148    -0.325682902820E+03   -0.10507E-04   -0.10397E-04  7696   0.451E-03-0.688E-05
SDA: 149    -0.325682945698E+03   -0.42878E-04   -0.45008E-04  7696   0.156E-02-0.301E-04
CGA: 150    -0.325682969565E+03   -0.23867E-04   -0.23800E-04  7696   0.512E-03 0.143E-05
CGA: 151    -0.325682977139E+03   -0.75741E-05   -0.75616E-05  7696   0.275E-03-0.245E-07
CGA: 152    -0.325683021279E+03   -0.44140E-04   -0.42978E-04  7696   0.160E-02 0.961E-05
CGA: 153    -0.325683062593E+03   -0.41314E-04   -0.41329E-04  7696   0.754E-03 0.518E-05
CGA: 154    -0.325683081857E+03   -0.19264E-04   -0.19330E-04  7696   0.624E-03 0.391E-05
CGA: 155    -0.325683138974E+03   -0.57116E-04   -0.56159E-04  7696   0.140E-02 0.185E-04
CGA: 156    -0.325683154453E+03   -0.15479E-04   -0.15516E-04  7696   0.235E-03 0.794E-05
CGA: 157    -0.325683192489E+03   -0.38036E-04   -0.37229E-04  7696   0.135E-02 0.707E-05
CGA: 158    -0.325683225681E+03   -0.33192E-04   -0.33133E-04  7696   0.825E-03 0.351E-05
CGA: 159    -0.325683242596E+03   -0.16915E-04   -0.16950E-04  7696   0.439E-03-0.334E-06
CGA: 160    -0.325683253003E+03   -0.10408E-04   -0.10373E-04  7696   0.391E-03-0.175E-05
CGA: 161    -0.325683263520E+03   -0.10517E-04   -0.10462E-04  7696   0.257E-03-0.301E-05
CGA: 162    -0.325683281309E+03   -0.17789E-04   -0.17936E-04  7696   0.418E-03-0.503E-05
CGA: 163    -0.325683288954E+03   -0.76443E-05   -0.75833E-05  7696   0.268E-03-0.287E-05
   1 F= -.32568329E+03 E0= -.32565362E+03  d E =-.325683E+03  mag=    32.0000
       N       E                     dE             d eps       ncg     rms          ort
SDA:   1    -0.320092254761E+03    0.55910E+01    0.00000E+00  7696   0.743E+03 0.000E+00
CGA:   2    -0.319727068432E+03    0.36519E+00   -0.12780E+02  7696   0.416E+03-0.396E+03
CGA:   3    -0.325545639363E+03   -0.58186E+01   -0.45156E+01  7696   0.342E+02-0.158E+03
CGA:   4    -0.325815980354E+03   -0.27034E+00   -0.25508E+00  7696   0.590E+00 0.749E+00
CGA:   5    -0.325822337464E+03   -0.63571E-02   -0.64967E-02  7696   0.627E-01-0.975E-02
CGA:   6    -0.325823323459E+03   -0.98599E-03   -0.97314E-03  7696   0.430E-01 0.468E-03
CGA:   7    -0.325825014739E+03   -0.16913E-02   -0.16940E-02  7696   0.921E-01-0.327E-03
CGA:   8    -0.325828037193E+03   -0.30225E-02   -0.30232E-02  7696   0.272E-01 0.299E-03
CGA:   9    -0.325828496947E+03   -0.45975E-03   -0.45951E-03  7696   0.243E-01 0.637E-05
CGA:  10    -0.325829213271E+03   -0.71632E-03   -0.71717E-03  7696   0.187E-01 0.814E-04
CGA:  11    -0.325829678071E+03   -0.46480E-03   -0.46603E-03  7696   0.135E-01 0.278E-04
CGA:  12    -0.325830008060E+03   -0.32999E-03   -0.32965E-03  7696   0.845E-02-0.144E-04
CGA:  13    -0.325830165453E+03   -0.15739E-03   -0.15692E-03  7696   0.647E-02 0.302E-06
CGA:  14    -0.325830306290E+03   -0.14084E-03   -0.14069E-03  7696   0.301E-02-0.826E-05
CGA:  15    -0.325830490923E+03   -0.18463E-03   -0.18498E-03  7696   0.858E-02-0.113E-04
CGA:  16    -0.325830622688E+03   -0.13177E-03   -0.13191E-03  7696   0.146E-02-0.698E-05
CGA:  17    -0.325830639539E+03   -0.16851E-04   -0.16870E-04  7696   0.393E-03-0.243E-05
CGA:  18    -0.325830690934E+03   -0.51395E-04   -0.52655E-04  7696   0.226E-02-0.122E-04
CGA:  19    -0.325830721044E+03   -0.30110E-04   -0.30021E-04  7696   0.488E-03-0.562E-05
CGA:  20    -0.325830728950E+03   -0.79065E-05   -0.79026E-05  7696   0.270E-03-0.831E-06
CGA:  21    -0.325830739437E+03   -0.10487E-04   -0.10480E-04  7696   0.376E-03 0.136E-05
CGA:  22    -0.325830748281E+03   -0.88434E-05   -0.88809E-05  7696   0.368E-03 0.335E-05
   2 F= -.32583075E+03 E0= -.32580111E+03  d E =-.147459E+00  mag=    32.0000
       N       E                     dE             d eps       ncg     rms          ort
SDA:   1    -0.311782775858E+03    0.14048E+02    0.00000E+00  7696   0.340E+03 0.000E+00
CGA:   2    -0.322362998486E+03   -0.10580E+02   -0.52783E+01  7696   0.321E+03-0.500E+03
CGA:   3    -0.325463150354E+03   -0.31002E+01   -0.27807E+01  7696   0.103E+02 0.209E+02
CGA:   4    -0.325823879242E+03   -0.36073E+00   -0.35291E+00  7696   0.564E+02 0.344E+01
CGA:   5    -0.325911671063E+03   -0.87792E-01   -0.16173E+00  7696   0.705E+02-0.146E+03
CGA:   6    -0.326470746488E+03   -0.55908E+00   -0.81361E+00  7696   0.129E+02-0.158E+02
CGA:   7    -0.326609601398E+03   -0.13885E+00   -0.13717E+00  7696   0.346E+01 0.534E-01
CGA:   8    -0.326768048202E+03   -0.15845E+00   -0.16970E+00  7696   0.118E+02-0.489E+00
CGA:   9    -0.327223953173E+03   -0.45590E+00   -0.45728E+00  7696   0.904E+01-0.752E-01
CGA:  10    -0.327355312942E+03   -0.13136E+00   -0.14117E+00  7696   0.184E+01-0.276E+00
CGA:  11    -0.327378412489E+03   -0.23100E-01   -0.22640E-01  7696   0.565E+00 0.219E-01
CGA:  12    -0.327419613698E+03   -0.41201E-01   -0.42020E-01  7696   0.251E+01-0.199E-01
CGA:  13    -0.327466659391E+03   -0.47046E-01   -0.47221E-01  7696   0.699E+00-0.123E-02
CGA:  14    -0.327479078538E+03   -0.12419E-01   -0.12792E-01  7696   0.331E+00-0.466E-02
CGA:  15    -0.327485678554E+03   -0.66000E-02   -0.65778E-02  7696   0.336E+00-0.138E-03
CGA:  16    -0.327498805143E+03   -0.13127E-01   -0.13079E-01  7696   0.270E+00 0.352E-02
CGA:  17    -0.327502153349E+03   -0.33482E-02   -0.34039E-02  7696   0.603E-01-0.280E-02
CGA:  18    -0.327504796099E+03   -0.26427E-02   -0.26293E-02  7696   0.114E+00 0.739E-03
CGA:  19    -0.327508365512E+03   -0.35694E-02   -0.35706E-02  7696   0.177E+00-0.437E-03
CGA:  20    -0.327512308625E+03   -0.39431E-02   -0.39310E-02  7696   0.495E-01-0.361E-03
CGA:  21    -0.327513290889E+03   -0.98226E-03   -0.98448E-03  7696   0.377E-01 0.160E-04
CGA:  22    -0.327514251524E+03   -0.96064E-03   -0.95707E-03  7696   0.203E-01-0.424E-03
CGA:  23    -0.327515086368E+03   -0.83484E-03   -0.83703E-03  7696   0.530E-01-0.132E-03
CGA:  24    -0.327516634390E+03   -0.15480E-02   -0.15479E-02  7696   0.576E-01 0.168E-03
CGA:  25    -0.327518143305E+03   -0.15089E-02   -0.15108E-02  7696   0.214E-01 0.309E-03
CGA:  26    -0.327518431890E+03   -0.28858E-03   -0.28776E-03  7696   0.725E-02 0.509E-04
CGA:  27    -0.327518899924E+03   -0.46803E-03   -0.46913E-03  7696   0.240E-01-0.320E-04
CGA:  28    -0.327519412462E+03   -0.51254E-03   -0.51266E-03  7696   0.167E-01 0.676E-05
CGA:  29    -0.327519757149E+03   -0.34469E-03   -0.34571E-03  7696   0.561E-02 0.163E-04
CGA:  30    -0.327519936152E+03   -0.17900E-03   -0.17905E-03  7696   0.119E-01-0.105E-04
CGA:  31    -0.327520475670E+03   -0.53952E-03   -0.53980E-03  7696   0.941E-02-0.142E-04
CGA:  32    -0.327520595156E+03   -0.11949E-03   -0.12005E-03  7696   0.291E-02-0.144E-04
CGA:  33    -0.327520659503E+03   -0.64347E-04   -0.64415E-04  7696   0.201E-02 0.635E-05
CGA:  34    -0.327520803221E+03   -0.14372E-03   -0.14338E-03  7696   0.887E-02 0.744E-05
CGA:  35    -0.327520999136E+03   -0.19591E-03   -0.19615E-03  7696   0.217E-02 0.219E-04
SDA:  36    -0.327521031608E+03   -0.32473E-04   -0.32633E-04  7696   0.110E-02 0.306E-05
CGA:  37    -0.327521048781E+03   -0.17172E-04   -0.17167E-04  7696   0.743E-03 0.697E-06
CGA:  38    -0.327521094713E+03   -0.45932E-04   -0.45782E-04  7696   0.185E-02 0.461E-05
CGA:  39    -0.327521126187E+03   -0.31474E-04   -0.31530E-04  7696   0.623E-03 0.235E-05
CGA:  40    -0.327521146833E+03   -0.20645E-04   -0.20656E-04  7696   0.533E-03-0.292E-05
CGA:  41    -0.327521172515E+03   -0.25682E-04   -0.25708E-04  7696   0.412E-03-0.124E-05
CGA:  42    -0.327521204475E+03   -0.31961E-04   -0.31901E-04  7696   0.925E-03 0.128E-05
CGA:  43    -0.327521215095E+03   -0.10620E-04   -0.10642E-04  7696   0.157E-03 0.647E-06
CGA:  44    -0.327521225623E+03   -0.10528E-04   -0.10540E-04  7696   0.395E-03-0.403E-06
CGA:  45    -0.327521240706E+03   -0.15083E-04   -0.15086E-04  7696   0.312E-03-0.723E-06
CGA:  46    -0.327521245541E+03   -0.48349E-05   -0.48378E-05  7696   0.570E-04-0.345E-06
   3 F= -.32752125E+03 E0= -.32749158E+03  d E =-.169050E+01  mag=    32.0000
       N       E                     dE             d eps       ncg     rms          ort
SDA:   1    -0.307690173688E+03    0.19831E+02    0.00000E+00  7696   0.401E+03 0.000E+00
CGA:   2    -0.312630397972E+03   -0.49402E+01   -0.79165E+01  7696   0.163E+03-0.571E+02
CGA:   3    -0.315476266646E+03   -0.28459E+01   -0.26242E+01  7696   0.109E+03 0.634E+01
CGA:   4    -0.318118432290E+03   -0.26422E+01   -0.20030E+01  7696   0.122E+03 0.230E+02
CGA:   5    -0.319689378800E+03   -0.15709E+01   -0.16581E+01  7696   0.193E+03-0.241E+02
CGA:   6    -0.322532438202E+03   -0.28431E+01   -0.33009E+01  7696   0.296E+03 0.109E+02
CGA:   7    -0.326934188594E+03   -0.44018E+01   -0.55378E+01  7696   0.847E+02 0.937E+00
CGA:   8    -0.327815680197E+03   -0.88149E+00   -0.85609E+00  7696   0.168E+02 0.300E+01
CGA:   9    -0.328286390045E+03   -0.47071E+00   -0.57045E+00  7696   0.422E+02-0.217E+02
CGA:  10    -0.328962174247E+03   -0.67578E+00   -0.49615E+00  7696   0.785E+01 0.848E+01
CGA:  11    -0.329162422346E+03   -0.20025E+00   -0.19719E+00  7696   0.106E+02-0.835E-01
CGA:  12    -0.329459964423E+03   -0.29754E+00   -0.29824E+00  7696   0.306E+02-0.749E+00
CGA:  13    -0.329959400108E+03   -0.49944E+00   -0.48769E+00  7696   0.401E+02 0.209E+00
CGA:  14    -0.330256544955E+03   -0.29714E+00   -0.33448E+00  7696   0.785E+01-0.372E+01
CGA:  15    -0.330302270255E+03   -0.45725E-01   -0.55907E-01  7696   0.148E+01-0.101E+01
CGA:  16    -0.330322375908E+03   -0.20106E-01   -0.20338E-01  7696   0.217E+01-0.385E-03
CGA:  17    -0.330424484280E+03   -0.10211E+00   -0.10258E+00  7696   0.529E+01-0.273E-01
CGA:  18    -0.330511649065E+03   -0.87165E-01   -0.85665E-01  7696   0.397E+01 0.151E-01
CGA:  19    -0.330563010805E+03   -0.51362E-01   -0.55240E-01  7696   0.143E+01-0.116E+00
CGA:  20    -0.330585197915E+03   -0.22187E-01   -0.22617E-01  7696   0.135E+01-0.590E-03
CGA:  21    -0.330623703758E+03   -0.38506E-01   -0.39090E-01  7696   0.133E+01-0.916E-01
CGA:  22    -0.330640874684E+03   -0.17171E-01   -0.16151E-01  7696   0.979E+00 0.375E-01
CGA:  23    -0.330660933930E+03   -0.20059E-01   -0.20077E-01  7696   0.137E+01 0.140E-02
CGA:  24    -0.330679936719E+03   -0.19003E-01   -0.20635E-01  7696   0.448E+00-0.134E-01
CGA:  25    -0.330686567219E+03   -0.66305E-02   -0.67140E-02  7696   0.357E+00-0.571E-03
CGA:  26    -0.330695625411E+03   -0.90582E-02   -0.91003E-02  7696   0.520E+00-0.108E-01
CGA:  27    -0.330708125620E+03   -0.12500E-01   -0.12543E-01  7696   0.693E+00-0.158E-01
CGA:  28    -0.330716382680E+03   -0.82571E-02   -0.85719E-02  7696   0.185E+00-0.951E-02
CGA:  29    -0.330718320985E+03   -0.19383E-02   -0.19888E-02  7696   0.859E-01-0.256E-02
CGA:  30    -0.330721596791E+03   -0.32758E-02   -0.32174E-02  7696   0.233E+00 0.333E-02
CGA:  31    -0.330726381149E+03   -0.47844E-02   -0.47633E-02  7696   0.120E+00-0.197E-02
CGA:  32    -0.330729764784E+03   -0.33836E-02   -0.33771E-02  7696   0.160E+00 0.806E-03
CGA:  33    -0.330732907530E+03   -0.31427E-02   -0.31598E-02  7696   0.943E-01 0.164E-02
CGA:  34    -0.330734805753E+03   -0.18982E-02   -0.18887E-02  7696   0.383E-01-0.101E-02
CGA:  35    -0.330735680941E+03   -0.87519E-03   -0.87540E-03  7696   0.551E-01-0.345E-03
CGA:  36    -0.330738797836E+03   -0.31169E-02   -0.30655E-02  7696   0.982E-01 0.161E-02
CGA:  37    -0.330740046127E+03   -0.12483E-02   -0.12724E-02  7696   0.199E-01-0.795E-03
CGA:  38    -0.330741032696E+03   -0.98657E-03   -0.98888E-03  7696   0.533E-01-0.949E-04
CGA:  39    -0.330743074927E+03   -0.20422E-02   -0.20653E-02  7696   0.715E-01-0.144E-02
SDA:  40    -0.330744237090E+03   -0.11622E-02   -0.11813E-02  7696   0.101E-01 0.312E-04
CGA:  41    -0.330744553139E+03   -0.31605E-03   -0.31583E-03  7696   0.187E-01 0.264E-04
CGA:  42    -0.330745814153E+03   -0.12610E-02   -0.12661E-02  7696   0.218E-01-0.134E-03
CGA:  43    -0.330746132442E+03   -0.31829E-03   -0.31990E-03  7696   0.656E-02-0.429E-04
CGA:  44    -0.330746259888E+03   -0.12745E-03   -0.12742E-03  7696   0.567E-02-0.499E-05
CGA:  45    -0.330746667033E+03   -0.40714E-03   -0.41341E-03  7696   0.536E-02-0.149E-03
CGA:  46    -0.330747093306E+03   -0.42627E-03   -0.42323E-03  7696   0.289E-02 0.692E-04
CGA:  47    -0.330747224656E+03   -0.13135E-03   -0.13123E-03  7696   0.449E-02 0.683E-05
CGA:  48    -0.330747628131E+03   -0.40348E-03   -0.40486E-03  7696   0.287E-02-0.265E-04
CGA:  49    -0.330747678305E+03   -0.50174E-04   -0.50360E-04  7696   0.180E-02-0.423E-05
CGA:  50    -0.330747851104E+03   -0.17280E-03   -0.17383E-03  7696   0.584E-02-0.188E-04
CGA:  51    -0.330747972186E+03   -0.12108E-03   -0.12106E-03  7696   0.440E-02-0.395E-06
CGA:  52    -0.330748069579E+03   -0.97392E-04   -0.97524E-04  7696   0.252E-02-0.144E-05
CGA:  53    -0.330748138327E+03   -0.68749E-04   -0.68912E-04  7696   0.578E-03 0.559E-05
CGA:  54    -0.330748218101E+03   -0.79774E-04   -0.79937E-04  7696   0.290E-02-0.146E-05
CGA:  55    -0.330748268421E+03   -0.50320E-04   -0.50164E-04  7696   0.859E-03-0.284E-05
CGA:  56    -0.330748287814E+03   -0.19393E-04   -0.19343E-04  7696   0.925E-03-0.209E-05
CGA:  57    -0.330748323286E+03   -0.35472E-04   -0.35471E-04  7696   0.134E-02-0.368E-05
CGA:  58    -0.330748359164E+03   -0.35878E-04   -0.35843E-04  7696   0.292E-03-0.239E-05
CGA:  59    -0.330748375665E+03   -0.16501E-04   -0.16395E-04  7696   0.329E-03 0.544E-05
CGA:  60    -0.330748382508E+03   -0.68434E-05   -0.68919E-05  7696   0.418E-03 0.252E-05
CGA:  61    -0.330748408144E+03   -0.25636E-04   -0.25310E-04  7696   0.731E-03 0.147E-04
CGA:  62    -0.330748426546E+03   -0.18402E-04   -0.18530E-04  7696   0.888E-04 0.926E-05
CGA:  63    -0.330748429666E+03   -0.31193E-05   -0.31229E-05  7696   0.187E-03 0.980E-06
CGA:  64    -0.330748444805E+03   -0.15139E-04   -0.14844E-04  7696   0.242E-03 0.729E-05
CGA:  65    -0.330748450586E+03   -0.57810E-05   -0.58232E-05  7696   0.274E-03 0.236E-05
   4 F= -.33074845E+03 E0= -.33071855E+03  d E =-.322721E+01  mag=    32.0000
       N       E                     dE             d eps       ncg     rms          ort
SDA:   1    -0.310810063434E+03    0.19938E+02    0.00000E+00  7696   0.259E+03 0.000E+00
CGA:   2    -0.315628844214E+03   -0.48188E+01   -0.61617E+01  7696   0.144E+03-0.830E+02
CGA:   3    -0.318701304558E+03   -0.30725E+01   -0.26998E+01  7696   0.139E+03-0.142E+01
CGA:   4    -0.320928771558E+03   -0.22275E+01   -0.24583E+01  7696   0.269E+03-0.152E+02
CGA:   5    -0.322940966394E+03   -0.20122E+01   -0.26839E+01  7696   0.287E+03-0.129E+03
CGA:   6    -0.324238961031E+03   -0.12980E+01   -0.24718E+01  7696   0.453E+03-0.184E+02
CGA:   7    -0.328044139072E+03   -0.38052E+01   -0.63625E+01  7696   0.139E+03-0.857E+02
CGA:   8    -0.329253133369E+03   -0.12090E+01   -0.16281E+01  7696   0.171E+02-0.252E+02
CGA:   9    -0.318563983092E+03    0.10689E+02   -0.83568E+00  7696   0.184E+04-0.366E+03
CGA:  10    -0.328245876916E+03   -0.96819E+01   -0.32254E+02  7696   0.185E+03-0.122E+03
CGA:  11    -0.329659606054E+03   -0.14137E+01   -0.27621E+01  7696   0.809E+02-0.388E+02
CGA:  12    -0.330340781745E+03   -0.68118E+00   -0.47004E+00  7696   0.251E+02 0.279E+02
CGA:  13    -0.330656499064E+03   -0.31572E+00   -0.19036E+00  7696   0.162E+02 0.212E+02
CGA:  14    -0.331098007795E+03   -0.44151E+00   -0.32384E+00  7696   0.411E+01 0.595E+00
CGA:  15    -0.331205258271E+03   -0.10725E+00   -0.10524E+00  7696   0.935E+01-0.150E+00
CGA:  16    -0.331547235367E+03   -0.34198E+00   -0.33770E+00  7696   0.207E+02 0.306E+00
CGA:  17    -0.331792951568E+03   -0.24572E+00   -0.26043E+00  7696   0.726E+01-0.730E+00
CGA:  18    -0.331974597162E+03   -0.18165E+00   -0.15944E+00  7696   0.364E+01-0.680E+00
CGA:  19    -0.331994051805E+03   -0.19455E-01   -0.15212E-01  7696   0.150E+01 0.840E+00
CGA:  20    -0.332005284027E+03   -0.11232E-01   -0.10514E-01  7696   0.794E+00 0.112E+00
CGA:  21    -0.332013230649E+03   -0.79466E-02   -0.77785E-02  7696   0.109E+01 0.142E-01
CGA:  22    -0.332024495420E+03   -0.11265E-01   -0.11459E-01  7696   0.169E+01-0.108E-01
CGA:  23    -0.332039429272E+03   -0.14934E-01   -0.15097E-01  7696   0.211E+01-0.143E-01
CGA:  24    -0.332058257339E+03   -0.18828E-01   -0.19639E-01  7696   0.295E+01-0.646E-01
CGA:  25    -0.332087368464E+03   -0.29111E-01   -0.29602E-01  7696   0.348E+01-0.110E-01
CGA:  26    -0.332108650634E+03   -0.21282E-01   -0.16012E-01  7696   0.208E+01 0.101E+01
CGA:  27    -0.332121884526E+03   -0.13234E-01   -0.10875E-01  7696   0.988E+00 0.516E+00
CGA:  28    -0.332128252849E+03   -0.63683E-02   -0.59591E-02  7696   0.714E+00 0.724E-01
CGA:  29    -0.332132498763E+03   -0.42459E-02   -0.42940E-02  7696   0.745E+00-0.651E-02
CGA:  30    -0.332136371770E+03   -0.38730E-02   -0.41903E-02  7696   0.729E+00-0.462E-01
CGA:  31    -0.332139810598E+03   -0.34388E-02   -0.38142E-02  7696   0.660E+00-0.519E-01
CGA:  32    -0.332143550741E+03   -0.37401E-02   -0.40612E-02  7696   0.758E+00-0.334E-01
CGA:  33    -0.332149313273E+03   -0.57625E-02   -0.59409E-02  7696   0.951E+00-0.101E-01
CGA:  34    -0.332155658875E+03   -0.63456E-02   -0.59802E-02  7696   0.675E+00 0.408E-01
CGA:  35    -0.332159267925E+03   -0.36091E-02   -0.33842E-02  7696   0.367E+00 0.367E-01
CGA:  36    -0.332161450011E+03   -0.21821E-02   -0.21286E-02  7696   0.323E+00 0.708E-02
CGA:  37    -0.332163785878E+03   -0.23359E-02   -0.23150E-02  7696   0.436E+00 0.167E-02
CGA:  38    -0.332166638147E+03   -0.28523E-02   -0.28781E-02  7696   0.468E+00-0.222E-02
CGA:  39    -0.332169205807E+03   -0.25677E-02   -0.26662E-02  7696   0.378E+00-0.111E-01
CGA:  40    -0.332171466190E+03   -0.22604E-02   -0.23256E-02  7696   0.377E+00-0.589E-02
CGA:  41    -0.332174322794E+03   -0.28566E-02   -0.28920E-02  7696   0.457E+00-0.135E-02
CGA:  42    -0.332177527844E+03   -0.32050E-02   -0.31845E-02  7696   0.378E+00 0.116E-02
CGA:  43    -0.332179654545E+03   -0.21267E-02   -0.20896E-02  7696   0.235E+00 0.398E-02
SDA:  44    -0.332181056871E+03   -0.14023E-02   -0.13944E-02  7696   0.187E+00 0.664E-03
CGA:  45    -0.332183876304E+03   -0.28194E-02   -0.28064E-02  7696   0.403E-01 0.316E-02
CGA:  46    -0.332184701335E+03   -0.82503E-03   -0.82272E-03  7696   0.419E-01 0.269E-03
CGA:  47    -0.332186596995E+03   -0.18957E-02   -0.18546E-02  7696   0.475E-01 0.155E-02
CGA:  48    -0.332187860154E+03   -0.12632E-02   -0.12595E-02  7696   0.518E-01 0.312E-03
CGA:  49    -0.332190390020E+03   -0.25299E-02   -0.25915E-02  7696   0.168E-01-0.217E-02
CGA:  50    -0.332190709065E+03   -0.31905E-03   -0.31895E-03  7696   0.199E-01 0.183E-04
CGA:  51    -0.332191765989E+03   -0.10569E-02   -0.10583E-02  7696   0.362E-01-0.416E-04
CGA:  52    -0.332192603812E+03   -0.83782E-03   -0.83812E-03  7696   0.947E-02-0.492E-04
CGA:  53    -0.332193069016E+03   -0.46520E-03   -0.46332E-03  7696   0.296E-01 0.668E-04
CGA:  54    -0.332194349618E+03   -0.12806E-02   -0.12844E-02  7696   0.201E-01-0.177E-03
CGA:  55    -0.332194603410E+03   -0.25379E-03   -0.25335E-03  7696   0.711E-02 0.211E-04
CGA:  56    -0.332194993214E+03   -0.38980E-03   -0.38069E-03  7696   0.531E-02 0.303E-03
CGA:  57    -0.332195241991E+03   -0.24878E-03   -0.24827E-03  7696   0.125E-01 0.226E-04
CGA:  58    -0.332195811894E+03   -0.56990E-03   -0.56671E-03  7696   0.151E-01 0.147E-03
CGA:  59    -0.332196026182E+03   -0.21429E-03   -0.21381E-03  7696   0.265E-02 0.339E-04
CGA:  60    -0.332196080418E+03   -0.54236E-04   -0.54215E-04  7696   0.234E-02-0.121E-05
CGA:  61    -0.332196320114E+03   -0.23970E-03   -0.23826E-03  7696   0.446E-02 0.234E-04
CGA:  62    -0.332196404821E+03   -0.84707E-04   -0.84686E-04  7696   0.178E-02 0.980E-07
CGA:  63    -0.332196441608E+03   -0.36787E-04   -0.36767E-04  7696   0.183E-02-0.203E-05
CGA:  64    -0.332196535870E+03   -0.94262E-04   -0.94405E-04  7696   0.124E-02-0.591E-05
CGA:  65    -0.332196566358E+03   -0.30488E-04   -0.30480E-04  7696   0.123E-02-0.188E-05
CGA:  66    -0.332196610396E+03   -0.44038E-04   -0.43961E-04  7696   0.688E-03 0.742E-05
CGA:  67    -0.332196624773E+03   -0.14377E-04   -0.14366E-04  7696   0.894E-03-0.139E-05
CGA:  68    -0.332196690301E+03   -0.65527E-04   -0.65975E-04  7696   0.125E-02-0.102E-04
CGA:  69    -0.332196713909E+03   -0.23608E-04   -0.23607E-04  7696   0.203E-03-0.196E-05
CGA:  70    -0.332196724757E+03   -0.10848E-04   -0.10848E-04  7696   0.762E-03-0.512E-07
CGA:  71    -0.332196748671E+03   -0.23914E-04   -0.23915E-04  7696   0.492E-03-0.139E-05
CGA:  72    -0.332196757316E+03   -0.86453E-05   -0.86459E-05  7696   0.188E-03-0.490E-06
   5 F= -.33219676E+03 E0= -.33216685E+03  d E =-.144831E+01  mag=    32.0000
       N       E                     dE             d eps       ncg     rms          ort
SDA:   1    -0.265779363545E+03    0.66417E+02    0.00000E+00  7696   0.421E+04 0.000E+00
CGA:   2    -0.299404016840E+03   -0.33625E+02   -0.72554E+02  7696   0.305E+03-0.104E+02
CGA:   3    -0.304938247349E+03   -0.55342E+01   -0.36068E+01  7696   0.967E+02 0.101E+02
CGA:   4    -0.306466252186E+03   -0.15280E+01   -0.44181E+01  7696   0.747E+03-0.170E+03
CGA:   5    -0.313189197245E+03   -0.67229E+01   -0.11464E+02  7696   0.167E+03-0.103E+03
CGA:   6    -0.315464987454E+03   -0.22758E+01   -0.24813E+01  7696   0.113E+03-0.792E+01
CGA:   7    -0.318553996508E+03   -0.30890E+01   -0.27396E+01  7696   0.201E+03-0.324E+02
CGA:   8    -0.322067765374E+03   -0.35138E+01   -0.37292E+01  7696   0.545E+03 0.314E+02
CGA:   9    -0.328883413155E+03   -0.68156E+01   -0.93819E+01  7696   0.100E+03-0.345E+02
CGA:  10    -0.330176464250E+03   -0.12931E+01   -0.14841E+01  7696   0.751E+02-0.293E+01
CGA:  11    -0.331191840908E+03   -0.10154E+01   -0.56798E+00  7696   0.259E+02 0.175E+02
CGA:  12    -0.331344242715E+03   -0.15240E+00   -0.15898E+00  7696   0.156E+02-0.201E+01
CGA:  13    -0.331428371702E+03   -0.84129E-01   -0.92471E-01  7696   0.204E+02-0.118E+01
CGA:  14    -0.331559971210E+03   -0.13160E+00   -0.18903E+00  7696   0.316E+02-0.381E+01
CGA:  15    -0.331742454243E+03   -0.18248E+00   -0.22730E+00  7696   0.303E+02-0.347E+01
CGA:  16    -0.332059651166E+03   -0.31720E+00   -0.35679E+00  7696   0.466E+02-0.975E+00
CGA:  17    -0.332400387468E+03   -0.34074E+00   -0.21090E+00  7696   0.301E+02 0.266E+02
CGA:  18    -0.332694011284E+03   -0.29362E+00   -0.25329E+00  7696   0.387E+01 0.309E+01
CGA:  19    -0.332759907538E+03   -0.65896E-01   -0.59576E-01  7696   0.132E+01 0.159E-01
CGA:  20    -0.332779745473E+03   -0.19838E-01   -0.19849E-01  7696   0.169E+01 0.504E-03
CGA:  21    -0.332865473985E+03   -0.85729E-01   -0.81124E-01  7696   0.625E+01 0.178E+00
CGA:  22    -0.333017247185E+03   -0.15177E+00   -0.15184E+00  7696   0.351E+01-0.121E+00
CGA:  23    -0.333054358026E+03   -0.37111E-01   -0.36168E-01  7696   0.107E+01 0.483E-01
CGA:  24    -0.333080030771E+03   -0.25673E-01   -0.25665E-01  7696   0.162E+01 0.185E-02
CGA:  25    -0.333106550901E+03   -0.26520E-01   -0.25895E-01  7696   0.113E+01-0.164E-01
CGA:  26    -0.333125451356E+03   -0.18900E-01   -0.18736E-01  7696   0.109E+01-0.886E-02
CGA:  27    -0.333143753839E+03   -0.18302E-01   -0.18393E-01  7696   0.122E+01 0.687E-02
CGA:  28    -0.333166115774E+03   -0.22362E-01   -0.22633E-01  7696   0.798E+00 0.510E-01
CGA:  29    -0.333175609678E+03   -0.94939E-02   -0.94037E-02  7696   0.269E+00 0.300E-02
CGA:  30    -0.333180031529E+03   -0.44219E-02   -0.43714E-02  7696   0.213E+00-0.347E-02
CGA:  31    -0.333188374938E+03   -0.83434E-02   -0.83442E-02  7696   0.723E+00-0.735E-04
CGA:  32    -0.333200258263E+03   -0.11883E-01   -0.11932E-01  7696   0.192E+00 0.284E-02
CGA:  33    -0.333202629660E+03   -0.23714E-02   -0.23645E-02  7696   0.120E+00 0.125E-03
CGA:  34    -0.333205516548E+03   -0.28869E-02   -0.28823E-02  7696   0.165E+00 0.794E-03
CGA:  35    -0.333209887237E+03   -0.43707E-02   -0.43279E-02  7696   0.187E+00 0.536E-02
CGA:  36    -0.333212611066E+03   -0.27238E-02   -0.27203E-02  7696   0.994E-01 0.198E-04
CGA:  37    -0.333215874582E+03   -0.32635E-02   -0.32996E-02  7696   0.141E+00-0.252E-02
CGA:  38    -0.333217727305E+03   -0.18527E-02   -0.18438E-02  7696   0.391E-01 0.163E-03
CGA:  39    -0.333218176336E+03   -0.44903E-03   -0.45120E-03  7696   0.168E-01-0.512E-04
CGA:  40    -0.333218963145E+03   -0.78681E-03   -0.78696E-03  7696   0.648E-01-0.661E-05
CGA:  41    -0.333220223358E+03   -0.12602E-02   -0.12599E-02  7696   0.385E-01-0.381E-04
CGA:  42    -0.333220934455E+03   -0.71110E-03   -0.71260E-03  7696   0.263E-01 0.206E-03
CGA:  43    -0.333221368416E+03   -0.43396E-03   -0.43495E-03  7696   0.270E-01 0.581E-04
CGA:  44    -0.333222582955E+03   -0.12145E-02   -0.12307E-02  7696   0.415E-01-0.699E-03
CGA:  45    -0.333223041872E+03   -0.45892E-03   -0.45966E-03  7696   0.193E-01 0.591E-05
CGA:  46    -0.333223636353E+03   -0.59448E-03   -0.59059E-03  7696   0.286E-01 0.356E-03
CGA:  47    -0.333224029719E+03   -0.39337E-03   -0.39533E-03  7696   0.926E-02-0.122E-05
SDA:  48    -0.333224171305E+03   -0.14159E-03   -0.14150E-03  7696   0.756E-02 0.270E-05
CGA:  49    -0.333224318020E+03   -0.14672E-03   -0.14674E-03  7696   0.654E-02 0.345E-05
CGA:  50    -0.333224650860E+03   -0.33284E-03   -0.33807E-03  7696   0.515E-02-0.186E-03
CGA:  51    -0.333224931264E+03   -0.28040E-03   -0.27958E-03  7696   0.885E-02 0.267E-04
CGA:  52    -0.333225125766E+03   -0.19450E-03   -0.19458E-03  7696   0.604E-02 0.134E-04
CGA:  53    -0.333225239384E+03   -0.11362E-03   -0.11358E-03  7696   0.414E-02-0.179E-05
CGA:  54    -0.333225553165E+03   -0.31378E-03   -0.31177E-03  7696   0.362E-02 0.435E-04
CGA:  55    -0.333225615126E+03   -0.61961E-04   -0.62082E-04  7696   0.142E-02 0.218E-05
CGA:  56    -0.333225684013E+03   -0.68887E-04   -0.69060E-04  7696   0.401E-02-0.771E-05
CGA:  57    -0.333225897083E+03   -0.21307E-03   -0.21332E-03  7696   0.537E-02-0.989E-05
CGA:  58    -0.333225971372E+03   -0.74289E-04   -0.74363E-04  7696   0.209E-02-0.704E-05
CGA:  59    -0.333226061115E+03   -0.89743E-04   -0.89377E-04  7696   0.908E-03 0.204E-04
CGA:  60    -0.333226135285E+03   -0.74170E-04   -0.74264E-04  7696   0.317E-02-0.176E-05
CGA:  61    -0.333226219496E+03   -0.84211E-04   -0.84205E-04  7696   0.261E-02-0.222E-05
CGA:  62    -0.333226256588E+03   -0.37092E-04   -0.37138E-04  7696   0.526E-03-0.172E-05
CGA:  63    -0.333226316057E+03   -0.59469E-04   -0.59724E-04  7696   0.150E-02-0.299E-05
CGA:  64    -0.333226348409E+03   -0.32353E-04   -0.32289E-04  7696   0.512E-03-0.133E-05
CGA:  65    -0.333226360574E+03   -0.12165E-04   -0.12192E-04  7696   0.485E-03 0.185E-05
CGA:  66    -0.333226374255E+03   -0.13681E-04   -0.13709E-04  7696   0.382E-03 0.447E-05
CGA:  67    -0.333226384716E+03   -0.10461E-04   -0.10476E-04  7696   0.607E-03 0.272E-05
CGA:  68    -0.333226419468E+03   -0.34752E-04   -0.34472E-04  7696   0.125E-03 0.118E-04
CGA:  69    -0.333226424036E+03   -0.45683E-05   -0.45667E-05  7696   0.200E-03 0.821E-06
   6 F= -.33322642E+03 E0= -.33319618E+03  d E =-.102967E+01  mag=    32.0000
       N       E                     dE             d eps       ncg     rms          ort
SDA:   1    -0.304239439904E+03    0.28987E+02    0.00000E+00  7696   0.797E+03 0.000E+00
CGA:   2    -0.311443769076E+03   -0.72043E+01   -0.14939E+02  7696   0.177E+03-0.146E+03
CGA:   3    -0.314816697065E+03   -0.33729E+01   -0.32524E+01  7696   0.148E+03 0.124E+01
CGA:   4    -0.316737816209E+03   -0.19211E+01   -0.10795E+01  7696   0.818E+02 0.988E+02
CGA:   5    -0.318175672974E+03   -0.14379E+01   -0.15013E+01  7696   0.814E+02 0.982E-02
CGA:   6    -0.323111821066E+03   -0.49361E+01   -0.45605E+01  7696   0.161E+03 0.200E+02
CGA:   7    -0.329180693895E+03   -0.60689E+01   -0.60256E+01  7696   0.167E+03-0.123E+02
CGA:   8    -0.331223138442E+03   -0.20424E+01   -0.26278E+01  7696   0.363E+02-0.102E+02
CGA:   9    -0.332045325065E+03   -0.82219E+00   -0.75589E+00  7696   0.163E+02-0.730E-01
CGA:  10    -0.332234856415E+03   -0.18953E+00   -0.14852E+00  7696   0.679E+01 0.354E+01
CGA:  11    -0.332381431924E+03   -0.14658E+00   -0.14183E+00  7696   0.133E+02 0.103E+00
CGA:  12    -0.332642559284E+03   -0.26113E+00   -0.26755E+00  7696   0.284E+02-0.139E-01
CGA:  13    -0.332999314030E+03   -0.35675E+00   -0.41623E+00  7696   0.161E+02-0.170E+01
CGA:  14    -0.333229154782E+03   -0.22984E+00   -0.22182E+00  7696   0.102E+02 0.333E+00
CGA:  15    -0.333318318613E+03   -0.89164E-01   -0.66546E-01  7696   0.339E+01 0.295E+01
CGA:  16    -0.333346167844E+03   -0.27849E-01   -0.22865E-01  7696   0.114E+01 0.834E+00
CGA:  17    -0.333359609897E+03   -0.13442E-01   -0.12572E-01  7696   0.151E+01 0.728E-01
CGA:  18    -0.333382763526E+03   -0.23154E-01   -0.22818E-01  7696   0.466E+01 0.795E-02
CGA:  19    -0.333431461872E+03   -0.48698E-01   -0.49262E-01  7696   0.746E+01-0.181E-01
CGA:  20    -0.333474528969E+03   -0.43067E-01   -0.49313E-01  7696   0.359E+01-0.736E+00
CGA:  21    -0.333490605386E+03   -0.16076E-01   -0.17510E-01  7696   0.148E+01-0.220E+00
CGA:  22    -0.333499528534E+03   -0.89231E-02   -0.89870E-02  7696   0.103E+01-0.693E-02
CGA:  23    -0.333507813841E+03   -0.82853E-02   -0.79629E-02  7696   0.941E+00 0.293E-01
CGA:  24    -0.333515724041E+03   -0.79102E-02   -0.74118E-02  7696   0.107E+01 0.457E-01
CGA:  25    -0.333526936394E+03   -0.11212E-01   -0.10910E-01  7696   0.199E+01 0.159E-01
CGA:  26    -0.333545420227E+03   -0.18484E-01   -0.17599E-01  7696   0.287E+01 0.612E-01
CGA:  27    -0.333560806548E+03   -0.15386E-01   -0.14734E-01  7696   0.167E+01 0.105E+00
CGA:  28    -0.333567596499E+03   -0.67900E-02   -0.74584E-02  7696   0.552E+00-0.130E+00
CGA:  29    -0.333569759216E+03   -0.21627E-02   -0.22575E-02  7696   0.286E+00-0.176E-01
CGA:  30    -0.333571568046E+03   -0.18088E-02   -0.18321E-02  7696   0.339E+00-0.239E-02
CGA:  31    -0.333574958329E+03   -0.33903E-02   -0.33947E-02  7696   0.654E+00-0.157E-03
CGA:  32    -0.333580475571E+03   -0.55172E-02   -0.53260E-02  7696   0.827E+00 0.113E-01
CGA:  33    -0.333585680522E+03   -0.52050E-02   -0.49444E-02  7696   0.765E+00 0.309E-01
CGA:  34    -0.333590543164E+03   -0.48626E-02   -0.46862E-02  7696   0.775E+00 0.199E-01
SDA:  35    -0.333595119813E+03   -0.45766E-02   -0.44324E-02  7696   0.743E+00 0.174E-01
CGA:  36    -0.333604039289E+03   -0.89195E-02   -0.89751E-02  7696   0.163E+00 0.964E-02
CGA:  37    -0.333608279617E+03   -0.42403E-02   -0.41083E-02  7696   0.488E-01 0.112E-01
CGA:  38    -0.333609366158E+03   -0.10865E-02   -0.10867E-02  7696   0.612E-01-0.105E-04
CGA:  39    -0.333612752847E+03   -0.33867E-02   -0.33892E-02  7696   0.108E+00-0.967E-04
CGA:  40    -0.333616003691E+03   -0.32508E-02   -0.32425E-02  7696   0.276E-01 0.604E-03
CGA:  41    -0.333617335672E+03   -0.13320E-02   -0.13451E-02  7696   0.541E-01-0.485E-03
CGA:  42    -0.333618350676E+03   -0.10150E-02   -0.10150E-02  7696   0.319E-01-0.509E-03
CGA:  43    -0.333619729196E+03   -0.13785E-02   -0.13824E-02  7696   0.473E-01-0.164E-03
CGA:  44    -0.333620443409E+03   -0.71421E-03   -0.71611E-03  7696   0.985E-02 0.216E-04
CGA:  45    -0.333621211080E+03   -0.76767E-03   -0.77065E-03  7696   0.303E-01-0.496E-04
CGA:  46    -0.333622192232E+03   -0.98115E-03   -0.98102E-03  7696   0.219E-01 0.701E-07
CGA:  47    -0.333622496073E+03   -0.30384E-03   -0.30414E-03  7696   0.911E-02-0.110E-04
CGA:  48    -0.333622874317E+03   -0.37824E-03   -0.38093E-03  7696   0.844E-02-0.136E-03
CGA:  49    -0.333623143896E+03   -0.26958E-03   -0.26989E-03  7696   0.136E-01-0.219E-04
CGA:  50    -0.333623723440E+03   -0.57954E-03   -0.57696E-03  7696   0.104E-01 0.137E-03
CGA:  51    -0.333623935364E+03   -0.21192E-03   -0.21223E-03  7696   0.283E-02 0.435E-04
CGA:  52    -0.333624050639E+03   -0.11528E-03   -0.11495E-03  7696   0.905E-02 0.207E-04
CGA:  53    -0.333624375438E+03   -0.32480E-03   -0.32416E-03  7696   0.257E-02 0.631E-04
CGA:  54    -0.333624467977E+03   -0.92539E-04   -0.92529E-04  7696   0.329E-02 0.211E-05
CGA:  55    -0.333624543061E+03   -0.75084E-04   -0.74941E-04  7696   0.203E-02-0.159E-04
CGA:  56    -0.333624713337E+03   -0.17028E-03   -0.17200E-03  7696   0.566E-02-0.297E-04
CGA:  57    -0.333624870072E+03   -0.15674E-03   -0.15674E-03  7696   0.170E-02-0.731E-05
CGA:  58    -0.333624890676E+03   -0.20604E-04   -0.20608E-04  7696   0.541E-03-0.881E-06
CGA:  59    -0.333624928691E+03   -0.38015E-04   -0.37500E-04  7696   0.187E-02 0.126E-04
CGA:  60    -0.333624970849E+03   -0.42158E-04   -0.42314E-04  7696   0.943E-03 0.154E-04
CGA:  61    -0.333625008437E+03   -0.37588E-04   -0.37527E-04  7696   0.498E-03 0.730E-05
CGA:  62    -0.333625019484E+03   -0.11047E-04   -0.11052E-04  7696   0.191E-03 0.103E-05
CGA:  63    -0.333625034461E+03   -0.14977E-04   -0.15176E-04  7696   0.107E-02-0.406E-05
CGA:  64    -0.333625062962E+03   -0.28501E-04   -0.28447E-04  7696   0.246E-03-0.101E-04
CGA:  65    -0.333625066640E+03   -0.36777E-05   -0.36425E-05  7696   0.151E-03-0.208E-05
   7 F= -.33362507E+03 E0= -.33359499E+03  d E =-.398643E+00  mag=    32.0000
       N       E                     dE             d eps       ncg     rms          ort
SDA:   1    -0.298910850207E+03    0.34714E+02    0.00000E+00  7696   0.128E+04 0.000E+00
CGA:   2    -0.307808390146E+03   -0.88975E+01   -0.22515E+02  7696   0.222E+03-0.111E+03
CGA:   3    -0.312600232615E+03   -0.47918E+01   -0.45129E+01  7696   0.121E+03-0.934E+01
CGA:   4    -0.315067030322E+03   -0.24668E+01   -0.14556E+01  7696   0.124E+03 0.570E+02
CGA:   5    -0.317605084437E+03   -0.25381E+01   -0.31868E+01  7696   0.279E+03-0.240E+02
CGA:   6    -0.320931109924E+03   -0.33260E+01   -0.40172E+01  7696   0.257E+03 0.157E+01
CGA:   7    -0.327477781808E+03   -0.65467E+01   -0.57549E+01  7696   0.241E+03-0.353E+02
CGA:   8    -0.329469736734E+03   -0.19920E+01   -0.17384E+01  7696   0.103E+03 0.530E+02
CGA:   9    -0.330267938446E+03   -0.79820E+00   -0.55178E+00  7696   0.283E+02 0.454E+02
CGA:  10    -0.330498864076E+03   -0.23093E+00   -0.17147E+00  7696   0.161E+02 0.123E+02
CGA:  11    -0.330654973169E+03   -0.15611E+00   -0.12858E+00  7696   0.221E+02 0.395E+01
CGA:  12    -0.330818351262E+03   -0.16338E+00   -0.15648E+00  7696   0.445E+02 0.660E+00
CGA:  13    -0.331001846061E+03   -0.18349E+00   -0.23264E+00  7696   0.857E+02-0.853E+01
CGA:  14    -0.331168565785E+03   -0.16672E+00   -0.27501E+00  7696   0.121E+03-0.224E+02
CGA:  15    -0.331331469745E+03   -0.16290E+00   -0.30829E+00  7696   0.133E+03-0.341E+02
CGA:  16    -0.331537121111E+03   -0.20565E+00   -0.28426E+00  7696   0.120E+03-0.199E+02
CGA:  17    -0.331819345733E+03   -0.28222E+00   -0.25516E+00  7696   0.844E+02 0.118E+02
CGA:  18    -0.332095038938E+03   -0.27569E+00   -0.22307E+00  7696   0.457E+02 0.202E+02
CGA:  19    -0.332260740961E+03   -0.16570E+00   -0.13147E+00  7696   0.235E+02 0.134E+02
CGA:  20    -0.332350873804E+03   -0.90133E-01   -0.74170E-01  7696   0.140E+02 0.591E+01
CGA:  21    -0.332405557673E+03   -0.54684E-01   -0.47137E-01  7696   0.118E+02 0.251E+01
CGA:  22    -0.332449932801E+03   -0.44375E-01   -0.38690E-01  7696   0.134E+02 0.187E+01
CGA:  23    -0.332497139463E+03   -0.47207E-01   -0.38047E-01  7696   0.165E+02 0.360E+01
CGA:  24    -0.332555116255E+03   -0.57977E-01   -0.41581E-01  7696   0.184E+02 0.801E+01
CGA:  25    -0.332629297074E+03   -0.74181E-01   -0.52989E-01  7696   0.180E+02 0.104E+02
CGA:  26    -0.332866938036E+03   -0.23764E+00   -0.23768E+00  7696   0.609E+01 0.161E+00
CGA:  27    -0.332985844789E+03   -0.11891E+00   -0.12120E+00  7696   0.801E+01-0.303E+00
CGA:  28    -0.333274829459E+03   -0.28898E+00   -0.29227E+00  7696   0.123E+02-0.204E+00
CGA:  29    -0.333487006393E+03   -0.21218E+00   -0.20876E+00  7696   0.442E+01 0.896E+00
CGA:  30    -0.333549888121E+03   -0.62882E-01   -0.62909E-01  7696   0.180E+01 0.668E-02
CGA:  31    -0.333591263597E+03   -0.41375E-01   -0.41950E-01  7696   0.236E+01-0.609E-01
CGA:  32    -0.333651720808E+03   -0.60457E-01   -0.63285E-01  7696   0.196E+01-0.226E+00
CGA:  33    -0.333694029039E+03   -0.42308E-01   -0.42107E-01  7696   0.166E+01 0.206E-01
CGA:  34    -0.333722867957E+03   -0.28839E-01   -0.28767E-01  7696   0.777E+00 0.500E-01
CGA:  35    -0.333736530501E+03   -0.13663E-01   -0.13647E-01  7696   0.266E+00 0.129E-01
CGA:  36    -0.333754168694E+03   -0.17638E-01   -0.17898E-01  7696   0.806E+00-0.692E-02
CGA:  37    -0.333776423325E+03   -0.22255E-01   -0.22408E-01  7696   0.483E+00-0.138E-01
CGA:  38    -0.333783309634E+03   -0.68863E-02   -0.69652E-02  7696   0.119E+00 0.299E-02
CGA:  39    -0.333788149390E+03   -0.48398E-02   -0.49592E-02  7696   0.204E+00-0.577E-02
CGA:  40    -0.333792685606E+03   -0.45362E-02   -0.45751E-02  7696   0.226E+00-0.745E-02
CGA:  41    -0.333798837896E+03   -0.61523E-02   -0.61252E-02  7696   0.270E+00 0.274E-02
CGA:  42    -0.333804967018E+03   -0.61291E-02   -0.60975E-02  7696   0.154E+00 0.124E-01
CGA:  43    -0.333807329617E+03   -0.23626E-02   -0.23575E-02  7696   0.416E-01 0.189E-04
CGA:  44    -0.333809472528E+03   -0.21429E-02   -0.21468E-02  7696   0.124E+00-0.165E-03
CGA:  45    -0.333812780051E+03   -0.33075E-02   -0.32891E-02  7696   0.663E-01 0.275E-02
CGA:  46    -0.333813912468E+03   -0.11324E-02   -0.11366E-02  7696   0.253E-01 0.154E-03
CGA:  47    -0.333815610193E+03   -0.16977E-02   -0.17277E-02  7696   0.947E-01-0.776E-03
CGA:  48    -0.333818265115E+03   -0.26549E-02   -0.26550E-02  7696   0.786E-01-0.699E-04
CGA:  49    -0.333820228144E+03   -0.19630E-02   -0.19631E-02  7696   0.558E-01-0.128E-03
CGA:  50    -0.333821580822E+03   -0.13527E-02   -0.13531E-02  7696   0.349E-01 0.549E-03
CGA:  51    -0.333822350595E+03   -0.76977E-03   -0.77264E-03  7696   0.265E-01 0.399E-03
CGA:  52    -0.333823995340E+03   -0.16447E-02   -0.16303E-02  7696   0.596E-01 0.430E-03
CGA:  53    -0.333825422551E+03   -0.14272E-02   -0.14259E-02  7696   0.255E-01-0.197E-03
CGA:  54    -0.333825845412E+03   -0.42286E-03   -0.42418E-03  7696   0.126E-01-0.176E-04
CGA:  55    -0.333826567487E+03   -0.72208E-03   -0.72065E-03  7696   0.336E-01 0.477E-04
SDA:  56    -0.333827273619E+03   -0.70613E-03   -0.70548E-03  7696   0.956E-02-0.292E-04
CGA:  57    -0.333827478996E+03   -0.20538E-03   -0.20562E-03  7696   0.466E-02 0.135E-04
CGA:  58    -0.333827616752E+03   -0.13776E-03   -0.13769E-03  7696   0.576E-02 0.162E-04
CGA:  59    -0.333827768834E+03   -0.15208E-03   -0.15210E-03  7696   0.485E-02 0.247E-04
CGA:  60    -0.333827963333E+03   -0.19450E-03   -0.19401E-03  7696   0.868E-02 0.330E-04
CGA:  61    -0.333828164602E+03   -0.20127E-03   -0.20074E-03  7696   0.141E-02-0.312E-04
CGA:  62    -0.333828377888E+03   -0.21329E-03   -0.34284E-05  7696   0.478E-02-0.187E-03
CGA:  63    -0.333828436527E+03   -0.58639E-04   -0.57942E-04  7696   0.154E-02 0.483E-04
CGA:  64    -0.333828468961E+03   -0.32434E-04   -0.32321E-04  7696   0.131E-02 0.292E-05
CGA:  65    -0.333828569642E+03   -0.10068E-03   -0.10029E-03  7696   0.372E-02 0.115E-04
CGA:  66    -0.333828626178E+03   -0.56536E-04   -0.55860E-04  7696   0.529E-03 0.306E-04
CGA:  67    -0.333828634844E+03   -0.86660E-05   -0.85924E-05  7696   0.420E-03-0.934E-06
CGA:  68    -0.333828662569E+03   -0.27725E-04   -0.27930E-04  7696   0.133E-02-0.948E-05
CGA:  69    -0.333828704770E+03   -0.42201E-04   -0.41978E-04  7696   0.499E-03-0.150E-04
CGA:  70    -0.333828710766E+03   -0.59958E-05   -0.59249E-05  7696   0.213E-03-0.155E-05
CGA:  71    -0.333828723543E+03   -0.12777E-04   -0.12796E-04  7696   0.547E-03-0.129E-05
CGA:  72    -0.333828741359E+03   -0.17816E-04   -0.17797E-04  7696   0.293E-03-0.216E-05
CGA:  73    -0.333828745249E+03   -0.38897E-05   -0.38555E-05  7696   0.137E-03-0.457E-06
   8 F= -.33382875E+03 E0= -.33379939E+03  d E =-.203679E+00  mag=    32.0000
       N       E                     dE             d eps       ncg     rms          ort
SDA:   1    -0.330071278704E+03    0.37575E+01    0.00000E+00  7696   0.167E+02 0.000E+00
CGA:   2    -0.330579973743E+03   -0.50870E+00   -0.54580E+00  7696   0.280E+02 0.725E+00
CGA:   3    -0.331590464491E+03   -0.10105E+01   -0.10038E+01  7696   0.525E+02-0.306E+00
CGA:   4    -0.333150797718E+03   -0.15603E+01   -0.15699E+01  7696   0.754E+01 0.269E+00
CGA:   5    -0.333264134650E+03   -0.11334E+00   -0.10954E+00  7696   0.398E+01 0.189E+00
CGA:   6    -0.333522863815E+03   -0.25873E+00   -0.25758E+00  7696   0.976E+01 0.410E-01
CGA:   7    -0.333812897497E+03   -0.29003E+00   -0.28621E+00  7696   0.275E+01-0.233E-01
CGA:   8    -0.333848712147E+03   -0.35815E-01   -0.38554E-01  7696   0.121E+01-0.149E+00
CGA:   9    -0.333892555468E+03   -0.43843E-01   -0.43660E-01  7696   0.102E+01-0.830E-01
CGA:  10    -0.333911442302E+03   -0.18887E-01   -0.18345E-01  7696   0.628E+00 0.152E-01
CGA:  11    -0.333933793856E+03   -0.22352E-01   -0.22436E-01  7696   0.664E+00 0.117E-01
CGA:  12    -0.333950459320E+03   -0.16665E-01   -0.16981E-01  7696   0.186E+00 0.210E-03
CGA:  13    -0.333954278923E+03   -0.38196E-02   -0.37923E-02  7696   0.214E+00 0.522E-03
CGA:  14    -0.333966137896E+03   -0.11859E-01   -0.11883E-01  7696   0.115E+00-0.127E-02
CGA:  15    -0.333968583259E+03   -0.24454E-02   -0.24626E-02  7696   0.681E-01-0.239E-03
CGA:  16    -0.333970536805E+03   -0.19535E-02   -0.19634E-02  7696   0.863E-01 0.321E-03
CGA:  17    -0.333972653677E+03   -0.21169E-02   -0.21243E-02  7696   0.395E-01 0.118E-04
CGA:  18    -0.333975159210E+03   -0.25055E-02   -0.24887E-02  7696   0.110E+00 0.559E-03
CGA:  19    -0.333977024758E+03   -0.18655E-02   -0.18400E-02  7696   0.152E-01 0.923E-03
CGA:  20    -0.333977440617E+03   -0.41586E-03   -0.41669E-03  7696   0.193E-01 0.413E-05
CGA:  21    -0.333978361744E+03   -0.92113E-03   -0.91810E-03  7696   0.405E-01 0.197E-03
CGA:  22    -0.333979502210E+03   -0.11405E-02   -0.11408E-02  7696   0.178E-01 0.377E-04
CGA:  23    -0.333979949617E+03   -0.44741E-03   -0.44668E-03  7696   0.203E-01 0.425E-06
CGA:  24    -0.333980475819E+03   -0.52620E-03   -0.52348E-03  7696   0.600E-02-0.265E-04
CGA:  25    -0.333980719710E+03   -0.24389E-03   -0.24390E-03  7696   0.142E-01-0.102E-05
CGA:  26    -0.333981224622E+03   -0.50491E-03   -0.50489E-03  7696   0.152E-01 0.190E-04
CGA:  27    -0.333981554321E+03   -0.32970E-03   -0.33052E-03  7696   0.390E-02 0.148E-05
CGA:  28    -0.333981693802E+03   -0.13948E-03   -0.13947E-03  7696   0.840E-02 0.645E-05
CGA:  29    -0.333981944029E+03   -0.25023E-03   -0.25006E-03  7696   0.316E-02-0.695E-05
CGA:  30    -0.333982043898E+03   -0.99869E-04   -0.99868E-04  7696   0.419E-02 0.357E-05
CGA:  31    -0.333982145871E+03   -0.10197E-03   -0.10230E-03  7696   0.227E-02 0.111E-04
SDA:  32    -0.333982203286E+03   -0.57415E-04   -0.57495E-04  7696   0.171E-02 0.619E-05
CGA:  33    -0.333982228782E+03   -0.25496E-04   -0.25421E-04  7696   0.112E-02-0.105E-05
CGA:  34    -0.333982266161E+03   -0.37379E-04   -0.37390E-04  7696   0.997E-03-0.686E-05
CGA:  35    -0.333982300430E+03   -0.34269E-04   -0.34268E-04  7696   0.104E-02-0.148E-06
CGA:  36    -0.333982345226E+03   -0.44796E-04   -0.44801E-04  7696   0.162E-02-0.501E-06
CGA:  37    -0.333982386653E+03   -0.41427E-04   -0.41482E-04  7696   0.480E-03 0.308E-05
CGA:  38    -0.333982455170E+03   -0.68516E-04   -0.67910E-04  7696   0.233E-03 0.590E-05
CGA:  39    -0.333982459617E+03   -0.44473E-05   -0.44375E-05  7696   0.244E-03-0.554E-06
CGA:  40    -0.333982471903E+03   -0.12286E-04   -0.12307E-04  7696   0.638E-03-0.178E-05
CGA:  41    -0.333982502433E+03   -0.30530E-04   -0.30576E-04  7696   0.672E-04-0.453E-05
CGA:  42    -0.333982505909E+03   -0.34758E-05   -0.34770E-05  7696   0.224E-03-0.129E-06
CGA:  43    -0.333982516353E+03   -0.10444E-04   -0.10457E-04  7696   0.112E-03-0.155E-05
CGA:  44    -0.333982521904E+03   -0.55517E-05   -0.55418E-05  7696   0.116E-03 0.812E-06
   9 F= -.33398252E+03 E0= -.33395304E+03  d E =-.153777E+00  mag=    32.0000
       N       E                     dE             d eps       ncg     rms          ort
SDA:   1    -0.325857795283E+03    0.81247E+01    0.00000E+00  7696   0.599E+03 0.000E+00
CGA:   2    -0.326337764010E+03   -0.47997E+00   -0.99516E+01  7696   0.378E+03-0.336E+03
CGA:   3    -0.330799247593E+03   -0.44615E+01   -0.37144E+01  7696   0.167E+02-0.488E+02
CGA:   4    -0.331149583827E+03   -0.35034E+00   -0.34340E+00  7696   0.152E+02-0.495E-01
CGA:   5    -0.332123860842E+03   -0.97428E+00   -0.95800E+00  7696   0.462E+02 0.593E+00
CGA:   6    -0.333388699924E+03   -0.12648E+01   -0.12967E+01  7696   0.141E+02 0.271E+00
CGA:   7    -0.333555295129E+03   -0.16660E+00   -0.15551E+00  7696   0.201E+01 0.780E+00
CGA:   8    -0.333668376600E+03   -0.11308E+00   -0.11314E+00  7696   0.441E+01-0.438E-02
CGA:   9    -0.333938186935E+03   -0.26981E+00   -0.27141E+00  7696   0.290E+01-0.591E-01
CGA:  10    -0.333972669453E+03   -0.34483E-01   -0.38808E-01  7696   0.406E+00-0.231E+00
CGA:  11    -0.333985206523E+03   -0.12537E-01   -0.12538E-01  7696   0.576E+00 0.154E-03
CGA:  12    -0.333999803704E+03   -0.14597E-01   -0.14601E-01  7696   0.571E+00 0.859E-04
CGA:  13    -0.334014301532E+03   -0.14498E-01   -0.14638E-01  7696   0.249E+00 0.183E-02
CGA:  14    -0.334021137531E+03   -0.68360E-02   -0.67796E-02  7696   0.162E+00-0.146E-02
CGA:  15    -0.334025287436E+03   -0.41499E-02   -0.41498E-02  7696   0.731E-01 0.507E-04
CGA:  16    -0.334027738791E+03   -0.24514E-02   -0.24513E-02  7696   0.112E+00-0.421E-04
CGA:  17    -0.334030739235E+03   -0.30004E-02   -0.30021E-02  7696   0.107E+00 0.673E-04
CGA:  18    -0.334033175160E+03   -0.24359E-02   -0.24500E-02  7696   0.270E-01 0.407E-04
CGA:  19    -0.334033884471E+03   -0.70931E-03   -0.70749E-03  7696   0.272E-01-0.690E-04
CGA:  20    -0.334035507356E+03   -0.16229E-02   -0.16210E-02  7696   0.372E-01 0.664E-04
CGA:  21    -0.334036245706E+03   -0.73835E-03   -0.73724E-03  7696   0.154E-01 0.799E-05
CGA:  22    -0.334036499062E+03   -0.25336E-03   -0.25273E-03  7696   0.870E-02 0.180E-04
CGA:  23    -0.334037135596E+03   -0.63653E-03   -0.63252E-03  7696   0.241E-01 0.104E-03
CGA:  24    -0.334037766586E+03   -0.63099E-03   -0.63028E-03  7696   0.812E-02 0.625E-05
CGA:  25    -0.334037964547E+03   -0.19796E-03   -0.19828E-03  7696   0.432E-02 0.119E-04
CGA:  26    -0.334038125193E+03   -0.16065E-03   -0.16068E-03  7696   0.838E-02-0.503E-05
CGA:  27    -0.334038338479E+03   -0.21329E-03   -0.21311E-03  7696   0.637E-02 0.134E-05
CGA:  28    -0.334038561790E+03   -0.22331E-03   -0.22324E-03  7696   0.697E-02 0.275E-04
CGA:  29    -0.334038746991E+03   -0.18520E-03   -0.18516E-03  7696   0.258E-02 0.290E-05
CGA:  30    -0.334038822263E+03   -0.75272E-04   -0.75319E-04  7696   0.182E-02 0.663E-05
CGA:  31    -0.334038923922E+03   -0.10166E-03   -0.10167E-03  7696   0.462E-02-0.300E-06
CGA:  32    -0.334039025030E+03   -0.10111E-03   -0.10113E-03  7696   0.196E-02 0.259E-05
SDA:  33    -0.334039057834E+03   -0.32804E-04   -0.32875E-04  7696   0.925E-03 0.190E-05
CGA:  34    -0.334039070974E+03   -0.13141E-04   -0.13122E-04  7696   0.539E-03-0.600E-06
CGA:  35    -0.334039109964E+03   -0.38989E-04   -0.38892E-04  7696   0.177E-02 0.233E-05
CGA:  36    -0.334039140911E+03   -0.30947E-04   -0.30985E-04  7696   0.472E-03 0.914E-06
CGA:  37    -0.334039165538E+03   -0.24627E-04   -0.24633E-04  7696   0.786E-03-0.251E-06
CGA:  38    -0.334039201851E+03   -0.36313E-04   -0.36298E-04  7696   0.511E-03 0.130E-05
CGA:  39    -0.334039233113E+03   -0.31263E-04   -0.31120E-04  7696   0.568E-03 0.519E-05
CGA:  40    -0.334039239629E+03   -0.65158E-05   -0.65258E-05  7696   0.131E-03-0.145E-06
  10 F= -.33403924E+03 E0= -.33400970E+03  d E =-.567177E-01  mag=    32.0000
       N       E                     dE             d eps       ncg     rms          ort
SDA:   1    -0.331246881116E+03    0.27924E+01    0.00000E+00  7696   0.869E+02 0.000E+00
CGA:   2    -0.331778554812E+03   -0.53167E+00   -0.14082E+01  7696   0.336E+02-0.323E+02
CGA:   3    -0.332330670584E+03   -0.55212E+00   -0.52036E+00  7696   0.131E+02-0.226E+00
CGA:   4    -0.332578621250E+03   -0.24795E+00   -0.22719E+00  7696   0.960E+01 0.469E+00
CGA:   5    -0.332988095309E+03   -0.40947E+00   -0.40623E+00  7696   0.168E+02 0.294E+00
CGA:   6    -0.333719599298E+03   -0.73150E+00   -0.72917E+00  7696   0.137E+02 0.205E+00
CGA:   7    -0.333868552580E+03   -0.14895E+00   -0.15521E+00  7696   0.261E+01-0.477E+00
CGA:   8    -0.333917365955E+03   -0.48813E-01   -0.49642E-01  7696   0.140E+01-0.860E-02
CGA:   9    -0.333966530636E+03   -0.49165E-01   -0.49405E-01  7696   0.234E+01-0.514E-01
CGA:  10    -0.334053729987E+03   -0.87199E-01   -0.86858E-01  7696   0.233E+01 0.394E-01
CGA:  11    -0.334081944834E+03   -0.28215E-01   -0.28915E-01  7696   0.404E+00-0.414E-01
CGA:  12    -0.334090882822E+03   -0.89380E-02   -0.87954E-02  7696   0.152E+00-0.770E-03
CGA:  13    -0.334097888283E+03   -0.70055E-02   -0.69697E-02  7696   0.267E+00 0.205E-02
CGA:  14    -0.334105986714E+03   -0.80984E-02   -0.80897E-02  7696   0.191E+00-0.141E-02
CGA:  15    -0.334110812240E+03   -0.48255E-02   -0.48199E-02  7696   0.160E+00-0.131E-03
CGA:  16    -0.334113363850E+03   -0.25516E-02   -0.25754E-02  7696   0.445E-01-0.615E-03
CGA:  17    -0.334114529296E+03   -0.11654E-02   -0.11649E-02  7696   0.247E-01-0.227E-04
CGA:  18    -0.334115726366E+03   -0.11971E-02   -0.11920E-02  7696   0.509E-01 0.254E-03
CGA:  19    -0.334117710803E+03   -0.19844E-02   -0.19890E-02  7696   0.268E-01-0.448E-03
CGA:  20    -0.334118290218E+03   -0.57941E-03   -0.58111E-03  7696   0.919E-02 0.135E-04
CGA:  21    -0.334118491375E+03   -0.20116E-03   -0.20125E-03  7696   0.102E-01 0.802E-05
CGA:  22    -0.334118938596E+03   -0.44722E-03   -0.44785E-03  7696   0.187E-01-0.344E-04
CGA:  23    -0.334119451855E+03   -0.51326E-03   -0.51385E-03  7696   0.861E-02 0.712E-04
CGA:  24    -0.334119656352E+03   -0.20450E-03   -0.20440E-03  7696   0.387E-02 0.674E-05
CGA:  25    -0.334119890076E+03   -0.23372E-03   -0.23263E-03  7696   0.756E-02 0.370E-04
CGA:  26    -0.334120124590E+03   -0.23451E-03   -0.23444E-03  7696   0.413E-02-0.136E-04
CGA:  27    -0.334120219716E+03   -0.95127E-04   -0.95300E-04  7696   0.221E-02 0.568E-05
CGA:  28    -0.334120291265E+03   -0.71549E-04   -0.71547E-04  7696   0.401E-02 0.397E-05
CGA:  29    -0.334120411571E+03   -0.12031E-03   -0.12029E-03  7696   0.333E-02-0.316E-05
CGA:  30    -0.334120507842E+03   -0.96271E-04   -0.96306E-04  7696   0.167E-02 0.590E-05
CGA:  31    -0.334120550100E+03   -0.42258E-04   -0.42224E-04  7696   0.971E-03-0.240E-05
SDA:  32    -0.334120583449E+03   -0.33348E-04   -0.33343E-04  7696   0.718E-03 0.907E-06
CGA:  33    -0.334120594971E+03   -0.11523E-04   -0.11503E-04  7696   0.323E-03 0.295E-06
CGA:  34    -0.334120612544E+03   -0.17572E-04   -0.17518E-04  7696   0.741E-03 0.222E-05
CGA:  35    -0.334120637530E+03   -0.24987E-04   -0.24982E-04  7696   0.797E-03 0.257E-05
CGA:  36    -0.334120654660E+03   -0.17130E-04   -0.17123E-04  7696   0.740E-03-0.435E-06
CGA:  37    -0.334120682275E+03   -0.27614E-04   -0.27635E-04  7696   0.169E-03-0.260E-05
CGA:  38    -0.334120700040E+03   -0.17765E-04   -0.17873E-04  7696   0.393E-03-0.150E-05
CGA:  39    -0.334120709651E+03   -0.96117E-05   -0.96079E-05  7696   0.858E-04-0.581E-06
  11 F= -.33412071E+03 E0= -.33409126E+03  d E =-.814700E-01  mag=    32.0000
       N       E                     dE             d eps       ncg     rms          ort
SDA:   1    -0.282657537540E+03    0.51463E+02    0.00000E+00  7696   0.176E+04 0.000E+00
CGA:   2    -0.297769648888E+03   -0.15112E+02   -0.36531E+02  7696   0.395E+03-0.246E+03
CGA:   3    -0.305260307783E+03   -0.74907E+01   -0.75551E+01  7696   0.315E+03-0.819E+02
CGA:   4    -0.307424807841E+03   -0.21645E+01   -0.47196E+01  7696   0.488E+03-0.870E+02
CGA:   5    -0.315255548916E+03   -0.78307E+01   -0.88199E+01  7696   0.404E+03-0.653E+01
CGA:   6    -0.323381670409E+03   -0.81261E+01   -0.55594E+01  7696   0.193E+03-0.997E+02
CGA:   7    -0.325859742608E+03   -0.24781E+01   -0.25018E+01  7696   0.220E+03-0.244E+02
CGA:   8    -0.327880456752E+03   -0.20207E+01   -0.32053E+01  7696   0.954E+02-0.247E+02
CGA:   9    -0.330350616171E+03   -0.24702E+01   -0.24825E+01  7696   0.493E+02 0.380E+01
CGA:  10    -0.331307426671E+03   -0.95681E+00   -0.65866E+00  7696   0.279E+02 0.135E+02
CGA:  11    -0.331579018364E+03   -0.27159E+00   -0.28135E+00  7696   0.167E+02-0.259E+01
CGA:  12    -0.331823213619E+03   -0.24420E+00   -0.26707E+00  7696   0.422E+02-0.439E+00
CGA:  13    -0.332785529278E+03   -0.96232E+00   -0.10158E+01  7696   0.337E+02 0.356E+01
CGA:  14    -0.333241175478E+03   -0.45565E+00   -0.38143E+00  7696   0.196E+02 0.505E+01
CGA:  15    -0.333560474575E+03   -0.31930E+00   -0.22723E+00  7696   0.120E+02 0.608E+01
CGA:  16    -0.333659671751E+03   -0.99197E-01   -0.96611E-01  7696   0.276E+01 0.195E+00
CGA:  17    -0.333685035426E+03   -0.25364E-01   -0.26274E-01  7696   0.310E+01-0.727E-01
CGA:  18    -0.333748423548E+03   -0.63388E-01   -0.64255E-01  7696   0.710E+01 0.613E-01
CGA:  19    -0.333825363654E+03   -0.76940E-01   -0.74845E-01  7696   0.403E+01 0.129E+00
CGA:  20    -0.333887566158E+03   -0.62203E-01   -0.60252E-01  7696   0.575E+01 0.324E-01
CGA:  21    -0.333943453393E+03   -0.55887E-01   -0.54076E-01  7696   0.293E+01 0.117E+00
CGA:  22    -0.333964807472E+03   -0.21354E-01   -0.22278E-01  7696   0.146E+01-0.957E-01
CGA:  23    -0.333980938478E+03   -0.16131E-01   -0.16595E-01  7696   0.155E+01-0.188E-01
CGA:  24    -0.333999191526E+03   -0.18253E-01   -0.18241E-01  7696   0.144E+01 0.285E-03
CGA:  25    -0.334015945411E+03   -0.16754E-01   -0.16473E-01  7696   0.130E+01 0.103E-01
CGA:  26    -0.334030968083E+03   -0.15023E-01   -0.15094E-01  7696   0.145E+01-0.317E-02
CGA:  27    -0.334051529820E+03   -0.20562E-01   -0.20749E-01  7696   0.154E+01 0.309E-02
CGA:  28    -0.334064092803E+03   -0.12563E-01   -0.12291E-01  7696   0.658E+00 0.229E-01
CGA:  29    -0.334071965201E+03   -0.78724E-02   -0.78782E-02  7696   0.827E+00-0.394E-03
CGA:  30    -0.334082306983E+03   -0.10342E-01   -0.10518E-01  7696   0.625E+00-0.274E-03
CGA:  31    -0.334087791264E+03   -0.54843E-02   -0.56212E-02  7696   0.433E+00-0.825E-02
SDA:  32    -0.334095744653E+03   -0.79534E-02   -0.79533E-02  7696   0.658E+00 0.112E-03
CGA:  33    -0.334100609836E+03   -0.48652E-02   -0.48330E-02  7696   0.516E-01 0.285E-02
CGA:  34    -0.334107927565E+03   -0.73177E-02   -0.12849E-02  7696   0.186E+00 0.118E-01
CGA:  35    -0.334114387623E+03   -0.64601E-02   -0.64652E-02  7696   0.204E+00 0.446E-03
CGA:  36    -0.334119325804E+03   -0.49382E-02   -0.49052E-02  7696   0.138E+00-0.546E-03
CGA:  37    -0.334123334562E+03   -0.40088E-02   -0.40133E-02  7696   0.159E+00 0.704E-03
CGA:  38    -0.334126014987E+03   -0.26804E-02   -0.26802E-02  7696   0.930E-01 0.454E-05
CGA:  39    -0.334131916293E+03   -0.59013E-02   -0.59692E-02  7696   0.870E-01-0.214E-02
CGA:  40    -0.334134559073E+03   -0.26428E-02   -0.26474E-02  7696   0.342E-01 0.132E-02
CGA:  41    -0.334135867212E+03   -0.13081E-02   -0.13081E-02  7696   0.785E-01-0.133E-04
CGA:  42    -0.334138232061E+03   -0.23648E-02   -0.23641E-02  7696   0.486E-01-0.147E-03
CGA:  43    -0.334139154877E+03   -0.92282E-03   -0.92985E-03  7696   0.259E-01-0.119E-03
CGA:  44    -0.334139614490E+03   -0.45961E-03   -0.46403E-03  7696   0.160E-01-0.682E-04
CGA:  45    -0.334140980868E+03   -0.13664E-02   -0.13643E-02  7696   0.261E-01 0.263E-04
CGA:  46    -0.334141887978E+03   -0.90711E-03   -0.90684E-03  7696   0.120E-01 0.250E-03
CGA:  47    -0.334142205002E+03   -0.31702E-03   -0.31717E-03  7696   0.134E-01 0.238E-04
CGA:  48    -0.334142485578E+03   -0.28058E-03   -0.28040E-03  7696   0.677E-02 0.332E-04
CGA:  49    -0.334142750039E+03   -0.26446E-03   -0.26415E-03  7696   0.122E-01 0.426E-04
CGA:  50    -0.334143051871E+03   -0.30183E-03   -0.30291E-03  7696   0.791E-02 0.509E-04
CGA:  51    -0.334143301790E+03   -0.24992E-03   -0.24997E-03  7696   0.303E-02 0.266E-04
CGA:  52    -0.334143563468E+03   -0.26168E-03   -0.26130E-03  7696   0.751E-02 0.605E-05
CGA:  53    -0.334143711474E+03   -0.14801E-03   -0.14802E-03  7696   0.468E-02 0.135E-05
CGA:  54    -0.334143792773E+03   -0.81299E-04   -0.81522E-04  7696   0.103E-02-0.451E-05
CGA:  55    -0.334143835677E+03   -0.42903E-04   -0.42922E-04  7696   0.247E-02-0.311E-05
CGA:  56    -0.334143925281E+03   -0.89605E-04   -0.89602E-04  7696   0.205E-02-0.269E-05
CGA:  57    -0.334144000417E+03   -0.75136E-04   -0.75161E-04  7696   0.945E-03-0.104E-04
CGA:  58    -0.334144034191E+03   -0.33774E-04   -0.33781E-04  7696   0.118E-02-0.489E-05
CGA:  59    -0.334144053331E+03   -0.19140E-04   -0.19068E-04  7696   0.610E-03-0.321E-05
CGA:  60    -0.334144090526E+03   -0.37195E-04   -0.37219E-04  7696   0.101E-02-0.119E-05
CGA:  61    -0.334144125722E+03   -0.35196E-04   -0.35196E-04  7696   0.904E-03 0.156E-05
CGA:  62    -0.334144143095E+03   -0.17372E-04   -0.17417E-04  7696   0.418E-03 0.428E-06
SDA:  63    -0.334144176153E+03   -0.33058E-04   -0.32968E-04  7696   0.812E-03 0.181E-05
CGA:  64    -0.334144188061E+03   -0.11909E-04   -0.11982E-04  7696   0.199E-03 0.408E-07
CGA:  65    -0.334144191918E+03   -0.38561E-05   -0.38691E-05  7696   0.238E-03 0.562E-06
CGA:  66    -0.334144231236E+03   -0.39318E-04   -0.37564E-04  7696   0.129E-03 0.144E-04
CGA:  67    -0.334144237305E+03   -0.60694E-05   -0.60554E-05  7696   0.420E-03 0.366E-05
CGA:  68    -0.334144257594E+03   -0.20289E-04   -0.20214E-04  7696   0.285E-03 0.123E-04
CGA:  69    -0.334144261773E+03   -0.41784E-05   -0.42700E-05  7696   0.150E-03 0.292E-05
  12 F= -.33414426E+03 E0= -.33411469E+03  d E =-.235521E-01  mag=    32.0000
       N       E                     dE             d eps       ncg     rms          ort
SDA:   1    -0.324532429817E+03    0.96118E+01    0.00000E+00  7696   0.795E+02 0.000E+00
CGA:   2    -0.325817682451E+03   -0.12853E+01   -0.20223E+01  7696   0.619E+02 0.198E+01
CGA:   3    -0.327522044202E+03   -0.17044E+01   -0.16617E+01  7696   0.871E+02-0.855E-01
CGA:   4    -0.330087410612E+03   -0.25654E+01   -0.18049E+01  7696   0.504E+02 0.192E+02
CGA:   5    -0.331103459773E+03   -0.10160E+01   -0.12137E+01  7696   0.476E+02-0.444E+01
CGA:   6    -0.332439815735E+03   -0.13364E+01   -0.13437E+01  7696   0.438E+02 0.387E+00
CGA:   7    -0.333098872772E+03   -0.65906E+00   -0.42139E+00  7696   0.849E+01 0.213E+02
CGA:   8    -0.333218099174E+03   -0.11923E+00   -0.10403E+00  7696   0.420E+01 0.145E+01
CGA:   9    -0.333430772070E+03   -0.21267E+00   -0.21428E+00  7696   0.231E+02-0.122E+00
CGA:  10    -0.333731769176E+03   -0.30100E+00   -0.28696E+00  7696   0.279E+02 0.994E+00
CGA:  11    -0.333984913541E+03   -0.25314E+00   -0.30648E+00  7696   0.152E+02-0.398E+01
CGA:  12    -0.334069801926E+03   -0.84888E-01   -0.11718E+00  7696   0.470E+01-0.306E+01
CGA:  13    -0.334099874771E+03   -0.30073E-01   -0.28904E-01  7696   0.202E+01 0.126E+00
CGA:  14    -0.334123837929E+03   -0.23963E-01   -0.21006E-01  7696   0.207E+01 0.235E+00
CGA:  15    -0.334154158743E+03   -0.30321E-01   -0.20760E-01  7696   0.239E+01 0.935E+00
CGA:  16    -0.334177777245E+03   -0.23619E-01   -0.15508E-01  7696   0.156E+01 0.172E+01
CGA:  17    -0.334197481905E+03   -0.19705E-01   -0.20274E-01  7696   0.651E+00-0.230E-01
CGA:  18    -0.334265163081E+03   -0.67681E-01   -0.71977E-01  7696   0.359E+01-0.663E-01
CGA:  19    -0.334312895346E+03   -0.47732E-01   -0.49190E-01  7696   0.834E+00-0.453E-01
CGA:  20    -0.334324813934E+03   -0.11919E-01   -0.12703E-01  7696   0.273E+00-0.227E-01
CGA:  21    -0.334336362911E+03   -0.11549E-01   -0.11749E-01  7696   0.628E+00-0.117E-01
CGA:  22    -0.334344813184E+03   -0.84503E-02   -0.82567E-02  7696   0.234E+00 0.901E-02
CGA:  23    -0.334351001842E+03   -0.61887E-02   -0.62188E-02  7696   0.395E+00 0.452E-02
CGA:  24    -0.334358985085E+03   -0.79832E-02   -0.80797E-02  7696   0.168E+00 0.140E-02
CGA:  25    -0.334361286390E+03   -0.23013E-02   -0.22732E-02  7696   0.810E-01 0.119E-02
CGA:  26    -0.334366654658E+03   -0.53683E-02   -0.52023E-02  7696   0.246E+00 0.466E-02
CGA:  27    -0.334370091844E+03   -0.34372E-02   -0.33886E-02  7696   0.439E-01 0.230E-02
CGA:  28    -0.334371073533E+03   -0.98169E-03   -0.98036E-03  7696   0.330E-01-0.223E-04
CGA:  29    -0.334373447391E+03   -0.23739E-02   -0.22909E-02  7696   0.110E+00 0.212E-02
CGA:  30    -0.334375981621E+03   -0.25342E-02   -0.25194E-02  7696   0.498E-01-0.118E-03
CGA:  31    -0.334376814619E+03   -0.83300E-03   -0.83215E-03  7696   0.283E-01 0.566E-04
CGA:  32    -0.334378014995E+03   -0.12004E-02   -0.12058E-02  7696   0.226E-01-0.335E-03
CGA:  33    -0.334378581297E+03   -0.56630E-03   -0.56554E-03  7696   0.236E-01-0.404E-04
CGA:  34    -0.334380870499E+03   -0.22892E-02   -0.22046E-02  7696   0.563E-01 0.148E-02
CGA:  35    -0.334381655535E+03   -0.78504E-03   -0.78146E-03  7696   0.150E-01 0.197E-03
CGA:  36    -0.334382194041E+03   -0.53851E-03   -0.53866E-03  7696   0.246E-01-0.240E-04
CGA:  37    -0.334383225337E+03   -0.10313E-02   -0.10300E-02  7696   0.141E-01 0.967E-04
CGA:  38    -0.334383463083E+03   -0.23775E-03   -0.23725E-03  7696   0.470E-02 0.205E-04
CGA:  39    -0.334383670631E+03   -0.20755E-03   -0.20741E-03  7696   0.128E-01 0.958E-05
CGA:  40    -0.334384040874E+03   -0.37024E-03   -0.37064E-03  7696   0.614E-02 0.536E-04
CGA:  41    -0.334384231035E+03   -0.19016E-03   -0.19014E-03  7696   0.687E-02-0.494E-05
CGA:  42    -0.334384424140E+03   -0.19311E-03   -0.19304E-03  7696   0.237E-02-0.323E-05
CGA:  43    -0.334384468461E+03   -0.44320E-04   -0.44253E-04  7696   0.188E-02-0.695E-06
CGA:  44    -0.334384555331E+03   -0.86870E-04   -0.86861E-04  7696   0.359E-02 0.831E-06
CGA:  45    -0.334384656421E+03   -0.10109E-03   -0.10112E-03  7696   0.110E-02 0.552E-05
CGA:  46    -0.334384682035E+03   -0.25614E-04   -0.25624E-04  7696   0.114E-02 0.938E-06
SDA:  47    -0.334384745237E+03   -0.63203E-04   -0.63282E-04  7696   0.225E-02-0.317E-05
CGA:  48    -0.334384765111E+03   -0.19873E-04   -0.19919E-04  7696   0.273E-03-0.114E-05
CGA:  49    -0.334384779486E+03   -0.14375E-04   -0.14370E-04  7696   0.596E-03 0.754E-07
CGA:  50    -0.334384799555E+03   -0.20070E-04   -0.20070E-04  7696   0.573E-03-0.600E-06
CGA:  51    -0.334384820178E+03   -0.20622E-04   -0.20624E-04  7696   0.643E-03-0.102E-05
CGA:  52    -0.334384846890E+03   -0.26713E-04   -0.26808E-04  7696   0.211E-03-0.945E-05
CGA:  53    -0.334384857598E+03   -0.10707E-04   -0.10752E-04  7696   0.845E-03-0.246E-05
CGA:  54    -0.334384879803E+03   -0.22206E-04   -0.22154E-04  7696   0.102E-03-0.673E-05
CGA:  55    -0.334384884252E+03   -0.44490E-05   -0.44593E-05  7696   0.170E-03-0.998E-06
CGA:  56    -0.334384901143E+03   -0.16890E-04   -0.17017E-04  7696   0.798E-04-0.191E-05
CGA:  57    -0.334384902344E+03   -0.12014E-05   -0.12022E-05  7696   0.629E-04-0.429E-08
  13 F= -.33438490E+03 E0= -.33435548E+03  d E =-.240641E+00  mag=    32.0000
       N       E                     dE             d eps       ncg     rms          ort
SDA:   1    -0.334291852382E+03    0.93049E-01    0.00000E+00  7696   0.667E+00 0.000E+00
CGA:   2    -0.334303922038E+03   -0.12070E-01   -0.11943E-01  7696   0.525E+00 0.373E-02
CGA:   3    -0.334323213182E+03   -0.19291E-01   -0.19292E-01  7696   0.958E+00 0.321E-02
CGA:   4    -0.334361211720E+03   -0.37999E-01   -0.38067E-01  7696   0.338E+00-0.135E-01
CGA:   5    -0.334373635116E+03   -0.12423E-01   -0.12412E-01  7696   0.256E+00 0.121E-01
CGA:   6    -0.334378123103E+03   -0.44880E-02   -0.45966E-02  7696   0.117E+00-0.333E-02
CGA:   7    -0.334382860801E+03   -0.47377E-02   -0.47316E-02  7696   0.262E+00 0.738E-03
CGA:   8    -0.334390369601E+03   -0.75088E-02   -0.74984E-02  7696   0.846E-01-0.350E-03
CGA:   9    -0.334391691962E+03   -0.13224E-02   -0.13278E-02  7696   0.195E-01-0.209E-03
CGA:  10    -0.334392479384E+03   -0.78742E-03   -0.78848E-03  7696   0.392E-01-0.119E-03
CGA:  11    -0.334393492101E+03   -0.10127E-02   -0.10118E-02  7696   0.256E-01-0.109E-04
CGA:  12    -0.334394164260E+03   -0.67216E-03   -0.67345E-03  7696   0.195E-01 0.362E-04
CGA:  13    -0.334394628078E+03   -0.46382E-03   -0.46483E-03  7696   0.417E-02 0.145E-04
CGA:  14    -0.334394709977E+03   -0.81899E-04   -0.81954E-04  7696   0.317E-02 0.680E-07
CGA:  15    -0.334394862616E+03   -0.15264E-03   -0.15245E-03  7696   0.818E-02 0.117E-04
CGA:  16    -0.334395100453E+03   -0.23784E-03   -0.23781E-03  7696   0.256E-02-0.191E-05
CGA:  17    -0.334395147812E+03   -0.47359E-04   -0.47424E-04  7696   0.123E-02 0.187E-05
CGA:  18    -0.334395202283E+03   -0.54471E-04   -0.54488E-04  7696   0.198E-02-0.747E-06
CGA:  19    -0.334395240013E+03   -0.37730E-04   -0.37792E-04  7696   0.981E-03 0.411E-05
CGA:  20    -0.334395276004E+03   -0.35992E-04   -0.35966E-04  7696   0.106E-02 0.560E-05
CGA:  21    -0.334395301524E+03   -0.25519E-04   -0.25544E-04  7696   0.497E-03 0.254E-05
CGA:  22    -0.334395320612E+03   -0.19088E-04   -0.19091E-04  7696   0.102E-02-0.672E-06
CGA:  23    -0.334395353991E+03   -0.33379E-04   -0.33379E-04  7696   0.825E-03 0.618E-06
CGA:  24    -0.334395367996E+03   -0.14005E-04   -0.13977E-04  7696   0.146E-03-0.131E-05
CGA:  25    -0.334395372991E+03   -0.49950E-05   -0.49947E-05  7696   0.260E-03 0.884E-07
CGA:  26    -0.334395388355E+03   -0.15364E-04   -0.15424E-04  7696   0.533E-03-0.230E-05
CGA:  27    -0.334395397687E+03   -0.93316E-05   -0.93309E-05  7696   0.208E-03-0.108E-06
  14 F= -.33439540E+03 E0= -.33436608E+03  d E =-.104953E-01  mag=    32.0000
       N       E                     dE             d eps       ncg     rms          ort
SDA:   1    -0.334208430908E+03    0.18696E+00    0.00000E+00  7696   0.551E+01 0.000E+00
CGA:   2    -0.334261945925E+03   -0.53515E-01   -0.58491E-01  7696   0.606E+00-0.382E+00
CGA:   3    -0.334280201690E+03   -0.18256E-01   -0.18244E-01  7696   0.116E+01 0.699E-02
CGA:   4    -0.334336826995E+03   -0.56625E-01   -0.56800E-01  7696   0.208E+01-0.883E-02
CGA:   5    -0.334378252895E+03   -0.41426E-01   -0.41723E-01  7696   0.188E+00-0.176E-02
CGA:   6    -0.334382897333E+03   -0.46444E-02   -0.46370E-02  7696   0.257E+00-0.251E-03
CGA:   7    -0.334396471377E+03   -0.13574E-01   -0.13553E-01  7696   0.415E+00 0.894E-03
CGA:   8    -0.334403091262E+03   -0.66199E-02   -0.66752E-02  7696   0.617E-01-0.186E-02
CGA:   9    -0.334404240488E+03   -0.11492E-02   -0.11444E-02  7696   0.256E-01 0.636E-04
CGA:  10    -0.334405780904E+03   -0.15404E-02   -0.15423E-02  7696   0.767E-01-0.632E-04
CGA:  11    -0.334407303998E+03   -0.15231E-02   -0.15242E-02  7696   0.219E-01 0.599E-05
[...]
CGA:  16    -0.334881364516E+03   -0.49583E-05   -0.49598E-05  7696   0.201E-03 0.592E-06
 104 F= -.33488136E+03 E0= -.33485505E+03  d E =0.118796E-02  mag=    32.0000
       N       E                     dE             d eps       ncg     rms          ort
SDA:   1    -0.334534791134E+03    0.34657E+00    0.00000E+00  7696   0.163E+02 0.000E+00
CGA:   2    -0.334670252069E+03   -0.13546E+00   -0.18001E+00  7696   0.145E+01-0.301E+01
CGA:   3    -0.334699218849E+03   -0.28967E-01   -0.28696E-01  7696   0.100E+01-0.215E-02
CGA:   4    -0.334760703792E+03   -0.61485E-01   -0.61076E-01  7696   0.218E+01 0.143E-01
CGA:   5    -0.334820612003E+03   -0.59908E-01   -0.59794E-01  7696   0.686E+00-0.267E-02
CGA:   6    -0.334835351762E+03   -0.14740E-01   -0.14751E-01  7696   0.308E+00 0.818E-05
CGA:   7    -0.334846318884E+03   -0.10967E-01   -0.10983E-01  7696   0.320E+00-0.545E-02
CGA:   8    -0.334857201246E+03   -0.10882E-01   -0.10881E-01  7696   0.291E+00 0.115E-02
CGA:   9    -0.334866716344E+03   -0.95151E-02   -0.95108E-02  7696   0.152E+00-0.114E-02
CGA:  10    -0.334869510881E+03   -0.27945E-02   -0.28265E-02  7696   0.341E-01-0.633E-03
CGA:  11    -0.334870593237E+03   -0.10824E-02   -0.10822E-02  7696   0.417E-01-0.525E-04
CGA:  12    -0.334872602900E+03   -0.20097E-02   -0.20078E-02  7696   0.388E-01 0.105E-03
CGA:  13    -0.334873343763E+03   -0.74086E-03   -0.74078E-03  7696   0.802E-02 0.781E-05
CGA:  14    -0.334873583647E+03   -0.23988E-03   -0.23995E-03  7696   0.838E-02 0.149E-04
CGA:  15    -0.334873942426E+03   -0.35878E-03   -0.35882E-03  7696   0.785E-02 0.116E-05
CGA:  16    -0.334874135301E+03   -0.19287E-03   -0.19314E-03  7696   0.369E-02 0.149E-04
CGA:  17    -0.334874248524E+03   -0.11322E-03   -0.11319E-03  7696   0.265E-02-0.480E-05
CGA:  18    -0.334874327613E+03   -0.79090E-04   -0.79108E-04  7696   0.200E-02 0.430E-05
CGA:  19    -0.334874404822E+03   -0.77209E-04   -0.77214E-04  7696   0.215E-02-0.599E-06
CGA:  20    -0.334874459789E+03   -0.54966E-04   -0.54999E-04  7696   0.694E-03 0.267E-05
CGA:  21    -0.334874478453E+03   -0.18665E-04   -0.18662E-04  7696   0.636E-03-0.362E-06
CGA:  22    -0.334874519525E+03   -0.41072E-04   -0.41013E-04  7696   0.134E-02 0.198E-05
CGA:  23    -0.334874553409E+03   -0.33883E-04   -0.33869E-04  7696   0.384E-03-0.971E-06
CGA:  24    -0.334874562306E+03   -0.88968E-05   -0.89121E-05  7696   0.244E-03 0.119E-05
CGA:  25    -0.334874575387E+03   -0.13082E-04   -0.13088E-04  7696   0.445E-03-0.259E-06
CGA:  26    -0.334874591121E+03   -0.15733E-04   -0.15731E-04  7696   0.396E-03 0.147E-05
CGA:  27    -0.334874603537E+03   -0.12416E-04   -0.12413E-04  7696   0.247E-03-0.898E-06
CGA:  28    -0.334874609442E+03   -0.59050E-05   -0.59051E-05  7696   0.107E-03-0.133E-07
 105 F= -.33487461E+03 E0= -.33484828E+03  d E =0.675507E-02  mag=    32.0000
       N       E                     dE             d eps       ncg     rms          ort
SDA:   1    -0.334768021940E+03    0.10658E+00    0.00000E+00  7696   0.789E+01 0.000E+00
CGA:   2    -0.334842380107E+03   -0.74358E-01   -0.68116E-01  7696   0.149E+00 0.609E+00
CGA:   3    -0.334845589390E+03   -0.32093E-02   -0.31840E-02  7696   0.179E+00 0.275E-03
CGA:   4    -0.334854698754E+03   -0.91094E-02   -0.90696E-02  7696   0.385E+00 0.185E-02
CGA:   5    -0.334864406497E+03   -0.97077E-02   -0.97445E-02  7696   0.189E+00 0.847E-03
CGA:   6    -0.334866701776E+03   -0.22953E-02   -0.22516E-02  7696   0.422E-01 0.255E-02
CGA:   7    -0.334868434659E+03   -0.17329E-02   -0.17378E-02  7696   0.105E+00-0.396E-03
CGA:   8    -0.334871320598E+03   -0.28859E-02   -0.28892E-02  7696   0.849E-01 0.272E-03
CGA:   9    -0.334872764824E+03   -0.14442E-02   -0.14464E-02  7696   0.276E-01-0.555E-04
CGA:  10    -0.334873290081E+03   -0.52526E-03   -0.52031E-03  7696   0.184E-01 0.427E-04
CGA:  11    -0.334873721519E+03   -0.43144E-03   -0.42955E-03  7696   0.138E-01-0.616E-04
CGA:  12    -0.334874008784E+03   -0.28727E-03   -0.28743E-03  7696   0.106E-01-0.570E-05
CGA:  13    -0.334874365175E+03   -0.35639E-03   -0.35633E-03  7696   0.148E-01 0.459E-05
CGA:  14    -0.334874587267E+03   -0.22209E-03   -0.22220E-03  7696   0.217E-02-0.135E-04
CGA:  15    -0.334874643479E+03   -0.56212E-04   -0.56208E-04  7696   0.415E-02-0.146E-05
CGA:  16    -0.334874819692E+03   -0.17621E-03   -0.17637E-03  7696   0.209E-02-0.124E-04
CGA:  17    -0.334874845526E+03   -0.25834E-04   -0.25776E-04  7696   0.755E-03-0.168E-05
CGA:  18    -0.334874867927E+03   -0.22401E-04   -0.22402E-04  7696   0.884E-03-0.839E-06
CGA:  19    -0.334874901786E+03   -0.33859E-04   -0.33874E-04  7696   0.163E-02-0.197E-05
CGA:  20    -0.334874931548E+03   -0.29762E-04   -0.29686E-04  7696   0.552E-03-0.550E-05
CGA:  21    -0.334874946275E+03   -0.14727E-04   -0.14718E-04  7696   0.479E-03-0.382E-05
CGA:  22    -0.334874953212E+03   -0.69368E-05   -0.69381E-05  7696   0.138E-03 0.400E-06
 106 F= -.33487495E+03 E0= -.33484864E+03  d E =-.343770E-03  mag=    32.0000
       N       E                     dE             d eps       ncg     rms          ort
SDA:   1    -0.334797685902E+03    0.77260E-01    0.00000E+00  7696   0.995E+00 0.000E+00
CGA:   2    -0.334814193614E+03   -0.16508E-01   -0.17067E-01  7696   0.225E+00-0.664E-02
CGA:   3    -0.334825686496E+03   -0.11493E-01   -0.11536E-01  7696   0.594E+00-0.172E-02
CGA:   4    -0.334858593510E+03   -0.32907E-01   -0.32910E-01  7696   0.116E+00-0.110E-03
CGA:   5    -0.334864596271E+03   -0.60028E-02   -0.58341E-02  7696   0.846E-01 0.741E-02
CGA:   6    -0.334867156439E+03   -0.25602E-02   -0.25592E-02  7696   0.102E+00-0.174E-03
CGA:   7    -0.334870782073E+03   -0.36256E-02   -0.36252E-02  7696   0.670E-01 0.546E-04
CGA:   8    -0.334872123431E+03   -0.13414E-02   -0.13289E-02  7696   0.139E-01 0.503E-04
CGA:   9    -0.334873053302E+03   -0.92987E-03   -0.92931E-03  7696   0.314E-01 0.182E-04
CGA:  10    -0.334873736642E+03   -0.68334E-03   -0.68157E-03  7696   0.312E-02-0.331E-04
CGA:  11    -0.334873881509E+03   -0.14487E-03   -0.14500E-03  7696   0.461E-02-0.881E-05
CGA:  12    -0.334874193159E+03   -0.31165E-03   -0.31181E-03  7696   0.143E-02-0.433E-05
CGA:  13    -0.334874224956E+03   -0.31797E-04   -0.31816E-04  7696   0.895E-03-0.135E-05
CGA:  14    -0.334874266301E+03   -0.41345E-04   -0.41505E-04  7696   0.864E-03-0.112E-04
CGA:  15    -0.334874303092E+03   -0.36791E-04   -0.36819E-04  7696   0.914E-03-0.322E-05
CGA:  16    -0.334874330756E+03   -0.27664E-04   -0.27669E-04  7696   0.303E-03-0.554E-07
CGA:  17    -0.334874335554E+03   -0.47976E-05   -0.47911E-05  7696   0.145E-03-0.439E-07
CGA:  18    -0.334874351986E+03   -0.16433E-04   -0.16076E-04  7696   0.214E-03 0.462E-05
CGA:  19    -0.334874356619E+03   -0.46326E-05   -0.46437E-05  7696   0.717E-04 0.804E-06
 107 F= -.33487436E+03 E0= -.33484806E+03  d E =0.596593E-03  mag=    32.0000
       N       E                     dE             d eps       ncg     rms          ort
SDA:   1    -0.334843347084E+03    0.31005E-01    0.00000E+00  7696   0.152E+01 0.000E+00
CGA:   2    -0.334859258041E+03   -0.15911E-01   -0.17500E-01  7696   0.922E-01-0.106E+00
CGA:   3    -0.334861161575E+03   -0.19035E-02   -0.18969E-02  7696   0.681E-01 0.629E-04
CGA:   4    -0.334865525604E+03   -0.43640E-02   -0.43648E-02  7696   0.182E+00-0.611E-05
CGA:   5    -0.334870359313E+03   -0.48337E-02   -0.48198E-02  7696   0.265E-01-0.161E-03
CGA:   6    -0.334871253938E+03   -0.89463E-03   -0.89428E-03  7696   0.318E-01-0.680E-04
CGA:   7    -0.334872490314E+03   -0.12364E-02   -0.12370E-02  7696   0.215E-01-0.103E-03
CGA:   8    -0.334873025943E+03   -0.53563E-03   -0.53643E-03  7696   0.152E-01 0.126E-04
CGA:   9    -0.334873438604E+03   -0.41266E-03   -0.41289E-03  7696   0.598E-02 0.665E-05
CGA:  10    -0.334873593931E+03   -0.15533E-03   -0.15555E-03  7696   0.451E-02 0.947E-05
CGA:  11    -0.334873856464E+03   -0.26253E-03   -0.26242E-03  7696   0.239E-02 0.464E-05
CGA:  12    -0.334873894554E+03   -0.38090E-04   -0.38220E-04  7696   0.673E-03-0.161E-05
CGA:  13    -0.334873931340E+03   -0.36785E-04   -0.36837E-04  7696   0.170E-02-0.247E-05
CGA:  14    -0.334873984436E+03   -0.53096E-04   -0.53095E-04  7696   0.621E-03-0.298E-06
CGA:  15    -0.334873996220E+03   -0.11784E-04   -0.11796E-04  7696   0.145E-03 0.480E-06
CGA:  16    -0.334874005291E+03   -0.90709E-05   -0.90489E-05  7696   0.313E-03 0.833E-06
 108 F= -.33487401E+03 E0= -.33484771E+03  d E =0.351328E-03  mag=    32.0000
       N       E                     dE             d eps       ncg     rms          ort
SDA:   1    -0.333776928312E+03    0.10971E+01    0.00000E+00  7696   0.682E+02 0.000E+00
CGA:   2    -0.334359222208E+03   -0.58229E+00   -0.72600E+00  7696   0.367E+01-0.103E+02
CGA:   3    -0.334422766435E+03   -0.63544E-01   -0.60630E-01  7696   0.191E+01 0.536E-01
CGA:   4    -0.334632673875E+03   -0.20991E+00   -0.20569E+00  7696   0.632E+01 0.672E-01
CGA:   5    -0.334759875298E+03   -0.12720E+00   -0.12270E+00  7696   0.769E+00 0.127E+00
CGA:   6    -0.334782852041E+03   -0.22977E-01   -0.23106E-01  7696   0.877E+00 0.503E-02
CGA:   7    -0.334822445372E+03   -0.39593E-01   -0.39532E-01  7696   0.811E+00 0.455E-02
CGA:   8    -0.334843309270E+03   -0.20864E-01   -0.20942E-01  7696   0.453E+00 0.614E-03
CGA:   9    -0.334856028853E+03   -0.12720E-01   -0.12500E-01  7696   0.181E+00-0.486E-02
CGA:  10    -0.334859605802E+03   -0.35769E-02   -0.35941E-02  7696   0.713E-01-0.267E-03
CGA:  11    -0.334863884972E+03   -0.42792E-02   -0.42937E-02  7696   0.163E+00-0.529E-03
CGA:  12    -0.334867781475E+03   -0.38965E-02   -0.39075E-02  7696   0.261E-01 0.271E-04
CGA:  13    -0.334868345779E+03   -0.56430E-03   -0.56303E-03  7696   0.181E-01 0.984E-05
CGA:  14    -0.334869384092E+03   -0.10383E-02   -0.10382E-02  7696   0.238E-01 0.750E-05
CGA:  15    -0.334869912253E+03   -0.52816E-03   -0.52771E-03  7696   0.974E-02 0.887E-05
CGA:  16    -0.334870239891E+03   -0.32764E-03   -0.32781E-03  7696   0.700E-02 0.568E-04
CGA:  17    -0.334870408233E+03   -0.16834E-03   -0.16820E-03  7696   0.382E-02 0.246E-05
CGA:  18    -0.334870613237E+03   -0.20500E-03   -0.20473E-03  7696   0.643E-02 0.138E-04
CGA:  19    -0.334870755115E+03   -0.14188E-03   -0.14159E-03  7696   0.109E-02 0.395E-05
CGA:  20    -0.334870783727E+03   -0.28612E-04   -0.28633E-04  7696   0.116E-02 0.192E-05
CGA:  21    -0.334870870879E+03   -0.87152E-04   -0.87155E-04  7696   0.213E-02 0.185E-06
CGA:  22    -0.334870914782E+03   -0.43903E-04   -0.43930E-04  7696   0.571E-03 0.981E-06
CGA:  23    -0.334870931696E+03   -0.16914E-04   -0.16902E-04  7696   0.451E-03-0.135E-05
CGA:  24    -0.334870945142E+03   -0.13446E-04   -0.13450E-04  7696   0.316E-03 0.784E-06
CGA:  25    -0.334870961684E+03   -0.16543E-04   -0.16538E-04  7696   0.668E-03 0.380E-06
CGA:  26    -0.334870982215E+03   -0.20530E-04   -0.20549E-04  7696   0.180E-03 0.317E-05
CGA:  27    -0.334870986052E+03   -0.38370E-05   -0.38326E-05  7696   0.123E-03-0.208E-06
 109 F= -.33487099E+03 E0= -.33484470E+03  d E =0.301924E-02  mag=    32.0000
       N       E                     dE             d eps       ncg     rms          ort
SDA:   1    -0.334751465704E+03    0.11952E+00    0.00000E+00  7696   0.183E+01 0.000E+00
CGA:   2    -0.334780240816E+03   -0.28775E-01   -0.29369E-01  7696   0.401E+00-0.213E-01
CGA:   3    -0.334800362296E+03   -0.20121E-01   -0.20209E-01  7696   0.109E+01-0.458E-02
CGA:   4    -0.334840730539E+03   -0.40368E-01   -0.40377E-01  7696   0.510E+00-0.645E-02
CGA:   5    -0.334850940712E+03   -0.10210E-01   -0.10567E-01  7696   0.238E+00-0.557E-02
CGA:   6    -0.334857548712E+03   -0.66080E-02   -0.66160E-02  7696   0.139E+00 0.287E-03
CGA:   7    -0.334864293292E+03   -0.67446E-02   -0.67303E-02  7696   0.155E+00 0.838E-03
CGA:   8    -0.334872367708E+03   -0.80744E-02   -0.81075E-02  7696   0.380E-01-0.171E-02
CGA:   9    -0.334873121258E+03   -0.75355E-03   -0.75201E-03  7696   0.226E-01 0.250E-04
CGA:  10    -0.334874098313E+03   -0.97705E-03   -0.97790E-03  7696   0.376E-01-0.801E-04
CGA:  11    -0.334875374090E+03   -0.12758E-02   -0.12750E-02  7696   0.153E-01-0.145E-03
CGA:  12    -0.334875623610E+03   -0.24952E-03   -0.25116E-03  7696   0.338E-02-0.488E-04
CGA:  13    -0.334875817343E+03   -0.19373E-03   -0.19401E-03  7696   0.624E-02-0.108E-04
CGA:  14    -0.334876070349E+03   -0.25301E-03   -0.25294E-03  7696   0.172E-02 0.105E-04
CGA:  15    -0.334876124726E+03   -0.54377E-04   -0.54355E-04  7696   0.185E-02-0.212E-05
CGA:  16    -0.334876189234E+03   -0.64508E-04   -0.64516E-04  7696   0.203E-02 0.329E-05
CGA:  17    -0.334876248285E+03   -0.59051E-04   -0.59031E-04  7696   0.841E-03-0.123E-05
CGA:  18    -0.334876268013E+03   -0.19728E-04   -0.19734E-04  7696   0.464E-03 0.784E-06
CGA:  19    -0.334876282485E+03   -0.14472E-04   -0.14483E-04  7696   0.265E-03 0.210E-05
CGA:  20    -0.334876310716E+03   -0.28231E-04   -0.28232E-04  7696   0.600E-03 0.297E-07
CGA:  21    -0.334876325996E+03   -0.15280E-04   -0.15285E-04  7696   0.166E-03 0.551E-06
CGA:  22    -0.334876328931E+03   -0.29354E-05   -0.29408E-05  7696   0.756E-04 0.199E-06
 110 F= -.33487633E+03 E0= -.33485003E+03  d E =-.534288E-02  mag=    32.0000
       N       E                     dE             d eps       ncg     rms          ort
SDA:   1    -0.334789778928E+03    0.86547E-01    0.00000E+00  7696   0.434E+01 0.000E+00
CGA:   2    -0.334833746015E+03   -0.43967E-01   -0.36881E-01  7696   0.237E+00 0.727E+00
CGA:   3    -0.334837664877E+03   -0.39189E-02   -0.37785E-02  7696   0.175E+00 0.728E-02
CGA:   4    -0.334846208776E+03   -0.85439E-02   -0.85265E-02  7696   0.580E+00 0.114E-02
CGA:   5    -0.334860375012E+03   -0.14166E-01   -0.14241E-01  7696   0.520E+00 0.716E-04
CGA:   6    -0.334867639283E+03   -0.72643E-02   -0.70782E-02  7696   0.157E+00 0.921E-02
CGA:   7    -0.334869720155E+03   -0.20809E-02   -0.20278E-02  7696   0.638E-01 0.294E-02
CGA:   8    -0.334871110264E+03   -0.13901E-02   -0.13929E-02  7696   0.875E-01-0.125E-04
CGA:   9    -0.334873525371E+03   -0.24151E-02   -0.24302E-02  7696   0.842E-01 0.882E-03
CGA:  10    -0.334874884433E+03   -0.13591E-02   -0.13596E-02  7696   0.620E-01-0.293E-04
CGA:  11    -0.334876580665E+03   -0.16962E-02   -0.16860E-02  7696   0.440E-01-0.721E-03
CGA:  12    -0.334877040018E+03   -0.45935E-03   -0.45552E-03  7696   0.994E-02 0.259E-03
CGA:  13    -0.334877234707E+03   -0.19469E-03   -0.19482E-03  7696   0.108E-01-0.329E-05
CGA:  14    -0.334877520105E+03   -0.28540E-03   -0.28543E-03  7696   0.169E-01 0.167E-05
CGA:  15    -0.334877922481E+03   -0.40238E-03   -0.40238E-03  7696   0.973E-02-0.461E-05
CGA:  16    -0.334878020812E+03   -0.98331E-04   -0.98280E-04  7696   0.220E-02 0.463E-05
CGA:  17    -0.334878092450E+03   -0.71638E-04   -0.71650E-04  7696   0.569E-02-0.278E-05
CGA:  18    -0.334878227801E+03   -0.13535E-03   -0.13520E-03  7696   0.333E-02-0.144E-04
CGA:  19    -0.334878275872E+03   -0.48071E-04   -0.48067E-04  7696   0.184E-02-0.729E-06
CGA:  20    -0.334878306958E+03   -0.31086E-04   -0.31143E-04  7696   0.102E-02 0.542E-06
CGA:  21    -0.334878330019E+03   -0.23061E-04   -0.23063E-04  7696   0.136E-02-0.178E-06
CGA:  22    -0.334878360366E+03   -0.30347E-04   -0.30336E-04  7696   0.106E-02-0.331E-05
CGA:  23    -0.334878383146E+03   -0.22779E-04   -0.22765E-04  7696   0.130E-02-0.228E-05
CGA:  24    -0.334878412570E+03   -0.29424E-04   -0.29412E-04  7696   0.749E-03-0.259E-05
CGA:  25    -0.334878420897E+03   -0.83271E-05   -0.83042E-05  7696   0.149E-03-0.306E-06
 111 F= -.33487842E+03 E0= -.33485211E+03  d E =-.209197E-02  mag=    32.0000
       N       E                     dE             d eps       ncg     rms          ort
SDA:   1    -0.334551385875E+03    0.32703E+00    0.00000E+00  7696   0.681E+01 0.000E+00
CGA:   2    -0.334636603959E+03   -0.85218E-01   -0.81574E-01  7696   0.937E+00 0.203E+00
CGA:   3    -0.334667862282E+03   -0.31258E-01   -0.30979E-01  7696   0.160E+01 0.275E-01
CGA:   4    -0.334785956386E+03   -0.11809E+00   -0.11647E+00  7696   0.240E+01 0.407E-01
CGA:   5    -0.334828658382E+03   -0.42702E-01   -0.41850E-01  7696   0.375E+00 0.801E-02
CGA:   6    -0.334843122207E+03   -0.14464E-01   -0.14185E-01  7696   0.397E+00 0.198E-01
CGA:   7    -0.334854308333E+03   -0.11186E-01   -0.11188E-01  7696   0.363E+00 0.125E-02
CGA:   8    -0.334866541644E+03   -0.12233E-01   -0.12194E-01  7696   0.215E+00 0.438E-02
CGA:   9    -0.334873438285E+03   -0.68966E-02   -0.69408E-02  7696   0.519E-01-0.653E-02
CGA:  10    -0.334875203716E+03   -0.17654E-02   -0.17604E-02  7696   0.877E-01 0.495E-03
CGA:  11    -0.334878091166E+03   -0.28874E-02   -0.28915E-02  7696   0.264E-01-0.588E-03
CGA:  12    -0.334878696327E+03   -0.60516E-03   -0.60498E-03  7696   0.112E-01-0.155E-04
CGA:  13    -0.334879109263E+03   -0.41294E-03   -0.41327E-03  7696   0.190E-01-0.301E-04
CGA:  14    -0.334879989409E+03   -0.88015E-03   -0.87893E-03  7696   0.615E-02 0.604E-04
CGA:  15    -0.334880100872E+03   -0.11146E-03   -0.11097E-03  7696   0.273E-02-0.249E-05
CGA:  16    -0.334880206400E+03   -0.10553E-03   -0.10559E-03  7696   0.316E-02-0.651E-05
CGA:  17    -0.334880349836E+03   -0.14344E-03   -0.14369E-03  7696   0.303E-02-0.151E-04
CGA:  18    -0.334880436783E+03   -0.86947E-04   -0.86952E-04  7696   0.180E-02 0.508E-06
CGA:  19    -0.334880471634E+03   -0.34851E-04   -0.34840E-04  7696   0.527E-03-0.154E-05
CGA:  20    -0.334880491488E+03   -0.19854E-04   -0.19843E-04  7696   0.640E-03 0.148E-05
CGA:  21    -0.334880534802E+03   -0.43315E-04   -0.43144E-04  7696   0.936E-03 0.475E-05
CGA:  22    -0.334880549693E+03   -0.14890E-04   -0.14937E-04  7696   0.200E-03 0.207E-05
CGA:  23    -0.334880561728E+03   -0.12035E-04   -0.12054E-04  7696   0.363E-03-0.659E-06
CGA:  24    -0.334880575208E+03   -0.13480E-04   -0.13472E-04  7696   0.274E-03 0.164E-05
CGA:  25    -0.334880579833E+03   -0.46247E-05   -0.46275E-05  7696   0.679E-04 0.119E-06
 112 F= -.33488058E+03 E0= -.33485433E+03  d E =-.215894E-02  mag=    32.0000
       N       E                     dE             d eps       ncg     rms          ort
SDA:   1    -0.334751108600E+03    0.12947E+00    0.00000E+00  7696   0.620E+01 0.000E+00
CGA:   2    -0.334815006550E+03   -0.63898E-01   -0.65599E-01  7696   0.409E+00-0.102E+00
CGA:   3    -0.334823682881E+03   -0.86763E-02   -0.84889E-02  7696   0.231E+00 0.203E-02
CGA:   4    -0.334855070686E+03   -0.31388E-01   -0.31148E-01  7696   0.485E+00 0.282E-02
CGA:   5    -0.334865861773E+03   -0.10791E-01   -0.10954E-01  7696   0.207E+00-0.236E-02
CGA:   6    -0.334870590609E+03   -0.47288E-02   -0.46551E-02  7696   0.111E+00 0.104E-02
CGA:   7    -0.334873569726E+03   -0.29791E-02   -0.29331E-02  7696   0.511E-01-0.321E-03
CGA:   8    -0.334877240471E+03   -0.36707E-02   -0.36374E-02  7696   0.104E+00 0.946E-03
CGA:   9    -0.334879227570E+03   -0.19871E-02   -0.19758E-02  7696   0.972E-02 0.335E-03
CGA:  10    -0.334879749244E+03   -0.52167E-03   -0.52054E-03  7696   0.168E-01 0.585E-04
CGA:  11    -0.334880297744E+03   -0.54850E-03   -0.54779E-03  7696   0.964E-02-0.426E-04
CGA:  12    -0.334880462861E+03   -0.16512E-03   -0.16510E-03  7696   0.316E-02 0.482E-05
CGA:  13    -0.334880610820E+03   -0.14796E-03   -0.14746E-03  7696   0.298E-02 0.390E-04
CGA:  14    -0.334880692623E+03   -0.81803E-04   -0.81832E-04  7696   0.246E-02 0.349E-05
CGA:  15    -0.334880817543E+03   -0.12492E-03   -0.12491E-03  7696   0.714E-03 0.146E-05
CGA:  16    -0.334880833793E+03   -0.16250E-04   -0.16256E-04  7696   0.482E-03 0.428E-06
CGA:  17    -0.334880862240E+03   -0.28447E-04   -0.28417E-04  7696   0.117E-02 0.149E-05
CGA:  18    -0.334880889983E+03   -0.27743E-04   -0.27816E-04  7696   0.223E-03 0.316E-05
CGA:  19    -0.334880895443E+03   -0.54604E-05   -0.54514E-05  7696   0.149E-03-0.369E-06
 113 F= -.33488090E+03 E0= -.33485468E+03  d E =-.315611E-03  mag=    32.0000
