       N       E                     dE             d eps       ncg     rms          ort
DAV:   1     0.603092625800E+04    0.60309E+04   -0.27039E+05  8112   0.166E+03
DAV:   2     0.352410467567E+03   -0.56785E+04   -0.51918E+04  8112   0.464E+02
DAV:   3    -0.361342575759E+03   -0.71375E+03   -0.69899E+03  8112   0.183E+02
DAV:   4    -0.383373241970E+03   -0.22031E+02   -0.21882E+02  8112   0.335E+01
DAV:   5    -0.383703725185E+03   -0.33048E+00   -0.32803E+00  8112   0.399E+00
SDA:   6    -0.113960916128E+03    0.26974E+03   -0.32803E+00  8112   0.128E+04 0.000E+00
CGA:   7    -0.245323762400E+03   -0.13136E+03   -0.14409E+03  8112   0.880E+03-0.627E+02
CGA:   8    -0.271659648576E+03   -0.26336E+02   -0.26507E+02  8112   0.149E+03 0.766E+02
CGA:   9    -0.282339657951E+03   -0.10680E+02   -0.16646E+02  8112   0.288E+03-0.178E+02
CGA:  10    -0.292672280865E+03   -0.10333E+02   -0.11625E+02  8112   0.131E+03-0.344E+02
CGA:  11    -0.297669159340E+03   -0.49969E+01   -0.76830E+01  8112   0.683E+02-0.180E+01
CGA:  12    -0.299965920818E+03   -0.22968E+01   -0.47878E+01  8112   0.168E+03-0.259E+02
CGA:  13    -0.302079036690E+03   -0.21131E+01   -0.36869E+01  8112   0.112E+03-0.271E+02
CGA:  14    -0.303708661364E+03   -0.16296E+01   -0.42208E+01  8112   0.851E+02-0.564E+02
CGA:  15    -0.305139930765E+03   -0.14313E+01   -0.45431E+01  8112   0.141E+03-0.810E+02
CGA:  16    -0.305074542647E+03    0.65388E-01   -0.73348E+01  8112   0.126E+03-0.907E+02
CGA:  17    -0.308168523604E+03   -0.30940E+01   -0.48843E+01  8112   0.854E+02-0.117E+03
CGA:  18    -0.308114639801E+03    0.53884E-01   -0.38676E+01  8112   0.823E+02-0.644E+02
CGA:  19    -0.309908866163E+03   -0.17942E+01   -0.27649E+01  8112   0.430E+02-0.611E+02
CGA:  20    -0.310301015948E+03   -0.39215E+00   -0.16475E+01  8112   0.359E+02-0.317E+02
CGA:  21    -0.311034811691E+03   -0.73380E+00   -0.10401E+01  8112   0.961E+01-0.125E+02
CGA:  22    -0.311639943698E+03   -0.60513E+00   -0.60955E+00  8112   0.684E+01 0.162E+00
CGA:  23    -0.312022346450E+03   -0.38240E+00   -0.45867E+00  8112   0.461E+01-0.240E+00
CGA:  24    -0.312349523744E+03   -0.32718E+00   -0.34122E+00  8112   0.179E+01 0.871E-01
CGA:  25    -0.312462886720E+03   -0.11336E+00   -0.13041E+00  8112   0.969E+00-0.266E-01
CGA:  26    -0.312556873024E+03   -0.93986E-01   -0.95345E-01  8112   0.572E+00 0.458E-01
CGA:  27    -0.312610279049E+03   -0.53406E-01   -0.55698E-01  8112   0.282E+00 0.417E-01
CGA:  28    -0.312645188881E+03   -0.34910E-01   -0.34771E-01  8112   0.199E+00 0.162E-01
CGA:  29    -0.312675085670E+03   -0.29897E-01   -0.28834E-01  8112   0.907E-01 0.265E-01
CGA:  30    -0.312687693640E+03   -0.12608E-01   -0.12508E-01  8112   0.584E-01 0.584E-02
CGA:  31    -0.312697757827E+03   -0.10064E-01   -0.98047E-02  8112   0.338E-01 0.436E-02
CGA:  32    -0.312701472561E+03   -0.37147E-02   -0.37348E-02  8112   0.143E-01 0.763E-03
CGA:  33    -0.312703860399E+03   -0.23878E-02   -0.23618E-02  8112   0.108E-01 0.425E-03
CGA:  34    -0.312705508661E+03   -0.16483E-02   -0.16389E-02  8112   0.468E-02 0.216E-03
CGA:  35    -0.312706153820E+03   -0.64516E-03   -0.64535E-03  8112   0.303E-02-0.151E-04
CGA:  36    -0.312706729650E+03   -0.57583E-03   -0.58080E-03  8112   0.363E-02-0.890E-04
CGA:  37    -0.312707601773E+03   -0.87212E-03   -0.84321E-03  8112   0.222E-02-0.355E-03
CGA:  38    -0.312707762969E+03   -0.16120E-03   -0.16141E-03  8112   0.730E-03-0.294E-04
CGA:  39    -0.312707896181E+03   -0.13321E-03   -0.13461E-03  8112   0.961E-03-0.192E-04
CGA:  40    -0.312707990739E+03   -0.94558E-04   -0.94125E-04  8112   0.455E-03 0.683E-06
CGA:  41    -0.312708046004E+03   -0.55265E-04   -0.55305E-04  8112   0.470E-03 0.712E-05
CGA:  42    -0.312708100855E+03   -0.54851E-04   -0.54895E-04  8112   0.304E-03 0.737E-05
CGA:  43    -0.312708138790E+03   -0.37935E-04   -0.37937E-04  8112   0.325E-03 0.366E-05
CGA:  44    -0.312708174855E+03   -0.36064E-04   -0.36108E-04  8112   0.224E-03 0.368E-05
CGA:  45    -0.312708202099E+03   -0.27244E-04   -0.27248E-04  8112   0.226E-03 0.911E-06
CGA:  46    -0.312708228937E+03   -0.26838E-04   -0.26768E-04  8112   0.196E-03-0.396E-05
CGA:  47    -0.312708248106E+03   -0.19169E-04   -0.19026E-04  8112   0.139E-03-0.956E-06
CGA:  48    -0.312708261008E+03   -0.12902E-04   -0.12909E-04  8112   0.119E-03 0.665E-06
CGA:  49    -0.312708274008E+03   -0.13000E-04   -0.13002E-04  8112   0.109E-03 0.654E-06
CGA:  50    -0.312708283796E+03   -0.97874E-05   -0.97818E-05  8112   0.758E-04 0.223E-06
   1 F= -.31270828E+03 E0= -.31270377E+03  d E =-.312708E+03  mag=    44.0000
       N       E                     dE             d eps       ncg     rms          ort
SDA:   1    -0.312786784350E+03   -0.78510E-01    0.00000E+00  8112   0.160E-01 0.000E+00
CGA:   2    -0.312788618469E+03   -0.18341E-02   -0.18341E-02  8112   0.103E-01 0.439E-05
CGA:   3    -0.312790127011E+03   -0.15085E-02   -0.15083E-02  8112   0.367E-02 0.491E-05
CGA:   4    -0.312790514730E+03   -0.38772E-03   -0.38757E-03  8112   0.192E-02-0.564E-05
CGA:   5    -0.312790749691E+03   -0.23496E-03   -0.23498E-03  8112   0.662E-03-0.508E-05
CGA:   6    -0.312790813789E+03   -0.64098E-04   -0.64029E-04  8112   0.173E-03-0.282E-05
CGA:   7    -0.312790845396E+03   -0.31607E-04   -0.31668E-04  8112   0.724E-04-0.923E-06
CGA:   8    -0.312790854417E+03   -0.90208E-05   -0.90213E-05  8112   0.448E-04-0.103E-06
   2 F= -.31279085E+03 E0= -.31278635E+03  d E =-.825706E-01  mag=    44.0000
       N       E                     dE             d eps       ncg     rms          ort
SDA:   1    -0.312095065038E+03    0.69578E+00    0.00000E+00  8112   0.646E+01 0.000E+00
CGA:   2    -0.313917104579E+03   -0.18220E+01   -0.18286E+01  8112   0.211E+01-0.448E-01
CGA:   3    -0.314316098572E+03   -0.39899E+00   -0.39999E+00  8112   0.138E+01-0.145E-01
CGA:   4    -0.314440197273E+03   -0.12410E+00   -0.12447E+00  8112   0.264E+00-0.264E-04
CGA:   5    -0.314485347877E+03   -0.45151E-01   -0.45158E-01  8112   0.129E+00-0.183E-03
CGA:   6    -0.314497905148E+03   -0.12557E-01   -0.12497E-01  8112   0.651E-01-0.285E-03
CGA:   7    -0.314504842983E+03   -0.69378E-02   -0.69511E-02  8112   0.265E-01 0.145E-03
CGA:   8    -0.314509571962E+03   -0.47290E-02   -0.47306E-02  8112   0.128E-01-0.209E-04
CGA:   9    -0.314511797608E+03   -0.22256E-02   -0.22234E-02  8112   0.945E-02 0.454E-04
CGA:  10    -0.314512974900E+03   -0.11773E-02   -0.11772E-02  8112   0.564E-02 0.292E-05
CGA:  11    -0.314513706104E+03   -0.73120E-03   -0.73132E-03  8112   0.360E-02 0.168E-04
CGA:  12    -0.314514137517E+03   -0.43141E-03   -0.43144E-03  8112   0.169E-02 0.514E-05
CGA:  13    -0.314514381530E+03   -0.24401E-03   -0.24394E-03  8112   0.863E-03 0.582E-05
CGA:  14    -0.314514519782E+03   -0.13825E-03   -0.13814E-03  8112   0.423E-03 0.453E-05
CGA:  15    -0.314514573984E+03   -0.54202E-04   -0.54225E-04  8112   0.289E-03 0.308E-05
CGA:  16    -0.314514607119E+03   -0.33134E-04   -0.33183E-04  8112   0.135E-03 0.250E-05
CGA:  17    -0.314514627008E+03   -0.19889E-04   -0.19873E-04  8112   0.849E-04 0.129E-05
CGA:  18    -0.314514637695E+03   -0.10688E-04   -0.10688E-04  8112   0.374E-04 0.466E-07
CGA:  19    -0.314514645099E+03   -0.74037E-05   -0.74300E-05  8112   0.237E-04-0.407E-06
   3 F= -.31451465E+03 E0= -.31450982E+03  d E =-.172379E+01  mag=    44.0000
       N       E                     dE             d eps       ncg     rms          ort
SDA:   1    -0.307323724752E+03    0.71909E+01    0.00000E+00  8112   0.243E+02 0.000E+00
CGA:   2    -0.314045969020E+03   -0.67222E+01   -0.67459E+01  8112   0.135E+02-0.855E-01
CGA:   3    -0.315065169109E+03   -0.10192E+01   -0.11011E+01  8112   0.716E+01-0.272E+00
CGA:   4    -0.315999918623E+03   -0.93475E+00   -0.93007E+00  8112   0.215E+01-0.316E+00
CGA:   5    -0.316191601104E+03   -0.19168E+00   -0.19342E+00  8112   0.799E+00-0.377E-02
CGA:   6    -0.316295311342E+03   -0.10371E+00   -0.10356E+00  8112   0.407E+00-0.996E-02
CGA:   7    -0.316330180845E+03   -0.34870E-01   -0.35922E-01  8112   0.201E+00-0.223E-03
CGA:   8    -0.316353382724E+03   -0.23202E-01   -0.23175E-01  8112   0.837E-01-0.466E-03
CGA:   9    -0.316366148496E+03   -0.12766E-01   -0.12702E-01  8112   0.556E-01 0.208E-02
CGA:  10    -0.316371949965E+03   -0.58015E-02   -0.57900E-02  8112   0.337E-01-0.461E-04
CGA:  11    -0.316376588322E+03   -0.46384E-02   -0.46347E-02  8112   0.190E-01 0.391E-03
CGA:  12    -0.316378936095E+03   -0.23478E-02   -0.23471E-02  8112   0.101E-01-0.171E-04
CGA:  13    -0.316380449436E+03   -0.15133E-02   -0.15115E-02  8112   0.778E-02 0.710E-04
CGA:  14    -0.316381209329E+03   -0.75989E-03   -0.75966E-03  8112   0.314E-02 0.734E-05
CGA:  15    -0.316381681044E+03   -0.47171E-03   -0.47131E-03  8112   0.219E-02 0.165E-04
CGA:  16    -0.316381962050E+03   -0.28101E-03   -0.28104E-03  8112   0.106E-02 0.808E-05
CGA:  17    -0.316382083657E+03   -0.12161E-03   -0.12174E-03  8112   0.733E-03 0.563E-05
CGA:  18    -0.316382187007E+03   -0.10335E-03   -0.10332E-03  8112   0.406E-03 0.390E-05
CGA:  19    -0.316382240088E+03   -0.53081E-04   -0.53084E-04  8112   0.241E-03 0.132E-05
CGA:  20    -0.316382274205E+03   -0.34117E-04   -0.34123E-04  8112   0.175E-03-0.678E-06
CGA:  21    -0.316382293644E+03   -0.19439E-04   -0.19414E-04  8112   0.878E-04-0.132E-05
CGA:  22    -0.316382305934E+03   -0.12290E-04   -0.12304E-04  8112   0.504E-04-0.135E-05
CGA:  23    -0.316382312652E+03   -0.67181E-05   -0.67227E-05  8112   0.322E-04-0.110E-05
   4 F= -.31638231E+03 E0= -.31637708E+03  d E =-.186767E+01  mag=    44.0000
       N       E                     dE             d eps       ncg     rms          ort
SDA:   1    -0.308683623995E+03    0.76987E+01    0.00000E+00  8112   0.221E+02 0.000E+00
CGA:   2    -0.314760038160E+03   -0.60764E+01   -0.60730E+01  8112   0.173E+02 0.148E+00
CGA:   3    -0.315997899560E+03   -0.12379E+01   -0.12730E+01  8112   0.665E+01-0.762E+00
CGA:   4    -0.316887277087E+03   -0.88938E+00   -0.89242E+00  8112   0.196E+01-0.293E+00
CGA:   5    -0.317093195800E+03   -0.20592E+00   -0.20749E+00  8112   0.849E+00 0.174E-01
CGA:   6    -0.317168008918E+03   -0.74813E-01   -0.73163E-01  8112   0.342E+00 0.166E-02
CGA:   7    -0.317210077144E+03   -0.42068E-01   -0.42132E-01  8112   0.161E+00 0.349E-02
CGA:   8    -0.317226433288E+03   -0.16356E-01   -0.16330E-01  8112   0.719E-01-0.130E-03
CGA:   9    -0.317236383021E+03   -0.99497E-02   -0.99313E-02  8112   0.446E-01 0.115E-02
CGA:  10    -0.317240672168E+03   -0.42891E-02   -0.42795E-02  8112   0.214E-01-0.255E-04
CGA:  11    -0.317244163302E+03   -0.34911E-02   -0.34811E-02  8112   0.133E-01 0.205E-03
CGA:  12    -0.317245617113E+03   -0.14538E-02   -0.14536E-02  8112   0.769E-02 0.167E-05
CGA:  13    -0.317246670406E+03   -0.10533E-02   -0.10527E-02  8112   0.541E-02 0.431E-04
CGA:  14    -0.317247294089E+03   -0.62368E-03   -0.62375E-03  8112   0.217E-02 0.798E-05
CGA:  15    -0.317247611123E+03   -0.31703E-03   -0.31671E-03  8112   0.179E-02 0.146E-04
CGA:  16    -0.317247800522E+03   -0.18940E-03   -0.18959E-03  8112   0.744E-03 0.762E-05
CGA:  17    -0.317247901285E+03   -0.10076E-03   -0.10072E-03  8112   0.467E-03 0.568E-05
CGA:  18    -0.317247963581E+03   -0.62297E-04   -0.62283E-04  8112   0.310E-03 0.359E-05
CGA:  19    -0.317248001864E+03   -0.38282E-04   -0.38294E-04  8112   0.177E-03 0.170E-05
CGA:  20    -0.317248025422E+03   -0.23558E-04   -0.23557E-04  8112   0.130E-03 0.199E-06
CGA:  21    -0.317248044265E+03   -0.18843E-04   -0.18859E-04  8112   0.680E-04-0.942E-06
CGA:  22    -0.317248052102E+03   -0.78372E-05   -0.78286E-05  8112   0.499E-04-0.644E-06
   5 F= -.31724805E+03 E0= -.31724272E+03  d E =-.865739E+00  mag=    44.0000
       N       E                     dE             d eps       ncg     rms          ort
SDA:   1    -0.302730092534E+03    0.14518E+02    0.00000E+00  8112   0.397E+02 0.000E+00
CGA:   2    -0.313021480960E+03   -0.10291E+02   -0.10273E+02  8112   0.314E+02 0.405E+00
CGA:   3    -0.315758708557E+03   -0.27372E+01   -0.26146E+01  8112   0.118E+02-0.484E+00
CGA:   4    -0.317186380276E+03   -0.14277E+01   -0.14109E+01  8112   0.397E+01-0.576E+00
CGA:   5    -0.317626928775E+03   -0.44055E+00   -0.44161E+00  8112   0.139E+01 0.270E-01
CGA:   6    -0.317761241303E+03   -0.13431E+00   -0.13319E+00  8112   0.615E+00-0.180E-02
CGA:   7    -0.317830353696E+03   -0.69112E-01   -0.69312E-01  8112   0.305E+00 0.430E-02
CGA:   8    -0.317859645592E+03   -0.29292E-01   -0.29264E-01  8112   0.130E+00-0.107E-03
CGA:   9    -0.317875467565E+03   -0.15822E-01   -0.15852E-01  8112   0.672E-01 0.275E-02
CGA:  10    -0.317884073892E+03   -0.86063E-02   -0.86071E-02  8112   0.302E-01 0.238E-03
CGA:  11    -0.317887758613E+03   -0.36847E-02   -0.36878E-02  8112   0.245E-01 0.262E-03
CGA:  12    -0.317890560278E+03   -0.28017E-02   -0.28019E-02  8112   0.943E-02 0.118E-04
CGA:  13    -0.317891947692E+03   -0.13874E-02   -0.13863E-02  8112   0.662E-02 0.381E-04
CGA:  14    -0.317892787966E+03   -0.84027E-03   -0.84028E-03  8112   0.351E-02 0.123E-04
CGA:  15    -0.317893163828E+03   -0.37586E-03   -0.37652E-03  8112   0.186E-02 0.168E-04
CGA:  16    -0.317893404771E+03   -0.24094E-03   -0.24091E-03  8112   0.925E-03 0.111E-04
CGA:  17    -0.317893530065E+03   -0.12529E-03   -0.12523E-03  8112   0.445E-03 0.698E-05
CGA:  18    -0.317893581555E+03   -0.51490E-04   -0.51529E-04  8112   0.298E-03 0.319E-05
CGA:  19    -0.317893619608E+03   -0.38053E-04   -0.38052E-04  8112   0.158E-03 0.230E-05
CGA:  20    -0.317893643343E+03   -0.23735E-04   -0.23712E-04  8112   0.851E-04 0.983E-06
CGA:  21    -0.317893655981E+03   -0.12638E-04   -0.12635E-04  8112   0.884E-04 0.156E-06
CGA:  22    -0.317893666178E+03   -0.10197E-04   -0.10197E-04  8112   0.342E-04 0.198E-07
CGA:  23    -0.317893672251E+03   -0.60726E-05   -0.60942E-05  8112   0.281E-04-0.434E-06
   6 F= -.31789367E+03 E0= -.31788836E+03  d E =-.645620E+00  mag=    44.0000
       N       E                     dE             d eps       ncg     rms          ort
SDA:   1    -0.290362969437E+03    0.27531E+02    0.00000E+00  8112   0.763E+02 0.000E+00
CGA:   2    -0.308621692982E+03   -0.18259E+02   -0.17786E+02  8112   0.589E+02 0.311E+01
CGA:   3    -0.314276185347E+03   -0.56545E+01   -0.52769E+01  8112   0.222E+02-0.196E+01
CGA:   4    -0.316960774195E+03   -0.26846E+01   -0.25861E+01  8112   0.882E+01-0.289E+01
CGA:   5    -0.317760167319E+03   -0.79939E+00   -0.80249E+00  8112   0.414E+01 0.754E-02
CGA:   6    -0.318021733360E+03   -0.26157E+00   -0.24932E+00  8112   0.145E+01 0.436E-01
CGA:   7    -0.318175484154E+03   -0.15375E+00   -0.15509E+00  8112   0.848E+00 0.188E-01
CGA:   8    -0.318251596702E+03   -0.76113E-01   -0.76356E-01  8112   0.484E+00-0.570E-04
CGA:   9    -0.318289061219E+03   -0.37465E-01   -0.39482E-01  8112   0.181E+00 0.562E-03
CGA:  10    -0.318311691983E+03   -0.22631E-01   -0.22623E-01  8112   0.132E+00 0.136E-02
CGA:  11    -0.318323553364E+03   -0.11861E-01   -0.12234E-01  8112   0.555E-01 0.236E-02
CGA:  12    -0.318329815622E+03   -0.62623E-02   -0.62674E-02  8112   0.359E-01 0.232E-03
CGA:  13    -0.318334909399E+03   -0.50938E-02   -0.50494E-02  8112   0.178E-01 0.142E-02
CGA:  14    -0.318336729419E+03   -0.18200E-02   -0.18267E-02  8112   0.109E-01 0.909E-04
CGA:  15    -0.318338296535E+03   -0.15671E-02   -0.15612E-02  8112   0.506E-02 0.178E-03
CGA:  16    -0.318338915664E+03   -0.61913E-03   -0.61917E-03  8112   0.302E-02 0.302E-04
CGA:  17    -0.318339227322E+03   -0.31166E-03   -0.31223E-03  8112   0.124E-02 0.164E-04
CGA:  18    -0.318339416241E+03   -0.18892E-03   -0.18846E-03  8112   0.725E-03 0.130E-04
CGA:  19    -0.318339486858E+03   -0.70618E-04   -0.70767E-04  8112   0.289E-03 0.387E-05
CGA:  20    -0.318339530149E+03   -0.43291E-04   -0.43226E-04  8112   0.222E-03 0.208E-05
CGA:  21    -0.318339557845E+03   -0.27696E-04   -0.27693E-04  8112   0.103E-03 0.904E-06
CGA:  22    -0.318339571171E+03   -0.13327E-04   -0.13323E-04  8112   0.722E-04 0.601E-06
CGA:  23    -0.318339581879E+03   -0.10707E-04   -0.10697E-04  8112   0.476E-04 0.388E-06
CGA:  24    -0.318339587968E+03   -0.60894E-05   -0.60891E-05  8112   0.280E-04 0.505E-07
   7 F= -.31833959E+03 E0= -.31833426E+03  d E =-.445916E+00  mag=    44.0000
       N       E                     dE             d eps       ncg     rms          ort
SDA:   1    -0.294162539769E+03    0.24177E+02    0.00000E+00  8112   0.621E+02 0.000E+00
CGA:   2    -0.311426349267E+03   -0.17264E+02   -0.17340E+02  8112   0.420E+02-0.426E+00
CGA:   3    -0.315748098440E+03   -0.43217E+01   -0.43664E+01  8112   0.149E+02 0.146E+01
CGA:   4    -0.317677922406E+03   -0.19298E+01   -0.19293E+01  8112   0.407E+01-0.206E-01
CGA:   5    -0.318197863467E+03   -0.51994E+00   -0.51866E+00  8112   0.201E+01-0.226E+00
CGA:   6    -0.318376350452E+03   -0.17849E+00   -0.18144E+00  8112   0.667E+00 0.131E-01
CGA:   7    -0.318452947794E+03   -0.76597E-01   -0.76511E-01  8112   0.410E+00-0.218E-02
CGA:   8    -0.318489963359E+03   -0.37016E-01   -0.37128E-01  8112   0.117E+00 0.302E-03
CGA:   9    -0.318509627044E+03   -0.19664E-01   -0.19618E-01  8112   0.603E-01 0.799E-03
CGA:  10    -0.318516453140E+03   -0.68261E-02   -0.68420E-02  8112   0.357E-01 0.406E-03
CGA:  11    -0.318520758731E+03   -0.43056E-02   -0.43056E-02  8112   0.222E-01 0.190E-04
CGA:  12    -0.318523427386E+03   -0.26687E-02   -0.26697E-02  8112   0.966E-02 0.835E-04
CGA:  13    -0.318524872918E+03   -0.14455E-02   -0.14445E-02  8112   0.692E-02 0.379E-04
CGA:  14    -0.318525668598E+03   -0.79568E-03   -0.79617E-03  8112   0.337E-02 0.227E-04
CGA:  15    -0.318526050617E+03   -0.38202E-03   -0.38213E-03  8112   0.186E-02 0.854E-05
CGA:  16    -0.318526282700E+03   -0.23208E-03   -0.23210E-03  8112   0.740E-03 0.865E-05
CGA:  17    -0.318526379011E+03   -0.96310E-04   -0.96295E-04  8112   0.409E-03 0.453E-05
CGA:  18    -0.318526419895E+03   -0.40885E-04   -0.40942E-04  8112   0.190E-03 0.191E-05
CGA:  19    -0.318526445808E+03   -0.25913E-04   -0.25899E-04  8112   0.884E-04 0.121E-05
CGA:  20    -0.318526457285E+03   -0.11477E-04   -0.11475E-04  8112   0.551E-04 0.496E-06
CGA:  21    -0.318526464148E+03   -0.68635E-05   -0.68645E-05  8112   0.336E-04 0.468E-06
   8 F= -.31852646E+03 E0= -.31852097E+03  d E =-.186876E+00  mag=    44.0000
       N       E                     dE             d eps       ncg     rms          ort
SDA:   1    -0.281399180762E+03    0.37127E+02    0.00000E+00  8112   0.959E+02 0.000E+00
CGA:   2    -0.306316814529E+03   -0.24918E+02   -0.24815E+02  8112   0.833E+02 0.943E+00
CGA:   3    -0.313777222497E+03   -0.74604E+01   -0.75150E+01  8112   0.263E+02-0.644E+00
CGA:   4    -0.316854635770E+03   -0.30774E+01   -0.29936E+01  8112   0.136E+02-0.193E+01
CGA:   5    -0.317887104462E+03   -0.10325E+01   -0.10288E+01  8112   0.373E+01-0.576E-01
CGA:   6    -0.318317160121E+03   -0.43006E+00   -0.42985E+00  8112   0.159E+01-0.644E-02
CGA:   7    -0.318466770968E+03   -0.14961E+00   -0.15138E+00  8112   0.843E+00 0.876E-02
CGA:   8    -0.318543850669E+03   -0.77080E-01   -0.77092E-01  8112   0.340E+00 0.193E-03
CGA:   9    -0.318579963231E+03   -0.36113E-01   -0.36419E-01  8112   0.157E+00 0.700E-02
CGA:  10    -0.318600021470E+03   -0.20058E-01   -0.20055E-01  8112   0.724E-01 0.607E-03
CGA:  11    -0.318607858726E+03   -0.78373E-02   -0.78651E-02  8112   0.544E-01 0.753E-03
CGA:  12    -0.318614159010E+03   -0.63003E-02   -0.63043E-02  8112   0.199E-01 0.289E-03
CGA:  13    -0.318617555958E+03   -0.33969E-02   -0.33694E-02  8112   0.138E-01 0.465E-03
CGA:  14    -0.318619048486E+03   -0.14925E-02   -0.14943E-02  8112   0.896E-02 0.491E-04
CGA:  15    -0.318620130912E+03   -0.10824E-02   -0.10826E-02  8112   0.329E-02 0.474E-04
CGA:  16    -0.318620627240E+03   -0.49633E-03   -0.49569E-03  8112   0.194E-02 0.205E-04
CGA:  17    -0.318620831298E+03   -0.20406E-03   -0.20442E-03  8112   0.977E-03 0.124E-04
CGA:  18    -0.318620936210E+03   -0.10491E-03   -0.10505E-03  8112   0.352E-03 0.765E-05
CGA:  19    -0.318620987535E+03   -0.51325E-04   -0.51220E-04  8112   0.178E-03 0.452E-05
CGA:  20    -0.318621007770E+03   -0.20235E-04   -0.20252E-04  8112   0.102E-03 0.145E-05
CGA:  21    -0.318621019357E+03   -0.11587E-04   -0.11594E-04  8112   0.464E-04 0.592E-06
CGA:  22    -0.318621026973E+03   -0.76153E-05   -0.75999E-05  8112   0.272E-04 0.361E-06
   9 F= -.31862103E+03 E0= -.31861562E+03  d E =-.945628E-01  mag=    44.0000
       N       E                     dE             d eps       ncg     rms          ort
SDA:   1    -0.313530818493E+03    0.50902E+01    0.00000E+00  8112   0.135E+02 0.000E+00
CGA:   2    -0.317051644721E+03   -0.35208E+01   -0.35341E+01  8112   0.934E+01-0.109E+00
CGA:   3    -0.318099247545E+03   -0.10476E+01   -0.10462E+01  8112   0.318E+01 0.595E-01
CGA:   4    -0.318518673743E+03   -0.41943E+00   -0.41942E+00  8112   0.109E+01 0.502E-02
CGA:   5    -0.318628694932E+03   -0.11002E+00   -0.10948E+00  8112   0.497E+00-0.387E-02
CGA:   6    -0.318671566006E+03   -0.42871E-01   -0.42980E-01  8112   0.173E+00-0.318E-03
CGA:   7    -0.318693264142E+03   -0.21698E-01   -0.21699E-01  8112   0.525E-01 0.739E-03
CGA:   8    -0.318700708025E+03   -0.74439E-02   -0.74466E-02  8112   0.246E-01-0.109E-03
CGA:   9    -0.318703792724E+03   -0.30847E-02   -0.30849E-02  8112   0.117E-01 0.500E-04
CGA:  10    -0.318705014845E+03   -0.12221E-02   -0.12234E-02  8112   0.733E-02 0.201E-04
CGA:  11    -0.318705905051E+03   -0.89021E-03   -0.89035E-03  8112   0.309E-02 0.198E-04
CGA:  12    -0.318706379107E+03   -0.47406E-03   -0.47355E-03  8112   0.164E-02 0.143E-04
CGA:  13    -0.318706643419E+03   -0.26431E-03   -0.26403E-03  8112   0.131E-02 0.725E-05
CGA:  14    -0.318706760836E+03   -0.11742E-03   -0.11761E-03  8112   0.547E-03 0.281E-05
CGA:  15    -0.318706846134E+03   -0.85298E-04   -0.85192E-04  8112   0.295E-03 0.354E-05
CGA:  16    -0.318706882552E+03   -0.36418E-04   -0.36432E-04  8112   0.116E-03 0.250E-05
CGA:  17    -0.318706898003E+03   -0.15451E-04   -0.15445E-04  8112   0.786E-04 0.138E-05
CGA:  18    -0.318706905467E+03   -0.74637E-05   -0.74871E-05  8112   0.293E-04 0.645E-06
  10 F= -.31870691E+03 E0= -.31870161E+03  d E =-.858785E-01  mag=    44.0000
       N       E                     dE             d eps       ncg     rms          ort
SDA:   1    -0.295484197475E+03    0.23223E+02    0.00000E+00  8112   0.605E+02 0.000E+00
CGA:   2    -0.311447432637E+03   -0.15963E+02   -0.16132E+02  8112   0.465E+02-0.116E+01
CGA:   3    -0.315825630688E+03   -0.43782E+01   -0.44333E+01  8112   0.148E+02 0.178E+01
CGA:   4    -0.317742718196E+03   -0.19171E+01   -0.19145E+01  8112   0.710E+01-0.143E+00
CGA:   5    -0.318304343442E+03   -0.56163E+00   -0.56293E+00  8112   0.247E+01-0.648E-01
CGA:   6    -0.318580355389E+03   -0.27601E+00   -0.27540E+00  8112   0.850E+00-0.109E-01
CGA:   7    -0.318682682721E+03   -0.10233E+00   -0.10263E+00  8112   0.297E+00 0.177E-01
CGA:   8    -0.318722952384E+03   -0.40270E-01   -0.40277E-01  8112   0.120E+00-0.860E-03
CGA:   9    -0.318741652223E+03   -0.18700E-01   -0.18630E-01  8112   0.441E-01 0.170E-02
CGA:  10    -0.318748206393E+03   -0.65542E-02   -0.65454E-02  8112   0.368E-01 0.342E-03
CGA:  11    -0.318751709301E+03   -0.35029E-02   -0.35162E-02  8112   0.167E-01 0.765E-04
CGA:  12    -0.318753878619E+03   -0.21693E-02   -0.21692E-02  8112   0.868E-02 0.800E-04
CGA:  13    -0.318755324763E+03   -0.14461E-02   -0.14430E-02  8112   0.473E-02 0.682E-04
CGA:  14    -0.318755959067E+03   -0.63430E-03   -0.63426E-03  8112   0.274E-02 0.150E-04
CGA:  15    -0.318756262540E+03   -0.30347E-03   -0.30381E-03  8112   0.178E-02 0.106E-04
CGA:  16    -0.318756457226E+03   -0.19469E-03   -0.19490E-03  8112   0.511E-03 0.924E-05
CGA:  17    -0.318756543815E+03   -0.86589E-04   -0.86287E-04  8112   0.264E-03 0.756E-05
CGA:  18    -0.318756575736E+03   -0.31921E-04   -0.31954E-04  8112   0.146E-03 0.274E-05
CGA:  19    -0.318756590527E+03   -0.14791E-04   -0.14825E-04  8112   0.721E-04 0.993E-06
CGA:  20    -0.318756600879E+03   -0.10351E-04   -0.10345E-04  8112   0.358E-04 0.453E-06
CGA:  21    -0.318756606748E+03   -0.58693E-05   -0.58555E-05  8112   0.192E-04 0.405E-06
  11 F= -.31875661E+03 E0= -.31875145E+03  d E =-.497013E-01  mag=    44.0000
       N       E                     dE             d eps       ncg     rms          ort
SDA:   1    -0.314818903033E+03    0.39377E+01    0.00000E+00  8112   0.103E+02 0.000E+00
CGA:   2    -0.317290275549E+03   -0.24714E+01   -0.24957E+01  8112   0.102E+02-0.233E+00
CGA:   3    -0.318258953952E+03   -0.96868E+00   -0.96544E+00  8112   0.293E+01 0.204E+00
CGA:   4    -0.318576919880E+03   -0.31797E+00   -0.31657E+00  8112   0.175E+01-0.180E-01
CGA:   5    -0.318719886454E+03   -0.14297E+00   -0.14385E+00  8112   0.344E+00-0.361E-02
CGA:   6    -0.318771321222E+03   -0.51435E-01   -0.51436E-01  8112   0.134E+00 0.182E-04
CGA:   7    -0.318785550648E+03   -0.14229E-01   -0.14271E-01  8112   0.726E-01 0.467E-03
CGA:   8    -0.318792144140E+03   -0.65935E-02   -0.66209E-02  8112   0.294E-01 0.419E-04
CGA:   9    -0.318795605634E+03   -0.34615E-02   -0.34627E-02  8112   0.116E-01 0.420E-04
CGA:  10    -0.318797134447E+03   -0.15288E-02   -0.15278E-02  8112   0.463E-02 0.146E-03
CGA:  11    -0.318797992236E+03   -0.85779E-03   -0.85603E-03  8112   0.185E-02 0.278E-04
CGA:  12    -0.318798354185E+03   -0.36195E-03   -0.36003E-03  8112   0.110E-02 0.257E-04
CGA:  13    -0.318798524894E+03   -0.17071E-03   -0.17059E-03  8112   0.650E-03 0.512E-05
CGA:  14    -0.318798604101E+03   -0.79207E-04   -0.79256E-04  8112   0.448E-03 0.219E-05
CGA:  15    -0.318798649777E+03   -0.45676E-04   -0.45737E-04  8112   0.199E-03 0.129E-05
CGA:  16    -0.318798676254E+03   -0.26477E-04   -0.26477E-04  8112   0.682E-04 0.161E-05
CGA:  17    -0.318798688394E+03   -0.12140E-04   -0.12085E-04  8112   0.262E-04 0.126E-05
CGA:  18    -0.318798692057E+03   -0.36630E-05   -0.36623E-05  8112   0.149E-04 0.260E-06
  12 F= -.31879869E+03 E0= -.31879354E+03  d E =-.420853E-01  mag=    44.0000
       N       E                     dE             d eps       ncg     rms          ort
SDA:   1    -0.316896463774E+03    0.19022E+01    0.00000E+00  8112   0.490E+01 0.000E+00
CGA:   2    -0.318116199406E+03   -0.12197E+01   -0.12292E+01  8112   0.475E+01-0.839E-01
CGA:   3    -0.318576605573E+03   -0.46041E+00   -0.46160E+00  8112   0.135E+01 0.403E-01
CGA:   4    -0.318717074635E+03   -0.14047E+00   -0.14034E+00  8112   0.751E+00-0.275E-02
CGA:   5    -0.318783201895E+03   -0.66127E-01   -0.66190E-01  8112   0.154E+00-0.250E-03
CGA:   6    -0.318804877843E+03   -0.21676E-01   -0.21675E-01  8112   0.526E-01 0.114E-03
CGA:   7    -0.318812810780E+03   -0.79329E-02   -0.79250E-02  8112   0.162E-01 0.295E-03
CGA:   8    -0.318815188920E+03   -0.23781E-02   -0.23779E-02  8112   0.836E-02 0.806E-05
CGA:   9    -0.318816103273E+03   -0.91435E-03   -0.91459E-03  8112   0.394E-02-0.450E-06
CGA:  10    -0.318816504496E+03   -0.40122E-03   -0.40163E-03  8112   0.224E-02 0.291E-05
CGA:  11    -0.318816811631E+03   -0.30713E-03   -0.30709E-03  8112   0.804E-03 0.738E-05
CGA:  12    -0.318816963231E+03   -0.15160E-03   -0.15120E-03  8112   0.467E-03 0.632E-05
CGA:  13    -0.318817036315E+03   -0.73084E-04   -0.73029E-04  8112   0.352E-03 0.253E-05
CGA:  14    -0.318817069565E+03   -0.33250E-04   -0.33302E-04  8112   0.160E-03 0.943E-06
CGA:  15    -0.318817091729E+03   -0.22164E-04   -0.22161E-04  8112   0.812E-04 0.624E-06
CGA:  16    -0.318817102752E+03   -0.11023E-04   -0.11022E-04  8112   0.240E-04 0.524E-06
CGA:  17    -0.318817106762E+03   -0.40098E-05   -0.39983E-05  8112   0.156E-04 0.365E-06
  13 F= -.31881711E+03 E0= -.31881205E+03  d E =-.184147E-01  mag=    44.0000
       N       E                     dE             d eps       ncg     rms          ort
SDA:   1    -0.306975497399E+03    0.11842E+02    0.00000E+00  8112   0.310E+02 0.000E+00
CGA:   2    -0.314104325380E+03   -0.71288E+01   -0.73394E+01  8112   0.366E+02-0.210E+01
CGA:   3    -0.317303004122E+03   -0.31987E+01   -0.31510E+01  8112   0.704E+01 0.181E+01
CGA:   4    -0.318360788337E+03   -0.10578E+01   -0.10573E+01  8112   0.311E+01 0.430E-01
CGA:   5    -0.318644026087E+03   -0.28324E+00   -0.28399E+00  8112   0.124E+01-0.130E-02
CGA:   6    -0.318763682210E+03   -0.11966E+00   -0.11976E+00  8112   0.391E+00 0.884E-03
CGA:   7    -0.318816691955E+03   -0.53010E-01   -0.52999E-01  8112   0.166E+00 0.196E-02
CGA:   8    -0.318835250440E+03   -0.18558E-01   -0.18629E-01  8112   0.589E-01 0.110E-02
CGA:   9    -0.318843691858E+03   -0.84414E-02   -0.84353E-02  8112   0.289E-01 0.321E-03
CGA:  10    -0.318847203038E+03   -0.35112E-02   -0.35150E-02  8112   0.109E-01 0.143E-03
CGA:  11    -0.318849347331E+03   -0.21443E-02   -0.21391E-02  8112   0.577E-02 0.714E-04
CGA:  12    -0.318850100087E+03   -0.75276E-03   -0.75298E-03  8112   0.404E-02 0.271E-04
CGA:  13    -0.318850621353E+03   -0.52127E-03   -0.52141E-03  8112   0.251E-02 0.146E-04
CGA:  14    -0.318850919642E+03   -0.29829E-03   -0.29855E-03  8112   0.107E-02 0.881E-05
CGA:  15    -0.318851064549E+03   -0.14491E-03   -0.14489E-03  8112   0.520E-03 0.728E-05
CGA:  16    -0.318851148983E+03   -0.84434E-04   -0.84247E-04  8112   0.185E-03 0.668E-05
CGA:  17    -0.318851171037E+03   -0.22054E-04   -0.22098E-04  8112   0.100E-03 0.242E-05
CGA:  18    -0.318851183186E+03   -0.12150E-04   -0.12170E-04  8112   0.557E-04 0.142E-05
CGA:  19    -0.318851189660E+03   -0.64733E-05   -0.64861E-05  8112   0.162E-04 0.676E-06
  14 F= -.31885119E+03 E0= -.31884648E+03  d E =-.340829E-01  mag=    44.0000
       N       E                     dE             d eps       ncg     rms          ort
SDA:   1    -0.291591893818E+03    0.27259E+02    0.00000E+00  8112   0.699E+02 0.000E+00
CGA:   2    -0.308632931929E+03   -0.17041E+02   -0.17655E+02  8112   0.847E+02-0.521E+01
CGA:   3    -0.315133080837E+03   -0.65001E+01   -0.65497E+01  8112   0.172E+02 0.539E+01
CGA:   4    -0.317700413833E+03   -0.25673E+01   -0.25665E+01  8112   0.658E+01 0.168E+00
CGA:   5    -0.318374682201E+03   -0.67427E+00   -0.66263E+00  8112   0.273E+01-0.168E-01
CGA:   6    -0.318640757282E+03   -0.26608E+00   -0.27089E+00  8112   0.930E+00 0.304E-01
CGA:   7    -0.318760240681E+03   -0.11948E+00   -0.11960E+00  8112   0.381E+00 0.841E-02
CGA:   8    -0.318806428789E+03   -0.46188E-01   -0.46206E-01  8112   0.143E+00 0.702E-03
CGA:   9    -0.318825794234E+03   -0.19365E-01   -0.19353E-01  8112   0.686E-01 0.348E-02
CGA:  10    -0.318834902456E+03   -0.91082E-02   -0.91095E-02  8112   0.265E-01 0.189E-03
CGA:  11    -0.318839691577E+03   -0.47891E-02   -0.47806E-02  8112   0.188E-01 0.150E-03
CGA:  12    -0.318841681675E+03   -0.19901E-02   -0.20001E-02  8112   0.864E-02 0.105E-03
CGA:  13    -0.318843208284E+03   -0.15266E-02   -0.15232E-02  8112   0.522E-02 0.645E-04
CGA:  14    -0.318843929989E+03   -0.72171E-03   -0.72164E-03  8112   0.220E-02 0.267E-04
CGA:  15    -0.318844266480E+03   -0.33649E-03   -0.33618E-03  8112   0.113E-02 0.166E-04
CGA:  16    -0.318844435734E+03   -0.16925E-03   -0.16909E-03  8112   0.361E-03 0.132E-04
CGA:  17    -0.318844484855E+03   -0.49121E-04   -0.49133E-04  8112   0.224E-03 0.456E-05
CGA:  18    -0.318844511931E+03   -0.27075E-04   -0.27128E-04  8112   0.796E-04 0.285E-05
CGA:  19    -0.318844523807E+03   -0.11877E-04   -0.11861E-04  8112   0.343E-04 0.137E-05
CGA:  20    -0.318844529692E+03   -0.58844E-05   -0.58628E-05  8112   0.224E-04 0.678E-06
  15 F= -.31884453E+03 E0= -.31884034E+03  d E =0.665997E-02  mag=    44.0000
       N       E                     dE             d eps       ncg     rms          ort
SDA:   1    -0.315293009815E+03    0.35515E+01    0.00000E+00  8112   0.943E+01 0.000E+00
CGA:   2    -0.317677256705E+03   -0.23842E+01   -0.23821E+01  8112   0.533E+01 0.185E-01
CGA:   3    -0.318541899246E+03   -0.86464E+00   -0.86524E+00  8112   0.182E+01-0.203E-01
CGA:   4    -0.318774640065E+03   -0.23274E+00   -0.23296E+00  8112   0.538E+00 0.510E-02
CGA:   5    -0.318842935504E+03   -0.68295E-01   -0.68292E-01  8112   0.204E+00-0.166E-04
CGA:   6    -0.318865575406E+03   -0.22640E-01   -0.22611E-01  8112   0.843E-01-0.177E-03
CGA:   7    -0.318875783481E+03   -0.10208E-01   -0.10219E-01  8112   0.258E-01 0.198E-03
CGA:   8    -0.318880119672E+03   -0.43362E-02   -0.43371E-02  8112   0.101E-01-0.192E-04
CGA:   9    -0.318881627513E+03   -0.15078E-02   -0.15077E-02  8112   0.484E-02 0.140E-04
CGA:  10    -0.318882382231E+03   -0.75472E-03   -0.75481E-03  8112   0.256E-02-0.335E-05
CGA:  11    -0.318882695490E+03   -0.31326E-03   -0.31336E-03  8112   0.142E-02 0.353E-05
CGA:  12    -0.318882915823E+03   -0.22033E-03   -0.22026E-03  8112   0.584E-03 0.522E-05
CGA:  13    -0.318883020007E+03   -0.10418E-03   -0.10410E-03  8112   0.302E-03 0.231E-05
CGA:  14    -0.318883068526E+03   -0.48519E-04   -0.48521E-04  8112   0.147E-03-0.138E-06
CGA:  15    -0.318883086302E+03   -0.17776E-04   -0.17767E-04  8112   0.736E-04-0.384E-06
CGA:  16    -0.318883096268E+03   -0.99659E-05   -0.99658E-05  8112   0.268E-04-0.587E-08
  16 F= -.31888310E+03 E0= -.31887903E+03  d E =-.385666E-01  mag=    44.0000
       N       E                     dE             d eps       ncg     rms          ort
SDA:   1    -0.316627792589E+03    0.22553E+01    0.00000E+00  8112   0.575E+01 0.000E+00
CGA:   2    -0.318137492200E+03   -0.15097E+01   -0.15132E+01  8112   0.466E+01-0.450E-01
CGA:   3    -0.318641559919E+03   -0.50407E+00   -0.51174E+00  8112   0.139E+01 0.650E-01
CGA:   4    -0.318815665146E+03   -0.17411E+00   -0.17374E+00  8112   0.539E+00-0.434E-02
CGA:   5    -0.318865754450E+03   -0.50089E-01   -0.50669E-01  8112   0.162E+00-0.416E-03
CGA:   6    -0.318887098049E+03   -0.21344E-01   -0.21346E-01  8112   0.514E-01 0.882E-04
CGA:   7    -0.318895114864E+03   -0.80168E-02   -0.80183E-02  8112   0.151E-01-0.660E-04
CGA:   8    -0.318897562940E+03   -0.24481E-02   -0.24483E-02  8112   0.755E-02-0.908E-05
CGA:   9    -0.318898364572E+03   -0.80163E-03   -0.80281E-03  8112   0.351E-02 0.598E-05
CGA:  10    -0.318898850347E+03   -0.48577E-03   -0.48581E-03  8112   0.152E-02 0.568E-05
CGA:  11    -0.318899110379E+03   -0.26003E-03   -0.25990E-03  8112   0.726E-03 0.441E-05
CGA:  12    -0.318899229268E+03   -0.11889E-03   -0.11884E-03  8112   0.469E-03 0.192E-05
CGA:  13    -0.318899296004E+03   -0.66737E-04   -0.66738E-04  8112   0.256E-03 0.365E-06
CGA:  14    -0.318899326260E+03   -0.30255E-04   -0.30276E-04  8112   0.120E-03 0.885E-06
CGA:  15    -0.318899345533E+03   -0.19273E-04   -0.19240E-04  8112   0.408E-04 0.200E-05
CGA:  16    -0.318899351824E+03   -0.62914E-05   -0.62853E-05  8112   0.187E-04 0.856E-06
  17 F= -.31889935E+03 E0= -.31889512E+03  d E =-.162556E-01  mag=    44.0000
       N       E                     dE             d eps       ncg     rms          ort
SDA:   1    -0.318265364476E+03    0.63398E+00    0.00000E+00  8112   0.163E+01 0.000E+00
CGA:   2    -0.318686495902E+03   -0.42113E+00   -0.42267E+00  8112   0.139E+01-0.127E-01
CGA:   3    -0.318831250688E+03   -0.14475E+00   -0.14531E+00  8112   0.412E+00 0.619E-02
CGA:   4    -0.318881204759E+03   -0.49954E-01   -0.50035E-01  8112   0.166E+00 0.857E-03
CGA:   5    -0.318897560819E+03   -0.16356E-01   -0.16275E-01  8112   0.416E-01 0.364E-04
CGA:   6    -0.318903703481E+03   -0.61427E-02   -0.61425E-02  8112   0.134E-01 0.339E-04
CGA:   7    -0.318905703897E+03   -0.20004E-02   -0.20004E-02  8112   0.492E-02 0.715E-05
CGA:   8    -0.318906359254E+03   -0.65536E-03   -0.65534E-03  8112   0.242E-02-0.321E-05
CGA:   9    -0.318906618762E+03   -0.25951E-03   -0.25936E-03  8112   0.921E-03-0.194E-05
CGA:  10    -0.318906763623E+03   -0.14486E-03   -0.14483E-03  8112   0.411E-03 0.179E-05
CGA:  11    -0.318906830464E+03   -0.66840E-04   -0.66813E-04  8112   0.214E-03 0.131E-05
CGA:  12    -0.318906864329E+03   -0.33866E-04   -0.33867E-04  8112   0.136E-03-0.123E-06
CGA:  13    -0.318906881834E+03   -0.17505E-04   -0.17503E-04  8112   0.739E-04-0.124E-06
CGA:  14    -0.318906892046E+03   -0.10212E-04   -0.10214E-04  8112   0.298E-04 0.322E-06
CGA:  15    -0.318906897292E+03   -0.52457E-05   -0.52290E-05  8112   0.118E-04 0.530E-06
  18 F= -.31890690E+03 E0= -.31890270E+03  d E =-.754547E-02  mag=    44.0000
       N       E                     dE             d eps       ncg     rms          ort
SDA:   1    -0.279590584517E+03    0.39316E+02    0.00000E+00  8112   0.101E+03 0.000E+00
CGA:   2    -0.304825652953E+03   -0.25235E+02   -0.25624E+02  8112   0.115E+03-0.448E+01
CGA:   3    -0.313376864042E+03   -0.85512E+01   -0.88092E+01  8112   0.276E+02 0.422E+00
CGA:   4    -0.317377520866E+03   -0.40007E+01   -0.39996E+01  8112   0.811E+01-0.281E+00
CGA:   5    -0.318288213795E+03   -0.91069E+00   -0.87431E+00  8112   0.365E+01-0.151E+00
CGA:   6    -0.318640444740E+03   -0.35223E+00   -0.35651E+00  8112   0.137E+01 0.186E-01
CGA:   7    -0.318776239543E+03   -0.13579E+00   -0.14080E+00  8112   0.798E+00 0.207E-01
CGA:   8    -0.318853959468E+03   -0.77720E-01   -0.77530E-01  8112   0.232E+00 0.188E-02
CGA:   9    -0.318888958998E+03   -0.35000E-01   -0.34835E-01  8112   0.113E+00 0.800E-02
CGA:  10    -0.318902034143E+03   -0.13075E-01   -0.13196E-01  8112   0.623E-01 0.135E-02
CGA:  11    -0.318909784294E+03   -0.77502E-02   -0.77738E-02  8112   0.335E-01 0.703E-03
CGA:  12    -0.318914885433E+03   -0.51011E-02   -0.50929E-02  8112   0.134E-01 0.378E-03
CGA:  13    -0.318917522752E+03   -0.26373E-02   -0.26081E-02  8112   0.897E-02 0.416E-03
CGA:  14    -0.318918721217E+03   -0.11985E-02   -0.12003E-02  8112   0.395E-02 0.843E-04
CGA:  15    -0.318919309723E+03   -0.58851E-03   -0.58814E-03  8112   0.227E-02 0.328E-04
CGA:  16    -0.318919586719E+03   -0.27700E-03   -0.27753E-03  8112   0.802E-03 0.188E-04
CGA:  17    -0.318919705887E+03   -0.11917E-03   -0.11909E-03  8112   0.320E-03 0.963E-05
CGA:  18    -0.318919760116E+03   -0.54229E-04   -0.54098E-04  8112   0.118E-03 0.454E-05
CGA:  19    -0.318919777474E+03   -0.17358E-04   -0.17353E-04  8112   0.746E-04 0.125E-05
CGA:  20    -0.318919787258E+03   -0.97842E-05   -0.97912E-05  8112   0.322E-04 0.563E-06
  19 F= -.31891979E+03 E0= -.31891571E+03  d E =-.128900E-01  mag=    44.0000
       N       E                     dE             d eps       ncg     rms          ort
SDA:   1    -0.303904585733E+03    0.15015E+02    0.00000E+00  8112   0.377E+02 0.000E+00
CGA:   2    -0.314430602021E+03   -0.10526E+02   -0.10600E+02  8112   0.291E+02-0.596E+00
CGA:   3    -0.317236772867E+03   -0.28062E+01   -0.28404E+01  8112   0.858E+01 0.927E+00
CGA:   4    -0.318469013212E+03   -0.12322E+01   -0.12313E+01  8112   0.284E+01-0.520E-01
CGA:   5    -0.318749501455E+03   -0.28049E+00   -0.27396E+00  8112   0.963E+00 0.129E-01
CGA:   6    -0.318883566602E+03   -0.13407E+00   -0.13415E+00  8112   0.259E+00 0.791E-02
CGA:   7    -0.318927343621E+03   -0.43777E-01   -0.43794E-01  8112   0.116E+00-0.455E-03
CGA:   8    -0.318939360095E+03   -0.12016E-01   -0.12071E-01  8112   0.515E-01 0.174E-03
CGA:   9    -0.318946935159E+03   -0.75751E-02   -0.75730E-02  8112   0.177E-01 0.266E-03
CGA:  10    -0.318950117956E+03   -0.31828E-02   -0.31779E-02  8112   0.102E-01 0.104E-03
CGA:  11    -0.318951526399E+03   -0.14084E-02   -0.14090E-02  8112   0.626E-02 0.446E-04
CGA:  12    -0.318952444419E+03   -0.91802E-03   -0.91793E-03  8112   0.293E-02 0.315E-04
CGA:  13    -0.318952940636E+03   -0.49622E-03   -0.49593E-03  8112   0.151E-02 0.995E-05
CGA:  14    -0.318953162983E+03   -0.22235E-03   -0.22234E-03  8112   0.738E-03 0.589E-05
CGA:  15    -0.318953260014E+03   -0.97031E-04   -0.97102E-04  8112   0.326E-03 0.463E-05
CGA:  16    -0.318953305635E+03   -0.45621E-04   -0.45640E-04  8112   0.120E-03 0.310E-05
CGA:  17    -0.318953324032E+03   -0.18397E-04   -0.18388E-04  8112   0.553E-04 0.124E-05
CGA:  18    -0.318953331687E+03   -0.76551E-05   -0.76585E-05  8112   0.266E-04 0.416E-06
  20 F= -.31895333E+03 E0= -.31894925E+03  d E =-.335444E-01  mag=    44.0000
       N       E                     dE             d eps       ncg     rms          ort
SDA:   1    -0.301673618744E+03    0.17280E+02    0.00000E+00  8112   0.455E+02 0.000E+00
CGA:   2    -0.312219307198E+03   -0.10546E+02   -0.10915E+02  8112   0.558E+02-0.400E+01
CGA:   3    -0.316285736279E+03   -0.40664E+01   -0.39423E+01  8112   0.119E+02 0.451E+01
CGA:   4    -0.317992709257E+03   -0.17070E+01   -0.16943E+01  8112   0.713E+01-0.371E+00
CGA:   5    -0.318544162547E+03   -0.55145E+00   -0.46613E+00  8112   0.160E+01 0.949E+00
CGA:   6    -0.318761567321E+03   -0.21740E+00   -0.21861E+00  8112   0.117E+01 0.195E-01
CGA:   7    -0.318849477400E+03   -0.87910E-01   -0.93404E-01  8112   0.461E+00-0.161E-01
CGA:   8    -0.318897317606E+03   -0.47840E-01   -0.47784E-01  8112   0.241E+00-0.271E-03
CGA:   9    -0.318918567832E+03   -0.21250E-01   -0.21556E-01  8112   0.119E+00-0.470E-04
CGA:  10    -0.318931090521E+03   -0.12523E-01   -0.12570E-01  8112   0.439E-01 0.464E-03
CGA:  11    -0.318936017711E+03   -0.49272E-02   -0.49365E-02  8112   0.330E-01 0.163E-03
CGA:  12    -0.318939598141E+03   -0.35804E-02   -0.35860E-02  8112   0.117E-01 0.861E-04
CGA:  13    -0.318941350264E+03   -0.17521E-02   -0.17480E-02  8112   0.914E-02 0.146E-03
CGA:  14    -0.318942316109E+03   -0.96584E-03   -0.96727E-03  8112   0.464E-02 0.237E-04
CGA:  15    -0.318942982413E+03   -0.66630E-03   -0.66565E-03  8112   0.236E-02 0.328E-04
CGA:  16    -0.318943269785E+03   -0.28737E-03   -0.28766E-03  8112   0.129E-02 0.170E-04
CGA:  17    -0.318943445688E+03   -0.17590E-03   -0.17585E-03  8112   0.681E-03 0.741E-05
CGA:  18    -0.318943513261E+03   -0.67574E-04   -0.67762E-04  8112   0.247E-03 0.386E-05
CGA:  19    -0.318943552280E+03   -0.39019E-04   -0.38919E-04  8112   0.113E-03 0.347E-05
CGA:  20    -0.318943566886E+03   -0.14606E-04   -0.14610E-04  8112   0.598E-04 0.152E-05
CGA:  21    -0.318943574270E+03   -0.73843E-05   -0.73881E-05  8112   0.316E-04 0.455E-06
  21 F= -.31894357E+03 E0= -.31893942E+03  d E =0.975742E-02  mag=    44.0000
       N       E                     dE             d eps       ncg     rms          ort
SDA:   1    -0.315248993142E+03    0.36946E+01    0.00000E+00  8112   0.103E+02 0.000E+00
CGA:   2    -0.317566969765E+03   -0.23180E+01   -0.23124E+01  8112   0.552E+01 0.573E-01
CGA:   3    -0.318536144172E+03   -0.96917E+00   -0.97095E+00  8112   0.187E+01-0.337E-01
CGA:   4    -0.318807615835E+03   -0.27147E+00   -0.27136E+00  8112   0.496E+00 0.667E-02
CGA:   5    -0.318877450227E+03   -0.69834E-01   -0.69838E-01  8112   0.203E+00-0.580E-03
CGA:   6    -0.318899557116E+03   -0.22107E-01   -0.22161E-01  8112   0.829E-01 0.491E-03
CGA:   7    -0.318909565343E+03   -0.10008E-01   -0.10008E-01  8112   0.285E-01-0.200E-05
CGA:   8    -0.318914080982E+03   -0.45156E-02   -0.45156E-02  8112   0.109E-01 0.557E-05
CGA:   9    -0.318915769967E+03   -0.16890E-02   -0.16885E-02  8112   0.525E-02 0.181E-04
CGA:  10    -0.318916588949E+03   -0.81898E-03   -0.81893E-03  8112   0.263E-02 0.291E-05
CGA:  11    -0.318916928872E+03   -0.33992E-03   -0.33994E-03  8112   0.154E-02 0.266E-05
CGA:  12    -0.318917149895E+03   -0.22102E-03   -0.22099E-03  8112   0.644E-03 0.434E-05
CGA:  13    -0.318917257172E+03   -0.10728E-03   -0.10723E-03  8112   0.339E-03 0.178E-05
CGA:  14    -0.318917312129E+03   -0.54956E-04   -0.54930E-04  8112   0.141E-03 0.112E-05
CGA:  15    -0.318917332704E+03   -0.20576E-04   -0.20574E-04  8112   0.867E-04 0.295E-06
CGA:  16    -0.318917343047E+03   -0.10343E-04   -0.10348E-04  8112   0.314E-04 0.227E-06
CGA:  17    -0.318917347814E+03   -0.47671E-05   -0.47636E-05  8112   0.135E-04 0.297E-06
  22 F= -.31891735E+03 E0= -.31891323E+03  d E =0.262265E-01  mag=    44.0000
       N       E                     dE             d eps       ncg     rms          ort
SDA:   1    -0.315505967372E+03    0.34114E+01    0.00000E+00  8112   0.890E+01 0.000E+00
CGA:   2    -0.317854568459E+03   -0.23486E+01   -0.23504E+01  8112   0.575E+01-0.976E-02
CGA:   3    -0.318557449297E+03   -0.70288E+00   -0.70344E+00  8112   0.250E+01 0.223E-01
CGA:   4    -0.318827814099E+03   -0.27036E+00   -0.27053E+00  8112   0.727E+00 0.288E-02
CGA:   5    -0.318913525265E+03   -0.85711E-01   -0.85407E-01  8112   0.229E+00-0.215E-02
CGA:   6    -0.318944991326E+03   -0.31466E-01   -0.31478E-01  8112   0.690E-01 0.964E-03
CGA:   7    -0.318955298755E+03   -0.10307E-01   -0.10309E-01  8112   0.301E-01-0.107E-03
CGA:   8    -0.318958903459E+03   -0.36047E-02   -0.36081E-02  8112   0.126E-01 0.423E-04
CGA:   9    -0.318960578183E+03   -0.16747E-02   -0.16749E-02  8112   0.561E-02 0.820E-05
CGA:  10    -0.318961370687E+03   -0.79250E-03   -0.79252E-03  8112   0.237E-02 0.105E-04
CGA:  11    -0.318961810104E+03   -0.43942E-03   -0.43902E-03  8112   0.129E-02 0.830E-05
CGA:  12    -0.318961986834E+03   -0.17673E-03   -0.17675E-03  8112   0.769E-03 0.229E-05
CGA:  13    -0.318962101082E+03   -0.11425E-03   -0.11424E-03  8112   0.395E-03 0.110E-05
CGA:  14    -0.318962156248E+03   -0.55166E-04   -0.55175E-04  8112   0.155E-03 0.153E-05
CGA:  15    -0.318962184372E+03   -0.28124E-04   -0.28074E-04  8112   0.714E-04 0.138E-05
CGA:  16    -0.318962193032E+03   -0.86606E-05   -0.86762E-05  8112   0.332E-04 0.599E-06
  23 F= -.31896219E+03 E0= -.31895808E+03  d E =-.448452E-01  mag=    44.0000
       N       E                     dE             d eps       ncg     rms          ort
SDA:   1    -0.318833130110E+03    0.12905E+00    0.00000E+00  8112   0.325E+00 0.000E+00
CGA:   2    -0.318921162185E+03   -0.88032E-01   -0.88006E-01  8112   0.275E+00 0.183E-03
CGA:   3    -0.318946354139E+03   -0.25192E-01   -0.25254E-01  8112   0.906E-01-0.103E-03
CGA:   4    -0.318958040906E+03   -0.11687E-01   -0.11677E-01  8112   0.240E-01-0.195E-03
CGA:   5    -0.318961280783E+03   -0.32399E-02   -0.32406E-02  8112   0.689E-02 0.286E-04
CGA:   6    -0.318962267922E+03   -0.98714E-03   -0.98710E-03  8112   0.267E-02-0.653E-05
CGA:   7    -0.318962569649E+03   -0.30173E-03   -0.30170E-03  8112   0.113E-02-0.128E-05
CGA:   8    -0.318962712338E+03   -0.14269E-03   -0.14267E-03  8112   0.377E-03-0.559E-06
CGA:   9    -0.318962771804E+03   -0.59465E-04   -0.59458E-04  8112   0.161E-03 0.466E-06
CGA:  10    -0.318962795679E+03   -0.23875E-04   -0.23873E-04  8112   0.867E-04 0.524E-06
CGA:  11    -0.318962808039E+03   -0.12360E-04   -0.12360E-04  8112   0.499E-04-0.200E-08
CGA:  12    -0.318962815187E+03   -0.71486E-05   -0.71484E-05  8112   0.253E-04-0.189E-06
  24 F= -.31896282E+03 E0= -.31895868E+03  d E =-.622155E-03  mag=    44.0000
       N       E                     dE             d eps       ncg     rms          ort
SDA:   1    -0.305275830552E+03    0.13687E+02    0.00000E+00  8112   0.342E+02 0.000E+00
CGA:   2    -0.314786895395E+03   -0.95111E+01   -0.94735E+01  8112   0.240E+02 0.300E+00
CGA:   3    -0.317430606179E+03   -0.26437E+01   -0.25498E+01  8112   0.867E+01-0.140E+00
CGA:   4    -0.318450801390E+03   -0.10202E+01   -0.10174E+01  8112   0.312E+01-0.115E-01
CGA:   5    -0.318762832641E+03   -0.31203E+00   -0.30660E+00  8112   0.896E+00 0.175E-01
CGA:   6    -0.318892093967E+03   -0.12926E+00   -0.12929E+00  8112   0.268E+00 0.739E-02
CGA:   7    -0.318932804203E+03   -0.40710E-01   -0.40724E-01  8112   0.113E+00-0.134E-02
CGA:   8    -0.318946425434E+03   -0.13621E-01   -0.13687E-01  8112   0.502E-01 0.837E-03
CGA:   9    -0.318952310341E+03   -0.58849E-02   -0.58859E-02  8112   0.241E-01 0.162E-04
CGA:  10    -0.318955484184E+03   -0.31738E-02   -0.31766E-02  8112   0.107E-01 0.112E-03
CGA:  11    -0.318957230389E+03   -0.17462E-02   -0.17442E-02  8112   0.514E-02 0.704E-04
CGA:  12    -0.318958140766E+03   -0.91038E-03   -0.90867E-03  8112   0.367E-02 0.403E-04
CGA:  13    -0.318958544423E+03   -0.40366E-03   -0.40384E-03  8112   0.176E-02 0.593E-05
CGA:  14    -0.318958825180E+03   -0.28076E-03   -0.28060E-03  8112   0.790E-03 0.851E-05
CGA:  15    -0.318958943171E+03   -0.11799E-03   -0.11796E-03  8112   0.328E-03 0.569E-05
CGA:  16    -0.318958989028E+03   -0.45857E-04   -0.45881E-04  8112   0.188E-03 0.411E-05
CGA:  17    -0.318959009128E+03   -0.20100E-04   -0.20179E-04  8112   0.601E-04 0.202E-05
CGA:  18    -0.318959018988E+03   -0.98595E-05   -0.98413E-05  8112   0.298E-04 0.902E-06
  25 F= -.31895902E+03 E0= -.31895472E+03  d E =0.379620E-02  mag=    44.0000
       N       E                     dE             d eps       ncg     rms          ort
SDA:   1    -0.222617479992E+03    0.96342E+02    0.00000E+00  8112   0.695E+03 0.000E+00
CGA:   2    -0.272908883342E+03   -0.50291E+02   -0.20777E+02  8112   0.401E+03 0.978E+03
CGA:   3    -0.290501020298E+03   -0.17592E+02   -0.33244E+02  8112   0.882E+02 0.337E+02
CGA:   4    -0.301199087859E+03   -0.10698E+02   -0.61795E+01  8112   0.348E+02 0.594E+02
CGA:   5    -0.306276180161E+03   -0.50771E+01   -0.69866E+01  8112   0.233E+03-0.218E+02
CGA:   6    -0.310884730308E+03   -0.46086E+01   -0.15678E+02  8112   0.280E+02-0.193E+02
CGA:   7    -0.313276612663E+03   -0.23919E+01   -0.13277E+01  8112   0.876E+01 0.145E+02
CGA:   8    -0.314367387192E+03   -0.10908E+01   -0.12965E+01  8112   0.297E+02-0.672E+01
CGA:   9    -0.315367491240E+03   -0.10001E+01   -0.19424E+01  8112   0.538E+01-0.199E+01
CGA:  10    -0.315852159407E+03   -0.48467E+00   -0.87770E+00  8112   0.245E+02-0.690E+01
CGA:  11    -0.316456995418E+03   -0.60484E+00   -0.14606E+01  8112   0.370E+01-0.402E+01
CGA:  12    -0.316777603419E+03   -0.32061E+00   -0.23887E+00  8112   0.780E+00 0.889E+00
CGA:  13    -0.316920737973E+03   -0.14313E+00   -0.16938E+00  8112   0.565E+01-0.397E+00
CGA:  14    -0.317055479265E+03   -0.13474E+00   -0.34099E+00  8112   0.884E+00-0.644E+00
CGA:  15    -0.317140204906E+03   -0.84726E-01   -0.79522E-01  8112   0.420E+00-0.575E-01
CGA:  16    -0.317243356095E+03   -0.10315E+00   -0.10130E+00  8112   0.381E+00 0.121E-01
CGA:  17    -0.317276542495E+03   -0.33186E-01   -0.33172E-01  8112   0.640E-01-0.111E-03
CGA:  18    -0.317282929971E+03   -0.63875E-02   -0.64578E-02  8112   0.158E-01 0.856E-03
CGA:  19    -0.317286905574E+03   -0.39756E-02   -0.39755E-02  8112   0.258E-01-0.210E-05
CGA:  20    -0.317290432775E+03   -0.35272E-02   -0.35266E-02  8112   0.685E-02 0.540E-04
CGA:  21    -0.317291108082E+03   -0.67531E-03   -0.67590E-03  8112   0.220E-02 0.982E-05
CGA:  22    -0.317291561177E+03   -0.45309E-03   -0.44367E-03  8112   0.183E-02 0.111E-03
CGA:  23    -0.317291892713E+03   -0.33154E-03   -0.33118E-03  8112   0.135E-02 0.892E-05
CGA:  24    -0.317292044288E+03   -0.15158E-03   -0.15162E-03  8112   0.330E-03 0.132E-05
CGA:  25    -0.317292087990E+03   -0.43701E-04   -0.43701E-04  8112   0.178E-03-0.467E-06
CGA:  26    -0.317292124023E+03   -0.36033E-04   -0.35911E-04  8112   0.126E-03 0.138E-05
CGA:  27    -0.317292139448E+03   -0.15425E-04   -0.15426E-04  8112   0.579E-04-0.100E-07
CGA:  28    -0.317292147959E+03   -0.85108E-05   -0.85100E-05  8112   0.302E-04-0.666E-08
  26 F= -.31729215E+03 E0= -.31728811E+03  d E =0.166687E+01  mag=    44.0000
       N       E                     dE             d eps       ncg     rms          ort
SDA:   1    -0.300461729915E+03    0.16830E+02    0.00000E+00  8112   0.144E+03 0.000E+00
CGA:   2    -0.308959485977E+03   -0.84978E+01   -0.12390E+02  8112   0.303E+02 0.118E+02
CGA:   3    -0.314144226791E+03   -0.51847E+01   -0.55374E+01  8112   0.382E+02-0.890E+01
CGA:   4    -0.317243571085E+03   -0.30993E+01   -0.25859E+01  8112   0.741E+01 0.255E+01
CGA:   5    -0.317692500455E+03   -0.44893E+00   -0.53515E+00  8112   0.989E+01-0.103E+01
CGA:   6    -0.318243395136E+03   -0.55089E+00   -0.56894E+00  8112   0.520E+01-0.874E-01
CGA:   7    -0.318409979540E+03   -0.16658E+00   -0.13046E+00  8112   0.186E+01 0.121E+01
CGA:   8    -0.318506841170E+03   -0.96862E-01   -0.89831E-01  8112   0.177E+01 0.143E+00
CGA:   9    -0.318579293878E+03   -0.72453E-01   -0.71239E-01  8112   0.128E+01 0.373E-01
CGA:  10    -0.318625204921E+03   -0.45911E-01   -0.55200E-01  8112   0.120E+01-0.137E+00
CGA:  11    -0.318670065939E+03   -0.44861E-01   -0.46918E-01  8112   0.653E+00-0.304E-01
CGA:  12    -0.318691746756E+03   -0.21681E-01   -0.28461E-01  8112   0.327E+00-0.895E-01
CGA:  13    -0.318710608321E+03   -0.18862E-01   -0.19517E-01  8112   0.192E+00 0.117E-02
CGA:  14    -0.318725679068E+03   -0.15071E-01   -0.15239E-01  8112   0.135E+00 0.165E-02
CGA:  15    -0.318735282618E+03   -0.96035E-02   -0.96090E-02  8112   0.512E-01 0.135E-03
CGA:  16    -0.318740203396E+03   -0.49208E-02   -0.49266E-02  8112   0.522E-01 0.692E-03
CGA:  17    -0.318745032675E+03   -0.48293E-02   -0.48353E-02  8112   0.196E-01 0.302E-03
CGA:  18    -0.318746747206E+03   -0.17145E-02   -0.17190E-02  8112   0.137E-01 0.125E-03
CGA:  19    -0.318748025720E+03   -0.12785E-02   -0.12790E-02  8112   0.597E-02 0.287E-04
CGA:  20    -0.318748712290E+03   -0.68657E-03   -0.68565E-03  8112   0.571E-02 0.355E-04
CGA:  21    -0.318749234676E+03   -0.52239E-03   -0.52250E-03  8112   0.197E-02 0.466E-05
CGA:  22    -0.318749429305E+03   -0.19463E-03   -0.19463E-03  8112   0.134E-02 0.335E-05
CGA:  23    -0.318749579207E+03   -0.14990E-03   -0.14994E-03  8112   0.987E-03-0.438E-05
CGA:  24    -0.318749687183E+03   -0.10798E-03   -0.10802E-03  8112   0.441E-03-0.479E-05
CGA:  25    -0.318749729587E+03   -0.42405E-04   -0.42403E-04  8112   0.314E-03-0.865E-06
CGA:  26    -0.318749766821E+03   -0.37233E-04   -0.37199E-04  8112   0.165E-03 0.170E-05
CGA:  27    -0.318749786746E+03   -0.19925E-04   -0.19863E-04  8112   0.153E-03 0.322E-05
CGA:  28    -0.318749802768E+03   -0.16022E-04   -0.16020E-04  8112   0.662E-04 0.322E-05
CGA:  29    -0.318749811853E+03   -0.90846E-05   -0.90466E-05  8112   0.589E-04 0.118E-05
  27 F= -.31874981E+03 E0= -.31874561E+03  d E =-.145766E+01  mag=    44.0000
       N       E                     dE             d eps       ncg     rms          ort
SDA:   1    -0.316020958298E+03    0.27288E+01    0.00000E+00  8112   0.921E+01 0.000E+00
CGA:   2    -0.317679962309E+03   -0.16590E+01   -0.16604E+01  8112   0.530E+01-0.181E-01
CGA:   3    -0.318413762289E+03   -0.73380E+00   -0.73513E+00  8112   0.341E+01-0.319E-01
CGA:   4    -0.318763168097E+03   -0.34941E+00   -0.34954E+00  8112   0.964E+00 0.107E-01
CGA:   5    -0.318884467982E+03   -0.12130E+00   -0.12133E+00  8112   0.319E+00-0.134E-02
CGA:   6    -0.318926700604E+03   -0.42233E-01   -0.42250E-01  8112   0.102E+00-0.426E-03
CGA:   7    -0.318942039699E+03   -0.15339E-01   -0.15346E-01  8112   0.330E-01-0.138E-03
CGA:   8    -0.318946705764E+03   -0.46661E-02   -0.46610E-02  8112   0.209E-01 0.130E-03
CGA:   9    -0.318948891878E+03   -0.21861E-02   -0.21861E-02  8112   0.682E-02 0.631E-05
CGA:  10    -0.318949957707E+03   -0.10658E-02   -0.10651E-02  8112   0.355E-02 0.138E-04
CGA:  11    -0.318950512417E+03   -0.55471E-03   -0.55402E-03  8112   0.135E-02 0.141E-04
CGA:  12    -0.318950736997E+03   -0.22458E-03   -0.22428E-03  8112   0.972E-03 0.552E-05
CGA:  13    -0.318950847986E+03   -0.11099E-03   -0.11100E-03  8112   0.417E-03 0.213E-05
CGA:  14    -0.318950912185E+03   -0.64199E-04   -0.64148E-04  8112   0.223E-03 0.145E-05
CGA:  15    -0.318950948189E+03   -0.36003E-04   -0.36008E-04  8112   0.871E-04-0.119E-06
CGA:  16    -0.318950963064E+03   -0.14875E-04   -0.14899E-04  8112   0.600E-04-0.500E-06
CGA:  17    -0.318950969521E+03   -0.64567E-05   -0.64533E-05  8112   0.249E-04-0.191E-06
  28 F= -.31895097E+03 E0= -.31894672E+03  d E =-.201158E+00  mag=    44.0000
       N       E                     dE             d eps       ncg     rms          ort
SDA:   1    -0.318102892380E+03    0.84807E+00    0.00000E+00  8112   0.268E+01 0.000E+00
CGA:   2    -0.318591995317E+03   -0.48910E+00   -0.48912E+00  8112   0.187E+01 0.707E-03
CGA:   3    -0.318803348020E+03   -0.21135E+00   -0.21062E+00  8112   0.104E+01-0.154E-01
CGA:   4    -0.318931278897E+03   -0.12793E+00   -0.12797E+00  8112   0.257E+00 0.444E-02
CGA:   5    -0.318966228949E+03   -0.34950E-01   -0.34955E-01  8112   0.914E-01-0.352E-03
CGA:   6    -0.318977900186E+03   -0.11671E-01   -0.11672E-01  8112   0.301E-01 0.210E-03
CGA:   7    -0.318981854294E+03   -0.39541E-02   -0.39545E-02  8112   0.138E-01-0.773E-04
CGA:   8    -0.318983319316E+03   -0.14650E-02   -0.14658E-02  8112   0.560E-02 0.131E-04
CGA:   9    -0.318984179987E+03   -0.86067E-03   -0.86036E-03  8112   0.185E-02 0.993E-05
CGA:  10    -0.318984478838E+03   -0.29885E-03   -0.29877E-03  8112   0.108E-02 0.221E-05
CGA:  11    -0.318984627711E+03   -0.14887E-03   -0.14886E-03  8112   0.560E-03 0.134E-05
CGA:  12    -0.318984694499E+03   -0.66787E-04   -0.66802E-04  8112   0.265E-03 0.842E-06
CGA:  13    -0.318984739502E+03   -0.45004E-04   -0.44981E-04  8112   0.118E-03 0.589E-06
CGA:  14    -0.318984758160E+03   -0.18657E-04   -0.18638E-04  8112   0.701E-04 0.747E-06
CGA:  15    -0.318984767944E+03   -0.97839E-05   -0.97815E-05  8112   0.375E-04 0.500E-06
  29 F= -.31898477E+03 E0= -.31898052E+03  d E =-.337984E-01  mag=    44.0000
       N       E                     dE             d eps       ncg     rms          ort
SDA:   1    -0.318818990802E+03    0.16577E+00    0.00000E+00  8112   0.455E+00 0.000E+00
CGA:   2    -0.318929138585E+03   -0.11015E+00   -0.11020E+00  8112   0.436E+00-0.369E-03
CGA:   3    -0.318967593015E+03   -0.38454E-01   -0.38323E-01  8112   0.129E+00 0.823E-04
CGA:   4    -0.318986047582E+03   -0.18455E-01   -0.18449E-01  8112   0.448E-01 0.457E-03
CGA:   5    -0.318991039603E+03   -0.49920E-02   -0.49870E-02  8112   0.118E-01-0.723E-04
CGA:   6    -0.318992807380E+03   -0.17678E-02   -0.17677E-02  8112   0.410E-02-0.856E-06
CGA:   7    -0.318993306421E+03   -0.49904E-03   -0.49894E-03  8112   0.198E-02-0.331E-05
CGA:   8    -0.318993526863E+03   -0.22044E-03   -0.22050E-03  8112   0.713E-03 0.133E-05
CGA:   9    -0.318993634003E+03   -0.10714E-03   -0.10712E-03  8112   0.284E-03 0.142E-05
CGA:  10    -0.318993683991E+03   -0.49987E-04   -0.49973E-04  8112   0.150E-03 0.360E-06
CGA:  11    -0.318993703476E+03   -0.19485E-04   -0.19482E-04  8112   0.999E-04-0.481E-06
CGA:  12    -0.318993717515E+03   -0.14039E-04   -0.14043E-04  8112   0.421E-04-0.754E-06
CGA:  13    -0.318993724274E+03   -0.67584E-05   -0.67613E-05  8112   0.228E-04-0.106E-06
  30 F= -.31899372E+03 E0= -.31898949E+03  d E =-.895633E-02  mag=    44.0000
       N       E                     dE             d eps       ncg     rms          ort
SDA:   1    -0.317994231702E+03    0.99949E+00    0.00000E+00  8112   0.253E+01 0.000E+00
CGA:   2    -0.318725615863E+03   -0.73138E+00   -0.73054E+00  8112   0.136E+01 0.587E-02
CGA:   3    -0.318881221725E+03   -0.15561E+00   -0.15602E+00  8112   0.784E+00 0.314E-02
CGA:   4    -0.318966188882E+03   -0.84967E-01   -0.85400E-01  8112   0.173E+00 0.215E-02
CGA:   5    -0.318987408076E+03   -0.21219E-01   -0.21166E-01  8112   0.617E-01-0.847E-03
CGA:   6    -0.318996119529E+03   -0.87115E-02   -0.87113E-02  8112   0.190E-01 0.169E-03
CGA:   7    -0.318998677873E+03   -0.25583E-02   -0.25580E-02  8112   0.889E-02-0.248E-04
CGA:   8    -0.318999674334E+03   -0.99646E-03   -0.99690E-03  8112   0.381E-02 0.188E-05
CGA:   9    -0.319000204800E+03   -0.53047E-03   -0.53047E-03  8112   0.156E-02 0.369E-05
CGA:  10    -0.319000467804E+03   -0.26300E-03   -0.26288E-03  8112   0.728E-03 0.406E-05
CGA:  11    -0.319000580592E+03   -0.11279E-03   -0.11280E-03  8112   0.546E-03-0.925E-06
CGA:  12    -0.319000649407E+03   -0.68815E-04   -0.68791E-04  8112   0.235E-03-0.183E-05
CGA:  13    -0.319000685207E+03   -0.35800E-04   -0.35806E-04  8112   0.123E-03-0.420E-06
CGA:  14    -0.319000704081E+03   -0.18873E-04   -0.18849E-04  8112   0.488E-04 0.198E-05
CGA:  15    -0.319000711092E+03   -0.70115E-05   -0.70131E-05  8112   0.281E-04 0.198E-05
  31 F= -.31900071E+03 E0= -.31899650E+03  d E =-.698682E-02  mag=    44.0000
       N       E                     dE             d eps       ncg     rms          ort
SDA:   1    -0.318847607308E+03    0.15310E+00    0.00000E+00  8112   0.393E+00 0.000E+00
CGA:   2    -0.318950281569E+03   -0.10267E+00   -0.10277E+00  8112   0.233E+00-0.807E-03
CGA:   3    -0.318976363751E+03   -0.26082E-01   -0.26169E-01  8112   0.114E+00 0.564E-03
CGA:   4    -0.318989927044E+03   -0.13563E-01   -0.13581E-01  8112   0.363E-01 0.156E-03
CGA:   5    -0.318993540372E+03   -0.36133E-02   -0.35993E-02  8112   0.927E-02-0.295E-04
CGA:   6    -0.318995020413E+03   -0.14800E-02   -0.14799E-02  8112   0.327E-02 0.265E-05
CGA:   7    -0.318995447301E+03   -0.42689E-03   -0.42685E-03  8112   0.121E-02-0.250E-05
CGA:   8    -0.318995603150E+03   -0.15585E-03   -0.15585E-03  8112   0.696E-03-0.701E-06
CGA:   9    -0.318995683030E+03   -0.79879E-04   -0.79879E-04  8112   0.238E-03 0.104E-06
CGA:  10    -0.318995730238E+03   -0.47208E-04   -0.47150E-04  8112   0.116E-03 0.989E-06
CGA:  11    -0.318995748193E+03   -0.17955E-04   -0.17962E-04  8112   0.874E-04-0.569E-06
CGA:  12    -0.318995760401E+03   -0.12208E-04   -0.12205E-04  8112   0.463E-04-0.977E-06
CGA:  13    -0.318995766291E+03   -0.58901E-05   -0.58875E-05  8112   0.212E-04-0.171E-06
  32 F= -.31899577E+03 E0= -.31899155E+03  d E =0.494480E-02  mag=    44.0000
       N       E                     dE             d eps       ncg     rms          ort
SDA:   1    -0.318916152690E+03    0.79608E-01    0.00000E+00  8112   0.212E+00 0.000E+00
CGA:   2    -0.318967428401E+03   -0.51276E-01   -0.51272E-01  8112   0.884E-01 0.372E-04
CGA:   3    -0.318982794973E+03   -0.15367E-01   -0.15369E-01  8112   0.474E-01-0.629E-04
CGA:   4    -0.318987646982E+03   -0.48520E-02   -0.48611E-02  8112   0.154E-01 0.264E-05
CGA:   5    -0.318989226468E+03   -0.15795E-02   -0.15769E-02  8112   0.480E-02-0.326E-05
CGA:   6    -0.318989872334E+03   -0.64587E-03   -0.64592E-03  8112   0.163E-02 0.247E-05
CGA:   7    -0.318990111651E+03   -0.23932E-03   -0.23932E-03  8112   0.554E-03-0.116E-05
CGA:   8    -0.318990192230E+03   -0.80579E-04   -0.80579E-04  8112   0.343E-03-0.284E-06
CGA:   9    -0.318990230378E+03   -0.38148E-04   -0.38144E-04  8112   0.146E-03 0.118E-07
CGA:  10    -0.318990254353E+03   -0.23975E-04   -0.23971E-04  8112   0.747E-04 0.185E-06
CGA:  11    -0.318990266635E+03   -0.12282E-04   -0.12286E-04  8112   0.444E-04-0.157E-06
CGA:  12    -0.318990273553E+03   -0.69174E-05   -0.69187E-05  8112   0.271E-04-0.125E-06
  33 F= -.31899027E+03 E0= -.31898604E+03  d E =0.549274E-02  mag=    44.0000
       N       E                     dE             d eps       ncg     rms          ort
SDA:   1    -0.318825620993E+03    0.16465E+00    0.00000E+00  8112   0.442E+00 0.000E+00
CGA:   2    -0.318925670377E+03   -0.10005E+00   -0.10017E+00  8112   0.365E+00-0.127E-02
CGA:   3    -0.318956851156E+03   -0.31181E-01   -0.31647E-01  8112   0.134E+00-0.163E-02
CGA:   4    -0.318977303665E+03   -0.20453E-01   -0.20456E-01  8112   0.339E-01-0.264E-03
CGA:   5    -0.318981731217E+03   -0.44276E-02   -0.44283E-02  8112   0.989E-02 0.245E-04
CGA:   6    -0.318982978164E+03   -0.12469E-02   -0.12465E-02  8112   0.490E-02-0.460E-05
CGA:   7    -0.318983508728E+03   -0.53056E-03   -0.53098E-03  8112   0.161E-02 0.256E-05
CGA:   8    -0.318983720140E+03   -0.21141E-03   -0.21140E-03  8112   0.715E-03-0.746E-06
CGA:   9    -0.318983825268E+03   -0.10513E-03   -0.10513E-03  8112   0.289E-03-0.334E-06
CGA:  10    -0.318983871771E+03   -0.46503E-04   -0.46496E-04  8112   0.199E-03 0.339E-06
CGA:  11    -0.318983895198E+03   -0.23427E-04   -0.23435E-04  8112   0.101E-03 0.244E-06
CGA:  12    -0.318983912610E+03   -0.17412E-04   -0.17411E-04  8112   0.529E-04 0.253E-07
CGA:  13    -0.318983921461E+03   -0.88514E-05   -0.88504E-05  8112   0.297E-04 0.342E-07
  34 F= -.31898392E+03 E0= -.31897967E+03  d E =0.635209E-02  mag=    44.0000
       N       E                     dE             d eps       ncg     rms          ort
SDA:   1    -0.318511697673E+03    0.47221E+00    0.00000E+00  8112   0.122E+01 0.000E+00
CGA:   2    -0.318791870179E+03   -0.28017E+00   -0.28142E+00  8112   0.143E+01-0.113E-01
CGA:   3    -0.318905115580E+03   -0.11325E+00   -0.11656E+00  8112   0.360E+00-0.169E-01
CGA:   4    -0.318960462524E+03   -0.55347E-01   -0.55371E-01  8112   0.866E-01-0.124E-02
CGA:   5    -0.318972689093E+03   -0.12227E-01   -0.12228E-01  8112   0.257E-01 0.178E-03
CGA:   6    -0.318975669804E+03   -0.29807E-02   -0.29781E-02  8112   0.144E-01-0.163E-04
CGA:   7    -0.318977237323E+03   -0.15675E-02   -0.15689E-02  8112   0.370E-02 0.835E-05
CGA:   8    -0.318977819474E+03   -0.58215E-03   -0.58231E-03  8112   0.167E-02-0.705E-05
CGA:   9    -0.318978033736E+03   -0.21426E-03   -0.21430E-03  8112   0.739E-03 0.983E-06
CGA:  10    -0.318978139269E+03   -0.10553E-03   -0.10553E-03  8112   0.449E-03 0.123E-06
CGA:  11    -0.318978193451E+03   -0.54183E-04   -0.54197E-04  8112   0.214E-03 0.572E-06
CGA:  12    -0.318978231506E+03   -0.38055E-04   -0.38024E-04  8112   0.109E-03 0.833E-06
CGA:  13    -0.318978250108E+03   -0.18602E-04   -0.18597E-04  8112   0.715E-04 0.184E-06
CGA:  14    -0.318978257976E+03   -0.78675E-05   -0.78646E-05  8112   0.345E-04-0.647E-07
  35 F= -.31897826E+03 E0= -.31897399E+03  d E =0.566349E-02  mag=    44.0000
       N       E                     dE             d eps       ncg     rms          ort
SDA:   1    -0.318870303166E+03    0.10795E+00    0.00000E+00  8112   0.287E+00 0.000E+00
CGA:   2    -0.318949715248E+03   -0.79412E-01   -0.79422E-01  8112   0.147E+00-0.739E-04
CGA:   3    -0.318972590954E+03   -0.22876E-01   -0.22872E-01  8112   0.624E-01 0.434E-03
CGA:   4    -0.318978596896E+03   -0.60059E-02   -0.59706E-02  8112   0.233E-01 0.586E-04
CGA:   5    -0.318981106429E+03   -0.25095E-02   -0.25117E-02  8112   0.544E-02 0.144E-04
CGA:   6    -0.318982019143E+03   -0.91271E-03   -0.91266E-03  8112   0.177E-02 0.295E-05
CGA:   7    -0.318982253952E+03   -0.23481E-03   -0.23479E-03  8112   0.990E-03-0.119E-05
CGA:   8    -0.318982358138E+03   -0.10419E-03   -0.10412E-03  8112   0.342E-03-0.732E-06
CGA:   9    -0.318982408634E+03   -0.50496E-04   -0.50493E-04  8112   0.159E-03 0.477E-06
CGA:  10    -0.318982433208E+03   -0.24574E-04   -0.24573E-04  8112   0.766E-04 0.138E-06
CGA:  11    -0.318982444463E+03   -0.11255E-04   -0.11255E-04  8112   0.550E-04 0.134E-06
CGA:  12    -0.318982451406E+03   -0.69431E-05   -0.69455E-05  8112   0.254E-04 0.128E-06
  36 F= -.31898245E+03 E0= -.31897819E+03  d E =-.419343E-02  mag=    44.0000
       N       E                     dE             d eps       ncg     rms          ort
SDA:   1    -0.318588162680E+03    0.39428E+00    0.00000E+00  8112   0.102E+01 0.000E+00
CGA:   2    -0.318876149587E+03   -0.28799E+00   -0.28807E+00  8112   0.559E+00-0.578E-03
CGA:   3    -0.318949693691E+03   -0.73544E-01   -0.73732E-01  8112   0.262E+00 0.326E-02
CGA:   4    -0.318977472952E+03   -0.27779E-01   -0.27555E-01  8112   0.796E-01-0.265E-03
CGA:   5    -0.318985411785E+03   -0.79388E-02   -0.79620E-02  8112   0.252E-01 0.245E-04
CGA:   6    -0.318988845398E+03   -0.34336E-02   -0.34339E-02  8112   0.811E-02 0.184E-04
CGA:   7    -0.318990071570E+03   -0.12262E-02   -0.12262E-02  8112   0.269E-02-0.451E-05
CGA:   8    -0.318990440047E+03   -0.36848E-03   -0.36845E-03  8112   0.161E-02-0.174E-05
CGA:   9    -0.318990608527E+03   -0.16848E-03   -0.16862E-03  8112   0.601E-03 0.332E-06
CGA:  10    -0.318990712054E+03   -0.10353E-03   -0.10352E-03  8112   0.283E-03 0.372E-06
CGA:  11    -0.318990758024E+03   -0.45970E-04   -0.45955E-04  8112   0.182E-03 0.779E-06
CGA:  12    -0.318990785975E+03   -0.27951E-04   -0.27949E-04  8112   0.111E-03 0.282E-06
CGA:  13    -0.318990799032E+03   -0.13056E-04   -0.13061E-04  8112   0.585E-04 0.115E-06
CGA:  14    -0.318990808541E+03   -0.95093E-05   -0.95071E-05  8112   0.219E-04 0.122E-06
  37 F= -.31899081E+03 E0= -.31898657E+03  d E =-.835714E-02  mag=    44.0000
       N       E                     dE             d eps       ncg     rms          ort
SDA:   1    -0.316506417034E+03    0.24844E+01    0.00000E+00  8112   0.631E+01 0.000E+00
CGA:   2    -0.318185487750E+03   -0.16791E+01   -0.16852E+01  8112   0.532E+01-0.368E-01
CGA:   3    -0.318656992205E+03   -0.47150E+00   -0.48525E+00  8112   0.202E+01 0.126E-01
CGA:   4    -0.318903616861E+03   -0.24662E+00   -0.24469E+00  8112   0.548E+00-0.155E-01
CGA:   5    -0.318968272446E+03   -0.64656E-01   -0.64736E-01  8112   0.166E+00 0.101E-02
CGA:   6    -0.318990170679E+03   -0.21898E-01   -0.21898E-01  8112   0.656E-01 0.109E-04
CGA:   7    -0.318997825801E+03   -0.76551E-02   -0.76706E-02  8112   0.293E-01 0.149E-03
CGA:   8    -0.319001080863E+03   -0.32551E-02   -0.32489E-02  8112   0.103E-01-0.380E-04
CGA:   9    -0.319002648628E+03   -0.15678E-02   -0.15675E-02  8112   0.388E-02 0.174E-04
CGA:  10    -0.319003250314E+03   -0.60169E-03   -0.60171E-03  8112   0.273E-02 0.327E-06
CGA:  11    -0.319003550033E+03   -0.29972E-03   -0.30019E-03  8112   0.113E-02 0.509E-05
CGA:  12    -0.319003764151E+03   -0.21412E-03   -0.21396E-03  8112   0.667E-03 0.318E-05
CGA:  13    -0.319003858842E+03   -0.94691E-04   -0.94696E-04  8112   0.386E-03 0.144E-05
CGA:  14    -0.319003912751E+03   -0.53909E-04   -0.53913E-04  8112   0.218E-03 0.946E-06
CGA:  15    -0.319003939958E+03   -0.27208E-04   -0.27230E-04  8112   0.864E-04 0.956E-06
CGA:  16    -0.319003953427E+03   -0.13469E-04   -0.13460E-04  8112   0.382E-04 0.693E-06
CGA:  17    -0.319003958514E+03   -0.50870E-05   -0.50919E-05  8112   0.198E-04 0.409E-06
  38 F= -.31900396E+03 E0= -.31899976E+03  d E =-.131500E-01  mag=    44.0000
       N       E                     dE             d eps       ncg     rms          ort
SDA:   1    -0.290565235397E+03    0.28439E+02    0.00000E+00  8112   0.742E+02 0.000E+00
CGA:   2    -0.307833284800E+03   -0.17268E+02   -0.17068E+02  8112   0.750E+02 0.695E+00
CGA:   3    -0.314499248460E+03   -0.66660E+01   -0.63294E+01  8112   0.236E+02-0.394E+01
CGA:   4    -0.317682035642E+03   -0.31828E+01   -0.31683E+01  8112   0.127E+02-0.503E+01
CGA:   5    -0.318275205081E+03   -0.59317E+00   -0.70782E+00  8112   0.537E+01-0.120E+01
CGA:   6    -0.318616048685E+03   -0.34084E+00   -0.29959E+00  8112   0.195E+01 0.249E+00
CGA:   7    -0.318808916949E+03   -0.19287E+00   -0.20134E+00  8112   0.119E+01 0.286E-01
CGA:   8    -0.318884970652E+03   -0.76054E-01   -0.75181E-01  8112   0.583E+00-0.303E-02
CGA:   9    -0.318944695648E+03   -0.59725E-01   -0.61441E-01  8112   0.238E+00 0.195E-01
CGA:  10    -0.318967320311E+03   -0.22625E-01   -0.22783E-01  8112   0.165E+00 0.483E-03
CGA:  11    -0.318981462072E+03   -0.14142E-01   -0.15056E-01  8112   0.581E-01 0.386E-02
CGA:  12    -0.318989240543E+03   -0.77785E-02   -0.77682E-02  8112   0.407E-01 0.104E-02
CGA:  13    -0.318994097761E+03   -0.48572E-02   -0.48808E-02  8112   0.190E-01 0.137E-02
CGA:  14    -0.318996206816E+03   -0.21091E-02   -0.21147E-02  8112   0.123E-01 0.122E-03
CGA:  15    -0.318998276010E+03   -0.20692E-02   -0.20424E-02  8112   0.421E-02 0.490E-03
CGA:  16    -0.318998870147E+03   -0.59414E-03   -0.59345E-03  8112   0.362E-02 0.454E-04
CGA:  17    -0.318999314589E+03   -0.44444E-03   -0.44484E-03  8112   0.123E-02 0.403E-04
CGA:  18    -0.318999494708E+03   -0.18012E-03   -0.17992E-03  8112   0.601E-03 0.968E-05
CGA:  19    -0.318999575539E+03   -0.80831E-04   -0.80779E-04  8112   0.318E-03 0.729E-05
CGA:  20    -0.318999615967E+03   -0.40427E-04   -0.40435E-04  8112   0.156E-03 0.347E-05
CGA:  21    -0.318999637772E+03   -0.21805E-04   -0.21786E-04  8112   0.824E-04 0.160E-05
CGA:  22    -0.318999651699E+03   -0.13927E-04   -0.13911E-04  8112   0.462E-04 0.364E-06
CGA:  23    -0.318999658460E+03   -0.67616E-05   -0.67621E-05  8112   0.392E-04-0.511E-07
  39 F= -.31899966E+03 E0= -.31899564E+03  d E =0.430005E-02  mag=    44.0000
       N       E                     dE             d eps       ncg     rms          ort
SDA:   1    -0.314751633046E+03    0.42480E+01    0.00000E+00  8112   0.113E+02 0.000E+00
CGA:   2    -0.317544026620E+03   -0.27924E+01   -0.27837E+01  8112   0.700E+01 0.606E-01
CGA:   3    -0.318538855747E+03   -0.99483E+00   -0.99681E+00  8112   0.342E+01-0.241E+00
CGA:   4    -0.318843890639E+03   -0.30503E+00   -0.31335E+00  8112   0.109E+01 0.134E-01
CGA:   5    -0.318964654390E+03   -0.12076E+00   -0.12000E+00  8112   0.316E+00-0.621E-02
CGA:   6    -0.319007769104E+03   -0.43115E-01   -0.43115E-01  8112   0.109E+00-0.675E-04
CGA:   7    -0.319023091283E+03   -0.15322E-01   -0.15322E-01  8112   0.396E-01 0.785E-05
CGA:   8    -0.319028088884E+03   -0.49976E-02   -0.50014E-02  8112   0.234E-01 0.207E-03
CGA:   9    -0.319030535815E+03   -0.24469E-02   -0.24425E-02  8112   0.721E-02-0.240E-04
CGA:  10    -0.319031898757E+03   -0.13629E-02   -0.13614E-02  8112   0.326E-02 0.231E-04
CGA:  11    -0.319032397562E+03   -0.49881E-03   -0.49879E-03  8112   0.226E-02 0.241E-05
CGA:  12    -0.319032671603E+03   -0.27404E-03   -0.27426E-03  8112   0.117E-02 0.773E-05
CGA:  13    -0.319032842361E+03   -0.17076E-03   -0.17072E-03  8112   0.562E-03 0.372E-05
CGA:  14    -0.319032934170E+03   -0.91809E-04   -0.91732E-04  8112   0.271E-03 0.273E-05
CGA:  15    -0.319032973259E+03   -0.39089E-04   -0.39079E-04  8112   0.153E-03 0.162E-05
CGA:  16    -0.319032990364E+03   -0.17105E-04   -0.17130E-04  8112   0.660E-04 0.821E-06
CGA:  17    -0.319032999926E+03   -0.95620E-05   -0.95581E-05  8112   0.239E-04 0.530E-06
  40 F= -.31903300E+03 E0= -.31902891E+03  d E =-.333415E-01  mag=    44.0000
       N       E                     dE             d eps       ncg     rms          ort
SDA:   1    -0.318214342109E+03    0.81865E+00    0.00000E+00  8112   0.215E+01 0.000E+00
CGA:   2    -0.318751626686E+03   -0.53728E+00   -0.53571E+00  8112   0.143E+01 0.135E-01
CGA:   3    -0.318903249746E+03   -0.15162E+00   -0.14735E+00  8112   0.775E+00-0.139E-01
CGA:   4    -0.318989659254E+03   -0.86410E-01   -0.86774E-01  8112   0.171E+00 0.326E-02
CGA:   5    -0.319012921043E+03   -0.23262E-01   -0.23262E-01  8112   0.508E-01 0.393E-04
CGA:   6    -0.319020179616E+03   -0.72586E-02   -0.72585E-02  8112   0.187E-01 0.617E-05
CGA:   7    -0.319022571879E+03   -0.23923E-02   -0.23915E-02  8112   0.881E-02-0.237E-04
CGA:   8    -0.319023487727E+03   -0.91585E-03   -0.91749E-03  8112   0.380E-02 0.823E-05
CGA:   9    -0.319023998192E+03   -0.51046E-03   -0.51046E-03  8112   0.138E-02-0.255E-06
CGA:  10    -0.319024248851E+03   -0.25066E-03   -0.25056E-03  8112   0.665E-03 0.207E-05
CGA:  11    -0.319024351881E+03   -0.10303E-03   -0.10303E-03  8112   0.499E-03 0.384E-06
CGA:  12    -0.319024408484E+03   -0.56603E-04   -0.56636E-04  8112   0.234E-03 0.527E-06
CGA:  13    -0.319024446912E+03   -0.38429E-04   -0.38419E-04  8112   0.117E-03 0.393E-06
CGA:  14    -0.319024465284E+03   -0.18371E-04   -0.18360E-04  8112   0.557E-04 0.714E-06
CGA:  15    -0.319024473342E+03   -0.80578E-05   -0.80558E-05  8112   0.325E-04 0.880E-06
  41 F= -.31902447E+03 E0= -.31902031E+03  d E =0.852658E-02  mag=    44.0000
       N       E                     dE             d eps       ncg     rms          ort
SDA:   1    -0.318230300474E+03    0.79416E+00    0.00000E+00  8112   0.198E+01 0.000E+00
CGA:   2    -0.318789371509E+03   -0.55907E+00   -0.56004E+00  8112   0.153E+01-0.615E-02
CGA:   3    -0.318928321720E+03   -0.13895E+00   -0.14397E+00  8112   0.663E+00-0.595E-02
CGA:   4    -0.319003023543E+03   -0.74702E-01   -0.74087E-01  8112   0.147E+00-0.353E-02
CGA:   5    -0.319022796046E+03   -0.19773E-01   -0.19778E-01  8112   0.459E-01 0.352E-03
CGA:   6    -0.319028655491E+03   -0.58594E-02   -0.58555E-02  8112   0.217E-01-0.927E-04
CGA:   7    -0.319030975827E+03   -0.23203E-02   -0.23251E-02  8112   0.790E-02 0.251E-04
CGA:   8    -0.319031950150E+03   -0.97432E-03   -0.97388E-03  8112   0.312E-02-0.113E-04
CGA:   9    -0.319032392414E+03   -0.44226E-03   -0.44225E-03  8112   0.117E-02 0.223E-05
CGA:  10    -0.319032567288E+03   -0.17487E-03   -0.17489E-03  8112   0.830E-03-0.378E-06
CGA:  11    -0.319032658554E+03   -0.91266E-04   -0.91348E-04  8112   0.329E-03 0.137E-05
CGA:  12    -0.319032722129E+03   -0.63575E-04   -0.63527E-04  8112   0.183E-03 0.890E-06
CGA:  13    -0.319032748665E+03   -0.26536E-04   -0.26535E-04  8112   0.125E-03 0.382E-06
CGA:  14    -0.319032764021E+03   -0.15356E-04   -0.15357E-04  8112   0.567E-04 0.124E-06
CGA:  15    -0.319032772361E+03   -0.83403E-05   -0.83394E-05  8112   0.251E-04 0.128E-06
  42 F= -.31903277E+03 E0= -.31902865E+03  d E =-.829902E-02  mag=    44.0000
       N       E                     dE             d eps       ncg     rms          ort
SDA:   1    -0.318897909970E+03    0.13485E+00    0.00000E+00  8112   0.358E+00 0.000E+00
CGA:   2    -0.318972302448E+03   -0.74392E-01   -0.74825E-01  8112   0.499E+00-0.503E-02
CGA:   3    -0.319013629970E+03   -0.41328E-01   -0.42227E-01  8112   0.104E+00-0.296E-02
CGA:   4    -0.319028919285E+03   -0.15289E-01   -0.15290E-01  8112   0.307E-01-0.665E-04
CGA:   5    -0.319032708574E+03   -0.37893E-02   -0.37892E-02  8112   0.907E-02-0.143E-05
CGA:   6    -0.319034050662E+03   -0.13421E-02   -0.13420E-02  8112   0.258E-02 0.539E-05
CGA:   7    -0.319034471434E+03   -0.42077E-03   -0.42084E-03  8112   0.115E-02-0.278E-05
CGA:   8    -0.319034584755E+03   -0.11332E-03   -0.11324E-03  8112   0.565E-03-0.148E-06
CGA:   9    -0.319034656190E+03   -0.71435E-04   -0.71453E-04  8112   0.189E-03 0.971E-06
CGA:  10    -0.319034688125E+03   -0.31935E-04   -0.31928E-04  8112   0.873E-04 0.255E-06
CGA:  11    -0.319034702879E+03   -0.14754E-04   -0.14747E-04  8112   0.521E-04 0.249E-06
CGA:  12    -0.319034709911E+03   -0.70317E-05   -0.70317E-05  8112   0.347E-04-0.183E-07
  43 F= -.31903471E+03 E0= -.31903057E+03  d E =-.193755E-02  mag=    44.0000
       N       E                     dE             d eps       ncg     rms          ort
SDA:   1    -0.292976105338E+03    0.26059E+02    0.00000E+00  8112   0.653E+02 0.000E+00
CGA:   2    -0.310704026769E+03   -0.17728E+02   -0.17206E+02  8112   0.464E+02 0.332E+01
CGA:   3    -0.315573396184E+03   -0.48694E+01   -0.44637E+01  8112   0.195E+02-0.107E+01
CGA:   4    -0.318091150632E+03   -0.25178E+01   -0.23807E+01  8112   0.578E+01-0.183E+01
CGA:   5    -0.318670220274E+03   -0.57907E+00   -0.58922E+00  8112   0.239E+01 0.647E-01
CGA:   6    -0.318846669599E+03   -0.17645E+00   -0.16218E+00  8112   0.115E+01 0.745E-01
CGA:   7    -0.318967011742E+03   -0.12034E+00   -0.12365E+00  8112   0.477E+00 0.211E-01
CGA:   8    -0.319013900593E+03   -0.46889E-01   -0.46738E-01  8112   0.215E+00-0.148E-02
CGA:   9    -0.319035393098E+03   -0.21493E-01   -0.22231E-01  8112   0.130E+00 0.559E-02
CGA:  10    -0.319046849534E+03   -0.11456E-01   -0.11466E-01  8112   0.441E-01-0.383E-04
CGA:  11    -0.319054007934E+03   -0.71584E-02   -0.70533E-02  8112   0.283E-01 0.238E-02
CGA:  12    -0.319056797840E+03   -0.27899E-02   -0.28061E-02  8112   0.162E-01 0.628E-04
CGA:  13    -0.319059253242E+03   -0.24554E-02   -0.24398E-02  8112   0.846E-02 0.499E-03
CGA:  14    -0.319060435160E+03   -0.11819E-02   -0.11814E-02  8112   0.523E-02 0.646E-04
CGA:  15    -0.319061065210E+03   -0.63005E-03   -0.63187E-03  8112   0.291E-02 0.718E-04
CGA:  16    -0.319061416520E+03   -0.35131E-03   -0.35154E-03  8112   0.113E-02 0.125E-04
CGA:  17    -0.319061588237E+03   -0.17172E-03   -0.17133E-03  8112   0.582E-03 0.151E-04
CGA:  18    -0.319061649465E+03   -0.61228E-04   -0.61384E-04  8112   0.259E-03 0.462E-05
CGA:  19    -0.319061682830E+03   -0.33365E-04   -0.33371E-04  8112   0.111E-03 0.277E-05
CGA:  20    -0.319061700104E+03   -0.17274E-04   -0.17245E-04  8112   0.620E-04 0.116E-05
[...]
CGA:   5    -0.318198817025E+03   -0.10201E+01   -0.10196E+01  8112   0.206E+01 0.806E-01
CGA:   6    -0.318496310280E+03   -0.29749E+00   -0.29802E+00  8112   0.125E+01-0.297E-01
CGA:   7    -0.318571484544E+03   -0.75174E-01   -0.79604E-01  8112   0.730E+00-0.461E-01
CGA:   8    -0.318637214769E+03   -0.65730E-01   -0.67043E-01  8112   0.207E+00 0.666E-02
CGA:   9    -0.318665607450E+03   -0.28393E-01   -0.28377E-01  8112   0.104E+00 0.112E-02
CGA:  10    -0.318679268529E+03   -0.13661E-01   -0.13657E-01  8112   0.587E-01 0.111E-02
CGA:  11    -0.318684253399E+03   -0.49849E-02   -0.51241E-02  8112   0.357E-01 0.158E-03
CGA:  12    -0.318689161391E+03   -0.49080E-02   -0.48988E-02  8112   0.134E-01 0.526E-03
CGA:  13    -0.318691431442E+03   -0.22701E-02   -0.22646E-02  8112   0.765E-02 0.107E-03
CGA:  14    -0.318692689811E+03   -0.12584E-02   -0.12546E-02  8112   0.366E-02 0.850E-04
CGA:  15    -0.318693162947E+03   -0.47314E-03   -0.47323E-03  8112   0.219E-02 0.187E-04
CGA:  16    -0.318693401084E+03   -0.23814E-03   -0.23890E-03  8112   0.110E-02 0.136E-04
CGA:  17    -0.318693546138E+03   -0.14505E-03   -0.14505E-03  8112   0.293E-03 0.592E-05
CGA:  18    -0.318693601841E+03   -0.55703E-04   -0.55508E-04  8112   0.134E-03 0.328E-05
CGA:  19    -0.318693624497E+03   -0.22656E-04   -0.22611E-04  8112   0.637E-04 0.131E-05
CGA:  20    -0.318693632496E+03   -0.79984E-05   -0.80027E-05  8112   0.488E-04 0.342E-06
  62 F= -.31869363E+03 E0= -.31868951E+03  d E =0.376497E+00  mag=    44.0000
       N       E                     dE             d eps       ncg     rms          ort
SDA:   1    -0.297598271967E+03    0.21095E+02    0.00000E+00  8112   0.748E+02 0.000E+00
CGA:   2    -0.308294304934E+03   -0.10696E+02   -0.10632E+02  8112   0.445E+02 0.402E+01
CGA:   3    -0.313637166840E+03   -0.53429E+01   -0.49496E+01  8112   0.306E+02-0.488E+01
CGA:   4    -0.317170891613E+03   -0.35337E+01   -0.34434E+01  8112   0.128E+02-0.655E+01
CGA:   5    -0.318030272221E+03   -0.85938E+00   -0.84745E+00  8112   0.604E+01-0.208E+00
CGA:   6    -0.318389145166E+03   -0.35887E+00   -0.37291E+00  8112   0.462E+01-0.306E+00
CGA:   7    -0.318634991313E+03   -0.24585E+00   -0.26554E+00  8112   0.162E+01-0.228E+00
CGA:   8    -0.318758060897E+03   -0.12307E+00   -0.12490E+00  8112   0.127E+01-0.144E-01
CGA:   9    -0.318829176965E+03   -0.71116E-01   -0.81812E-01  8112   0.532E+00-0.674E-01
CGA:  10    -0.318866125484E+03   -0.36949E-01   -0.38484E-01  8112   0.279E+00-0.175E-02
CGA:  11    -0.318893439023E+03   -0.27314E-01   -0.28108E-01  8112   0.133E+00 0.193E-01
CGA:  12    -0.318905630269E+03   -0.12191E-01   -0.12370E-01  8112   0.828E-01 0.124E-02
CGA:  13    -0.318914276182E+03   -0.86459E-02   -0.87177E-02  8112   0.298E-01 0.311E-02
CGA:  14    -0.318918194878E+03   -0.39187E-02   -0.39061E-02  8112   0.209E-01 0.599E-03
CGA:  15    -0.318920276649E+03   -0.20818E-02   -0.20934E-02  8112   0.910E-02 0.257E-03
CGA:  16    -0.318921445803E+03   -0.11692E-02   -0.11679E-02  8112   0.588E-02 0.586E-04
CGA:  17    -0.318922116841E+03   -0.67104E-03   -0.67114E-03  8112   0.243E-02 0.724E-04
CGA:  18    -0.318922457663E+03   -0.34082E-03   -0.34026E-03  8112   0.196E-02 0.159E-04
CGA:  19    -0.318922661679E+03   -0.20402E-03   -0.20426E-03  8112   0.747E-03 0.820E-05
CGA:  20    -0.318922771163E+03   -0.10948E-03   -0.10945E-03  8112   0.456E-03 0.821E-06
CGA:  21    -0.318922822499E+03   -0.51335E-04   -0.51351E-04  8112   0.246E-03 0.248E-05
CGA:  22    -0.318922851195E+03   -0.28696E-04   -0.28696E-04  8112   0.120E-03 0.168E-05
CGA:  23    -0.318922868603E+03   -0.17408E-04   -0.17360E-04  8112   0.727E-04 0.159E-05
CGA:  24    -0.318922877356E+03   -0.87522E-05   -0.87508E-05  8112   0.424E-04 0.908E-06
  63 F= -.31892288E+03 E0= -.31891843E+03  d E =-.229245E+00  mag=    44.0000
       N       E                     dE             d eps       ncg     rms          ort
SDA:   1    -0.316482846621E+03    0.24400E+01    0.00000E+00  8112   0.790E+01 0.000E+00
CGA:   2    -0.317934107935E+03   -0.14513E+01   -0.14469E+01  8112   0.468E+01 0.618E-01
CGA:   3    -0.318480267733E+03   -0.54616E+00   -0.54409E+00  8112   0.397E+01-0.167E+00
CGA:   4    -0.318852780616E+03   -0.37251E+00   -0.37276E+00  8112   0.822E+00-0.952E-03
CGA:   5    -0.318977710921E+03   -0.12493E+00   -0.12489E+00  8112   0.219E+00 0.104E-02
CGA:   6    -0.319013155263E+03   -0.35444E-01   -0.35439E-01  8112   0.854E-01 0.101E-03
CGA:   7    -0.319022192571E+03   -0.90373E-02   -0.90506E-02  8112   0.456E-01 0.259E-03
CGA:   8    -0.319026488982E+03   -0.42964E-02   -0.42922E-02  8112   0.196E-01-0.227E-04
CGA:   9    -0.319029012644E+03   -0.25237E-02   -0.25230E-02  8112   0.662E-02 0.588E-04
CGA:  10    -0.319030066701E+03   -0.10541E-02   -0.10540E-02  8112   0.308E-02 0.202E-05
CGA:  11    -0.319030596221E+03   -0.52952E-03   -0.52910E-03  8112   0.132E-02 0.755E-05
CGA:  12    -0.319030779935E+03   -0.18371E-03   -0.18369E-03  8112   0.112E-02 0.131E-05
CGA:  13    -0.319030887601E+03   -0.10767E-03   -0.10777E-03  8112   0.439E-03 0.140E-05
CGA:  14    -0.319030951821E+03   -0.64220E-04   -0.64189E-04  8112   0.224E-03 0.136E-05
CGA:  15    -0.319030989489E+03   -0.37668E-04   -0.37629E-04  8112   0.998E-04 0.921E-06
CGA:  16    -0.319031004904E+03   -0.15415E-04   -0.15413E-04  8112   0.540E-04 0.865E-07
CGA:  17    -0.319031011189E+03   -0.62852E-05   -0.62886E-05  8112   0.386E-04 0.235E-06
  64 F= -.31903101E+03 E0= -.31902660E+03  d E =-.108134E+00  mag=    44.0000
       N       E                     dE             d eps       ncg     rms          ort
SDA:   1    -0.318961506592E+03    0.69498E-01    0.00000E+00  8112   0.231E+00 0.000E+00
CGA:   2    -0.319009377959E+03   -0.47871E-01   -0.47895E-01  8112   0.154E+00-0.249E-03
CGA:   3    -0.319024901541E+03   -0.15524E-01   -0.15614E-01  8112   0.104E+00 0.596E-03
CGA:   4    -0.319036077991E+03   -0.11176E-01   -0.11164E-01  8112   0.226E-01-0.183E-03
CGA:   5    -0.319039304223E+03   -0.32262E-02   -0.32261E-02  8112   0.840E-02 0.342E-05
CGA:   6    -0.319040187403E+03   -0.88318E-03   -0.88275E-03  8112   0.386E-02-0.737E-05
CGA:   7    -0.319040585711E+03   -0.39831E-03   -0.39847E-03  8112   0.156E-02-0.403E-07
CGA:   8    -0.319040758407E+03   -0.17270E-03   -0.17265E-03  8112   0.570E-03-0.161E-05
CGA:   9    -0.319040848471E+03   -0.90064E-04   -0.90038E-04  8112   0.261E-03 0.731E-06
CGA:  10    -0.319040874103E+03   -0.25632E-04   -0.25645E-04  8112   0.151E-03 0.633E-06
CGA:  11    -0.319040895102E+03   -0.20999E-04   -0.20987E-04  8112   0.649E-04 0.966E-06
CGA:  12    -0.319040904251E+03   -0.91488E-05   -0.91486E-05  8112   0.362E-04 0.160E-07
  65 F= -.31904090E+03 E0= -.31903650E+03  d E =-.989306E-02  mag=    44.0000
       N       E                     dE             d eps       ncg     rms          ort
SDA:   1    -0.318629063514E+03    0.41183E+00    0.00000E+00  8112   0.121E+01 0.000E+00
CGA:   2    -0.318903181747E+03   -0.27412E+00   -0.27429E+00  8112   0.677E+00-0.158E-02
CGA:   3    -0.318989201914E+03   -0.86020E-01   -0.86131E-01  8112   0.462E+00 0.970E-02
CGA:   4    -0.319030319613E+03   -0.41118E-01   -0.40608E-01  8112   0.138E+00-0.781E-04
CGA:   5    -0.319047385482E+03   -0.17066E-01   -0.17066E-01  8112   0.340E-01 0.495E-06
CGA:   6    -0.319052409065E+03   -0.50236E-02   -0.50239E-02  8112   0.164E-01-0.109E-04
CGA:   7    -0.319053779315E+03   -0.13702E-02   -0.13750E-02  8112   0.701E-02-0.931E-05
CGA:   8    -0.319054741298E+03   -0.96198E-03   -0.96218E-03  8112   0.205E-02-0.142E-04
CGA:   9    -0.319055067848E+03   -0.32655E-03   -0.32633E-03  8112   0.144E-02 0.584E-05
CGA:  10    -0.319055199122E+03   -0.13127E-03   -0.13123E-03  8112   0.621E-03 0.156E-05
CGA:  11    -0.319055298237E+03   -0.99115E-04   -0.99071E-04  8112   0.300E-03 0.146E-05
CGA:  12    -0.319055341932E+03   -0.43695E-04   -0.43695E-04  8112   0.214E-03 0.410E-07
CGA:  13    -0.319055364561E+03   -0.22629E-04   -0.22629E-04  8112   0.109E-03-0.118E-06
CGA:  14    -0.319055380880E+03   -0.16319E-04   -0.16321E-04  8112   0.531E-04-0.102E-06
CGA:  15    -0.319055387578E+03   -0.66980E-05   -0.67013E-05  8112   0.301E-04 0.763E-06
  66 F= -.31905539E+03 E0= -.31905099E+03  d E =-.144833E-01  mag=    44.0000
       N       E                     dE             d eps       ncg     rms          ort
SDA:   1    -0.318885652435E+03    0.16973E+00    0.00000E+00  8112   0.605E+00 0.000E+00
CGA:   2    -0.318976823673E+03   -0.91171E-01   -0.91410E-01  8112   0.669E+00-0.695E-02
CGA:   3    -0.319029699149E+03   -0.52875E-01   -0.53568E-01  8112   0.154E+00-0.263E-02
CGA:   4    -0.319055897123E+03   -0.26198E-01   -0.26182E-01  8112   0.655E-01 0.284E-03
CGA:   5    -0.319064288121E+03   -0.83910E-02   -0.83907E-02  8112   0.120E-01-0.575E-04
CGA:   6    -0.319066419089E+03   -0.21310E-02   -0.21314E-02  8112   0.510E-02-0.835E-05
CGA:   7    -0.319066962606E+03   -0.54352E-03   -0.54368E-03  8112   0.229E-02 0.966E-07
CGA:   8    -0.319067201056E+03   -0.23845E-03   -0.23830E-03  8112   0.128E-02-0.191E-05
CGA:   9    -0.319067348483E+03   -0.14743E-03   -0.14744E-03  8112   0.445E-03 0.436E-06
CGA:  10    -0.319067437274E+03   -0.88790E-04   -0.88693E-04  8112   0.232E-03 0.136E-05
CGA:  11    -0.319067474336E+03   -0.37063E-04   -0.37060E-04  8112   0.173E-03 0.107E-06
CGA:  12    -0.319067494281E+03   -0.19945E-04   -0.19943E-04  8112   0.121E-03-0.491E-08
CGA:  13    -0.319067508794E+03   -0.14513E-04   -0.14518E-04  8112   0.464E-04 0.374E-06
CGA:  14    -0.319067515762E+03   -0.69679E-05   -0.69616E-05  8112   0.244E-04 0.371E-06
  67 F= -.31906752E+03 E0= -.31906315E+03  d E =-.121282E-01  mag=    44.0000
       N       E                     dE             d eps       ncg     rms          ort
SDA:   1    -0.318143903646E+03    0.92361E+00    0.00000E+00  8112   0.305E+01 0.000E+00
CGA:   2    -0.318774992768E+03   -0.63109E+00   -0.63235E+00  8112   0.157E+01-0.150E-01
CGA:   3    -0.318933256142E+03   -0.15826E+00   -0.16205E+00  8112   0.937E+00 0.166E-01
CGA:   4    -0.319035951467E+03   -0.10270E+00   -0.10182E+00  8112   0.368E+00-0.692E-02
CGA:   5    -0.319078547421E+03   -0.42596E-01   -0.42597E-01  8112   0.730E-01 0.583E-04
CGA:   6    -0.319089309561E+03   -0.10762E-01   -0.10766E-01  8112   0.465E-01-0.154E-03
CGA:   7    -0.319093319306E+03   -0.40097E-02   -0.40295E-02  8112   0.136E-01-0.287E-04
CGA:   8    -0.319094994316E+03   -0.16750E-02   -0.16743E-02  8112   0.740E-02-0.329E-04
CGA:   9    -0.319095980079E+03   -0.98576E-03   -0.98572E-03  8112   0.273E-02 0.168E-04
CGA:  10    -0.319096426856E+03   -0.44678E-03   -0.44685E-03  8112   0.260E-02-0.739E-06
CGA:  11    -0.319096678004E+03   -0.25115E-03   -0.25148E-03  8112   0.975E-03 0.260E-05
CGA:  12    -0.319096867303E+03   -0.18930E-03   -0.18925E-03  8112   0.607E-03 0.896E-06
CGA:  13    -0.319096952504E+03   -0.85201E-04   -0.85189E-04  8112   0.432E-03 0.194E-05
CGA:  14    -0.319096995129E+03   -0.42625E-04   -0.42632E-04  8112   0.165E-03 0.473E-06
CGA:  15    -0.319097023594E+03   -0.28465E-04   -0.28468E-04  8112   0.898E-04-0.106E-06
CGA:  16    -0.319097033759E+03   -0.10165E-04   -0.10162E-04  8112   0.400E-04-0.105E-06
CGA:  17    -0.319097038469E+03   -0.47096E-05   -0.47115E-05  8112   0.232E-04 0.937E-07
  68 F= -.31909704E+03 E0= -.31909274E+03  d E =-.295227E-01  mag=    44.0000
       N       E                     dE             d eps       ncg     rms          ort
SDA:   1    -0.318804746765E+03    0.29229E+00    0.00000E+00  8112   0.950E+00 0.000E+00
CGA:   2    -0.318974520634E+03   -0.16977E+00   -0.17026E+00  8112   0.859E+00-0.775E-02
CGA:   3    -0.319041338840E+03   -0.66818E-01   -0.68949E-01  8112   0.307E+00-0.818E-02
CGA:   4    -0.319085101128E+03   -0.43762E-01   -0.43785E-01  8112   0.122E+00-0.115E-02
CGA:   5    -0.319099508513E+03   -0.14407E-01   -0.14412E-01  8112   0.315E-01 0.135E-03
CGA:   6    -0.319103720582E+03   -0.42121E-02   -0.42121E-02  8112   0.147E-01-0.332E-04
CGA:   7    -0.319105044382E+03   -0.13238E-02   -0.13280E-02  8112   0.634E-02 0.158E-05
CGA:   8    -0.319105815181E+03   -0.77080E-03   -0.77072E-03  8112   0.214E-02-0.451E-05
CGA:   9    -0.319106151897E+03   -0.33672E-03   -0.33662E-03  8112   0.970E-03 0.267E-05
CGA:  10    -0.319106278182E+03   -0.12628E-03   -0.12628E-03  8112   0.710E-03 0.534E-06
CGA:  11    -0.319106357332E+03   -0.79150E-04   -0.79195E-04  8112   0.317E-03 0.156E-05
CGA:  12    -0.319106401843E+03   -0.44512E-04   -0.44505E-04  8112   0.180E-03 0.676E-06
CGA:  13    -0.319106431995E+03   -0.30151E-04   -0.30133E-04  8112   0.917E-04 0.512E-06
CGA:  14    -0.319106443091E+03   -0.11096E-04   -0.11097E-04  8112   0.703E-04 0.679E-07
CGA:  15    -0.319106451589E+03   -0.84979E-05   -0.84986E-05  8112   0.250E-04 0.408E-07
  69 F= -.31910645E+03 E0= -.31910216E+03  d E =-.941312E-02  mag=    44.0000
       N       E                     dE             d eps       ncg     rms          ort
SDA:   1    -0.318991644353E+03    0.11480E+00    0.00000E+00  8112   0.330E+00 0.000E+00
CGA:   2    -0.319063064433E+03   -0.71420E-01   -0.71429E-01  8112   0.171E+00-0.930E-04
CGA:   3    -0.319087234326E+03   -0.24170E-01   -0.24174E-01  8112   0.110E+00-0.510E-03
CGA:   4    -0.319097175982E+03   -0.99417E-02   -0.10011E-01  8112   0.407E-01 0.352E-05
CGA:   5    -0.319101440457E+03   -0.42645E-02   -0.42580E-02  8112   0.110E-01-0.425E-04
CGA:   6    -0.319102976564E+03   -0.15361E-02   -0.15360E-02  8112   0.354E-02 0.135E-04
CGA:   7    -0.319103466034E+03   -0.48947E-03   -0.48949E-03  8112   0.182E-02-0.195E-05
CGA:   8    -0.319103631237E+03   -0.16520E-03   -0.16546E-03  8112   0.820E-03 0.123E-05
CGA:   9    -0.319103741085E+03   -0.10985E-03   -0.10985E-03  8112   0.282E-03 0.131E-06
CGA:  10    -0.319103790112E+03   -0.49028E-04   -0.49056E-04  8112   0.159E-03-0.684E-06
CGA:  11    -0.319103808778E+03   -0.18666E-04   -0.18662E-04  8112   0.110E-03-0.182E-06
CGA:  12    -0.319103821697E+03   -0.12920E-04   -0.12923E-04  8112   0.458E-04 0.146E-06
CGA:  13    -0.319103829174E+03   -0.74769E-05   -0.74743E-05  8112   0.248E-04 0.906E-07
  70 F= -.31910383E+03 E0= -.31909954E+03  d E =0.262241E-02  mag=    44.0000
       N       E                     dE             d eps       ncg     rms          ort
SDA:   1    -0.319097893536E+03    0.59282E-02    0.00000E+00  8112   0.223E-01 0.000E+00
CGA:   2    -0.319099860519E+03   -0.19670E-02   -0.19806E-02  8112   0.178E-01-0.498E-05
CGA:   3    -0.319102821352E+03   -0.29608E-02   -0.29616E-02  8112   0.436E-02-0.161E-04
CGA:   4    -0.319103430310E+03   -0.60896E-03   -0.60903E-03  8112   0.176E-02-0.582E-05
CGA:   5    -0.319103645978E+03   -0.21567E-03   -0.21569E-03  8112   0.360E-03 0.204E-05
CGA:   6    -0.319103696953E+03   -0.50974E-04   -0.50973E-04  8112   0.201E-03 0.797E-07
CGA:   7    -0.319103714309E+03   -0.17356E-04   -0.17345E-04  8112   0.793E-04-0.320E-07
CGA:   8    -0.319103724137E+03   -0.98287E-05   -0.98306E-05  8112   0.231E-04 0.257E-06
  71 F= -.31910372E+03 E0= -.31909943E+03  d E =0.105037E-03  mag=    44.0000
       N       E                     dE             d eps       ncg     rms          ort
SDA:   1    -0.318815598908E+03    0.28812E+00    0.00000E+00  8112   0.736E+00 0.000E+00
CGA:   2    -0.318992181849E+03   -0.17658E+00   -0.17690E+00  8112   0.918E+00-0.312E-02
CGA:   3    -0.319060352407E+03   -0.68171E-01   -0.70658E-01  8112   0.245E+00-0.130E-01
CGA:   4    -0.319087594364E+03   -0.27242E-01   -0.26966E-01  8112   0.877E-01-0.307E-02
CGA:   5    -0.319098550177E+03   -0.10956E-01   -0.10959E-01  8112   0.171E-01 0.165E-03
CGA:   6    -0.319101122536E+03   -0.25724E-02   -0.25720E-02  8112   0.741E-02 0.156E-04
CGA:   7    -0.319102078356E+03   -0.95582E-03   -0.95584E-03  8112   0.340E-02 0.272E-05
CGA:   8    -0.319102355527E+03   -0.27717E-03   -0.27655E-03  8112   0.124E-02 0.112E-05
CGA:   9    -0.319102550458E+03   -0.19493E-03   -0.19491E-03  8112   0.426E-03 0.325E-06
CGA:  10    -0.319102613301E+03   -0.62844E-04   -0.62841E-04  8112   0.246E-03 0.250E-06
CGA:  11    -0.319102649566E+03   -0.36265E-04   -0.36249E-04  8112   0.139E-03 0.101E-05
CGA:  12    -0.319102664009E+03   -0.14444E-04   -0.14460E-04  8112   0.867E-04 0.577E-06
CGA:  13    -0.319102677440E+03   -0.13430E-04   -0.13416E-04  8112   0.412E-04 0.655E-06
CGA:  14    -0.319102684188E+03   -0.67485E-05   -0.67496E-05  8112   0.183E-04-0.434E-07
  72 F= -.31910268E+03 E0= -.31909837E+03  d E =0.103995E-02  mag=    44.0000
       N       E                     dE             d eps       ncg     rms          ort
SDA:   1    -0.319031704395E+03    0.70973E-01    0.00000E+00  8112   0.207E+00 0.000E+00
CGA:   2    -0.319066049283E+03   -0.34345E-01   -0.34289E-01  8112   0.208E+00 0.131E-02
CGA:   3    -0.319085666394E+03   -0.19617E-01   -0.19418E-01  8112   0.743E-01-0.163E-03
CGA:   4    -0.319094997183E+03   -0.93308E-02   -0.93333E-02  8112   0.298E-01 0.115E-03
CGA:   5    -0.319098383844E+03   -0.33867E-02   -0.33859E-02  8112   0.686E-02-0.118E-04
CGA:   6    -0.319099404081E+03   -0.10202E-02   -0.10201E-02  8112   0.308E-02 0.140E-05
CGA:   7    -0.319099672591E+03   -0.26851E-03   -0.26777E-03  8112   0.134E-02-0.123E-05
CGA:   8    -0.319099846404E+03   -0.17381E-03   -0.17382E-03  8112   0.456E-03 0.880E-06
CGA:   9    -0.319099909303E+03   -0.62899E-04   -0.62894E-04  8112   0.204E-03 0.945E-06
CGA:  10    -0.319099937161E+03   -0.27858E-04   -0.27857E-04  8112   0.117E-03 0.174E-06
CGA:  11    -0.319099949272E+03   -0.12111E-04   -0.12105E-04  8112   0.620E-04-0.137E-06
CGA:  12    -0.319099958207E+03   -0.89350E-05   -0.89344E-05  8112   0.260E-04 0.348E-07
  73 F= -.31909996E+03 E0= -.31909566E+03  d E =0.272598E-02  mag=    44.0000
       N       E                     dE             d eps       ncg     rms          ort
SDA:   1    -0.319083385176E+03    0.16564E-01    0.00000E+00  8112   0.554E-01 0.000E+00
CGA:   2    -0.319090246672E+03   -0.68615E-02   -0.68534E-02  8112   0.571E-01-0.338E-03
CGA:   3    -0.319096226702E+03   -0.59800E-02   -0.59911E-02  8112   0.162E-01 0.948E-04
CGA:   4    -0.319098924580E+03   -0.26979E-02   -0.26987E-02  8112   0.548E-02-0.222E-04
CGA:   5    -0.319099577780E+03   -0.65320E-03   -0.65310E-03  8112   0.183E-02-0.598E-05
CGA:   6    -0.319099828292E+03   -0.25051E-03   -0.25052E-03  8112   0.592E-03-0.137E-05
CGA:   7    -0.319099889613E+03   -0.61321E-04   -0.61322E-04  8112   0.364E-03-0.541E-06
CGA:   8    -0.319099927464E+03   -0.37851E-04   -0.37823E-04  8112   0.963E-04-0.783E-06
CGA:   9    -0.319099943765E+03   -0.16301E-04   -0.16292E-04  8112   0.441E-04 0.239E-06
CGA:  10    -0.319099949590E+03   -0.58247E-05   -0.58248E-05  8112   0.221E-04 0.352E-06
  74 F= -.31909995E+03 E0= -.31909565E+03  d E =0.861747E-05  mag=    44.0000
       N       E                     dE             d eps       ncg     rms          ort
SDA:   1    -0.319083586536E+03    0.16357E-01    0.00000E+00  8112   0.447E-01 0.000E+00
CGA:   2    -0.319091354075E+03   -0.77675E-02   -0.77618E-02  8112   0.506E-01 0.107E-03
CGA:   3    -0.319096134213E+03   -0.47801E-02   -0.47639E-02  8112   0.159E-01-0.358E-04
CGA:   4    -0.319097859485E+03   -0.17253E-02   -0.17258E-02  8112   0.649E-02 0.117E-05
CGA:   5    -0.319098662249E+03   -0.80276E-03   -0.80268E-03  8112   0.119E-02-0.925E-05
CGA:   6    -0.319098852214E+03   -0.18996E-03   -0.19001E-03  8112   0.571E-03-0.188E-05
CGA:   7    -0.319098903035E+03   -0.50822E-04   -0.50737E-04  8112   0.249E-03-0.917E-06
CGA:   8    -0.319098932460E+03   -0.29425E-04   -0.29424E-04  8112   0.933E-04-0.125E-06
CGA:   9    -0.319098944678E+03   -0.12218E-04   -0.12217E-04  8112   0.347E-04 0.309E-06
CGA:  10    -0.319098950149E+03   -0.54705E-05   -0.54639E-05  8112   0.198E-04 0.242E-06
  75 F= -.31909895E+03 E0= -.31909464E+03  d E =0.999441E-03  mag=    44.0000
