       N       E                     dE             d eps       ncg     rms          ort
DAV:   1     0.582324250865E+04    0.58232E+04   -0.23504E+05  7072   0.165E+03
DAV:   2     0.579448180594E+03   -0.52438E+04   -0.49085E+04  7072   0.474E+02
DAV:   3    -0.367430277695E+03   -0.94688E+03   -0.92852E+03  7072   0.206E+02
DAV:   4    -0.412885662293E+03   -0.45455E+02   -0.43423E+02  7072   0.490E+01
DAV:   5    -0.414929713599E+03   -0.20441E+01   -0.20035E+01  7072   0.966E+00
SDA:   6    -0.964317953987E+02    0.31850E+03   -0.20035E+01  7072   0.566E+04 0.000E+00
CGA:   7    -0.688643151737E+02    0.27567E+02   -0.52508E+03  7072   0.180E+04-0.235E+03
CGA:   8    -0.189155658496E+03   -0.12029E+03   -0.11277E+03  7072   0.878E+04-0.379E+01
CGA:   9    -0.125340388260E+03    0.63815E+02   -0.43141E+03  7072   0.115E+04-0.321E+04
CGA:  10    -0.214947676983E+03   -0.89607E+02   -0.53940E+02  7072   0.585E+03 0.478E+03
CGA:  11    -0.299269022424E+03   -0.84321E+02   -0.38864E+02  7072   0.182E+03 0.138E+03
CGA:  12    -0.320131963343E+03   -0.20863E+02   -0.18025E+02  7072   0.535E+03-0.157E+03
CGA:  13    -0.322407716429E+03   -0.22758E+01   -0.28039E+02  7072   0.196E+03-0.134E+03
CGA:  14    -0.324992390414E+03   -0.25847E+01   -0.78080E+01  7072   0.637E+03-0.527E+03
CGA:  15    -0.318014542589E+03    0.69778E+01   -0.27608E+02  7072   0.417E+03-0.297E+03
CGA:  16    -0.307200265799E+03    0.10814E+02   -0.13282E+02  7072   0.116E+03-0.316E+02
CGA:  17    -0.310676357200E+03   -0.34761E+01   -0.84870E+00  7072   0.682E+03 0.640E+03
CGA:  18    -0.317299839409E+03   -0.66235E+01   -0.20083E+02  7072   0.145E+03-0.139E+03
CGA:  19    -0.309779243985E+03    0.75206E+01   -0.46132E+01  7072   0.135E+03-0.912E+02
CGA:  20    -0.319335223525E+03   -0.95560E+01   -0.10694E+01  7072   0.110E+04 0.132E+04
CGA:  21    -0.309526072382E+03    0.98092E+01   -0.38163E+02  7072   0.546E+03-0.438E+03
CGA:  22    -0.310929612216E+03   -0.14035E+01   -0.17825E+02  7072   0.110E+03-0.578E+02
CGA:  23    -0.312517562874E+03   -0.15880E+01   -0.75164E+00  7072   0.117E+03 0.109E+03
CGA:  24    -0.317732105967E+03   -0.52145E+01   -0.95076E+00  7072   0.662E+03 0.732E+03
CGA:  25    -0.310011008455E+03    0.77211E+01   -0.18252E+02  7072   0.101E+04-0.892E+03
CGA:  26    -0.309795433478E+03    0.21557E+00   -0.47258E+02  7072   0.107E+03-0.999E+02
CGA:  27    -0.311753980478E+03   -0.19585E+01   -0.94232E+00  7072   0.110E+03 0.104E+03
CGA:  28    -0.314056454480E+03   -0.23025E+01   -0.99054E+00  7072   0.229E+03 0.240E+03
CGA:  29    -0.339157897899E+03   -0.25101E+02   -0.31521E+01  7072   0.344E+03 0.966E+03
CGA:  30    -0.331901585364E+03    0.72563E+01   -0.82842E+01  7072   0.120E+04-0.688E+03
CGA:  31    -0.314588651469E+03    0.17313E+02   -0.43720E+02  7072   0.261E+03-0.154E+03
CGA:  32    -0.335849978178E+03   -0.21261E+02   -0.30024E+01  7072   0.632E+03 0.115E+04
CGA:  33    -0.317231275217E+03    0.18619E+02   -0.16317E+02  7072   0.178E+04-0.946E+03
CGA:  34    -0.312706558667E+03    0.45247E+01   -0.62710E+02  7072   0.111E+03-0.966E+02
CGA:  35    -0.315198061930E+03   -0.24915E+01   -0.90161E+00  7072   0.341E+03 0.343E+03
CGA:  36    -0.343254478862E+03   -0.28056E+02   -0.52479E+01  7072   0.628E+02 0.413E+03
CGA:  37    -0.343885366518E+03   -0.63089E+00   -0.52618E+00  7072   0.481E+01 0.115E+02
CGA:  38    -0.343995813878E+03   -0.11045E+00   -0.10424E+00  7072   0.831E+01 0.310E+00
CGA:  39    -0.344545654122E+03   -0.54984E+00   -0.55095E+00  7072   0.352E+02-0.390E+00
CGA:  40    -0.344914767214E+03   -0.36911E+00   -0.40750E+00  7072   0.166E+02 0.193E+01
CGA:  41    -0.345171813861E+03   -0.25705E+00   -0.29473E+00  7072   0.121E+02-0.128E+01
CGA:  42    -0.345607722802E+03   -0.43591E+00   -0.45875E+00  7072   0.161E+02 0.222E+00
CGA:  43    -0.345922642356E+03   -0.31492E+00   -0.22551E+00  7072   0.920E+01 0.611E+01
CGA:  44    -0.346182385255E+03   -0.25974E+00   -0.20429E+00  7072   0.842E+01 0.269E+01
CGA:  45    -0.346372524675E+03   -0.19014E+00   -0.21423E+00  7072   0.773E+01-0.980E+00
CGA:  46    -0.346440033554E+03   -0.67509E-01   -0.87662E-01  7072   0.405E+01-0.123E+01
CGA:  47    -0.346492024456E+03   -0.51991E-01   -0.63939E-01  7072   0.419E+01-0.364E+00
CGA:  48    -0.346580301561E+03   -0.88277E-01   -0.85971E-01  7072   0.236E+01 0.822E-01
CGA:  49    -0.346621032159E+03   -0.40731E-01   -0.37708E-01  7072   0.165E+01 0.136E+00
CGA:  50    -0.346686237109E+03   -0.65205E-01   -0.64987E-01  7072   0.455E+01-0.120E-01
CGA:  51    -0.346782485485E+03   -0.96248E-01   -0.92350E-01  7072   0.363E+01 0.119E+00
CGA:  52    -0.346821439329E+03   -0.38954E-01   -0.38510E-01  7072   0.117E+01 0.300E-01
CGA:  53    -0.346838388172E+03   -0.16949E-01   -0.18549E-01  7072   0.118E+01-0.706E-01
CGA:  54    -0.346871214105E+03   -0.32826E-01   -0.33676E-01  7072   0.183E+01 0.182E-01
CGA:  55    -0.346904160996E+03   -0.32947E-01   -0.33090E-01  7072   0.995E+00-0.494E-02
CGA:  56    -0.346926222583E+03   -0.22062E-01   -0.21559E-01  7072   0.111E+01 0.784E-02
CGA:  57    -0.346953542971E+03   -0.27320E-01   -0.25685E-01  7072   0.107E+01 0.138E-01
CGA:  58    -0.346967404157E+03   -0.13861E-01   -0.13665E-01  7072   0.464E+00-0.569E-02
CGA:  59    -0.346973855854E+03   -0.64517E-02   -0.63750E-02  7072   0.435E+00 0.258E-02
CGA:  60    -0.346985232891E+03   -0.11377E-01   -0.11355E-01  7072   0.987E+00-0.903E-03
CGA:  61    -0.347004144080E+03   -0.18911E-01   -0.19053E-01  7072   0.991E+00-0.526E-02
CGA:  62    -0.347015838514E+03   -0.11694E-01   -0.12504E-01  7072   0.483E+00-0.474E-01
CGA:  63    -0.347023491193E+03   -0.76527E-02   -0.77673E-02  7072   0.521E+00-0.355E-02
CGA:  64    -0.347035949135E+03   -0.12458E-01   -0.12531E-01  7072   0.684E+00 0.177E-02
CGA:  65    -0.347047600499E+03   -0.11651E-01   -0.11905E-01  7072   0.395E+00-0.589E-02
CGA:  66    -0.347054673923E+03   -0.70734E-02   -0.71344E-02  7072   0.352E+00-0.106E-02
SDA:  67    -0.347063573914E+03   -0.89000E-02   -0.89102E-02  7072   0.373E+00 0.617E-03
CGA:  68    -0.347072680168E+03   -0.91063E-02   -0.90853E-02  7072   0.127E+00-0.122E-02
CGA:  69    -0.347081383968E+03   -0.87038E-02   -0.86381E-02  7072   0.650E-01 0.170E-02
CGA:  70    -0.347092215241E+03   -0.10831E-01   -0.69740E-04  7072   0.231E+00-0.137E-01
CGA:  71    -0.347106447717E+03   -0.14232E-01   -0.14316E-01  7072   0.242E+00-0.303E-02
CGA:  72    -0.347118677136E+03   -0.12229E-01   -0.12227E-01  7072   0.129E+00 0.188E-03
CGA:  73    -0.347124559374E+03   -0.58822E-02   -0.57728E-02  7072   0.112E+00-0.173E-02
CGA:  74    -0.347131708418E+03   -0.71490E-02   -0.71274E-02  7072   0.173E+00 0.185E-02
CGA:  75    -0.347145746214E+03   -0.14038E-01   -0.15188E-01  7072   0.237E+00-0.381E-01
CGA:  76    -0.347151039129E+03   -0.52929E-02   -0.48504E-02  7072   0.183E+00 0.105E-01
CGA:  77    -0.347155765643E+03   -0.47265E-02   -0.49245E-02  7072   0.111E+00-0.424E-02
CGA:  78    -0.347159604633E+03   -0.38390E-02   -0.38963E-02  7072   0.900E-01-0.222E-03
CGA:  79    -0.347162581629E+03   -0.29770E-02   -0.29755E-02  7072   0.816E-01-0.498E-04
CGA:  80    -0.347166313658E+03   -0.37320E-02   -0.37236E-02  7072   0.106E+00-0.368E-03
CGA:  81    -0.347170878404E+03   -0.45647E-02   -0.45453E-02  7072   0.136E+00-0.440E-03
CGA:  82    -0.347175303361E+03   -0.44250E-02   -0.41526E-02  7072   0.123E+00 0.286E-02
CGA:  83    -0.347178965949E+03   -0.36626E-02   -0.34978E-02  7072   0.135E+00 0.229E-02
CGA:  84    -0.347182446977E+03   -0.34810E-02   -0.34355E-02  7072   0.126E+00 0.850E-03
CGA:  85    -0.347185375787E+03   -0.29288E-02   -0.29417E-02  7072   0.112E+00-0.322E-03
CGA:  86    -0.347188185656E+03   -0.28099E-02   -0.28071E-02  7072   0.111E+00 0.140E-04
CGA:  87    -0.347191221544E+03   -0.30359E-02   -0.30257E-02  7072   0.136E+00-0.282E-04
CGA:  88    -0.347195345953E+03   -0.41244E-02   -0.41290E-02  7072   0.171E+00-0.247E-03
CGA:  89    -0.347199407056E+03   -0.40611E-02   -0.38739E-02  7072   0.160E+00 0.437E-02
CGA:  90    -0.347203093663E+03   -0.36866E-02   -0.34488E-02  7072   0.170E+00 0.628E-02
CGA:  91    -0.347206443876E+03   -0.33502E-02   -0.32488E-02  7072   0.156E+00 0.323E-02
CGA:  92    -0.347209060404E+03   -0.26165E-02   -0.26797E-02  7072   0.122E+00-0.244E-02
CGA:  93    -0.347211174494E+03   -0.21141E-02   -0.21364E-02  7072   0.111E+00-0.623E-03
CGA:  94    -0.347213430388E+03   -0.22559E-02   -0.22226E-02  7072   0.124E+00 0.934E-03
CGA:  95    -0.347216047238E+03   -0.26169E-02   -0.25411E-02  7072   0.156E+00 0.162E-02
CGA:  96    -0.347219046595E+03   -0.29994E-02   -0.29442E-02  7072   0.182E+00 0.126E-02
CGA:  97    -0.347221834431E+03   -0.27878E-02   -0.27872E-02  7072   0.153E+00 0.390E-03
SDA:  98    -0.347223892746E+03   -0.20583E-02   -0.20647E-02  7072   0.115E+00 0.429E-03
CGA:  99    -0.347233035615E+03   -0.91429E-02   -0.90660E-02  7072   0.594E-01 0.175E-02
CGA: 100    -0.347254079728E+03   -0.21044E-01   -0.15610E-01  7072   0.137E+00 0.328E-01
CGA: 101    -0.347259082873E+03   -0.50031E-02   -0.48875E-02  7072   0.753E-01 0.135E-02
CGA: 102    -0.347263657222E+03   -0.45743E-02   -0.45475E-02  7072   0.702E-01-0.221E-02
CGA: 103    -0.347275694776E+03   -0.12038E-01   -0.13451E-01  7072   0.276E+00-0.103E-01
CGA: 104    -0.347288568406E+03   -0.12874E-01   -0.91137E-02  7072   0.314E+00 0.522E-01
CGA: 105    -0.347297144854E+03   -0.85764E-02   -0.73370E-02  7072   0.235E+00 0.510E-01
CGA: 106    -0.347303185324E+03   -0.60405E-02   -0.63776E-02  7072   0.195E+00-0.793E-02
CGA: 107    -0.347307600010E+03   -0.44147E-02   -0.46177E-02  7072   0.157E+00-0.604E-02
CGA: 108    -0.347310478522E+03   -0.28785E-02   -0.29700E-02  7072   0.757E-01-0.395E-02
CGA: 109    -0.347312022731E+03   -0.15442E-02   -0.15507E-02  7072   0.559E-01-0.241E-03
CGA: 110    -0.347313576556E+03   -0.15538E-02   -0.15366E-02  7072   0.569E-01 0.383E-03
CGA: 111    -0.347314990913E+03   -0.14144E-02   -0.13080E-02  7072   0.495E-01 0.321E-02
CGA: 112    -0.347316129985E+03   -0.11391E-02   -0.10785E-02  7072   0.381E-01 0.208E-02
CGA: 113    -0.347316888972E+03   -0.75899E-03   -0.73234E-03  7072   0.298E-01 0.106E-02
CGA: 114    -0.347317619170E+03   -0.73020E-03   -0.71268E-03  7072   0.417E-01 0.451E-03
CGA: 115    -0.347318701413E+03   -0.10822E-02   -0.10547E-02  7072   0.574E-01 0.679E-03
CGA: 116    -0.347319795640E+03   -0.10942E-02   -0.10915E-02  7072   0.487E-01 0.273E-03
CGA: 117    -0.347320757760E+03   -0.96212E-03   -0.10047E-02  7072   0.496E-01-0.129E-02
CGA: 118    -0.347321893311E+03   -0.11356E-02   -0.10715E-02  7072   0.516E-01 0.221E-02
CGA: 119    -0.347322827572E+03   -0.93426E-03   -0.74969E-03  7072   0.420E-01 0.111E-01
CGA: 120    -0.347323606897E+03   -0.77933E-03   -0.67718E-03  7072   0.315E-01 0.628E-02
CGA: 121    -0.347324070886E+03   -0.46399E-03   -0.45080E-03  7072   0.205E-01 0.841E-03
CGA: 122    -0.347324326013E+03   -0.25513E-03   -0.25968E-03  7072   0.161E-01-0.326E-03
CGA: 123    -0.347324571873E+03   -0.24586E-03   -0.24978E-03  7072   0.198E-01-0.195E-03
CGA: 124    -0.347324892603E+03   -0.32073E-03   -0.32259E-03  7072   0.203E-01-0.995E-04
CGA: 125    -0.347325149784E+03   -0.25718E-03   -0.25048E-03  7072   0.141E-01 0.367E-03
CGA: 126    -0.347325343902E+03   -0.19412E-03   -0.19016E-03  7072   0.130E-01 0.183E-03
CGA: 127    -0.347325551590E+03   -0.20769E-03   -0.20593E-03  7072   0.154E-01 0.522E-04
CGA: 128    -0.347325785080E+03   -0.23349E-03   -0.23196E-03  7072   0.175E-01 0.577E-04
CGA: 129    -0.347326054087E+03   -0.26901E-03   -0.26554E-03  7072   0.211E-01 0.140E-03
CGA: 130    -0.347326349337E+03   -0.29525E-03   -0.28795E-03  7072   0.197E-01 0.356E-03
SDA: 131    -0.347326566613E+03   -0.21728E-03   -0.20964E-03  7072   0.133E-01 0.568E-03
CGA: 132    -0.347327149693E+03   -0.58308E-03   -0.58279E-03  7072   0.667E-02 0.202E-04
CGA: 133    -0.347327360782E+03   -0.21109E-03   -0.21103E-03  7072   0.537E-02 0.429E-04
CGA: 134    -0.347327984424E+03   -0.62364E-03   -0.64360E-03  7072   0.840E-02-0.308E-03
CGA: 135    -0.347328989936E+03   -0.10055E-02   -0.95705E-03  7072   0.585E-02 0.529E-03
CGA: 136    -0.347329398906E+03   -0.40897E-03   -0.41030E-03  7072   0.486E-02-0.428E-04
CGA: 137    -0.347329570242E+03   -0.17134E-03   -0.17170E-03  7072   0.351E-02 0.302E-04
CGA: 138    -0.347329757872E+03   -0.18763E-03   -0.18949E-03  7072   0.328E-02-0.111E-03
CGA: 139    -0.347329959685E+03   -0.20181E-03   -0.20297E-03  7072   0.147E-02-0.488E-04
CGA: 140    -0.347330027746E+03   -0.68061E-04   -0.68145E-04  7072   0.402E-03-0.162E-04
CGA: 141    -0.347330064068E+03   -0.36322E-04   -0.37006E-04  7072   0.571E-03-0.149E-04
CGA: 142    -0.347330129985E+03   -0.65917E-04   -0.67160E-04  7072   0.167E-02-0.171E-04
CGA: 143    -0.347330218036E+03   -0.88051E-04   -0.89210E-04  7072   0.160E-02-0.125E-03
CGA: 144    -0.347330258868E+03   -0.40831E-04   -0.39800E-04  7072   0.723E-03 0.110E-04
CGA: 145    -0.347330307715E+03   -0.48847E-04   -0.49578E-04  7072   0.134E-02-0.282E-04
CGA: 146    -0.347330337476E+03   -0.29761E-04   -0.27145E-04  7072   0.750E-03 0.697E-04
CGA: 147    -0.347330367603E+03   -0.30127E-04   -0.29686E-04  7072   0.133E-02-0.134E-04
CGA: 148    -0.347330399351E+03   -0.31748E-04   -0.31213E-04  7072   0.103E-02 0.837E-05
CGA: 149    -0.347330421592E+03   -0.22242E-04   -0.22440E-04  7072   0.968E-03-0.467E-05
CGA: 150    -0.347330445771E+03   -0.24178E-04   -0.24097E-04  7072   0.691E-03 0.248E-05
CGA: 151    -0.347330458398E+03   -0.12627E-04   -0.12537E-04  7072   0.497E-03 0.498E-05
CGA: 152    -0.347330476305E+03   -0.17907E-04   -0.17930E-04  7072   0.977E-03 0.354E-05
CGA: 153    -0.347330504496E+03   -0.28191E-04   -0.28520E-04  7072   0.121E-02 0.981E-05
CGA: 154    -0.347330542902E+03   -0.38406E-04   -0.38630E-04  7072   0.162E-02 0.141E-04
CGA: 155    -0.347330577226E+03   -0.34324E-04   -0.33128E-04  7072   0.913E-03 0.432E-04
CGA: 156    -0.347330597409E+03   -0.20183E-04   -0.19860E-04  7072   0.917E-03 0.113E-04
CGA: 157    -0.347330620378E+03   -0.22969E-04   -0.22941E-04  7072   0.913E-03 0.547E-05
CGA: 158    -0.347330639337E+03   -0.18959E-04   -0.19265E-04  7072   0.970E-03 0.129E-05
CGA: 159    -0.347330672639E+03   -0.33302E-04   -0.33404E-04  7072   0.156E-02 0.180E-04
CGA: 160    -0.347330703068E+03   -0.30428E-04   -0.29845E-04  7072   0.873E-03 0.239E-04
CGA: 161    -0.347330725046E+03   -0.21978E-04   -0.21911E-04  7072   0.114E-02 0.247E-05
SDA: 162    -0.347330752549E+03   -0.27504E-04   -0.27880E-04  7072   0.792E-03 0.606E-05
CGA: 163    -0.347330774270E+03   -0.21721E-04   -0.21733E-04  7072   0.542E-03 0.319E-06
CGA: 164    -0.347330809028E+03   -0.34759E-04   -0.34929E-04  7072   0.788E-03-0.627E-05
CGA: 165    -0.347330867671E+03   -0.58643E-04   -0.58875E-04  7072   0.739E-03-0.632E-05
CGA: 166    -0.347330914031E+03   -0.46360E-04   -0.46287E-04  7072   0.319E-03 0.895E-06
CGA: 167    -0.347330932539E+03   -0.18507E-04   -0.18535E-04  7072   0.119E-03-0.197E-05
CGA: 168    -0.347330941152E+03   -0.86129E-05   -0.86539E-05  7072   0.218E-03-0.157E-05
   1 F= -.34733094E+03 E0= -.34731347E+03  d E =-.347331E+03  mag=     4.4185
       N       E                     dE             d eps       ncg     rms          ort
SDA:   1    -0.347413344185E+03   -0.82412E-01    0.00000E+00  7072   0.251E+00 0.000E+00
CGA:   2    -0.347417570782E+03   -0.42266E-02   -0.41815E-02  7072   0.399E-01 0.164E-02
CGA:   3    -0.347419204243E+03   -0.16335E-02   -0.16335E-02  7072   0.135E-01-0.109E-03
CGA:   4    -0.347420624560E+03   -0.14203E-02   -0.14202E-02  7072   0.126E-01 0.824E-06
CGA:   5    -0.347421359383E+03   -0.73482E-03   -0.73495E-03  7072   0.922E-02-0.685E-05
CGA:   6    -0.347421612384E+03   -0.25300E-03   -0.25346E-03  7072   0.517E-02 0.308E-05
CGA:   7    -0.347421873003E+03   -0.26062E-03   -0.26064E-03  7072   0.169E-02-0.364E-05
CGA:   8    -0.347422076571E+03   -0.20357E-03   -0.20508E-03  7072   0.121E-02-0.203E-04
CGA:   9    -0.347422151063E+03   -0.74492E-04   -0.74497E-04  7072   0.428E-03-0.811E-06
CGA:  10    -0.347422169577E+03   -0.18514E-04   -0.18503E-04  7072   0.215E-03-0.188E-05
CGA:  11    -0.347422185700E+03   -0.16123E-04   -0.16186E-04  7072   0.309E-03-0.224E-05
CGA:  12    -0.347422196880E+03   -0.11180E-04   -0.11152E-04  7072   0.230E-03-0.214E-05
CGA:  13    -0.347422205041E+03   -0.81606E-05   -0.81617E-05  7072   0.449E-04 0.679E-07
   2 F= -.34742221E+03 E0= -.34740477E+03  d E =-.912639E-01  mag=     4.4187
       N       E                     dE             d eps       ncg     rms          ort
SDA:   1    -0.346705533325E+03    0.71666E+00    0.00000E+00  7072   0.820E+01 0.000E+00
CGA:   2    -0.348174042280E+03   -0.14685E+01   -0.14867E+01  7072   0.154E+02-0.151E+00
CGA:   3    -0.348636139082E+03   -0.46210E+00   -0.49820E+00  7072   0.484E+01-0.440E+00
CGA:   4    -0.348770641518E+03   -0.13450E+00   -0.13143E+00  7072   0.337E+01 0.291E-01
CGA:   5    -0.348982772640E+03   -0.21213E+00   -0.21173E+00  7072   0.349E+01 0.413E-01
CGA:   6    -0.349170630494E+03   -0.18786E+00   -0.18799E+00  7072   0.122E+01 0.156E-01
CGA:   7    -0.349201877923E+03   -0.31247E-01   -0.30446E-01  7072   0.632E+00 0.168E-01
CGA:   8    -0.349229346298E+03   -0.27468E-01   -0.27431E-01  7072   0.312E+00-0.902E-03
CGA:   9    -0.349253609301E+03   -0.24263E-01   -0.24176E-01  7072   0.379E+00 0.301E-02
CGA:  10    -0.349263774467E+03   -0.10165E-01   -0.10181E-01  7072   0.210E+00-0.558E-03
CGA:  11    -0.349272817564E+03   -0.90431E-02   -0.90650E-02  7072   0.553E-01 0.488E-03
CGA:  12    -0.349275738611E+03   -0.29210E-02   -0.29213E-02  7072   0.786E-01 0.206E-03
CGA:  13    -0.349278926810E+03   -0.31882E-02   -0.31857E-02  7072   0.777E-01-0.548E-04
CGA:  14    -0.349282945995E+03   -0.40192E-02   -0.40194E-02  7072   0.470E-01 0.130E-03
CGA:  15    -0.349285044657E+03   -0.20987E-02   -0.20992E-02  7072   0.277E-01 0.341E-04
CGA:  16    -0.349285851288E+03   -0.80663E-03   -0.80615E-03  7072   0.208E-01-0.141E-05
CGA:  17    -0.349287269866E+03   -0.14186E-02   -0.14185E-02  7072   0.228E-01 0.402E-05
CGA:  18    -0.349289198001E+03   -0.19281E-02   -0.19245E-02  7072   0.294E-01 0.104E-03
CGA:  19    -0.349289818855E+03   -0.62085E-03   -0.62123E-03  7072   0.804E-02-0.699E-05
CGA:  20    -0.349290388948E+03   -0.57009E-03   -0.56936E-03  7072   0.852E-02 0.344E-04
CGA:  21    -0.349290888898E+03   -0.49995E-03   -0.49985E-03  7072   0.109E-01 0.186E-04
CGA:  22    -0.349291229758E+03   -0.34086E-03   -0.34072E-03  7072   0.718E-02 0.518E-05
CGA:  23    -0.349291683277E+03   -0.45352E-03   -0.45310E-03  7072   0.456E-02 0.319E-04
CGA:  24    -0.349291838160E+03   -0.15488E-03   -0.15530E-03  7072   0.194E-02 0.101E-04
CGA:  25    -0.349291903406E+03   -0.65245E-04   -0.65295E-04  7072   0.215E-02 0.253E-05
CGA:  26    -0.349292119142E+03   -0.21574E-03   -0.21482E-03  7072   0.123E-02 0.186E-04
CGA:  27    -0.349292165884E+03   -0.46742E-04   -0.46862E-04  7072   0.111E-02 0.674E-05
CGA:  28    -0.349292200129E+03   -0.34244E-04   -0.34285E-04  7072   0.465E-03 0.215E-05
CGA:  29    -0.349292238689E+03   -0.38560E-04   -0.38569E-04  7072   0.644E-03-0.313E-06
CGA:  30    -0.349292274265E+03   -0.35576E-04   -0.35573E-04  7072   0.712E-03 0.128E-05
CGA:  31    -0.349292294281E+03   -0.20016E-04   -0.20005E-04  7072   0.272E-03-0.876E-06
SDA:  32    -0.349292305529E+03   -0.11248E-04   -0.11256E-04  7072   0.126E-03 0.667E-06
CGA:  33    -0.349292310871E+03   -0.53420E-05   -0.53363E-05  7072   0.843E-04-0.690E-06
   3 F= -.34929231E+03 E0= -.34927465E+03  d E =-.187011E+01  mag=     4.4508
       N       E                     dE             d eps       ncg     rms          ort
SDA:   1    -0.341830167952E+03    0.74621E+01    0.00000E+00  7072   0.298E+02 0.000E+00
CGA:   2    -0.347139381774E+03   -0.53092E+01   -0.53699E+01  7072   0.773E+02-0.300E+00
CGA:   3    -0.348900031103E+03   -0.17606E+01   -0.19364E+01  7072   0.235E+02-0.770E+01
CGA:   4    -0.349555129324E+03   -0.65510E+00   -0.65247E+00  7072   0.896E+01-0.816E-01
CGA:   5    -0.350429989676E+03   -0.87486E+00   -0.85697E+00  7072   0.107E+02 0.452E+00
CGA:   6    -0.350950618058E+03   -0.52063E+00   -0.51560E+00  7072   0.259E+01-0.867E-01
CGA:   7    -0.351080122769E+03   -0.12950E+00   -0.12764E+00  7072   0.181E+01-0.696E-01
CGA:   8    -0.351133994562E+03   -0.53872E-01   -0.53796E-01  7072   0.134E+01-0.302E-02
CGA:   9    -0.351223554354E+03   -0.89560E-01   -0.89465E-01  7072   0.715E+00 0.599E-02
CGA:  10    -0.351260413657E+03   -0.36859E-01   -0.36791E-01  7072   0.244E+00-0.477E-02
CGA:  11    -0.351275972750E+03   -0.15559E-01   -0.15546E-01  7072   0.258E+00 0.112E-02
CGA:  12    -0.351292136751E+03   -0.16164E-01   -0.16154E-01  7072   0.315E+00 0.112E-02
CGA:  13    -0.351302389624E+03   -0.10253E-01   -0.10239E-01  7072   0.176E+00 0.547E-04
CGA:  14    -0.351310663783E+03   -0.82742E-02   -0.82591E-02  7072   0.690E-01-0.508E-03
CGA:  15    -0.351316067207E+03   -0.54034E-02   -0.53914E-02  7072   0.681E-01 0.419E-03
CGA:  16    -0.351323485415E+03   -0.74182E-02   -0.74163E-02  7072   0.107E+00 0.447E-04
CGA:  17    -0.351326214642E+03   -0.27292E-02   -0.27275E-02  7072   0.349E-01 0.803E-04
CGA:  18    -0.351327792138E+03   -0.15775E-02   -0.15761E-02  7072   0.314E-01-0.119E-04
CGA:  19    -0.351330846700E+03   -0.30546E-02   -0.30479E-02  7072   0.283E-01 0.160E-03
CGA:  20    -0.351332467496E+03   -0.16208E-02   -0.16207E-02  7072   0.177E-01 0.423E-05
CGA:  21    -0.351333249587E+03   -0.78209E-03   -0.78371E-03  7072   0.177E-01 0.415E-04
CGA:  22    -0.351333842789E+03   -0.59320E-03   -0.59412E-03  7072   0.740E-02 0.607E-05
CGA:  23    -0.351334586033E+03   -0.74324E-03   -0.74228E-03  7072   0.796E-02 0.226E-04
CGA:  24    -0.351334993308E+03   -0.40727E-03   -0.40738E-03  7072   0.461E-02 0.149E-04
CGA:  25    -0.351335183570E+03   -0.19026E-03   -0.19050E-03  7072   0.370E-02 0.121E-04
CGA:  26    -0.351335321270E+03   -0.13770E-03   -0.13769E-03  7072   0.253E-02 0.407E-05
CGA:  27    -0.351335530713E+03   -0.20944E-03   -0.20933E-03  7072   0.228E-02 0.588E-05
CGA:  28    -0.351335676418E+03   -0.14570E-03   -0.14568E-03  7072   0.126E-02 0.366E-05
CGA:  29    -0.351335715919E+03   -0.39501E-04   -0.39591E-04  7072   0.913E-03 0.236E-05
CGA:  30    -0.351335768449E+03   -0.52530E-04   -0.52530E-04  7072   0.861E-03-0.987E-06
CGA:  31    -0.351335832388E+03   -0.63939E-04   -0.63963E-04  7072   0.655E-03-0.131E-05
SDA:  32    -0.351335863129E+03   -0.30741E-04   -0.30695E-04  7072   0.429E-03-0.390E-05
CGA:  33    -0.351335871745E+03   -0.86161E-05   -0.86257E-05  7072   0.147E-03 0.265E-06
   4 F= -.35133587E+03 E0= -.35131785E+03  d E =-.204356E+01  mag=     4.4962
       N       E                     dE             d eps       ncg     rms          ort
SDA:   1    -0.344445698864E+03    0.68902E+01    0.00000E+00  7072   0.236E+02 0.000E+00
CGA:   2    -0.347913754363E+03   -0.34681E+01   -0.32547E+01  7072   0.709E+02 0.313E+01
CGA:   3    -0.350171394181E+03   -0.22576E+01   -0.21772E+01  7072   0.132E+02-0.457E+00
CGA:   4    -0.350816305895E+03   -0.64491E+00   -0.64073E+00  7072   0.101E+02-0.228E+00
CGA:   5    -0.351409715897E+03   -0.59341E+00   -0.59369E+00  7072   0.129E+02-0.867E-01
CGA:   6    -0.351849725309E+03   -0.44001E+00   -0.45879E+00  7072   0.426E+01-0.214E+00
CGA:   7    -0.351978122246E+03   -0.12840E+00   -0.12784E+00  7072   0.121E+01 0.122E-02
CGA:   8    -0.352053745469E+03   -0.75623E-01   -0.75709E-01  7072   0.176E+01-0.795E-02
CGA:   9    -0.352121091220E+03   -0.67346E-01   -0.67372E-01  7072   0.988E+00-0.162E-02
CGA:  10    -0.352156534462E+03   -0.35443E-01   -0.35800E-01  7072   0.241E+00-0.564E-03
CGA:  11    -0.352170112032E+03   -0.13578E-01   -0.13576E-01  7072   0.281E+00 0.276E-03
CGA:  12    -0.352180431883E+03   -0.10320E-01   -0.10361E-01  7072   0.211E+00 0.463E-04
CGA:  13    -0.352195920369E+03   -0.15488E-01   -0.15509E-01  7072   0.133E+00-0.822E-03
CGA:  14    -0.352200400663E+03   -0.44803E-02   -0.45040E-02  7072   0.779E-01-0.101E-03
CGA:  15    -0.352203966747E+03   -0.35661E-02   -0.35673E-02  7072   0.677E-01 0.329E-04
CGA:  16    -0.352207796017E+03   -0.38293E-02   -0.38270E-02  7072   0.687E-01 0.389E-03
CGA:  17    -0.352212055563E+03   -0.42595E-02   -0.42583E-02  7072   0.539E-01 0.808E-04
CGA:  18    -0.352213719416E+03   -0.16639E-02   -0.16680E-02  7072   0.288E-01-0.281E-04
CGA:  19    -0.352215296715E+03   -0.15773E-02   -0.15771E-02  7072   0.205E-01 0.503E-04
CGA:  20    -0.352216853658E+03   -0.15569E-02   -0.15526E-02  7072   0.343E-01 0.162E-03
CGA:  21    -0.352218113482E+03   -0.12598E-02   -0.12607E-02  7072   0.179E-01 0.211E-04
CGA:  22    -0.352218910854E+03   -0.79737E-03   -0.79742E-03  7072   0.696E-02 0.186E-04
CGA:  23    -0.352219305461E+03   -0.39461E-03   -0.39453E-03  7072   0.105E-01 0.148E-04
CGA:  24    -0.352219795912E+03   -0.49045E-03   -0.49085E-03  7072   0.618E-02 0.418E-04
CGA:  25    -0.352220085104E+03   -0.28919E-03   -0.28914E-03  7072   0.449E-02 0.305E-05
CGA:  26    -0.352220307623E+03   -0.22252E-03   -0.22255E-03  7072   0.276E-02 0.135E-04
CGA:  27    -0.352220400183E+03   -0.92560E-04   -0.92636E-04  7072   0.179E-02 0.210E-05
CGA:  28    -0.352220530062E+03   -0.12988E-03   -0.12961E-03  7072   0.188E-02 0.121E-04
CGA:  29    -0.352220641669E+03   -0.11161E-03   -0.11161E-03  7072   0.205E-02-0.292E-06
CGA:  30    -0.352220700826E+03   -0.59158E-04   -0.59199E-04  7072   0.489E-03 0.379E-05
CGA:  31    -0.352220735259E+03   -0.34433E-04   -0.34437E-04  7072   0.741E-03-0.288E-06
SDA:  32    -0.352220780073E+03   -0.44814E-04   -0.44799E-04  7072   0.996E-03 0.159E-05
CGA:  33    -0.352220796730E+03   -0.16657E-04   -0.16581E-04  7072   0.158E-03-0.215E-05
CGA:  34    -0.352220806178E+03   -0.94478E-05   -0.94631E-05  7072   0.203E-03-0.175E-05
CGA:  35    -0.352220847082E+03   -0.40904E-04   -0.42020E-04  7072   0.172E-03-0.712E-05
CGA:  36    -0.352220856406E+03   -0.93247E-05   -0.93223E-05  7072   0.168E-03-0.886E-06
   5 F= -.35222086E+03 E0= -.35220253E+03  d E =-.884985E+00  mag=     4.5267
       N       E                     dE             d eps       ncg     rms          ort
SDA:   1    -0.341799338112E+03    0.10422E+02    0.00000E+00  7072   0.572E+02 0.000E+00
CGA:   2    -0.343550381788E+03   -0.17510E+01   -0.21094E+01  7072   0.642E+02-0.158E+01
CGA:   3    -0.347762925146E+03   -0.42125E+01   -0.43438E+01  7072   0.905E+02-0.900E+01
CGA:   4    -0.350345330906E+03   -0.25824E+01   -0.25111E+01  7072   0.258E+02-0.924E+00
CGA:   5    -0.351100518474E+03   -0.75519E+00   -0.72974E+00  7072   0.155E+02 0.464E+00
CGA:   6    -0.351429747602E+03   -0.32923E+00   -0.29863E+00  7072   0.892E+01 0.106E+01
CGA:   7    -0.352091583329E+03   -0.66184E+00   -0.66608E+00  7072   0.201E+02-0.202E+00
CGA:   8    -0.352406685847E+03   -0.31510E+00   -0.35752E+00  7072   0.656E+01-0.184E+01
CGA:   9    -0.352535705078E+03   -0.12902E+00   -0.12970E+00  7072   0.183E+01-0.255E-01
CGA:  10    -0.352591875860E+03   -0.56171E-01   -0.55358E-01  7072   0.205E+01 0.835E-02
CGA:  11    -0.352643139107E+03   -0.51263E-01   -0.52467E-01  7072   0.120E+01-0.226E-01
CGA:  12    -0.352710228767E+03   -0.67090E-01   -0.66491E-01  7072   0.181E+01 0.490E-01
CGA:  13    -0.352746490960E+03   -0.36262E-01   -0.36562E-01  7072   0.515E+00-0.123E-01
CGA:  14    -0.352764207264E+03   -0.17716E-01   -0.17494E-01  7072   0.236E+00-0.222E-02
CGA:  15    -0.352771629936E+03   -0.74227E-02   -0.76071E-02  7072   0.278E+00 0.100E-02
CGA:  16    -0.352784639501E+03   -0.13010E-01   -0.13010E-01  7072   0.274E+00-0.525E-04
CGA:  17    -0.352797830555E+03   -0.13191E-01   -0.13182E-01  7072   0.138E+00 0.227E-02
CGA:  18    -0.352801507873E+03   -0.36773E-02   -0.37936E-02  7072   0.832E-01-0.110E-02
CGA:  19    -0.352804595627E+03   -0.30878E-02   -0.30845E-02  7072   0.496E-01-0.141E-03
CGA:  20    -0.352808170508E+03   -0.35749E-02   -0.35799E-02  7072   0.478E-01-0.183E-03
CGA:  21    -0.352810747978E+03   -0.25775E-02   -0.25568E-02  7072   0.647E-01 0.175E-02
CGA:  22    -0.352813091194E+03   -0.23432E-02   -0.23365E-02  7072   0.285E-01-0.116E-03
CGA:  23    -0.352814067919E+03   -0.97673E-03   -0.97763E-03  7072   0.105E-01 0.235E-04
CGA:  24    -0.352815470621E+03   -0.14027E-02   -0.13919E-02  7072   0.200E-01 0.139E-03
CGA:  25    -0.352816607810E+03   -0.11372E-02   -0.11365E-02  7072   0.147E-01 0.824E-04
CGA:  26    -0.352817058184E+03   -0.45037E-03   -0.45047E-03  7072   0.734E-02 0.590E-05
CGA:  27    -0.352817378945E+03   -0.32076E-03   -0.32102E-03  7072   0.589E-02 0.276E-04
CGA:  28    -0.352817935031E+03   -0.55609E-03   -0.55588E-03  7072   0.649E-02 0.463E-05
CGA:  29    -0.352818360660E+03   -0.42563E-03   -0.42479E-03  7072   0.480E-02 0.460E-04
CGA:  30    -0.352818526279E+03   -0.16562E-03   -0.16570E-03  7072   0.309E-02-0.891E-06
CGA:  31    -0.352818651684E+03   -0.12541E-03   -0.12550E-03  7072   0.218E-02 0.547E-05
SDA:  32    -0.352818847258E+03   -0.19557E-03   -0.19545E-03  7072   0.283E-02 0.305E-05
CGA:  33    -0.352818917613E+03   -0.70354E-04   -0.70316E-04  7072   0.729E-03 0.316E-05
CGA:  34    -0.352818956289E+03   -0.38676E-04   -0.38679E-04  7072   0.113E-02-0.177E-05
CGA:  35    -0.352819011924E+03   -0.55635E-04   -0.55638E-04  7072   0.935E-03 0.134E-05
CGA:  36    -0.352819098846E+03   -0.86922E-04   -0.87165E-04  7072   0.101E-02-0.578E-05
CGA:  37    -0.352819162580E+03   -0.63734E-04   -0.63763E-04  7072   0.269E-03-0.324E-05
CGA:  38    -0.352819193541E+03   -0.30961E-04   -0.30922E-04  7072   0.284E-03 0.529E-06
CGA:  39    -0.352819230076E+03   -0.36535E-04   -0.36798E-04  7072   0.403E-03-0.373E-05
CGA:  40    -0.352819251722E+03   -0.21646E-04   -0.21637E-04  7072   0.240E-03-0.132E-05
CGA:  41    -0.352819259877E+03   -0.81553E-05   -0.81188E-05  7072   0.157E-03-0.153E-05
   6 F= -.35281926E+03 E0= -.35280068E+03  d E =-.598403E+00  mag=     4.5536
       N       E                     dE             d eps       ncg     rms          ort
SDA:   1    -0.329987576685E+03    0.22832E+02    0.00000E+00  7072   0.138E+03 0.000E+00
CGA:   2    -0.334246018270E+03   -0.42584E+01   -0.51055E+01  7072   0.119E+03-0.394E+01
CGA:   3    -0.341106549356E+03   -0.68605E+01   -0.69421E+01  7072   0.179E+03-0.176E+02
CGA:   4    -0.345507812102E+03   -0.44013E+01   -0.47718E+01  7072   0.212E+03-0.150E+02
CGA:   5    -0.348133124801E+03   -0.26253E+01   -0.31581E+01  7072   0.137E+03-0.953E+02
CGA:   6    -0.348846452905E+03   -0.71333E+00   -0.87093E+00  7072   0.145E+03-0.159E+02
CGA:   7    -0.349696702743E+03   -0.85025E+00   -0.10492E+01  7072   0.734E+02-0.347E+02
CGA:   8    -0.350080589562E+03   -0.38389E+00   -0.41757E+00  7072   0.676E+02-0.553E+01
CGA:   9    -0.350573588449E+03   -0.49300E+00   -0.61162E+00  7072   0.696E+02-0.128E+02
CGA:  10    -0.350858838284E+03   -0.28525E+00   -0.46761E+00  7072   0.570E+02-0.215E+02
CGA:  11    -0.351089118403E+03   -0.23028E+00   -0.30448E+00  7072   0.569E+02-0.864E+01
CGA:  12    -0.351493855190E+03   -0.40474E+00   -0.45958E+00  7072   0.579E+02-0.587E+01
CGA:  13    -0.351873268894E+03   -0.37941E+00   -0.36426E+00  7072   0.384E+02 0.252E+01
CGA:  14    -0.352151593138E+03   -0.27832E+00   -0.26737E+00  7072   0.221E+02 0.119E+01
CGA:  15    -0.352328496854E+03   -0.17690E+00   -0.18228E+00  7072   0.187E+02-0.793E+00
CGA:  16    -0.352458888739E+03   -0.13039E+00   -0.16591E+00  7072   0.144E+02-0.327E+01
CGA:  17    -0.352539821330E+03   -0.80933E-01   -0.87340E-01  7072   0.103E+02-0.805E+00
CGA:  18    -0.352627031121E+03   -0.87210E-01   -0.87938E-01  7072   0.108E+02-0.142E+00
CGA:  19    -0.352724051779E+03   -0.97021E-01   -0.94249E-01  7072   0.888E+01 0.191E+00
CGA:  20    -0.352787890880E+03   -0.63839E-01   -0.62334E-01  7072   0.605E+01 0.145E+00
CGA:  21    -0.352842848634E+03   -0.54958E-01   -0.59107E-01  7072   0.762E+01-0.355E+00
CGA:  22    -0.352913100344E+03   -0.70252E-01   -0.76466E-01  7072   0.815E+01-0.427E+00
CGA:  23    -0.352969555200E+03   -0.56455E-01   -0.61354E-01  7072   0.540E+01-0.525E+00
CGA:  24    -0.353015519783E+03   -0.45965E-01   -0.51622E-01  7072   0.573E+01-0.400E+00
CGA:  25    -0.353076509376E+03   -0.60990E-01   -0.67869E-01  7072   0.458E+01-0.252E+00
CGA:  26    -0.353116979811E+03   -0.40470E-01   -0.41299E-01  7072   0.252E+01-0.752E-01
CGA:  27    -0.353146760402E+03   -0.29781E-01   -0.30992E-01  7072   0.203E+01-0.424E-01
CGA:  28    -0.353169046874E+03   -0.22286E-01   -0.23637E-01  7072   0.101E+01-0.541E-01
CGA:  29    -0.353182747165E+03   -0.13700E-01   -0.14118E-01  7072   0.997E+00-0.467E-02
CGA:  30    -0.353205758583E+03   -0.23011E-01   -0.22997E-01  7072   0.109E+01 0.183E-01
CGA:  31    -0.353223737331E+03   -0.17979E-01   -0.18297E-01  7072   0.875E+00 0.686E-02
SDA:  32    -0.353245670013E+03   -0.21933E-01   -0.21910E-01  7072   0.976E+00 0.536E-02
CGA:  33    -0.353258912759E+03   -0.13243E-01   -0.13248E-01  7072   0.966E-01-0.557E-04
CGA:  34    -0.353266502372E+03   -0.75896E-02   -0.75952E-02  7072   0.172E+00-0.960E-04
CGA:  35    -0.353291128814E+03   -0.24626E-01   -0.55335E-03  7072   0.482E-01-0.172E-01
CGA:  36    -0.353293661201E+03   -0.25324E-02   -0.25298E-02  7072   0.337E-01 0.147E-03
CGA:  37    -0.353295156575E+03   -0.14954E-02   -0.14967E-02  7072   0.215E-01 0.348E-03
CGA:  38    -0.353297704912E+03   -0.25483E-02   -0.25194E-02  7072   0.437E-01 0.432E-03
CGA:  39    -0.353300114825E+03   -0.24099E-02   -0.24120E-02  7072   0.387E-01-0.260E-03
CGA:  40    -0.353300985883E+03   -0.87106E-03   -0.89551E-03  7072   0.552E-02-0.531E-03
CGA:  41    -0.353301643628E+03   -0.65775E-03   -0.65840E-03  7072   0.834E-02-0.863E-05
CGA:  42    -0.353302422491E+03   -0.77886E-03   -0.77108E-03  7072   0.131E-01 0.177E-03
CGA:  43    -0.353303001049E+03   -0.57856E-03   -0.57795E-03  7072   0.962E-02-0.208E-04
CGA:  44    -0.353303346707E+03   -0.34566E-03   -0.34642E-03  7072   0.513E-02 0.105E-04
CGA:  45    -0.353303606282E+03   -0.25957E-03   -0.25964E-03  7072   0.472E-02 0.202E-04
CGA:  46    -0.353304211646E+03   -0.60536E-03   -0.60345E-03  7072   0.492E-02 0.242E-04
CGA:  47    -0.353304476533E+03   -0.26489E-03   -0.26493E-03  7072   0.510E-02 0.169E-04
CGA:  48    -0.353304634100E+03   -0.15757E-03   -0.15824E-03  7072   0.220E-02 0.109E-04
CGA:  49    -0.353304789828E+03   -0.15573E-03   -0.15574E-03  7072   0.239E-02 0.437E-06
CGA:  50    -0.353304999734E+03   -0.20991E-03   -0.20988E-03  7072   0.290E-02 0.121E-05
CGA:  51    -0.353305113750E+03   -0.11402E-03   -0.11387E-03  7072   0.973E-03-0.145E-05
CGA:  52    -0.353305144674E+03   -0.30924E-04   -0.30879E-04  7072   0.715E-03 0.841E-06
CGA:  53    -0.353305189746E+03   -0.45072E-04   -0.45109E-04  7072   0.532E-03-0.464E-05
CGA:  54    -0.353305243393E+03   -0.53648E-04   -0.53781E-04  7072   0.691E-03-0.291E-05
CGA:  55    -0.353305281515E+03   -0.38121E-04   -0.38109E-04  7072   0.688E-03-0.417E-05
CGA:  56    -0.353305299526E+03   -0.18011E-04   -0.18035E-04  7072   0.170E-03-0.212E-06
CGA:  57    -0.353305313604E+03   -0.14078E-04   -0.14084E-04  7072   0.354E-03-0.107E-06
CGA:  58    -0.353305344782E+03   -0.31178E-04   -0.31060E-04  7072   0.289E-03 0.365E-05
CGA:  59    -0.353305357821E+03   -0.13039E-04   -0.13011E-04  7072   0.228E-03-0.135E-05
CGA:  60    -0.353305365088E+03   -0.72664E-05   -0.72567E-05  7072   0.126E-03-0.148E-06
   7 F= -.35330537E+03 E0= -.35328665E+03  d E =-.486105E+00  mag=     4.5974
       N       E                     dE             d eps       ncg     rms          ort
SDA:   1    -0.330297701647E+03    0.23008E+02    0.00000E+00  7072   0.955E+02 0.000E+00
CGA:   2    -0.334190390176E+03   -0.38927E+01   -0.40950E+01  7072   0.137E+03-0.126E+01
CGA:   3    -0.342845702320E+03   -0.86553E+01   -0.95353E+01  7072   0.243E+03-0.558E+02
CGA:   4    -0.346647113871E+03   -0.38014E+01   -0.40562E+01  7072   0.172E+03-0.158E+02
CGA:   5    -0.348685394251E+03   -0.20383E+01   -0.24765E+01  7072   0.498E+02-0.400E+02
CGA:   6    -0.349702789761E+03   -0.10174E+01   -0.87914E+00  7072   0.303E+02 0.261E+01
CGA:   7    -0.350429913582E+03   -0.72712E+00   -0.65916E+00  7072   0.413E+02 0.213E+01
CGA:   8    -0.351658026701E+03   -0.12281E+01   -0.13037E+01  7072   0.349E+02-0.127E+01
CGA:   9    -0.352148915875E+03   -0.49089E+00   -0.53279E+00  7072   0.207E+02-0.208E+01
CGA:  10    -0.352552063313E+03   -0.40315E+00   -0.37415E+00  7072   0.102E+02 0.765E+00
CGA:  11    -0.352746611381E+03   -0.19455E+00   -0.17701E+00  7072   0.715E+01 0.797E+00
CGA:  12    -0.352878837958E+03   -0.13223E+00   -0.13543E+00  7072   0.356E+01-0.157E+00
CGA:  13    -0.352959753258E+03   -0.80915E-01   -0.83554E-01  7072   0.554E+01-0.434E-01
CGA:  14    -0.353112700431E+03   -0.15295E+00   -0.14953E+00  7072   0.424E+01 0.132E-01
CGA:  15    -0.353204895606E+03   -0.92195E-01   -0.88984E-01  7072   0.501E+01 0.786E-01
CGA:  16    -0.353314884624E+03   -0.10999E+00   -0.11530E+00  7072   0.258E+01-0.728E-01
CGA:  17    -0.353352428025E+03   -0.37543E-01   -0.43335E-01  7072   0.151E+01-0.215E+00
CGA:  18    -0.353382911713E+03   -0.30484E-01   -0.31261E-01  7072   0.946E+00-0.823E-02
CGA:  19    -0.353419842031E+03   -0.36930E-01   -0.36929E-01  7072   0.124E+01 0.171E-02
CGA:  20    -0.353447381720E+03   -0.27540E-01   -0.30484E-01  7072   0.739E+00-0.799E-02
CGA:  21    -0.353484605985E+03   -0.37224E-01   -0.37138E-01  7072   0.477E+00 0.313E-02
CGA:  22    -0.353507599325E+03   -0.22993E-01   -0.23077E-01  7072   0.175E+00-0.673E-02
CGA:  23    -0.353513774926E+03   -0.61756E-02   -0.62092E-02  7072   0.158E+00 0.527E-02
CGA:  24    -0.353522019155E+03   -0.82442E-02   -0.82733E-02  7072   0.201E+00-0.173E-02
CGA:  25    -0.353533869532E+03   -0.11850E-01   -0.11666E-01  7072   0.495E-01 0.752E-02
CGA:  26    -0.353536190775E+03   -0.23212E-02   -0.23173E-02  7072   0.298E-01 0.477E-03
CGA:  27    -0.353539023793E+03   -0.28330E-02   -0.28313E-02  7072   0.422E-01 0.348E-04
CGA:  28    -0.353541041765E+03   -0.20180E-02   -0.20151E-02  7072   0.379E-01 0.371E-03
CGA:  29    -0.353542340389E+03   -0.12986E-02   -0.12980E-02  7072   0.181E-01-0.289E-04
CGA:  30    -0.353543149743E+03   -0.80935E-03   -0.80931E-03  7072   0.604E-02 0.141E-04
CGA:  31    -0.353543744731E+03   -0.59499E-03   -0.59334E-03  7072   0.113E-01 0.320E-04
SDA:  32    -0.353544507157E+03   -0.76243E-03   -0.76176E-03  7072   0.588E-02 0.256E-04
CGA:  33    -0.353544692503E+03   -0.18535E-03   -0.18541E-03  7072   0.420E-02-0.196E-05
CGA:  34    -0.353544899964E+03   -0.20746E-03   -0.20738E-03  7072   0.335E-02 0.169E-04
CGA:  35    -0.353545061340E+03   -0.16138E-03   -0.16138E-03  7072   0.344E-02-0.409E-06
CGA:  36    -0.353545484575E+03   -0.42324E-03   -0.42227E-03  7072   0.207E-02 0.132E-04
CGA:  37    -0.353545606945E+03   -0.12237E-03   -0.12235E-03  7072   0.134E-02 0.148E-05
CGA:  38    -0.353545692380E+03   -0.85435E-04   -0.85445E-04  7072   0.267E-02-0.856E-07
CGA:  39    -0.353545807785E+03   -0.11540E-03   -0.11547E-03  7072   0.183E-02 0.913E-05
CGA:  40    -0.353546012318E+03   -0.20453E-03   -0.20337E-03  7072   0.151E-02 0.196E-04
CGA:  41    -0.353546080400E+03   -0.68082E-04   -0.68121E-04  7072   0.890E-03 0.374E-05
CGA:  42    -0.353546168243E+03   -0.87843E-04   -0.87595E-04  7072   0.155E-02 0.519E-05
CGA:  43    -0.353546270779E+03   -0.10254E-03   -0.10258E-03  7072   0.801E-03-0.339E-05
CGA:  44    -0.353546290670E+03   -0.19891E-04   -0.19922E-04  7072   0.424E-03 0.164E-05
CGA:  45    -0.353546320892E+03   -0.30222E-04   -0.30217E-04  7072   0.227E-03 0.254E-06
CGA:  46    -0.353546356217E+03   -0.35324E-04   -0.35365E-04  7072   0.357E-03-0.444E-06
CGA:  47    -0.353546369960E+03   -0.13744E-04   -0.13753E-04  7072   0.225E-03 0.134E-06
CGA:  48    -0.353546376295E+03   -0.63348E-05   -0.63175E-05  7072   0.917E-04-0.352E-06
   8 F= -.35354638E+03 E0= -.35352777E+03  d E =-.241011E+00  mag=     4.6335
       N       E                     dE             d eps       ncg     rms          ort
SDA:   1    -0.331241081284E+03    0.22305E+02    0.00000E+00  7072   0.785E+02 0.000E+00
CGA:   2    -0.335802899341E+03   -0.45618E+01   -0.45774E+01  7072   0.124E+03 0.987E+01
CGA:   3    -0.343614813192E+03   -0.78119E+01   -0.75590E+01  7072   0.175E+03-0.197E+02
CGA:   4    -0.347885117034E+03   -0.42703E+01   -0.45453E+01  7072   0.171E+03-0.140E+02
CGA:   5    -0.349567434403E+03   -0.16823E+01   -0.22921E+01  7072   0.702E+02-0.526E+02
CGA:   6    -0.350401586894E+03   -0.83415E+00   -0.77944E+00  7072   0.420E+02 0.241E+01
CGA:   7    -0.350927679490E+03   -0.52609E+00   -0.45235E+00  7072   0.202E+02 0.568E+01
CGA:   8    -0.351474062581E+03   -0.54638E+00   -0.58843E+00  7072   0.435E+02-0.964E+00
CGA:   9    -0.352140572720E+03   -0.66651E+00   -0.75232E+00  7072   0.290E+02-0.383E+01
CGA:  10    -0.352560367532E+03   -0.41979E+00   -0.44001E+00  7072   0.284E+02-0.104E+01
CGA:  11    -0.352983006815E+03   -0.42264E+00   -0.40651E+00  7072   0.131E+02 0.438E+00
CGA:  12    -0.353113039857E+03   -0.13003E+00   -0.12708E+00  7072   0.412E+01 0.257E+00
CGA:  13    -0.353173452176E+03   -0.60412E-01   -0.61207E-01  7072   0.334E+01-0.431E-01
CGA:  14    -0.353227916217E+03   -0.54464E-01   -0.57121E-01  7072   0.333E+01-0.100E+00
CGA:  15    -0.353314380358E+03   -0.86464E-01   -0.88093E-01  7072   0.655E+01-0.847E-02
CGA:  16    -0.353430891755E+03   -0.11651E+00   -0.11474E+00  7072   0.286E+01 0.606E-01
CGA:  17    -0.353470092812E+03   -0.39201E-01   -0.39908E-01  7072   0.209E+01-0.410E-01
CGA:  18    -0.353522475856E+03   -0.52383E-01   -0.52938E-01  7072   0.228E+01 0.320E-02
CGA:  19    -0.353551843479E+03   -0.29368E-01   -0.33181E-01  7072   0.736E+00-0.169E+00
CGA:  20    -0.353568119281E+03   -0.16276E-01   -0.17091E-01  7072   0.647E+00 0.645E-02
CGA:  21    -0.353582910207E+03   -0.14791E-01   -0.14854E-01  7072   0.439E+00-0.360E-03
CGA:  22    -0.353603553012E+03   -0.20643E-01   -0.20658E-01  7072   0.599E+00-0.675E-03
CGA:  23    -0.353618099895E+03   -0.14547E-01   -0.15079E-01  7072   0.350E+00 0.641E-02
CGA:  24    -0.353629472103E+03   -0.11372E-01   -0.11404E-01  7072   0.166E+00 0.533E-02
CGA:  25    -0.353635804213E+03   -0.63321E-02   -0.63454E-02  7072   0.161E+00-0.254E-02
CGA:  26    -0.353639966797E+03   -0.41626E-02   -0.41816E-02  7072   0.650E-01 0.452E-03
CGA:  27    -0.353643504450E+03   -0.35377E-02   -0.34896E-02  7072   0.103E+00 0.213E-02
CGA:  28    -0.353646750158E+03   -0.32457E-02   -0.32462E-02  7072   0.680E-01 0.189E-04
CGA:  29    -0.353649774444E+03   -0.30243E-02   -0.30213E-02  7072   0.279E-01 0.219E-03
CGA:  30    -0.353650486630E+03   -0.71219E-03   -0.71466E-03  7072   0.206E-01 0.383E-04
CGA:  31    -0.353651822167E+03   -0.13355E-02   -0.13321E-02  7072   0.218E-01 0.110E-03
SDA:  32    -0.353652740436E+03   -0.91827E-03   -0.91845E-03  7072   0.218E-01-0.208E-04
CGA:  33    -0.353653226465E+03   -0.48603E-03   -0.48636E-03  7072   0.918E-02 0.342E-05
CGA:  34    -0.353653718780E+03   -0.49232E-03   -0.49285E-03  7072   0.528E-02-0.275E-04
CGA:  35    -0.353654210283E+03   -0.49150E-03   -0.49123E-03  7072   0.835E-02 0.546E-05
CGA:  36    -0.353654788554E+03   -0.57827E-03   -0.57788E-03  7072   0.675E-02 0.119E-04
CGA:  37    -0.353655165168E+03   -0.37661E-03   -0.37626E-03  7072   0.273E-02 0.193E-04
CGA:  38    -0.353655400007E+03   -0.23484E-03   -0.23374E-03  7072   0.459E-02 0.252E-04
CGA:  39    -0.353655543938E+03   -0.14393E-03   -0.14388E-03  7072   0.292E-02-0.156E-05
CGA:  40    -0.353655887622E+03   -0.34368E-03   -0.34269E-03  7072   0.191E-02 0.140E-04
CGA:  41    -0.353656020906E+03   -0.13328E-03   -0.13311E-03  7072   0.129E-02 0.727E-05
CGA:  42    -0.353656211737E+03   -0.19083E-03   -0.18938E-03  7072   0.178E-02 0.150E-04
CGA:  43    -0.353656283069E+03   -0.71333E-04   -0.71355E-04  7072   0.160E-02 0.854E-06
CGA:  44    -0.353656359055E+03   -0.75986E-04   -0.76029E-04  7072   0.108E-02 0.553E-05
CGA:  45    -0.353656398459E+03   -0.39404E-04   -0.39411E-04  7072   0.393E-03 0.521E-06
CGA:  46    -0.353656441537E+03   -0.43078E-04   -0.42910E-04  7072   0.613E-03 0.287E-05
CGA:  47    -0.353656493026E+03   -0.51488E-04   -0.51392E-04  7072   0.373E-03 0.328E-05
CGA:  48    -0.353656528550E+03   -0.35525E-04   -0.35465E-04  7072   0.105E-03 0.146E-05
CGA:  49    -0.353656547520E+03   -0.18969E-04   -0.18700E-04  7072   0.389E-03 0.217E-05
CGA:  50    -0.353656564206E+03   -0.16686E-04   -0.16710E-04  7072   0.164E-03 0.113E-05
CGA:  51    -0.353656568893E+03   -0.46872E-05   -0.47142E-05  7072   0.870E-04 0.792E-06
   9 F= -.35365657E+03 E0= -.35363834E+03  d E =-.110193E+00  mag=     4.6504
       N       E                     dE             d eps       ncg     rms          ort
SDA:   1    -0.317857731276E+03    0.35799E+02    0.00000E+00  7072   0.166E+03 0.000E+00
CGA:   2    -0.325087079453E+03   -0.72293E+01   -0.79682E+01  7072   0.213E+03 0.535E+01
CGA:   3    -0.335044614119E+03   -0.99575E+01   -0.94947E+01  7072   0.170E+03-0.132E-01
CGA:   4    -0.344086262808E+03   -0.90416E+01   -0.86193E+01  7072   0.155E+03-0.170E+02
CGA:   5    -0.347657581830E+03   -0.35713E+01   -0.38730E+01  7072   0.663E+02-0.220E+01
CGA:   6    -0.349224168881E+03   -0.15666E+01   -0.15215E+01  7072   0.619E+02-0.235E+01
CGA:   7    -0.350783279304E+03   -0.15591E+01   -0.14662E+01  7072   0.250E+02 0.683E+00
CGA:   8    -0.351444803889E+03   -0.66152E+00   -0.68882E+00  7072   0.420E+02-0.712E+00
CGA:   9    -0.352478287769E+03   -0.10335E+01   -0.10487E+01  7072   0.228E+02-0.719E+00
CGA:  10    -0.352784902280E+03   -0.30661E+00   -0.25878E+00  7072   0.923E+01 0.346E+01
CGA:  11    -0.352992935048E+03   -0.20803E+00   -0.22158E+00  7072   0.938E+01-0.559E+00
CGA:  12    -0.353115749814E+03   -0.12281E+00   -0.12813E+00  7072   0.590E+01-0.205E+00
CGA:  13    -0.353217965626E+03   -0.10222E+00   -0.10363E+00  7072   0.495E+01-0.249E-01
CGA:  14    -0.353307521830E+03   -0.89556E-01   -0.10040E+00  7072   0.500E+01-0.324E+00
CGA:  15    -0.353441073724E+03   -0.13355E+00   -0.12656E+00  7072   0.498E+01 0.175E+00
CGA:  16    -0.353513482182E+03   -0.72408E-01   -0.69978E-01  7072   0.184E+01 0.197E+00
CGA:  17    -0.353552367692E+03   -0.38886E-01   -0.39255E-01  7072   0.198E+01-0.105E-01
CGA:  18    -0.353590147252E+03   -0.37780E-01   -0.36827E-01  7072   0.106E+01 0.226E-01
CGA:  19    -0.353607535449E+03   -0.17388E-01   -0.17743E-01  7072   0.109E+01-0.144E-01
CGA:  20    -0.353644185217E+03   -0.36650E-01   -0.36465E-01  7072   0.180E+01-0.127E-01
CGA:  21    -0.353670050880E+03   -0.25866E-01   -0.31115E-01  7072   0.954E+00-0.169E+00
CGA:  22    -0.353693736971E+03   -0.23686E-01   -0.24825E-01  7072   0.827E+00 0.287E-01
CGA:  23    -0.353708561438E+03   -0.14824E-01   -0.14202E-01  7072   0.223E+00 0.205E-01
CGA:  24    -0.353715863035E+03   -0.73016E-02   -0.73027E-02  7072   0.227E+00 0.626E-04
CGA:  25    -0.353721898826E+03   -0.60358E-02   -0.62275E-02  7072   0.192E+00 0.478E-02
CGA:  26    -0.353734677392E+03   -0.12779E-01   -0.12355E-01  7072   0.219E+00 0.132E-01
CGA:  27    -0.353741094291E+03   -0.64169E-02   -0.63394E-02  7072   0.144E+00-0.136E-02
CGA:  28    -0.353745343681E+03   -0.42494E-02   -0.42647E-02  7072   0.600E-01 0.709E-03
CGA:  29    -0.353747221691E+03   -0.18780E-02   -0.18924E-02  7072   0.540E-01 0.115E-02
CGA:  30    -0.353749298855E+03   -0.20772E-02   -0.20753E-02  7072   0.456E-01 0.525E-03
CGA:  31    -0.353752066293E+03   -0.27674E-02   -0.27748E-02  7072   0.579E-01-0.259E-03
SDA:  32    -0.353753791685E+03   -0.17254E-02   -0.17298E-02  7072   0.353E-01 0.194E-03
CGA:  33    -0.353754647861E+03   -0.85618E-03   -0.85092E-03  7072   0.100E-01 0.164E-05
CGA:  34    -0.353755043543E+03   -0.39568E-03   -0.39548E-03  7072   0.878E-02 0.346E-04
CGA:  35    -0.353756009143E+03   -0.96560E-03   -0.96780E-03  7072   0.173E-01-0.314E-04
CGA:  36    -0.353756852864E+03   -0.84372E-03   -0.84357E-03  7072   0.655E-02 0.990E-05
CGA:  37    -0.353757331134E+03   -0.47827E-03   -0.47843E-03  7072   0.316E-02-0.466E-05
CGA:  38    -0.353757638135E+03   -0.30700E-03   -0.30708E-03  7072   0.100E-01-0.192E-05
CGA:  39    -0.353758027063E+03   -0.38893E-03   -0.38922E-03  7072   0.383E-02 0.276E-04
CGA:  40    -0.353758330138E+03   -0.30307E-03   -0.30181E-03  7072   0.370E-02 0.355E-04
CGA:  41    -0.353758631669E+03   -0.30153E-03   -0.30221E-03  7072   0.209E-02-0.178E-04
CGA:  42    -0.353758740512E+03   -0.10884E-03   -0.10882E-03  7072   0.291E-02 0.390E-05
CGA:  43    -0.353758930545E+03   -0.19003E-03   -0.19002E-03  7072   0.301E-02 0.356E-06
CGA:  44    -0.353759015139E+03   -0.84594E-04   -0.84861E-04  7072   0.638E-03-0.696E-06
CGA:  45    -0.353759090252E+03   -0.75113E-04   -0.75201E-04  7072   0.779E-03-0.140E-05
CGA:  46    -0.353759160848E+03   -0.70596E-04   -0.70598E-04  7072   0.676E-03-0.271E-06
CGA:  47    -0.353759191764E+03   -0.30916E-04   -0.30932E-04  7072   0.821E-03 0.195E-05
CGA:  48    -0.353759223556E+03   -0.31792E-04   -0.31790E-04  7072   0.146E-03 0.101E-06
CGA:  49    -0.353759239116E+03   -0.15560E-04   -0.15507E-04  7072   0.352E-03 0.897E-06
CGA:  50    -0.353759263460E+03   -0.24344E-04   -0.24330E-04  7072   0.138E-03 0.900E-06
CGA:  51    -0.353759269924E+03   -0.64634E-05   -0.64670E-05  7072   0.598E-04 0.352E-06
  10 F= -.35375927E+03 E0= -.35374153E+03  d E =-.102701E+00  mag=     4.6095
       N       E                     dE             d eps       ncg     rms          ort
SDA:   1    -0.335548505439E+03    0.18211E+02    0.00000E+00  7072   0.746E+02 0.000E+00
CGA:   2    -0.338641046282E+03   -0.30925E+01   -0.32785E+01  7072   0.109E+03-0.886E+00
CGA:   3    -0.345387526633E+03   -0.67465E+01   -0.69295E+01  7072   0.117E+03-0.188E+02
CGA:   4    -0.350403074012E+03   -0.50155E+01   -0.49304E+01  7072   0.246E+02-0.379E+01
CGA:   5    -0.350991593544E+03   -0.58852E+00   -0.65643E+00  7072   0.297E+02-0.196E+01
CGA:   6    -0.352126963466E+03   -0.11354E+01   -0.10881E+01  7072   0.283E+02-0.567E+00
CGA:   7    -0.353014918883E+03   -0.88796E+00   -0.83927E+00  7072   0.712E+01 0.111E+01
CGA:   8    -0.353230528057E+03   -0.21561E+00   -0.22809E+00  7072   0.391E+01-0.173E+00
CGA:   9    -0.353352424782E+03   -0.12190E+00   -0.11756E+00  7072   0.414E+01 0.540E-01
CGA:  10    -0.353487313487E+03   -0.13489E+00   -0.13609E+00  7072   0.205E+01-0.525E-02
CGA:  11    -0.353628898494E+03   -0.14159E+00   -0.13932E+00  7072   0.151E+01 0.970E-01
CGA:  12    -0.353672707297E+03   -0.43809E-01   -0.42461E-01  7072   0.498E+00 0.287E-01
CGA:  13    -0.353715466880E+03   -0.42760E-01   -0.41770E-01  7072   0.765E+00 0.257E-01
CGA:  14    -0.353754311675E+03   -0.38845E-01   -0.39229E-01  7072   0.383E+00 0.495E-01
CGA:  15    -0.353764860728E+03   -0.10549E-01   -0.10399E-01  7072   0.322E+00 0.290E-02
CGA:  16    -0.353780464035E+03   -0.15603E-01   -0.15678E-01  7072   0.215E+00 0.151E-01
CGA:  17    -0.353787916096E+03   -0.74521E-02   -0.78483E-02  7072   0.961E-01 0.207E-02
CGA:  18    -0.353791915927E+03   -0.39998E-02   -0.39613E-02  7072   0.112E+00-0.127E-02
CGA:  19    -0.353797138432E+03   -0.52225E-02   -0.52553E-02  7072   0.919E-01 0.818E-02
CGA:  20    -0.353801018612E+03   -0.38802E-02   -0.39306E-02  7072   0.195E-01 0.149E-02
CGA:  21    -0.353802209624E+03   -0.11910E-02   -0.11929E-02  7072   0.296E-01-0.120E-03
CGA:  22    -0.353803549776E+03   -0.13402E-02   -0.13460E-02  7072   0.244E-01 0.699E-03
CGA:  23    -0.353804584881E+03   -0.10351E-02   -0.10367E-02  7072   0.123E-01 0.626E-04
CGA:  24    -0.353805316177E+03   -0.73130E-03   -0.72970E-03  7072   0.620E-02 0.105E-03
CGA:  25    -0.353805752417E+03   -0.43624E-03   -0.43581E-03  7072   0.453E-02 0.149E-04
CGA:  26    -0.353806139125E+03   -0.38671E-03   -0.38450E-03  7072   0.427E-02 0.569E-04
CGA:  27    -0.353806321235E+03   -0.18211E-03   -0.18252E-03  7072   0.323E-02 0.131E-04
CGA:  28    -0.353806452202E+03   -0.13097E-03   -0.13094E-03  7072   0.200E-02-0.364E-05
CGA:  29    -0.353806550420E+03   -0.98218E-04   -0.98234E-04  7072   0.133E-02 0.510E-05
CGA:  30    -0.353806671143E+03   -0.12072E-03   -0.12049E-03  7072   0.117E-02 0.523E-05
CGA:  31    -0.353806754269E+03   -0.83126E-04   -0.83064E-04  7072   0.935E-03 0.309E-05
SDA:  32    -0.353806799771E+03   -0.45502E-04   -0.45499E-04  7072   0.112E-02-0.798E-06
CGA:  33    -0.353806822010E+03   -0.22238E-04   -0.22315E-04  7072   0.346E-03 0.145E-05
CGA:  34    -0.353806855485E+03   -0.33476E-04   -0.33395E-04  7072   0.573E-03 0.158E-05
CGA:  35    -0.353806922453E+03   -0.66968E-04   -0.66680E-04  7072   0.459E-03 0.438E-05
CGA:  36    -0.353806956494E+03   -0.34041E-04   -0.33980E-04  7072   0.367E-03 0.350E-05
CGA:  37    -0.353806971429E+03   -0.14935E-04   -0.14927E-04  7072   0.254E-03-0.412E-06
CGA:  38    -0.353806984470E+03   -0.13041E-04   -0.13042E-04  7072   0.307E-03 0.286E-06
CGA:  39    -0.353807003319E+03   -0.18849E-04   -0.18850E-04  7072   0.283E-03-0.420E-06
CGA:  40    -0.353807024662E+03   -0.21343E-04   -0.21308E-04  7072   0.152E-03 0.166E-05
CGA:  41    -0.353807035489E+03   -0.10827E-04   -0.10832E-04  7072   0.973E-04-0.407E-06
CGA:  42    -0.353807051432E+03   -0.15943E-04   -0.15913E-04  7072   0.910E-04 0.176E-06
CGA:  43    -0.353807054515E+03   -0.30825E-05   -0.31018E-05  7072   0.681E-04 0.585E-06
  11 F= -.35380705E+03 E0= -.35378928E+03  d E =-.477846E-01  mag=     4.5842
       N       E                     dE             d eps       ncg     rms          ort
SDA:   1    -0.332967422311E+03    0.20840E+02    0.00000E+00  7072   0.736E+02 0.000E+00
CGA:   2    -0.337878830132E+03   -0.49114E+01   -0.48080E+01  7072   0.115E+03 0.163E+02
CGA:   3    -0.344420608184E+03   -0.65418E+01   -0.62120E+01  7072   0.109E+03-0.428E+00
CGA:   4    -0.348545282468E+03   -0.41247E+01   -0.41349E+01  7072   0.981E+02-0.816E+01
CGA:   5    -0.350108010323E+03   -0.15627E+01   -0.17893E+01  7072   0.569E+02-0.112E+02
CGA:   6    -0.351304666528E+03   -0.11967E+01   -0.10780E+01  7072   0.259E+02 0.444E+01
CGA:   7    -0.351878891057E+03   -0.57422E+00   -0.53239E+00  7072   0.246E+02 0.270E+00
CGA:   8    -0.352360272923E+03   -0.48138E+00   -0.44386E+00  7072   0.192E+02 0.132E+01
CGA:   9    -0.352671325333E+03   -0.31105E+00   -0.32090E+00  7072   0.205E+02-0.551E+00
CGA:  10    -0.353118370515E+03   -0.44705E+00   -0.48578E+00  7072   0.251E+02-0.998E+00
CGA:  11    -0.353399443031E+03   -0.28107E+00   -0.30955E+00  7072   0.701E+01-0.160E+01
CGA:  12    -0.353485675960E+03   -0.86233E-01   -0.79181E-01  7072   0.383E+01 0.466E+00
CGA:  13    -0.353554295766E+03   -0.68620E-01   -0.65414E-01  7072   0.255E+01 0.140E+00
CGA:  14    -0.353589266082E+03   -0.34970E-01   -0.36086E-01  7072   0.167E+01-0.673E-01
CGA:  15    -0.353627883118E+03   -0.38617E-01   -0.39893E-01  7072   0.286E+01-0.172E-01
CGA:  16    -0.353694089850E+03   -0.66207E-01   -0.69055E-01  7072   0.277E+01-0.221E-01
CGA:  17    -0.353740393414E+03   -0.46304E-01   -0.39051E-01  7072   0.155E+01 0.400E+00
CGA:  18    -0.353766517514E+03   -0.26124E-01   -0.26527E-01  7072   0.882E+00-0.126E-01
CGA:  19    -0.353780693795E+03   -0.14176E-01   -0.14995E-01  7072   0.689E+00-0.281E-01
CGA:  20    -0.353794893048E+03   -0.14199E-01   -0.14454E-01  7072   0.550E+00-0.500E-02
CGA:  21    -0.353803174058E+03   -0.82810E-02   -0.83329E-02  7072   0.323E+00-0.226E-02
CGA:  22    -0.353812577203E+03   -0.94031E-02   -0.92298E-02  7072   0.606E+00-0.687E-02
CGA:  23    -0.353823752656E+03   -0.11175E-01   -0.11255E-01  7072   0.540E+00-0.189E-02
CGA:  24    -0.353830676977E+03   -0.69243E-02   -0.77445E-02  7072   0.272E+00-0.339E-01
CGA:  25    -0.353836821320E+03   -0.61443E-02   -0.63500E-02  7072   0.268E+00 0.407E-02
CGA:  26    -0.353841488049E+03   -0.46667E-02   -0.46133E-02  7072   0.907E-01 0.132E-02
CGA:  27    -0.353844100447E+03   -0.26124E-02   -0.26065E-02  7072   0.118E+00-0.661E-03
CGA:  28    -0.353846801488E+03   -0.27010E-02   -0.27366E-02  7072   0.610E-01 0.621E-03
CGA:  29    -0.353848303560E+03   -0.15021E-02   -0.15204E-02  7072   0.751E-01 0.653E-03
CGA:  30    -0.353852009531E+03   -0.37060E-02   -0.36634E-02  7072   0.617E-01 0.205E-02
CGA:  31    -0.353853209392E+03   -0.11999E-02   -0.12011E-02  7072   0.292E-01-0.472E-04
SDA:  32    -0.353854234935E+03   -0.10255E-02   -0.10259E-02  7072   0.222E-01-0.659E-04
CGA:  33    -0.353854717372E+03   -0.48244E-03   -0.48351E-03  7072   0.816E-02 0.201E-04
CGA:  34    -0.353855242356E+03   -0.52498E-03   -0.52491E-03  7072   0.119E-01 0.228E-05
CGA:  35    -0.353856324317E+03   -0.10820E-02   -0.10758E-02  7072   0.128E-01 0.118E-03
CGA:  36    -0.353856935423E+03   -0.61111E-03   -0.61098E-03  7072   0.357E-02 0.897E-05
CGA:  37    -0.353857141759E+03   -0.20634E-03   -0.20598E-03  7072   0.318E-02 0.152E-04
CGA:  38    -0.353857348410E+03   -0.20665E-03   -0.20548E-03  7072   0.564E-02 0.407E-04
CGA:  39    -0.353857575584E+03   -0.22717E-03   -0.22719E-03  7072   0.176E-02-0.388E-05
CGA:  40    -0.353857754936E+03   -0.17935E-03   -0.17697E-03  7072   0.128E-02 0.415E-04
CGA:  41    -0.353857843115E+03   -0.88179E-04   -0.88089E-04  7072   0.964E-03 0.295E-05
CGA:  42    -0.353857895176E+03   -0.52061E-04   -0.51991E-04  7072   0.181E-02 0.534E-05
CGA:  43    -0.353858035764E+03   -0.14059E-03   -0.14059E-03  7072   0.918E-03-0.190E-06
CGA:  44    -0.353858072281E+03   -0.36517E-04   -0.36529E-04  7072   0.453E-03 0.138E-05
CGA:  45    -0.353858115561E+03   -0.43280E-04   -0.43185E-04  7072   0.426E-03 0.176E-05
CGA:  46    -0.353858145785E+03   -0.30224E-04   -0.30198E-04  7072   0.420E-03 0.115E-05
CGA:  47    -0.353858177401E+03   -0.31616E-04   -0.31523E-04  7072   0.635E-03 0.334E-05
CGA:  48    -0.353858194527E+03   -0.17127E-04   -0.17214E-04  7072   0.727E-04 0.293E-05
CGA:  49    -0.353858203595E+03   -0.90675E-05   -0.92403E-05  7072   0.149E-03-0.231E-05
CGA:  50    -0.353858214800E+03   -0.11206E-04   -0.11264E-04  7072   0.107E-03-0.236E-05
CGA:  51    -0.353858218339E+03   -0.35390E-05   -0.35117E-05  7072   0.667E-04-0.140E-05
  12 F= -.35385822E+03 E0= -.35384076E+03  d E =-.511638E-01  mag=     4.5631
       N       E                     dE             d eps       ncg     rms          ort
SDA:   1    -0.350262289235E+03    0.35959E+01    0.00000E+00  7072   0.129E+02 0.000E+00
CGA:   2    -0.350988896392E+03   -0.72661E+00   -0.72546E+00  7072   0.233E+02 0.240E+00
CGA:   3    -0.352451501162E+03   -0.14626E+01   -0.14683E+01  7072   0.215E+02-0.461E+00
CGA:   4    -0.353096005351E+03   -0.64450E+00   -0.64848E+00  7072   0.522E+01 0.113E+00
CGA:   5    -0.353381042759E+03   -0.28504E+00   -0.28521E+00  7072   0.466E+01-0.630E-01
CGA:   6    -0.353629107057E+03   -0.24806E+00   -0.24822E+00  7072   0.586E+01-0.825E-01
CGA:   7    -0.353773428630E+03   -0.14432E+00   -0.14745E+00  7072   0.792E+00-0.781E-01
CGA:   8    -0.353808614312E+03   -0.35186E-01   -0.35530E-01  7072   0.624E+00 0.206E-01
CGA:   9    -0.353836543141E+03   -0.27929E-01   -0.27979E-01  7072   0.600E+00 0.213E-02
CGA:  10    -0.353857411592E+03   -0.20868E-01   -0.21051E-01  7072   0.295E+00 0.679E-03
CGA:  11    -0.353870248302E+03   -0.12837E-01   -0.12841E-01  7072   0.104E+00 0.281E-03
CGA:  12    -0.353875343541E+03   -0.50952E-02   -0.50942E-02  7072   0.115E+00-0.583E-03
CGA:  13    -0.353879128192E+03   -0.37847E-02   -0.38116E-02  7072   0.575E-01 0.153E-04
CGA:  14    -0.353882290889E+03   -0.31627E-02   -0.31586E-02  7072   0.399E-01 0.392E-03
CGA:  15    -0.353884337567E+03   -0.20467E-02   -0.20472E-02  7072   0.331E-01-0.195E-03
CGA:  16    -0.353885390212E+03   -0.10526E-02   -0.10590E-02  7072   0.165E-01-0.233E-04
CGA:  17    -0.353886031243E+03   -0.64103E-03   -0.64175E-03  7072   0.759E-02 0.645E-05
CGA:  18    -0.353886694307E+03   -0.66306E-03   -0.66461E-03  7072   0.891E-02-0.386E-04
CGA:  19    -0.353887030558E+03   -0.33625E-03   -0.33704E-03  7072   0.752E-02 0.127E-04
CGA:  20    -0.353887380286E+03   -0.34973E-03   -0.34975E-03  7072   0.425E-02-0.282E-05
CGA:  21    -0.353887559571E+03   -0.17929E-03   -0.17937E-03  7072   0.150E-02 0.326E-05
CGA:  22    -0.353887699180E+03   -0.13961E-03   -0.13881E-03  7072   0.339E-02 0.175E-04
CGA:  23    -0.353887860599E+03   -0.16142E-03   -0.16142E-03  7072   0.299E-02 0.225E-05
CGA:  24    -0.353887968183E+03   -0.10758E-03   -0.10795E-03  7072   0.842E-03 0.860E-05
CGA:  25    -0.353888031053E+03   -0.62870E-04   -0.62783E-04  7072   0.863E-03 0.322E-05
CGA:  26    -0.353888077604E+03   -0.46551E-04   -0.46547E-04  7072   0.909E-03 0.150E-05
CGA:  27    -0.353888119976E+03   -0.42372E-04   -0.42404E-04  7072   0.949E-03 0.569E-05
CGA:  28    -0.353888166763E+03   -0.46787E-04   -0.46795E-04  7072   0.336E-03 0.362E-05
CGA:  29    -0.353888187159E+03   -0.20396E-04   -0.20373E-04  7072   0.243E-03 0.227E-05
CGA:  30    -0.353888201330E+03   -0.14171E-04   -0.14158E-04  7072   0.391E-03 0.191E-05
CGA:  31    -0.353888222305E+03   -0.20975E-04   -0.20973E-04  7072   0.339E-03 0.692E-06
SDA:  32    -0.353888237764E+03   -0.15459E-04   -0.15471E-04  7072   0.129E-03 0.148E-05
CGA:  33    -0.353888242784E+03   -0.50197E-05   -0.50124E-05  7072   0.818E-04-0.677E-06
  13 F= -.35388824E+03 E0= -.35387058E+03  d E =-.300244E-01  mag=     4.5944
       N       E                     dE             d eps       ncg     rms          ort
SDA:   1    -0.352982859200E+03    0.90538E+00    0.00000E+00  7072   0.303E+01 0.000E+00
CGA:   2    -0.353297594517E+03   -0.31474E+00   -0.31824E+00  7072   0.604E+01-0.604E-01
CGA:   3    -0.353654030188E+03   -0.35644E+00   -0.35639E+00  7072   0.202E+01 0.790E-02
CGA:   4    -0.353742485628E+03   -0.88455E-01   -0.89187E-01  7072   0.107E+01 0.104E-01
CGA:   5    -0.353828768488E+03   -0.86283E-01   -0.86582E-01  7072   0.179E+01-0.955E-02
CGA:   6    -0.353874493461E+03   -0.45725E-01   -0.46763E-01  7072   0.292E+00-0.233E-01
CGA:   7    -0.353889899650E+03   -0.15406E-01   -0.15416E-01  7072   0.147E+00 0.184E-02
CGA:   8    -0.353899814066E+03   -0.99144E-02   -0.99395E-02  7072   0.127E+00-0.150E-02
CGA:   9    -0.353903873986E+03   -0.40599E-02   -0.40483E-02  7072   0.732E-01 0.142E-03
CGA:  10    -0.353907399964E+03   -0.35260E-02   -0.35293E-02  7072   0.405E-01 0.164E-03
CGA:  11    -0.353908971471E+03   -0.15715E-02   -0.15769E-02  7072   0.126E-01 0.211E-04
CGA:  12    -0.353910128676E+03   -0.11572E-02   -0.11588E-02  7072   0.191E-01-0.394E-04
CGA:  13    -0.353910816346E+03   -0.68767E-03   -0.68741E-03  7072   0.135E-01-0.205E-04
CGA:  14    -0.353911354047E+03   -0.53770E-03   -0.53816E-03  7072   0.353E-02-0.498E-05
CGA:  15    -0.353911642834E+03   -0.28879E-03   -0.28906E-03  7072   0.386E-02-0.101E-04
CGA:  16    -0.353911850402E+03   -0.20757E-03   -0.20755E-03  7072   0.498E-02-0.119E-04
CGA:  17    -0.353912073689E+03   -0.22329E-03   -0.22328E-03  7072   0.328E-02-0.381E-05
CGA:  18    -0.353912210275E+03   -0.13659E-03   -0.13656E-03  7072   0.158E-02-0.159E-05
CGA:  19    -0.353912326333E+03   -0.11606E-03   -0.11605E-03  7072   0.117E-02 0.871E-06
CGA:  20    -0.353912409557E+03   -0.83223E-04   -0.83131E-04  7072   0.246E-02 0.545E-05
CGA:  21    -0.353912511859E+03   -0.10230E-03   -0.10230E-03  7072   0.117E-02 0.140E-05
CGA:  22    -0.353912575323E+03   -0.63465E-04   -0.63470E-04  7072   0.508E-03 0.360E-05
CGA:  23    -0.353912614224E+03   -0.38901E-04   -0.38820E-04  7072   0.648E-03 0.387E-05
CGA:  24    -0.353912640536E+03   -0.26311E-04   -0.26331E-04  7072   0.417E-03 0.137E-05
CGA:  25    -0.353912658186E+03   -0.17650E-04   -0.17685E-04  7072   0.365E-03 0.262E-05
CGA:  26    -0.353912682786E+03   -0.24601E-04   -0.24568E-04  7072   0.149E-03 0.267E-05
CGA:  27    -0.353912690904E+03   -0.81176E-05   -0.81182E-05  7072   0.894E-04 0.357E-06
  14 F= -.35391269E+03 E0= -.35389495E+03  d E =-.244481E-01  mag=     4.6107
       N       E                     dE             d eps       ncg     rms          ort
SDA:   1    -0.350907100621E+03    0.30056E+01    0.00000E+00  7072   0.877E+01 0.000E+00
CGA:   2    -0.351755033879E+03   -0.84793E+00   -0.85459E+00  7072   0.305E+02-0.116E-01
CGA:   3    -0.353080316667E+03   -0.13253E+01   -0.13198E+01  7072   0.967E+01-0.950E-01
CGA:   4    -0.353389471873E+03   -0.30916E+00   -0.32324E+00  7072   0.319E+01-0.133E+00
CGA:   5    -0.353646632900E+03   -0.25716E+00   -0.25504E+00  7072   0.386E+01 0.669E-01
CGA:   6    -0.353839135348E+03   -0.19250E+00   -0.19078E+00  7072   0.110E+01-0.621E-01
CGA:   7    -0.353865307398E+03   -0.26172E-01   -0.26379E-01  7072   0.460E+00-0.601E-02
CGA:   8    -0.353895805396E+03   -0.30498E-01   -0.30574E-01  7072   0.304E+00-0.443E-02
CGA:   9    -0.353915671188E+03   -0.19866E-01   -0.19840E-01  7072   0.148E+00 0.166E-02
CGA:  10    -0.353921956299E+03   -0.62851E-02   -0.62760E-02  7072   0.112E+00-0.106E-03
CGA:  11    -0.353926388815E+03   -0.44325E-02   -0.44577E-02  7072   0.559E-01 0.196E-03
CGA:  12    -0.353928784431E+03   -0.23956E-02   -0.23939E-02  7072   0.336E-01-0.456E-04
CGA:  13    -0.353931120261E+03   -0.23358E-02   -0.23292E-02  7072   0.211E-01 0.299E-03
CGA:  14    -0.353932342369E+03   -0.12221E-02   -0.12222E-02  7072   0.182E-01-0.403E-04
CGA:  15    -0.353932853396E+03   -0.51103E-03   -0.51247E-03  7072   0.606E-02-0.304E-04
CGA:  16    -0.353933390753E+03   -0.53736E-03   -0.53777E-03  7072   0.693E-02-0.127E-04
CGA:  17    -0.353933865038E+03   -0.47429E-03   -0.47401E-03  7072   0.537E-02 0.115E-04
CGA:  18    -0.353934057139E+03   -0.19210E-03   -0.19186E-03  7072   0.343E-02-0.511E-05
CGA:  19    -0.353934257882E+03   -0.20074E-03   -0.20065E-03  7072   0.332E-02 0.173E-04
CGA:  20    -0.353934422487E+03   -0.16461E-03   -0.16461E-03  7072   0.180E-02 0.105E-05
CGA:  21    -0.353934630443E+03   -0.20796E-03   -0.20678E-03  7072   0.306E-02 0.195E-04
CGA:  22    -0.353934732485E+03   -0.10204E-03   -0.10203E-03  7072   0.144E-02 0.136E-05
CGA:  23    -0.353934792529E+03   -0.60044E-04   -0.60162E-04  7072   0.675E-03 0.450E-05
CGA:  24    -0.353934884997E+03   -0.92469E-04   -0.92007E-04  7072   0.113E-02 0.568E-05
CGA:  25    -0.353934923758E+03   -0.38761E-04   -0.38848E-04  7072   0.464E-03 0.293E-05
CGA:  26    -0.353934942808E+03   -0.19049E-04   -0.19041E-04  7072   0.323E-03-0.600E-06
CGA:  27    -0.353934963452E+03   -0.20645E-04   -0.20634E-04  7072   0.312E-03 0.150E-05
CGA:  28    -0.353934986904E+03   -0.23452E-04   -0.23443E-04  7072   0.201E-03 0.416E-06
CGA:  29    -0.353934995012E+03   -0.81079E-05   -0.81363E-05  7072   0.175E-03 0.141E-05
  15 F= -.35393500E+03 E0= -.35391736E+03  d E =-.223041E-01  mag=     4.6340
       N       E                     dE             d eps       ncg     rms          ort
SDA:   1    -0.328498223191E+03    0.25437E+02    0.00000E+00  7072   0.817E+02 0.000E+00
CGA:   2    -0.333582749573E+03   -0.50845E+01   -0.50271E+01  7072   0.170E+03 0.860E+01
CGA:   3    -0.344473499666E+03   -0.10891E+02   -0.11339E+02  7072   0.273E+03-0.981E+02
CGA:   4    -0.345504247692E+03   -0.10307E+01   -0.68136E+01  7072   0.155E+03-0.100E+03
CGA:   5    -0.347994371824E+03   -0.24901E+01   -0.13757E+01  7072   0.623E+02 0.701E+02
CGA:   6    -0.348839006173E+03   -0.84463E+00   -0.56480E+00  7072   0.176E+02 0.406E+02
CGA:   7    -0.349403816178E+03   -0.56481E+00   -0.47599E+00  7072   0.194E+02 0.142E+01
CGA:   8    -0.351209356035E+03   -0.18055E+01   -0.16796E+01  7072   0.399E+02 0.338E+01
CGA:   9    -0.352805982455E+03   -0.15966E+01   -0.17175E+01  7072   0.268E+02 0.101E+01
CGA:  10    -0.353295034536E+03   -0.48905E+00   -0.42999E+00  7072   0.523E+01 0.274E+01
CGA:  11    -0.353477839046E+03   -0.18280E+00   -0.18215E+00  7072   0.492E+01-0.208E-02
CGA:  12    -0.353619401926E+03   -0.14156E+00   -0.14911E+00  7072   0.432E+01-0.264E-01
CGA:  13    -0.353809868939E+03   -0.19047E+00   -0.19055E+00  7072   0.280E+01 0.113E-01
CGA:  14    -0.353863831192E+03   -0.53962E-01   -0.53432E-01  7072   0.814E+00 0.153E-01
CGA:  15    -0.353889631997E+03   -0.25801E-01   -0.26484E-01  7072   0.474E+00 0.462E-02
CGA:  16    -0.353906181816E+03   -0.16550E-01   -0.16767E-01  7072   0.462E+00 0.466E-02
CGA:  17    -0.353923015762E+03   -0.16834E-01   -0.16776E-01  7072   0.217E+00-0.168E-02
CGA:  18    -0.353934225207E+03   -0.11209E-01   -0.11221E-01  7072   0.265E+00-0.104E-02
CGA:  19    -0.353942769151E+03   -0.85439E-02   -0.86164E-02  7072   0.166E+00 0.805E-03
CGA:  20    -0.353949915247E+03   -0.71461E-02   -0.71478E-02  7072   0.703E-01 0.610E-03
CGA:  21    -0.353953387430E+03   -0.34722E-02   -0.34713E-02  7072   0.112E+00 0.949E-04
CGA:  22    -0.353958146126E+03   -0.47587E-02   -0.47609E-02  7072   0.437E-01 0.501E-03
CGA:  23    -0.353960485071E+03   -0.23389E-02   -0.23352E-02  7072   0.439E-01 0.285E-03
CGA:  24    -0.353961844813E+03   -0.13597E-02   -0.13618E-02  7072   0.223E-01 0.813E-05
CGA:  25    -0.353962925204E+03   -0.10804E-02   -0.10795E-02  7072   0.199E-01 0.120E-03
CGA:  26    -0.353964377307E+03   -0.14521E-02   -0.14468E-02  7072   0.288E-01 0.170E-03
CGA:  27    -0.353965315058E+03   -0.93775E-03   -0.93825E-03  7072   0.182E-01-0.677E-06
CGA:  28    -0.353966512513E+03   -0.11975E-02   -0.11945E-02  7072   0.137E-01 0.112E-03
CGA:  29    -0.353967012208E+03   -0.49970E-03   -0.50047E-03  7072   0.829E-02 0.255E-04
CGA:  30    -0.353967285780E+03   -0.27357E-03   -0.27343E-03  7072   0.536E-02 0.970E-06
CGA:  31    -0.353967934148E+03   -0.64837E-03   -0.64497E-03  7072   0.940E-02 0.460E-04
CGA:  32    -0.353968217610E+03   -0.28346E-03   -0.28400E-03  7072   0.445E-02 0.181E-04
CGA:  33    -0.353968382813E+03   -0.16520E-03   -0.16532E-03  7072   0.202E-02 0.774E-05
CGA:  34    -0.353968520924E+03   -0.13811E-03   -0.13796E-03  7072   0.268E-02 0.633E-05
CGA:  35    -0.353968655232E+03   -0.13431E-03   -0.13430E-03  7072   0.337E-02 0.843E-05
CGA:  36    -0.353968810884E+03   -0.15565E-03   -0.15567E-03  7072   0.209E-02 0.883E-05
SDA:  37    -0.353968925048E+03   -0.11416E-03   -0.11414E-03  7072   0.105E-02 0.474E-05
CGA:  38    -0.353968953633E+03   -0.28585E-04   -0.28596E-04  7072   0.723E-03 0.804E-06
CGA:  39    -0.353969047116E+03   -0.93483E-04   -0.94280E-04  7072   0.102E-02-0.978E-05
CGA:  40    -0.353969100178E+03   -0.53062E-04   -0.53067E-04  7072   0.612E-03-0.483E-05
CGA:  41    -0.353969136334E+03   -0.36156E-04   -0.36165E-04  7072   0.299E-03-0.124E-05
CGA:  42    -0.353969171821E+03   -0.35487E-04   -0.35564E-04  7072   0.549E-03-0.128E-05
CGA:  43    -0.353969209674E+03   -0.37853E-04   -0.37893E-04  7072   0.832E-03-0.293E-05
CGA:  44    -0.353969235740E+03   -0.26066E-04   -0.26070E-04  7072   0.153E-03 0.235E-06
CGA:  45    -0.353969251770E+03   -0.16031E-04   -0.16027E-04  7072   0.165E-03-0.110E-07
CGA:  46    -0.353969273500E+03   -0.21730E-04   -0.21647E-04  7072   0.244E-03 0.101E-05
CGA:  47    -0.353969289287E+03   -0.15786E-04   -0.15787E-04  7072   0.163E-03-0.323E-07
CGA:  48    -0.353969294068E+03   -0.47808E-05   -0.47618E-05  7072   0.861E-04-0.681E-06
  16 F= -.35396929E+03 E0= -.35395217E+03  d E =-.342991E-01  mag=     4.6693
       N       E                     dE             d eps       ncg     rms          ort
SDA:   1    -0.331954457233E+03    0.22015E+02    0.00000E+00  7072   0.929E+02 0.000E+00
CGA:   2    -0.339316170675E+03   -0.73617E+01   -0.74691E+01  7072   0.116E+03-0.318E+01
CGA:   3    -0.344806301507E+03   -0.54901E+01   -0.48709E+01  7072   0.478E+02 0.297E+01
CGA:   4    -0.347619519474E+03   -0.28132E+01   -0.27898E+01  7072   0.681E+02-0.276E+01
CGA:   5    -0.349101941695E+03   -0.14824E+01   -0.12076E+01  7072   0.453E+02 0.131E+02
CGA:   6    -0.350513694266E+03   -0.14118E+01   -0.14140E+01  7072   0.506E+02-0.220E+01
CGA:   7    -0.351144046496E+03   -0.63035E+00   -0.63684E+00  7072   0.303E+02-0.200E+01
CGA:   8    -0.351668180877E+03   -0.52413E+00   -0.51169E+00  7072   0.420E+02 0.386E+00
CGA:   9    -0.352409273055E+03   -0.74109E+00   -0.82143E+00  7072   0.355E+02-0.536E+01
CGA:  10    -0.352648524197E+03   -0.23925E+00   -0.24710E+00  7072   0.994E+01-0.142E+01
CGA:  11    -0.352737389990E+03   -0.88866E-01   -0.92974E-01  7072   0.815E+01-0.400E+00
CGA:  12    -0.352882258789E+03   -0.14487E+00   -0.14769E+00  7072   0.121E+02-0.153E+00
CGA:  13    -0.352994072618E+03   -0.11181E+00   -0.13460E+00  7072   0.519E+01-0.188E+01
CGA:  14    -0.353040099010E+03   -0.46026E-01   -0.52246E-01  7072   0.437E+01-0.425E+00
CGA:  15    -0.353116386727E+03   -0.76288E-01   -0.76595E-01  7072   0.539E+01-0.207E-01
CGA:  16    -0.353189204241E+03   -0.72818E-01   -0.78988E-01  7072   0.331E+01-0.315E+00
CGA:  17    -0.353239383324E+03   -0.50179E-01   -0.54635E-01  7072   0.293E+01-0.158E+00
CGA:  18    -0.353286905901E+03   -0.47523E-01   -0.49595E-01  7072   0.167E+01-0.664E-01
CGA:  19    -0.353310076697E+03   -0.23171E-01   -0.25395E-01  7072   0.773E+00-0.882E-01
CGA:  20    -0.353327654961E+03   -0.17578E-01   -0.18030E-01  7072   0.873E+00 0.105E-02
CGA:  21    -0.353355373817E+03   -0.27719E-01   -0.27927E-01  7072   0.765E+00 0.186E-01
CGA:  22    -0.353370802541E+03   -0.15429E-01   -0.15669E-01  7072   0.373E+00-0.461E-02
CGA:  23    -0.353387684541E+03   -0.16882E-01   -0.16822E-01  7072   0.591E+00 0.419E-02
CGA:  24    -0.353401661321E+03   -0.13977E-01   -0.14291E-01  7072   0.169E+00 0.839E-03
CGA:  25    -0.353407296241E+03   -0.56349E-02   -0.56429E-02  7072   0.150E+00 0.227E-02
CGA:  26    -0.353411694422E+03   -0.43982E-02   -0.44043E-02  7072   0.895E-01 0.276E-03
CGA:  27    -0.353417402021E+03   -0.57076E-02   -0.57056E-02  7072   0.137E+00 0.698E-04
CGA:  28    -0.353420735299E+03   -0.33333E-02   -0.33686E-02  7072   0.467E-01 0.121E-03
CGA:  29    -0.353423389359E+03   -0.26541E-02   -0.26412E-02  7072   0.557E-01 0.530E-03
CGA:  30    -0.353424921522E+03   -0.15322E-02   -0.15363E-02  7072   0.248E-01 0.605E-04
CGA:  31    -0.353426094216E+03   -0.11727E-02   -0.11691E-02  7072   0.280E-01 0.235E-03
SDA:  32    -0.353427553153E+03   -0.14589E-02   -0.14575E-02  7072   0.291E-01 0.727E-04
CGA:  33    -0.353428186895E+03   -0.63374E-03   -0.63496E-03  7072   0.722E-02-0.290E-04
CGA:  34    -0.353428489504E+03   -0.30261E-03   -0.30249E-03  7072   0.522E-02 0.135E-04
CGA:  35    -0.353429608566E+03   -0.11191E-02   -0.24776E-04  7072   0.852E-02-0.569E-03
CGA:  36    -0.353429900998E+03   -0.29243E-03   -0.29321E-03  7072   0.357E-02-0.112E-04
CGA:  37    -0.353430103227E+03   -0.20223E-03   -0.20227E-03  7072   0.191E-02 0.740E-06
CGA:  38    -0.353430301923E+03   -0.19870E-03   -0.19826E-03  7072   0.491E-02 0.100E-04
CGA:  39    -0.353430527684E+03   -0.22576E-03   -0.22585E-03  7072   0.401E-02-0.192E-05
CGA:  40    -0.353430728082E+03   -0.20040E-03   -0.20053E-03  7072   0.147E-02 0.195E-05
CGA:  41    -0.353430828758E+03   -0.10068E-03   -0.10069E-03  7072   0.179E-02-0.243E-05
CGA:  42    -0.353430931492E+03   -0.10273E-03   -0.10275E-03  7072   0.108E-02 0.715E-06
CGA:  43    -0.353431035578E+03   -0.10409E-03   -0.10406E-03  7072   0.512E-03 0.485E-06
CGA:  44    -0.353431065882E+03   -0.30305E-04   -0.30298E-04  7072   0.681E-03-0.990E-06
CGA:  45    -0.353431107401E+03   -0.41518E-04   -0.41509E-04  7072   0.423E-03-0.185E-05
CGA:  46    -0.353431121219E+03   -0.13818E-04   -0.13852E-04  7072   0.228E-03 0.107E-05
CGA:  47    -0.353431134089E+03   -0.12871E-04   -0.12877E-04  7072   0.155E-03 0.775E-06
CGA:  48    -0.353431146136E+03   -0.12047E-04   -0.12021E-04  7072   0.113E-03 0.182E-05
CGA:  49    -0.353431158919E+03   -0.12783E-04   -0.12673E-04  7072   0.176E-03 0.237E-05
CGA:  50    -0.353431166399E+03   -0.74806E-05   -0.75177E-05  7072   0.116E-03 0.159E-05
  17 F= -.35343117E+03 E0= -.35341389E+03  d E =0.538128E+00  mag=     4.6118
       N       E                     dE             d eps       ncg     rms          ort
SDA:   1    -0.350479880980E+03    0.29513E+01    0.00000E+00  7072   0.139E+02 0.000E+00
CGA:   2    -0.351838805704E+03   -0.13589E+01   -0.13819E+01  7072   0.151E+02-0.196E+00
CGA:   3    -0.352538253460E+03   -0.69945E+00   -0.67505E+00  7072   0.853E+01 0.306E-01
CGA:   4    -0.353115591118E+03   -0.57734E+00   -0.57760E+00  7072   0.600E+01-0.102E+00
CGA:   5    -0.353454533286E+03   -0.33894E+00   -0.33688E+00  7072   0.437E+01-0.736E-01
CGA:   6    -0.353624874492E+03   -0.17034E+00   -0.16940E+00  7072   0.299E+01 0.352E-03
CGA:   7    -0.353757824520E+03   -0.13295E+00   -0.13279E+00  7072   0.705E+00-0.140E-02
CGA:   8    -0.353781609484E+03   -0.23785E-01   -0.23494E-01  7072   0.385E+00 0.389E-02
CGA:   9    -0.353816977580E+03   -0.35368E-01   -0.35418E-01  7072   0.289E+00-0.143E-02
CGA:  10    -0.353829244911E+03   -0.12267E-01   -0.12330E-01  7072   0.176E+00 0.915E-04
CGA:  11    -0.353835282521E+03   -0.60376E-02   -0.60162E-02  7072   0.825E-01 0.267E-03
CGA:  12    -0.353840852094E+03   -0.55696E-02   -0.55657E-02  7072   0.569E-01 0.388E-03
CGA:  13    -0.353843687778E+03   -0.28357E-02   -0.28345E-02  7072   0.536E-01-0.914E-05
CGA:  14    -0.353846860253E+03   -0.31725E-02   -0.31736E-02  7072   0.213E-01 0.352E-03
CGA:  15    -0.353847474077E+03   -0.61382E-03   -0.61572E-03  7072   0.103E-01-0.345E-04
CGA:  16    -0.353848383947E+03   -0.90987E-03   -0.90742E-03  7072   0.111E-01 0.746E-04
CGA:  17    -0.353849009071E+03   -0.62512E-03   -0.62519E-03  7072   0.736E-02 0.134E-04
CGA:  18    -0.353849295936E+03   -0.28686E-03   -0.28737E-03  7072   0.505E-02 0.687E-05
CGA:  19    -0.353849573755E+03   -0.27782E-03   -0.27787E-03  7072   0.243E-02 0.611E-05
CGA:  20    -0.353849680218E+03   -0.10646E-03   -0.10664E-03  7072   0.205E-02 0.530E-05
CGA:  21    -0.353849854249E+03   -0.17403E-03   -0.17405E-03  7072   0.192E-02-0.361E-06
CGA:  22    -0.353849935069E+03   -0.80820E-04   -0.80880E-04  7072   0.172E-02 0.223E-05
CGA:  23    -0.353850028978E+03   -0.93910E-04   -0.93906E-04  7072   0.609E-03-0.143E-05
CGA:  24    -0.353850069577E+03   -0.40599E-04   -0.40600E-04  7072   0.796E-03-0.285E-06
CGA:  25    -0.353850109193E+03   -0.39615E-04   -0.39596E-04  7072   0.699E-03-0.247E-05
CGA:  26    -0.353850150682E+03   -0.41489E-04   -0.41488E-04  7072   0.492E-03 0.559E-06
CGA:  27    -0.353850171287E+03   -0.20606E-04   -0.20584E-04  7072   0.261E-03-0.154E-05
CGA:  28    -0.353850186097E+03   -0.14810E-04   -0.14809E-04  7072   0.178E-03-0.189E-05
CGA:  29    -0.353850196658E+03   -0.10560E-04   -0.10566E-04  7072   0.294E-03-0.286E-05
CGA:  30    -0.353850214165E+03   -0.17507E-04   -0.17514E-04  7072   0.113E-03-0.255E-05
CGA:  31    -0.353850220204E+03   -0.60399E-05   -0.60370E-05  7072   0.904E-04-0.770E-06
  18 F= -.35385022E+03 E0= -.35383302E+03  d E =-.419054E+00  mag=     4.6144
       N       E                     dE             d eps       ncg     rms          ort
SDA:   1    -0.352715298249E+03    0.11349E+01    0.00000E+00  7072   0.542E+01 0.000E+00
CGA:   2    -0.353036423736E+03   -0.32113E+00   -0.32096E+00  7072   0.965E+01 0.599E-01
CGA:   3    -0.353445973630E+03   -0.40955E+00   -0.40818E+00  7072   0.276E+01-0.110E-01
CGA:   4    -0.353647104323E+03   -0.20113E+00   -0.20045E+00  7072   0.259E+01 0.342E-01
CGA:   5    -0.353799239679E+03   -0.15214E+00   -0.15215E+00  7072   0.174E+01-0.192E-01
CGA:   6    -0.353895156155E+03   -0.95916E-01   -0.95946E-01  7072   0.765E+00 0.574E-02
CGA:   7    -0.353930121496E+03   -0.34965E-01   -0.34943E-01  7072   0.497E+00-0.507E-03
CGA:   8    -0.353943939881E+03   -0.13818E-01   -0.13869E-01  7072   0.125E+00-0.106E-02
CGA:   9    -0.353957404896E+03   -0.13465E-01   -0.13528E-01  7072   0.118E+00-0.116E-02
[...]
CGA:  34    -0.354072337407E+03   -0.10019E-04   -0.10028E-04  7072   0.203E-03-0.625E-06
CGA:  35    -0.354072349753E+03   -0.12346E-04   -0.12340E-04  7072   0.133E-03 0.751E-06
CGA:  36    -0.354072359391E+03   -0.96380E-05   -0.96378E-05  7072   0.124E-03-0.432E-07
  50 F= -.35407236E+03 E0= -.35405623E+03  d E =0.778318E-02  mag=     4.7138
       N       E                     dE             d eps       ncg     rms          ort
SDA:   1    -0.331015367843E+03    0.23057E+02    0.00000E+00  7072   0.726E+02 0.000E+00
CGA:   2    -0.336523427865E+03   -0.55081E+01   -0.54743E+01  7072   0.149E+03 0.168E+01
CGA:   3    -0.345227137709E+03   -0.87037E+01   -0.87300E+01  7072   0.228E+03-0.554E+02
CGA:   4    -0.346759326366E+03   -0.15322E+01   -0.24765E+01  7072   0.301E+03-0.664E+02
CGA:   5    -0.347961412662E+03   -0.12021E+01   -0.34685E+01  7072   0.104E+03-0.935E+02
CGA:   6    -0.349039626044E+03   -0.10782E+01   -0.86569E+00  7072   0.615E+02 0.138E+02
CGA:   7    -0.349805058383E+03   -0.76543E+00   -0.50574E+00  7072   0.302E+02 0.321E+02
CGA:   8    -0.350514060622E+03   -0.70900E+00   -0.64769E+00  7072   0.322E+02 0.160E+01
CGA:   9    -0.352098739604E+03   -0.15847E+01   -0.15865E+01  7072   0.310E+02 0.145E+01
CGA:  10    -0.353143225776E+03   -0.10445E+01   -0.11016E+01  7072   0.228E+02 0.297E+00
CGA:  11    -0.353455206121E+03   -0.31198E+00   -0.29059E+00  7072   0.393E+01 0.104E+01
CGA:  12    -0.353537240480E+03   -0.82034E-01   -0.79386E-01  7072   0.242E+01 0.828E-01
CGA:  13    -0.353675851351E+03   -0.13861E+00   -0.13601E+00  7072   0.479E+01 0.162E+00
CGA:  14    -0.353773754898E+03   -0.97904E-01   -0.10314E+00  7072   0.272E+01-0.145E+00
CGA:  15    -0.353909723332E+03   -0.13597E+00   -0.13568E+00  7072   0.123E+01 0.245E-01
CGA:  16    -0.353956610675E+03   -0.46887E-01   -0.47329E-01  7072   0.927E+00 0.294E-01
CGA:  17    -0.353982758795E+03   -0.26148E-01   -0.26121E-01  7072   0.585E+00 0.332E-03
CGA:  18    -0.354027489323E+03   -0.44731E-01   -0.41275E-01  7072   0.947E+00 0.106E+00
CGA:  19    -0.354056337068E+03   -0.28848E-01   -0.28187E-01  7072   0.238E+00 0.715E-02
CGA:  20    -0.354066958848E+03   -0.10622E-01   -0.10586E-01  7072   0.147E+00 0.152E-01
CGA:  21    -0.354074157105E+03   -0.71983E-02   -0.72114E-02  7072   0.151E+00-0.228E-02
CGA:  22    -0.354082839762E+03   -0.86827E-02   -0.83601E-02  7072   0.649E-01 0.174E-01
CGA:  23    -0.354087898943E+03   -0.50592E-02   -0.50791E-02  7072   0.421E-01-0.692E-03
CGA:  24    -0.354089755962E+03   -0.18570E-02   -0.18581E-02  7072   0.357E-01 0.106E-02
CGA:  25    -0.354091216954E+03   -0.14610E-02   -0.14615E-02  7072   0.141E-01 0.416E-04
CGA:  26    -0.354092391732E+03   -0.11748E-02   -0.11525E-02  7072   0.119E-01 0.563E-03
CGA:  27    -0.354093102367E+03   -0.71064E-03   -0.71196E-03  7072   0.180E-01-0.845E-04
CGA:  28    -0.354094053060E+03   -0.95069E-03   -0.94731E-03  7072   0.536E-02 0.368E-03
CGA:  29    -0.354094411373E+03   -0.35831E-03   -0.35749E-03  7072   0.329E-02 0.364E-04
CGA:  30    -0.354094742372E+03   -0.33100E-03   -0.32737E-03  7072   0.543E-02 0.714E-04
CGA:  31    -0.354094969373E+03   -0.22700E-03   -0.22686E-03  7072   0.388E-02-0.312E-05
CGA:  32    -0.354095177258E+03   -0.20788E-03   -0.20767E-03  7072   0.141E-02 0.412E-04
CGA:  33    -0.354095292924E+03   -0.11567E-03   -0.11547E-03  7072   0.199E-02 0.677E-05
CGA:  34    -0.354095413990E+03   -0.12107E-03   -0.12076E-03  7072   0.948E-03 0.281E-04
CGA:  35    -0.354095460458E+03   -0.46468E-04   -0.46477E-04  7072   0.106E-02 0.274E-05
CGA:  36    -0.354095523935E+03   -0.63477E-04   -0.63383E-04  7072   0.746E-03 0.108E-04
CGA:  37    -0.354095574112E+03   -0.50176E-04   -0.50135E-04  7072   0.413E-03 0.270E-05
SDA:  38    -0.354095620479E+03   -0.46367E-04   -0.46036E-04  7072   0.506E-03 0.568E-05
CGA:  39    -0.354095632730E+03   -0.12251E-04   -0.12179E-04  7072   0.199E-03-0.148E-05
CGA:  40    -0.354095647825E+03   -0.15096E-04   -0.15143E-04  7072   0.178E-03-0.233E-05
CGA:  41    -0.354095665531E+03   -0.17705E-04   -0.17866E-04  7072   0.179E-03-0.358E-05
CGA:  42    -0.354095682169E+03   -0.16638E-04   -0.16779E-04  7072   0.147E-03-0.377E-05
CGA:  43    -0.354095692651E+03   -0.10483E-04   -0.10499E-04  7072   0.130E-03-0.144E-05
CGA:  44    -0.354095699138E+03   -0.64873E-05   -0.64773E-05  7072   0.990E-04-0.742E-06
  51 F= -.35409570E+03 E0= -.35407982E+03  d E =-.233397E-01  mag=     4.6863
       N       E                     dE             d eps       ncg     rms          ort
SDA:   1    -0.325371238401E+03    0.28724E+02    0.00000E+00  7072   0.861E+02 0.000E+00
CGA:   2    -0.332584230282E+03   -0.72130E+01   -0.70073E+01  7072   0.191E+03 0.826E+01
CGA:   3    -0.343933331109E+03   -0.11349E+02   -0.85243E+01  7072   0.782E+02 0.225E+02
CGA:   4    -0.346909740949E+03   -0.29764E+01   -0.30323E+01  7072   0.733E+02-0.519E+01
CGA:   5    -0.349584207752E+03   -0.26745E+01   -0.25738E+01  7072   0.785E+02 0.103E+01
CGA:   6    -0.351249637705E+03   -0.16654E+01   -0.10705E+01  7072   0.223E+02 0.392E+02
CGA:   7    -0.351708147466E+03   -0.45851E+00   -0.38970E+00  7072   0.144E+02 0.477E+01
CGA:   8    -0.352294938779E+03   -0.58679E+00   -0.59390E+00  7072   0.308E+02-0.514E-01
CGA:   9    -0.352663633210E+03   -0.36869E+00   -0.44987E+00  7072   0.215E+02-0.450E+01
CGA:  10    -0.353057467844E+03   -0.39383E+00   -0.41117E+00  7072   0.290E+02-0.485E+00
CGA:  11    -0.353445306405E+03   -0.38784E+00   -0.40205E+00  7072   0.643E+01-0.108E+01
CGA:  12    -0.353518979106E+03   -0.73673E-01   -0.68117E-01  7072   0.317E+01 0.433E+00
CGA:  13    -0.353596623707E+03   -0.77645E-01   -0.76051E-01  7072   0.403E+01 0.412E-01
CGA:  14    -0.353663508272E+03   -0.66885E-01   -0.73565E-01  7072   0.282E+01-0.235E+00
CGA:  15    -0.353733765560E+03   -0.70257E-01   -0.73180E-01  7072   0.397E+01-0.100E-01
CGA:  16    -0.353809223490E+03   -0.75458E-01   -0.74060E-01  7072   0.179E+01 0.451E-01
CGA:  17    -0.353847222949E+03   -0.37999E-01   -0.39514E-01  7072   0.140E+01-0.275E-01
CGA:  18    -0.353875894684E+03   -0.28672E-01   -0.30872E-01  7072   0.639E+00-0.319E-01
CGA:  19    -0.353892029620E+03   -0.16135E-01   -0.16560E-01  7072   0.502E+00 0.103E-02
CGA:  20    -0.353913316346E+03   -0.21287E-01   -0.21340E-01  7072   0.855E+00-0.833E-02
CGA:  21    -0.353939964513E+03   -0.26648E-01   -0.26763E-01  7072   0.514E+00 0.510E-02
CGA:  22    -0.353951527193E+03   -0.11563E-01   -0.12078E-01  7072   0.296E+00-0.424E-02
CGA:  23    -0.353959934303E+03   -0.84071E-02   -0.84355E-02  7072   0.982E-01 0.632E-03
CGA:  24    -0.353964659339E+03   -0.47250E-02   -0.47374E-02  7072   0.193E+00-0.824E-03
CGA:  25    -0.353973411444E+03   -0.87521E-02   -0.86708E-02  7072   0.149E+00 0.705E-02
CGA:  26    -0.353979504194E+03   -0.60927E-02   -0.60869E-02  7072   0.999E-01 0.279E-02
CGA:  27    -0.353981905975E+03   -0.24018E-02   -0.23914E-02  7072   0.345E-01 0.815E-04
CGA:  28    -0.353983875336E+03   -0.19694E-02   -0.19770E-02  7072   0.275E-01-0.331E-03
CGA:  29    -0.353984598176E+03   -0.72284E-03   -0.72473E-03  7072   0.188E-01 0.437E-04
CGA:  30    -0.353985960259E+03   -0.13621E-02   -0.13624E-02  7072   0.248E-01-0.118E-04
CGA:  31    -0.353987026185E+03   -0.10659E-02   -0.10659E-02  7072   0.294E-01 0.130E-04
SDA:  32    -0.353987941425E+03   -0.91524E-03   -0.91792E-03  7072   0.685E-02 0.932E-04
CGA:  33    -0.353988290539E+03   -0.34911E-03   -0.34888E-03  7072   0.496E-02 0.174E-04
CGA:  34    -0.353988509282E+03   -0.21874E-03   -0.21878E-03  7072   0.540E-02-0.622E-05
CGA:  35    -0.353988838673E+03   -0.32939E-03   -0.32925E-03  7072   0.376E-02 0.706E-05
CGA:  36    -0.353989027256E+03   -0.18858E-03   -0.18863E-03  7072   0.205E-02-0.354E-05
CGA:  37    -0.353989146902E+03   -0.11965E-03   -0.11963E-03  7072   0.983E-03 0.846E-06
CGA:  38    -0.353989240141E+03   -0.93239E-04   -0.92768E-04  7072   0.124E-02 0.900E-05
CGA:  39    -0.353989307095E+03   -0.66954E-04   -0.66949E-04  7072   0.141E-02 0.133E-05
CGA:  40    -0.353989349860E+03   -0.42765E-04   -0.42819E-04  7072   0.208E-03 0.390E-05
CGA:  41    -0.353989388154E+03   -0.38294E-04   -0.38060E-04  7072   0.450E-03 0.151E-05
CGA:  42    -0.353989429444E+03   -0.41291E-04   -0.41261E-04  7072   0.286E-03 0.671E-06
CGA:  43    -0.353989443369E+03   -0.13925E-04   -0.13929E-04  7072   0.245E-03 0.888E-06
CGA:  44    -0.353989454728E+03   -0.11359E-04   -0.11350E-04  7072   0.191E-03-0.116E-05
CGA:  45    -0.353989463500E+03   -0.87721E-05   -0.87670E-05  7072   0.207E-03-0.605E-06
CGA:  46    -0.353989494103E+03   -0.30603E-04   -0.31205E-04  7072   0.186E-03-0.619E-05
CGA:  47    -0.353989504323E+03   -0.10220E-04   -0.10218E-04  7072   0.108E-03-0.146E-05
CGA:  48    -0.353989509549E+03   -0.52259E-05   -0.52335E-05  7072   0.138E-03 0.890E-06
  52 F= -.35398951E+03 E0= -.35397125E+03  d E =0.106190E+00  mag=     4.7320
       N       E                     dE             d eps       ncg     rms          ort
SDA:   1    -0.325234460373E+03    0.28755E+02    0.00000E+00  7072   0.872E+02 0.000E+00
CGA:   2    -0.332167772028E+03   -0.69333E+01   -0.67437E+01  7072   0.192E+03 0.652E+01
CGA:   3    -0.344553348943E+03   -0.12386E+02   -0.13080E+02  7072   0.209E+03-0.770E+02
CGA:   4    -0.348570265285E+03   -0.40169E+01   -0.32145E+01  7072   0.686E+02 0.204E+02
CGA:   5    -0.349437318162E+03   -0.86705E+00   -0.92829E+00  7072   0.367E+02-0.509E+01
CGA:   6    -0.351159729649E+03   -0.17224E+01   -0.17232E+01  7072   0.638E+02 0.851E-01
CGA:   7    -0.352384768207E+03   -0.12250E+01   -0.11066E+01  7072   0.240E+02 0.711E+01
CGA:   8    -0.352819359712E+03   -0.43459E+00   -0.51014E+00  7072   0.198E+02-0.288E+01
CGA:   9    -0.353289332170E+03   -0.46997E+00   -0.44986E+00  7072   0.840E+01 0.307E+00
CGA:  10    -0.353473512696E+03   -0.18418E+00   -0.19863E+00  7072   0.810E+01-0.328E+00
CGA:  11    -0.353644086406E+03   -0.17057E+00   -0.18512E+00  7072   0.481E+01-0.279E+00
CGA:  12    -0.353773092945E+03   -0.12901E+00   -0.13301E+00  7072   0.260E+01-0.247E-01
CGA:  13    -0.353860895176E+03   -0.87802E-01   -0.88490E-01  7072   0.225E+01 0.135E-01
CGA:  14    -0.353963775367E+03   -0.10288E+00   -0.10285E+00  7072   0.148E+01 0.494E-01
CGA:  15    -0.354002664980E+03   -0.38890E-01   -0.42238E-01  7072   0.715E+00-0.129E-01
CGA:  16    -0.354033583728E+03   -0.30919E-01   -0.30933E-01  7072   0.455E+00 0.101E-01
CGA:  17    -0.354049399627E+03   -0.15816E-01   -0.15913E-01  7072   0.417E+00 0.238E-02
CGA:  18    -0.354071585703E+03   -0.22186E-01   -0.22083E-01  7072   0.218E+00 0.758E-02
CGA:  19    -0.354080389581E+03   -0.88039E-02   -0.88433E-02  7072   0.131E+00 0.357E-02
CGA:  20    -0.354087040651E+03   -0.66511E-02   -0.66465E-02  7072   0.961E-01 0.485E-03
CGA:  21    -0.354090475381E+03   -0.34347E-02   -0.34592E-02  7072   0.658E-01 0.765E-03
CGA:  22    -0.354093889729E+03   -0.34143E-02   -0.34161E-02  7072   0.513E-01-0.160E-03
CGA:  23    -0.354097168317E+03   -0.32786E-02   -0.32330E-02  7072   0.244E-01 0.190E-02
CGA:  24    -0.354098153062E+03   -0.98474E-03   -0.98615E-03  7072   0.187E-01 0.879E-04
CGA:  25    -0.354099036129E+03   -0.88307E-03   -0.88225E-03  7072   0.125E-01 0.201E-03
CGA:  26    -0.354099760469E+03   -0.72434E-03   -0.72377E-03  7072   0.131E-01 0.377E-04
CGA:  27    -0.354100574303E+03   -0.81383E-03   -0.80888E-03  7072   0.622E-02 0.237E-03
CGA:  28    -0.354100907086E+03   -0.33278E-03   -0.33263E-03  7072   0.573E-02 0.186E-04
CGA:  29    -0.354101120586E+03   -0.21350E-03   -0.21438E-03  7072   0.301E-02 0.233E-04
CGA:  30    -0.354101346396E+03   -0.22581E-03   -0.22540E-03  7072   0.299E-02 0.127E-04
CGA:  31    -0.354101535182E+03   -0.18879E-03   -0.18866E-03  7072   0.188E-02 0.533E-05
SDA:  32    -0.354101604118E+03   -0.68936E-04   -0.68987E-04  7072   0.102E-02 0.356E-05
CGA:  33    -0.354101635938E+03   -0.31820E-04   -0.31822E-04  7072   0.732E-03-0.111E-05
CGA:  34    -0.354101682298E+03   -0.46360E-04   -0.46278E-04  7072   0.672E-03 0.443E-05
CGA:  35    -0.354101745096E+03   -0.62798E-04   -0.62674E-04  7072   0.603E-03 0.243E-05
CGA:  36    -0.354101797722E+03   -0.52626E-04   -0.52389E-04  7072   0.299E-03 0.613E-05
CGA:  37    -0.354101823737E+03   -0.26015E-04   -0.25924E-04  7072   0.245E-03 0.247E-05
CGA:  38    -0.354101845637E+03   -0.21900E-04   -0.21856E-04  7072   0.409E-03 0.103E-05
CGA:  39    -0.354101874311E+03   -0.28674E-04   -0.28660E-04  7072   0.355E-03 0.618E-06
CGA:  40    -0.354101888708E+03   -0.14397E-04   -0.14432E-04  7072   0.289E-03 0.178E-05
CGA:  41    -0.354101904496E+03   -0.15787E-04   -0.15788E-04  7072   0.175E-03 0.651E-06
CGA:  42    -0.354101918004E+03   -0.13508E-04   -0.13461E-04  7072   0.135E-03 0.209E-05
CGA:  43    -0.354101936077E+03   -0.18073E-04   -0.18143E-04  7072   0.123E-03-0.995E-06
CGA:  44    -0.354101940225E+03   -0.41484E-05   -0.41563E-05  7072   0.955E-04 0.925E-07
  53 F= -.35410194E+03 E0= -.35408519E+03  d E =-.112431E+00  mag=     4.7012
       N       E                     dE             d eps       ncg     rms          ort
SDA:   1    -0.345540369588E+03    0.85616E+01    0.00000E+00  7072   0.237E+02 0.000E+00
CGA:   2    -0.348307660355E+03   -0.27673E+01   -0.28387E+01  7072   0.833E+02-0.757E+00
CGA:   3    -0.351643360996E+03   -0.33357E+01   -0.30665E+01  7072   0.172E+02 0.143E+01
CGA:   4    -0.352849149881E+03   -0.12058E+01   -0.11911E+01  7072   0.865E+01 0.123E+01
CGA:   5    -0.353523933773E+03   -0.67478E+00   -0.68984E+00  7072   0.676E+01-0.771E+00
CGA:   6    -0.353772421523E+03   -0.24849E+00   -0.24711E+00  7072   0.451E+01 0.510E-03
CGA:   7    -0.353917692443E+03   -0.14527E+00   -0.14723E+00  7072   0.109E+01-0.398E-01
CGA:   8    -0.353978792880E+03   -0.61100E-01   -0.61129E-01  7072   0.696E+00 0.471E-02
CGA:   9    -0.354024076012E+03   -0.45283E-01   -0.45272E-01  7072   0.622E+00 0.131E-02
CGA:  10    -0.354054367326E+03   -0.30291E-01   -0.30321E-01  7072   0.195E+00 0.857E-03
CGA:  11    -0.354060210412E+03   -0.58431E-02   -0.59002E-02  7072   0.122E+00-0.831E-03
CGA:  12    -0.354072847445E+03   -0.12637E-01   -0.12592E-01  7072   0.584E-01 0.902E-03
CGA:  13    -0.354076098019E+03   -0.32506E-02   -0.32541E-02  7072   0.449E-01 0.322E-03
CGA:  14    -0.354077704149E+03   -0.16061E-02   -0.16097E-02  7072   0.264E-01-0.203E-04
CGA:  15    -0.354079594911E+03   -0.18908E-02   -0.18911E-02  7072   0.116E-01-0.142E-04
CGA:  16    -0.354080356046E+03   -0.76113E-03   -0.76059E-03  7072   0.128E-01 0.524E-04
CGA:  17    -0.354080951088E+03   -0.59504E-03   -0.59568E-03  7072   0.108E-01 0.168E-04
CGA:  18    -0.354081502073E+03   -0.55099E-03   -0.55096E-03  7072   0.269E-02-0.283E-05
CGA:  19    -0.354081739477E+03   -0.23740E-03   -0.23680E-03  7072   0.451E-02 0.181E-04
CGA:  20    -0.354081924137E+03   -0.18466E-03   -0.18507E-03  7072   0.278E-02 0.196E-05
CGA:  21    -0.354082129402E+03   -0.20527E-03   -0.20519E-03  7072   0.223E-02 0.459E-05
CGA:  22    -0.354082254280E+03   -0.12488E-03   -0.12491E-03  7072   0.127E-02 0.347E-05
CGA:  23    -0.354082300266E+03   -0.45987E-04   -0.46088E-04  7072   0.688E-03 0.208E-05
CGA:  24    -0.354082356353E+03   -0.56087E-04   -0.56102E-04  7072   0.105E-02-0.108E-05
CGA:  25    -0.354082410818E+03   -0.54464E-04   -0.54484E-04  7072   0.397E-03 0.213E-05
CGA:  26    -0.354082431431E+03   -0.20614E-04   -0.20609E-04  7072   0.261E-03-0.926E-06
CGA:  27    -0.354082441535E+03   -0.10104E-04   -0.10115E-04  7072   0.178E-03 0.249E-06
CGA:  28    -0.354082459804E+03   -0.18269E-04   -0.18328E-04  7072   0.155E-03-0.150E-05
CGA:  29    -0.354082468966E+03   -0.91619E-05   -0.91626E-05  7072   0.170E-03 0.103E-05
  54 F= -.35408247E+03 E0= -.35406652E+03  d E =0.194713E-01  mag=     4.7107
       N       E                     dE             d eps       ncg     rms          ort
SDA:   1    -0.353423455974E+03    0.65900E+00    0.00000E+00  7072   0.233E+01 0.000E+00
CGA:   2    -0.353639228460E+03   -0.21577E+00   -0.21473E+00  7072   0.512E+01 0.305E-01
CGA:   3    -0.353829622936E+03   -0.19039E+00   -0.18973E+00  7072   0.173E+01-0.196E-02
CGA:   4    -0.353934911799E+03   -0.10529E+00   -0.10538E+00  7072   0.148E+01-0.350E-01
CGA:   5    -0.354019719557E+03   -0.84808E-01   -0.84809E-01  7072   0.779E+00 0.266E-03
CGA:   6    -0.354062534662E+03   -0.42815E-01   -0.42885E-01  7072   0.427E+00 0.655E-02
CGA:   7    -0.354078023957E+03   -0.15489E-01   -0.15391E-01  7072   0.210E+00 0.628E-03
CGA:   8    -0.354086445679E+03   -0.84217E-02   -0.83588E-02  7072   0.739E-01-0.710E-04
CGA:   9    -0.354093094146E+03   -0.66485E-02   -0.66397E-02  7072   0.493E-01 0.236E-03
CGA:  10    -0.354095906619E+03   -0.28125E-02   -0.28129E-02  7072   0.440E-01 0.108E-03
CGA:  11    -0.354097231955E+03   -0.13253E-02   -0.13144E-02  7072   0.114E-01 0.177E-03
CGA:  12    -0.354098280165E+03   -0.10482E-02   -0.10464E-02  7072   0.106E-01 0.470E-04
CGA:  13    -0.354099061359E+03   -0.78119E-03   -0.78162E-03  7072   0.734E-02-0.209E-04
CGA:  14    -0.354099277906E+03   -0.21655E-03   -0.21665E-03  7072   0.346E-02 0.556E-05
CGA:  15    -0.354099516576E+03   -0.23867E-03   -0.23864E-03  7072   0.130E-02 0.255E-05
CGA:  16    -0.354099659174E+03   -0.14260E-03   -0.14235E-03  7072   0.202E-02 0.483E-05
CGA:  17    -0.354099735484E+03   -0.76310E-04   -0.76315E-04  7072   0.111E-02 0.133E-05
CGA:  18    -0.354099780948E+03   -0.45464E-04   -0.45565E-04  7072   0.348E-03 0.324E-05
CGA:  19    -0.354099810414E+03   -0.29466E-04   -0.29522E-04  7072   0.453E-03-0.217E-05
CGA:  20    -0.354099838404E+03   -0.27990E-04   -0.27990E-04  7072   0.376E-03 0.147E-08
CGA:  21    -0.354099854063E+03   -0.15659E-04   -0.15633E-04  7072   0.236E-03-0.144E-05
CGA:  22    -0.354099866727E+03   -0.12664E-04   -0.12663E-04  7072   0.201E-03-0.206E-06
CGA:  23    -0.354099879787E+03   -0.13060E-04   -0.13069E-04  7072   0.793E-04-0.146E-05
CGA:  24    -0.354099887484E+03   -0.76973E-05   -0.77158E-05  7072   0.161E-03-0.519E-06
  55 F= -.35409989E+03 E0= -.35408359E+03  d E =-.174185E-01  mag=     4.7084
       N       E                     dE             d eps       ncg     rms          ort
SDA:   1    -0.353999615756E+03    0.10026E+00    0.00000E+00  7072   0.344E+00 0.000E+00
CGA:   2    -0.354020266320E+03   -0.20651E-01   -0.20651E-01  7072   0.690E+00-0.125E-02
CGA:   3    -0.354065310971E+03   -0.45045E-01   -0.45000E-01  7072   0.401E+00 0.484E-02
CGA:   4    -0.354081979827E+03   -0.16669E-01   -0.16446E-01  7072   0.141E+00-0.161E-04
CGA:   5    -0.354091739288E+03   -0.97595E-02   -0.97844E-02  7072   0.107E+00-0.159E-02
CGA:   6    -0.354098376355E+03   -0.66371E-02   -0.66383E-02  7072   0.368E-01-0.253E-03
CGA:   7    -0.354100105181E+03   -0.17288E-02   -0.17354E-02  7072   0.215E-01 0.116E-03
CGA:   8    -0.354100805620E+03   -0.70044E-03   -0.69862E-03  7072   0.112E-01 0.318E-05
CGA:   9    -0.354101678291E+03   -0.87267E-03   -0.87239E-03  7072   0.519E-02 0.965E-05
CGA:  10    -0.354102050378E+03   -0.37209E-03   -0.37217E-03  7072   0.285E-02-0.497E-05
CGA:  11    -0.354102152553E+03   -0.10218E-03   -0.10227E-03  7072   0.196E-02 0.251E-05
CGA:  12    -0.354102254745E+03   -0.10219E-03   -0.10218E-03  7072   0.116E-02-0.229E-05
CGA:  13    -0.354102354629E+03   -0.99884E-04   -0.10002E-03  7072   0.671E-03-0.494E-05
CGA:  14    -0.354102379724E+03   -0.25096E-04   -0.25013E-04  7072   0.267E-03-0.324E-05
CGA:  15    -0.354102393621E+03   -0.13897E-04   -0.13895E-04  7072   0.256E-03-0.423E-06
CGA:  16    -0.354102405638E+03   -0.12017E-04   -0.12000E-04  7072   0.179E-03-0.158E-05
CGA:  17    -0.354102417970E+03   -0.12331E-04   -0.12345E-04  7072   0.864E-04-0.114E-05
CGA:  18    -0.354102423591E+03   -0.56209E-05   -0.56281E-05  7072   0.669E-04-0.985E-06
  56 F= -.35410242E+03 E0= -.35408602E+03  d E =-.253611E-02  mag=     4.7058
