       N       E                     dE             d eps       ncg     rms          ort
DAV:   1     0.733884082150E+04    0.73388E+04   -0.35061E+05  9568   0.175E+03
DAV:   2     0.480046007072E+03   -0.68588E+04   -0.64334E+04  9568   0.512E+02
DAV:   3    -0.319717664943E+03   -0.79976E+03   -0.77573E+03  9568   0.195E+02
DAV:   4    -0.352464525691E+03   -0.32747E+02   -0.32329E+02  9568   0.382E+01
DAV:   5    -0.354712953604E+03   -0.22484E+01   -0.22263E+01  9568   0.764E+00
SDA:   6    -0.177267542244E+03    0.17745E+03   -0.22263E+01  9568   0.157E+04 0.000E+00
CGA:   7    -0.263234461350E+03   -0.85967E+02   -0.12139E+03  9568   0.149E+04 0.735E+02
CGA:   8    -0.274946600175E+03   -0.11712E+02   -0.48844E+02  9568   0.826E+03 0.107E+03
CGA:   9    -0.275467593021E+03   -0.52099E+00   -0.31604E+02  9568   0.136E+04-0.393E+03
CGA:  10    -0.266544518365E+03    0.89231E+01   -0.25756E+02  9568   0.606E+03-0.583E+03
CGA:  11    -0.270796404157E+03   -0.42519E+01   -0.23744E+01  9568   0.506E+03 0.343E+03
CGA:  12    -0.280995487313E+03   -0.10199E+02   -0.47579E+01  9568   0.413E+03 0.581E+03
CGA:  13    -0.290918025589E+03   -0.99225E+01   -0.56098E+01  9568   0.188E+03 0.578E+02
CGA:  14    -0.300108538935E+03   -0.91905E+01   -0.12156E+02  9568   0.190E+03 0.270E+02
CGA:  15    -0.302249752019E+03   -0.21412E+01   -0.51761E+01  9568   0.226E+03-0.193E+02
CGA:  16    -0.303954972438E+03   -0.17052E+01   -0.32104E+01  9568   0.419E+03-0.392E+03
CGA:  17    -0.297953259184E+03    0.60017E+01   -0.19119E+02  9568   0.124E+04-0.159E+03
CGA:  18    -0.287673345563E+03    0.10280E+02   -0.30020E+02  9568   0.970E+03-0.682E+02
CGA:  19    -0.300582646968E+03   -0.12909E+02   -0.32486E+02  9568   0.957E+03-0.391E+03
CGA:  20    -0.296113266016E+03    0.44694E+01   -0.13286E+02  9568   0.270E+03-0.175E+03
CGA:  21    -0.300045651561E+03   -0.39324E+01   -0.15639E+01  9568   0.382E+03 0.384E+03
CGA:  22    -0.306218607971E+03   -0.61730E+01   -0.40155E+01  9568   0.316E+03-0.535E+03
CGA:  23    -0.303793935800E+03    0.24247E+01   -0.10937E+02  9568   0.255E+03-0.198E+01
CGA:  24    -0.305855736840E+03   -0.20618E+01   -0.28036E+01  9568   0.564E+03-0.435E+03
CGA:  25    -0.295265220263E+03    0.10591E+02   -0.14337E+02  9568   0.276E+04-0.692E+03
CGA:  26    -0.295523824039E+03   -0.25860E+00   -0.97821E+02  9568   0.683E+03-0.237E+03
CGA:  27    -0.297417588760E+03   -0.18938E+01   -0.12526E+02  9568   0.143E+04-0.581E+03
CGA:  28    -0.305060141257E+03   -0.76426E+01   -0.39351E+02  9568   0.272E+03 0.394E+02
CGA:  29    -0.295995629772E+03    0.90645E+01   -0.63633E+01  9568   0.159E+04-0.315E+03
CGA:  30    -0.300444512314E+03   -0.44489E+01   -0.44569E+02  9568   0.618E+03-0.156E+03
CGA:  31    -0.298256479137E+03    0.21880E+01   -0.12442E+02  9568   0.121E+04-0.406E+03
CGA:  32    -0.305914509699E+03   -0.76580E+01   -0.35259E+02  9568   0.360E+03-0.183E+03
CGA:  33    -0.307115422031E+03   -0.12009E+01   -0.79030E+01  9568   0.271E+03-0.626E+01
CGA:  34    -0.303233828277E+03    0.38816E+01   -0.60885E+01  9568   0.526E+03-0.222E+03
CGA:  35    -0.301936557847E+03    0.12973E+01   -0.16114E+02  9568   0.256E+03-0.672E+02
CGA:  36    -0.296193298301E+03    0.57433E+01   -0.54632E+01  9568   0.390E+04-0.717E+03
CGA:  37    -0.305275934692E+03   -0.90826E+01   -0.12378E+03  9568   0.294E+03-0.111E+03
CGA:  38    -0.305364327285E+03   -0.88393E-01   -0.70531E+01  9568   0.468E+03-0.106E+03
CGA:  39    -0.296006661006E+03    0.93577E+01   -0.56331E+01  9568   0.196E+04-0.585E+03
CGA:  40    -0.305499664299E+03   -0.94930E+01   -0.55507E+02  9568   0.409E+03-0.262E+03
CGA:  41    -0.305786894732E+03   -0.28723E+00   -0.93824E+01  9568   0.413E+03-0.129E+03
CGA:  42    -0.304531241938E+03    0.12557E+01   -0.66183E+01  9568   0.752E+03-0.201E+03
CGA:  43    -0.300930806936E+03    0.36004E+01   -0.78731E+01  9568   0.415E+03-0.201E+03
CGA:  44    -0.309562465342E+03   -0.86317E+01   -0.73198E+01  9568   0.148E+03-0.154E+03
CGA:  45    -0.310944159425E+03   -0.13817E+01   -0.70817E+00  9568   0.746E+02 0.836E+02
CGA:  46    -0.311729629563E+03   -0.78547E+00   -0.11144E+01  9568   0.318E+02-0.286E+02
CGA:  47    -0.312057942842E+03   -0.32831E+00   -0.35748E+00  9568   0.835E+01-0.126E+01
CGA:  48    -0.312203974459E+03   -0.14603E+00   -0.14249E+00  9568   0.326E+01 0.954E-01
CGA:  49    -0.312257163609E+03   -0.53189E-01   -0.47440E-01  9568   0.253E+01 0.287E+00
CGA:  50    -0.312351434334E+03   -0.94271E-01   -0.85344E-01  9568   0.341E+01-0.945E-02
CGA:  51    -0.312392803723E+03   -0.41369E-01   -0.23770E-01  9568   0.331E+01 0.246E+01
CGA:  52    -0.312453501466E+03   -0.60698E-01   -0.61496E-01  9568   0.844E+00-0.180E-01
CGA:  53    -0.312512663907E+03   -0.59162E-01   -0.74208E-01  9568   0.629E+01-0.345E+00
CGA:  54    -0.312522152726E+03   -0.94888E-02   -0.50660E-02  9568   0.665E+01 0.327E+01
CGA:  55    -0.312591933172E+03   -0.69780E-01   -0.73543E-01  9568   0.152E+01-0.313E+00
CGA:  56    -0.312614527887E+03   -0.22595E-01   -0.22002E-01  9568   0.104E+01 0.246E-01
CGA:  57    -0.312662978026E+03   -0.48450E-01   -0.49244E-01  9568   0.246E+01-0.587E-01
CGA:  58    -0.312702753291E+03   -0.39775E-01   -0.21350E-01  9568   0.212E+01 0.195E+01
CGA:  59    -0.312737193310E+03   -0.34440E-01   -0.34255E-01  9568   0.750E+00 0.553E-02
CGA:  60    -0.312769570976E+03   -0.32378E-01   -0.32482E-01  9568   0.109E+01-0.103E-01
CGA:  61    -0.312793292768E+03   -0.23722E-01   -0.21823E-01  9568   0.159E+01 0.388E-01
CGA:  62    -0.312815652302E+03   -0.22360E-01   -0.12435E-01  9568   0.145E+01 0.129E+01
CGA:  63    -0.312835597595E+03   -0.19945E-01   -0.20709E-01  9568   0.987E+00-0.328E-01
CGA:  64    -0.312855217770E+03   -0.19620E-01   -0.20045E-01  9568   0.539E+00-0.248E-02
CGA:  65    -0.312871266206E+03   -0.16048E-01   -0.16007E-01  9568   0.912E+00-0.109E-01
CGA:  66    -0.312843950276E+03    0.27316E-01   -0.48236E-01  9568   0.783E+01-0.421E+01
CGA:  67    -0.312904784863E+03   -0.60835E-01   -0.57190E-01  9568   0.940E+00 0.379E+00
CGA:  68    -0.312929219177E+03   -0.24434E-01   -0.25275E-01  9568   0.947E+00 0.359E-01
CGA:  69    -0.312954861608E+03   -0.25642E-01   -0.25781E-01  9568   0.821E+00 0.537E-02
CGA:  70    -0.312971776111E+03   -0.16915E-01   -0.18282E-01  9568   0.800E+00 0.211E-01
CGA:  71    -0.312993025220E+03   -0.21249E-01   -0.21561E-01  9568   0.394E+00 0.271E-01
CGA:  72    -0.313002973679E+03   -0.99485E-02   -0.10027E-01  9568   0.395E+00 0.215E-02
CGA:  73    -0.313013915189E+03   -0.10942E-01   -0.10929E-01  9568   0.309E+00-0.138E-02
CGA:  74    -0.313025030182E+03   -0.11115E-01   -0.11075E-01  9568   0.439E+00 0.612E-02
CGA:  75    -0.313036224727E+03   -0.11195E-01   -0.10434E-01  9568   0.188E+00-0.565E-02
CGA:  76    -0.313042522804E+03   -0.62981E-02   -0.62826E-02  9568   0.150E+00 0.305E-02
CGA:  77    -0.313047012142E+03   -0.44893E-02   -0.44916E-02  9568   0.174E+00 0.348E-03
CGA:  78    -0.313054512481E+03   -0.75003E-02   -0.72480E-02  9568   0.142E+00 0.160E-01
CGA:  79    -0.313057910940E+03   -0.33985E-02   -0.33981E-02  9568   0.699E-01-0.129E-02
CGA:  80    -0.313060015370E+03   -0.21044E-02   -0.21035E-02  9568   0.693E-01 0.123E-02
CGA:  81    -0.313062104647E+03   -0.20893E-02   -0.20914E-02  9568   0.409E-01 0.975E-04
CGA:  82    -0.313063981290E+03   -0.18766E-02   -0.18127E-02  9568   0.390E-01 0.243E-02
CGA:  83    -0.313064956695E+03   -0.97541E-03   -0.97814E-03  9568   0.256E-01-0.984E-03
CGA:  84    -0.313065906026E+03   -0.94933E-03   -0.93801E-03  9568   0.203E-01 0.367E-03
CGA:  85    -0.313066663588E+03   -0.75756E-03   -0.75614E-03  9568   0.245E-01-0.287E-03
CGA:  86    -0.313067597396E+03   -0.93381E-03   -0.92163E-03  9568   0.157E-01 0.897E-03
CGA:  87    -0.313068103587E+03   -0.50619E-03   -0.50622E-03  9568   0.139E-01-0.166E-03
CGA:  88    -0.313068555544E+03   -0.45196E-03   -0.45130E-03  9568   0.952E-02 0.163E-03
CGA:  89    -0.313068956847E+03   -0.40130E-03   -0.40231E-03  9568   0.105E-01-0.140E-03
CGA:  90    -0.313069356187E+03   -0.39934E-03   -0.39702E-03  9568   0.918E-02 0.209E-03
CGA:  91    -0.313069622893E+03   -0.26671E-03   -0.26634E-03  9568   0.576E-02-0.681E-04
CGA:  92    -0.313069875212E+03   -0.25232E-03   -0.25041E-03  9568   0.541E-02 0.111E-03
CGA:  93    -0.313070038279E+03   -0.16307E-03   -0.16283E-03  9568   0.380E-02-0.490E-04
CGA:  94    -0.313070205602E+03   -0.16732E-03   -0.16660E-03  9568   0.433E-02 0.381E-04
CGA:  95    -0.313070352041E+03   -0.14644E-03   -0.14646E-03  9568   0.339E-02-0.492E-04
CGA:  96    -0.313070502454E+03   -0.15041E-03   -0.15013E-03  9568   0.311E-02 0.915E-05
SDA:  97    -0.313070583555E+03   -0.81101E-04   -0.80871E-04  9568   0.180E-02-0.217E-04
CGA:  98    -0.313070609004E+03   -0.25449E-04   -0.25447E-04  9568   0.567E-03 0.122E-05
CGA:  99    -0.313070639926E+03   -0.30922E-04   -0.30869E-04  9568   0.809E-03 0.122E-05
CGA: 100    -0.313070736637E+03   -0.96711E-04   -0.94683E-04  9568   0.297E-02 0.291E-04
CGA: 101    -0.313070863585E+03   -0.12695E-03   -0.12712E-03  9568   0.191E-02-0.341E-04
CGA: 102    -0.313070954376E+03   -0.90791E-04   -0.90223E-04  9568   0.114E-02 0.399E-04
CGA: 103    -0.313070993083E+03   -0.38707E-04   -0.38402E-04  9568   0.389E-03-0.179E-04
CGA: 104    -0.313071002022E+03   -0.89388E-05   -0.89880E-05  9568   0.338E-03 0.343E-06
CGA: 105    -0.313071019244E+03   -0.17222E-04   -0.17234E-04  9568   0.340E-03-0.958E-06
CGA: 106    -0.313071031222E+03   -0.11978E-04   -0.11974E-04  9568   0.283E-03-0.164E-05
CGA: 107    -0.313071044180E+03   -0.12958E-04   -0.12963E-04  9568   0.140E-03-0.137E-05
CGA: 108    -0.313071060510E+03   -0.16330E-04   -0.16822E-04  9568   0.458E-03-0.587E-05
CGA: 109    -0.313071071143E+03   -0.10633E-04   -0.10546E-04  9568   0.252E-03-0.395E-05
CGA: 110    -0.313071080049E+03   -0.89053E-05   -0.88762E-05  9568   0.278E-03-0.457E-05
CGA: 111    -0.313071093539E+03   -0.13490E-04   -0.13501E-04  9568   0.280E-03-0.312E-05
CGA: 112    -0.313071103586E+03   -0.10047E-04   -0.10011E-04  9568   0.161E-03-0.427E-05
CGA: 113    -0.313071117652E+03   -0.14066E-04   -0.14155E-04  9568   0.366E-03-0.233E-05
CGA: 114    -0.313071126089E+03   -0.84362E-05   -0.83661E-05  9568   0.269E-03 0.114E-05
CGA: 115    -0.313071137191E+03   -0.11103E-04   -0.11076E-04  9568   0.125E-03-0.811E-05
CGA: 116    -0.313071143680E+03   -0.64883E-05   -0.64488E-05  9568   0.270E-03 0.239E-05
CGA: 117    -0.313071157139E+03   -0.13460E-04   -0.13779E-04  9568   0.430E-03-0.304E-04
CGA: 118    -0.313071166525E+03   -0.93858E-05   -0.80837E-05  9568   0.387E-03 0.435E-04
CGA: 119    -0.313071182039E+03   -0.15513E-04   -0.14936E-04  9568   0.574E-03-0.121E-04
CGA: 120    -0.313071188120E+03   -0.60812E-05   -0.43842E-05  9568   0.444E-03 0.193E-03
   1 F= -.31307119E+03 E0= -.31304919E+03  d E =-.313071E+03  mag=    25.8093
       N       E                     dE             d eps       ncg     rms          ort
SDA:   1    -0.285869195945E+03    0.27202E+02    0.00000E+00  9568   0.283E+03 0.000E+00
CGA:   2    -0.175891242529E+03    0.10998E+03   -0.29476E+02  9568   0.105E+04-0.420E+03
CGA:   3    -0.296870318058E+03   -0.12098E+03    0.60519E+02  9568   0.154E+03 0.125E+03
CGA:   4    -0.305085215221E+03   -0.82149E+01   -0.74329E+01  9568   0.476E+03 0.333E+03
CGA:   5    -0.310884579053E+03   -0.57994E+01   -0.10042E+02  9568   0.136E+03-0.248E+03
CGA:   6    -0.312163050576E+03   -0.12785E+01   -0.19945E+01  9568   0.337E+02-0.450E+02
CGA:   7    -0.312774535126E+03   -0.61148E+00   -0.56080E+00  9568   0.292E+01-0.111E+00
CGA:   8    -0.312857809255E+03   -0.83274E-01   -0.82893E-01  9568   0.186E+01-0.213E-02
CGA:   9    -0.312922339738E+03   -0.64530E-01   -0.63262E-01  9568   0.210E+01-0.987E-01
CGA:  10    -0.312979557265E+03   -0.57218E-01   -0.53590E-01  9568   0.153E+01-0.136E-01
CGA:  11    -0.313007259229E+03   -0.27702E-01   -0.27811E-01  9568   0.105E+01-0.433E-02
CGA:  12    -0.313029254990E+03   -0.21996E-01   -0.22148E-01  9568   0.592E+00-0.277E-02
CGA:  13    -0.313042441430E+03   -0.13186E-01   -0.12703E-01  9568   0.396E+00 0.538E-02
CGA:  14    -0.313049050226E+03   -0.66088E-02   -0.64533E-02  9568   0.213E+00 0.552E-02
CGA:  15    -0.313055804343E+03   -0.67541E-02   -0.67642E-02  9568   0.353E+00 0.127E-02
CGA:  16    -0.313061875608E+03   -0.60713E-02   -0.60619E-02  9568   0.114E+00 0.568E-04
CGA:  17    -0.313064246909E+03   -0.23713E-02   -0.23412E-02  9568   0.103E+00 0.221E-03
CGA:  18    -0.313066157504E+03   -0.19106E-02   -0.19158E-02  9568   0.487E-01-0.129E-03
CGA:  19    -0.313067245969E+03   -0.10885E-02   -0.10947E-02  9568   0.550E-01 0.399E-04
CGA:  20    -0.313068517422E+03   -0.12715E-02   -0.12720E-02  9568   0.398E-01-0.140E-04
CGA:  21    -0.313069353152E+03   -0.83573E-03   -0.83102E-03  9568   0.293E-01-0.287E-04
CGA:  22    -0.313069966609E+03   -0.61346E-03   -0.61233E-03  9568   0.284E-01 0.132E-06
CGA:  23    -0.313070780618E+03   -0.81401E-03   -0.81458E-03  9568   0.242E-01 0.196E-03
CGA:  24    -0.313071135088E+03   -0.35447E-03   -0.35559E-03  9568   0.117E-01-0.252E-04
CGA:  25    -0.313071518501E+03   -0.38341E-03   -0.38339E-03  9568   0.137E-01 0.878E-05
CGA:  26    -0.313071726248E+03   -0.20775E-03   -0.20767E-03  9568   0.605E-02 0.279E-04
CGA:  27    -0.313071909105E+03   -0.18286E-03   -0.18282E-03  9568   0.770E-02 0.221E-04
CGA:  28    -0.313072066433E+03   -0.15733E-03   -0.15789E-03  9568   0.628E-02 0.174E-04
CGA:  29    -0.313072258950E+03   -0.19252E-03   -0.19256E-03  9568   0.698E-02-0.475E-06
CGA:  30    -0.313072384782E+03   -0.12583E-03   -0.12610E-03  9568   0.380E-02 0.227E-04
CGA:  31    -0.313072458604E+03   -0.73821E-04   -0.74069E-04  9568   0.210E-02 0.146E-04
CGA:  32    -0.313072510477E+03   -0.51874E-04   -0.51877E-04  9568   0.254E-02 0.973E-06
CGA:  33    -0.313072571376E+03   -0.60899E-04   -0.60873E-04  9568   0.187E-02-0.162E-05
CGA:  34    -0.313072618951E+03   -0.47574E-04   -0.47586E-04  9568   0.234E-02 0.361E-05
CGA:  35    -0.313072667549E+03   -0.48599E-04   -0.48621E-04  9568   0.123E-02 0.757E-06
SDA:  36    -0.313072697154E+03   -0.29604E-04   -0.29598E-04  9568   0.141E-02-0.259E-05
CGA:  37    -0.313072716159E+03   -0.19005E-04   -0.19038E-04  9568   0.395E-03 0.722E-06
CGA:  38    -0.313072734271E+03   -0.18112E-04   -0.18036E-04  9568   0.304E-03 0.241E-05
CGA:  39    -0.313072755458E+03   -0.21187E-04   -0.21004E-04  9568   0.315E-03 0.305E-05
CGA:  40    -0.313072766474E+03   -0.11016E-04   -0.11023E-04  9568   0.219E-03-0.220E-05
CGA:  41    -0.313072776025E+03   -0.95508E-05   -0.95641E-05  9568   0.216E-03-0.187E-05
CGA:  42    -0.313072787593E+03   -0.11568E-04   -0.11658E-04  9568   0.113E-03-0.463E-05
CGA:  43    -0.313072791957E+03   -0.43641E-05   -0.43753E-05  9568   0.226E-03-0.209E-05
   2 F= -.31307279E+03 E0= -.31305069E+03  d E =-.160384E-02  mag=    25.8098
       N       E                     dE             d eps       ncg     rms          ort
SDA:   1    -0.313064059153E+03    0.87284E-02    0.00000E+00  9568   0.220E+00 0.000E+00
CGA:   2    -0.313068204255E+03   -0.41451E-02   -0.41883E-02  9568   0.131E+00-0.624E-03
CGA:   3    -0.313073564029E+03   -0.53598E-02   -0.53330E-02  9568   0.134E+00 0.211E-02
CGA:   4    -0.313080016949E+03   -0.64529E-02   -0.64589E-02  9568   0.125E+00-0.313E-03
CGA:   5    -0.313083755053E+03   -0.37381E-02   -0.37431E-02  9568   0.606E-01 0.835E-03
CGA:   6    -0.313085743510E+03   -0.19885E-02   -0.19885E-02  9568   0.265E-01-0.241E-03
CGA:   7    -0.313086797478E+03   -0.10540E-02   -0.10537E-02  9568   0.493E-01 0.298E-04
CGA:   8    -0.313088459980E+03   -0.16625E-02   -0.16626E-02  9568   0.109E-01-0.555E-04
CGA:   9    -0.313088935158E+03   -0.47518E-03   -0.47437E-03  9568   0.500E-02 0.589E-04
CGA:  10    -0.313089057824E+03   -0.12267E-03   -0.12253E-03  9568   0.491E-02-0.323E-05
CGA:  11    -0.313089313536E+03   -0.25571E-03   -0.25567E-03  9568   0.252E-02 0.253E-05
CGA:  12    -0.313089396011E+03   -0.82474E-04   -0.82477E-04  9568   0.137E-02 0.181E-05
CGA:  13    -0.313089430172E+03   -0.34161E-04   -0.34178E-04  9568   0.801E-03 0.203E-05
CGA:  14    -0.313089460985E+03   -0.30813E-04   -0.30815E-04  9568   0.759E-03-0.112E-06
CGA:  15    -0.313089485930E+03   -0.24946E-04   -0.24948E-04  9568   0.590E-03 0.287E-05
CGA:  16    -0.313089506267E+03   -0.20337E-04   -0.20337E-04  9568   0.251E-03-0.211E-06
CGA:  17    -0.313089519943E+03   -0.13676E-04   -0.13629E-04  9568   0.457E-03 0.227E-05
CGA:  18    -0.313089529323E+03   -0.93801E-05   -0.93913E-05  9568   0.841E-04 0.814E-06
   3 F= -.31308953E+03 E0= -.31306738E+03  d E =-.167374E-01  mag=    25.8090
       N       E                     dE             d eps       ncg     rms          ort
SDA:   1    -0.312287074526E+03    0.80245E+00    0.00000E+00  9568   0.619E+01 0.000E+00
CGA:   2    -0.312402469165E+03   -0.11539E+00   -0.12153E+00  9568   0.437E+01-0.145E+00
CGA:   3    -0.312672027151E+03   -0.26956E+00   -0.26358E+00  9568   0.708E+01 0.217E+00
CGA:   4    -0.312884165103E+03   -0.21214E+00   -0.21693E+00  9568   0.312E+01 0.122E+00
CGA:   5    -0.312979878640E+03   -0.95714E-01   -0.92623E-01  9568   0.147E+01-0.896E-01
CGA:   6    -0.313061546890E+03   -0.81668E-01   -0.81998E-01  9568   0.138E+01-0.143E-01
CGA:   7    -0.313099317072E+03   -0.37770E-01   -0.37832E-01  9568   0.143E+01 0.874E-04
CGA:   8    -0.313146575375E+03   -0.47258E-01   -0.47385E-01  9568   0.198E+00 0.120E-01
CGA:   9    -0.313154191647E+03   -0.76163E-02   -0.76156E-02  9568   0.281E+00 0.274E-03
CGA:  10    -0.313167303779E+03   -0.13112E-01   -0.13039E-01  9568   0.147E+00 0.550E-02
CGA:  11    -0.313170950759E+03   -0.36470E-02   -0.36465E-02  9568   0.859E-01-0.106E-04
CGA:  12    -0.313172912247E+03   -0.19615E-02   -0.19659E-02  9568   0.321E-01-0.344E-04
CGA:  13    -0.313174519279E+03   -0.16070E-02   -0.16003E-02  9568   0.264E-01 0.376E-03
CGA:  14    -0.313176166388E+03   -0.16471E-02   -0.16472E-02  9568   0.316E-01 0.623E-05
CGA:  15    -0.313176738334E+03   -0.57195E-03   -0.57039E-03  9568   0.118E-01 0.490E-04
CGA:  16    -0.313177249503E+03   -0.51117E-03   -0.51066E-03  9568   0.626E-02 0.577E-04
CGA:  17    -0.313177567583E+03   -0.31808E-03   -0.31812E-03  9568   0.110E-01-0.977E-07
CGA:  18    -0.313177983898E+03   -0.41632E-03   -0.41633E-03  9568   0.505E-02 0.242E-04
CGA:  19    -0.313178164301E+03   -0.18040E-03   -0.18041E-03  9568   0.606E-02 0.386E-05
CGA:  20    -0.313178326314E+03   -0.16201E-03   -0.16229E-03  9568   0.292E-02 0.101E-04
CGA:  21    -0.313178456147E+03   -0.12983E-03   -0.12983E-03  9568   0.208E-02 0.357E-06
CGA:  22    -0.313178617703E+03   -0.16156E-03   -0.16155E-03  9568   0.283E-02 0.294E-07
CGA:  23    -0.313178682490E+03   -0.64787E-04   -0.64770E-04  9568   0.221E-02-0.151E-06
CGA:  24    -0.313178788628E+03   -0.10614E-03   -0.10606E-03  9568   0.988E-03 0.732E-05
CGA:  25    -0.313178817273E+03   -0.28645E-04   -0.28668E-04  9568   0.845E-03 0.135E-05
CGA:  26    -0.313178868763E+03   -0.51489E-04   -0.51455E-04  9568   0.913E-03 0.154E-05
CGA:  27    -0.313178903031E+03   -0.34268E-04   -0.34271E-04  9568   0.978E-03 0.127E-05
CGA:  28    -0.313178926050E+03   -0.23020E-04   -0.23080E-04  9568   0.415E-03 0.258E-05
CGA:  29    -0.313178941848E+03   -0.15798E-04   -0.15799E-04  9568   0.176E-03 0.130E-05
CGA:  30    -0.313178955979E+03   -0.14131E-04   -0.14047E-04  9568   0.351E-03 0.190E-05
CGA:  31    -0.313178964621E+03   -0.86425E-05   -0.86403E-05  9568   0.231E-03-0.702E-07
   4 F= -.31317896E+03 E0= -.31315676E+03  d E =-.894353E-01  mag=    25.8103
       N       E                     dE             d eps       ncg     rms          ort
SDA:   1    -0.311812164285E+03    0.13668E+01    0.00000E+00  9568   0.128E+02 0.000E+00
CGA:   2    -0.312030390777E+03   -0.21823E+00   -0.23716E+00  9568   0.631E+01-0.619E+00
CGA:   3    -0.312457682765E+03   -0.42729E+00   -0.42226E+00  9568   0.144E+02 0.149E+00
CGA:   4    -0.312773143586E+03   -0.31546E+00   -0.34108E+00  9568   0.483E+01-0.439E+00
CGA:   5    -0.312939401225E+03   -0.16626E+00   -0.16330E+00  9568   0.266E+01-0.210E+00
CGA:   6    -0.313037969563E+03   -0.98568E-01   -0.98406E-01  9568   0.286E+01-0.813E-01
CGA:   7    -0.313132992114E+03   -0.95023E-01   -0.95725E-01  9568   0.244E+01 0.494E-01
CGA:   8    -0.313190327316E+03   -0.57335E-01   -0.56604E-01  9568   0.121E+01 0.801E-02
CGA:   9    -0.313215083320E+03   -0.24756E-01   -0.25617E-01  9568   0.310E+00-0.164E-01
CGA:  10    -0.313232638020E+03   -0.17555E-01   -0.17447E-01  9568   0.518E+00 0.467E-02
CGA:  11    -0.313245826087E+03   -0.13188E-01   -0.13200E-01  9568   0.293E+00-0.149E-04
CGA:  12    -0.313252517463E+03   -0.66914E-02   -0.66538E-02  9568   0.989E-01 0.378E-03
CGA:  13    -0.313255005152E+03   -0.24877E-02   -0.24702E-02  9568   0.495E-01-0.919E-05
CGA:  14    -0.313257843657E+03   -0.28385E-02   -0.28287E-02  9568   0.763E-01 0.422E-03
CGA:  15    -0.313259767909E+03   -0.19243E-02   -0.19299E-02  9568   0.531E-01 0.241E-04
CGA:  16    -0.313261136004E+03   -0.13681E-02   -0.13646E-02  9568   0.179E-01-0.230E-04
CGA:  17    -0.313261783570E+03   -0.64757E-03   -0.64759E-03  9568   0.168E-01 0.647E-04
CGA:  18    -0.313262477044E+03   -0.69347E-03   -0.69237E-03  9568   0.152E-01 0.148E-03
CGA:  19    -0.313262957687E+03   -0.48064E-03   -0.48062E-03  9568   0.177E-01 0.213E-05
CGA:  20    -0.313263476136E+03   -0.51845E-03   -0.51944E-03  9568   0.796E-02 0.437E-04
CGA:  21    -0.313263790989E+03   -0.31485E-03   -0.31471E-03  9568   0.646E-02 0.269E-04
CGA:  22    -0.313264011239E+03   -0.22025E-03   -0.22029E-03  9568   0.582E-02 0.109E-04
CGA:  23    -0.313264193719E+03   -0.18248E-03   -0.18248E-03  9568   0.582E-02 0.368E-05
CGA:  24    -0.313264384900E+03   -0.19118E-03   -0.19112E-03  9568   0.508E-02-0.667E-05
CGA:  25    -0.313264627525E+03   -0.24262E-03   -0.24221E-03  9568   0.249E-02 0.277E-04
CGA:  26    -0.313264693377E+03   -0.65852E-04   -0.65894E-04  9568   0.194E-02 0.180E-05
CGA:  27    -0.313264763883E+03   -0.70506E-04   -0.70507E-04  9568   0.240E-02 0.621E-06
CGA:  28    -0.313264849636E+03   -0.85753E-04   -0.85754E-04  9568   0.200E-02 0.109E-04
CGA:  29    -0.313264924741E+03   -0.75105E-04   -0.75102E-04  9568   0.925E-03 0.235E-05
CGA:  30    -0.313264955137E+03   -0.30396E-04   -0.30398E-04  9568   0.730E-03 0.105E-05
CGA:  31    -0.313264973530E+03   -0.18393E-04   -0.18411E-04  9568   0.575E-03 0.119E-05
SDA:  32    -0.313265001254E+03   -0.27724E-04   -0.27724E-04  9568   0.708E-03 0.314E-06
CGA:  33    -0.313265011315E+03   -0.10061E-04   -0.10103E-04  9568   0.112E-03-0.419E-06
CGA:  34    -0.313265023691E+03   -0.12376E-04   -0.12435E-04  9568   0.553E-03-0.122E-05
CGA:  35    -0.313265036879E+03   -0.13188E-04   -0.13180E-04  9568   0.240E-03-0.564E-06
CGA:  36    -0.313265053840E+03   -0.16961E-04   -0.17001E-04  9568   0.118E-03-0.147E-05
CGA:  37    -0.313265060257E+03   -0.64170E-05   -0.64225E-05  9568   0.123E-03-0.612E-06
   5 F= -.31326506E+03 E0= -.31324282E+03  d E =-.860956E-01  mag=    25.8110
       N       E                     dE             d eps       ncg     rms          ort
SDA:   1    -0.308522956189E+03    0.47421E+01    0.00000E+00  9568   0.615E+02 0.000E+00
CGA:   2    -0.309320473632E+03   -0.79752E+00   -0.10679E+01  9568   0.275E+02-0.969E+01
CGA:   3    -0.310389219434E+03   -0.10687E+01   -0.10609E+01  9568   0.384E+02 0.692E+00
CGA:   4    -0.311488247645E+03   -0.10990E+01   -0.11896E+01  9568   0.156E+02 0.230E+01
CGA:   5    -0.312111334417E+03   -0.62309E+00   -0.60383E+00  9568   0.153E+02-0.463E+01
CGA:   6    -0.312570974622E+03   -0.45964E+00   -0.46785E+00  9568   0.119E+02-0.982E+00
CGA:   7    -0.312789402657E+03   -0.21843E+00   -0.24867E+00  9568   0.112E+02-0.378E+00
CGA:   8    -0.313043189249E+03   -0.25379E+00   -0.22778E+00  9568   0.244E+01 0.635E+00
CGA:   9    -0.313117608240E+03   -0.74419E-01   -0.75536E-01  9568   0.216E+01 0.354E-01
CGA:  10    -0.313230764781E+03   -0.11316E+00   -0.11437E+00  9568   0.240E+01-0.604E-01
CGA:  11    -0.313296955996E+03   -0.66191E-01   -0.66370E-01  9568   0.700E+00 0.261E-02
CGA:  12    -0.313314476424E+03   -0.17520E-01   -0.17781E-01  9568   0.315E+00 0.123E-02
CGA:  13    -0.313321241026E+03   -0.67646E-02   -0.67856E-02  9568   0.234E+00-0.268E-03
CGA:  14    -0.313338386334E+03   -0.17145E-01   -0.17526E-01  9568   0.409E+00-0.972E-02
CGA:  15    -0.313347050987E+03   -0.86647E-02   -0.90811E-02  9568   0.958E-01-0.190E-02
CGA:  16    -0.313350601159E+03   -0.35502E-02   -0.35491E-02  9568   0.560E-01 0.118E-02
CGA:  17    -0.313351938141E+03   -0.13370E-02   -0.13418E-02  9568   0.536E-01 0.945E-05
CGA:  18    -0.313356874098E+03   -0.49360E-02   -0.49484E-02  9568   0.923E-01-0.295E-03
CGA:  19    -0.313358547073E+03   -0.16730E-02   -0.17110E-02  9568   0.159E-01-0.103E-02
CGA:  20    -0.313359303494E+03   -0.75642E-03   -0.75718E-03  9568   0.247E-01-0.515E-04
CGA:  21    -0.313360200903E+03   -0.89741E-03   -0.89797E-03  9568   0.227E-01 0.146E-03
CGA:  22    -0.313360904657E+03   -0.70375E-03   -0.70329E-03  9568   0.158E-01-0.889E-05
CGA:  23    -0.313361645263E+03   -0.74061E-03   -0.73904E-03  9568   0.131E-01 0.127E-03
CGA:  24    -0.313361997005E+03   -0.35174E-03   -0.35254E-03  9568   0.788E-02 0.881E-05
CGA:  25    -0.313362316295E+03   -0.31929E-03   -0.31914E-03  9568   0.718E-02 0.336E-04
CGA:  26    -0.313362496387E+03   -0.18009E-03   -0.17962E-03  9568   0.397E-02 0.133E-05
CGA:  27    -0.313362810094E+03   -0.31371E-03   -0.31201E-03  9568   0.576E-02 0.418E-04
CGA:  28    -0.313362927630E+03   -0.11754E-03   -0.11730E-03  9568   0.182E-02 0.757E-05
CGA:  29    -0.313363007428E+03   -0.79798E-04   -0.79776E-04  9568   0.268E-02 0.502E-05
CGA:  30    -0.313363105378E+03   -0.97949E-04   -0.97968E-04  9568   0.196E-02 0.840E-05
CGA:  31    -0.313363197961E+03   -0.92583E-04   -0.92493E-04  9568   0.145E-02 0.104E-04
SDA:  32    -0.313363228646E+03   -0.30685E-04   -0.30727E-04  9568   0.653E-03 0.136E-05
CGA:  33    -0.313363241001E+03   -0.12355E-04   -0.12338E-04  9568   0.492E-03-0.132E-05
CGA:  34    -0.313363273511E+03   -0.32509E-04   -0.32770E-04  9568   0.529E-03-0.910E-05
CGA:  35    -0.313363313759E+03   -0.40248E-04   -0.40552E-04  9568   0.361E-03-0.790E-05
CGA:  36    -0.313363328285E+03   -0.14526E-04   -0.14526E-04  9568   0.607E-03 0.494E-07
CGA:  37    -0.313363355367E+03   -0.27082E-04   -0.27074E-04  9568   0.353E-03 0.186E-05
CGA:  38    -0.313363363377E+03   -0.80098E-05   -0.80214E-05  9568   0.229E-03 0.727E-06
CGA:  39    -0.313363373900E+03   -0.10524E-04   -0.10502E-04  9568   0.247E-03 0.337E-05
CGA:  40    -0.313363386374E+03   -0.12474E-04   -0.12445E-04  9568   0.144E-03 0.276E-05
CGA:  41    -0.313363396732E+03   -0.10358E-04   -0.10360E-04  9568   0.198E-03-0.247E-06
CGA:  42    -0.313363401731E+03   -0.49989E-05   -0.49750E-05  9568   0.200E-03-0.150E-05
CGA:  43    -0.313363413225E+03   -0.11495E-04   -0.11560E-04  9568   0.464E-04-0.405E-05
CGA:  44    -0.313363416262E+03   -0.30367E-05   -0.30575E-05  9568   0.114E-03-0.989E-06
   6 F= -.31336342E+03 E0= -.31334119E+03  d E =-.983560E-01  mag=    25.8104
       N       E                     dE             d eps       ncg     rms          ort
SDA:   1    -0.306727035466E+03    0.66364E+01    0.00000E+00  9568   0.464E+02 0.000E+00
CGA:   2    -0.307655197981E+03   -0.92816E+00   -0.89561E+00  9568   0.276E+02 0.372E+00
CGA:   3    -0.309504939867E+03   -0.18497E+01   -0.19981E+01  9568   0.878E+02-0.513E+01
CGA:   4    -0.310734073301E+03   -0.12291E+01   -0.15364E+01  9568   0.593E+02-0.811E+01
CGA:   5    -0.311247714842E+03   -0.51364E+00   -0.81760E+00  9568   0.399E+02-0.125E+02
CGA:   6    -0.311692063794E+03   -0.44435E+00   -0.49159E+00  9568   0.133E+02-0.408E+01
CGA:   7    -0.312018732762E+03   -0.32667E+00   -0.31046E+00  9568   0.218E+02 0.279E-02
CGA:   8    -0.312667344450E+03   -0.64861E+00   -0.63764E+00  9568   0.181E+02-0.255E+00
CGA:   9    -0.312937322847E+03   -0.26998E+00   -0.27716E+00  9568   0.532E+01-0.380E+00
CGA:  10    -0.313078727209E+03   -0.14140E+00   -0.13628E+00  9568   0.355E+01-0.436E-01
CGA:  11    -0.313159167265E+03   -0.80440E-01   -0.73978E-01  9568   0.235E+01 0.105E+00
CGA:  12    -0.313208842607E+03   -0.49675E-01   -0.47419E-01  9568   0.225E+01 0.458E-01
CGA:  13    -0.313319037590E+03   -0.11019E+00   -0.10899E+00  9568   0.299E+01 0.718E-01
CGA:  14    -0.313349484487E+03   -0.30447E-01   -0.36644E-01  9568   0.396E+00-0.395E+00
CGA:  15    -0.313368313721E+03   -0.18829E-01   -0.18751E-01  9568   0.493E+00 0.331E-02
CGA:  16    -0.313383058422E+03   -0.14745E-01   -0.14809E-01  9568   0.446E+00 0.352E-02
CGA:  17    -0.313398906350E+03   -0.15848E-01   -0.15849E-01  9568   0.468E+00-0.932E-02
CGA:  18    -0.313410781133E+03   -0.11875E-01   -0.12188E-01  9568   0.895E-01 0.748E-02
CGA:  19    -0.313416263276E+03   -0.54821E-02   -0.55256E-02  9568   0.153E+00-0.152E-02
CGA:  20    -0.313420191945E+03   -0.39287E-02   -0.40185E-02  9568   0.973E-01 0.162E-02
CGA:  21    -0.313424550404E+03   -0.43585E-02   -0.43521E-02  9568   0.801E-01 0.540E-03
CGA:  22    -0.313426239960E+03   -0.16896E-02   -0.16990E-02  9568   0.285E-01-0.989E-04
CGA:  23    -0.313427738225E+03   -0.14983E-02   -0.14923E-02  9568   0.393E-01 0.279E-03
CGA:  24    -0.313429157388E+03   -0.14192E-02   -0.14193E-02  9568   0.222E-01 0.144E-03
CGA:  25    -0.313429763269E+03   -0.60588E-03   -0.60610E-03  9568   0.192E-01 0.528E-05
CGA:  26    -0.313430567907E+03   -0.80464E-03   -0.80381E-03  9568   0.808E-02 0.893E-04
CGA:  27    -0.313430953640E+03   -0.38573E-03   -0.38519E-03  9568   0.131E-01 0.360E-04
CGA:  28    -0.313431326398E+03   -0.37276E-03   -0.37328E-03  9568   0.468E-02 0.183E-04
CGA:  29    -0.313431510502E+03   -0.18410E-03   -0.18407E-03  9568   0.649E-02 0.539E-05
CGA:  30    -0.313431788234E+03   -0.27773E-03   -0.27769E-03  9568   0.446E-02 0.696E-05
CGA:  31    -0.313431927823E+03   -0.13959E-03   -0.13963E-03  9568   0.262E-02 0.391E-05
SDA:  32    -0.313432026561E+03   -0.98738E-04   -0.98728E-04  9568   0.273E-02 0.521E-05
CGA:  33    -0.313432067300E+03   -0.40739E-04   -0.40730E-04  9568   0.106E-02-0.319E-05
CGA:  34    -0.313432141264E+03   -0.73963E-04   -0.74131E-04  9568   0.198E-02-0.578E-05
CGA:  35    -0.313432277828E+03   -0.13656E-03   -0.13659E-03  9568   0.236E-02-0.167E-05
CGA:  36    -0.313432350654E+03   -0.72826E-04   -0.72878E-04  9568   0.108E-02 0.295E-05
CGA:  37    -0.313432383327E+03   -0.32674E-04   -0.32675E-04  9568   0.634E-03-0.246E-06
CGA:  38    -0.313432428033E+03   -0.44706E-04   -0.44551E-04  9568   0.307E-03 0.422E-05
CGA:  39    -0.313432486357E+03   -0.58323E-04   -0.57324E-04  9568   0.106E-02 0.670E-05
CGA:  40    -0.313432517527E+03   -0.31170E-04   -0.31262E-04  9568   0.106E-02 0.315E-05
CGA:  41    -0.313432552546E+03   -0.35018E-04   -0.35035E-04  9568   0.295E-03 0.147E-05
CGA:  42    -0.313432561651E+03   -0.91055E-05   -0.90908E-05  9568   0.367E-03-0.144E-05
CGA:  43    -0.313432594243E+03   -0.32592E-04   -0.32835E-04  9568   0.204E-03-0.554E-05
CGA:  44    -0.313432617430E+03   -0.23186E-04   -0.23297E-04  9568   0.140E-03-0.182E-05
CGA:  45    -0.313432622054E+03   -0.46245E-05   -0.46421E-05  9568   0.120E-03 0.603E-06
   7 F= -.31343262E+03 E0= -.31341067E+03  d E =-.692058E-01  mag=    25.8098
       N       E                     dE             d eps       ncg     rms          ort
SDA:   1    -0.312895176638E+03    0.53744E+00    0.00000E+00  9568   0.190E+01 0.000E+00
CGA:   2    -0.312977780531E+03   -0.82604E-01   -0.81823E-01  9568   0.427E+01-0.495E-01
CGA:   3    -0.313234110996E+03   -0.25633E+00   -0.25473E+00  9568   0.352E+01 0.881E-01
CGA:   4    -0.313315580742E+03   -0.81470E-01   -0.76282E-01  9568   0.121E+01 0.157E+00
CGA:   5    -0.313351969771E+03   -0.36389E-01   -0.35089E-01  9568   0.872E+00 0.154E-01
CGA:   6    -0.313400496493E+03   -0.48527E-01   -0.48714E-01  9568   0.641E+00-0.144E-01
CGA:   7    -0.313421624249E+03   -0.21128E-01   -0.21574E-01  9568   0.531E+00 0.449E-02
CGA:   8    -0.313433893938E+03   -0.12270E-01   -0.12194E-01  9568   0.788E-01 0.156E-02
CGA:   9    -0.313439953686E+03   -0.60597E-02   -0.60572E-02  9568   0.214E+00 0.928E-04
CGA:  10    -0.313444646145E+03   -0.46925E-02   -0.46934E-02  9568   0.402E-01-0.799E-06
CGA:  11    -0.313445955204E+03   -0.13091E-02   -0.13108E-02  9568   0.284E-01 0.144E-04
CGA:  12    -0.313446727679E+03   -0.77247E-03   -0.76587E-03  9568   0.173E-01 0.529E-04
CGA:  13    -0.313447584544E+03   -0.85687E-03   -0.85625E-03  9568   0.159E-01 0.724E-04
CGA:  14    -0.313448258142E+03   -0.67360E-03   -0.67379E-03  9568   0.691E-02 0.412E-04
CGA:  15    -0.313448442262E+03   -0.18412E-03   -0.18352E-03  9568   0.526E-02 0.244E-05
CGA:  16    -0.313448689208E+03   -0.24695E-03   -0.24685E-03  9568   0.203E-02 0.158E-04
CGA:  17    -0.313448793969E+03   -0.10476E-03   -0.10471E-03  9568   0.344E-02 0.438E-05
CGA:  18    -0.313448895093E+03   -0.10112E-03   -0.10107E-03  9568   0.232E-02 0.870E-06
CGA:  19    -0.313448996227E+03   -0.10113E-03   -0.10113E-03  9568   0.147E-02 0.385E-05
CGA:  20    -0.313449025838E+03   -0.29611E-04   -0.29638E-04  9568   0.539E-03 0.191E-05
CGA:  21    -0.313449056093E+03   -0.30255E-04   -0.30235E-04  9568   0.864E-03 0.890E-06
CGA:  22    -0.313449119317E+03   -0.63224E-04   -0.63032E-04  9568   0.627E-03 0.605E-05
CGA:  23    -0.313449135239E+03   -0.15922E-04   -0.15977E-04  9568   0.465E-03 0.134E-05
CGA:  24    -0.313449157109E+03   -0.21870E-04   -0.21871E-04  9568   0.273E-03-0.813E-06
CGA:  25    -0.313449167115E+03   -0.10006E-04   -0.10003E-04  9568   0.416E-03-0.760E-06
CGA:  26    -0.313449182269E+03   -0.15153E-04   -0.15150E-04  9568   0.186E-03-0.102E-05
CGA:  27    -0.313449193513E+03   -0.11244E-04   -0.11263E-04  9568   0.282E-03-0.137E-05
CGA:  28    -0.313449203603E+03   -0.10090E-04   -0.10078E-04  9568   0.162E-03-0.163E-05
CGA:  29    -0.313449207227E+03   -0.36247E-05   -0.36356E-05  9568   0.515E-04 0.168E-06
   8 F= -.31344921E+03 E0= -.31342728E+03  d E =-.165852E-01  mag=    25.8126
       N       E                     dE             d eps       ncg     rms          ort
SDA:   1    -0.312160584638E+03    0.12886E+01    0.00000E+00  9568   0.811E+01 0.000E+00
CGA:   2    -0.312292469478E+03   -0.13188E+00   -0.14512E+00  9568   0.565E+01-0.549E+00
CGA:   3    -0.313083356235E+03   -0.79089E+00   -0.78758E+00  9568   0.504E+01 0.204E-01
CGA:   4    -0.313193458714E+03   -0.11010E+00   -0.89546E-01  9568   0.153E+01 0.837E+00
CGA:   5    -0.313289859661E+03   -0.96401E-01   -0.96887E-01  9568   0.273E+01-0.439E-01
CGA:   6    -0.313358601446E+03   -0.68742E-01   -0.67846E-01  9568   0.167E+01 0.142E-01
CGA:   7    -0.313414204783E+03   -0.55603E-01   -0.55529E-01  9568   0.761E+00 0.873E-03
CGA:   8    -0.313432337588E+03   -0.18133E-01   -0.18395E-01  9568   0.375E+00-0.512E-02
CGA:   9    -0.313441197681E+03   -0.88601E-02   -0.88068E-02  9568   0.289E+00 0.106E-02
CGA:  10    -0.313458174166E+03   -0.16976E-01   -0.16917E-01  9568   0.181E+00 0.298E-02
CGA:  11    -0.313462369583E+03   -0.41954E-02   -0.41862E-02  9568   0.779E-01 0.172E-03
CGA:  12    -0.313464579426E+03   -0.22098E-02   -0.21967E-02  9568   0.334E-01 0.308E-04
CGA:  13    -0.313465984270E+03   -0.14048E-02   -0.14049E-02  9568   0.586E-01 0.129E-04
CGA:  14    -0.313468169402E+03   -0.21851E-02   -0.21849E-02  9568   0.362E-01-0.298E-04
CGA:  15    -0.313469059706E+03   -0.89030E-03   -0.89422E-03  9568   0.773E-02-0.479E-04
CGA:  16    -0.313469436082E+03   -0.37638E-03   -0.37642E-03  9568   0.818E-02-0.858E-05
CGA:  17    -0.313469700606E+03   -0.26452E-03   -0.26406E-03  9568   0.875E-02-0.167E-04
CGA:  18    -0.313470144415E+03   -0.44381E-03   -0.44349E-03  9568   0.722E-02 0.196E-04
CGA:  19    -0.313470290062E+03   -0.14565E-03   -0.14643E-03  9568   0.300E-02-0.171E-04
CGA:  20    -0.313470426802E+03   -0.13674E-03   -0.13674E-03  9568   0.281E-02 0.829E-06
CGA:  21    -0.313470531570E+03   -0.10477E-03   -0.10479E-03  9568   0.124E-02 0.346E-05
CGA:  22    -0.313470643932E+03   -0.11236E-03   -0.11140E-03  9568   0.306E-02 0.189E-04
CGA:  23    -0.313470727282E+03   -0.83350E-04   -0.83430E-04  9568   0.153E-02 0.324E-05
CGA:  24    -0.313470790740E+03   -0.63459E-04   -0.63463E-04  9568   0.133E-02 0.137E-05
CGA:  25    -0.313470821151E+03   -0.30410E-04   -0.30423E-04  9568   0.604E-03-0.137E-05
CGA:  26    -0.313470848251E+03   -0.27101E-04   -0.27114E-04  9568   0.819E-03-0.467E-05
CGA:  27    -0.313470902149E+03   -0.53898E-04   -0.54030E-04  9568   0.404E-03-0.611E-05
CGA:  28    -0.313470926645E+03   -0.24496E-04   -0.24499E-04  9568   0.378E-03-0.102E-05
CGA:  29    -0.313470940972E+03   -0.14327E-04   -0.14331E-04  9568   0.315E-03 0.197E-06
CGA:  30    -0.313470952813E+03   -0.11841E-04   -0.11866E-04  9568   0.219E-03 0.345E-05
CGA:  31    -0.313470961071E+03   -0.82579E-05   -0.82738E-05  9568   0.175E-03 0.229E-05
   9 F= -.31347096E+03 E0= -.31344911E+03  d E =-.217538E-01  mag=    25.8164
       N       E                     dE             d eps       ncg     rms          ort
SDA:   1    -0.309898613134E+03    0.35723E+01    0.00000E+00  9568   0.122E+02 0.000E+00
CGA:   2    -0.310472285208E+03   -0.57367E+00   -0.57524E+00  9568   0.294E+02-0.221E+00
CGA:   3    -0.311931945499E+03   -0.14597E+01   -0.14551E+01  9568   0.294E+02 0.435E+00
CGA:   4    -0.312664613295E+03   -0.73267E+00   -0.67581E+00  9568   0.760E+01 0.144E+01
CGA:   5    -0.312850804144E+03   -0.18619E+00   -0.16442E+00  9568   0.416E+01 0.555E+00
CGA:   6    -0.313173454149E+03   -0.32265E+00   -0.32666E+00  9568   0.781E+01-0.116E+00
CGA:   7    -0.313306231708E+03   -0.13278E+00   -0.15057E+00  9568   0.298E+01-0.517E+00
CGA:   8    -0.313388707334E+03   -0.82476E-01   -0.81023E-01  9568   0.760E+00-0.781E-02
CGA:   9    -0.313416103922E+03   -0.27397E-01   -0.27444E-01  9568   0.105E+01 0.328E-02
CGA:  10    -0.313456661730E+03   -0.40558E-01   -0.40638E-01  9568   0.597E+00 0.117E-01
CGA:  11    -0.313475487877E+03   -0.18826E-01   -0.18743E-01  9568   0.153E+00-0.136E-02
CGA:  12    -0.313480413062E+03   -0.49252E-02   -0.49213E-02  9568   0.151E+00-0.101E-03
CGA:  13    -0.313485795337E+03   -0.53823E-02   -0.53836E-02  9568   0.117E+00 0.113E-03
CGA:  14    -0.313492293073E+03   -0.64977E-02   -0.65058E-02  9568   0.787E-01-0.402E-03
CGA:  15    -0.313493813356E+03   -0.15203E-02   -0.15384E-02  9568   0.353E-01-0.484E-03
CGA:  16    -0.313495367521E+03   -0.15542E-02   -0.15528E-02  9568   0.267E-01 0.189E-03
CGA:  17    -0.313496351837E+03   -0.98432E-03   -0.98520E-03  9568   0.222E-01 0.111E-03
CGA:  18    -0.313497022901E+03   -0.67106E-03   -0.66988E-03  9568   0.158E-01-0.275E-04
CGA:  19    -0.313497894621E+03   -0.87172E-03   -0.87047E-03  9568   0.125E-01 0.630E-04
CGA:  20    -0.313498348475E+03   -0.45385E-03   -0.45399E-03  9568   0.101E-01 0.213E-04
CGA:  21    -0.313498567970E+03   -0.21950E-03   -0.21942E-03  9568   0.332E-02 0.901E-05
CGA:  22    -0.313498827180E+03   -0.25921E-03   -0.25830E-03  9568   0.718E-02 0.231E-04
CGA:  23    -0.313499071190E+03   -0.24401E-03   -0.24448E-03  9568   0.571E-02 0.321E-04
CGA:  24    -0.313499260375E+03   -0.18919E-03   -0.18931E-03  9568   0.233E-02 0.927E-05
CGA:  25    -0.313499377757E+03   -0.11738E-03   -0.11727E-03  9568   0.300E-02 0.738E-05
CGA:  26    -0.313499464210E+03   -0.86453E-04   -0.86483E-04  9568   0.213E-02-0.215E-05
CGA:  27    -0.313499545487E+03   -0.81277E-04   -0.81268E-04  9568   0.122E-02-0.569E-05
CGA:  28    -0.313499634281E+03   -0.88794E-04   -0.89098E-04  9568   0.273E-02-0.951E-05
CGA:  29    -0.313499698317E+03   -0.64036E-04   -0.64215E-04  9568   0.604E-03-0.237E-05
CGA:  30    -0.313499724323E+03   -0.26005E-04   -0.25999E-04  9568   0.675E-03 0.235E-05
CGA:  31    -0.313499753028E+03   -0.28705E-04   -0.28696E-04  9568   0.951E-03 0.535E-05
SDA:  32    -0.313499787019E+03   -0.33991E-04   -0.34040E-04  9568   0.360E-03 0.808E-05
CGA:  33    -0.313499797380E+03   -0.10361E-04   -0.10352E-04  9568   0.245E-03-0.114E-05
CGA:  34    -0.313499805249E+03   -0.78683E-05   -0.78562E-05  9568   0.271E-03-0.192E-05
CGA:  35    -0.313499818698E+03   -0.13450E-04   -0.13471E-04  9568   0.250E-03-0.241E-05
CGA:  36    -0.313499834260E+03   -0.15561E-04   -0.15594E-04  9568   0.861E-04-0.178E-05
CGA:  37    -0.313499840614E+03   -0.63545E-05   -0.62929E-05  9568   0.209E-03 0.164E-05
  10 F= -.31349984E+03 E0= -.31347806E+03  d E =-.288795E-01  mag=    25.8225
       N       E                     dE             d eps       ncg     rms          ort
SDA:   1    -0.305053064669E+03    0.84468E+01    0.00000E+00  9568   0.743E+02 0.000E+00
CGA:   2    -0.306064645845E+03   -0.10116E+01   -0.14673E+01  9568   0.549E+02-0.188E+02
CGA:   3    -0.308436577953E+03   -0.23719E+01   -0.34131E+01  9568   0.185E+03-0.293E+02
CGA:   4    -0.309883727055E+03   -0.14471E+01   -0.33900E+01  9568   0.769E+02-0.672E+02
CGA:   5    -0.310721258970E+03   -0.83753E+00   -0.58473E+00  9568   0.132E+02 0.153E+02
CGA:   6    -0.310972265782E+03   -0.25101E+00   -0.25619E+00  9568   0.164E+02-0.263E+00
CGA:   7    -0.311291980990E+03   -0.31972E+00   -0.29984E+00  9568   0.260E+02 0.500E+00
CGA:   8    -0.312076723667E+03   -0.78474E+00   -0.83240E+00  9568   0.263E+02 0.235E+01
CGA:   9    -0.312660988217E+03   -0.58426E+00   -0.60376E+00  9568   0.323E+02-0.614E+00
CGA:  10    -0.313070955597E+03   -0.40997E+00   -0.28151E+00  9568   0.115E+02 0.117E+02
CGA:  11    -0.313196788871E+03   -0.12583E+00   -0.13164E+00  9568   0.445E+01-0.812E+00
CGA:  12    -0.313247382813E+03   -0.50594E-01   -0.44041E-01  9568   0.307E+01 0.461E+00
CGA:  13    -0.313287657237E+03   -0.40274E-01   -0.43644E-01  9568   0.356E+01-0.178E+00
CGA:  14    -0.313345169786E+03   -0.57513E-01   -0.59196E-01  9568   0.469E+01-0.354E-01
CGA:  15    -0.313404667838E+03   -0.59498E-01   -0.64237E-01  9568   0.285E+01-0.215E+00
CGA:  16    -0.313436320020E+03   -0.31652E-01   -0.30590E-01  9568   0.174E+01 0.653E-01
CGA:  17    -0.313458830025E+03   -0.22510E-01   -0.21506E-01  9568   0.985E+00 0.533E-01
CGA:  18    -0.313469141545E+03   -0.10312E-01   -0.10145E-01  9568   0.480E+00 0.119E-01
CGA:  19    -0.313474879625E+03   -0.57381E-02   -0.57317E-02  9568   0.364E+00 0.690E-03
CGA:  20    -0.313480065924E+03   -0.51863E-02   -0.53353E-02  9568   0.372E+00-0.406E-02
CGA:  21    -0.313486964048E+03   -0.68981E-02   -0.69567E-02  9568   0.618E+00 0.808E-03
CGA:  22    -0.313499767840E+03   -0.12804E-01   -0.12904E-01  9568   0.570E+00 0.514E-02
CGA:  23    -0.313506089152E+03   -0.63213E-02   -0.63642E-02  9568   0.223E+00-0.247E-02
CGA:  24    -0.313509294050E+03   -0.32049E-02   -0.31826E-02  9568   0.180E+00 0.529E-03
CGA:  25    -0.313512504552E+03   -0.32105E-02   -0.32349E-02  9568   0.181E+00 0.554E-03
CGA:  26    -0.313515636198E+03   -0.31316E-02   -0.31397E-02  9568   0.144E+00 0.145E-03
CGA:  27    -0.313517457926E+03   -0.18217E-02   -0.17901E-02  9568   0.667E-01 0.113E-02
CGA:  28    -0.313518590359E+03   -0.11324E-02   -0.11348E-02  9568   0.827E-01 0.591E-04
CGA:  29    -0.313520660301E+03   -0.20699E-02   -0.20687E-02  9568   0.124E+00 0.346E-03
CGA:  30    -0.313522619962E+03   -0.19597E-02   -0.19750E-02  9568   0.957E-01 0.150E-03
CGA:  31    -0.313524555591E+03   -0.19356E-02   -0.19388E-02  9568   0.106E+00 0.538E-03
CGA:  32    -0.313526306685E+03   -0.17511E-02   -0.17464E-02  9568   0.685E-01-0.977E-04
CGA:  33    -0.313527278517E+03   -0.97183E-03   -0.96920E-03  9568   0.347E-01 0.547E-04
SDA:  34    -0.313527747490E+03   -0.46897E-03   -0.47111E-03  9568   0.204E-01-0.103E-04
CGA:  35    -0.313528202974E+03   -0.45548E-03   -0.45550E-03  9568   0.139E-01-0.148E-04
CGA:  36    -0.313529204125E+03   -0.10012E-02   -0.99958E-03  9568   0.176E-01 0.363E-04
CGA:  37    -0.313529839224E+03   -0.63510E-03   -0.63500E-03  9568   0.218E-01 0.625E-05
CGA:  38    -0.313530476742E+03   -0.63752E-03   -0.63750E-03  9568   0.631E-02-0.342E-06
CGA:  39    -0.313530936276E+03   -0.45953E-03   -0.45991E-03  9568   0.825E-02-0.112E-04
CGA:  40    -0.313531297085E+03   -0.36081E-03   -0.36030E-03  9568   0.396E-02 0.269E-04
CGA:  41    -0.313531713173E+03   -0.41609E-03   -0.41312E-03  9568   0.112E-01 0.422E-04
CGA:  42    -0.313531969912E+03   -0.25674E-03   -0.25668E-03  9568   0.338E-02 0.517E-05
CGA:  43    -0.313532148384E+03   -0.17847E-03   -0.17837E-03  9568   0.555E-02 0.459E-05
CGA:  44    -0.313532316341E+03   -0.16796E-03   -0.16802E-03  9568   0.414E-02 0.177E-04
CGA:  45    -0.313532618352E+03   -0.30201E-03   -0.30151E-03  9568   0.147E-02 0.113E-04
CGA:  46    -0.313532706271E+03   -0.87919E-04   -0.87766E-04  9568   0.230E-02 0.510E-05
CGA:  47    -0.313532778939E+03   -0.72668E-04   -0.72601E-04  9568   0.136E-02-0.787E-05
CGA:  48    -0.313532831993E+03   -0.53054E-04   -0.53044E-04  9568   0.125E-02 0.132E-05
CGA:  49    -0.313532879200E+03   -0.47208E-04   -0.47204E-04  9568   0.134E-02 0.242E-06
CGA:  50    -0.313532925060E+03   -0.45860E-04   -0.45855E-04  9568   0.799E-03-0.307E-05
CGA:  51    -0.313532954971E+03   -0.29911E-04   -0.29912E-04  9568   0.124E-03-0.917E-06
CGA:  52    -0.313532966702E+03   -0.11730E-04   -0.11776E-04  9568   0.280E-03-0.113E-05
CGA:  53    -0.313532974139E+03   -0.74374E-05   -0.74377E-05  9568   0.164E-03-0.252E-06
  11 F= -.31353297E+03 E0= -.31351134E+03  d E =-.331335E-01  mag=    25.8288
       N       E                     dE             d eps       ncg     rms          ort
SDA:   1    -0.313242611196E+03    0.29036E+00    0.00000E+00  9568   0.315E+01 0.000E+00
CGA:   2    -0.313289403604E+03   -0.46792E-01   -0.47653E-01  9568   0.118E+01-0.436E-01
CGA:   3    -0.313398447193E+03   -0.10904E+00   -0.10828E+00  9568   0.143E+01 0.149E-01
CGA:   4    -0.313444084167E+03   -0.45637E-01   -0.45316E-01  9568   0.710E+00-0.827E-02
CGA:   5    -0.313464543604E+03   -0.20459E-01   -0.20288E-01  9568   0.649E+00-0.209E-02
CGA:   6    -0.313498016948E+03   -0.33473E-01   -0.33478E-01  9568   0.529E+00-0.112E-03
CGA:   7    -0.313518407940E+03   -0.20391E-01   -0.20384E-01  9568   0.315E+00-0.288E-02
CGA:   8    -0.313524772792E+03   -0.63649E-02   -0.64037E-02  9568   0.775E-01-0.916E-03
CGA:   9    -0.313531543671E+03   -0.67709E-02   -0.67173E-02  9568   0.128E+00 0.117E-02
CGA:  10    -0.313534199931E+03   -0.26563E-02   -0.26565E-02  9568   0.437E-01-0.625E-05
CGA:  11    -0.313535531120E+03   -0.13312E-02   -0.13307E-02  9568   0.161E-01-0.813E-05
CGA:  12    -0.313536429554E+03   -0.89843E-03   -0.89717E-03  9568   0.152E-01 0.645E-04
CGA:  13    -0.313537134604E+03   -0.70505E-03   -0.70497E-03  9568   0.190E-01 0.826E-05
CGA:  14    -0.313537528674E+03   -0.39407E-03   -0.39334E-03  9568   0.356E-02 0.170E-04
CGA:  15    -0.313537771013E+03   -0.24234E-03   -0.24254E-03  9568   0.444E-02-0.576E-05
CGA:  16    -0.313537905717E+03   -0.13470E-03   -0.13491E-03  9568   0.328E-02 0.678E-05
CGA:  17    -0.313538038026E+03   -0.13231E-03   -0.13231E-03  9568   0.263E-02-0.410E-05
CGA:  18    -0.313538142666E+03   -0.10464E-03   -0.10464E-03  9568   0.189E-02 0.205E-05
CGA:  19    -0.313538189706E+03   -0.47040E-04   -0.47083E-04  9568   0.111E-02 0.151E-05
CGA:  20    -0.313538243004E+03   -0.53298E-04   -0.53303E-04  9568   0.666E-03-0.221E-06
CGA:  21    -0.313538303070E+03   -0.60066E-04   -0.59985E-04  9568   0.147E-02 0.145E-05
CGA:  22    -0.313538332498E+03   -0.29427E-04   -0.29458E-04  9568   0.404E-03 0.227E-06
CGA:  23    -0.313538347988E+03   -0.15490E-04   -0.15490E-04  9568   0.270E-03-0.398E-07
CGA:  24    -0.313538368832E+03   -0.20844E-04   -0.20796E-04  9568   0.390E-03 0.130E-05
CGA:  25    -0.313538380908E+03   -0.12076E-04   -0.12072E-04  9568   0.356E-03-0.524E-06
CGA:  26    -0.313538391504E+03   -0.10595E-04   -0.10589E-04  9568   0.870E-04-0.424E-06
CGA:  27    -0.313538397625E+03   -0.61217E-05   -0.61128E-05  9568   0.143E-03 0.228E-06
  12 F= -.31353840E+03 E0= -.31351669E+03  d E =-.542349E-02  mag=    25.8332
       N       E                     dE             d eps       ncg     rms          ort
SDA:   1    -0.313493541919E+03    0.44850E-01    0.00000E+00  9568   0.107E+01 0.000E+00
CGA:   2    -0.313506556093E+03   -0.13014E-01   -0.13479E-01  9568   0.141E+00-0.295E-01
CGA:   3    -0.313514644600E+03   -0.80885E-02   -0.80623E-02  9568   0.248E+00 0.123E-02
CGA:   4    -0.313526938623E+03   -0.12294E-01   -0.12288E-01  9568   0.216E+00 0.594E-03
CGA:   5    -0.313531972556E+03   -0.50339E-02   -0.49656E-02  9568   0.658E-01 0.122E-02
CGA:   6    -0.313534936256E+03   -0.29637E-02   -0.29634E-02  9568   0.606E-01 0.593E-04
CGA:   7    -0.313537064791E+03   -0.21285E-02   -0.21288E-02  9568   0.673E-01 0.210E-04
CGA:   8    -0.313539331488E+03   -0.22667E-02   -0.22640E-02  9568   0.925E-02-0.966E-04
CGA:   9    -0.313539785375E+03   -0.45389E-03   -0.45351E-03  9568   0.152E-01 0.309E-04
CGA:  10    -0.313540209635E+03   -0.42426E-03   -0.42471E-03  9568   0.544E-02 0.275E-05
CGA:  11    -0.313540405814E+03   -0.19618E-03   -0.19616E-03  9568   0.356E-02-0.178E-05
CGA:  12    -0.313540536272E+03   -0.13046E-03   -0.13051E-03  9568   0.276E-02 0.770E-05
CGA:  13    -0.313540610782E+03   -0.74509E-04   -0.74438E-04  9568   0.102E-02-0.113E-05
CGA:  14    -0.313540655686E+03   -0.44904E-04   -0.44914E-04  9568   0.972E-03-0.145E-05
CGA:  15    -0.313540684295E+03   -0.28609E-04   -0.28604E-04  9568   0.840E-03-0.409E-06
CGA:  16    -0.313540732835E+03   -0.48540E-04   -0.48528E-04  9568   0.264E-03 0.720E-06
CGA:  17    -0.313540739567E+03   -0.67318E-05   -0.67294E-05  9568   0.230E-03-0.867E-07
CGA:  18    -0.313540753970E+03   -0.14403E-04   -0.14404E-04  9568   0.329E-03-0.247E-07
CGA:  19    -0.313540766395E+03   -0.12425E-04   -0.12426E-04  9568   0.187E-03 0.105E-06
CGA:  20    -0.313540771861E+03   -0.54661E-05   -0.54762E-05  9568   0.136E-03 0.958E-06
  13 F= -.31354077E+03 E0= -.31351905E+03  d E =-.237424E-02  mag=    25.8348
       N       E                     dE             d eps       ncg     rms          ort
SDA:   1    -0.313336035260E+03    0.20473E+00    0.00000E+00  9568   0.841E+00 0.000E+00
CGA:   2    -0.313363646183E+03   -0.27611E-01   -0.27626E-01  9568   0.146E+01 0.659E-03
CGA:   3    -0.313458053843E+03   -0.94408E-01   -0.96421E-01  9568   0.104E+01-0.697E-01
CGA:   4    -0.313495751638E+03   -0.37698E-01   -0.37808E-01  9568   0.534E+00 0.159E-01
CGA:   5    -0.313507509411E+03   -0.11758E-01   -0.11558E-01  9568   0.291E+00 0.446E-02
CGA:   6    -0.313528287974E+03   -0.20779E-01   -0.20850E-01  9568   0.377E+00-0.211E-02
CGA:   7    -0.313536864709E+03   -0.85767E-02   -0.86357E-02  9568   0.950E-01-0.897E-03
CGA:   8    -0.313539476291E+03   -0.26116E-02   -0.25948E-02  9568   0.528E-01-0.166E-04
CGA:   9    -0.313542728654E+03   -0.32524E-02   -0.32491E-02  9568   0.479E-01 0.134E-03
CGA:  10    -0.313543956342E+03   -0.12277E-02   -0.12306E-02  9568   0.332E-01-0.187E-04
CGA:  11    -0.313544942138E+03   -0.98580E-03   -0.98724E-03  9568   0.534E-02 0.225E-04
CGA:  12    -0.313545369809E+03   -0.42767E-03   -0.42713E-03  9568   0.133E-01 0.148E-04
CGA:  13    -0.313545700791E+03   -0.33098E-03   -0.33079E-03  9568   0.419E-02 0.687E-06
CGA:  14    -0.313545879826E+03   -0.17903E-03   -0.17901E-03  9568   0.352E-02 0.596E-05
CGA:  15    -0.313545963053E+03   -0.83227E-04   -0.83501E-04  9568   0.172E-02-0.192E-05
CGA:  16    -0.313546061618E+03   -0.98565E-04   -0.98563E-04  9568   0.942E-03 0.137E-06
CGA:  17    -0.313546106541E+03   -0.44923E-04   -0.44908E-04  9568   0.180E-02 0.186E-05
CGA:  18    -0.313546167505E+03   -0.60963E-04   -0.60961E-04  9568   0.708E-03-0.476E-06
CGA:  19    -0.313546193257E+03   -0.25752E-04   -0.25751E-04  9568   0.493E-03-0.155E-06
CGA:  20    -0.313546209736E+03   -0.16479E-04   -0.16493E-04  9568   0.403E-03 0.132E-05
CGA:  21    -0.313546231431E+03   -0.21695E-04   -0.21669E-04  9568   0.551E-03 0.167E-05
CGA:  22    -0.313546255378E+03   -0.23947E-04   -0.23945E-04  9568   0.400E-03 0.108E-05
CGA:  23    -0.313546264187E+03   -0.88088E-05   -0.88265E-05  9568   0.193E-03 0.634E-06
CGA:  24    -0.313546280022E+03   -0.15835E-04   -0.15820E-04  9568   0.156E-03 0.208E-06
CGA:  25    -0.313546284711E+03   -0.46892E-05   -0.46963E-05  9568   0.167E-03 0.404E-06
  14 F= -.31354628E+03 E0= -.31352454E+03  d E =-.551285E-02  mag=    25.8389
       N       E                     dE             d eps       ncg     rms          ort
SDA:   1    -0.313123539389E+03    0.42274E+00    0.00000E+00  9568   0.188E+01 0.000E+00
CGA:   2    -0.313176489207E+03   -0.52950E-01   -0.53061E-01  9568   0.261E+01-0.127E-02
CGA:   3    -0.313377413413E+03   -0.20092E+00   -0.20234E+00  9568   0.185E+01-0.374E-01
CGA:   4    -0.313449213472E+03   -0.71800E-01   -0.71416E-01  9568   0.143E+01-0.349E-01
CGA:   5    -0.313478777342E+03   -0.29564E-01   -0.30732E-01  9568   0.532E+00-0.248E-01
CGA:   6    -0.313516020269E+03   -0.37243E-01   -0.37078E-01  9568   0.825E+00 0.526E-02
CGA:   7    -0.313535019097E+03   -0.18999E-01   -0.18644E-01  9568   0.206E+00 0.753E-02
CGA:   8    -0.313540679787E+03   -0.56607E-02   -0.56404E-02  9568   0.939E-01 0.100E-03
CGA:   9    -0.313547932534E+03   -0.72527E-02   -0.72708E-02  9568   0.911E-01-0.478E-03
CGA:  10    -0.313550008852E+03   -0.20763E-02   -0.20709E-02  9568   0.507E-01 0.107E-03
CGA:  11    -0.313551561953E+03   -0.15531E-02   -0.15454E-02  9568   0.117E-01-0.568E-04
CGA:  12    -0.313552400366E+03   -0.83841E-03   -0.83553E-03  9568   0.253E-01 0.902E-04
CGA:  13    -0.313553063576E+03   -0.66321E-03   -0.66296E-03  9568   0.924E-02-0.188E-05
CGA:  14    -0.313553376359E+03   -0.31278E-03   -0.31288E-03  9568   0.505E-02 0.428E-06
CGA:  15    -0.313553577569E+03   -0.20121E-03   -0.20124E-03  9568   0.536E-02 0.874E-05
CGA:  16    -0.313553741297E+03   -0.16373E-03   -0.16352E-03  9568   0.284E-02-0.312E-05
CGA:  17    -0.313553870840E+03   -0.12954E-03   -0.12956E-03  9568   0.170E-02-0.290E-05
CGA:  18    -0.313553940443E+03   -0.69604E-04   -0.69605E-04  9568   0.286E-02 0.133E-05
CGA:  19    -0.313554049814E+03   -0.10937E-03   -0.10940E-03  9568   0.781E-03 0.497E-05
CGA:  20    -0.313554090631E+03   -0.40817E-04   -0.40814E-04  9568   0.959E-03 0.306E-06
CGA:  21    -0.313554124652E+03   -0.34021E-04   -0.34038E-04  9568   0.117E-02 0.209E-05
CGA:  22    -0.313554181285E+03   -0.56633E-04   -0.56594E-04  9568   0.894E-03 0.461E-05
CGA:  23    -0.313554215648E+03   -0.34363E-04   -0.34370E-04  9568   0.319E-03 0.182E-05
CGA:  24    -0.313554227560E+03   -0.11913E-04   -0.11914E-04  9568   0.572E-03 0.195E-06
CGA:  25    -0.313554264486E+03   -0.36926E-04   -0.36887E-04  9568   0.275E-03 0.157E-05
CGA:  26    -0.313554276417E+03   -0.11931E-04   -0.11931E-04  9568   0.276E-03-0.597E-06
CGA:  27    -0.313554284292E+03   -0.78752E-05   -0.78743E-05  9568   0.199E-03-0.283E-06
  15 F= -.31355428E+03 E0= -.31353255E+03  d E =-.799958E-02  mag=    25.8439
       N       E                     dE             d eps       ncg     rms          ort
SDA:   1    -0.297896670833E+03    0.15658E+02    0.00000E+00  9568   0.618E+02 0.000E+00
CGA:   2    -0.300637850009E+03   -0.27412E+01   -0.27126E+01  9568   0.949E+02 0.868E+01
CGA:   3    -0.305929269271E+03   -0.52914E+01   -0.53043E+01  9568   0.125E+03-0.174E+00
CGA:   4    -0.309008579490E+03   -0.30793E+01   -0.28174E+01  9568   0.613E+02-0.272E+01
CGA:   5    -0.309759651716E+03   -0.75107E+00   -0.94966E+00  9568   0.564E+02-0.135E+02
CGA:   6    -0.310433639962E+03   -0.67399E+00   -0.56812E+00  9568   0.528E+02 0.496E+01
CGA:   7    -0.311368876156E+03   -0.93524E+00   -0.10610E+01  9568   0.365E+02-0.470E+01
CGA:   8    -0.312236622148E+03   -0.86775E+00   -0.90687E+00  9568   0.235E+02 0.478E+00
CGA:   9    -0.312665237905E+03   -0.42862E+00   -0.39860E+00  9568   0.154E+02 0.799E+00
CGA:  10    -0.312865695397E+03   -0.20046E+00   -0.18233E+00  9568   0.639E+01 0.107E+01
CGA:  11    -0.312970815537E+03   -0.10512E+00   -0.10390E+00  9568   0.744E+01 0.271E-01
CGA:  12    -0.313140601685E+03   -0.16979E+00   -0.17576E+00  9568   0.875E+01 0.253E-01
CGA:  13    -0.313268449234E+03   -0.12785E+00   -0.13486E+00  9568   0.684E+01-0.306E+00
CGA:  14    -0.313387187174E+03   -0.11874E+00   -0.11429E+00  9568   0.344E+01 0.962E-01
CGA:  15    -0.313418666321E+03   -0.31479E-01   -0.26899E-01  9568   0.931E+00 0.491E+00
CGA:  16    -0.313433170947E+03   -0.14505E-01   -0.15090E-01  9568   0.114E+01-0.240E-01
CGA:  17    -0.313452427532E+03   -0.19257E-01   -0.19991E-01  9568   0.149E+01-0.944E-02
CGA:  18    -0.313482190649E+03   -0.29763E-01   -0.30956E-01  9568   0.206E+01 0.153E-01
CGA:  19    -0.313514288756E+03   -0.32098E-01   -0.30966E-01  9568   0.912E+00 0.354E-01
CGA:  20    -0.313525137518E+03   -0.10849E-01   -0.10358E-01  9568   0.523E+00 0.282E-01
CGA:  21    -0.313533425335E+03   -0.82878E-02   -0.83694E-02  9568   0.415E+00-0.177E-02
CGA:  22    -0.313540955588E+03   -0.75303E-02   -0.77850E-02  9568   0.538E+00 0.293E-02
CGA:  23    -0.313550142716E+03   -0.91871E-02   -0.91582E-02  9568   0.230E+00 0.281E-03
CGA:  24    -0.313553405530E+03   -0.32628E-02   -0.32424E-02  9568   0.185E+00 0.578E-03
CGA:  25    -0.313558675374E+03   -0.52698E-02   -0.52701E-02  9568   0.275E+00-0.148E-03
CGA:  26    -0.313563160625E+03   -0.44853E-02   -0.46427E-02  9568   0.205E+00 0.529E-03
CGA:  27    -0.313567962425E+03   -0.48018E-02   -0.48099E-02  9568   0.168E+00 0.231E-02
CGA:  28    -0.313570769908E+03   -0.28075E-02   -0.27936E-02  9568   0.889E-01-0.321E-04
CGA:  29    -0.313572543566E+03   -0.17737E-02   -0.17752E-02  9568   0.593E-01 0.113E-03
CGA:  30    -0.313573907427E+03   -0.13639E-02   -0.13648E-02  9568   0.713E-01 0.349E-03
CGA:  31    -0.313575848800E+03   -0.19414E-02   -0.19440E-02  9568   0.727E-01-0.520E-03
SDA:  32    -0.313577403668E+03   -0.15549E-02   -0.15572E-02  9568   0.593E-01 0.362E-03
CGA:  33    -0.313578215168E+03   -0.81150E-03   -0.81359E-03  9568   0.146E-01-0.395E-04
CGA:  34    -0.313579118243E+03   -0.90307E-03   -0.89622E-03  9568   0.188E-01 0.201E-03
CGA:  35    -0.313579747300E+03   -0.62906E-03   -0.63084E-03  9568   0.177E-01-0.175E-03
CGA:  36    -0.313580634311E+03   -0.88701E-03   -0.88620E-03  9568   0.201E-01 0.340E-04
CGA:  37    -0.313581689808E+03   -0.10555E-02   -0.10499E-02  9568   0.102E-01 0.218E-03
CGA:  38    -0.313582125470E+03   -0.43566E-03   -0.43537E-03  9568   0.475E-02 0.203E-04
CGA:  39    -0.313582303809E+03   -0.17834E-03   -0.17813E-03  9568   0.862E-02 0.204E-04
CGA:  40    -0.313582854036E+03   -0.55023E-03   -0.54893E-03  9568   0.779E-02 0.384E-04
CGA:  41    -0.313583152165E+03   -0.29813E-03   -0.29806E-03  9568   0.825E-02 0.663E-05
CGA:  42    -0.313583391308E+03   -0.23914E-03   -0.23920E-03  9568   0.337E-02 0.138E-04
CGA:  43    -0.313583699728E+03   -0.30842E-03   -0.30649E-03  9568   0.294E-02 0.345E-04
CGA:  44    -0.313583810126E+03   -0.11040E-03   -0.11042E-03  9568   0.252E-02-0.176E-05
CGA:  45    -0.313583920239E+03   -0.11011E-03   -0.10998E-03  9568   0.403E-02 0.129E-04
CGA:  46    -0.313584055404E+03   -0.13517E-03   -0.13518E-03  9568   0.851E-03 0.756E-05
CGA:  47    -0.313584102532E+03   -0.47128E-04   -0.47151E-04  9568   0.186E-02-0.977E-06
CGA:  48    -0.313584173149E+03   -0.70617E-04   -0.70604E-04  9568   0.880E-03 0.395E-05
CGA:  49    -0.313584215518E+03   -0.42369E-04   -0.42368E-04  9568   0.268E-03-0.626E-06
CGA:  50    -0.313584224052E+03   -0.85342E-05   -0.85256E-05  9568   0.301E-03-0.183E-05
CGA:  51    -0.313584237450E+03   -0.13398E-04   -0.13424E-04  9568   0.349E-03-0.328E-05
CGA:  52    -0.313584251746E+03   -0.14296E-04   -0.14308E-04  9568   0.147E-03-0.298E-05
CGA:  53    -0.313584259441E+03   -0.76957E-05   -0.77244E-05  9568   0.223E-03-0.185E-05
  16 F= -.31358426E+03 E0= -.31356244E+03  d E =-.299751E-01  mag=    25.8724
       N       E                     dE             d eps       ncg     rms          ort
SDA:   1    -0.305820468157E+03    0.77638E+01    0.00000E+00  9568   0.419E+02 0.000E+00
CGA:   2    -0.306836456409E+03   -0.10160E+01   -0.84846E+00  9568   0.298E+02 0.223E+01
CGA:   3    -0.309246004525E+03   -0.24095E+01   -0.25216E+01  9568   0.130E+03-0.230E+01
CGA:   4    -0.310690540876E+03   -0.14445E+01   -0.17534E+01  9568   0.792E+02-0.224E+02
CGA:   5    -0.311207152595E+03   -0.51661E+00   -0.67318E+00  9568   0.230E+02-0.177E+02
CGA:   6    -0.311587355079E+03   -0.38020E+00   -0.39599E+00  9568   0.233E+02-0.238E+00
CGA:   7    -0.311998777201E+03   -0.41142E+00   -0.40391E+00  9568   0.236E+02 0.492E-01
CGA:   8    -0.312402111921E+03   -0.40333E+00   -0.39772E+00  9568   0.281E+02 0.194E-01
CGA:   9    -0.312893304502E+03   -0.49119E+00   -0.49876E+00  9568   0.102E+02-0.227E+00
CGA:  10    -0.313077855380E+03   -0.18455E+00   -0.17699E+00  9568   0.598E+01 0.126E+00
CGA:  11    -0.313158786310E+03   -0.80931E-01   -0.79122E-01  9568   0.345E+01 0.816E-01
CGA:  12    -0.313225708937E+03   -0.66923E-01   -0.67132E-01  9568   0.505E+01-0.630E-02
CGA:  13    -0.313354932638E+03   -0.12922E+00   -0.13089E+00  9568   0.419E+01 0.124E+00
CGA:  14    -0.313424749360E+03   -0.69817E-01   -0.69825E-01  9568   0.237E+01-0.144E-01
CGA:  15    -0.313458834535E+03   -0.34085E-01   -0.33097E-01  9568   0.114E+01 0.359E-01
CGA:  16    -0.313478405999E+03   -0.19571E-01   -0.20183E-01  9568   0.966E+00-0.758E-02
CGA:  17    -0.313497095462E+03   -0.18689E-01   -0.19131E-01  9568   0.739E+00 0.474E-02
CGA:  18    -0.313520612125E+03   -0.23517E-01   -0.23297E-01  9568   0.104E+01 0.377E-01
CGA:  19    -0.313542566023E+03   -0.21954E-01   -0.21706E-01  9568   0.635E+00-0.336E-02
CGA:  20    -0.313558246493E+03   -0.15680E-01   -0.15751E-01  9568   0.269E+00 0.101E-01
CGA:  21    -0.313563677293E+03   -0.54308E-02   -0.55277E-02  9568   0.232E+00 0.203E-02
CGA:  22    -0.313573416698E+03   -0.97394E-02   -0.96450E-02  9568   0.203E+00 0.544E-02
CGA:  23    -0.313579298702E+03   -0.58820E-02   -0.58806E-02  9568   0.149E+00 0.131E-02
CGA:  24    -0.313583409557E+03   -0.41109E-02   -0.41127E-02  9568   0.108E+00 0.290E-02
CGA:  25    -0.313587015615E+03   -0.36061E-02   -0.36011E-02  9568   0.105E+00 0.649E-03
CGA:  26    -0.313590099037E+03   -0.30834E-02   -0.30811E-02  9568   0.449E-01 0.109E-02
CGA:  27    -0.313591586859E+03   -0.14878E-02   -0.14826E-02  9568   0.420E-01 0.745E-03
CGA:  28    -0.313592780790E+03   -0.11939E-02   -0.11941E-02  9568   0.378E-01 0.196E-03
CGA:  29    -0.313594715965E+03   -0.19352E-02   -0.19240E-02  9568   0.251E-01 0.454E-03
CGA:  30    -0.313595362193E+03   -0.64623E-03   -0.64611E-03  9568   0.165E-01-0.220E-05
CGA:  31    -0.313595863146E+03   -0.50095E-03   -0.50085E-03  9568   0.112E-01 0.559E-04
SDA:  32    -0.313596274189E+03   -0.41104E-03   -0.41052E-03  9568   0.133E-01 0.522E-04
CGA:  33    -0.313596507843E+03   -0.23365E-03   -0.23264E-03  9568   0.467E-02 0.108E-04
CGA:  34    -0.313596826192E+03   -0.31835E-03   -0.31724E-03  9568   0.631E-02 0.298E-04
CGA:  35    -0.313597195831E+03   -0.36964E-03   -0.36931E-03  9568   0.157E-01 0.102E-04
CGA:  36    -0.313597671580E+03   -0.47575E-03   -0.47580E-03  9568   0.308E-02 0.612E-05
CGA:  37    -0.313597777537E+03   -0.10596E-03   -0.10594E-03  9568   0.178E-02 0.319E-05
CGA:  38    -0.313597929210E+03   -0.15167E-03   -0.15157E-03  9568   0.132E-02 0.266E-06
CGA:  39    -0.313598062053E+03   -0.13284E-03   -0.13205E-03  9568   0.449E-02 0.128E-04
CGA:  40    -0.313598185746E+03   -0.12369E-03   -0.12373E-03  9568   0.312E-02 0.555E-05
CGA:  41    -0.313598334282E+03   -0.14854E-03   -0.14825E-03  9568   0.671E-03 0.220E-04
CGA:  42    -0.313598406390E+03   -0.72109E-04   -0.72063E-04  9568   0.249E-02 0.604E-06
CGA:  43    -0.313598480830E+03   -0.74439E-04   -0.74489E-04  9568   0.862E-03 0.197E-05
CGA:  44    -0.313598520066E+03   -0.39236E-04   -0.39242E-04  9568   0.414E-03-0.175E-05
CGA:  45    -0.313598550089E+03   -0.30023E-04   -0.30011E-04  9568   0.830E-03-0.101E-06
CGA:  46    -0.313598579929E+03   -0.29840E-04   -0.29849E-04  9568   0.722E-03 0.184E-06
CGA:  47    -0.313598596737E+03   -0.16808E-04   -0.16806E-04  9568   0.187E-03-0.942E-06
CGA:  48    -0.313598609327E+03   -0.12590E-04   -0.12597E-04  9568   0.113E-03-0.668E-06
CGA:  49    -0.313598614566E+03   -0.52390E-05   -0.52368E-05  9568   0.160E-03 0.390E-07
  17 F= -.31359861E+03 E0= -.31357676E+03  d E =-.143551E-01  mag=    25.8875
       N       E                     dE             d eps       ncg     rms          ort
SDA:   1    -0.311574460848E+03    0.20241E+01    0.00000E+00  9568   0.844E+01 0.000E+00
CGA:   2    -0.311824562755E+03   -0.25010E+00   -0.23712E+00  9568   0.121E+02-0.199E-01
CGA:   3    -0.312831497263E+03   -0.10069E+01   -0.10146E+01  9568   0.933E+01-0.198E+00
CGA:   4    -0.313049121057E+03   -0.21762E+00   -0.23116E+00  9568   0.516E+01-0.188E+00
CGA:   5    -0.313247004256E+03   -0.19788E+00   -0.19926E+00  9568   0.359E+01 0.158E+00
CGA:   6    -0.313448268291E+03   -0.20126E+00   -0.20195E+00  9568   0.255E+01-0.422E-01
CGA:   7    -0.313523382265E+03   -0.75114E-01   -0.75372E-01  9568   0.790E+00-0.103E-02
CGA:   8    -0.313544402034E+03   -0.21020E-01   -0.21037E-01  9568   0.800E+00-0.187E-03
CGA:   9    -0.313581287109E+03   -0.36885E-01   -0.36829E-01  9568   0.347E+00 0.795E-02
CGA:  10    -0.313592081286E+03   -0.10794E-01   -0.10713E-01  9568   0.235E+00-0.830E-03
CGA:  11    -0.313599345973E+03   -0.72647E-02   -0.73101E-02  9568   0.106E+00 0.752E-03
CGA:  12    -0.313605706096E+03   -0.63601E-02   -0.63279E-02  9568   0.550E-01 0.140E-02
CGA:  13    -0.313607621307E+03   -0.19152E-02   -0.19143E-02  9568   0.668E-01-0.460E-04
CGA:  14    -0.313609877780E+03   -0.22565E-02   -0.22617E-02  9568   0.441E-01 0.193E-03
CGA:  15    -0.313611341607E+03   -0.14638E-02   -0.14651E-02  9568   0.190E-01 0.424E-04
CGA:  16    -0.313612033910E+03   -0.69230E-03   -0.69320E-03  9568   0.135E-01 0.770E-04
CGA:  17    -0.313612504998E+03   -0.47109E-03   -0.47130E-03  9568   0.111E-01 0.121E-04
CGA:  18    -0.313613302795E+03   -0.79780E-03   -0.79674E-03  9568   0.553E-02 0.312E-04
CGA:  19    -0.313613443259E+03   -0.14046E-03   -0.14070E-03  9568   0.528E-02-0.197E-05
CGA:  20    -0.313613731110E+03   -0.28785E-03   -0.28752E-03  9568   0.388E-02 0.196E-04
CGA:  21    -0.313613880427E+03   -0.14932E-03   -0.14937E-03  9568   0.411E-02 0.816E-05
CGA:  22    -0.313614030821E+03   -0.15039E-03   -0.15046E-03  9568   0.195E-02 0.545E-05
CGA:  23    -0.313614185192E+03   -0.15437E-03   -0.15382E-03  9568   0.249E-02 0.130E-04
CGA:  24    -0.313614267833E+03   -0.82641E-04   -0.82670E-04  9568   0.119E-02 0.119E-05
CGA:  25    -0.313614315237E+03   -0.47404E-04   -0.47409E-04  9568   0.169E-02 0.191E-05
CGA:  26    -0.313614400210E+03   -0.84973E-04   -0.84914E-04  9568   0.119E-02 0.562E-05
CGA:  27    -0.313614429429E+03   -0.29219E-04   -0.29226E-04  9568   0.730E-03 0.640E-06
CGA:  28    -0.313614462746E+03   -0.33317E-04   -0.33302E-04  9568   0.371E-03 0.329E-05
CGA:  29    -0.313614498325E+03   -0.35579E-04   -0.35516E-04  9568   0.702E-03 0.972E-06
CGA:  30    -0.313614514053E+03   -0.15729E-04   -0.15790E-04  9568   0.201E-03 0.740E-06
CGA:  31    -0.313614527870E+03   -0.13816E-04   -0.13826E-04  9568   0.296E-03-0.763E-06
SDA:  32    -0.313614534711E+03   -0.68416E-05   -0.68316E-05  9568   0.165E-03-0.717E-06
  18 F= -.31361453E+03 E0= -.31359287E+03  d E =-.159201E-01  mag=    25.8747
       N       E                     dE             d eps       ncg     rms          ort
SDA:   1    -0.312944888416E+03    0.66964E+00    0.00000E+00  9568   0.214E+02 0.000E+00
CGA:   2    -0.313262307388E+03   -0.31742E+00   -0.25334E+00  9568   0.212E+01 0.415E+01
CGA:   3    -0.313302211507E+03   -0.39904E-01   -0.33994E-01  9568   0.120E+01 0.330E+00
CGA:   4    -0.313375047357E+03   -0.72836E-01   -0.73201E-01  9568   0.501E+01-0.206E-01
CGA:   5    -0.313456639988E+03   -0.81593E-01   -0.81519E-01  9568   0.292E+01 0.193E-02
CGA:   6    -0.313487476963E+03   -0.30837E-01   -0.31968E-01  9568   0.133E+01-0.908E-01
CGA:   7    -0.313512820904E+03   -0.25344E-01   -0.25621E-01  9568   0.156E+01-0.689E-02
CGA:   8    -0.313534535668E+03   -0.21715E-01   -0.20025E-01  9568   0.720E+00 0.101E+00
CGA:   9    -0.313546593457E+03   -0.12058E-01   -0.12154E-01  9568   0.876E+00-0.392E-02
CGA:  10    -0.313570398644E+03   -0.23805E-01   -0.23858E-01  9568   0.135E+01 0.135E-02
CGA:  11    -0.313586954597E+03   -0.16556E-01   -0.16740E-01  9568   0.555E+00-0.109E-01
CGA:  12    -0.313594442784E+03   -0.74882E-02   -0.72588E-02  9568   0.336E+00 0.116E-01
CGA:  13    -0.313598831688E+03   -0.43889E-02   -0.43008E-02  9568   0.157E+00 0.477E-02
CGA:  14    -0.313601088422E+03   -0.22567E-02   -0.22649E-02  9568   0.150E+00-0.337E-03
CGA:  15    -0.313604931095E+03   -0.38427E-02   -0.38429E-02  9568   0.249E+00-0.909E-05
CGA:  16    -0.313608371105E+03   -0.34400E-02   -0.34942E-02  9568   0.121E+00-0.217E-02
CGA:  17    -0.313610177145E+03   -0.18060E-02   -0.18127E-02  9568   0.109E+00-0.204E-03
CGA:  18    -0.313612209874E+03   -0.20327E-02   -0.20150E-02  9568   0.841E-01 0.592E-04
CGA:  19    -0.313613225750E+03   -0.10159E-02   -0.10084E-02  9568   0.408E-01 0.363E-03
CGA:  20    -0.313613945251E+03   -0.71950E-03   -0.71204E-03  9568   0.489E-01 0.493E-04
CGA:  21    -0.313614875721E+03   -0.93047E-03   -0.93129E-03  9568   0.455E-01 0.283E-05
CGA:  22    -0.313615419092E+03   -0.54337E-03   -0.55025E-03  9568   0.200E-01-0.320E-03
CGA:  23    -0.313615719333E+03   -0.30024E-03   -0.30100E-03  9568   0.206E-01-0.869E-05
CGA:  24    -0.313616308299E+03   -0.58897E-03   -0.58882E-03  9568   0.435E-01 0.193E-04
CGA:  25    -0.313617001844E+03   -0.69355E-03   -0.69049E-03  9568   0.213E-01 0.137E-04
CGA:  26    -0.313617242266E+03   -0.24042E-03   -0.24073E-03  9568   0.106E-01-0.195E-04
CGA:  27    -0.313617435755E+03   -0.19349E-03   -0.19363E-03  9568   0.100E-01 0.600E-05
CGA:  28    -0.313617568917E+03   -0.13316E-03   -0.13383E-03  9568   0.494E-02-0.117E-04
CGA:  29    -0.313617662403E+03   -0.93486E-04   -0.93485E-04  9568   0.733E-02 0.223E-05
CGA:  30    -0.313617869005E+03   -0.20660E-03   -0.20671E-03  9568   0.103E-01-0.150E-04
CGA:  31    -0.313617999010E+03   -0.13000E-03   -0.12998E-03  9568   0.473E-02 0.495E-05
SDA:  32    -0.313618078188E+03   -0.79178E-04   -0.79226E-04  9568   0.424E-02 0.344E-05
CGA:  33    -0.313618148439E+03   -0.70251E-04   -0.70269E-04  9568   0.180E-02 0.728E-06
CGA:  34    -0.313618242437E+03   -0.93998E-04   -0.93726E-04  9568   0.112E-02 0.936E-05
CGA:  35    -0.313618304249E+03   -0.61812E-04   -0.61980E-04  9568   0.138E-02-0.568E-05
CGA:  36    -0.313618362357E+03   -0.58108E-04   -0.58052E-04  9568   0.147E-02 0.296E-05
CGA:  37    -0.313618418926E+03   -0.56569E-04   -0.56621E-04  9568   0.684E-03-0.413E-05
CGA:  38    -0.313618442902E+03   -0.23976E-04   -0.23966E-04  9568   0.142E-03 0.649E-06
CGA:  39    -0.313618461353E+03   -0.18451E-04   -0.18441E-04  9568   0.200E-03-0.256E-06
CGA:  40    -0.313618470818E+03   -0.94650E-05   -0.94548E-05  9568   0.230E-03 0.301E-06
  19 F= -.31361847E+03 E0= -.31359673E+03  d E =-.393611E-02  mag=    25.8785
       N       E                     dE             d eps       ncg     rms          ort
SDA:   1    -0.313004301620E+03    0.61416E+00    0.00000E+00  9568   0.246E+01 0.000E+00
CGA:   2    -0.313089277364E+03   -0.84976E-01   -0.85642E-01  9568   0.445E+01-0.158E+00
CGA:   3    -0.313385037614E+03   -0.29576E+00   -0.29182E+00  9568   0.278E+01 0.104E+00
CGA:   4    -0.313445797139E+03   -0.60760E-01   -0.60954E-01  9568   0.173E+01-0.272E-02
CGA:   5    -0.313516213236E+03   -0.70416E-01   -0.73215E-01  9568   0.106E+01-0.233E+00
CGA:   6    -0.313580207517E+03   -0.63994E-01   -0.63447E-01  9568   0.784E+00 0.156E-01
CGA:   7    -0.313597656499E+03   -0.17449E-01   -0.17714E-01  9568   0.259E+00-0.219E-02
CGA:   8    -0.313605468376E+03   -0.78119E-02   -0.77761E-02  9568   0.177E+00-0.220E-02
CGA:   9    -0.313614949984E+03   -0.94816E-02   -0.94572E-02  9568   0.187E+00 0.110E-02
CGA:  10    -0.313619102907E+03   -0.41529E-02   -0.41915E-02  9568   0.763E-01-0.294E-03
CGA:  11    -0.313621452553E+03   -0.23496E-02   -0.23468E-02  9568   0.196E-01-0.223E-03
CGA:  12    -0.313623562095E+03   -0.21095E-02   -0.21144E-02  9568   0.218E-01-0.766E-04
CGA:  13    -0.313624056702E+03   -0.49461E-03   -0.49268E-03  9568   0.125E-01 0.303E-04
CGA:  14    -0.313624568727E+03   -0.51202E-03   -0.51213E-03  9568   0.102E-01-0.200E-04
CGA:  15    -0.313624949593E+03   -0.38087E-03   -0.38085E-03  9568   0.691E-02-0.822E-05
CGA:  16    -0.313625128884E+03   -0.17929E-03   -0.17982E-03  9568   0.307E-02 0.561E-05
CGA:  17    -0.313625268223E+03   -0.13934E-03   -0.13929E-03  9568   0.250E-02 0.380E-05
CGA:  18    -0.313625489376E+03   -0.22115E-03   -0.22051E-03  9568   0.173E-02 0.129E-04
CGA:  19    -0.313625520862E+03   -0.31486E-04   -0.31510E-04  9568   0.852E-03 0.300E-06
CGA:  20    -0.313625591004E+03   -0.70142E-04   -0.69977E-04  9568   0.974E-03 0.344E-05
CGA:  21    -0.313625642922E+03   -0.51918E-04   -0.51855E-04  9568   0.764E-03 0.409E-05
CGA:  22    -0.313625673069E+03   -0.30147E-04   -0.30153E-04  9568   0.865E-03 0.118E-05
CGA:  23    -0.313625698160E+03   -0.25091E-04   -0.25089E-04  9568   0.542E-03 0.196E-06
CGA:  24    -0.313625726524E+03   -0.28364E-04   -0.28349E-04  9568   0.216E-03 0.996E-06
CGA:  25    -0.313625745947E+03   -0.19423E-04   -0.19397E-04  9568   0.503E-03 0.353E-06
CGA:  26    -0.313625758341E+03   -0.12394E-04   -0.12421E-04  9568   0.281E-03 0.599E-06
CGA:  27    -0.313625769339E+03   -0.10997E-04   -0.11005E-04  9568   0.104E-03 0.138E-05
CGA:  28    -0.313625776877E+03   -0.75387E-05   -0.75156E-05  9568   0.168E-03 0.610E-06
  20 F= -.31362578E+03 E0= -.31360406E+03  d E =-.730606E-02  mag=    25.8768
       N       E                     dE             d eps       ncg     rms          ort
SDA:   1    -0.312606236026E+03    0.10195E+01    0.00000E+00  9568   0.412E+01 0.000E+00
CGA:   2    -0.312731386272E+03   -0.12515E+00   -0.12389E+00  9568   0.634E+01-0.996E-02
CGA:   3    -0.313225840531E+03   -0.49445E+00   -0.51092E+00  9568   0.681E+01-0.447E+00
CGA:   4    -0.313369450509E+03   -0.14361E+00   -0.15151E+00  9568   0.183E+01-0.151E+00
CGA:   5    -0.313447600660E+03   -0.78150E-01   -0.78160E-01  9568   0.270E+01 0.126E-01
CGA:   6    -0.313558106356E+03   -0.11051E+00   -0.11047E+00  9568   0.966E+00-0.337E-02
CGA:   7    -0.313583880701E+03   -0.25774E-01   -0.25001E-01  9568   0.562E+00 0.819E-02
CGA:   8    -0.313600502204E+03   -0.16622E-01   -0.16765E-01  9568   0.271E+00 0.809E-03
CGA:   9    -0.313618637294E+03   -0.18135E-01   -0.18152E-01  9568   0.273E+00-0.576E-03
CGA:  10    -0.313623613606E+03   -0.49763E-02   -0.50054E-02  9568   0.659E-01-0.102E-02
CGA:  11    -0.313626893245E+03   -0.32796E-02   -0.32800E-02  9568   0.855E-01-0.248E-04
CGA:  12    -0.313629491506E+03   -0.25983E-02   -0.26124E-02  9568   0.393E-01 0.156E-03
CGA:  13    -0.313630862519E+03   -0.13710E-02   -0.13698E-02  9568   0.241E-01-0.496E-04
CGA:  14    -0.313631776205E+03   -0.91369E-03   -0.91358E-03  9568   0.234E-01-0.111E-04
CGA:  15    -0.313632551798E+03   -0.77559E-03   -0.77530E-03  9568   0.147E-01-0.978E-05
CGA:  16    -0.313632995097E+03   -0.44330E-03   -0.44314E-03  9568   0.526E-02-0.161E-05
CGA:  17    -0.313633231191E+03   -0.23609E-03   -0.23600E-03  9568   0.783E-02 0.122E-04
CGA:  18    -0.313633563542E+03   -0.33235E-03   -0.33231E-03  9568   0.510E-02 0.124E-04
CGA:  19    -0.313633728218E+03   -0.16468E-03   -0.16472E-03  9568   0.365E-02 0.104E-05
CGA:  20    -0.313633829544E+03   -0.10133E-03   -0.10154E-03  9568   0.157E-02 0.318E-05
CGA:  21    -0.313633966980E+03   -0.13744E-03   -0.13714E-03  9568   0.383E-02 0.542E-05
CGA:  22    -0.313634063361E+03   -0.96381E-04   -0.96528E-04  9568   0.114E-02 0.274E-05
CGA:  23    -0.313634123453E+03   -0.60092E-04   -0.60038E-04  9568   0.220E-02 0.327E-05
CGA:  24    -0.313634200150E+03   -0.76697E-04   -0.76685E-04  9568   0.767E-03 0.831E-06
CGA:  25    -0.313634234399E+03   -0.34249E-04   -0.34238E-04  9568   0.104E-02 0.248E-05
CGA:  26    -0.313634283299E+03   -0.48900E-04   -0.48893E-04  9568   0.104E-02 0.128E-05
CGA:  27    -0.313634315630E+03   -0.32331E-04   -0.32342E-04  9568   0.565E-03 0.645E-06
CGA:  28    -0.313634334274E+03   -0.18644E-04   -0.18653E-04  9568   0.383E-03 0.492E-06
CGA:  29    -0.313634350850E+03   -0.16576E-04   -0.16574E-04  9568   0.431E-03 0.217E-06
CGA:  30    -0.313634374018E+03   -0.23169E-04   -0.23144E-04  9568   0.334E-03 0.167E-05
CGA:  31    -0.313634381321E+03   -0.73025E-05   -0.73063E-05  9568   0.140E-03 0.748E-08
  21 F= -.31363438E+03 E0= -.31361271E+03  d E =-.860444E-02  mag=    25.8773
       N       E                     dE             d eps       ncg     rms          ort
SDA:   1    -0.299024599113E+03    0.14610E+02    0.00000E+00  9568   0.152E+03 0.000E+00
CGA:   2    -0.301228310388E+03   -0.22037E+01   -0.32824E+01  9568   0.104E+03-0.364E+02
CGA:   3    -0.304259615124E+03   -0.30313E+01   -0.44632E+01  9568   0.299E+03-0.723E+02
CGA:   4    -0.306042646991E+03   -0.17830E+01   -0.58830E+01  9568   0.134E+03-0.899E+02
CGA:   5    -0.307835567433E+03   -0.17929E+01   -0.10244E+01  9568   0.297E+02 0.480E+02
CGA:   6    -0.308218258613E+03   -0.38269E+00   -0.39475E+00  9568   0.296E+02-0.254E+01
CGA:   7    -0.308657314810E+03   -0.43906E+00   -0.32969E+00  9568   0.524E+02 0.678E+01
CGA:   8    -0.309212994274E+03   -0.55568E+00   -0.70097E+00  9568   0.798E+02-0.108E+02
CGA:   9    -0.310541660539E+03   -0.13287E+01   -0.14663E+01  9568   0.108E+03 0.300E+01
CGA:  10    -0.311402090428E+03   -0.86043E+00   -0.11474E+01  9568   0.432E+02-0.290E+02
CGA:  11    -0.312648885723E+03   -0.12468E+01   -0.79949E+00  9568   0.114E+02 0.550E+01
CGA:  12    -0.312713390380E+03   -0.64505E-01   -0.54290E-01  9568   0.456E+01 0.205E+01
CGA:  13    -0.312755461175E+03   -0.42071E-01   -0.41030E-01  9568   0.672E+01 0.950E-01
CGA:  14    -0.312832202111E+03   -0.76741E-01   -0.76417E-01  9568   0.171E+02 0.943E-02
CGA:  15    -0.312950065067E+03   -0.11786E+00   -0.11047E+00  9568   0.195E+02 0.845E+00
CGA:  16    -0.313049236915E+03   -0.99172E-01   -0.12421E+00  9568   0.135E+02-0.361E+01
CGA:  17    -0.313099589770E+03   -0.50353E-01   -0.49684E-01  9568   0.101E+02 0.126E+00
CGA:  18    -0.313156022921E+03   -0.56433E-01   -0.58770E-01  9568   0.941E+01-0.341E+00
CGA:  19    -0.313214508936E+03   -0.58486E-01   -0.61478E-01  9568   0.848E+01-0.322E+00
CGA:  20    -0.313254816410E+03   -0.40307E-01   -0.38797E-01  9568   0.485E+01 0.216E+00
CGA:  21    -0.313279720375E+03   -0.24904E-01   -0.28659E-01  9568   0.363E+01-0.554E+00
CGA:  22    -0.313300966205E+03   -0.21246E-01   -0.21954E-01  9568   0.340E+01-0.802E-01
CGA:  23    -0.313320631945E+03   -0.19666E-01   -0.18585E-01  9568   0.255E+01 0.149E+00
CGA:  24    -0.313338740471E+03   -0.18109E-01   -0.20100E-01  9568   0.283E+01-0.192E+00
CGA:  25    -0.313361883255E+03   -0.23143E-01   -0.24881E-01  9568   0.342E+01-0.985E-01
CGA:  26    -0.313388015107E+03   -0.26132E-01   -0.26408E-01  9568   0.293E+01-0.258E-01
CGA:  27    -0.313412636803E+03   -0.24622E-01   -0.25278E-01  9568   0.280E+01-0.476E-01
CGA:  28    -0.313438005115E+03   -0.25368E-01   -0.25676E-01  9568   0.296E+01-0.205E-01
CGA:  29    -0.313465721437E+03   -0.27716E-01   -0.28975E-01  9568   0.249E+01-0.492E-01
[...]
  78 F= -.31365133E+03 E0= -.31362917E+03  d E =-.373079E-03  mag=    25.8492
       N       E                     dE             d eps       ncg     rms          ort
SDA:   1    -0.312797011550E+03    0.85431E+00    0.00000E+00  9568   0.288E+01 0.000E+00
CGA:   2    -0.312914625740E+03   -0.11761E+00   -0.12004E+00  9568   0.728E+01-0.125E+00
CGA:   3    -0.313360333739E+03   -0.44571E+00   -0.44448E+00  9568   0.317E+01 0.288E-01
CGA:   4    -0.313437221655E+03   -0.76888E-01   -0.77523E-01  9568   0.203E+01 0.627E-01
CGA:   5    -0.313521590815E+03   -0.84369E-01   -0.88126E-01  9568   0.194E+01-0.219E+00
CGA:   6    -0.313584339748E+03   -0.62749E-01   -0.62543E-01  9568   0.135E+01 0.195E-01
CGA:   7    -0.313612348660E+03   -0.28009E-01   -0.28342E-01  9568   0.477E+00 0.462E-02
CGA:   8    -0.313625466538E+03   -0.13118E-01   -0.13105E-01  9568   0.168E+00-0.565E-02
CGA:   9    -0.313640240728E+03   -0.14774E-01   -0.14691E-01  9568   0.238E+00 0.163E-02
CGA:  10    -0.313644735520E+03   -0.44948E-02   -0.44693E-02  9568   0.711E-01 0.380E-03
CGA:  11    -0.313646981447E+03   -0.22459E-02   -0.22465E-02  9568   0.505E-01-0.374E-03
CGA:  12    -0.313648497654E+03   -0.15162E-02   -0.15164E-02  9568   0.349E-01 0.187E-03
CGA:  13    -0.313650425176E+03   -0.19275E-02   -0.19372E-02  9568   0.219E-01-0.371E-03
CGA:  14    -0.313651049920E+03   -0.62474E-03   -0.62529E-03  9568   0.126E-01 0.730E-04
CGA:  15    -0.313651468376E+03   -0.41846E-03   -0.41835E-03  9568   0.122E-01 0.461E-04
CGA:  16    -0.313651861278E+03   -0.39290E-03   -0.39290E-03  9568   0.628E-02-0.146E-04
CGA:  17    -0.313652046180E+03   -0.18490E-03   -0.18501E-03  9568   0.361E-02 0.203E-04
CGA:  18    -0.313652210576E+03   -0.16440E-03   -0.16428E-03  9568   0.364E-02 0.672E-05
CGA:  19    -0.313652428902E+03   -0.21833E-03   -0.21763E-03  9568   0.227E-02 0.238E-04
CGA:  20    -0.313652470990E+03   -0.42088E-04   -0.42065E-04  9568   0.811E-03-0.128E-05
CGA:  21    -0.313652523889E+03   -0.52899E-04   -0.52875E-04  9568   0.219E-02-0.175E-06
CGA:  22    -0.313652598293E+03   -0.74404E-04   -0.74412E-04  9568   0.714E-03 0.823E-05
CGA:  23    -0.313652630722E+03   -0.32430E-04   -0.32415E-04  9568   0.792E-03 0.763E-06
CGA:  24    -0.313652668730E+03   -0.38008E-04   -0.37924E-04  9568   0.562E-03 0.508E-05
CGA:  25    -0.313652688516E+03   -0.19786E-04   -0.19785E-04  9568   0.449E-03-0.102E-05
CGA:  26    -0.313652707648E+03   -0.19132E-04   -0.19117E-04  9568   0.379E-03 0.147E-05
CGA:  27    -0.313652719778E+03   -0.12131E-04   -0.12136E-04  9568   0.445E-03 0.610E-06
CGA:  28    -0.313652739714E+03   -0.19936E-04   -0.19930E-04  9568   0.165E-03 0.456E-06
CGA:  29    -0.313652744329E+03   -0.46146E-05   -0.46229E-05  9568   0.125E-03 0.523E-06
CGA:  30    -0.313652755554E+03   -0.11225E-04   -0.11187E-04  9568   0.165E-03 0.384E-06
CGA:  31    -0.313652760505E+03   -0.49509E-05   -0.49591E-05  9568   0.660E-04 0.559E-06
  79 F= -.31365276E+03 E0= -.31363062E+03  d E =-.142760E-02  mag=    25.8462
       N       E                     dE             d eps       ncg     rms          ort
SDA:   1    -0.312617928646E+03    0.10348E+01    0.00000E+00  9568   0.320E+01 0.000E+00
CGA:   2    -0.312861793238E+03   -0.24386E+00   -0.24589E+00  9568   0.133E+02-0.469E-01
CGA:   3    -0.313271221852E+03   -0.40943E+00   -0.40939E+00  9568   0.252E+01-0.453E-02
CGA:   4    -0.313417437391E+03   -0.14622E+00   -0.14700E+00  9568   0.230E+01-0.406E-01
CGA:   5    -0.313539336274E+03   -0.12190E+00   -0.12327E+00  9568   0.173E+01-0.757E-01
CGA:   6    -0.313590382590E+03   -0.51046E-01   -0.51424E-01  9568   0.109E+01 0.601E-02
CGA:   7    -0.313611312641E+03   -0.20930E-01   -0.20923E-01  9568   0.281E+00 0.244E-03
CGA:   8    -0.313630742294E+03   -0.19430E-01   -0.19478E-01  9568   0.322E+00-0.155E-02
CGA:   9    -0.313640234041E+03   -0.94917E-02   -0.95317E-02  9568   0.195E+00 0.475E-03
CGA:  10    -0.313645532331E+03   -0.52983E-02   -0.52236E-02  9568   0.377E-01 0.122E-03
CGA:  11    -0.313648469129E+03   -0.29368E-02   -0.29212E-02  9568   0.877E-01 0.418E-03
CGA:  12    -0.313650507546E+03   -0.20384E-02   -0.20314E-02  9568   0.327E-01 0.130E-03
CGA:  13    -0.313651664346E+03   -0.11568E-02   -0.11557E-02  9568   0.122E-01-0.644E-04
CGA:  14    -0.313652226721E+03   -0.56238E-03   -0.56242E-03  9568   0.111E-01-0.226E-05
CGA:  15    -0.313652673453E+03   -0.44673E-03   -0.44675E-03  9568   0.135E-01 0.146E-04
CGA:  16    -0.313653018156E+03   -0.34470E-03   -0.34420E-03  9568   0.411E-02 0.697E-05
CGA:  17    -0.313653340029E+03   -0.32187E-03   -0.32143E-03  9568   0.426E-02 0.117E-04
CGA:  18    -0.313653428957E+03   -0.88928E-04   -0.88937E-04  9568   0.202E-02-0.172E-06
CGA:  19    -0.313653542798E+03   -0.11384E-03   -0.11386E-03  9568   0.199E-02-0.599E-06
CGA:  20    -0.313653611501E+03   -0.68703E-04   -0.68748E-04  9568   0.258E-02 0.383E-05
CGA:  21    -0.313653748590E+03   -0.13709E-03   -0.13714E-03  9568   0.843E-03-0.257E-05
CGA:  22    -0.313653774784E+03   -0.26193E-04   -0.26218E-04  9568   0.755E-03 0.144E-05
CGA:  23    -0.313653810017E+03   -0.35233E-04   -0.35220E-04  9568   0.128E-02 0.225E-05
CGA:  24    -0.313653868302E+03   -0.58285E-04   -0.58280E-04  9568   0.553E-03 0.154E-05
CGA:  25    -0.313653892894E+03   -0.24592E-04   -0.24586E-04  9568   0.501E-03 0.182E-05
CGA:  26    -0.313653905483E+03   -0.12589E-04   -0.12604E-04  9568   0.318E-03 0.440E-06
CGA:  27    -0.313653924174E+03   -0.18691E-04   -0.18663E-04  9568   0.291E-03 0.152E-05
CGA:  28    -0.313653933774E+03   -0.95999E-05   -0.96105E-05  9568   0.286E-03 0.847E-06
CGA:  29    -0.313653945306E+03   -0.11532E-04   -0.11532E-04  9568   0.149E-03-0.137E-06
CGA:  30    -0.313653952613E+03   -0.73070E-05   -0.73057E-05  9568   0.181E-03 0.425E-07
  80 F= -.31365395E+03 E0= -.31363184E+03  d E =-.119211E-02  mag=    25.8370
       N       E                     dE             d eps       ncg     rms          ort
SDA:   1    -0.313393333003E+03    0.26061E+00    0.00000E+00  9568   0.115E+01 0.000E+00
CGA:   2    -0.313432456421E+03   -0.39123E-01   -0.39397E-01  9568   0.179E+01 0.129E-01
CGA:   3    -0.313534397499E+03   -0.10194E+00   -0.10146E+00  9568   0.131E+01 0.240E-01
CGA:   4    -0.313568222628E+03   -0.33825E-01   -0.34038E-01  9568   0.803E+00-0.204E-02
CGA:   5    -0.313596274532E+03   -0.28052E-01   -0.27952E-01  9568   0.509E+00-0.603E-02
CGA:   6    -0.313625655657E+03   -0.29381E-01   -0.29342E-01  9568   0.423E+00 0.187E-02
CGA:   7    -0.313641172422E+03   -0.15517E-01   -0.15561E-01  9568   0.157E+00 0.381E-02
CGA:   8    -0.313644240610E+03   -0.30682E-02   -0.30587E-02  9568   0.812E-01 0.269E-03
CGA:   9    -0.313649313416E+03   -0.50728E-02   -0.50353E-02  9568   0.637E-01 0.145E-02
CGA:  10    -0.313651695267E+03   -0.23819E-02   -0.23803E-02  9568   0.432E-01-0.137E-03
CGA:  11    -0.313652641814E+03   -0.94655E-03   -0.93986E-03  9568   0.107E-01 0.125E-03
CGA:  12    -0.313653483770E+03   -0.84196E-03   -0.84326E-03  9568   0.175E-01-0.304E-04
CGA:  13    -0.313653880666E+03   -0.39690E-03   -0.39666E-03  9568   0.870E-02 0.867E-05
CGA:  14    -0.313654181603E+03   -0.30094E-03   -0.30078E-03  9568   0.388E-02-0.817E-05
CGA:  15    -0.313654368019E+03   -0.18642E-03   -0.18639E-03  9568   0.283E-02 0.246E-05
CGA:  16    -0.313654482156E+03   -0.11414E-03   -0.11414E-03  9568   0.303E-02 0.628E-05
CGA:  17    -0.313654561335E+03   -0.79178E-04   -0.79134E-04  9568   0.144E-02-0.352E-06
CGA:  18    -0.313654655835E+03   -0.94500E-04   -0.94347E-04  9568   0.204E-02 0.629E-05
CGA:  19    -0.313654697745E+03   -0.41910E-04   -0.41989E-04  9568   0.561E-03 0.136E-05
CGA:  20    -0.313654732292E+03   -0.34547E-04   -0.34539E-04  9568   0.492E-03-0.289E-08
CGA:  21    -0.313654758463E+03   -0.26171E-04   -0.26168E-04  9568   0.104E-02 0.923E-07
CGA:  22    -0.313654789712E+03   -0.31249E-04   -0.31271E-04  9568   0.373E-03 0.573E-06
CGA:  23    -0.313654802165E+03   -0.12454E-04   -0.12451E-04  9568   0.157E-03-0.554E-06
CGA:  24    -0.313654814175E+03   -0.12010E-04   -0.12023E-04  9568   0.352E-03-0.338E-06
CGA:  25    -0.313654823954E+03   -0.97787E-05   -0.97847E-05  9568   0.233E-03 0.368E-06
  81 F= -.31365482E+03 E0= -.31363261E+03  d E =-.871341E-03  mag=    25.8419
       N       E                     dE             d eps       ncg     rms          ort
SDA:   1    -0.313147014896E+03    0.50780E+00    0.00000E+00  9568   0.163E+01 0.000E+00
CGA:   2    -0.313224496854E+03   -0.77482E-01   -0.78366E-01  9568   0.475E+01-0.881E-01
CGA:   3    -0.313457891976E+03   -0.23340E+00   -0.23172E+00  9568   0.281E+01 0.120E+00
CGA:   4    -0.313532866687E+03   -0.74975E-01   -0.78681E-01  9568   0.189E+01-0.140E-01
CGA:   5    -0.313565005640E+03   -0.32139E-01   -0.30290E-01  9568   0.682E+00 0.774E-01
CGA:   6    -0.313596000172E+03   -0.30995E-01   -0.30959E-01  9568   0.110E+01 0.673E-02
CGA:   7    -0.313626844978E+03   -0.30845E-01   -0.30556E-01  9568   0.617E+00-0.372E-03
CGA:   8    -0.313638264310E+03   -0.11419E-01   -0.11765E-01  9568   0.199E+00-0.985E-02
CGA:   9    -0.313642153891E+03   -0.38896E-02   -0.39758E-02  9568   0.106E+00-0.190E-02
CGA:  10    -0.313647376550E+03   -0.52227E-02   -0.52289E-02  9568   0.200E+00-0.388E-03
CGA:  11    -0.313651228348E+03   -0.38518E-02   -0.38244E-02  9568   0.512E-01 0.716E-03
CGA:  12    -0.313652893729E+03   -0.16654E-02   -0.16663E-02  9568   0.387E-01 0.662E-04
CGA:  13    -0.313653538102E+03   -0.64437E-03   -0.64883E-03  9568   0.149E-01-0.147E-03
CGA:  14    -0.313654590066E+03   -0.10520E-02   -0.10556E-02  9568   0.228E-01-0.107E-03
CGA:  15    -0.313654947042E+03   -0.35698E-03   -0.35693E-03  9568   0.808E-02 0.290E-05
CGA:  16    -0.313655308223E+03   -0.36118E-03   -0.36080E-03  9568   0.783E-02 0.350E-04
CGA:  17    -0.313655504622E+03   -0.19640E-03   -0.19615E-03  9568   0.624E-02-0.171E-06
CGA:  18    -0.313655655207E+03   -0.15058E-03   -0.15041E-03  9568   0.228E-02-0.192E-05
CGA:  19    -0.313655729878E+03   -0.74671E-04   -0.74690E-04  9568   0.252E-02 0.365E-05
CGA:  20    -0.313655802545E+03   -0.72667E-04   -0.72708E-04  9568   0.227E-02 0.164E-05
CGA:  21    -0.313655896120E+03   -0.93575E-04   -0.93602E-04  9568   0.272E-02-0.346E-05
CGA:  22    -0.313655952162E+03   -0.56042E-04   -0.56121E-04  9568   0.605E-03 0.120E-05
CGA:  23    -0.313655969378E+03   -0.17216E-04   -0.17223E-04  9568   0.828E-03 0.569E-06
CGA:  24    -0.313656002177E+03   -0.32800E-04   -0.32805E-04  9568   0.629E-03-0.874E-06
CGA:  25    -0.313656030846E+03   -0.28669E-04   -0.28664E-04  9568   0.111E-02 0.453E-06
CGA:  26    -0.313656053549E+03   -0.22703E-04   -0.22749E-04  9568   0.343E-03 0.123E-05
CGA:  27    -0.313656071202E+03   -0.17653E-04   -0.17645E-04  9568   0.520E-03 0.653E-07
CGA:  28    -0.313656082484E+03   -0.11282E-04   -0.11286E-04  9568   0.301E-03-0.573E-07
CGA:  29    -0.313656092088E+03   -0.96041E-05   -0.96041E-05  9568   0.185E-03-0.524E-07
  82 F= -.31365609E+03 E0= -.31363383E+03  d E =-.126813E-02  mag=    25.8397
       N       E                     dE             d eps       ncg     rms          ort
SDA:   1    -0.313350993324E+03    0.30509E+00    0.00000E+00  9568   0.731E+01 0.000E+00
CGA:   2    -0.313440973837E+03   -0.89981E-01   -0.88077E-01  9568   0.885E+00 0.679E-01
CGA:   3    -0.313499612578E+03   -0.58639E-01   -0.59642E-01  9568   0.174E+01-0.295E-01
CGA:   4    -0.313570873155E+03   -0.71261E-01   -0.70975E-01  9568   0.735E+00 0.296E-01
CGA:   5    -0.313588508719E+03   -0.17636E-01   -0.17338E-01  9568   0.373E+00 0.120E-02
CGA:   6    -0.313624475636E+03   -0.35967E-01   -0.35203E-01  9568   0.445E+00 0.144E-01
CGA:   7    -0.313634770550E+03   -0.10295E-01   -0.10219E-01  9568   0.275E+00 0.114E-02
CGA:   8    -0.313643758586E+03   -0.89880E-02   -0.89949E-02  9568   0.827E-01 0.488E-03
CGA:   9    -0.313647907394E+03   -0.41488E-02   -0.41395E-02  9568   0.813E-01 0.554E-03
CGA:  10    -0.313652114865E+03   -0.42075E-02   -0.42128E-02  9568   0.318E-01-0.302E-03
CGA:  11    -0.313652830878E+03   -0.71601E-03   -0.71518E-03  9568   0.215E-01 0.103E-04
CGA:  12    -0.313653726218E+03   -0.89534E-03   -0.89533E-03  9568   0.137E-01 0.631E-05
CGA:  13    -0.313654195086E+03   -0.46887E-03   -0.46919E-03  9568   0.128E-01 0.381E-04
CGA:  14    -0.313654595474E+03   -0.40039E-03   -0.40019E-03  9568   0.511E-02-0.960E-05
CGA:  15    -0.313654943683E+03   -0.34821E-03   -0.34780E-03  9568   0.339E-02 0.132E-04
CGA:  16    -0.313655084581E+03   -0.14090E-03   -0.14088E-03  9568   0.197E-02 0.612E-05
CGA:  17    -0.313655183310E+03   -0.98728E-04   -0.98687E-04  9568   0.248E-02 0.293E-05
CGA:  18    -0.313655255972E+03   -0.72663E-04   -0.72627E-04  9568   0.232E-02-0.912E-06
CGA:  19    -0.313655360757E+03   -0.10478E-03   -0.10476E-03  9568   0.790E-03 0.272E-05
CGA:  20    -0.313655384689E+03   -0.23932E-04   -0.23960E-04  9568   0.768E-03 0.168E-05
CGA:  21    -0.313655424656E+03   -0.39967E-04   -0.39989E-04  9568   0.614E-03-0.156E-05
CGA:  22    -0.313655474912E+03   -0.50257E-04   -0.50234E-04  9568   0.377E-03 0.540E-06
CGA:  23    -0.313655489274E+03   -0.14362E-04   -0.14362E-04  9568   0.261E-03 0.308E-07
CGA:  24    -0.313655504137E+03   -0.14863E-04   -0.14838E-04  9568   0.316E-03 0.142E-05
CGA:  25    -0.313655512731E+03   -0.85931E-05   -0.85821E-05  9568   0.166E-03-0.350E-06
CGA:  26    -0.313655523825E+03   -0.11094E-04   -0.11072E-04  9568   0.202E-03 0.830E-06
CGA:  27    -0.313655528204E+03   -0.43791E-05   -0.43887E-05  9568   0.117E-03 0.325E-06
  83 F= -.31365553E+03 E0= -.31363331E+03  d E =0.563884E-03  mag=    25.8392
       N       E                     dE             d eps       ncg     rms          ort
SDA:   1    -0.313561288211E+03    0.94236E-01    0.00000E+00  9568   0.715E+00 0.000E+00
CGA:   2    -0.313574943720E+03   -0.13656E-01   -0.13899E-01  9568   0.489E+00-0.726E-02
CGA:   3    -0.313609761239E+03   -0.34818E-01   -0.34689E-01  9568   0.515E+00 0.385E-02
CGA:   4    -0.313622931456E+03   -0.13170E-01   -0.13279E-01  9568   0.243E+00-0.110E-02
CGA:   5    -0.313632067374E+03   -0.91359E-02   -0.90613E-02  9568   0.191E+00-0.619E-02
CGA:   6    -0.313643510420E+03   -0.11443E-01   -0.11395E-01  9568   0.149E+00 0.201E-02
CGA:   7    -0.313650498236E+03   -0.69878E-02   -0.69955E-02  9568   0.471E-01-0.119E-02
CGA:   8    -0.313651957197E+03   -0.14590E-02   -0.14611E-02  9568   0.493E-01 0.365E-04
CGA:   9    -0.313653675494E+03   -0.17183E-02   -0.17181E-02  9568   0.321E-01-0.680E-05
CGA:  10    -0.313654893413E+03   -0.12179E-02   -0.12164E-02  9568   0.237E-01-0.160E-03
CGA:  11    -0.313655379244E+03   -0.48583E-03   -0.48947E-03  9568   0.394E-02-0.855E-04
CGA:  12    -0.313655709535E+03   -0.33029E-03   -0.33034E-03  9568   0.648E-02-0.672E-06
CGA:  13    -0.313655973094E+03   -0.26356E-03   -0.26356E-03  9568   0.288E-02 0.164E-06
CGA:  14    -0.313656049488E+03   -0.76394E-04   -0.76106E-04  9568   0.162E-02-0.379E-06
CGA:  15    -0.313656114362E+03   -0.64874E-04   -0.64879E-04  9568   0.104E-02 0.207E-05
CGA:  16    -0.313656160111E+03   -0.45749E-04   -0.45747E-04  9568   0.195E-02 0.808E-06
CGA:  17    -0.313656224732E+03   -0.64621E-04   -0.64608E-04  9568   0.419E-03-0.471E-06
CGA:  18    -0.313656246027E+03   -0.21296E-04   -0.21284E-04  9568   0.436E-03 0.111E-05
CGA:  19    -0.313656262670E+03   -0.16642E-04   -0.16637E-04  9568   0.414E-03-0.820E-06
CGA:  20    -0.313656281254E+03   -0.18584E-04   -0.18580E-04  9568   0.288E-03 0.122E-05
CGA:  21    -0.313656294435E+03   -0.13181E-04   -0.13177E-04  9568   0.213E-03 0.711E-06
CGA:  22    -0.313656300974E+03   -0.65394E-05   -0.65422E-05  9568   0.208E-03 0.219E-06
  84 F= -.31365630E+03 E0= -.31363405E+03  d E =-.772770E-03  mag=    25.8393
       N       E                     dE             d eps       ncg     rms          ort
SDA:   1    -0.313297115408E+03    0.35918E+00    0.00000E+00  9568   0.149E+02 0.000E+00
CGA:   2    -0.313504539288E+03   -0.20742E+00   -0.14149E+00  9568   0.243E+01 0.580E+01
CGA:   3    -0.313536856365E+03   -0.32317E-01   -0.23886E-01  9568   0.549E+00 0.106E+01
CGA:   4    -0.313546696296E+03   -0.98399E-02   -0.86396E-02  9568   0.477E+00 0.876E-01
CGA:   5    -0.313557566861E+03   -0.10871E-01   -0.10405E-01  9568   0.124E+01 0.115E-01
CGA:   6    -0.313573923231E+03   -0.16356E-01   -0.16212E-01  9568   0.205E+01 0.763E-02
CGA:   7    -0.313592588424E+03   -0.18665E-01   -0.21431E-01  9568   0.159E+01-0.202E+00
CGA:   8    -0.313603341578E+03   -0.10753E-01   -0.11023E-01  9568   0.102E+01-0.299E-01
CGA:   9    -0.313613089153E+03   -0.97476E-02   -0.10301E-01  9568   0.990E+00-0.414E-01
CGA:  10    -0.313622491165E+03   -0.94020E-02   -0.86800E-02  9568   0.625E+00 0.624E-01
CGA:  11    -0.313627059075E+03   -0.45679E-02   -0.41175E-02  9568   0.250E+00 0.633E-01
CGA:  12    -0.313629241720E+03   -0.21826E-02   -0.21337E-02  9568   0.192E+00 0.511E-02
CGA:  13    -0.313631780938E+03   -0.25392E-02   -0.24976E-02  9568   0.350E+00 0.180E-02
CGA:  14    -0.313636117181E+03   -0.43362E-02   -0.42977E-02  9568   0.485E+00 0.178E-02
CGA:  15    -0.313640099872E+03   -0.39827E-02   -0.40289E-02  9568   0.318E+00-0.431E-02
CGA:  16    -0.313642476473E+03   -0.23766E-02   -0.23880E-02  9568   0.227E+00-0.120E-02
CGA:  17    -0.313644584808E+03   -0.21083E-02   -0.21496E-02  9568   0.207E+00-0.300E-02
CGA:  18    -0.313646208004E+03   -0.16232E-02   -0.16069E-02  9568   0.113E+00 0.149E-02
CGA:  19    -0.313647002065E+03   -0.79406E-03   -0.78359E-03  9568   0.619E-01 0.117E-02
CGA:  20    -0.313647617247E+03   -0.61518E-03   -0.61110E-03  9568   0.744E-01 0.237E-03
CGA:  21    -0.313648582625E+03   -0.96538E-03   -0.96079E-03  9568   0.117E+00 0.502E-04
CGA:  22    -0.313649746892E+03   -0.11643E-02   -0.11590E-02  9568   0.112E+00 0.270E-03
CGA:  23    -0.313650728477E+03   -0.98158E-03   -0.98295E-03  9568   0.992E-01-0.866E-04
CGA:  24    -0.313651670953E+03   -0.94248E-03   -0.95038E-03  9568   0.905E-01-0.423E-03
CGA:  25    -0.313652371391E+03   -0.70044E-03   -0.70577E-03  9568   0.473E-01-0.442E-03
CGA:  26    -0.313652688552E+03   -0.31716E-03   -0.31874E-03  9568   0.235E-01-0.171E-03
CGA:  27    -0.313652910051E+03   -0.22150E-03   -0.22123E-03  9568   0.267E-01 0.654E-05
CGA:  28    -0.313653288292E+03   -0.37824E-03   -0.37711E-03  9568   0.498E-01-0.867E-04
CGA:  29    -0.313653829663E+03   -0.54137E-03   -0.53862E-03  9568   0.509E-01 0.324E-04
CGA:  30    -0.313654210657E+03   -0.38099E-03   -0.38197E-03  9568   0.278E-01-0.811E-04
CGA:  31    -0.313654419933E+03   -0.20928E-03   -0.21098E-03  9568   0.191E-01-0.122E-03
SDA:  32    -0.313654613174E+03   -0.19324E-03   -0.19407E-03  9568   0.225E-01-0.957E-05
CGA:  33    -0.313655072201E+03   -0.45903E-03   -0.45942E-03  9568   0.117E-01-0.639E-04
CGA:  34    -0.313655697702E+03   -0.62550E-03   -0.62105E-03  9568   0.679E-02 0.142E-03
CGA:  35    -0.313655916802E+03   -0.21910E-03   -0.21912E-03  9568   0.635E-02-0.134E-05
CGA:  36    -0.313656115851E+03   -0.19905E-03   -0.19922E-03  9568   0.532E-02-0.128E-04
CGA:  37    -0.313656460175E+03   -0.34432E-03   -0.34376E-03  9568   0.432E-02 0.136E-04
CGA:  38    -0.313656614776E+03   -0.15460E-03   -0.15449E-03  9568   0.766E-03 0.724E-05
CGA:  39    -0.313656642724E+03   -0.27947E-04   -0.27983E-04  9568   0.100E-02-0.224E-05
CGA:  40    -0.313656688203E+03   -0.45480E-04   -0.45404E-04  9568   0.522E-03 0.338E-05
CGA:  41    -0.313656710806E+03   -0.22603E-04   -0.22551E-04  9568   0.266E-03 0.236E-05
CGA:  42    -0.313656716352E+03   -0.55462E-05   -0.55448E-05  9568   0.188E-03-0.430E-06
CGA:  43    -0.313656733821E+03   -0.17468E-04   -0.17577E-04  9568   0.119E-03-0.176E-05
CGA:  44    -0.313656739682E+03   -0.58614E-05   -0.58541E-05  9568   0.162E-03 0.885E-07
  85 F= -.31365674E+03 E0= -.31363444E+03  d E =-.438708E-03  mag=    25.8390
