       N       E                     dE             d eps       ncg     rms          rms(c)
DAV:   1     0.665860757634E+04    0.66586E+04   -0.28429E+05 38304   0.152E+03
DAV:   2     0.356171833866E+03   -0.63024E+04   -0.59357E+04 38832   0.469E+02
DAV:   3    -0.385493095063E+03   -0.74166E+03   -0.72800E+03 40752   0.170E+02
DAV:   4    -0.416930526898E+03   -0.31437E+02   -0.30962E+02 50856   0.314E+01
DAV:   5    -0.419564596644E+03   -0.26341E+01   -0.26192E+01 66632   0.682E+00    0.602E+01
DAV:   6    -0.372260787007E+03    0.47304E+02   -0.26489E+02 43168   0.367E+01    0.446E+01
DAV:   7    -0.392360032349E+03   -0.20099E+02   -0.11279E+02 43096   0.252E+01    0.567E+01
DAV:   8    -0.377209536875E+03    0.15150E+02   -0.10997E+01 43560   0.111E+01    0.257E+01
DAV:   9    -0.381042319423E+03   -0.38328E+01   -0.38715E+00 42408   0.459E+00    0.141E+01
DAV:  10    -0.384051098293E+03   -0.30088E+01   -0.29833E+00 41520   0.375E+00    0.627E+00
DAV:  11    -0.385450242929E+03   -0.13991E+01   -0.83081E-01 46408   0.216E+00    0.390E+00
DAV:  12    -0.386913702371E+03   -0.14635E+01   -0.63474E-01 45648   0.193E+00    0.347E+00
DAV:  13    -0.388010034673E+03   -0.10963E+01   -0.53390E-01 44336   0.172E+00    0.292E+00
DAV:  14    -0.388879998165E+03   -0.86996E+00   -0.42250E-01 41712   0.110E+00    0.188E+00
DAV:  15    -0.389475878859E+03   -0.59588E+00   -0.33574E-01 43264   0.982E-01    0.125E+00
DAV:  16    -0.389865137878E+03   -0.38926E+00   -0.29529E-01 41312   0.799E-01    0.120E+00
DAV:  17    -0.389960295836E+03   -0.95158E-01   -0.56995E-02 42320   0.409E-01    0.827E-01
DAV:  18    -0.389990625503E+03   -0.30330E-01   -0.19512E-02 42032   0.256E-01    0.482E-01
DAV:  19    -0.389996918055E+03   -0.62926E-02   -0.58355E-03 43048   0.172E-01    0.325E-01
DAV:  20    -0.389997730316E+03   -0.81226E-03   -0.20492E-03 41752   0.109E-01    0.281E-01
DAV:  21    -0.389997534461E+03    0.19585E-03   -0.50135E-04 50664   0.102E-01    0.113E-01
DAV:  22    -0.389997481492E+03    0.52970E-04   -0.30858E-04 40640   0.488E-02    0.607E-02
DAV:  23    -0.389997454561E+03    0.26930E-04   -0.75863E-05 41304   0.224E-02    0.385E-02
DAV:  24    -0.389997442871E+03    0.11690E-04   -0.19172E-05 32136   0.174E-02    0.163E-02
DAV:  25    -0.389997442369E+03    0.50200E-06   -0.12246E-05 30376   0.918E-03
   1 F= -.38999744E+03 E0= -.38999445E+03  d E =-.389997E+03  mag=    48.0002
