       N       E                     dE             d eps       ncg     rms          ort
DAV:   1     0.957673365652E+04    0.95767E+04   -0.30235E+05 24304   0.205E+03
DAV:   2     0.125742705915E+04   -0.83193E+04   -0.75974E+04 24304   0.556E+02
DAV:   3    -0.298486158429E+03   -0.15559E+04   -0.14469E+04 24304   0.253E+02
DAV:   4    -0.396020586415E+03   -0.97534E+02   -0.96465E+02 24304   0.634E+01
DAV:   5    -0.397610256391E+03   -0.15897E+01   -0.15300E+01 24304   0.819E+00
SDA:   6     0.537583833657E+02    0.45137E+03   -0.15300E+01 24304   0.535E+04 0.000E+00
CGA:   7     0.221508732434E+01   -0.51543E+02   -0.24343E+03 24304   0.847E+04-0.347E+04
CGA:   8     0.117111750332E+03    0.11490E+03   -0.45902E+03 24304   0.680E+04-0.404E+04
CGA:   9    -0.132843798677E+03   -0.24996E+03   -0.77871E+02 24304   0.570E+04 0.377E+04
CGA:  10     0.939017336262E+02    0.22675E+03   -0.24223E+03 24304   0.191E+05-0.108E+05
CGA:  11     0.422497816171E+03    0.32860E+03   -0.10587E+04 24304   0.109E+05-0.707E+04
CGA:  12    -0.733437650487E+02   -0.49584E+03   -0.21763E+03 24304   0.990E+04-0.180E+05
CGA:  13     0.143673492143E+03    0.21702E+03   -0.36714E+03 24304   0.209E+05-0.139E+05
CGA:  14     0.352603925268E+03    0.20893E+03   -0.97889E+03 24304   0.108E+05-0.782E+04
CGA:  15    -0.956943295098E+02   -0.44830E+03   -0.19755E+03 24304   0.104E+05-0.197E+05
CGA:  16     0.269285541617E+03    0.36498E+03   -0.37049E+03 24304   0.246E+05-0.144E+05
CGA:  17     0.659807057954E+03    0.39052E+03   -0.11556E+04 24304   0.124E+05-0.934E+04
CGA:  18    -0.121404722221E+03   -0.78121E+03   -0.22287E+03 24304   0.127E+05-0.289E+05
CGA:  19     0.179411057481E+03    0.30082E+03   -0.46388E+03 24304   0.190E+05-0.121E+05
CGA:  20     0.286401949764E+03    0.10699E+03   -0.67602E+03 24304   0.211E+05-0.181E+05
CGA:  21     0.435595879009E+03    0.14919E+03   -0.79030E+03 24304   0.198E+05-0.171E+05
CGA:  22     0.356436681971E+03   -0.79159E+02   -0.70207E+03 24304   0.617E+04-0.636E+04
CGA:  23    -0.137891441122E+03   -0.49433E+03   -0.62276E+02 24304   0.132E+05 0.263E+05
CGA:  24     0.754202117391E+02    0.21331E+03   -0.44458E+03 24304   0.183E+05-0.114E+05
CGA:  25     0.211147098505E+03    0.13573E+03   -0.58786E+03 24304   0.271E+05-0.238E+05
CGA:  26     0.331752495433E+03    0.12061E+03   -0.92386E+03 24304   0.222E+05-0.187E+05
CGA:  27     0.145799888645E+03   -0.18595E+03   -0.65408E+03 24304   0.251E+05-0.308E+05
CGA:  28     0.198586540013E+03    0.52787E+02   -0.78968E+03 24304   0.190E+05-0.184E+05
CGA:  29     0.881440947261E+02   -0.11044E+03   -0.53406E+03 24304   0.222E+05-0.258E+05
CGA:  30     0.137631649432E+03    0.49488E+02   -0.66606E+03 24304   0.192E+05-0.183E+05
CGA:  31     0.121133316948E+03   -0.16498E+02   -0.55164E+03 24304   0.218E+05-0.222E+05
CGA:  32     0.932078559871E+02   -0.27925E+02   -0.61832E+03 24304   0.833E+04-0.853E+04
CGA:  33    -0.277699426921E+03   -0.37091E+03   -0.87312E+02 24304   0.239E+04-0.455E+04
CGA:  34    -0.226970462538E+03    0.50729E+02   -0.49026E+02 24304   0.752E+04-0.344E+04
CGA:  35    -0.157210866277E+03    0.69760E+02   -0.19135E+03 24304   0.839E+04-0.471E+04
CGA:  36    -0.141504771474E+03    0.15706E+02   -0.19847E+03 24304   0.916E+04-0.858E+04
CGA:  37    -0.126567545441E+03    0.14937E+02   -0.21925E+03 24304   0.103E+05-0.874E+04
CGA:  38    -0.119747575710E+03    0.68200E+01   -0.23349E+03 24304   0.123E+05-0.122E+05
CGA:  39    -0.948856196649E+02    0.24862E+02   -0.29099E+03 24304   0.954E+04-0.830E+04
CGA:  40    -0.155530124860E+03   -0.60645E+02   -0.19915E+03 24304   0.872E+04-0.945E+04
CGA:  41    -0.150522600136E+03    0.50075E+01   -0.18470E+03 24304   0.961E+04-0.901E+04
CGA:  42    -0.151040798036E+03   -0.51820E+00   -0.19279E+03 24304   0.830E+04-0.754E+04
CGA:  43    -0.187657435208E+03   -0.36617E+02   -0.16091E+03 24304   0.788E+04-0.857E+04
CGA:  44    -0.204502391602E+03   -0.16845E+02   -0.14716E+03 24304   0.732E+04-0.686E+04
CGA:  45    -0.228428335649E+03   -0.23926E+02   -0.12523E+03 24304   0.592E+04-0.656E+04
CGA:  46    -0.239331471884E+03   -0.10903E+02   -0.95413E+02 24304   0.633E+04-0.601E+04
CGA:  47    -0.251059222853E+03   -0.11728E+02   -0.10169E+03 24304   0.382E+04-0.406E+04
CGA:  48    -0.281408382113E+03   -0.30349E+02   -0.52254E+02 24304   0.236E+04-0.379E+04
CGA:  49    -0.289275259207E+03   -0.78669E+01   -0.29801E+02 24304   0.141E+04-0.177E+04
CGA:  50    -0.297547394864E+03   -0.82721E+01   -0.14326E+02 24304   0.433E+03-0.812E+03
CGA:  51    -0.299642840907E+03   -0.20954E+01   -0.41887E+01 24304   0.121E+03-0.218E+03
CGA:  52    -0.300443040701E+03   -0.80020E+00   -0.85566E+00 24304   0.508E+01-0.106E+02
CGA:  53    -0.300598604373E+03   -0.15556E+00   -0.15641E+00 24304   0.153E+02 0.669E-01
CGA:  54    -0.300876683733E+03   -0.27808E+00   -0.11515E+01 24304   0.140E+03-0.283E+02
CGA:  55    -0.301748575495E+03   -0.87189E+00   -0.12997E+01 24304   0.204E+02-0.427E+02
CGA:  56    -0.301910775753E+03   -0.16220E+00   -0.16749E+00 24304   0.385E+01-0.377E+00
CGA:  57    -0.301988436564E+03   -0.77661E-01   -0.79440E-01 24304   0.594E+01-0.300E-01
CGA:  58    -0.302409569457E+03   -0.42113E+00   -0.38316E+00 24304   0.106E+02 0.119E+01
CGA:  59    -0.302643578563E+03   -0.23401E+00   -0.24097E+00 24304   0.355E+01-0.646E-02
CGA:  60    -0.302721552926E+03   -0.77974E-01   -0.81118E-01 24304   0.240E+01-0.135E-01
CGA:  61    -0.302807005498E+03   -0.85453E-01   -0.85495E-01 24304   0.236E+01 0.635E-01
CGA:  62    -0.302894470051E+03   -0.87465E-01   -0.87456E-01 24304   0.207E+01 0.983E-01
CGA:  63    -0.302947241446E+03   -0.52771E-01   -0.53719E-01 24304   0.115E+01 0.738E-02
CGA:  64    -0.302979316408E+03   -0.32075E-01   -0.32464E-01 24304   0.748E+00 0.128E-01
CGA:  65    -0.303003132221E+03   -0.23816E-01   -0.23927E-01 24304   0.704E+00 0.125E-01
CGA:  66    -0.303029031195E+03   -0.25899E-01   -0.25849E-01 24304   0.715E+00 0.232E-01
CGA:  67    -0.303056861352E+03   -0.27830E-01   -0.27724E-01 24304   0.603E+00 0.240E-01
CGA:  68    -0.303079568676E+03   -0.22707E-01   -0.22674E-01 24304   0.486E+00 0.145E-01
CGA:  69    -0.303098049536E+03   -0.18481E-01   -0.18443E-01 24304   0.453E+00 0.114E-01
CGA:  70    -0.303117340154E+03   -0.19291E-01   -0.19147E-01 24304   0.439E+00 0.155E-01
CGA:  71    -0.303136492079E+03   -0.19152E-01   -0.19061E-01 24304   0.454E+00 0.933E-02
CGA:  72    -0.303155872782E+03   -0.19381E-01   -0.19217E-01 24304   0.435E+00 0.188E-01
CGA:  73    -0.303175138334E+03   -0.19266E-01   -0.19240E-01 24304   0.401E+00 0.282E-02
CGA:  74    -0.303195636931E+03   -0.20499E-01   -0.20230E-01 24304   0.412E+00 0.150E-01
CGA:  75    -0.303212935001E+03   -0.17298E-01   -0.17291E-01 24304   0.355E+00 0.133E-02
CGA:  76    -0.303230378816E+03   -0.17444E-01   -0.17234E-01 24304   0.368E+00 0.137E-01
CGA:  77    -0.303249434173E+03   -0.19055E-01   -0.19034E-01 24304   0.427E+00 0.137E-02
CGA:  78    -0.303274438136E+03   -0.25004E-01   -0.24715E-01 24304   0.533E+00 0.119E-01
CGA:  79    -0.303296567358E+03   -0.22129E-01   -0.22154E-01 24304   0.417E+00-0.133E-01
CGA:  80    -0.303318673433E+03   -0.22106E-01   -0.21753E-01 24304   0.384E+00 0.190E-01
CGA:  81    -0.303339320135E+03   -0.20647E-01   -0.20550E-01 24304   0.464E+00 0.686E-02
CGA:  82    -0.303370203081E+03   -0.30883E-01   -0.32352E-01 24304   0.822E+00-0.445E-01
CGA:  83    -0.303397249801E+03   -0.27047E-01   -0.27139E-01 24304   0.318E+00 0.687E-02
CGA:  84    -0.303410372085E+03   -0.13122E-01   -0.13131E-01 24304   0.362E+00 0.498E-02
SDA:  85    -0.303462269373E+03   -0.51897E-01   -0.53052E-01 24304   0.112E+01-0.385E-01
CGA:  86    -0.303481244014E+03   -0.18975E-01   -0.19377E-01 24304   0.171E+00-0.161E-01
CGA:  87    -0.303516890691E+03   -0.35647E-01   -0.34106E-01 24304   0.127E+01 0.115E-01
CGA:  88    -0.303588657759E+03   -0.71767E-01   -0.71704E-01 24304   0.886E+00-0.909E-01
CGA:  89    -0.303617968630E+03   -0.29311E-01   -0.28835E-01 24304   0.470E+00 0.403E-02
CGA:  90    -0.303652775341E+03   -0.34807E-01   -0.34881E-01 24304   0.736E+00-0.306E-02
CGA:  91    -0.303682562879E+03   -0.29788E-01   -0.29963E-01 24304   0.206E+00 0.352E-02
CGA:  92    -0.303691329862E+03   -0.87670E-02   -0.87645E-02 24304   0.236E+00-0.696E-05
CGA:  93    -0.303723245344E+03   -0.31915E-01   -0.33088E-01 24304   0.562E+00-0.165E-01
CGA:  94    -0.303738113379E+03   -0.14868E-01   -0.14973E-01 24304   0.232E+00-0.258E-02
CGA:  95    -0.303757146988E+03   -0.19034E-01   -0.18748E-01 24304   0.744E+00 0.881E-02
CGA:  96    -0.303802549260E+03   -0.45402E-01   -0.48210E-01 24304   0.970E+00-0.281E+00
CGA:  97    -0.303812709317E+03   -0.10160E-01   -0.10767E-01 24304   0.534E+00-0.202E-01
CGA:  98    -0.303820354942E+03   -0.76456E-02   -0.78870E-02 24304   0.237E+00-0.128E-01
CGA:  99    -0.303828013395E+03   -0.76585E-02   -0.77454E-02 24304   0.476E+00-0.400E-03
CGA: 100    -0.303851711186E+03   -0.23698E-01   -0.23650E-01 24304   0.102E+01-0.996E-02
CGA: 101    -0.303871001140E+03   -0.19290E-01   -0.18432E-01 24304   0.574E+00 0.236E-01
CGA: 102    -0.303880398765E+03   -0.93976E-02   -0.96557E-02 24304   0.350E+00-0.116E-01
CGA: 103    -0.303888816645E+03   -0.84179E-02   -0.86003E-02 24304   0.449E+00-0.308E-02
CGA: 104    -0.303902204141E+03   -0.13387E-01   -0.13498E-01 24304   0.634E+00 0.523E-03
CGA: 105    -0.303918246534E+03   -0.16042E-01   -0.15675E-01 24304   0.577E+00 0.712E-02
CGA: 106    -0.303931159094E+03   -0.12913E-01   -0.13014E-01 24304   0.543E+00-0.343E-02
CGA: 107    -0.303944403298E+03   -0.13244E-01   -0.13376E-01 24304   0.499E+00-0.415E-02
CGA: 108    -0.303956857381E+03   -0.12454E-01   -0.12147E-01 24304   0.586E+00 0.184E-01
CGA: 109    -0.303977137321E+03   -0.20280E-01   -0.16230E-01 24304   0.131E+01-0.194E-01
CGA: 110    -0.303990434720E+03   -0.13297E-01   -0.13046E-01 24304   0.158E+01 0.405E-01
CGA: 111    -0.304002737674E+03   -0.12303E-01   -0.12334E-01 24304   0.109E+01-0.391E-01
CGA: 112    -0.304009654909E+03   -0.69172E-02   -0.76107E-02 24304   0.670E+00-0.848E-01
CGA: 113    -0.304013886598E+03   -0.42317E-02   -0.44658E-02 24304   0.458E+00-0.279E-01
CGA: 114    -0.304017384512E+03   -0.34979E-02   -0.36058E-02 24304   0.391E+00-0.108E-01
CGA: 115    -0.304021150898E+03   -0.37664E-02   -0.38491E-02 24304   0.475E+00-0.611E-02
SDA: 116    -0.304026836333E+03   -0.56854E-02   -0.57735E-02 24304   0.753E+00-0.462E-02
CGA: 117    -0.304048377713E+03   -0.21541E-01   -0.21546E-01 24304   0.454E+00 0.691E-03
CGA: 118    -0.304079655014E+03   -0.31277E-01   -0.31223E-01 24304   0.657E+00 0.129E-02
CGA: 119    -0.304131763994E+03   -0.52109E-01   -0.50468E-01 24304   0.121E+01 0.377E-01
CGA: 120    -0.304177336869E+03   -0.45573E-01   -0.45574E-01 24304   0.495E+00 0.767E-02
CGA: 121    -0.304198622516E+03   -0.21286E-01   -0.21275E-01 24304   0.359E+00 0.858E-03
CGA: 122    -0.304218101135E+03   -0.19479E-01   -0.19340E-01 24304   0.360E+00 0.617E-02
CGA: 123    -0.304243261599E+03   -0.25160E-01   -0.25398E-01 24304   0.353E+00-0.679E-02
CGA: 124    -0.304255720765E+03   -0.12459E-01   -0.12451E-01 24304   0.207E+00-0.137E-02
CGA: 125    -0.304270933031E+03   -0.15212E-01   -0.14968E-01 24304   0.376E+00 0.639E-02
CGA: 126    -0.304287119902E+03   -0.16187E-01   -0.16186E-01 24304   0.225E+00 0.475E-03
CGA: 127    -0.304299627053E+03   -0.12507E-01   -0.12530E-01 24304   0.241E+00-0.100E-02
CGA: 128    -0.304312112296E+03   -0.12485E-01   -0.12499E-01 24304   0.251E+00-0.962E-03
CGA: 129    -0.304327923314E+03   -0.15811E-01   -0.15831E-01 24304   0.383E+00-0.828E-03
CGA: 130    -0.304346143404E+03   -0.18220E-01   -0.18259E-01 24304   0.210E+00-0.465E-02
CGA: 131    -0.304353904398E+03   -0.77610E-02   -0.77739E-02 24304   0.132E+00 0.827E-03
CGA: 132    -0.304364640443E+03   -0.10736E-01   -0.10636E-01 24304   0.231E+00 0.245E-02
CGA: 133    -0.304383013879E+03   -0.18373E-01   -0.18527E-01 24304   0.324E+00-0.429E-02
CGA: 134    -0.304396399699E+03   -0.13386E-01   -0.13345E-01 24304   0.164E+00-0.385E-02
CGA: 135    -0.304404560801E+03   -0.81611E-02   -0.81508E-02 24304   0.137E+00 0.140E-02
CGA: 136    -0.304412300429E+03   -0.77396E-02   -0.77226E-02 24304   0.158E+00 0.123E-02
CGA: 137    -0.304422597113E+03   -0.10297E-01   -0.10336E-01 24304   0.158E+00-0.167E-02
CGA: 138    -0.304427945628E+03   -0.53485E-02   -0.53505E-02 24304   0.767E-01 0.921E-04
CGA: 139    -0.304434126075E+03   -0.61804E-02   -0.61654E-02 24304   0.132E+00 0.433E-03
CGA: 140    -0.304440387703E+03   -0.62616E-02   -0.62626E-02 24304   0.128E+00 0.326E-03
CGA: 141    -0.304447494725E+03   -0.71070E-02   -0.71121E-02 24304   0.601E-01-0.535E-03
CGA: 142    -0.304449608157E+03   -0.21134E-02   -0.21151E-02 24304   0.438E-01-0.895E-05
CGA: 143    -0.304453605097E+03   -0.39969E-02   -0.39842E-02 24304   0.666E-01 0.289E-03
CGA: 144    -0.304457118330E+03   -0.35132E-02   -0.35127E-02 24304   0.575E-01 0.165E-03
CGA: 145    -0.304460072401E+03   -0.29541E-02   -0.29534E-02 24304   0.353E-01 0.402E-03
CGA: 146    -0.304462061205E+03   -0.19888E-02   -0.19888E-02 24304   0.434E-01-0.133E-04
SDA: 147    -0.304464543308E+03   -0.24821E-02   -0.24823E-02 24304   0.382E-01-0.379E-04
CGA: 148    -0.304465721623E+03   -0.11783E-02   -0.11804E-02 24304   0.178E-01-0.287E-04
CGA: 149    -0.304466650591E+03   -0.92897E-03   -0.92887E-03 24304   0.276E-01 0.129E-04
CGA: 150    -0.304470426175E+03   -0.37756E-02   -0.37947E-02 24304   0.651E-01-0.241E-03
CGA: 151    -0.304472948600E+03   -0.25224E-02   -0.25196E-02 24304   0.197E-01-0.848E-04
CGA: 152    -0.304474815675E+03   -0.18671E-02   -0.18715E-02 24304   0.477E-01-0.103E-03
CGA: 153    -0.304477429525E+03   -0.26139E-02   -0.26136E-02 24304   0.284E-01-0.123E-03
CGA: 154    -0.304478484188E+03   -0.10547E-02   -0.10552E-02 24304   0.125E-01 0.162E-04
CGA: 155    -0.304479220586E+03   -0.73640E-03   -0.73644E-03 24304   0.127E-01 0.228E-05
CGA: 156    -0.304480086167E+03   -0.86558E-03   -0.86574E-03 24304   0.159E-01-0.185E-05
CGA: 157    -0.304480755182E+03   -0.66902E-03   -0.66893E-03 24304   0.554E-02 0.838E-06
CGA: 158    -0.304481054836E+03   -0.29965E-03   -0.29962E-03 24304   0.848E-02-0.255E-04
CGA: 159    -0.304481788391E+03   -0.73356E-03   -0.73370E-03 24304   0.107E-01-0.121E-04
CGA: 160    -0.304482156329E+03   -0.36794E-03   -0.36684E-03 24304   0.421E-02-0.180E-04
CGA: 161    -0.304482431009E+03   -0.27468E-03   -0.27476E-03 24304   0.790E-02-0.123E-05
CGA: 162    -0.304483101347E+03   -0.67034E-03   -0.66708E-03 24304   0.695E-02 0.105E-03
CGA: 163    -0.304483437058E+03   -0.33571E-03   -0.33609E-03 24304   0.331E-02 0.304E-04
CGA: 164    -0.304483583010E+03   -0.14595E-03   -0.14589E-03 24304   0.294E-02-0.367E-05
CGA: 165    -0.304484022696E+03   -0.43969E-03   -0.44385E-03 24304   0.498E-02-0.445E-04
CGA: 166    -0.304484155969E+03   -0.13327E-03   -0.13273E-03 24304   0.128E-02-0.105E-04
CGA: 167    -0.304484241312E+03   -0.85342E-04   -0.85293E-04 24304   0.277E-02 0.493E-05
CGA: 168    -0.304484466381E+03   -0.22507E-03   -0.22477E-03 24304   0.328E-02 0.158E-04
CGA: 169    -0.304484619845E+03   -0.15346E-03   -0.15388E-03 24304   0.110E-02 0.206E-04
CGA: 170    -0.304484676237E+03   -0.56392E-04   -0.56403E-04 24304   0.185E-02-0.144E-05
CGA: 171    -0.304485001743E+03   -0.32551E-03   -0.33336E-03 24304   0.519E-02-0.739E-04
CGA: 172    -0.304485153855E+03   -0.15211E-03   -0.15264E-03 24304   0.122E-02-0.247E-04
CGA: 173    -0.304485246375E+03   -0.92520E-04   -0.92326E-04 24304   0.250E-02 0.125E-04
CGA: 174    -0.304485408200E+03   -0.16182E-03   -0.16181E-03 24304   0.276E-02-0.226E-05
CGA: 175    -0.304485539555E+03   -0.13136E-03   -0.13204E-03 24304   0.149E-02 0.161E-04
CGA: 176    -0.304485625879E+03   -0.86324E-04   -0.86246E-04 24304   0.173E-02-0.735E-05
CGA: 177    -0.304485747581E+03   -0.12170E-03   -0.12175E-03 24304   0.242E-02-0.100E-04
SDA: 178    -0.304485845378E+03   -0.97798E-04   -0.98019E-04 24304   0.890E-03-0.124E-04
CGA: 179    -0.304485878066E+03   -0.32688E-04   -0.32722E-04 24304   0.819E-03 0.722E-06
CGA: 180    -0.304485955186E+03   -0.77120E-04   -0.76901E-04 24304   0.949E-03 0.586E-05
CGA: 181    -0.304485986953E+03   -0.31767E-04   -0.31782E-04 24304   0.399E-03-0.286E-06
CGA: 182    -0.304486039554E+03   -0.52601E-04   -0.53309E-04 24304   0.124E-02-0.104E-04
CGA: 183    -0.304486097827E+03   -0.58272E-04   -0.58111E-04 24304   0.628E-03-0.121E-04
CGA: 184    -0.304486125804E+03   -0.27977E-04   -0.27884E-04 24304   0.474E-03-0.356E-05
CGA: 185    -0.304486167908E+03   -0.42104E-04   -0.42026E-04 24304   0.106E-02 0.241E-05
CGA: 186    -0.304486234057E+03   -0.66149E-04   -0.66164E-04 24304   0.812E-03 0.708E-05
CGA: 187    -0.304486264081E+03   -0.30024E-04   -0.30050E-04 24304   0.311E-03 0.130E-05
CGA: 188    -0.304486284728E+03   -0.20647E-04   -0.20659E-04 24304   0.633E-03-0.445E-05
CGA: 189    -0.304486331031E+03   -0.46303E-04   -0.46534E-04 24304   0.846E-03-0.190E-04
CGA: 190    -0.304486368829E+03   -0.37799E-04   -0.37654E-04 24304   0.321E-03-0.121E-04
CGA: 191    -0.304486384232E+03   -0.15402E-04   -0.15375E-04 24304   0.295E-03-0.171E-05
CGA: 192    -0.304486427720E+03   -0.43488E-04   -0.42537E-04 24304   0.968E-03 0.113E-04
CGA: 193    -0.304486477680E+03   -0.49961E-04   -0.49843E-04 24304   0.456E-03 0.453E-05
CGA: 194    -0.304486498022E+03   -0.20342E-04   -0.20337E-04 24304   0.417E-03-0.106E-05
CGA: 195    -0.304486523272E+03   -0.25250E-04   -0.25242E-04 24304   0.603E-03-0.364E-05
CGA: 196    -0.304486576588E+03   -0.53316E-04   -0.54062E-04 24304   0.974E-03-0.255E-04
CGA: 197    -0.304486608803E+03   -0.32215E-04   -0.32416E-04 24304   0.258E-03-0.995E-05
CGA: 198    -0.304486631124E+03   -0.22321E-04   -0.22207E-04 24304   0.726E-03 0.506E-05
CGA: 199    -0.304486683127E+03   -0.52002E-04   -0.51890E-04 24304   0.312E-03 0.212E-04
CGA: 200    -0.304486695432E+03   -0.12305E-04   -0.12394E-04 24304   0.285E-03 0.205E-05
   1 F= -.30448670E+03 E0= -.30445529E+03  d E =-.304487E+03  mag=    47.9565
       N       E                     dE             d eps       ncg     rms          ort
SDA:   1    -0.304583569673E+03   -0.96887E-01    0.00000E+00 24304   0.148E+01 0.000E+00
CGA:   2    -0.304609595810E+03   -0.26026E-01   -0.25818E-01 24304   0.131E+00 0.965E-02
CGA:   3    -0.304614177799E+03   -0.45820E-02   -0.46433E-02 24304   0.479E-01-0.541E-03
CGA:   4    -0.304617004725E+03   -0.28269E-02   -0.28268E-02 24304   0.516E-01 0.464E-04
CGA:   5    -0.304619171061E+03   -0.21663E-02   -0.21673E-02 24304   0.188E-01 0.107E-03
CGA:   6    -0.304620140912E+03   -0.96985E-03   -0.97017E-03 24304   0.251E-01 0.289E-04
CGA:   7    -0.304621607204E+03   -0.14663E-02   -0.14663E-02 24304   0.140E-01 0.876E-05
CGA:   8    -0.304622111864E+03   -0.50466E-03   -0.50399E-03 24304   0.395E-02-0.262E-04
CGA:   9    -0.304622261397E+03   -0.14953E-03   -0.14884E-03 24304   0.137E-02-0.324E-04
CGA:  10    -0.304622365211E+03   -0.10381E-03   -0.10487E-03 24304   0.284E-02-0.541E-04
CGA:  11    -0.304622481985E+03   -0.11677E-03   -0.11582E-03 24304   0.631E-03-0.593E-04
CGA:  12    -0.304622504459E+03   -0.22474E-04   -0.22507E-04 24304   0.412E-03 0.155E-05
CGA:  13    -0.304622541820E+03   -0.37361E-04   -0.36435E-04 24304   0.337E-03 0.294E-04
CGA:  14    -0.304622559647E+03   -0.17827E-04   -0.17966E-04 24304   0.197E-03 0.164E-04
CGA:  15    -0.304622567269E+03   -0.76219E-05   -0.77439E-05 24304   0.148E-03 0.601E-05
CGA:  16    -0.304622582981E+03   -0.15712E-04   -0.15420E-04 24304   0.304E-03 0.655E-05
CGA:  17    -0.304622595913E+03   -0.12933E-04   -0.12994E-04 24304   0.106E-03 0.328E-05
CGA:  18    -0.304622599800E+03   -0.38864E-05   -0.38747E-05 24304   0.687E-04-0.525E-06
CGA:  19    -0.304622610943E+03   -0.11143E-04   -0.11884E-04 24304   0.239E-03-0.634E-05
CGA:  20    -0.304622618202E+03   -0.72590E-05   -0.71444E-05 24304   0.926E-04-0.364E-05
   2 F= -.30462262E+03 E0= -.30459121E+03  d E =-.135923E+00  mag=    47.9547
       N       E                     dE             d eps       ncg     rms          ort
SDA:   1    -0.251811510722E+03    0.52811E+02    0.00000E+00 24304   0.331E+03 0.000E+00
CGA:   2    -0.262121533968E+03   -0.10310E+02   -0.11220E+02 24304   0.274E+03-0.150E+02
CGA:   3    -0.275886467201E+03   -0.13765E+02   -0.29436E+02 24304   0.163E+04-0.323E+03
CGA:   4    -0.284012996310E+03   -0.81265E+01   -0.37696E+02 24304   0.712E+03-0.715E+03
CGA:   5    -0.293365176180E+03   -0.93522E+01   -0.47943E+01 24304   0.404E+03 0.373E+03
CGA:   6    -0.298856661956E+03   -0.54915E+01   -0.48134E+01 24304   0.521E+02-0.318E+02
CGA:   7    -0.300206165921E+03   -0.13495E+01   -0.13183E+01 24304   0.783E+02 0.253E+00
CGA:   8    -0.304373114592E+03   -0.41669E+01   -0.41715E+01 24304   0.127E+03 0.291E+01
CGA:   9    -0.307309615720E+03   -0.29365E+01   -0.20285E+01 24304   0.315E+02 0.566E+02
CGA:  10    -0.307967185161E+03   -0.65757E+00   -0.48750E+00 24304   0.132E+02 0.139E+02
CGA:  11    -0.308473236473E+03   -0.50605E+00   -0.48897E+00 24304   0.319E+02 0.290E+00
CGA:  12    -0.309082717793E+03   -0.60948E+00   -0.68423E+00 24304   0.629E+02-0.148E+01
CGA:  13    -0.309887312355E+03   -0.80459E+00   -0.98056E+00 24304   0.426E+02-0.673E+01
CGA:  14    -0.310283653713E+03   -0.39634E+00   -0.47795E+00 24304   0.109E+02-0.459E+01
CGA:  15    -0.310397569754E+03   -0.11392E+00   -0.11706E+00 24304   0.516E+01-0.208E+00
CGA:  16    -0.310522131424E+03   -0.12456E+00   -0.12712E+00 24304   0.693E+01-0.226E-01
CGA:  17    -0.310659991136E+03   -0.13786E+00   -0.14153E+00 24304   0.451E+01-0.841E-01
CGA:  18    -0.310752853792E+03   -0.92863E-01   -0.94231E-01 24304   0.387E+01-0.244E-01
CGA:  19    -0.310843423847E+03   -0.90570E-01   -0.89863E-01 24304   0.308E+01 0.129E-01
CGA:  20    -0.310902714446E+03   -0.59291E-01   -0.58355E-01 24304   0.183E+01 0.292E-01
CGA:  21    -0.310940426955E+03   -0.37713E-01   -0.37884E-01 24304   0.178E+01-0.280E-02
CGA:  22    -0.311011223546E+03   -0.70797E-01   -0.70597E-01 24304   0.410E+01 0.398E-01
CGA:  23    -0.311129651792E+03   -0.11843E+00   -0.11859E+00 24304   0.258E+01 0.801E-02
CGA:  24    -0.311173789888E+03   -0.44138E-01   -0.44260E-01 24304   0.992E+00-0.419E-02
CGA:  25    -0.311195242736E+03   -0.21453E-01   -0.21419E-01 24304   0.626E+00 0.477E-03
CGA:  26    -0.311210772027E+03   -0.15529E-01   -0.15531E-01 24304   0.548E+00 0.144E-03
CGA:  27    -0.311228932671E+03   -0.18161E-01   -0.18167E-01 24304   0.802E+00 0.224E-02
CGA:  28    -0.311257381948E+03   -0.28449E-01   -0.28439E-01 24304   0.920E+00 0.543E-02
CGA:  29    -0.311277755601E+03   -0.20374E-01   -0.20437E-01 24304   0.391E+00-0.508E-04
CGA:  30    -0.311285479113E+03   -0.77235E-02   -0.77557E-02 24304   0.179E+00-0.388E-03
CGA:  31    -0.311290610553E+03   -0.51314E-02   -0.51366E-02 24304   0.203E+00 0.432E-03
CGA:  32    -0.311301159014E+03   -0.10548E-01   -0.10455E-01 24304   0.438E+00 0.422E-02
CGA:  33    -0.311314941822E+03   -0.13783E-01   -0.13765E-01 24304   0.250E+00-0.226E-02
CGA:  34    -0.311320338237E+03   -0.53964E-02   -0.54116E-02 24304   0.115E+00-0.297E-04
CGA:  35    -0.311323528274E+03   -0.31900E-02   -0.31964E-02 24304   0.943E-01 0.332E-03
SDA:  36    -0.311328093568E+03   -0.45653E-02   -0.45596E-02 24304   0.207E+00 0.236E-03
CGA:  37    -0.311333194295E+03   -0.51007E-02   -0.50997E-02 24304   0.523E-01-0.814E-04
CGA:  38    -0.311336232434E+03   -0.30381E-02   -0.30379E-02 24304   0.790E-01-0.759E-05
CGA:  39    -0.311343504198E+03   -0.72718E-02   -0.73005E-02 24304   0.976E-01-0.511E-03
CGA:  40    -0.311346965823E+03   -0.34616E-02   -0.34617E-02 24304   0.344E-01-0.147E-03
CGA:  41    -0.311349397564E+03   -0.24317E-02   -0.24205E-02 24304   0.651E-01 0.339E-03
CGA:  42    -0.311357266893E+03   -0.78693E-02   -0.10012E-01 24304   0.338E+00-0.412E-01
CGA:  43    -0.311363879986E+03   -0.66131E-02   -0.66188E-02 24304   0.469E-01-0.164E-03
CGA:  44    -0.311365723665E+03   -0.18437E-02   -0.18445E-02 24304   0.273E-01 0.115E-03
CGA:  45    -0.311367412008E+03   -0.16883E-02   -0.16865E-02 24304   0.416E-01 0.100E-03
CGA:  46    -0.311371199126E+03   -0.37871E-02   -0.37777E-02 24304   0.400E-01 0.204E-03
CGA:  47    -0.311372578798E+03   -0.13797E-02   -0.13814E-02 24304   0.163E-01 0.122E-03
CGA:  48    -0.311373853524E+03   -0.12747E-02   -0.12712E-02 24304   0.319E-01 0.105E-03
CGA:  49    -0.311376022727E+03   -0.21692E-02   -0.21696E-02 24304   0.396E-01-0.266E-04
CGA:  50    -0.311377684557E+03   -0.16618E-02   -0.16586E-02 24304   0.154E-01-0.920E-04
CGA:  51    -0.311378651732E+03   -0.96717E-03   -0.96647E-03 24304   0.258E-01 0.206E-04
CGA:  52    -0.311380916314E+03   -0.22646E-02   -0.27290E-02 24304   0.483E-01-0.865E-02
CGA:  53    -0.311381564105E+03   -0.64779E-03   -0.64606E-03 24304   0.208E-01-0.341E-04
CGA:  54    -0.311381921831E+03   -0.35773E-03   -0.36259E-03 24304   0.804E-02-0.283E-03
CGA:  55    -0.311382142668E+03   -0.22084E-03   -0.22084E-03 24304   0.794E-02-0.288E-04
CGA:  56    -0.311382448318E+03   -0.30565E-03   -0.30450E-03 24304   0.128E-01-0.576E-04
CGA:  57    -0.311382866133E+03   -0.41782E-03   -0.41507E-03 24304   0.131E-01-0.515E-04
CGA:  58    -0.311383157711E+03   -0.29158E-03   -0.29217E-03 24304   0.668E-02-0.654E-04
CGA:  59    -0.311383297605E+03   -0.13989E-03   -0.13963E-03 24304   0.414E-02-0.241E-04
CGA:  60    -0.311383457830E+03   -0.16022E-03   -0.16003E-03 24304   0.850E-02-0.305E-04
CGA:  61    -0.311383861620E+03   -0.40379E-03   -0.40465E-03 24304   0.161E-01-0.144E-03
CGA:  62    -0.311384229281E+03   -0.36766E-03   -0.36497E-03 24304   0.843E-02 0.961E-06
CGA:  63    -0.311384382485E+03   -0.15320E-03   -0.15274E-03 24304   0.374E-02-0.117E-04
CGA:  64    -0.311384477959E+03   -0.95474E-04   -0.95425E-04 24304   0.379E-02-0.220E-05
CGA:  65    -0.311384604824E+03   -0.12687E-03   -0.12674E-03 24304   0.545E-02-0.978E-07
CGA:  66    -0.311384807088E+03   -0.20226E-03   -0.20198E-03 24304   0.993E-02-0.239E-04
CGA:  67    -0.311385080068E+03   -0.27298E-03   -0.26781E-03 24304   0.730E-02 0.339E-04
CGA:  68    -0.311385183608E+03   -0.10354E-03   -0.10099E-03 24304   0.236E-02 0.169E-03
CGA:  69    -0.311385227739E+03   -0.44130E-04   -0.44077E-04 24304   0.201E-02 0.114E-04
CGA:  70    -0.311385285676E+03   -0.57938E-04   -0.57960E-04 24304   0.311E-02 0.777E-05
CGA:  71    -0.311385368212E+03   -0.82535E-04   -0.82566E-04 24304   0.426E-02 0.137E-04
CGA:  72    -0.311385472811E+03   -0.10460E-03   -0.10450E-03 24304   0.458E-02 0.205E-04
SDA:  73    -0.311385556345E+03   -0.83534E-04   -0.82999E-04 24304   0.293E-02 0.411E-04
CGA:  74    -0.311385673879E+03   -0.11753E-03   -0.11754E-03 24304   0.185E-02-0.244E-05
CGA:  75    -0.311385823318E+03   -0.14944E-03   -0.14964E-03 24304   0.336E-02-0.580E-05
CGA:  76    -0.311386097525E+03   -0.27421E-03   -0.27297E-03 24304   0.600E-02 0.287E-04
CGA:  77    -0.311386328121E+03   -0.23060E-03   -0.23061E-03 24304   0.112E-02-0.551E-06
CGA:  78    -0.311386427739E+03   -0.99619E-04   -0.99729E-04 24304   0.304E-02-0.365E-05
CGA:  79    -0.311386585585E+03   -0.15785E-03   -0.15751E-03 24304   0.143E-02 0.189E-04
CGA:  80    -0.311386626817E+03   -0.41232E-04   -0.41180E-04 24304   0.292E-03-0.266E-05
CGA:  81    -0.311386642504E+03   -0.15688E-04   -0.15671E-04 24304   0.299E-03-0.741E-07
CGA:  82    -0.311386676441E+03   -0.33937E-04   -0.33756E-04 24304   0.677E-03 0.923E-06
CGA:  83    -0.311386706876E+03   -0.30435E-04   -0.30437E-04 24304   0.226E-03 0.153E-05
CGA:  84    -0.311386714218E+03   -0.73426E-05   -0.73752E-05 24304   0.121E-03 0.999E-06
CGA:  85    -0.311386727304E+03   -0.13085E-04   -0.12553E-04 24304   0.316E-03 0.741E-05
CGA:  86    -0.311386745536E+03   -0.18232E-04   -0.18176E-04 24304   0.212E-03 0.838E-05
CGA:  87    -0.311386754915E+03   -0.93789E-05   -0.93923E-05 24304   0.123E-03 0.967E-06
CGA:  88    -0.311386765109E+03   -0.10194E-04   -0.10310E-04 24304   0.327E-03-0.520E-05
CGA:  89    -0.311386786484E+03   -0.21375E-04   -0.21771E-04 24304   0.101E-03-0.205E-04
CGA:  90    -0.311386790495E+03   -0.40115E-05   -0.39921E-05 24304   0.127E-03-0.389E-05
CGA:  91    -0.311386807993E+03   -0.17497E-04   -0.18544E-04 24304   0.334E-03-0.126E-04
CGA:  92    -0.311386817163E+03   -0.91699E-05   -0.89053E-05 24304   0.101E-03-0.172E-05
   3 F= -.31138682E+03 E0= -.31135408E+03  d E =-.676420E+01  mag=    47.9048
       N       E                     dE             d eps       ncg     rms          ort
SDA:   1    -0.328290961164E+02    0.27856E+03    0.00000E+00 24304   0.323E+04 0.000E+00
CGA:   2    -0.147411919484E+03   -0.11458E+03   -0.11436E+03 24304   0.229E+04-0.108E+04
CGA:   3    -0.219013541927E+03   -0.71602E+02   -0.46646E+02 24304   0.108E+04 0.108E+03
CGA:   4    -0.241631822977E+03   -0.22618E+02   -0.26513E+02 24304   0.125E+04-0.397E+03
CGA:   5    -0.251391436500E+03   -0.97596E+01   -0.17088E+02 24304   0.170E+04-0.253E+03
CGA:   6    -0.267264730772E+03   -0.15873E+02   -0.32859E+02 24304   0.119E+04-0.223E+03
CGA:   7    -0.285148639237E+03   -0.17884E+02   -0.16666E+02 24304   0.430E+03-0.128E+03
CGA:   8    -0.289573278835E+03   -0.44246E+01   -0.39487E+01 24304   0.265E+03-0.774E+01
CGA:   9    -0.291773221140E+03   -0.21999E+01   -0.27279E+01 24304   0.273E+03-0.518E+02
CGA:  10    -0.293616654494E+03   -0.18434E+01   -0.26936E+01 24304   0.379E+03-0.575E+02
CGA:  11    -0.296110375765E+03   -0.24937E+01   -0.30164E+01 24304   0.410E+03-0.524E+02
CGA:  12    -0.298814016945E+03   -0.27036E+01   -0.31115E+01 24304   0.449E+03-0.684E+02
CGA:  13    -0.300899224169E+03   -0.20852E+01   -0.26937E+01 24304   0.509E+03-0.969E+02
CGA:  14    -0.302194969246E+03   -0.12957E+01   -0.18929E+01 24304   0.388E+03-0.143E+03
CGA:  15    -0.302482894278E+03   -0.28793E+00   -0.12294E+01 24304   0.367E+03-0.226E+03
CGA:  16    -0.305457626922E+03   -0.29747E+01   -0.35856E+01 24304   0.655E+02-0.639E+02
CGA:  17    -0.306153226680E+03   -0.69560E+00   -0.68349E+00 24304   0.227E+02 0.381E+00
CGA:  18    -0.306877671854E+03   -0.72445E+00   -0.72472E+00 24304   0.473E+02-0.387E+00
CGA:  19    -0.308098683581E+03   -0.12210E+01   -0.12229E+01 24304   0.501E+02 0.488E-01
CGA:  20    -0.308834161579E+03   -0.73548E+00   -0.75466E+00 24304   0.326E+02-0.105E+01
CGA:  21    -0.309614505363E+03   -0.78034E+00   -0.78092E+00 24304   0.275E+02-0.760E-01
CGA:  22    -0.310285789653E+03   -0.67128E+00   -0.67650E+00 24304   0.213E+02 0.213E+00
CGA:  23    -0.310784617941E+03   -0.49883E+00   -0.50589E+00 24304   0.283E+02 0.233E+00
CGA:  24    -0.311912308763E+03   -0.11277E+01   -0.10867E+01 24304   0.391E+02 0.343E+01
CGA:  25    -0.312842606243E+03   -0.93030E+00   -0.96082E+00 24304   0.887E+01 0.579E+00
CGA:  26    -0.313054255468E+03   -0.21165E+00   -0.21315E+00 24304   0.532E+01 0.485E-01
CGA:  27    -0.313303241775E+03   -0.24899E+00   -0.24346E+00 24304   0.101E+02 0.283E+00
CGA:  28    -0.313696915030E+03   -0.39367E+00   -0.39024E+00 24304   0.868E+01 0.328E+00
CGA:  29    -0.313983219965E+03   -0.28630E+00   -0.28565E+00 24304   0.497E+01 0.214E+00
CGA:  30    -0.314155350548E+03   -0.17213E+00   -0.17170E+00 24304   0.348E+01 0.682E-01
CGA:  31    -0.314321900852E+03   -0.16655E+00   -0.16497E+00 24304   0.376E+01 0.786E-01
CGA:  32    -0.314555724923E+03   -0.23382E+00   -0.23094E+00 24304   0.420E+01 0.107E+00
CGA:  33    -0.314690908511E+03   -0.13518E+00   -0.13546E+00 24304   0.168E+01 0.875E-01
CGA:  34    -0.314742346997E+03   -0.51438E-01   -0.51476E-01 24304   0.114E+01 0.538E-02
CGA:  35    -0.314820722336E+03   -0.78375E-01   -0.77600E-01 24304   0.199E+01 0.223E-01
CGA:  36    -0.314926776116E+03   -0.10605E+00   -0.10654E+00 24304   0.133E+01-0.213E-01
CGA:  37    -0.314967805368E+03   -0.41029E-01   -0.41028E-01 24304   0.606E+00-0.110E-03
CGA:  38    -0.315000705839E+03   -0.32900E-01   -0.33012E-01 24304   0.995E+00-0.470E-02
CGA:  39    -0.315060014545E+03   -0.59309E-01   -0.58853E-01 24304   0.101E+01 0.174E-01
CGA:  40    -0.315092448076E+03   -0.32434E-01   -0.32344E-01 24304   0.462E+00-0.433E-02
CGA:  41    -0.315114590402E+03   -0.22142E-01   -0.22126E-01 24304   0.610E+00 0.122E-02
CGA:  42    -0.315160184006E+03   -0.45594E-01   -0.46782E-01 24304   0.105E+01-0.318E-01
CGA:  43    -0.315195591003E+03   -0.35407E-01   -0.35481E-01 24304   0.386E+00 0.834E-02
CGA:  44    -0.315208248766E+03   -0.12658E-01   -0.12623E-01 24304   0.337E+00-0.122E-02
CGA:  45    -0.315239988591E+03   -0.31740E-01   -0.31358E-01 24304   0.724E+00 0.718E-02
SDA:  46    -0.315269407706E+03   -0.29419E-01   -0.29385E-01 24304   0.426E+00-0.790E-02
CGA:  47    -0.315277639732E+03   -0.82320E-02   -0.82854E-02 24304   0.196E+00-0.156E-02
CGA:  48    -0.315292254856E+03   -0.14615E-01   -0.14641E-01 24304   0.317E+00-0.742E-03
CGA:  49    -0.315312268691E+03   -0.20014E-01   -0.19924E-01 24304   0.642E+00 0.356E-02
CGA:  50    -0.315348487314E+03   -0.36219E-01   -0.36282E-01 24304   0.310E+00-0.387E-02
CGA:  51    -0.315357975479E+03   -0.94882E-02   -0.95258E-02 24304   0.189E+00 0.163E-03
CGA:  52    -0.315372718763E+03   -0.14743E-01   -0.14855E-01 24304   0.276E+00-0.313E-02
CGA:  53    -0.315394721322E+03   -0.22003E-01   -0.21962E-01 24304   0.371E+00 0.109E-02
CGA:  54    -0.315403717339E+03   -0.89960E-02   -0.89239E-02 24304   0.101E+00 0.160E-02
CGA:  55    -0.315408807984E+03   -0.50906E-02   -0.50828E-02 24304   0.186E+00 0.106E-02
CGA:  56    -0.315424969517E+03   -0.16162E-01   -0.17155E-01 24304   0.242E+00-0.212E-01
CGA:  57    -0.315431283398E+03   -0.63139E-02   -0.63609E-02 24304   0.759E-01 0.274E-04
CGA:  58    -0.315436185298E+03   -0.49019E-02   -0.48889E-02 24304   0.125E+00 0.569E-03
CGA:  59    -0.315444209701E+03   -0.80244E-02   -0.81287E-02 24304   0.203E+00-0.477E-02
CGA:  60    -0.315451577596E+03   -0.73679E-02   -0.73610E-02 24304   0.113E+00-0.758E-04
CGA:  61    -0.315454581088E+03   -0.30035E-02   -0.30029E-02 24304   0.463E-01-0.219E-04
CGA:  62    -0.315458276138E+03   -0.36950E-02   -0.36933E-02 24304   0.138E+00 0.455E-04
CGA:  63    -0.315465371173E+03   -0.70950E-02   -0.71099E-02 24304   0.119E+00-0.310E-02
CGA:  64    -0.315468361338E+03   -0.29902E-02   -0.29450E-02 24304   0.479E-01 0.667E-03
CGA:  65    -0.315470060362E+03   -0.16990E-02   -0.17032E-02 24304   0.411E-01 0.243E-04
CGA:  66    -0.315471919167E+03   -0.18588E-02   -0.18594E-02 24304   0.624E-01 0.115E-03
CGA:  67    -0.315476113996E+03   -0.41948E-02   -0.46695E-02 24304   0.175E+00-0.151E-01
CGA:  68    -0.315478453587E+03   -0.23396E-02   -0.24577E-02 24304   0.114E+00-0.175E-02
CGA:  69    -0.315480095474E+03   -0.16419E-02   -0.16271E-02 24304   0.460E-01 0.910E-03
CGA:  70    -0.315481092964E+03   -0.99749E-03   -0.99241E-03 24304   0.415E-01 0.905E-04
CGA:  71    -0.315482146624E+03   -0.10537E-02   -0.10464E-02 24304   0.492E-01 0.197E-04
CGA:  72    -0.315483728953E+03   -0.15823E-02   -0.15975E-02 24304   0.904E-01 0.164E-03
CGA:  73    -0.315487142589E+03   -0.34136E-02   -0.32401E-02 24304   0.148E+00-0.655E-02
CGA:  74    -0.315488888727E+03   -0.17461E-02   -0.17671E-02 24304   0.118E+00-0.628E-02
CGA:  75    -0.315489973090E+03   -0.10844E-02   -0.11146E-02 24304   0.620E-01-0.273E-02
CGA:  76    -0.315490588170E+03   -0.61508E-03   -0.61145E-03 24304   0.417E-01 0.194E-03
SDA:  77    -0.315491175136E+03   -0.58697E-03   -0.58424E-03 24304   0.523E-01 0.389E-04
CGA:  78    -0.315494052196E+03   -0.28771E-02   -0.28772E-02 24304   0.817E-01-0.141E-04
CGA:  79    -0.315501319272E+03   -0.72671E-02   -0.72492E-02 24304   0.105E+00 0.529E-03
CGA:  80    -0.315505087017E+03   -0.37677E-02   -0.37764E-02 24304   0.632E-01 0.700E-03
CGA:  81    -0.315508804420E+03   -0.37174E-02   -0.36855E-02 24304   0.119E+00 0.121E-02
CGA:  82    -0.315515063640E+03   -0.62592E-02   -0.11981E-01 24304   0.396E+00-0.786E-01
CGA:  83    -0.315524809383E+03   -0.97457E-02   -0.97831E-02 24304   0.103E+00-0.485E-03
CGA:  84    -0.315527570859E+03   -0.27615E-02   -0.27649E-02 24304   0.307E-01-0.159E-04
CGA:  85    -0.315528903944E+03   -0.13331E-02   -0.13332E-02 24304   0.308E-01-0.426E-04
CGA:  86    -0.315531599431E+03   -0.26955E-02   -0.26880E-02 24304   0.340E-01 0.173E-03
CGA:  87    -0.315532860134E+03   -0.12607E-02   -0.12624E-02 24304   0.139E-01 0.541E-04
CGA:  88    -0.315534006571E+03   -0.11464E-02   -0.11511E-02 24304   0.301E-01-0.149E-03
CGA:  89    -0.315534292561E+03   -0.28599E-03   -0.56383E-02 24304   0.350E+00-0.439E-01
CGA:  90    -0.315541030468E+03   -0.67379E-02   -0.67242E-02 24304   0.506E-01 0.484E-03
CGA:  91    -0.315542555061E+03   -0.15246E-02   -0.15205E-02 24304   0.185E-01 0.242E-04
CGA:  92    -0.315543592041E+03   -0.10370E-02   -0.10370E-02 24304   0.240E-01-0.120E-04
CGA:  93    -0.315545409343E+03   -0.18173E-02   -0.18133E-02 24304   0.366E-01 0.127E-03
CGA:  94    -0.315546712417E+03   -0.13031E-02   -0.13025E-02 24304   0.914E-02-0.433E-04
CGA:  95    -0.315547195780E+03   -0.48336E-03   -0.48331E-03 24304   0.118E-01 0.459E-05
CGA:  96    -0.315548651678E+03   -0.14559E-02   -0.16069E-02 24304   0.580E-01-0.253E-02
CGA:  97    -0.315550032315E+03   -0.13806E-02   -0.11548E-02 24304   0.904E-01 0.246E-02
CGA:  98    -0.315551622193E+03   -0.15899E-02   -0.14940E-02 24304   0.571E-01 0.590E-02
CGA:  99    -0.315552423352E+03   -0.80116E-03   -0.68984E-03 24304   0.329E-01 0.845E-02
CGA: 100    -0.315553007722E+03   -0.58437E-03   -0.55469E-03 24304   0.313E-01 0.146E-02
CGA: 101    -0.315553578398E+03   -0.57068E-03   -0.57050E-03 24304   0.423E-01-0.135E-03
CGA: 102    -0.315554320416E+03   -0.74202E-03   -0.77523E-03 24304   0.591E-01-0.132E-02
CGA: 103    -0.315555408945E+03   -0.10885E-02   -0.11193E-02 24304   0.778E-01-0.868E-03
CGA: 104    -0.315556729787E+03   -0.13208E-02   -0.12628E-02 24304   0.679E-01 0.231E-02
CGA: 105    -0.315557657771E+03   -0.92798E-03   -0.85843E-03 24304   0.422E-01 0.441E-02
CGA: 106    -0.315558243779E+03   -0.58601E-03   -0.56411E-03 24304   0.318E-01 0.123E-02
CGA: 107    -0.315558742728E+03   -0.49895E-03   -0.49640E-03 24304   0.366E-01 0.242E-04
CGA: 108    -0.315559389027E+03   -0.64630E-03   -0.66106E-03 24304   0.555E-01-0.490E-03
CGA: 109    -0.315560498992E+03   -0.11100E-02   -0.11385E-02 24304   0.874E-01-0.233E-03
CGA: 110    -0.315562052143E+03   -0.15532E-02   -0.15084E-02 24304   0.872E-01 0.160E-02
CGA: 111    -0.315563251304E+03   -0.11992E-02   -0.11837E-02 24304   0.587E-01 0.818E-03
CGA: 112    -0.315563997814E+03   -0.74651E-03   -0.75718E-03 24304   0.366E-01-0.574E-03
CGA: 113    -0.315564465186E+03   -0.46737E-03   -0.47343E-03 24304   0.240E-01-0.341E-03
CGA: 114    -0.315564824859E+03   -0.35967E-03   -0.36105E-03 24304   0.236E-01-0.100E-03
CGA: 115    -0.315565333919E+03   -0.50906E-03   -0.50873E-03 24304   0.405E-01-0.681E-04
CGA: 116    -0.315566232082E+03   -0.89816E-03   -0.89339E-03 24304   0.607E-01-0.176E-03
CGA: 117    -0.315567210645E+03   -0.97856E-03   -0.96688E-03 24304   0.550E-01 0.119E-03
CGA: 118    -0.315567979624E+03   -0.76898E-03   -0.77157E-03 24304   0.389E-01-0.280E-03
CGA: 119    -0.315568480926E+03   -0.50130E-03   -0.50716E-03 24304   0.228E-01-0.368E-03
SDA: 120    -0.315568797036E+03   -0.31611E-03   -0.31787E-03 24304   0.179E-01-0.112E-03
CGA: 121    -0.315569892971E+03   -0.10959E-02   -0.10964E-02 24304   0.293E-01-0.212E-04
CGA: 122    -0.315572053711E+03   -0.21607E-02   -0.21518E-02 24304   0.231E-01 0.199E-03
CGA: 123    -0.315572927122E+03   -0.87341E-03   -0.87305E-03 24304   0.132E-01 0.541E-04
CGA: 124    -0.315573756121E+03   -0.82900E-03   -0.82893E-03 24304   0.168E-01-0.233E-05
CGA: 125    -0.315575601384E+03   -0.18453E-02   -0.19449E-02 24304   0.599E-01-0.133E-02
CGA: 126    -0.315577342379E+03   -0.17410E-02   -0.16275E-02 24304   0.230E-01-0.267E-02
CGA: 127    -0.315577838729E+03   -0.49635E-03   -0.48722E-03 24304   0.135E-01 0.137E-03
CGA: 128    -0.315578160327E+03   -0.32160E-03   -0.32356E-03 24304   0.843E-02 0.179E-04
CGA: 129    -0.315578428332E+03   -0.26801E-03   -0.26842E-03 24304   0.103E-01 0.601E-04
CGA: 130    -0.315578810324E+03   -0.38199E-03   -0.38209E-03 24304   0.124E-01-0.125E-04
CGA: 131    -0.315579145835E+03   -0.33551E-03   -0.33337E-03 24304   0.825E-02 0.252E-06
CGA: 132    -0.315579312763E+03   -0.16693E-03   -0.16691E-03 24304   0.437E-02 0.303E-04
CGA: 133    -0.315579451295E+03   -0.13853E-03   -0.13860E-03 24304   0.679E-02 0.203E-04
CGA: 134    -0.315579795379E+03   -0.34408E-03   -0.34323E-03 24304   0.178E-01 0.477E-04
CGA: 135    -0.315580454703E+03   -0.65932E-03   -0.66258E-03 24304   0.225E-01-0.901E-03
CGA: 136    -0.315580785116E+03   -0.33041E-03   -0.30368E-03 24304   0.114E-01 0.138E-02
CGA: 137    -0.315580958046E+03   -0.17293E-03   -0.17101E-03 24304   0.755E-02 0.111E-03
CGA: 138    -0.315581125030E+03   -0.16698E-03   -0.16671E-03 24304   0.109E-01 0.127E-04
CGA: 139    -0.315581360058E+03   -0.23503E-03   -0.23357E-03 24304   0.136E-01 0.259E-04
CGA: 140    -0.315581611738E+03   -0.25168E-03   -0.24849E-03 24304   0.154E-01 0.923E-04
CGA: 141    -0.315581902167E+03   -0.29043E-03   -0.28689E-03 24304   0.175E-01 0.909E-04
CGA: 142    -0.315582164657E+03   -0.26249E-03   -0.25981E-03 24304   0.131E-01 0.141E-03
CGA: 143    -0.315582338407E+03   -0.17375E-03   -0.17320E-03 24304   0.914E-02 0.648E-04
CGA: 144    -0.315582481608E+03   -0.14320E-03   -0.14295E-03 24304   0.993E-02 0.403E-04
CGA: 145    -0.315582685612E+03   -0.20400E-03   -0.20339E-03 24304   0.176E-01 0.295E-04
CGA: 146    -0.315583071739E+03   -0.38613E-03   -0.38272E-03 24304   0.334E-01-0.475E-04
CGA: 147    -0.315583575009E+03   -0.50327E-03   -0.49070E-03 24304   0.363E-01 0.494E-03
CGA: 148    -0.315583977592E+03   -0.40258E-03   -0.40538E-03 24304   0.247E-01 0.137E-04
CGA: 149    -0.315584246123E+03   -0.26853E-03   -0.27377E-03 24304   0.193E-01-0.162E-03
CGA: 150    -0.315584517805E+03   -0.27168E-03   -0.27648E-03 24304   0.238E-01-0.187E-04
SDA: 151    -0.315584928997E+03   -0.41119E-03   -0.41636E-03 24304   0.341E-01 0.169E-03
CGA: 152    -0.315586151949E+03   -0.12230E-02   -0.12232E-02 24304   0.301E-01-0.173E-04
CGA: 153    -0.315589010105E+03   -0.28582E-02   -0.28416E-02 24304   0.577E-01 0.280E-03
CGA: 154    -0.315591919648E+03   -0.29095E-02   -0.29328E-02 24304   0.436E-01-0.994E-03
CGA: 155    -0.315593791014E+03   -0.18714E-02   -0.18463E-02 24304   0.170E-01 0.148E-02
CGA: 156    -0.315594419486E+03   -0.62847E-03   -0.62782E-03 24304   0.129E-01 0.863E-04
CGA: 157    -0.315595988925E+03   -0.15694E-02   -0.15541E-02 24304   0.299E-01 0.168E-03
CGA: 158    -0.315597166340E+03   -0.11774E-02   -0.11743E-02 24304   0.865E-02 0.519E-03
CGA: 159    -0.315597708278E+03   -0.54194E-03   -0.54220E-03 24304   0.164E-01-0.122E-04
CGA: 160    -0.315599824099E+03   -0.21158E-02   -0.20836E-02 24304   0.287E-01 0.366E-03
CGA: 161    -0.315600964512E+03   -0.11404E-02   -0.11411E-02 24304   0.140E-01 0.118E-03
CGA: 162    -0.315602154744E+03   -0.11902E-02   -0.11869E-02 24304   0.239E-01 0.757E-04
CGA: 163    -0.315604703411E+03   -0.25487E-02   -0.26371E-02 24304   0.925E-01-0.174E-02
CGA: 164    -0.315609151545E+03   -0.44481E-02   -0.49218E-02 24304   0.175E+00-0.311E-01
CGA: 165    -0.315610728136E+03   -0.15766E-02   -0.14625E-02 24304   0.177E+00 0.767E-02
CGA: 166    -0.315613674142E+03   -0.29460E-02   -0.30648E-02 24304   0.135E+00-0.228E-02
CGA: 167    -0.315616107365E+03   -0.24332E-02   -0.25730E-02 24304   0.114E+00-0.298E-02
CGA: 168    -0.315618570379E+03   -0.24630E-02   -0.25269E-02 24304   0.113E+00-0.605E-03
CGA: 169    -0.315621754980E+03   -0.31846E-02   -0.31431E-02 24304   0.141E+00 0.183E-03
CGA: 170    -0.315625222116E+03   -0.34671E-02   -0.33652E-02 24304   0.147E+00 0.108E-02
CGA: 171    -0.315628390075E+03   -0.31680E-02   -0.31472E-02 24304   0.141E+00 0.146E-03
CGA: 172    -0.315631304416E+03   -0.29143E-02   -0.29410E-02 24304   0.122E+00-0.569E-03
CGA: 173    -0.315633913904E+03   -0.26095E-02   -0.25789E-02 24304   0.129E+00 0.671E-03
CGA: 174    -0.315637299021E+03   -0.33851E-02   -0.32932E-02 24304   0.197E+00-0.522E-03
CGA: 175    -0.315641033168E+03   -0.37341E-02   -0.35923E-02 24304   0.199E+00 0.367E-02
CGA: 176    -0.315643868271E+03   -0.28351E-02   -0.26962E-02 24304   0.148E+00 0.760E-02
CGA: 177    -0.315646123337E+03   -0.22551E-02   -0.21974E-02 24304   0.150E+00 0.260E-02
CGA: 178    -0.315648698899E+03   -0.25756E-02   -0.25308E-02 24304   0.198E+00 0.134E-02
CGA: 179    -0.315651653719E+03   -0.29548E-02   -0.29083E-02 24304   0.204E+00 0.163E-02
CGA: 180    -0.315654154001E+03   -0.25003E-02   -0.24989E-02 24304   0.160E+00-0.288E-03
CGA: 181    -0.315656104951E+03   -0.19510E-02   -0.19744E-02 24304   0.138E+00-0.147E-02
SDA: 182    -0.315658058646E+03   -0.19537E-02   -0.20214E-02 24304   0.152E+00-0.253E-02
CGA: 183    -0.315667561048E+03   -0.95024E-02   -0.93778E-02 24304   0.311E+00 0.407E-02
CGA: 184    -0.315688018767E+03   -0.20458E-01    0.12844E+00 24304   0.275E+00 0.357E+00
CGA: 185    -0.315698152577E+03   -0.10134E-01   -0.10131E-01 24304   0.231E+00 0.237E-03
CGA: 186    -0.315712677701E+03   -0.14525E-01    0.60702E+00 24304   0.229E+00 0.230E+00
CGA: 187    -0.315725051975E+03   -0.12374E-01   -0.12410E-01 24304   0.352E+00-0.150E-02
CGA: 188    -0.315748553900E+03   -0.23502E-01   -0.55243E-02 24304   0.292E+01-0.363E+00
CGA: 189    -0.315813324442E+03   -0.64771E-01   -0.65014E-01 24304   0.257E+00-0.750E-02
CGA: 190    -0.315820670076E+03   -0.73456E-02   -0.73310E-02 24304   0.531E-01 0.254E-03
CGA: 191    -0.315823643586E+03   -0.29735E-02   -0.29735E-02 24304   0.501E-01 0.497E-04
CGA: 192    -0.315828531583E+03   -0.48880E-02   -0.48670E-02 24304   0.191E+00 0.463E-03
CGA: 193    -0.315845169322E+03   -0.16638E-01   -0.16561E-01 24304   0.133E+00 0.212E-02
CGA: 194    -0.315851824118E+03   -0.66548E-02   -0.66545E-02 24304   0.564E-01-0.253E-04
CGA: 195    -0.315854024829E+03   -0.22007E-02   -0.22009E-02 24304   0.395E-01-0.937E-05
CGA: 196    -0.315857049864E+03   -0.30250E-02   -0.30156E-02 24304   0.559E-01 0.373E-03
CGA: 197    -0.315860004685E+03   -0.29548E-02   -0.29507E-02 24304   0.339E-01-0.243E-03
CGA: 198    -0.315861284709E+03   -0.12800E-02   -0.12798E-02 24304   0.133E-01-0.597E-05
CGA: 199    -0.315862008583E+03   -0.72387E-03   -0.72397E-03 24304   0.220E-01 0.130E-04
CGA: 200    -0.315866246361E+03   -0.42378E-02   -0.42066E-02 24304   0.370E-01 0.192E-03
   4 F= -.31586625E+03 E0= -.31583838E+03  d E =-.447943E+01  mag=    44.9620
       N       E                     dE             d eps       ncg     rms          ort
SDA:   1    -0.251999934900E+03    0.63862E+02    0.00000E+00 24304   0.231E+04 0.000E+00
CGA:   2    -0.303179696609E+03   -0.51180E+02   -0.52071E+02 24304   0.421E+03 0.412E+02
CGA:   3    -0.306557793852E+03   -0.33781E+01   -0.10201E+02 24304   0.179E+03-0.125E+03
CGA:   4    -0.309449228502E+03   -0.28914E+01   -0.19496E+01 24304   0.939E+02 0.560E+02
CGA:   5    -0.311444113531E+03   -0.19949E+01   -0.17649E+01 24304   0.352E+02-0.994E+01
CGA:   6    -0.311928252794E+03   -0.48414E+00   -0.48884E+00 24304   0.415E+02-0.603E+00
CGA:   7    -0.312671611226E+03   -0.74336E+00   -0.81246E+00 24304   0.580E+02-0.250E+01
CGA:   8    -0.313660594048E+03   -0.98898E+00   -0.11350E+01 24304   0.736E+02-0.537E+01
CGA:   9    -0.314841371267E+03   -0.11808E+01   -0.11552E+01 24304   0.498E+02 0.180E+01
CGA:  10    -0.315482018196E+03   -0.64065E+00   -0.54960E+00 24304   0.225E+02 0.707E+01
CGA:  11    -0.315766777724E+03   -0.28476E+00   -0.25745E+00 24304   0.902E+01 0.201E+01
CGA:  12    -0.315873227922E+03   -0.10645E+00   -0.10561E+00 24304   0.525E+01 0.348E-01
CGA:  13    -0.315949478794E+03   -0.76251E-01   -0.79687E-01 24304   0.596E+01-0.165E+00
CGA:  14    -0.316051006828E+03   -0.10153E+00   -0.10397E+00 24304   0.785E+01-0.839E-01
CGA:  15    -0.316176473246E+03   -0.12547E+00   -0.12895E+00 24304   0.724E+01-0.137E+00
CGA:  16    -0.316269735648E+03   -0.93262E-01   -0.93533E-01 24304   0.423E+01-0.246E-01
CGA:  17    -0.316317917392E+03   -0.48182E-01   -0.47388E-01 24304   0.183E+01 0.518E-01
CGA:  18    -0.316337879077E+03   -0.19962E-01   -0.20009E-01 24304   0.819E+00-0.375E-02
CGA:  19    -0.316348403371E+03   -0.10524E-01   -0.10712E-01 24304   0.585E+00-0.982E-02
CGA:  20    -0.316358161786E+03   -0.97584E-02   -0.98717E-02 24304   0.652E+00-0.304E-02
CGA:  21    -0.316371013119E+03   -0.12851E-01   -0.12986E-01 24304   0.837E+00-0.126E-02
CGA:  22    -0.316386639082E+03   -0.15626E-01   -0.15721E-01 24304   0.818E+00-0.121E-02
CGA:  23    -0.316398640742E+03   -0.12002E-01   -0.11977E-01 24304   0.467E+00 0.131E-02
CGA:  24    -0.316404579769E+03   -0.59390E-02   -0.59859E-02 24304   0.225E+00-0.216E-02
CGA:  25    -0.316407744900E+03   -0.31651E-02   -0.31897E-02 24304   0.146E+00-0.854E-03
CGA:  26    -0.316410276312E+03   -0.25314E-02   -0.25484E-02 24304   0.138E+00-0.178E-03
CGA:  27    -0.316413123301E+03   -0.28470E-02   -0.28565E-02 24304   0.167E+00 0.182E-03
CGA:  28    -0.316416718870E+03   -0.35956E-02   -0.35988E-02 24304   0.186E+00 0.115E-03
CGA:  29    -0.316419874404E+03   -0.31555E-02   -0.31603E-02 24304   0.123E+00-0.320E-04
CGA:  30    -0.316421673873E+03   -0.17995E-02   -0.18074E-02 24304   0.680E-01-0.197E-03
CGA:  31    -0.316422744370E+03   -0.10705E-02   -0.10751E-02 24304   0.448E-01-0.428E-04
SDA:  32    -0.316423533385E+03   -0.78901E-03   -0.79119E-03 24304   0.377E-01 0.309E-04
CGA:  33    -0.316424369303E+03   -0.83592E-03   -0.83571E-03 24304   0.120E-01-0.213E-04
CGA:  34    -0.316425965229E+03   -0.15959E-02   -0.10336E-04 24304   0.497E-01-0.237E-02
CGA:  35    -0.316427079071E+03   -0.11138E-02   -0.11166E-02 24304   0.115E-01-0.268E-05
CGA:  36    -0.316427437928E+03   -0.35886E-03   -0.35911E-03 24304   0.108E-01-0.645E-05
CGA:  37    -0.316428091112E+03   -0.65318E-03   -0.65341E-03 24304   0.177E-01-0.194E-04
CGA:  38    -0.316428862435E+03   -0.77132E-03   -0.77134E-03 24304   0.136E-01-0.172E-04
CGA:  39    -0.316429261091E+03   -0.39866E-03   -0.39930E-03 24304   0.680E-02-0.605E-05
CGA:  40    -0.316429523457E+03   -0.26237E-03   -0.26254E-03 24304   0.548E-02 0.223E-04
CGA:  41    -0.316429772356E+03   -0.24890E-03   -0.24886E-03 24304   0.651E-02 0.427E-04
CGA:  42    -0.316430093401E+03   -0.32105E-03   -0.32073E-03 24304   0.710E-02 0.661E-04
CGA:  43    -0.316430384132E+03   -0.29073E-03   -0.29104E-03 24304   0.481E-02 0.628E-04
CGA:  44    -0.316430547663E+03   -0.16353E-03   -0.16385E-03 24304   0.307E-02 0.218E-04
CGA:  45    -0.316430675092E+03   -0.12743E-03   -0.12743E-03 24304   0.254E-02-0.178E-05
CGA:  46    -0.316430794661E+03   -0.11957E-03   -0.11962E-03 24304   0.305E-02-0.172E-04
CGA:  47    -0.316430954809E+03   -0.16015E-03   -0.16035E-03 24304   0.406E-02-0.269E-04
CGA:  48    -0.316431109792E+03   -0.15498E-03   -0.15478E-03 24304   0.192E-02-0.328E-04
CGA:  49    -0.316431178143E+03   -0.68350E-04   -0.68327E-04 24304   0.184E-02-0.411E-05
CGA:  50    -0.316431282888E+03   -0.10474E-03   -0.10456E-03 24304   0.263E-02 0.127E-04
CGA:  51    -0.316431427272E+03   -0.14438E-03   -0.14405E-03 24304   0.271E-02 0.296E-04
CGA:  52    -0.316431509051E+03   -0.81780E-04   -0.81891E-04 24304   0.106E-02 0.958E-05
CGA:  53    -0.316431556559E+03   -0.47508E-04   -0.47509E-04 24304   0.139E-02-0.179E-05
CGA:  54    -0.316431702082E+03   -0.14552E-03   -0.14579E-03 24304   0.427E-02-0.398E-05
CGA:  55    -0.316431846006E+03   -0.14392E-03   -0.14377E-03 24304   0.848E-03-0.159E-04
CGA:  56    -0.316431870331E+03   -0.24325E-04   -0.24289E-04 24304   0.595E-03-0.152E-05
CGA:  57    -0.316431938239E+03   -0.67907E-04   -0.67671E-04 24304   0.234E-02 0.294E-05
CGA:  58    -0.316432047647E+03   -0.10941E-03   -0.10945E-03 24304   0.116E-02 0.111E-04
CGA:  59    -0.316432083878E+03   -0.36232E-04   -0.36267E-04 24304   0.628E-03 0.460E-06
CGA:  60    -0.316432115532E+03   -0.31653E-04   -0.31656E-04 24304   0.798E-03-0.217E-05
CGA:  61    -0.316432171448E+03   -0.55916E-04   -0.56177E-04 24304   0.124E-02-0.116E-04
CGA:  62    -0.316432224817E+03   -0.53369E-04   -0.53285E-04 24304   0.784E-03-0.129E-04
SDA:  63    -0.316432247132E+03   -0.22315E-04   -0.22271E-04 24304   0.287E-03-0.475E-05
CGA:  64    -0.316432267031E+03   -0.19899E-04   -0.19830E-04 24304   0.340E-03 0.303E-05
CGA:  65    -0.316432294288E+03   -0.27257E-04   -0.27089E-04 24304   0.394E-03 0.546E-05
CGA:  66    -0.316432309515E+03   -0.15227E-04   -0.15257E-04 24304   0.237E-03 0.220E-05
CGA:  67    -0.316432320798E+03   -0.11283E-04   -0.11287E-04 24304   0.168E-03 0.148E-05
CGA:  68    -0.316432336623E+03   -0.15825E-04   -0.15722E-04 24304   0.285E-03 0.225E-05
CGA:  69    -0.316432352164E+03   -0.15541E-04   -0.15537E-04 24304   0.294E-03 0.197E-05
CGA:  70    -0.316432371504E+03   -0.19340E-04   -0.19317E-04 24304   0.232E-03 0.169E-05
CGA:  71    -0.316432379677E+03   -0.81725E-05   -0.82033E-05 24304   0.853E-04 0.154E-05
   5 F= -.31643238E+03 E0= -.31640606E+03  d E =-.566133E+00  mag=    45.0007
       N       E                     dE             d eps       ncg     rms          ort
SDA:   1    -0.234529381681E+03    0.81903E+02    0.00000E+00 24304   0.118E+04 0.000E+00
CGA:   2    -0.268212818949E+03   -0.33683E+02   -0.27824E+02 24304   0.346E+03-0.179E+03
CGA:   3    -0.284260795409E+03   -0.16048E+02   -0.16247E+02 24304   0.332E+03-0.345E+02
CGA:   4    -0.297511650444E+03   -0.13251E+02   -0.12640E+02 24304   0.227E+03-0.182E+02
CGA:   5    -0.304873127488E+03   -0.73615E+01   -0.75792E+01 24304   0.164E+03 0.151E+01
CGA:   6    -0.308860213924E+03   -0.39871E+01   -0.33199E+01 24304   0.685E+02 0.131E+02
CGA:   7    -0.310898162625E+03   -0.20379E+01   -0.20258E+01 24304   0.773E+02-0.651E+00
CGA:   8    -0.313249035973E+03   -0.23509E+01   -0.24424E+01 24304   0.854E+02 0.967E-01
CGA:   9    -0.315075051875E+03   -0.18260E+01   -0.17506E+01 24304   0.429E+02 0.200E+01
CGA:  10    -0.315739535737E+03   -0.66448E+00   -0.67436E+00 24304   0.140E+02-0.683E+00
CGA:  11    -0.315996842115E+03   -0.25731E+00   -0.27831E+00 24304   0.109E+02-0.638E+00
CGA:  12    -0.316289372905E+03   -0.29253E+00   -0.29574E+00 24304   0.118E+02-0.144E-01
CGA:  13    -0.316614280514E+03   -0.32491E+00   -0.32294E+00 24304   0.924E+01-0.159E-01
CGA:  14    -0.316815242214E+03   -0.20096E+00   -0.21551E+00 24304   0.496E+01-0.212E+00
CGA:  15    -0.316914425258E+03   -0.99183E-01   -0.10326E+00 24304   0.215E+01-0.862E-01
CGA:  16    -0.316980839638E+03   -0.66414E-01   -0.66368E-01 24304   0.161E+01-0.381E-03
CGA:  17    -0.317035556658E+03   -0.54717E-01   -0.55353E-01 24304   0.182E+01 0.501E-01
CGA:  18    -0.317102733518E+03   -0.67177E-01   -0.67561E-01 24304   0.112E+01 0.569E-01
CGA:  19    -0.317141376922E+03   -0.38643E-01   -0.38686E-01 24304   0.666E+00 0.357E-02
CGA:  20    -0.317166504526E+03   -0.25128E-01   -0.25171E-01 24304   0.470E+00 0.242E-01
CGA:  21    -0.317186724630E+03   -0.20220E-01   -0.20174E-01 24304   0.397E+00 0.921E-02
CGA:  22    -0.317202771469E+03   -0.16047E-01   -0.16033E-01 24304   0.329E+00 0.744E-02
CGA:  23    -0.317217781076E+03   -0.15010E-01   -0.14924E-01 24304   0.181E+00 0.918E-02
CGA:  24    -0.317225673747E+03   -0.78927E-02   -0.78792E-02 24304   0.133E+00 0.231E-02
CGA:  25    -0.317232253965E+03   -0.65802E-02   -0.65451E-02 24304   0.133E+00 0.261E-02
CGA:  26    -0.317239677492E+03   -0.74235E-02   -0.73805E-02 24304   0.911E-01 0.221E-02
CGA:  27    -0.317243329698E+03   -0.36522E-02   -0.36533E-02 24304   0.451E-01 0.583E-03
CGA:  28    -0.317245253453E+03   -0.19238E-02   -0.19224E-02 24304   0.382E-01 0.355E-03
CGA:  29    -0.317247699318E+03   -0.24459E-02   -0.24333E-02 24304   0.497E-01 0.478E-03
CGA:  30    -0.317250018552E+03   -0.23192E-02   -0.23169E-02 24304   0.276E-01 0.332E-03
CGA:  31    -0.317251134766E+03   -0.11162E-02   -0.11166E-02 24304   0.130E-01 0.125E-03
SDA:  32    -0.317251946126E+03   -0.81136E-03   -0.80870E-03 24304   0.161E-01 0.116E-03
CGA:  33    -0.317252265090E+03   -0.31896E-03   -0.31936E-03 24304   0.354E-02-0.135E-04
CGA:  34    -0.317252966144E+03   -0.70105E-03   -0.57200E-06 24304   0.363E-01-0.926E-03
CGA:  35    -0.317253851707E+03   -0.88556E-03   -0.88205E-03 24304   0.166E-01 0.791E-04
CGA:  36    -0.317254167526E+03   -0.31582E-03   -0.31735E-03 24304   0.609E-02-0.625E-04
CGA:  37    -0.317254415551E+03   -0.24803E-03   -0.24834E-03 24304   0.860E-02-0.177E-05
CGA:  38    -0.317254846056E+03   -0.43051E-03   -0.43082E-03 24304   0.134E-01 0.444E-06
CGA:  39    -0.317255327704E+03   -0.48165E-03   -0.48155E-03 24304   0.110E-01-0.150E-06
CGA:  40    -0.317255680904E+03   -0.35320E-03   -0.35309E-03 24304   0.752E-02 0.186E-06
CGA:  41    -0.317255930322E+03   -0.24942E-03   -0.24963E-03 24304   0.687E-02-0.910E-05
CGA:  42    -0.317256197832E+03   -0.26751E-03   -0.26782E-03 24304   0.554E-02-0.105E-04
CGA:  43    -0.317256384131E+03   -0.18630E-03   -0.18615E-03 24304   0.613E-02-0.642E-05
CGA:  44    -0.317256733979E+03   -0.34985E-03   -0.34973E-03 24304   0.872E-02-0.184E-04
CGA:  45    -0.317256959947E+03   -0.22597E-03   -0.22611E-03 24304   0.355E-02-0.321E-05
CGA:  46    -0.317257062354E+03   -0.10241E-03   -0.10290E-03 24304   0.272E-02-0.652E-06
CGA:  47    -0.317257206795E+03   -0.14444E-03   -0.14457E-03 24304   0.520E-02 0.220E-04
CGA:  48    -0.317257426219E+03   -0.21942E-03   -0.21975E-03 24304   0.504E-02 0.281E-04
CGA:  49    -0.317257594429E+03   -0.16821E-03   -0.16834E-03 24304   0.313E-02 0.210E-04
CGA:  50    -0.317257672669E+03   -0.78240E-04   -0.78515E-04 24304   0.146E-02-0.429E-06
CGA:  51    -0.317257756067E+03   -0.83397E-04   -0.83380E-04 24304   0.364E-02-0.162E-06
CGA:  52    -0.317257993187E+03   -0.23712E-03   -0.23706E-03 24304   0.502E-02-0.409E-05
CGA:  53    -0.317258120504E+03   -0.12732E-03   -0.12631E-03 24304   0.170E-02 0.793E-05
CGA:  54    -0.317258186676E+03   -0.66172E-04   -0.66134E-04 24304   0.238E-02 0.798E-06
CGA:  55    -0.317258329388E+03   -0.14271E-03   -0.14257E-03 24304   0.357E-02 0.167E-04
CGA:  56    -0.317258453157E+03   -0.12377E-03   -0.12471E-03 24304   0.253E-02 0.142E-04
CGA:  57    -0.317258535957E+03   -0.82801E-04   -0.83020E-04 24304   0.154E-02 0.992E-05
CGA:  58    -0.317258592923E+03   -0.56966E-04   -0.56969E-04 24304   0.131E-02 0.441E-05
CGA:  59    -0.317258654519E+03   -0.61596E-04   -0.61605E-04 24304   0.205E-02 0.190E-05
CGA:  60    -0.317258770632E+03   -0.11611E-03   -0.11599E-03 24304   0.222E-02 0.111E-04
CGA:  61    -0.317258839603E+03   -0.68971E-04   -0.68916E-04 24304   0.138E-02 0.275E-06
CGA:  62    -0.317258896236E+03   -0.56632E-04   -0.56604E-04 24304   0.118E-02-0.785E-06
SDA:  63    -0.317258938644E+03   -0.42408E-04   -0.42446E-04 24304   0.773E-03 0.770E-06
CGA:  64    -0.317258972278E+03   -0.33634E-04   -0.33638E-04 24304   0.796E-03 0.843E-07
CGA:  65    -0.317259019885E+03   -0.47607E-04   -0.47597E-04 24304   0.751E-03 0.383E-06
CGA:  66    -0.317259069895E+03   -0.50010E-04   -0.50047E-04 24304   0.749E-03-0.226E-05
CGA:  67    -0.317259113756E+03   -0.43862E-04   -0.43893E-04 24304   0.523E-03-0.405E-05
CGA:  68    -0.317259143051E+03   -0.29294E-04   -0.29332E-04 24304   0.537E-03-0.612E-05
CGA:  69    -0.317259166866E+03   -0.23815E-04   -0.23771E-04 24304   0.516E-03-0.798E-05
CGA:  70    -0.317259216343E+03   -0.49477E-04   -0.50388E-04 24304   0.507E-03-0.189E-04
CGA:  71    -0.317259231378E+03   -0.15035E-04   -0.14962E-04 24304   0.154E-03-0.375E-05
CGA:  72    -0.317259256725E+03   -0.25347E-04   -0.24685E-04 24304   0.383E-03 0.567E-05
CGA:  73    -0.317259277519E+03   -0.20794E-04   -0.20818E-04 24304   0.179E-03 0.515E-05
CGA:  74    -0.317259285319E+03   -0.77994E-05   -0.78115E-05 24304   0.127E-03 0.661E-06
CGA:  75    -0.317259296114E+03   -0.10796E-04   -0.10828E-04 24304   0.327E-03-0.132E-05
CGA:  76    -0.317259317786E+03   -0.21672E-04   -0.21710E-04 24304   0.271E-03-0.420E-05
CGA:  77    -0.317259329173E+03   -0.11387E-04   -0.11358E-04 24304   0.147E-03-0.197E-05
CGA:  78    -0.317259337671E+03   -0.84980E-05   -0.84977E-05 24304   0.173E-03 0.980E-07
CGA:  79    -0.317259372060E+03   -0.34389E-04   -0.33803E-04 24304   0.213E-03 0.413E-05
CGA:  80    -0.317259378069E+03   -0.60095E-05   -0.60282E-05 24304   0.879E-04 0.512E-06
   6 F= -.31725938E+03 E0= -.31723494E+03  d E =-.826998E+00  mag=    45.0056
       N       E                     dE             d eps       ncg     rms          ort
SDA:   1    -0.312501640159E+03    0.47577E+01    0.00000E+00 24304   0.188E+02 0.000E+00
CGA:   2    -0.313378932468E+03   -0.87729E+00   -0.87345E+00 24304   0.238E+02-0.404E-01
CGA:   3    -0.315660532820E+03   -0.22816E+01   -0.22928E+01 24304   0.281E+02-0.378E+00
CGA:   4    -0.316471315140E+03   -0.81078E+00   -0.76616E+00 24304   0.670E+01 0.130E+01
CGA:   5    -0.316869640758E+03   -0.39833E+00   -0.39507E+00 24304   0.573E+01-0.168E+00
CGA:   6    -0.317085368034E+03   -0.21573E+00   -0.21796E+00 24304   0.464E+01-0.102E-01
CGA:   7    -0.317291757477E+03   -0.20639E+00   -0.20770E+00 24304   0.193E+01 0.104E-01
CGA:   8    -0.317337744147E+03   -0.45987E-01   -0.45154E-01 24304   0.509E+00 0.246E-01
CGA:   9    -0.317382326862E+03   -0.44583E-01   -0.44442E-01 24304   0.824E+00 0.425E-02
CGA:  10    -0.317410008620E+03   -0.27682E-01   -0.27983E-01 24304   0.266E+00-0.282E-02
CGA:  11    -0.317416995767E+03   -0.69871E-02   -0.70296E-02 24304   0.915E-01-0.865E-03
CGA:  12    -0.317423195651E+03   -0.61999E-02   -0.61933E-02 24304   0.864E-01 0.410E-03
CGA:  13    -0.317427904336E+03   -0.47087E-02   -0.47123E-02 24304   0.874E-01 0.410E-03
CGA:  14    -0.317430757639E+03   -0.28533E-02   -0.28616E-02 24304   0.322E-01-0.941E-04
CGA:  15    -0.317432174556E+03   -0.14169E-02   -0.14193E-02 24304   0.156E-01 0.438E-04
CGA:  16    -0.317433033134E+03   -0.85858E-03   -0.85868E-03 24304   0.153E-01 0.571E-04
CGA:  17    -0.317433866146E+03   -0.83301E-03   -0.83317E-03 24304   0.174E-01 0.571E-04
CGA:  18    -0.317434678883E+03   -0.81274E-03   -0.81403E-03 24304   0.816E-02 0.606E-04
CGA:  19    -0.317434987635E+03   -0.30875E-03   -0.30901E-03 24304   0.418E-02 0.880E-05
CGA:  20    -0.317435197310E+03   -0.20968E-03   -0.20976E-03 24304   0.374E-02 0.109E-04
CGA:  21    -0.317435603295E+03   -0.40599E-03   -0.40378E-03 24304   0.526E-02 0.396E-04
CGA:  22    -0.317435763303E+03   -0.16001E-03   -0.16049E-03 24304   0.189E-02 0.436E-05
CGA:  23    -0.317435857865E+03   -0.94562E-04   -0.94629E-04 24304   0.155E-02 0.103E-04
CGA:  24    -0.317435967335E+03   -0.10947E-03   -0.10918E-03 24304   0.224E-02 0.185E-04
CGA:  25    -0.317436102331E+03   -0.13500E-03   -0.13490E-03 24304   0.931E-03 0.255E-04
CGA:  26    -0.317436143353E+03   -0.41022E-04   -0.41086E-04 24304   0.989E-03 0.374E-05
CGA:  27    -0.317436207271E+03   -0.63919E-04   -0.63903E-04 24304   0.103E-02 0.134E-05
CGA:  28    -0.317436272705E+03   -0.65434E-04   -0.65427E-04 24304   0.979E-03 0.318E-06
CGA:  29    -0.317436342971E+03   -0.70266E-04   -0.70223E-04 24304   0.724E-03 0.208E-05
CGA:  30    -0.317436385369E+03   -0.42398E-04   -0.42393E-04 24304   0.114E-02 0.345E-05
CGA:  31    -0.317436454269E+03   -0.68900E-04   -0.68882E-04 24304   0.105E-02 0.659E-05
SDA:  32    -0.317436548248E+03   -0.93979E-04   -0.93782E-04 24304   0.146E-02 0.654E-05
CGA:  33    -0.317436585446E+03   -0.37198E-04   -0.37164E-04 24304   0.390E-03-0.164E-05
CGA:  34    -0.317436629463E+03   -0.44017E-04   -0.44448E-04 24304   0.101E-02-0.794E-05
CGA:  35    -0.317436685640E+03   -0.56177E-04   -0.56149E-04 24304   0.742E-03-0.910E-05
CGA:  36    -0.317436715774E+03   -0.30134E-04   -0.30071E-04 24304   0.425E-03-0.329E-05
CGA:  37    -0.317436733988E+03   -0.18214E-04   -0.18215E-04 24304   0.338E-03 0.449E-08
CGA:  38    -0.317436771145E+03   -0.37157E-04   -0.36811E-04 24304   0.317E-03 0.663E-05
CGA:  39    -0.317436786622E+03   -0.15477E-04   -0.15487E-04 24304   0.280E-03 0.414E-06
CGA:  40    -0.317436817765E+03   -0.31143E-04   -0.31451E-04 24304   0.782E-03-0.610E-05
CGA:  41    -0.317436862248E+03   -0.44483E-04   -0.44431E-04 24304   0.858E-03-0.108E-04
CGA:  42    -0.317436920123E+03   -0.57876E-04   -0.57956E-04 24304   0.650E-03-0.136E-04
CGA:  43    -0.317436956531E+03   -0.36407E-04   -0.36364E-04 24304   0.562E-03-0.730E-05
CGA:  44    -0.317436998032E+03   -0.41501E-04   -0.41519E-04 24304   0.720E-03-0.215E-05
CGA:  45    -0.317437081699E+03   -0.83667E-04   -0.83894E-04 24304   0.184E-02-0.497E-05
CGA:  46    -0.317437142180E+03   -0.60481E-04   -0.60328E-04 24304   0.562E-03 0.841E-05
CGA:  47    -0.317437178624E+03   -0.36444E-04   -0.36439E-04 24304   0.858E-03 0.826E-05
CGA:  48    -0.317437251453E+03   -0.72829E-04   -0.73478E-04 24304   0.155E-02-0.237E-04
CGA:  49    -0.317437326653E+03   -0.75201E-04   -0.74819E-04 24304   0.581E-03-0.101E-05
CGA:  50    -0.317437345956E+03   -0.19302E-04   -0.19573E-04 24304   0.439E-03-0.220E-05
CGA:  51    -0.317437394056E+03   -0.48100E-04   -0.47419E-04 24304   0.109E-02 0.133E-04
CGA:  52    -0.317437461736E+03   -0.67680E-04   -0.67331E-04 24304   0.670E-03-0.242E-04
CGA:  53    -0.317437480964E+03   -0.19229E-04   -0.19501E-04 24304   0.331E-03 0.134E-06
CGA:  54    -0.317437500310E+03   -0.19346E-04   -0.19396E-04 24304   0.307E-03 0.697E-05
CGA:  55    -0.317437521626E+03   -0.21315E-04   -0.21319E-04 24304   0.463E-03 0.186E-05
CGA:  56    -0.317437542285E+03   -0.20659E-04   -0.20752E-04 24304   0.403E-03 0.602E-05
CGA:  57    -0.317437562812E+03   -0.20527E-04   -0.20686E-04 24304   0.276E-03 0.692E-05
CGA:  58    -0.317437574477E+03   -0.11665E-04   -0.11650E-04 24304   0.185E-03 0.120E-06
CGA:  59    -0.317437584475E+03   -0.99985E-05   -0.99823E-05 24304   0.263E-03-0.223E-05
CGA:  60    -0.317437603937E+03   -0.19462E-04   -0.19501E-04 24304   0.337E-03-0.364E-05
CGA:  61    -0.317437615048E+03   -0.11111E-04   -0.11066E-04 24304   0.149E-03-0.215E-05
CGA:  62    -0.317437625775E+03   -0.10728E-04   -0.10701E-04 24304   0.272E-03 0.143E-05
SDA:  63    -0.317437641146E+03   -0.15371E-04   -0.15379E-04 24304   0.334E-03 0.252E-05
CGA:  64    -0.317437649619E+03   -0.84729E-05   -0.84807E-05 24304   0.821E-04-0.195E-06
   7 F= -.31743765E+03 E0= -.31741433E+03  d E =-.178272E+00  mag=    44.9936
       N       E                     dE             d eps       ncg     rms          ort
SDA:   1    -0.266469859173E+03    0.50968E+02    0.00000E+00 24304   0.401E+03 0.000E+00
CGA:   2    -0.276540220021E+03   -0.10070E+02   -0.11061E+02 24304   0.176E+03-0.115E+02
CGA:   3    -0.286960740690E+03   -0.10421E+02   -0.11044E+02 24304   0.502E+03-0.455E+02
CGA:   4    -0.300710126248E+03   -0.13749E+02   -0.12583E+02 24304   0.550E+03 0.167E+02
CGA:   5    -0.304209896229E+03   -0.34998E+01   -0.95813E+01 24304   0.358E+03-0.226E+03
CGA:   6    -0.306898486232E+03   -0.26886E+01   -0.29492E+01 24304   0.206E+03-0.248E+02
CGA:   7    -0.309155318061E+03   -0.22568E+01   -0.23541E+01 24304   0.114E+03-0.385E+02
CGA:   8    -0.310035034267E+03   -0.87972E+00   -0.10246E+01 24304   0.124E+03-0.155E+02
CGA:   9    -0.311084860994E+03   -0.10498E+01   -0.13356E+01 24304   0.141E+03-0.210E+02
CGA:  10    -0.312283924423E+03   -0.11991E+01   -0.16845E+01 24304   0.160E+03-0.257E+02
CGA:  11    -0.313625512870E+03   -0.13416E+01   -0.14677E+01 24304   0.112E+03-0.125E+02
CGA:  12    -0.314657283556E+03   -0.10318E+01   -0.91675E+00 24304   0.622E+02 0.952E+01
CGA:  13    -0.315175449370E+03   -0.51817E+00   -0.47089E+00 24304   0.294E+02 0.463E+01
CGA:  14    -0.315431577805E+03   -0.25613E+00   -0.25703E+00 24304   0.215E+02-0.318E+00
CGA:  15    -0.315631375783E+03   -0.19980E+00   -0.20537E+00 24304   0.236E+02-0.580E+00
CGA:  16    -0.315863347336E+03   -0.23197E+00   -0.25273E+00 24304   0.272E+02-0.155E+01
CGA:  17    -0.316095899965E+03   -0.23255E+00   -0.25092E+00 24304   0.263E+02-0.168E+01
CGA:  18    -0.316337552966E+03   -0.24165E+00   -0.26574E+00 24304   0.271E+02-0.196E+01
CGA:  19    -0.316589668093E+03   -0.25212E+00   -0.26376E+00 24304   0.267E+02-0.956E+00
CGA:  20    -0.316833168150E+03   -0.24350E+00   -0.26391E+00 24304   0.202E+02-0.157E+01
CGA:  21    -0.317010072692E+03   -0.17690E+00   -0.20344E+00 24304   0.140E+02-0.189E+01
CGA:  22    -0.317132220264E+03   -0.12215E+00   -0.13225E+00 24304   0.822E+01-0.710E+00
CGA:  23    -0.317209957708E+03   -0.77737E-01   -0.83134E-01 24304   0.447E+01-0.339E+00
CGA:  24    -0.317263877173E+03   -0.53919E-01   -0.55336E-01 24304   0.379E+01-0.582E-01
CGA:  25    -0.317326277798E+03   -0.62401E-01   -0.63450E-01 24304   0.428E+01-0.872E-02
CGA:  26    -0.317408224171E+03   -0.81946E-01   -0.84194E-01 24304   0.507E+01 0.560E-01
CGA:  27    -0.317502640460E+03   -0.94416E-01   -0.96011E-01 24304   0.352E+01 0.272E-01
CGA:  28    -0.317568176813E+03   -0.65536E-01   -0.65984E-01 24304   0.286E+01 0.886E-02
CGA:  29    -0.317622003750E+03   -0.53827E-01   -0.54521E-01 24304   0.148E+01 0.202E-01
CGA:  30    -0.317645740160E+03   -0.23736E-01   -0.24268E-01 24304   0.785E+00-0.106E-02
CGA:  31    -0.317665919577E+03   -0.20179E-01   -0.20159E-01 24304   0.718E+00 0.109E-01
SDA:  32    -0.317684856928E+03   -0.18937E-01   -0.18931E-01 24304   0.804E+00 0.298E-02
CGA:  33    -0.317702048407E+03   -0.17191E-01   -0.17231E-01 24304   0.240E+00 0.411E-02
CGA:  34    -0.317715461176E+03   -0.13413E-01   -0.13425E-01 24304   0.351E+00-0.428E-03
CGA:  35    -0.317731079595E+03   -0.15618E-01   -0.15456E-01 24304   0.287E+00 0.811E-02
CGA:  36    -0.317747006851E+03   -0.15927E-01   -0.15850E-01 24304   0.173E+00 0.283E-02
CGA:  37    -0.317751897119E+03   -0.48903E-02   -0.48909E-02 24304   0.514E-01 0.654E-03
CGA:  38    -0.317754496733E+03   -0.25996E-02   -0.25905E-02 24304   0.447E-01 0.379E-03
CGA:  39    -0.317757070202E+03   -0.25735E-02   -0.25669E-02 24304   0.417E-01 0.225E-03
CGA:  40    -0.317759713034E+03   -0.26428E-02   -0.26424E-02 24304   0.250E-01 0.233E-05
CGA:  41    -0.317760960314E+03   -0.12473E-02   -0.12433E-02 24304   0.114E-01 0.194E-03
CGA:  42    -0.317761911432E+03   -0.95112E-03   -0.94256E-03 24304   0.170E-01 0.178E-03
CGA:  43    -0.317762955198E+03   -0.10438E-02   -0.10395E-02 24304   0.143E-01 0.169E-03
CGA:  44    -0.317763463294E+03   -0.50810E-03   -0.50848E-03 24304   0.652E-02 0.137E-03
CGA:  45    -0.317763967192E+03   -0.50390E-03   -0.50251E-03 24304   0.108E-01 0.341E-04
CGA:  46    -0.317764803442E+03   -0.83625E-03   -0.83367E-03 24304   0.455E-02 0.651E-04
CGA:  47    -0.317764950488E+03   -0.14705E-03   -0.14717E-03 24304   0.222E-02 0.725E-05
CGA:  48    -0.317765104305E+03   -0.15382E-03   -0.15255E-03 24304   0.403E-02 0.424E-04
CGA:  49    -0.317765373001E+03   -0.26870E-03   -0.26759E-03 24304   0.372E-02 0.476E-04
CGA:  50    -0.317765523481E+03   -0.15048E-03   -0.15059E-03 24304   0.140E-02 0.321E-04
CGA:  51    -0.317765624849E+03   -0.10137E-03   -0.10085E-03 24304   0.145E-02 0.166E-04
CGA:  52    -0.317765740119E+03   -0.11527E-03   -0.11486E-03 24304   0.238E-02 0.112E-04
CGA:  53    -0.317765865153E+03   -0.12503E-03   -0.12496E-03 24304   0.179E-02 0.864E-05
CGA:  54    -0.317765950784E+03   -0.85631E-04   -0.85626E-04 24304   0.102E-02 0.147E-05
CGA:  55    -0.317766009740E+03   -0.58955E-04   -0.58959E-04 24304   0.108E-02-0.142E-05
CGA:  56    -0.317766116214E+03   -0.10647E-03   -0.10653E-03 24304   0.234E-02-0.166E-05
CGA:  57    -0.317766199107E+03   -0.82893E-04   -0.82837E-04 24304   0.758E-03-0.363E-05
CGA:  58    -0.317766238863E+03   -0.39756E-04   -0.39764E-04 24304   0.538E-03-0.267E-05
CGA:  59    -0.317766283055E+03   -0.44192E-04   -0.44276E-04 24304   0.100E-02-0.295E-05
CGA:  60    -0.317766366775E+03   -0.83720E-04   -0.83590E-04 24304   0.549E-03 0.280E-05
CGA:  61    -0.317766385063E+03   -0.18288E-04   -0.18262E-04 24304   0.241E-03-0.151E-05
CGA:  62    -0.317766406747E+03   -0.21684E-04   -0.21800E-04 24304   0.627E-03-0.345E-05
SDA:  63    -0.317766443207E+03   -0.36459E-04   -0.36479E-04 24304   0.441E-03-0.443E-05
CGA:  64    -0.317766456883E+03   -0.13677E-04   -0.13699E-04 24304   0.175E-03 0.285E-06
CGA:  65    -0.317766463449E+03   -0.65656E-05   -0.65830E-05 24304   0.123E-03 0.688E-06
CGA:  66    -0.317766475672E+03   -0.12223E-04   -0.12056E-04 24304   0.234E-03 0.321E-05
CGA:  67    -0.317766489117E+03   -0.13445E-04   -0.13440E-04 24304   0.148E-03 0.255E-05
CGA:  68    -0.317766498820E+03   -0.97033E-05   -0.97040E-05 24304   0.135E-03-0.409E-06
   8 F= -.31776650E+03 E0= -.31774507E+03  d E =-.328849E+00  mag=    44.9850
       N       E                     dE             d eps       ncg     rms          ort
SDA:   1    -0.308443243336E+03    0.93232E+01    0.00000E+00 24304   0.276E+02 0.000E+00
CGA:   2    -0.310874731896E+03   -0.24315E+01   -0.24769E+01 24304   0.693E+02-0.123E+01
CGA:   3    -0.315315325100E+03   -0.44406E+01   -0.46042E+01 24304   0.508E+02-0.108E+02
CGA:   4    -0.316420824249E+03   -0.11055E+01   -0.10810E+01 24304   0.100E+02 0.873E+00
CGA:   5    -0.316892253744E+03   -0.47143E+00   -0.47183E+00 24304   0.103E+02 0.227E-01
CGA:   6    -0.317305862194E+03   -0.41361E+00   -0.40847E+00 24304   0.775E+01-0.312E-01
CGA:   7    -0.317551198158E+03   -0.24534E+00   -0.25006E+00 24304   0.440E+01-0.401E-01
CGA:   8    -0.317671881273E+03   -0.12068E+00   -0.12047E+00 24304   0.113E+01 0.622E-03
CGA:   9    -0.317734768995E+03   -0.62888E-01   -0.62895E-01 24304   0.147E+01-0.977E-03
CGA:  10    -0.317784879278E+03   -0.50110E-01   -0.51331E-01 24304   0.812E+00 0.210E-02
CGA:  11    -0.317811046104E+03   -0.26167E-01   -0.26200E-01 24304   0.361E+00 0.154E-03
CGA:  12    -0.317825825780E+03   -0.14780E-01   -0.14833E-01 24304   0.223E+00 0.162E-02
CGA:  13    -0.317833208142E+03   -0.73824E-02   -0.74208E-02 24304   0.115E+00 0.284E-04
CGA:  14    -0.317841605121E+03   -0.83970E-02   -0.83949E-02 24304   0.173E+00 0.502E-04
CGA:  15    -0.317848170856E+03   -0.65657E-02   -0.66139E-02 24304   0.532E-01 0.741E-03
CGA:  16    -0.317849511159E+03   -0.13403E-02   -0.13409E-02 24304   0.192E-01-0.247E-04
CGA:  17    -0.317851341404E+03   -0.18302E-02   -0.18224E-02 24304   0.394E-01 0.161E-03
CGA:  18    -0.317852953193E+03   -0.16118E-02   -0.16165E-02 24304   0.178E-01 0.144E-03
CGA:  19    -0.317853720430E+03   -0.76724E-03   -0.76747E-03 24304   0.810E-02 0.175E-04
CGA:  20    -0.317854038001E+03   -0.31757E-03   -0.31848E-03 24304   0.710E-02 0.226E-04
CGA:  21    -0.317854581952E+03   -0.54395E-03   -0.54331E-03 24304   0.976E-02 0.198E-04
CGA:  22    -0.317854969600E+03   -0.38765E-03   -0.38771E-03 24304   0.332E-02 0.885E-05
CGA:  23    -0.317855105979E+03   -0.13638E-03   -0.13664E-03 24304   0.245E-02 0.152E-04
CGA:  24    -0.317855272666E+03   -0.16669E-03   -0.16621E-03 24304   0.219E-02 0.248E-04
CGA:  25    -0.317855388518E+03   -0.11585E-03   -0.11580E-03 24304   0.245E-02 0.256E-04
CGA:  26    -0.317855497085E+03   -0.10857E-03   -0.10869E-03 24304   0.106E-02 0.177E-04
CGA:  27    -0.317855536093E+03   -0.39008E-04   -0.39073E-04 24304   0.545E-03 0.371E-05
CGA:  28    -0.317855575989E+03   -0.39896E-04   -0.39843E-04 24304   0.888E-03 0.131E-05
CGA:  29    -0.317855630082E+03   -0.54092E-04   -0.54089E-04 24304   0.582E-03-0.517E-09
CGA:  30    -0.317855653284E+03   -0.23202E-04   -0.23224E-04 24304   0.282E-03 0.944E-06
CGA:  31    -0.317855667298E+03   -0.14014E-04   -0.14016E-04 24304   0.342E-03 0.110E-05
SDA:  32    -0.317855699721E+03   -0.32423E-04   -0.32165E-04 24304   0.576E-03 0.553E-05
CGA:  33    -0.317855711619E+03   -0.11898E-04   -0.11890E-04 24304   0.126E-03-0.761E-06
CGA:  34    -0.317855720563E+03   -0.89446E-05   -0.89699E-05 24304   0.204E-03-0.173E-05
CGA:  35    -0.317855740494E+03   -0.19930E-04   -0.20136E-04 24304   0.354E-03-0.467E-05
CGA:  36    -0.317855756943E+03   -0.16449E-04   -0.16431E-04 24304   0.222E-03-0.299E-05
CGA:  37    -0.317855765164E+03   -0.82211E-05   -0.82023E-05 24304   0.101E-03-0.134E-05
   9 F= -.31785577E+03 E0= -.31783417E+03  d E =-.892663E-01  mag=    45.0068
       N       E                     dE             d eps       ncg     rms          ort
SDA:   1    -0.309143623004E+03    0.87121E+01    0.00000E+00 24304   0.227E+02 0.000E+00
CGA:   2    -0.312510050586E+03   -0.33664E+01   -0.32595E+01 24304   0.789E+02 0.142E+01
CGA:   3    -0.315883441846E+03   -0.33734E+01   -0.30136E+01 24304   0.182E+02 0.498E+01
CGA:   4    -0.316664313357E+03   -0.78087E+00   -0.78462E+00 24304   0.106E+02 0.285E-01
CGA:   5    -0.317238379878E+03   -0.57407E+00   -0.57248E+00 24304   0.936E+01-0.182E+00
CGA:   6    -0.317574059695E+03   -0.33568E+00   -0.33573E+00 24304   0.410E+01-0.166E-02
CGA:   7    -0.317749232340E+03   -0.17517E+00   -0.17637E+00 24304   0.192E+01 0.196E-01
CGA:   8    -0.317822399819E+03   -0.73167E-01   -0.73502E-01 24304   0.876E+00 0.139E-02
CGA:   9    -0.317869171388E+03   -0.46772E-01   -0.46776E-01 24304   0.682E+00 0.160E-02
CGA:  10    -0.317903094735E+03   -0.33923E-01   -0.33909E-01 24304   0.458E+00-0.907E-03
CGA:  11    -0.317915139474E+03   -0.12045E-01   -0.12184E-01 24304   0.135E+00-0.250E-02
CGA:  12    -0.317922032386E+03   -0.68929E-02   -0.68935E-02 24304   0.103E+00 0.172E-03
CGA:  13    -0.317930039810E+03   -0.80074E-02   -0.79969E-02 24304   0.949E-01 0.344E-03
CGA:  14    -0.317933434673E+03   -0.33949E-02   -0.34066E-02 24304   0.268E-01-0.529E-05
CGA:  15    -0.317934693713E+03   -0.12590E-02   -0.12593E-02 24304   0.263E-01 0.177E-04
CGA:  16    -0.317936008573E+03   -0.13149E-02   -0.13157E-02 24304   0.212E-01 0.141E-03
CGA:  17    -0.317937009369E+03   -0.10008E-02   -0.10012E-02 24304   0.172E-01 0.452E-04
CGA:  18    -0.317937966665E+03   -0.95730E-03   -0.95691E-03 24304   0.751E-02 0.833E-04
CGA:  19    -0.317938311873E+03   -0.34521E-03   -0.34550E-03 24304   0.657E-02 0.245E-04
CGA:  20    -0.317938682091E+03   -0.37022E-03   -0.37011E-03 24304   0.641E-02 0.236E-04
CGA:  21    -0.317939137225E+03   -0.45513E-03   -0.45375E-03 24304   0.397E-02 0.639E-04
CGA:  22    -0.317939293787E+03   -0.15656E-03   -0.15681E-03 24304   0.180E-02 0.123E-04
CGA:  23    -0.317939404815E+03   -0.11103E-03   -0.11084E-03 24304   0.260E-02 0.193E-04
CGA:  24    -0.317939534028E+03   -0.12921E-03   -0.12930E-03 24304   0.150E-02 0.213E-04
CGA:  25    -0.317939594931E+03   -0.60903E-04   -0.61042E-04 24304   0.955E-03 0.937E-05
CGA:  26    -0.317939647387E+03   -0.52455E-04   -0.52441E-04 24304   0.409E-03 0.566E-05
CGA:  27    -0.317939678400E+03   -0.31013E-04   -0.30972E-04 24304   0.491E-03 0.144E-05
CGA:  28    -0.317939712957E+03   -0.34557E-04   -0.34521E-04 24304   0.489E-03 0.165E-05
CGA:  29    -0.317939729689E+03   -0.16733E-04   -0.16751E-04 24304   0.179E-03 0.441E-06
CGA:  30    -0.317939744161E+03   -0.14472E-04   -0.14432E-04 24304   0.314E-03 0.115E-05
CGA:  31    -0.317939763471E+03   -0.19309E-04   -0.19298E-04 24304   0.317E-03 0.167E-05
SDA:  32    -0.317939780086E+03   -0.16615E-04   -0.16623E-04 24304   0.234E-03 0.213E-05
CGA:  33    -0.317939785603E+03   -0.55170E-05   -0.55047E-05 24304   0.920E-04-0.610E-06
  10 F= -.31793979E+03 E0= -.31791856E+03  d E =-.840204E-01  mag=    45.0200
       N       E                     dE             d eps       ncg     rms          ort
SDA:   1    -0.290885168832E+03    0.27055E+02    0.00000E+00 24304   0.855E+02 0.000E+00
CGA:   2    -0.297109590369E+03   -0.62244E+01   -0.63266E+01 24304   0.182E+03-0.417E+01
CGA:   3    -0.309510350941E+03   -0.12401E+02   -0.13221E+02 24304   0.169E+03-0.392E+02
CGA:   4    -0.312670000646E+03   -0.31596E+01   -0.26761E+01 24304   0.536E+02 0.185E+02
[...]
CGA:  14    -0.318335867567E+03   -0.10236E-03   -0.10241E-03 24304   0.127E-02-0.205E-05
CGA:  15    -0.318335944724E+03   -0.77158E-04   -0.77139E-04 24304   0.135E-02 0.313E-05
CGA:  16    -0.318336088934E+03   -0.14421E-03   -0.14374E-03 24304   0.641E-03 0.893E-05
CGA:  17    -0.318336114291E+03   -0.25357E-04   -0.25374E-04 24304   0.394E-03 0.670E-06
CGA:  18    -0.318336145806E+03   -0.31514E-04   -0.31530E-04 24304   0.611E-03-0.904E-06
CGA:  19    -0.318336176738E+03   -0.30933E-04   -0.30926E-04 24304   0.447E-03-0.108E-05
CGA:  20    -0.318336196295E+03   -0.19557E-04   -0.19564E-04 24304   0.156E-03 0.138E-06
CGA:  21    -0.318336205287E+03   -0.89916E-05   -0.89905E-05 24304   0.152E-03 0.151E-05
CGA:  22    -0.318336215837E+03   -0.10550E-04   -0.10517E-04 24304   0.188E-03 0.274E-05
CGA:  23    -0.318336225112E+03   -0.92750E-05   -0.92929E-05 24304   0.537E-04 0.181E-05
  46 F= -.31833623E+03 E0= -.31831610E+03  d E =-.197056E-02  mag=    45.4475
       N       E                     dE             d eps       ncg     rms          ort
SDA:   1    -0.318083208173E+03    0.25301E+00    0.00000E+00 24304   0.124E+01 0.000E+00
CGA:   2    -0.318123547645E+03   -0.40339E-01   -0.39590E-01 24304   0.939E+00 0.605E-02
CGA:   3    -0.318250271050E+03   -0.12672E+00   -0.12643E+00 24304   0.113E+01 0.394E-02
CGA:   4    -0.318295725894E+03   -0.45455E-01   -0.45138E-01 24304   0.324E+00 0.556E-03
CGA:   5    -0.318308419927E+03   -0.12694E-01   -0.12686E-01 24304   0.260E+00-0.469E-05
CGA:   6    -0.318323642242E+03   -0.15222E-01   -0.15223E-01 24304   0.159E+00-0.271E-03
CGA:   7    -0.318330776952E+03   -0.71347E-02   -0.71391E-02 24304   0.389E-01 0.796E-04
CGA:   8    -0.318333144191E+03   -0.23672E-02   -0.23676E-02 24304   0.285E-01-0.526E-04
CGA:   9    -0.318334844640E+03   -0.17004E-02   -0.17005E-02 24304   0.203E-01-0.819E-05
CGA:  10    -0.318335665512E+03   -0.82087E-03   -0.82083E-03 24304   0.691E-02-0.554E-05
CGA:  11    -0.318335922068E+03   -0.25656E-03   -0.25662E-03 24304   0.322E-02-0.103E-05
CGA:  12    -0.318336175125E+03   -0.25306E-03   -0.25299E-03 24304   0.439E-02 0.283E-05
CGA:  13    -0.318336384931E+03   -0.20981E-03   -0.20986E-03 24304   0.172E-02 0.392E-05
CGA:  14    -0.318336438263E+03   -0.53332E-04   -0.53348E-04 24304   0.640E-03-0.157E-06
CGA:  15    -0.318336480259E+03   -0.41996E-04   -0.41994E-04 24304   0.756E-03 0.264E-07
CGA:  16    -0.318336544344E+03   -0.64085E-04   -0.64053E-04 24304   0.364E-03 0.103E-05
CGA:  17    -0.318336561368E+03   -0.17024E-04   -0.17039E-04 24304   0.172E-03 0.118E-05
CGA:  18    -0.318336576934E+03   -0.15566E-04   -0.15522E-04 24304   0.240E-03 0.127E-05
CGA:  19    -0.318336593736E+03   -0.16802E-04   -0.16794E-04 24304   0.190E-03 0.716E-06
CGA:  20    -0.318336600266E+03   -0.65294E-05   -0.65346E-05 24304   0.821E-04 0.143E-06
  47 F= -.31833660E+03 E0= -.31831646E+03  d E =-.375154E-03  mag=    45.4535
       N       E                     dE             d eps       ncg     rms          ort
SDA:   1    -0.318155589793E+03    0.18100E+00    0.00000E+00 24304   0.579E+00 0.000E+00
CGA:   2    -0.318199411952E+03   -0.43822E-01   -0.43857E-01 24304   0.103E+01-0.140E-02
CGA:   3    -0.318284611347E+03   -0.85199E-01   -0.85182E-01 24304   0.991E+00 0.496E-03
CGA:   4    -0.318310904782E+03   -0.26293E-01   -0.26170E-01 24304   0.177E+00 0.286E-02
CGA:   5    -0.318320973555E+03   -0.10069E-01   -0.10068E-01 24304   0.164E+00-0.170E-03
CGA:   6    -0.318332080314E+03   -0.11107E-01   -0.11106E-01 24304   0.652E-01 0.338E-04
CGA:   7    -0.318334551206E+03   -0.24709E-02   -0.24721E-02 24304   0.233E-01 0.959E-05
CGA:   8    -0.318335897163E+03   -0.13460E-02   -0.13460E-02 24304   0.257E-01-0.537E-05
CGA:   9    -0.318337218828E+03   -0.13217E-02   -0.13217E-02 24304   0.793E-02 0.115E-04
CGA:  10    -0.318337498680E+03   -0.27985E-03   -0.27989E-03 24304   0.273E-02 0.110E-05
CGA:  11    -0.318337711507E+03   -0.21283E-03   -0.21283E-03 24304   0.488E-02 0.808E-07
CGA:  12    -0.318337926019E+03   -0.21451E-03   -0.21452E-03 24304   0.166E-02 0.114E-06
CGA:  13    -0.318337987348E+03   -0.61328E-04   -0.61360E-04 24304   0.514E-03 0.669E-06
CGA:  14    -0.318338023423E+03   -0.36076E-04   -0.36061E-04 24304   0.630E-03 0.838E-06
CGA:  15    -0.318338075708E+03   -0.52284E-04   -0.52276E-04 24304   0.397E-03 0.203E-06
CGA:  16    -0.318338089754E+03   -0.14046E-04   -0.14047E-04 24304   0.160E-03-0.320E-09
CGA:  17    -0.318338098553E+03   -0.87996E-05   -0.88001E-05 24304   0.192E-03 0.266E-06
CGA:  18    -0.318338114224E+03   -0.15671E-04   -0.15653E-04 24304   0.194E-03 0.629E-06
CGA:  19    -0.318338123414E+03   -0.91893E-05   -0.91891E-05 24304   0.871E-04-0.708E-07
  48 F= -.31833812E+03 E0= -.31831793E+03  d E =-.152315E-02  mag=    45.4522
       N       E                     dE             d eps       ncg     rms          ort
SDA:   1    -0.316882333053E+03    0.14558E+01    0.00000E+00 24304   0.381E+01 0.000E+00
CGA:   2    -0.317459322290E+03   -0.57699E+00   -0.59649E+00 24304   0.127E+02-0.239E+00
CGA:   3    -0.318008253927E+03   -0.54893E+00   -0.54911E+00 24304   0.398E+01 0.935E-02
CGA:   4    -0.318124947331E+03   -0.11669E+00   -0.11782E+00 24304   0.149E+01-0.160E-01
CGA:   5    -0.318229611262E+03   -0.10466E+00   -0.10469E+00 24304   0.132E+01-0.167E-02
CGA:   6    -0.318293292425E+03   -0.63681E-01   -0.63602E-01 24304   0.528E+00-0.191E-02
CGA:   7    -0.318312139617E+03   -0.18847E-01   -0.18826E-01 24304   0.213E+00 0.231E-03
CGA:   8    -0.318324162725E+03   -0.12023E-01   -0.12024E-01 24304   0.180E+00 0.269E-03
CGA:   9    -0.318332884428E+03   -0.87217E-02   -0.87234E-02 24304   0.889E-01 0.116E-03
CGA:  10    -0.318336822308E+03   -0.39379E-02   -0.39354E-02 24304   0.303E-01-0.161E-04
CGA:  11    -0.318338038693E+03   -0.12164E-02   -0.12163E-02 24304   0.248E-01 0.282E-05
CGA:  12    -0.318340085305E+03   -0.20466E-02   -0.20468E-02 24304   0.226E-01-0.880E-05
CGA:  13    -0.318340928411E+03   -0.84311E-03   -0.84332E-03 24304   0.427E-02-0.315E-05
CGA:  14    -0.318341166617E+03   -0.23821E-03   -0.23821E-03 24304   0.535E-02 0.178E-05
CGA:  15    -0.318341520520E+03   -0.35390E-03   -0.35382E-03 24304   0.534E-02 0.690E-05
CGA:  16    -0.318341755175E+03   -0.23465E-03   -0.23476E-03 24304   0.168E-02 0.468E-05
CGA:  17    -0.318341839573E+03   -0.84398E-04   -0.84412E-04 24304   0.130E-02 0.226E-05
CGA:  18    -0.318341929280E+03   -0.89707E-04   -0.89645E-04 24304   0.178E-02 0.405E-05
CGA:  19    -0.318342034762E+03   -0.10548E-03   -0.10547E-03 24304   0.120E-02 0.438E-05
CGA:  20    -0.318342084224E+03   -0.49462E-04   -0.49502E-04 24304   0.390E-03 0.218E-05
CGA:  21    -0.318342108765E+03   -0.24541E-04   -0.24526E-04 24304   0.554E-03 0.191E-05
CGA:  22    -0.318342145605E+03   -0.36840E-04   -0.36802E-04 24304   0.559E-03 0.356E-05
CGA:  23    -0.318342170586E+03   -0.24981E-04   -0.25015E-04 24304   0.153E-03 0.271E-05
CGA:  24    -0.318342178693E+03   -0.81076E-05   -0.81089E-05 24304   0.124E-03 0.331E-06
  49 F= -.31834218E+03 E0= -.31832185E+03  d E =-.405528E-02  mag=    45.4435
       N       E                     dE             d eps       ncg     rms          ort
SDA:   1    -0.317442056577E+03    0.90011E+00    0.00000E+00 24304   0.272E+01 0.000E+00
CGA:   2    -0.317633015203E+03   -0.19096E+00   -0.19082E+00 24304   0.677E+01 0.737E-02
CGA:   3    -0.318091255286E+03   -0.45824E+00   -0.45831E+00 24304   0.329E+01-0.543E-02
CGA:   4    -0.318210597952E+03   -0.11934E+00   -0.11978E+00 24304   0.751E+00 0.541E-02
CGA:   5    -0.318277396986E+03   -0.66799E-01   -0.66619E-01 24304   0.885E+00 0.485E-02
CGA:   6    -0.318315519821E+03   -0.38123E-01   -0.38116E-01 24304   0.314E+00-0.155E-03
CGA:   7    -0.318327035819E+03   -0.11516E-01   -0.11476E-01 24304   0.127E+00 0.189E-03
CGA:   8    -0.318334813772E+03   -0.77780E-02   -0.77775E-02 24304   0.110E+00 0.812E-04
CGA:   9    -0.318340780180E+03   -0.59664E-02   -0.59669E-02 24304   0.307E-01 0.126E-03
CGA:  10    -0.318342129634E+03   -0.13495E-02   -0.13500E-02 24304   0.151E-01 0.200E-04
CGA:  11    -0.318343339171E+03   -0.12095E-02   -0.12090E-02 24304   0.216E-01 0.169E-04
CGA:  12    -0.318344202845E+03   -0.86367E-03   -0.86384E-03 24304   0.941E-02-0.355E-05
CGA:  13    -0.318344532544E+03   -0.32970E-03   -0.32981E-03 24304   0.250E-02-0.179E-05
CGA:  14    -0.318344723091E+03   -0.19055E-03   -0.19050E-03 24304   0.414E-02 0.113E-05
CGA:  15    -0.318344980521E+03   -0.25743E-03   -0.25742E-03 24304   0.222E-02 0.141E-05
CGA:  16    -0.318345067757E+03   -0.87235E-04   -0.87260E-04 24304   0.106E-02 0.776E-06
CGA:  17    -0.318345125449E+03   -0.57692E-04   -0.57695E-04 24304   0.880E-03 0.227E-05
CGA:  18    -0.318345228588E+03   -0.10314E-03   -0.10279E-03 24304   0.108E-02 0.539E-05
CGA:  19    -0.318345277588E+03   -0.49000E-04   -0.49027E-04 24304   0.313E-03 0.158E-05
CGA:  20    -0.318345294631E+03   -0.17043E-04   -0.17046E-04 24304   0.444E-03 0.483E-06
CGA:  21    -0.318345326229E+03   -0.31598E-04   -0.31569E-04 24304   0.447E-03 0.194E-05
CGA:  22    -0.318345348061E+03   -0.21832E-04   -0.21842E-04 24304   0.133E-03 0.864E-06
CGA:  23    -0.318345353260E+03   -0.51988E-05   -0.51990E-05 24304   0.104E-03-0.170E-06
  50 F= -.31834535E+03 E0= -.31832488E+03  d E =-.317457E-02  mag=    45.4409
       N       E                     dE             d eps       ncg     rms          ort
SDA:   1    -0.318174536831E+03    0.17081E+00    0.00000E+00 24304   0.808E+00 0.000E+00
CGA:   2    -0.318203393798E+03   -0.28857E-01   -0.28649E-01 24304   0.675E+00 0.766E-03
CGA:   3    -0.318276179518E+03   -0.72786E-01   -0.72824E-01 24304   0.939E+00-0.722E-03
CGA:   4    -0.318318212434E+03   -0.42033E-01   -0.42026E-01 24304   0.214E+00 0.121E-03
CGA:   5    -0.318328300796E+03   -0.10088E-01   -0.10095E-01 24304   0.111E+00 0.146E-03
CGA:   6    -0.318335673294E+03   -0.73725E-02   -0.73727E-02 24304   0.116E+00-0.121E-04
CGA:   7    -0.318340492457E+03   -0.48192E-02   -0.48187E-02 24304   0.544E-01-0.736E-05
CGA:   8    -0.318342252108E+03   -0.17597E-02   -0.17595E-02 24304   0.122E-01-0.404E-06
CGA:   9    -0.318343149981E+03   -0.89787E-03   -0.89765E-03 24304   0.130E-01 0.108E-04
CGA:  10    -0.318343856524E+03   -0.70654E-03   -0.70655E-03 24304   0.568E-02 0.223E-05
CGA:  11    -0.318344056388E+03   -0.19986E-03   -0.19987E-03 24304   0.211E-02-0.686E-06
CGA:  12    -0.318344168137E+03   -0.11175E-03   -0.11175E-03 24304   0.200E-02 0.394E-06
CGA:  13    -0.318344320800E+03   -0.15266E-03   -0.15262E-03 24304   0.148E-02 0.172E-05
CGA:  14    -0.318344381933E+03   -0.61133E-04   -0.61131E-04 24304   0.462E-03-0.150E-06
CGA:  15    -0.318344399130E+03   -0.17198E-04   -0.17200E-04 24304   0.336E-03 0.339E-07
CGA:  16    -0.318344430603E+03   -0.31473E-04   -0.31451E-04 24304   0.586E-03 0.466E-06
CGA:  17    -0.318344458693E+03   -0.28090E-04   -0.28098E-04 24304   0.130E-03 0.655E-06
CGA:  18    -0.318344466540E+03   -0.78471E-05   -0.78468E-05 24304   0.118E-03-0.419E-10
CGA:  19    -0.318344478185E+03   -0.11645E-04   -0.11608E-04 24304   0.186E-03 0.791E-06
CGA:  20    -0.318344485765E+03   -0.75799E-05   -0.75909E-05 24304   0.105E-03 0.475E-06
  51 F= -.31834449E+03 E0= -.31832407E+03  d E =0.867495E-03  mag=    45.4444
       N       E                     dE             d eps       ncg     rms          ort
SDA:   1    -0.317754145275E+03    0.59033E+00    0.00000E+00 24304   0.163E+01 0.000E+00
CGA:   2    -0.317924707407E+03   -0.17056E+00   -0.16845E+00 24304   0.458E+01 0.461E-01
CGA:   3    -0.318196240729E+03   -0.27153E+00   -0.27129E+00 24304   0.210E+01-0.606E-01
CGA:   4    -0.318259448222E+03   -0.63207E-01   -0.63655E-01 24304   0.516E+00-0.513E-02
CGA:   5    -0.318303265834E+03   -0.43818E-01   -0.43822E-01 24304   0.815E+00-0.128E-03
CGA:   6    -0.318328125353E+03   -0.24860E-01   -0.24933E-01 24304   0.131E+00-0.116E-02
CGA:   7    -0.318335502520E+03   -0.73772E-02   -0.73767E-02 24304   0.917E-01-0.128E-03
CGA:   8    -0.318341734277E+03   -0.62318E-02   -0.62295E-02 24304   0.666E-01 0.165E-03
CGA:   9    -0.318344163296E+03   -0.24290E-02   -0.24325E-02 24304   0.191E-01 0.120E-04
CGA:  10    -0.318344981477E+03   -0.81818E-03   -0.81836E-03 24304   0.112E-01 0.954E-05
CGA:  11    -0.318345952600E+03   -0.97112E-03   -0.97104E-03 24304   0.127E-01 0.244E-05
CGA:  12    -0.318346439463E+03   -0.48686E-03   -0.48689E-03 24304   0.332E-02-0.143E-05
CGA:  13    -0.318346573433E+03   -0.13397E-03   -0.13398E-03 24304   0.227E-02 0.402E-07
CGA:  14    -0.318346709507E+03   -0.13607E-03   -0.13607E-03 24304   0.239E-02 0.591E-06
CGA:  15    -0.318346857732E+03   -0.14822E-03   -0.14822E-03 24304   0.124E-02 0.666E-06
CGA:  16    -0.318346904788E+03   -0.47056E-04   -0.47052E-04 24304   0.525E-03-0.500E-06
CGA:  17    -0.318346937851E+03   -0.33063E-04   -0.33057E-04 24304   0.675E-03 0.772E-06
CGA:  18    -0.318346994477E+03   -0.56626E-04   -0.56544E-04 24304   0.564E-03 0.284E-05
CGA:  19    -0.318347019292E+03   -0.24815E-04   -0.24834E-04 24304   0.195E-03 0.148E-05
CGA:  20    -0.318347028970E+03   -0.96788E-05   -0.96811E-05 24304   0.218E-03 0.259E-06
CGA:  21    -0.318347049023E+03   -0.20052E-04   -0.20024E-04 24304   0.288E-03 0.770E-06
CGA:  22    -0.318347058760E+03   -0.97370E-05   -0.97491E-05 24304   0.677E-04 0.430E-06
  52 F= -.31834706E+03 E0= -.31832659E+03  d E =-.257299E-02  mag=    45.4392
       N       E                     dE             d eps       ncg     rms          ort
SDA:   1    -0.316308356202E+03    0.20387E+01    0.00000E+00 24304   0.658E+01 0.000E+00
CGA:   2    -0.316700798818E+03   -0.39244E+00   -0.39105E+00 24304   0.116E+02 0.284E+00
CGA:   3    -0.317800923464E+03   -0.11001E+01   -0.11022E+01 24304   0.761E+01-0.523E-01
CGA:   4    -0.318060110173E+03   -0.25919E+00   -0.26581E+00 24304   0.167E+01-0.220E-01
CGA:   5    -0.318205069872E+03   -0.14496E+00   -0.14533E+00 24304   0.236E+01-0.107E-01
CGA:   6    -0.318281645721E+03   -0.76576E-01   -0.76690E-01 24304   0.687E+00-0.142E-02
CGA:   7    -0.318308249305E+03   -0.26604E-01   -0.26511E-01 24304   0.251E+00 0.129E-03
CGA:   8    -0.318325764857E+03   -0.17516E-01   -0.17519E-01 24304   0.336E+00-0.109E-03
CGA:   9    -0.318338785065E+03   -0.13020E-01   -0.13049E-01 24304   0.747E-01 0.132E-03
CGA:  10    -0.318341720064E+03   -0.29350E-02   -0.29319E-02 24304   0.341E-01 0.129E-04
CGA:  11    -0.318345010129E+03   -0.32901E-02   -0.32877E-02 24304   0.395E-01 0.519E-04
CGA:  12    -0.318346843818E+03   -0.18337E-02   -0.18336E-02 24304   0.157E-01-0.787E-05
CGA:  13    -0.318347374308E+03   -0.53049E-03   -0.53109E-03 24304   0.569E-02-0.783E-05
CGA:  14    -0.318347879625E+03   -0.50532E-03   -0.50510E-03 24304   0.845E-02 0.522E-05
CGA:  15    -0.318348393846E+03   -0.51422E-03   -0.51418E-03 24304   0.309E-02 0.748E-05
CGA:  16    -0.318348509082E+03   -0.11524E-03   -0.11528E-03 24304   0.178E-02 0.184E-05
CGA:  17    -0.318348640138E+03   -0.13106E-03   -0.13096E-03 24304   0.271E-02 0.489E-05
CGA:  18    -0.318348806611E+03   -0.16647E-03   -0.16644E-03 24304   0.186E-02 0.677E-05
CGA:  19    -0.318348878323E+03   -0.71712E-04   -0.71785E-04 24304   0.706E-03 0.264E-05
CGA:  20    -0.318348914323E+03   -0.36000E-04   -0.36015E-04 24304   0.704E-03 0.212E-05
CGA:  21    -0.318348972896E+03   -0.58573E-04   -0.58436E-04 24304   0.756E-03 0.484E-05
CGA:  22    -0.318349014307E+03   -0.41411E-04   -0.41425E-04 24304   0.225E-03 0.348E-05
CGA:  23    -0.318349023566E+03   -0.92593E-05   -0.92755E-05 24304   0.169E-03 0.750E-06
CGA:  24    -0.318349040054E+03   -0.16487E-04   -0.16427E-04 24304   0.271E-03 0.129E-05
CGA:  25    -0.318349052599E+03   -0.12546E-04   -0.12552E-04 24304   0.763E-04 0.294E-06
CGA:  26    -0.318349055853E+03   -0.32534E-05   -0.32503E-05 24304   0.599E-04-0.392E-06
  53 F= -.31834906E+03 E0= -.31832849E+03  d E =-.199709E-02  mag=    45.4229
       N       E                     dE             d eps       ncg     rms          ort
SDA:   1    -0.318209145468E+03    0.13991E+00    0.00000E+00 24304   0.109E+01 0.000E+00
CGA:   2    -0.318233726185E+03   -0.24581E-01   -0.24609E-01 24304   0.429E+00-0.982E-03
CGA:   3    -0.318299089607E+03   -0.65363E-01   -0.65482E-01 24304   0.643E+00-0.142E-02
CGA:   4    -0.318324299226E+03   -0.25210E-01   -0.25315E-01 24304   0.178E+00-0.187E-03
CGA:   5    -0.318335257235E+03   -0.10958E-01   -0.10957E-01 24304   0.137E+00 0.261E-03
CGA:   6    -0.318344516535E+03   -0.92593E-02   -0.92608E-02 24304   0.710E-01-0.140E-03
CGA:   7    -0.318347004334E+03   -0.24878E-02   -0.24863E-02 24304   0.238E-01 0.955E-05
CGA:   8    -0.318348192823E+03   -0.11885E-02   -0.11887E-02 24304   0.228E-01 0.120E-04
CGA:   9    -0.318349517897E+03   -0.13251E-02   -0.13251E-02 24304   0.961E-02 0.121E-04
CGA:  10    -0.318349896316E+03   -0.37842E-03   -0.37850E-03 24304   0.346E-02 0.215E-05
CGA:  11    -0.318350028734E+03   -0.13242E-03   -0.13239E-03 24304   0.264E-02 0.595E-06
CGA:  12    -0.318350251394E+03   -0.22266E-03   -0.22268E-03 24304   0.211E-02-0.657E-06
CGA:  13    -0.318350340524E+03   -0.89130E-04   -0.89170E-04 24304   0.511E-03 0.141E-05
CGA:  14    -0.318350374920E+03   -0.34396E-04   -0.34392E-04 24304   0.588E-03 0.332E-06
CGA:  15    -0.318350414665E+03   -0.39745E-04   -0.39745E-04 24304   0.658E-03-0.200E-06
CGA:  16    -0.318350440161E+03   -0.25496E-04   -0.25486E-04 24304   0.240E-03-0.586E-06
CGA:  17    -0.318350450746E+03   -0.10585E-04   -0.10583E-04 24304   0.134E-03-0.227E-06
CGA:  18    -0.318350462784E+03   -0.12038E-04   -0.12033E-04 24304   0.257E-03 0.826E-07
CGA:  19    -0.318350476492E+03   -0.13708E-04   -0.13709E-04 24304   0.136E-03 0.167E-06
CGA:  20    -0.318350481517E+03   -0.50245E-05   -0.50265E-05 24304   0.508E-04 0.139E-07
  54 F= -.31835048E+03 E0= -.31832986E+03  d E =-.142566E-02  mag=    45.4195
       N       E                     dE             d eps       ncg     rms          ort
SDA:   1    -0.318226997878E+03    0.12348E+00    0.00000E+00 24304   0.513E+00 0.000E+00
CGA:   2    -0.318250036247E+03   -0.23038E-01   -0.23039E-01 24304   0.534E+00 0.645E-04
CGA:   3    -0.318303374020E+03   -0.53338E-01   -0.53282E-01 24304   0.823E+00 0.120E-02
CGA:   4    -0.318330862199E+03   -0.27488E-01   -0.27445E-01 24304   0.156E+00 0.686E-03
CGA:   5    -0.318338257307E+03   -0.73951E-02   -0.73949E-02 24304   0.121E+00 0.106E-04
CGA:   6    -0.318345392126E+03   -0.71348E-02   -0.71347E-02 24304   0.922E-01 0.413E-04
CGA:   7    -0.318348523516E+03   -0.31314E-02   -0.31304E-02 24304   0.247E-01 0.153E-05
CGA:   8    -0.318349630229E+03   -0.11067E-02   -0.11057E-02 24304   0.133E-01-0.156E-04
CGA:   9    -0.318350682466E+03   -0.10522E-02   -0.10520E-02 24304   0.101E-01 0.104E-04
CGA:  10    -0.318351142234E+03   -0.45977E-03   -0.45997E-03 24304   0.255E-02 0.110E-04
CGA:  11    -0.318351256667E+03   -0.11443E-03   -0.11444E-03 24304   0.224E-02 0.316E-06
CGA:  12    -0.318351374914E+03   -0.11825E-03   -0.11824E-03 24304   0.203E-02-0.805E-06
CGA:  13    -0.318351491534E+03   -0.11662E-03   -0.11662E-03 24304   0.609E-03-0.644E-06
CGA:  14    -0.318351519790E+03   -0.28256E-04   -0.28269E-04 24304   0.302E-03 0.114E-05
CGA:  15    -0.318351542397E+03   -0.22608E-04   -0.22596E-04 24304   0.473E-03 0.532E-06
CGA:  16    -0.318351567776E+03   -0.25378E-04   -0.25378E-04 24304   0.307E-03-0.211E-06
CGA:  17    -0.318351579322E+03   -0.11546E-04   -0.11544E-04 24304   0.797E-04-0.175E-06
CGA:  18    -0.318351586016E+03   -0.66946E-05   -0.66888E-05 24304   0.184E-03 0.141E-06
CGA:  19    -0.318351597592E+03   -0.11576E-04   -0.11576E-04 24304   0.124E-03-0.198E-06
CGA:  20    -0.318351602343E+03   -0.47511E-05   -0.47478E-05 24304   0.465E-04-0.236E-06
  55 F= -.31835160E+03 E0= -.31833095E+03  d E =-.112083E-02  mag=    45.4172
