       N       E                     dE             d eps       ncg     rms          ort
DAV:   1     0.734475183911E+04    0.73448E+04   -0.35053E+05  9568   0.175E+03
DAV:   2     0.483117832821E+03   -0.68616E+04   -0.64364E+04  9568   0.512E+02
DAV:   3    -0.317917073647E+03   -0.80103E+03   -0.77683E+03  9568   0.195E+02
DAV:   4    -0.351019533002E+03   -0.33102E+02   -0.32680E+02  9568   0.383E+01
DAV:   5    -0.353238072506E+03   -0.22185E+01   -0.21906E+01  9568   0.756E+00
SDA:   6    -0.175032306087E+03    0.17821E+03   -0.21906E+01  9568   0.142E+04 0.000E+00
CGA:   7    -0.274442416936E+03   -0.99410E+02   -0.12756E+03  9568   0.335E+03 0.767E+02
CGA:   8    -0.282093812026E+03   -0.76514E+01   -0.31890E+01  9568   0.240E+03 0.387E+03
CGA:   9    -0.287485926894E+03   -0.53921E+01   -0.32386E+01  9568   0.223E+03 0.141E+03
CGA:  10    -0.292036436488E+03   -0.45505E+01   -0.77426E+01  9568   0.342E+03-0.123E+03
CGA:  11    -0.291480887874E+03    0.55555E+00   -0.16139E+02  9568   0.500E+03-0.477E+02
CGA:  12    -0.290827486733E+03    0.65340E+00   -0.82331E+01  9568   0.137E+04-0.362E+03
CGA:  13    -0.291728912359E+03   -0.90143E+00   -0.63493E+02  9568   0.506E+03-0.213E+03
CGA:  14    -0.280195171770E+03    0.11534E+02   -0.14098E+02  9568   0.122E+04-0.313E+03
CGA:  15    -0.300280487057E+03   -0.20085E+02   -0.26277E+02  9568   0.128E+03 0.621E+02
CGA:  16    -0.297746410695E+03    0.25341E+01   -0.40986E+01  9568   0.528E+03-0.399E+02
CGA:  17    -0.281314967185E+03    0.16431E+02   -0.83058E+01  9568   0.136E+04-0.190E+03
CGA:  18    -0.278524179639E+03    0.27908E+01   -0.29473E+02  9568   0.491E+03-0.391E+03
CGA:  19    -0.284526386129E+03   -0.60022E+01   -0.31569E+01  9568   0.368E+03 0.322E+03
CGA:  20    -0.291229339184E+03   -0.67030E+01   -0.36020E+01  9568   0.253E+03 0.321E+03
CGA:  21    -0.294914346744E+03   -0.36850E+01   -0.19410E+01  9568   0.188E+03 0.228E+03
CGA:  22    -0.297865510278E+03   -0.29512E+01   -0.15792E+01  9568   0.131E+03 0.163E+03
CGA:  23    -0.300648188249E+03   -0.27827E+01   -0.15649E+01  9568   0.731E+02 0.100E+03
CGA:  24    -0.303357165900E+03   -0.27090E+01   -0.18177E+01  9568   0.313E+02 0.317E+02
CGA:  25    -0.305765803428E+03   -0.24086E+01   -0.21185E+01  9568   0.522E+02 0.333E+01
CGA:  26    -0.307104537692E+03   -0.13387E+01   -0.13903E+01  9568   0.340E+02-0.236E+01
CGA:  27    -0.307585153772E+03   -0.48062E+00   -0.10039E+01  9568   0.571E+02-0.124E+02
CGA:  28    -0.308549464423E+03   -0.96431E+00   -0.48486E+00  9568   0.258E+02 0.117E+02
CGA:  29    -0.307843979405E+03    0.70549E+00   -0.77194E+00  9568   0.709E+02-0.383E+02
CGA:  30    -0.308874931312E+03   -0.10310E+01   -0.10956E+01  9568   0.253E+02-0.128E+02
CGA:  31    -0.309440435563E+03   -0.56550E+00   -0.66885E+00  9568   0.146E+02-0.306E+01
CGA:  32    -0.309799698360E+03   -0.35926E+00   -0.24728E+00  9568   0.837E+01 0.511E+01
CGA:  33    -0.310021908121E+03   -0.22221E+00   -0.19861E+00  9568   0.502E+01 0.149E+01
CGA:  34    -0.310211467556E+03   -0.18956E+00   -0.14409E+00  9568   0.466E+01 0.186E+01
CGA:  35    -0.310331911588E+03   -0.12044E+00   -0.77016E-01  9568   0.294E+01 0.344E+01
CGA:  36    -0.310403756596E+03   -0.71845E-01   -0.72255E-01  9568   0.209E+01-0.216E-01
CGA:  37    -0.310449550582E+03   -0.45794E-01   -0.46063E-01  9568   0.340E+01-0.111E-01
CGA:  38    -0.310479249508E+03   -0.29699E-01   -0.15358E-01  9568   0.306E+01 0.315E+01
CGA:  39    -0.310517739845E+03   -0.38490E-01   -0.40638E-01  9568   0.193E+01-0.148E+00
CGA:  40    -0.310566274525E+03   -0.48535E-01   -0.45983E-01  9568   0.183E+01 0.609E-01
CGA:  41    -0.310638501964E+03   -0.72227E-01   -0.18029E+00  9568   0.657E+01-0.325E+01
CGA:  42    -0.310729661679E+03   -0.91160E-01   -0.82306E-01  9568   0.223E+01 0.528E+00
CGA:  43    -0.310782143431E+03   -0.52482E-01   -0.53427E-01  9568   0.293E+01-0.307E-01
CGA:  44    -0.310871267727E+03   -0.89124E-01   -0.93083E-01  9568   0.235E+01 0.256E-01
CGA:  45    -0.310958454642E+03   -0.87187E-01   -0.69539E-01  9568   0.113E+01 0.531E+00
CGA:  46    -0.310987870943E+03   -0.29416E-01   -0.25852E-01  9568   0.651E+00 0.157E+00
CGA:  47    -0.311017069108E+03   -0.29198E-01   -0.29595E-01  9568   0.125E+01 0.153E-01
CGA:  48    -0.311030420667E+03   -0.13352E-01   -0.80204E-02  9568   0.847E+00 0.837E+00
CGA:  49    -0.311048542033E+03   -0.18121E-01   -0.17181E-01  9568   0.522E+00 0.267E-01
CGA:  50    -0.311058629584E+03   -0.10088E-01   -0.11532E-01  9568   0.489E+00-0.320E-01
CGA:  51    -0.311081112575E+03   -0.22483E-01   -0.22201E-01  9568   0.866E+00 0.317E-01
CGA:  52    -0.311111412049E+03   -0.30299E-01   -0.25261E-01  9568   0.554E+00 0.120E+00
CGA:  53    -0.311121064549E+03   -0.96525E-02   -0.68447E-02  9568   0.255E+00 0.232E+00
CGA:  54    -0.311132006667E+03   -0.10942E-01   -0.10809E-01  9568   0.584E+00-0.211E-02
CGA:  55    -0.311139028701E+03   -0.70220E-02   -0.59720E-02  9568   0.434E+00 0.970E-01
CGA:  56    -0.311145254530E+03   -0.62258E-02   -0.61653E-02  9568   0.598E+00-0.354E-02
CGA:  57    -0.311153327483E+03   -0.80730E-02   -0.52434E-02  9568   0.773E+00 0.310E+00
CGA:  58    -0.311161927504E+03   -0.86000E-02   -0.90379E-02  9568   0.284E+00-0.332E-01
CGA:  59    -0.311170479030E+03   -0.85515E-02   -0.87089E-02  9568   0.846E-01 0.215E-01
CGA:  60    -0.311175550741E+03   -0.50717E-02   -0.47737E-02  9568   0.119E+00 0.124E-01
CGA:  61    -0.311182367017E+03   -0.68163E-02   -0.67447E-02  9568   0.322E+00 0.291E-02
CGA:  62    -0.311191561047E+03   -0.91940E-02   -0.87670E-02  9568   0.233E+00 0.633E-02
CGA:  63    -0.311196991022E+03   -0.54300E-02   -0.48369E-02  9568   0.892E-01 0.132E-01
CGA:  64    -0.311199602359E+03   -0.26113E-02   -0.26165E-02  9568   0.138E+00-0.196E-02
CGA:  65    -0.311203890755E+03   -0.42884E-02   -0.43314E-02  9568   0.131E+00 0.537E-02
CGA:  66    -0.311207953937E+03   -0.40632E-02   -0.40676E-02  9568   0.123E+00-0.120E-02
CGA:  67    -0.311212149528E+03   -0.41956E-02   -0.41985E-02  9568   0.828E-01-0.637E-02
CGA:  68    -0.311213735748E+03   -0.15862E-02   -0.16189E-02  9568   0.569E-01-0.191E-02
CGA:  69    -0.311215496146E+03   -0.17604E-02   -0.17644E-02  9568   0.328E-01-0.595E-03
CGA:  70    -0.311216421372E+03   -0.92523E-03   -0.93173E-03  9568   0.239E-01-0.699E-03
CGA:  71    -0.311217440024E+03   -0.10187E-02   -0.99837E-03  9568   0.311E-01 0.102E-02
CGA:  72    -0.311218397528E+03   -0.95750E-03   -0.95550E-03  9568   0.288E-01-0.466E-03
CGA:  73    -0.311219259005E+03   -0.86148E-03   -0.86522E-03  9568   0.170E-01 0.337E-03
CGA:  74    -0.311220100862E+03   -0.84186E-03   -0.83589E-03  9568   0.215E-01 0.247E-03
CGA:  75    -0.311221259714E+03   -0.11589E-02   -0.11312E-02  9568   0.205E-01 0.126E-02
CGA:  76    -0.311221770270E+03   -0.51056E-03   -0.50657E-03  9568   0.161E-01-0.433E-04
CGA:  77    -0.311222587185E+03   -0.81691E-03   -0.81062E-03  9568   0.197E-01 0.298E-03
CGA:  78    -0.311223386712E+03   -0.79953E-03   -0.79819E-03  9568   0.151E-01 0.148E-03
CGA:  79    -0.311224134358E+03   -0.74765E-03   -0.73555E-03  9568   0.193E-01 0.704E-03
CGA:  80    -0.311224574159E+03   -0.43980E-03   -0.43201E-03  9568   0.985E-02 0.620E-04
CGA:  81    -0.311225286717E+03   -0.71256E-03   -0.70688E-03  9568   0.153E-01 0.143E-03
CGA:  82    -0.311225800549E+03   -0.51383E-03   -0.51098E-03  9568   0.161E-01-0.268E-03
CGA:  83    -0.311226339610E+03   -0.53906E-03   -0.53888E-03  9568   0.173E-01-0.333E-04
CGA:  84    -0.311227400551E+03   -0.10609E-02   -0.10706E-02  9568   0.146E-01-0.414E-03
CGA:  85    -0.311227920925E+03   -0.52037E-03   -0.51996E-03  9568   0.133E-01-0.114E-03
CGA:  86    -0.311228467085E+03   -0.54616E-03   -0.54457E-03  9568   0.193E-01 0.283E-03
CGA:  87    -0.311228965374E+03   -0.49829E-03   -0.49293E-03  9568   0.108E-01-0.388E-04
SDA:  88    -0.311229920622E+03   -0.95525E-03   -0.94901E-03  9568   0.144E-01 0.753E-04
CGA:  89    -0.311230209902E+03   -0.28928E-03   -0.29090E-03  9568   0.100E-01-0.281E-04
CGA:  90    -0.311230580925E+03   -0.37102E-03   -0.37073E-03  9568   0.123E-01-0.624E-04
CGA:  91    -0.311231370831E+03   -0.78991E-03   -0.78368E-03  9568   0.215E-01 0.212E-03
CGA:  92    -0.311232555367E+03   -0.11845E-02   -0.11676E-02  9568   0.248E-01 0.960E-03
CGA:  93    -0.311234132181E+03   -0.15768E-02   -0.17145E-02  9568   0.400E-01-0.501E-02
CGA:  94    -0.311234596598E+03   -0.46442E-03   -0.48283E-03  9568   0.160E-01-0.731E-03
CGA:  95    -0.311235034052E+03   -0.43745E-03   -0.44442E-03  9568   0.181E-01 0.579E-04
CGA:  96    -0.311235337716E+03   -0.30366E-03   -0.30059E-03  9568   0.736E-02 0.133E-03
CGA:  97    -0.311235542309E+03   -0.20459E-03   -0.20366E-03  9568   0.751E-02-0.444E-05
CGA:  98    -0.311235704173E+03   -0.16186E-03   -0.16162E-03  9568   0.601E-02 0.138E-04
CGA:  99    -0.311235838920E+03   -0.13475E-03   -0.13517E-03  9568   0.314E-02 0.137E-05
CGA: 100    -0.311235920078E+03   -0.81158E-04   -0.81328E-04  9568   0.498E-02 0.345E-06
CGA: 101    -0.311236114026E+03   -0.19395E-03   -0.19380E-03  9568   0.538E-02 0.355E-04
CGA: 102    -0.311236270816E+03   -0.15679E-03   -0.15577E-03  9568   0.875E-02-0.254E-04
CGA: 103    -0.311236493237E+03   -0.22242E-03   -0.22161E-03  9568   0.525E-02 0.870E-07
CGA: 104    -0.311236607929E+03   -0.11469E-03   -0.11527E-03  9568   0.611E-02-0.583E-05
CGA: 105    -0.311236762779E+03   -0.15485E-03   -0.15432E-03  9568   0.326E-02-0.127E-05
CGA: 106    -0.311236828990E+03   -0.66212E-04   -0.66252E-04  9568   0.331E-02 0.444E-05
CGA: 107    -0.311236931040E+03   -0.10205E-03   -0.10216E-03  9568   0.384E-02 0.174E-04
CGA: 108    -0.311237030014E+03   -0.98974E-04   -0.98386E-04  9568   0.333E-02-0.132E-04
CGA: 109    -0.311237089101E+03   -0.59086E-04   -0.58668E-04  9568   0.219E-02 0.123E-04
CGA: 110    -0.311237169279E+03   -0.80178E-04   -0.80053E-04  9568   0.344E-02 0.177E-04
CGA: 111    -0.311237223379E+03   -0.54100E-04   -0.54545E-04  9568   0.122E-02-0.203E-04
CGA: 112    -0.311237262371E+03   -0.38992E-04   -0.38999E-04  9568   0.168E-02-0.995E-05
CGA: 113    -0.311237290059E+03   -0.27689E-04   -0.27657E-04  9568   0.752E-03 0.920E-06
CGA: 114    -0.311237317572E+03   -0.27513E-04   -0.27486E-04  9568   0.163E-02 0.192E-05
CGA: 115    -0.311237354611E+03   -0.37039E-04   -0.37115E-04  9568   0.105E-02-0.508E-05
CGA: 116    -0.311237380888E+03   -0.26277E-04   -0.26182E-04  9568   0.103E-02-0.843E-05
CGA: 117    -0.311237400171E+03   -0.19283E-04   -0.19232E-04  9568   0.666E-03-0.237E-06
CGA: 118    -0.311237417165E+03   -0.16993E-04   -0.17014E-04  9568   0.656E-03 0.159E-05
SDA: 119    -0.311237432344E+03   -0.15179E-04   -0.15188E-04  9568   0.759E-03-0.771E-06
CGA: 120    -0.311237445903E+03   -0.13559E-04   -0.13569E-04  9568   0.316E-03 0.111E-06
CGA: 121    -0.311237459769E+03   -0.13866E-04   -0.13894E-04  9568   0.515E-03-0.224E-05
CGA: 122    -0.311237478536E+03   -0.18767E-04   -0.18739E-04  9568   0.458E-03 0.255E-05
CGA: 123    -0.311237516019E+03   -0.37483E-04   -0.38076E-04  9568   0.456E-03-0.129E-04
CGA: 124    -0.311237534776E+03   -0.18757E-04   -0.18782E-04  9568   0.170E-03-0.304E-05
CGA: 125    -0.311237559965E+03   -0.25188E-04   -0.26004E-04  9568   0.364E-03-0.838E-05
CGA: 126    -0.311237567195E+03   -0.72307E-05   -0.72652E-05  9568   0.275E-03-0.498E-07
CGA: 127    -0.311237579128E+03   -0.11933E-04   -0.11924E-04  9568   0.889E-04 0.565E-06
CGA: 128    -0.311237585117E+03   -0.59894E-05   -0.59499E-05  9568   0.162E-03 0.106E-05
   1 F= -.31123759E+03 E0= -.31121648E+03  d E =-.311238E+03  mag=    25.7913
       N       E                     dE             d eps       ncg     rms          ort
SDA:   1    -0.311239646162E+03   -0.20670E-02    0.00000E+00  9568   0.898E+00 0.000E+00
CGA:   2    -0.311248808001E+03   -0.91618E-02   -0.10177E-01  9568   0.531E-01-0.722E-01
CGA:   3    -0.311249648527E+03   -0.84053E-03   -0.84636E-03  9568   0.107E-01-0.215E-03
CGA:   4    -0.311249968218E+03   -0.31969E-03   -0.31996E-03  9568   0.516E-02 0.115E-04
CGA:   5    -0.311250195239E+03   -0.22702E-03   -0.22721E-03  9568   0.777E-02-0.184E-04
CGA:   6    -0.311250440073E+03   -0.24483E-03   -0.24515E-03  9568   0.615E-02 0.213E-04
CGA:   7    -0.311250664390E+03   -0.22432E-03   -0.22430E-03  9568   0.235E-02-0.113E-04
CGA:   8    -0.311250742139E+03   -0.77749E-04   -0.77793E-04  9568   0.211E-02 0.572E-05
CGA:   9    -0.311250796882E+03   -0.54743E-04   -0.54639E-04  9568   0.881E-03-0.327E-05
CGA:  10    -0.311250823677E+03   -0.26795E-04   -0.26793E-04  9568   0.736E-03-0.637E-07
CGA:  11    -0.311250860882E+03   -0.37205E-04   -0.37242E-04  9568   0.495E-03-0.245E-05
CGA:  12    -0.311250873054E+03   -0.12171E-04   -0.12175E-04  9568   0.355E-03 0.732E-08
CGA:  13    -0.311250883474E+03   -0.10420E-04   -0.10402E-04  9568   0.915E-04-0.230E-05
CGA:  14    -0.311250886628E+03   -0.31536E-05   -0.31538E-05  9568   0.959E-04 0.215E-06
   2 F= -.31125089E+03 E0= -.31122951E+03  d E =-.133015E-01  mag=    25.7898
       N       E                     dE             d eps       ncg     rms          ort
SDA:   1    -0.310553589823E+03    0.69729E+00    0.00000E+00  9568   0.437E+01 0.000E+00
CGA:   2    -0.310666431291E+03   -0.11284E+00   -0.11083E+00  9568   0.646E+01-0.247E-01
CGA:   3    -0.311242235941E+03   -0.57580E+00   -0.56044E+00  9568   0.361E+01 0.312E+00
CGA:   4    -0.311342231988E+03   -0.99996E-01   -0.99672E-01  9568   0.195E+01-0.670E-02
CGA:   5    -0.311411387224E+03   -0.69155E-01   -0.68694E-01  9568   0.235E+01-0.889E-01
CGA:   6    -0.311466380949E+03   -0.54994E-01   -0.56032E-01  9568   0.180E+01 0.563E-03
CGA:   7    -0.311519227882E+03   -0.52847E-01   -0.52878E-01  9568   0.967E+00-0.434E-03
CGA:   8    -0.311543767925E+03   -0.24540E-01   -0.24291E-01  9568   0.868E+00-0.133E-02
CGA:   9    -0.311560752280E+03   -0.16984E-01   -0.17156E-01  9568   0.184E+00-0.353E-02
CGA:  10    -0.311568700604E+03   -0.79483E-02   -0.79848E-02  9568   0.332E+00-0.298E-02
CGA:  11    -0.311574765250E+03   -0.60646E-02   -0.60976E-02  9568   0.141E+00-0.875E-03
CGA:  12    -0.311580775745E+03   -0.60105E-02   -0.59845E-02  9568   0.145E+00 0.230E-02
CGA:  13    -0.311582717337E+03   -0.19416E-02   -0.19347E-02  9568   0.294E-01 0.391E-03
CGA:  14    -0.311583893589E+03   -0.11763E-02   -0.11751E-02  9568   0.407E-01 0.132E-03
CGA:  15    -0.311585183828E+03   -0.12902E-02   -0.12909E-02  9568   0.388E-01 0.119E-03
CGA:  16    -0.311586109147E+03   -0.92532E-03   -0.92913E-03  9568   0.283E-01 0.426E-04
CGA:  17    -0.311587009486E+03   -0.90034E-03   -0.90036E-03  9568   0.152E-01 0.935E-05
CGA:  18    -0.311587423764E+03   -0.41428E-03   -0.41430E-03  9568   0.127E-01 0.982E-05
CGA:  19    -0.311587665761E+03   -0.24200E-03   -0.24284E-03  9568   0.569E-02 0.671E-05
CGA:  20    -0.311588105076E+03   -0.43932E-03   -0.43726E-03  9568   0.110E-01 0.432E-04
CGA:  21    -0.311588306222E+03   -0.20115E-03   -0.20136E-03  9568   0.712E-02 0.668E-07
CGA:  22    -0.311588668335E+03   -0.36211E-03   -0.36165E-03  9568   0.341E-02 0.267E-04
CGA:  23    -0.311588741617E+03   -0.73282E-04   -0.73423E-04  9568   0.348E-02 0.643E-05
CGA:  24    -0.311588889948E+03   -0.14833E-03   -0.14828E-03  9568   0.321E-02 0.529E-05
CGA:  25    -0.311589023979E+03   -0.13403E-03   -0.13402E-03  9568   0.435E-02 0.156E-05
CGA:  26    -0.311589124052E+03   -0.10007E-03   -0.10021E-03  9568   0.301E-02 0.381E-05
CGA:  27    -0.311589217794E+03   -0.93742E-04   -0.93739E-04  9568   0.184E-02 0.663E-06
CGA:  28    -0.311589263332E+03   -0.45537E-04   -0.45529E-04  9568   0.972E-03-0.318E-06
CGA:  29    -0.311589297190E+03   -0.33858E-04   -0.33853E-04  9568   0.182E-02 0.373E-05
CGA:  30    -0.311589363972E+03   -0.66782E-04   -0.66760E-04  9568   0.790E-03 0.638E-05
CGA:  31    -0.311589398892E+03   -0.34920E-04   -0.34874E-04  9568   0.135E-02 0.408E-05
SDA:  32    -0.311589423193E+03   -0.24302E-04   -0.24382E-04  9568   0.316E-03 0.444E-05
CGA:  33    -0.311589434020E+03   -0.10827E-04   -0.10828E-04  9568   0.198E-03-0.129E-05
CGA:  34    -0.311589442269E+03   -0.82489E-05   -0.82421E-05  9568   0.447E-03 0.456E-06
CGA:  35    -0.311589462757E+03   -0.20488E-04   -0.20493E-04  9568   0.359E-03-0.700E-06
CGA:  36    -0.311589478472E+03   -0.15715E-04   -0.15701E-04  9568   0.135E-03 0.129E-05
CGA:  37    -0.311589482640E+03   -0.41676E-05   -0.41642E-05  9568   0.101E-03-0.971E-06
   3 F= -.31158948E+03 E0= -.31156793E+03  d E =-.338596E+00  mag=    25.7937
       N       E                     dE             d eps       ncg     rms          ort
SDA:   1    -0.306582239594E+03    0.50072E+01    0.00000E+00  9568   0.304E+02 0.000E+00
CGA:   2    -0.307337751245E+03   -0.75551E+00   -0.80721E+00  9568   0.279E+02 0.826E+00
CGA:   3    -0.309294054307E+03   -0.19563E+01   -0.20659E+01  9568   0.613E+02-0.467E+01
CGA:   4    -0.310557345638E+03   -0.12633E+01   -0.12845E+01  9568   0.179E+02 0.527E-01
CGA:   5    -0.310928749521E+03   -0.37140E+00   -0.30904E+00  9568   0.978E+01 0.224E+01
CGA:   6    -0.311068028317E+03   -0.13928E+00   -0.11385E+00  9568   0.683E+01 0.189E+01
CGA:   7    -0.311273293525E+03   -0.20527E+00   -0.20853E+00  9568   0.189E+02 0.430E-01
CGA:   8    -0.311559929535E+03   -0.28664E+00   -0.30489E+00  9568   0.155E+02-0.645E+00
CGA:   9    -0.311690429480E+03   -0.13050E+00   -0.12720E+00  9568   0.779E+01 0.162E+00
CGA:  10    -0.311783990898E+03   -0.93561E-01   -0.88398E-01  9568   0.663E+01 0.266E+00
CGA:  11    -0.311844300229E+03   -0.60309E-01   -0.61651E-01  9568   0.277E+01-0.181E+00
CGA:  12    -0.311868284999E+03   -0.23985E-01   -0.24690E-01  9568   0.223E+01-0.674E-01
CGA:  13    -0.311902316450E+03   -0.34031E-01   -0.34075E-01  9568   0.272E+01-0.571E-03
CGA:  14    -0.311927704552E+03   -0.25388E-01   -0.25970E-01  9568   0.163E+01-0.475E-01
CGA:  15    -0.311953155065E+03   -0.25451E-01   -0.26283E-01  9568   0.293E+01-0.125E-01
CGA:  16    -0.312010073621E+03   -0.56919E-01   -0.58042E-01  9568   0.209E+01 0.333E-01
CGA:  17    -0.312025694895E+03   -0.15621E-01   -0.14265E-01  9568   0.392E+00 0.168E+00
CGA:  18    -0.312030536899E+03   -0.48420E-02   -0.47319E-02  9568   0.430E+00 0.591E-02
CGA:  19    -0.312039395193E+03   -0.88583E-02   -0.87766E-02  9568   0.704E+00-0.511E-02
CGA:  20    -0.312045193280E+03   -0.57981E-02   -0.59117E-02  9568   0.344E+00-0.936E-02
CGA:  21    -0.312049038913E+03   -0.38456E-02   -0.41784E-02  9568   0.450E+00-0.116E-01
CGA:  22    -0.312062161962E+03   -0.13123E-01   -0.12664E-01  9568   0.686E+00 0.502E-01
CGA:  23    -0.312072099380E+03   -0.99374E-02   -0.93217E-02  9568   0.288E+00 0.220E-01
CGA:  24    -0.312075836576E+03   -0.37372E-02   -0.37456E-02  9568   0.150E+00-0.260E-03
CGA:  25    -0.312078036732E+03   -0.22002E-02   -0.22248E-02  9568   0.123E+00 0.498E-04
CGA:  26    -0.312079966000E+03   -0.19293E-02   -0.19372E-02  9568   0.747E-01 0.149E-03
CGA:  27    -0.312081235227E+03   -0.12692E-02   -0.12647E-02  9568   0.976E-01-0.234E-03
CGA:  28    -0.312083993808E+03   -0.27586E-02   -0.27854E-02  9568   0.169E+00-0.274E-02
CGA:  29    -0.312085965060E+03   -0.19713E-02   -0.20026E-02  9568   0.904E-01-0.819E-03
CGA:  30    -0.312087476355E+03   -0.15113E-02   -0.15284E-02  9568   0.995E-01 0.109E-02
CGA:  31    -0.312089026046E+03   -0.15497E-02   -0.15554E-02  9568   0.412E-01 0.187E-03
SDA:  32    -0.312089668145E+03   -0.64210E-03   -0.64109E-03  9568   0.416E-01-0.395E-04
CGA:  33    -0.312090318734E+03   -0.65059E-03   -0.65093E-03  9568   0.173E-01 0.218E-04
CGA:  34    -0.312090894766E+03   -0.57603E-03   -0.57728E-03  9568   0.147E-01-0.895E-04
CGA:  35    -0.312091763309E+03   -0.86854E-03   -0.86822E-03  9568   0.122E-01 0.109E-04
CGA:  36    -0.312092260369E+03   -0.49706E-03   -0.49613E-03  9568   0.131E-01 0.500E-04
CGA:  37    -0.312092756467E+03   -0.49610E-03   -0.49513E-03  9568   0.518E-02 0.583E-04
CGA:  38    -0.312093064342E+03   -0.30787E-03   -0.30909E-03  9568   0.424E-02-0.392E-04
CGA:  39    -0.312093148306E+03   -0.83964E-04   -0.84054E-04  9568   0.339E-02 0.568E-05
CGA:  40    -0.312093365342E+03   -0.21704E-03   -0.21617E-03  9568   0.247E-02 0.222E-04
CGA:  41    -0.312093724080E+03   -0.35874E-03   -0.22606E-05  9568   0.375E-02-0.493E-03
CGA:  42    -0.312093799943E+03   -0.75863E-04   -0.76176E-04  9568   0.294E-02 0.584E-06
CGA:  43    -0.312093949231E+03   -0.14929E-03   -0.14931E-03  9568   0.340E-02-0.894E-05
CGA:  44    -0.312094019815E+03   -0.70585E-04   -0.70972E-04  9568   0.183E-02-0.843E-05
CGA:  45    -0.312094106513E+03   -0.86698E-04   -0.86698E-04  9568   0.119E-02-0.751E-06
CGA:  46    -0.312094160949E+03   -0.54436E-04   -0.54442E-04  9568   0.112E-02 0.749E-06
CGA:  47    -0.312094203728E+03   -0.42779E-04   -0.42710E-04  9568   0.138E-02-0.360E-05
CGA:  48    -0.312094242860E+03   -0.39132E-04   -0.39228E-04  9568   0.716E-03-0.287E-06
CGA:  49    -0.312094265046E+03   -0.22186E-04   -0.22181E-04  9568   0.747E-03-0.100E-05
CGA:  50    -0.312094294342E+03   -0.29296E-04   -0.29294E-04  9568   0.124E-03-0.926E-06
CGA:  51    -0.312094301090E+03   -0.67473E-05   -0.67444E-05  9568   0.199E-03-0.161E-06
   4 F= -.31209430E+03 E0= -.31207243E+03  d E =-.504818E+00  mag=    25.8041
       N       E                     dE             d eps       ncg     rms          ort
SDA:   1    -0.302925935474E+03    0.91684E+01    0.00000E+00  9568   0.212E+03 0.000E+00
CGA:   2    -0.304149900785E+03   -0.12240E+01   -0.44279E+01  9568   0.124E+03-0.543E+02
CGA:   3    -0.306115465444E+03   -0.19656E+01   -0.22003E+01  9568   0.820E+02-0.838E+01
CGA:   4    -0.307209895485E+03   -0.10944E+01   -0.14442E+01  9568   0.897E+02-0.145E+02
CGA:   5    -0.308332811591E+03   -0.11229E+01   -0.11298E+01  9568   0.393E+02-0.334E+01
CGA:   6    -0.309835858061E+03   -0.15030E+01   -0.10206E+01  9568   0.135E+02 0.131E+01
CGA:   7    -0.310824006733E+03   -0.98815E+00   -0.93719E+00  9568   0.296E+02 0.170E+01
CGA:   8    -0.311437366901E+03   -0.61336E+00   -0.69412E+00  9568   0.256E+02-0.216E+01
CGA:   9    -0.311851686326E+03   -0.41432E+00   -0.35304E+00  9568   0.691E+01 0.276E+01
CGA:  10    -0.311962542651E+03   -0.11086E+00   -0.10113E+00  9568   0.365E+01 0.479E+00
CGA:  11    -0.312041624836E+03   -0.79082E-01   -0.82125E-01  9568   0.320E+01-0.517E-01
CGA:  12    -0.312164655241E+03   -0.12303E+00   -0.12320E+00  9568   0.385E+01-0.380E-01
CGA:  13    -0.312262449522E+03   -0.97794E-01   -0.95297E-01  9568   0.406E+01-0.103E-01
CGA:  14    -0.312323983101E+03   -0.61534E-01   -0.60441E-01  9568   0.662E+00 0.267E-01
CGA:  15    -0.312338027839E+03   -0.14045E-01   -0.13873E-01  9568   0.357E+00 0.181E-02
CGA:  16    -0.312346625917E+03   -0.85981E-02   -0.85122E-02  9568   0.450E+00-0.453E-03
CGA:  17    -0.312360336191E+03   -0.13710E-01   -0.13762E-01  9568   0.551E+00 0.670E-02
CGA:  18    -0.312381198275E+03   -0.20862E-01   -0.20730E-01  9568   0.381E+00 0.224E-01
CGA:  19    -0.312388158946E+03   -0.69607E-02   -0.68353E-02  9568   0.231E+00 0.343E-02
CGA:  20    -0.312392642026E+03   -0.44831E-02   -0.46989E-02  9568   0.860E-01-0.183E-02
CGA:  21    -0.312395434192E+03   -0.27922E-02   -0.27901E-02  9568   0.108E+00 0.264E-02
CGA:  22    -0.312399397562E+03   -0.39634E-02   -0.39911E-02  9568   0.180E+00-0.465E-02
CGA:  23    -0.312402956470E+03   -0.35589E-02   -0.35808E-02  9568   0.909E-01 0.711E-05
CGA:  24    -0.312405202539E+03   -0.22461E-02   -0.23145E-02  9568   0.757E-01 0.282E-02
CGA:  25    -0.312406555162E+03   -0.13526E-02   -0.13458E-02  9568   0.397E-01 0.166E-03
CGA:  26    -0.312407995470E+03   -0.14403E-02   -0.14410E-02  9568   0.325E-01-0.621E-04
CGA:  27    -0.312408805695E+03   -0.81023E-03   -0.81557E-03  9568   0.348E-01 0.251E-03
CGA:  28    -0.312409855054E+03   -0.10494E-02   -0.10492E-02  9568   0.328E-01-0.569E-04
CGA:  29    -0.312410754627E+03   -0.89957E-03   -0.89973E-03  9568   0.149E-01 0.274E-04
CGA:  30    -0.312411146972E+03   -0.39235E-03   -0.39265E-03  9568   0.149E-01 0.302E-04
CGA:  31    -0.312411472703E+03   -0.32573E-03   -0.32496E-03  9568   0.680E-02-0.702E-05
SDA:  32    -0.312411763198E+03   -0.29049E-03   -0.28995E-03  9568   0.841E-02 0.363E-04
CGA:  33    -0.312411878244E+03   -0.11505E-03   -0.11499E-03  9568   0.224E-02 0.442E-05
CGA:  34    -0.312411977820E+03   -0.99576E-04   -0.99678E-04  9568   0.420E-02-0.595E-05
CGA:  35    -0.312412153379E+03   -0.17556E-03   -0.17516E-03  9568   0.437E-02 0.301E-04
CGA:  36    -0.312412422716E+03   -0.26934E-03   -0.26742E-03  9568   0.301E-02 0.633E-04
CGA:  37    -0.312412559083E+03   -0.13637E-03   -0.13631E-03  9568   0.190E-02 0.474E-05
CGA:  38    -0.312412683414E+03   -0.12433E-03   -0.12449E-03  9568   0.922E-03-0.554E-05
CGA:  39    -0.312412834309E+03   -0.15090E-03   -0.58495E-07  9568   0.528E-02-0.256E-03
CGA:  40    -0.312412895046E+03   -0.60737E-04   -0.61084E-04  9568   0.148E-02-0.308E-04
CGA:  41    -0.312412926744E+03   -0.31698E-04   -0.31570E-04  9568   0.144E-02 0.238E-05
CGA:  42    -0.312412966494E+03   -0.39751E-04   -0.39827E-04  9568   0.871E-03 0.447E-06
CGA:  43    -0.312412984198E+03   -0.17704E-04   -0.17835E-04  9568   0.791E-03 0.439E-07
CGA:  44    -0.312413018808E+03   -0.34610E-04   -0.34667E-04  9568   0.101E-02 0.414E-05
CGA:  45    -0.312413035480E+03   -0.16672E-04   -0.16676E-04  9568   0.401E-03 0.469E-05
CGA:  46    -0.312413049860E+03   -0.14379E-04   -0.14408E-04  9568   0.653E-03 0.147E-05
CGA:  47    -0.312413065128E+03   -0.15268E-04   -0.15365E-04  9568   0.345E-03 0.116E-05
CGA:  48    -0.312413072921E+03   -0.77936E-05   -0.78194E-05  9568   0.272E-03 0.524E-06
   5 F= -.31241307E+03 E0= -.31239099E+03  d E =-.318772E+00  mag=    25.8087
       N       E                     dE             d eps       ncg     rms          ort
SDA:   1    -0.287778077618E+03    0.24635E+02    0.00000E+00  9568   0.929E+03 0.000E+00
CGA:   2    -0.292573438239E+03   -0.47954E+01   -0.21245E+02  9568   0.355E+03-0.148E+03
CGA:   3    -0.298141338971E+03   -0.55679E+01   -0.76013E+01  9568   0.234E+03-0.309E+02
CGA:   4    -0.298068123654E+03    0.73215E-01   -0.35879E+01  9568   0.446E+03-0.130E+03
CGA:   5    -0.299434549274E+03   -0.13664E+01   -0.73742E+01  9568   0.397E+03-0.307E+03
CGA:   6    -0.301586665491E+03   -0.21521E+01   -0.65514E+01  9568   0.197E+03-0.210E+03
CGA:   7    -0.304578348713E+03   -0.29917E+01   -0.21969E+01  9568   0.441E+02-0.572E+02
CGA:   8    -0.305531936178E+03   -0.95359E+00   -0.98010E+00  9568   0.754E+02 0.678E+00
CGA:   9    -0.306373324293E+03   -0.84139E+00   -0.96778E+00  9568   0.112E+03-0.109E+02
CGA:  10    -0.309211721104E+03   -0.28384E+01   -0.27650E+01  9568   0.105E+03-0.346E+01
CGA:  11    -0.311035432357E+03   -0.18237E+01   -0.16990E+01  9568   0.346E+02-0.776E+01
CGA:  12    -0.311679366116E+03   -0.64393E+00   -0.57366E+00  9568   0.547E+01 0.122E+01
CGA:  13    -0.311819962228E+03   -0.14060E+00   -0.12411E+00  9568   0.414E+01 0.165E+00
CGA:  14    -0.311985370211E+03   -0.16541E+00   -0.16432E+00  9568   0.118E+02 0.191E+00
CGA:  15    -0.312400408710E+03   -0.41504E+00   -0.41619E+00  9568   0.368E+01 0.348E+00
CGA:  16    -0.312473995610E+03   -0.73587E-01   -0.68613E-01  9568   0.131E+01 0.131E+00
CGA:  17    -0.312493075383E+03   -0.19080E-01   -0.18461E-01  9568   0.541E+00 0.299E-01
CGA:  18    -0.312526894427E+03   -0.33819E-01   -0.33069E-01  9568   0.141E+01 0.269E-01
CGA:  19    -0.312564354306E+03   -0.37460E-01   -0.37627E-01  9568   0.142E+01 0.248E-02
CGA:  20    -0.312592455240E+03   -0.28101E-01   -0.28691E-01  9568   0.665E+00-0.696E-02
CGA:  21    -0.312607047540E+03   -0.14592E-01   -0.14888E-01  9568   0.382E+00 0.441E-03
CGA:  22    -0.312612886583E+03   -0.58390E-02   -0.59407E-02  9568   0.200E+00-0.363E-02
CGA:  23    -0.312622313118E+03   -0.94265E-02   -0.94327E-02  9568   0.319E+00-0.297E-03
CGA:  24    -0.312630811635E+03   -0.84985E-02   -0.85209E-02  9568   0.328E+00 0.100E-02
CGA:  25    -0.312637551226E+03   -0.67396E-02   -0.67357E-02  9568   0.106E+00 0.313E-04
CGA:  26    -0.312640826980E+03   -0.32758E-02   -0.32726E-02  9568   0.101E+00-0.133E-02
CGA:  27    -0.312643894253E+03   -0.30673E-02   -0.30690E-02  9568   0.112E+00 0.732E-03
CGA:  28    -0.312646241263E+03   -0.23470E-02   -0.23642E-02  9568   0.443E-01-0.172E-04
CGA:  29    -0.312648319781E+03   -0.20785E-02   -0.20777E-02  9568   0.475E-01 0.570E-04
CGA:  30    -0.312649557498E+03   -0.12377E-02   -0.12401E-02  9568   0.447E-01 0.144E-03
CGA:  31    -0.312650661757E+03   -0.11043E-02   -0.11072E-02  9568   0.223E-01 0.107E-03
CGA:  32    -0.312651415534E+03   -0.75378E-03   -0.75439E-03  9568   0.145E-01-0.144E-03
CGA:  33    -0.312651868535E+03   -0.45300E-03   -0.45301E-03  9568   0.118E-01 0.696E-04
CGA:  34    -0.312652170573E+03   -0.30204E-03   -0.30233E-03  9568   0.121E-01 0.129E-04
CGA:  35    -0.312652647179E+03   -0.47661E-03   -0.47564E-03  9568   0.679E-02 0.885E-04
CGA:  36    -0.312652896360E+03   -0.24918E-03   -0.24890E-03  9568   0.559E-02 0.425E-04
SDA:  37    -0.312653033603E+03   -0.13724E-03   -0.13724E-03  9568   0.451E-02 0.240E-05
CGA:  38    -0.312653094183E+03   -0.60581E-04   -0.60722E-04  9568   0.157E-02-0.120E-05
CGA:  39    -0.312653181742E+03   -0.87559E-04   -0.87452E-04  9568   0.233E-02 0.349E-05
CGA:  40    -0.312653286587E+03   -0.10484E-03   -0.10466E-03  9568   0.185E-02 0.126E-04
CGA:  41    -0.312653374606E+03   -0.88019E-04   -0.88064E-04  9568   0.263E-02-0.280E-05
CGA:  42    -0.312653492756E+03   -0.11815E-03   -0.11803E-03  9568   0.162E-02 0.810E-05
CGA:  43    -0.312653554376E+03   -0.61620E-04   -0.61632E-04  9568   0.306E-02-0.321E-05
CGA:  44    -0.312653645859E+03   -0.91483E-04   -0.91494E-04  9568   0.821E-03-0.789E-06
CGA:  45    -0.312653715855E+03   -0.69996E-04   -0.70141E-04  9568   0.580E-03-0.312E-05
CGA:  46    -0.312653757060E+03   -0.41205E-04   -0.40951E-04  9568   0.859E-03 0.689E-05
CGA:  47    -0.312653772497E+03   -0.15436E-04   -0.15467E-04  9568   0.427E-03 0.105E-05
CGA:  48    -0.312653799916E+03   -0.27419E-04   -0.27251E-04  9568   0.521E-03 0.602E-05
CGA:  49    -0.312653818273E+03   -0.18357E-04   -0.18365E-04  9568   0.168E-03 0.211E-05
CGA:  50    -0.312653823583E+03   -0.53105E-05   -0.53153E-05  9568   0.182E-03 0.337E-06
   6 F= -.31265382E+03 E0= -.31263185E+03  d E =-.240751E+00  mag=    25.8102
       N       E                     dE             d eps       ncg     rms          ort
SDA:   1    -0.300366522929E+03    0.12287E+02    0.00000E+00  9568   0.906E+02 0.000E+00
CGA:   2    -0.301979918339E+03   -0.16134E+01   -0.17666E+01  9568   0.686E+02-0.580E+01
CGA:   3    -0.304049188004E+03   -0.20693E+01   -0.20249E+01  9568   0.137E+03-0.320E+01
CGA:   4    -0.306264288205E+03   -0.22151E+01   -0.22352E+01  9568   0.154E+03-0.921E+01
CGA:   5    -0.308900778582E+03   -0.26365E+01   -0.29734E+01  9568   0.401E+02-0.404E+01
CGA:   6    -0.309919879706E+03   -0.10191E+01   -0.10227E+01  9568   0.438E+02-0.326E+00
CGA:   7    -0.310298973916E+03   -0.37909E+00   -0.25910E+00  9568   0.239E+02 0.176E+02
CGA:   8    -0.310603552127E+03   -0.30458E+00   -0.30630E+00  9568   0.235E+02-0.918E+00
CGA:   9    -0.310840846055E+03   -0.23729E+00   -0.22575E+00  9568   0.456E+02 0.480E+00
CGA:  10    -0.311328336407E+03   -0.48749E+00   -0.59914E+00  9568   0.787E+02-0.581E+01
CGA:  11    -0.311717516919E+03   -0.38918E+00   -0.39183E+00  9568   0.350E+02-0.470E+00
CGA:  12    -0.311887313626E+03   -0.16980E+00   -0.22996E+00  9568   0.240E+02-0.906E+01
CGA:  13    -0.312017239434E+03   -0.12993E+00   -0.11418E+00  9568   0.221E+02 0.175E+01
CGA:  14    -0.312147372718E+03   -0.13013E+00   -0.12552E+00  9568   0.115E+02 0.210E+00
CGA:  15    -0.312207878070E+03   -0.60505E-01   -0.57805E-01  9568   0.681E+01 0.439E+00
CGA:  16    -0.312248108680E+03   -0.40231E-01   -0.37521E-01  9568   0.588E+01 0.422E+00
CGA:  17    -0.312291675339E+03   -0.43567E-01   -0.45368E-01  9568   0.648E+01-0.206E+00
CGA:  18    -0.312323502541E+03   -0.31827E-01   -0.27399E-01  9568   0.475E+01 0.879E+00
CGA:  19    -0.312351146501E+03   -0.27644E-01   -0.26083E-01  9568   0.465E+01 0.263E+00
CGA:  20    -0.312386380086E+03   -0.35234E-01   -0.36232E-01  9568   0.907E+01-0.110E+00
CGA:  21    -0.312441195839E+03   -0.54816E-01   -0.54225E-01  9568   0.130E+02 0.354E-01
CGA:  22    -0.312498862405E+03   -0.57667E-01   -0.79420E-01  9568   0.115E+02-0.269E+01
CGA:  23    -0.312538084074E+03   -0.39222E-01   -0.48088E-01  9568   0.587E+01-0.123E+01
CGA:  24    -0.312562745738E+03   -0.24662E-01   -0.26576E-01  9568   0.336E+01-0.319E+00
CGA:  25    -0.312585282287E+03   -0.22537E-01   -0.24023E-01  9568   0.281E+01-0.124E+00
CGA:  26    -0.312601674253E+03   -0.16392E-01   -0.14258E-01  9568   0.158E+01 0.317E+00
CGA:  27    -0.312611488266E+03   -0.98140E-02   -0.92814E-02  9568   0.107E+01 0.763E-01
CGA:  28    -0.312618973314E+03   -0.74850E-02   -0.73159E-02  9568   0.106E+01 0.157E-01
CGA:  29    -0.312625241614E+03   -0.62683E-02   -0.60250E-02  9568   0.925E+00 0.305E-01
CGA:  30    -0.312630858805E+03   -0.56172E-02   -0.57656E-02  9568   0.103E+01-0.161E-01
CGA:  31    -0.312639387920E+03   -0.85291E-02   -0.88523E-02  9568   0.195E+01-0.818E-02
SDA:  32    -0.312660233653E+03   -0.20846E-01   -0.21115E-01  9568   0.329E+01 0.177E-01
CGA:  33    -0.312691666212E+03   -0.31433E-01   -0.31284E-01  9568   0.273E+00-0.199E-02
CGA:  34    -0.312701945649E+03   -0.10279E-01   -0.10182E-01  9568   0.237E+00 0.470E-02
CGA:  35    -0.312712097429E+03   -0.10152E-01   -0.10104E-01  9568   0.306E+00 0.195E-02
CGA:  36    -0.312728527393E+03   -0.16430E-01   -0.16255E-01  9568   0.222E+00 0.571E-02
CGA:  37    -0.312733702477E+03   -0.51751E-02   -0.51908E-02  9568   0.105E+00-0.235E-02
CGA:  38    -0.312735828371E+03   -0.21259E-02   -0.21250E-02  9568   0.695E-01 0.252E-03
CGA:  39    -0.312739019100E+03   -0.31907E-02   -0.31643E-02  9568   0.364E-01 0.107E-02
CGA:  40    -0.312741585951E+03   -0.25669E-02   -0.25528E-02  9568   0.269E-01 0.346E-03
CGA:  41    -0.312742323757E+03   -0.73781E-03   -0.73591E-03  9568   0.198E-01 0.269E-03
CGA:  42    -0.312743728769E+03   -0.14050E-02   -0.14098E-02  9568   0.400E-01-0.128E-03
CGA:  43    -0.312744602336E+03   -0.87357E-03   -0.87488E-03  9568   0.189E-01 0.183E-03
CGA:  44    -0.312745054440E+03   -0.45210E-03   -0.45216E-03  9568   0.889E-02 0.333E-04
CGA:  45    -0.312745591882E+03   -0.53744E-03   -0.53192E-03  9568   0.489E-02 0.166E-03
CGA:  46    -0.312745958491E+03   -0.36661E-03   -0.36574E-03  9568   0.652E-02 0.177E-04
CGA:  47    -0.312746190652E+03   -0.23216E-03   -0.23179E-03  9568   0.806E-02 0.403E-04
CGA:  48    -0.312746769621E+03   -0.57897E-03   -0.58056E-03  9568   0.159E-01-0.413E-04
CGA:  49    -0.312747033107E+03   -0.26349E-03   -0.26644E-03  9568   0.370E-02-0.475E-04
CGA:  50    -0.312747252327E+03   -0.21922E-03   -0.21881E-03  9568   0.331E-02 0.142E-04
CGA:  51    -0.312747413109E+03   -0.16078E-03   -0.16026E-03  9568   0.375E-02 0.288E-04
CGA:  52    -0.312747554391E+03   -0.14128E-03   -0.14126E-03  9568   0.156E-02 0.809E-05
CGA:  53    -0.312747600699E+03   -0.46308E-04   -0.46327E-04  9568   0.154E-02 0.571E-05
CGA:  54    -0.312747662544E+03   -0.61846E-04   -0.61843E-04  9568   0.245E-02 0.478E-06
CGA:  55    -0.312747745917E+03   -0.83372E-04   -0.83368E-04  9568   0.412E-03 0.311E-05
CGA:  56    -0.312747774079E+03   -0.28162E-04   -0.28321E-04  9568   0.862E-03-0.480E-05
CGA:  57    -0.312747803527E+03   -0.29448E-04   -0.29444E-04  9568   0.337E-03-0.796E-05
CGA:  58    -0.312747823455E+03   -0.19928E-04   -0.20001E-04  9568   0.416E-03-0.322E-05
CGA:  59    -0.312747831073E+03   -0.76174E-05   -0.76192E-05  9568   0.237E-03-0.331E-06
CGA:  60    -0.312747856276E+03   -0.25203E-04   -0.25384E-04  9568   0.399E-03-0.288E-05
CGA:  61    -0.312747865340E+03   -0.90635E-05   -0.90778E-05  9568   0.112E-03 0.446E-06
   7 F= -.31274787E+03 E0= -.31272610E+03  d E =-.940418E-01  mag=    25.8182
       N       E                     dE             d eps       ncg     rms          ort
SDA:   1    -0.292739254097E+03    0.20009E+02    0.00000E+00  9568   0.758E+02 0.000E+00
CGA:   2    -0.295050799484E+03   -0.23115E+01   -0.23480E+01  9568   0.129E+03-0.842E+00
CGA:   3    -0.301410881577E+03   -0.63601E+01   -0.59446E+01  9568   0.370E+03 0.324E+02
CGA:   4    -0.304163532007E+03   -0.27527E+01   -0.77232E+01  9568   0.357E+03-0.122E+03
CGA:   5    -0.306661974887E+03   -0.24984E+01   -0.33720E+01  9568   0.685E+02-0.253E+02
CGA:   6    -0.307574331613E+03   -0.91236E+00   -0.86249E+00  9568   0.387E+02-0.225E+01
CGA:   7    -0.308650720051E+03   -0.10764E+01   -0.65184E+00  9568   0.429E+02 0.158E+02
CGA:   8    -0.309126706149E+03   -0.47599E+00   -0.41653E+00  9568   0.482E+02 0.375E+01
CGA:   9    -0.309464079993E+03   -0.33737E+00   -0.72586E+00  9568   0.141E+03-0.178E+02
CGA:  10    -0.309884261815E+03   -0.42018E+00   -0.43381E+00  9568   0.895E+02-0.107E+00
CGA:  11    -0.310034783861E+03   -0.15052E+00   -0.66451E+00  9568   0.915E+02-0.662E+02
CGA:  12    -0.311582087563E+03   -0.15473E+01   -0.94706E+00  9568   0.175E+02 0.378E+02
CGA:  13    -0.311822532888E+03   -0.24045E+00   -0.20005E+00  9568   0.781E+01 0.353E+01
CGA:  14    -0.311959450579E+03   -0.13692E+00   -0.12387E+00  9568   0.954E+01 0.535E+00
CGA:  15    -0.312050064165E+03   -0.90614E-01   -0.97299E-01  9568   0.857E+01-0.592E+00
CGA:  16    -0.312127185235E+03   -0.77121E-01   -0.87034E-01  9568   0.956E+01-0.551E+00
CGA:  17    -0.312251773017E+03   -0.12459E+00   -0.12202E+00  9568   0.132E+02 0.560E-01
CGA:  18    -0.312390140884E+03   -0.13837E+00   -0.12954E+00  9568   0.119E+02 0.492E+00
CGA:  19    -0.312490424982E+03   -0.10028E+00   -0.75330E-01  9568   0.846E+01 0.352E+01
CGA:  20    -0.312556808347E+03   -0.66383E-01   -0.51780E-01  9568   0.524E+01 0.268E+01
CGA:  21    -0.312597325818E+03   -0.40517E-01   -0.40549E-01  9568   0.326E+01-0.635E-01
CGA:  22    -0.312611535567E+03   -0.14210E-01   -0.12178E-01  9568   0.193E+01 0.475E+00
CGA:  23    -0.312621271362E+03   -0.97358E-02   -0.89503E-02  9568   0.146E+01 0.168E+00
CGA:  24    -0.312630530043E+03   -0.92587E-02   -0.96456E-02  9568   0.219E+01-0.507E-01
CGA:  25    -0.312643069238E+03   -0.12539E-01   -0.12914E-01  9568   0.303E+01-0.498E-01
CGA:  26    -0.312656306528E+03   -0.13237E-01   -0.12433E-01  9568   0.268E+01 0.154E+00
CGA:  27    -0.312668535719E+03   -0.12229E-01   -0.12334E-01  9568   0.257E+01-0.298E-01
CGA:  28    -0.312680692477E+03   -0.12157E-01   -0.12563E-01  9568   0.319E+01-0.718E-01
CGA:  29    -0.312696336107E+03   -0.15644E-01   -0.17188E-01  9568   0.391E+01-0.213E+00
CGA:  30    -0.312712737800E+03   -0.16402E-01   -0.17217E-01  9568   0.294E+01-0.145E+00
CGA:  31    -0.312723152320E+03   -0.10415E-01   -0.98197E-02  9568   0.180E+01 0.141E+00
CGA:  32    -0.312730820205E+03   -0.76679E-02   -0.76406E-02  9568   0.152E+01 0.318E-02
CGA:  33    -0.312738109951E+03   -0.72897E-02   -0.72358E-02  9568   0.160E+01 0.641E-02
CGA:  34    -0.312744713803E+03   -0.66039E-02   -0.61320E-02  9568   0.126E+01 0.969E-01
CGA:  35    -0.312749498675E+03   -0.47849E-02   -0.46970E-02  9568   0.906E+00 0.190E-01
CGA:  36    -0.312753148613E+03   -0.36499E-02   -0.38193E-02  9568   0.917E+00-0.311E-01
CGA:  37    -0.312757523424E+03   -0.43748E-02   -0.45782E-02  9568   0.121E+01-0.244E-01
CGA:  38    -0.312763582801E+03   -0.60594E-02   -0.62878E-02  9568   0.127E+01-0.248E-01
CGA:  39    -0.312768840670E+03   -0.52579E-02   -0.53197E-02  9568   0.793E+00-0.110E-01
CGA:  40    -0.312771878342E+03   -0.30377E-02   -0.29961E-02  9568   0.490E+00 0.732E-02
CGA:  41    -0.312774158282E+03   -0.22799E-02   -0.22756E-02  9568   0.473E+00 0.233E-03
SDA:  42    -0.312776728049E+03   -0.25698E-02   -0.25710E-02  9568   0.550E+00-0.329E-03
CGA:  43    -0.312782111076E+03   -0.53830E-02   -0.53871E-02  9568   0.976E-01 0.440E-02
CGA:  44    -0.312786816303E+03   -0.47052E-02   -0.37092E-06  9568   0.165E+00-0.300E-01
CGA:  45    -0.312791282895E+03   -0.44666E-02   -0.43905E-02  9568   0.182E+00 0.376E-02
CGA:  46    -0.312798084907E+03   -0.68020E-02   -0.66541E-02  9568   0.541E-01 0.853E-02
CGA:  47    -0.312800008871E+03   -0.19240E-02   -0.19299E-02  9568   0.714E-01-0.390E-03
CGA:  48    -0.312801531721E+03   -0.15229E-02   -0.15223E-02  9568   0.295E-01 0.744E-03
CGA:  49    -0.312802402443E+03   -0.87072E-03   -0.86647E-03  9568   0.242E-01 0.407E-03
CGA:  50    -0.312803293865E+03   -0.89142E-03   -0.88869E-03  9568   0.146E-01 0.159E-03
CGA:  51    -0.312804501821E+03   -0.12080E-02   -0.12088E-02  9568   0.274E-01-0.316E-04
CGA:  52    -0.312805488780E+03   -0.98696E-03   -0.98129E-03  9568   0.114E-01 0.422E-03
CGA:  53    -0.312805849023E+03   -0.36024E-03   -0.36002E-03  9568   0.139E-01 0.327E-04
CGA:  54    -0.312806300230E+03   -0.45121E-03   -0.44975E-03  9568   0.124E-01 0.170E-03
CGA:  55    -0.312806686263E+03   -0.38603E-03   -0.38439E-03  9568   0.121E-01 0.260E-03
CGA:  56    -0.312807634671E+03   -0.94841E-03   -0.83006E-03  9568   0.212E-01 0.248E-02
CGA:  57    -0.312809107782E+03   -0.14731E-02    0.57922E-01  9568   0.248E-01 0.223E-01
CGA:  58    -0.312809831485E+03   -0.72370E-03   -0.72365E-03  9568   0.201E-01 0.389E-04
CGA:  59    -0.312810210228E+03   -0.37874E-03   -0.37715E-03  9568   0.788E-02-0.106E-04
CGA:  60    -0.312810518707E+03   -0.30848E-03   -0.30874E-03  9568   0.868E-02-0.214E-04
CGA:  61    -0.312810959296E+03   -0.44059E-03   -0.44153E-03  9568   0.978E-02-0.361E-04
CGA:  62    -0.312811413428E+03   -0.45413E-03   -0.45947E-03  9568   0.106E-01-0.267E-03
CGA:  63    -0.312812004997E+03   -0.59157E-03   -0.57533E-03  9568   0.443E-02 0.602E-03
CGA:  64    -0.312812264263E+03   -0.25927E-03   -0.25371E-03  9568   0.676E-02 0.225E-03
CGA:  65    -0.312812404560E+03   -0.14030E-03   -0.13839E-03  9568   0.352E-02 0.394E-04
CGA:  66    -0.312812556085E+03   -0.15153E-03   -0.15066E-03  9568   0.422E-02 0.636E-04
CGA:  67    -0.312812692870E+03   -0.13678E-03   -0.13681E-03  9568   0.158E-02 0.163E-04
CGA:  68    -0.312812775155E+03   -0.82285E-04   -0.81963E-04  9568   0.250E-02 0.139E-04
CGA:  69    -0.312812979580E+03   -0.20442E-03   -0.21254E-03  9568   0.492E-02-0.177E-03
CGA:  70    -0.312813066207E+03   -0.86627E-04   -0.88984E-04  9568   0.287E-02-0.600E-04
CGA:  71    -0.312813201590E+03   -0.13538E-03   -0.13608E-03  9568   0.191E-02-0.450E-04
CGA:  72    -0.312813310610E+03   -0.10902E-03   -0.10864E-03  9568   0.398E-02 0.149E-04
CGA:  73    -0.312813494781E+03   -0.18417E-03   -0.18524E-03  9568   0.142E-02-0.827E-04
CGA:  74    -0.312813540987E+03   -0.46207E-04   -0.46379E-04  9568   0.181E-02 0.176E-04
CGA:  75    -0.312813601664E+03   -0.60677E-04   -0.60493E-04  9568   0.200E-02-0.101E-04
CGA:  76    -0.312813678893E+03   -0.77229E-04   -0.77177E-04  9568   0.645E-03 0.191E-04
CGA:  77    -0.312813712960E+03   -0.34067E-04   -0.34039E-04  9568   0.632E-03 0.995E-06
CGA:  78    -0.312813734938E+03   -0.21978E-04   -0.21969E-04  9568   0.492E-03-0.317E-05
CGA:  79    -0.312813764900E+03   -0.29962E-04   -0.29942E-04  9568   0.266E-03 0.126E-06
CGA:  80    -0.312813772499E+03   -0.75990E-05   -0.75992E-05  9568   0.243E-03 0.213E-06
   8 F= -.31281377E+03 E0= -.31279181E+03  d E =-.659072E-01  mag=    25.8312
       N       E                     dE             d eps       ncg     rms          ort
SDA:   1    -0.278599075864E+03    0.34215E+02    0.00000E+00  9568   0.103E+03 0.000E+00
CGA:   2    -0.294010522907E+03   -0.15411E+02   -0.14485E+02  9568   0.291E+03 0.125E+02
CGA:   3    -0.300548918437E+03   -0.65384E+01   -0.79142E+01  9568   0.184E+03-0.710E+02
CGA:   4    -0.304612754574E+03   -0.40638E+01   -0.41963E+01  9568   0.556E+02 0.192E+01
CGA:   5    -0.307035116895E+03   -0.24224E+01   -0.28130E+01  9568   0.118E+03-0.287E+02
CGA:   6    -0.308564144522E+03   -0.15290E+01   -0.25270E+01  9568   0.546E+02-0.250E+02
CGA:   7    -0.309387668234E+03   -0.82352E+00   -0.92927E+00  9568   0.412E+02-0.373E+01
CGA:   8    -0.310467499436E+03   -0.10798E+01   -0.90764E+00  9568   0.251E+02 0.195E+01
CGA:   9    -0.310923064338E+03   -0.45556E+00   -0.47527E+00  9568   0.252E+02-0.920E+00
CGA:  10    -0.311530943024E+03   -0.60788E+00   -0.60268E+00  9568   0.135E+02-0.105E+00
CGA:  11    -0.311942274684E+03   -0.41133E+00   -0.38794E+00  9568   0.534E+01-0.524E+00
CGA:  12    -0.312200145645E+03   -0.25787E+00   -0.25797E+00  9568   0.537E+01 0.310E-02
CGA:  13    -0.312328837627E+03   -0.12869E+00   -0.13209E+00  9568   0.552E+01-0.146E-01
CGA:  14    -0.312526410240E+03   -0.19757E+00   -0.19784E+00  9568   0.268E+01 0.104E+00
CGA:  15    -0.312626676066E+03   -0.10027E+00   -0.10017E+00  9568   0.156E+01-0.129E+00
CGA:  16    -0.312672691064E+03   -0.46015E-01   -0.46171E-01  9568   0.151E+01 0.853E-02
CGA:  17    -0.312716950439E+03   -0.44259E-01   -0.44433E-01  9568   0.922E+00 0.568E-02
CGA:  18    -0.312740806621E+03   -0.23856E-01   -0.24521E-01  9568   0.550E+00 0.915E-02
CGA:  19    -0.312761622911E+03   -0.20816E-01   -0.20830E-01  9568   0.285E+00-0.447E-02
CGA:  20    -0.312772654968E+03   -0.11032E-01   -0.11019E-01  9568   0.296E+00 0.262E-02
CGA:  21    -0.312780136054E+03   -0.74811E-02   -0.75105E-02  9568   0.205E+00 0.152E-03
CGA:  22    -0.312789151633E+03   -0.90156E-02   -0.90365E-02  9568   0.133E+00-0.169E-02
CGA:  23    -0.312794700052E+03   -0.55484E-02   -0.55342E-02  9568   0.153E+00 0.155E-02
CGA:  24    -0.312799479004E+03   -0.47790E-02   -0.47901E-02  9568   0.113E+00 0.704E-03
CGA:  25    -0.312803276314E+03   -0.37973E-02   -0.37955E-02  9568   0.102E+00-0.283E-03
CGA:  26    -0.312806837545E+03   -0.35612E-02   -0.35631E-02  9568   0.650E-01 0.102E-02
CGA:  27    -0.312809566492E+03   -0.27289E-02   -0.27308E-02  9568   0.465E-01-0.177E-03
CGA:  28    -0.312810945007E+03   -0.13785E-02   -0.13800E-02  9568   0.478E-01 0.958E-04
CGA:  29    -0.312812620469E+03   -0.16755E-02   -0.16754E-02  9568   0.257E-01-0.130E-04
CGA:  30    -0.312813725215E+03   -0.11047E-02   -0.11034E-02  9568   0.225E-01 0.140E-03
CGA:  31    -0.312814394969E+03   -0.66975E-03   -0.66997E-03  9568   0.160E-01 0.112E-04
CGA:  32    -0.312814916264E+03   -0.52130E-03   -0.52126E-03  9568   0.122E-01 0.208E-05
CGA:  33    -0.312815325177E+03   -0.40891E-03   -0.40872E-03  9568   0.967E-02-0.411E-04
CGA:  34    -0.312815738947E+03   -0.41377E-03   -0.41339E-03  9568   0.608E-02 0.389E-04
CGA:  35    -0.312815934623E+03   -0.19568E-03   -0.19566E-03  9568   0.644E-02-0.564E-06
SDA:  36    -0.312816146149E+03   -0.21153E-03   -0.21153E-03  9568   0.410E-02 0.731E-05
CGA:  37    -0.312816212459E+03   -0.66311E-04   -0.66498E-04  9568   0.135E-02-0.720E-05
CGA:  38    -0.312816266077E+03   -0.53617E-04   -0.53579E-04  9568   0.249E-02 0.621E-05
CGA:  39    -0.312816583774E+03   -0.31770E-03   -0.31575E-03  9568   0.614E-02 0.198E-04
CGA:  40    -0.312816719400E+03   -0.13563E-03   -0.13608E-03  9568   0.994E-03 0.825E-05
CGA:  41    -0.312816783596E+03   -0.64196E-04   -0.64180E-04  9568   0.915E-03 0.286E-06
CGA:  42    -0.312816917914E+03   -0.13432E-03   -0.13611E-03  9568   0.295E-02-0.156E-04
CGA:  43    -0.312816964061E+03   -0.46146E-04   -0.45889E-04  9568   0.686E-03-0.784E-05
CGA:  44    -0.312817001465E+03   -0.37404E-04   -0.37426E-04  9568   0.984E-03-0.218E-05
CGA:  45    -0.312817030085E+03   -0.28620E-04   -0.28685E-04  9568   0.410E-03 0.491E-06
CGA:  46    -0.312817066418E+03   -0.36332E-04   -0.36308E-04  9568   0.721E-03 0.396E-06
CGA:  47    -0.312817085283E+03   -0.18866E-04   -0.18920E-04  9568   0.574E-03 0.192E-05
CGA:  48    -0.312817101676E+03   -0.16392E-04   -0.16410E-04  9568   0.297E-03 0.108E-05
CGA:  49    -0.312817113982E+03   -0.12306E-04   -0.12309E-04  9568   0.130E-03 0.867E-06
CGA:  50    -0.312817128673E+03   -0.14692E-04   -0.14673E-04  9568   0.407E-03 0.232E-06
CGA:  51    -0.312817137566E+03   -0.88928E-05   -0.88627E-05  9568   0.161E-03-0.981E-06
   9 F= -.31281714E+03 E0= -.31279567E+03  d E =-.336507E-02  mag=    25.8328
       N       E                     dE             d eps       ncg     rms          ort
SDA:   1    -0.303188749389E+03    0.96284E+01    0.00000E+00  9568   0.242E+03 0.000E+00
CGA:   2    -0.306072715570E+03   -0.28840E+01   -0.58180E+01  9568   0.567E+02-0.260E+02
CGA:   3    -0.307574652910E+03   -0.15019E+01   -0.10264E+01  9568   0.249E+02 0.158E+02
CGA:   4    -0.308380505598E+03   -0.80585E+00   -0.72293E+00  9568   0.361E+02 0.160E+01
CGA:   5    -0.309150990065E+03   -0.77048E+00   -0.79063E+00  9568   0.620E+02-0.150E+01
CGA:   6    -0.310247521283E+03   -0.10965E+01   -0.10007E+01  9568   0.829E+02 0.313E+01
CGA:   7    -0.311011855013E+03   -0.76433E+00   -0.87914E+00  9568   0.604E+02-0.177E+02
CGA:   8    -0.311296487918E+03   -0.28463E+00   -0.37236E+00  9568   0.306E+02-0.108E+02
CGA:   9    -0.311400344077E+03   -0.10386E+00   -0.25415E+00  9568   0.221E+02-0.115E+02
CGA:  10    -0.311552109026E+03   -0.15176E+00   -0.15818E+00  9568   0.155E+02-0.668E+00
CGA:  11    -0.311746026584E+03   -0.19392E+00   -0.20100E+00  9568   0.144E+02-0.542E+00
CGA:  12    -0.311901109130E+03   -0.15508E+00   -0.12178E+00  9568   0.100E+02 0.312E+01
CGA:  13    -0.312050832286E+03   -0.14972E+00   -0.15092E+00  9568   0.164E+02-0.178E+00
CGA:  14    -0.312267664582E+03   -0.21683E+00   -0.22209E+00  9568   0.227E+02-0.301E+00
CGA:  15    -0.312421919421E+03   -0.15425E+00   -0.18599E+00  9568   0.117E+02-0.316E+01
CGA:  16    -0.312493366258E+03   -0.71447E-01   -0.67743E-01  9568   0.718E+01 0.366E+00
CGA:  17    -0.312556219392E+03   -0.62853E-01   -0.60564E-01  9568   0.623E+01 0.172E+00
CGA:  18    -0.312605635871E+03   -0.49416E-01   -0.53265E-01  9568   0.371E+01-0.406E+00
CGA:  19    -0.312627550647E+03   -0.21915E-01   -0.21674E-01  9568   0.214E+01 0.271E-01
CGA:  20    -0.312647435626E+03   -0.19885E-01   -0.20367E-01  9568   0.266E+01-0.380E-01
CGA:  21    -0.312675608521E+03   -0.28173E-01   -0.29751E-01  9568   0.313E+01-0.806E-01
CGA:  22    -0.312703351020E+03   -0.27742E-01   -0.30009E-01  9568   0.286E+01-0.147E+00
CGA:  23    -0.312740821595E+03   -0.37471E-01   -0.38302E-01  9568   0.437E+01-0.118E-01
CGA:  24    -0.312791545091E+03   -0.50723E-01   -0.49170E-01  9568   0.218E+01 0.739E-01
CGA:  25    -0.312805878731E+03   -0.14334E-01   -0.13937E-01  9568   0.648E+00 0.486E-01
CGA:  26    -0.312812832335E+03   -0.69536E-02   -0.69041E-02  9568   0.745E+00 0.234E-02
CGA:  27    -0.312823959111E+03   -0.11127E-01   -0.11157E-01  9568   0.107E+01 0.127E-02
CGA:  28    -0.312834777559E+03   -0.10818E-01   -0.11743E-01  9568   0.624E+00-0.322E-01
CGA:  29    -0.312842975048E+03   -0.81975E-02   -0.82736E-02  9568   0.794E+00 0.644E-03
CGA:  30    -0.312860408253E+03   -0.17433E-01   -0.17404E-01  9568   0.888E+00 0.745E-02
CGA:  31    -0.312868485789E+03   -0.80775E-02   -0.79867E-02  9568   0.283E+00 0.545E-02
SDA:  32    -0.312872312091E+03   -0.38263E-02   -0.38377E-02  9568   0.281E+00 0.114E-03
CGA:  33    -0.312876409654E+03   -0.40976E-02   -0.41108E-02  9568   0.136E+00 0.711E-03
CGA:  34    -0.312884325430E+03   -0.79158E-02   -0.81334E-02  9568   0.167E+00-0.647E-02
CGA:  35    -0.312891668882E+03   -0.73435E-02   -0.73643E-02  9568   0.138E+00-0.878E-03
CGA:  36    -0.312895618229E+03   -0.39493E-02   -0.39532E-02  9568   0.102E+00-0.420E-03
CGA:  37    -0.312898129023E+03   -0.25108E-02   -0.25028E-02  9568   0.587E-01 0.200E-02
CGA:  38    -0.312900855239E+03   -0.27262E-02   -0.27698E-02  9568   0.559E-01-0.187E-02
CGA:  39    -0.312901907188E+03   -0.10519E-02   -0.10545E-02  9568   0.117E-01 0.170E-03
CGA:  40    -0.312902752450E+03   -0.84526E-03   -0.85179E-03  9568   0.253E-01-0.150E-03
CGA:  41    -0.312903208323E+03   -0.45587E-03   -0.45721E-03  9568   0.708E-02 0.211E-05
CGA:  42    -0.312903663843E+03   -0.45552E-03   -0.45404E-03  9568   0.914E-02 0.410E-04
CGA:  43    -0.312903937786E+03   -0.27394E-03   -0.27366E-03  9568   0.840E-02 0.772E-04
CGA:  44    -0.312904411954E+03   -0.47417E-03   -0.47424E-03  9568   0.709E-02-0.374E-05
CGA:  45    -0.312904562460E+03   -0.15051E-03   -0.15077E-03  9568   0.457E-02 0.141E-04
CGA:  46    -0.312904759293E+03   -0.19683E-03   -0.19662E-03  9568   0.351E-02 0.144E-04
CGA:  47    -0.312904879965E+03   -0.12067E-03   -0.12044E-03  9568   0.158E-02 0.336E-04
CGA:  48    -0.312904966770E+03   -0.86805E-04   -0.86943E-04  9568   0.458E-02-0.606E-05
CGA:  49    -0.312905148738E+03   -0.18197E-03   -0.18174E-03  9568   0.262E-02 0.176E-04
CGA:  50    -0.312905236237E+03   -0.87499E-04   -0.87497E-04  9568   0.273E-02 0.822E-06
CGA:  51    -0.312905326157E+03   -0.89921E-04   -0.89914E-04  9568   0.579E-03 0.291E-05
CGA:  52    -0.312905364412E+03   -0.38254E-04   -0.38091E-04  9568   0.160E-02 0.445E-05
CGA:  53    -0.312905402011E+03   -0.37599E-04   -0.37708E-04  9568   0.510E-03 0.886E-05
CGA:  54    -0.312905429601E+03   -0.27590E-04   -0.27542E-04  9568   0.626E-03 0.215E-05
CGA:  55    -0.312905446615E+03   -0.17014E-04   -0.17010E-04  9568   0.395E-03-0.387E-06
CGA:  56    -0.312905473686E+03   -0.27071E-04   -0.27182E-04  9568   0.500E-03-0.332E-05
CGA:  57    -0.312905481782E+03   -0.80963E-05   -0.81023E-05  9568   0.149E-03-0.306E-06
  10 F= -.31290548E+03 E0= -.31288330E+03  d E =-.883442E-01  mag=    25.8512
       N       E                     dE             d eps       ncg     rms          ort
SDA:   1    -0.312794659263E+03    0.11081E+00    0.00000E+00  9568   0.101E+01 0.000E+00
CGA:   2    -0.312814455960E+03   -0.19797E-01   -0.20086E-01  9568   0.608E+00-0.583E-02
CGA:   3    -0.312837762499E+03   -0.23307E-01   -0.23307E-01  9568   0.755E+00 0.504E-04
CGA:   4    -0.312866958267E+03   -0.29196E-01   -0.29251E-01  9568   0.360E+00-0.900E-02
CGA:   5    -0.312877548527E+03   -0.10590E-01   -0.10586E-01  9568   0.272E+00-0.180E-03
CGA:   6    -0.312888989373E+03   -0.11441E-01   -0.11515E-01  9568   0.183E+00-0.673E-02
CGA:   7    -0.312895354817E+03   -0.63654E-02   -0.63658E-02  9568   0.280E+00-0.501E-03
CGA:   8    -0.312903553059E+03   -0.81982E-02   -0.81911E-02  9568   0.344E-01-0.312E-03
CGA:   9    -0.312905195140E+03   -0.16421E-02   -0.16423E-02  9568   0.508E-01-0.105E-04
CGA:  10    -0.312906690119E+03   -0.14950E-02   -0.14955E-02  9568   0.387E-01 0.342E-04
CGA:  11    -0.312907715801E+03   -0.10257E-02   -0.10250E-02  9568   0.126E-01-0.117E-04
CGA:  12    -0.312908151073E+03   -0.43527E-03   -0.43530E-03  9568   0.804E-02 0.473E-04
CGA:  13    -0.312908367869E+03   -0.21680E-03   -0.21692E-03  9568   0.507E-02 0.440E-05
CGA:  14    -0.312908619306E+03   -0.25144E-03   -0.25127E-03  9568   0.807E-02 0.101E-04
CGA:  15    -0.312908797666E+03   -0.17836E-03   -0.17805E-03  9568   0.184E-02-0.316E-05
CGA:  16    -0.312908893501E+03   -0.95836E-04   -0.95659E-04  9568   0.154E-02 0.912E-05
CGA:  17    -0.312908933221E+03   -0.39720E-04   -0.39697E-04  9568   0.133E-02-0.124E-05
CGA:  18    -0.312908986178E+03   -0.52957E-04   -0.52951E-04  9568   0.122E-02 0.153E-05
CGA:  19    -0.312909035137E+03   -0.48959E-04   -0.48957E-04  9568   0.653E-03 0.535E-06
CGA:  20    -0.312909054027E+03   -0.18890E-04   -0.18896E-04  9568   0.611E-03 0.754E-06
CGA:  21    -0.312909078972E+03   -0.24945E-04   -0.24953E-04  9568   0.474E-03-0.120E-05
CGA:  22    -0.312909089568E+03   -0.10596E-04   -0.10624E-04  9568   0.254E-03 0.145E-05
CGA:  23    -0.312909107826E+03   -0.18259E-04   -0.18259E-04  9568   0.295E-03 0.593E-07
CGA:  24    -0.312909116453E+03   -0.86263E-05   -0.86359E-05  9568   0.269E-03 0.122E-05
  11 F= -.31290912E+03 E0= -.31288696E+03  d E =-.363467E-02  mag=    25.8498
       N       E                     dE             d eps       ncg     rms          ort
SDA:   1    -0.312660156622E+03    0.24895E+00    0.00000E+00  9568   0.987E+00 0.000E+00
CGA:   2    -0.312706587025E+03   -0.46430E-01   -0.46596E-01  9568   0.156E+01-0.101E-01
CGA:   3    -0.312794406277E+03   -0.87819E-01   -0.87960E-01  9568   0.323E+01-0.533E-02
CGA:   4    -0.312852154801E+03   -0.57749E-01   -0.58643E-01  9568   0.362E+00-0.300E-01
CGA:   5    -0.312879552057E+03   -0.27397E-01   -0.28062E-01  9568   0.608E+00-0.165E-01
CGA:   6    -0.312895049738E+03   -0.15498E-01   -0.15725E-01  9568   0.293E+00 0.169E-02
CGA:   7    -0.312906861240E+03   -0.11812E-01   -0.11794E-01  9568   0.555E-01 0.449E-02
CGA:   8    -0.312910226941E+03   -0.33657E-02   -0.33661E-02  9568   0.129E+00-0.927E-05
CGA:   9    -0.312913025257E+03   -0.27983E-02   -0.27940E-02  9568   0.414E-01 0.730E-04
CGA:  10    -0.312914246798E+03   -0.12215E-02   -0.12251E-02  9568   0.233E-01 0.971E-04
CGA:  11    -0.312915020666E+03   -0.77387E-03   -0.77282E-03  9568   0.127E-01-0.750E-04
CGA:  12    -0.312915441319E+03   -0.42065E-03   -0.42095E-03  9568   0.792E-02 0.299E-04
CGA:  13    -0.312915897301E+03   -0.45598E-03   -0.45523E-03  9568   0.632E-02 0.338E-04
CGA:  14    -0.312916035992E+03   -0.13869E-03   -0.13852E-03  9568   0.555E-02 0.126E-05
CGA:  15    -0.312916285628E+03   -0.24964E-03   -0.24939E-03  9568   0.988E-03 0.238E-04
CGA:  16    -0.312916338381E+03   -0.52753E-04   -0.52680E-04  9568   0.212E-02 0.452E-05
CGA:  17    -0.312916449449E+03   -0.11107E-03   -0.11113E-03  9568   0.151E-02-0.338E-05
CGA:  18    -0.312916484801E+03   -0.35351E-04   -0.35383E-04  9568   0.628E-03 0.155E-05
CGA:  19    -0.312916500932E+03   -0.16131E-04   -0.16135E-04  9568   0.585E-03 0.169E-06
CGA:  20    -0.312916528288E+03   -0.27356E-04   -0.27336E-04  9568   0.415E-03 0.198E-05
CGA:  21    -0.312916567982E+03   -0.39694E-04   -0.39676E-04  9568   0.277E-03 0.141E-06
CGA:  22    -0.312916586053E+03   -0.18071E-04   -0.18015E-04  9568   0.389E-03 0.231E-05
CGA:  23    -0.312916595219E+03   -0.91659E-05   -0.91927E-05  9568   0.192E-03 0.140E-05
  12 F= -.31291660E+03 E0= -.31289446E+03  d E =-.747877E-02  mag=    25.8505
       N       E                     dE             d eps       ncg     rms          ort
SDA:   1    -0.311088056612E+03    0.18285E+01    0.00000E+00  9568   0.480E+02 0.000E+00
CGA:   2    -0.311584155784E+03   -0.49610E+00   -0.64583E+00  9568   0.898E+01-0.116E+02
CGA:   3    -0.311877807084E+03   -0.29365E+00   -0.29477E+00  9568   0.104E+02-0.170E+00
CGA:   4    -0.312233616557E+03   -0.35581E+00   -0.35507E+00  9568   0.890E+01-0.659E-01
CGA:   5    -0.312514427768E+03   -0.28081E+00   -0.28296E+00  9568   0.501E+01 0.603E-01
CGA:   6    -0.312653435457E+03   -0.13901E+00   -0.13823E+00  9568   0.285E+01-0.126E-01
CGA:   7    -0.312746953232E+03   -0.93518E-01   -0.93317E-01  9568   0.233E+01-0.118E-01
CGA:   8    -0.312831109835E+03   -0.84157E-01   -0.84230E-01  9568   0.160E+01 0.161E-01
CGA:   9    -0.312870504553E+03   -0.39395E-01   -0.39257E-01  9568   0.614E+00-0.642E-03
CGA:  10    -0.312888225466E+03   -0.17721E-01   -0.17642E-01  9568   0.416E+00-0.177E-02
CGA:  11    -0.312903451845E+03   -0.15226E-01   -0.15226E-01  9568   0.363E+00-0.175E-03
CGA:  12    -0.312914397271E+03   -0.10945E-01   -0.10958E-01  9568   0.182E+00 0.578E-03
CGA:  13    -0.312918826542E+03   -0.44293E-02   -0.44344E-02  9568   0.810E-01-0.107E-04
CGA:  14    -0.312921556020E+03   -0.27295E-02   -0.27299E-02  9568   0.671E-01 0.106E-03
CGA:  15    -0.312924006993E+03   -0.24510E-02   -0.24510E-02  9568   0.599E-01 0.324E-05
CGA:  16    -0.312925815100E+03   -0.18081E-02   -0.18090E-02  9568   0.315E-01 0.683E-04
CGA:  17    -0.312926682850E+03   -0.86775E-03   -0.86803E-03  9568   0.183E-01 0.113E-04
CGA:  18    -0.312927361375E+03   -0.67853E-03   -0.67853E-03  9568   0.185E-01 0.523E-05
CGA:  19    -0.312928061044E+03   -0.69967E-03   -0.69962E-03  9568   0.169E-01 0.155E-04
CGA:  20    -0.312928568139E+03   -0.50710E-03   -0.50741E-03  9568   0.897E-02 0.314E-04
CGA:  21    -0.312928851957E+03   -0.28382E-03   -0.28380E-03  9568   0.729E-02-0.137E-05
CGA:  22    -0.312929135365E+03   -0.28341E-03   -0.28337E-03  9568   0.763E-02 0.105E-04
CGA:  23    -0.312929417609E+03   -0.28224E-03   -0.28221E-03  9568   0.615E-02 0.118E-04
CGA:  24    -0.312929601450E+03   -0.18384E-03   -0.18392E-03  9568   0.368E-02 0.994E-05
CGA:  25    -0.312929725326E+03   -0.12388E-03   -0.12388E-03  9568   0.322E-02 0.537E-06
CGA:  26    -0.312929845771E+03   -0.12045E-03   -0.12042E-03  9568   0.292E-02 0.105E-04
CGA:  27    -0.312929947725E+03   -0.10195E-03   -0.10195E-03  9568   0.212E-02 0.291E-05
CGA:  28    -0.312930010367E+03   -0.62642E-04   -0.62682E-04  9568   0.138E-02 0.671E-05
CGA:  29    -0.312930058939E+03   -0.48572E-04   -0.48572E-04  9568   0.112E-02 0.319E-05
CGA:  30    -0.312930096415E+03   -0.37476E-04   -0.37484E-04  9568   0.844E-03 0.589E-05
CGA:  31    -0.312930124980E+03   -0.28564E-04   -0.28568E-04  9568   0.664E-03 0.280E-05
SDA:  32    -0.312930147297E+03   -0.22318E-04   -0.22324E-04  9568   0.506E-03 0.490E-05
CGA:  33    -0.312930153214E+03   -0.59165E-05   -0.58933E-05  9568   0.977E-04-0.761E-06
CGA:  34    -0.312930168776E+03   -0.15562E-04   -0.15637E-04  9568   0.575E-03-0.805E-06
CGA:  35    -0.312930189028E+03   -0.20253E-04   -0.20257E-04  9568   0.223E-03 0.607E-06
CGA:  36    -0.312930196197E+03   -0.71687E-05   -0.71664E-05  9568   0.134E-03-0.328E-06
  13 F= -.31293020E+03 E0= -.31290818E+03  d E =-.136010E-01  mag=    25.8505
       N       E                     dE             d eps       ncg     rms          ort
SDA:   1    -0.312336066952E+03    0.59412E+00    0.00000E+00  9568   0.223E+01 0.000E+00
CGA:   2    -0.312416237890E+03   -0.80171E-01   -0.80153E-01  9568   0.511E+01-0.220E-02
CGA:   3    -0.312730733534E+03   -0.31450E+00   -0.31403E+00  9568   0.127E+01 0.173E-01
CGA:   4    -0.312789639786E+03   -0.58906E-01   -0.58297E-01  9568   0.184E+01 0.745E-01
CGA:   5    -0.312864481296E+03   -0.74842E-01   -0.74391E-01  9568   0.996E+00-0.672E-01
CGA:   6    -0.312904898449E+03   -0.40417E-01   -0.40330E-01  9568   0.436E+00 0.390E-01
CGA:   7    -0.312914239853E+03   -0.93414E-02   -0.91664E-02  9568   0.244E+00 0.428E-02
CGA:   8    -0.312923132489E+03   -0.88926E-02   -0.88999E-02  9568   0.267E+00 0.765E-03
CGA:   9    -0.312933377479E+03   -0.10245E-01   -0.10247E-01  9568   0.996E-01 0.575E-03
CGA:  10    -0.312935837876E+03   -0.24604E-02   -0.24309E-02  9568   0.354E-01 0.251E-03
CGA:  11    -0.312937690971E+03   -0.18531E-02   -0.18442E-02  9568   0.341E-01 0.515E-03
CGA:  12    -0.312938693008E+03   -0.10020E-02   -0.10009E-02  9568   0.374E-01-0.202E-04
CGA:  13    -0.312939883958E+03   -0.11909E-02   -0.11904E-02  9568   0.142E-01-0.201E-04
CGA:  14    -0.312940273600E+03   -0.38964E-03   -0.39045E-03  9568   0.787E-02 0.114E-04
CGA:  15    -0.312940670899E+03   -0.39730E-03   -0.39876E-03  9568   0.595E-02-0.864E-04
CGA:  16    -0.312940868828E+03   -0.19793E-03   -0.19809E-03  9568   0.424E-02 0.138E-04
CGA:  17    -0.312941028903E+03   -0.16008E-03   -0.16008E-03  9568   0.689E-02 0.740E-06
CGA:  18    -0.312941246159E+03   -0.21726E-03   -0.21729E-03  9568   0.192E-02 0.365E-05
CGA:  19    -0.312941299140E+03   -0.52981E-04   -0.53057E-04  9568   0.124E-02 0.316E-05
CGA:  20    -0.312941380232E+03   -0.81092E-04   -0.80929E-04  9568   0.154E-02 0.545E-05
CGA:  21    -0.312941464725E+03   -0.84493E-04   -0.84352E-04  9568   0.225E-02 0.747E-05
CGA:  22    -0.312941518564E+03   -0.53839E-04   -0.53906E-04  9568   0.105E-02-0.126E-05
CGA:  23    -0.312941543535E+03   -0.24971E-04   -0.24979E-04  9568   0.498E-03 0.893E-06
CGA:  24    -0.312941572559E+03   -0.29024E-04   -0.28954E-04  9568   0.838E-03 0.312E-05
CGA:  25    -0.312941613774E+03   -0.41215E-04   -0.41204E-04  9568   0.554E-03 0.116E-05
CGA:  26    -0.312941639408E+03   -0.25635E-04   -0.25621E-04  9568   0.401E-03 0.175E-05
CGA:  27    -0.312941649373E+03   -0.99646E-05   -0.99484E-05  9568   0.252E-03-0.104E-05
  14 F= -.31294165E+03 E0= -.31291969E+03  d E =-.114532E-01  mag=    25.8542
       N       E                     dE             d eps       ncg     rms          ort
SDA:   1    -0.309618995807E+03    0.33226E+01    0.00000E+00  9568   0.231E+02 0.000E+00
CGA:   2    -0.310122983545E+03   -0.50399E+00   -0.40926E+00  9568   0.988E+01 0.258E+01
CGA:   3    -0.311236485439E+03   -0.11135E+01   -0.10564E+01  9568   0.241E+02 0.109E+01
CGA:   4    -0.312005127781E+03   -0.76864E+00   -0.69438E+00  9568   0.898E+01 0.817E+00
CGA:   5    -0.312239011957E+03   -0.23388E+00   -0.21616E+00  9568   0.511E+01 0.235E+00
CGA:   6    -0.312532187871E+03   -0.29318E+00   -0.29126E+00  9568   0.888E+01 0.848E-01
CGA:   7    -0.312701395368E+03   -0.16921E+00   -0.17704E+00  9568   0.357E+01-0.242E+00
CGA:   8    -0.312828695440E+03   -0.12730E+00   -0.12626E+00  9568   0.153E+01-0.157E+00
CGA:   9    -0.312856519671E+03   -0.27824E-01   -0.26912E-01  9568   0.728E+00 0.256E-01
CGA:  10    -0.312896718609E+03   -0.40199E-01   -0.39928E-01  9568   0.136E+01 0.132E-01
CGA:  11    -0.312923682842E+03   -0.26964E-01   -0.26658E-01  9568   0.496E+00 0.772E-02
CGA:  12    -0.312940600399E+03   -0.16918E-01   -0.16983E-01  9568   0.231E+00 0.684E-02
CGA:  13    -0.312944987247E+03   -0.43868E-02   -0.44553E-02  9568   0.116E+00-0.168E-02
CGA:  14    -0.312952814163E+03   -0.78269E-02   -0.77900E-02  9568   0.238E+00 0.117E-02
CGA:  15    -0.312958079988E+03   -0.52658E-02   -0.53205E-02  9568   0.108E+00-0.762E-03
CGA:  16    -0.312960993959E+03   -0.29140E-02   -0.29259E-02  9568   0.485E-01 0.143E-03
CGA:  17    -0.312962550500E+03   -0.15565E-02   -0.15610E-02  9568   0.309E-01 0.347E-03
CGA:  18    -0.312963549189E+03   -0.99869E-03   -0.10005E-02  9568   0.386E-01 0.149E-03
CGA:  19    -0.312965703308E+03   -0.21541E-02   -0.21610E-02  9568   0.380E-01-0.304E-03
CGA:  20    -0.312966287824E+03   -0.58452E-03   -0.58954E-03  9568   0.944E-02-0.196E-03
CGA:  21    -0.312966893867E+03   -0.60604E-03   -0.60515E-03  9568   0.116E-01 0.301E-04
CGA:  22    -0.312967213306E+03   -0.31944E-03   -0.31988E-03  9568   0.886E-02 0.148E-04
CGA:  23    -0.312967626394E+03   -0.41309E-03   -0.41294E-03  9568   0.810E-02 0.932E-05
CGA:  24    -0.312967848572E+03   -0.22218E-03   -0.22231E-03  9568   0.650E-02 0.474E-06
CGA:  25    -0.312968050341E+03   -0.20177E-03   -0.20208E-03  9568   0.541E-02 0.211E-04
CGA:  26    -0.312968270079E+03   -0.21974E-03   -0.21969E-03  9568   0.216E-02 0.929E-05
CGA:  27    -0.312968341836E+03   -0.71757E-04   -0.71733E-04  9568   0.271E-02-0.392E-05
CGA:  28    -0.312968489497E+03   -0.14766E-03   -0.14754E-03  9568   0.238E-02 0.553E-05
CGA:  29    -0.312968577083E+03   -0.87585E-04   -0.87584E-04  9568   0.327E-02-0.824E-06
CGA:  30    -0.312968658502E+03   -0.81419E-04   -0.81564E-04  9568   0.890E-03 0.596E-06
CGA:  31    -0.312968694557E+03   -0.36055E-04   -0.36055E-04  9568   0.111E-02-0.137E-06
SDA:  32    -0.312968741885E+03   -0.47328E-04   -0.47310E-04  9568   0.116E-02 0.299E-05
CGA:  33    -0.312968767238E+03   -0.25353E-04   -0.25346E-04  9568   0.414E-03-0.106E-05
CGA:  34    -0.312968787315E+03   -0.20077E-04   -0.20070E-04  9568   0.550E-03 0.392E-06
CGA:  35    -0.312968818122E+03   -0.30807E-04   -0.30783E-04  9568   0.839E-03 0.606E-06
CGA:  36    -0.312968847772E+03   -0.29650E-04   -0.29646E-04  9568   0.841E-03-0.119E-05
CGA:  37    -0.312968865173E+03   -0.17401E-04   -0.17431E-04  9568   0.177E-03 0.109E-05
CGA:  38    -0.312968878370E+03   -0.13196E-04   -0.13169E-04  9568   0.973E-04 0.434E-06
CGA:  39    -0.312968889019E+03   -0.10649E-04   -0.10704E-04  9568   0.155E-03-0.107E-05
CGA:  40    -0.312968895021E+03   -0.60022E-05   -0.60040E-05  9568   0.323E-03 0.236E-06
CGA:  41    -0.312968907269E+03   -0.12248E-04   -0.12244E-04  9568   0.755E-04-0.867E-06
CGA:  42    -0.312968912911E+03   -0.56424E-05   -0.56814E-05  9568   0.800E-04-0.135E-05
  15 F= -.31296891E+03 E0= -.31294690E+03  d E =-.272635E-01  mag=    25.8669
       N       E                     dE             d eps       ncg     rms          ort
SDA:   1    -0.230428496092E+03    0.82540E+02    0.00000E+00  9568   0.123E+04 0.000E+00
CGA:   2    -0.259165787276E+03   -0.28737E+02   -0.36444E+02  9568   0.344E+03 0.266E+02
CGA:   3    -0.276725859045E+03   -0.17560E+02   -0.17469E+02  9568   0.135E+03 0.209E+02
CGA:   4    -0.272801776950E+03    0.39241E+01   -0.12599E+02  9568   0.460E+03-0.710E+02
CGA:   5    -0.292154794891E+03   -0.19353E+02   -0.11813E+02  9568   0.280E+03-0.397E+03
CGA:   6    -0.296638957401E+03   -0.44842E+01   -0.62587E+01  9568   0.305E+03-0.209E+03
CGA:   7    -0.300096334223E+03   -0.34574E+01   -0.47897E+01  9568   0.109E+03-0.142E+03
CGA:   8    -0.303183001659E+03   -0.30867E+01   -0.33523E+01  9568   0.119E+03-0.125E+02
CGA:   9    -0.305625621289E+03   -0.24426E+01   -0.28482E+01  9568   0.831E+02-0.123E+02
CGA:  10    -0.308049683267E+03   -0.24241E+01   -0.21469E+01  9568   0.448E+02-0.221E+01
CGA:  11    -0.309337753575E+03   -0.12881E+01   -0.13667E+01  9568   0.348E+02 0.141E+01
CGA:  12    -0.310565174345E+03   -0.12274E+01   -0.12084E+01  9568   0.337E+02-0.800E+00
CGA:  13    -0.311543860524E+03   -0.97869E+00   -0.10111E+01  9568   0.164E+02 0.535E+00
CGA:  14    -0.311887429659E+03   -0.34357E+00   -0.30883E+00  9568   0.530E+01 0.915E+00
CGA:  15    -0.312097004897E+03   -0.20958E+00   -0.21038E+00  9568   0.508E+01 0.362E+00
CGA:  16    -0.312240718589E+03   -0.14371E+00   -0.14126E+00  9568   0.468E+01-0.134E-01
CGA:  17    -0.312529285237E+03   -0.28857E+00   -0.27452E+00  9568   0.234E+01 0.564E+00
CGA:  18    -0.312574334780E+03   -0.45050E-01   -0.45211E-01  9568   0.104E+01-0.844E-02
CGA:  19    -0.312616614203E+03   -0.42279E-01   -0.42045E-01  9568   0.943E+00 0.531E-01
CGA:  20    -0.312650007888E+03   -0.33394E-01   -0.33577E-01  9568   0.962E+00 0.167E-01
CGA:  21    -0.312696374275E+03   -0.46366E-01   -0.45598E-01  9568   0.799E+00 0.592E-01
CGA:  22    -0.312713456364E+03   -0.17082E-01   -0.17157E-01  9568   0.273E+00-0.174E-02
CGA:  23    -0.312723229019E+03   -0.97727E-02   -0.97944E-02  9568   0.223E+00 0.730E-02
CGA:  24    -0.312731876372E+03   -0.86474E-02   -0.86480E-02  9568   0.197E+00-0.578E-03
CGA:  25    -0.312738762633E+03   -0.68863E-02   -0.68905E-02  9568   0.218E+00 0.921E-03
CGA:  26    -0.312746281370E+03   -0.75187E-02   -0.75240E-02  9568   0.684E-01 0.877E-03
CGA:  27    -0.312748402596E+03   -0.21212E-02   -0.21216E-02  9568   0.622E-01 0.382E-04
CGA:  28    -0.312750527196E+03   -0.21246E-02   -0.21247E-02  9568   0.429E-01 0.424E-04
CGA:  29    -0.312752165479E+03   -0.16383E-02   -0.16373E-02  9568   0.406E-01 0.372E-03
CGA:  30    -0.312753586089E+03   -0.14206E-02   -0.14214E-02  9568   0.253E-01 0.189E-03
CGA:  31    -0.312754330893E+03   -0.74480E-03   -0.74449E-03  9568   0.141E-01-0.641E-05
CGA:  32    -0.312754844222E+03   -0.51333E-03   -0.51331E-03  9568   0.160E-01 0.498E-04
CGA:  33    -0.312755432671E+03   -0.58845E-03   -0.58841E-03  9568   0.869E-02 0.556E-04
CGA:  34    -0.312755819313E+03   -0.38664E-03   -0.38617E-03  9568   0.103E-01 0.415E-04
CGA:  35    -0.312756101310E+03   -0.28200E-03   -0.28187E-03  9568   0.530E-02 0.243E-05
CGA:  36    -0.312756318928E+03   -0.21762E-03   -0.21740E-03  9568   0.541E-02 0.289E-04
SDA:  37    -0.312756529874E+03   -0.21095E-03   -0.21095E-03  9568   0.441E-02-0.506E-06
CGA:  38    -0.312756588460E+03   -0.58586E-04   -0.58540E-04  9568   0.961E-03-0.583E-06
CGA:  39    -0.312756643687E+03   -0.55227E-04   -0.55194E-04  9568   0.206E-02-0.156E-05
CGA:  40    -0.312756777616E+03   -0.13393E-03   -0.13342E-03  9568   0.332E-02 0.162E-04
CGA:  41    -0.312756914340E+03   -0.13672E-03   -0.13670E-03  9568   0.234E-02 0.373E-05
CGA:  42    -0.312757004241E+03   -0.89901E-04   -0.89901E-04  9568   0.975E-03 0.239E-05
CGA:  43    -0.312757097278E+03   -0.93037E-04   -0.92623E-04  9568   0.570E-03 0.671E-05
CGA:  44    -0.312757114169E+03   -0.16891E-04   -0.16925E-04  9568   0.654E-03 0.121E-05
CGA:  45    -0.312757141795E+03   -0.27627E-04   -0.27625E-04  9568   0.467E-03-0.213E-06
CGA:  46    -0.312757155705E+03   -0.13910E-04   -0.13926E-04  9568   0.408E-03 0.348E-06
CGA:  47    -0.312757173740E+03   -0.18035E-04   -0.18017E-04  9568   0.133E-03 0.319E-05
CGA:  48    -0.312757195865E+03   -0.22124E-04   -0.21947E-04  9568   0.246E-03 0.135E-05
CGA:  49    -0.312757202585E+03   -0.67201E-05   -0.67341E-05  9568   0.104E-03 0.336E-06
  16 F= -.31275720E+03 E0= -.31273606E+03  d E =0.211710E+00  mag=    25.8542
       N       E                     dE             d eps       ncg     rms          ort
SDA:   1    -0.244545615602E+03    0.68212E+02    0.00000E+00  9568   0.441E+03 0.000E+00
CGA:   2    -0.263557610903E+03   -0.19012E+02   -0.18791E+02  9568   0.938E+03-0.550E+02
CGA:   3    -0.276350097500E+03   -0.12792E+02   -0.16405E+02  9568   0.250E+03-0.228E+03
CGA:   4    -0.285522925387E+03   -0.91728E+01   -0.77715E+01  9568   0.461E+03-0.397E+03
CGA:   5    -0.289449027857E+03   -0.39261E+01   -0.99064E+01  9568   0.646E+03-0.363E+03
CGA:   6    -0.296378163299E+03   -0.69291E+01   -0.12233E+02  9568   0.686E+03-0.663E+03
CGA:   7    -0.296809542399E+03   -0.43138E+00   -0.12607E+02  9568   0.530E+03-0.445E+03
CGA:   8    -0.300770235978E+03   -0.39607E+01   -0.81734E+01  9568   0.351E+03-0.466E+03
CGA:   9    -0.302686149559E+03   -0.19159E+01   -0.54586E+01  9568   0.157E+03-0.177E+03
CGA:  10    -0.304269697779E+03   -0.15835E+01   -0.16421E+01  9568   0.201E+02 0.151E+01
CGA:  11    -0.308563576324E+03   -0.42939E+01   -0.16420E-01  9568   0.195E+03-0.128E+02
CGA:  12    -0.307333768907E+03    0.12298E+01   -0.55480E+01  9568   0.146E+03-0.461E+02
CGA:  13    -0.310222708894E+03   -0.28889E+01   -0.18569E+01  9568   0.434E+02 0.413E+02
CGA:  14    -0.310678335201E+03   -0.45563E+00   -0.40319E+00  9568   0.149E+02-0.635E+01
CGA:  15    -0.310787881922E+03   -0.10955E+00   -0.14370E+00  9568   0.212E+02-0.304E+01
CGA:  16    -0.310892746036E+03   -0.10486E+00   -0.97249E-01  9568   0.156E+02 0.115E+01
CGA:  17    -0.310987651743E+03   -0.94906E-01   -0.18720E+00  9568   0.314E+02-0.720E+01
CGA:  18    -0.311053666090E+03   -0.66014E-01   -0.22794E+00  9568   0.747E+02-0.974E+01
CGA:  19    -0.311295868688E+03   -0.24220E+00   -0.46585E+00  9568   0.786E+02-0.267E+02
CGA:  20    -0.311435007955E+03   -0.13914E+00   -0.38869E+00  9568   0.536E+02-0.437E+02
CGA:  21    -0.312330726464E+03   -0.89572E+00   -0.96190E+00  9568   0.801E+01-0.319E+01
CGA:  22    -0.312487181601E+03   -0.15646E+00   -0.15021E+00  9568   0.437E+01 0.981E-01
CGA:  23    -0.312569314381E+03   -0.82133E-01   -0.95027E-01  9568   0.417E+01-0.275E+00
CGA:  24    -0.312690632592E+03   -0.12132E+00   -0.12408E+00  9568   0.196E+01 0.446E-01
CGA:  25    -0.312751496415E+03   -0.60864E-01   -0.59779E-01  9568   0.133E+01-0.118E-01
CGA:  26    -0.312805948403E+03   -0.54452E-01   -0.54445E-01  9568   0.808E+00-0.325E-01
CGA:  27    -0.312841864534E+03   -0.35916E-01   -0.35929E-01  9568   0.109E+01-0.168E-02
CGA:  28    -0.312909825720E+03   -0.67961E-01   -0.65538E-01  9568   0.222E+01 0.101E+00
CGA:  29    -0.312962466091E+03   -0.52640E-01   -0.56564E-01  9568   0.137E+01-0.643E-01
CGA:  30    -0.312986137612E+03   -0.23672E-01   -0.24865E-01  9568   0.458E+00-0.365E-01
CGA:  31    -0.313008019546E+03   -0.21882E-01   -0.21843E-01  9568   0.544E+00 0.317E-02
CGA:  32    -0.313025064929E+03   -0.17045E-01   -0.17122E-01  9568   0.419E+00 0.161E-02
CGA:  33    -0.313035477980E+03   -0.10413E-01   -0.10566E-01  9568   0.315E+00-0.111E-02
CGA:  34    -0.313043645509E+03   -0.81675E-02   -0.83031E-02  9568   0.116E+00 0.178E-03
CGA:  35    -0.313047302738E+03   -0.36572E-02   -0.36516E-02  9568   0.678E-01-0.188E-03
CGA:  36    -0.313049480632E+03   -0.21779E-02   -0.21812E-02  9568   0.680E-01 0.148E-03
CGA:  37    -0.313051678604E+03   -0.21980E-02   -0.22048E-02  9568   0.594E-01 0.362E-03
CGA:  38    -0.313053379468E+03   -0.17009E-02   -0.17063E-02  9568   0.230E-01 0.943E-04
CGA:  39    -0.313054259874E+03   -0.88041E-03   -0.88010E-03  9568   0.222E-01 0.210E-03
CGA:  40    -0.313054980369E+03   -0.72049E-03   -0.72073E-03  9568   0.215E-01 0.519E-05
CGA:  41    -0.313055739790E+03   -0.75942E-03   -0.76019E-03  9568   0.230E-01 0.163E-03
CGA:  42    -0.313056711702E+03   -0.97191E-03   -0.97177E-03  9568   0.150E-01 0.865E-05
CGA:  43    -0.313057154672E+03   -0.44297E-03   -0.44326E-03  9568   0.929E-02-0.385E-05
CGA:  44    -0.313057464301E+03   -0.30963E-03   -0.30966E-03  9568   0.109E-01-0.384E-06
CGA:  45    -0.313057934726E+03   -0.47043E-03   -0.47043E-03  9568   0.120E-01-0.495E-05
CGA:  46    -0.313058424052E+03   -0.48933E-03   -0.48807E-03  9568   0.784E-02 0.214E-03
CGA:  47    -0.313058661691E+03   -0.23764E-03   -0.23723E-03  9568   0.556E-02-0.943E-05
CGA:  48    -0.313058829138E+03   -0.16745E-03   -0.16768E-03  9568   0.431E-02 0.156E-04
CGA:  49    -0.313058979491E+03   -0.15035E-03   -0.15039E-03  9568   0.317E-02 0.103E-04
CGA:  50    -0.313059105897E+03   -0.12641E-03   -0.12639E-03  9568   0.218E-02 0.616E-05
SDA:  51    -0.313059175454E+03   -0.69557E-04   -0.69610E-04  9568   0.199E-02 0.405E-05
CGA:  52    -0.313059203011E+03   -0.27557E-04   -0.27605E-04  9568   0.740E-03-0.720E-07
CGA:  53    -0.313059255961E+03   -0.52950E-04   -0.52834E-04  9568   0.745E-03 0.235E-05
CGA:  54    -0.313059318169E+03   -0.62207E-04   -0.62298E-04  9568   0.150E-02-0.290E-05
CGA:  55    -0.313059356572E+03   -0.38403E-04   -0.38421E-04  9568   0.728E-03 0.131E-05
CGA:  56    -0.313059400668E+03   -0.44096E-04   -0.44009E-04  9568   0.170E-02 0.387E-05
CGA:  57    -0.313059446647E+03   -0.45979E-04   -0.46164E-04  9568   0.758E-03 0.481E-05
CGA:  58    -0.313059468908E+03   -0.22261E-04   -0.22267E-04  9568   0.445E-03 0.314E-05
CGA:  59    -0.313059526998E+03   -0.58089E-04   -0.56804E-04  9568   0.498E-03 0.150E-04
CGA:  60    -0.313059542527E+03   -0.15529E-04   -0.15527E-04  9568   0.637E-03 0.109E-05
CGA:  61    -0.313059564448E+03   -0.21921E-04   -0.21949E-04  9568   0.317E-03 0.805E-06
CGA:  62    -0.313059579042E+03   -0.14595E-04   -0.14604E-04  9568   0.460E-03-0.204E-05
CGA:  63    -0.313059594773E+03   -0.15731E-04   -0.15721E-04  9568   0.184E-03-0.301E-05
CGA:  64    -0.313059605280E+03   -0.10507E-04   -0.10521E-04  9568   0.180E-03-0.126E-05
CGA:  65    -0.313059611481E+03   -0.62009E-05   -0.61985E-05  9568   0.153E-03-0.870E-06
  17 F= -.31305961E+03 E0= -.31303738E+03  d E =-.302409E+00  mag=    25.8844
       N       E                     dE             d eps       ncg     rms          ort
SDA:   1    -0.312675021883E+03    0.38458E+00    0.00000E+00  9568   0.458E+01 0.000E+00
CGA:   2    -0.312741781392E+03   -0.66760E-01   -0.61705E-01  9568   0.142E+01 0.254E+00
CGA:   3    -0.312842816462E+03   -0.10104E+00   -0.10083E+00  9568   0.251E+01 0.795E-02
CGA:   4    -0.312928077940E+03   -0.85261E-01   -0.85479E-01  9568   0.132E+01 0.702E-02
CGA:   5    -0.312950316684E+03   -0.22239E-01   -0.22718E-01  9568   0.667E+00-0.180E-01
CGA:   6    -0.312991347099E+03   -0.41030E-01   -0.41542E-01  9568   0.979E+00-0.191E-01
CGA:   7    -0.313016822812E+03   -0.25476E-01   -0.25546E-01  9568   0.601E+00-0.120E-03
CGA:   8    -0.313035572287E+03   -0.18749E-01   -0.18777E-01  9568   0.302E+00 0.624E-03
CGA:   9    -0.313040843713E+03   -0.52714E-02   -0.51169E-02  9568   0.115E+00 0.568E-02
CGA:  10    -0.313050932576E+03   -0.10089E-01   -0.10102E-01  9568   0.856E-01-0.303E-03
CGA:  11    -0.313053523629E+03   -0.25911E-02   -0.25930E-02  9568   0.880E-01 0.294E-04
CGA:  12    -0.313055387129E+03   -0.18635E-02   -0.18656E-02  9568   0.212E-01-0.499E-04
CGA:  13    -0.313056316953E+03   -0.92982E-03   -0.92969E-03  9568   0.203E-01 0.230E-04
[...]
CGA:   5    -0.312752722094E+03   -0.16726E+00   -0.16712E+00  9568   0.714E+01 0.316E-01
CGA:   6    -0.312991220174E+03   -0.23850E+00   -0.24243E+00  9568   0.272E+01 0.162E+00
CGA:   7    -0.313091050016E+03   -0.99830E-01   -0.98919E-01  9568   0.150E+01-0.678E-01
CGA:   8    -0.313120594114E+03   -0.29544E-01   -0.30130E-01  9568   0.114E+01-0.139E-01
CGA:   9    -0.313175883705E+03   -0.55290E-01   -0.55119E-01  9568   0.760E+00 0.128E-01
CGA:  10    -0.313198290407E+03   -0.22407E-01   -0.22249E-01  9568   0.423E+00-0.195E-02
CGA:  11    -0.313206936902E+03   -0.86465E-02   -0.84899E-02  9568   0.147E+00 0.357E-02
CGA:  12    -0.313211966518E+03   -0.50296E-02   -0.50328E-02  9568   0.185E+00 0.267E-03
CGA:  13    -0.313218116852E+03   -0.61503E-02   -0.61746E-02  9568   0.124E+00 0.194E-02
CGA:  14    -0.313222804159E+03   -0.46873E-02   -0.46869E-02  9568   0.543E-01-0.548E-03
CGA:  15    -0.313223822904E+03   -0.10187E-02   -0.10108E-02  9568   0.312E-01 0.213E-03
CGA:  16    -0.313225069325E+03   -0.12464E-02   -0.12460E-02  9568   0.226E-01 0.926E-04
CGA:  17    -0.313226242945E+03   -0.11736E-02   -0.11706E-02  9568   0.350E-01 0.164E-03
CGA:  18    -0.313227111315E+03   -0.86837E-03   -0.86594E-03  9568   0.135E-01 0.445E-05
CGA:  19    -0.313227475663E+03   -0.36435E-03   -0.36547E-03  9568   0.969E-02 0.217E-04
CGA:  20    -0.313227760453E+03   -0.28479E-03   -0.28517E-03  9568   0.761E-02 0.195E-04
CGA:  21    -0.313228161463E+03   -0.40101E-03   -0.40163E-03  9568   0.543E-02-0.308E-04
CGA:  22    -0.313228360640E+03   -0.19918E-03   -0.19918E-03  9568   0.838E-02 0.169E-04
CGA:  23    -0.313228591076E+03   -0.23044E-03   -0.23067E-03  9568   0.309E-02 0.544E-05
CGA:  24    -0.313228715569E+03   -0.12449E-03   -0.12447E-03  9568   0.251E-02 0.392E-05
CGA:  25    -0.313228793278E+03   -0.77710E-04   -0.77644E-04  9568   0.206E-02-0.425E-05
CGA:  26    -0.313228877774E+03   -0.84496E-04   -0.84474E-04  9568   0.201E-02 0.322E-05
CGA:  27    -0.313228945110E+03   -0.67336E-04   -0.67361E-04  9568   0.243E-02 0.505E-05
CGA:  28    -0.313229016283E+03   -0.71172E-04   -0.71121E-04  9568   0.561E-03-0.320E-05
CGA:  29    -0.313229045466E+03   -0.29183E-04   -0.29171E-04  9568   0.639E-03 0.478E-06
CGA:  30    -0.313229067683E+03   -0.22217E-04   -0.22224E-04  9568   0.875E-03 0.239E-05
CGA:  31    -0.313229098786E+03   -0.31102E-04   -0.31103E-04  9568   0.542E-03 0.432E-07
SDA:  32    -0.313229115588E+03   -0.16803E-04   -0.16804E-04  9568   0.351E-03-0.629E-07
CGA:  33    -0.313229121080E+03   -0.54917E-05   -0.55059E-05  9568   0.827E-04-0.113E-07
 158 F= -.31322912E+03 E0= -.31320757E+03  d E =0.505630E-02  mag=    25.9163
       N       E                     dE             d eps       ncg     rms          ort
SDA:   1    -0.312087605636E+03    0.11415E+01    0.00000E+00  9568   0.104E+02 0.000E+00
CGA:   2    -0.312253202031E+03   -0.16560E+00   -0.18643E+00  9568   0.675E+01-0.721E+00
CGA:   3    -0.312674696042E+03   -0.42149E+00   -0.42407E+00  9568   0.706E+01-0.778E-01
CGA:   4    -0.312822958101E+03   -0.14826E+00   -0.15744E+00  9568   0.269E+01-0.142E+00
CGA:   5    -0.312912876391E+03   -0.89918E-01   -0.89239E-01  9568   0.248E+01-0.564E-01
CGA:   6    -0.313043959644E+03   -0.13108E+00   -0.13031E+00  9568   0.377E+01 0.404E-01
CGA:   7    -0.313132644851E+03   -0.88685E-01   -0.89182E-01  9568   0.112E+01-0.676E-02
CGA:   8    -0.313170080151E+03   -0.37435E-01   -0.37133E-01  9568   0.512E+00-0.223E-01
CGA:   9    -0.313190775759E+03   -0.20696E-01   -0.20720E-01  9568   0.822E+00-0.414E-02
CGA:  10    -0.313215714017E+03   -0.24938E-01   -0.24954E-01  9568   0.234E+00 0.682E-03
CGA:  11    -0.313222059085E+03   -0.63451E-02   -0.62754E-02  9568   0.138E+00-0.631E-03
CGA:  12    -0.313226802784E+03   -0.47437E-02   -0.47450E-02  9568   0.738E-01 0.225E-03
CGA:  13    -0.313229858941E+03   -0.30562E-02   -0.30557E-02  9568   0.894E-01 0.545E-04
CGA:  14    -0.313232328018E+03   -0.24691E-02   -0.24731E-02  9568   0.490E-01 0.771E-04
CGA:  15    -0.313234040794E+03   -0.17128E-02   -0.17119E-02  9568   0.232E-01-0.218E-03
CGA:  16    -0.313234884215E+03   -0.84342E-03   -0.84344E-03  9568   0.183E-01 0.186E-03
CGA:  17    -0.313235384615E+03   -0.50040E-03   -0.50083E-03  9568   0.121E-01 0.128E-04
CGA:  18    -0.313236059781E+03   -0.67517E-03   -0.67400E-03  9568   0.206E-01 0.560E-04
CGA:  19    -0.313236613083E+03   -0.55330E-03   -0.55222E-03  9568   0.586E-02-0.910E-05
CGA:  20    -0.313236872260E+03   -0.25918E-03   -0.25881E-03  9568   0.573E-02 0.356E-04
CGA:  21    -0.313237036966E+03   -0.16471E-03   -0.16469E-03  9568   0.505E-02-0.142E-06
CGA:  22    -0.313237290519E+03   -0.25355E-03   -0.25345E-03  9568   0.487E-02 0.731E-05
CGA:  23    -0.313237442485E+03   -0.15197E-03   -0.15200E-03  9568   0.308E-02 0.370E-05
CGA:  24    -0.313237551173E+03   -0.10869E-03   -0.10870E-03  9568   0.220E-02 0.533E-05
CGA:  25    -0.313237623427E+03   -0.72253E-04   -0.72227E-04  9568   0.159E-02-0.284E-05
CGA:  26    -0.313237666873E+03   -0.43447E-04   -0.43480E-04  9568   0.103E-02 0.149E-05
CGA:  27    -0.313237735602E+03   -0.68729E-04   -0.68743E-04  9568   0.127E-02-0.677E-06
CGA:  28    -0.313237771509E+03   -0.35907E-04   -0.35934E-04  9568   0.800E-03 0.236E-05
CGA:  29    -0.313237792950E+03   -0.21441E-04   -0.21446E-04  9568   0.282E-03-0.159E-06
CGA:  30    -0.313237802638E+03   -0.96881E-05   -0.96882E-05  9568   0.349E-03-0.363E-06
CGA:  31    -0.313237823861E+03   -0.21223E-04   -0.21246E-04  9568   0.298E-03-0.115E-05
SDA:  32    -0.313237831820E+03   -0.79586E-05   -0.79569E-05  9568   0.180E-03-0.251E-06
 159 F= -.31323783E+03 E0= -.31321625E+03  d E =-.871074E-02  mag=    25.9131
       N       E                     dE             d eps       ncg     rms          ort
SDA:   1    -0.313048919112E+03    0.18890E+00    0.00000E+00  9568   0.116E+01 0.000E+00
CGA:   2    -0.313072643958E+03   -0.23725E-01   -0.23515E-01  9568   0.105E+01 0.304E-02
CGA:   3    -0.313153716951E+03   -0.81073E-01   -0.81236E-01  9568   0.478E+00-0.405E-02
CGA:   4    -0.313179033402E+03   -0.25316E-01   -0.25699E-01  9568   0.596E+00-0.187E-01
CGA:   5    -0.313193132924E+03   -0.14100E-01   -0.14286E-01  9568   0.438E+00-0.429E-03
CGA:   6    -0.313213418157E+03   -0.20285E-01   -0.20234E-01  9568   0.378E+00 0.408E-02
CGA:   7    -0.313222158979E+03   -0.87408E-02   -0.86373E-02  9568   0.128E+00 0.118E-02
CGA:   8    -0.313226907251E+03   -0.47483E-02   -0.47481E-02  9568   0.738E-01-0.347E-03
CGA:   9    -0.313230771089E+03   -0.38638E-02   -0.38581E-02  9568   0.524E-01 0.295E-03
CGA:  10    -0.313232533619E+03   -0.17625E-02   -0.17616E-02  9568   0.446E-01-0.741E-04
CGA:  11    -0.313233383250E+03   -0.84963E-03   -0.84870E-03  9568   0.108E-01 0.278E-04
CGA:  12    -0.313234081134E+03   -0.69788E-03   -0.69681E-03  9568   0.663E-02 0.374E-04
CGA:  13    -0.313234559242E+03   -0.47811E-03   -0.47781E-03  9568   0.820E-02 0.801E-05
CGA:  14    -0.313234742324E+03   -0.18308E-03   -0.18350E-03  9568   0.325E-02-0.200E-05
CGA:  15    -0.313234893974E+03   -0.15165E-03   -0.15153E-03  9568   0.236E-02 0.109E-04
CGA:  16    -0.313234941807E+03   -0.47833E-04   -0.47737E-04  9568   0.150E-02 0.451E-06
CGA:  17    -0.313235065154E+03   -0.12335E-03   -0.12318E-03  9568   0.123E-02 0.370E-05
CGA:  18    -0.313235113835E+03   -0.48681E-04   -0.48684E-04  9568   0.549E-03 0.185E-05
CGA:  19    -0.313235143886E+03   -0.30051E-04   -0.30052E-04  9568   0.583E-03-0.191E-06
CGA:  20    -0.313235163639E+03   -0.19753E-04   -0.19755E-04  9568   0.785E-03 0.364E-06
CGA:  21    -0.313235190833E+03   -0.27194E-04   -0.27212E-04  9568   0.320E-03 0.211E-05
CGA:  22    -0.313235204962E+03   -0.14129E-04   -0.14132E-04  9568   0.337E-03-0.983E-06
CGA:  23    -0.313235214344E+03   -0.93816E-05   -0.93976E-05  9568   0.154E-03 0.841E-06
CGA:  24    -0.313235225381E+03   -0.11037E-04   -0.11002E-04  9568   0.108E-03 0.106E-05
CGA:  25    -0.313235230315E+03   -0.49342E-05   -0.49332E-05  9568   0.222E-03 0.197E-06
 160 F= -.31323523E+03 E0= -.31321363E+03  d E =0.260151E-02  mag=    25.9111
       N       E                     dE             d eps       ncg     rms          ort
SDA:   1    -0.313139624818E+03    0.95601E-01    0.00000E+00  9568   0.516E+00 0.000E+00
CGA:   2    -0.313161816951E+03   -0.22192E-01   -0.22248E-01  9568   0.634E+00-0.165E-01
CGA:   3    -0.313184950870E+03   -0.23134E-01   -0.23151E-01  9568   0.564E+00 0.196E-02
CGA:   4    -0.313202838176E+03   -0.17887E-01   -0.17987E-01  9568   0.305E+00 0.216E-02
CGA:   5    -0.313211236148E+03   -0.83980E-02   -0.83961E-02  9568   0.220E+00 0.749E-04
CGA:   6    -0.313219028766E+03   -0.77926E-02   -0.77835E-02  9568   0.180E+00-0.713E-03
CGA:   7    -0.313230549651E+03   -0.11521E-01   -0.11519E-01  9568   0.692E-01 0.653E-04
CGA:   8    -0.313232331172E+03   -0.17815E-02   -0.17794E-02  9568   0.539E-01 0.129E-04
CGA:   9    -0.313233946459E+03   -0.16153E-02   -0.16218E-02  9568   0.267E-01 0.116E-03
CGA:  10    -0.313235380831E+03   -0.14344E-02   -0.14329E-02  9568   0.327E-01 0.891E-04
CGA:  11    -0.313236083670E+03   -0.70284E-03   -0.70095E-03  9568   0.679E-02 0.253E-04
CGA:  12    -0.313236363708E+03   -0.28004E-03   -0.28005E-03  9568   0.471E-02-0.175E-05
CGA:  13    -0.313236496257E+03   -0.13255E-03   -0.13257E-03  9568   0.515E-02 0.991E-06
CGA:  14    -0.313236772089E+03   -0.27583E-03   -0.27567E-03  9568   0.294E-02 0.965E-05
CGA:  15    -0.313236854089E+03   -0.82001E-04   -0.81857E-04  9568   0.905E-03-0.246E-05
CGA:  16    -0.313236884179E+03   -0.30090E-04   -0.30103E-04  9568   0.125E-02 0.182E-05
CGA:  17    -0.313236942405E+03   -0.58226E-04   -0.58240E-04  9568   0.834E-03-0.149E-05
CGA:  18    -0.313236972861E+03   -0.30457E-04   -0.30457E-04  9568   0.939E-03-0.465E-07
CGA:  19    -0.313237000634E+03   -0.27772E-04   -0.27753E-04  9568   0.219E-03 0.958E-08
CGA:  20    -0.313237012380E+03   -0.11747E-04   -0.11729E-04  9568   0.439E-03 0.114E-05
CGA:  21    -0.313237025236E+03   -0.12856E-04   -0.12847E-04  9568   0.278E-03-0.698E-06
CGA:  22    -0.313237040746E+03   -0.15510E-04   -0.15516E-04  9568   0.201E-03-0.316E-06
CGA:  23    -0.313237046893E+03   -0.61467E-05   -0.61460E-05  9568   0.130E-03-0.722E-07
 161 F= -.31323705E+03 E0= -.31321546E+03  d E =-.181658E-02  mag=    25.9121
       N       E                     dE             d eps       ncg     rms          ort
SDA:   1    -0.313225512703E+03    0.11528E-01    0.00000E+00  9568   0.333E+00 0.000E+00
CGA:   2    -0.313229993943E+03   -0.44812E-02   -0.45691E-02  9568   0.621E-01-0.468E-02
CGA:   3    -0.313231533788E+03   -0.15398E-02   -0.15451E-02  9568   0.319E-01 0.573E-05
CGA:   4    -0.313234124039E+03   -0.25903E-02   -0.25937E-02  9568   0.250E-01-0.786E-04
CGA:   5    -0.313235155970E+03   -0.10319E-02   -0.10319E-02  9568   0.223E-01 0.121E-04
CGA:   6    -0.313235597721E+03   -0.44175E-03   -0.44365E-03  9568   0.105E-01-0.379E-04
CGA:   7    -0.313236603300E+03   -0.10056E-02   -0.10088E-02  9568   0.116E-01-0.621E-04
CGA:   8    -0.313236874871E+03   -0.27157E-03   -0.27225E-03  9568   0.498E-02-0.832E-05
CGA:   9    -0.313237023420E+03   -0.14855E-03   -0.14853E-03  9568   0.313E-02 0.951E-06
CGA:  10    -0.313237138984E+03   -0.11556E-03   -0.11557E-03  9568   0.277E-02 0.197E-05
CGA:  11    -0.313237213560E+03   -0.74576E-04   -0.74496E-04  9568   0.138E-02-0.281E-05
CGA:  12    -0.313237272161E+03   -0.58601E-04   -0.58589E-04  9568   0.616E-03 0.284E-05
CGA:  13    -0.313237292858E+03   -0.20697E-04   -0.20697E-04  9568   0.539E-03 0.244E-07
CGA:  14    -0.313237305080E+03   -0.12223E-04   -0.12227E-04  9568   0.230E-03 0.505E-06
CGA:  15    -0.313237324986E+03   -0.19906E-04   -0.19975E-04  9568   0.233E-03-0.140E-05
CGA:  16    -0.313237330810E+03   -0.58236E-05   -0.58195E-05  9568   0.150E-03-0.212E-06
 162 F= -.31323733E+03 E0= -.31321574E+03  d E =-.283917E-03  mag=    25.9119
       N       E                     dE             d eps       ncg     rms          ort
SDA:   1    -0.313215931759E+03    0.21393E-01    0.00000E+00  9568   0.426E+00 0.000E+00
CGA:   2    -0.313221701761E+03   -0.57700E-02   -0.55735E-02  9568   0.818E-01 0.111E-01
CGA:   3    -0.313225073198E+03   -0.33714E-02   -0.33754E-02  9568   0.106E+00-0.905E-03
CGA:   4    -0.313230201247E+03   -0.51280E-02   -0.51209E-02  9568   0.852E-01 0.484E-03
CGA:   5    -0.313232149244E+03   -0.19480E-02   -0.19478E-02  9568   0.274E-01-0.908E-05
CGA:   6    -0.313233929530E+03   -0.17803E-02   -0.17830E-02  9568   0.546E-01-0.806E-04
CGA:   7    -0.313235208976E+03   -0.12794E-02   -0.12769E-02  9568   0.327E-01 0.145E-04
CGA:   8    -0.313236426771E+03   -0.12178E-02   -0.12179E-02  9568   0.718E-02 0.471E-04
CGA:   9    -0.313236899890E+03   -0.47312E-03   -0.47280E-03  9568   0.616E-02 0.121E-04
CGA:  10    -0.313237051851E+03   -0.15196E-03   -0.15178E-03  9568   0.560E-02-0.311E-05
CGA:  11    -0.313237262741E+03   -0.21089E-03   -0.21090E-03  9568   0.245E-02 0.262E-05
CGA:  12    -0.313237336003E+03   -0.73262E-04   -0.73331E-04  9568   0.132E-02 0.316E-05
CGA:  13    -0.313237381165E+03   -0.45162E-04   -0.45149E-04  9568   0.815E-03-0.133E-05
CGA:  14    -0.313237411821E+03   -0.30656E-04   -0.30656E-04  9568   0.567E-03 0.810E-06
CGA:  15    -0.313237442406E+03   -0.30585E-04   -0.30601E-04  9568   0.903E-03-0.701E-06
CGA:  16    -0.313237458623E+03   -0.16217E-04   -0.16250E-04  9568   0.160E-03 0.194E-07
CGA:  17    -0.313237469378E+03   -0.10755E-04   -0.10754E-04  9568   0.129E-03 0.468E-07
CGA:  18    -0.313237477168E+03   -0.77899E-05   -0.77973E-05  9568   0.237E-03-0.259E-06
 163 F= -.31323748E+03 E0= -.31321588E+03  d E =-.146358E-03  mag=    25.9118
       N       E                     dE             d eps       ncg     rms          ort
SDA:   1    -0.313229044847E+03    0.84245E-02    0.00000E+00  9568   0.188E+00 0.000E+00
CGA:   2    -0.313231388253E+03   -0.23434E-02   -0.23351E-02  9568   0.364E-01 0.505E-03
CGA:   3    -0.313233195707E+03   -0.18075E-02   -0.18046E-02  9568   0.267E-01 0.197E-03
CGA:   4    -0.313235068596E+03   -0.18729E-02   -0.18736E-02  9568   0.214E-01-0.213E-04
CGA:   5    -0.313235638248E+03   -0.56965E-03   -0.57059E-03  9568   0.134E-01 0.282E-05
CGA:   6    -0.313236351178E+03   -0.71293E-03   -0.71471E-03  9568   0.118E-01-0.978E-04
CGA:   7    -0.313236820836E+03   -0.46966E-03   -0.46966E-03  9568   0.815E-02 0.220E-04
CGA:   8    -0.313237063690E+03   -0.24285E-03   -0.24321E-03  9568   0.758E-02 0.874E-05
CGA:   9    -0.313237255455E+03   -0.19176E-03   -0.19151E-03  9568   0.176E-02-0.126E-05
CGA:  10    -0.313237368028E+03   -0.11257E-03   -0.11233E-03  9568   0.983E-03 0.892E-05
CGA:  11    -0.313237403677E+03   -0.35649E-04   -0.35633E-04  9568   0.125E-02-0.274E-05
CGA:  12    -0.313237447789E+03   -0.44112E-04   -0.44116E-04  9568   0.427E-03 0.559E-06
CGA:  13    -0.313237457255E+03   -0.94660E-05   -0.94660E-05  9568   0.296E-03 0.745E-07
CGA:  14    -0.313237470981E+03   -0.13726E-04   -0.13722E-04  9568   0.167E-03 0.504E-06
CGA:  15    -0.313237481056E+03   -0.10075E-04   -0.10091E-04  9568   0.955E-04-0.711E-06
CGA:  16    -0.313237484242E+03   -0.31856E-05   -0.31861E-05  9568   0.138E-03 0.419E-07
 164 F= -.31323748E+03 E0= -.31321590E+03  d E =-.707434E-05  mag=    25.9117
       N       E                     dE             d eps       ncg     rms          ort
SDA:   1    -0.313226884090E+03    0.10597E-01    0.00000E+00  9568   0.335E+00 0.000E+00
CGA:   2    -0.313231009504E+03   -0.41254E-02   -0.40921E-02  9568   0.393E-01 0.196E-02
CGA:   3    -0.313232152608E+03   -0.11431E-02   -0.11497E-02  9568   0.286E-01 0.127E-03
CGA:   4    -0.313233811072E+03   -0.16585E-02   -0.16527E-02  9568   0.479E-01 0.250E-03
CGA:   5    -0.313235544368E+03   -0.17333E-02   -0.17320E-02  9568   0.225E-01-0.175E-03
CGA:   6    -0.313236371108E+03   -0.82674E-03   -0.82678E-03  9568   0.688E-02 0.123E-04
CGA:   7    -0.313236780893E+03   -0.40979E-03   -0.41019E-03  9568   0.148E-01-0.142E-04
CGA:   8    -0.313237091424E+03   -0.31053E-03   -0.31094E-03  9568   0.403E-02-0.462E-05
CGA:   9    -0.313237270667E+03   -0.17924E-03   -0.17928E-03  9568   0.144E-02-0.445E-05
CGA:  10    -0.313237321452E+03   -0.50785E-04   -0.50764E-04  9568   0.143E-02-0.280E-05
CGA:  11    -0.313237372594E+03   -0.51142E-04   -0.51157E-04  9568   0.480E-03 0.316E-05
CGA:  12    -0.313237408193E+03   -0.35599E-04   -0.35655E-04  9568   0.393E-03-0.158E-05
CGA:  13    -0.313237416510E+03   -0.83174E-05   -0.83329E-05  9568   0.284E-03 0.620E-06
CGA:  14    -0.313237427982E+03   -0.11472E-04   -0.11472E-04  9568   0.842E-04 0.414E-06
CGA:  15    -0.313237431945E+03   -0.39624E-05   -0.39671E-05  9568   0.149E-03-0.637E-06
 165 F= -.31323743E+03 E0= -.31321586E+03  d E =0.522975E-04  mag=    25.9117
       N       E                     dE             d eps       ncg     rms          ort
SDA:   1    -0.313227609734E+03    0.98182E-02    0.00000E+00  9568   0.147E+00 0.000E+00
CGA:   2    -0.313230069954E+03   -0.24602E-02   -0.25091E-02  9568   0.529E-01-0.185E-02
CGA:   3    -0.313231480152E+03   -0.14102E-02   -0.14020E-02  9568   0.323E-01-0.195E-04
CGA:   4    -0.313233561133E+03   -0.20810E-02   -0.20905E-02  9568   0.479E-01-0.325E-03
CGA:   5    -0.313235045439E+03   -0.14843E-02   -0.14870E-02  9568   0.237E-01 0.877E-04
CGA:   6    -0.313235797725E+03   -0.75229E-03   -0.75196E-03  9568   0.107E-01-0.986E-05
CGA:   7    -0.313236504703E+03   -0.70698E-03   -0.70554E-03  9568   0.616E-02 0.489E-04
CGA:   8    -0.313236914871E+03   -0.41017E-03   -0.40990E-03  9568   0.418E-02 0.872E-05
CGA:   9    -0.313237002116E+03   -0.87246E-04   -0.86960E-04  9568   0.252E-02 0.541E-05
CGA:  10    -0.313237088774E+03   -0.86658E-04   -0.86672E-04  9568   0.985E-03 0.886E-06
CGA:  11    -0.313237120285E+03   -0.31510E-04   -0.31479E-04  9568   0.963E-03-0.184E-05
CGA:  12    -0.313237168042E+03   -0.47757E-04   -0.47731E-04  9568   0.556E-03 0.255E-05
CGA:  13    -0.313237185746E+03   -0.17704E-04   -0.17693E-04  9568   0.159E-03-0.610E-06
CGA:  14    -0.313237195911E+03   -0.10166E-04   -0.10146E-04  9568   0.194E-03 0.809E-06
CGA:  15    -0.313237201053E+03   -0.51419E-05   -0.51366E-05  9568   0.181E-03-0.265E-06
 166 F= -.31323720E+03 E0= -.31321563E+03  d E =0.230891E-03  mag=    25.9121
       N       E                     dE             d eps       ncg     rms          ort
SDA:   1    -0.313226493625E+03    0.10702E-01    0.00000E+00  9568   0.303E+00 0.000E+00
CGA:   2    -0.313230474019E+03   -0.39804E-02   -0.39680E-02  9568   0.357E-01 0.657E-03
CGA:   3    -0.313231637665E+03   -0.11636E-02   -0.11628E-02  9568   0.381E-01-0.337E-04
CGA:   4    -0.313233100589E+03   -0.14629E-02   -0.14630E-02  9568   0.423E-01 0.200E-03
CGA:   5    -0.313235047860E+03   -0.19473E-02   -0.19471E-02  9568   0.190E-01 0.117E-04
CGA:   6    -0.313235834360E+03   -0.78650E-03   -0.78674E-03  9568   0.102E-01-0.546E-04
CGA:   7    -0.313236312562E+03   -0.47820E-03   -0.47760E-03  9568   0.108E-01 0.520E-04
CGA:   8    -0.313236515744E+03   -0.20318E-03   -0.20316E-03  9568   0.432E-02-0.355E-06
CGA:   9    -0.313236783040E+03   -0.26730E-03   -0.26713E-03  9568   0.181E-02 0.711E-05
CGA:  10    -0.313236848476E+03   -0.65436E-04   -0.65402E-04  9568   0.157E-02-0.437E-05
CGA:  11    -0.313236892362E+03   -0.43886E-04   -0.43983E-04  9568   0.495E-03 0.281E-05
CGA:  12    -0.313236927568E+03   -0.35206E-04   -0.35224E-04  9568   0.775E-03-0.533E-06
CGA:  13    -0.313236940530E+03   -0.12962E-04   -0.12986E-04  9568   0.208E-03 0.702E-07
CGA:  14    -0.313236954306E+03   -0.13776E-04   -0.13760E-04  9568   0.121E-03 0.553E-06
CGA:  15    -0.313236959819E+03   -0.55131E-05   -0.55161E-05  9568   0.896E-04-0.651E-06
 167 F= -.31323696E+03 E0= -.31321541E+03  d E =0.241234E-03  mag=    25.9121
