       N       E                     dE             d eps       ncg     rms          ort
DAV:   1     0.954620535331E+04    0.95462E+04   -0.30248E+05 24304   0.205E+03
DAV:   2     0.124303333379E+04   -0.83032E+04   -0.75772E+04 24304   0.555E+02
DAV:   3    -0.308187133274E+03   -0.15512E+04   -0.14446E+04 24304   0.252E+02
DAV:   4    -0.404745868200E+03   -0.96559E+02   -0.95526E+02 24304   0.631E+01
DAV:   5    -0.406241639424E+03   -0.14958E+01   -0.14858E+01 24304   0.814E+00
SDA:   6    -0.750958336659E+01    0.39873E+03   -0.14858E+01 24304   0.494E+04 0.000E+00
CGA:   7    -0.495658511157E+02   -0.42056E+02   -0.21471E+03 24304   0.830E+04-0.336E+04
CGA:   8     0.118774126811E+03    0.16834E+03   -0.47253E+03 24304   0.124E+05-0.457E+04
CGA:   9     0.306761662851E+03    0.18799E+03   -0.58863E+03 24304   0.215E+05-0.167E+05
CGA:  10     0.695446751217E+03    0.38869E+03   -0.12408E+04 24304   0.253E+05-0.191E+05
CGA:  11     0.809801976875E+03    0.11436E+03   -0.14112E+04 24304   0.346E+05-0.324E+05
CGA:  12     0.106021367670E+04    0.25041E+03   -0.20562E+04 24304   0.380E+05-0.337E+05
CGA:  13     0.124351169160E+04    0.18330E+03   -0.22654E+04 24304   0.705E+05-0.684E+05
CGA:  14     0.160003806391E+04    0.35653E+03   -0.45313E+04 24304   0.543E+05-0.475E+05
CGA:  15     0.192481526316E+04    0.32478E+03   -0.33469E+04 24304   0.109E+06-0.995E+05
CGA:  16     0.179822695265E+04   -0.12659E+03   -0.70855E+04 24304   0.105E+05-0.934E+04
CGA:  17     0.596184970839E+01   -0.17923E+04   -0.31775E+03 24304   0.104E+05 0.248E+05
CGA:  18    -0.568345349398E+01   -0.11645E+02   -0.34981E+03 24304   0.106E+05-0.840E+04
CGA:  19     0.143974517322E+03    0.14966E+03   -0.41168E+03 24304   0.114E+05-0.823E+04
CGA:  20    -0.348978726953E+02   -0.17887E+03   -0.32940E+03 24304   0.999E+04-0.127E+05
CGA:  21     0.622779326024E+02    0.97176E+02   -0.32382E+03 24304   0.106E+05-0.898E+04
CGA:  22    -0.769849183629E+02   -0.13926E+03   -0.27292E+03 24304   0.988E+04-0.120E+05
CGA:  23     0.147279212925E+02    0.91713E+02   -0.30140E+03 24304   0.110E+05-0.931E+04
CGA:  24    -0.835005083295E+02   -0.98228E+02   -0.27975E+03 24304   0.916E+04-0.109E+05
CGA:  25    -0.441398247367E+02    0.39361E+02   -0.25534E+03 24304   0.112E+05-0.105E+05
CGA:  26    -0.639527304740E+02   -0.19813E+02   -0.29849E+03 24304   0.926E+04-0.946E+04
CGA:  27    -0.834720072859E+02   -0.19519E+02   -0.24302E+03 24304   0.104E+05-0.110E+05
CGA:  28    -0.597257455084E+02    0.23746E+02   -0.28337E+03 24304   0.981E+04-0.906E+04
CGA:  29    -0.959370067453E+02   -0.36211E+02   -0.24824E+03 24304   0.105E+05-0.113E+05
CGA:  30    -0.656969866044E+02    0.30240E+02   -0.28185E+03 24304   0.101E+05-0.936E+04
CGA:  31    -0.874742232994E+02   -0.21777E+02   -0.25526E+03 24304   0.108E+05-0.113E+05
CGA:  32    -0.674220987994E+02    0.20052E+02   -0.28821E+03 24304   0.101E+05-0.959E+04
CGA:  33    -0.884392769774E+02   -0.21017E+02   -0.25523E+03 24304   0.109E+05-0.113E+05
CGA:  34    -0.845607550508E+02    0.38785E+01   -0.28191E+03 24304   0.968E+04-0.959E+04
CGA:  35    -0.117136581312E+03   -0.32576E+02   -0.23520E+03 24304   0.110E+05-0.119E+05
CGA:  36    -0.980322421701E+02    0.19104E+02   -0.28240E+03 24304   0.960E+04-0.910E+04
CGA:  37    -0.133958202425E+03   -0.35926E+02   -0.22660E+03 24304   0.112E+05-0.122E+05
CGA:  38    -0.128470185998E+03    0.54880E+01   -0.26834E+03 24304   0.981E+04-0.955E+04
CGA:  39    -0.148063332280E+03   -0.19593E+02   -0.22463E+03 24304   0.113E+05-0.119E+05
CGA:  40    -0.153762028893E+03   -0.56987E+01   -0.25652E+03 24304   0.101E+05-0.102E+05
CGA:  41    -0.171163909641E+03   -0.17402E+02   -0.22242E+03 24304   0.105E+05-0.112E+05
CGA:  42    -0.195811036081E+03   -0.24647E+02   -0.22291E+03 24304   0.829E+04-0.915E+04
CGA:  43    -0.228729406306E+03   -0.32918E+02   -0.16641E+03 24304   0.686E+04-0.809E+04
CGA:  44    -0.263932104937E+03   -0.35203E+02   -0.12521E+03 24304   0.400E+04-0.527E+04
CGA:  45    -0.294783337546E+03   -0.30851E+02   -0.63371E+02 24304   0.172E+04-0.282E+04
CGA:  46    -0.308780649600E+03   -0.13997E+02   -0.23129E+02 24304   0.369E+03-0.805E+03
CGA:  47    -0.312117201191E+03   -0.33366E+01   -0.28422E+01 24304   0.183E+02 0.294E+02
CGA:  48    -0.312325628250E+03   -0.20843E+00   -0.21077E+00 24304   0.406E+01-0.203E+00
CGA:  49    -0.312534481284E+03   -0.20885E+00   -0.20849E+00 24304   0.158E+02 0.360E-01
CGA:  50    -0.313246674914E+03   -0.71219E+00   -0.75597E+00 24304   0.196E+02-0.163E+02
CGA:  51    -0.313441091560E+03   -0.19442E+00   -0.21600E+00 24304   0.200E+01-0.172E+01
CGA:  52    -0.313560052854E+03   -0.11896E+00   -0.11801E+00 24304   0.713E+01 0.379E-01
CGA:  53    -0.313950175676E+03   -0.39012E+00   -0.40641E+00 24304   0.467E+01-0.136E+01
CGA:  54    -0.313992081629E+03   -0.41906E-01   -0.40962E-01 24304   0.995E+00 0.786E-01
CGA:  55    -0.314017273474E+03   -0.25192E-01   -0.25488E-01 24304   0.192E+01-0.332E-02
CGA:  56    -0.314119407105E+03   -0.10213E+00   -0.10070E+00 24304   0.475E+01 0.988E-01
CGA:  57    -0.314202458567E+03   -0.83051E-01   -0.72969E-01 24304   0.102E+01 0.727E+00
CGA:  58    -0.314221369641E+03   -0.18911E-01   -0.19118E-01 24304   0.616E+00-0.735E-02
CGA:  59    -0.314249152856E+03   -0.27783E-01   -0.27613E-01 24304   0.186E+01 0.215E-01
CGA:  60    -0.314321215358E+03   -0.72063E-01   -0.71719E-01 24304   0.110E+01-0.143E-01
CGA:  61    -0.314336903543E+03   -0.15688E-01   -0.15677E-01 24304   0.282E+00 0.768E-02
CGA:  62    -0.314348405233E+03   -0.11502E-01   -0.11488E-01 24304   0.726E+00 0.686E-02
CGA:  63    -0.314397946431E+03   -0.49541E-01   -0.46962E-01 24304   0.969E+00 0.845E-01
CGA:  64    -0.314424296019E+03   -0.26350E-01   -0.26565E-01 24304   0.389E+00 0.652E-03
CGA:  65    -0.314443172903E+03   -0.18877E-01   -0.18844E-01 24304   0.847E+00 0.219E-02
CGA:  66    -0.314496757360E+03   -0.53584E-01   -0.54216E-01 24304   0.148E+01-0.270E-01
CGA:  67    -0.314531843816E+03   -0.35086E-01   -0.34867E-01 24304   0.439E+00 0.205E-02
CGA:  68    -0.314547005196E+03   -0.15161E-01   -0.15252E-01 24304   0.576E+00 0.476E-02
CGA:  69    -0.314583529436E+03   -0.36524E-01   -0.35644E-01 24304   0.109E+01 0.327E-01
CGA:  70    -0.314624885695E+03   -0.41356E-01   -0.41349E-01 24304   0.562E+00-0.625E-03
CGA:  71    -0.314647184371E+03   -0.22299E-01   -0.22291E-01 24304   0.683E+00-0.236E-02
CGA:  72    -0.314690714306E+03   -0.43530E-01   -0.43081E-01 24304   0.129E+01 0.127E-01
CGA:  73    -0.314739760418E+03   -0.49046E-01   -0.49046E-01 24304   0.715E+00 0.333E-03
CGA:  74    -0.314764785622E+03   -0.25025E-01   -0.25264E-01 24304   0.592E+00 0.121E-01
CGA:  75    -0.314792838360E+03   -0.28053E-01   -0.28088E-01 24304   0.743E+00-0.399E-02
CGA:  76    -0.314834428057E+03   -0.41590E-01   -0.40875E-01 24304   0.922E+00 0.362E-01
CGA:  77    -0.314879746431E+03   -0.45318E-01   -0.45239E-01 24304   0.745E+00 0.112E-01
CGA:  78    -0.314903707722E+03   -0.23961E-01   -0.23717E-01 24304   0.550E+00-0.405E-02
CGA:  79    -0.314934677610E+03   -0.30970E-01   -0.31119E-01 24304   0.743E+00-0.942E-02
CGA:  80    -0.314959631253E+03   -0.24954E-01   -0.25406E-01 24304   0.521E+00 0.164E-01
SDA:  81    -0.314979041975E+03   -0.19411E-01   -0.19480E-01 24304   0.409E+00 0.473E-02
CGA:  82    -0.314993719137E+03   -0.14677E-01   -0.14685E-01 24304   0.456E+00 0.489E-03
CGA:  83    -0.315060481526E+03   -0.66762E-01   -0.65585E-01 24304   0.178E+01 0.123E-01
CGA:  84    -0.315130074638E+03   -0.69593E-01   -0.69504E-01 24304   0.615E+00-0.243E-02
CGA:  85    -0.315155624820E+03   -0.25550E-01   -0.25491E-01 24304   0.581E+00-0.442E-02
CGA:  86    -0.315198887663E+03   -0.43263E-01   -0.43837E-01 24304   0.729E+00-0.171E-01
CGA:  87    -0.315232561261E+03   -0.33674E-01   -0.33672E-01 24304   0.351E+00-0.375E-02
CGA:  88    -0.315242368675E+03   -0.98074E-02   -0.97861E-02 24304   0.142E+00 0.867E-04
CGA:  89    -0.315248141499E+03   -0.57728E-02   -0.57671E-02 24304   0.154E+00-0.328E-03
CGA:  90    -0.315266492702E+03   -0.18351E-01   -0.18479E-01 24304   0.182E+00-0.203E-02
CGA:  91    -0.315271508794E+03   -0.50161E-02   -0.49955E-02 24304   0.745E-01 0.288E-03
CGA:  92    -0.315276326578E+03   -0.48178E-02   -0.48224E-02 24304   0.167E+00-0.247E-03
CGA:  93    -0.315290236019E+03   -0.13909E-01   -0.13942E-01 24304   0.252E+00-0.104E-02
CGA:  94    -0.315296160533E+03   -0.59245E-02   -0.57987E-02 24304   0.489E-01 0.300E-02
CGA:  95    -0.315298746837E+03   -0.25863E-02   -0.25869E-02 24304   0.708E-01-0.151E-03
CGA:  96    -0.315304820675E+03   -0.60738E-02   -0.61165E-02 24304   0.136E+00-0.109E-02
CGA:  97    -0.315310734205E+03   -0.59135E-02   -0.58923E-02 24304   0.898E-01-0.751E-03
CGA:  98    -0.315313168694E+03   -0.24345E-02   -0.24436E-02 24304   0.408E-01-0.153E-03
CGA:  99    -0.315315052923E+03   -0.18842E-02   -0.18836E-02 24304   0.629E-01-0.811E-04
CGA: 100    -0.315322730878E+03   -0.76780E-02   -0.77968E-02 24304   0.105E+00-0.185E-02
CGA: 101    -0.315324892171E+03   -0.21613E-02   -0.21154E-02 24304   0.229E-01 0.144E-02
CGA: 102    -0.315326344447E+03   -0.14523E-02   -0.14497E-02 24304   0.518E-01 0.164E-03
CGA: 103    -0.315330057066E+03   -0.37126E-02   -0.37402E-02 24304   0.991E-01-0.115E-02
CGA: 104    -0.315333975751E+03   -0.39187E-02   -0.38660E-02 24304   0.644E-01-0.418E-03
CGA: 105    -0.315335683337E+03   -0.17076E-02   -0.17266E-02 24304   0.280E-01-0.302E-03
CGA: 106    -0.315337175153E+03   -0.14918E-02   -0.14920E-02 24304   0.604E-01-0.653E-04
CGA: 107    -0.315341183431E+03   -0.40083E-02   -0.40799E-02 24304   0.102E+00-0.351E-02
CGA: 108    -0.315343479079E+03   -0.22956E-02   -0.22961E-02 24304   0.363E-01 0.593E-03
CGA: 109    -0.315344379600E+03   -0.90052E-03   -0.92584E-03 24304   0.298E-01-0.430E-03
CGA: 110    -0.315346362176E+03   -0.19826E-02   -0.19825E-02 24304   0.755E-01-0.310E-05
CGA: 111    -0.315348974456E+03   -0.26123E-02   -0.24659E-02 24304   0.696E-01 0.722E-03
SDA: 112    -0.315350611058E+03   -0.16366E-02   -0.16360E-02 24304   0.442E-01 0.469E-03
CGA: 113    -0.315351734840E+03   -0.11238E-02   -0.11244E-02 24304   0.165E-01-0.265E-04
CGA: 114    -0.315353295336E+03   -0.15605E-02   -0.15649E-02 24304   0.371E-01-0.962E-04
CGA: 115    -0.315356023992E+03   -0.27287E-02   -0.27268E-02 24304   0.565E-01 0.437E-04
CGA: 116    -0.315358423205E+03   -0.23992E-02   -0.24036E-02 24304   0.191E-01 0.136E-03
CGA: 117    -0.315359515135E+03   -0.10919E-02   -0.10905E-02 24304   0.305E-01 0.142E-03
CGA: 118    -0.315362717582E+03   -0.32024E-02   -0.32418E-02 24304   0.460E-01-0.812E-03
CGA: 119    -0.315363806294E+03   -0.10887E-02   -0.10926E-02 24304   0.968E-02-0.462E-04
CGA: 120    -0.315364341910E+03   -0.53562E-03   -0.53531E-03 24304   0.175E-01 0.479E-04
CGA: 121    -0.315366070417E+03   -0.17285E-02   -0.17484E-02 24304   0.159E-01-0.436E-03
CGA: 122    -0.315366552237E+03   -0.48182E-03   -0.47931E-03 24304   0.761E-02 0.195E-04
CGA: 123    -0.315366955789E+03   -0.40355E-03   -0.40353E-03 24304   0.106E-01-0.137E-04
CGA: 124    -0.315367656844E+03   -0.70105E-03   -0.70007E-03 24304   0.186E-01 0.668E-04
CGA: 125    -0.315368659274E+03   -0.10024E-02   -0.10023E-02 24304   0.791E-02-0.469E-04
CGA: 126    -0.315368906652E+03   -0.24738E-03   -0.24803E-03 24304   0.476E-02 0.182E-04
CGA: 127    -0.315369399565E+03   -0.49291E-03   -0.49048E-03 24304   0.165E-01 0.455E-04
CGA: 128    -0.315370244184E+03   -0.84462E-03   -0.84294E-03 24304   0.106E-01-0.102E-03
CGA: 129    -0.315370546686E+03   -0.30250E-03   -0.30291E-03 24304   0.352E-02 0.252E-04
CGA: 130    -0.315370736846E+03   -0.19016E-03   -0.19016E-03 24304   0.450E-02 0.216E-04
CGA: 131    -0.315371084138E+03   -0.34729E-03   -0.34645E-03 24304   0.105E-01 0.364E-04
CGA: 132    -0.315371558996E+03   -0.47486E-03   -0.47449E-03 24304   0.416E-02 0.337E-04
CGA: 133    -0.315371665447E+03   -0.10645E-03   -0.10677E-03 24304   0.161E-02 0.801E-05
CGA: 134    -0.315371894976E+03   -0.22953E-03   -0.22775E-03 24304   0.877E-02 0.193E-04
CGA: 135    -0.315372336072E+03   -0.44110E-03   -0.43971E-03 24304   0.472E-02-0.517E-04
CGA: 136    -0.315372474513E+03   -0.13844E-03   -0.13840E-03 24304   0.184E-02 0.395E-05
CGA: 137    -0.315372630439E+03   -0.15593E-03   -0.15544E-03 24304   0.487E-02 0.126E-04
CGA: 138    -0.315372951515E+03   -0.32108E-03   -0.32155E-03 24304   0.981E-02-0.344E-04
CGA: 139    -0.315373434756E+03   -0.48324E-03   -0.47995E-03 24304   0.493E-02-0.117E-03
CGA: 140    -0.315373573362E+03   -0.13861E-03   -0.13945E-03 24304   0.202E-02-0.996E-05
CGA: 141    -0.315373691427E+03   -0.11807E-03   -0.11804E-03 24304   0.505E-02 0.635E-05
CGA: 142    -0.315374239838E+03   -0.54841E-03   -0.55668E-03 24304   0.106E-01-0.162E-03
SDA: 143    -0.315374517886E+03   -0.27805E-03   -0.27750E-03 24304   0.281E-02 0.547E-04
CGA: 144    -0.315374630044E+03   -0.11216E-03   -0.11217E-03 24304   0.330E-02-0.487E-06
CGA: 145    -0.315374911244E+03   -0.28120E-03   -0.28000E-03 24304   0.619E-02 0.346E-04
CGA: 146    -0.315375224055E+03   -0.31281E-03   -0.31283E-03 24304   0.292E-02 0.880E-05
CGA: 147    -0.315375338063E+03   -0.11401E-03   -0.11424E-03 24304   0.154E-02 0.527E-05
CGA: 148    -0.315375537648E+03   -0.19959E-03   -0.19857E-03 24304   0.721E-02 0.120E-04
CGA: 149    -0.315375953353E+03   -0.41570E-03   -0.41622E-03 24304   0.318E-02 0.113E-03
CGA: 150    -0.315376044099E+03   -0.90746E-04   -0.90930E-04 24304   0.106E-02 0.651E-05
CGA: 151    -0.315376194158E+03   -0.15006E-03   -0.15071E-03 24304   0.433E-02-0.960E-05
CGA: 152    -0.315376455683E+03   -0.26153E-03   -0.26153E-03 24304   0.447E-02 0.411E-05
CGA: 153    -0.315376639086E+03   -0.18340E-03   -0.18326E-03 24304   0.135E-02 0.208E-05
CGA: 154    -0.315376712086E+03   -0.73000E-04   -0.72989E-04 24304   0.222E-02-0.126E-05
CGA: 155    -0.315377190618E+03   -0.47853E-03   -0.48471E-03 24304   0.828E-02-0.513E-04
CGA: 156    -0.315377407331E+03   -0.21671E-03   -0.21604E-03 24304   0.165E-02 0.126E-04
CGA: 157    -0.315377547317E+03   -0.13999E-03   -0.14023E-03 24304   0.442E-02-0.122E-04
CGA: 158    -0.315377908079E+03   -0.36076E-03   -0.36014E-03 24304   0.647E-02 0.206E-04
CGA: 159    -0.315378183121E+03   -0.27504E-03   -0.27193E-03 24304   0.196E-02 0.345E-05
CGA: 160    -0.315378261789E+03   -0.78669E-04   -0.78819E-04 24304   0.142E-02-0.884E-06
CGA: 161    -0.315378491607E+03   -0.22982E-03   -0.22918E-03 24304   0.489E-02 0.324E-05
CGA: 162    -0.315378652836E+03   -0.16123E-03   -0.16161E-03 24304   0.792E-03 0.110E-04
CGA: 163    -0.315378708551E+03   -0.55715E-04   -0.55710E-04 24304   0.189E-02-0.205E-06
CGA: 164    -0.315378877778E+03   -0.16923E-03   -0.16965E-03 24304   0.159E-02-0.177E-04
CGA: 165    -0.315378944882E+03   -0.67104E-04   -0.67078E-04 24304   0.975E-03 0.568E-06
CGA: 166    -0.315378997706E+03   -0.52825E-04   -0.52970E-04 24304   0.134E-02 0.665E-05
CGA: 167    -0.315379152369E+03   -0.15466E-03   -0.15268E-03 24304   0.323E-02 0.413E-04
CGA: 168    -0.315379270306E+03   -0.11794E-03   -0.11707E-03 24304   0.792E-03 0.417E-04
CGA: 169    -0.315379309246E+03   -0.38940E-04   -0.39067E-04 24304   0.129E-02 0.356E-05
CGA: 170    -0.315379478744E+03   -0.16950E-03   -0.16953E-03 24304   0.227E-02-0.103E-05
CGA: 171    -0.315379547321E+03   -0.68577E-04   -0.69068E-04 24304   0.647E-03-0.144E-05
CGA: 172    -0.315379585420E+03   -0.38099E-04   -0.38108E-04 24304   0.962E-03 0.133E-05
CGA: 173    -0.315379695288E+03   -0.10987E-03   -0.10939E-03 24304   0.226E-02 0.965E-05
SDA: 174    -0.315379817548E+03   -0.12226E-03   -0.12239E-03 24304   0.523E-03 0.896E-05
CGA: 175    -0.315379833914E+03   -0.16367E-04   -0.16329E-04 24304   0.391E-03-0.129E-05
CGA: 176    -0.315379920373E+03   -0.86459E-04   -0.87784E-04 24304   0.101E-02-0.902E-05
CGA: 177    -0.315379946616E+03   -0.26243E-04   -0.26101E-04 24304   0.284E-03-0.242E-05
CGA: 178    -0.315379971166E+03   -0.24551E-04   -0.24618E-04 24304   0.720E-03-0.509E-05
CGA: 179    -0.315380025647E+03   -0.54480E-04   -0.54520E-04 24304   0.110E-02-0.119E-04
CGA: 180    -0.315380077603E+03   -0.51956E-04   -0.51447E-04 24304   0.471E-03-0.102E-04
CGA: 181    -0.315380092303E+03   -0.14700E-04   -0.14654E-04 24304   0.296E-03-0.120E-05
CGA: 182    -0.315380126007E+03   -0.33704E-04   -0.33519E-04 24304   0.885E-03 0.418E-05
CGA: 183    -0.315380170011E+03   -0.44003E-04   -0.44185E-04 24304   0.178E-03 0.804E-05
CGA: 184    -0.315380181089E+03   -0.11078E-04   -0.11076E-04 24304   0.319E-03-0.306E-06
CGA: 185    -0.315380212131E+03   -0.31042E-04   -0.31088E-04 24304   0.481E-03-0.197E-05
CGA: 186    -0.315380227911E+03   -0.15781E-04   -0.15766E-04 24304   0.189E-03-0.691E-06
CGA: 187    -0.315380236255E+03   -0.83433E-05   -0.83693E-05 24304   0.163E-03 0.977E-06
CGA: 188    -0.315380256009E+03   -0.19754E-04   -0.19357E-04 24304   0.580E-03 0.788E-05
CGA: 189    -0.315380281561E+03   -0.25552E-04   -0.25790E-04 24304   0.142E-03 0.975E-05
CGA: 190    -0.315380286936E+03   -0.53755E-05   -0.54146E-05 24304   0.122E-03 0.106E-05
CGA: 191    -0.315380306692E+03   -0.19756E-04   -0.19685E-04 24304   0.440E-03 0.652E-06
CGA: 192    -0.315380323732E+03   -0.17040E-04   -0.17072E-04 24304   0.106E-03-0.270E-06
CGA: 193    -0.315380328721E+03   -0.49894E-05   -0.49776E-05 24304   0.810E-04-0.488E-06
   1 F= -.31538033E+03 E0= -.31534912E+03  d E =-.315380E+03  mag=    49.3424
       N       E                     dE             d eps       ncg     rms          ort
SDA:   1    -0.315384714344E+03   -0.43906E-02    0.00000E+00 24304   0.674E+00 0.000E+00
CGA:   2    -0.315394602662E+03   -0.98883E-02   -0.98845E-02 24304   0.214E-01-0.190E-03
CGA:   3    -0.315395250568E+03   -0.64791E-03   -0.64280E-03 24304   0.389E-02 0.907E-04
CGA:   4    -0.315395423248E+03   -0.17268E-03   -0.17260E-03 24304   0.394E-02-0.269E-05
CGA:   5    -0.315395820207E+03   -0.39696E-03   -0.39716E-03 24304   0.587E-02-0.547E-05
CGA:   6    -0.315395979618E+03   -0.15941E-03   -0.15935E-03 24304   0.781E-03-0.292E-06
CGA:   7    -0.315396015213E+03   -0.35595E-04   -0.35644E-04 24304   0.807E-03 0.275E-05
CGA:   8    -0.315396068597E+03   -0.53384E-04   -0.53362E-04 24304   0.507E-03 0.690E-05
CGA:   9    -0.315396086532E+03   -0.17935E-04   -0.17962E-04 24304   0.137E-03 0.105E-05
CGA:  10    -0.315396091720E+03   -0.51875E-05   -0.51678E-05 24304   0.968E-04-0.831E-06
   2 F= -.31539609E+03 E0= -.31536487E+03  d E =-.157630E-01  mag=    49.3430
       N       E                     dE             d eps       ncg     rms          ort
SDA:   1    -0.311848998678E+03    0.35471E+01    0.00000E+00 24304   0.213E+02 0.000E+00
CGA:   2    -0.312505090057E+03   -0.65609E+00   -0.69694E+00 24304   0.185E+02-0.577E+00
CGA:   3    -0.315105030342E+03   -0.25999E+01   -0.26173E+01 24304   0.310E+02-0.281E+00
CGA:   4    -0.315690119471E+03   -0.58509E+00   -0.54986E+00 24304   0.292E+01 0.155E+01
CGA:   5    -0.315827762099E+03   -0.13764E+00   -0.13895E+00 24304   0.505E+01 0.931E-02
CGA:   6    -0.316090130440E+03   -0.26237E+00   -0.26225E+00 24304   0.360E+01-0.407E-02
CGA:   7    -0.316179317616E+03   -0.89187E-01   -0.89815E-01 24304   0.115E+01-0.166E-01
CGA:   8    -0.316214716866E+03   -0.35399E-01   -0.35412E-01 24304   0.598E+00 0.418E-03
CGA:   9    -0.316236994725E+03   -0.22278E-01   -0.22287E-01 24304   0.572E+00 0.257E-04
CGA:  10    -0.316264686169E+03   -0.27691E-01   -0.27719E-01 24304   0.473E+00 0.106E-02
CGA:  11    -0.316275864929E+03   -0.11179E-01   -0.11325E-01 24304   0.780E-01-0.357E-02
CGA:  12    -0.316278852152E+03   -0.29872E-02   -0.29902E-02 24304   0.994E-01 0.118E-04
CGA:  13    -0.316286075118E+03   -0.72230E-02   -0.72135E-02 24304   0.134E+00 0.344E-03
CGA:  14    -0.316289527266E+03   -0.34521E-02   -0.34779E-02 24304   0.276E-01-0.514E-03
CGA:  15    -0.316290471661E+03   -0.94440E-03   -0.94645E-03 24304   0.195E-01 0.637E-05
CGA:  16    -0.316291492441E+03   -0.10208E-02   -0.10208E-02 24304   0.242E-01 0.527E-04
CGA:  17    -0.316292890847E+03   -0.13984E-02   -0.13979E-02 24304   0.321E-01 0.695E-04
CGA:  18    -0.316293822477E+03   -0.93163E-03   -0.93340E-03 24304   0.502E-02 0.312E-05
CGA:  19    -0.316294061614E+03   -0.23914E-03   -0.23915E-03 24304   0.766E-02-0.348E-05
CGA:  20    -0.316294531788E+03   -0.47017E-03   -0.47026E-03 24304   0.931E-02-0.141E-04
CGA:  21    -0.316294840959E+03   -0.30917E-03   -0.30931E-03 24304   0.354E-02-0.105E-04
CGA:  22    -0.316294964531E+03   -0.12357E-03   -0.12361E-03 24304   0.186E-02 0.315E-05
CGA:  23    -0.316295056262E+03   -0.91731E-04   -0.91748E-04 24304   0.252E-02 0.156E-04
CGA:  24    -0.316295190554E+03   -0.13429E-03   -0.13419E-03 24304   0.191E-02 0.363E-04
CGA:  25    -0.316295240964E+03   -0.50410E-04   -0.50730E-04 24304   0.540E-03 0.115E-04
CGA:  26    -0.316295275009E+03   -0.34046E-04   -0.33978E-04 24304   0.854E-03 0.365E-05
CGA:  27    -0.316295315243E+03   -0.40234E-04   -0.40249E-04 24304   0.761E-03 0.325E-05
CGA:  28    -0.316295345722E+03   -0.30478E-04   -0.30495E-04 24304   0.390E-03 0.103E-05
CGA:  29    -0.316295357708E+03   -0.11986E-04   -0.12003E-04 24304   0.212E-03-0.650E-07
CGA:  30    -0.316295377134E+03   -0.19426E-04   -0.19249E-04 24304   0.558E-03 0.333E-05
CGA:  31    -0.316295401796E+03   -0.24662E-04   -0.24694E-04 24304   0.214E-03 0.408E-05
SDA:  32    -0.316295407780E+03   -0.59834E-05   -0.59917E-05 24304   0.127E-03-0.408E-06
   3 F= -.31629541E+03 E0= -.31626408E+03  d E =-.899316E+00  mag=    49.3212
       N       E                     dE             d eps       ncg     rms          ort
SDA:   1    -0.293120015206E+03    0.23175E+02    0.00000E+00 24304   0.215E+03 0.000E+00
CGA:   2    -0.297848128160E+03   -0.47281E+01   -0.49357E+01 24304   0.772E+02-0.586E+01
CGA:   3    -0.308357713373E+03   -0.10510E+02   -0.10935E+02 24304   0.258E+03-0.762E+01
CGA:   4    -0.313762339912E+03   -0.54046E+01   -0.46439E+01 24304   0.566E+02 0.292E+02
CGA:   5    -0.314601812900E+03   -0.83947E+00   -0.89500E+00 24304   0.193E+02-0.319E+01
CGA:   6    -0.315347653563E+03   -0.74584E+00   -0.74628E+00 24304   0.300E+02 0.152E-01
CGA:   7    -0.316406266216E+03   -0.10586E+01   -0.10561E+01 24304   0.268E+02-0.436E-01
CGA:   8    -0.316923626303E+03   -0.51736E+00   -0.54413E+00 24304   0.114E+02-0.902E+00
CGA:   9    -0.317193785000E+03   -0.27016E+00   -0.26354E+00 24304   0.452E+01 0.142E+00
CGA:  10    -0.317294388874E+03   -0.10060E+00   -0.99805E-01 24304   0.250E+01 0.172E-01
CGA:  11    -0.317387029566E+03   -0.92641E-01   -0.93233E-01 24304   0.393E+01 0.308E-01
CGA:  12    -0.317539037191E+03   -0.15201E+00   -0.15292E+00 24304   0.210E+01 0.742E-01
CGA:  13    -0.317579749996E+03   -0.40713E-01   -0.40777E-01 24304   0.475E+00-0.121E-04
CGA:  14    -0.317593913192E+03   -0.14163E-01   -0.14306E-01 24304   0.520E+00 0.181E-02
CGA:  15    -0.317630154861E+03   -0.36242E-01   -0.35621E-01 24304   0.748E+00 0.199E-01
CGA:  16    -0.317651984769E+03   -0.21830E-01   -0.21906E-01 24304   0.290E+00 0.183E-03
CGA:  17    -0.317659748303E+03   -0.77635E-02   -0.78754E-02 24304   0.141E+00-0.108E-03
CGA:  18    -0.317665631931E+03   -0.58836E-02   -0.58827E-02 24304   0.136E+00 0.893E-03
CGA:  19    -0.317672887150E+03   -0.72552E-02   -0.72439E-02 24304   0.167E+00 0.690E-03
CGA:  20    -0.317678149012E+03   -0.52619E-02   -0.53031E-02 24304   0.587E-01 0.811E-03
CGA:  21    -0.317679907824E+03   -0.17588E-02   -0.17615E-02 24304   0.383E-01 0.172E-04
CGA:  22    -0.317682465376E+03   -0.25576E-02   -0.25544E-02 24304   0.596E-01 0.970E-04
CGA:  23    -0.317684786230E+03   -0.23209E-02   -0.23239E-02 24304   0.292E-01 0.396E-03
CGA:  24    -0.317685638145E+03   -0.85191E-03   -0.85282E-03 24304   0.126E-01 0.749E-06
CGA:  25    -0.317686115573E+03   -0.47743E-03   -0.47756E-03 24304   0.101E-01 0.242E-04
CGA:  26    -0.317686840642E+03   -0.72507E-03   -0.71988E-03 24304   0.166E-01 0.162E-03
CGA:  27    -0.317687486985E+03   -0.64634E-03   -0.64676E-03 24304   0.701E-02 0.743E-04
CGA:  28    -0.317687673448E+03   -0.18646E-03   -0.18691E-03 24304   0.313E-02 0.165E-04
CGA:  29    -0.317687864376E+03   -0.19093E-03   -0.19030E-03 24304   0.439E-02 0.291E-04
CGA:  30    -0.317688091090E+03   -0.22671E-03   -0.22651E-03 24304   0.369E-02 0.199E-04
CGA:  31    -0.317688215924E+03   -0.12483E-03   -0.12496E-03 24304   0.176E-02 0.922E-05
SDA:  32    -0.317688271713E+03   -0.55790E-04   -0.55878E-04 24304   0.100E-02 0.518E-05
CGA:  33    -0.317688297704E+03   -0.25991E-04   -0.26005E-04 24304   0.592E-03-0.741E-06
CGA:  34    -0.317688377836E+03   -0.80132E-04   -0.79638E-04 24304   0.169E-02 0.436E-05
CGA:  35    -0.317688458398E+03   -0.80561E-04   -0.80556E-04 24304   0.130E-02 0.218E-05
CGA:  36    -0.317688501981E+03   -0.43584E-04   -0.43573E-04 24304   0.422E-03-0.137E-05
CGA:  37    -0.317688538907E+03   -0.36925E-04   -0.37038E-04 24304   0.128E-02-0.339E-05
CGA:  38    -0.317688627142E+03   -0.88235E-04   -0.88382E-04 24304   0.597E-03-0.715E-05
CGA:  39    -0.317688647853E+03   -0.20712E-04   -0.20746E-04 24304   0.449E-03 0.173E-05
CGA:  40    -0.317688693426E+03   -0.45573E-04   -0.44837E-04 24304   0.758E-03 0.136E-04
CGA:  41    -0.317688737386E+03   -0.43960E-04   -0.43909E-04 24304   0.471E-03 0.885E-05
CGA:  42    -0.317688754593E+03   -0.17207E-04   -0.17230E-04 24304   0.228E-03 0.870E-06
CGA:  43    -0.317688777503E+03   -0.22909E-04   -0.23180E-04 24304   0.793E-03-0.575E-05
CGA:  44    -0.317688816712E+03   -0.39210E-04   -0.39190E-04 24304   0.252E-03-0.114E-04
CGA:  45    -0.317688825281E+03   -0.85691E-05   -0.85376E-05 24304   0.201E-03-0.220E-05
CGA:  46    -0.317688852807E+03   -0.27526E-04   -0.27452E-04 24304   0.662E-03 0.454E-06
CGA:  47    -0.317688877652E+03   -0.24845E-04   -0.24882E-04 24304   0.238E-03 0.130E-05
CGA:  48    -0.317688888493E+03   -0.10841E-04   -0.10847E-04 24304   0.116E-03 0.268E-06
CGA:  49    -0.317688898773E+03   -0.10280E-04   -0.10307E-04 24304   0.317E-03-0.117E-05
CGA:  50    -0.317688922849E+03   -0.24076E-04   -0.24165E-04 24304   0.202E-03-0.433E-05
CGA:  51    -0.317688928831E+03   -0.59819E-05   -0.59823E-05 24304   0.966E-04-0.504E-06
   4 F= -.31768893E+03 E0= -.31765738E+03  d E =-.139352E+01  mag=    49.2860
       N       E                     dE             d eps       ncg     rms          ort
SDA:   1    -0.313596165467E+03    0.40928E+01    0.00000E+00 24304   0.296E+02 0.000E+00
CGA:   2    -0.314308531106E+03   -0.71237E+00   -0.75117E+00 24304   0.163E+02-0.960E+00
CGA:   3    -0.316333410315E+03   -0.20249E+01   -0.20267E+01 24304   0.396E+02-0.235E-01
CGA:   4    -0.317380072580E+03   -0.10467E+01   -0.98601E+00 24304   0.407E+01 0.160E+01
CGA:   5    -0.317607665771E+03   -0.22759E+00   -0.22778E+00 24304   0.494E+01 0.195E-01
CGA:   6    -0.317865235854E+03   -0.25757E+00   -0.25783E+00 24304   0.324E+01 0.172E-01
CGA:   7    -0.318001262993E+03   -0.13603E+00   -0.13465E+00 24304   0.106E+01-0.863E-02
CGA:   8    -0.318036685555E+03   -0.35423E-01   -0.35380E-01 24304   0.476E+00 0.288E-03
CGA:   9    -0.318074772314E+03   -0.38087E-01   -0.38049E-01 24304   0.684E+00 0.131E-02
CGA:  10    -0.318095287534E+03   -0.20515E-01   -0.20534E-01 24304   0.750E-01-0.122E-03
CGA:  11    -0.318099822224E+03   -0.45347E-02   -0.45341E-02 24304   0.106E+00 0.666E-04
CGA:  12    -0.318106291233E+03   -0.64690E-02   -0.64680E-02 24304   0.913E-01 0.127E-03
CGA:  13    -0.318109797697E+03   -0.35065E-02   -0.35157E-02 24304   0.370E-01 0.523E-04
CGA:  14    -0.318110819744E+03   -0.10220E-02   -0.10246E-02 24304   0.137E-01-0.285E-04
CGA:  15    -0.318112155074E+03   -0.13353E-02   -0.13313E-02 24304   0.355E-01 0.845E-04
CGA:  16    -0.318113580897E+03   -0.14258E-02   -0.14271E-02 24304   0.106E-01 0.290E-04
CGA:  17    -0.318114000889E+03   -0.41999E-03   -0.41997E-03 24304   0.559E-02 0.167E-05
CGA:  18    -0.318114254803E+03   -0.25391E-03   -0.25396E-03 24304   0.579E-02 0.314E-06
CGA:  19    -0.318114874844E+03   -0.62004E-03   -0.61910E-03 24304   0.515E-02 0.163E-04
CGA:  20    -0.318115016741E+03   -0.14190E-03   -0.14212E-03 24304   0.130E-02-0.550E-06
CGA:  21    -0.318115129302E+03   -0.11256E-03   -0.11222E-03 24304   0.240E-02 0.973E-05
CGA:  22    -0.318115228413E+03   -0.99111E-04   -0.99325E-04 24304   0.190E-02 0.111E-04
CGA:  23    -0.318115312503E+03   -0.84091E-04   -0.84269E-04 24304   0.511E-03 0.118E-04
CGA:  24    -0.318115331406E+03   -0.18903E-04   -0.18937E-04 24304   0.402E-03 0.838E-06
CGA:  25    -0.318115376204E+03   -0.44798E-04   -0.44723E-04 24304   0.641E-03 0.641E-06
CGA:  26    -0.318115394858E+03   -0.18653E-04   -0.18683E-04 24304   0.186E-03 0.308E-06
CGA:  27    -0.318115406928E+03   -0.12070E-04   -0.12039E-04 24304   0.188E-03 0.269E-05
CGA:  28    -0.318115419861E+03   -0.12933E-04   -0.12884E-04 24304   0.284E-03 0.380E-05
CGA:  29    -0.318115435286E+03   -0.15425E-04   -0.15440E-04 24304   0.142E-03 0.380E-05
CGA:  30    -0.318115440057E+03   -0.47709E-05   -0.47781E-05 24304   0.110E-03-0.172E-06
CGA:  31    -0.318115454680E+03   -0.14623E-04   -0.14843E-04 24304   0.250E-03-0.316E-05
SDA:  32    -0.318115463512E+03   -0.88321E-05   -0.87861E-05 24304   0.129E-03-0.222E-05
   5 F= -.31811546E+03 E0= -.31808393E+03  d E =-.426535E+00  mag=    49.2944
       N       E                     dE             d eps       ncg     rms          ort
SDA:   1    -0.275264279876E+03    0.42851E+02    0.00000E+00 24304   0.624E+03 0.000E+00
CGA:   2    -0.287345677090E+03   -0.12081E+02   -0.12982E+02 24304   0.139E+03-0.477E+02
CGA:   3    -0.297166372663E+03   -0.98207E+01   -0.10027E+02 24304   0.299E+03-0.815E+01
CGA:   4    -0.310165767796E+03   -0.12999E+02   -0.11729E+02 24304   0.109E+03 0.194E-02
CGA:   5    -0.312465847815E+03   -0.23001E+01   -0.20791E+01 24304   0.471E+02 0.176E+01
CGA:   6    -0.313856819679E+03   -0.13910E+01   -0.14831E+01 24304   0.569E+02-0.930E+00
CGA:   7    -0.315916556072E+03   -0.20597E+01   -0.20650E+01 24304   0.524E+02-0.158E+00
CGA:   8    -0.317182419650E+03   -0.12659E+01   -0.10710E+01 24304   0.152E+02 0.565E+01
CGA:   9    -0.317647958336E+03   -0.46554E+00   -0.46576E+00 24304   0.114E+02 0.192E-01
CGA:  10    -0.317906214479E+03   -0.25826E+00   -0.26312E+00 24304   0.732E+01-0.129E+00
CGA:  11    -0.318103791209E+03   -0.19758E+00   -0.19829E+00 24304   0.625E+01-0.142E-01
CGA:  12    -0.318334238899E+03   -0.23045E+00   -0.23196E+00 24304   0.707E+01 0.398E-01
CGA:  13    -0.318473604530E+03   -0.13937E+00   -0.14971E+00 24304   0.186E+01-0.268E+00
CGA:  14    -0.318515406050E+03   -0.41802E-01   -0.42152E-01 24304   0.936E+00-0.581E-02
CGA:  15    -0.318554644660E+03   -0.39239E-01   -0.39221E-01 24304   0.103E+01-0.425E-02
CGA:  16    -0.318584995250E+03   -0.30351E-01   -0.30926E-01 24304   0.796E+00 0.327E-02
CGA:  17    -0.318620008075E+03   -0.35013E-01   -0.34969E-01 24304   0.739E+00 0.294E-01
CGA:  18    -0.318644022734E+03   -0.24015E-01   -0.24075E-01 24304   0.250E+00 0.106E-02
CGA:  19    -0.318652093967E+03   -0.80712E-02   -0.81207E-02 24304   0.233E+00 0.109E-02
CGA:  20    -0.318663412877E+03   -0.11319E-01   -0.11265E-01 24304   0.219E+00 0.545E-02
CGA:  21    -0.318672654147E+03   -0.92413E-02   -0.92422E-02 24304   0.159E+00 0.454E-03
CGA:  22    -0.318678575724E+03   -0.59216E-02   -0.59310E-02 24304   0.813E-01 0.708E-03
CGA:  23    -0.318681472161E+03   -0.28964E-02   -0.29066E-02 24304   0.656E-01 0.525E-03
CGA:  24    -0.318684823254E+03   -0.33511E-02   -0.33448E-02 24304   0.654E-01 0.475E-03
CGA:  25    -0.318687639962E+03   -0.28167E-02   -0.28164E-02 24304   0.408E-01 0.244E-03
CGA:  26    -0.318689522524E+03   -0.18826E-02   -0.18813E-02 24304   0.227E-01 0.208E-03
CGA:  27    -0.318690208739E+03   -0.68622E-03   -0.68776E-03 24304   0.129E-01 0.327E-04
CGA:  28    -0.318691072926E+03   -0.86419E-03   -0.86050E-03 24304   0.185E-01 0.134E-03
CGA:  29    -0.318691840396E+03   -0.76747E-03   -0.76767E-03 24304   0.109E-01 0.743E-04
CGA:  30    -0.318692398476E+03   -0.55808E-03   -0.55773E-03 24304   0.819E-02 0.393E-04
CGA:  31    -0.318692676107E+03   -0.27763E-03   -0.27786E-03 24304   0.386E-02 0.136E-04
SDA:  32    -0.318692895147E+03   -0.21904E-03   -0.21886E-03 24304   0.576E-02 0.890E-05
CGA:  33    -0.318693000267E+03   -0.10512E-03   -0.10520E-03 24304   0.990E-03-0.632E-05
CGA:  34    -0.318693125699E+03   -0.12543E-03   -0.12634E-03 24304   0.457E-02-0.117E-04
CGA:  35    -0.318693381915E+03   -0.25622E-03   -0.25637E-03 24304   0.225E-02-0.181E-04
CGA:  36    -0.318693464228E+03   -0.82313E-04   -0.82297E-04 24304   0.121E-02-0.280E-05
CGA:  37    -0.318693541606E+03   -0.77378E-04   -0.77290E-04 24304   0.149E-02 0.484E-05
CGA:  38    -0.318693719860E+03   -0.17825E-03   -0.17589E-03 24304   0.199E-02 0.334E-04
CGA:  39    -0.318693784502E+03   -0.64642E-04   -0.64730E-04 24304   0.103E-02 0.499E-05
CGA:  40    -0.318693879346E+03   -0.94844E-04   -0.95061E-04 24304   0.230E-02-0.598E-05
CGA:  41    -0.318693988984E+03   -0.10964E-03   -0.10957E-03 24304   0.163E-02-0.155E-04
CGA:  42    -0.318694054207E+03   -0.65224E-04   -0.65107E-04 24304   0.712E-03-0.989E-05
CGA:  43    -0.318694096419E+03   -0.42212E-04   -0.42212E-04 24304   0.129E-02-0.726E-06
CGA:  44    -0.318694224469E+03   -0.12805E-03   -0.12779E-03 24304   0.672E-03 0.489E-05
CGA:  45    -0.318694244277E+03   -0.19808E-04   -0.19828E-04 24304   0.383E-03-0.564E-06
CGA:  46    -0.318694304971E+03   -0.60694E-04   -0.61296E-04 24304   0.146E-02-0.612E-05
CGA:  47    -0.318694353084E+03   -0.48113E-04   -0.48015E-04 24304   0.297E-03-0.682E-05
CGA:  48    -0.318694369553E+03   -0.16469E-04   -0.16467E-04 24304   0.559E-03-0.267E-05
CGA:  49    -0.318694435804E+03   -0.66251E-04   -0.66778E-04 24304   0.946E-03-0.877E-05
CGA:  50    -0.318694468260E+03   -0.32455E-04   -0.32383E-04 24304   0.422E-03-0.361E-05
CGA:  51    -0.318694487151E+03   -0.18892E-04   -0.18910E-04 24304   0.324E-03 0.808E-06
CGA:  52    -0.318694513149E+03   -0.25998E-04   -0.25854E-04 24304   0.635E-03 0.625E-05
CGA:  53    -0.318694555778E+03   -0.42629E-04   -0.42543E-04 24304   0.260E-03 0.122E-04
CGA:  54    -0.318694566397E+03   -0.10619E-04   -0.10649E-04 24304   0.273E-03 0.893E-06
CGA:  55    -0.318694587529E+03   -0.21132E-04   -0.21133E-04 24304   0.405E-03-0.422E-06
CGA:  56    -0.318694611124E+03   -0.23595E-04   -0.23595E-04 24304   0.270E-03-0.108E-05
CGA:  57    -0.318694620409E+03   -0.92852E-05   -0.92853E-05 24304   0.149E-03-0.374E-06
CGA:  58    -0.318694638434E+03   -0.18024E-04   -0.17799E-04 24304   0.453E-03 0.330E-05
CGA:  59    -0.318694662757E+03   -0.24324E-04   -0.24384E-04 24304   0.951E-04 0.577E-05
CGA:  60    -0.318694669250E+03   -0.64924E-05   -0.65001E-05 24304   0.225E-03-0.146E-05
CGA:  61    -0.318694683268E+03   -0.14018E-04   -0.14029E-04 24304   0.231E-03-0.511E-05
CGA:  62    -0.318694697749E+03   -0.14481E-04   -0.14497E-04 24304   0.138E-03-0.614E-05
SDA:  63    -0.318694702083E+03   -0.43347E-05   -0.42838E-05 24304   0.567E-04-0.211E-05
   6 F= -.31869470E+03 E0= -.31866427E+03  d E =-.579239E+00  mag=    49.3635
       N       E                     dE             d eps       ncg     rms          ort
SDA:   1    -0.315977812322E+03    0.27169E+01    0.00000E+00 24304   0.932E+01 0.000E+00
CGA:   2    -0.316488494499E+03   -0.51068E+00   -0.51099E+00 24304   0.164E+02 0.277E-01
CGA:   3    -0.317999586954E+03   -0.15111E+01   -0.15148E+01 24304   0.101E+02-0.113E+00
CGA:   4    -0.318275840961E+03   -0.27625E+00   -0.25328E+00 24304   0.286E+01 0.618E+00
CGA:   5    -0.318488247918E+03   -0.21241E+00   -0.21220E+00 24304   0.435E+01 0.122E-01
CGA:   6    -0.318648254465E+03   -0.16001E+00   -0.16101E+00 24304   0.135E+01-0.391E-02
CGA:   7    -0.318697773241E+03   -0.49519E-01   -0.48791E-01 24304   0.587E+00 0.467E-02
CGA:   8    -0.318723572613E+03   -0.25799E-01   -0.25749E-01 24304   0.429E+00-0.585E-03
CGA:   9    -0.318752640092E+03   -0.29067E-01   -0.29031E-01 24304   0.291E+00 0.227E-02
CGA:  10    -0.318759892153E+03   -0.72521E-02   -0.72940E-02 24304   0.705E-01-0.927E-03
CGA:  11    -0.318763294144E+03   -0.34020E-02   -0.34031E-02 24304   0.600E-01 0.569E-04
CGA:  12    -0.318767201746E+03   -0.39076E-02   -0.39059E-02 24304   0.727E-01 0.106E-03
CGA:  13    -0.318769952204E+03   -0.27505E-02   -0.27513E-02 24304   0.171E-01-0.236E-05
CGA:  14    -0.318770462510E+03   -0.51031E-03   -0.51095E-03 24304   0.819E-02-0.612E-05
CGA:  15    -0.318771506300E+03   -0.10438E-02   -0.10401E-02 24304   0.177E-01 0.502E-04
CGA:  16    -0.318772044593E+03   -0.53829E-03   -0.53950E-03 24304   0.327E-02-0.337E-05
CGA:  17    -0.318772234432E+03   -0.18984E-03   -0.18985E-03 24304   0.285E-02-0.270E-05
CGA:  18    -0.318772403271E+03   -0.16884E-03   -0.16881E-03 24304   0.409E-02 0.497E-05
CGA:  19    -0.318772670384E+03   -0.26711E-03   -0.26697E-03 24304   0.233E-02 0.119E-04
CGA:  20    -0.318772730540E+03   -0.60156E-04   -0.60320E-04 24304   0.717E-03 0.654E-06
CGA:  21    -0.318772807301E+03   -0.76760E-04   -0.76237E-04 24304   0.182E-02 0.938E-05
CGA:  22    -0.318772896739E+03   -0.89438E-04   -0.89545E-04 24304   0.762E-03 0.986E-05
CGA:  23    -0.318772929400E+03   -0.32661E-04   -0.32708E-04 24304   0.304E-03 0.235E-05
CGA:  24    -0.318772945415E+03   -0.16015E-04   -0.16019E-04 24304   0.431E-03 0.259E-06
CGA:  25    -0.318772981586E+03   -0.36172E-04   -0.36173E-04 24304   0.374E-03-0.573E-06
CGA:  26    -0.318772997226E+03   -0.15640E-04   -0.15643E-04 24304   0.192E-03-0.426E-06
CGA:  27    -0.318773005577E+03   -0.83511E-05   -0.83613E-05 24304   0.127E-03 0.327E-06
CGA:  28    -0.318773026131E+03   -0.20554E-04   -0.20073E-04 24304   0.318E-03 0.438E-05
CGA:  29    -0.318773036534E+03   -0.10402E-04   -0.10453E-04 24304   0.996E-04 0.129E-05
CGA:  30    -0.318773047258E+03   -0.10724E-04   -0.10809E-04 24304   0.260E-03-0.201E-05
CGA:  31    -0.318773061480E+03   -0.14222E-04   -0.14202E-04 24304   0.216E-03-0.336E-05
SDA:  32    -0.318773074416E+03   -0.12937E-04   -0.12934E-04 24304   0.134E-03-0.225E-05
CGA:  33    -0.318773078150E+03   -0.37332E-05   -0.37480E-05 24304   0.838E-04 0.202E-06
   7 F= -.31877308E+03 E0= -.31874304E+03  d E =-.783761E-01  mag=    49.3571
       N       E                     dE             d eps       ncg     rms          ort
SDA:   1    -0.286012147153E+03    0.32761E+02    0.00000E+00 24304   0.221E+03 0.000E+00
CGA:   2    -0.291479771468E+03   -0.54676E+01   -0.56054E+01 24304   0.109E+03-0.668E+01
CGA:   3    -0.305169979464E+03   -0.13690E+02   -0.14478E+02 24304   0.305E+03-0.152E+02
CGA:   4    -0.311736622146E+03   -0.65666E+01   -0.53279E+01 24304   0.848E+02 0.441E+02
CGA:   5    -0.313477759426E+03   -0.17411E+01   -0.18336E+01 24304   0.532E+02-0.442E+01
CGA:   6    -0.314944964924E+03   -0.14672E+01   -0.14820E+01 24304   0.471E+02-0.208E+00
CGA:   7    -0.316279593471E+03   -0.13346E+01   -0.13183E+01 24304   0.477E+02 0.197E+00
CGA:   8    -0.317371539889E+03   -0.10919E+01   -0.11637E+01 24304   0.304E+02-0.173E+01
CGA:   9    -0.317975910831E+03   -0.60437E+00   -0.59708E+00 24304   0.990E+01 0.181E+00
CGA:  10    -0.318168866104E+03   -0.19296E+00   -0.18215E+00 24304   0.559E+01 0.450E+00
CGA:  11    -0.318330796837E+03   -0.16193E+00   -0.16404E+00 24304   0.604E+01-0.316E-01
CGA:  12    -0.318532421720E+03   -0.20162E+00   -0.20950E+00 24304   0.634E+01 0.306E-01
CGA:  13    -0.318681751538E+03   -0.14933E+00   -0.15132E+00 24304   0.335E+01-0.406E-01
CGA:  14    -0.318759035922E+03   -0.77284E-01   -0.77708E-01 24304   0.110E+01-0.736E-02
CGA:  15    -0.318781023766E+03   -0.21988E-01   -0.22922E-01 24304   0.577E+00-0.255E-01
CGA:  16    -0.318809429835E+03   -0.28406E-01   -0.28340E-01 24304   0.108E+01 0.913E-02
CGA:  17    -0.318854637851E+03   -0.45208E-01   -0.45178E-01 24304   0.707E+00-0.219E-02
CGA:  18    -0.318868749941E+03   -0.14112E-01   -0.14823E-01 24304   0.200E+00-0.179E-01
CGA:  19    -0.318876032319E+03   -0.72824E-02   -0.73247E-02 24304   0.149E+00 0.185E-02
CGA:  20    -0.318881495321E+03   -0.54630E-02   -0.54718E-02 24304   0.144E+00 0.329E-03
CGA:  21    -0.318888744621E+03   -0.72493E-02   -0.72302E-02 24304   0.150E+00 0.192E-02
CGA:  22    -0.318893932766E+03   -0.51881E-02   -0.52254E-02 24304   0.596E-01 0.887E-03
CGA:  23    -0.318895804469E+03   -0.18717E-02   -0.18776E-02 24304   0.430E-01 0.615E-04
CGA:  24    -0.318898249228E+03   -0.24448E-02   -0.24408E-02 24304   0.473E-01 0.205E-03
CGA:  25    -0.318900281822E+03   -0.20326E-02   -0.20331E-02 24304   0.334E-01 0.233E-03
CGA:  26    -0.318901341946E+03   -0.10601E-02   -0.10628E-02 24304   0.127E-01 0.389E-04
CGA:  27    -0.318901901396E+03   -0.55945E-03   -0.55936E-03 24304   0.157E-01 0.843E-04
CGA:  28    -0.318903061408E+03   -0.11600E-02   -0.11550E-02 24304   0.178E-01 0.159E-03
CGA:  29    -0.318903666504E+03   -0.60510E-03   -0.60669E-03 24304   0.888E-02 0.824E-04
CGA:  30    -0.318903983332E+03   -0.31683E-03   -0.31752E-03 24304   0.463E-02 0.483E-04
CGA:  31    -0.318904232422E+03   -0.24909E-03   -0.24872E-03 24304   0.589E-02 0.305E-04
SDA:  32    -0.318904644305E+03   -0.41188E-03   -0.41088E-03 24304   0.963E-02 0.352E-04
CGA:  33    -0.318904829910E+03   -0.18561E-03   -0.18589E-03 24304   0.128E-02-0.114E-04
CGA:  34    -0.318904921011E+03   -0.91101E-04   -0.91122E-04 24304   0.274E-02-0.270E-05
CGA:  35    -0.318905270570E+03   -0.34956E-03   -0.35084E-03 24304   0.390E-02-0.166E-04
CGA:  36    -0.318905465342E+03   -0.19477E-03   -0.19476E-03 24304   0.196E-02 0.703E-05
CGA:  37    -0.318905547788E+03   -0.82446E-04   -0.82509E-04 24304   0.158E-02 0.483E-05
CGA:  38    -0.318905776602E+03   -0.22881E-03   -0.22650E-03 24304   0.575E-02 0.240E-04
CGA:  39    -0.318906039888E+03   -0.26329E-03   -0.26342E-03 24304   0.272E-02 0.185E-04
CGA:  40    -0.318906167801E+03   -0.12791E-03   -0.12795E-03 24304   0.265E-02 0.228E-05
CGA:  41    -0.318906443470E+03   -0.27567E-03   -0.27660E-03 24304   0.497E-02-0.190E-04
CGA:  42    -0.318906676877E+03   -0.23341E-03   -0.23351E-03 24304   0.159E-02-0.870E-06
CGA:  43    -0.318906767076E+03   -0.90199E-04   -0.90188E-04 24304   0.286E-02 0.650E-05
CGA:  44    -0.318907134045E+03   -0.36697E-03   -0.36452E-03 24304   0.362E-02 0.317E-04
CGA:  45    -0.318907247405E+03   -0.11336E-03   -0.11396E-03 24304   0.122E-02 0.476E-05
CGA:  46    -0.318907451815E+03   -0.20441E-03   -0.20214E-03 24304   0.568E-02 0.224E-04
CGA:  47    -0.318907668300E+03   -0.21649E-03   -0.21486E-03 24304   0.131E-02 0.189E-04
CGA:  48    -0.318907749478E+03   -0.81178E-04   -0.81175E-04 24304   0.219E-02 0.938E-05
CGA:  49    -0.318908034021E+03   -0.28454E-03   -0.28436E-03 24304   0.424E-02-0.858E-06
CGA:  50    -0.318908284568E+03   -0.25055E-03   -0.25071E-03 24304   0.321E-02 0.282E-04
CGA:  51    -0.318908407051E+03   -0.12248E-03   -0.12330E-03 24304   0.187E-02 0.133E-04
CGA:  52    -0.318908661421E+03   -0.25437E-03   -0.24664E-03 24304   0.620E-02 0.112E-03
CGA:  53    -0.318909064852E+03   -0.40343E-03   -0.39851E-03 24304   0.608E-02-0.273E-03
CGA:  54    -0.318909333085E+03   -0.26823E-03   -0.27803E-03 24304   0.302E-02 0.107E-03
CGA:  55    -0.318909525479E+03   -0.19239E-03   -0.19270E-03 24304   0.511E-02 0.578E-04
CGA:  56    -0.318909935966E+03   -0.41049E-03   -0.42497E-03 24304   0.658E-02-0.635E-03
CGA:  57    -0.318910206506E+03   -0.27054E-03   -0.27834E-03 24304   0.483E-02 0.997E-04
CGA:  58    -0.318910433707E+03   -0.22720E-03   -0.23187E-03 24304   0.383E-02 0.595E-04
CGA:  59    -0.318910708897E+03   -0.27519E-03   -0.27732E-03 24304   0.632E-02-0.168E-03
CGA:  60    -0.318910997229E+03   -0.28833E-03   -0.28393E-03 24304   0.466E-02 0.209E-04
CGA:  61    -0.318911159916E+03   -0.16269E-03   -0.17040E-03 24304   0.244E-02-0.428E-04
CGA:  62    -0.318911296403E+03   -0.13649E-03   -0.13657E-03 24304   0.398E-02 0.895E-05
SDA:  63    -0.318911565636E+03   -0.26923E-03   -0.27219E-03 24304   0.739E-02-0.299E-03
CGA:  64    -0.318911752416E+03   -0.18678E-03   -0.18656E-03 24304   0.149E-02-0.423E-05
CGA:  65    -0.318911889014E+03   -0.13660E-03   -0.13701E-03 24304   0.367E-02-0.151E-04
CGA:  66    -0.318912173330E+03   -0.28432E-03   -0.28481E-03 24304   0.553E-02-0.326E-04
CGA:  67    -0.318912422835E+03   -0.24951E-03   -0.24905E-03 24304   0.251E-02-0.246E-04
CGA:  68    -0.318912629783E+03   -0.20695E-03   -0.20716E-03 24304   0.392E-02-0.101E-04
CGA:  69    -0.318912951603E+03   -0.32182E-03   -0.32205E-03 24304   0.546E-02-0.868E-05
CGA:  70    -0.318913224569E+03   -0.27297E-03   -0.27329E-03 24304   0.251E-02 0.883E-05
CGA:  71    -0.318913364286E+03   -0.13972E-03   -0.13967E-03 24304   0.349E-02-0.659E-05
CGA:  72    -0.318913789182E+03   -0.42490E-03   -0.42831E-03 24304   0.666E-02-0.582E-04
CGA:  73    -0.318914015847E+03   -0.22666E-03   -0.22551E-03 24304   0.148E-02-0.805E-05
CGA:  74    -0.318914310332E+03   -0.29449E-03   -0.29225E-03 24304   0.884E-02 0.164E-04
CGA:  75    -0.318914940967E+03   -0.63063E-03   -0.63047E-03 24304   0.342E-02-0.112E-03
CGA:  76    -0.318915103790E+03   -0.16282E-03   -0.16302E-03 24304   0.478E-02 0.482E-05
CGA:  77    -0.318916237633E+03   -0.11338E-02   -0.10823E-02 24304   0.159E-01 0.344E-03
CGA:  78    -0.318916898512E+03   -0.66088E-03   -0.61722E-03 24304   0.701E-02 0.757E-03
CGA:  79    -0.318917540406E+03   -0.64189E-03   -0.63956E-03 24304   0.158E-01 0.133E-03
CGA:  80    -0.318919140622E+03   -0.16002E-02   -0.18467E-02 24304   0.533E-01-0.550E-02
CGA:  81    -0.318919603222E+03   -0.46260E-03   -0.33559E-03 24304   0.447E-01 0.127E-01
CGA:  82    -0.318920353953E+03   -0.75073E-03   -0.65709E-03 24304   0.190E-01 0.766E-02
CGA:  83    -0.318920758754E+03   -0.40480E-03   -0.41088E-03 24304   0.201E-01-0.196E-03
CGA:  84    -0.318921231530E+03   -0.47278E-03   -0.49236E-03 24304   0.336E-01-0.475E-03
CGA:  85    -0.318921980986E+03   -0.74946E-03   -0.71641E-03 24304   0.464E-01 0.144E-02
CGA:  86    -0.318922975736E+03   -0.99475E-03   -0.82126E-03 24304   0.553E-01 0.868E-02
CGA:  87    -0.318924080006E+03   -0.11043E-02   -0.88508E-03 24304   0.548E-01 0.141E-01
CGA:  88    -0.318925019538E+03   -0.93953E-03   -0.80452E-03 24304   0.460E-01 0.102E-01
CGA:  89    -0.318925672818E+03   -0.65328E-03   -0.61164E-03 24304   0.393E-01 0.331E-02
CGA:  90    -0.318926169701E+03   -0.49688E-03   -0.49228E-03 24304   0.418E-01 0.371E-03
CGA:  91    -0.318926710870E+03   -0.54117E-03   -0.54380E-03 24304   0.554E-01-0.107E-03
CGA:  92    -0.318927447049E+03   -0.73618E-03   -0.70629E-03 24304   0.733E-01 0.211E-02
CGA:  93    -0.318928358831E+03   -0.91178E-03   -0.80896E-03 24304   0.789E-01 0.842E-02
SDA:  94    -0.318929282457E+03   -0.92363E-03   -0.81360E-03 24304   0.713E-01 0.104E-01
CGA:  95    -0.318932286343E+03   -0.30039E-02   -0.30039E-02 24304   0.700E-01-0.606E-05
CGA:  96    -0.318938922285E+03   -0.66359E-02   -0.66322E-02 24304   0.170E+00 0.750E-04
CGA:  97    -0.318959054966E+03   -0.20133E-01   -0.19318E-01 24304   0.135E+00 0.119E-01
CGA:  98    -0.318964986751E+03   -0.59318E-02   -0.59451E-02 24304   0.569E-01 0.370E-03
CGA:  99    -0.318968137218E+03   -0.31505E-02   -0.31498E-02 24304   0.695E-01 0.702E-04
CGA: 100    -0.318974673787E+03   -0.65366E-02   -0.65677E-02 24304   0.140E+00-0.692E-03
CGA: 101    -0.318981763695E+03   -0.70899E-02   -0.70835E-02 24304   0.447E-01-0.200E-02
CGA: 102    -0.318984476341E+03   -0.27126E-02   -0.27105E-02 24304   0.719E-01 0.148E-03
CGA: 103    -0.318992333804E+03   -0.78575E-02   -0.79245E-02 24304   0.198E+00-0.148E-02
CGA: 104    -0.319002214212E+03   -0.98804E-02   -0.98178E-02 24304   0.127E+00-0.460E-02
CGA: 105    -0.319007349547E+03   -0.51353E-02   -0.51434E-02 24304   0.593E-01 0.863E-04
CGA: 106    -0.319010123795E+03   -0.27742E-02   -0.27686E-02 24304   0.757E-01-0.227E-03
CGA: 107    -0.319016356770E+03   -0.62330E-02   -0.61729E-02 24304   0.151E+00 0.179E-02
CGA: 108    -0.319024168450E+03   -0.78117E-02   -0.77927E-02 24304   0.771E-01-0.137E-02
CGA: 109    -0.319026462285E+03   -0.22938E-02   -0.22964E-02 24304   0.280E-01-0.312E-04
CGA: 110    -0.319031524727E+03   -0.50624E-02   -0.49874E-02 24304   0.135E+00 0.663E-03
CGA: 111    -0.319036684102E+03   -0.51594E-02   -0.50494E-02 24304   0.590E-01 0.918E-03
CGA: 112    -0.319038436500E+03   -0.17524E-02   -0.17642E-02 24304   0.278E-01-0.191E-03
CGA: 113    -0.319040545119E+03   -0.21086E-02   -0.21080E-02 24304   0.529E-01 0.155E-04
CGA: 114    -0.319043676393E+03   -0.31313E-02   -0.31315E-02 24304   0.401E-01-0.275E-03
CGA: 115    -0.319044983801E+03   -0.13074E-02   -0.13149E-02 24304   0.160E-01-0.912E-04
CGA: 116    -0.319045730859E+03   -0.74706E-03   -0.74723E-03 24304   0.234E-01 0.484E-05
CGA: 117    -0.319047439494E+03   -0.17086E-02   -0.17032E-02 24304   0.277E-01 0.246E-03
CGA: 118    -0.319048586780E+03   -0.11473E-02   -0.11470E-02 24304   0.125E-01 0.122E-04
CGA: 119    -0.319049170963E+03   -0.58418E-03   -0.58464E-03 24304   0.108E-01 0.125E-04
CGA: 120    -0.319049876716E+03   -0.70575E-03   -0.70455E-03 24304   0.171E-01 0.835E-04
CGA: 121    -0.319050814022E+03   -0.93731E-03   -0.93656E-03 24304   0.180E-01-0.144E-03
CGA: 122    -0.319051409977E+03   -0.59596E-03   -0.59751E-03 24304   0.468E-02-0.318E-04
CGA: 123    -0.319051701736E+03   -0.29176E-03   -0.29179E-03 24304   0.853E-02-0.849E-05
CGA: 124    -0.319052436389E+03   -0.73465E-03   -0.74215E-03 24304   0.136E-01-0.215E-03
SDA: 125    -0.319052809528E+03   -0.37314E-03   -0.37667E-03 24304   0.474E-02-0.774E-04
CGA: 126    -0.319053005074E+03   -0.19555E-03   -0.19558E-03 24304   0.470E-02-0.283E-06
CGA: 127    -0.319053447042E+03   -0.44197E-03   -0.44150E-03 24304   0.119E-01 0.947E-05
CGA: 128    -0.319054220550E+03   -0.77351E-03   -0.77377E-03 24304   0.153E-01-0.198E-04
CGA: 129    -0.319054879266E+03   -0.65872E-03   -0.66175E-03 24304   0.383E-02 0.355E-04
CGA: 130    -0.319055148317E+03   -0.26905E-03   -0.26945E-03 24304   0.729E-02-0.255E-04
CGA: 131    -0.319055777060E+03   -0.62874E-03   -0.62996E-03 24304   0.646E-02-0.426E-04
CGA: 132    -0.319055961540E+03   -0.18448E-03   -0.18387E-03 24304   0.163E-02-0.545E-06
CGA: 133    -0.319056114463E+03   -0.15292E-03   -0.15256E-03 24304   0.379E-02 0.901E-05
CGA: 134    -0.319056371233E+03   -0.25677E-03   -0.25666E-03 24304   0.200E-02 0.158E-04
CGA: 135    -0.319056453030E+03   -0.81797E-04   -0.81851E-04 24304   0.136E-02 0.423E-05
CGA: 136    -0.319056527092E+03   -0.74062E-04   -0.74069E-04 24304   0.168E-02 0.526E-06
CGA: 137    -0.319056697356E+03   -0.17026E-03   -0.17015E-03 24304   0.372E-02 0.118E-05
CGA: 138    -0.319056835092E+03   -0.13774E-03   -0.13661E-03 24304   0.126E-02 0.329E-05
CGA: 139    -0.319056905499E+03   -0.70407E-04   -0.70406E-04 24304   0.104E-02-0.102E-05
CGA: 140    -0.319057020474E+03   -0.11497E-03   -0.11530E-03 24304   0.240E-02-0.657E-05
CGA: 141    -0.319057178556E+03   -0.15808E-03   -0.15816E-03 24304   0.418E-03-0.545E-05
CGA: 142    -0.319057192413E+03   -0.13857E-04   -0.13870E-04 24304   0.346E-03-0.280E-06
CGA: 143    -0.319057249072E+03   -0.56659E-04   -0.57186E-04 24304   0.128E-02-0.593E-05
CGA: 144    -0.319057295252E+03   -0.46180E-04   -0.46530E-04 24304   0.338E-03-0.640E-05
CGA: 145    -0.319057312312E+03   -0.17060E-04   -0.17030E-04 24304   0.316E-03-0.162E-05
CGA: 146    -0.319057332766E+03   -0.20454E-04   -0.20451E-04 24304   0.561E-03 0.396E-06
CGA: 147    -0.319057389598E+03   -0.56832E-04   -0.56793E-04 24304   0.753E-03 0.214E-06
CGA: 148    -0.319057413365E+03   -0.23767E-04   -0.23902E-04 24304   0.186E-03-0.230E-05
CGA: 149    -0.319057439325E+03   -0.25961E-04   -0.25877E-04 24304   0.747E-03 0.782E-06
CGA: 150    -0.319057523073E+03   -0.83748E-04   -0.83902E-04 24304   0.626E-03-0.520E-05
CGA: 151    -0.319057546312E+03   -0.23239E-04   -0.23492E-04 24304   0.336E-03-0.155E-05
CGA: 152    -0.319057577746E+03   -0.31434E-04   -0.31762E-04 24304   0.906E-03-0.100E-04
CGA: 153    -0.319057655394E+03   -0.77648E-04   -0.75894E-04 24304   0.118E-02 0.704E-04
CGA: 154    -0.319057698150E+03   -0.42756E-04   -0.40734E-04 24304   0.329E-03 0.373E-04
CGA: 155    -0.319057716579E+03   -0.18429E-04   -0.18532E-04 24304   0.418E-03 0.212E-05
SDA: 156    -0.319057760138E+03   -0.43559E-04   -0.44850E-04 24304   0.115E-02-0.290E-04
CGA: 157    -0.319057785217E+03   -0.25079E-04   -0.25091E-04 24304   0.280E-03-0.251E-06
CGA: 158    -0.319057797304E+03   -0.12087E-04   -0.12087E-04 24304   0.157E-03-0.337E-06
CGA: 159    -0.319057815864E+03   -0.18560E-04   -0.18594E-04 24304   0.596E-03-0.923E-06
CGA: 160    -0.319057858827E+03   -0.42963E-04   -0.42971E-04 24304   0.272E-03-0.239E-05
CGA: 161    -0.319057870318E+03   -0.11491E-04   -0.11484E-04 24304   0.206E-03-0.447E-06
CGA: 162    -0.319057896032E+03   -0.25714E-04   -0.25805E-04 24304   0.534E-03-0.174E-05
CGA: 163    -0.319057924576E+03   -0.28544E-04   -0.28385E-04 24304   0.301E-03-0.544E-06
CGA: 164    -0.319057937207E+03   -0.12631E-04   -0.12539E-04 24304   0.161E-03 0.311E-06
CGA: 165    -0.319057948102E+03   -0.10895E-04   -0.10893E-04 24304   0.270E-03-0.206E-05
CGA: 166    -0.319057975070E+03   -0.26968E-04   -0.27531E-04 24304   0.518E-03-0.149E-04
CGA: 167    -0.319057990596E+03   -0.15526E-04   -0.15532E-04 24304   0.170E-03-0.637E-05
CGA: 168    -0.319058004056E+03   -0.13459E-04   -0.13469E-04 24304   0.292E-03-0.705E-06
CGA: 169    -0.319058034069E+03   -0.30013E-04   -0.30094E-04 24304   0.868E-03-0.186E-05
CGA: 170    -0.319058070639E+03   -0.36570E-04   -0.37120E-04 24304   0.310E-03 0.229E-05
CGA: 171    -0.319058086816E+03   -0.16178E-04   -0.16201E-04 24304   0.416E-03-0.411E-06
CGA: 172    -0.319058139042E+03   -0.52226E-04   -0.58438E-04 24304   0.185E-02-0.925E-04
CGA: 173    -0.319058177346E+03   -0.38304E-04   -0.36551E-04 24304   0.123E-02 0.766E-04
CGA: 174    -0.319058202280E+03   -0.24934E-04   -0.30709E-04 24304   0.656E-03-0.178E-03
CGA: 175    -0.319058230376E+03   -0.28096E-04   -0.28009E-04 24304   0.640E-03-0.941E-06
CGA: 176    -0.319058261155E+03   -0.30779E-04   -0.29121E-04 24304   0.118E-02-0.662E-06
CGA: 177    -0.319058319359E+03   -0.58204E-04   -0.56669E-04 24304   0.186E-02 0.428E-05
CGA: 178    -0.319058362368E+03   -0.43009E-04   -0.49678E-04 24304   0.485E-03-0.102E-03
CGA: 179    -0.319058374476E+03   -0.12108E-04   -0.12620E-04 24304   0.382E-03-0.101E-04
CGA: 180    -0.319058406406E+03   -0.31930E-04   -0.32677E-04 24304   0.118E-02-0.244E-04
CGA: 181    -0.319058447708E+03   -0.41302E-04   -0.37432E-04 24304   0.117E-02 0.548E-04
CGA: 182    -0.319058477694E+03   -0.29986E-04   -0.32134E-04 24304   0.718E-03-0.442E-04
CGA: 183    -0.319058499008E+03   -0.21314E-04   -0.22354E-04 24304   0.588E-03-0.108E-04
CGA: 184    -0.319058519304E+03   -0.20297E-04   -0.19537E-04 24304   0.618E-03 0.882E-05
CGA: 185    -0.319058548317E+03   -0.29013E-04   -0.28630E-04 24304   0.120E-02-0.598E-05
CGA: 186    -0.319058601691E+03   -0.53374E-04   -0.53844E-04 24304   0.183E-02 0.281E-04
SDA: 187    -0.319058647333E+03   -0.45642E-04   -0.42738E-04 24304   0.658E-03 0.136E-03
CGA: 188    -0.319058666954E+03   -0.19621E-04   -0.19578E-04 24304   0.340E-03-0.235E-05
CGA: 189    -0.319058693545E+03   -0.26591E-04   -0.26726E-04 24304   0.752E-03-0.567E-05
CGA: 190    -0.319058741515E+03   -0.47970E-04   -0.48061E-04 24304   0.797E-03-0.864E-05
CGA: 191    -0.319058776569E+03   -0.35054E-04   -0.35019E-04 24304   0.305E-03-0.413E-05
CGA: 192    -0.319058795088E+03   -0.18519E-04   -0.18516E-04 24304   0.489E-03 0.189E-06
CGA: 193    -0.319058852724E+03   -0.57636E-04   -0.57111E-04 24304   0.651E-03 0.806E-05
CGA: 194    -0.319058878536E+03   -0.25811E-04   -0.25837E-04 24304   0.373E-03 0.180E-05
CGA: 195    -0.319058896708E+03   -0.18172E-04   -0.18159E-04 24304   0.341E-03-0.175E-05
CGA: 196    -0.319058943683E+03   -0.46976E-04   -0.47920E-04 24304   0.992E-03-0.114E-04
CGA: 197    -0.319058974882E+03   -0.31199E-04   -0.31036E-04 24304   0.194E-03-0.646E-05
CGA: 198    -0.319058985739E+03   -0.10857E-04   -0.10856E-04 24304   0.328E-03-0.420E-06
CGA: 199    -0.319059017397E+03   -0.31657E-04   -0.31384E-04 24304   0.472E-03 0.676E-05
CGA: 200    -0.319059030723E+03   -0.13326E-04   -0.13363E-04 24304   0.750E-04 0.249E-05
   8 F= -.31905903E+03 E0= -.31902836E+03  d E =-.285953E+00  mag=    48.6493
       N       E                     dE             d eps       ncg     rms          ort
SDA:   1    -0.277240875189E+03    0.41818E+02    0.00000E+00 24304   0.199E+03 0.000E+00
CGA:   2    -0.287915730688E+03   -0.10675E+02   -0.10821E+02 24304   0.189E+03 0.112E+02
CGA:   3    -0.300533863258E+03   -0.12618E+02   -0.12686E+02 24304   0.225E+03-0.110E+02
CGA:   4    -0.308821027129E+03   -0.82872E+01   -0.77006E+01 24304   0.122E+03 0.131E+01
CGA:   5    -0.312687478930E+03   -0.38665E+01   -0.26317E+01 24304   0.358E+02 0.511E+02
CGA:   6    -0.313802098035E+03   -0.11146E+01   -0.94101E+00 24304   0.309E+02 0.297E+01
CGA:   7    -0.314637833841E+03   -0.83574E+00   -0.94962E+00 24304   0.661E+02-0.191E+01
CGA:   8    -0.315947654050E+03   -0.13098E+01   -0.13646E+01 24304   0.947E+02-0.169E+01
CGA:   9    -0.317343662757E+03   -0.13960E+01   -0.14250E+01 24304   0.435E+02-0.699E+00
CGA:  10    -0.317748309729E+03   -0.40465E+00   -0.38283E+00 24304   0.128E+02 0.148E+01
CGA:  11    -0.317942199443E+03   -0.19389E+00   -0.18580E+00 24304   0.120E+02 0.434E+00
CGA:  12    -0.318141545537E+03   -0.19935E+00   -0.18823E+00 24304   0.115E+02 0.508E+00
CGA:  13    -0.318331269123E+03   -0.18972E+00   -0.19909E+00 24304   0.139E+02-0.407E+00
CGA:  14    -0.318544702742E+03   -0.21343E+00   -0.21646E+00 24304   0.128E+02-0.112E+00
CGA:  15    -0.318702692711E+03   -0.15799E+00   -0.16664E+00 24304   0.803E+01-0.500E+00
CGA:  16    -0.318806113721E+03   -0.10342E+00   -0.11055E+00 24304   0.502E+01-0.351E+00
CGA:  17    -0.318862687402E+03   -0.56574E-01   -0.60420E-01 24304   0.211E+01-0.227E+00
CGA:  18    -0.318893977830E+03   -0.31290E-01   -0.32732E-01 24304   0.199E+01-0.544E-01
CGA:  19    -0.318947065084E+03   -0.53087E-01   -0.54234E-01 24304   0.283E+01 0.252E-01
CGA:  20    -0.319017785724E+03   -0.70721E-01   -0.71462E-01 24304   0.306E+01 0.594E-02
CGA:  21    -0.319092311724E+03   -0.74526E-01   -0.73425E-01 24304   0.220E+01 0.605E-03
CGA:  22    -0.319128587328E+03   -0.36276E-01   -0.35800E-01 24304   0.111E+01 0.174E-01
CGA:  23    -0.319149736509E+03   -0.21149E-01   -0.21144E-01 24304   0.781E+00-0.133E-04
CGA:  24    -0.319166091401E+03   -0.16355E-01   -0.16592E-01 24304   0.719E+00-0.116E-02
CGA:  25    -0.319187608495E+03   -0.21517E-01   -0.21587E-01 24304   0.101E+01 0.107E-01
CGA:  26    -0.319214091297E+03   -0.26483E-01   -0.26583E-01 24304   0.696E+00 0.441E-02
CGA:  27    -0.319226837848E+03   -0.12747E-01   -0.12763E-01 24304   0.259E+00 0.152E-03
CGA:  28    -0.319231903760E+03   -0.50659E-02   -0.50697E-02 24304   0.158E+00 0.666E-05
CGA:  29    -0.319237162897E+03   -0.52591E-02   -0.52580E-02 24304   0.230E+00 0.215E-03
CGA:  30    -0.319244873989E+03   -0.77111E-02   -0.77094E-02 24304   0.261E+00 0.259E-03
CGA:  31    -0.319251252355E+03   -0.63784E-02   -0.63900E-02 24304   0.149E+00 0.167E-03
SDA:  32    -0.319254077669E+03   -0.28253E-02   -0.28396E-02 24304   0.527E-01-0.260E-03
CGA:  33    -0.319255960747E+03   -0.18831E-02   -0.18819E-02 24304   0.378E-01 0.155E-03
CGA:  34    -0.319258126223E+03   -0.21655E-02   -0.21599E-02 24304   0.429E-01 0.205E-03
CGA:  35    -0.319260612446E+03   -0.24862E-02   -0.24778E-02 24304   0.207E-01 0.314E-03
CGA:  36    -0.319261349473E+03   -0.73703E-03   -0.73690E-03 24304   0.894E-02 0.355E-04
CGA:  37    -0.319262232041E+03   -0.88257E-03   -0.88330E-03 24304   0.197E-01-0.687E-05
CGA:  38    -0.319263026270E+03   -0.79423E-03   -0.79399E-03 24304   0.853E-02 0.177E-04
CGA:  39    -0.319263359661E+03   -0.33339E-03   -0.33333E-03 24304   0.276E-02 0.833E-05
CGA:  40    -0.319263483864E+03   -0.12420E-03   -0.12412E-03 24304   0.288E-02 0.672E-05
CGA:  41    -0.319263762938E+03   -0.27907E-03   -0.27833E-03 24304   0.716E-02 0.121E-04
CGA:  42    -0.319264081092E+03   -0.31815E-03   -0.31796E-03 24304   0.204E-02 0.303E-04
CGA:  43    -0.319264184132E+03   -0.10304E-03   -0.10312E-03 24304   0.236E-02-0.957E-05
CGA:  44    -0.319264466104E+03   -0.28197E-03   -0.28577E-03 24304   0.355E-02-0.464E-04
CGA:  45    -0.319264625844E+03   -0.15974E-03   -0.15977E-03 24304   0.142E-02-0.293E-04
CGA:  46    -0.319264713409E+03   -0.87564E-04   -0.87574E-04 24304   0.227E-02-0.151E-05
CGA:  47    -0.319264968655E+03   -0.25525E-03   -0.25382E-03 24304   0.356E-02 0.213E-04
CGA:  48    -0.319265089400E+03   -0.12074E-03   -0.12115E-03 24304   0.599E-03 0.125E-04
CGA:  49    -0.319265120516E+03   -0.31116E-04   -0.31097E-04 24304   0.981E-03 0.534E-05
CGA:  50    -0.319265263600E+03   -0.14308E-03   -0.13954E-03 24304   0.138E-02 0.390E-04
CGA:  51    -0.319265325761E+03   -0.62160E-04   -0.62315E-04 24304   0.697E-03 0.139E-04
CGA:  52    -0.319265360097E+03   -0.34336E-04   -0.34378E-04 24304   0.773E-03 0.106E-04
CGA:  53    -0.319265416901E+03   -0.56805E-04   -0.56332E-04 24304   0.110E-02 0.236E-04
CGA:  54    -0.319265508022E+03   -0.91120E-04   -0.90563E-04 24304   0.576E-03 0.227E-04
CGA:  55    -0.319265526232E+03   -0.18210E-04   -0.18361E-04 24304   0.423E-03 0.187E-05
CGA:  56    -0.319265605593E+03   -0.79361E-04   -0.82065E-04 24304   0.121E-02-0.221E-04
CGA:  57    -0.319265651436E+03   -0.45843E-04   -0.46047E-04 24304   0.360E-03-0.558E-05
CGA:  58    -0.319265671629E+03   -0.20193E-04   -0.20182E-04 24304   0.404E-03-0.281E-05
CGA:  59    -0.319265712495E+03   -0.40866E-04   -0.40725E-04 24304   0.101E-02 0.238E-05
CGA:  60    -0.319265772105E+03   -0.59610E-04   -0.59450E-04 24304   0.822E-03-0.281E-04
CGA:  61    -0.319265802729E+03   -0.30624E-04   -0.30825E-04 24304   0.385E-03-0.779E-05
CGA:  62    -0.319265830080E+03   -0.27351E-04   -0.27463E-04 24304   0.583E-03-0.862E-05
SDA:  63    -0.319265879177E+03   -0.49096E-04   -0.49175E-04 24304   0.867E-03-0.491E-05
CGA:  64    -0.319265899822E+03   -0.20645E-04   -0.20706E-04 24304   0.213E-03 0.474E-06
CGA:  65    -0.319265912152E+03   -0.12330E-04   -0.12339E-04 24304   0.255E-03 0.356E-05
CGA:  66    -0.319265941608E+03   -0.29456E-04   -0.28798E-04 24304   0.504E-03 0.128E-04
CGA:  67    -0.319265962831E+03   -0.21222E-04   -0.21437E-04 24304   0.212E-03 0.786E-05
CGA:  68    -0.319265973260E+03   -0.10429E-04   -0.10437E-04 24304   0.231E-03 0.686E-06
CGA:  69    -0.319265994487E+03   -0.21228E-04   -0.21294E-04 24304   0.347E-03-0.250E-05
CGA:  70    -0.319266012043E+03   -0.17556E-04   -0.17507E-04 24304   0.229E-03-0.354E-05
CGA:  71    -0.319266024751E+03   -0.12708E-04   -0.12706E-04 24304   0.194E-03-0.808E-06
CGA:  72    -0.319266052354E+03   -0.27603E-04   -0.27860E-04 24304   0.775E-03-0.340E-05
CGA:  73    -0.319266089208E+03   -0.36854E-04   -0.37105E-04 24304   0.195E-03 0.158E-05
CGA:  74    -0.319266099097E+03   -0.98897E-05   -0.98564E-05 24304   0.272E-03-0.205E-05
CGA:  75    -0.319266138790E+03   -0.39692E-04   -0.40386E-04 24304   0.707E-03-0.824E-05
CGA:  76    -0.319266165605E+03   -0.26815E-04   -0.26343E-04 24304   0.233E-03-0.371E-05
CGA:  77    -0.319266180832E+03   -0.15227E-04   -0.15230E-04 24304   0.326E-03 0.583E-06
CGA:  78    -0.319266205838E+03   -0.25006E-04   -0.25166E-04 24304   0.753E-03-0.948E-05
CGA:  79    -0.319266246812E+03   -0.40974E-04   -0.41297E-04 24304   0.290E-03 0.131E-04
CGA:  80    -0.319266258353E+03   -0.11541E-04   -0.11719E-04 24304   0.328E-03-0.223E-06
CGA:  81    -0.319266285884E+03   -0.27531E-04   -0.27941E-04 24304   0.762E-03-0.152E-04
CGA:  82    -0.319266326196E+03   -0.40312E-04   -0.40183E-04 24304   0.705E-03-0.216E-05
CGA:  83    -0.319266350693E+03   -0.24497E-04   -0.25914E-04 24304   0.418E-03-0.116E-04
CGA:  84    -0.319266364586E+03   -0.13893E-04   -0.13670E-04 24304   0.226E-03 0.578E-05
CGA:  85    -0.319266394110E+03   -0.29524E-04   -0.29914E-04 24304   0.106E-02-0.661E-05
CGA:  86    -0.319266440370E+03   -0.46260E-04   -0.47785E-04 24304   0.502E-03 0.270E-04
CGA:  87    -0.319266454839E+03   -0.14469E-04   -0.15083E-04 24304   0.293E-03-0.647E-05
CGA:  88    -0.319266475833E+03   -0.20994E-04   -0.21099E-04 24304   0.634E-03-0.738E-05
CGA:  89    -0.319266517923E+03   -0.42090E-04   -0.42347E-04 24304   0.967E-03-0.347E-04
CGA:  90    -0.319266545007E+03   -0.27085E-04   -0.28612E-04 24304   0.413E-03-0.268E-04
CGA:  91    -0.319266562059E+03   -0.17052E-04   -0.17269E-04 24304   0.478E-03 0.750E-06
CGA:  92    -0.319266593027E+03   -0.30968E-04   -0.31104E-04 24304   0.985E-03-0.209E-04
CGA:  93    -0.319266632673E+03   -0.39646E-04   -0.38731E-04 24304   0.834E-03 0.127E-04
SDA:  94    -0.319266650412E+03   -0.17739E-04   -0.19342E-04 24304   0.246E-03-0.403E-04
CGA:  95    -0.319266664108E+03   -0.13695E-04   -0.13685E-04 24304   0.322E-03-0.347E-05
CGA:  96    -0.319266700770E+03   -0.36663E-04   -0.37372E-04 24304   0.363E-03-0.123E-04
CGA:  97    -0.319266715067E+03   -0.14296E-04   -0.14244E-04 24304   0.220E-03-0.271E-05
CGA:  98    -0.319266728832E+03   -0.13765E-04   -0.13762E-04 24304   0.346E-03 0.107E-05
CGA:  99    -0.319266757503E+03   -0.28671E-04   -0.28572E-04 24304   0.331E-03 0.465E-05
CGA: 100    -0.319266769531E+03   -0.12028E-04   -0.12079E-04 24304   0.904E-04 0.146E-05
CGA: 101    -0.319266780410E+03   -0.10879E-04   -0.11048E-04 24304   0.289E-03-0.294E-05
CGA: 102    -0.319266798127E+03   -0.17717E-04   -0.17717E-04 24304   0.201E-03-0.648E-05
CGA: 103    -0.319266806710E+03   -0.85827E-05   -0.85141E-05 24304   0.943E-04-0.336E-05
   9 F= -.31926681E+03 E0= -.31923962E+03  d E =-.207776E+00  mag=    48.8216
       N       E                     dE             d eps       ncg     rms          ort
SDA:   1    -0.307426270082E+03    0.11841E+02    0.00000E+00 24304   0.445E+02 0.000E+00
CGA:   2    -0.309870534404E+03   -0.24443E+01   -0.24376E+01 24304   0.615E+02-0.382E+00
CGA:   3    -0.314261519772E+03   -0.43910E+01   -0.45331E+01 24304   0.889E+02-0.780E+01
CGA:   4    -0.316879758933E+03   -0.26182E+01   -0.24451E+01 24304   0.229E+02 0.365E+01
CGA:   5    -0.317790764781E+03   -0.91101E+00   -0.63265E+00 24304   0.774E+01 0.754E+01
CGA:   6    -0.318121118416E+03   -0.33035E+00   -0.31910E+00 24304   0.107E+02 0.957E-01
CGA:   7    -0.318601289157E+03   -0.48017E+00   -0.48122E+00 24304   0.175E+02 0.147E-01
CGA:   8    -0.318908430135E+03   -0.30714E+00   -0.32647E+00 24304   0.513E+01-0.739E+00
CGA:   9    -0.318990914831E+03   -0.82485E-01   -0.84977E-01 24304   0.206E+01-0.106E+00
CGA:  10    -0.319052195934E+03   -0.61281E-01   -0.61157E-01 24304   0.254E+01 0.200E-02
CGA:  11    -0.319147851220E+03   -0.95655E-01   -0.95601E-01 24304   0.270E+01 0.203E-03
CGA:  12    -0.319210911490E+03   -0.63060E-01   -0.64368E-01 24304   0.137E+01-0.276E-01
CGA:  13    -0.319243554729E+03   -0.32643E-01   -0.33400E-01 24304   0.616E+00-0.148E-01
CGA:  14    -0.319257361662E+03   -0.13807E-01   -0.14026E-01 24304   0.289E+00-0.510E-02
CGA:  15    -0.319267742989E+03   -0.10381E-01   -0.10417E-01 24304   0.349E+00 0.601E-03
CGA:  16    -0.319285670940E+03   -0.17928E-01   -0.17906E-01 24304   0.485E+00 0.277E-02
CGA:  17    -0.319299121872E+03   -0.13451E-01   -0.13514E-01 24304   0.155E+00-0.680E-03
CGA:  18    -0.319302893582E+03   -0.37717E-02   -0.37682E-02 24304   0.628E-01 0.527E-04
CGA:  19    -0.319305051617E+03   -0.21580E-02   -0.21611E-02 24304   0.605E-01 0.822E-04
CGA:  20    -0.319308818103E+03   -0.37665E-02   -0.37596E-02 24304   0.112E+00 0.324E-03
CGA:  21    -0.319312883236E+03   -0.40651E-02   -0.40730E-02 24304   0.557E-01 0.319E-03
CGA:  22    -0.319314251834E+03   -0.13686E-02   -0.13715E-02 24304   0.167E-01-0.845E-05
CGA:  23    -0.319314885187E+03   -0.63335E-03   -0.63343E-03 24304   0.185E-01-0.102E-04
CGA:  24    -0.319315970854E+03   -0.10857E-02   -0.10867E-02 24304   0.232E-01-0.718E-04
CGA:  25    -0.319316651008E+03   -0.68015E-03   -0.68034E-03 24304   0.753E-02-0.370E-04
CGA:  26    -0.319316881407E+03   -0.23040E-03   -0.23069E-03 24304   0.571E-02 0.825E-05
CGA:  27    -0.319317263696E+03   -0.38229E-03   -0.38066E-03 24304   0.101E-01 0.652E-04
CGA:  28    -0.319317632368E+03   -0.36867E-03   -0.36919E-03 24304   0.460E-02 0.585E-04
CGA:  29    -0.319317765471E+03   -0.13310E-03   -0.13338E-03 24304   0.200E-02 0.152E-04
CGA:  30    -0.319317842797E+03   -0.77326E-04   -0.77333E-04 24304   0.177E-02 0.709E-06
CGA:  31    -0.319317951671E+03   -0.10887E-03   -0.10894E-03 24304   0.313E-02-0.520E-05
SDA:  32    -0.319318096162E+03   -0.14449E-03   -0.14451E-03 24304   0.237E-02-0.972E-05
CGA:  33    -0.319318177224E+03   -0.81062E-04   -0.81090E-04 24304   0.572E-03 0.534E-06
CGA:  34    -0.319318206424E+03   -0.29201E-04   -0.29186E-04 24304   0.703E-03 0.909E-06
CGA:  35    -0.319318278489E+03   -0.72065E-04   -0.71745E-04 24304   0.113E-02 0.488E-05
CGA:  36    -0.319318335051E+03   -0.56562E-04   -0.56559E-04 24304   0.458E-03 0.755E-06
CGA:  37    -0.319318353561E+03   -0.18509E-04   -0.18503E-04 24304   0.261E-03-0.164E-05
CGA:  38    -0.319318384869E+03   -0.31309E-04   -0.31587E-04 24304   0.788E-03-0.406E-05
CGA:  39    -0.319318441995E+03   -0.57126E-04   -0.57237E-04 24304   0.548E-03-0.522E-05
CGA:  40    -0.319318459627E+03   -0.17632E-04   -0.17634E-04 24304   0.241E-03-0.606E-06
CGA:  41    -0.319318510336E+03   -0.50709E-04   -0.49871E-04 24304   0.109E-02 0.490E-05
CGA:  42    -0.319318553317E+03   -0.42981E-04   -0.43072E-04 24304   0.146E-03 0.381E-05
CGA:  43    -0.319318569947E+03   -0.16631E-04   -0.16673E-04 24304   0.378E-03-0.100E-05
CGA:  44    -0.319318599690E+03   -0.29742E-04   -0.29770E-04 24304   0.322E-03-0.171E-05
CGA:  45    -0.319318613221E+03   -0.13532E-04   -0.13542E-04 24304   0.167E-03-0.275E-07
CGA:  46    -0.319318622314E+03   -0.90930E-05   -0.91037E-05 24304   0.182E-03 0.166E-05
CGA:  47    -0.319318637558E+03   -0.15244E-04   -0.15115E-04 24304   0.153E-03 0.547E-05
CGA:  48    -0.319318643884E+03   -0.63256E-05   -0.63747E-05 24304   0.676E-04 0.205E-05
  10 F= -.31931864E+03 E0= -.31929320E+03  d E =-.518372E-01  mag=    48.8656
       N       E                     dE             d eps       ncg     rms          ort
SDA:   1    -0.365296520707E+02    0.28279E+03    0.00000E+00 24304   0.479E+04 0.000E+00
CGA:   2    -0.171409964050E+03   -0.13488E+03   -0.16165E+03 24304   0.121E+04-0.380E+03
CGA:   3    -0.219119212204E+03   -0.47709E+02   -0.35899E+02 24304   0.381E+03 0.298E+03
CGA:   4    -0.244719321251E+03   -0.25600E+02   -0.25464E+02 24304   0.694E+03-0.173E+02
CGA:   5    -0.271043337562E+03   -0.26324E+02   -0.27619E+02 24304   0.115E+04 0.222E+02
CGA:   6    -0.295740408317E+03   -0.24697E+02   -0.25662E+02 24304   0.384E+03-0.508E+02
CGA:   7    -0.299658080524E+03   -0.39177E+01   -0.59431E+01 24304   0.223E+03-0.107E+03
CGA:   8    -0.302357645234E+03   -0.26996E+01   -0.27883E+01 24304   0.198E+03-0.879E+01
CGA:   9    -0.306668296677E+03   -0.43107E+01   -0.40154E+01 24304   0.210E+03 0.609E+01
CGA:  10    -0.309907266441E+03   -0.32390E+01   -0.33233E+01 24304   0.116E+03-0.868E+01
CGA:  11    -0.311883229206E+03   -0.19760E+01   -0.19369E+01 24304   0.103E+03 0.179E+01
CGA:  12    -0.313379937833E+03   -0.14967E+01   -0.13972E+01 24304   0.556E+02 0.532E+01
CGA:  13    -0.314158410000E+03   -0.77847E+00   -0.74507E+00 24304   0.404E+02 0.160E+01
CGA:  14    -0.314811564312E+03   -0.65315E+00   -0.66922E+00 24304   0.430E+02-0.844E+00
CGA:  15    -0.315500124774E+03   -0.68856E+00   -0.70983E+00 24304   0.468E+02-0.891E+00
CGA:  16    -0.316164069167E+03   -0.66394E+00   -0.68915E+00 24304   0.398E+02-0.159E+01
CGA:  17    -0.316676362615E+03   -0.51229E+00   -0.52237E+00 24304   0.268E+02-0.912E+00
CGA:  18    -0.316986386441E+03   -0.31002E+00   -0.33326E+00 24304   0.171E+02-0.138E+01
CGA:  19    -0.317225179526E+03   -0.23879E+00   -0.25233E+00 24304   0.138E+02-0.558E+00
CGA:  20    -0.317420910181E+03   -0.19573E+00   -0.20690E+00 24304   0.107E+02-0.434E+00
CGA:  21    -0.317628128101E+03   -0.20722E+00   -0.21577E+00 24304   0.123E+02-0.936E-01
CGA:  22    -0.317890839443E+03   -0.26271E+00   -0.27989E+00 24304   0.973E+01 0.971E-01
CGA:  23    -0.318081949446E+03   -0.19111E+00   -0.19942E+00 24304   0.567E+01-0.807E-01
CGA:  24    -0.318205918162E+03   -0.12397E+00   -0.12620E+00 24304   0.335E+01 0.163E-01
CGA:  25    -0.318312817259E+03   -0.10690E+00   -0.10695E+00 24304   0.404E+01 0.806E-01
CGA:  26    -0.318449852339E+03   -0.13704E+00   -0.13672E+00 24304   0.334E+01 0.190E+00
CGA:  27    -0.318572600180E+03   -0.12275E+00   -0.12226E+00 24304   0.164E+01 0.103E+00
CGA:  28    -0.318618130226E+03   -0.45530E-01   -0.45713E-01 24304   0.105E+01 0.992E-02
CGA:  29    -0.318658604128E+03   -0.40474E-01   -0.40198E-01 24304   0.100E+01 0.299E-01
CGA:  30    -0.318712804535E+03   -0.54200E-01   -0.53300E-01 24304   0.809E+00 0.397E-01
CGA:  31    -0.318739009107E+03   -0.26205E-01   -0.26254E-01 24304   0.440E+00 0.965E-02
SDA:  32    -0.318758063289E+03   -0.19054E-01   -0.18955E-01 24304   0.487E+00 0.753E-02
CGA:  33    -0.318767570297E+03   -0.95070E-02   -0.95320E-02 24304   0.143E+00-0.404E-03
CGA:  34    -0.318784523255E+03   -0.16953E-01   -0.16675E-01 24304   0.502E+00 0.393E-02
CGA:  35    -0.318805588300E+03   -0.21065E-01   -0.21054E-01 24304   0.120E+00 0.158E-02
CGA:  36    -0.318811327637E+03   -0.57393E-02   -0.57323E-02 24304   0.127E+00 0.465E-03
CGA:  37    -0.318820204326E+03   -0.88767E-02   -0.88241E-02 24304   0.181E+00 0.159E-02
CGA:  38    -0.318831876993E+03   -0.11673E-01   -0.11590E-01 24304   0.192E+00 0.300E-02
CGA:  39    -0.318838005505E+03   -0.61285E-02   -0.61500E-02 24304   0.561E-01 0.529E-03
CGA:  40    -0.318842614305E+03   -0.46088E-02   -0.45958E-02 24304   0.136E+00 0.298E-03
CGA:  41    -0.318854712275E+03   -0.12098E-01   -0.12177E-01 24304   0.147E+00-0.212E-02
CGA:  42    -0.318860031384E+03   -0.53191E-02   -0.53223E-02 24304   0.663E-01 0.488E-04
CGA:  43    -0.318862537563E+03   -0.25062E-02   -0.25098E-02 24304   0.288E-01 0.171E-03
CGA:  44    -0.318866792317E+03   -0.42548E-02   -0.42901E-02 24304   0.115E+00-0.443E-03
CGA:  45    -0.318872420479E+03   -0.56282E-02   -0.56276E-02 24304   0.489E-01 0.537E-03
CGA:  46    -0.318874034853E+03   -0.16144E-02   -0.16204E-02 24304   0.289E-01 0.176E-04
CGA:  47    -0.318877020526E+03   -0.29857E-02   -0.30043E-02 24304   0.462E-01-0.350E-03
CGA:  48    -0.318879270772E+03   -0.22502E-02   -0.22514E-02 24304   0.216E-01 0.300E-03
CGA:  49    -0.318880331288E+03   -0.10605E-02   -0.10608E-02 24304   0.170E-01 0.741E-04
CGA:  50    -0.318881993195E+03   -0.16619E-02   -0.16439E-02 24304   0.431E-01 0.384E-03
CGA:  51    -0.318884973283E+03   -0.29801E-02   -0.29749E-02 24304   0.326E-01 0.295E-03
CGA:  52    -0.318886036965E+03   -0.10637E-02   -0.10614E-02 24304   0.997E-02 0.712E-04
CGA:  53    -0.318886632859E+03   -0.59589E-03   -0.59515E-03 24304   0.135E-01 0.666E-04
CGA:  54    -0.318888198307E+03   -0.15654E-02   -0.15985E-02 24304   0.205E-01-0.555E-03
CGA:  55    -0.318889067025E+03   -0.86872E-03   -0.87228E-03 24304   0.653E-02 0.362E-04
CGA:  56    -0.318889535748E+03   -0.46872E-03   -0.46823E-03 24304   0.107E-01 0.145E-04
CGA:  57    -0.318890348177E+03   -0.81243E-03   -0.81841E-03 24304   0.113E-01-0.242E-03
CGA:  58    -0.318890901653E+03   -0.55348E-03   -0.55427E-03 24304   0.561E-02 0.238E-04
CGA:  59    -0.318891131617E+03   -0.22996E-03   -0.23004E-03 24304   0.418E-02-0.671E-05
CGA:  60    -0.318891718461E+03   -0.58684E-03   -0.59967E-03 24304   0.165E-01-0.176E-03
CGA:  61    -0.318892479544E+03   -0.76108E-03   -0.75140E-03 24304   0.675E-02-0.121E-03
CGA:  62    -0.318892687340E+03   -0.20780E-03   -0.21263E-03 24304   0.321E-02-0.724E-04
SDA:  63    -0.318892886886E+03   -0.19955E-03   -0.19959E-03 24304   0.428E-02-0.690E-05
CGA:  64    -0.318893062764E+03   -0.17588E-03   -0.17594E-03 24304   0.394E-02 0.258E-05
CGA:  65    -0.318893324965E+03   -0.26220E-03   -0.26213E-03 24304   0.496E-02 0.831E-05
CGA:  66    -0.318893790013E+03   -0.46505E-03   -0.46352E-03 24304   0.101E-01 0.399E-04
CGA:  67    -0.318894247883E+03   -0.45787E-03   -0.45699E-03 24304   0.176E-02 0.433E-05
CGA:  68    -0.318894357353E+03   -0.10947E-03   -0.10947E-03 24304   0.238E-02-0.369E-06
CGA:  69    -0.318894709446E+03   -0.35209E-03   -0.35413E-03 24304   0.303E-02-0.266E-04
CGA:  70    -0.318894801642E+03   -0.92196E-04   -0.92245E-04 24304   0.810E-03-0.492E-05
CGA:  71    -0.318894899733E+03   -0.98090E-04   -0.98109E-04 24304   0.260E-02-0.134E-05
CGA:  72    -0.318895073349E+03   -0.17362E-03   -0.17363E-03 24304   0.165E-02-0.581E-05
CGA:  73    -0.318895131985E+03   -0.58636E-04   -0.58616E-04 24304   0.725E-03-0.309E-05
CGA:  74    -0.318895208637E+03   -0.76652E-04   -0.77147E-04 24304   0.161E-02-0.123E-04
CGA:  75    -0.318895372394E+03   -0.16376E-03   -0.16687E-03 24304   0.141E-02-0.757E-04
CGA:  76    -0.318895429096E+03   -0.56702E-04   -0.57150E-04 24304   0.773E-03-0.685E-05
CGA:  77    -0.318895479916E+03   -0.50820E-04   -0.50813E-04 24304   0.101E-02-0.421E-05
CGA:  78    -0.318895574542E+03   -0.94625E-04   -0.94314E-04 24304   0.156E-02 0.107E-04
CGA:  79    -0.318895625335E+03   -0.50793E-04   -0.51357E-04 24304   0.443E-03 0.222E-05
CGA:  80    -0.318895678395E+03   -0.53060E-04   -0.53352E-04 24304   0.166E-02-0.582E-05
CGA:  81    -0.318895781293E+03   -0.10290E-03   -0.10292E-03 24304   0.653E-03-0.248E-06
CGA:  82    -0.318895803624E+03   -0.22331E-04   -0.22417E-04 24304   0.303E-03-0.123E-05
CGA:  83    -0.318895832474E+03   -0.28850E-04   -0.28880E-04 24304   0.759E-03-0.966E-06
CGA:  84    -0.318895884602E+03   -0.52128E-04   -0.52117E-04 24304   0.485E-03 0.123E-04
CGA:  85    -0.318895910654E+03   -0.26052E-04   -0.26089E-04 24304   0.210E-03 0.243E-05
CGA:  86    -0.318895923082E+03   -0.12428E-04   -0.12425E-04 24304   0.273E-03-0.556E-06
CGA:  87    -0.318895954398E+03   -0.31316E-04   -0.31368E-04 24304   0.636E-03-0.171E-05
CGA:  88    -0.318895980953E+03   -0.26555E-04   -0.26403E-04 24304   0.275E-03-0.369E-05
CGA:  89    -0.318895991350E+03   -0.10398E-04   -0.10358E-04 24304   0.149E-03-0.219E-05
CGA:  90    -0.318896012803E+03   -0.21452E-04   -0.21732E-04 24304   0.491E-03-0.374E-05
CGA:  91    -0.318896037069E+03   -0.24266E-04   -0.24057E-04 24304   0.210E-03-0.586E-05
CGA:  92    -0.318896045598E+03   -0.85293E-05   -0.85294E-05 24304   0.128E-03-0.906E-06
CGA:  93    -0.318896056359E+03   -0.10761E-04   -0.10739E-04 24304   0.184E-03 0.124E-05
SDA:  94    -0.318896075744E+03   -0.19385E-04   -0.19233E-04 24304   0.184E-03 0.417E-05
CGA:  95    -0.318896079808E+03   -0.40645E-05   -0.40526E-05 24304   0.433E-04-0.530E-06
  11 F= -.31889608E+03 E0= -.31886874E+03  d E =0.422564E+00  mag=    46.9464
       N       E                     dE             d eps       ncg     rms          ort
SDA:   1    -0.274264299706E+03    0.44632E+02    0.00000E+00 24304   0.249E+03 0.000E+00
CGA:   2    -0.284133046319E+03   -0.98687E+01   -0.10601E+02 24304   0.219E+03-0.131E+02
CGA:   3    -0.298893291224E+03   -0.14760E+02   -0.14992E+02 24304   0.394E+03-0.592E+02
CGA:   4    -0.306436566150E+03   -0.75433E+01   -0.65217E+01 24304   0.220E+03-0.115E+02
CGA:   5    -0.308171934819E+03   -0.17354E+01   -0.42540E+01 24304   0.289E+03-0.928E+02
CGA:   6    -0.310986217789E+03   -0.28143E+01   -0.27725E+01 24304   0.213E+03-0.632E-01
CGA:   7    -0.312667209454E+03   -0.16810E+01   -0.28077E+01 24304   0.131E+03-0.954E+02
CGA:   8    -0.313570606077E+03   -0.90340E+00   -0.91515E+00 24304   0.101E+03-0.297E+00
[...]
CGA:   5    -0.319219773260E+03   -0.29631E-01   -0.29669E-01 24304   0.514E+00 0.190E-02
CGA:   6    -0.319254289723E+03   -0.34516E-01   -0.34524E-01 24304   0.190E+00-0.660E-03
CGA:   7    -0.319261488208E+03   -0.71985E-02   -0.71926E-02 24304   0.766E-01 0.575E-04
CGA:   8    -0.319266065531E+03   -0.45773E-02   -0.45773E-02 24304   0.753E-01 0.214E-04
CGA:   9    -0.319269264375E+03   -0.31988E-02   -0.31998E-02 24304   0.337E-01 0.295E-04
CGA:  10    -0.319270736630E+03   -0.14723E-02   -0.14736E-02 24304   0.823E-02 0.258E-04
CGA:  11    -0.319271269899E+03   -0.53327E-03   -0.53322E-03 24304   0.977E-02 0.590E-05
CGA:  12    -0.319272013371E+03   -0.74347E-03   -0.74327E-03 24304   0.426E-02 0.870E-05
CGA:  13    -0.319272163712E+03   -0.15034E-03   -0.15034E-03 24304   0.152E-02-0.460E-06
CGA:  14    -0.319272278838E+03   -0.11513E-03   -0.11514E-03 24304   0.242E-02-0.876E-06
CGA:  15    -0.319272406282E+03   -0.12744E-03   -0.12745E-03 24304   0.149E-02 0.279E-06
CGA:  16    -0.319272468279E+03   -0.61996E-04   -0.62018E-04 24304   0.450E-03 0.612E-06
CGA:  17    -0.319272500601E+03   -0.32322E-04   -0.32310E-04 24304   0.508E-03 0.701E-06
CGA:  18    -0.319272556619E+03   -0.56018E-04   -0.55947E-04 24304   0.519E-03 0.129E-05
CGA:  19    -0.319272573322E+03   -0.16703E-04   -0.16724E-04 24304   0.158E-03 0.558E-06
CGA:  20    -0.319272583699E+03   -0.10377E-04   -0.10372E-04 24304   0.228E-03 0.731E-06
CGA:  21    -0.319272599860E+03   -0.16161E-04   -0.16149E-04 24304   0.197E-03 0.103E-05
CGA:  22    -0.319272609094E+03   -0.92342E-05   -0.92405E-05 24304   0.625E-04 0.340E-06
  46 F= -.31927261E+03 E0= -.31925159E+03  d E =0.160505E-01  mag=    49.0217
       N       E                     dE             d eps       ncg     rms          ort
SDA:   1    -0.318939160561E+03    0.33344E+00    0.00000E+00 24304   0.143E+01 0.000E+00
CGA:   2    -0.318997163529E+03   -0.58003E-01   -0.57688E-01 24304   0.164E+01-0.773E-03
CGA:   3    -0.319179487616E+03   -0.18232E+00   -0.18289E+00 24304   0.179E+01-0.107E-01
CGA:   4    -0.319234265426E+03   -0.54778E-01   -0.55584E-01 24304   0.374E+00-0.119E-01
CGA:   5    -0.319255810015E+03   -0.21545E-01   -0.21544E-01 24304   0.330E+00-0.611E-04
CGA:   6    -0.319276335067E+03   -0.20525E-01   -0.20524E-01 24304   0.193E+00 0.147E-03
CGA:   7    -0.319284327303E+03   -0.79922E-02   -0.79884E-02 24304   0.601E-01 0.334E-06
CGA:   8    -0.319286778176E+03   -0.24509E-02   -0.24519E-02 24304   0.401E-01 0.120E-04
CGA:   9    -0.319289927609E+03   -0.31494E-02   -0.31491E-02 24304   0.202E-01 0.154E-04
CGA:  10    -0.319290670396E+03   -0.74279E-03   -0.74265E-03 24304   0.733E-02 0.316E-05
CGA:  11    -0.319291015612E+03   -0.34522E-03   -0.34521E-03 24304   0.565E-02-0.120E-05
CGA:  12    -0.319291400821E+03   -0.38521E-03   -0.38525E-03 24304   0.673E-02-0.416E-05
CGA:  13    -0.319291670609E+03   -0.26979E-03   -0.26975E-03 24304   0.104E-02-0.358E-05
CGA:  14    -0.319291746223E+03   -0.75614E-04   -0.75584E-04 24304   0.108E-02 0.163E-05
CGA:  15    -0.319291840186E+03   -0.93963E-04   -0.93888E-04 24304   0.123E-02 0.235E-05
CGA:  16    -0.319291887394E+03   -0.47208E-04   -0.47242E-04 24304   0.373E-03 0.132E-05
CGA:  17    -0.319291906528E+03   -0.19134E-04   -0.19144E-04 24304   0.297E-03 0.125E-05
CGA:  18    -0.319291937960E+03   -0.31432E-04   -0.31269E-04 24304   0.467E-03 0.334E-05
CGA:  19    -0.319291958360E+03   -0.20400E-04   -0.20437E-04 24304   0.122E-03 0.198E-05
CGA:  20    -0.319291965336E+03   -0.69759E-05   -0.69755E-05 24304   0.110E-03-0.236E-06
  47 F= -.31929197E+03 E0= -.31927100E+03  d E =-.193562E-01  mag=    49.0229
       N       E                     dE             d eps       ncg     rms          ort
SDA:   1    -0.319128364709E+03    0.16359E+00    0.00000E+00 24304   0.135E+01 0.000E+00
CGA:   2    -0.319157843230E+03   -0.29479E-01   -0.29641E-01 24304   0.424E+00-0.558E-02
CGA:   3    -0.319235159561E+03   -0.77316E-01   -0.77508E-01 24304   0.749E+00-0.183E-02
CGA:   4    -0.319263594457E+03   -0.28435E-01   -0.28550E-01 24304   0.214E+00-0.710E-03
CGA:   5    -0.319272368992E+03   -0.87745E-02   -0.87916E-02 24304   0.118E+00-0.186E-04
CGA:   6    -0.319280360534E+03   -0.79915E-02   -0.79921E-02 24304   0.101E+00-0.587E-04
CGA:   7    -0.319284546480E+03   -0.41859E-02   -0.41861E-02 24304   0.199E-01 0.418E-05
CGA:   8    -0.319285624935E+03   -0.10785E-02   -0.10784E-02 24304   0.155E-01 0.352E-05
CGA:   9    -0.319286873906E+03   -0.12490E-02   -0.12484E-02 24304   0.891E-02 0.258E-04
CGA:  10    -0.319287144028E+03   -0.27012E-03   -0.27028E-03 24304   0.218E-02 0.361E-05
CGA:  11    -0.319287280005E+03   -0.13598E-03   -0.13598E-03 24304   0.303E-02 0.616E-06
CGA:  12    -0.319287473262E+03   -0.19326E-03   -0.19325E-03 24304   0.152E-02 0.289E-06
CGA:  13    -0.319287525412E+03   -0.52151E-04   -0.52138E-04 24304   0.469E-03-0.192E-06
CGA:  14    -0.319287551800E+03   -0.26388E-04   -0.26389E-04 24304   0.425E-03 0.107E-06
CGA:  15    -0.319287585595E+03   -0.33794E-04   -0.33806E-04 24304   0.501E-03-0.709E-06
CGA:  16    -0.319287606135E+03   -0.20540E-04   -0.20527E-04 24304   0.116E-03-0.858E-06
CGA:  17    -0.319287612844E+03   -0.67097E-05   -0.67098E-05 24304   0.120E-03-0.135E-08
CGA:  18    -0.319287624718E+03   -0.11874E-04   -0.11865E-04 24304   0.148E-03 0.160E-06
CGA:  19    -0.319287631442E+03   -0.67235E-05   -0.67235E-05 24304   0.590E-04-0.809E-07
  48 F= -.31928763E+03 E0= -.31926667E+03  d E =0.433389E-02  mag=    49.0255
       N       E                     dE             d eps       ncg     rms          ort
SDA:   1    -0.318236453802E+03    0.10512E+01    0.00000E+00 24304   0.299E+01 0.000E+00
CGA:   2    -0.318484324753E+03   -0.24787E+00   -0.24793E+00 24304   0.816E+01-0.186E-02
CGA:   3    -0.319009099434E+03   -0.52477E+00   -0.52507E+00 24304   0.320E+01-0.432E-01
CGA:   4    -0.319122186325E+03   -0.11309E+00   -0.11136E+00 24304   0.105E+01 0.207E-01
CGA:   5    -0.319194457935E+03   -0.72272E-01   -0.72344E-01 24304   0.116E+01-0.505E-02
CGA:   6    -0.319243920387E+03   -0.49462E-01   -0.49464E-01 24304   0.373E+00 0.829E-04
CGA:   7    -0.319257616510E+03   -0.13696E-01   -0.13723E-01 24304   0.136E+00-0.562E-04
CGA:   8    -0.319268684256E+03   -0.11068E-01   -0.11066E-01 24304   0.138E+00 0.923E-04
CGA:   9    -0.319274693537E+03   -0.60093E-02   -0.60106E-02 24304   0.392E-01 0.546E-04
CGA:  10    -0.319276084217E+03   -0.13907E-02   -0.13909E-02 24304   0.204E-01 0.578E-05
CGA:  11    -0.319277504829E+03   -0.14206E-02   -0.14205E-02 24304   0.255E-01 0.788E-05
CGA:  12    -0.319278784405E+03   -0.12796E-02   -0.12800E-02 24304   0.693E-02 0.198E-04
CGA:  13    -0.319279071777E+03   -0.28737E-03   -0.28728E-03 24304   0.301E-02-0.324E-05
CGA:  14    -0.319279336186E+03   -0.26441E-03   -0.26431E-03 24304   0.487E-02 0.228E-05
CGA:  15    -0.319279572055E+03   -0.23587E-03   -0.23589E-03 24304   0.215E-02 0.353E-06
CGA:  16    -0.319279648974E+03   -0.76918E-04   -0.76968E-04 24304   0.763E-03 0.595E-06
CGA:  17    -0.319279707727E+03   -0.58753E-04   -0.58680E-04 24304   0.123E-02 0.312E-05
CGA:  18    -0.319279795659E+03   -0.87932E-04   -0.87846E-04 24304   0.906E-03 0.553E-05
CGA:  19    -0.319279828950E+03   -0.33290E-04   -0.33333E-04 24304   0.314E-03 0.149E-05
CGA:  20    -0.319279845932E+03   -0.16983E-04   -0.16986E-04 24304   0.301E-03 0.662E-06
CGA:  21    -0.319279880471E+03   -0.34538E-04   -0.34436E-04 24304   0.295E-03 0.156E-05
CGA:  22    -0.319279891348E+03   -0.10878E-04   -0.10897E-04 24304   0.933E-04 0.502E-06
CGA:  23    -0.319279895352E+03   -0.40032E-05   -0.40118E-05 24304   0.850E-04 0.363E-06
  49 F= -.31927990E+03 E0= -.31925892E+03  d E =0.773609E-02  mag=    49.0280
       N       E                     dE             d eps       ncg     rms          ort
SDA:   1    -0.318590777489E+03    0.68911E+00    0.00000E+00 24304   0.213E+01 0.000E+00
CGA:   2    -0.318762637131E+03   -0.17186E+00   -0.17231E+00 24304   0.469E+01-0.162E-01
CGA:   3    -0.319084900405E+03   -0.32226E+00   -0.32233E+00 24304   0.319E+01-0.520E-02
CGA:   4    -0.319183229955E+03   -0.98330E-01   -0.99112E-01 24304   0.687E+00-0.819E-02
CGA:   5    -0.319224711549E+03   -0.41482E-01   -0.41483E-01 24304   0.715E+00-0.152E-02
CGA:   6    -0.319262230996E+03   -0.37519E-01   -0.37533E-01 24304   0.378E+00 0.709E-03
CGA:   7    -0.319276011312E+03   -0.13780E-01   -0.13771E-01 24304   0.109E+00 0.104E-03
CGA:   8    -0.319281465728E+03   -0.54544E-02   -0.54527E-02 24304   0.789E-01-0.403E-04
CGA:   9    -0.319286940786E+03   -0.54751E-02   -0.54746E-02 24304   0.449E-01 0.416E-04
CGA:  10    -0.319288671165E+03   -0.17304E-02   -0.17287E-02 24304   0.114E-01 0.166E-04
CGA:  11    -0.319289424774E+03   -0.75361E-03   -0.75344E-03 24304   0.129E-01 0.121E-04
CGA:  12    -0.319290240485E+03   -0.81571E-03   -0.81572E-03 24304   0.119E-01-0.476E-05
CGA:  13    -0.319290608054E+03   -0.36757E-03   -0.36729E-03 24304   0.184E-02-0.380E-05
CGA:  14    -0.319290751060E+03   -0.14301E-03   -0.14294E-03 24304   0.253E-02 0.250E-05
CGA:  15    -0.319290933952E+03   -0.18289E-03   -0.18285E-03 24304   0.212E-02 0.274E-05
CGA:  16    -0.319291021467E+03   -0.87516E-04   -0.87557E-04 24304   0.585E-03 0.209E-05
CGA:  17    -0.319291059693E+03   -0.38225E-04   -0.38206E-04 24304   0.752E-03 0.228E-05
CGA:  18    -0.319291114590E+03   -0.54897E-04   -0.54822E-04 24304   0.934E-03 0.486E-05
CGA:  19    -0.319291156169E+03   -0.41579E-04   -0.41635E-04 24304   0.296E-03 0.347E-05
CGA:  20    -0.319291170180E+03   -0.14011E-04   -0.14021E-04 24304   0.201E-03 0.735E-06
CGA:  21    -0.319291188855E+03   -0.18675E-04   -0.18672E-04 24304   0.420E-03-0.723E-07
CGA:  22    -0.319291207353E+03   -0.18499E-04   -0.18493E-04 24304   0.866E-04-0.483E-06
CGA:  23    -0.319291212080E+03   -0.47272E-05   -0.47271E-05 24304   0.646E-04-0.161E-06
  50 F= -.31929121E+03 E0= -.31927017E+03  d E =-.113167E-01  mag=    49.0262
       N       E                     dE             d eps       ncg     rms          ort
SDA:   1    -0.319085288446E+03    0.20592E+00    0.00000E+00 24304   0.859E+00 0.000E+00
CGA:   2    -0.319122519996E+03   -0.37232E-01   -0.37146E-01 24304   0.994E+00-0.506E-03
CGA:   3    -0.319218721308E+03   -0.96201E-01   -0.96261E-01 24304   0.114E+01-0.144E-02
CGA:   4    -0.319259304440E+03   -0.40583E-01   -0.40764E-01 24304   0.319E+00-0.130E-02
CGA:   5    -0.319275204452E+03   -0.15900E-01   -0.15893E-01 24304   0.188E+00-0.184E-03
CGA:   6    -0.319286171194E+03   -0.10967E-01   -0.10967E-01 24304   0.168E+00-0.766E-06
CGA:   7    -0.319293257391E+03   -0.70862E-02   -0.70894E-02 24304   0.407E-01 0.121E-04
CGA:   8    -0.319295009617E+03   -0.17522E-02   -0.17514E-02 24304   0.224E-01-0.101E-04
CGA:   9    -0.319296742466E+03   -0.17328E-02   -0.17331E-02 24304   0.193E-01-0.111E-04
CGA:  10    -0.319297558361E+03   -0.81590E-03   -0.81586E-03 24304   0.401E-02-0.382E-05
CGA:  11    -0.319297767570E+03   -0.20921E-03   -0.20921E-03 24304   0.319E-02 0.462E-07
CGA:  12    -0.319298031760E+03   -0.26419E-03   -0.26411E-03 24304   0.321E-02 0.275E-05
CGA:  13    -0.319298148159E+03   -0.11640E-03   -0.11640E-03 24304   0.106E-02 0.483E-06
CGA:  14    -0.319298189774E+03   -0.41615E-04   -0.41626E-04 24304   0.536E-03 0.445E-06
CGA:  15    -0.319298230931E+03   -0.41157E-04   -0.41127E-04 24304   0.746E-03 0.141E-05
CGA:  16    -0.319298277306E+03   -0.46374E-04   -0.46366E-04 24304   0.268E-03 0.192E-05
CGA:  17    -0.319298287964E+03   -0.10658E-04   -0.10673E-04 24304   0.157E-03 0.661E-06
CGA:  18    -0.319298300113E+03   -0.12149E-04   -0.12133E-04 24304   0.226E-03 0.731E-06
CGA:  19    -0.319298316150E+03   -0.16037E-04   -0.16021E-04 24304   0.124E-03 0.119E-05
CGA:  20    -0.319298320796E+03   -0.46455E-05   -0.46586E-05 24304   0.485E-04 0.528E-06
  51 F= -.31929832E+03 E0= -.31927722E+03  d E =-.710872E-02  mag=    49.0270
       N       E                     dE             d eps       ncg     rms          ort
SDA:   1    -0.318978254474E+03    0.32006E+00    0.00000E+00 24304   0.962E+00 0.000E+00
CGA:   2    -0.319041779483E+03   -0.63525E-01   -0.63565E-01 24304   0.223E+01-0.336E-02
CGA:   3    -0.319212733996E+03   -0.17095E+00   -0.17089E+00 24304   0.969E+00 0.242E-02
CGA:   4    -0.319249262086E+03   -0.36528E-01   -0.36632E-01 24304   0.334E+00-0.269E-03
CGA:   5    -0.319270779515E+03   -0.21517E-01   -0.21531E-01 24304   0.318E+00-0.146E-02
CGA:   6    -0.319285409513E+03   -0.14630E-01   -0.14635E-01 24304   0.113E+00 0.106E-03
CGA:   7    -0.319289973135E+03   -0.45636E-02   -0.45763E-02 24304   0.447E-01 0.520E-04
CGA:   8    -0.319292479486E+03   -0.25064E-02   -0.25063E-02 24304   0.423E-01-0.826E-05
CGA:   9    -0.319294941778E+03   -0.24623E-02   -0.24623E-02 24304   0.113E-01 0.120E-04
CGA:  10    -0.319295385853E+03   -0.44408E-03   -0.44417E-03 24304   0.614E-02 0.346E-05
CGA:  11    -0.319295738336E+03   -0.35248E-03   -0.35248E-03 24304   0.742E-02 0.509E-07
CGA:  12    -0.319296147789E+03   -0.40945E-03   -0.40945E-03 24304   0.226E-02-0.114E-05
CGA:  13    -0.319296245351E+03   -0.97562E-04   -0.97536E-04 24304   0.886E-03-0.192E-05
CGA:  14    -0.319296312221E+03   -0.66870E-04   -0.66881E-04 24304   0.122E-02-0.802E-06
CGA:  15    -0.319296388488E+03   -0.76267E-04   -0.76266E-04 24304   0.664E-03-0.856E-07
CGA:  16    -0.319296413211E+03   -0.24723E-04   -0.24739E-04 24304   0.218E-03 0.535E-06
CGA:  17    -0.319296429343E+03   -0.16132E-04   -0.16120E-04 24304   0.347E-03 0.507E-06
CGA:  18    -0.319296457094E+03   -0.27751E-04   -0.27723E-04 24304   0.235E-03 0.108E-05
CGA:  19    -0.319296466128E+03   -0.90346E-05   -0.90481E-05 24304   0.894E-04 0.513E-06
  52 F= -.31929647E+03 E0= -.31927527E+03  d E =0.185467E-02  mag=    49.0278
       N       E                     dE             d eps       ncg     rms          ort
SDA:   1    -0.318193792059E+03    0.11027E+01    0.00000E+00 24304   0.399E+01 0.000E+00
CGA:   2    -0.318397112279E+03   -0.20332E+00   -0.20309E+00 24304   0.603E+01-0.116E-01
CGA:   3    -0.318954701416E+03   -0.55759E+00   -0.55863E+00 24304   0.514E+01-0.292E-01
CGA:   4    -0.319105799526E+03   -0.15110E+00   -0.14754E+00 24304   0.114E+01 0.665E-01
CGA:   5    -0.319210459053E+03   -0.10466E+00   -0.10457E+00 24304   0.129E+01 0.210E-02
CGA:   6    -0.319268453146E+03   -0.57994E-01   -0.57820E-01 24304   0.296E+00-0.171E-02
CGA:   7    -0.319283811321E+03   -0.15358E-01   -0.15368E-01 24304   0.204E+00 0.579E-03
CGA:   8    -0.319295094227E+03   -0.11283E-01   -0.11281E-01 24304   0.161E+00-0.249E-03
CGA:   9    -0.319302185963E+03   -0.70917E-02   -0.70909E-02 24304   0.448E-01-0.158E-04
CGA:  10    -0.319304031871E+03   -0.18459E-02   -0.18483E-02 24304   0.233E-01 0.181E-04
CGA:  11    -0.319305725855E+03   -0.16940E-02   -0.16941E-02 24304   0.242E-01-0.462E-05
CGA:  12    -0.319307123283E+03   -0.13974E-02   -0.13974E-02 24304   0.811E-02 0.989E-05
CGA:  13    -0.319307368434E+03   -0.24515E-03   -0.24542E-03 24304   0.413E-02-0.391E-05
CGA:  14    -0.319307707048E+03   -0.33861E-03   -0.33861E-03 24304   0.489E-02-0.287E-06
CGA:  15    -0.319308022304E+03   -0.31526E-03   -0.31514E-03 24304   0.243E-02 0.116E-04
CGA:  16    -0.319308109774E+03   -0.87470E-04   -0.87539E-04 24304   0.908E-03 0.182E-05
CGA:  17    -0.319308199705E+03   -0.89931E-04   -0.89670E-04 24304   0.171E-02 0.553E-05
CGA:  18    -0.319308307816E+03   -0.10811E-03   -0.10808E-03 24304   0.919E-03 0.699E-05
CGA:  19    -0.319308340428E+03   -0.32612E-04   -0.32670E-04 24304   0.405E-03 0.138E-05
CGA:  20    -0.319308368109E+03   -0.27681E-04   -0.27666E-04 24304   0.494E-03 0.920E-06
CGA:  21    -0.319308407637E+03   -0.39528E-04   -0.39474E-04 24304   0.523E-03 0.207E-05
CGA:  22    -0.319308425673E+03   -0.18036E-04   -0.18049E-04 24304   0.151E-03 0.146E-06
CGA:  23    -0.319308433780E+03   -0.81073E-05   -0.81062E-05 24304   0.136E-03-0.567E-06
CGA:  24    -0.319308444675E+03   -0.10895E-04   -0.10899E-04 24304   0.186E-03-0.459E-06
CGA:  25    -0.319308455358E+03   -0.10683E-04   -0.10683E-04 24304   0.560E-04-0.155E-06
CGA:  26    -0.319308458678E+03   -0.33196E-05   -0.33196E-05 24304   0.556E-04-0.160E-06
  53 F= -.31930846E+03 E0= -.31928700E+03  d E =-.119925E-01  mag=    49.0331
       N       E                     dE             d eps       ncg     rms          ort
SDA:   1    -0.319119929776E+03    0.18853E+00    0.00000E+00 24304   0.126E+01 0.000E+00
CGA:   2    -0.319155500961E+03   -0.35571E-01   -0.35326E-01 24304   0.685E+00 0.443E-02
CGA:   3    -0.319225090259E+03   -0.69589E-01   -0.69703E-01 24304   0.113E+01-0.248E-02
CGA:   4    -0.319272291452E+03   -0.47201E-01   -0.47296E-01 24304   0.263E+00 0.492E-03
CGA:   5    -0.319286402406E+03   -0.14111E-01   -0.14107E-01 24304   0.232E+00-0.189E-03
CGA:   6    -0.319303407585E+03   -0.17005E-01   -0.17005E-01 24304   0.109E+00-0.125E-04
CGA:   7    -0.319307058706E+03   -0.36511E-02   -0.36475E-02 24304   0.371E-01 0.430E-04
CGA:   8    -0.319309245013E+03   -0.21863E-02   -0.21863E-02 24304   0.368E-01 0.540E-05
CGA:   9    -0.319311397447E+03   -0.21524E-02   -0.21524E-02 24304   0.129E-01 0.679E-05
CGA:  10    -0.319311885851E+03   -0.48840E-03   -0.48845E-03 24304   0.439E-02 0.297E-05
CGA:  11    -0.319312138433E+03   -0.25258E-03   -0.25258E-03 24304   0.550E-02 0.377E-05
CGA:  12    -0.319312465726E+03   -0.32729E-03   -0.32729E-03 24304   0.299E-02-0.398E-06
CGA:  13    -0.319312557288E+03   -0.91562E-04   -0.91492E-04 24304   0.720E-03-0.276E-06
CGA:  14    -0.319312623839E+03   -0.66551E-04   -0.66536E-04 24304   0.105E-02 0.353E-06
CGA:  15    -0.319312699826E+03   -0.75987E-04   -0.75963E-04 24304   0.623E-03 0.160E-05
CGA:  16    -0.319312720051E+03   -0.20225E-04   -0.20232E-04 24304   0.191E-03 0.293E-06
CGA:  17    -0.319312736949E+03   -0.16898E-04   -0.16878E-04 24304   0.327E-03 0.591E-06
CGA:  18    -0.319312758822E+03   -0.21873E-04   -0.21865E-04 24304   0.245E-03 0.990E-06
CGA:  19    -0.319312767573E+03   -0.87510E-05   -0.87685E-05 24304   0.744E-04 0.600E-06
  54 F= -.31931277E+03 E0= -.31929119E+03  d E =-.430890E-02  mag=    49.0342
       N       E                     dE             d eps       ncg     rms          ort
SDA:   1    -0.319234383758E+03    0.78375E-01    0.00000E+00 24304   0.486E+00 0.000E+00
CGA:   2    -0.319246753037E+03   -0.12369E-01   -0.12345E-01 24304   0.238E+00 0.561E-03
CGA:   3    -0.319280448669E+03   -0.33696E-01   -0.33676E-01 24304   0.431E+00 0.249E-03
CGA:   4    -0.319298332128E+03   -0.17883E-01   -0.17882E-01 24304   0.108E+00 0.301E-04
CGA:   5    -0.319302803251E+03   -0.44711E-02   -0.44685E-02 24304   0.632E-01-0.846E-05
CGA:   6    -0.319306526396E+03   -0.37231E-02   -0.37231E-02 24304   0.500E-01-0.189E-05
CGA:   7    -0.319308808304E+03   -0.22819E-02   -0.22820E-02 24304   0.134E-01 0.758E-05
CGA:   8    -0.319309403580E+03   -0.59528E-03   -0.59551E-03 24304   0.671E-02 0.855E-05
CGA:   9    -0.319309948153E+03   -0.54457E-03   -0.54447E-03 24304   0.578E-02 0.578E-05
CGA:  10    -0.319310179704E+03   -0.23155E-03   -0.23166E-03 24304   0.251E-02 0.469E-05
CGA:  11    -0.319310260423E+03   -0.80719E-04   -0.80751E-04 24304   0.832E-03 0.139E-05
CGA:  12    -0.319310336865E+03   -0.76442E-04   -0.76455E-04 24304   0.108E-02-0.344E-06
CGA:  13    -0.319310394499E+03   -0.57634E-04   -0.57628E-04 24304   0.435E-03-0.129E-05
CGA:  14    -0.319310408774E+03   -0.14274E-04   -0.14265E-04 24304   0.154E-03-0.418E-06
CGA:  15    -0.319310421253E+03   -0.12479E-04   -0.12478E-04 24304   0.231E-03 0.130E-07
CGA:  16    -0.319310437195E+03   -0.15941E-04   -0.15934E-04 24304   0.114E-03 0.593E-06
CGA:  17    -0.319310441838E+03   -0.46437E-05   -0.46421E-05 24304   0.465E-04-0.138E-06
  55 F= -.31931044E+03 E0= -.31928883E+03  d E =0.232573E-02  mag=    49.0334
