       N       E                     dE             d eps       ncg     rms          rms(c)
DAV:   1     0.654243976734E+04    0.65424E+04   -0.28668E+05 37128   0.160E+03
DAV:   2     0.407678247807E+03   -0.61348E+04   -0.57472E+04 37632   0.480E+02
DAV:   3    -0.353251126361E+03   -0.76093E+03   -0.74487E+03 40400   0.174E+02
DAV:   4    -0.386981250785E+03   -0.33730E+02   -0.33497E+02 47464   0.346E+01
DAV:   5    -0.389716016352E+03   -0.27348E+01   -0.27316E+01 64200   0.694E+00    0.917E-01
DAV:   6    -0.390063122836E+03   -0.34711E+00   -0.10146E+00 55640   0.140E+00    0.139E+00
DAV:   7    -0.390060410499E+03    0.27123E-02   -0.40389E-02 51376   0.585E-01    0.432E-01
DAV:   8    -0.390060646589E+03   -0.23609E-03   -0.46543E-03 54704   0.161E-01    0.267E-01
DAV:   9    -0.390060830825E+03   -0.18424E-03   -0.73445E-04 46104   0.909E-02    0.300E-01
DAV:  10    -0.390060641452E+03    0.18937E-03   -0.14810E-04 43096   0.497E-02    0.201E-01
DAV:  11    -0.390060623184E+03    0.18268E-04   -0.79000E-05 39104   0.228E-02    0.160E-01
DAV:  12    -0.390060590312E+03    0.32872E-04   -0.11072E-04 38544   0.367E-02    0.658E-02
DAV:  13    -0.390060602375E+03   -0.12063E-04   -0.69078E-05 41752   0.195E-02    0.347E-02
DAV:  14    -0.390060608459E+03   -0.60838E-05   -0.13112E-05 28264   0.123E-02
   1 F= -.39006061E+03 E0= -.39005689E+03  d E =-.390061E+03  mag=    48.0000
