       N       E                     dE             d eps       ncg     rms          ort
DAV:   1     0.848094564196E+04    0.84809E+04   -0.38379E+05  7296   0.188E+03
DAV:   2     0.565879242215E+03   -0.79151E+04   -0.73918E+04  7296   0.552E+02
DAV:   3    -0.334579225302E+03   -0.90046E+03   -0.86608E+03  7296   0.209E+02
DAV:   4    -0.365531082033E+03   -0.30952E+02   -0.30636E+02  7296   0.409E+01
DAV:   5    -0.366264548581E+03   -0.73347E+00   -0.72940E+00  7296   0.620E+00
SDA:   6    -0.166594517088E+01    0.36460E+03   -0.72940E+00  7296   0.253E+04 0.000E+00
CGA:   7    -0.139402695051E+03   -0.13774E+03   -0.11579E+03  7296   0.130E+04 0.521E+03
CGA:   8    -0.220455005590E+03   -0.81052E+02   -0.72924E+02  7296   0.366E+03 0.268E+03
CGA:   9    -0.233908022963E+03   -0.13453E+02   -0.14382E+02  7296   0.583E+03-0.288E+03
CGA:  10    -0.230082187910E+03    0.38258E+01   -0.20767E+02  7296   0.121E+04-0.424E+03
CGA:  11    -0.230741422343E+03   -0.65923E+00   -0.38998E+02  7296   0.918E+03-0.573E+03
CGA:  12    -0.242818907358E+03   -0.12077E+02   -0.68824E+01  7296   0.833E+03 0.515E+03
CGA:  13    -0.223932718440E+03    0.18886E+02   -0.23704E+02  7296   0.320E+04-0.129E+04
CGA:  14    -0.204181433723E+03    0.19751E+02   -0.16286E+03  7296   0.165E+04-0.691E+03
CGA:  15    -0.227236948986E+03   -0.23056E+02   -0.20642E+02  7296   0.124E+04 0.289E+03
CGA:  16    -0.232821754176E+03   -0.55848E+01   -0.25793E+02  7296   0.470E+04 0.337E+03
CGA:  17     0.806855704318E+02    0.31351E+03   -0.24460E+03  7296   0.521E+04-0.352E+04
CGA:  18    -0.162568704612E+03   -0.24325E+03   -0.20763E+03  7296   0.555E+04-0.587E+04
CGA:  19    -0.157983896510E+03    0.45848E+01   -0.24138E+03  7296   0.269E+04-0.231E+04
CGA:  20    -0.232644282856E+03   -0.74660E+02   -0.29817E+02  7296   0.919E+03 0.153E+04
CGA:  21    -0.253168244881E+03   -0.20524E+02   -0.11464E+02  7296   0.566E+03 0.757E+03
CGA:  22    -0.266493044604E+03   -0.13325E+02   -0.59367E+01  7296   0.767E+02 0.227E+03
CGA:  23    -0.265917402553E+03    0.57564E+00   -0.15483E+01  7296   0.318E+03-0.150E+03
CGA:  24    -0.256017489778E+03    0.98999E+01   -0.11703E+02  7296   0.505E+03-0.140E+03
CGA:  25    -0.259219952439E+03   -0.32025E+01   -0.15480E+01  7296   0.531E+03 0.342E+03
CGA:  26    -0.269384302232E+03   -0.10164E+02   -0.43655E+01  7296   0.272E+02 0.191E+02
CGA:  27    -0.269723390534E+03   -0.33909E+00   -0.33966E+00  7296   0.314E+02-0.324E+00
CGA:  28    -0.270066416391E+03   -0.34303E+00   -0.43580E+00  7296   0.636E+02-0.758E+01
CGA:  29    -0.268730059196E+03    0.13364E+01   -0.11534E+01  7296   0.432E+03-0.181E+03
CGA:  30    -0.265965509339E+03    0.27645E+01   -0.59345E+01  7296   0.146E+04-0.878E+03
CGA:  31    -0.252507780985E+03    0.13458E+02   -0.44626E+02  7296   0.139E+04-0.408E+03
CGA:  32    -0.261394033357E+03   -0.88863E+01   -0.13467E+02  7296   0.895E+03-0.204E+03
CGA:  33    -0.250430875197E+03    0.10963E+02   -0.74318E+01  7296   0.278E+04-0.240E+04
CGA:  34    -0.237733062246E+03    0.12698E+02   -0.75156E+02  7296   0.231E+04-0.866E+03
CGA:  35    -0.246739083713E+03   -0.90060E+01   -0.31932E+02  7296   0.289E+04 0.486E+03
CGA:  36    -0.203045328230E+03    0.43694E+02   -0.83822E+02  7296   0.356E+04-0.133E+04
CGA:  37    -0.234607559338E+03   -0.31562E+02   -0.52958E+02  7296   0.340E+04-0.833E+03
CGA:  38    -0.258469453924E+03   -0.23862E+02   -0.59339E+02  7296   0.102E+04-0.110E+04
CGA:  39    -0.270037004721E+03   -0.11568E+02   -0.10328E+02  7296   0.228E+03 0.423E+02
CGA:  40    -0.272889754663E+03   -0.28527E+01   -0.14749E+01  7296   0.115E+03 0.192E+03
CGA:  41    -0.274228362182E+03   -0.13386E+01   -0.10300E+01  7296   0.151E+02 0.287E+02
CGA:  42    -0.274425790418E+03   -0.19743E+00   -0.15597E+00  7296   0.809E+01 0.451E+01
CGA:  43    -0.274836974228E+03   -0.41118E+00   -0.40954E+00  7296   0.478E+02-0.603E-01
CGA:  44    -0.276095907537E+03   -0.12589E+01   -0.52760E+00  7296   0.768E+02 0.747E+02
CGA:  45    -0.276584530943E+03   -0.48862E+00   -0.96226E+00  7296   0.507E+02-0.324E+02
CGA:  46    -0.276793969963E+03   -0.20944E+00   -0.24769E+00  7296   0.235E+02-0.463E+01
CGA:  47    -0.277078768208E+03   -0.28480E+00   -0.26361E+00  7296   0.222E+02 0.124E+01
CGA:  48    -0.277318250050E+03   -0.23948E+00   -0.29457E+00  7296   0.207E+02-0.333E+01
CGA:  49    -0.278214019277E+03   -0.89577E+00   -0.91947E+00  7296   0.352E+02-0.219E+01
CGA:  50    -0.278715804919E+03   -0.50179E+00   -0.51566E+00  7296   0.406E+02-0.116E+01
CGA:  51    -0.279178163392E+03   -0.46236E+00   -0.53762E+00  7296   0.201E+02-0.379E+01
CGA:  52    -0.279434937775E+03   -0.25677E+00   -0.29342E+00  7296   0.239E+02-0.135E+01
CGA:  53    -0.279772117877E+03   -0.33718E+00   -0.37721E+00  7296   0.746E+01-0.876E+00
CGA:  54    -0.280021158301E+03   -0.24904E+00   -0.25002E+00  7296   0.113E+02 0.582E+00
CGA:  55    -0.280392738100E+03   -0.37158E+00   -0.37913E+00  7296   0.658E+01 0.635E+00
CGA:  56    -0.280784546139E+03   -0.39181E+00   -0.35983E+00  7296   0.345E+01 0.149E+01
CGA:  57    -0.280973832229E+03   -0.18929E+00   -0.18573E+00  7296   0.406E+01 0.305E+00
CGA:  58    -0.281208150953E+03   -0.23432E+00   -0.22123E+00  7296   0.241E+01 0.718E+00
CGA:  59    -0.281456675033E+03   -0.24852E+00   -0.22475E+00  7296   0.115E+01 0.518E+00
CGA:  60    -0.281602054180E+03   -0.14538E+00   -0.12513E+00  7296   0.984E+00 0.392E+00
CGA:  61    -0.281743904128E+03   -0.14185E+00   -0.13768E+00  7296   0.138E+01 0.692E-01
CGA:  62    -0.281870187938E+03   -0.12628E+00   -0.11626E+00  7296   0.742E+00 0.239E+00
CGA:  63    -0.281934563497E+03   -0.64376E-01   -0.61507E-01  7296   0.232E+00 0.931E-01
CGA:  64    -0.281976251437E+03   -0.41688E-01   -0.39613E-01  7296   0.299E+00 0.221E-01
CGA:  65    -0.282031755578E+03   -0.55504E-01   -0.53735E-01  7296   0.344E+00 0.222E-01
CGA:  66    -0.282090992756E+03   -0.59237E-01   -0.70160E-01  7296   0.462E+00-0.527E-01
CGA:  67    -0.282114781426E+03   -0.23789E-01   -0.23656E-01  7296   0.288E+00-0.141E-01
CGA:  68    -0.282130010684E+03   -0.15229E-01   -0.15380E-01  7296   0.189E+00 0.503E-02
CGA:  69    -0.282146654350E+03   -0.16644E-01   -0.16900E-01  7296   0.238E+00-0.895E-02
CGA:  70    -0.282161351619E+03   -0.14697E-01   -0.14707E-01  7296   0.189E+00 0.743E-02
CGA:  71    -0.282173530202E+03   -0.12179E-01   -0.12197E-01  7296   0.144E+00 0.286E-02
CGA:  72    -0.282187245320E+03   -0.13715E-01   -0.13775E-01  7296   0.182E+00-0.173E-02
CGA:  73    -0.282200418713E+03   -0.13173E-01   -0.13124E-01  7296   0.126E+00 0.477E-02
CGA:  74    -0.282208718319E+03   -0.82996E-02   -0.82985E-02  7296   0.746E-01-0.123E-03
SDA:  75    -0.282215137052E+03   -0.64187E-02   -0.64343E-02  7296   0.795E-01-0.591E-03
CGA:  76    -0.282222018447E+03   -0.68814E-02   -0.68799E-02  7296   0.327E-01 0.479E-04
CGA:  77    -0.282231267684E+03   -0.92492E-02   -0.93022E-02  7296   0.400E-01-0.281E-03
CGA:  78    -0.282234901052E+03   -0.36334E-02   -0.36333E-02  7296   0.167E-01-0.966E-05
CGA:  79    -0.282237737090E+03   -0.28360E-02   -0.28382E-02  7296   0.113E-01-0.253E-04
CGA:  80    -0.282239068977E+03   -0.13319E-02   -0.13329E-02  7296   0.735E-02-0.254E-04
CGA:  81    -0.282240363508E+03   -0.12945E-02   -0.12943E-02  7296   0.477E-02 0.247E-05
CGA:  82    -0.282240830327E+03   -0.46682E-03   -0.46695E-03  7296   0.243E-02-0.681E-05
CGA:  83    -0.282241186599E+03   -0.35627E-03   -0.35519E-03  7296   0.871E-03 0.199E-04
CGA:  84    -0.282241300779E+03   -0.11418E-03   -0.11389E-03  7296   0.651E-03 0.844E-05
CGA:  85    -0.282241481867E+03   -0.18109E-03   -0.17873E-03  7296   0.457E-03 0.127E-04
CGA:  86    -0.282241535165E+03   -0.53298E-04   -0.53267E-04  7296   0.363E-03 0.330E-05
CGA:  87    -0.282241613047E+03   -0.77881E-04   -0.77428E-04  7296   0.356E-03 0.411E-05
CGA:  88    -0.282241646771E+03   -0.33724E-04   -0.33752E-04  7296   0.178E-03 0.167E-05
CGA:  89    -0.282241689896E+03   -0.43125E-04   -0.42986E-04  7296   0.972E-04 0.944E-06
CGA:  90    -0.282241699523E+03   -0.96275E-05   -0.96197E-05  7296   0.433E-04-0.486E-06
CGA:  91    -0.282241711802E+03   -0.12279E-04   -0.12698E-04  7296   0.417E-04-0.241E-05
CGA:  92    -0.282241715709E+03   -0.39062E-05   -0.38836E-05  7296   0.156E-04-0.920E-06
   1 F= -.28224172E+03 E0= -.28223318E+03  d E =-.282242E+03  mag=    18.0000
       N       E                     dE             d eps       ncg     rms          ort
SDA:   1    -0.282258700974E+03   -0.16989E-01    0.00000E+00  7296   0.103E-01 0.000E+00
CGA:   2    -0.282259253548E+03   -0.55257E-03   -0.55280E-03  7296   0.258E-02-0.357E-05
CGA:   3    -0.282259825531E+03   -0.57198E-03   -0.57173E-03  7296   0.180E-02 0.255E-05
CGA:   4    -0.282259981582E+03   -0.15605E-03   -0.15607E-03  7296   0.470E-03 0.111E-05
CGA:   5    -0.282260047132E+03   -0.65550E-04   -0.65547E-04  7296   0.234E-03 0.200E-06
CGA:   6    -0.282260065978E+03   -0.18846E-04   -0.18812E-04  7296   0.618E-04-0.678E-06
CGA:   7    -0.282260074387E+03   -0.84094E-05   -0.84112E-05  7296   0.323E-04-0.149E-06
   2 F= -.28226007E+03 E0= -.28225155E+03  d E =-.183587E-01  mag=    18.0000
       N       E                     dE             d eps       ncg     rms          ort
SDA:   1    -0.278573431941E+03    0.36866E+01    0.00000E+00  7296   0.121E+02 0.000E+00
CGA:   2    -0.281832966369E+03   -0.32595E+01   -0.32507E+01  7296   0.101E+02 0.669E-01
CGA:   3    -0.282719714406E+03   -0.88675E+00   -0.87140E+00  7296   0.289E+01 0.107E-01
CGA:   4    -0.283130415825E+03   -0.41070E+00   -0.41050E+00  7296   0.974E+00 0.844E-02
CGA:   5    -0.283227195079E+03   -0.96779E-01   -0.96487E-01  7296   0.445E+00-0.191E-02
CGA:   6    -0.283272903066E+03   -0.45708E-01   -0.45764E-01  7296   0.136E+00 0.664E-03
CGA:   7    -0.283288265142E+03   -0.15362E-01   -0.15355E-01  7296   0.720E-01-0.163E-03
CGA:   8    -0.283297177765E+03   -0.89126E-02   -0.89129E-02  7296   0.247E-01 0.989E-04
CGA:   9    -0.283300642079E+03   -0.34643E-02   -0.34648E-02  7296   0.181E-01-0.104E-04
CGA:  10    -0.283302886717E+03   -0.22446E-02   -0.22448E-02  7296   0.646E-02 0.354E-04
CGA:  11    -0.283303930073E+03   -0.10434E-02   -0.10433E-02  7296   0.728E-02 0.312E-05
CGA:  12    -0.283304676404E+03   -0.74633E-03   -0.74677E-03  7296   0.233E-02 0.105E-04
CGA:  13    -0.283304996136E+03   -0.31973E-03   -0.31968E-03  7296   0.204E-02 0.491E-05
CGA:  14    -0.283305235185E+03   -0.23905E-03   -0.23911E-03  7296   0.660E-03 0.556E-05
CGA:  15    -0.283305312515E+03   -0.77330E-04   -0.77384E-04  7296   0.461E-03 0.562E-05
CGA:  16    -0.283305370345E+03   -0.57831E-04   -0.57841E-04  7296   0.197E-03 0.590E-05
CGA:  17    -0.283305390563E+03   -0.20218E-04   -0.20274E-04  7296   0.105E-03 0.226E-05
CGA:  18    -0.283305410195E+03   -0.19632E-04   -0.19574E-04  7296   0.564E-04 0.957E-06
CGA:  19    -0.283305417439E+03   -0.72439E-05   -0.72440E-05  7296   0.393E-04 0.179E-06
   3 F= -.28330542E+03 E0= -.28329729E+03  d E =-.104534E+01  mag=    18.0000
       N       E                     dE             d eps       ncg     rms          ort
SDA:   1    -0.261464538292E+03    0.21841E+02    0.00000E+00  7296   0.666E+02 0.000E+00
CGA:   2    -0.276611823892E+03   -0.15147E+02   -0.15004E+02  7296   0.571E+02 0.139E+01
CGA:   3    -0.281756508376E+03   -0.51447E+01   -0.49060E+01  7296   0.137E+02 0.108E+01
CGA:   4    -0.283907327104E+03   -0.21508E+01   -0.21499E+01  7296   0.580E+01 0.199E-01
CGA:   5    -0.284414662988E+03   -0.50734E+00   -0.50483E+00  7296   0.237E+01 0.485E-02
CGA:   6    -0.284678740198E+03   -0.26408E+00   -0.26409E+00  7296   0.787E+00 0.948E-03
CGA:   7    -0.284762624054E+03   -0.83884E-01   -0.83874E-01  7296   0.380E+00 0.487E-03
CGA:   8    -0.284811373886E+03   -0.48750E-01   -0.48750E-01  7296   0.166E+00 0.106E-02
CGA:   9    -0.284829146452E+03   -0.17773E-01   -0.17791E-01  7296   0.988E-01 0.335E-03
CGA:  10    -0.284842954525E+03   -0.13808E-01   -0.13810E-01  7296   0.495E-01-0.103E-03
CGA:  11    -0.284847993725E+03   -0.50392E-02   -0.50462E-02  7296   0.285E-01 0.767E-04
CGA:  12    -0.284852995827E+03   -0.50021E-02   -0.50000E-02  7296   0.143E-01 0.404E-04
CGA:  13    -0.284854602893E+03   -0.16071E-02   -0.16080E-02  7296   0.849E-02 0.307E-04
CGA:  14    -0.284855823112E+03   -0.12202E-02   -0.12200E-02  7296   0.415E-02 0.163E-04
CGA:  15    -0.284856254143E+03   -0.43103E-03   -0.43151E-03  7296   0.208E-02 0.140E-04
CGA:  16    -0.284856512597E+03   -0.25845E-03   -0.25850E-03  7296   0.110E-02 0.113E-04
CGA:  17    -0.284856629701E+03   -0.11710E-03   -0.11723E-03  7296   0.437E-03 0.530E-05
CGA:  18    -0.284856696322E+03   -0.66621E-04   -0.66564E-04  7296   0.271E-03 0.224E-05
CGA:  19    -0.284856726600E+03   -0.30278E-04   -0.30297E-04  7296   0.151E-03 0.114E-05
CGA:  20    -0.284856747709E+03   -0.21109E-04   -0.21090E-04  7296   0.877E-04 0.147E-05
CGA:  21    -0.284856759125E+03   -0.11416E-04   -0.11416E-04  7296   0.615E-04 0.226E-06
CGA:  22    -0.284856768710E+03   -0.95848E-05   -0.95877E-05  7296   0.334E-04-0.110E-06
   4 F= -.28485677E+03 E0= -.28484932E+03  d E =-.155135E+01  mag=    18.0000
       N       E                     dE             d eps       ncg     rms          ort
SDA:   1    -0.280705629765E+03    0.41511E+01    0.00000E+00  7296   0.126E+02 0.000E+00
CGA:   2    -0.283788168357E+03   -0.30825E+01   -0.30770E+01  7296   0.797E+01 0.485E-01
CGA:   3    -0.284723820906E+03   -0.93565E+00   -0.93325E+00  7296   0.387E+01-0.488E-01
CGA:   4    -0.285121343617E+03   -0.39752E+00   -0.39884E+00  7296   0.103E+01 0.847E-02
CGA:   5    -0.285243613999E+03   -0.12227E+00   -0.12218E+00  7296   0.483E+00-0.257E-02
CGA:   6    -0.285284104290E+03   -0.40490E-01   -0.40631E-01  7296   0.153E+00-0.329E-03
CGA:   7    -0.285303560445E+03   -0.19456E-01   -0.19456E-01  7296   0.667E-01-0.180E-03
CGA:   8    -0.285310722442E+03   -0.71620E-02   -0.71643E-02  7296   0.268E-01 0.500E-04
CGA:   9    -0.285314434018E+03   -0.37116E-02   -0.37115E-02  7296   0.179E-01 0.114E-04
CGA:  10    -0.285316046099E+03   -0.16121E-02   -0.16122E-02  7296   0.617E-02 0.693E-05
CGA:  11    -0.285317112977E+03   -0.10669E-02   -0.10663E-02  7296   0.511E-02 0.107E-04
CGA:  12    -0.285317644340E+03   -0.53136E-03   -0.53142E-03  7296   0.191E-02 0.398E-05
CGA:  13    -0.285318012811E+03   -0.36847E-03   -0.36808E-03  7296   0.136E-02 0.596E-05
CGA:  14    -0.285318145004E+03   -0.13219E-03   -0.13229E-03  7296   0.575E-03 0.286E-05
CGA:  15    -0.285318222904E+03   -0.77900E-04   -0.77875E-04  7296   0.403E-03 0.429E-05
CGA:  16    -0.285318263389E+03   -0.40485E-04   -0.40577E-04  7296   0.117E-03 0.312E-05
CGA:  17    -0.285318280443E+03   -0.17054E-04   -0.17018E-04  7296   0.907E-04 0.218E-05
CGA:  18    -0.285318290917E+03   -0.10473E-04   -0.10498E-04  7296   0.312E-04 0.163E-05
CGA:  19    -0.285318295096E+03   -0.41797E-05   -0.41779E-05  7296   0.275E-04 0.516E-06
   5 F= -.28531830E+03 E0= -.28531098E+03  d E =-.461526E+00  mag=    18.0000
       N       E                     dE             d eps       ncg     rms          ort
SDA:   1    -0.248598765801E+03    0.36720E+02    0.00000E+00  7296   0.126E+03 0.000E+00
CGA:   2    -0.269528213883E+03   -0.20929E+02   -0.20242E+02  7296   0.787E+02 0.132E+02
CGA:   3    -0.279145821348E+03   -0.96176E+01   -0.93380E+01  7296   0.383E+02-0.270E+01
CGA:   4    -0.283888349512E+03   -0.47425E+01   -0.47426E+01  7296   0.124E+02 0.626E-01
CGA:   5    -0.285006450085E+03   -0.11181E+01   -0.11070E+01  7296   0.516E+01 0.917E-02
CGA:   6    -0.285574921353E+03   -0.56847E+00   -0.56924E+00  7296   0.166E+01 0.169E-01
CGA:   7    -0.285754204570E+03   -0.17928E+00   -0.17905E+00  7296   0.742E+00-0.218E-02
CGA:   8    -0.285849858696E+03   -0.95654E-01   -0.95635E-01  7296   0.323E+00 0.367E-02
CGA:   9    -0.285881537973E+03   -0.31679E-01   -0.31760E-01  7296   0.185E+00 0.101E-02
CGA:  10    -0.285906994668E+03   -0.25457E-01   -0.25452E-01  7296   0.788E-01 0.319E-03
CGA:  11    -0.285915456498E+03   -0.84618E-02   -0.84709E-02  7296   0.464E-01 0.209E-03
CGA:  12    -0.285923240643E+03   -0.77841E-02   -0.77759E-02  7296   0.247E-01 0.150E-03
CGA:  13    -0.285926041330E+03   -0.28007E-02   -0.28022E-02  7296   0.140E-01 0.604E-04
CGA:  14    -0.285928024437E+03   -0.19831E-02   -0.19830E-02  7296   0.874E-02 0.143E-04
CGA:  15    -0.285928875619E+03   -0.85118E-03   -0.85243E-03  7296   0.297E-02 0.233E-04
CGA:  16    -0.285929348605E+03   -0.47299E-03   -0.47244E-03  7296   0.219E-02 0.156E-04
CGA:  17    -0.285929564185E+03   -0.21558E-03   -0.21578E-03  7296   0.707E-03 0.696E-05
CGA:  18    -0.285929656757E+03   -0.92572E-04   -0.92551E-04  7296   0.529E-03 0.359E-05
CGA:  19    -0.285929720308E+03   -0.63551E-04   -0.63564E-04  7296   0.224E-03 0.228E-05
CGA:  20    -0.285929749776E+03   -0.29468E-04   -0.29457E-04  7296   0.137E-03 0.180E-05
CGA:  21    -0.285929773503E+03   -0.23727E-04   -0.23683E-04  7296   0.102E-03 0.931E-06
CGA:  22    -0.285929786944E+03   -0.13441E-04   -0.13441E-04  7296   0.768E-04 0.119E-06
CGA:  23    -0.285929797921E+03   -0.10977E-04   -0.10985E-04  7296   0.556E-04-0.565E-06
CGA:  24    -0.285929805960E+03   -0.80392E-05   -0.80361E-05  7296   0.399E-04 0.169E-06
   6 F= -.28592981E+03 E0= -.28592238E+03  d E =-.611511E+00  mag=    18.0000
       N       E                     dE             d eps       ncg     rms          ort
SDA:   1    -0.272641119682E+03    0.13289E+02    0.00000E+00  7296   0.371E+02 0.000E+00
CGA:   2    -0.281036485792E+03   -0.83954E+01   -0.83793E+01  7296   0.254E+02 0.148E+00
CGA:   3    -0.284120033578E+03   -0.30835E+01   -0.30819E+01  7296   0.129E+02-0.364E-01
CGA:   4    -0.285465433955E+03   -0.13454E+01   -0.13479E+01  7296   0.334E+01 0.212E-01
CGA:   5    -0.285837028307E+03   -0.37159E+00   -0.37146E+00  7296   0.141E+01-0.292E-02
CGA:   6    -0.285961546132E+03   -0.12452E+00   -0.12448E+00  7296   0.462E+00-0.918E-03
CGA:   7    -0.286016727629E+03   -0.55181E-01   -0.55183E-01  7296   0.226E+00 0.172E-03
CGA:   8    -0.286040107273E+03   -0.23380E-01   -0.23367E-01  7296   0.752E-01-0.506E-04
CGA:   9    -0.286050736294E+03   -0.10629E-01   -0.10624E-01  7296   0.477E-01 0.216E-03
CGA:  10    -0.286055215778E+03   -0.44795E-02   -0.44768E-02  7296   0.162E-01 0.631E-05
CGA:  11    -0.286057776100E+03   -0.25603E-02   -0.25593E-02  7296   0.141E-01 0.275E-04
CGA:  12    -0.286059264440E+03   -0.14883E-02   -0.14886E-02  7296   0.530E-02 0.120E-04
CGA:  13    -0.286060214630E+03   -0.95019E-03   -0.94919E-03  7296   0.434E-02 0.188E-04
CGA:  14    -0.286060689534E+03   -0.47490E-03   -0.47512E-03  7296   0.168E-02 0.103E-04
CGA:  15    -0.286060920494E+03   -0.23096E-03   -0.23088E-03  7296   0.138E-02 0.860E-05
CGA:  16    -0.286061062857E+03   -0.14236E-03   -0.14250E-03  7296   0.433E-03 0.558E-05
CGA:  17    -0.286061121112E+03   -0.58255E-04   -0.58236E-04  7296   0.329E-03 0.295E-05
CGA:  18    -0.286061167337E+03   -0.46225E-04   -0.46195E-04  7296   0.137E-03 0.264E-05
CGA:  19    -0.286061187425E+03   -0.20088E-04   -0.20074E-04  7296   0.132E-03 0.800E-06
CGA:  20    -0.286061208888E+03   -0.21463E-04   -0.21448E-04  7296   0.948E-04 0.455E-06
CGA:  21    -0.286061220838E+03   -0.11950E-04   -0.11948E-04  7296   0.809E-04-0.257E-06
CGA:  22    -0.286061236725E+03   -0.15888E-04   -0.15953E-04  7296   0.699E-04-0.972E-06
CGA:  23    -0.286061244697E+03   -0.79712E-05   -0.79641E-05  7296   0.412E-04-0.392E-06
   7 F= -.28606124E+03 E0= -.28605353E+03  d E =-.131439E+00  mag=    18.0000
       N       E                     dE             d eps       ncg     rms          ort
SDA:   1    -0.254729402410E+03    0.31332E+02    0.00000E+00  7296   0.849E+02 0.000E+00
CGA:   2    -0.273839897846E+03   -0.19110E+02   -0.19119E+02  7296   0.720E+02-0.176E+00
CGA:   3    -0.281277119138E+03   -0.74372E+01   -0.74527E+01  7296   0.289E+02 0.515E+00
CGA:   4    -0.284856549143E+03   -0.35794E+01   -0.35765E+01  7296   0.697E+01-0.642E-01
CGA:   5    -0.285674915668E+03   -0.81837E+00   -0.81994E+00  7296   0.273E+01 0.281E-01
CGA:   6    -0.285946148049E+03   -0.27123E+00   -0.27014E+00  7296   0.909E+00-0.299E-02
CGA:   7    -0.286060977157E+03   -0.11483E+00   -0.11487E+00  7296   0.499E+00 0.237E-02
CGA:   8    -0.286105592943E+03   -0.44616E-01   -0.44512E-01  7296   0.172E+00 0.153E-03
CGA:   9    -0.286129236298E+03   -0.23643E-01   -0.23637E-01  7296   0.103E+00 0.629E-03
CGA:  10    -0.286139333378E+03   -0.10097E-01   -0.10098E-01  7296   0.347E-01 0.549E-04
CGA:  11    -0.286145758544E+03   -0.64252E-02   -0.64168E-02  7296   0.285E-01 0.132E-03
CGA:  12    -0.286148651729E+03   -0.28932E-02   -0.28946E-02  7296   0.132E-01 0.368E-04
CGA:  13    -0.286150786200E+03   -0.21345E-02   -0.21336E-02  7296   0.105E-01 0.318E-04
CGA:  14    -0.286151872286E+03   -0.10861E-02   -0.10873E-02  7296   0.380E-02 0.268E-04
CGA:  15    -0.286152464588E+03   -0.59230E-03   -0.59183E-03  7296   0.292E-02 0.187E-04
CGA:  16    -0.286152766281E+03   -0.30169E-03   -0.30194E-03  7296   0.950E-03 0.908E-05
CGA:  17    -0.286152907562E+03   -0.14128E-03   -0.14117E-03  7296   0.915E-03 0.628E-05
CGA:  18    -0.286153010756E+03   -0.10319E-03   -0.10325E-03  7296   0.376E-03 0.327E-05
CGA:  19    -0.286153069869E+03   -0.59112E-04   -0.59064E-04  7296   0.385E-03 0.182E-05
CGA:  20    -0.286153137860E+03   -0.67992E-04   -0.67987E-04  7296   0.258E-03 0.196E-06
CGA:  21    -0.286153179434E+03   -0.41574E-04   -0.41579E-04  7296   0.287E-03-0.266E-06
CGA:  22    -0.286153228591E+03   -0.49156E-04   -0.49251E-04  7296   0.203E-03-0.251E-05
CGA:  23    -0.286153250094E+03   -0.21504E-04   -0.21458E-04  7296   0.135E-03-0.156E-05
CGA:  24    -0.286153272101E+03   -0.22007E-04   -0.22089E-04  7296   0.916E-04-0.276E-05
CGA:  25    -0.286153282030E+03   -0.99287E-05   -0.99043E-05  7296   0.382E-04-0.920E-06
   8 F= -.28615328E+03 E0= -.28614515E+03  d E =-.920373E-01  mag=    18.0000
       N       E                     dE             d eps       ncg     rms          ort
SDA:   1    -0.244585166433E+03    0.41568E+02    0.00000E+00  7296   0.122E+03 0.000E+00
CGA:   2    -0.266960556522E+03   -0.22375E+02   -0.21899E+02  7296   0.960E+02 0.786E+01
CGA:   3    -0.275733119917E+03   -0.87726E+01   -0.56110E+01  7296   0.346E+02 0.567E+02
CGA:   4    -0.280038527644E+03   -0.43054E+01   -0.42428E+01  7296   0.331E+02-0.192E+01
CGA:   5    -0.283416809993E+03   -0.33783E+01   -0.34427E+01  7296   0.135E+02 0.800E+00
CGA:   6    -0.285328498163E+03   -0.19117E+01   -0.19149E+01  7296   0.837E+01-0.329E+00
CGA:   7    -0.285922842843E+03   -0.59434E+00   -0.61048E+00  7296   0.137E+01-0.599E-01
CGA:   8    -0.286067445430E+03   -0.14460E+00   -0.14460E+00  7296   0.675E+00-0.154E-03
CGA:   9    -0.286130527694E+03   -0.63082E-01   -0.63164E-01  7296   0.178E+00 0.198E-03
CGA:  10    -0.286163239974E+03   -0.32712E-01   -0.32651E-01  7296   0.183E+00 0.882E-03
CGA:  11    -0.286180351311E+03   -0.17111E-01   -0.17148E-01  7296   0.532E-01 0.155E-03
CGA:  12    -0.286189134130E+03   -0.87828E-02   -0.87786E-02  7296   0.529E-01 0.101E-03
CGA:  13    -0.286194434389E+03   -0.53003E-02   -0.53070E-02  7296   0.149E-01 0.852E-04
CGA:  14    -0.286196927203E+03   -0.24928E-02   -0.24916E-02  7296   0.155E-01 0.324E-04
CGA:  15    -0.286198615807E+03   -0.16886E-02   -0.16897E-02  7296   0.434E-02 0.363E-04
CGA:  16    -0.286199163590E+03   -0.54778E-03   -0.54783E-03  7296   0.359E-02 0.123E-04
CGA:  17    -0.286199584632E+03   -0.42104E-03   -0.42123E-03  7296   0.115E-02 0.129E-04
CGA:  18    -0.286199743708E+03   -0.15908E-03   -0.15907E-03  7296   0.789E-03 0.929E-06
CGA:  19    -0.286199840726E+03   -0.97018E-04   -0.97037E-04  7296   0.427E-03 0.216E-05
CGA:  20    -0.286199913125E+03   -0.72399E-04   -0.72283E-04  7296   0.338E-03 0.296E-05
CGA:  21    -0.286199952074E+03   -0.38949E-04   -0.38977E-04  7296   0.235E-03 0.153E-05
CGA:  22    -0.286200005799E+03   -0.53725E-04   -0.53941E-04  7296   0.255E-03-0.220E-05
CGA:  23    -0.286200033129E+03   -0.27330E-04   -0.27315E-04  7296   0.147E-03-0.713E-06
CGA:  24    -0.286200062882E+03   -0.29754E-04   -0.29743E-04  7296   0.159E-03 0.143E-06
CGA:  25    -0.286200080232E+03   -0.17350E-04   -0.17344E-04  7296   0.678E-04-0.257E-06
CGA:  26    -0.286200092613E+03   -0.12381E-04   -0.12467E-04  7296   0.679E-04-0.179E-05
CGA:  27    -0.286200099068E+03   -0.64552E-05   -0.64165E-05  7296   0.234E-04-0.957E-06
   9 F= -.28620010E+03 E0= -.28619164E+03  d E =-.468170E-01  mag=    18.0000
       N       E                     dE             d eps       ncg     rms          ort
SDA:   1    -0.245558202213E+03    0.40642E+02    0.00000E+00  7296   0.110E+03 0.000E+00
CGA:   2    -0.271313492188E+03   -0.25755E+02   -0.25663E+02  7296   0.817E+02 0.884E+00
CGA:   3    -0.280416407803E+03   -0.91029E+01   -0.89474E+01  7296   0.375E+02-0.143E+00
CGA:   4    -0.284513320488E+03   -0.40969E+01   -0.41158E+01  7296   0.934E+01 0.146E+00
CGA:   5    -0.285543278750E+03   -0.10300E+01   -0.10269E+01  7296   0.404E+01-0.264E-01
CGA:   6    -0.285936978242E+03   -0.39370E+00   -0.39308E+00  7296   0.131E+01-0.228E-02
CGA:   7    -0.286102439815E+03   -0.16546E+00   -0.16561E+00  7296   0.668E+00 0.641E-02
CGA:   8    -0.286166239803E+03   -0.63800E-01   -0.63783E-01  7296   0.225E+00 0.638E-04
CGA:   9    -0.286197749432E+03   -0.31510E-01   -0.31503E-01  7296   0.144E+00 0.788E-03
CGA:  10    -0.286212065896E+03   -0.14316E-01   -0.14301E-01  7296   0.480E-01 0.165E-04
CGA:  11    -0.286220232269E+03   -0.81664E-02   -0.81564E-02  7296   0.428E-01 0.212E-03
CGA:  12    -0.286224481124E+03   -0.42489E-02   -0.42472E-02  7296   0.172E-01 0.312E-04
CGA:  13    -0.286227233731E+03   -0.27526E-02   -0.27501E-02  7296   0.144E-01 0.769E-04
CGA:  14    -0.286228751375E+03   -0.15176E-02   -0.15185E-02  7296   0.460E-02 0.267E-04
CGA:  15    -0.286229469985E+03   -0.71861E-03   -0.71800E-03  7296   0.349E-02 0.233E-04
CGA:  16    -0.286229849915E+03   -0.37993E-03   -0.38014E-03  7296   0.105E-02 0.834E-05
CGA:  17    -0.286229998147E+03   -0.14823E-03   -0.14819E-03  7296   0.902E-03 0.544E-05
CGA:  18    -0.286230104078E+03   -0.10593E-03   -0.10599E-03  7296   0.343E-03 0.349E-05
CGA:  19    -0.286230154271E+03   -0.50193E-04   -0.50149E-04  7296   0.335E-03 0.314E-05
CGA:  20    -0.286230209043E+03   -0.54772E-04   -0.54710E-04  7296   0.228E-03 0.222E-05
CGA:  21    -0.286230241831E+03   -0.32788E-04   -0.32775E-04  7296   0.219E-03 0.132E-05
CGA:  22    -0.286230283143E+03   -0.41312E-04   -0.41351E-04  7296   0.188E-03-0.726E-06
CGA:  23    -0.286230304244E+03   -0.21102E-04   -0.21074E-04  7296   0.117E-03-0.122E-05
CGA:  24    -0.286230326005E+03   -0.21761E-04   -0.21895E-04  7296   0.940E-04-0.259E-05
CGA:  25    -0.286230335830E+03   -0.98245E-05   -0.97896E-05  7296   0.411E-04-0.110E-05
  10 F= -.28623034E+03 E0= -.28622182E+03  d E =-.302368E-01  mag=    18.0000
       N       E                     dE             d eps       ncg     rms          ort
SDA:   1    -0.278503558012E+03    0.77268E+01    0.00000E+00  7296   0.244E+02 0.000E+00
CGA:   2    -0.282741158596E+03   -0.42376E+01   -0.42265E+01  7296   0.175E+02 0.237E+00
CGA:   3    -0.284657334025E+03   -0.19162E+01   -0.18922E+01  7296   0.978E+01-0.125E+00
CGA:   4    -0.285804813974E+03   -0.11475E+01   -0.11475E+01  7296   0.307E+01 0.287E-03
CGA:   5    -0.286094347632E+03   -0.28953E+00   -0.28844E+00  7296   0.127E+01-0.634E-03
CGA:   6    -0.286217395057E+03   -0.12305E+00   -0.12335E+00  7296   0.343E+00 0.719E-03
CGA:   7    -0.286259445206E+03   -0.42050E-01   -0.42030E-01  7296   0.166E+00-0.711E-03
CGA:   8    -0.286277532184E+03   -0.18087E-01   -0.18109E-01  7296   0.558E-01 0.280E-03
CGA:   9    -0.286283930693E+03   -0.63985E-02   -0.63961E-02  7296   0.372E-01-0.334E-04
CGA:  10    -0.286288006770E+03   -0.40761E-02   -0.40781E-02  7296   0.106E-01 0.415E-04
CGA:  11    -0.286289430167E+03   -0.14234E-02   -0.14233E-02  7296   0.822E-02 0.132E-04
CGA:  12    -0.286290469264E+03   -0.10391E-02   -0.10392E-02  7296   0.285E-02 0.212E-04
CGA:  13    -0.286290910343E+03   -0.44108E-03   -0.44097E-03  7296   0.273E-02 0.552E-05
CGA:  14    -0.286291201865E+03   -0.29152E-03   -0.29177E-03  7296   0.100E-02 0.748E-05
CGA:  15    -0.286291318925E+03   -0.11706E-03   -0.11708E-03  7296   0.657E-03 0.177E-05
CGA:  16    -0.286291413306E+03   -0.94381E-04   -0.94353E-04  7296   0.238E-03 0.198E-05
CGA:  17    -0.286291440069E+03   -0.26763E-04   -0.26772E-04  7296   0.151E-03 0.518E-06
CGA:  18    -0.286291462665E+03   -0.22597E-04   -0.22575E-04  7296   0.685E-04 0.109E-05
CGA:  19    -0.286291470013E+03   -0.73480E-05   -0.73636E-05  7296   0.431E-04 0.654E-06
  11 F= -.28629147E+03 E0= -.28628292E+03  d E =-.611342E-01  mag=    18.0000
       N       E                     dE             d eps       ncg     rms          ort
SDA:   1    -0.283745980409E+03    0.25455E+01    0.00000E+00  7296   0.765E+01 0.000E+00
CGA:   2    -0.285055818032E+03   -0.13098E+01   -0.13053E+01  7296   0.756E+01 0.854E-01
CGA:   3    -0.285801563535E+03   -0.74575E+00   -0.73943E+00  7296   0.288E+01-0.236E-01
CGA:   4    -0.286164284078E+03   -0.36272E+00   -0.36279E+00  7296   0.118E+01 0.714E-02
CGA:   5    -0.286260472859E+03   -0.96189E-01   -0.95623E-01  7296   0.350E+00 0.901E-03
CGA:   6    -0.286301856615E+03   -0.41384E-01   -0.41397E-01  7296   0.110E+00 0.539E-03
CGA:   7    -0.286313836060E+03   -0.11979E-01   -0.11972E-01  7296   0.478E-01-0.127E-03
CGA:   8    -0.286319838162E+03   -0.60021E-02   -0.60023E-02  7296   0.177E-01 0.811E-04
CGA:   9    -0.286321624961E+03   -0.17868E-02   -0.17860E-02  7296   0.104E-01-0.344E-05
CGA:  10    -0.286322906637E+03   -0.12817E-02   -0.12817E-02  7296   0.378E-02 0.162E-04
CGA:  11    -0.286323312972E+03   -0.40633E-03   -0.40640E-03  7296   0.226E-02 0.368E-05
CGA:  12    -0.286323688392E+03   -0.37542E-03   -0.37505E-03  7296   0.106E-02 0.849E-05
CGA:  13    -0.286323820248E+03   -0.13186E-03   -0.13186E-03  7296   0.830E-03 0.247E-05
CGA:  14    -0.286323933676E+03   -0.11343E-03   -0.11338E-03  7296   0.421E-03 0.434E-05
CGA:  15    -0.286323976280E+03   -0.42604E-04   -0.42638E-04  7296   0.209E-03 0.137E-05
CGA:  16    -0.286324009814E+03   -0.33534E-04   -0.33472E-04  7296   0.115E-03 0.180E-05
CGA:  17    -0.286324021151E+03   -0.11337E-04   -0.11353E-04  7296   0.503E-04 0.541E-06
CGA:  18    -0.286324030436E+03   -0.92855E-05   -0.92556E-05  7296   0.397E-04 0.516E-06
  12 F= -.28632403E+03 E0= -.28631551E+03  d E =-.325604E-01  mag=    18.0000
       N       E                     dE             d eps       ncg     rms          ort
SDA:   1    -0.285222375947E+03    0.11016E+01    0.00000E+00  7296   0.281E+01 0.000E+00
CGA:   2    -0.285961832575E+03   -0.73946E+00   -0.73781E+00  7296   0.255E+01 0.123E-01
CGA:   3    -0.286191094735E+03   -0.22926E+00   -0.22692E+00  7296   0.815E+00 0.199E-02
CGA:   4    -0.286294344986E+03   -0.10325E+00   -0.10325E+00  7296   0.235E+00 0.344E-03
CGA:   5    -0.286318992086E+03   -0.24647E-01   -0.24656E-01  7296   0.985E-01 0.102E-03
CGA:   6    -0.286328686843E+03   -0.96948E-02   -0.96928E-02  7296   0.339E-01-0.340E-05
CGA:   7    -0.286332080113E+03   -0.33933E-02   -0.33914E-02  7296   0.153E-01-0.152E-04
CGA:   8    -0.286333916672E+03   -0.18366E-02   -0.18367E-02  7296   0.436E-02 0.365E-05
CGA:   9    -0.286334480653E+03   -0.56398E-03   -0.56399E-03  7296   0.318E-02-0.505E-06
CGA:  10    -0.286334788267E+03   -0.30761E-03   -0.30776E-03  7296   0.944E-03 0.361E-05
CGA:  11    -0.286334920879E+03   -0.13261E-03   -0.13259E-03  7296   0.839E-03 0.186E-05
CGA:  12    -0.286335027533E+03   -0.10665E-03   -0.10665E-03  7296   0.320E-03 0.347E-05
CGA:  13    -0.286335077252E+03   -0.49719E-04   -0.49692E-04  7296   0.272E-03 0.974E-06
CGA:  14    -0.286335112943E+03   -0.35691E-04   -0.35688E-04  7296   0.103E-03 0.133E-05
CGA:  15    -0.286335125375E+03   -0.12432E-04   -0.12433E-04  7296   0.814E-04 0.182E-06
CGA:  16    -0.286335134935E+03   -0.95598E-05   -0.95650E-05  7296   0.248E-04 0.499E-06
  13 F= -.28633513E+03 E0= -.28632659E+03  d E =-.111045E-01  mag=    18.0000
       N       E                     dE             d eps       ncg     rms          ort
SDA:   1    -0.282317383531E+03    0.40177E+01    0.00000E+00  7296   0.101E+02 0.000E+00
CGA:   2    -0.285027705292E+03   -0.27103E+01   -0.27031E+01  7296   0.847E+01 0.507E-01
CGA:   3    -0.285828065137E+03   -0.80036E+00   -0.78957E+00  7296   0.322E+01-0.794E-02
CGA:   4    -0.286189388916E+03   -0.36132E+00   -0.36159E+00  7296   0.945E+00 0.452E-02
CGA:   5    -0.286279209656E+03   -0.89821E-01   -0.89976E-01  7296   0.391E+00 0.355E-03
CGA:   6    -0.286319228787E+03   -0.40019E-01   -0.39987E-01  7296   0.118E+00-0.284E-03
CGA:   7    -0.286332601939E+03   -0.13373E-01   -0.13370E-01  7296   0.592E-01-0.777E-04
CGA:   8    -0.286338989437E+03   -0.63875E-02   -0.63900E-02  7296   0.179E-01 0.419E-04
CGA:   9    -0.286341059315E+03   -0.20699E-02   -0.20697E-02  7296   0.124E-01-0.605E-05
CGA:  10    -0.286342335975E+03   -0.12767E-02   -0.12770E-02  7296   0.347E-02 0.115E-04
CGA:  11    -0.286342836743E+03   -0.50077E-03   -0.50066E-03  7296   0.298E-02 0.594E-05
CGA:  12    -0.286343233540E+03   -0.39680E-03   -0.39671E-03  7296   0.114E-02 0.977E-05
CGA:  13    -0.286343414455E+03   -0.18091E-03   -0.18081E-03  7296   0.113E-02 0.346E-05
CGA:  14    -0.286343541198E+03   -0.12674E-03   -0.12681E-03  7296   0.423E-03 0.417E-05
CGA:  15    -0.286343591136E+03   -0.49938E-04   -0.49949E-04  7296   0.300E-03 0.126E-05
CGA:  16    -0.286343630028E+03   -0.38892E-04   -0.38885E-04  7296   0.986E-04 0.193E-05
CGA:  17    -0.286343640900E+03   -0.10872E-04   -0.10881E-04  7296   0.653E-04 0.566E-06
CGA:  18    -0.286343650955E+03   -0.10055E-04   -0.10030E-04  7296   0.323E-04 0.912E-06
CGA:  19    -0.286343654560E+03   -0.36047E-05   -0.36104E-05  7296   0.246E-04 0.347E-06
  14 F= -.28634365E+03 E0= -.28633506E+03  d E =-.851963E-02  mag=    18.0000
       N       E                     dE             d eps       ncg     rms          ort
SDA:   1    -0.272444128100E+03    0.13900E+02    0.00000E+00  7296   0.358E+02 0.000E+00
CGA:   2    -0.281244439470E+03   -0.88003E+01   -0.86977E+01  7296   0.339E+02 0.821E+00
CGA:   3    -0.284357889054E+03   -0.31134E+01   -0.29553E+01  7296   0.112E+02 0.305E+00
CGA:   4    -0.285789426417E+03   -0.14315E+01   -0.14315E+01  7296   0.343E+01-0.482E-02
CGA:   5    -0.286096026556E+03   -0.30660E+00   -0.30714E+00  7296   0.150E+01-0.720E-02
CGA:   6    -0.286247591918E+03   -0.15157E+00   -0.15162E+00  7296   0.428E+00 0.219E-03
CGA:   7    -0.286296303615E+03   -0.48712E-01   -0.48681E-01  7296   0.229E+00-0.713E-03
CGA:   8    -0.286320061857E+03   -0.23758E-01   -0.23815E-01  7296   0.754E-01 0.632E-03
CGA:   9    -0.286327644996E+03   -0.75831E-02   -0.75855E-02  7296   0.440E-01 0.304E-04
CGA:  10    -0.286333291460E+03   -0.56465E-02   -0.56461E-02  7296   0.131E-01 0.988E-04
CGA:  11    -0.286335078003E+03   -0.17865E-02   -0.17863E-02  7296   0.121E-01 0.216E-04
CGA:  12    -0.286336648890E+03   -0.15709E-02   -0.15706E-02  7296   0.544E-02 0.600E-04
CGA:  13    -0.286337264026E+03   -0.61514E-03   -0.61535E-03  7296   0.411E-02 0.133E-04
CGA:  14    -0.286337895683E+03   -0.63166E-03   -0.63083E-03  7296   0.162E-02 0.261E-04
CGA:  15    -0.286338078759E+03   -0.18308E-03   -0.18318E-03  7296   0.109E-02 0.651E-05
CGA:  16    -0.286338226423E+03   -0.14766E-03   -0.14759E-03  7296   0.476E-03 0.779E-05
CGA:  17    -0.286338270016E+03   -0.43593E-04   -0.43667E-04  7296   0.209E-03 0.193E-05
CGA:  18    -0.286338309018E+03   -0.39001E-04   -0.38877E-04  7296   0.140E-03 0.204E-05
CGA:  19    -0.286338323450E+03   -0.14433E-04   -0.14464E-04  7296   0.844E-04 0.117E-05
CGA:  20    -0.286338341146E+03   -0.17695E-04   -0.17555E-04  7296   0.945E-04 0.176E-05
CGA:  21    -0.286338353425E+03   -0.12279E-04   -0.12279E-04  7296   0.733E-04-0.304E-07
CGA:  22    -0.286338366737E+03   -0.13313E-04   -0.13356E-04  7296   0.726E-04-0.854E-06
CGA:  23    -0.286338376576E+03   -0.98386E-05   -0.98416E-05  7296   0.488E-04-0.772E-06
  15 F= -.28633838E+03 E0= -.28632955E+03  d E =0.527798E-02  mag=    18.0000
       N       E                     dE             d eps       ncg     rms          ort
SDA:   1    -0.284273257482E+03    0.20651E+01    0.00000E+00  7296   0.605E+01 0.000E+00
CGA:   2    -0.285486069369E+03   -0.12128E+01   -0.12118E+01  7296   0.419E+01 0.122E-01
CGA:   3    -0.286003671910E+03   -0.51760E+00   -0.51725E+00  7296   0.238E+01-0.950E-02
CGA:   4    -0.286252660365E+03   -0.24899E+00   -0.24919E+00  7296   0.579E+00 0.153E-02
CGA:   5    -0.286320515854E+03   -0.67855E-01   -0.67850E-01  7296   0.211E+00-0.107E-03
CGA:   6    -0.286339964163E+03   -0.19448E-01   -0.19421E-01  7296   0.845E-01-0.513E-04
CGA:   7    -0.286349004265E+03   -0.90401E-02   -0.90431E-02  7296   0.382E-01 0.399E-04
CGA:   8    -0.286352828627E+03   -0.38244E-02   -0.38223E-02  7296   0.120E-01-0.668E-05
CGA:   9    -0.286354649470E+03   -0.18208E-02   -0.18204E-02  7296   0.658E-02 0.144E-04
CGA:  10    -0.286355294461E+03   -0.64499E-03   -0.64502E-03  7296   0.235E-02 0.261E-05
CGA:  11    -0.286355677771E+03   -0.38331E-03   -0.38317E-03  7296   0.168E-02 0.398E-05
CGA:  12    -0.286355840207E+03   -0.16244E-03   -0.16250E-03  7296   0.783E-03 0.194E-05
CGA:  13    -0.286355958726E+03   -0.11852E-03   -0.11845E-03  7296   0.599E-03 0.297E-05
CGA:  14    -0.286356023211E+03   -0.64485E-04   -0.64528E-04  7296   0.214E-03 0.197E-05
CGA:  15    -0.286356056358E+03   -0.33147E-04   -0.33103E-04  7296   0.165E-03 0.174E-05
CGA:  16    -0.286356073503E+03   -0.17145E-04   -0.17164E-04  7296   0.556E-04 0.728E-06
CGA:  17    -0.286356080659E+03   -0.71559E-05   -0.71562E-05  7296   0.417E-04 0.576E-06
  16 F= -.28635608E+03 E0= -.28634745E+03  d E =-.177041E-01  mag=    18.0000
       N       E                     dE             d eps       ncg     rms          ort
SDA:   1    -0.285732697559E+03    0.62338E+00    0.00000E+00  7296   0.178E+01 0.000E+00
CGA:   2    -0.286105731464E+03   -0.37303E+00   -0.37321E+00  7296   0.143E+01-0.183E-02
CGA:   3    -0.286247369065E+03   -0.14164E+00   -0.14212E+00  7296   0.775E+00 0.181E-02
CGA:   4    -0.286328243338E+03   -0.80874E-01   -0.80811E-01  7296   0.207E+00-0.693E-03
CGA:   5    -0.286348871576E+03   -0.20628E-01   -0.20636E-01  7296   0.896E-01 0.445E-04
CGA:   6    -0.286357389631E+03   -0.85181E-02   -0.85164E-02  7296   0.235E-01-0.128E-04
CGA:   7    -0.286360568721E+03   -0.31791E-02   -0.31789E-02  7296   0.112E-01 0.123E-04
CGA:   8    -0.286361673271E+03   -0.11045E-02   -0.11044E-02  7296   0.373E-02 0.570E-06
CGA:   9    -0.286362171765E+03   -0.49849E-03   -0.49845E-03  7296   0.251E-02 0.449E-05
CGA:  10    -0.286362395597E+03   -0.22383E-03   -0.22384E-03  7296   0.725E-03 0.779E-06
CGA:  11    -0.286362508270E+03   -0.11267E-03   -0.11262E-03  7296   0.590E-03 0.168E-05
CGA:  12    -0.286362570376E+03   -0.62106E-04   -0.62116E-04  7296   0.213E-03 0.567E-06
CGA:  13    -0.286362609812E+03   -0.39436E-04   -0.39360E-04  7296   0.187E-03 0.123E-05
CGA:  14    -0.286362627980E+03   -0.18168E-04   -0.18184E-04  7296   0.733E-04 0.543E-06
CGA:  15    -0.286362638091E+03   -0.10111E-04   -0.10103E-04  7296   0.564E-04 0.710E-06
CGA:  16    -0.286362644243E+03   -0.61516E-05   -0.61578E-05  7296   0.169E-04 0.337E-06
  17 F= -.28636264E+03 E0= -.28635405E+03  d E =-.656358E-02  mag=    18.0000
       N       E                     dE             d eps       ncg     rms          ort
SDA:   1    -0.286212502350E+03    0.15014E+00    0.00000E+00  7296   0.412E+00 0.000E+00
CGA:   2    -0.286300504517E+03   -0.88002E-01   -0.87992E-01  7296   0.412E+00 0.116E-03
CGA:   3    -0.286338353304E+03   -0.37849E-01   -0.37851E-01  7296   0.169E+00-0.137E-04
CGA:   4    -0.286358066467E+03   -0.19713E-01   -0.19714E-01  7296   0.475E-01 0.428E-04
CGA:   5    -0.286362264365E+03   -0.41979E-02   -0.41970E-02  7296   0.190E-01-0.572E-05
CGA:   6    -0.286364244363E+03   -0.19800E-02   -0.19801E-02  7296   0.512E-02-0.903E-06
CGA:   7    -0.286364862159E+03   -0.61780E-03   -0.61778E-03  7296   0.295E-02-0.256E-05
CGA:   8    -0.286365154440E+03   -0.29228E-03   -0.29235E-03  7296   0.832E-03 0.171E-05
CGA:   9    -0.286365254904E+03   -0.10046E-03   -0.10046E-03  7296   0.562E-03-0.100E-06
CGA:  10    -0.286365313410E+03   -0.58506E-04   -0.58528E-04  7296   0.149E-03 0.111E-05
CGA:  11    -0.286365335311E+03   -0.21901E-04   -0.21892E-04  7296   0.128E-03 0.377E-06
CGA:  12    -0.286365350971E+03   -0.15661E-04   -0.15662E-04  7296   0.485E-04 0.655E-06
CGA:  13    -0.286365358100E+03   -0.71284E-05   -0.71237E-05  7296   0.487E-04 0.209E-06
  18 F= -.28636536E+03 E0= -.28635678E+03  d E =-.271386E-02  mag=    18.0000
       N       E                     dE             d eps       ncg     rms          ort
SDA:   1    -0.284920605644E+03    0.14447E+01    0.00000E+00  7296   0.385E+01 0.000E+00
CGA:   2    -0.285823818125E+03   -0.90321E+00   -0.90315E+00  7296   0.293E+01 0.657E-03
CGA:   3    -0.286157366443E+03   -0.33355E+00   -0.33377E+00  7296   0.145E+01 0.515E-02
CGA:   4    -0.286302870997E+03   -0.14550E+00   -0.14543E+00  7296   0.379E+00-0.802E-03
CGA:   5    -0.286341461381E+03   -0.38590E-01   -0.38578E-01  7296   0.162E+00-0.168E-03
CGA:   6    -0.286356386536E+03   -0.14925E-01   -0.14930E-01  7296   0.472E-01 0.455E-05
CGA:   7    -0.286362285973E+03   -0.58994E-02   -0.58994E-02  7296   0.243E-01-0.519E-05
CGA:   8    -0.286364528343E+03   -0.22424E-02   -0.22429E-02  7296   0.765E-02 0.935E-05
CGA:   9    -0.286365569128E+03   -0.10408E-02   -0.10408E-02  7296   0.476E-02 0.149E-05
CGA:  10    -0.286366007210E+03   -0.43808E-03   -0.43837E-03  7296   0.144E-02 0.535E-05
CGA:  11    -0.286366225119E+03   -0.21791E-03   -0.21786E-03  7296   0.117E-02 0.171E-05
CGA:  12    -0.286366355655E+03   -0.13054E-03   -0.13058E-03  7296   0.429E-03 0.313E-05
CGA:  13    -0.286366433798E+03   -0.78142E-04   -0.77998E-04  7296   0.391E-03 0.246E-05
CGA:  14    -0.286366473255E+03   -0.39457E-04   -0.39522E-04  7296   0.141E-03 0.250E-05
CGA:  15    -0.286366492934E+03   -0.19679E-04   -0.19659E-04  7296   0.116E-03 0.144E-05
CGA:  16    -0.286366504761E+03   -0.11827E-04   -0.11857E-04  7296   0.329E-04 0.123E-05
CGA:  17    -0.286366509026E+03   -0.42650E-05   -0.42634E-05  7296   0.231E-04 0.360E-06
  19 F= -.28636651E+03 E0= -.28635802E+03  d E =-.115093E-02  mag=    18.0000
       N       E                     dE             d eps       ncg     rms          ort
SDA:   1    -0.285580325016E+03    0.78618E+00    0.00000E+00  7296   0.220E+01 0.000E+00
CGA:   2    -0.286048629219E+03   -0.46830E+00   -0.46836E+00  7296   0.141E+01-0.548E-03
CGA:   3    -0.286254339694E+03   -0.20571E+00   -0.20562E+00  7296   0.769E+00 0.332E-02
CGA:   4    -0.286323840980E+03   -0.69501E-01   -0.69295E-01  7296   0.241E+00-0.490E-03
CGA:   5    -0.286346658229E+03   -0.22817E-01   -0.22835E-01  7296   0.863E-01 0.479E-04
CGA:   6    -0.286354848924E+03   -0.81907E-02   -0.81859E-02  7296   0.278E-01-0.336E-04
CGA:   7    -0.286358614106E+03   -0.37652E-02   -0.37648E-02  7296   0.114E-01 0.241E-04
CGA:   8    -0.286359758902E+03   -0.11448E-02   -0.11445E-02  7296   0.462E-02-0.765E-06
CGA:   9    -0.286360396175E+03   -0.63727E-03   -0.63718E-03  7296   0.225E-02 0.534E-05
CGA:  10    -0.286360597823E+03   -0.20165E-03   -0.20163E-03  7296   0.973E-03 0.369E-06
CGA:  11    -0.286360744269E+03   -0.14645E-03   -0.14640E-03  7296   0.596E-03 0.142E-05
CGA:  12    -0.286360805718E+03   -0.61449E-04   -0.61457E-04  7296   0.284E-03 0.470E-06
CGA:  13    -0.286360854809E+03   -0.49091E-04   -0.49013E-04  7296   0.188E-03 0.155E-05
CGA:  14    -0.286360874793E+03   -0.19984E-04   -0.19999E-04  7296   0.890E-04 0.806E-06
CGA:  15    -0.286360887038E+03   -0.12246E-04   -0.12233E-04  7296   0.628E-04 0.991E-06
CGA:  16    -0.286360893126E+03   -0.60875E-05   -0.61017E-05  7296   0.189E-04 0.489E-06
  20 F= -.28636089E+03 E0= -.28635245E+03  d E =0.561590E-02  mag=    18.0000
       N       E                     dE             d eps       ncg     rms          ort
SDA:   1    -0.286103124001E+03    0.25776E+00    0.00000E+00  7296   0.703E+00 0.000E+00
CGA:   2    -0.286252311070E+03   -0.14919E+00   -0.14899E+00  7296   0.707E+00 0.214E-02
CGA:   3    -0.286314764543E+03   -0.62453E-01   -0.62172E-01  7296   0.288E+00-0.525E-03
CGA:   4    -0.286347735929E+03   -0.32971E-01   -0.32976E-01  7296   0.914E-01 0.140E-03
CGA:   5    -0.286355808079E+03   -0.80721E-02   -0.80685E-02  7296   0.318E-01-0.662E-07
CGA:   6    -0.286359446611E+03   -0.36385E-02   -0.36389E-02  7296   0.883E-02 0.209E-04
CGA:   7    -0.286360515850E+03   -0.10692E-02   -0.10692E-02  7296   0.473E-02-0.569E-05
CGA:   8    -0.286361001483E+03   -0.48563E-03   -0.48567E-03  7296   0.149E-02 0.509E-07
CGA:   9    -0.286361167472E+03   -0.16599E-03   -0.16597E-03  7296   0.965E-03-0.141E-05
CGA:  10    -0.286361275359E+03   -0.10789E-03   -0.10789E-03  7296   0.279E-03 0.228E-06
CGA:  11    -0.286361312055E+03   -0.36696E-04   -0.36694E-04  7296   0.225E-03 0.241E-06
CGA:  12    -0.286361341830E+03   -0.29775E-04   -0.29771E-04  7296   0.862E-04 0.393E-06
CGA:  13    -0.286361353905E+03   -0.12075E-04   -0.12075E-04  7296   0.831E-04-0.115E-07
CGA:  14    -0.286361363682E+03   -0.97769E-05   -0.97771E-05  7296   0.302E-04 0.147E-07
  21 F= -.28636136E+03 E0= -.28635286E+03  d E =-.470556E-03  mag=    18.0000
