       N       E                     dE             d eps       ncg     rms          rms(c)
DAV:   1     0.368907600188E+03    0.36891E+03   -0.19910E+04 35184   0.153E+03
DAV:   2    -0.195308766186E+02   -0.38844E+03   -0.38601E+03 36156   0.455E+02
DAV:   3    -0.433330433150E+02   -0.23802E+02   -0.23436E+02 67626   0.811E+01
DAV:   4    -0.465427846701E+02   -0.32097E+01   -0.31833E+01 55842   0.240E+01
DAV:   5    -0.466878494766E+02   -0.14506E+00   -0.14475E+00 53382   0.518E+00    0.172E+00
DAV:   6    -0.384398220616E+02    0.82480E+01   -0.85616E+00 49626   0.183E+01    0.372E+00
DAV:   7    -0.383073570037E+02    0.13247E+00   -0.27499E-01 49323   0.391E+00    0.396E+00
DAV:   8    -0.385076245091E+02   -0.20027E+00   -0.49622E-01 54339   0.340E+00    0.197E+00
DAV:   9    -0.385583472687E+02   -0.50723E-01   -0.95947E-01 38448   0.535E+00    0.131E+00
DAV:  10    -0.385749927803E+02   -0.16646E-01   -0.43286E-01 42168   0.431E+00    0.472E-01
DAV:  11    -0.385987580717E+02   -0.23765E-01   -0.27001E-01 35901   0.307E+00    0.188E-01
DAV:  12    -0.386038323336E+02   -0.50743E-02   -0.41280E-01 35436   0.388E+00    0.144E-01
DAV:  13    -0.386170527934E+02   -0.13220E-01   -0.58688E-01 35148   0.435E+00    0.227E-01
DAV:  14    -0.386232989673E+02   -0.62462E-02   -0.89015E-01 35058   0.560E+00    0.175E-01
DAV:  15    -0.386323414188E+02   -0.90425E-02   -0.10277E+00 35058   0.589E+00    0.175E-01
DAV:  16    -0.386475332771E+02   -0.15192E-01   -0.12721E+00 35058   0.660E+00    0.190E-01
DAV:  17    -0.386394301833E+02    0.81031E-02   -0.13363E+00 35058   0.648E+00    0.183E-01
DAV:  18    -0.386555403579E+02   -0.16110E-01   -0.14583E+00 35058   0.697E+00    0.201E-01
DAV:  19    -0.386415042901E+02    0.14036E-01   -0.14660E+00 35058   0.664E+00    0.196E-01
DAV:  20    -0.386587182003E+02   -0.17214E-01   -0.15466E+00 35058   0.707E+00    0.200E-01
DAV:  21    -0.386420746868E+02    0.16644E-01   -0.15232E+00 35058   0.667E+00    0.203E-01
DAV:  22    -0.386600535497E+02   -0.17979E-01   -0.15800E+00 35058   0.708E+00    0.201E-01
DAV:  23    -0.386422289417E+02    0.17825E-01   -0.15483E+00 35058   0.667E+00    0.205E-01
DAV:  24    -0.386610497515E+02   -0.18821E-01   -0.15989E+00 35058   0.707E+00    0.203E-01
DAV:  25    -0.386423759668E+02    0.18674E-01   -0.15657E+00 35058   0.666E+00    0.206E-01
DAV:  26    -0.386619919434E+02   -0.19616E-01   -0.16149E+00 35058   0.707E+00    0.205E-01
DAV:  27    -0.386425834497E+02    0.19408E-01   -0.15814E+00 35058   0.665E+00    0.206E-01
DAV:  28    -0.386628987445E+02   -0.20315E-01   -0.16302E+00 35058   0.706E+00    0.208E-01
DAV:  29    -0.386428504671E+02    0.20048E-01   -0.15966E+00 35058   0.664E+00    0.206E-01
DAV:  30    -0.386637825327E+02   -0.20932E-01   -0.16455E+00 35058   0.705E+00    0.210E-01
DAV:  31    -0.386431772728E+02    0.20605E-01   -0.16121E+00 35058   0.663E+00    0.206E-01
DAV:  32    -0.386646639679E+02   -0.21487E-01   -0.16614E+00 35058   0.705E+00    0.213E-01
DAV:  33    -0.386435587371E+02    0.21105E-01   -0.16279E+00 35058   0.663E+00    0.206E-01
DAV:  34    -0.386655412359E+02   -0.21982E-01   -0.16776E+00 35058   0.704E+00    0.216E-01
DAV:  35    -0.386439760662E+02    0.21565E-01   -0.16440E+00 35058   0.662E+00    0.207E-01
DAV:  36    -0.386663880209E+02   -0.22412E-01   -0.16937E+00 35058   0.704E+00    0.218E-01
DAV:  37    -0.386444013028E+02    0.21987E-01   -0.16596E+00 35058   0.662E+00    0.208E-01
DAV:  38    -0.386671603071E+02   -0.22759E-01   -0.17088E+00 35058   0.704E+00    0.221E-01
DAV:  39    -0.386448044156E+02    0.22356E-01   -0.16739E+00 35058   0.662E+00    0.208E-01
DAV:  40    -0.386678091213E+02   -0.23005E-01   -0.17219E+00 35058   0.704E+00    0.223E-01
DAV:  41    -0.386451622184E+02    0.22647E-01   -0.16861E+00 35058   0.662E+00    0.209E-01
DAV:  42    -0.386682943027E+02   -0.23132E-01   -0.17324E+00 35058   0.704E+00    0.224E-01
DAV:  43    -0.386454625573E+02    0.22832E-01   -0.16956E+00 35058   0.662E+00    0.210E-01
DAV:  44    -0.386685927070E+02   -0.23130E-01   -0.17398E+00 35058   0.703E+00    0.225E-01
DAV:  45    -0.386457040239E+02    0.22889E-01   -0.17021E+00 35058   0.662E+00    0.211E-01
DAV:  46    -0.386686993672E+02   -0.22995E-01   -0.17441E+00 35058   0.703E+00    0.226E-01
DAV:  47    -0.386458933489E+02    0.22806E-01   -0.17056E+00 35058   0.662E+00    0.211E-01
DAV:  48    -0.386686215595E+02   -0.22728E-01   -0.17455E+00 35058   0.703E+00    0.225E-01
DAV:  49    -0.386460419409E+02    0.22580E-01   -0.17065E+00 35058   0.661E+00    0.212E-01
DAV:  50    -0.386683738916E+02   -0.22332E-01   -0.17443E+00 35058   0.702E+00    0.225E-01
DAV:  51    -0.386461393254E+02    0.22235E-01   -0.17042E+00 35058   0.661E+00    0.213E-01
DAV:  52    -0.386678781052E+02   -0.21739E-01   -0.17394E+00 35058   0.701E+00    0.223E-01
DAV:  53    -0.386461783676E+02    0.21700E-01   -0.16992E+00 35058   0.660E+00    0.214E-01
DAV:  54    -0.386673257864E+02   -0.21147E-01   -0.17331E+00 35058   0.700E+00    0.221E-01
DAV:  55    -0.386462216335E+02    0.21104E-01   -0.16929E+00 35058   0.659E+00    0.215E-01
DAV:  56    -0.386669058905E+02   -0.20684E-01   -0.17287E+00 35058   0.700E+00    0.219E-01
DAV:  57    -0.386462578088E+02    0.20648E-01   -0.16900E+00 35058   0.659E+00    0.215E-01
DAV:  58    -0.386666519037E+02   -0.20394E-01   -0.17274E+00 35058   0.699E+00    0.218E-01
DAV:  59    -0.386463451731E+02    0.20307E-01   -0.16886E+00 35058   0.659E+00    0.216E-01
DAV:  60    -0.386664172523E+02   -0.20072E-01   -0.17259E+00 35058   0.699E+00    0.218E-01
DAV:  61    -0.386464082816E+02    0.20009E-01   -0.16865E+00 35058   0.659E+00    0.217E-01
DAV:  62    -0.386664803772E+02   -0.20072E-01   -0.17265E+00 35058   0.699E+00    0.217E-01
DAV:  63    -0.386464566115E+02    0.20024E-01   -0.16871E+00 35058   0.659E+00    0.217E-01
DAV:  64    -0.386664804663E+02   -0.20024E-01   -0.17270E+00 35058   0.700E+00    0.217E-01
DAV:  65    -0.386464962673E+02    0.19984E-01   -0.16875E+00 35058   0.659E+00    0.217E-01
DAV:  66    -0.386666825344E+02   -0.20186E-01   -0.17296E+00 35058   0.700E+00    0.217E-01
DAV:  67    -0.386465312578E+02    0.20151E-01   -0.16898E+00 35058   0.659E+00    0.217E-01
DAV:  68    -0.386669437520E+02   -0.20412E-01   -0.17333E+00 35058   0.701E+00    0.218E-01
DAV:  69    -0.386465893901E+02    0.20354E-01   -0.16935E+00 35058   0.660E+00    0.217E-01
DAV:  70    -0.386671619042E+02   -0.20573E-01   -0.17368E+00 35058   0.701E+00    0.218E-01
DAV:  71    -0.386466573247E+02    0.20505E-01   -0.16972E+00 35058   0.660E+00    0.217E-01
DAV:  72    -0.386675009691E+02   -0.20844E-01   -0.17423E+00 35058   0.702E+00    0.219E-01
DAV:  73    -0.386467319973E+02    0.20769E-01   -0.17024E+00 35058   0.660E+00    0.217E-01
DAV:  74    -0.386677743275E+02   -0.21042E-01   -0.17468E+00 35058   0.702E+00    0.220E-01
DAV:  75    -0.386467810928E+02    0.20993E-01   -0.17062E+00 35058   0.661E+00    0.217E-01
DAV:  76    -0.386679712429E+02   -0.21190E-01   -0.17499E+00 35058   0.703E+00    0.221E-01
DAV:  77    -0.386468134137E+02    0.21158E-01   -0.17091E+00 35058   0.661E+00    0.217E-01
DAV:  78    -0.386681240614E+02   -0.21311E-01   -0.17524E+00 35058   0.703E+00    0.221E-01
DAV:  79    -0.386468319652E+02    0.21292E-01   -0.17111E+00 35058   0.662E+00    0.217E-01
DAV:  80    -0.386682467001E+02   -0.21415E-01   -0.17541E+00 35058   0.704E+00    0.221E-01
DAV:  81    -0.386468384471E+02    0.21408E-01   -0.17127E+00 35058   0.662E+00    0.217E-01
DAV:  82    -0.386683161567E+02   -0.21478E-01   -0.17553E+00 35058   0.704E+00    0.221E-01
DAV:  83    -0.386468530767E+02    0.21463E-01   -0.17138E+00 35058   0.662E+00    0.217E-01
DAV:  84    -0.386683651412E+02   -0.21512E-01   -0.17562E+00 35058   0.704E+00    0.222E-01
DAV:  85    -0.386468626683E+02    0.21502E-01   -0.17145E+00 35058   0.662E+00    0.217E-01
DAV:  86    -0.386683996342E+02   -0.21537E-01   -0.17569E+00 35058   0.704E+00    0.222E-01
DAV:  87    -0.386468743145E+02    0.21525E-01   -0.17152E+00 35058   0.662E+00    0.217E-01
DAV:  88    -0.386683920851E+02   -0.21518E-01   -0.17571E+00 35058   0.704E+00    0.221E-01
DAV:  89    -0.386468939124E+02    0.21498E-01   -0.17153E+00 35058   0.662E+00    0.217E-01
DAV:  90    -0.386683737748E+02   -0.21480E-01   -0.17572E+00 35058   0.704E+00    0.221E-01
DAV:  91    -0.386468992593E+02    0.21475E-01   -0.17151E+00 35058   0.662E+00    0.218E-01
DAV:  92    -0.386683843814E+02   -0.21485E-01   -0.17574E+00 35058   0.704E+00    0.221E-01
DAV:  93    -0.386469179159E+02    0.21466E-01   -0.17154E+00 35058   0.662E+00    0.218E-01
DAV:  94    -0.386683757031E+02   -0.21458E-01   -0.17575E+00 35058   0.704E+00    0.221E-01
DAV:  95    -0.386469304036E+02    0.21445E-01   -0.17153E+00 35058   0.662E+00    0.218E-01
DAV:  96    -0.386683938977E+02   -0.21463E-01   -0.17578E+00 35058   0.704E+00    0.221E-01
DAV:  97    -0.386469246818E+02    0.21469E-01   -0.17154E+00 35058   0.662E+00    0.218E-01
DAV:  98    -0.386684030813E+02   -0.21478E-01   -0.17578E+00 35058   0.705E+00    0.221E-01
DAV:  99    -0.386469228969E+02    0.21480E-01   -0.17153E+00 35058   0.662E+00    0.218E-01
DAV: 100    -0.386684005122E+02   -0.21478E-01   -0.17576E+00 35058   0.705E+00
   1 F= -.38668401E+02 E0= -.38666526E+02  d E =-.386684E+02  mag=    -0.5156
       N       E                     dE             d eps       ncg     rms          rms(c)
DAV:   1    -0.387859805649E+02   -0.13906E+00   -0.62275E+00 35040   0.227E+01    0.192E+00
DAV:   2    -0.387364686104E+02    0.49512E-01   -0.24649E+00 40782   0.102E+01    0.139E+00
DAV:   3    -0.386551439097E+02    0.81325E-01   -0.22108E+00 35040   0.776E+00    0.491E-01
DAV:   4    -0.386627438360E+02   -0.75999E-02   -0.19042E+00 38451   0.716E+00    0.262E-01
DAV:   5    -0.386561356294E+02    0.66082E-02   -0.18451E+00 35409   0.683E+00    0.336E-01
DAV:   6    -0.386591269272E+02   -0.29913E-02   -0.18042E+00 35409   0.690E+00    0.194E-01
DAV:   7    -0.386490977400E+02    0.10029E-01   -0.16805E+00 35409   0.652E+00    0.276E-01
DAV:   8    -0.386583718400E+02   -0.92741E-02   -0.16847E+00 35409   0.686E+00    0.195E-01
DAV:   9    -0.386442369670E+02    0.14135E-01   -0.15929E+00 35310   0.647E+00    0.234E-01
DAV:  10    -0.386550782996E+02   -0.10841E-01   -0.15726E+00 35310   0.679E+00    0.190E-01
DAV:  11    -0.386416947311E+02    0.13384E-01   -0.15083E+00 35124   0.642E+00    0.227E-01
DAV:  12    -0.386503537629E+02   -0.86590E-02   -0.14783E+00 35124   0.672E+00    0.173E-01
DAV:  13    -0.386402846919E+02    0.10069E-01   -0.14221E+00 35118   0.635E+00    0.226E-01
DAV:  14    -0.386459606769E+02   -0.56760E-02   -0.14002E+00 35118   0.663E+00    0.157E-01
DAV:  15    -0.386395250471E+02    0.64356E-02   -0.13542E+00 35052   0.629E+00    0.228E-01
DAV:  16    -0.386420281307E+02   -0.25031E-02   -0.13394E+00 35052   0.656E+00    0.142E-01
DAV:  17    -0.386393200285E+02    0.27081E-02   -0.12998E+00 35052   0.623E+00    0.233E-01
DAV:  18    -0.386382559174E+02    0.10641E-02   -0.12881E+00 35052   0.648E+00    0.126E-01
DAV:  19    -0.386393554092E+02   -0.10995E-02   -0.12525E+00 35052   0.617E+00    0.241E-01
DAV:  20    -0.386348862809E+02    0.44691E-02   -0.12453E+00 35052   0.642E+00    0.110E-01
DAV:  21    -0.386395012551E+02   -0.46150E-02   -0.12113E+00 35052   0.611E+00    0.248E-01
DAV:  22    -0.386319168864E+02    0.75844E-02   -0.12084E+00 35052   0.636E+00    0.955E-02
DAV:  23    -0.386396445353E+02   -0.77276E-02   -0.11746E+00 35052   0.606E+00    0.256E-01
DAV:  24    -0.386293776488E+02    0.10267E-01   -0.11762E+00 35052   0.631E+00    0.823E-02
DAV:  25    -0.386397465780E+02   -0.10369E-01   -0.11423E+00 35052   0.601E+00    0.262E-01
DAV:  26    -0.386272885138E+02    0.12458E-01   -0.11490E+00 35052   0.627E+00    0.710E-02
DAV:  27    -0.386398371847E+02   -0.12549E-01   -0.11153E+00 35052   0.598E+00    0.268E-01
DAV:  28    -0.386255770616E+02    0.14260E-01   -0.11262E+00 35052   0.623E+00    0.616E-02
DAV:  29    -0.386399359610E+02   -0.14359E-01   -0.10930E+00 35052   0.595E+00    0.272E-01
DAV:  30    -0.386241521129E+02    0.15784E-01   -0.11073E+00 35052   0.620E+00    0.536E-02
DAV:  31    -0.386400439581E+02   -0.15892E-01   -0.10744E+00 35052   0.592E+00    0.277E-01
DAV:  32    -0.386229439714E+02    0.17100E-01   -0.10912E+00 35052   0.617E+00    0.468E-02
DAV:  33    -0.386401623504E+02   -0.17218E-01   -0.10586E+00 35052   0.590E+00    0.280E-01
DAV:  34    -0.386218944678E+02    0.18268E-01   -0.10772E+00 35052   0.615E+00    0.409E-02
DAV:  35    -0.386402970714E+02   -0.18403E-01   -0.10451E+00 35052   0.588E+00    0.284E-01
DAV:  36    -0.386209491392E+02    0.19348E-01   -0.10648E+00 35052   0.613E+00    0.356E-02
DAV:  37    -0.386404570018E+02   -0.19508E-01   -0.10330E+00 35052   0.586E+00    0.287E-01
DAV:  38    -0.386200579040E+02    0.20399E-01   -0.10533E+00 35052   0.611E+00    0.307E-02
DAV:  39    -0.386406533356E+02   -0.20595E-01   -0.10219E+00 35052   0.584E+00    0.291E-01
DAV:  40    -0.386191775343E+02    0.21476E-01   -0.10422E+00 35052   0.609E+00    0.259E-02
DAV:  41    -0.386408973352E+02   -0.21720E-01   -0.10112E+00 35052   0.582E+00    0.295E-01
DAV:  42    -0.386182723342E+02    0.22625E-01   -0.10311E+00 35052   0.607E+00    0.213E-02
DAV:  43    -0.386411935758E+02   -0.22921E-01   -0.10005E+00 35052   0.580E+00    0.299E-01
DAV:  44    -0.386173125188E+02    0.23881E-01   -0.10196E+00 35052   0.604E+00    0.167E-02
DAV:  45    -0.386415301408E+02   -0.24218E-01   -0.98926E-01 35052   0.578E+00    0.303E-01
DAV:  46    -0.386162767653E+02    0.25253E-01   -0.10073E+00 35052   0.602E+00    0.130E-02
DAV:  47    -0.386418011886E+02   -0.25524E-01   -0.97606E-01 35052   0.576E+00    0.307E-01
DAV:  48    -0.386151669495E+02    0.26634E-01   -0.99248E-01 35052   0.599E+00    0.112E-02
DAV:  49    -0.386420472893E+02   -0.26880E-01   -0.96125E-01 35052   0.573E+00    0.312E-01
DAV:  50    -0.386139921511E+02    0.28055E-01   -0.97654E-01 35052   0.596E+00    0.134E-02
DAV:  51    -0.386422549080E+02   -0.28263E-01   -0.94500E-01 35052   0.570E+00    0.316E-01
DAV:  52    -0.386124305390E+02    0.29824E-01   -0.95342E-01 35052   0.591E+00    0.218E-02
DAV:  53    -0.386426151885E+02   -0.30185E-01   -0.92361E-01 35052   0.566E+00    0.324E-01
DAV:  54    -0.386108632972E+02    0.31752E-01   -0.93193E-01 35052   0.586E+00    0.314E-02
DAV:  55    -0.386427509980E+02   -0.31888E-01   -0.90041E-01 35052   0.562E+00    0.329E-01
DAV:  56    -0.386095314897E+02    0.33220E-01   -0.91102E-01 35052   0.581E+00    0.399E-02
DAV:  57    -0.386413968434E+02   -0.31865E-01   -0.86867E-01 35040   0.555E+00    0.326E-01
DAV:  58    -0.386097564978E+02    0.31640E-01   -0.90167E-01 35040   0.580E+00    0.379E-02
DAV:  59    -0.386409029677E+02   -0.31146E-01   -0.86696E-01 35040   0.556E+00    0.323E-01
DAV:  60    -0.386099270588E+02    0.30976E-01   -0.89894E-01 35040   0.580E+00    0.368E-02
DAV:  61    -0.386405440083E+02   -0.30617E-01   -0.86577E-01 35040   0.556E+00    0.321E-01
DAV:  62    -0.386101631187E+02    0.30381E-01   -0.89920E-01 35040   0.580E+00    0.349E-02
DAV:  63    -0.386403029233E+02   -0.30140E-01   -0.86719E-01 35040   0.556E+00    0.319E-01
DAV:  64    -0.386102902406E+02    0.30013E-01   -0.89871E-01 35040   0.579E+00    0.337E-02
DAV:  65    -0.386400901790E+02   -0.29800E-01   -0.86725E-01 35040   0.556E+00    0.317E-01
DAV:  66    -0.386103530032E+02    0.29737E-01   -0.89759E-01 35040   0.579E+00    0.330E-02
DAV:  67    -0.386396433012E+02   -0.29290E-01   -0.86439E-01 35040   0.555E+00    0.314E-01
DAV:  68    -0.386109220225E+02    0.28721E-01   -0.90344E-01 35040   0.580E+00    0.275E-02
DAV:  69    -0.386393955023E+02   -0.28473E-01   -0.87215E-01 35040   0.557E+00    0.310E-01
DAV:  70    -0.386114590253E+02    0.27936E-01   -0.90946E-01 35040   0.581E+00    0.233E-02
DAV:  71    -0.386392235111E+02   -0.27764E-01   -0.87887E-01 35040   0.558E+00    0.308E-01
DAV:  72    -0.386120445905E+02    0.27179E-01   -0.91772E-01 35040   0.583E+00    0.184E-02
DAV:  73    -0.386391591446E+02   -0.27115E-01   -0.88785E-01 35040   0.560E+00    0.305E-01
DAV:  74    -0.386125335799E+02    0.26626E-01   -0.92473E-01 35040   0.585E+00    0.147E-02
DAV:  75    -0.386391272022E+02   -0.26594E-01   -0.89504E-01 35040   0.561E+00    0.303E-01
DAV:  76    -0.386129661620E+02    0.26161E-01   -0.93140E-01 35040   0.586E+00    0.117E-02
DAV:  77    -0.386390327824E+02   -0.26067E-01   -0.90103E-01 35040   0.562E+00    0.301E-01
DAV:  78    -0.386135608951E+02    0.25472E-01   -0.94023E-01 35040   0.588E+00    0.772E-03
DAV:  79    -0.386390706449E+02   -0.25510E-01   -0.91089E-01 35040   0.564E+00    0.300E-01
DAV:  80    -0.386141209128E+02    0.24950E-01   -0.94956E-01 35040   0.590E+00    0.528E-03
DAV:  81    -0.386391484010E+02   -0.25027E-01   -0.92043E-01 35040   0.566E+00    0.298E-01
DAV:  82    -0.386146626615E+02    0.24486E-01   -0.95914E-01 35040   0.592E+00    0.532E-03
DAV:  83    -0.386392377001E+02   -0.24575E-01   -0.92999E-01 35040   0.568E+00    0.297E-01
DAV:  84    -0.386151972079E+02    0.24040E-01   -0.96848E-01 35040   0.594E+00    0.762E-03
DAV:  85    -0.386393466209E+02   -0.24149E-01   -0.93936E-01 35040   0.569E+00    0.295E-01
DAV:  86    -0.386157025717E+02    0.23644E-01   -0.97751E-01 35040   0.596E+00    0.104E-02
DAV:  87    -0.386394083605E+02   -0.23706E-01   -0.94788E-01 35040   0.571E+00    0.294E-01
DAV:  88    -0.386163337170E+02    0.23075E-01   -0.98800E-01 35040   0.598E+00    0.142E-02
DAV:  89    -0.386394967260E+02   -0.23163E-01   -0.95858E-01 35040   0.573E+00    0.292E-01
DAV:  90    -0.386169418285E+02    0.22555E-01   -0.99823E-01 35040   0.600E+00    0.178E-02
DAV:  91    -0.386396113336E+02   -0.22670E-01   -0.96892E-01 35040   0.574E+00    0.291E-01
DAV:  92    -0.386174336456E+02    0.22178E-01   -0.10068E+00 35040   0.602E+00    0.205E-02
DAV:  93    -0.386396887834E+02   -0.22255E-01   -0.97712E-01 35040   0.576E+00    0.290E-01
DAV:  94    -0.386178899573E+02    0.21799E-01   -0.10146E+00 35040   0.603E+00    0.231E-02
DAV:  95    -0.386397641735E+02   -0.21874E-01   -0.98464E-01 35040   0.577E+00    0.289E-01
DAV:  96    -0.386182955184E+02    0.21469E-01   -0.10214E+00 35040   0.604E+00    0.252E-02
DAV:  97    -0.386398207967E+02   -0.21525E-01   -0.99117E-01 35040   0.578E+00    0.288E-01
DAV:  98    -0.386186397051E+02    0.21181E-01   -0.10270E+00 35040   0.605E+00    0.270E-02
DAV:  99    -0.386398540039E+02   -0.21214E-01   -0.99653E-01 35040   0.579E+00    0.288E-01
DAV: 100    -0.386189658217E+02    0.20888E-01   -0.10322E+00 35040   0.606E+00
   2 F= -.38618966E+02 E0= -.38617134E+02  d E =0.494347E-01  mag=    -0.4935
