       N       E                     dE             d eps       ncg     rms          rms(c)
DAV:   1     0.190744578041E+04    0.19074E+04   -0.77604E+04 94185   0.180E+03
DAV:   2     0.439715543256E+02   -0.18635E+04   -0.16905E+04 96860   0.515E+02
DAV:   3    -0.197102792443E+03   -0.24107E+03   -0.23734E+03101000   0.207E+02
DAV:   4    -0.203933944910E+03   -0.68312E+01   -0.68062E+01104635   0.372E+01
DAV:   5    -0.204012344505E+03   -0.78400E-01   -0.78358E-01103445   0.415E+00    0.535E+01
DAV:   6    -0.145727719955E+03    0.58285E+02   -0.77635E+01109780   0.685E+01    0.585E+01
DAV:   7    -0.149814820477E+03   -0.40871E+01   -0.15617E+01100430   0.154E+01    0.441E+01
DAV:   8    -0.148309728614E+03    0.15051E+01   -0.33292E+00109445   0.118E+01    0.238E+01
DAV:   9    -0.148066254041E+03    0.24347E+00   -0.38026E+00103265   0.136E+01    0.749E+00
DAV:  10    -0.149834901127E+03   -0.17686E+01   -0.81938E-01100500   0.653E+00    0.162E+00
DAV:  11    -0.149845317264E+03   -0.10416E-01   -0.53065E-02 99465   0.113E+00    0.774E-01
DAV:  12    -0.149847324271E+03   -0.20070E-02   -0.10566E-02109845   0.818E-01    0.278E-01
DAV:  13    -0.149847853469E+03   -0.52920E-03   -0.13035E-03103355   0.190E-01    0.116E-01
DAV:  14    -0.149848162409E+03   -0.30894E-03   -0.19536E-04 99145   0.844E-02    0.559E-02
DAV:  15    -0.149848182254E+03   -0.19846E-04   -0.67284E-05 93455   0.524E-02    0.298E-02
DAV:  16    -0.149848217387E+03   -0.35133E-04   -0.54476E-05 89680   0.375E-02    0.172E-02
DAV:  17    -0.149848214516E+03    0.28711E-05   -0.72048E-06 53610   0.207E-02
   1 F= -.14984821E+03 E0= -.14984821E+03  d E =-.149848E+03  mag=    20.0000
       N       E                     dE             d eps       ncg     rms          rms(c)
DAV:   1    -0.149864180868E+03   -0.15963E-01   -0.41076E-01103255   0.369E+00    0.120E+00
DAV:   2    -0.149850139241E+03    0.14042E-01   -0.37139E-02 97690   0.111E+00    0.120E+00
DAV:   3    -0.149849581008E+03    0.55823E-03   -0.22298E-03102875   0.234E-01    0.479E-01
DAV:   4    -0.149848971020E+03    0.60999E-03   -0.77724E-04108350   0.182E-01    0.270E-01
DAV:   5    -0.149848761641E+03    0.20938E-03   -0.37915E-04 98860   0.101E-01    0.103E-01
DAV:   6    -0.149848811887E+03   -0.50246E-04   -0.35241E-05 88000   0.400E-02    0.170E-02
DAV:   7    -0.149848816375E+03   -0.44873E-05   -0.55135E-06 53305   0.112E-02
   2 F= -.14984882E+03 E0= -.14984882E+03  d E =-.601858E-03  mag=    20.0000
