       N       E                     dE             d eps       ncg     rms          ort
DAV:   1     0.701704513751E+04    0.70170E+04   -0.26968E+05  8112   0.171E+03
DAV:   2     0.773891947061E+03   -0.62432E+04   -0.59439E+04  8112   0.511E+02
DAV:   3    -0.363905392873E+03   -0.11378E+04   -0.11150E+04  8112   0.210E+02
DAV:   4    -0.429944590245E+03   -0.66039E+02   -0.64150E+02  8112   0.533E+01
DAV:   5    -0.435147643970E+03   -0.52031E+01   -0.50552E+01  8112   0.127E+01
SDA:   6    -0.220155722815E+03    0.21499E+03   -0.50552E+01  8112   0.140E+04 0.000E+00
CGA:   7    -0.307150883961E+03   -0.86995E+02   -0.97330E+02  8112   0.209E+04-0.534E+03
CGA:   8    -0.346800117518E+03   -0.39649E+02   -0.45573E+02  8112   0.500E+03-0.475E+03
CGA:   9    -0.362956231860E+03   -0.16156E+02   -0.10549E+02  8112   0.146E+03 0.274E+02
CGA:  10    -0.370917505377E+03   -0.79613E+01   -0.77236E+01  8112   0.819E+02-0.266E+01
CGA:  11    -0.375486689779E+03   -0.45692E+01   -0.52092E+01  8112   0.110E+03-0.606E+01
CGA:  12    -0.376655893500E+03   -0.11692E+01   -0.40570E+01  8112   0.266E+03-0.105E+03
CGA:  13    -0.376464114788E+03    0.19178E+00   -0.10934E+02  8112   0.250E+03-0.115E+03
CGA:  14    -0.380564042996E+03   -0.40999E+01   -0.31892E+01  8112   0.639E+02 0.442E+02
CGA:  15    -0.371538617309E+03    0.90254E+01   -0.30840E+01  8112   0.347E+03-0.121E+03
CGA:  16    -0.374210112820E+03   -0.26715E+01   -0.84210E+01  8112   0.454E+03-0.411E+03
CGA:  17    -0.370115209324E+03    0.40949E+01   -0.14775E+02  8112   0.482E+03-0.373E+03
CGA:  18    -0.375440453932E+03   -0.53252E+01   -0.13318E+02  8112   0.374E+03-0.458E+03
CGA:  19    -0.372111539280E+03    0.33289E+01   -0.12273E+02  8112   0.412E+03-0.336E+03
CGA:  20    -0.378557116818E+03   -0.64456E+01   -0.97929E+01  8112   0.237E+03-0.347E+03
CGA:  21    -0.374661383216E+03    0.38957E+01   -0.76621E+01  8112   0.388E+03-0.284E+03
CGA:  22    -0.377302972285E+03   -0.26416E+01   -0.10116E+02  8112   0.345E+03-0.377E+03
CGA:  23    -0.376091654960E+03    0.12113E+01   -0.10521E+02  8112   0.367E+03-0.324E+03
CGA:  24    -0.379371150884E+03   -0.32795E+01   -0.93700E+01  8112   0.248E+03-0.316E+03
CGA:  25    -0.378433370317E+03    0.93778E+00   -0.72371E+01  8112   0.258E+03-0.236E+03
CGA:  26    -0.382092429880E+03   -0.36591E+01   -0.54847E+01  8112   0.181E+03-0.282E+03
CGA:  27    -0.381167856131E+03    0.92457E+00   -0.47167E+01  8112   0.164E+03-0.135E+03
CGA:  28    -0.384128760932E+03   -0.29609E+01   -0.25881E+01  8112   0.451E+02-0.118E+03
CGA:  29    -0.383749356393E+03    0.37940E+00   -0.10903E+01  8112   0.795E+02-0.509E+02
CGA:  30    -0.384565374571E+03   -0.81602E+00   -0.10559E+01  8112   0.130E+02-0.310E+02
CGA:  31    -0.384746807944E+03   -0.18143E+00   -0.19121E+00  8112   0.310E+01-0.466E+00
CGA:  32    -0.384864281098E+03   -0.11747E+00   -0.11679E+00  8112   0.606E+01 0.161E-01
CGA:  33    -0.385479881875E+03   -0.61560E+00   -0.62786E+00  8112   0.137E+02-0.686E+00
CGA:  34    -0.385688545815E+03   -0.20866E+00   -0.18299E+00  8112   0.381E+01 0.167E+01
CGA:  35    -0.385842863299E+03   -0.15432E+00   -0.10984E+00  8112   0.207E+01 0.139E+01
CGA:  36    -0.385893830370E+03   -0.50967E-01   -0.49293E-01  8112   0.181E+01 0.636E-01
CGA:  37    -0.385964499439E+03   -0.70669E-01   -0.75688E-01  8112   0.249E+01-0.795E-02
CGA:  38    -0.386018943229E+03   -0.54444E-01   -0.65309E-01  8112   0.359E+01-0.256E+00
CGA:  39    -0.386101613086E+03   -0.82670E-01   -0.58242E-01  8112   0.197E+01 0.127E+01
CGA:  40    -0.386159025255E+03   -0.57412E-01   -0.48241E-01  8112   0.186E+01 0.430E+00
CGA:  41    -0.386201721438E+03   -0.42696E-01   -0.41390E-01  8112   0.975E+00 0.613E-01
CGA:  42    -0.386215693935E+03   -0.13972E-01   -0.15692E-01  8112   0.855E+00-0.904E-01
CGA:  43    -0.386248220424E+03   -0.32526E-01   -0.33721E-01  8112   0.176E+01 0.237E-01
CGA:  44    -0.386282948753E+03   -0.34728E-01   -0.37441E-01  8112   0.119E+01-0.890E-01
CGA:  45    -0.386322805736E+03   -0.39857E-01   -0.40338E-01  8112   0.728E+00 0.834E-03
CGA:  46    -0.386336248596E+03   -0.13443E-01   -0.14423E-01  8112   0.394E+00-0.332E-01
CGA:  47    -0.386355440181E+03   -0.19192E-01   -0.19190E-01  8112   0.375E+00 0.504E-02
CGA:  48    -0.386369157051E+03   -0.13717E-01   -0.14108E-01  8112   0.473E+00 0.336E-02
CGA:  49    -0.386391057892E+03   -0.21901E-01   -0.22017E-01  8112   0.289E+00 0.115E-01
CGA:  50    -0.386409504470E+03   -0.18447E-01   -0.18378E-01  8112   0.211E+00 0.279E-02
CGA:  51    -0.386416607149E+03   -0.71027E-02   -0.71799E-02  8112   0.182E+00-0.291E-03
CGA:  52    -0.386428854253E+03   -0.12247E-01   -0.12250E-01  8112   0.192E+00-0.311E-03
CGA:  53    -0.386441614442E+03   -0.12760E-01   -0.13303E-01  8112   0.232E+00-0.234E-01
CGA:  54    -0.386448365456E+03   -0.67510E-02   -0.68153E-02  8112   0.159E+00-0.862E-04
CGA:  55    -0.386454343528E+03   -0.59781E-02   -0.61079E-02  8112   0.706E-01 0.187E-02
CGA:  56    -0.386457848922E+03   -0.35054E-02   -0.35028E-02  8112   0.909E-01-0.129E-02
CGA:  57    -0.386461244760E+03   -0.33958E-02   -0.33683E-02  8112   0.747E-01-0.348E-03
CGA:  58    -0.386466332319E+03   -0.50876E-02   -0.50070E-02  8112   0.114E+00 0.339E-02
CGA:  59    -0.386469472192E+03   -0.31399E-02   -0.30106E-02  8112   0.376E-01 0.275E-02
SDA:  60    -0.386471553554E+03   -0.20814E-02   -0.20929E-02  8112   0.502E-01-0.125E-02
CGA:  61    -0.386472968524E+03   -0.14150E-02   -0.14249E-02  8112   0.279E-01-0.489E-04
CGA:  62    -0.386475122326E+03   -0.21538E-02   -0.21551E-02  8112   0.363E-01-0.167E-04
CGA:  63    -0.386477303165E+03   -0.21808E-02   -0.21764E-02  8112   0.435E-01 0.377E-03
CGA:  64    -0.386480491868E+03   -0.31887E-02   -0.31831E-02  8112   0.226E-01 0.274E-03
CGA:  65    -0.386484886065E+03   -0.43942E-02   -0.44113E-02  8112   0.511E-01-0.335E-03
CGA:  66    -0.386487205243E+03   -0.23192E-02   -0.23402E-02  8112   0.548E-01 0.603E-03
CGA:  67    -0.386489780405E+03   -0.25752E-02   -0.25509E-02  8112   0.179E-01-0.244E-03
CGA:  68    -0.386491089608E+03   -0.13092E-02   -0.12957E-02  8112   0.221E-01 0.654E-03
CGA:  69    -0.386492769897E+03   -0.16803E-02   -0.17664E-02  8112   0.495E-01-0.342E-02
CGA:  70    -0.386494982914E+03   -0.22130E-02   -0.21550E-02  8112   0.830E-01-0.267E-02
CGA:  71    -0.386497175202E+03   -0.21923E-02   -0.22569E-02  8112   0.617E-01 0.101E-02
CGA:  72    -0.386499194088E+03   -0.20189E-02   -0.18591E-02  8112   0.601E-01 0.356E-02
CGA:  73    -0.386501402220E+03   -0.22081E-02   -0.21510E-02  8112   0.802E-01 0.831E-03
CGA:  74    -0.386504396096E+03   -0.29939E-02   -0.30499E-02  8112   0.130E+00 0.875E-03
CGA:  75    -0.386512105936E+03   -0.77098E-02   -0.77738E-02  8112   0.339E+00-0.725E-02
CGA:  76    -0.386516988690E+03   -0.48828E-02   -0.37345E-02  8112   0.248E+00 0.835E-01
CGA:  77    -0.386520746254E+03   -0.37576E-02   -0.34812E-02  8112   0.121E+00 0.213E-01
CGA:  78    -0.386522395210E+03   -0.16490E-02   -0.16167E-02  8112   0.881E-01 0.246E-02
CGA:  79    -0.386523697681E+03   -0.13025E-02   -0.12844E-02  8112   0.950E-01 0.112E-02
CGA:  80    -0.386525194690E+03   -0.14970E-02   -0.14786E-02  8112   0.115E+00 0.103E-02
CGA:  81    -0.386526898124E+03   -0.17034E-02   -0.16925E-02  8112   0.130E+00 0.750E-03
CGA:  82    -0.386528803782E+03   -0.19057E-02   -0.18824E-02  8112   0.155E+00 0.142E-02
CGA:  83    -0.386531067054E+03   -0.22633E-02   -0.21878E-02  8112   0.175E+00 0.433E-02
CGA:  84    -0.386533150703E+03   -0.20836E-02   -0.19495E-02  8112   0.139E+00 0.103E-01
CGA:  85    -0.386534634495E+03   -0.14838E-02   -0.14119E-02  8112   0.101E+00 0.629E-02
CGA:  86    -0.386535735739E+03   -0.11012E-02   -0.10770E-02  8112   0.902E-01 0.191E-02
CGA:  87    -0.386536728727E+03   -0.99299E-03   -0.98322E-03  8112   0.906E-01 0.669E-03
CGA:  88    -0.386537710470E+03   -0.98174E-03   -0.97524E-03  8112   0.941E-01 0.400E-03
CGA:  89    -0.386538756681E+03   -0.10462E-02   -0.10403E-02  8112   0.106E+00 0.319E-03
CGA:  90    -0.386539947955E+03   -0.11913E-02   -0.11842E-02  8112   0.120E+00 0.312E-03
SDA:  91    -0.386541222768E+03   -0.12748E-02   -0.12697E-02  8112   0.124E+00 0.785E-05
CGA:  92    -0.386548073429E+03   -0.68507E-02   -0.68619E-02  8112   0.113E+00-0.401E-03
CGA:  93    -0.386555949562E+03   -0.78761E-02   -0.78934E-02  8112   0.134E+00-0.457E-03
CGA:  94    -0.386565774438E+03   -0.98249E-02   -0.94738E-02  8112   0.232E+00 0.972E-02
CGA:  95    -0.386575769165E+03   -0.99947E-02   -0.10038E-01  8112   0.267E+00-0.529E-02
CGA:  96    -0.386590829314E+03   -0.15060E-01   -0.16138E-01  8112   0.145E+00-0.380E-01
CGA:  97    -0.386595257877E+03   -0.44286E-02   -0.44293E-02  8112   0.791E-01 0.212E-03
CGA:  98    -0.386600806203E+03   -0.55483E-02   -0.55328E-02  8112   0.571E-01 0.425E-03
CGA:  99    -0.386603578160E+03   -0.27720E-02   -0.27564E-02  8112   0.608E-01 0.112E-02
CGA: 100    -0.386605796335E+03   -0.22182E-02   -0.22147E-02  8112   0.212E-01-0.524E-03
CGA: 101    -0.386606919740E+03   -0.11234E-02   -0.11241E-02  8112   0.235E-01-0.578E-04
CGA: 102    -0.386608126882E+03   -0.12071E-02   -0.12092E-02  8112   0.123E-01-0.168E-03
CGA: 103    -0.386609522355E+03   -0.13955E-02   -0.14269E-02  8112   0.210E-01-0.440E-03
CGA: 104    -0.386610439407E+03   -0.91705E-03   -0.91727E-03  8112   0.209E-01-0.154E-03
CGA: 105    -0.386611407392E+03   -0.96798E-03   -0.96716E-03  8112   0.940E-02 0.146E-03
CGA: 106    -0.386611829016E+03   -0.42162E-03   -0.42169E-03  8112   0.104E-01-0.109E-03
CGA: 107    -0.386612773451E+03   -0.94444E-03   -0.94660E-03  8112   0.787E-02-0.440E-04
CGA: 108    -0.386613291095E+03   -0.51764E-03   -0.52039E-03  8112   0.805E-02-0.118E-03
CGA: 109    -0.386613638369E+03   -0.34727E-03   -0.34737E-03  8112   0.584E-02-0.677E-05
CGA: 110    -0.386614007663E+03   -0.36929E-03   -0.37071E-03  8112   0.376E-02-0.759E-04
CGA: 111    -0.386614119028E+03   -0.11136E-03   -0.11130E-03  8112   0.240E-02-0.120E-04
CGA: 112    -0.386614429512E+03   -0.31048E-03   -0.31644E-03  8112   0.361E-02-0.744E-04
CGA: 113    -0.386614568804E+03   -0.13929E-03   -0.13930E-03  8112   0.237E-02-0.114E-04
CGA: 114    -0.386614723833E+03   -0.15503E-03   -0.15525E-03  8112   0.204E-02-0.120E-04
CGA: 115    -0.386614966641E+03   -0.24281E-03   -0.24251E-03  8112   0.311E-02 0.313E-05
CGA: 116    -0.386615082220E+03   -0.11558E-03   -0.11585E-03  8112   0.167E-02 0.940E-05
CGA: 117    -0.386615190721E+03   -0.10850E-03   -0.10832E-03  8112   0.112E-02 0.160E-04
CGA: 118    -0.386615240521E+03   -0.49800E-04   -0.49832E-04  8112   0.129E-02 0.548E-05
CGA: 119    -0.386615309586E+03   -0.69065E-04   -0.69082E-04  8112   0.585E-03 0.121E-04
CGA: 120    -0.386615361396E+03   -0.51810E-04   -0.51753E-04  8112   0.120E-02 0.164E-05
CGA: 121    -0.386615413355E+03   -0.51959E-04   -0.52002E-04  8112   0.321E-03 0.168E-05
SDA: 122    -0.386615441314E+03   -0.27959E-04   -0.27986E-04  8112   0.473E-03-0.906E-06
CGA: 123    -0.386615454064E+03   -0.12750E-04   -0.12718E-04  8112   0.193E-03-0.161E-06
CGA: 124    -0.386615465483E+03   -0.11419E-04   -0.11419E-04  8112   0.266E-03-0.168E-06
CGA: 125    -0.386615485610E+03   -0.20127E-04   -0.20162E-04  8112   0.412E-03-0.168E-05
CGA: 126    -0.386615504950E+03   -0.19340E-04   -0.19327E-04  8112   0.151E-03-0.185E-05
CGA: 127    -0.386615521846E+03   -0.16896E-04   -0.17064E-04  8112   0.116E-03-0.298E-05
CGA: 128    -0.386615536853E+03   -0.15007E-04   -0.15058E-04  8112   0.213E-03-0.756E-06
CGA: 129    -0.386615544360E+03   -0.75074E-05   -0.75497E-05  8112   0.182E-03 0.875E-06
CGA: 130    -0.386615556576E+03   -0.12216E-04   -0.12199E-04  8112   0.611E-04 0.329E-05
CGA: 131    -0.386615559599E+03   -0.30231E-05   -0.30597E-05  8112   0.657E-04 0.297E-05
   1 F= -.38661556E+03 E0= -.38659877E+03  d E =-.386616E+03  mag=    12.0000
       N       E                     dE             d eps       ncg     rms          ort
SDA:   1    -0.386612777033E+03    0.27795E-02    0.00000E+00  8112   0.586E-01 0.000E+00
CGA:   2    -0.386614709969E+03   -0.19329E-02   -0.19430E-02  8112   0.196E-01-0.128E-03
CGA:   3    -0.386615677421E+03   -0.96745E-03   -0.96662E-03  8112   0.139E-01-0.180E-04
CGA:   4    -0.386617038349E+03   -0.13609E-02   -0.13615E-02  8112   0.751E-02-0.109E-04
CGA:   5    -0.386617333865E+03   -0.29552E-03   -0.29481E-03  8112   0.811E-02 0.372E-05
CGA:   6    -0.386617757877E+03   -0.42401E-03   -0.42437E-03  8112   0.322E-02 0.200E-04
CGA:   7    -0.386617965784E+03   -0.20791E-03   -0.20790E-03  8112   0.111E-02 0.353E-05
CGA:   8    -0.386618013305E+03   -0.47521E-04   -0.47568E-04  8112   0.721E-03 0.170E-05
CGA:   9    -0.386618048176E+03   -0.34871E-04   -0.34870E-04  8112   0.331E-03 0.118E-06
CGA:  10    -0.386618062989E+03   -0.14813E-04   -0.14832E-04  8112   0.332E-03 0.119E-05
CGA:  11    -0.386618077290E+03   -0.14301E-04   -0.14318E-04  8112   0.135E-03 0.107E-05
CGA:  12    -0.386618088172E+03   -0.10882E-04   -0.10860E-04  8112   0.432E-04 0.103E-05
CGA:  13    -0.386618090630E+03   -0.24578E-05   -0.24599E-05  8112   0.589E-04 0.949E-06
   2 F= -.38661809E+03 E0= -.38660131E+03  d E =-.253103E-02  mag=    12.0000
       N       E                     dE             d eps       ncg     rms          ort
SDA:   1    -0.386330945691E+03    0.28714E+00    0.00000E+00  8112   0.121E+01 0.000E+00
CGA:   2    -0.386415340543E+03   -0.84395E-01   -0.83545E-01  8112   0.221E+01 0.511E-01
CGA:   3    -0.386510772534E+03   -0.95432E-01   -0.93423E-01  8112   0.967E+00-0.390E-02
CGA:   4    -0.386558779360E+03   -0.48007E-01   -0.48179E-01  8112   0.479E+00 0.760E-02
CGA:   5    -0.386591538841E+03   -0.32759E-01   -0.32834E-01  8112   0.727E+00-0.448E-02
CGA:   6    -0.386622807835E+03   -0.31269E-01   -0.31354E-01  8112   0.158E+00 0.103E-02
CGA:   7    -0.386627086305E+03   -0.42785E-02   -0.42121E-02  8112   0.592E-01 0.143E-02
CGA:   8    -0.386630740589E+03   -0.36543E-02   -0.36519E-02  8112   0.377E-01 0.261E-03
CGA:   9    -0.386634145388E+03   -0.34048E-02   -0.34066E-02  8112   0.305E-01-0.471E-04
CGA:  10    -0.386634839405E+03   -0.69402E-03   -0.70212E-03  8112   0.742E-02-0.224E-03
CGA:  11    -0.386635393438E+03   -0.55403E-03   -0.55378E-03  8112   0.599E-02 0.124E-04
CGA:  12    -0.386635867945E+03   -0.47451E-03   -0.47387E-03  8112   0.699E-02 0.255E-04
CGA:  13    -0.386636062924E+03   -0.19498E-03   -0.19460E-03  8112   0.156E-02 0.139E-04
CGA:  14    -0.386636165786E+03   -0.10286E-03   -0.10274E-03  8112   0.183E-02 0.112E-04
CGA:  15    -0.386636258865E+03   -0.93078E-04   -0.93131E-04  8112   0.129E-02 0.835E-05
CGA:  16    -0.386636331535E+03   -0.72670E-04   -0.72675E-04  8112   0.677E-03 0.101E-04
CGA:  17    -0.386636362018E+03   -0.30483E-04   -0.30502E-04  8112   0.694E-03 0.174E-05
CGA:  18    -0.386636397605E+03   -0.35587E-04   -0.35605E-04  8112   0.252E-03 0.275E-05
CGA:  19    -0.386636426796E+03   -0.29191E-04   -0.29292E-04  8112   0.458E-03-0.169E-05
CGA:  20    -0.386636442701E+03   -0.15905E-04   -0.15922E-04  8112   0.272E-03-0.919E-06
CGA:  21    -0.386636460470E+03   -0.17769E-04   -0.17784E-04  8112   0.152E-03-0.196E-05
CGA:  22    -0.386636469695E+03   -0.92247E-05   -0.92269E-05  8112   0.194E-03-0.756E-06
CGA:  23    -0.386636479980E+03   -0.10285E-04   -0.10280E-04  8112   0.107E-03-0.894E-06
CGA:  24    -0.386636485926E+03   -0.59464E-05   -0.59471E-05  8112   0.124E-03 0.293E-06
   3 F= -.38663649E+03 E0= -.38662001E+03  d E =-.183953E-01  mag=    12.0000
       N       E                     dE             d eps       ncg     rms          ort
SDA:   1    -0.380478615822E+03    0.61579E+01    0.00000E+00  8112   0.213E+02 0.000E+00
CGA:   2    -0.382868646052E+03   -0.23900E+01   -0.22490E+01  8112   0.299E+02 0.273E+01
CGA:   3    -0.384420829543E+03   -0.15522E+01   -0.14008E+01  8112   0.152E+02-0.442E+00
CGA:   4    -0.385499572119E+03   -0.10787E+01   -0.10858E+01  8112   0.111E+02-0.409E+00
CGA:   5    -0.385933513799E+03   -0.43394E+00   -0.38762E+00  8112   0.811E+01 0.351E+00
CGA:   6    -0.386406668362E+03   -0.47315E+00   -0.47394E+00  8112   0.208E+01 0.228E+00
CGA:   7    -0.386520924403E+03   -0.11426E+00   -0.11188E+00  8112   0.146E+01-0.157E+00
CGA:   8    -0.386566234597E+03   -0.45310E-01   -0.46914E-01  8112   0.101E+01-0.972E-02
CGA:   9    -0.386620225191E+03   -0.53991E-01   -0.54038E-01  8112   0.306E+00 0.694E-02
CGA:  10    -0.386642601755E+03   -0.22377E-01   -0.22309E-01  8112   0.209E+00 0.311E-02
CGA:  11    -0.386652738992E+03   -0.10137E-01   -0.10149E-01  8112   0.158E+00 0.402E-03
CGA:  12    -0.386661489133E+03   -0.87501E-02   -0.87540E-02  8112   0.531E-01 0.110E-02
CGA:  13    -0.386666051901E+03   -0.45628E-02   -0.45327E-02  8112   0.330E-01 0.883E-03
CGA:  14    -0.386668152652E+03   -0.21008E-02   -0.20980E-02  8112   0.490E-01 0.382E-03
CGA:  15    -0.386670164053E+03   -0.20114E-02   -0.20327E-02  8112   0.143E-01 0.133E-03
CGA:  16    -0.386671367589E+03   -0.12035E-02   -0.11966E-02  8112   0.771E-02 0.219E-03
CGA:  17    -0.386672200146E+03   -0.83256E-03   -0.83032E-03  8112   0.110E-01 0.447E-04
CGA:  18    -0.386672646854E+03   -0.44671E-03   -0.45062E-03  8112   0.708E-02 0.467E-05
CGA:  19    -0.386673067859E+03   -0.42101E-03   -0.42100E-03  8112   0.422E-02-0.149E-05
CGA:  20    -0.386673332008E+03   -0.26415E-03   -0.26408E-03  8112   0.483E-02 0.127E-04
CGA:  21    -0.386673619867E+03   -0.28786E-03   -0.28784E-03  8112   0.321E-02-0.183E-04
CGA:  22    -0.386673874522E+03   -0.25465E-03   -0.25448E-03  8112   0.147E-02 0.381E-05
CGA:  23    -0.386673971299E+03   -0.96778E-04   -0.96772E-04  8112   0.244E-02 0.360E-06
CGA:  24    -0.386674101485E+03   -0.13019E-03   -0.13030E-03  8112   0.106E-02 0.677E-05
CGA:  25    -0.386674205285E+03   -0.10380E-03   -0.10374E-03  8112   0.759E-03 0.180E-05
CGA:  26    -0.386674254802E+03   -0.49518E-04   -0.49509E-04  8112   0.859E-03 0.296E-05
CGA:  27    -0.386674303169E+03   -0.48366E-04   -0.48385E-04  8112   0.645E-03 0.213E-05
CGA:  28    -0.386674350755E+03   -0.47587E-04   -0.47556E-04  8112   0.525E-03 0.158E-05
CGA:  29    -0.386674372448E+03   -0.21693E-04   -0.21627E-04  8112   0.363E-03-0.223E-05
CGA:  30    -0.386674408156E+03   -0.35708E-04   -0.35923E-04  8112   0.228E-03-0.571E-05
CGA:  31    -0.386674433186E+03   -0.25030E-04   -0.25325E-04  8112   0.307E-03-0.603E-05
SDA:  32    -0.386674443834E+03   -0.10648E-04   -0.10590E-04  8112   0.163E-03-0.218E-05
CGA:  33    -0.386674449194E+03   -0.53602E-05   -0.53543E-05  8112   0.999E-04-0.381E-07
   4 F= -.38667445E+03 E0= -.38665912E+03  d E =-.379633E-01  mag=    12.0000
       N       E                     dE             d eps       ncg     rms          ort
SDA:   1    -0.357596478999E+03    0.29078E+02    0.00000E+00  8112   0.105E+03 0.000E+00
CGA:   2    -0.365656323185E+03   -0.80598E+01   -0.77429E+01  8112   0.151E+03 0.185E+02
CGA:   3    -0.374481204455E+03   -0.88249E+01   -0.62842E+01  8112   0.468E+02 0.598E+02
CGA:   4    -0.377562891263E+03   -0.30817E+01   -0.26553E+01  8112   0.130E+03-0.243E+01
CGA:   5    -0.380156122601E+03   -0.25932E+01   -0.29100E+01  8112   0.125E+03-0.617E+01
CGA:   6    -0.380564774013E+03   -0.40865E+00   -0.23387E+01  8112   0.145E+03-0.611E+02
CGA:   7    -0.381668522719E+03   -0.11037E+01   -0.92860E+00  8112   0.141E+03 0.171E+02
CGA:   8    -0.383446143940E+03   -0.17776E+01   -0.15912E+01  8112   0.295E+02-0.791E+02
CGA:   9    -0.384226065663E+03   -0.77992E+00   -0.85487E+00  8112   0.321E+02-0.102E+01
CGA:  10    -0.384921270979E+03   -0.69521E+00   -0.64534E+00  8112   0.171E+02 0.112E+01
CGA:  11    -0.385379514083E+03   -0.45824E+00   -0.42673E+00  8112   0.127E+02 0.633E+00
CGA:  12    -0.386147779966E+03   -0.76827E+00   -0.76161E+00  8112   0.932E+01 0.506E+00
CGA:  13    -0.386309353289E+03   -0.16157E+00   -0.20211E+00  8112   0.720E+01-0.116E+01
CGA:  14    -0.386407592527E+03   -0.98239E-01   -0.91609E-01  8112   0.107E+01 0.315E+00
CGA:  15    -0.386436131013E+03   -0.28538E-01   -0.27646E-01  8112   0.111E+01 0.154E-01
CGA:  16    -0.386475639376E+03   -0.39508E-01   -0.40341E-01  8112   0.241E+01 0.207E-01
CGA:  17    -0.386545099053E+03   -0.69460E-01   -0.73350E-01  8112   0.689E+00 0.517E-02
CGA:  18    -0.386571775152E+03   -0.26676E-01   -0.26949E-01  8112   0.765E+00 0.206E-01
CGA:  19    -0.386588613950E+03   -0.16839E-01   -0.18097E-01  8112   0.231E+00-0.223E-01
CGA:  20    -0.386596396870E+03   -0.77829E-02   -0.77392E-02  8112   0.201E+00-0.141E-02
CGA:  21    -0.386613069491E+03   -0.16673E-01   -0.16104E-01  8112   0.167E+00 0.141E-01
CGA:  22    -0.386620856384E+03   -0.77869E-02   -0.77919E-02  8112   0.593E-01 0.421E-02
CGA:  23    -0.386623727594E+03   -0.28712E-02   -0.28663E-02  8112   0.547E-01 0.954E-03
CGA:  24    -0.386630133221E+03   -0.64056E-02   -0.62528E-02  8112   0.423E-01 0.233E-02
CGA:  25    -0.386632637157E+03   -0.25039E-02   -0.25031E-02  8112   0.345E-01 0.728E-04
CGA:  26    -0.386634043867E+03   -0.14067E-02   -0.14212E-02  8112   0.189E-01 0.697E-03
CGA:  27    -0.386635235901E+03   -0.11920E-02   -0.11910E-02  8112   0.162E-01 0.582E-04
CGA:  28    -0.386636215505E+03   -0.97960E-03   -0.97630E-03  8112   0.190E-01 0.192E-03
CGA:  29    -0.386637676548E+03   -0.14610E-02   -0.14640E-02  8112   0.109E-01-0.102E-03
CGA:  30    -0.386638354615E+03   -0.67807E-03   -0.67592E-03  8112   0.806E-02 0.126E-03
CGA:  31    -0.386638684745E+03   -0.33013E-03   -0.33044E-03  8112   0.494E-02 0.149E-04
CGA:  32    -0.386639143724E+03   -0.45898E-03   -0.45753E-03  8112   0.564E-02 0.330E-04
CGA:  33    -0.386639439859E+03   -0.29613E-03   -0.29613E-03  8112   0.514E-02 0.590E-06
CGA:  34    -0.386639777128E+03   -0.33727E-03   -0.33694E-03  8112   0.188E-02 0.235E-04
CGA:  35    -0.386639919929E+03   -0.14280E-03   -0.14277E-03  8112   0.314E-02 0.132E-05
CGA:  36    -0.386640080366E+03   -0.16044E-03   -0.16040E-03  8112   0.147E-02-0.993E-05
CGA:  37    -0.386640209056E+03   -0.12869E-03   -0.12941E-03  8112   0.201E-02-0.206E-04
CGA:  38    -0.386640292697E+03   -0.83641E-04   -0.83513E-04  8112   0.876E-03-0.105E-04
SDA:  39    -0.386640371437E+03   -0.78741E-04   -0.79140E-04  8112   0.106E-02-0.111E-04
CGA:  40    -0.386640406265E+03   -0.34828E-04   -0.34820E-04  8112   0.470E-03-0.211E-06
CGA:  41    -0.386640429597E+03   -0.23332E-04   -0.23332E-04  8112   0.417E-03 0.372E-06
CGA:  42    -0.386640472242E+03   -0.42645E-04   -0.42525E-04  8112   0.473E-03 0.245E-05
CGA:  43    -0.386640494074E+03   -0.21832E-04   -0.21813E-04  8112   0.252E-03-0.784E-06
CGA:  44    -0.386640520184E+03   -0.26110E-04   -0.26264E-04  8112   0.195E-03-0.329E-05
CGA:  45    -0.386640546230E+03   -0.26046E-04   -0.26566E-04  8112   0.427E-03-0.664E-05
CGA:  46    -0.386640561798E+03   -0.15568E-04   -0.15454E-04  8112   0.275E-03-0.381E-05
CGA:  47    -0.386640582711E+03   -0.20912E-04   -0.21009E-04  8112   0.161E-03-0.637E-05
CGA:  48    -0.386640596580E+03   -0.13870E-04   -0.13963E-04  8112   0.223E-03-0.360E-05
CGA:  49    -0.386640607794E+03   -0.11213E-04   -0.11192E-04  8112   0.171E-03-0.147E-05
CGA:  50    -0.386640617586E+03   -0.97920E-05   -0.97880E-05  8112   0.137E-03-0.633E-06
   5 F= -.38664062E+03 E0= -.38662532E+03  d E =0.338316E-01  mag=    12.0000
       N       E                     dE             d eps       ncg     rms          ort
SDA:   1    -0.348992998993E+03    0.37648E+02    0.00000E+00  8112   0.161E+03 0.000E+00
CGA:   2    -0.366534299312E+03   -0.17541E+02   -0.16578E+02  8112   0.854E+02 0.914E+01
CGA:   3    -0.373552386783E+03   -0.70181E+01   -0.70780E+01  8112   0.151E+03-0.467E+01
CGA:   4    -0.377928216112E+03   -0.43758E+01   -0.42489E+01  8112   0.776E+02-0.779E+01
CGA:   5    -0.380150396407E+03   -0.22222E+01   -0.16757E+01  8112   0.903E+02 0.183E+02
CGA:   6    -0.381568959132E+03   -0.14186E+01   -0.20372E+01  8112   0.159E+03-0.574E+02
CGA:   7    -0.382752390063E+03   -0.11834E+01   -0.32248E+01  8112   0.893E+02-0.760E+02
CGA:   8    -0.384251726477E+03   -0.14993E+01   -0.14591E+01  8112   0.170E+02-0.148E+00
CGA:   9    -0.384736358456E+03   -0.48463E+00   -0.41638E+00  8112   0.771E+01 0.143E+01
CGA:  10    -0.385228012945E+03   -0.49165E+00   -0.48713E+00  8112   0.829E+01 0.613E+00
CGA:  11    -0.385699248059E+03   -0.47124E+00   -0.47319E+00  8112   0.956E+01 0.663E+00
CGA:  12    -0.385975468335E+03   -0.27622E+00   -0.29694E+00  8112   0.295E+01-0.303E+00
CGA:  13    -0.386120212791E+03   -0.14474E+00   -0.14499E+00  8112   0.226E+01 0.543E-01
CGA:  14    -0.386225345885E+03   -0.10513E+00   -0.10576E+00  8112   0.275E+01 0.322E-01
CGA:  15    -0.386377655991E+03   -0.15231E+00   -0.15225E+00  8112   0.942E+00 0.170E-01
CGA:  16    -0.386411408743E+03   -0.33753E-01   -0.34563E-01  8112   0.315E+00 0.292E-02
CGA:  17    -0.386425437420E+03   -0.14029E-01   -0.14033E-01  8112   0.219E+00 0.191E-03
CGA:  18    -0.386443869834E+03   -0.18432E-01   -0.18304E-01  8112   0.177E+00 0.340E-02
CGA:  19    -0.386451464208E+03   -0.75944E-02   -0.75751E-02  8112   0.133E+00-0.436E-03
CGA:  20    -0.386457302557E+03   -0.58383E-02   -0.58410E-02  8112   0.607E-01 0.685E-04
CGA:  21    -0.386463354866E+03   -0.60523E-02   -0.60626E-02  8112   0.111E+00-0.250E-03
CGA:  22    -0.386468576525E+03   -0.52217E-02   -0.52537E-02  8112   0.492E-01 0.165E-02
CGA:  23    -0.386471135127E+03   -0.25586E-02   -0.25573E-02  8112   0.330E-01-0.199E-03
CGA:  24    -0.386472872153E+03   -0.17370E-02   -0.17374E-02  8112   0.376E-01 0.180E-03
CGA:  25    -0.386475112990E+03   -0.22408E-02   -0.22426E-02  8112   0.175E-01-0.175E-03
CGA:  26    -0.386476295556E+03   -0.11826E-02   -0.11789E-02  8112   0.171E-01 0.197E-03
CGA:  27    -0.386476949489E+03   -0.65393E-03   -0.65246E-03  8112   0.747E-02 0.814E-05
CGA:  28    -0.386477488469E+03   -0.53898E-03   -0.53764E-03  8112   0.104E-01 0.590E-04
CGA:  29    -0.386478021439E+03   -0.53297E-03   -0.53288E-03  8112   0.661E-02-0.161E-05
CGA:  30    -0.386478594473E+03   -0.57303E-03   -0.57061E-03  8112   0.695E-02 0.677E-04
CGA:  31    -0.386478881123E+03   -0.28665E-03   -0.28628E-03  8112   0.441E-02 0.607E-05
CGA:  32    -0.386479141818E+03   -0.26070E-03   -0.26049E-03  8112   0.379E-02 0.393E-04
CGA:  33    -0.386479457086E+03   -0.31527E-03   -0.31503E-03  8112   0.570E-02 0.110E-04
CGA:  34    -0.386479758328E+03   -0.30124E-03   -0.30146E-03  8112   0.271E-02 0.338E-04
CGA:  35    -0.386479902053E+03   -0.14373E-03   -0.14373E-03  8112   0.247E-02 0.443E-05
CGA:  36    -0.386480031158E+03   -0.12911E-03   -0.12921E-03  8112   0.210E-02 0.125E-04
SDA:  37    -0.386480202712E+03   -0.17155E-03   -0.17163E-03  8112   0.170E-02-0.213E-05
CGA:  38    -0.386480250145E+03   -0.47433E-04   -0.47430E-04  8112   0.743E-03-0.272E-05
CGA:  39    -0.386480293987E+03   -0.43842E-04   -0.43860E-04  8112   0.658E-03-0.557E-05
CGA:  40    -0.386480350525E+03   -0.56538E-04   -0.56732E-04  8112   0.122E-02-0.646E-05
CGA:  41    -0.386480415809E+03   -0.65284E-04   -0.65243E-04  8112   0.514E-03-0.995E-05
CGA:  42    -0.386480456380E+03   -0.40572E-04   -0.40672E-04  8112   0.291E-03-0.456E-05
CGA:  43    -0.386480488624E+03   -0.32244E-04   -0.32334E-04  8112   0.447E-03-0.176E-05
CGA:  44    -0.386480512087E+03   -0.23463E-04   -0.23477E-04  8112   0.591E-03 0.748E-06
CGA:  45    -0.386480545307E+03   -0.33219E-04   -0.33220E-04  8112   0.230E-03 0.543E-06
CGA:  46    -0.386480564688E+03   -0.19381E-04   -0.19341E-04  8112   0.167E-03 0.175E-05
CGA:  47    -0.386480579218E+03   -0.14530E-04   -0.14489E-04  8112   0.302E-03 0.166E-05
CGA:  48    -0.386480593145E+03   -0.13928E-04   -0.13982E-04  8112   0.129E-03 0.277E-05
CGA:  49    -0.386480601901E+03   -0.87559E-05   -0.87479E-05  8112   0.184E-03 0.163E-05
   6 F= -.38648060E+03 E0= -.38646457E+03  d E =0.160016E+00  mag=    12.0000
       N       E                     dE             d eps       ncg     rms          ort
SDA:   1    -0.371614436718E+03    0.14866E+02    0.00000E+00  8112   0.664E+02 0.000E+00
CGA:   2    -0.376514579975E+03   -0.49001E+01   -0.52874E+01  8112   0.198E+03-0.185E+02
CGA:   3    -0.378797314814E+03   -0.22827E+01   -0.31386E+01  8112   0.138E+03-0.215E+02
CGA:   4    -0.380369822235E+03   -0.15725E+01   -0.20219E+01  8112   0.716E+02-0.564E+02
CGA:   5    -0.381379553082E+03   -0.10097E+01   -0.12868E+01  8112   0.122E+03-0.410E+01
CGA:   6    -0.382924370406E+03   -0.15448E+01   -0.15833E+01  8112   0.418E+02-0.252E+02
CGA:   7    -0.383623657324E+03   -0.69929E+00   -0.58057E+00  8112   0.621E+02 0.519E+01
CGA:   8    -0.384941835264E+03   -0.13182E+01   -0.16809E+01  8112   0.307E+02-0.762E+01
CGA:   9    -0.385291691567E+03   -0.34986E+00   -0.36609E+00  8112   0.199E+02-0.114E+01
CGA:  10    -0.385849562322E+03   -0.55787E+00   -0.52748E+00  8112   0.187E+02 0.360E+00
CGA:  11    -0.386093005049E+03   -0.24344E+00   -0.21559E+00  8112   0.812E+01 0.194E+01
CGA:  12    -0.386209580747E+03   -0.11658E+00   -0.14291E+00  8112   0.469E+01-0.114E+01
CGA:  13    -0.386281952898E+03   -0.72372E-01   -0.79914E-01  8112   0.444E+01-0.219E+00
CGA:  14    -0.386377552581E+03   -0.95600E-01   -0.10096E+00  8112   0.168E+01-0.963E-01
CGA:  15    -0.386418623388E+03   -0.41071E-01   -0.41144E-01  8112   0.272E+01-0.211E-02
CGA:  16    -0.386528987966E+03   -0.11036E+00   -0.11015E+00  8112   0.157E+01-0.738E-01
CGA:  17    -0.386557371215E+03   -0.28383E-01   -0.30701E-01  8112   0.109E+01-0.589E-01
CGA:  18    -0.386586983483E+03   -0.29612E-01   -0.30602E-01  8112   0.702E+00 0.107E-01
CGA:  19    -0.386608954107E+03   -0.21971E-01   -0.22050E-01  8112   0.403E+00 0.186E-02
CGA:  20    -0.386622130692E+03   -0.13177E-01   -0.13299E-01  8112   0.433E+00 0.535E-02
CGA:  21    -0.386638330850E+03   -0.16200E-01   -0.16239E-01  8112   0.208E+00 0.709E-02
CGA:  22    -0.386647863071E+03   -0.95322E-02   -0.94275E-02  8112   0.282E+00 0.122E-01
CGA:  23    -0.386657914294E+03   -0.10051E-01   -0.10094E-01  8112   0.574E-01 0.261E-02
CGA:  24    -0.386662821888E+03   -0.49076E-02   -0.49011E-02  8112   0.706E-01 0.129E-03
CGA:  25    -0.386665619636E+03   -0.27977E-02   -0.28018E-02  8112   0.609E-01 0.965E-03
CGA:  26    -0.386669202590E+03   -0.35830E-02   -0.35652E-02  8112   0.251E-01 0.837E-03
CGA:  27    -0.386671761434E+03   -0.25588E-02   -0.25463E-02  8112   0.189E-01 0.228E-03
CGA:  28    -0.386672375660E+03   -0.61423E-03   -0.61355E-03  8112   0.133E-01-0.135E-04
CGA:  29    -0.386674062197E+03   -0.16865E-02   -0.16946E-02  8112   0.121E-01-0.126E-03
CGA:  30    -0.386674705913E+03   -0.64372E-03   -0.64320E-03  8112   0.102E-01 0.560E-04
CGA:  31    -0.386675189601E+03   -0.48369E-03   -0.48374E-03  8112   0.460E-02 0.946E-05
SDA:  32    -0.386675584439E+03   -0.39484E-03   -0.39095E-03  8112   0.862E-02 0.986E-04
CGA:  33    -0.386675778095E+03   -0.19366E-03   -0.19291E-03  8112   0.188E-02 0.218E-04
CGA:  34    -0.386675969899E+03   -0.19180E-03   -0.19134E-03  8112   0.361E-02 0.863E-05
CGA:  35    -0.386676220951E+03   -0.25105E-03   -0.25115E-03  8112   0.419E-02-0.236E-05
CGA:  36    -0.386676461034E+03   -0.24008E-03   -0.24002E-03  8112   0.122E-02 0.133E-04
CGA:  37    -0.386676582545E+03   -0.12151E-03   -0.12128E-03  8112   0.118E-02 0.476E-05
CGA:  38    -0.386676722425E+03   -0.13988E-03   -0.14206E-03  8112   0.198E-02-0.355E-04
CGA:  39    -0.386676820120E+03   -0.97696E-04   -0.97776E-04  8112   0.197E-02 0.298E-05
CGA:  40    -0.386676953370E+03   -0.13325E-03   -0.13325E-03  8112   0.943E-03-0.762E-06
CGA:  41    -0.386676996113E+03   -0.42744E-04   -0.42787E-04  8112   0.819E-03-0.244E-07
CGA:  42    -0.386677068294E+03   -0.72181E-04   -0.72432E-04  8112   0.668E-03-0.687E-05
CGA:  43    -0.386677117325E+03   -0.49031E-04   -0.49001E-04  8112   0.279E-03 0.219E-05
CGA:  44    -0.386677144169E+03   -0.26844E-04   -0.26797E-04  8112   0.488E-03 0.132E-05
CGA:  45    -0.386677168781E+03   -0.24611E-04   -0.24638E-04  8112   0.238E-03 0.171E-05
CGA:  46    -0.386677197041E+03   -0.28261E-04   -0.28318E-04  8112   0.216E-03-0.101E-05
CGA:  47    -0.386677206215E+03   -0.91735E-05   -0.91697E-05  8112   0.168E-03-0.333E-06
   7 F= -.38667721E+03 E0= -.38666201E+03  d E =-.196604E+00  mag=    12.0000
       N       E                     dE             d eps       ncg     rms          ort
SDA:   1    -0.386356508494E+03    0.32069E+00    0.00000E+00  8112   0.134E+01 0.000E+00
CGA:   2    -0.386423416856E+03   -0.66908E-01   -0.66685E-01  8112   0.198E+01-0.468E-02
CGA:   3    -0.386566219720E+03   -0.14280E+00   -0.14279E+00  8112   0.101E+01-0.925E-04
CGA:   4    -0.386629294386E+03   -0.63075E-01   -0.63071E-01  8112   0.321E+00-0.145E-01
CGA:   5    -0.386667208781E+03   -0.37914E-01   -0.37782E-01  8112   0.298E+00 0.228E-02
CGA:   6    -0.386677587045E+03   -0.10378E-01   -0.10288E-01  8112   0.780E-01 0.111E-02
CGA:   7    -0.386682455391E+03   -0.48683E-02   -0.48692E-02  8112   0.349E-01 0.219E-03
CGA:   8    -0.386685312616E+03   -0.28572E-02   -0.28585E-02  8112   0.275E-01-0.551E-04
CGA:   9    -0.386686377888E+03   -0.10653E-02   -0.10641E-02  8112   0.185E-01 0.590E-05
CGA:  10    -0.386687324013E+03   -0.94613E-03   -0.94697E-03  8112   0.395E-02 0.211E-04
CGA:  11    -0.386687624308E+03   -0.30029E-03   -0.30029E-03  8112   0.389E-02 0.862E-06
CGA:  12    -0.386687882888E+03   -0.25858E-03   -0.25851E-03  8112   0.352E-02 0.160E-04
CGA:  13    -0.386688064809E+03   -0.18192E-03   -0.18200E-03  8112   0.631E-03 0.537E-05
CGA:  14    -0.386688134679E+03   -0.69870E-04   -0.69727E-04  8112   0.785E-03 0.295E-05
CGA:  15    -0.386688203570E+03   -0.68890E-04   -0.68874E-04  8112   0.562E-03 0.621E-06
CGA:  16    -0.386688229791E+03   -0.26221E-04   -0.26233E-04  8112   0.462E-03 0.396E-06
CGA:  17    -0.386688261469E+03   -0.31678E-04   -0.31678E-04  8112   0.333E-03-0.171E-06
CGA:  18    -0.386688278001E+03   -0.16532E-04   -0.16505E-04  8112   0.362E-03-0.143E-05
CGA:  19    -0.386688311414E+03   -0.33413E-04   -0.33473E-04  8112   0.206E-03-0.222E-05
CGA:  20    -0.386688329625E+03   -0.18211E-04   -0.18205E-04  8112   0.103E-03 0.211E-06
CGA:  21    -0.386688339752E+03   -0.10127E-04   -0.10103E-04  8112   0.155E-03 0.728E-06
CGA:  22    -0.386688346989E+03   -0.72374E-05   -0.72457E-05  8112   0.816E-04 0.321E-06
   8 F= -.38668835E+03 E0= -.38667313E+03  d E =-.111408E-01  mag=    12.0000
       N       E                     dE             d eps       ncg     rms          ort
SDA:   1    -0.332369712281E+03    0.54319E+02    0.00000E+00  8112   0.644E+03 0.000E+00
CGA:   2    -0.350476883372E+03   -0.18107E+02   -0.25690E+02  8112   0.331E+03-0.142E+02
CGA:   3    -0.360335053029E+03   -0.98582E+01   -0.12713E+02  8112   0.206E+03-0.399E+02
CGA:   4    -0.369103766598E+03   -0.87687E+01   -0.58804E+01  8112   0.771E+02 0.127E+02
CGA:   5    -0.376279892649E+03   -0.71761E+01   -0.70464E+01  8112   0.208E+03 0.640E+01
CGA:   6    -0.380876562796E+03   -0.45967E+01   -0.56155E+01  8112   0.198E+03-0.331E+02
CGA:   7    -0.382764093051E+03   -0.18875E+01   -0.27368E+01  8112   0.566E+02-0.402E+02
CGA:   8    -0.383539745902E+03   -0.77565E+00   -0.10653E+01  8112   0.268E+02-0.460E+01
CGA:   9    -0.384060221622E+03   -0.52048E+00   -0.42571E+00  8112   0.134E+02 0.460E+01
CGA:  10    -0.384545442929E+03   -0.48522E+00   -0.42625E+00  8112   0.216E+02 0.114E+01
CGA:  11    -0.385158601674E+03   -0.61316E+00   -0.65833E+00  8112   0.239E+02-0.887E+00
CGA:  12    -0.385563740657E+03   -0.40514E+00   -0.43421E+00  8112   0.839E+01-0.101E+01
CGA:  13    -0.385649124764E+03   -0.85384E-01   -0.80434E-01  8112   0.308E+01 0.386E+00
CGA:  14    -0.385736114682E+03   -0.86990E-01   -0.86637E-01  8112   0.511E+01-0.729E-03
CGA:  15    -0.385816743784E+03   -0.80629E-01   -0.86627E-01  8112   0.358E+01-0.318E+00
CGA:  16    -0.385905466982E+03   -0.88723E-01   -0.90667E-01  8112   0.563E+01-0.308E-01
CGA:  17    -0.385980047087E+03   -0.74580E-01   -0.70041E-01  8112   0.184E+01 0.210E+00
CGA:  18    -0.386024746625E+03   -0.44700E-01   -0.44544E-01  8112   0.320E+01-0.511E-02
CGA:  19    -0.386086987828E+03   -0.62241E-01   -0.69973E-01  8112   0.199E+01-0.134E+00
CGA:  20    -0.386118396834E+03   -0.31409E-01   -0.34621E-01  8112   0.130E+01-0.111E+00
CGA:  21    -0.386137707791E+03   -0.19311E-01   -0.20111E-01  8112   0.604E+00-0.315E-01
CGA:  22    -0.386161276945E+03   -0.23569E-01   -0.23561E-01  8112   0.931E+00 0.266E-01
CGA:  23    -0.386180026121E+03   -0.18749E-01   -0.19687E-01  8112   0.537E+00-0.225E-01
CGA:  24    -0.386207609550E+03   -0.27583E-01   -0.27493E-01  8112   0.364E+00 0.494E-02
CGA:  25    -0.386216374880E+03   -0.87653E-02   -0.88296E-02  8112   0.309E+00-0.229E-03
CGA:  26    -0.386229335035E+03   -0.12960E-01   -0.12922E-01  8112   0.148E+00 0.702E-02
CGA:  27    -0.386234692503E+03   -0.53575E-02   -0.53878E-02  8112   0.184E+00 0.380E-02
CGA:  28    -0.386243444556E+03   -0.87521E-02   -0.87365E-02  8112   0.130E+00 0.129E-02
CGA:  29    -0.386249314567E+03   -0.58700E-02   -0.58768E-02  8112   0.104E+00-0.714E-03
CGA:  30    -0.386253079519E+03   -0.37650E-02   -0.37806E-02  8112   0.600E-01 0.242E-02
CGA:  31    -0.386255439197E+03   -0.23597E-02   -0.23600E-02  8112   0.447E-01 0.209E-03
SDA:  32    -0.386258095500E+03   -0.26563E-02   -0.26519E-02  8112   0.445E-01 0.188E-03
CGA:  33    -0.386260090444E+03   -0.19949E-02   -0.19930E-02  8112   0.271E-01 0.260E-03
CGA:  34    -0.386261190238E+03   -0.10998E-02   -0.10997E-02  8112   0.249E-01-0.142E-03
CGA:  35    -0.386263584582E+03   -0.23943E-02   -0.23640E-02  8112   0.296E-01 0.584E-03
CGA:  36    -0.386265274170E+03   -0.16896E-02   -0.16903E-02  8112   0.205E-01-0.370E-04
CGA:  37    -0.386266123381E+03   -0.84921E-03   -0.84905E-03  8112   0.870E-02-0.260E-04
CGA:  38    -0.386267097798E+03   -0.97442E-03   -0.94327E-03  8112   0.217E-01 0.515E-03
CGA:  39    -0.386267961838E+03   -0.86404E-03   -0.85560E-03  8112   0.793E-02-0.186E-03
CGA:  40    -0.386269049397E+03   -0.10876E-02   -0.10551E-02  8112   0.468E-02 0.405E-03
CGA:  41    -0.386269558320E+03   -0.50892E-03   -0.51848E-03  8112   0.968E-02-0.183E-03
CGA:  42    -0.386270058652E+03   -0.50033E-03   -0.50024E-03  8112   0.656E-02 0.244E-03
CGA:  43    -0.386270427006E+03   -0.36835E-03   -0.36841E-03  8112   0.371E-02-0.271E-04
CGA:  44    -0.386270619763E+03   -0.19276E-03   -0.19275E-03  8112   0.313E-02-0.124E-05
CGA:  45    -0.386270777316E+03   -0.15755E-03   -0.15755E-03  8112   0.139E-02-0.105E-07
CGA:  46    -0.386271002798E+03   -0.22548E-03   -0.22181E-03  8112   0.218E-02 0.392E-04
CGA:  47    -0.386271098606E+03   -0.95807E-04   -0.95325E-04  8112   0.110E-02-0.107E-05
CGA:  48    -0.386271151370E+03   -0.52765E-04   -0.52779E-04  8112   0.588E-03-0.616E-06
CGA:  49    -0.386271223021E+03   -0.71651E-04   -0.72413E-04  8112   0.155E-02-0.121E-04
CGA:  50    -0.386271291180E+03   -0.68160E-04   -0.68113E-04  8112   0.844E-03-0.337E-05
CGA:  51    -0.386271346432E+03   -0.55251E-04   -0.55264E-04  8112   0.445E-03-0.155E-05
CGA:  52    -0.386271384124E+03   -0.37692E-04   -0.37681E-04  8112   0.614E-03 0.617E-06
CGA:  53    -0.386271415398E+03   -0.31274E-04   -0.31316E-04  8112   0.524E-03 0.459E-05
CGA:  54    -0.386271462569E+03   -0.47171E-04   -0.46934E-04  8112   0.449E-03 0.867E-05
CGA:  55    -0.386271479834E+03   -0.17266E-04   -0.17361E-04  8112   0.281E-03 0.270E-05
CGA:  56    -0.386271499525E+03   -0.19691E-04   -0.19678E-04  8112   0.200E-03 0.136E-05
CGA:  57    -0.386271520602E+03   -0.21077E-04   -0.21072E-04  8112   0.260E-03-0.710E-07
CGA:  58    -0.386271535090E+03   -0.14488E-04   -0.14485E-04  8112   0.185E-03-0.655E-06
CGA:  59    -0.386271543769E+03   -0.86792E-05   -0.86725E-05  8112   0.824E-04-0.681E-06
CGA:  60    -0.386271556952E+03   -0.13184E-04   -0.13481E-04  8112   0.129E-03-0.320E-05
CGA:  61    -0.386271563797E+03   -0.68449E-05   -0.68306E-05  8112   0.141E-03-0.151E-05
   9 F= -.38627156E+03 E0= -.38625548E+03  d E =0.416783E+00  mag=    12.0000
       N       E                     dE             d eps       ncg     rms          ort
SDA:   1    -0.189880651709E+03    0.19639E+03    0.00000E+00  8112   0.111E+04 0.000E+00
CGA:   2    -0.232882895752E+03   -0.43002E+02   -0.58757E+02  8112   0.128E+04 0.469E+03
CGA:   3    -0.317722785142E+03   -0.84840E+02   -0.72554E+02  8112   0.593E+03-0.198E+03
CGA:   4    -0.335936244970E+03   -0.18213E+02   -0.13219E+02  8112   0.176E+03 0.175E+03
CGA:   5    -0.342089466727E+03   -0.61532E+01   -0.94008E+01  8112   0.510E+03 0.272E+02
CGA:   6    -0.365554391560E+03   -0.23465E+02   -0.19620E+02  8112   0.241E+03-0.405E+01
CGA:   7    -0.373341572981E+03   -0.77872E+01   -0.74653E+01  8112   0.126E+03 0.750E+01
CGA:   8    -0.375301689506E+03   -0.19601E+01   -0.38657E+01  8112   0.140E+03-0.218E+02
CGA:   9    -0.379191263425E+03   -0.38896E+01   -0.29873E+01  8112   0.335E+02 0.284E+02
CGA:  10    -0.380241783882E+03   -0.10505E+01   -0.87494E+00  8112   0.415E+02 0.519E+01
CGA:  11    -0.381556843179E+03   -0.13151E+01   -0.12932E+01  8112   0.386E+02-0.209E+00
CGA:  12    -0.382201764412E+03   -0.64492E+00   -0.61708E+00  8112   0.383E+02 0.250E+01
CGA:  13    -0.383177293824E+03   -0.97553E+00   -0.10810E+01  8112   0.430E+02-0.380E+01
CGA:  14    -0.383557144560E+03   -0.37985E+00   -0.35475E+00  8112   0.201E+02 0.182E+01
CGA:  15    -0.383822504507E+03   -0.26536E+00   -0.21897E+00  8112   0.178E+02 0.351E+01
CGA:  16    -0.384018359246E+03   -0.19585E+00   -0.27261E+00  8112   0.145E+02-0.600E+01
CGA:  17    -0.384086567472E+03   -0.68208E-01   -0.11556E+00  8112   0.167E+02-0.299E+01
CGA:  18    -0.384356347574E+03   -0.26978E+00   -0.27764E+00  8112   0.253E+02-0.281E-01
CGA:  19    -0.384730310168E+03   -0.37396E+00   -0.43446E+00  8112   0.953E+01-0.181E+01
CGA:  20    -0.384834737041E+03   -0.10443E+00   -0.10799E+00  8112   0.464E+01-0.258E+00
CGA:  21    -0.384996069609E+03   -0.16133E+00   -0.16117E+00  8112   0.854E+01-0.190E-01
CGA:  22    -0.385113811531E+03   -0.11774E+00   -0.10987E+00  8112   0.369E+01 0.629E+00
CGA:  23    -0.385177646943E+03   -0.63835E-01   -0.69956E-01  8112   0.384E+01-0.145E+00
CGA:  24    -0.385356750660E+03   -0.17910E+00   -0.17631E+00  8112   0.592E+01 0.165E+00
CGA:  25    -0.385454205082E+03   -0.97454E-01   -0.10281E+00  8112   0.181E+01-0.165E+00
CGA:  26    -0.385515129694E+03   -0.60925E-01   -0.60998E-01  8112   0.210E+01 0.243E-01
CGA:  27    -0.385574494673E+03   -0.59365E-01   -0.59093E-01  8112   0.119E+01-0.875E-02
CGA:  28    -0.385619980287E+03   -0.45486E-01   -0.45474E-01  8112   0.164E+01 0.185E-02
CGA:  29    -0.385668885991E+03   -0.48906E-01   -0.48822E-01  8112   0.104E+01-0.474E-02
CGA:  30    -0.385711251498E+03   -0.42366E-01   -0.42044E-01  8112   0.143E+01 0.384E-01
CGA:  31    -0.385760367279E+03   -0.49116E-01   -0.49207E-01  8112   0.605E+00 0.159E-01
SDA:  32    -0.385780513923E+03   -0.20147E-01   -0.20141E-01  8112   0.526E+00-0.829E-03
CGA:  33    -0.385797083910E+03   -0.16570E-01   -0.16584E-01  8112   0.318E+00 0.133E-02
CGA:  34    -0.385825754888E+03   -0.28671E-01   -0.28570E-01  8112   0.343E+00 0.187E-02
CGA:  35    -0.385858626436E+03   -0.32872E-01   -0.32166E-01  8112   0.174E+00 0.133E-01
CGA:  36    -0.385872004185E+03   -0.13378E-01   -0.13301E-01  8112   0.142E+00 0.222E-02
CGA:  37    -0.385880886470E+03   -0.88823E-02   -0.89362E-02  8112   0.230E+00-0.218E-02
CGA:  38    -0.385895789627E+03   -0.14903E-01   -0.15086E-01  8112   0.147E+00-0.700E-02
CGA:  39    -0.385904817175E+03   -0.90275E-02   -0.89328E-02  8112   0.127E+00 0.410E-02
CGA:  40    -0.385911291517E+03   -0.64743E-02   -0.64943E-02  8112   0.102E+00-0.279E-02
CGA:  41    -0.385918277363E+03   -0.69858E-02   -0.69624E-02  8112   0.133E+00 0.811E-03
CGA:  42    -0.385927264884E+03   -0.89875E-02   -0.88356E-02  8112   0.361E-01 0.605E-02
CGA:  43    -0.385929102553E+03   -0.18377E-02   -0.18389E-02  8112   0.457E-01-0.702E-03
CGA:  44    -0.385933056323E+03   -0.39538E-02   -0.39998E-02  8112   0.463E-01-0.127E-02
CGA:  45    -0.385935261241E+03   -0.22049E-02   -0.22072E-02  8112   0.351E-01 0.140E-02
CGA:  46    -0.385936875880E+03   -0.16146E-02   -0.16096E-02  8112   0.162E-01-0.410E-03
CGA:  47    -0.385938687480E+03   -0.18116E-02   -0.18426E-02  8112   0.256E-01-0.527E-03
CGA:  48    -0.385940131284E+03   -0.14438E-02   -0.14338E-02  8112   0.241E-01 0.118E-02
CGA:  49    -0.385941766314E+03   -0.16350E-02   -0.16611E-02  8112   0.117E-01-0.145E-02
CGA:  50    -0.385942724406E+03   -0.95809E-03   -0.95437E-03  8112   0.980E-02 0.676E-04
CGA:  51    -0.385943677180E+03   -0.95277E-03   -0.10245E-02  8112   0.151E-01-0.153E-02
CGA:  52    -0.385944393428E+03   -0.71625E-03   -0.71775E-03  8112   0.118E-01 0.472E-03
CGA:  53    -0.385945219166E+03   -0.82574E-03   -0.82026E-03  8112   0.814E-02 0.382E-03
CGA:  54    -0.385945671614E+03   -0.45245E-03   -0.45031E-03  8112   0.681E-02-0.169E-03
CGA:  55    -0.385946020819E+03   -0.34921E-03   -0.35045E-03  8112   0.507E-02 0.109E-03
CGA:  56    -0.385946528409E+03   -0.50759E-03   -0.50517E-03  8112   0.854E-02 0.271E-04
CGA:  57    -0.385946898453E+03   -0.37004E-03   -0.34568E-03  8112   0.739E-02 0.295E-04
CGA:  58    -0.385947170029E+03   -0.27158E-03   -0.27202E-03  8112   0.521E-02 0.182E-04
CGA:  59    -0.385947329039E+03   -0.15901E-03   -0.16582E-03  8112   0.383E-02-0.906E-04
CGA:  60    -0.385947578695E+03   -0.24966E-03   -0.24998E-03  8112   0.544E-02-0.354E-04
CGA:  61    -0.385947773235E+03   -0.19454E-03   -0.17955E-03  8112   0.524E-02 0.119E-03
CGA:  62    -0.385947979125E+03   -0.20589E-03   -0.19863E-03  8112   0.613E-02-0.155E-04
SDA:  63    -0.385948124838E+03   -0.14571E-03   -0.15205E-03  8112   0.326E-02-0.174E-03
CGA:  64    -0.385948359244E+03   -0.23441E-03   -0.23457E-03  8112   0.451E-02-0.864E-05
CGA:  65    -0.385948652511E+03   -0.29327E-03   -0.29355E-03  8112   0.540E-02-0.189E-04
CGA:  66    -0.385949474500E+03   -0.82199E-03   -0.81831E-03  8112   0.582E-02 0.400E-04
CGA:  67    -0.385949823955E+03   -0.34946E-03   -0.34947E-03  8112   0.329E-02-0.141E-03
CGA:  68    -0.385950042658E+03   -0.21870E-03   -0.21885E-03  8112   0.142E-02-0.110E-04
CGA:  69    -0.385950222256E+03   -0.17960E-03   -0.17854E-03  8112   0.214E-02 0.153E-04
CGA:  70    -0.385950335373E+03   -0.11312E-03   -0.11212E-03  8112   0.148E-02-0.298E-04
CGA:  71    -0.385950402813E+03   -0.67441E-04   -0.67862E-04  8112   0.592E-03-0.280E-05
CGA:  72    -0.385950460079E+03   -0.57265E-04   -0.59059E-04  8112   0.893E-03-0.449E-04
CGA:  73    -0.385950518392E+03   -0.58313E-04   -0.58517E-04  8112   0.808E-03-0.209E-04
CGA:  74    -0.385950577128E+03   -0.58736E-04   -0.58758E-04  8112   0.627E-03-0.486E-05
CGA:  75    -0.385950597180E+03   -0.20052E-04   -0.18602E-04  8112   0.252E-03 0.308E-04
CGA:  76    -0.385950613423E+03   -0.16243E-04   -0.16239E-04  8112   0.302E-03-0.369E-07
CGA:  77    -0.385950625857E+03   -0.12434E-04   -0.12532E-04  8112   0.249E-03 0.277E-05
CGA:  78    -0.385950640476E+03   -0.14619E-04   -0.14586E-04  8112   0.362E-03-0.179E-05
CGA:  79    -0.385950654433E+03   -0.13956E-04   -0.13487E-04  8112   0.260E-03 0.958E-05
CGA:  80    -0.385950661300E+03   -0.68678E-05   -0.69933E-05  8112   0.134E-03 0.673E-06
  10 F= -.38595066E+03 E0= -.38593641E+03  d E =0.320902E+00  mag=    12.0000
       N       E                     dE             d eps       ncg     rms          ort
SDA:   1    -0.359448387081E+03    0.26502E+02    0.00000E+00  8112   0.346E+03 0.000E+00
CGA:   2    -0.374177348138E+03   -0.14729E+02   -0.10202E+02  8112   0.123E+03-0.369E+02
CGA:   3    -0.378471781141E+03   -0.42944E+01   -0.41737E+01  8112   0.339E+02 0.543E+01
CGA:   4    -0.380988286412E+03   -0.25165E+01   -0.25506E+01  8112   0.619E+02-0.228E+01
CGA:   5    -0.383859880255E+03   -0.28716E+01   -0.28015E+01  8112   0.290E+02-0.243E+01
CGA:   6    -0.384966165220E+03   -0.11063E+01   -0.11631E+01  8112   0.105E+02 0.420E+00
CGA:   7    -0.385554055748E+03   -0.58789E+00   -0.58788E+00  8112   0.168E+02 0.608E-01
CGA:   8    -0.385994157977E+03   -0.44010E+00   -0.46100E+00  8112   0.567E+01-0.340E+00
CGA:   9    -0.386214130050E+03   -0.21997E+00   -0.21918E+00  8112   0.302E+01-0.144E-01
CGA:  10    -0.386342986423E+03   -0.12886E+00   -0.13230E+00  8112   0.945E+00 0.112E+00
CGA:  11    -0.386402660141E+03   -0.59674E-01   -0.59395E-01  8112   0.776E+00 0.226E-01
CGA:  12    -0.386439277606E+03   -0.36617E-01   -0.36795E-01  8112   0.110E+01 0.971E-02
CGA:  13    -0.386489852189E+03   -0.50575E-01   -0.51030E-01  8112   0.209E+00 0.245E-01
CGA:  14    -0.386504818114E+03   -0.14966E-01   -0.14844E-01  8112   0.146E+00 0.520E-02
CGA:  15    -0.386516090995E+03   -0.11273E-01   -0.11172E-01  8112   0.209E+00 0.364E-02
CGA:  16    -0.386523980987E+03   -0.78900E-02   -0.79932E-02  8112   0.938E-01 0.628E-03
CGA:  17    -0.386530933602E+03   -0.69526E-02   -0.69456E-02  8112   0.462E-01 0.257E-03
CGA:  18    -0.386533519168E+03   -0.25856E-02   -0.25861E-02  8112   0.383E-01-0.208E-03
CGA:  19    -0.386536000113E+03   -0.24809E-02   -0.24701E-02  8112   0.258E-01 0.698E-03
CGA:  20    -0.386538933999E+03   -0.29339E-02   -0.29173E-02  8112   0.191E-01 0.287E-03
CGA:  21    -0.386540273345E+03   -0.13393E-02   -0.13376E-02  8112   0.130E-01 0.989E-04
CGA:  22    -0.386540774060E+03   -0.50072E-03   -0.49916E-03  8112   0.896E-02 0.640E-05
CGA:  23    -0.386541907470E+03   -0.11334E-02   -0.11242E-02  8112   0.107E-01 0.140E-03
CGA:  24    -0.386542438603E+03   -0.53113E-03   -0.53051E-03  8112   0.542E-02-0.133E-04
CGA:  25    -0.386542777843E+03   -0.33924E-03   -0.33916E-03  8112   0.354E-02 0.190E-04
CGA:  26    -0.386543189928E+03   -0.41208E-03   -0.41091E-03  8112   0.305E-02 0.205E-04
CGA:  27    -0.386543510200E+03   -0.32027E-03   -0.31888E-03  8112   0.388E-02 0.297E-04
CGA:  28    -0.386543657973E+03   -0.14777E-03   -0.14598E-03  8112   0.228E-02 0.163E-04
CGA:  29    -0.386543857162E+03   -0.19919E-03   -0.19883E-03  8112   0.225E-02 0.113E-04
CGA:  30    -0.386543998077E+03   -0.14092E-03   -0.14091E-03  8112   0.211E-02-0.135E-05
CGA:  31    -0.386544160634E+03   -0.16256E-03   -0.16275E-03  8112   0.151E-02-0.880E-05
SDA:  32    -0.386544254072E+03   -0.93438E-04   -0.93461E-04  8112   0.116E-02 0.453E-05
CGA:  33    -0.386544284869E+03   -0.30796E-04   -0.30744E-04  8112   0.497E-03 0.110E-05
CGA:  34    -0.386544351851E+03   -0.66983E-04   -0.67035E-04  8112   0.816E-03-0.784E-06
CGA:  35    -0.386544400929E+03   -0.49078E-04   -0.49078E-04  8112   0.583E-03 0.142E-05
CGA:  36    -0.386544436973E+03   -0.36043E-04   -0.36048E-04  8112   0.261E-03 0.104E-05
CGA:  37    -0.386544464197E+03   -0.27225E-04   -0.27175E-04  8112   0.280E-03 0.119E-05
CGA:  38    -0.386544486127E+03   -0.21929E-04   -0.21944E-04  8112   0.340E-03-0.905E-06
CGA:  39    -0.386544501537E+03   -0.15410E-04   -0.15412E-04  8112   0.268E-03-0.205E-07
CGA:  40    -0.386544522937E+03   -0.21399E-04   -0.21400E-04  8112   0.973E-04-0.157E-06
CGA:  41    -0.386544537098E+03   -0.14161E-04   -0.14156E-04  8112   0.116E-03-0.122E-07
CGA:  42    -0.386544545027E+03   -0.79290E-05   -0.79296E-05  8112   0.994E-04 0.169E-06
  11 F= -.38654455E+03 E0= -.38652960E+03  d E =-.593884E+00  mag=    12.0000
       N       E                     dE             d eps       ncg     rms          ort
SDA:   1    -0.378332256679E+03    0.82123E+01    0.00000E+00  8112   0.515E+02 0.000E+00
CGA:   2    -0.380628571707E+03   -0.22963E+01   -0.17025E+01  8112   0.312E+02 0.163E+02
CGA:   3    -0.382286731320E+03   -0.16582E+01   -0.15122E+01  8112   0.398E+02-0.545E+01
CGA:   4    -0.382877129233E+03   -0.59040E+00   -0.53050E+00  8112   0.354E+02 0.515E+01
CGA:   5    -0.383522396599E+03   -0.64527E+00   -0.54609E+00  8112   0.321E+02 0.500E+01
CGA:   6    -0.384109810499E+03   -0.58741E+00   -0.79930E+00  8112   0.689E+02-0.922E+01
CGA:   7    -0.384613847123E+03   -0.50404E+00   -0.44042E+00  8112   0.581E+02 0.111E+02
CGA:   8    -0.385152041887E+03   -0.53819E+00   -0.52525E+00  8112   0.216E+02-0.330E+01
CGA:   9    -0.385308350441E+03   -0.15631E+00   -0.14314E+00  8112   0.193E+02 0.152E+01
CGA:  10    -0.385507112703E+03   -0.19876E+00   -0.28295E+00  8112   0.291E+02-0.512E+01
CGA:  11    -0.385644302948E+03   -0.13719E+00   -0.12406E+00  8112   0.211E+02 0.249E+01
CGA:  12    -0.385764540986E+03   -0.12024E+00   -0.13937E+00  8112   0.111E+02-0.363E+01
CGA:  13    -0.385827223306E+03   -0.62682E-01   -0.68684E-01  8112   0.146E+02-0.701E+00
CGA:  14    -0.385966996738E+03   -0.13977E+00   -0.13853E+00  8112   0.214E+02 0.237E-01
CGA:  15    -0.386108023068E+03   -0.14103E+00   -0.16061E+00  8112   0.149E+02-0.282E+01
CGA:  16    -0.386167857427E+03   -0.59834E-01   -0.78975E-01  8112   0.882E+01-0.277E+01
CGA:  17    -0.386211444243E+03   -0.43587E-01   -0.46959E-01  8112   0.738E+01-0.405E+00
CGA:  18    -0.386266253867E+03   -0.54810E-01   -0.47806E-01  8112   0.685E+01 0.945E+00
CGA:  19    -0.386325844840E+03   -0.59591E-01   -0.59793E-01  8112   0.546E+01-0.788E-01
CGA:  20    -0.386360945387E+03   -0.35101E-01   -0.38569E-01  8112   0.379E+01-0.426E+00
CGA:  21    -0.386384007924E+03   -0.23063E-01   -0.23581E-01  8112   0.307E+01-0.672E-01
CGA:  22    -0.386408571917E+03   -0.24564E-01   -0.26382E-01  8112   0.320E+01-0.170E+00
CGA:  23    -0.386432170141E+03   -0.23598E-01   -0.24511E-01  8112   0.255E+01-0.102E+00
CGA:  24    -0.386449098670E+03   -0.16929E-01   -0.18603E-01  8112   0.184E+01-0.190E+00
CGA:  25    -0.386464702418E+03   -0.15604E-01   -0.17955E-01  8112   0.220E+01-0.154E+00
CGA:  26    -0.386490370855E+03   -0.25668E-01   -0.26378E-01  8112   0.260E+01-0.269E-01
CGA:  27    -0.386517691333E+03   -0.27320E-01   -0.28052E-01  8112   0.216E+01-0.491E-01
CGA:  28    -0.386541611792E+03   -0.23920E-01   -0.25850E-01  8112   0.185E+01-0.859E-01
CGA:  29    -0.386563691409E+03   -0.22080E-01   -0.23320E-01  8112   0.141E+01-0.414E-01
CGA:  30    -0.386581106188E+03   -0.17415E-01   -0.18367E-01  8112   0.765E+00-0.287E-01
CGA:  31    -0.386591214642E+03   -0.10108E-01   -0.10240E-01  8112   0.514E+00-0.340E-02
SDA:  32    -0.386602139702E+03   -0.10925E-01   -0.10965E-01  8112   0.657E+00 0.686E-02
CGA:  33    -0.386617102097E+03   -0.14962E-01   -0.14963E-01  8112   0.153E+00 0.319E-03
CGA:  34    -0.386630057502E+03   -0.12955E-01   -0.12781E-01  8112   0.263E+00 0.337E-02
CGA:  35    -0.386647847062E+03   -0.17790E-01   -0.17497E-01  8112   0.195E+00 0.823E-02
CGA:  36    -0.386655503225E+03   -0.76562E-02   -0.76350E-02  8112   0.286E-01 0.168E-02
CGA:  37    -0.386659149449E+03   -0.36462E-02   -0.36209E-02  8112   0.342E-01 0.326E-03
CGA:  38    -0.386662507911E+03   -0.33585E-02   -0.33737E-02  8112   0.346E-01-0.279E-03
CGA:  39    -0.386663814660E+03   -0.13067E-02   -0.13063E-02  8112   0.114E-01 0.243E-03
CGA:  40    -0.386665485188E+03   -0.16705E-02   -0.16809E-02  8112   0.127E-01-0.129E-03
CGA:  41    -0.386666251699E+03   -0.76651E-03   -0.76430E-03  8112   0.124E-01 0.102E-03
CGA:  42    -0.386666683852E+03   -0.43215E-03   -0.43232E-03  8112   0.298E-02 0.179E-04
CGA:  43    -0.386666924187E+03   -0.24033E-03   -0.23985E-03  8112   0.207E-02 0.126E-04
CGA:  44    -0.386667138966E+03   -0.21478E-03   -0.21820E-03  8112   0.352E-02-0.623E-04
CGA:  45    -0.386667323542E+03   -0.18458E-03   -0.18442E-03  8112   0.284E-02 0.167E-04
CGA:  46    -0.386667445187E+03   -0.12164E-03   -0.12167E-03  8112   0.727E-03 0.237E-05
CGA:  47    -0.386667510669E+03   -0.65483E-04   -0.65429E-04  8112   0.107E-02 0.928E-06
CGA:  48    -0.386667576134E+03   -0.65464E-04   -0.65577E-04  8112   0.978E-03-0.876E-05
CGA:  49    -0.386667679993E+03   -0.10386E-03   -0.10369E-03  8112   0.132E-02 0.300E-05
CGA:  50    -0.386667724232E+03   -0.44238E-04   -0.44200E-04  8112   0.427E-03 0.975E-06
CGA:  51    -0.386667750464E+03   -0.26233E-04   -0.26208E-04  8112   0.343E-03 0.248E-05
CGA:  52    -0.386667810560E+03   -0.60096E-04   -0.58758E-04  8112   0.398E-03 0.109E-04
CGA:  53    -0.386667823774E+03   -0.13214E-04   -0.13265E-04  8112   0.196E-03 0.174E-05
CGA:  54    -0.386667846709E+03   -0.22935E-04   -0.23071E-04  8112   0.378E-03-0.238E-05
CGA:  55    -0.386667866503E+03   -0.19794E-04   -0.19765E-04  8112   0.277E-03-0.412E-05
CGA:  56    -0.386667886727E+03   -0.20225E-04   -0.20281E-04  8112   0.156E-03-0.407E-05
CGA:  57    -0.386667895255E+03   -0.85274E-05   -0.85248E-05  8112   0.144E-03-0.409E-06
  12 F= -.38666790E+03 E0= -.38665257E+03  d E =-.123350E+00  mag=    12.0000
       N       E                     dE             d eps       ncg     rms          ort
SDA:   1    -0.380424886456E+03    0.62430E+01    0.00000E+00  8112   0.374E+02 0.000E+00
CGA:   2    -0.381911385164E+03   -0.14865E+01   -0.96454E+00  8112   0.200E+02 0.164E+02
CGA:   3    -0.382762058767E+03   -0.85067E+00   -0.78596E+00  8112   0.312E+02-0.331E+01
CGA:   4    -0.383123682847E+03   -0.36162E+00   -0.59203E+00  8112   0.462E+02-0.446E+01
CGA:   5    -0.383665378150E+03   -0.54170E+00   -0.47260E+00  8112   0.399E+02 0.515E+01
CGA:   6    -0.384332058086E+03   -0.66668E+00   -0.62362E+00  8112   0.412E+02 0.299E+00
CGA:   7    -0.384784630263E+03   -0.45257E+00   -0.75621E+00  8112   0.485E+02-0.118E+02
CGA:   8    -0.385003044253E+03   -0.21841E+00   -0.13792E+00  8112   0.351E+02 0.194E+02
CGA:   9    -0.385326933482E+03   -0.32389E+00   -0.23792E+00  8112   0.150E+02 0.157E+02
CGA:  10    -0.385458159658E+03   -0.13123E+00   -0.97481E-01  8112   0.963E+01 0.716E+01
CGA:  11    -0.385565498093E+03   -0.10734E+00   -0.93326E-01  8112   0.106E+02 0.197E+01
CGA:  12    -0.385656146195E+03   -0.90648E-01   -0.81130E-01  8112   0.145E+02 0.143E+01
CGA:  13    -0.385747470160E+03   -0.91324E-01   -0.86484E-01  8112   0.160E+02 0.770E+00
CGA:  14    -0.385815003988E+03   -0.67534E-01   -0.72624E-01  8112   0.151E+02-0.980E+00
CGA:  15    -0.385862968358E+03   -0.47964E-01   -0.61462E-01  8112   0.153E+02-0.262E+01
CGA:  16    -0.385902837405E+03   -0.39869E-01   -0.70100E-01  8112   0.186E+02-0.449E+01
CGA:  17    -0.385956364417E+03   -0.53527E-01   -0.77495E-01  8112   0.200E+02-0.297E+01
CGA:  18    -0.386042569897E+03   -0.86205E-01   -0.97348E-01  8112   0.139E+02-0.161E+01
CGA:  19    -0.386106705478E+03   -0.64136E-01   -0.77655E-01  8112   0.776E+01-0.196E+01
CGA:  20    -0.386147451269E+03   -0.40746E-01   -0.39544E-01  8112   0.522E+01 0.220E+00
CGA:  21    -0.386181438343E+03   -0.33987E-01   -0.23826E-01  8112   0.384E+01 0.213E+01
CGA:  22    -0.386210760239E+03   -0.29322E-01   -0.19617E-01  8112   0.267E+01 0.249E+01
CGA:  23    -0.386294679123E+03   -0.83919E-01   -0.85453E-01  8112   0.165E+01-0.173E+00
CGA:  24    -0.386394748900E+03   -0.10007E+00   -0.98962E-01  8112   0.176E+01 0.316E-01
CGA:  25    -0.386464216353E+03   -0.69467E-01   -0.68059E-01  8112   0.124E+01 0.106E+00
CGA:  26    -0.386527829236E+03   -0.63613E-01   -0.63886E-01  8112   0.243E+00-0.117E-01
CGA:  27    -0.386538856433E+03   -0.11027E-01   -0.10974E-01  8112   0.276E+00 0.291E-02
CGA:  28    -0.386553210475E+03   -0.14354E-01   -0.14311E-01  8112   0.186E+00 0.185E-02
CGA:  29    -0.386565970641E+03   -0.12760E-01   -0.12898E-01  8112   0.246E+00-0.377E-02
CGA:  30    -0.386576466071E+03   -0.10495E-01   -0.10426E-01  8112   0.632E-01 0.498E-02
CGA:  31    -0.386579071921E+03   -0.26059E-02   -0.25985E-02  8112   0.423E-01 0.737E-03
CGA:  32    -0.386581204540E+03   -0.21326E-02   -0.21356E-02  8112   0.357E-01-0.157E-03
CGA:  33    -0.386583795140E+03   -0.25906E-02   -0.25837E-02  8112   0.194E-01 0.182E-03
CGA:  34    -0.386585256844E+03   -0.14617E-02   -0.14546E-02  8112   0.139E-01 0.187E-03
CGA:  35    -0.386585702937E+03   -0.44609E-03   -0.44547E-03  8112   0.733E-02-0.218E-04
CGA:  36    -0.386586165604E+03   -0.46267E-03   -0.46261E-03  8112   0.454E-02 0.353E-05
CGA:  37    -0.386586821312E+03   -0.65571E-03   -0.64984E-03  8112   0.116E-01 0.618E-04
CGA:  38    -0.386587186240E+03   -0.36493E-03   -0.36324E-03  8112   0.398E-02 0.790E-05
CGA:  39    -0.386587392124E+03   -0.20588E-03   -0.20573E-03  8112   0.123E-02 0.166E-04
CGA:  40    -0.386587508905E+03   -0.11678E-03   -0.11659E-03  8112   0.300E-02 0.361E-05
CGA:  41    -0.386587631765E+03   -0.12286E-03   -0.12281E-03  8112   0.153E-02-0.356E-05
CGA:  42    -0.386587767528E+03   -0.13576E-03   -0.13618E-03  8112   0.797E-03-0.979E-05
CGA:  43    -0.386587799857E+03   -0.32329E-04   -0.32336E-04  8112   0.725E-03 0.578E-06
CGA:  44    -0.386587839649E+03   -0.39792E-04   -0.39786E-04  8112   0.609E-03 0.975E-06
CGA:  45    -0.386587898439E+03   -0.58790E-04   -0.58894E-04  8112   0.631E-03-0.242E-05
CGA:  46    -0.386587927201E+03   -0.28762E-04   -0.28777E-04  8112   0.550E-03 0.218E-05
CGA:  47    -0.386587950025E+03   -0.22825E-04   -0.22838E-04  8112   0.310E-03 0.142E-05
CGA:  48    -0.386587984559E+03   -0.34534E-04   -0.34550E-04  8112   0.291E-03-0.524E-06
CGA:  49    -0.386587995294E+03   -0.10734E-04   -0.10730E-04  8112   0.243E-03-0.684E-06
CGA:  50    -0.386588013341E+03   -0.18047E-04   -0.18111E-04  8112   0.224E-03-0.305E-05
CGA:  51    -0.386588023730E+03   -0.10389E-04   -0.10370E-04  8112   0.151E-03-0.287E-05
CGA:  52    -0.386588033925E+03   -0.10195E-04   -0.10232E-04  8112   0.140E-03-0.260E-05
SDA:  53    -0.386588041801E+03   -0.78768E-05   -0.78810E-05  8112   0.191E-03-0.157E-05
  13 F= -.38658804E+03 E0= -.38657232E+03  d E =0.798535E-01  mag=    12.0000
       N       E                     dE             d eps       ncg     rms          ort
SDA:   1    -0.300458268953E+03    0.86130E+02    0.00000E+00  8112   0.563E+03 0.000E+00
CGA:   2    -0.320957035904E+03   -0.20499E+02   -0.20655E+02  8112   0.600E+03-0.104E+03
CGA:   3    -0.333366453738E+03   -0.12409E+02   -0.47872E+02  8112   0.172E+04-0.640E+03
CGA:   4    -0.353944392150E+03   -0.20578E+02   -0.45733E+02  8112   0.300E+03-0.112E+03
CGA:   5    -0.363232982358E+03   -0.92886E+01   -0.47439E+01  8112   0.135E+03 0.233E+03
CGA:   6    -0.365707987888E+03   -0.24750E+01   -0.14393E+01  8112   0.802E+02 0.943E+02
CGA:   7    -0.367717241955E+03   -0.20093E+01   -0.97205E+00  8112   0.806E+02 0.927E+02
CGA:   8    -0.369670223578E+03   -0.19530E+01   -0.89127E+00  8112   0.629E+02 0.844E+02
CGA:   9    -0.371928711876E+03   -0.22585E+01   -0.19936E+01  8112   0.148E+03-0.276E+01
CGA:  10    -0.377753540226E+03   -0.58248E+01   -0.58636E+01  8112   0.102E+03 0.581E+01
CGA:  11    -0.379943239726E+03   -0.21897E+01   -0.22185E+01  8112   0.584E+02 0.437E+01
CGA:  12    -0.380852209312E+03   -0.90897E+00   -0.72051E+00  8112   0.287E+02 0.836E+01
CGA:  13    -0.381433559618E+03   -0.58135E+00   -0.52552E+00  8112   0.516E+02 0.202E+01
CGA:  14    -0.382393065029E+03   -0.95951E+00   -0.10643E+01  8112   0.937E+02-0.390E+01
CGA:  15    -0.383112103975E+03   -0.71904E+00   -0.94405E+00  8112   0.294E+02-0.174E+02
CGA:  16    -0.383614877699E+03   -0.50277E+00   -0.60011E+00  8112   0.426E+02 0.788E-01
CGA:  17    -0.384353319722E+03   -0.73844E+00   -0.79089E+00  8112   0.221E+02-0.100E+01
CGA:  18    -0.384754714370E+03   -0.40139E+00   -0.42711E+00  8112   0.812E+01-0.145E+01
CGA:  19    -0.384970067617E+03   -0.21535E+00   -0.20637E+00  8112   0.630E+01-0.168E+00
CGA:  20    -0.385137982405E+03   -0.16791E+00   -0.16744E+00  8112   0.861E+01-0.432E-02
CGA:  21    -0.385291478264E+03   -0.15350E+00   -0.15726E+00  8112   0.273E+01-0.127E+00
CGA:  22    -0.385368257022E+03   -0.76779E-01   -0.78926E-01  8112   0.355E+01 0.165E+00
CGA:  23    -0.385514269015E+03   -0.14601E+00   -0.14613E+00  8112   0.273E+01-0.181E-01
CGA:  24    -0.385616953224E+03   -0.10268E+00   -0.10269E+00  8112   0.145E+01-0.501E-02
CGA:  25    -0.385659842777E+03   -0.42890E-01   -0.42756E-01  8112   0.131E+01-0.117E-01
CGA:  26    -0.385725962644E+03   -0.66120E-01   -0.64976E-01  8112   0.112E+01 0.555E-01
CGA:  27    -0.385767385401E+03   -0.41423E-01   -0.41370E-01  8112   0.786E+00 0.368E-01
CGA:  28    -0.385799672479E+03   -0.32287E-01   -0.32158E-01  8112   0.518E+00 0.168E-01
CGA:  29    -0.385832962288E+03   -0.33290E-01   -0.32905E-01  8112   0.435E+00 0.127E-01
CGA:  30    -0.385859089100E+03   -0.26127E-01   -0.26543E-01  8112   0.603E+00-0.169E-01
CGA:  31    -0.385884604822E+03   -0.25516E-01   -0.25296E-01  8112   0.302E+00 0.219E-01
CGA:  32    -0.385895123859E+03   -0.10519E-01   -0.10580E-01  8112   0.147E+00 0.596E-02
CGA:  33    -0.385904122282E+03   -0.89984E-02   -0.89599E-02  8112   0.169E+00 0.148E-02
CGA:  34    -0.385915571847E+03   -0.11450E-01   -0.11614E-01  8112   0.181E+00-0.523E-02
CGA:  35    -0.385923285470E+03   -0.77136E-02   -0.77017E-02  8112   0.107E+00 0.177E-02
CGA:  36    -0.385928723965E+03   -0.54385E-02   -0.54282E-02  8112   0.793E-01 0.688E-03
CGA:  37    -0.385932646250E+03   -0.39223E-02   -0.39430E-02  8112   0.663E-01-0.163E-02
CGA:  38    -0.385935818035E+03   -0.31718E-02   -0.31727E-02  8112   0.473E-01-0.108E-03
SDA:  39    -0.385938145675E+03   -0.23276E-02   -0.23186E-02  8112   0.435E-01 0.787E-03
CGA:  40    -0.385940098808E+03   -0.19531E-02   -0.19546E-02  8112   0.239E-01-0.272E-03
CGA:  41    -0.385941468049E+03   -0.13692E-02   -0.13721E-02  8112   0.222E-01-0.143E-03
CGA:  42    -0.385943877328E+03   -0.24093E-02   -0.25017E-02  8112   0.224E-01-0.155E-02
CGA:  43    -0.385947436808E+03   -0.35595E-02   -0.34711E-02  8112   0.165E-01 0.572E-03
CGA:  44    -0.385948674261E+03   -0.12375E-02   -0.12308E-02  8112   0.937E-02 0.257E-03
CGA:  45    -0.385949961850E+03   -0.12876E-02   -0.13547E-02  8112   0.271E-01-0.889E-03
CGA:  46    -0.385950995678E+03   -0.10338E-02   -0.99727E-03  8112   0.139E-01-0.320E-04
CGA:  47    -0.385951682435E+03   -0.68676E-03   -0.68071E-03  8112   0.137E-01-0.245E-03
CGA:  48    -0.385952059622E+03   -0.37719E-03   -0.37993E-03  8112   0.378E-02-0.507E-04
CGA:  49    -0.385952204876E+03   -0.14525E-03   -0.14550E-03  8112   0.446E-02 0.890E-06
CGA:  50    -0.385952477513E+03   -0.27264E-03   -0.27254E-03  8112   0.519E-02 0.105E-04
CGA:  51    -0.385952650215E+03   -0.17270E-03   -0.17213E-03  8112   0.327E-02 0.129E-04
CGA:  52    -0.385952818322E+03   -0.16811E-03   -0.16809E-03  8112   0.467E-02-0.782E-06
CGA:  53    -0.385953011031E+03   -0.19271E-03   -0.19291E-03  8112   0.242E-02 0.572E-05
CGA:  54    -0.385953084042E+03   -0.73011E-04   -0.72799E-04  8112   0.184E-02 0.282E-05
CGA:  55    -0.385953216254E+03   -0.13221E-03   -0.13272E-03  8112   0.340E-02-0.202E-04
CGA:  56    -0.385953336870E+03   -0.12062E-03   -0.12008E-03  8112   0.279E-02 0.578E-06
CGA:  57    -0.385953455222E+03   -0.11835E-03   -0.11824E-03  8112   0.232E-02-0.360E-05
CGA:  58    -0.385953526535E+03   -0.71314E-04   -0.71203E-04  8112   0.159E-02-0.200E-05
CGA:  59    -0.385953608306E+03   -0.81771E-04   -0.81765E-04  8112   0.226E-02-0.187E-06
CGA:  60    -0.385953695502E+03   -0.87197E-04   -0.86970E-04  8112   0.163E-02-0.945E-05
CGA:  61    -0.385953750621E+03   -0.55118E-04   -0.54776E-04  8112   0.111E-02-0.342E-05
CGA:  62    -0.385953791211E+03   -0.40590E-04   -0.40451E-04  8112   0.855E-03-0.325E-05
CGA:  63    -0.385953819984E+03   -0.28773E-04   -0.28797E-04  8112   0.667E-03-0.997E-06
CGA:  64    -0.385953859781E+03   -0.39797E-04   -0.39721E-04  8112   0.136E-02 0.459E-05
CGA:  65    -0.385953915757E+03   -0.55976E-04   -0.55766E-04  8112   0.734E-03-0.388E-05
CGA:  66    -0.385953937925E+03   -0.22169E-04   -0.22069E-04  8112   0.572E-03 0.561E-05
CGA:  67    -0.385953963017E+03   -0.25092E-04   -0.25088E-04  8112   0.542E-03 0.326E-05
CGA:  68    -0.385953981501E+03   -0.18484E-04   -0.18482E-04  8112   0.501E-03 0.441E-05
CGA:  69    -0.385954002222E+03   -0.20720E-04   -0.20639E-04  8112   0.486E-03-0.199E-05
SDA:  70    -0.385954016248E+03   -0.14027E-04   -0.13708E-04  8112   0.407E-03 0.682E-05
CGA:  71    -0.385954042849E+03   -0.26601E-04   -0.26653E-04  8112   0.450E-03-0.253E-05
CGA:  72    -0.385954070019E+03   -0.27170E-04   -0.27213E-04  8112   0.487E-03-0.295E-05
CGA:  73    -0.385954107104E+03   -0.37085E-04   -0.37293E-04  8112   0.473E-03-0.665E-05
CGA:  74    -0.385954149428E+03   -0.42324E-04   -0.42309E-04  8112   0.512E-03 0.216E-06
CGA:  75    -0.385954175532E+03   -0.26104E-04   -0.26106E-04  8112   0.113E-03-0.188E-05
CGA:  76    -0.385954187811E+03   -0.12280E-04   -0.12257E-04  8112   0.107E-03 0.258E-06
CGA:  77    -0.385954199669E+03   -0.11858E-04   -0.11769E-04  8112   0.137E-03 0.142E-05
CGA:  78    -0.385954204627E+03   -0.49580E-05   -0.49601E-05  8112   0.526E-04 0.368E-06
  14 F= -.38595420E+03 E0= -.38593971E+03  d E =0.633837E+00  mag=    12.0000
       N       E                     dE             d eps       ncg     rms          ort
SDA:   1    -0.327346993855E+03    0.58607E+02    0.00000E+00  8112   0.523E+03 0.000E+00
CGA:   2    -0.341020989375E+03   -0.13674E+02   -0.17513E+02  8112   0.359E+03-0.783E+02
CGA:   3    -0.355095509546E+03   -0.14075E+02   -0.25257E+02  8112   0.600E+03-0.170E+03
CGA:   4    -0.365237968882E+03   -0.10142E+02   -0.58844E+01  8112   0.163E+03-0.170E+03
CGA:   5    -0.371773855507E+03   -0.65359E+01   -0.64923E+01  8112   0.115E+03 0.144E+02
CGA:   6    -0.375488377661E+03   -0.37145E+01   -0.23945E+01  8112   0.729E+02 0.594E+02
CGA:   7    -0.377854472565E+03   -0.23661E+01   -0.12585E+01  8112   0.429E+02 0.566E+02
CGA:   8    -0.379270360395E+03   -0.14159E+01   -0.10556E+01  8112   0.406E+02 0.850E+01
CGA:   9    -0.381962209325E+03   -0.26918E+01   -0.27018E+01  8112   0.386E+02-0.864E+00
CGA:  10    -0.383458140061E+03   -0.14959E+01   -0.15282E+01  8112   0.274E+02 0.112E+01
CGA:  11    -0.384096471725E+03   -0.63833E+00   -0.50988E+00  8112   0.105E+02 0.529E+01
CGA:  12    -0.384580935009E+03   -0.48446E+00   -0.48148E+00  8112   0.186E+02-0.469E-01
CGA:  13    -0.384979548442E+03   -0.39861E+00   -0.47971E+00  8112   0.162E+02-0.102E+01
CGA:  14    -0.385412612388E+03   -0.43306E+00   -0.44306E+00  8112   0.751E+01-0.116E+00
CGA:  15    -0.385675429890E+03   -0.26282E+00   -0.25914E+00  8112   0.760E+01-0.965E-01
CGA:  16    -0.385964854861E+03   -0.28942E+00   -0.28615E+00  8112   0.730E+01-0.153E+00
CGA:  17    -0.386105057778E+03   -0.14020E+00   -0.14324E+00  8112   0.340E+01-0.878E-01
CGA:  18    -0.386189263764E+03   -0.84206E-01   -0.88634E-01  8112   0.228E+01-0.155E-01
CGA:  19    -0.386249114482E+03   -0.59851E-01   -0.59934E-01  8112   0.114E+01 0.310E-03
CGA:  20    -0.386311780652E+03   -0.62666E-01   -0.62126E-01  8112   0.150E+01 0.304E-01
CGA:  21    -0.386377472605E+03   -0.65692E-01   -0.65676E-01  8112   0.121E+01 0.157E-01
CGA:  22    -0.386421874088E+03   -0.44401E-01   -0.44467E-01  8112   0.729E+00 0.429E-02
CGA:  23    -0.386458427751E+03   -0.36554E-01   -0.36521E-01  8112   0.764E+00 0.269E-02
CGA:  24    -0.386486198197E+03   -0.27770E-01   -0.27874E-01  8112   0.476E+00 0.624E-02
CGA:  25    -0.386509560725E+03   -0.23363E-01   -0.23358E-01  8112   0.382E+00 0.143E-04
CGA:  26    -0.386523565524E+03   -0.14005E-01   -0.13954E-01  8112   0.335E+00-0.329E-02
CGA:  27    -0.386543434798E+03   -0.19869E-01   -0.19735E-01  8112   0.285E+00 0.574E-02
CGA:  28    -0.386553709860E+03   -0.10275E-01   -0.10250E-01  8112   0.194E+00-0.838E-03
CGA:  29    -0.386561584028E+03   -0.78742E-02   -0.78696E-02  8112   0.142E+00-0.115E-02
CGA:  30    -0.386568254597E+03   -0.66706E-02   -0.66556E-02  8112   0.132E+00 0.195E-02
CGA:  31    -0.386572937262E+03   -0.46827E-02   -0.46873E-02  8112   0.729E-01 0.214E-03
CGA:  32    -0.386576964748E+03   -0.40275E-02   -0.40208E-02  8112   0.832E-01 0.390E-03
CGA:  33    -0.386580415379E+03   -0.34506E-02   -0.34545E-02  8112   0.633E-01 0.113E-02
CGA:  34    -0.386584423548E+03   -0.40082E-02   -0.40613E-02  8112   0.600E-01-0.231E-02
CGA:  35    -0.386586584565E+03   -0.21610E-02   -0.21426E-02  8112   0.479E-01-0.827E-03
CGA:  36    -0.386588775793E+03   -0.21912E-02   -0.21917E-02  8112   0.501E-01-0.999E-04
CGA:  37    -0.386590939313E+03   -0.21635E-02   -0.21643E-02  8112   0.473E-01 0.116E-02
SDA:  38    -0.386593283262E+03   -0.23439E-02   -0.23370E-02  8112   0.363E-01 0.854E-03
CGA:  39    -0.386595358612E+03   -0.20754E-02   -0.20739E-02  8112   0.211E-01 0.800E-04
CGA:  40    -0.386596283577E+03   -0.92496E-03   -0.92467E-03  8112   0.145E-01-0.180E-03
CGA:  41    -0.386598151564E+03   -0.18680E-02   -0.18629E-02  8112   0.353E-01 0.689E-04
CGA:  42    -0.386600028749E+03   -0.18772E-02   -0.18846E-02  8112   0.240E-01-0.988E-03
CGA:  43    -0.386601203491E+03   -0.11747E-02   -0.11745E-02  8112   0.582E-02 0.111E-03
CGA:  44    -0.386602219528E+03   -0.10160E-02   -0.96072E-03  8112   0.260E-01 0.573E-03
CGA:  45    -0.386603470618E+03   -0.12511E-02   -0.11563E-02  8112   0.154E-01-0.803E-03
CGA:  46    -0.386604646935E+03   -0.11763E-02   -0.12158E-02  8112   0.310E-01-0.132E-02
CGA:  47    -0.386605599557E+03   -0.95262E-03   -0.10139E-02  8112   0.113E-01 0.182E-03
CGA:  48    -0.386605948766E+03   -0.34921E-03   -0.35870E-03  8112   0.662E-02-0.775E-04
CGA:  49    -0.386606414756E+03   -0.46599E-03   -0.47245E-03  8112   0.994E-02-0.267E-03
CGA:  50    -0.386606873541E+03   -0.45879E-03   -0.45629E-03  8112   0.101E-01-0.120E-03
CGA:  51    -0.386607243554E+03   -0.37001E-03   -0.37058E-03  8112   0.487E-02 0.302E-04
CGA:  52    -0.386607396012E+03   -0.15246E-03   -0.15253E-03  8112   0.314E-02 0.799E-05
CGA:  53    -0.386607577934E+03   -0.18192E-03   -0.18177E-03  8112   0.406E-02 0.201E-04
CGA:  54    -0.386607761424E+03   -0.18349E-03   -0.18331E-03  8112   0.467E-02-0.156E-05
CGA:  55    -0.386608011214E+03   -0.24979E-03   -0.25005E-03  8112   0.436E-02-0.836E-04
CGA:  56    -0.386608134805E+03   -0.12359E-03   -0.12388E-03  8112   0.215E-02-0.192E-05
CGA:  57    -0.386608230950E+03   -0.96146E-04   -0.96269E-04  8112   0.268E-02 0.756E-05
CGA:  58    -0.386608359150E+03   -0.12820E-03   -0.12822E-03  8112   0.278E-02 0.334E-05
CGA:  59    -0.386608498998E+03   -0.13985E-03   -0.13984E-03  8112   0.375E-02-0.188E-04
CGA:  60    -0.386608633514E+03   -0.13452E-03   -0.13447E-03  8112   0.178E-02-0.630E-05
CGA:  61    -0.386608686118E+03   -0.52604E-04   -0.52729E-04  8112   0.117E-02-0.575E-05
CGA:  62    -0.386608739202E+03   -0.53084E-04   -0.53084E-04  8112   0.113E-02-0.158E-05
CGA:  63    -0.386608782586E+03   -0.43383E-04   -0.43381E-04  8112   0.107E-02-0.605E-06
CGA:  64    -0.386608836236E+03   -0.53651E-04   -0.53654E-04  8112   0.126E-02-0.172E-05
CGA:  65    -0.386608882074E+03   -0.45837E-04   -0.45839E-04  8112   0.921E-03-0.220E-05
CGA:  66    -0.386608925303E+03   -0.43229E-04   -0.43229E-04  8112   0.104E-02-0.884E-06
CGA:  67    -0.386608959388E+03   -0.34085E-04   -0.34099E-04  8112   0.442E-03 0.970E-06
CGA:  68    -0.386608976794E+03   -0.17406E-04   -0.17413E-04  8112   0.540E-03 0.166E-05
SDA:  69    -0.386609010578E+03   -0.33784E-04   -0.33803E-04  8112   0.770E-03-0.388E-07
CGA:  70    -0.386609038130E+03   -0.27552E-04   -0.27526E-04  8112   0.263E-03-0.824E-06
CGA:  71    -0.386609068716E+03   -0.30586E-04   -0.30438E-04  8112   0.466E-03 0.187E-05
CGA:  72    -0.386609120737E+03   -0.52021E-04   -0.51662E-04  8112   0.455E-03 0.591E-05
CGA:  73    -0.386609161722E+03   -0.40985E-04   -0.41052E-04  8112   0.237E-03-0.153E-05
CGA:  74    -0.386609182198E+03   -0.20476E-04   -0.20488E-04  8112   0.135E-03-0.627E-06
CGA:  75    -0.386609190920E+03   -0.87219E-05   -0.87347E-05  8112   0.241E-03-0.141E-05
CGA:  76    -0.386609205487E+03   -0.14567E-04   -0.14578E-04  8112   0.158E-03-0.208E-05
CGA:  77    -0.386609218397E+03   -0.12910E-04   -0.12948E-04  8112   0.412E-04-0.170E-05
CGA:  78    -0.386609221468E+03   -0.30716E-05   -0.30845E-05  8112   0.376E-04-0.949E-06
  15 F= -.38660922E+03 E0= -.38659395E+03  d E =-.655017E+00  mag=    12.0000
       N       E                     dE             d eps       ncg     rms          ort
SDA:   1    -0.385496281516E+03    0.11129E+01    0.00000E+00  8112   0.128E+02 0.000E+00
CGA:   2    -0.385806872800E+03   -0.31059E+00   -0.25640E+00  8112   0.278E+01 0.154E+01
CGA:   3    -0.386006992244E+03   -0.20012E+00   -0.19943E+00  8112   0.504E+01 0.615E-01
CGA:   4    -0.386226134976E+03   -0.21914E+00   -0.21989E+00  8112   0.475E+01 0.929E-02
CGA:   5    -0.386413160270E+03   -0.18703E+00   -0.18130E+00  8112   0.136E+01 0.547E-02
CGA:   6    -0.386456574867E+03   -0.43415E-01   -0.42445E-01  8112   0.129E+01 0.110E-01
CGA:   7    -0.386520916485E+03   -0.64342E-01   -0.64252E-01  8112   0.100E+01-0.735E-02
CGA:   8    -0.386555620949E+03   -0.34704E-01   -0.35048E-01  8112   0.714E+00-0.591E-03
CGA:   9    -0.386574705344E+03   -0.19084E-01   -0.19110E-01  8112   0.135E+00-0.335E-03
CGA:  10    -0.386579383987E+03   -0.46786E-02   -0.46217E-02  8112   0.126E+00 0.362E-04
CGA:  11    -0.386585260317E+03   -0.58763E-02   -0.58743E-02  8112   0.115E+00-0.188E-03
CGA:  12    -0.386589393248E+03   -0.41329E-02   -0.41551E-02  8112   0.730E-01 0.158E-03
CGA:  13    -0.386592137981E+03   -0.27447E-02   -0.27455E-02  8112   0.596E-01 0.222E-04
CGA:  14    -0.386593941691E+03   -0.18037E-02   -0.18035E-02  8112   0.132E-01-0.670E-05
CGA:  15    -0.386594411674E+03   -0.46998E-03   -0.47025E-03  8112   0.171E-01 0.331E-06
CGA:  16    -0.386595673308E+03   -0.12616E-02   -0.12598E-02  8112   0.154E-01 0.529E-04
CGA:  17    -0.386596109419E+03   -0.43611E-03   -0.43564E-03  8112   0.900E-02-0.564E-05
CGA:  18    -0.386596431304E+03   -0.32189E-03   -0.32181E-03  8112   0.285E-02-0.833E-05
CGA:  19    -0.386596541031E+03   -0.10973E-03   -0.10974E-03  8112   0.330E-02-0.307E-06
CGA:  20    -0.386596703308E+03   -0.16228E-03   -0.16226E-03  8112   0.257E-02 0.368E-05
CGA:  21    -0.386596841589E+03   -0.13828E-03   -0.13827E-03  8112   0.286E-02 0.137E-05
CGA:  22    -0.386596920847E+03   -0.79258E-04   -0.79517E-04  8112   0.958E-03-0.376E-07
CGA:  23    -0.386596969466E+03   -0.48619E-04   -0.48600E-04  8112   0.889E-03 0.347E-05
CGA:  24    -0.386597001381E+03   -0.31914E-04   -0.31927E-04  8112   0.815E-03 0.149E-05
CGA:  25    -0.386597050607E+03   -0.49226E-04   -0.49187E-04  8112   0.662E-03 0.257E-05
CGA:  26    -0.386597073895E+03   -0.23288E-04   -0.23330E-04  8112   0.617E-03 0.290E-05
CGA:  27    -0.386597104123E+03   -0.30229E-04   -0.30215E-04  8112   0.350E-03 0.512E-05
CGA:  28    -0.386597115988E+03   -0.11864E-04   -0.11876E-04  8112   0.235E-03 0.912E-06
CGA:  29    -0.386597127345E+03   -0.11357E-04   -0.11356E-04  8112   0.277E-03 0.432E-06
CGA:  30    -0.386597140849E+03   -0.13504E-04   -0.13501E-04  8112   0.183E-03 0.101E-05
CGA:  31    -0.386597149168E+03   -0.83192E-05   -0.83194E-05  8112   0.244E-03 0.391E-06
SDA:  32    -0.386597159963E+03   -0.10795E-04   -0.10794E-04  8112   0.971E-04 0.146E-06
CGA:  33    -0.386597164191E+03   -0.42284E-05   -0.42282E-05  8112   0.618E-04-0.613E-07
  16 F= -.38659716E+03 E0= -.38658174E+03  d E =0.120573E-01  mag=    12.0000
       N       E                     dE             d eps       ncg     rms          ort
SDA:   1    -0.338611818998E+03    0.47985E+02    0.00000E+00  8112   0.265E+03 0.000E+00
CGA:   2    -0.321926219902E+03    0.16686E+02   -0.23335E+02  8112   0.121E+04-0.380E+03
CGA:   3    -0.368325479521E+03   -0.46399E+02   -0.29035E+02  8112   0.122E+03-0.236E+03
CGA:   4    -0.372756545824E+03   -0.44311E+01   -0.35707E+01  8112   0.488E+02 0.893E+01
CGA:   5    -0.374526563108E+03   -0.17700E+01   -0.16483E+01  8112   0.123E+03-0.251E+01
CGA:   6    -0.378195381562E+03   -0.36688E+01   -0.37516E+01  8112   0.203E+03-0.230E+01
CGA:   7    -0.379795878060E+03   -0.16005E+01   -0.27816E+01  8112   0.379E+03-0.159E+03
[...]
CGA:   6    -0.385732889292E+03   -0.36729E+00   -0.34249E+00  8112   0.968E+01 0.763E+00
CGA:   7    -0.386038622366E+03   -0.30573E+00   -0.31122E+00  8112   0.154E+02 0.528E-01
CGA:   8    -0.386386243534E+03   -0.34762E+00   -0.34572E+00  8112   0.603E+01-0.123E+00
CGA:   9    -0.386479565843E+03   -0.93322E-01   -0.93862E-01  8112   0.263E+01 0.572E-02
CGA:  10    -0.386544932120E+03   -0.65366E-01   -0.64651E-01  8112   0.198E+01 0.129E-01
CGA:  11    -0.386579374500E+03   -0.34442E-01   -0.34404E-01  8112   0.940E+00-0.197E-02
CGA:  12    -0.386611825584E+03   -0.32451E-01   -0.33256E-01  8112   0.164E+01 0.471E-02
CGA:  13    -0.386656159415E+03   -0.44334E-01   -0.44898E-01  8112   0.846E+00-0.848E-02
CGA:  14    -0.386676288108E+03   -0.20129E-01   -0.20397E-01  8112   0.640E+00-0.511E-02
CGA:  15    -0.386695436786E+03   -0.19149E-01   -0.19166E-01  8112   0.384E+00-0.126E-03
CGA:  16    -0.386703084833E+03   -0.76480E-02   -0.78656E-02  8112   0.152E+00-0.610E-02
CGA:  17    -0.386707295113E+03   -0.42103E-02   -0.42666E-02  8112   0.115E+00-0.224E-03
CGA:  18    -0.386711809853E+03   -0.45147E-02   -0.45168E-02  8112   0.151E+00 0.114E-03
CGA:  19    -0.386717272456E+03   -0.54626E-02   -0.54417E-02  8112   0.127E+00-0.654E-03
CGA:  20    -0.386721098972E+03   -0.38265E-02   -0.38405E-02  8112   0.794E-01 0.787E-04
CGA:  21    -0.386722822309E+03   -0.17233E-02   -0.17612E-02  8112   0.207E-01-0.784E-03
CGA:  22    -0.386723436466E+03   -0.61416E-03   -0.61633E-03  8112   0.213E-01 0.207E-04
CGA:  23    -0.386724657124E+03   -0.12207E-02   -0.12199E-02  8112   0.254E-01 0.314E-04
CGA:  24    -0.386725356193E+03   -0.69907E-03   -0.70209E-03  8112   0.153E-01 0.416E-05
CGA:  25    -0.386726025525E+03   -0.66933E-03   -0.66918E-03  8112   0.136E-01 0.436E-04
CGA:  26    -0.386726427090E+03   -0.40156E-03   -0.40223E-03  8112   0.817E-02 0.870E-05
CGA:  27    -0.386726743983E+03   -0.31689E-03   -0.31685E-03  8112   0.615E-02-0.154E-04
CGA:  28    -0.386726943025E+03   -0.19904E-03   -0.19929E-03  8112   0.494E-02 0.107E-04
CGA:  29    -0.386727188960E+03   -0.24594E-03   -0.24556E-03  8112   0.654E-02 0.301E-04
CGA:  30    -0.386727458289E+03   -0.26933E-03   -0.26933E-03  8112   0.583E-02 0.149E-04
CGA:  31    -0.386727642965E+03   -0.18468E-03   -0.18469E-03  8112   0.295E-02 0.325E-05
SDA:  32    -0.386727752818E+03   -0.10985E-03   -0.10989E-03  8112   0.275E-02 0.808E-05
CGA:  33    -0.386727829156E+03   -0.76338E-04   -0.76444E-04  8112   0.117E-02 0.152E-05
CGA:  34    -0.386727982177E+03   -0.15302E-03   -0.15340E-03  8112   0.194E-02-0.441E-05
CGA:  35    -0.386728080955E+03   -0.98779E-04   -0.98797E-04  8112   0.123E-02-0.294E-05
CGA:  36    -0.386728167756E+03   -0.86801E-04   -0.86830E-04  8112   0.653E-03-0.106E-05
CGA:  37    -0.386728227109E+03   -0.59353E-04   -0.59353E-04  8112   0.602E-03-0.108E-06
CGA:  38    -0.386728302672E+03   -0.75563E-04   -0.75443E-04  8112   0.494E-03 0.144E-05
CGA:  39    -0.386728338425E+03   -0.35752E-04   -0.35671E-04  8112   0.598E-03 0.390E-05
CGA:  40    -0.386728367274E+03   -0.28849E-04   -0.28858E-04  8112   0.469E-03 0.201E-05
CGA:  41    -0.386728429308E+03   -0.62035E-04   -0.61972E-04  8112   0.347E-03 0.756E-06
CGA:  42    -0.386728453345E+03   -0.24037E-04   -0.24048E-04  8112   0.349E-03-0.969E-06
CGA:  43    -0.386728472742E+03   -0.19398E-04   -0.19395E-04  8112   0.182E-03-0.179E-05
CGA:  44    -0.386728486744E+03   -0.14001E-04   -0.14020E-04  8112   0.211E-03-0.939E-06
CGA:  45    -0.386728498361E+03   -0.11618E-04   -0.11617E-04  8112   0.199E-03-0.192E-06
CGA:  46    -0.386728511363E+03   -0.13001E-04   -0.13004E-04  8112   0.748E-04-0.455E-06
CGA:  47    -0.386728521857E+03   -0.10494E-04   -0.10430E-04  8112   0.987E-04 0.750E-06
CGA:  48    -0.386728530523E+03   -0.86653E-05   -0.86583E-05  8112   0.102E-03 0.287E-06
  96 F= -.38672853E+03 E0= -.38671372E+03  d E =0.143874E-01  mag=    12.0000
       N       E                     dE             d eps       ncg     rms          ort
SDA:   1    -0.376446633340E+03    0.10282E+02    0.00000E+00  8112   0.297E+02 0.000E+00
CGA:   2    -0.380991969841E+03   -0.45453E+01   -0.40761E+01  8112   0.412E+02 0.628E+01
CGA:   3    -0.383770735481E+03   -0.27788E+01   -0.22906E+01  8112   0.244E+02-0.177E+01
CGA:   4    -0.385028097178E+03   -0.12574E+01   -0.12404E+01  8112   0.167E+02 0.284E-01
CGA:   5    -0.385843958278E+03   -0.81586E+00   -0.81345E+00  8112   0.119E+02 0.728E-01
CGA:   6    -0.386222057316E+03   -0.37810E+00   -0.31533E+00  8112   0.398E+01 0.184E+01
CGA:   7    -0.386386098425E+03   -0.16404E+00   -0.15480E+00  8112   0.352E+01 0.939E-01
CGA:   8    -0.386510371361E+03   -0.12427E+00   -0.12315E+00  8112   0.346E+01 0.151E-01
CGA:   9    -0.386618510138E+03   -0.10814E+00   -0.11201E+00  8112   0.165E+01-0.383E-01
CGA:  10    -0.386662402092E+03   -0.43892E-01   -0.44257E-01  8112   0.856E+00-0.273E-02
CGA:  11    -0.386685357817E+03   -0.22956E-01   -0.23049E-01  8112   0.346E+00-0.152E-02
CGA:  12    -0.386697890720E+03   -0.12533E-01   -0.12711E-01  8112   0.413E+00 0.371E-03
CGA:  13    -0.386717587717E+03   -0.19697E-01   -0.19758E-01  8112   0.289E+00 0.391E-02
CGA:  14    -0.386727235047E+03   -0.96473E-02   -0.96735E-02  8112   0.171E+00 0.181E-03
CGA:  15    -0.386732012609E+03   -0.47776E-02   -0.48179E-02  8112   0.539E-01-0.576E-03
CGA:  16    -0.386734385203E+03   -0.23726E-02   -0.23836E-02  8112   0.662E-01 0.575E-03
CGA:  17    -0.386737377588E+03   -0.29924E-02   -0.29958E-02  8112   0.488E-01 0.145E-03
CGA:  18    -0.386739682582E+03   -0.23050E-02   -0.23050E-02  8112   0.382E-01 0.808E-05
CGA:  19    -0.386741020374E+03   -0.13378E-02   -0.13426E-02  8112   0.218E-01 0.160E-04
CGA:  20    -0.386741946429E+03   -0.92606E-03   -0.92789E-03  8112   0.134E-01 0.928E-04
CGA:  21    -0.386742683837E+03   -0.73741E-03   -0.73702E-03  8112   0.189E-01 0.468E-04
CGA:  22    -0.386743611837E+03   -0.92800E-03   -0.92824E-03  8112   0.147E-01 0.202E-03
CGA:  23    -0.386744468338E+03   -0.85650E-03   -0.85420E-03  8112   0.122E-01 0.196E-03
CGA:  24    -0.386744862302E+03   -0.39396E-03   -0.39429E-03  8112   0.606E-02 0.707E-05
CGA:  25    -0.386745322605E+03   -0.46030E-03   -0.45912E-03  8112   0.789E-02 0.383E-04
CGA:  26    -0.386745706034E+03   -0.38343E-03   -0.38358E-03  8112   0.689E-02 0.391E-04
CGA:  27    -0.386746012750E+03   -0.30672E-03   -0.30684E-03  8112   0.428E-02 0.102E-04
CGA:  28    -0.386746238597E+03   -0.22585E-03   -0.22587E-03  8112   0.273E-02-0.451E-05
CGA:  29    -0.386746359519E+03   -0.12092E-03   -0.12097E-03  8112   0.267E-02 0.532E-05
CGA:  30    -0.386746505919E+03   -0.14640E-03   -0.14637E-03  8112   0.165E-02 0.564E-05
CGA:  31    -0.386746605393E+03   -0.99474E-04   -0.99489E-04  8112   0.196E-02-0.229E-07
SDA:  32    -0.386746682339E+03   -0.76945E-04   -0.76979E-04  8112   0.972E-03 0.280E-05
CGA:  33    -0.386746715773E+03   -0.33434E-04   -0.33441E-04  8112   0.411E-03 0.526E-06
CGA:  34    -0.386746761222E+03   -0.45450E-04   -0.45548E-04  8112   0.101E-02-0.168E-05
CGA:  35    -0.386746826269E+03   -0.65046E-04   -0.65132E-04  8112   0.725E-03-0.596E-05
CGA:  36    -0.386746860473E+03   -0.34204E-04   -0.34194E-04  8112   0.279E-03-0.172E-05
CGA:  37    -0.386746900886E+03   -0.40413E-04   -0.40669E-04  8112   0.346E-03-0.289E-05
CGA:  38    -0.386746939484E+03   -0.38598E-04   -0.38681E-04  8112   0.198E-03-0.155E-05
CGA:  39    -0.386746960112E+03   -0.20627E-04   -0.20628E-04  8112   0.150E-03-0.246E-07
CGA:  40    -0.386746970829E+03   -0.10717E-04   -0.10716E-04  8112   0.158E-03 0.129E-06
CGA:  41    -0.386746981173E+03   -0.10345E-04   -0.10345E-04  8112   0.198E-03-0.403E-06
CGA:  42    -0.386746993439E+03   -0.12266E-04   -0.12265E-04  8112   0.943E-04-0.502E-06
CGA:  43    -0.386746997761E+03   -0.43222E-05   -0.43299E-05  8112   0.582E-04 0.414E-06
  97 F= -.38674700E+03 E0= -.38673252E+03  d E =-.184672E-01  mag=    12.0000
       N       E                     dE             d eps       ncg     rms          ort
SDA:   1    -0.382772485483E+03    0.39745E+01    0.00000E+00  8112   0.108E+02 0.000E+00
CGA:   2    -0.384437086875E+03   -0.16646E+01   -0.19314E+01  8112   0.515E+02-0.256E+01
CGA:   3    -0.385495164484E+03   -0.10581E+01   -0.10734E+01  8112   0.128E+02-0.272E+00
CGA:   4    -0.385854568396E+03   -0.35940E+00   -0.44084E+00  8112   0.933E+01-0.114E+01
CGA:   5    -0.386132983642E+03   -0.27842E+00   -0.24807E+00  8112   0.586E+01 0.635E+00
CGA:   6    -0.386387007613E+03   -0.25402E+00   -0.24937E+00  8112   0.605E+01 0.164E-01
CGA:   7    -0.386564341081E+03   -0.17733E+00   -0.18389E+00  8112   0.191E+01-0.677E-01
CGA:   8    -0.386618325607E+03   -0.53985E-01   -0.55379E-01  8112   0.972E+00-0.262E-01
CGA:   9    -0.386650335579E+03   -0.32010E-01   -0.31264E-01  8112   0.635E+00 0.102E-01
CGA:  10    -0.386676118965E+03   -0.25783E-01   -0.25790E-01  8112   0.509E+00 0.252E-03
CGA:  11    -0.386695441671E+03   -0.19323E-01   -0.19516E-01  8112   0.420E+00-0.132E-03
CGA:  12    -0.386710658682E+03   -0.15217E-01   -0.15110E-01  8112   0.178E+00 0.513E-03
CGA:  13    -0.386716087797E+03   -0.54291E-02   -0.54001E-02  8112   0.117E+00 0.414E-03
CGA:  14    -0.386720418318E+03   -0.43305E-02   -0.43719E-02  8112   0.505E-01 0.792E-04
CGA:  15    -0.386722374333E+03   -0.19560E-02   -0.19642E-02  8112   0.642E-01 0.551E-04
CGA:  16    -0.386726468853E+03   -0.40945E-02   -0.40940E-02  8112   0.386E-01 0.209E-05
CGA:  17    -0.386727380225E+03   -0.91137E-03   -0.90690E-03  8112   0.144E-01 0.106E-03
CGA:  18    -0.386728065490E+03   -0.68527E-03   -0.68554E-03  8112   0.101E-01 0.203E-04
CGA:  19    -0.386728463798E+03   -0.39831E-03   -0.39861E-03  8112   0.111E-01 0.677E-05
CGA:  20    -0.386729058856E+03   -0.59506E-03   -0.59497E-03  8112   0.651E-02 0.189E-04
CGA:  21    -0.386729289062E+03   -0.23021E-03   -0.23029E-03  8112   0.598E-02 0.561E-05
CGA:  22    -0.386729596144E+03   -0.30708E-03   -0.30707E-03  8112   0.317E-02 0.197E-04
CGA:  23    -0.386729710643E+03   -0.11450E-03   -0.11465E-03  8112   0.280E-02 0.285E-05
CGA:  24    -0.386729848465E+03   -0.13782E-03   -0.13782E-03  8112   0.200E-02-0.113E-05
CGA:  25    -0.386729961385E+03   -0.11292E-03   -0.11290E-03  8112   0.345E-02 0.273E-05
CGA:  26    -0.386730136180E+03   -0.17480E-03   -0.17479E-03  8112   0.209E-02 0.736E-05
CGA:  27    -0.386730202351E+03   -0.66171E-04   -0.66154E-04  8112   0.857E-03-0.427E-06
CGA:  28    -0.386730241186E+03   -0.38835E-04   -0.38832E-04  8112   0.113E-02-0.598E-06
CGA:  29    -0.386730322207E+03   -0.81021E-04   -0.80900E-04  8112   0.128E-02 0.480E-05
CGA:  30    -0.386730370651E+03   -0.48444E-04   -0.48480E-04  8112   0.968E-03 0.214E-05
CGA:  31    -0.386730407891E+03   -0.37240E-04   -0.37255E-04  8112   0.423E-03 0.151E-05
SDA:  32    -0.386730429737E+03   -0.21847E-04   -0.21844E-04  8112   0.635E-03 0.108E-05
CGA:  33    -0.386730444897E+03   -0.15159E-04   -0.15182E-04  8112   0.184E-03-0.218E-06
CGA:  34    -0.386730470548E+03   -0.25651E-04   -0.25654E-04  8112   0.376E-03-0.149E-06
CGA:  35    -0.386730496730E+03   -0.26182E-04   -0.26186E-04  8112   0.153E-03-0.180E-06
CGA:  36    -0.386730504351E+03   -0.76211E-05   -0.76237E-05  8112   0.831E-04 0.662E-06
CGA:  37    -0.386730516742E+03   -0.12391E-04   -0.12398E-04  8112   0.133E-03-0.143E-06
CGA:  38    -0.386730525433E+03   -0.86906E-05   -0.86946E-05  8112   0.137E-03-0.521E-06
  98 F= -.38673053E+03 E0= -.38671608E+03  d E =0.164723E-01  mag=    12.0000
       N       E                     dE             d eps       ncg     rms          ort
SDA:   1    -0.385022816845E+03    0.17077E+01    0.00000E+00  8112   0.614E+01 0.000E+00
CGA:   2    -0.385403005291E+03   -0.38019E+00   -0.38498E+00  8112   0.126E+02-0.554E+00
CGA:   3    -0.386135794371E+03   -0.73279E+00   -0.73102E+00  8112   0.581E+01 0.172E+00
CGA:   4    -0.386375534097E+03   -0.23974E+00   -0.24725E+00  8112   0.352E+01 0.666E-01
CGA:   5    -0.386499580304E+03   -0.12405E+00   -0.11903E+00  8112   0.189E+01 0.386E-01
CGA:   6    -0.386653716131E+03   -0.15414E+00   -0.15513E+00  8112   0.175E+01-0.323E-01
CGA:   7    -0.386694516726E+03   -0.40801E-01   -0.44147E-01  8112   0.464E+00-0.747E-01
CGA:   8    -0.386712773298E+03   -0.18257E-01   -0.18395E-01  8112   0.187E+00 0.162E-02
CGA:   9    -0.386726062438E+03   -0.13289E-01   -0.13315E-01  8112   0.232E+00-0.118E-02
CGA:  10    -0.386736681308E+03   -0.10619E-01   -0.10624E-01  8112   0.984E-01 0.145E-03
CGA:  11    -0.386740052055E+03   -0.33707E-02   -0.33697E-02  8112   0.373E-01 0.192E-04
CGA:  12    -0.386742455457E+03   -0.24034E-02   -0.24028E-02  8112   0.235E-01 0.377E-04
CGA:  13    -0.386743979866E+03   -0.15244E-02   -0.15242E-02  8112   0.233E-01 0.665E-05
CGA:  14    -0.386744869308E+03   -0.88944E-03   -0.89227E-03  8112   0.117E-01 0.273E-04
CGA:  15    -0.386745737933E+03   -0.86862E-03   -0.86761E-03  8112   0.350E-02 0.413E-04
CGA:  16    -0.386745948549E+03   -0.21062E-03   -0.21058E-03  8112   0.454E-02 0.262E-05
CGA:  17    -0.386746177909E+03   -0.22936E-03   -0.22942E-03  8112   0.258E-02 0.595E-05
CGA:  18    -0.386746375877E+03   -0.19797E-03   -0.19765E-03  8112   0.207E-02 0.114E-04
CGA:  19    -0.386746494288E+03   -0.11841E-03   -0.11841E-03  8112   0.133E-02 0.632E-06
CGA:  20    -0.386746563980E+03   -0.69692E-04   -0.69702E-04  8112   0.921E-03 0.168E-05
CGA:  21    -0.386746615988E+03   -0.52008E-04   -0.52008E-04  8112   0.109E-02 0.211E-05
CGA:  22    -0.386746709966E+03   -0.93978E-04   -0.93958E-04  8112   0.679E-03 0.315E-06
CGA:  23    -0.386746753698E+03   -0.43732E-04   -0.43720E-04  8112   0.328E-03 0.156E-05
CGA:  24    -0.386746766849E+03   -0.13151E-04   -0.13158E-04  8112   0.304E-03 0.695E-07
CGA:  25    -0.386746807074E+03   -0.40225E-04   -0.40380E-04  8112   0.191E-03-0.226E-05
CGA:  26    -0.386746818162E+03   -0.11087E-04   -0.11085E-04  8112   0.146E-03-0.853E-06
CGA:  27    -0.386746826280E+03   -0.81179E-05   -0.81208E-05  8112   0.138E-03 0.436E-06
  99 F= -.38674683E+03 E0= -.38673244E+03  d E =-.163008E-01  mag=    12.0000
       N       E                     dE             d eps       ncg     rms          ort
SDA:   1    -0.386337915967E+03    0.40890E+00    0.00000E+00  8112   0.179E+01 0.000E+00
CGA:   2    -0.386409568679E+03   -0.71653E-01   -0.69666E-01  8112   0.177E+01 0.323E-02
CGA:   3    -0.386630635786E+03   -0.22107E+00   -0.21773E+00  8112   0.113E+01 0.524E-01
CGA:   4    -0.386678405721E+03   -0.47770E-01   -0.43073E-01  8112   0.364E+00 0.395E-01
CGA:   5    -0.386718702303E+03   -0.40297E-01   -0.40372E-01  8112   0.330E+00-0.158E-02
CGA:   6    -0.386733306999E+03   -0.14605E-01   -0.14836E-01  8112   0.181E+00 0.125E-02
CGA:   7    -0.386739599443E+03   -0.62924E-02   -0.61772E-02  8112   0.464E-01 0.138E-02
CGA:   8    -0.386743053242E+03   -0.34538E-02   -0.34543E-02  8112   0.342E-01-0.286E-04
CGA:   9    -0.386744933666E+03   -0.18804E-02   -0.18808E-02  8112   0.218E-01 0.214E-04
CGA:  10    -0.386746078873E+03   -0.11452E-02   -0.11454E-02  8112   0.110E-01 0.415E-05
CGA:  11    -0.386746568758E+03   -0.48988E-03   -0.49020E-03  8112   0.643E-02 0.638E-06
CGA:  12    -0.386746851951E+03   -0.28319E-03   -0.28366E-03  8112   0.256E-02 0.412E-05
CGA:  13    -0.386747164122E+03   -0.31217E-03   -0.31199E-03  8112   0.246E-02 0.253E-05
CGA:  14    -0.386747270963E+03   -0.10684E-03   -0.10683E-03  8112   0.127E-02-0.201E-05
CGA:  15    -0.386747325247E+03   -0.54284E-04   -0.54262E-04  8112   0.632E-03-0.147E-05
CGA:  16    -0.386747373411E+03   -0.48164E-04   -0.48142E-04  8112   0.773E-03 0.818E-06
CGA:  17    -0.386747422883E+03   -0.49472E-04   -0.49476E-04  8112   0.531E-03-0.158E-05
CGA:  18    -0.386747470086E+03   -0.47202E-04   -0.47207E-04  8112   0.301E-03-0.437E-06
CGA:  19    -0.386747485817E+03   -0.15731E-04   -0.15731E-04  8112   0.377E-03-0.318E-06
CGA:  20    -0.386747513961E+03   -0.28144E-04   -0.28157E-04  8112   0.314E-03-0.103E-05
CGA:  21    -0.386747539364E+03   -0.25403E-04   -0.25387E-04  8112   0.221E-03 0.730E-06
CGA:  22    -0.386747548355E+03   -0.89913E-05   -0.90198E-05  8112   0.926E-04 0.946E-06
CGA:  23    -0.386747559245E+03   -0.10889E-04   -0.10844E-04  8112   0.182E-03 0.835E-06
CGA:  24    -0.386747565829E+03   -0.65843E-05   -0.65960E-05  8112   0.566E-04 0.278E-06
 100 F= -.38674757E+03 E0= -.38673310E+03  d E =-.739549E-03  mag=    12.0000
       N       E                     dE             d eps       ncg     rms          ort
SDA:   1    -0.386531448096E+03    0.21611E+00    0.00000E+00  8112   0.801E+00 0.000E+00
CGA:   2    -0.386589964030E+03   -0.58516E-01   -0.58212E-01  8112   0.125E+01 0.231E-01
CGA:   3    -0.386668902023E+03   -0.78938E-01   -0.78835E-01  8112   0.919E+00-0.125E-01
CGA:   4    -0.386708933957E+03   -0.40032E-01   -0.40264E-01  8112   0.207E+00 0.483E-03
CGA:   5    -0.386727742708E+03   -0.18809E-01   -0.18797E-01  8112   0.242E+00 0.360E-03
CGA:   6    -0.386740152402E+03   -0.12410E-01   -0.12365E-01  8112   0.584E-01-0.690E-03
CGA:   7    -0.386744215170E+03   -0.40628E-02   -0.40627E-02  8112   0.319E-01 0.837E-05
CGA:   8    -0.386745560826E+03   -0.13457E-02   -0.13490E-02  8112   0.205E-01 0.654E-05
CGA:   9    -0.386746665573E+03   -0.11047E-02   -0.11042E-02  8112   0.102E-01-0.527E-05
CGA:  10    -0.386747444092E+03   -0.77852E-03   -0.77753E-03  8112   0.403E-02 0.547E-04
CGA:  11    -0.386747644067E+03   -0.19997E-03   -0.19965E-03  8112   0.242E-02-0.664E-05
CGA:  12    -0.386747825813E+03   -0.18175E-03   -0.18171E-03  8112   0.198E-02 0.155E-05
CGA:  13    -0.386747919323E+03   -0.93509E-04   -0.93479E-04  8112   0.144E-02-0.456E-06
CGA:  14    -0.386747998053E+03   -0.78731E-04   -0.78754E-04  8112   0.498E-03 0.891E-06
CGA:  15    -0.386748050972E+03   -0.52919E-04   -0.52870E-04  8112   0.361E-03 0.112E-05
CGA:  16    -0.386748073629E+03   -0.22656E-04   -0.22659E-04  8112   0.442E-03 0.816E-06
CGA:  17    -0.386748107150E+03   -0.33521E-04   -0.33496E-04  8112   0.425E-03 0.222E-05
CGA:  18    -0.386748126630E+03   -0.19481E-04   -0.19519E-04  8112   0.187E-03 0.161E-05
CGA:  19    -0.386748140668E+03   -0.14038E-04   -0.14036E-04  8112   0.198E-03 0.205E-06
CGA:  20    -0.386748165542E+03   -0.24873E-04   -0.24794E-04  8112   0.131E-03 0.136E-05
CGA:  21    -0.386748171450E+03   -0.59080E-05   -0.59081E-05  8112   0.962E-04 0.693E-07
 101 F= -.38674817E+03 E0= -.38673375E+03  d E =-.605621E-03  mag=    12.0000
       N       E                     dE             d eps       ncg     rms          ort
SDA:   1    -0.386721073475E+03    0.27092E-01    0.00000E+00  8112   0.145E+00 0.000E+00
CGA:   2    -0.386727179152E+03   -0.61057E-02   -0.61304E-02  8112   0.132E+00-0.720E-04
CGA:   3    -0.386736924512E+03   -0.97454E-02   -0.97511E-02  8112   0.106E+00-0.387E-03
CGA:   4    -0.386742400375E+03   -0.54759E-02   -0.55082E-02  8112   0.451E-01 0.647E-03
CGA:   5    -0.386744838516E+03   -0.24381E-02   -0.24364E-02  8112   0.261E-01-0.491E-04
CGA:   6    -0.386747474430E+03   -0.26359E-02   -0.26344E-02  8112   0.104E-01 0.378E-04
CGA:   7    -0.386747995896E+03   -0.52147E-03   -0.52245E-03  8112   0.489E-02 0.149E-04
CGA:   8    -0.386748194034E+03   -0.19814E-03   -0.19797E-03  8112   0.319E-02 0.104E-05
CGA:   9    -0.386748422438E+03   -0.22840E-03   -0.22840E-03  8112   0.141E-02-0.466E-06
CGA:  10    -0.386748519549E+03   -0.97111E-04   -0.97139E-04  8112   0.957E-03-0.439E-05
CGA:  11    -0.386748563063E+03   -0.43514E-04   -0.43516E-04  8112   0.223E-03-0.143E-06
CGA:  12    -0.386748601262E+03   -0.38199E-04   -0.38488E-04  8112   0.300E-03-0.264E-05
CGA:  13    -0.386748613680E+03   -0.12418E-04   -0.12418E-04  8112   0.123E-03-0.180E-06
CGA:  14    -0.386748618489E+03   -0.48087E-05   -0.48080E-05  8112   0.631E-04 0.368E-07
 102 F= -.38674862E+03 E0= -.38673419E+03  d E =-.447039E-03  mag=    12.0000
