       N       E                     dE             d eps       ncg     rms          rms(c)
DAV:   1     0.598309349661E+04    0.59831E+04   -0.25407E+05 33712   0.162E+03
DAV:   2     0.313030323595E+03   -0.56701E+04   -0.51878E+04 33584   0.473E+02
DAV:   3    -0.375947315471E+03   -0.68898E+03   -0.67728E+03 33744   0.183E+02
DAV:   4    -0.394973686472E+03   -0.19026E+02   -0.18926E+02 37296   0.319E+01
DAV:   5    -0.395333438958E+03   -0.35975E+00   -0.35843E+00 44592   0.385E+00    0.886E+01
DAV:   6    -0.332923622582E+03    0.62410E+02   -0.35354E+02 41120   0.659E+01    0.869E+01
DAV:   7    -0.338817458670E+03   -0.58938E+01   -0.12808E+02 33824   0.658E+01    0.103E+02
DAV:   8    -0.339380854184E+03   -0.56340E+00   -0.17375E+02 38560   0.406E+01    0.916E+01
DAV:   9    -0.323108308386E+03    0.16273E+02   -0.67050E+01 34608   0.290E+01    0.726E+01
DAV:  10    -0.323593631348E+03   -0.48532E+00   -0.16465E+02 35136   0.289E+01    0.827E+01
DAV:  11    -0.320430115014E+03    0.31635E+01   -0.20193E+02 34160   0.323E+01    0.816E+01
DAV:  12    -0.313552184935E+03    0.68779E+01   -0.88215E+01 34160   0.272E+01    0.667E+01
DAV:  13    -0.305172355443E+03    0.83798E+01   -0.85863E+01 34512   0.210E+01    0.471E+01
DAV:  14    -0.305141725853E+03    0.30630E-01   -0.55193E+01 35376   0.123E+01    0.517E+01
DAV:  15    -0.305950189124E+03   -0.80846E+00   -0.80136E+01 34576   0.104E+01    0.466E+01
DAV:  16    -0.304249621933E+03    0.17006E+01   -0.37859E+01 34368   0.781E+00    0.352E+01
DAV:  17    -0.305111800535E+03   -0.86218E+00   -0.26222E+01 34080   0.613E+00    0.338E+01
DAV:  18    -0.305838017650E+03   -0.72622E+00   -0.47255E+00 33120   0.256E+00    0.289E+01
DAV:  19    -0.305308946108E+03    0.52907E+00   -0.21088E-01 33632   0.110E+00    0.313E+01
DAV:  20    -0.305107772847E+03    0.20117E+00   -0.40092E-02 35440   0.399E-01    0.312E+01
DAV:  21    -0.305146441539E+03   -0.38669E-01   -0.13954E-01 36368   0.485E-01    0.299E+01
DAV:  22    -0.305435635965E+03   -0.28919E+00   -0.22184E-01 36528   0.712E-01    0.315E+01
DAV:  23    -0.305361875861E+03    0.73760E-01   -0.88009E-02 34784   0.691E-01    0.318E+01
DAV:  24    -0.305464601132E+03   -0.10273E+00   -0.12701E-01 35312   0.636E-01    0.325E+01
DAV:  25    -0.305583362164E+03   -0.11876E+00   -0.12643E-01 34336   0.500E-01    0.315E+01
DAV:  26    -0.305751756407E+03   -0.16839E+00   -0.16929E-01 35104   0.473E-01    0.311E+01
DAV:  27    -0.305966328758E+03   -0.21457E+00   -0.34598E-01 36288   0.618E-01    0.311E+01
DAV:  28    -0.306230403555E+03   -0.26407E+00   -0.51862E-01 36320   0.113E+00    0.292E+01
DAV:  29    -0.305911077297E+03    0.31933E+00   -0.58580E-02 32592   0.553E-01    0.292E+01
DAV:  30    -0.306243671404E+03   -0.33259E+00   -0.11611E-01 35824   0.608E-01    0.292E+01
DAV:  31    -0.306974497575E+03   -0.73083E+00   -0.45735E-01 38064   0.995E-01    0.292E+01
DAV:  32    -0.307036585242E+03   -0.62088E-01   -0.25407E-02 32912   0.364E-01    0.293E+01
DAV:  33    -0.307038018089E+03   -0.14328E-02   -0.46645E-03 35360   0.147E-01    0.293E+01
DAV:  34    -0.307119506928E+03   -0.81489E-01   -0.99231E-03 37152   0.155E-01    0.292E+01
DAV:  35    -0.308078224506E+03   -0.95872E+00   -0.15595E+00 38096   0.126E+00    0.292E+01
DAV:  36    -0.308649549308E+03   -0.57132E+00   -0.41260E-01 34576   0.981E-01    0.292E+01
DAV:  37    -0.309415233631E+03   -0.76568E+00   -0.98586E-01 39328   0.159E+00    0.271E+01
DAV:  38    -0.311062761468E+03   -0.16475E+01   -0.27397E+00 38384   0.368E+00    0.268E+01
DAV:  39    -0.302324577701E+03    0.87382E+01   -0.10511E+01 34512   0.717E+00    0.305E+01
DAV:  40    -0.298922358880E+03    0.34022E+01   -0.20872E+00 35456   0.275E+00    0.311E+01
DAV:  41    -0.299493787626E+03   -0.57143E+00   -0.76445E-01 38480   0.240E+00    0.310E+01
DAV:  42    -0.293041197168E+03    0.64526E+01   -0.26633E+00 36800   0.412E+00    0.353E+01
DAV:  43    -0.293420071693E+03   -0.37887E+00   -0.36854E-01 33712   0.124E+00    0.350E+01
DAV:  44    -0.293550269958E+03   -0.13020E+00   -0.57821E-02 36432   0.359E-01    0.349E+01
DAV:  45    -0.293268816107E+03    0.28145E+00   -0.36064E-02 33728   0.387E-01    0.353E+01
DAV:  46    -0.295331892731E+03   -0.20631E+01   -0.44443E-01 38208   0.129E+00    0.340E+01
DAV:  47    -0.298653578968E+03   -0.33217E+01   -0.56004E-01 35104   0.149E+00    0.329E+01
DAV:  48    -0.299738332658E+03   -0.10848E+01   -0.10518E-01 34384   0.637E-01    0.331E+01
DAV:  49    -0.299687738227E+03    0.50594E-01   -0.61378E-03 33968   0.166E-01    0.331E+01
DAV:  50    -0.299977270666E+03   -0.28953E+00   -0.83799E-01 36640   0.143E+00    0.327E+01
DAV:  51    -0.295816092881E+03    0.41612E+01   -0.10099E+00 36336   0.267E+00    0.343E+01
DAV:  52    -0.300091959919E+03   -0.42759E+01   -0.32412E+00 35552   0.399E+00    0.326E+01
DAV:  53    -0.300100497622E+03   -0.85377E-02   -0.60695E-01 36160   0.199E+00    0.317E+01
DAV:  54    -0.298002184220E+03    0.20983E+01   -0.19097E-01 34944   0.113E+00    0.322E+01
DAV:  55    -0.297887887377E+03    0.11430E+00   -0.55952E-02 36240   0.530E-01    0.323E+01
DAV:  56    -0.290055950525E+03    0.78319E+01   -0.63529E+00 36752   0.898E+00    0.358E+01
DAV:  57    -0.297374642386E+03   -0.73187E+01   -0.17126E+00 35488   0.445E+00    0.325E+01
DAV:  58    -0.303792785965E+03   -0.64181E+01   -0.11738E+00 37728   0.259E+00    0.296E+01
DAV:  59    -0.305649840542E+03   -0.18571E+01   -0.67403E-01 37888   0.237E+00    0.289E+01
DAV:  60    -0.309015788779E+03   -0.33659E+01   -0.70495E-01 39568   0.206E+00    0.256E+01
DAV:  61    -0.300401668818E+03    0.86141E+01   -0.60803E+00 38800   0.630E+00    0.302E+01
DAV:  62    -0.300698886108E+03   -0.29722E+00   -0.22164E+00 37920   0.234E+00    0.337E+01
DAV:  63    -0.300068477710E+03    0.63041E+00   -0.48270E-01 34464   0.180E+00    0.315E+01
DAV:  64    -0.297759350193E+03    0.23091E+01   -0.10795E+00 40000   0.204E+00    0.288E+01
DAV:  65    -0.298198867765E+03   -0.43952E+00   -0.43471E-01 39008   0.149E+00    0.276E+01
DAV:  66    -0.301460813128E+03   -0.32619E+01   -0.55273E+00 42432   0.576E+00    0.275E+01
DAV:  67    -0.302111633927E+03   -0.65082E+00   -0.51377E-01 33792   0.180E+00    0.261E+01
DAV:  68    -0.302332036455E+03   -0.22040E+00   -0.70078E-01 41232   0.226E+00    0.240E+01
DAV:  69    -0.304413209883E+03   -0.20812E+01   -0.62000E-01 37552   0.207E+00    0.231E+01
DAV:  70    -0.305268994781E+03   -0.85578E+00   -0.43649E-01 38608   0.154E+00    0.225E+01
DAV:  71    -0.316116490449E+03   -0.10847E+02   -0.13159E+01 36896   0.768E+00    0.200E+01
DAV:  72    -0.316013317861E+03    0.10317E+00   -0.15152E+00 34448   0.344E+00    0.150E+01
DAV:  73    -0.316031500895E+03   -0.18183E-01   -0.99152E-01 37040   0.163E+00    0.113E+01
DAV:  74    -0.316133133586E+03   -0.10163E+00   -0.28116E-01 37040   0.105E+00    0.101E+01
DAV:  75    -0.316102223918E+03    0.30910E-01   -0.39528E-01 40480   0.148E+00    0.832E+00
DAV:  76    -0.316355134124E+03   -0.25291E+00   -0.12243E+00 39968   0.209E+00    0.109E+01
DAV:  77    -0.316326768311E+03    0.28366E-01   -0.90363E-01 34832   0.156E+00    0.854E+00
DAV:  78    -0.316512000312E+03   -0.18523E+00   -0.33242E-01 36096   0.660E-01    0.116E+01
DAV:  79    -0.316136772820E+03    0.37523E+00   -0.48753E-01 34832   0.110E+00    0.960E+00
DAV:  80    -0.316193990020E+03   -0.57217E-01   -0.92716E-02 34144   0.359E-01    0.646E+00
DAV:  81    -0.316576287347E+03   -0.38230E+00   -0.22269E+00 34800   0.157E+00    0.147E+01
DAV:  82    -0.316623209577E+03   -0.46922E-01   -0.12336E+00 35744   0.148E+00    0.136E+01
DAV:  83    -0.316642181909E+03   -0.18972E-01   -0.56628E-02 32800   0.409E-01    0.139E+01
DAV:  84    -0.316606776425E+03    0.35405E-01   -0.25398E-03 34064   0.131E-01    0.140E+01
DAV:  85    -0.316597905970E+03    0.88705E-02   -0.65984E-04 34048   0.377E-02    0.140E+01
DAV:  86    -0.316606725644E+03   -0.88197E-02   -0.22018E-01 40272   0.129E+00    0.138E+01
DAV:  87    -0.316642413900E+03   -0.35688E-01   -0.10741E-01 36320   0.901E-01    0.134E+01
DAV:  88    -0.316542529990E+03    0.99884E-01   -0.28152E-01 37984   0.767E-01    0.129E+01
DAV:  89    -0.316516004716E+03    0.26525E-01   -0.87078E-02 35424   0.323E-01    0.125E+01
DAV:  90    -0.316452979996E+03    0.63025E-01   -0.12147E-01 39184   0.426E-01    0.127E+01
DAV:  91    -0.316819834557E+03   -0.36685E+00   -0.28507E-01 38432   0.130E+00    0.132E+01
DAV:  92    -0.316726455998E+03    0.93379E-01   -0.26169E-01 36816   0.798E-01    0.133E+01
DAV:  93    -0.316673651514E+03    0.52804E-01   -0.26759E-01 36752   0.474E-01    0.133E+01
DAV:  94    -0.316652930137E+03    0.20721E-01   -0.29056E-01 39616   0.357E-01    0.132E+01
DAV:  95    -0.316639217763E+03    0.13712E-01   -0.20013E-01 36384   0.296E-01    0.130E+01
DAV:  96    -0.316640252280E+03   -0.10345E-02   -0.10606E-01 40080   0.417E-01    0.127E+01
DAV:  97    -0.316677407478E+03   -0.37155E-01   -0.16099E-02 33008   0.401E-01    0.133E+01
DAV:  98    -0.316647009825E+03    0.30398E-01   -0.47771E-03 33296   0.127E-01    0.135E+01
DAV:  99    -0.316718412846E+03   -0.71403E-01   -0.26010E-01 40208   0.624E-01    0.136E+01
DAV: 100    -0.316849276724E+03   -0.13086E+00   -0.19375E-01 39664   0.462E-01    0.131E+01
DAV: 101    -0.317207964558E+03   -0.35869E+00   -0.32314E-01 38624   0.115E+00    0.115E+01
DAV: 102    -0.317223133966E+03   -0.15169E-01   -0.23520E-01 35952   0.867E-01    0.111E+01
DAV: 103    -0.317297772257E+03   -0.74638E-01   -0.33745E-01 40480   0.699E-01    0.106E+01
DAV: 104    -0.317407388730E+03   -0.10962E+00   -0.14259E-01 39152   0.630E-01    0.994E+00
DAV: 105    -0.317419403532E+03   -0.12015E-01   -0.16441E-02 33296   0.231E-01    0.100E+01
DAV: 106    -0.317490427044E+03   -0.71024E-01   -0.17335E-01 39792   0.849E-01    0.108E+01
DAV: 107    -0.317446425887E+03    0.44001E-01   -0.28957E-02 32928   0.326E-01    0.105E+01
DAV: 108    -0.317305271529E+03    0.14115E+00   -0.13815E-01 38048   0.736E-01    0.993E+00
DAV: 109    -0.317218652899E+03    0.86619E-01   -0.39877E-01 38224   0.589E-01    0.954E+00
DAV: 110    -0.317279219460E+03   -0.60567E-01   -0.45338E-02 32736   0.265E-01    0.940E+00
DAV: 111    -0.317339662239E+03   -0.60443E-01   -0.35167E-02 36512   0.270E-01    0.904E+00
DAV: 112    -0.317389092669E+03   -0.49430E-01   -0.37798E-02 37504   0.296E-01    0.880E+00
DAV: 113    -0.317417302424E+03   -0.28210E-01   -0.83603E-03 35600   0.160E-01    0.857E+00
DAV: 114    -0.317444225018E+03   -0.26923E-01   -0.44971E-03 37344   0.127E-01    0.842E+00
DAV: 115    -0.317463374869E+03   -0.19150E-01   -0.26934E-03 36352   0.711E-02    0.833E+00
DAV: 116    -0.317503035265E+03   -0.39660E-01   -0.74184E-02 39104   0.260E-01    0.808E+00
DAV: 117    -0.317539443976E+03   -0.36409E-01   -0.34520E-02 38784   0.262E-01    0.782E+00
DAV: 118    -0.317533163443E+03    0.62805E-02   -0.30030E-01 38912   0.438E-01    0.771E+00
DAV: 119    -0.317545785225E+03   -0.12622E-01   -0.10641E-01 36816   0.274E-01    0.771E+00
DAV: 120    -0.317570916958E+03   -0.25132E-01   -0.84298E-03 32064   0.223E-01    0.774E+00
DAV: 121    -0.317604891626E+03   -0.33975E-01   -0.19738E-01 37456   0.531E-01    0.772E+00
DAV: 122    -0.317621822124E+03   -0.16930E-01   -0.23123E-02 32624   0.322E-01    0.772E+00
DAV: 123    -0.317622611138E+03   -0.78901E-03   -0.14802E-03 33648   0.897E-02    0.771E+00
DAV: 124    -0.317630439610E+03   -0.78285E-02   -0.53002E-03 37856   0.118E-01    0.785E+00
DAV: 125    -0.317609686281E+03    0.20753E-01   -0.66442E-02 36128   0.306E-01    0.757E+00
DAV: 126    -0.318159784197E+03   -0.55010E+00   -0.49792E+00 38336   0.170E+00    0.137E+01
DAV: 127    -0.317808069701E+03    0.35171E+00   -0.15353E-01 33888   0.121E+00    0.131E+01
DAV: 128    -0.317814458190E+03   -0.63885E-02   -0.17471E-02 33440   0.249E-01    0.131E+01
DAV: 129    -0.317807491077E+03    0.69671E-02   -0.19647E-03 35184   0.126E-01    0.130E+01
DAV: 130    -0.318025142484E+03   -0.21765E+00   -0.37255E-01 38144   0.877E-01    0.149E+01
DAV: 131    -0.317816931875E+03    0.20821E+00   -0.77457E-02 36592   0.885E-01    0.151E+01
DAV: 132    -0.317755555627E+03    0.61376E-01   -0.39551E-02 36096   0.445E-01    0.134E+01
DAV: 133    -0.317722886421E+03    0.32669E-01   -0.31882E-01 38624   0.640E-01    0.104E+01
DAV: 134    -0.317743421609E+03   -0.20535E-01   -0.72045E-01 37408   0.700E-01    0.897E+00
DAV: 135    -0.317726477848E+03    0.16944E-01   -0.25632E-01 35440   0.678E-01    0.906E+00
DAV: 136    -0.317699129781E+03    0.27348E-01   -0.49670E-02 33040   0.531E-01    0.960E+00
DAV: 137    -0.317650992014E+03    0.48138E-01   -0.51096E-02 37648   0.376E-01    0.998E+00
DAV: 138    -0.317657934350E+03   -0.69423E-02   -0.21277E-03 33088   0.115E-01    0.993E+00
DAV: 139    -0.317662057059E+03   -0.41227E-02   -0.13793E-03 35824   0.822E-02    0.101E+01
DAV: 140    -0.317671542997E+03   -0.94859E-02   -0.43006E-02 38688   0.360E-01    0.111E+01
DAV: 141    -0.317770491442E+03   -0.98948E-01   -0.71543E-01 40208   0.146E+00    0.140E+01
DAV: 142    -0.317666956506E+03    0.10353E+00   -0.90984E-02 34480   0.597E-01    0.151E+01
DAV: 143    -0.317706878728E+03   -0.39922E-01   -0.72574E-03 33136   0.181E-01    0.152E+01
DAV: 144    -0.317622497933E+03    0.84381E-01   -0.61897E-02 36832   0.596E-01    0.146E+01
DAV: 145    -0.317570120046E+03    0.52378E-01   -0.91643E-03 36528   0.188E-01    0.143E+01
DAV: 146    -0.317098614733E+03    0.47151E+00   -0.20841E-01 37312   0.117E+00    0.166E+01
DAV: 147    -0.317122981166E+03   -0.24366E-01   -0.12839E-01 36816   0.865E-01    0.159E+01
DAV: 148    -0.317176632498E+03   -0.53651E-01   -0.49806E-02 34880   0.536E-01    0.168E+01
DAV: 149    -0.317217833114E+03   -0.41201E-01   -0.24887E-02 36256   0.421E-01    0.161E+01
DAV: 150    -0.317217908782E+03   -0.75668E-04   -0.15095E-03 33344   0.997E-02    0.162E+01
DAV: 151    -0.317518226909E+03   -0.30032E+00   -0.16837E-01 37568   0.990E-01    0.180E+01
DAV: 152    -0.317520396053E+03   -0.21691E-02   -0.12786E-02 34080   0.214E-01    0.181E+01
DAV: 153    -0.317510608439E+03    0.97876E-02   -0.74134E-03 39584   0.240E-01    0.175E+01
DAV: 154    -0.317498590251E+03    0.12018E-01   -0.96542E-02 43280   0.586E-01    0.157E+01
DAV: 155    -0.317361546413E+03    0.13704E+00   -0.76734E-01 39696   0.153E+00    0.130E+01
DAV: 156    -0.317287052145E+03    0.74494E-01   -0.16277E-01 37472   0.813E-01    0.137E+01
DAV: 157    -0.317283308708E+03    0.37434E-02   -0.15921E-02 33344   0.240E-01    0.139E+01
DAV: 158    -0.317300076677E+03   -0.16768E-01   -0.28778E-03 34368   0.109E-01    0.137E+01
DAV: 159    -0.317295367571E+03    0.47091E-02   -0.68973E-03 41504   0.156E-01    0.135E+01
DAV: 160    -0.317319602533E+03   -0.24235E-01   -0.21414E-02 40080   0.238E-01    0.129E+01
DAV: 161    -0.317281919954E+03    0.37683E-01   -0.31625E-01 38640   0.104E+00    0.143E+01
DAV: 162    -0.317397247885E+03   -0.11533E+00   -0.40736E-02 36384   0.567E-01    0.129E+01
DAV: 163    -0.317420926085E+03   -0.23678E-01   -0.24164E-02 40320   0.321E-01    0.121E+01
DAV: 164    -0.317425348887E+03   -0.44228E-02   -0.17789E-03 34096   0.845E-02    0.120E+01
DAV: 165    -0.317462278586E+03   -0.36930E-01   -0.83573E-03 37680   0.194E-01    0.118E+01
DAV: 166    -0.317634812204E+03   -0.17253E+00   -0.12907E+00 39376   0.252E+00    0.989E+00
DAV: 167    -0.317814084414E+03   -0.17927E+00   -0.44611E-01 33904   0.103E+00    0.155E+01
DAV: 168    -0.317784688135E+03    0.29396E-01   -0.13238E-01 33152   0.395E-01    0.157E+01
DAV: 169    -0.317788247510E+03   -0.35594E-02   -0.40670E-03 35056   0.134E-01    0.157E+01
DAV: 170    -0.317701555675E+03    0.86692E-01   -0.16510E-02 35616   0.128E-01    0.161E+01
DAV: 171    -0.318178903214E+03   -0.47735E+00   -0.16034E+00 39216   0.196E+00    0.125E+01
DAV: 172    -0.318365012967E+03   -0.18611E+00   -0.86630E-02 35952   0.852E-01    0.113E+01
DAV: 173    -0.318450479858E+03   -0.85467E-01   -0.10089E-01 38944   0.711E-01    0.105E+01
DAV: 174    -0.318656921080E+03   -0.20644E+00   -0.71301E-02 39216   0.622E-01    0.940E+00
DAV: 175    -0.318914561341E+03   -0.25764E+00   -0.11125E-01 38176   0.641E-01    0.864E+00
DAV: 176    -0.318707749201E+03    0.20681E+00   -0.31742E-02 36640   0.648E-01    0.979E+00
DAV: 177    -0.318605402573E+03    0.10235E+00   -0.58493E-02 37008   0.489E-01    0.962E+00
DAV: 178    -0.318559706072E+03    0.45697E-01   -0.81207E-02 38080   0.537E-01    0.947E+00
DAV: 179    -0.318562463977E+03   -0.27579E-02   -0.10768E-02 36512   0.203E-01    0.945E+00
DAV: 180    -0.318505165714E+03    0.57298E-01   -0.12075E-02 37456   0.225E-01    0.980E+00
DAV: 181    -0.317885202375E+03    0.61996E+00   -0.27547E-01 38912   0.152E+00    0.994E+00
DAV: 182    -0.317736858523E+03    0.14834E+00   -0.51437E-01 34256   0.942E-01    0.837E+00
DAV: 183    -0.317777458169E+03   -0.40600E-01   -0.12213E-02 33280   0.257E-01    0.835E+00
DAV: 184    -0.317779862309E+03   -0.24041E-02   -0.10337E-03 34736   0.826E-02    0.831E+00
DAV: 185    -0.317757510907E+03    0.22351E-01   -0.17180E-02 43456   0.220E-01    0.773E+00
DAV: 186    -0.317850547053E+03   -0.93036E-01   -0.12227E-01 36560   0.105E+00    0.715E+00
DAV: 187    -0.318150713376E+03   -0.30017E+00   -0.66245E-01 37488   0.906E-01    0.120E+01
DAV: 188    -0.318820116875E+03   -0.66940E+00   -0.78409E-01 39536   0.135E+00    0.773E+00
DAV: 189    -0.318900042929E+03   -0.79926E-01   -0.26751E-02 34992   0.419E-01    0.701E+00
DAV: 190    -0.319152257742E+03   -0.25221E+00   -0.72411E-02 42032   0.895E-01    0.460E+00
DAV: 191    -0.319222062750E+03   -0.69805E-01   -0.32254E-02 36800   0.558E-01    0.453E+00
DAV: 192    -0.319266262856E+03   -0.44200E-01   -0.17600E-01 41072   0.966E-01    0.363E+00
DAV: 193    -0.319262817919E+03    0.34449E-02   -0.20470E-02 34144   0.306E-01    0.365E+00
DAV: 194    -0.319249183629E+03    0.13634E-01   -0.21464E-03 35328   0.138E-01    0.401E+00
DAV: 195    -0.319267480442E+03   -0.18297E-01   -0.16361E-02 35488   0.301E-01    0.362E+00
DAV: 196    -0.319295411664E+03   -0.27931E-01   -0.64020E-02 37312   0.721E-01    0.335E+00
DAV: 197    -0.319294939508E+03    0.47216E-03   -0.15469E-02 33616   0.367E-01    0.279E+00
DAV: 198    -0.319310776885E+03   -0.15837E-01   -0.32565E-02 38576   0.574E-01    0.177E+00
DAV: 199    -0.319313828916E+03   -0.30520E-02   -0.45182E-03 34144   0.218E-01    0.154E+00
DAV: 200    -0.319303389319E+03    0.10440E-01   -0.50252E-03 39264   0.292E-01
   1 F= -.31930339E+03 E0= -.31929626E+03  d E =-.319303E+03  mag=    37.1267
       N       E                     dE             d eps       ncg     rms          rms(c)
DAV:   1    -0.319347177469E+03   -0.33349E-01   -0.48782E+00 32832   0.719E+00    0.349E+00
DAV:   2    -0.319363144126E+03   -0.15967E-01   -0.59020E-01 33232   0.250E+00    0.577E+00
DAV:   3    -0.319356154430E+03    0.69897E-02   -0.41691E-01 34880   0.204E+00    0.483E+00
DAV:   4    -0.319339189664E+03    0.16965E-01   -0.13121E-01 34096   0.105E+00    0.202E+00
DAV:   5    -0.319338939686E+03    0.24998E-03   -0.77530E-02 34208   0.712E-01    0.162E+00
DAV:   6    -0.319339514296E+03   -0.57461E-03   -0.61576E-02 34080   0.623E-01    0.185E+00
DAV:   7    -0.319335702936E+03    0.38114E-02   -0.21007E-02 34192   0.396E-01    0.628E-01
DAV:   8    -0.319335718293E+03   -0.15357E-04   -0.40140E-03 34832   0.214E-01    0.445E-01
DAV:   9    -0.319335517960E+03    0.20033E-03   -0.24182E-03 34064   0.151E-01    0.259E-01
DAV:  10    -0.319335449768E+03    0.68191E-04   -0.81045E-04 35872   0.924E-02    0.176E-01
DAV:  11    -0.319335401491E+03    0.48277E-04   -0.39710E-04 32176   0.592E-02    0.993E-02
DAV:  12    -0.319335374767E+03    0.26724E-04   -0.99117E-05 29584   0.349E-02    0.722E-02
DAV:  13    -0.319335354484E+03    0.20283E-04   -0.62436E-05 24320   0.243E-02    0.436E-02
DAV:  14    -0.319335337021E+03    0.17463E-04   -0.41047E-05 21936   0.179E-02    0.443E-02
DAV:  15    -0.319335317054E+03    0.19967E-04   -0.20782E-05 21040   0.138E-02    0.232E-02
DAV:  16    -0.319335308119E+03    0.89346E-05   -0.96006E-06 20432   0.905E-03
   2 F= -.31933531E+03 E0= -.31932849E+03  d E =-.319188E-01  mag=    37.1524
       N       E                     dE             d eps       ncg     rms          rms(c)
DAV:   1    -0.319335324540E+03   -0.74864E-05   -0.38300E-04 34224   0.639E-02    0.286E-02
DAV:   2    -0.319335327121E+03   -0.25810E-05   -0.71084E-05 29456   0.255E-02    0.833E-02
DAV:   3    -0.319335319751E+03    0.73707E-05   -0.49885E-05 23456   0.209E-02    0.254E-02
DAV:   4    -0.319335319858E+03   -0.10737E-06   -0.78751E-06 19440   0.826E-03    0.190E-02
DAV:   5    -0.319335318890E+03    0.96808E-06   -0.46380E-06 19200   0.751E-03    0.129E-02
DAV:   6    -0.319335318558E+03    0.33231E-06   -0.27512E-06 18544   0.473E-03
   3 F= -.31933532E+03 E0= -.31932850E+03  d E =-.319292E-01  mag=    37.1524
       N       E                     dE             d eps       ncg     rms          rms(c)
DAV:   1    -0.319337335180E+03   -0.20163E-02   -0.30120E+00 31904   0.482E+00    0.141E+00
DAV:   2    -0.319364714178E+03   -0.27379E-01   -0.21101E-01 34016   0.145E+00    0.432E+00
DAV:   3    -0.319344166091E+03    0.20548E-01   -0.81721E-02 33792   0.102E+00    0.118E+00
DAV:   4    -0.319344789033E+03   -0.62294E-03   -0.17187E-02 31952   0.366E-01    0.916E-01
DAV:   5    -0.319343941717E+03    0.84732E-03   -0.95540E-03 34528   0.255E-01    0.551E-01
DAV:   6    -0.319343854038E+03    0.87679E-04   -0.50865E-03 34544   0.195E-01    0.598E-01
DAV:   7    -0.319343523668E+03    0.33037E-03   -0.26168E-03 34400   0.142E-01    0.281E-01
DAV:   8    -0.319343471008E+03    0.52660E-04   -0.10148E-03 33520   0.942E-02    0.183E-01
DAV:   9    -0.319343431599E+03    0.39409E-04   -0.30818E-04 32736   0.565E-02    0.910E-02
DAV:  10    -0.319343419122E+03    0.12478E-04   -0.10028E-04 28496   0.352E-02    0.491E-02
DAV:  11    -0.319343412109E+03    0.70124E-05   -0.26202E-05 21984   0.184E-02
   4 F= -.31934341E+03 E0= -.31933717E+03  d E =-.809355E-02  mag=    37.0754
       N       E                     dE             d eps       ncg     rms          rms(c)
DAV:   1    -0.319339687417E+03    0.37317E-02   -0.45513E+00 31920   0.592E+00    0.158E+00
DAV:   2    -0.319377424093E+03   -0.37737E-01   -0.29370E-01 34080   0.170E+00    0.474E+00
DAV:   3    -0.319350376003E+03    0.27048E-01   -0.85533E-02 34768   0.114E+00    0.138E+00
DAV:   4    -0.319351323465E+03   -0.94746E-03   -0.27427E-02 32656   0.472E-01    0.119E+00
DAV:   5    -0.319349454484E+03    0.18690E-02   -0.15481E-02 34000   0.325E-01    0.504E-01
DAV:   6    -0.319349253307E+03    0.20118E-03   -0.52171E-03 33824   0.217E-01    0.499E-01
DAV:   7    -0.319348949646E+03    0.30366E-03   -0.30483E-03 35392   0.160E-01    0.260E-01
DAV:   8    -0.319348900361E+03    0.49284E-04   -0.11532E-03 34208   0.101E-01    0.203E-01
DAV:   9    -0.319348841143E+03    0.59219E-04   -0.41303E-04 33664   0.653E-02    0.949E-02
DAV:  10    -0.319348828734E+03    0.12409E-04   -0.10815E-04 29664   0.372E-02    0.548E-02
DAV:  11    -0.319348820018E+03    0.87157E-05   -0.40147E-05 23328   0.224E-02
   5 F= -.31934882E+03 E0= -.31934302E+03  d E =-.135015E-01  mag=    36.9802
       N       E                     dE             d eps       ncg     rms          rms(c)
DAV:   1    -0.319347540949E+03    0.12878E-02   -0.91230E-01 31952   0.265E+00    0.681E-01
DAV:   2    -0.319355480431E+03   -0.79395E-02   -0.57179E-02 34240   0.750E-01    0.219E+00
DAV:   3    -0.319349504897E+03    0.59755E-02   -0.16170E-02 35120   0.505E-01    0.605E-01
DAV:   4    -0.319349855135E+03   -0.35024E-03   -0.57826E-03 32320   0.213E-01    0.503E-01
DAV:   5    -0.319349475907E+03    0.37923E-03   -0.32617E-03 34256   0.146E-01    0.212E-01
DAV:   6    -0.319349425570E+03    0.50337E-04   -0.87132E-04 34688   0.913E-02    0.193E-01
DAV:   7    -0.319349372627E+03    0.52944E-04   -0.50512E-04 34720   0.687E-02    0.100E-01
DAV:   8    -0.319349363921E+03    0.87058E-05   -0.21092E-04 30768   0.420E-02    0.920E-02
DAV:   9    -0.319349350224E+03    0.13697E-04   -0.81886E-05 25024   0.292E-02    0.400E-02
DAV:  10    -0.319349347709E+03    0.25143E-05   -0.18443E-05 21712   0.159E-02
   6 F= -.31934935E+03 E0= -.31934363E+03  d E =-.140292E-01  mag=    36.9328
       N       E                     dE             d eps       ncg     rms          rms(c)
DAV:   1    -0.319350462787E+03   -0.11126E-02   -0.10260E+00 32512   0.267E+00    0.714E-01
DAV:   2    -0.319362961017E+03   -0.12498E-01   -0.59851E-02 35120   0.788E-01    0.276E+00
DAV:   3    -0.319353003575E+03    0.99574E-02   -0.20588E-02 34288   0.584E-01    0.508E-01
DAV:   4    -0.319353663273E+03   -0.65970E-03   -0.55641E-03 32000   0.211E-01    0.431E-01
DAV:   5    -0.319353355844E+03    0.30743E-03   -0.20797E-03 33888   0.125E-01    0.146E-01
DAV:   6    -0.319353339169E+03    0.16675E-04   -0.55546E-04 34944   0.766E-02    0.179E-01
DAV:   7    -0.319353287895E+03    0.51274E-04   -0.37272E-04 34400   0.609E-02    0.952E-02
DAV:   8    -0.319353277913E+03    0.99817E-05   -0.14438E-04 29296   0.355E-02    0.731E-02
DAV:   9    -0.319353269711E+03    0.82019E-05   -0.57704E-05 24336   0.248E-02
   7 F= -.31935327E+03 E0= -.31934761E+03  d E =-.392200E-02  mag=    36.8893
       N       E                     dE             d eps       ncg     rms          rms(c)
DAV:   1    -0.319334761443E+03    0.18516E-01   -0.92292E+00 31936   0.801E+00    0.221E+00
DAV:   2    -0.319472483914E+03   -0.13772E+00   -0.58246E-01 35744   0.253E+00    0.845E+00
DAV:   3    -0.319354660986E+03    0.11782E+00   -0.18629E-01 34640   0.182E+00    0.113E+00
DAV:   4    -0.319361836246E+03   -0.71753E-02   -0.35632E-02 32368   0.566E-01    0.102E+00
DAV:   5    -0.319360188936E+03    0.16473E-02   -0.12890E-02 34384   0.348E-01    0.420E-01
DAV:   6    -0.319359953324E+03    0.23561E-03   -0.47798E-03 34976   0.223E-01    0.543E-01
DAV:   7    -0.319359530544E+03    0.42278E-03   -0.30966E-03 36672   0.182E-01    0.251E-01
DAV:   8    -0.319359498071E+03    0.32473E-04   -0.13031E-03 34640   0.110E-01    0.213E-01
DAV:   9    -0.319359445933E+03    0.52138E-04   -0.46686E-04 33680   0.673E-02    0.777E-02
DAV:  10    -0.319359440637E+03    0.52964E-05   -0.11947E-04 29536   0.399E-02    0.883E-02
DAV:  11    -0.319359422807E+03    0.17830E-04   -0.67893E-05 25296   0.271E-02    0.710E-02
DAV:  12    -0.319359405084E+03    0.17723E-04   -0.39533E-05 22144   0.197E-02    0.359E-02
DAV:  13    -0.319359401027E+03    0.40565E-05   -0.22425E-05 21040   0.159E-02
   8 F= -.31935940E+03 E0= -.31935364E+03  d E =-.100533E-01  mag=    36.7743
       N       E                     dE             d eps       ncg     rms          rms(c)
DAV:   1    -0.319360869774E+03   -0.14647E-02   -0.32348E-01 37296   0.219E+00    0.325E-01
DAV:   2    -0.319364012937E+03   -0.31432E-02   -0.31735E-02 33280   0.435E-01    0.613E-01
DAV:   3    -0.319363975934E+03    0.37003E-04   -0.28815E-03 34080   0.216E-01    0.539E-01
DAV:   4    -0.319363741540E+03    0.23439E-03   -0.95475E-04 33760   0.118E-01    0.264E-01
DAV:   5    -0.319363707616E+03    0.33925E-04   -0.69016E-04 32832   0.775E-02    0.118E-01
DAV:   6    -0.319363690349E+03    0.17267E-04   -0.24724E-04 33392   0.552E-02    0.133E-01
DAV:   7    -0.319363667567E+03    0.22782E-04   -0.21024E-04 32688   0.477E-02    0.784E-02
DAV:   8    -0.319363663039E+03    0.45284E-05   -0.71148E-05 23856   0.252E-02
   9 F= -.31936366E+03 E0= -.31935791E+03  d E =-.426201E-02  mag=    36.7566
       N       E                     dE             d eps       ncg     rms          rms(c)
DAV:   1    -0.319342630479E+03    0.21037E-01   -0.26877E+00 36416   0.635E+00    0.948E-01
DAV:   2    -0.319370309734E+03   -0.27679E-01   -0.29027E-01 32880   0.127E+00    0.133E+00
DAV:   3    -0.319372186801E+03   -0.18771E-02   -0.25003E-02 33888   0.597E-01    0.166E+00
DAV:   4    -0.319369526051E+03    0.26608E-02   -0.61598E-03 34064   0.332E-01    0.804E-01
DAV:   5    -0.319369170129E+03    0.35592E-03   -0.50651E-03 32672   0.218E-01    0.341E-01
DAV:   6    -0.319369035401E+03    0.13473E-03   -0.20792E-03 35648   0.162E-01    0.380E-01
DAV:   7    -0.319368848633E+03    0.18677E-03   -0.17305E-03 38096   0.141E-01    0.217E-01
DAV:   8    -0.319368837811E+03    0.10822E-04   -0.60916E-04 33664   0.723E-02    0.144E-01
DAV:   9    -0.319368822278E+03    0.15533E-04   -0.27739E-04 31968   0.513E-02    0.743E-02
DAV:  10    -0.319368821687E+03    0.59094E-06   -0.95745E-05 24336   0.300E-02
  10 F= -.31936882E+03 E0= -.31936307E+03  d E =-.942066E-02  mag=    36.7260
       N       E                     dE             d eps       ncg     rms          rms(c)
DAV:   1    -0.319369004946E+03   -0.18267E-03   -0.58898E-01 35472   0.255E+00    0.446E-01
DAV:   2    -0.319373270548E+03   -0.42656E-02   -0.46900E-02 33440   0.537E-01    0.912E-01
DAV:   3    -0.319373012770E+03    0.25778E-03   -0.57986E-03 34640   0.303E-01    0.704E-01
DAV:   4    -0.319372707242E+03    0.30553E-03   -0.22537E-03 33968   0.175E-01    0.425E-01
DAV:   5    -0.319372544142E+03    0.16310E-03   -0.18083E-03 33200   0.123E-01    0.141E-01
DAV:   6    -0.319372550579E+03   -0.64368E-05   -0.39552E-04 34544   0.663E-02    0.156E-01
DAV:   7    -0.319372516446E+03    0.34133E-04   -0.26269E-04 33568   0.522E-02    0.825E-02
DAV:   8    -0.319372512975E+03    0.34710E-05   -0.82808E-05 24736   0.266E-02
  11 F= -.31937251E+03 E0= -.31936675E+03  d E =-.369129E-02  mag=    36.7038
       N       E                     dE             d eps       ncg     rms          rms(c)
DAV:   1    -0.319348900882E+03    0.23616E-01   -0.48832E+00 35744   0.732E+00    0.127E+00
DAV:   2    -0.319382508798E+03   -0.33608E-01   -0.37469E-01 33248   0.152E+00    0.248E+00
DAV:   3    -0.319381234566E+03    0.12742E-02   -0.44968E-02 34544   0.842E-01    0.189E+00
DAV:   4    -0.319378246805E+03    0.29878E-02   -0.15118E-02 34400   0.470E-01    0.111E+00
DAV:   5    -0.319377027454E+03    0.12194E-02   -0.13701E-02 33600   0.339E-01    0.452E-01
DAV:   6    -0.319376980599E+03    0.46855E-04   -0.32095E-03 35184   0.190E-01    0.439E-01
DAV:   7    -0.319376735062E+03    0.24554E-03   -0.19780E-03 36544   0.149E-01    0.243E-01
DAV:   8    -0.319376710692E+03    0.24371E-04   -0.65401E-04 33856   0.737E-02    0.180E-01
DAV:   9    -0.319376690765E+03    0.19926E-04   -0.46465E-04 32928   0.619E-02    0.827E-02
DAV:  10    -0.319376692781E+03   -0.20153E-05   -0.11086E-04 25984   0.324E-02    0.605E-02
DAV:  11    -0.319376687875E+03    0.49055E-05   -0.49323E-05 23664   0.243E-02
  12 F= -.31937669E+03 E0= -.31937093E+03  d E =-.786619E-02  mag=    36.6421
       N       E                     dE             d eps       ncg     rms          rms(c)
DAV:   1    -0.319377235815E+03   -0.54303E-03   -0.58608E-01 33328   0.239E+00    0.488E-01
DAV:   2    -0.319382243330E+03   -0.50075E-02   -0.36952E-02 33936   0.574E-01    0.175E+00
DAV:   3    -0.319378869666E+03    0.33737E-02   -0.69183E-03 34576   0.363E-01    0.472E-01
DAV:   4    -0.319379166333E+03   -0.29667E-03   -0.19887E-03 31888   0.154E-01    0.296E-01
DAV:   5    -0.319379061611E+03    0.10472E-03   -0.13982E-03 34768   0.987E-02    0.178E-01
DAV:   6    -0.319379036006E+03    0.25605E-04   -0.37964E-04 34048   0.579E-02    0.120E-01
DAV:   7    -0.319379023736E+03    0.12270E-04   -0.21739E-04 33168   0.461E-02    0.713E-02
DAV:   8    -0.319379019188E+03    0.45483E-05   -0.82681E-05 24496   0.278E-02
  13 F= -.31937902E+03 E0= -.31937328E+03  d E =-.233131E-02  mag=    36.6191
       N       E                     dE             d eps       ncg     rms          rms(c)
DAV:   1    -0.319370374618E+03    0.86491E-02   -0.35808E+00 33344   0.590E+00    0.119E+00
DAV:   2    -0.319400128654E+03   -0.29754E-01   -0.22541E-01 34048   0.142E+00    0.405E+00
DAV:   3    -0.319381289134E+03    0.18840E-01   -0.40078E-02 34176   0.881E-01    0.110E+00
DAV:   4    -0.319382039979E+03   -0.75085E-03   -0.10959E-02 32080   0.349E-01    0.706E-01
DAV:   5    -0.319381445570E+03    0.59441E-03   -0.79008E-03 34672   0.235E-01    0.419E-01
DAV:   6    -0.319381305057E+03    0.14051E-03   -0.22009E-03 35392   0.142E-01    0.288E-01
DAV:   7    -0.319381241427E+03    0.63629E-04   -0.13036E-03 35168   0.113E-01    0.181E-01
DAV:   8    -0.319381218912E+03    0.22515E-04   -0.49891E-04 33552   0.654E-02    0.127E-01
DAV:   9    -0.319381203122E+03    0.15791E-04   -0.28060E-04 31504   0.486E-02    0.769E-02
DAV:  10    -0.319381197876E+03    0.52455E-05   -0.10016E-04 24944   0.292E-02    0.503E-02
DAV:  11    -0.319381193887E+03    0.39887E-05   -0.43882E-05 22592   0.194E-02
  14 F= -.31938119E+03 E0= -.31937549E+03  d E =-.450601E-02  mag=    36.5721
       N       E                     dE             d eps       ncg     rms          rms(c)
DAV:   1    -0.319378383043E+03    0.28148E-02   -0.11174E+00 34080   0.360E+00    0.701E-01
DAV:   2    -0.319387771950E+03   -0.93889E-02   -0.85250E-02 34432   0.818E-01    0.214E+00
DAV:   3    -0.319383175123E+03    0.45968E-02   -0.11557E-02 34192   0.476E-01    0.746E-01
DAV:   4    -0.319383040325E+03    0.13480E-03   -0.30558E-03 32208   0.209E-01    0.310E-01
DAV:   5    -0.319382955055E+03    0.85269E-04   -0.21364E-03 36224   0.143E-01    0.251E-01
DAV:   6    -0.319382887668E+03    0.67387E-04   -0.72188E-04 35344   0.835E-02    0.133E-01
DAV:   7    -0.319382881083E+03    0.65848E-05   -0.34987E-04 34256   0.557E-02    0.121E-01
DAV:   8    -0.319382866445E+03    0.14638E-04   -0.19078E-04 30864   0.386E-02    0.625E-02
DAV:   9    -0.319382863761E+03    0.26841E-05   -0.74328E-05 24928   0.269E-02
  15 F= -.31938286E+03 E0= -.31937723E+03  d E =-.166987E-02  mag=    36.5457
       N       E                     dE             d eps       ncg     rms          rms(c)
DAV:   1    -0.319382793376E+03    0.73069E-04   -0.25527E-02 33968   0.544E-01    0.106E-01
DAV:   2    -0.319382974834E+03   -0.18146E-03   -0.19555E-03 34752   0.122E-01    0.270E-01
DAV:   3    -0.319382902593E+03    0.72242E-04   -0.25974E-04 34416   0.686E-02    0.139E-01
DAV:   4    -0.319382901724E+03    0.86881E-06   -0.11035E-04 30352   0.392E-02    0.747E-02
DAV:   5    -0.319382896735E+03    0.49884E-05   -0.83257E-05 24096   0.265E-02    0.356E-02
DAV:   6    -0.319382896143E+03    0.59236E-06   -0.33107E-05 21808   0.160E-02
  16 F= -.31938290E+03 E0= -.31937727E+03  d E =-.170226E-02  mag=    36.5389
       N       E                     dE             d eps       ncg     rms          rms(c)
DAV:   1    -0.319382348458E+03    0.54828E-03   -0.30672E-01 35296   0.182E+00    0.253E-01
DAV:   2    -0.319384170491E+03   -0.18220E-02   -0.18115E-02 33584   0.356E-01    0.564E-01
DAV:   3    -0.319383969004E+03    0.20149E-03   -0.15569E-03 34096   0.167E-01    0.364E-01
DAV:   4    -0.319383878429E+03    0.90575E-04   -0.49420E-04 32432   0.878E-02    0.154E-01
DAV:   5    -0.319383869729E+03    0.86999E-05   -0.40118E-04 32688   0.554E-02    0.103E-01
DAV:   6    -0.319383856100E+03    0.13629E-04   -0.21139E-04 32000   0.413E-02    0.105E-01
DAV:   7    -0.319383843857E+03    0.12244E-04   -0.10518E-04 26144   0.305E-02    0.563E-02
DAV:   8    -0.319383841430E+03    0.24269E-05   -0.29646E-05 21536   0.173E-02
  17 F= -.31938384E+03 E0= -.31937825E+03  d E =-.945287E-03  mag=    36.5281
       N       E                     dE             d eps       ncg     rms          rms(c)
DAV:   1    -0.319378443540E+03    0.54003E-02   -0.12286E+00 35280   0.364E+00    0.504E-01
DAV:   2    -0.319385787493E+03   -0.73440E-02   -0.72654E-02 33568   0.712E-01    0.113E+00
DAV:   3    -0.319385003061E+03    0.78443E-03   -0.61568E-03 34112   0.331E-01    0.689E-01
DAV:   4    -0.319384618476E+03    0.38459E-03   -0.17531E-03 32720   0.166E-01    0.280E-01
DAV:   5    -0.319384582119E+03    0.36357E-04   -0.14974E-03 33808   0.107E-01    0.214E-01
DAV:   6    -0.319384524822E+03    0.57297E-04   -0.78295E-04 34336   0.811E-02    0.203E-01
DAV:   7    -0.319384486587E+03    0.38236E-04   -0.40801E-04 34688   0.569E-02    0.123E-01
DAV:   8    -0.319384472360E+03    0.14226E-04   -0.11844E-04 28272   0.338E-02    0.594E-02
DAV:   9    -0.319384475783E+03   -0.34231E-05   -0.53583E-05 24000   0.235E-02
  18 F= -.31938448E+03 E0= -.31937898E+03  d E =-.157964E-02  mag=    36.5096
       N       E                     dE             d eps       ncg     rms          rms(c)
DAV:   1    -0.319383722535E+03    0.74982E-03   -0.28230E-01 33792   0.165E+00    0.204E-01
DAV:   2    -0.319385167579E+03   -0.14450E-02   -0.15603E-02 33456   0.318E-01    0.306E-01
DAV:   3    -0.319385223761E+03   -0.56183E-04   -0.12319E-03 34592   0.134E-01    0.311E-01
DAV:   4    -0.319385112972E+03    0.11079E-03   -0.30384E-04 34576   0.752E-02    0.180E-01
DAV:   5    -0.319385091213E+03    0.21759E-04   -0.21453E-04 30592   0.476E-02    0.716E-02
DAV:   6    -0.319385087718E+03    0.34948E-05   -0.15113E-04 32112   0.345E-02    0.980E-02
DAV:   7    -0.319385075653E+03    0.12065E-04   -0.94192E-05 25344   0.270E-02    0.414E-02
DAV:   8    -0.319385075179E+03    0.47427E-06   -0.22573E-05 20960   0.159E-02
  19 F= -.31938508E+03 E0= -.31937959E+03  d E =-.599395E-03  mag=    36.5020
       N       E                     dE             d eps       ncg     rms          rms(c)
DAV:   1    -0.319381030387E+03    0.40453E-02   -0.92296E-01 33808   0.299E+00    0.372E-01
DAV:   2    -0.319385833577E+03   -0.48032E-02   -0.51260E-02 33520   0.579E-01    0.620E-01
DAV:   3    -0.319385890699E+03   -0.57122E-04   -0.42609E-03 34800   0.245E-01    0.534E-01
DAV:   4    -0.319385587499E+03    0.30320E-03   -0.99909E-04 34064   0.135E-01    0.325E-01
DAV:   5    -0.319385500140E+03    0.87359E-04   -0.73898E-04 33392   0.869E-02    0.119E-01
DAV:   6    -0.319385482667E+03    0.17473E-04   -0.40028E-04 33696   0.603E-02    0.163E-01
DAV:   7    -0.319385452859E+03    0.29808E-04   -0.29032E-04 32944   0.465E-02    0.821E-02
DAV:   8    -0.319385449485E+03    0.33744E-05   -0.73492E-05 24352   0.271E-02
  20 F= -.31938545E+03 E0= -.31938000E+03  d E =-.973701E-03  mag=    36.4931
       N       E                     dE             d eps       ncg     rms          rms(c)
DAV:   1    -0.319383608201E+03    0.18447E-02   -0.45069E-01 35760   0.224E+00    0.258E-01
DAV:   2    -0.319386253747E+03   -0.26455E-02   -0.28392E-02 32944   0.428E-01    0.344E-01
DAV:   3    -0.319386295431E+03   -0.41685E-04   -0.26778E-03 34336   0.165E-01    0.270E-01
DAV:   4    -0.319386225241E+03    0.70191E-04   -0.53631E-04 33760   0.787E-02    0.176E-01
DAV:   5    -0.319386196614E+03    0.28627E-04   -0.16716E-04 31984   0.486E-02    0.119E-01
DAV:   6    -0.319386174334E+03    0.22280E-04   -0.14167E-04 32896   0.438E-02    0.106E-01
DAV:   7    -0.319386160481E+03    0.13853E-04   -0.13241E-04 29392   0.335E-02    0.440E-02
DAV:   8    -0.319386161044E+03   -0.56305E-06   -0.38806E-05 22960   0.191E-02
  21 F= -.31938616E+03 E0= -.31938073E+03  d E =-.711559E-03  mag=    36.4881
       N       E                     dE             d eps       ncg     rms          rms(c)
DAV:   1    -0.319381298212E+03    0.48623E-02   -0.90739E-01 35488   0.318E+00    0.371E-01
DAV:   2    -0.319386673676E+03   -0.53755E-02   -0.57484E-02 32800   0.610E-01    0.505E-01
DAV:   3    -0.319386740594E+03   -0.66918E-04   -0.52031E-03 34288   0.236E-01    0.388E-01
DAV:   4    -0.319386610097E+03    0.13050E-03   -0.96616E-04 33952   0.113E-01    0.271E-01
DAV:   5    -0.319386530445E+03    0.79652E-04   -0.36367E-04 33376   0.707E-02    0.154E-01
DAV:   6    -0.319386498472E+03    0.31973E-04   -0.31742E-04 33216   0.621E-02    0.160E-01
DAV:   7    -0.319386465919E+03    0.32553E-04   -0.30134E-04 34208   0.477E-02    0.620E-02
DAV:   8    -0.319386466640E+03   -0.72165E-06   -0.65401E-05 24448   0.257E-02
  22 F= -.31938647E+03 E0= -.31938106E+03  d E =-.101716E-02  mag=    36.4828
       N       E                     dE             d eps       ncg     rms          rms(c)
DAV:   1    -0.319384408795E+03    0.20571E-02   -0.59126E-01 34304   0.238E+00    0.274E-01
DAV:   2    -0.319387347375E+03   -0.29386E-02   -0.30879E-02 32320   0.457E-01    0.463E-01
DAV:   3    -0.319387278880E+03    0.68494E-04   -0.29665E-03 33952   0.189E-01    0.295E-01
DAV:   4    -0.319387255470E+03    0.23410E-04   -0.47054E-04 34528   0.876E-02    0.273E-01
DAV:   5    -0.319387153181E+03    0.10229E-03   -0.29414E-04 32768   0.621E-02    0.804E-02
DAV:   6    -0.319387154454E+03   -0.12732E-05   -0.16353E-04 32688   0.414E-02    0.109E-01
DAV:   7    -0.319387137137E+03    0.17318E-04   -0.16171E-04 29664   0.344E-02    0.445E-02
DAV:   8    -0.319387137462E+03   -0.32548E-06   -0.39541E-05 22976   0.198E-02
  23 F= -.31938714E+03 E0= -.31938175E+03  d E =-.670822E-03  mag=    36.4798
       N       E                     dE             d eps       ncg     rms          rms(c)
DAV:   1    -0.319380694993E+03    0.64421E-02   -0.14645E+00 34336   0.375E+00    0.439E-01
DAV:   2    -0.319388068993E+03   -0.73740E-02   -0.77202E-02 32096   0.725E-01    0.788E-01
DAV:   3    -0.319387780438E+03    0.28855E-03   -0.78610E-03 33776   0.308E-01    0.451E-01
DAV:   4    -0.319387761397E+03    0.19041E-04   -0.12199E-03 34528   0.139E-01    0.435E-01
DAV:   5    -0.319387498591E+03    0.26281E-03   -0.76917E-04 33280   0.993E-02    0.129E-01
DAV:   6    -0.319387504710E+03   -0.61189E-05   -0.42512E-04 33264   0.652E-02    0.181E-01
DAV:   7    -0.319387457645E+03    0.47065E-04   -0.41966E-04 34880   0.552E-02    0.676E-02
DAV:   8    -0.319387458579E+03   -0.93439E-06   -0.88820E-05 27536   0.299E-02
  24 F= -.31938746E+03 E0= -.31938209E+03  d E =-.991939E-03  mag=    36.4766
       N       E                     dE             d eps       ncg     rms          rms(c)
DAV:   1    -0.319385044027E+03    0.24136E-02   -0.55243E-01 34944   0.241E+00    0.282E-01
DAV:   2    -0.319388350069E+03   -0.33060E-02   -0.31642E-02 33168   0.462E-01    0.645E-01
DAV:   3    -0.319388082287E+03    0.26778E-03   -0.28836E-03 34112   0.211E-01    0.342E-01
DAV:   4    -0.319388065811E+03    0.16476E-04   -0.77545E-04 34064   0.102E-01    0.238E-01
DAV:   5    -0.319388001682E+03    0.64129E-04   -0.37719E-04 32992   0.616E-02    0.624E-02
DAV:   6    -0.319387999195E+03    0.24862E-05   -0.85965E-05 32416   0.323E-02
  25 F= -.31938800E+03 E0= -.31938267E+03  d E =-.540616E-03  mag=    36.4708
       N       E                     dE             d eps       ncg     rms          rms(c)
DAV:   1    -0.319384738291E+03    0.32634E-02   -0.63635E-01 34624   0.259E+00    0.298E-01
DAV:   2    -0.319388446822E+03   -0.37085E-02   -0.36568E-02 32976   0.491E-01    0.602E-01
DAV:   3    -0.319388262537E+03    0.18429E-03   -0.31360E-03 34192   0.214E-01    0.337E-01
DAV:   4    -0.319388236290E+03    0.26247E-04   -0.67496E-04 34528   0.999E-02    0.264E-01
DAV:   5    -0.319388149661E+03    0.86629E-04   -0.43297E-04 33136   0.665E-02    0.687E-02
DAV:   6    -0.319388143651E+03    0.60101E-05   -0.75872E-05 33024   0.347E-02
  26 F= -.31938814E+03 E0= -.31938286E+03  d E =-.685071E-03  mag=    36.4627
       N       E                     dE             d eps       ncg     rms          rms(c)
DAV:   1    -0.319386833742E+03    0.13159E-02   -0.37228E-01 34032   0.187E+00    0.236E-01
DAV:   2    -0.319388922720E+03   -0.20890E-02   -0.19632E-02 33360   0.367E-01    0.574E-01
DAV:   3    -0.319388661060E+03    0.26166E-03   -0.17285E-03 34448   0.173E-01    0.269E-01
DAV:   4    -0.319388662924E+03   -0.18644E-05   -0.56055E-04 33216   0.854E-02    0.178E-01
DAV:   5    -0.319388621011E+03    0.41913E-04   -0.28770E-04 32432   0.509E-02    0.604E-02
DAV:   6    -0.319388616767E+03    0.42438E-05   -0.81292E-05 28912   0.302E-02
  27 F= -.31938862E+03 E0= -.31938337E+03  d E =-.473116E-03  mag=    36.4552
       N       E                     dE             d eps       ncg     rms          rms(c)
DAV:   1    -0.319372647506E+03    0.15974E-01   -0.33598E+00 33824   0.563E+00    0.720E-01
DAV:   2    -0.319391968543E+03   -0.19321E-01   -0.17947E-01 33392   0.111E+00    0.180E+00
DAV:   3    -0.319389498394E+03    0.24701E-02   -0.15939E-02 34544   0.521E-01    0.757E-01
DAV:   4    -0.319389347951E+03    0.15044E-03   -0.53871E-03 33616   0.251E-01    0.539E-01
DAV:   5    -0.319388940580E+03    0.40737E-03   -0.28507E-03 33744   0.148E-01    0.184E-01
DAV:   6    -0.319388862101E+03    0.78478E-04   -0.63884E-04 34768   0.906E-02    0.200E-01
DAV:   7    -0.319388841348E+03    0.20753E-04   -0.69690E-04 35568   0.802E-02    0.191E-01
DAV:   8    -0.319388799414E+03    0.41934E-04   -0.25327E-04 33136   0.492E-02    0.708E-02
DAV:   9    -0.319388804825E+03   -0.54105E-05   -0.75720E-05 25232   0.293E-02
  28 F= -.31938880E+03 E0= -.31938367E+03  d E =-.661174E-03  mag=    36.4349
       N       E                     dE             d eps       ncg     rms          rms(c)
DAV:   1    -0.319387039681E+03    0.17597E-02   -0.39984E-01 33856   0.194E+00    0.265E-01
DAV:   2    -0.319389477119E+03   -0.24374E-02   -0.21837E-02 33584   0.398E-01    0.668E-01
DAV:   3    -0.319388960417E+03    0.51670E-03   -0.23513E-03 34528   0.199E-01    0.240E-01
DAV:   4    -0.319389015040E+03   -0.54624E-04   -0.52426E-04 33392   0.822E-02    0.196E-01
DAV:   5    -0.319388955808E+03    0.59232E-04   -0.28664E-04 32576   0.514E-02    0.533E-02
DAV:   6    -0.319388948383E+03    0.74256E-05   -0.50678E-05 29776   0.277E-02
  29 F= -.31938895E+03 E0= -.31938379E+03  d E =-.804732E-03  mag=    36.4362
       N       E                     dE             d eps       ncg     rms          rms(c)
DAV:   1    -0.319386099336E+03    0.28565E-02   -0.68907E-01 34544   0.259E+00    0.326E-01
DAV:   2    -0.319390047862E+03   -0.39485E-02   -0.36694E-02 33360   0.507E-01    0.818E-01
DAV:   3    -0.319389464701E+03    0.58316E-03   -0.42719E-03 34496   0.249E-01    0.323E-01
DAV:   4    -0.319389510698E+03   -0.45997E-04   -0.83955E-04 33216   0.104E-01    0.254E-01
DAV:   5    -0.319389426169E+03    0.84528E-04   -0.44344E-04 33056   0.627E-02    0.659E-02
DAV:   6    -0.319389420110E+03    0.60596E-05   -0.10275E-04 33216   0.361E-02    0.810E-02
DAV:   7    -0.319389415700E+03    0.44093E-05   -0.10380E-04 28720   0.306E-02    0.655E-02
DAV:   8    -0.319389412082E+03    0.36183E-05   -0.51967E-05 22672   0.208E-02
  30 F= -.31938941E+03 E0= -.31938426E+03  d E =-.463699E-03  mag=    36.4300
       N       E                     dE             d eps       ncg     rms          rms(c)
DAV:   1    -0.319378986535E+03    0.10429E-01   -0.21846E+00 34528   0.461E+00    0.547E-01
DAV:   2    -0.319390854689E+03   -0.11868E-01   -0.11342E-01 33344   0.880E-01    0.124E+00
DAV:   3    -0.319389759204E+03    0.10955E-02   -0.11436E-02 34560   0.405E-01    0.524E-01
DAV:   4    -0.319389737231E+03    0.21973E-04   -0.18424E-03 34176   0.166E-01    0.396E-01
DAV:   5    -0.319389542295E+03    0.19494E-03   -0.12087E-03 33856   0.103E-01    0.127E-01
DAV:   6    -0.319389514430E+03    0.27865E-04   -0.31906E-04 33968   0.672E-02    0.140E-01
DAV:   7    -0.319389507515E+03    0.69155E-05   -0.36054E-04 34768   0.567E-02    0.129E-01
DAV:   8    -0.319389492117E+03    0.15398E-04   -0.13661E-04 27824   0.346E-02    0.458E-02
DAV:   9    -0.319389493884E+03   -0.17668E-05   -0.38128E-05 22896   0.209E-02
  31 F= -.31938949E+03 E0= -.31938440E+03  d E =-.545501E-03  mag=    36.4169
       N       E                     dE             d eps       ncg     rms          rms(c)
DAV:   1    -0.319388306944E+03    0.11852E-02   -0.26683E-01 34528   0.161E+00    0.201E-01
DAV:   2    -0.319389795844E+03   -0.14889E-02   -0.14116E-02 33312   0.314E-01    0.473E-01
DAV:   3    -0.319389589636E+03    0.20621E-03   -0.17728E-03 34544   0.154E-01    0.170E-01
DAV:   4    -0.319389605616E+03   -0.15981E-04   -0.15376E-04 32496   0.512E-02    0.134E-01
DAV:   5    -0.319389579712E+03    0.25904E-04   -0.10584E-04 28960   0.329E-02    0.410E-02
DAV:   6    -0.319389576074E+03    0.36385E-05   -0.30690E-05 22928   0.217E-02
  32 F= -.31938958E+03 E0= -.31938447E+03  d E =-.627691E-03  mag=    36.4179
       N       E                     dE             d eps       ncg     rms          rms(c)
DAV:   1    -0.319388446557E+03    0.11332E-02   -0.22973E-01 34544   0.150E+00    0.170E-01
DAV:   2    -0.319389661999E+03   -0.12154E-02   -0.11668E-02 33392   0.282E-01    0.362E-01
DAV:   3    -0.319389570911E+03    0.91089E-04   -0.10305E-03 34656   0.128E-01    0.175E-01
DAV:   4    -0.319389566929E+03    0.39818E-05   -0.16039E-04 32880   0.509E-02    0.124E-01
DAV:   5    -0.319389547708E+03    0.19221E-04   -0.97972E-05 28128   0.318E-02    0.391E-02
DAV:   6    -0.319389545049E+03    0.26587E-05   -0.29563E-05 23584   0.197E-02
  33 F= -.31938955E+03 E0= -.31938442E+03  d E =-.596666E-03  mag=    36.4212
       N       E                     dE             d eps       ncg     rms          rms(c)
DAV:   1    -0.319389268547E+03    0.27916E-03   -0.10652E-01 35776   0.112E+00    0.157E-01
DAV:   2    -0.319389951673E+03   -0.68313E-03   -0.77270E-03 33424   0.228E-01    0.276E-01
DAV:   3    -0.319389912265E+03    0.39408E-04   -0.13382E-03 33792   0.106E-01    0.148E-01
DAV:   4    -0.319389896944E+03    0.15320E-04   -0.17753E-04 32704   0.445E-02    0.104E-01
DAV:   5    -0.319389884024E+03    0.12920E-04   -0.41283E-05 26496   0.286E-02    0.609E-02
DAV:   6    -0.319389879340E+03    0.46840E-05   -0.36205E-05 23312   0.247E-02
  34 F= -.31938988E+03 E0= -.31938476E+03  d E =-.334291E-03  mag=    36.4232
