       N       E                     dE             d eps       ncg     rms          ort
DAV:   1     0.701992372445E+04    0.70199E+04   -0.26930E+05  8112   0.170E+03
DAV:   2     0.766266956331E+03   -0.62537E+04   -0.59576E+04  8112   0.510E+02
DAV:   3    -0.363380897185E+03   -0.11296E+04   -0.11079E+04  8112   0.210E+02
DAV:   4    -0.428893174197E+03   -0.65512E+02   -0.63091E+02  8112   0.530E+01
DAV:   5    -0.434496087898E+03   -0.56029E+01   -0.54195E+01  8112   0.127E+01
SDA:   6    -0.200820794607E+03    0.23368E+03   -0.54195E+01  8112   0.239E+04 0.000E+00
CGA:   7    -0.230253131851E+03   -0.29432E+02   -0.14568E+03  8112   0.462E+04-0.151E+04
CGA:   8    -0.721953376732E+02    0.15806E+03   -0.27674E+03  8112   0.111E+05-0.526E+04
CGA:   9     0.956867606051E+02    0.16788E+03   -0.73103E+03  8112   0.505E+04-0.387E+04
CGA:  10    -0.163090117983E+03   -0.25878E+03   -0.62603E+02  8112   0.102E+05 0.157E+05
CGA:  11     0.223814280452E+03    0.38690E+03   -0.64499E+03  8112   0.970E+04-0.578E+04
CGA:  12    -0.329841189709E+03   -0.55366E+03   -0.27504E+03  8112   0.275E+04-0.627E+04
CGA:  13    -0.305607013220E+03    0.24234E+02   -0.11338E+03  8112   0.320E+04-0.261E+04
CGA:  14    -0.285847433253E+03    0.19760E+02   -0.10665E+03  8112   0.256E+04-0.209E+04
CGA:  15    -0.234918491400E+03    0.50929E+02   -0.10027E+03  8112   0.487E+04-0.298E+04
CGA:  16    -0.152413706269E+03    0.82505E+02   -0.19779E+03  8112   0.126E+05-0.963E+04
CGA:  17     0.208058091261E+02    0.17322E+03   -0.72939E+03  8112   0.768E+04-0.636E+04
CGA:  18    -0.137338503829E+03   -0.15814E+03   -0.34405E+03  8112   0.625E+04-0.441E+04
CGA:  19    -0.123337239972E+03    0.14001E+02   -0.23057E+03  8112   0.870E+04-0.821E+04
CGA:  20     0.398040538465E+01    0.12732E+03   -0.44956E+03  8112   0.377E+04-0.277E+04
CGA:  21    -0.295973870339E+03   -0.29995E+03   -0.62228E+02  8112   0.406E+04 0.807E+04
CGA:  22    -0.311306804621E+03   -0.15333E+02   -0.10459E+03  8112   0.598E+04-0.609E+04
CGA:  23    -0.137932728593E+03    0.17337E+03   -0.25627E+03  8112   0.801E+04-0.389E+04
CGA:  24    -0.811865288884E+02    0.56746E+02   -0.27787E+03  8112   0.835E+04-0.743E+04
CGA:  25     0.327652056658E+00    0.81514E+02   -0.36984E+03  8112   0.281E+04-0.226E+04
CGA:  26    -0.258291813707E+03   -0.25862E+03   -0.36564E+02  8112   0.492E+04 0.718E+04
CGA:  27    -0.328004552353E+03   -0.69713E+02   -0.11188E+03  8112   0.386E+04-0.582E+04
CGA:  28    -0.251154709907E+03    0.76850E+02   -0.11934E+03  8112   0.106E+05-0.693E+04
CGA:  29    -0.144657598907E+03    0.10650E+03   -0.31642E+03  8112   0.864E+04-0.640E+04
CGA:  30    -0.882006699896E+00    0.14378E+03   -0.30972E+03  8112   0.203E+05-0.152E+05
CGA:  31    -0.748610750562E+02   -0.73979E+02   -0.69921E+03  8112   0.378E+04-0.404E+04
CGA:  32    -0.232279687135E+03   -0.15742E+03   -0.89127E+02  8112   0.237E+04-0.402E+04
CGA:  33    -0.363732242874E+03   -0.13145E+03   -0.33177E+02  8112   0.101E+04 0.228E+04
CGA:  34    -0.379418672098E+03   -0.15686E+02   -0.18192E+02  8112   0.444E+03-0.437E+03
CGA:  35    -0.381791934604E+03   -0.23733E+01   -0.42059E+01  8112   0.155E+03-0.500E+02
CGA:  36    -0.383104987035E+03   -0.13131E+01   -0.12519E+01  8112   0.359E+02-0.117E+00
CGA:  37    -0.383584540630E+03   -0.47955E+00   -0.43057E+00  8112   0.219E+02 0.393E+01
CGA:  38    -0.383871919477E+03   -0.28738E+00   -0.20238E+00  8112   0.104E+02 0.949E+01
CGA:  39    -0.384011810366E+03   -0.13989E+00   -0.11569E+00  8112   0.406E+01 0.258E+01
CGA:  40    -0.384070742076E+03   -0.58932E-01   -0.57541E-01  8112   0.509E+01 0.103E+00
CGA:  41    -0.384176960845E+03   -0.10622E+00   -0.10955E+00  8112   0.178E+02-0.120E+00
CGA:  42    -0.384393692514E+03   -0.21673E+00   -0.15387E+00  8112   0.244E+02 0.699E+01
CGA:  43    -0.384681779603E+03   -0.28809E+00   -0.18622E+00  8112   0.158E+02 0.175E+02
CGA:  44    -0.384910038340E+03   -0.22826E+00   -0.23160E+00  8112   0.407E+01-0.159E+00
CGA:  45    -0.384977503820E+03   -0.67465E-01   -0.70711E-01  8112   0.171E+01-0.133E+00
CGA:  46    -0.385175400393E+03   -0.19790E+00   -0.19110E+00  8112   0.565E+01 0.100E+00
CGA:  47    -0.385494301679E+03   -0.31890E+00   -0.31666E+00  8112   0.568E+01 0.422E+00
CGA:  48    -0.385654207561E+03   -0.15991E+00   -0.16661E+00  8112   0.160E+01-0.248E-01
CGA:  49    -0.385702138868E+03   -0.47931E-01   -0.47611E-01  8112   0.132E+01 0.398E-02
CGA:  50    -0.385757243480E+03   -0.55105E-01   -0.55091E-01  8112   0.145E+01-0.615E-03
CGA:  51    -0.385835142844E+03   -0.77899E-01   -0.77841E-01  8112   0.124E+01 0.358E-02
CGA:  52    -0.385866856441E+03   -0.31714E-01   -0.34295E-01  8112   0.538E+00-0.256E-01
CGA:  53    -0.385886996650E+03   -0.20140E-01   -0.20124E-01  8112   0.466E+00-0.181E-03
CGA:  54    -0.385917532457E+03   -0.30536E-01   -0.29334E-01  8112   0.583E+00 0.528E-01
CGA:  55    -0.385944808998E+03   -0.27277E-01   -0.27337E-01  8112   0.493E+00 0.319E-02
CGA:  56    -0.385960098428E+03   -0.15289E-01   -0.15676E-01  8112   0.140E+00 0.115E-02
CGA:  57    -0.385968208418E+03   -0.81100E-02   -0.80625E-02  8112   0.196E+00 0.279E-02
CGA:  58    -0.385978981100E+03   -0.10773E-01   -0.10751E-01  8112   0.260E+00 0.162E-02
CGA:  59    -0.385992814449E+03   -0.13833E-01   -0.13803E-01  8112   0.135E+00 0.303E-02
CGA:  60    -0.385997187757E+03   -0.43733E-02   -0.43894E-02  8112   0.718E-01-0.375E-03
CGA:  61    -0.386000795485E+03   -0.36077E-02   -0.36026E-02  8112   0.666E-01 0.702E-03
CGA:  62    -0.386005539845E+03   -0.47444E-02   -0.47559E-02  8112   0.103E+00-0.500E-03
CGA:  63    -0.386009000215E+03   -0.34604E-02   -0.34756E-02  8112   0.275E-01-0.193E-03
CGA:  64    -0.386010413270E+03   -0.14131E-02   -0.14132E-02  8112   0.331E-01-0.726E-04
CGA:  65    -0.386012071662E+03   -0.16584E-02   -0.16577E-02  8112   0.303E-01 0.922E-04
CGA:  66    -0.386013843684E+03   -0.17720E-02   -0.17723E-02  8112   0.234E-01-0.589E-04
CGA:  67    -0.386014622643E+03   -0.77896E-03   -0.77983E-03  8112   0.124E-01-0.437E-04
CGA:  68    -0.386015329952E+03   -0.70731E-03   -0.70813E-03  8112   0.127E-01-0.718E-04
CGA:  69    -0.386016067846E+03   -0.73789E-03   -0.73728E-03  8112   0.161E-01 0.330E-04
CGA:  70    -0.386016736492E+03   -0.66865E-03   -0.66869E-03  8112   0.659E-02 0.116E-05
CGA:  71    -0.386017032023E+03   -0.29553E-03   -0.29569E-03  8112   0.572E-02 0.315E-04
CGA:  72    -0.386017282913E+03   -0.25089E-03   -0.25096E-03  8112   0.400E-02 0.266E-04
CGA:  73    -0.386017594422E+03   -0.31151E-03   -0.30917E-03  8112   0.667E-02 0.793E-04
SDA:  74    -0.386017831902E+03   -0.23748E-03   -0.23815E-03  8112   0.213E-02 0.573E-04
CGA:  75    -0.386017879132E+03   -0.47230E-04   -0.47378E-04  8112   0.104E-02 0.118E-06
CGA:  76    -0.386017945196E+03   -0.66064E-04   -0.65837E-04  8112   0.112E-02 0.131E-04
CGA:  77    -0.386018108890E+03   -0.16369E-03   -0.15850E-03  8112   0.982E-03 0.565E-04
CGA:  78    -0.386018164944E+03   -0.56054E-04   -0.56012E-04  8112   0.144E-02 0.263E-04
CGA:  79    -0.386018286875E+03   -0.12193E-03   -0.11990E-03  8112   0.200E-02 0.711E-04
CGA:  80    -0.386018361739E+03   -0.74863E-04   -0.75713E-04  8112   0.131E-02 0.446E-04
CGA:  81    -0.386018406584E+03   -0.44846E-04   -0.45370E-04  8112   0.371E-03 0.272E-04
CGA:  82    -0.386018455810E+03   -0.49225E-04   -0.47515E-04  8112   0.428E-03 0.230E-04
CGA:  83    -0.386018495523E+03   -0.39713E-04   -0.39224E-04  8112   0.356E-03 0.156E-04
CGA:  84    -0.386018508607E+03   -0.13084E-04   -0.13220E-04  8112   0.361E-03 0.567E-05
CGA:  85    -0.386018527444E+03   -0.18837E-04   -0.18883E-04  8112   0.197E-03 0.943E-05
CGA:  86    -0.386018548299E+03   -0.20855E-04   -0.20298E-04  8112   0.210E-03 0.121E-04
CGA:  87    -0.386018566425E+03   -0.18126E-04   -0.17920E-04  8112   0.153E-03 0.897E-05
CGA:  88    -0.386018572851E+03   -0.64258E-05   -0.64590E-05  8112   0.108E-03 0.164E-05
CGA:  89    -0.386018584262E+03   -0.11411E-04   -0.11452E-04  8112   0.133E-03-0.117E-05
CGA:  90    -0.386018593948E+03   -0.96864E-05   -0.97491E-05  8112   0.163E-03-0.495E-05
   1 F= -.38601859E+03 E0= -.38599885E+03  d E =-.386019E+03  mag=    18.0000
       N       E                     dE             d eps       ncg     rms          ort
SDA:   1    -0.385411371004E+03    0.60721E+00    0.00000E+00  8112   0.450E+02 0.000E+00
CGA:   2    -0.386011379170E+03   -0.60001E+00   -0.63074E+00  8112   0.260E+00-0.196E+01
CGA:   3    -0.386016577721E+03   -0.51986E-02   -0.52211E-02  8112   0.381E-01-0.796E-03
CGA:   4    -0.386017716176E+03   -0.11385E-02   -0.11298E-02  8112   0.127E-01 0.131E-03
CGA:   5    -0.386018441008E+03   -0.72483E-03   -0.72489E-03  8112   0.185E-01-0.896E-05
CGA:   6    -0.386019377232E+03   -0.93622E-03   -0.93624E-03  8112   0.556E-02 0.628E-05
CGA:   7    -0.386019589362E+03   -0.21213E-03   -0.21233E-03  8112   0.452E-02 0.468E-05
CGA:   8    -0.386019794503E+03   -0.20514E-03   -0.20522E-03  8112   0.368E-02 0.647E-05
CGA:   9    -0.386020063584E+03   -0.26908E-03   -0.26895E-03  8112   0.165E-02 0.585E-05
CGA:  10    -0.386020102993E+03   -0.39409E-04   -0.39367E-04  8112   0.586E-03 0.162E-06
CGA:  11    -0.386020136028E+03   -0.33035E-04   -0.33045E-04  8112   0.414E-03-0.297E-05
CGA:  12    -0.386020163783E+03   -0.27755E-04   -0.27802E-04  8112   0.543E-03-0.320E-05
CGA:  13    -0.386020180169E+03   -0.16386E-04   -0.16346E-04  8112   0.168E-03-0.175E-05
CGA:  14    -0.386020188899E+03   -0.87305E-05   -0.87309E-05  8112   0.103E-03-0.341E-06
   2 F= -.38602019E+03 E0= -.38600045E+03  d E =-.159495E-02  mag=    18.0000
       N       E                     dE             d eps       ncg     rms          ort
SDA:   1    -0.385828906110E+03    0.19127E+00    0.00000E+00  8112   0.103E+01 0.000E+00
CGA:   2    -0.385873261329E+03   -0.44355E-01   -0.44489E-01  8112   0.144E+01 0.493E-02
CGA:   3    -0.385944011200E+03   -0.70750E-01   -0.70725E-01  8112   0.720E+00-0.444E-02
CGA:   4    -0.385971721094E+03   -0.27710E-01   -0.27732E-01  8112   0.345E+00 0.457E-03
CGA:   5    -0.385992283845E+03   -0.20563E-01   -0.20559E-01  8112   0.397E+00 0.344E-03
CGA:   6    -0.386018730900E+03   -0.26447E-01   -0.26442E-01  8112   0.144E+00 0.242E-03
CGA:   7    -0.386022476388E+03   -0.37455E-02   -0.37306E-02  8112   0.613E-01 0.307E-03
CGA:   8    -0.386024734611E+03   -0.22582E-02   -0.22614E-02  8112   0.246E-01 0.328E-04
CGA:   9    -0.386027413069E+03   -0.26785E-02   -0.26828E-02  8112   0.221E-01-0.744E-04
CGA:  10    -0.386028111657E+03   -0.69859E-03   -0.69850E-03  8112   0.935E-02-0.149E-05
CGA:  11    -0.386028495036E+03   -0.38338E-03   -0.38315E-03  8112   0.576E-02-0.406E-05
CGA:  12    -0.386028721341E+03   -0.22630E-03   -0.22632E-03  8112   0.493E-02 0.331E-05
CGA:  13    -0.386029053948E+03   -0.33261E-03   -0.33233E-03  8112   0.207E-02 0.146E-04
CGA:  14    -0.386029183451E+03   -0.12950E-03   -0.12945E-03  8112   0.159E-02 0.510E-05
CGA:  15    -0.386029230509E+03   -0.47058E-04   -0.47107E-04  8112   0.939E-03 0.253E-05
CGA:  16    -0.386029290242E+03   -0.59733E-04   -0.59687E-04  8112   0.856E-03 0.353E-05
CGA:  17    -0.386029338957E+03   -0.48715E-04   -0.48695E-04  8112   0.769E-03 0.364E-05
CGA:  18    -0.386029372152E+03   -0.33195E-04   -0.33225E-04  8112   0.264E-03 0.259E-05
CGA:  19    -0.386029386141E+03   -0.13989E-04   -0.13988E-04  8112   0.374E-03 0.417E-06
CGA:  20    -0.386029401606E+03   -0.15465E-04   -0.15463E-04  8112   0.223E-03-0.413E-06
CGA:  21    -0.386029418451E+03   -0.16844E-04   -0.16900E-04  8112   0.195E-03-0.233E-05
CGA:  22    -0.386029430865E+03   -0.12414E-04   -0.12444E-04  8112   0.178E-03-0.245E-05
CGA:  23    -0.386029435761E+03   -0.48959E-05   -0.48712E-05  8112   0.639E-04-0.102E-05
   3 F= -.38602944E+03 E0= -.38600974E+03  d E =-.924686E-02  mag=    18.0000
       N       E                     dE             d eps       ncg     rms          ort
SDA:   1    -0.384501143877E+03    0.15283E+01    0.00000E+00  8112   0.901E+01 0.000E+00
CGA:   2    -0.384794689622E+03   -0.29355E+00   -0.29592E+00  8112   0.934E+01-0.750E-02
CGA:   3    -0.385410067176E+03   -0.61538E+00   -0.61542E+00  8112   0.550E+01-0.672E-02
CGA:   4    -0.385581556264E+03   -0.17149E+00   -0.17374E+00  8112   0.248E+01-0.287E-01
CGA:   5    -0.385774126588E+03   -0.19257E+00   -0.19436E+00  8112   0.286E+01-0.531E-01
CGA:   6    -0.385955830996E+03   -0.18170E+00   -0.18127E+00  8112   0.767E+00 0.248E-01
CGA:   7    -0.385976108973E+03   -0.20278E-01   -0.20247E-01  8112   0.410E+00 0.758E-03
CGA:   8    -0.385994091380E+03   -0.17982E-01   -0.18025E-01  8112   0.218E+00 0.181E-02
CGA:   9    -0.386010541620E+03   -0.16450E-01   -0.16458E-01  8112   0.220E+00-0.244E-03
CGA:  10    -0.386018011812E+03   -0.74702E-02   -0.74423E-02  8112   0.492E-01 0.101E-03
CGA:  11    -0.386021063301E+03   -0.30515E-02   -0.30524E-02  8112   0.414E-01-0.553E-04
CGA:  12    -0.386022930784E+03   -0.18675E-02   -0.18697E-02  8112   0.475E-01 0.121E-03
CGA:  13    -0.386024730706E+03   -0.17999E-02   -0.18032E-02  8112   0.175E-01 0.453E-04
CGA:  14    -0.386025867592E+03   -0.11369E-02   -0.11362E-02  8112   0.112E-01 0.372E-04
CGA:  15    -0.386026334935E+03   -0.46734E-03   -0.46742E-03  8112   0.681E-02 0.696E-05
CGA:  16    -0.386026747045E+03   -0.41211E-03   -0.41207E-03  8112   0.746E-02 0.611E-05
CGA:  17    -0.386027090032E+03   -0.34299E-03   -0.34305E-03  8112   0.764E-02 0.892E-05
CGA:  18    -0.386027377987E+03   -0.28795E-03   -0.28845E-03  8112   0.232E-02 0.121E-04
CGA:  19    -0.386027574258E+03   -0.19627E-03   -0.19600E-03  8112   0.193E-02 0.744E-05
CGA:  20    -0.386027680354E+03   -0.10610E-03   -0.10610E-03  8112   0.262E-02-0.528E-06
CGA:  21    -0.386027829914E+03   -0.14956E-03   -0.14958E-03  8112   0.254E-02-0.441E-05
CGA:  22    -0.386027922003E+03   -0.92090E-04   -0.92050E-04  8112   0.138E-02-0.447E-05
CGA:  23    -0.386027981089E+03   -0.59085E-04   -0.59054E-04  8112   0.517E-03-0.318E-05
CGA:  24    -0.386028063440E+03   -0.82351E-04   -0.82384E-04  8112   0.107E-02-0.386E-06
CGA:  25    -0.386028094838E+03   -0.31398E-04   -0.31408E-04  8112   0.475E-03-0.790E-06
CGA:  26    -0.386028116006E+03   -0.21168E-04   -0.21163E-04  8112   0.328E-03-0.638E-06
CGA:  27    -0.386028131281E+03   -0.15275E-04   -0.15270E-04  8112   0.314E-03-0.926E-06
CGA:  28    -0.386028166047E+03   -0.34766E-04   -0.34982E-04  8112   0.159E-03-0.390E-05
CGA:  29    -0.386028172873E+03   -0.68260E-05   -0.68307E-05  8112   0.198E-03 0.210E-06
CGA:  30    -0.386028184199E+03   -0.11326E-04   -0.11326E-04  8112   0.196E-03 0.122E-05
CGA:  31    -0.386028194682E+03   -0.10483E-04   -0.10487E-04  8112   0.162E-03 0.101E-05
SDA:  32    -0.386028202548E+03   -0.78661E-05   -0.78662E-05  8112   0.902E-04 0.921E-08
   4 F= -.38602820E+03 E0= -.38600857E+03  d E =0.123321E-02  mag=    18.0000
       N       E                     dE             d eps       ncg     rms          ort
SDA:   1    -0.382014368704E+03    0.40138E+01    0.00000E+00  8112   0.122E+02 0.000E+00
CGA:   2    -0.384122801402E+03   -0.21084E+01   -0.21137E+01  8112   0.216E+02-0.377E-01
CGA:   3    -0.384798329563E+03   -0.67553E+00   -0.69127E+00  8112   0.719E+01-0.294E+00
CGA:   4    -0.385308680073E+03   -0.51035E+00   -0.51228E+00  8112   0.733E+01-0.105E+00
CGA:   5    -0.385796542304E+03   -0.48786E+00   -0.48805E+00  8112   0.209E+01-0.162E-01
CGA:   6    -0.385843128878E+03   -0.46587E-01   -0.46412E-01  8112   0.870E+00 0.659E-02
CGA:   7    -0.385902779097E+03   -0.59650E-01   -0.59631E-01  8112   0.775E+00 0.139E-02
CGA:   8    -0.385953030775E+03   -0.50252E-01   -0.50252E-01  8112   0.384E+00 0.346E-04
CGA:   9    -0.385964269686E+03   -0.11239E-01   -0.11152E-01  8112   0.905E-01 0.160E-02
CGA:  10    -0.385971669964E+03   -0.74003E-02   -0.74171E-02  8112   0.101E+00-0.562E-03
CGA:  11    -0.385978173559E+03   -0.65036E-02   -0.65009E-02  8112   0.122E+00 0.308E-03
CGA:  12    -0.385980996054E+03   -0.28225E-02   -0.28327E-02  8112   0.159E-01-0.267E-03
CGA:  13    -0.385982433216E+03   -0.14372E-02   -0.14326E-02  8112   0.250E-01 0.123E-03
CGA:  14    -0.385983769447E+03   -0.13362E-02   -0.13364E-02  8112   0.181E-01 0.223E-04
CGA:  15    -0.385984737670E+03   -0.96822E-03   -0.96846E-03  8112   0.640E-02 0.281E-04
CGA:  16    -0.385985149378E+03   -0.41171E-03   -0.41153E-03  8112   0.761E-02 0.211E-04
CGA:  17    -0.385985416191E+03   -0.26681E-03   -0.26720E-03  8112   0.632E-02 0.186E-05
CGA:  18    -0.385986017062E+03   -0.60087E-03   -0.60003E-03  8112   0.708E-02 0.208E-04
CGA:  19    -0.385986318634E+03   -0.30157E-03   -0.30119E-03  8112   0.320E-02-0.836E-06
CGA:  20    -0.385986487956E+03   -0.16932E-03   -0.16930E-03  8112   0.271E-02-0.256E-05
CGA:  21    -0.385986757690E+03   -0.26973E-03   -0.26998E-03  8112   0.332E-02-0.611E-05
CGA:  22    -0.385986852865E+03   -0.95175E-04   -0.95102E-04  8112   0.207E-02-0.254E-05
CGA:  23    -0.385987006110E+03   -0.15324E-03   -0.15328E-03  8112   0.114E-02-0.224E-05
CGA:  24    -0.385987060841E+03   -0.54732E-04   -0.54735E-04  8112   0.887E-03-0.155E-06
CGA:  25    -0.385987119230E+03   -0.58389E-04   -0.58363E-04  8112   0.949E-03 0.225E-05
CGA:  26    -0.385987194633E+03   -0.75403E-04   -0.75422E-04  8112   0.758E-03-0.889E-06
CGA:  27    -0.385987213334E+03   -0.18702E-04   -0.18695E-04  8112   0.322E-03-0.228E-06
CGA:  28    -0.385987240952E+03   -0.27618E-04   -0.27639E-04  8112   0.451E-03-0.881E-06
CGA:  29    -0.385987280312E+03   -0.39360E-04   -0.39396E-04  8112   0.469E-03-0.132E-05
CGA:  30    -0.385987295929E+03   -0.15617E-04   -0.15599E-04  8112   0.137E-03-0.685E-06
CGA:  31    -0.385987307270E+03   -0.11341E-04   -0.11379E-04  8112   0.325E-03-0.174E-05
SDA:  32    -0.385987321811E+03   -0.14541E-04   -0.14499E-04  8112   0.280E-03-0.259E-05
CGA:  33    -0.385987328524E+03   -0.67133E-05   -0.67138E-05  8112   0.902E-04 0.258E-07
   5 F= -.38598733E+03 E0= -.38596779E+03  d E =0.408740E-01  mag=    18.0000
       N       E                     dE             d eps       ncg     rms          ort
SDA:   1    -0.334897058428E+03    0.51090E+02    0.00000E+00  8112   0.646E+03 0.000E+00
CGA:   2    -0.350070514574E+03   -0.15173E+02   -0.14254E+02  8112   0.252E+03 0.723E+02
CGA:   3    -0.358933255591E+03   -0.88627E+01   -0.96085E+01  8112   0.434E+03-0.811E+01
CGA:   4    -0.360833669812E+03   -0.19004E+01   -0.79931E+01  8112   0.407E+03-0.322E+03
CGA:   5    -0.368731068813E+03   -0.78974E+01   -0.93513E+01  8112   0.376E+03-0.905E+02
CGA:   6    -0.369830806927E+03   -0.10997E+01   -0.69233E+01  8112   0.141E+03-0.585E+02
CGA:   7    -0.372959958667E+03   -0.31292E+01   -0.24740E+01  8112   0.123E+03 0.256E+02
CGA:   8    -0.375376194002E+03   -0.24162E+01   -0.25085E+01  8112   0.225E+03-0.997E+02
CGA:   9    -0.378120297957E+03   -0.27441E+01   -0.29193E+01  8112   0.398E+02-0.338E+02
CGA:  10    -0.378900474052E+03   -0.78018E+00   -0.88919E+00  8112   0.414E+02-0.111E+01
CGA:  11    -0.380989271098E+03   -0.20888E+01   -0.20915E+01  8112   0.769E+02-0.232E+00
CGA:  12    -0.383854985475E+03   -0.28657E+01   -0.29898E+01  8112   0.467E+02 0.841E+01
CGA:  13    -0.384791957652E+03   -0.93697E+00   -0.84907E+00  8112   0.656E+01 0.282E+01
CGA:  14    -0.385031447279E+03   -0.23949E+00   -0.24315E+00  8112   0.400E+01 0.124E+00
CGA:  15    -0.385148005677E+03   -0.11656E+00   -0.11679E+00  8112   0.412E+01 0.126E-02
CGA:  16    -0.385372389358E+03   -0.22438E+00   -0.21601E+00  8112   0.239E+01 0.548E+00
CGA:  17    -0.385502725413E+03   -0.13034E+00   -0.13052E+00  8112   0.218E+01-0.201E-01
CGA:  18    -0.385565958983E+03   -0.63234E-01   -0.64239E-01  8112   0.959E+00 0.665E-02
CGA:  19    -0.385592067702E+03   -0.26109E-01   -0.25886E-01  8112   0.425E+00 0.835E-03
CGA:  20    -0.385608767700E+03   -0.16700E-01   -0.16720E-01  8112   0.308E+00 0.456E-02
CGA:  21    -0.385634872206E+03   -0.26105E-01   -0.25807E-01  8112   0.208E+00 0.696E-02
CGA:  22    -0.385643942001E+03   -0.90698E-02   -0.90767E-02  8112   0.264E+00 0.495E-02
CGA:  23    -0.385653233127E+03   -0.92911E-02   -0.93023E-02  8112   0.985E-01 0.285E-03
CGA:  24    -0.385658083550E+03   -0.48504E-02   -0.48439E-02  8112   0.721E-01 0.626E-03
CGA:  25    -0.385661118569E+03   -0.30350E-02   -0.30352E-02  8112   0.682E-01 0.587E-04
CGA:  26    -0.385664678994E+03   -0.35604E-02   -0.35480E-02  8112   0.654E-01 0.920E-03
CGA:  27    -0.385666936871E+03   -0.22579E-02   -0.22671E-02  8112   0.327E-01 0.239E-03
CGA:  28    -0.385668798759E+03   -0.18619E-02   -0.18544E-02  8112   0.188E-01 0.417E-03
CGA:  29    -0.385669669017E+03   -0.87026E-03   -0.86995E-03  8112   0.266E-01 0.871E-04
CGA:  30    -0.385670855719E+03   -0.11867E-02   -0.11867E-02  8112   0.115E-01 0.619E-05
CGA:  31    -0.385671838956E+03   -0.98324E-03   -0.97542E-03  8112   0.139E-01 0.187E-03
CGA:  32    -0.385672323257E+03   -0.48430E-03   -0.48464E-03  8112   0.110E-01 0.149E-04
CGA:  33    -0.385672816127E+03   -0.49287E-03   -0.49290E-03  8112   0.524E-02 0.282E-04
CGA:  34    -0.385673308350E+03   -0.49222E-03   -0.49367E-03  8112   0.855E-02-0.307E-04
CGA:  35    -0.385673562290E+03   -0.25394E-03   -0.25475E-03  8112   0.384E-02-0.493E-05
CGA:  36    -0.385673763333E+03   -0.20104E-03   -0.20103E-03  8112   0.377E-02 0.213E-05
CGA:  37    -0.385673940887E+03   -0.17755E-03   -0.17755E-03  8112   0.271E-02 0.155E-04
CGA:  38    -0.385674085688E+03   -0.14480E-03   -0.14476E-03  8112   0.190E-02 0.643E-05
SDA:  39    -0.385674167856E+03   -0.82168E-04   -0.82194E-04  8112   0.231E-02 0.366E-05
CGA:  40    -0.385674208259E+03   -0.40403E-04   -0.40357E-04  8112   0.519E-03 0.488E-06
CGA:  41    -0.385674239955E+03   -0.31697E-04   -0.31731E-04  8112   0.738E-03-0.222E-05
CGA:  42    -0.385674318059E+03   -0.78104E-04   -0.78343E-04  8112   0.169E-02-0.439E-05
CGA:  43    -0.385674413139E+03   -0.95079E-04   -0.95079E-04  8112   0.853E-03-0.912E-07
CGA:  44    -0.385674463781E+03   -0.50642E-04   -0.50615E-04  8112   0.257E-03 0.252E-05
CGA:  45    -0.385674481385E+03   -0.17605E-04   -0.17597E-04  8112   0.531E-03 0.346E-06
CGA:  46    -0.385674501507E+03   -0.20122E-04   -0.20131E-04  8112   0.383E-03 0.525E-06
CGA:  47    -0.385674528106E+03   -0.26599E-04   -0.26621E-04  8112   0.110E-03-0.124E-05
CGA:  48    -0.385674542910E+03   -0.14804E-04   -0.15024E-04  8112   0.235E-03-0.280E-05
CGA:  49    -0.385674558606E+03   -0.15696E-04   -0.15730E-04  8112   0.282E-03-0.275E-05
CGA:  50    -0.385674570702E+03   -0.12096E-04   -0.12076E-04  8112   0.589E-04-0.147E-05
CGA:  51    -0.385674581570E+03   -0.10868E-04   -0.10257E-04  8112   0.147E-03 0.491E-05
CGA:  52    -0.385674587470E+03   -0.59003E-05   -0.59784E-05  8112   0.133E-03 0.299E-05
   6 F= -.38567459E+03 E0= -.38565451E+03  d E =0.312741E+00  mag=    18.0000
       N       E                     dE             d eps       ncg     rms          ort
SDA:   1    -0.360004155371E+03    0.25670E+02    0.00000E+00  8112   0.291E+03 0.000E+00
CGA:   2    -0.368053549291E+03   -0.80494E+01   -0.58334E+01  8112   0.114E+03-0.112E+02
CGA:   3    -0.373280596304E+03   -0.52270E+01   -0.50593E+01  8112   0.833E+02-0.254E+01
CGA:   4    -0.379644900098E+03   -0.63643E+01   -0.66665E+01  8112   0.785E+02-0.221E+02
CGA:   5    -0.380743535347E+03   -0.10986E+01   -0.10258E+01  8112   0.510E+02 0.220E+01
CGA:   6    -0.382465968297E+03   -0.17224E+01   -0.14604E+01  8112   0.204E+02 0.256E+01
CGA:   7    -0.383904312792E+03   -0.14383E+01   -0.14249E+01  8112   0.647E+02 0.758E+00
CGA:   8    -0.385068754696E+03   -0.11644E+01   -0.10963E+01  8112   0.117E+02 0.376E+01
CGA:   9    -0.385323791721E+03   -0.25504E+00   -0.26363E+00  8112   0.643E+01-0.341E+00
CGA:  10    -0.385442713241E+03   -0.11892E+00   -0.12280E+00  8112   0.474E+01-0.131E+00
CGA:  11    -0.385547935600E+03   -0.10522E+00   -0.10429E+00  8112   0.234E+01 0.220E-01
CGA:  12    -0.385704759116E+03   -0.15682E+00   -0.15687E+00  8112   0.765E+01 0.747E-02
CGA:  13    -0.385826621597E+03   -0.12186E+00   -0.12856E+00  8112   0.159E+01-0.209E+00
CGA:  14    -0.385878089446E+03   -0.51468E-01   -0.51784E-01  8112   0.128E+01 0.434E-02
CGA:  15    -0.385897836753E+03   -0.19747E-01   -0.20968E-01  8112   0.511E+00-0.550E-01
CGA:  16    -0.385933662117E+03   -0.35825E-01   -0.36055E-01  8112   0.867E+00-0.808E-02
CGA:  17    -0.385964192179E+03   -0.30530E-01   -0.30339E-01  8112   0.804E+00-0.170E-02
CGA:  18    -0.385981584449E+03   -0.17392E-01   -0.21128E-01  8112   0.213E+00-0.321E-01
CGA:  19    -0.385989268881E+03   -0.76844E-02   -0.76642E-02  8112   0.138E+00-0.648E-03
CGA:  20    -0.385996800773E+03   -0.75319E-02   -0.75244E-02  8112   0.102E+00 0.542E-03
CGA:  21    -0.386005616561E+03   -0.88158E-02   -0.84848E-02  8112   0.130E+00 0.793E-02
CGA:  22    -0.386009068157E+03   -0.34516E-02   -0.34384E-02  8112   0.534E-01 0.228E-03
CGA:  23    -0.386011937797E+03   -0.28696E-02   -0.28603E-02  8112   0.301E-01 0.818E-03
CGA:  24    -0.386013572418E+03   -0.16346E-02   -0.16338E-02  8112   0.319E-01 0.799E-04
CGA:  25    -0.386015318808E+03   -0.17464E-02   -0.17447E-02  8112   0.231E-01 0.135E-03
CGA:  26    -0.386016813936E+03   -0.14951E-02   -0.14940E-02  8112   0.227E-01 0.433E-04
CGA:  27    -0.386017408797E+03   -0.59486E-03   -0.59676E-03  8112   0.841E-02-0.406E-04
CGA:  28    -0.386017915946E+03   -0.50715E-03   -0.50691E-03  8112   0.686E-02 0.612E-05
CGA:  29    -0.386018833181E+03   -0.91724E-03   -0.92004E-03  8112   0.944E-02-0.334E-04
CGA:  30    -0.386019101443E+03   -0.26826E-03   -0.26893E-03  8112   0.466E-02-0.224E-04
CGA:  31    -0.386019310939E+03   -0.20950E-03   -0.20951E-03  8112   0.284E-02-0.235E-05
SDA:  32    -0.386019501729E+03   -0.19079E-03   -0.19075E-03  8112   0.510E-02 0.195E-05
CGA:  33    -0.386019618937E+03   -0.11721E-03   -0.11730E-03  8112   0.146E-02-0.143E-05
CGA:  34    -0.386019717233E+03   -0.98297E-04   -0.98275E-04  8112   0.274E-02 0.731E-06
CGA:  35    -0.386019865856E+03   -0.14862E-03   -0.14861E-03  8112   0.351E-02 0.361E-05
CGA:  36    -0.386020093134E+03   -0.22728E-03   -0.22701E-03  8112   0.132E-02 0.164E-04
CGA:  37    -0.386020187236E+03   -0.94101E-04   -0.94062E-04  8112   0.863E-03 0.167E-05
CGA:  38    -0.386020274920E+03   -0.87685E-04   -0.87811E-04  8112   0.234E-02-0.285E-05
CGA:  39    -0.386020358419E+03   -0.83498E-04   -0.83528E-04  8112   0.159E-02-0.338E-05
CGA:  40    -0.386020475560E+03   -0.11714E-03   -0.11719E-03  8112   0.959E-03-0.355E-05
CGA:  41    -0.386020519194E+03   -0.43634E-04   -0.43610E-04  8112   0.785E-03-0.194E-05
CGA:  42    -0.386020575795E+03   -0.56601E-04   -0.56653E-04  8112   0.913E-03-0.278E-05
CGA:  43    -0.386020651491E+03   -0.75695E-04   -0.75842E-04  8112   0.653E-03-0.535E-05
CGA:  44    -0.386020671222E+03   -0.19732E-04   -0.19693E-04  8112   0.521E-03-0.211E-05
CGA:  45    -0.386020705845E+03   -0.34623E-04   -0.34673E-04  8112   0.347E-03-0.474E-05
CGA:  46    -0.386020738441E+03   -0.32596E-04   -0.32701E-04  8112   0.378E-03-0.296E-05
CGA:  47    -0.386020763094E+03   -0.24653E-04   -0.24663E-04  8112   0.380E-03-0.153E-05
CGA:  48    -0.386020775820E+03   -0.12726E-04   -0.12734E-04  8112   0.762E-04-0.249E-06
CGA:  49    -0.386020781508E+03   -0.56876E-05   -0.56654E-05  8112   0.226E-03 0.982E-06
CGA:  50    -0.386020794942E+03   -0.13434E-04   -0.13432E-04  8112   0.141E-03 0.302E-05
CGA:  51    -0.386020802113E+03   -0.71711E-05   -0.71864E-05  8112   0.283E-04 0.162E-05
   7 F= -.38602080E+03 E0= -.38600123E+03  d E =-.346215E+00  mag=    18.0000
       N       E                     dE             d eps       ncg     rms          ort
SDA:   1    -0.385946018588E+03    0.74776E-01    0.00000E+00  8112   0.132E+01 0.000E+00
CGA:   2    -0.385968795704E+03   -0.22777E-01   -0.22419E-01  8112   0.236E+00 0.166E-01
CGA:   3    -0.385989131334E+03   -0.20336E-01   -0.20338E-01  8112   0.397E+00-0.483E-04
CGA:   4    -0.386004009329E+03   -0.14878E-01   -0.14883E-01  8112   0.133E+00 0.683E-04
CGA:   5    -0.386012497138E+03   -0.84878E-02   -0.84866E-02  8112   0.700E-01 0.221E-03
CGA:   6    -0.386019221115E+03   -0.67240E-02   -0.67180E-02  8112   0.112E+00 0.140E-03
CGA:   7    -0.386021791602E+03   -0.25705E-02   -0.25833E-02  8112   0.260E-01-0.397E-03
CGA:   8    -0.386022988410E+03   -0.11968E-02   -0.11993E-02  8112   0.692E-02 0.361E-04
CGA:   9    -0.386023618713E+03   -0.63030E-03   -0.63031E-03  8112   0.571E-02 0.247E-06
CGA:  10    -0.386024002029E+03   -0.38332E-03   -0.38333E-03  8112   0.484E-02-0.151E-05
CGA:  11    -0.386024162343E+03   -0.16031E-03   -0.16049E-03  8112   0.143E-02-0.290E-05
CGA:  12    -0.386024225806E+03   -0.63463E-04   -0.63477E-04  8112   0.117E-02 0.417E-07
CGA:  13    -0.386024273349E+03   -0.47543E-04   -0.47548E-04  8112   0.115E-02 0.256E-07
CGA:  14    -0.386024357133E+03   -0.83785E-04   -0.83774E-04  8112   0.337E-03 0.564E-06
CGA:  15    -0.386024377080E+03   -0.19947E-04   -0.19947E-04  8112   0.150E-03-0.515E-07
CGA:  16    -0.386024401981E+03   -0.24901E-04   -0.24807E-04  8112   0.339E-03 0.884E-06
CGA:  17    -0.386024409573E+03   -0.75921E-05   -0.76040E-05  8112   0.962E-04 0.262E-06
   8 F= -.38602441E+03 E0= -.38600484E+03  d E =-.360746E-02  mag=    18.0000
       N       E                     dE             d eps       ncg     rms          ort
SDA:   1    -0.362832171131E+03    0.23192E+02    0.00000E+00  8112   0.413E+03 0.000E+00
CGA:   2    -0.372185293803E+03   -0.93531E+01   -0.92521E+01  8112   0.211E+03-0.155E+03
CGA:   3    -0.375906026885E+03   -0.37207E+01   -0.33114E+01  8112   0.670E+02 0.103E+02
CGA:   4    -0.377751513095E+03   -0.18455E+01   -0.14820E+01  8112   0.552E+02 0.141E+02
CGA:   5    -0.379786791131E+03   -0.20353E+01   -0.18712E+01  8112   0.619E+02 0.265E+01
CGA:   6    -0.381014941822E+03   -0.12282E+01   -0.13333E+01  8112   0.536E+02-0.437E+01
CGA:   7    -0.382907394061E+03   -0.18925E+01   -0.18718E+01  8112   0.821E+02 0.120E+01
CGA:   8    -0.383681804140E+03   -0.77441E+00   -0.81739E+00  8112   0.368E+02-0.192E+02
CGA:   9    -0.384003087662E+03   -0.32128E+00   -0.30707E+00  8112   0.416E+02 0.115E+01
CGA:  10    -0.384408255045E+03   -0.40517E+00   -0.36171E+00  8112   0.218E+02 0.351E+01
CGA:  11    -0.384593529913E+03   -0.18527E+00   -0.24130E+00  8112   0.184E+02-0.484E+01
CGA:  12    -0.384775040118E+03   -0.18151E+00   -0.20573E+00  8112   0.259E+02-0.118E+01
CGA:  13    -0.385035674145E+03   -0.26063E+00   -0.23331E+00  8112   0.151E+02 0.239E+01
CGA:  14    -0.385197409460E+03   -0.16174E+00   -0.14433E+00  8112   0.122E+02 0.165E+01
CGA:  15    -0.385367344541E+03   -0.16994E+00   -0.16183E+00  8112   0.143E+02 0.483E+00
CGA:  16    -0.385487439744E+03   -0.12010E+00   -0.14024E+00  8112   0.707E+01-0.162E+01
CGA:  17    -0.385530497240E+03   -0.43057E-01   -0.53185E-01  8112   0.383E+01-0.100E+01
CGA:  18    -0.385576673083E+03   -0.46176E-01   -0.50682E-01  8112   0.494E+01-0.180E+00
CGA:  19    -0.385632620349E+03   -0.55947E-01   -0.52065E-01  8112   0.203E+01 0.276E+00
CGA:  20    -0.385652668411E+03   -0.20048E-01   -0.19732E-01  8112   0.115E+01 0.282E-01
CGA:  21    -0.385675084998E+03   -0.22417E-01   -0.22356E-01  8112   0.196E+01 0.759E-03
CGA:  22    -0.385701340895E+03   -0.26256E-01   -0.27485E-01  8112   0.148E+01-0.497E-01
CGA:  23    -0.385719849927E+03   -0.18509E-01   -0.20386E-01  8112   0.142E+01-0.717E-01
CGA:  24    -0.385751392277E+03   -0.31542E-01   -0.32261E-01  8112   0.162E+01 0.304E-01
CGA:  25    -0.385773844840E+03   -0.22453E-01   -0.22430E-01  8112   0.552E+00 0.113E-02
CGA:  26    -0.385783744885E+03   -0.99000E-02   -0.99413E-02  8112   0.401E+00-0.422E-03
CGA:  27    -0.385790585942E+03   -0.68411E-02   -0.69123E-02  8112   0.246E+00-0.727E-03
CGA:  28    -0.385796491879E+03   -0.59059E-02   -0.59347E-02  8112   0.313E+00 0.278E-02
CGA:  29    -0.385804308129E+03   -0.78163E-02   -0.78269E-02  8112   0.255E+00 0.139E-02
CGA:  30    -0.385810505324E+03   -0.61972E-02   -0.61911E-02  8112   0.298E+00-0.749E-03
CGA:  31    -0.385817206351E+03   -0.67010E-02   -0.67464E-02  8112   0.146E+00 0.294E-02
SDA:  32    -0.385819232334E+03   -0.20260E-02   -0.20764E-02  8112   0.503E-01-0.159E-02
CGA:  33    -0.385820939691E+03   -0.17074E-02   -0.17075E-02  8112   0.287E-01-0.816E-05
CGA:  34    -0.385822736407E+03   -0.17967E-02   -0.17856E-02  8112   0.536E-01 0.330E-03
CGA:  35    -0.385825455985E+03   -0.27196E-02   -0.27212E-02  8112   0.522E-01-0.687E-04
CGA:  36    -0.385827109117E+03   -0.16531E-02   -0.16530E-02  8112   0.100E-01 0.498E-04
CGA:  37    -0.385827791743E+03   -0.68263E-03   -0.68057E-03  8112   0.976E-02 0.561E-04
CGA:  38    -0.385829065286E+03   -0.12735E-02   -0.12710E-02  8112   0.873E-02 0.287E-04
CGA:  39    -0.385829432682E+03   -0.36740E-03   -0.36710E-03  8112   0.704E-02 0.356E-04
CGA:  40    -0.385829667382E+03   -0.23470E-03   -0.23472E-03  8112   0.464E-02 0.450E-05
CGA:  41    -0.385830078872E+03   -0.41149E-03   -0.41022E-03  8112   0.106E-01 0.244E-04
CGA:  42    -0.385830593231E+03   -0.51436E-03   -0.51369E-03  8112   0.166E-02 0.573E-04
CGA:  43    -0.385830731270E+03   -0.13804E-03   -0.13761E-03  8112   0.284E-02 0.989E-05
CGA:  44    -0.385830830050E+03   -0.98781E-04   -0.98798E-04  8112   0.228E-02 0.219E-05
CGA:  45    -0.385830986516E+03   -0.15647E-03   -0.15660E-03  8112   0.206E-02-0.442E-05
CGA:  46    -0.385831120805E+03   -0.13429E-03   -0.13422E-03  8112   0.166E-02 0.292E-05
CGA:  47    -0.385831189081E+03   -0.68276E-04   -0.68285E-04  8112   0.828E-03 0.175E-05
CGA:  48    -0.385831252601E+03   -0.63520E-04   -0.63494E-04  8112   0.143E-02 0.602E-06
CGA:  49    -0.385831305050E+03   -0.52449E-04   -0.52441E-04  8112   0.114E-02-0.965E-06
CGA:  50    -0.385831373390E+03   -0.68340E-04   -0.68392E-04  8112   0.610E-03-0.350E-05
CGA:  51    -0.385831418031E+03   -0.44641E-04   -0.44769E-04  8112   0.407E-03-0.474E-05
CGA:  52    -0.385831440311E+03   -0.22280E-04   -0.22303E-04  8112   0.620E-03-0.300E-05
CGA:  53    -0.385831471860E+03   -0.31548E-04   -0.31564E-04  8112   0.538E-03-0.432E-05
CGA:  54    -0.385831492020E+03   -0.20161E-04   -0.20137E-04  8112   0.284E-03-0.204E-05
CGA:  55    -0.385831506073E+03   -0.14053E-04   -0.14055E-04  8112   0.149E-03-0.957E-06
CGA:  56    -0.385831531320E+03   -0.25247E-04   -0.25319E-04  8112   0.431E-03-0.724E-06
CGA:  57    -0.385831543086E+03   -0.11766E-04   -0.11754E-04  8112   0.187E-03-0.227E-06
CGA:  58    -0.385831551048E+03   -0.79620E-05   -0.79602E-05  8112   0.765E-04-0.205E-06
   9 F= -.38583155E+03 E0= -.38581175E+03  d E =0.192859E+00  mag=    18.0000
       N       E                     dE             d eps       ncg     rms          ort
SDA:   1    -0.334866309084E+03    0.50965E+02    0.00000E+00  8112   0.393E+03 0.000E+00
CGA:   2    -0.351889702204E+03   -0.17023E+02   -0.12880E+02  8112   0.434E+03-0.167E+03
CGA:   3    -0.357975686138E+03   -0.60860E+01   -0.71530E+01  8112   0.436E+03 0.399E+02
CGA:   4    -0.358992488515E+03   -0.10168E+01   -0.93165E+01  8112   0.452E+03-0.268E+03
CGA:   5    -0.369263159915E+03   -0.10271E+02   -0.10410E+02  8112   0.303E+03-0.523E+02
CGA:   6    -0.370603730349E+03   -0.13406E+01   -0.56240E+01  8112   0.139E+03-0.872E+02
CGA:   7    -0.374231795631E+03   -0.36281E+01   -0.22089E+01  8112   0.150E+03 0.484E+02
CGA:   8    -0.374566816600E+03   -0.33502E+00   -0.39966E+01  8112   0.264E+03-0.576E+02
CGA:   9    -0.375462468600E+03   -0.89565E+00   -0.30020E+01  8112   0.166E+03-0.584E+02
CGA:  10    -0.381005998194E+03   -0.55435E+01   -0.62112E+01  8112   0.140E+03-0.869E+02
CGA:  11    -0.383539425686E+03   -0.25334E+01   -0.19069E+01  8112   0.561E+02 0.355E+02
CGA:  12    -0.384179862454E+03   -0.64044E+00   -0.53794E+00  8112   0.946E+01 0.744E+01
CGA:  13    -0.384341223511E+03   -0.16136E+00   -0.15424E+00  8112   0.128E+02 0.320E+00
CGA:  14    -0.384519154894E+03   -0.17793E+00   -0.17777E+00  8112   0.782E+01-0.810E-01
CGA:  15    -0.384605500103E+03   -0.86345E-01   -0.88114E-01  8112   0.101E+02-0.140E+00
CGA:  16    -0.384864267059E+03   -0.25877E+00   -0.26422E+00  8112   0.182E+02 0.610E-01
CGA:  17    -0.385022049851E+03   -0.15778E+00   -0.21312E+00  8112   0.924E+01-0.370E+01
CGA:  18    -0.385172511885E+03   -0.15046E+00   -0.14852E+00  8112   0.691E+01 0.301E-01
CGA:  19    -0.385282160279E+03   -0.10965E+00   -0.11205E+00  8112   0.526E+01-0.998E-01
CGA:  20    -0.385359313265E+03   -0.77153E-01   -0.86102E-01  8112   0.171E+01-0.247E+00
CGA:  21    -0.385420093718E+03   -0.60780E-01   -0.59640E-01  8112   0.365E+01 0.159E+00
CGA:  22    -0.385548208100E+03   -0.12811E+00   -0.12815E+00  8112   0.336E+01 0.882E-01
CGA:  23    -0.385657224659E+03   -0.10902E+00   -0.10922E+00  8112   0.798E+00 0.162E+00
CGA:  24    -0.385691161689E+03   -0.33937E-01   -0.33575E-01  8112   0.329E+00 0.318E-01
CGA:  25    -0.385706726878E+03   -0.15565E-01   -0.15555E-01  8112   0.486E+00 0.631E-03
CGA:  26    -0.385737154911E+03   -0.30428E-01   -0.30282E-01  8112   0.649E+00 0.421E-02
CGA:  27    -0.385752424396E+03   -0.15269E-01   -0.15462E-01  8112   0.175E+00 0.125E-02
CGA:  28    -0.385761683284E+03   -0.92589E-02   -0.91478E-02  8112   0.157E+00 0.510E-02
CGA:  29    -0.385774112569E+03   -0.12429E-01   -0.12585E-01  8112   0.154E+00-0.309E-02
CGA:  30    -0.385780886643E+03   -0.67741E-02   -0.67584E-02  8112   0.214E+00 0.128E-02
CGA:  31    -0.385790552214E+03   -0.96656E-02   -0.96439E-02  8112   0.120E+00 0.203E-02
CGA:  32    -0.385795788539E+03   -0.52363E-02   -0.52309E-02  8112   0.806E-01 0.620E-03
CGA:  33    -0.385799109294E+03   -0.33208E-02   -0.33164E-02  8112   0.408E-01 0.887E-03
CGA:  34    -0.385805564740E+03   -0.64554E-02   -0.64987E-02  8112   0.799E-01-0.526E-03
CGA:  35    -0.385808645350E+03   -0.30806E-02   -0.30803E-02  8112   0.322E-01-0.295E-04
CGA:  36    -0.385809517220E+03   -0.87187E-03   -0.86943E-03  8112   0.159E-01 0.893E-05
CGA:  37    -0.385811505797E+03   -0.19886E-02   -0.19826E-02  8112   0.529E-01 0.528E-04
CGA:  38    -0.385814447529E+03   -0.29417E-02   -0.29391E-02  8112   0.310E-01 0.389E-03
CGA:  39    -0.385815606062E+03   -0.11585E-02   -0.11486E-02  8112   0.118E-01-0.164E-03
CGA:  40    -0.385816529541E+03   -0.92348E-03   -0.93270E-03  8112   0.137E-01-0.263E-03
SDA:  41    -0.385817280575E+03   -0.75103E-03   -0.75014E-03  8112   0.176E-01 0.760E-04
CGA:  42    -0.385817885484E+03   -0.60491E-03   -0.60491E-03  8112   0.116E-01 0.676E-06
CGA:  43    -0.385818353688E+03   -0.46820E-03   -0.46849E-03  8112   0.692E-02 0.974E-05
CGA:  44    -0.385818727296E+03   -0.37361E-03   -0.37357E-03  8112   0.922E-02 0.275E-05
CGA:  45    -0.385819376754E+03   -0.64946E-03   -0.65024E-03  8112   0.107E-01-0.305E-04
CGA:  46    -0.385820035592E+03   -0.65884E-03   -0.65879E-03  8112   0.225E-02-0.566E-06
CGA:  47    -0.385820222341E+03   -0.18675E-03   -0.18685E-03  8112   0.260E-02-0.281E-05
CGA:  48    -0.385820701839E+03   -0.47950E-03   -0.47792E-03  8112   0.476E-02 0.263E-05
CGA:  49    -0.385820907506E+03   -0.20567E-03   -0.20604E-03  8112   0.277E-02 0.150E-04
CGA:  50    -0.385820982510E+03   -0.75004E-04   -0.74763E-04  8112   0.128E-02 0.121E-04
CGA:  51    -0.385821130685E+03   -0.14817E-03   -0.14837E-03  8112   0.145E-02-0.409E-05
CGA:  52    -0.385821191604E+03   -0.60920E-04   -0.60883E-04  8112   0.104E-02-0.157E-05
CGA:  53    -0.385821251362E+03   -0.59757E-04   -0.59752E-04  8112   0.487E-03-0.508E-05
CGA:  54    -0.385821291065E+03   -0.39703E-04   -0.39766E-04  8112   0.395E-03-0.325E-05
CGA:  55    -0.385821308397E+03   -0.17332E-04   -0.17293E-04  8112   0.648E-03-0.203E-05
CGA:  56    -0.385821362480E+03   -0.54083E-04   -0.54131E-04  8112   0.421E-03-0.260E-05
CGA:  57    -0.385821380803E+03   -0.18323E-04   -0.18318E-04  8112   0.136E-03-0.936E-06
CGA:  58    -0.385821396610E+03   -0.15807E-04   -0.15856E-04  8112   0.627E-03-0.153E-05
CGA:  59    -0.385821432844E+03   -0.36234E-04   -0.36205E-04  8112   0.429E-03-0.308E-05
CGA:  60    -0.385821445510E+03   -0.12666E-04   -0.12194E-04  8112   0.154E-03 0.112E-04
CGA:  61    -0.385821451521E+03   -0.60115E-05   -0.59824E-05  8112   0.767E-04 0.351E-06
  10 F= -.38582145E+03 E0= -.38580169E+03  d E =0.100995E-01  mag=    18.0000
       N       E                     dE             d eps       ncg     rms          ort
SDA:   1    -0.379087508390E+03    0.67339E+01    0.00000E+00  8112   0.122E+03 0.000E+00
CGA:   2    -0.381508188589E+03   -0.24207E+01   -0.24851E+01  8112   0.306E+02-0.324E+01
CGA:   3    -0.382583104963E+03   -0.10749E+01   -0.10708E+01  8112   0.207E+02-0.220E-01
CGA:   4    -0.383942011619E+03   -0.13589E+01   -0.13568E+01  8112   0.257E+02 0.154E+00
CGA:   5    -0.384913512613E+03   -0.97150E+00   -0.98839E+00  8112   0.580E+01 0.153E+00
CGA:   6    -0.385372573928E+03   -0.45906E+00   -0.45986E+00  8112   0.672E+01-0.361E-01
CGA:   7    -0.385710388648E+03   -0.33781E+00   -0.33903E+00  8112   0.557E+01 0.653E-01
CGA:   8    -0.385858515987E+03   -0.14813E+00   -0.14448E+00  8112   0.155E+01 0.948E-01
CGA:   9    -0.385905959265E+03   -0.47443E-01   -0.49168E-01  8112   0.768E+00-0.184E-01
CGA:  10    -0.385941480322E+03   -0.35521E-01   -0.35662E-01  8112   0.442E+00 0.635E-02
CGA:  11    -0.385975353022E+03   -0.33873E-01   -0.33911E-01  8112   0.375E+00-0.132E-02
CGA:  12    -0.385988326039E+03   -0.12973E-01   -0.13023E-01  8112   0.248E+00 0.169E-04
CGA:  13    -0.385996718344E+03   -0.83923E-02   -0.84103E-02  8112   0.999E-01-0.419E-04
CGA:  14    -0.386000755489E+03   -0.40371E-02   -0.40580E-02  8112   0.764E-01 0.339E-03
CGA:  15    -0.386006876451E+03   -0.61210E-02   -0.60817E-02  8112   0.537E-01 0.121E-02
CGA:  16    -0.386010064745E+03   -0.31883E-02   -0.31907E-02  8112   0.290E-01-0.315E-03
CGA:  17    -0.386011185607E+03   -0.11209E-02   -0.11219E-02  8112   0.196E-01 0.761E-05
CGA:  18    -0.386012218000E+03   -0.10324E-02   -0.10325E-02  8112   0.228E-01 0.382E-04
CGA:  19    -0.386013088255E+03   -0.87026E-03   -0.87379E-03  8112   0.131E-01 0.281E-04
CGA:  20    -0.386013926481E+03   -0.83823E-03   -0.83841E-03  8112   0.864E-02-0.874E-05
CGA:  21    -0.386014454991E+03   -0.52851E-03   -0.52834E-03  8112   0.487E-02 0.142E-04
CGA:  22    -0.386014687364E+03   -0.23237E-03   -0.23248E-03  8112   0.391E-02 0.924E-05
CGA:  23    -0.386015106250E+03   -0.41889E-03   -0.41723E-03  8112   0.406E-02 0.312E-04
CGA:  24    -0.386015308786E+03   -0.20254E-03   -0.20257E-03  8112   0.156E-02 0.535E-05
CGA:  25    -0.386015384619E+03   -0.75833E-04   -0.75837E-04  8112   0.151E-02 0.418E-06
CGA:  26    -0.386015482399E+03   -0.97781E-04   -0.97787E-04  8112   0.201E-02-0.602E-06
CGA:  27    -0.386015553858E+03   -0.71459E-04   -0.71480E-04  8112   0.116E-02 0.189E-06
CGA:  28    -0.386015613847E+03   -0.59989E-04   -0.59994E-04  8112   0.509E-03 0.129E-05
CGA:  29    -0.386015651255E+03   -0.37408E-04   -0.37372E-04  8112   0.565E-03 0.177E-05
CGA:  30    -0.386015686469E+03   -0.35214E-04   -0.35203E-04  8112   0.577E-03 0.153E-05
CGA:  31    -0.386015730436E+03   -0.43967E-04   -0.43929E-04  8112   0.314E-03 0.172E-05
SDA:  32    -0.386015752234E+03   -0.21798E-04   -0.21808E-04  8112   0.343E-03-0.847E-06
CGA:  33    -0.386015760769E+03   -0.85347E-05   -0.85208E-05  8112   0.141E-03-0.523E-06
CGA:  34    -0.386015773934E+03   -0.13165E-04   -0.13243E-04  8112   0.360E-03-0.221E-05
CGA:  35    -0.386015787953E+03   -0.14019E-04   -0.13980E-04  8112   0.228E-03-0.224E-05
CGA:  36    -0.386015801256E+03   -0.13304E-04   -0.13306E-04  8112   0.113E-03-0.116E-05
CGA:  37    -0.386015809609E+03   -0.83530E-05   -0.83480E-05  8112   0.966E-04 0.201E-06
  11 F= -.38601581E+03 E0= -.38599617E+03  d E =-.194358E+00  mag=    18.0000
       N       E                     dE             d eps       ncg     rms          ort
SDA:   1    -0.383905010834E+03    0.21108E+01    0.00000E+00  8112   0.345E+02 0.000E+00
CGA:   2    -0.384543970145E+03   -0.63896E+00   -0.63902E+00  8112   0.796E+01-0.115E+00
CGA:   3    -0.384951198841E+03   -0.40723E+00   -0.40732E+00  8112   0.709E+01 0.644E-02
CGA:   4    -0.385424460168E+03   -0.47326E+00   -0.47146E+00  8112   0.728E+01 0.121E+00
CGA:   5    -0.385678667630E+03   -0.25421E+00   -0.25966E+00  8112   0.189E+01-0.123E-01
CGA:   6    -0.385817872572E+03   -0.13920E+00   -0.13932E+00  8112   0.327E+01-0.551E-02
CGA:   7    -0.385921191329E+03   -0.10332E+00   -0.10364E+00  8112   0.139E+01-0.381E-02
CGA:   8    -0.385983469517E+03   -0.62278E-01   -0.62633E-01  8112   0.271E+00 0.877E-02
CGA:   9    -0.385999194753E+03   -0.15725E-01   -0.15717E-01  8112   0.198E+00 0.204E-02
CGA:  10    -0.386006576139E+03   -0.73814E-02   -0.74115E-02  8112   0.193E+00 0.665E-04
CGA:  11    -0.386016934426E+03   -0.10358E-01   -0.10358E-01  8112   0.819E-01-0.439E-03
CGA:  12    -0.386020764123E+03   -0.38297E-02   -0.38320E-02  8112   0.520E-01 0.116E-03
CGA:  13    -0.386022620545E+03   -0.18564E-02   -0.18535E-02  8112   0.218E-01 0.148E-06
CGA:  14    -0.386024112604E+03   -0.14921E-02   -0.14910E-02  8112   0.387E-01 0.462E-04
CGA:  15    -0.386025491722E+03   -0.13791E-02   -0.13795E-02  8112   0.140E-01-0.163E-04
CGA:  16    -0.386026355418E+03   -0.86370E-03   -0.86433E-03  8112   0.565E-02-0.524E-04
CGA:  17    -0.386026627839E+03   -0.27242E-03   -0.27243E-03  8112   0.826E-02-0.197E-05
CGA:  18    -0.386026999477E+03   -0.37164E-03   -0.37181E-03  8112   0.334E-02 0.352E-05
CGA:  19    -0.386027324142E+03   -0.32467E-03   -0.32482E-03  8112   0.411E-02-0.410E-05
CGA:  20    -0.386027463301E+03   -0.13916E-03   -0.13915E-03  8112   0.258E-02-0.123E-05
CGA:  21    -0.386027561902E+03   -0.98602E-04   -0.98576E-04  8112   0.963E-03-0.236E-07
CGA:  22    -0.386027676411E+03   -0.11451E-03   -0.11409E-03  8112   0.282E-02 0.630E-05
CGA:  23    -0.386027783387E+03   -0.10698E-03   -0.10707E-03  8112   0.812E-03 0.541E-05
CGA:  24    -0.386027812891E+03   -0.29505E-04   -0.29517E-04  8112   0.581E-03 0.143E-05
CGA:  25    -0.386027840975E+03   -0.28084E-04   -0.28092E-04  8112   0.463E-03 0.119E-05
CGA:  26    -0.386027892166E+03   -0.51190E-04   -0.51031E-04  8112   0.536E-03 0.268E-05
CGA:  27    -0.386027907715E+03   -0.15550E-04   -0.15578E-04  8112   0.315E-03 0.792E-06
CGA:  28    -0.386027926483E+03   -0.18768E-04   -0.18763E-04  8112   0.168E-03 0.948E-06
CGA:  29    -0.386027942794E+03   -0.16311E-04   -0.16275E-04  8112   0.406E-03 0.777E-06
CGA:  30    -0.386027958901E+03   -0.16106E-04   -0.16119E-04  8112   0.235E-03 0.561E-06
CGA:  31    -0.386027970650E+03   -0.11749E-04   -0.11752E-04  8112   0.177E-03 0.346E-06
SDA:  32    -0.386027978083E+03   -0.74330E-05   -0.74344E-05  8112   0.118E-03 0.263E-07
  12 F= -.38602798E+03 E0= -.38600832E+03  d E =-.121685E-01  mag=    18.0000
       N       E                     dE             d eps       ncg     rms          ort
SDA:   1    -0.385377746783E+03    0.65022E+00    0.00000E+00  8112   0.250E+01 0.000E+00
CGA:   2    -0.385533097396E+03   -0.15535E+00   -0.15489E+00  8112   0.372E+01 0.386E-01
CGA:   3    -0.385711038357E+03   -0.17794E+00   -0.17828E+00  8112   0.369E+01 0.155E-01
CGA:   4    -0.385862329163E+03   -0.15129E+00   -0.15127E+00  8112   0.139E+01 0.746E-03
CGA:   5    -0.385908005332E+03   -0.45676E-01   -0.46375E-01  8112   0.714E+00-0.345E-02
CGA:   6    -0.385981202599E+03   -0.73197E-01   -0.73441E-01  8112   0.322E+00-0.486E-02
CGA:   7    -0.385996036582E+03   -0.14834E-01   -0.14827E-01  8112   0.122E+00-0.186E-03
CGA:   8    -0.385999637407E+03   -0.36008E-02   -0.36215E-02  8112   0.842E-01-0.259E-03
CGA:   9    -0.386004863947E+03   -0.52265E-02   -0.52274E-02  8112   0.695E-01-0.585E-04
CGA:  10    -0.386007928262E+03   -0.30643E-02   -0.30661E-02  8112   0.345E-01 0.624E-04
CGA:  11    -0.386009229130E+03   -0.13009E-02   -0.12996E-02  8112   0.107E-01-0.660E-05
CGA:  12    -0.386009859833E+03   -0.63070E-03   -0.63072E-03  8112   0.143E-01-0.433E-05
CGA:  13    -0.386010348017E+03   -0.48818E-03   -0.48800E-03  8112   0.796E-02-0.793E-05
CGA:  14    -0.386010916345E+03   -0.56833E-03   -0.56840E-03  8112   0.309E-02-0.619E-05
CGA:  15    -0.386011058597E+03   -0.14225E-03   -0.14222E-03  8112   0.221E-02-0.373E-05
CGA:  16    -0.386011147587E+03   -0.88990E-04   -0.88949E-04  8112   0.196E-02-0.315E-05
CGA:  17    -0.386011274708E+03   -0.12712E-03   -0.12718E-03  8112   0.233E-02-0.489E-05
CGA:  18    -0.386011357392E+03   -0.82684E-04   -0.82710E-04  8112   0.754E-03-0.294E-05
CGA:  19    -0.386011422255E+03   -0.64862E-04   -0.64873E-04  8112   0.712E-03-0.504E-06
CGA:  20    -0.386011450385E+03   -0.28131E-04   -0.28132E-04  8112   0.745E-03 0.318E-06
CGA:  21    -0.386011489735E+03   -0.39350E-04   -0.39350E-04  8112   0.616E-03 0.208E-05
CGA:  22    -0.386011543921E+03   -0.54186E-04   -0.54037E-04  8112   0.473E-03 0.417E-05
CGA:  23    -0.386011558090E+03   -0.14168E-04   -0.14195E-04  8112   0.186E-03 0.112E-05
CGA:  24    -0.386011573490E+03   -0.15400E-04   -0.15389E-04  8112   0.443E-03 0.344E-06
CGA:  25    -0.386011591422E+03   -0.17932E-04   -0.17938E-04  8112   0.233E-03 0.344E-06
CGA:  26    -0.386011604777E+03   -0.13355E-04   -0.13353E-04  8112   0.744E-04 0.458E-06
CGA:  27    -0.386011610062E+03   -0.52858E-05   -0.52775E-05  8112   0.155E-03 0.446E-06
  13 F= -.38601161E+03 E0= -.38599191E+03  d E =0.163680E-01  mag=    18.0000
       N       E                     dE             d eps       ncg     rms          ort
SDA:   1    -0.367528212952E+03    0.18483E+02    0.00000E+00  8112   0.247E+03 0.000E+00
CGA:   2    -0.373252578406E+03   -0.57244E+01   -0.56140E+01  8112   0.995E+02-0.127E+02
CGA:   3    -0.376404962863E+03   -0.31524E+01   -0.31728E+01  8112   0.515E+02 0.353E+00
CGA:   4    -0.380544702496E+03   -0.41397E+01   -0.41868E+01  8112   0.742E+02-0.236E+01
CGA:   5    -0.382722093258E+03   -0.21774E+01   -0.21927E+01  8112   0.281E+02-0.689E+00
CGA:   6    -0.383723263589E+03   -0.10012E+01   -0.93811E+00  8112   0.179E+02 0.818E-02
CGA:   7    -0.384430665209E+03   -0.70740E+00   -0.70564E+00  8112   0.163E+02 0.769E-01
CGA:   8    -0.385291041840E+03   -0.86038E+00   -0.86523E+00  8112   0.833E+01-0.128E+01
CGA:   9    -0.385528966865E+03   -0.23793E+00   -0.24092E+00  8112   0.350E+01-0.279E-01
CGA:  10    -0.385604856756E+03   -0.75890E-01   -0.73982E-01  8112   0.123E+01 0.553E-01
CGA:  11    -0.385697777576E+03   -0.92921E-01   -0.91163E-01  8112   0.135E+01 0.594E-01
CGA:  12    -0.385786107669E+03   -0.88330E-01   -0.88745E-01  8112   0.639E+00-0.237E-01
CGA:  13    -0.385811357517E+03   -0.25250E-01   -0.25567E-01  8112   0.393E+00 0.872E-02
CGA:  14    -0.385822667987E+03   -0.11310E-01   -0.11292E-01  8112   0.243E+00 0.309E-03
CGA:  15    -0.385838578145E+03   -0.15910E-01   -0.15737E-01  8112   0.198E+00 0.804E-02
CGA:  16    -0.385851155994E+03   -0.12578E-01   -0.12524E-01  8112   0.155E+00 0.320E-02
CGA:  17    -0.385856815476E+03   -0.56595E-02   -0.56555E-02  8112   0.647E-01 0.509E-04
CGA:  18    -0.385860005143E+03   -0.31897E-02   -0.31898E-02  8112   0.573E-01 0.289E-03
CGA:  19    -0.385862833001E+03   -0.28279E-02   -0.28284E-02  8112   0.700E-01 0.799E-03
CGA:  20    -0.385866175450E+03   -0.33424E-02   -0.33417E-02  8112   0.349E-01-0.127E-03
CGA:  21    -0.385867990880E+03   -0.18154E-02   -0.18142E-02  8112   0.174E-01 0.261E-03
CGA:  22    -0.385868891798E+03   -0.90092E-03   -0.90099E-03  8112   0.249E-01-0.181E-04
CGA:  23    -0.385870090586E+03   -0.11988E-02   -0.11990E-02  8112   0.178E-01 0.805E-04
CGA:  24    -0.385871199946E+03   -0.11094E-02   -0.11086E-02  8112   0.114E-01 0.433E-04
CGA:  25    -0.385871689949E+03   -0.49000E-03   -0.49025E-03  8112   0.811E-02 0.101E-04
CGA:  26    -0.385872079937E+03   -0.38999E-03   -0.38998E-03  8112   0.632E-02-0.566E-05
CGA:  27    -0.385872365019E+03   -0.28508E-03   -0.28504E-03  8112   0.610E-02-0.878E-05
CGA:  28    -0.385872702370E+03   -0.33735E-03   -0.33727E-03  8112   0.483E-02 0.316E-05
CGA:  29    -0.385872988810E+03   -0.28644E-03   -0.28645E-03  8112   0.237E-02-0.395E-05
CGA:  30    -0.385873087140E+03   -0.98330E-04   -0.98303E-04  8112   0.226E-02-0.262E-05
CGA:  31    -0.385873195458E+03   -0.10832E-03   -0.10831E-03  8112   0.217E-02-0.350E-05
SDA:  32    -0.385873397148E+03   -0.20169E-03   -0.20146E-03  8112   0.190E-02 0.500E-05
CGA:  33    -0.385873443319E+03   -0.46171E-04   -0.46187E-04  8112   0.670E-03-0.293E-05
CGA:  34    -0.385873477777E+03   -0.34459E-04   -0.34462E-04  8112   0.933E-03-0.345E-05
CGA:  35    -0.385873555480E+03   -0.77702E-04   -0.77978E-04  8112   0.157E-02-0.844E-05
CGA:  36    -0.385873614892E+03   -0.59412E-04   -0.59349E-04  8112   0.443E-03-0.493E-05
CGA:  37    -0.385873661766E+03   -0.46875E-04   -0.46676E-04  8112   0.620E-03 0.348E-05
CGA:  38    -0.385873727815E+03   -0.66049E-04   -0.65651E-04  8112   0.831E-03 0.767E-05
CGA:  39    -0.385873748307E+03   -0.20491E-04   -0.20532E-04  8112   0.330E-03 0.129E-05
CGA:  40    -0.385873773203E+03   -0.24897E-04   -0.24953E-04  8112   0.321E-03-0.297E-05
CGA:  41    -0.385873810920E+03   -0.37717E-04   -0.38384E-04  8112   0.378E-03-0.105E-04
CGA:  42    -0.385873823787E+03   -0.12867E-04   -0.12789E-04  8112   0.243E-03-0.316E-05
CGA:  43    -0.385873836412E+03   -0.12624E-04   -0.12614E-04  8112   0.190E-03-0.202E-05
CGA:  44    -0.385873844302E+03   -0.78909E-05   -0.78818E-05  8112   0.198E-03-0.598E-06
CGA:  45    -0.385873859633E+03   -0.15330E-04   -0.15330E-04  8112   0.155E-03-0.301E-07
CGA:  46    -0.385873870071E+03   -0.10438E-04   -0.10428E-04  8112   0.568E-04 0.897E-06
CGA:  47    -0.385873873118E+03   -0.30478E-05   -0.30523E-05  8112   0.981E-04 0.681E-06
  14 F= -.38587387E+03 E0= -.38585409E+03  d E =0.137737E+00  mag=    18.0000
       N       E                     dE             d eps       ncg     rms          ort
SDA:   1    -0.372948827054E+03    0.12925E+02    0.00000E+00  8112   0.235E+03 0.000E+00
CGA:   2    -0.378538148741E+03   -0.55893E+01   -0.47157E+01  8112   0.607E+02 0.587E+01
CGA:   3    -0.380397961864E+03   -0.18598E+01   -0.19594E+01  8112   0.333E+02-0.127E+01
CGA:   4    -0.381841342234E+03   -0.14434E+01   -0.13786E+01  8112   0.390E+02-0.110E+01
CGA:   5    -0.383657146946E+03   -0.18158E+01   -0.17791E+01  8112   0.387E+02-0.155E+01
CGA:   6    -0.384410241713E+03   -0.75309E+00   -0.71823E+00  8112   0.118E+02 0.152E+01
CGA:   7    -0.384790506214E+03   -0.38026E+00   -0.35006E+00  8112   0.139E+02 0.381E+00
CGA:   8    -0.385171376405E+03   -0.38087E+00   -0.37031E+00  8112   0.908E+01 0.305E+00
CGA:   9    -0.385420878299E+03   -0.24950E+00   -0.25302E+00  8112   0.124E+02-0.387E-01
CGA:  10    -0.385740735006E+03   -0.31986E+00   -0.30455E+00  8112   0.464E+01 0.398E+00
CGA:  11    -0.385816286331E+03   -0.75551E-01   -0.77904E-01  8112   0.207E+01-0.102E+00
CGA:  12    -0.385867060213E+03   -0.50774E-01   -0.51594E-01  8112   0.141E+01-0.109E-01
CGA:  13    -0.385896007048E+03   -0.28947E-01   -0.30139E-01  8112   0.783E+00-0.279E-01
CGA:  14    -0.385931006495E+03   -0.34999E-01   -0.34983E-01  8112   0.133E+01 0.506E-02
CGA:  15    -0.385964674063E+03   -0.33668E-01   -0.34964E-01  8112   0.603E+00-0.104E-01
CGA:  16    -0.385983827856E+03   -0.19154E-01   -0.19422E-01  8112   0.485E+00 0.481E-02
CGA:  17    -0.385995424428E+03   -0.11597E-01   -0.11591E-01  8112   0.128E+00 0.269E-03
CGA:  18    -0.386000922423E+03   -0.54980E-02   -0.54966E-02  8112   0.189E+00 0.560E-03
CGA:  19    -0.386008441458E+03   -0.75190E-02   -0.75488E-02  8112   0.130E+00 0.712E-02
CGA:  20    -0.386014034048E+03   -0.55926E-02   -0.55932E-02  8112   0.120E+00 0.283E-02
CGA:  21    -0.386018157995E+03   -0.41239E-02   -0.41167E-02  8112   0.355E-01-0.253E-03
CGA:  22    -0.386019890874E+03   -0.17329E-02   -0.17289E-02  8112   0.486E-01 0.339E-03
CGA:  23    -0.386021727146E+03   -0.18363E-02   -0.18390E-02  8112   0.232E-01 0.277E-03
CGA:  24    -0.386023169397E+03   -0.14423E-02   -0.14350E-02  8112   0.325E-01 0.301E-03
CGA:  25    -0.386024429256E+03   -0.12599E-02   -0.12593E-02  8112   0.150E-01-0.527E-04
CGA:  26    -0.386025283171E+03   -0.85391E-03   -0.85451E-03  8112   0.113E-01-0.333E-04
CGA:  27    -0.386025625164E+03   -0.34199E-03   -0.34218E-03  8112   0.764E-02 0.458E-05
CGA:  28    -0.386026259637E+03   -0.63447E-03   -0.63334E-03  8112   0.116E-01 0.273E-04
CGA:  29    -0.386026665202E+03   -0.40556E-03   -0.40582E-03  8112   0.605E-02 0.117E-04
CGA:  30    -0.386026937952E+03   -0.27275E-03   -0.27274E-03  8112   0.248E-02 0.510E-05
CGA:  31    -0.386027060079E+03   -0.12213E-03   -0.12213E-03  8112   0.369E-02 0.902E-06
SDA:  32    -0.386027264392E+03   -0.20431E-03   -0.20434E-03  8112   0.311E-02-0.107E-05
CGA:  33    -0.386027353045E+03   -0.88653E-04   -0.88644E-04  8112   0.915E-03-0.398E-07
CGA:  34    -0.386027383447E+03   -0.30402E-04   -0.30399E-04  8112   0.806E-03-0.376E-06
CGA:  35    -0.386027497504E+03   -0.11406E-03   -0.11410E-03  8112   0.214E-02-0.841E-06
CGA:  36    -0.386027587426E+03   -0.89922E-04   -0.89884E-04  8112   0.102E-02-0.307E-05
CGA:  37    -0.386027647201E+03   -0.59775E-04   -0.59792E-04  8112   0.476E-03-0.189E-05
CGA:  38    -0.386027698244E+03   -0.51043E-04   -0.51217E-04  8112   0.939E-03-0.309E-05
CGA:  39    -0.386027734338E+03   -0.36094E-04   -0.36072E-04  8112   0.931E-03-0.187E-05
CGA:  40    -0.386027781225E+03   -0.46887E-04   -0.46886E-04  8112   0.322E-03-0.230E-05
CGA:  41    -0.386027816087E+03   -0.34862E-04   -0.34831E-04  8112   0.291E-03 0.300E-06
CGA:  42    -0.386027850523E+03   -0.34436E-04   -0.34246E-04  8112   0.330E-03 0.276E-05
CGA:  43    -0.386027859367E+03   -0.88435E-05   -0.88517E-05  8112   0.162E-03 0.886E-07
CGA:  44    -0.386027870722E+03   -0.11355E-04   -0.11372E-04  8112   0.250E-03-0.125E-05
CGA:  45    -0.386027886663E+03   -0.15942E-04   -0.15957E-04  8112   0.252E-03-0.188E-05
CGA:  46    -0.386027897206E+03   -0.10543E-04   -0.10525E-04  8112   0.720E-04-0.127E-05
CGA:  47    -0.386027906915E+03   -0.97087E-05   -0.96828E-05  8112   0.237E-03 0.174E-06
  15 F= -.38602791E+03 E0= -.38600822E+03  d E =-.154034E+00  mag=    18.0000
       N       E                     dE             d eps       ncg     rms          ort
SDA:   1    -0.385910081599E+03    0.11782E+00    0.00000E+00  8112   0.724E+00 0.000E+00
CGA:   2    -0.385934236983E+03   -0.24155E-01   -0.23997E-01  8112   0.516E+00 0.162E-02
CGA:   3    -0.385960336025E+03   -0.26099E-01   -0.26167E-01  8112   0.591E+00 0.416E-02
CGA:   4    -0.385992546776E+03   -0.32211E-01   -0.32213E-01  8112   0.363E+00 0.377E-03
CGA:   5    -0.386004226939E+03   -0.11680E-01   -0.11660E-01  8112   0.116E+00 0.205E-03
CGA:   6    -0.386015375415E+03   -0.11148E-01   -0.11167E-01  8112   0.826E-01-0.417E-03
CGA:   7    -0.386020149118E+03   -0.47737E-02   -0.47734E-02  8112   0.379E-01 0.195E-03
CGA:   8    -0.386021184342E+03   -0.10352E-02   -0.10392E-02  8112   0.209E-01-0.748E-04
CGA:   9    -0.386022135065E+03   -0.95072E-03   -0.95122E-03  8112   0.810E-02 0.192E-04
CGA:  10    -0.386022782962E+03   -0.64790E-03   -0.64805E-03  8112   0.706E-02-0.277E-05
CGA:  11    -0.386023072814E+03   -0.28985E-03   -0.28979E-03  8112   0.436E-02 0.239E-06
CGA:  12    -0.386023268233E+03   -0.19542E-03   -0.19539E-03  8112   0.193E-02-0.156E-05
CGA:  13    -0.386023328289E+03   -0.60056E-04   -0.59961E-04  8112   0.140E-02-0.157E-05
CGA:  14    -0.386023426613E+03   -0.98324E-04   -0.98466E-04  8112   0.795E-03-0.817E-05
CGA:  15    -0.386023490086E+03   -0.63473E-04   -0.63645E-04  8112   0.535E-03-0.677E-05
CGA:  16    -0.386023510925E+03   -0.20839E-04   -0.20799E-04  8112   0.455E-03-0.238E-05
CGA:  17    -0.386023526700E+03   -0.15775E-04   -0.15738E-04  8112   0.171E-03-0.184E-05
CGA:  18    -0.386023542161E+03   -0.15461E-04   -0.15510E-04  8112   0.331E-03-0.129E-05
CGA:  19    -0.386023557857E+03   -0.15696E-04   -0.15687E-04  8112   0.148E-03-0.114E-05
CGA:  20    -0.386023564371E+03   -0.65143E-05   -0.65138E-05  8112   0.764E-04-0.447E-07
  16 F= -.38602356E+03 E0= -.38600386E+03  d E =0.434254E-02  mag=    18.0000
       N       E                     dE             d eps       ncg     rms          ort
SDA:   1    -0.379946420783E+03    0.60771E+01    0.00000E+00  8112   0.589E+02 0.000E+00
CGA:   2    -0.381469304271E+03   -0.15229E+01   -0.15706E+01  8112   0.272E+02-0.179E+01
CGA:   3    -0.382689725258E+03   -0.12204E+01   -0.12156E+01  8112   0.261E+02-0.211E+00
CGA:   4    -0.384165864725E+03   -0.14761E+01   -0.14764E+01  8112   0.230E+02-0.546E-01
CGA:   5    -0.384872370558E+03   -0.70651E+00   -0.71363E+00  8112   0.531E+01 0.244E-01
CGA:   6    -0.385452565188E+03   -0.58019E+00   -0.59014E+00  8112   0.728E+01-0.177E+00
CGA:   7    -0.385688956206E+03   -0.23639E+00   -0.23230E+00  8112   0.456E+01 0.371E-01
CGA:   8    -0.385817319378E+03   -0.12836E+00   -0.13279E+00  8112   0.818E+00-0.736E-01
CGA:   9    -0.385857153730E+03   -0.39834E-01   -0.39956E-01  8112   0.792E+00 0.193E-01
CGA:  10    -0.385894287733E+03   -0.37134E-01   -0.37157E-01  8112   0.536E+00 0.152E-02
CGA:  11    -0.385929212190E+03   -0.34924E-01   -0.34931E-01  8112   0.193E+00-0.459E-03
CGA:  12    -0.385936123357E+03   -0.69112E-02   -0.69251E-02  8112   0.167E+00 0.908E-04
CGA:  13    -0.385942430850E+03   -0.63075E-02   -0.63033E-02  8112   0.729E-01-0.812E-06
CGA:  14    -0.385950675427E+03   -0.82446E-02   -0.81668E-02  8112   0.709E-01 0.129E-02
CGA:  15    -0.385953348958E+03   -0.26735E-02   -0.26742E-02  8112   0.448E-01 0.298E-04
CGA:  16    -0.385954723404E+03   -0.13744E-02   -0.13769E-02  8112   0.162E-01-0.175E-05
CGA:  17    -0.385956196167E+03   -0.14728E-02   -0.14748E-02  8112   0.379E-01-0.447E-04
CGA:  18    -0.385957917224E+03   -0.17211E-02   -0.17261E-02  8112   0.123E-01 0.219E-03
CGA:  19    -0.385958485421E+03   -0.56820E-03   -0.56801E-03  8112   0.767E-02-0.335E-05
CGA:  20    -0.385958802106E+03   -0.31669E-03   -0.31687E-03  8112   0.962E-02 0.796E-05
CGA:  21    -0.385959660061E+03   -0.85796E-03   -0.85765E-03  8112   0.666E-02 0.998E-05
CGA:  22    -0.385960025605E+03   -0.36554E-03   -0.36554E-03  8112   0.366E-02 0.178E-04
CGA:  23    -0.385960144868E+03   -0.11926E-03   -0.11930E-03  8112   0.304E-02-0.233E-05
CGA:  24    -0.385960405362E+03   -0.26049E-03   -0.26066E-03  8112   0.318E-02-0.605E-05
CGA:  25    -0.385960570387E+03   -0.16503E-03   -0.16501E-03  8112   0.225E-02-0.591E-05
CGA:  26    -0.385960651144E+03   -0.80756E-04   -0.80745E-04  8112   0.117E-02-0.252E-05
CGA:  27    -0.385960726536E+03   -0.75392E-04   -0.75393E-04  8112   0.153E-02-0.234E-06
CGA:  28    -0.385960783143E+03   -0.56607E-04   -0.56594E-04  8112   0.935E-03 0.312E-06
CGA:  29    -0.385960863907E+03   -0.80765E-04   -0.80788E-04  8112   0.720E-03-0.827E-06
CGA:  30    -0.385960902782E+03   -0.38875E-04   -0.38873E-04  8112   0.853E-03-0.215E-05
CGA:  31    -0.385960931648E+03   -0.28866E-04   -0.28819E-04  8112   0.427E-03-0.233E-05
SDA:  32    -0.385960978395E+03   -0.46747E-04   -0.47003E-04  8112   0.421E-03-0.465E-05
CGA:  33    -0.385960990462E+03   -0.12067E-04   -0.12061E-04  8112   0.228E-03-0.717E-07
CGA:  34    -0.385960999869E+03   -0.94075E-05   -0.94080E-05  8112   0.193E-03-0.935E-08
CGA:  35    -0.385961017941E+03   -0.18071E-04   -0.18036E-04  8112   0.273E-03 0.870E-06
CGA:  36    -0.385961030000E+03   -0.12059E-04   -0.12065E-04  8112   0.182E-03 0.513E-06
CGA:  37    -0.385961041752E+03   -0.11752E-04   -0.11751E-04  8112   0.849E-04 0.135E-06
CGA:  38    -0.385961050587E+03   -0.88351E-05   -0.89081E-05  8112   0.101E-03-0.159E-05
  17 F= -.38596105E+03 E0= -.38594130E+03  d E =0.625138E-01  mag=    18.0000
       N       E                     dE             d eps       ncg     rms          ort
SDA:   1    -0.357667375437E+03    0.28294E+02    0.00000E+00  8112   0.472E+03 0.000E+00
CGA:   2    -0.367270206614E+03   -0.96028E+01   -0.12096E+02  8112   0.270E+03-0.131E+03
CGA:   3    -0.373005804730E+03   -0.57356E+01   -0.59490E+01  8112   0.120E+03 0.780E+00
CGA:   4    -0.375774537587E+03   -0.27687E+01   -0.23126E+01  8112   0.830E+02 0.723E+01
CGA:   5    -0.377478424966E+03   -0.17039E+01   -0.16894E+01  8112   0.772E+02 0.126E+01
CGA:   6    -0.379187612354E+03   -0.17092E+01   -0.18230E+01  8112   0.959E+02-0.434E+01
CGA:   7    -0.380678087915E+03   -0.14905E+01   -0.18513E+01  8112   0.103E+03-0.179E+02
CGA:   8    -0.381790963088E+03   -0.11129E+01   -0.95700E+00  8112   0.935E+02-0.623E+01
CGA:   9    -0.382228716233E+03   -0.43775E+00   -0.12426E+01  8112   0.144E+03-0.417E+02
CGA:  10    -0.382741367477E+03   -0.51265E+00   -0.62450E+00  8112   0.998E+02-0.156E+02
CGA:  11    -0.383229721905E+03   -0.48835E+00   -0.57864E+00  8112   0.616E+02-0.201E+02
CGA:  12    -0.383512271033E+03   -0.28255E+00   -0.36644E+00  8112   0.770E+02-0.119E+02
CGA:  13    -0.383930789948E+03   -0.41852E+00   -0.45727E+00  8112   0.704E+02-0.367E+01
CGA:  14    -0.384188608738E+03   -0.25782E+00   -0.35339E+00  8112   0.244E+02-0.272E+02
CGA:  15    -0.384239681960E+03   -0.51073E-01   -0.54183E-01  8112   0.213E+02-0.842E+00
CGA:  16    -0.384372132931E+03   -0.13245E+00   -0.13958E+00  8112   0.294E+02-0.911E+00
CGA:  17    -0.384551068773E+03   -0.17894E+00   -0.17032E+00  8112   0.331E+02 0.106E+01
CGA:  18    -0.384715051758E+03   -0.16398E+00   -0.21772E+00  8112   0.235E+02-0.706E+01
CGA:  19    -0.384797405711E+03   -0.82354E-01   -0.86528E-01  8112   0.150E+02-0.714E+00
CGA:  20    -0.384874660687E+03   -0.77255E-01   -0.74809E-01  8112   0.127E+02 0.351E+00
CGA:  21    -0.384970318975E+03   -0.95658E-01   -0.10312E+00  8112   0.194E+02-0.836E+00
CGA:  22    -0.385098378547E+03   -0.12806E+00   -0.14228E+00  8112   0.225E+02-0.148E+01
CGA:  23    -0.385202324300E+03   -0.10395E+00   -0.10553E+00  8112   0.148E+02-0.353E+00
CGA:  24    -0.385277436566E+03   -0.75112E-01   -0.79151E-01  8112   0.106E+02-0.626E+00
CGA:  25    -0.385335520993E+03   -0.58084E-01   -0.54747E-01  8112   0.862E+01 0.515E+00
CGA:  26    -0.385387302638E+03   -0.51782E-01   -0.51882E-01  8112   0.745E+01-0.380E-01
CGA:  27    -0.385433392812E+03   -0.46090E-01   -0.51271E-01  8112   0.785E+01-0.588E+00
CGA:  28    -0.385478322459E+03   -0.44930E-01   -0.47910E-01  8112   0.677E+01-0.371E+00
CGA:  29    -0.385513539089E+03   -0.35217E-01   -0.37928E-01  8112   0.427E+01-0.387E+00
CGA:  30    -0.385536792173E+03   -0.23253E-01   -0.25085E-01  8112   0.317E+01-0.228E+00
CGA:  31    -0.385561400405E+03   -0.24608E-01   -0.25149E-01  8112   0.399E+01-0.367E-01
SDA:  32    -0.385601745498E+03   -0.40345E-01   -0.40183E-01  8112   0.511E+01 0.882E-02
CGA:  33    -0.385658820621E+03   -0.57075E-01   -0.57995E-01  8112   0.610E+00-0.199E-01
CGA:  34    -0.385689183261E+03   -0.30363E-01   -0.30143E-01  8112   0.114E+01 0.833E-02
CGA:  35    -0.385737716874E+03   -0.48534E-01   -0.46434E-01  8112   0.859E+00 0.101E+00
CGA:  36    -0.385812620781E+03   -0.74904E-01   -0.74401E-01  8112   0.307E+00 0.886E-02
CGA:  37    -0.385826201970E+03   -0.13581E-01   -0.13149E-01  8112   0.236E+00 0.213E-01
CGA:  38    -0.385832196074E+03   -0.59941E-02   -0.59955E-02  8112   0.133E+00 0.587E-03
CGA:  39    -0.385846919508E+03   -0.14723E-01   -0.13439E-01  8112   0.147E+00 0.200E-01
CGA:  40    -0.385855951992E+03   -0.90325E-02   -0.90845E-02  8112   0.900E-01-0.197E-02
CGA:  41    -0.385858159285E+03   -0.22073E-02   -0.22227E-02  8112   0.405E-01 0.102E-02
CGA:  42    -0.385860190465E+03   -0.20312E-02   -0.20250E-02  8112   0.315E-01 0.281E-03
CGA:  43    -0.385861802085E+03   -0.16116E-02   -0.16043E-02  8112   0.332E-01 0.315E-03
CGA:  44    -0.385863739307E+03   -0.19372E-02   -0.19261E-02  8112   0.167E-01 0.399E-03
CGA:  45    -0.385864599666E+03   -0.86036E-03   -0.85143E-03  8112   0.219E-01 0.431E-03
CGA:  46    -0.385865476446E+03   -0.87678E-03   -0.87604E-03  8112   0.135E-01 0.890E-04
CGA:  47    -0.385866559908E+03   -0.10835E-02   -0.10871E-02  8112   0.143E-01-0.899E-04
CGA:  48    -0.385867257325E+03   -0.69742E-03   -0.69400E-03  8112   0.156E-01 0.206E-03
CGA:  49    -0.385867860304E+03   -0.60298E-03   -0.60287E-03  8112   0.484E-02 0.551E-04
CGA:  50    -0.385868085596E+03   -0.22529E-03   -0.22494E-03  8112   0.542E-02 0.295E-04
CGA:  51    -0.385868421236E+03   -0.33564E-03   -0.33444E-03  8112   0.475E-02 0.468E-04
CGA:  52    -0.385868734110E+03   -0.31287E-03   -0.31158E-03  8112   0.641E-02 0.456E-04
CGA:  53    -0.385868934391E+03   -0.20028E-03   -0.19974E-03  8112   0.168E-02-0.896E-05
CGA:  54    -0.385869077633E+03   -0.14324E-03   -0.14359E-03  8112   0.259E-02-0.762E-05
CGA:  55    -0.385869192604E+03   -0.11497E-03   -0.11499E-03  8112   0.296E-02-0.105E-04
CGA:  56    -0.385869378252E+03   -0.18565E-03   -0.18615E-03  8112   0.155E-02-0.234E-04
CGA:  57    -0.385869457758E+03   -0.79506E-04   -0.79575E-04  8112   0.173E-02-0.645E-05
CGA:  58    -0.385869535167E+03   -0.77408E-04   -0.77407E-04  8112   0.136E-02 0.740E-06
CGA:  59    -0.385869619401E+03   -0.84234E-04   -0.84088E-04  8112   0.128E-02 0.751E-05
CGA:  60    -0.385869669763E+03   -0.50363E-04   -0.50372E-04  8112   0.739E-03 0.345E-05
CGA:  61    -0.385869710482E+03   -0.40718E-04   -0.40704E-04  8112   0.549E-03 0.149E-05
CGA:  62    -0.385869734398E+03   -0.23916E-04   -0.23917E-04  8112   0.653E-03 0.345E-06
SDA:  63    -0.385869783716E+03   -0.49318E-04   -0.49331E-04  8112   0.354E-03-0.535E-06
CGA:  64    -0.385869793620E+03   -0.99038E-05   -0.98913E-05  8112   0.209E-03-0.756E-06
  18 F= -.38586979E+03 E0= -.38585016E+03  d E =0.912570E-01  mag=    18.0000
       N       E                     dE             d eps       ncg     rms          ort
SDA:   1    -0.376069241032E+03    0.98005E+01    0.00000E+00  8112   0.101E+03 0.000E+00
CGA:   2    -0.379155891842E+03   -0.30867E+01   -0.28940E+01  8112   0.455E+02-0.653E+01
CGA:   3    -0.380836849635E+03   -0.16810E+01   -0.16790E+01  8112   0.372E+02-0.805E-01
CGA:   4    -0.382531599849E+03   -0.16948E+01   -0.16957E+01  8112   0.465E+02-0.313E+00
CGA:   5    -0.384207024304E+03   -0.16754E+01   -0.16450E+01  8112   0.167E+02-0.907E+00
CGA:   6    -0.384616398266E+03   -0.40937E+00   -0.38691E+00  8112   0.110E+02 0.501E+00
CGA:   7    -0.385243990440E+03   -0.62759E+00   -0.62106E+00  8112   0.857E+01 0.384E+00
CGA:   8    -0.385557101075E+03   -0.31311E+00   -0.31094E+00  8112   0.909E+01-0.598E-01
CGA:   9    -0.385792262040E+03   -0.23516E+00   -0.23560E+00  8112   0.276E+01-0.123E-01
CGA:  10    -0.385843477590E+03   -0.51216E-01   -0.54613E-01  8112   0.123E+01-0.942E-01
CGA:  11    -0.385898525237E+03   -0.55048E-01   -0.54640E-01  8112   0.912E+00 0.484E-01
CGA:  12    -0.385929033076E+03   -0.30508E-01   -0.30498E-01  8112   0.921E+00 0.342E-04
CGA:  13    -0.385974825813E+03   -0.45793E-01   -0.45695E-01  8112   0.483E+00 0.721E-02
CGA:  14    -0.385987767185E+03   -0.12941E-01   -0.13308E-01  8112   0.265E+00 0.398E-03
CGA:  15    -0.385997610176E+03   -0.98430E-02   -0.98558E-02  8112   0.134E+00 0.162E-02
CGA:  16    -0.386003054858E+03   -0.54447E-02   -0.54446E-02  8112   0.160E+00 0.873E-03
CGA:  17    -0.386012522297E+03   -0.94674E-02   -0.93952E-02  8112   0.979E-01 0.317E-02
CGA:  18    -0.386016649126E+03   -0.41268E-02   -0.41268E-02  8112   0.567E-01 0.189E-03
CGA:  19    -0.386018437262E+03   -0.17881E-02   -0.17963E-02  8112   0.291E-01 0.199E-03
CGA:  20    -0.386020323832E+03   -0.18866E-02   -0.18832E-02  8112   0.451E-01 0.127E-03
CGA:  21    -0.386022074936E+03   -0.17511E-02   -0.17533E-02  8112   0.282E-01 0.314E-03
CGA:  22    -0.386023683438E+03   -0.16085E-02   -0.16066E-02  8112   0.125E-01 0.102E-03
CGA:  23    -0.386024210507E+03   -0.52707E-03   -0.52706E-03  8112   0.115E-01-0.897E-06
CGA:  24    -0.386024801068E+03   -0.59056E-03   -0.59053E-03  8112   0.984E-02 0.249E-05
CGA:  25    -0.386025370259E+03   -0.56919E-03   -0.56901E-03  8112   0.145E-01 0.111E-04
CGA:  26    -0.386025890044E+03   -0.51978E-03   -0.51998E-03  8112   0.425E-02 0.129E-05
CGA:  27    -0.386026135105E+03   -0.24506E-03   -0.24517E-03  8112   0.345E-02-0.852E-05
CGA:  28    -0.386026285277E+03   -0.15017E-03   -0.15017E-03  8112   0.339E-02-0.633E-05
CGA:  29    -0.386026538384E+03   -0.25311E-03   -0.25341E-03  8112   0.324E-02-0.105E-04
CGA:  30    -0.386026639339E+03   -0.10095E-03   -0.10092E-03  8112   0.197E-02-0.537E-05
CGA:  31    -0.386026726981E+03   -0.87643E-04   -0.87641E-04  8112   0.929E-03-0.434E-05
SDA:  32    -0.386026796032E+03   -0.69050E-04   -0.69203E-04  8112   0.173E-02-0.495E-05
CGA:  33    -0.386026833207E+03   -0.37176E-04   -0.37114E-04  8112   0.277E-03 0.920E-06
CGA:  34    -0.386026907530E+03   -0.74323E-04   -0.20877E-05  8112   0.121E-02-0.231E-04
CGA:  35    -0.386026977648E+03   -0.70118E-04   -0.70046E-04  8112   0.334E-03-0.244E-05
CGA:  36    -0.386026997672E+03   -0.20024E-04   -0.20013E-04  8112   0.664E-03-0.886E-06
CGA:  37    -0.386027030941E+03   -0.33269E-04   -0.33230E-04  8112   0.554E-03-0.166E-05
CGA:  38    -0.386027066154E+03   -0.35214E-04   -0.35187E-04  8112   0.347E-03-0.183E-05
CGA:  39    -0.386027084562E+03   -0.18408E-04   -0.18362E-04  8112   0.307E-03-0.165E-05
CGA:  40    -0.386027100496E+03   -0.15934E-04   -0.15892E-04  8112   0.201E-03-0.177E-05
CGA:  41    -0.386027113881E+03   -0.13385E-04   -0.13372E-04  8112   0.310E-03-0.172E-05
CGA:  42    -0.386027125153E+03   -0.11272E-04   -0.11220E-04  8112   0.189E-03-0.153E-05
CGA:  43    -0.386027135615E+03   -0.10462E-04   -0.10435E-04  8112   0.840E-04-0.128E-05
CGA:  44    -0.386027145058E+03   -0.94432E-05   -0.94477E-05  8112   0.109E-03-0.195E-06
  19 F= -.38602715E+03 E0= -.38600746E+03  d E =-.157351E+00  mag=    18.0000
       N       E                     dE             d eps       ncg     rms          ort
SDA:   1    -0.385107117032E+03    0.92002E+00    0.00000E+00  8112   0.309E+01 0.000E+00
CGA:   2    -0.385331758409E+03   -0.22464E+00   -0.22465E+00  8112   0.790E+01 0.543E-02
CGA:   3    -0.385656411102E+03   -0.32465E+00   -0.32635E+00  8112   0.322E+01-0.122E-01
CGA:   4    -0.385784489630E+03   -0.12808E+00   -0.12740E+00  8112   0.140E+01 0.470E-02
CGA:   5    -0.385863368165E+03   -0.78879E-01   -0.79218E-01  8112   0.156E+01 0.679E-02
CGA:   6    -0.385961047635E+03   -0.97679E-01   -0.97617E-01  8112   0.258E+00-0.326E-02
CGA:   7    -0.385973620592E+03   -0.12573E-01   -0.12511E-01  8112   0.179E+00-0.180E-03
CGA:   8    -0.385980347625E+03   -0.67270E-02   -0.67329E-02  8112   0.165E+00-0.354E-04
CGA:   9    -0.385989300032E+03   -0.89524E-02   -0.89413E-02  8112   0.813E-01-0.242E-03
CGA:  10    -0.385992226028E+03   -0.29260E-02   -0.29296E-02  8112   0.366E-01-0.421E-04
CGA:  11    -0.385994066672E+03   -0.18406E-02   -0.18392E-02  8112   0.157E-01-0.255E-04
CGA:  12    -0.385995114171E+03   -0.10475E-02   -0.10475E-02  8112   0.239E-01-0.781E-06
CGA:  13    -0.385995953155E+03   -0.83898E-03   -0.83952E-03  8112   0.137E-01 0.220E-05
CGA:  14    -0.385996629912E+03   -0.67676E-03   -0.67764E-03  8112   0.335E-02 0.232E-04
CGA:  15    -0.385996796442E+03   -0.16653E-03   -0.16660E-03  8112   0.378E-02 0.628E-05
CGA:  16    -0.385997091708E+03   -0.29527E-03   -0.29496E-03  8112   0.401E-02 0.166E-04
CGA:  17    -0.385997247532E+03   -0.15582E-03   -0.15596E-03  8112   0.265E-02 0.544E-05
CGA:  18    -0.385997331074E+03   -0.83542E-04   -0.83615E-04  8112   0.954E-03 0.226E-05
CGA:  19    -0.385997433142E+03   -0.10207E-03   -0.10197E-03  8112   0.121E-02 0.178E-05
CGA:  20    -0.385997505449E+03   -0.72308E-04   -0.72310E-04  8112   0.140E-02 0.113E-05
CGA:  21    -0.385997563883E+03   -0.58434E-04   -0.58433E-04  8112   0.840E-03 0.477E-06
CGA:  22    -0.385997600995E+03   -0.37112E-04   -0.37123E-04  8112   0.763E-03-0.821E-07
CGA:  23    -0.385997632331E+03   -0.31336E-04   -0.31336E-04  8112   0.260E-03-0.166E-06
CGA:  24    -0.385997675426E+03   -0.43095E-04   -0.43316E-04  8112   0.509E-03-0.211E-05
CGA:  25    -0.385997688585E+03   -0.13159E-04   -0.13133E-04  8112   0.167E-03-0.682E-06
CGA:  26    -0.385997696967E+03   -0.83821E-05   -0.83745E-05  8112   0.176E-03-0.732E-06
  20 F= -.38599770E+03 E0= -.38597801E+03  d E =0.294481E-01  mag=    18.0000
       N       E                     dE             d eps       ncg     rms          ort
SDA:   1    -0.372533132381E+03    0.13465E+02    0.00000E+00  8112   0.166E+03 0.000E+00
CGA:   2    -0.376813153637E+03   -0.42800E+01   -0.30684E+01  8112   0.440E+02 0.385E+02
CGA:   3    -0.378859283371E+03   -0.20461E+01   -0.22406E+01  8112   0.448E+02 0.152E+01
CGA:   4    -0.380680119948E+03   -0.18208E+01   -0.17013E+01  8112   0.531E+02-0.344E+00
CGA:   5    -0.382602245326E+03   -0.19221E+01   -0.14454E+01  8112   0.602E+02 0.333E+01
CGA:   6    -0.383615292171E+03   -0.10130E+01   -0.11853E+01  8112   0.360E+02-0.588E+01
CGA:   7    -0.383960128601E+03   -0.34484E+00   -0.46366E+00  8112   0.253E+02-0.796E+01
CGA:   8    -0.384284099887E+03   -0.32397E+00   -0.30086E+00  8112   0.286E+02 0.102E+01
CGA:   9    -0.384816608609E+03   -0.53251E+00   -0.46837E+00  8112   0.197E+02 0.312E+01
CGA:  10    -0.385044900876E+03   -0.22829E+00   -0.21752E+00  8112   0.904E+01 0.658E+00
CGA:  11    -0.385191067832E+03   -0.14617E+00   -0.15204E+00  8112   0.121E+02-0.198E+00
CGA:  12    -0.385408272319E+03   -0.21720E+00   -0.22782E+00  8112   0.134E+02-0.348E+00
CGA:  13    -0.385561509002E+03   -0.15324E+00   -0.17619E+00  8112   0.504E+01-0.120E+01
CGA:  14    -0.385628912218E+03   -0.67403E-01   -0.66014E-01  8112   0.405E+01 0.824E-01
CGA:  15    -0.385712073349E+03   -0.83161E-01   -0.75416E-01  8112   0.270E+01 0.257E+00
CGA:  16    -0.385742516208E+03   -0.30443E-01   -0.28096E-01  8112   0.102E+01 0.198E+00
CGA:  17    -0.385760291370E+03   -0.17775E-01   -0.18065E-01  8112   0.142E+01-0.105E-01
CGA:  18    -0.385794633242E+03   -0.34342E-01   -0.34652E-01  8112   0.250E+01-0.831E-04
CGA:  19    -0.385829982826E+03   -0.35350E-01   -0.36997E-01  8112   0.166E+01-0.678E-01
CGA:  20    -0.385856035230E+03   -0.26052E-01   -0.26470E-01  8112   0.170E+01-0.142E-01
CGA:  21    -0.385888787252E+03   -0.32752E-01   -0.34047E-01  8112   0.135E+01-0.204E-01
CGA:  22    -0.385904349856E+03   -0.15563E-01   -0.15806E-01  8112   0.366E+00-0.142E-01
CGA:  23    -0.385909932678E+03   -0.55828E-02   -0.56512E-02  8112   0.305E+00-0.229E-02
CGA:  24    -0.385918546084E+03   -0.86134E-02   -0.85898E-02  8112   0.485E+00-0.260E-02
CGA:  25    -0.385927558232E+03   -0.90121E-02   -0.91442E-02  8112   0.423E+00-0.133E-02
CGA:  26    -0.385936323062E+03   -0.87648E-02   -0.92002E-02  8112   0.413E+00 0.544E-02
CGA:  27    -0.385947395818E+03   -0.11073E-01   -0.11179E-01  8112   0.221E+00 0.106E-01
CGA:  28    -0.385951435578E+03   -0.40398E-02   -0.40028E-02  8112   0.672E-01 0.547E-03
CGA:  29    -0.385953491721E+03   -0.20561E-02   -0.20560E-02  8112   0.841E-01 0.806E-04
CGA:  30    -0.385956788865E+03   -0.32971E-02   -0.32770E-02  8112   0.842E-01 0.159E-02
CGA:  31    -0.385959288685E+03   -0.24998E-02   -0.25018E-02  8112   0.806E-01 0.941E-03
SDA:  32    -0.385962398048E+03   -0.31094E-02   -0.31079E-02  8112   0.429E-01 0.138E-03
CGA:  33    -0.385963337179E+03   -0.93913E-03   -0.93853E-03  8112   0.109E-01-0.628E-05
CGA:  34    -0.385964131511E+03   -0.79433E-03   -0.79353E-03  8112   0.237E-01 0.187E-04
CGA:  35    -0.385965221755E+03   -0.10902E-02   -0.10901E-02  8112   0.179E-01 0.129E-04
CGA:  36    -0.385966241161E+03   -0.10194E-02   -0.10179E-02  8112   0.611E-02 0.584E-04
CGA:  37    -0.385966718412E+03   -0.47725E-03   -0.47707E-03  8112   0.305E-02 0.214E-05
CGA:  38    -0.385967029767E+03   -0.31136E-03   -0.31023E-03  8112   0.588E-02 0.170E-04
[...]
CGA:  21    -0.385763663837E+03   -0.74383E-01   -0.74571E-01  8112   0.106E+01 0.115E+00
CGA:  22    -0.385810248965E+03   -0.46585E-01   -0.46592E-01  8112   0.591E+00-0.139E-01
CGA:  23    -0.385851642561E+03   -0.41394E-01   -0.38897E-01  8112   0.936E+00 0.831E-01
CGA:  24    -0.385876382785E+03   -0.24740E-01   -0.24420E-01  8112   0.688E+00 0.386E-02
CGA:  25    -0.385904205921E+03   -0.27823E-01   -0.27899E-01  8112   0.364E+00 0.388E-01
CGA:  26    -0.385920316132E+03   -0.16110E-01   -0.16088E-01  8112   0.230E+00 0.183E-01
CGA:  27    -0.385927217398E+03   -0.69013E-02   -0.69586E-02  8112   0.197E+00 0.377E-03
CGA:  28    -0.385938180135E+03   -0.10963E-01   -0.10889E-01  8112   0.220E+00 0.380E-02
CGA:  29    -0.385951257384E+03   -0.13077E-01   -0.12956E-01  8112   0.136E+00 0.563E-02
CGA:  30    -0.385957751016E+03   -0.64936E-02   -0.64640E-02  8112   0.146E+00 0.413E-02
CGA:  31    -0.385964155066E+03   -0.64040E-02   -0.64039E-02  8112   0.164E+00 0.389E-03
CGA:  32    -0.385974432839E+03   -0.10278E-01   -0.10319E-01  8112   0.117E+00-0.167E-02
CGA:  33    -0.385979517397E+03   -0.50846E-02   -0.50831E-02  8112   0.572E-01 0.182E-02
CGA:  34    -0.385983207272E+03   -0.36899E-02   -0.36971E-02  8112   0.111E+00-0.274E-03
SDA:  35    -0.385988306699E+03   -0.50994E-02   -0.50980E-02  8112   0.777E-01 0.459E-03
CGA:  36    -0.385990417669E+03   -0.21110E-02   -0.21178E-02  8112   0.292E-01-0.499E-04
CGA:  37    -0.385992593567E+03   -0.21759E-02   -0.21716E-02  8112   0.518E-01 0.121E-03
CGA:  38    -0.385995210544E+03   -0.26170E-02   -0.26188E-02  8112   0.505E-01-0.204E-03
CGA:  39    -0.385998231286E+03   -0.30207E-02   -0.30195E-02  8112   0.263E-01 0.632E-04
CGA:  40    -0.386000404194E+03   -0.21729E-02   -0.21831E-02  8112   0.121E-01-0.265E-03
CGA:  41    -0.386001661108E+03   -0.12569E-02   -0.12618E-02  8112   0.231E-01-0.881E-04
CGA:  42    -0.386002963282E+03   -0.13022E-02   -0.13061E-02  8112   0.311E-01-0.416E-03
CGA:  43    -0.386004291751E+03   -0.13285E-02   -0.13260E-02  8112   0.138E-01-0.122E-03
CGA:  44    -0.386004799863E+03   -0.50811E-03   -0.50758E-03  8112   0.856E-02-0.502E-05
CGA:  45    -0.386005672151E+03   -0.87229E-03   -0.87687E-03  8112   0.140E-01-0.917E-04
CGA:  46    -0.386006991833E+03   -0.13197E-02   -0.13216E-02  8112   0.894E-02-0.659E-04
CGA:  47    -0.386007206039E+03   -0.21421E-03   -0.21101E-03  8112   0.432E-02 0.959E-04
CGA:  48    -0.386007461513E+03   -0.25547E-03   -0.25549E-03  8112   0.246E-02-0.921E-06
CGA:  49    -0.386007712840E+03   -0.25133E-03   -0.24938E-03  8112   0.683E-02 0.391E-04
CGA:  50    -0.386007960910E+03   -0.24807E-03   -0.24425E-03  8112   0.509E-02 0.118E-04
CGA:  51    -0.386008244275E+03   -0.28336E-03   -0.28337E-03  8112   0.238E-02-0.669E-05
CGA:  52    -0.386008306813E+03   -0.62538E-04   -0.62878E-04  8112   0.921E-03-0.584E-05
CGA:  53    -0.386008365021E+03   -0.58209E-04   -0.58184E-04  8112   0.226E-02 0.316E-05
CGA:  54    -0.386008505707E+03   -0.14069E-03   -0.14056E-03  8112   0.171E-02 0.158E-04
CGA:  55    -0.386008593395E+03   -0.87687E-04   -0.87750E-04  8112   0.115E-02 0.148E-04
CGA:  56    -0.386008620584E+03   -0.27189E-04   -0.27287E-04  8112   0.485E-03 0.354E-05
CGA:  57    -0.386008667017E+03   -0.46433E-04   -0.46270E-04  8112   0.557E-03 0.347E-05
CGA:  58    -0.386008697393E+03   -0.30376E-04   -0.30377E-04  8112   0.101E-02 0.418E-06
CGA:  59    -0.386008740365E+03   -0.42972E-04   -0.42929E-04  8112   0.517E-03-0.132E-05
CGA:  60    -0.386008771274E+03   -0.30909E-04   -0.30907E-04  8112   0.421E-03 0.647E-07
CGA:  61    -0.386008783737E+03   -0.12463E-04   -0.12499E-04  8112   0.260E-03 0.924E-06
CGA:  62    -0.386008799536E+03   -0.15799E-04   -0.15788E-04  8112   0.426E-03 0.188E-05
CGA:  63    -0.386008824688E+03   -0.25152E-04   -0.25144E-04  8112   0.369E-03 0.317E-05
CGA:  64    -0.386008838442E+03   -0.13753E-04   -0.13817E-04  8112   0.187E-03 0.245E-05
CGA:  65    -0.386008843450E+03   -0.50087E-05   -0.50130E-05  8112   0.102E-03-0.185E-07
SDA:  66    -0.386008864944E+03   -0.21493E-04   -0.22726E-04  8112   0.286E-03-0.847E-05
CGA:  67    -0.386008870086E+03   -0.51424E-05   -0.51346E-05  8112   0.615E-04-0.447E-06
  97 F= -.38600887E+03 E0= -.38598985E+03  d E =-.992974E-01  mag=    18.0000
       N       E                     dE             d eps       ncg     rms          ort
SDA:   1    -0.355053330940E+03    0.30956E+02    0.00000E+00  8112   0.192E+03 0.000E+00
CGA:   2    -0.359156436979E+03   -0.41031E+01   -0.48678E+01  8112   0.146E+03-0.110E+02
CGA:   3    -0.367520811927E+03   -0.83644E+01   -0.12134E+02  8112   0.686E+03-0.918E+02
CGA:   4    -0.366785297335E+03    0.73551E+00   -0.16001E+02  8112   0.613E+03-0.452E+03
CGA:   5    -0.367540643820E+03   -0.75535E+00   -0.12573E+02  8112   0.912E+03-0.845E+03
CGA:   6    -0.367818122587E+03   -0.27748E+00   -0.19945E+02  8112   0.560E+03-0.506E+03
CGA:   7    -0.374847339500E+03   -0.70292E+01   -0.98929E+01  8112   0.398E+03-0.630E+03
CGA:   8    -0.376105692267E+03   -0.12584E+01   -0.71917E+01  8112   0.262E+03-0.265E+03
CGA:   9    -0.379075913857E+03   -0.29702E+01   -0.32828E+01  8112   0.413E+02-0.818E+02
CGA:  10    -0.380211995778E+03   -0.11361E+01   -0.11377E+01  8112   0.426E+02-0.557E-01
CGA:  11    -0.381654134836E+03   -0.14421E+01   -0.13972E+01  8112   0.499E+02-0.380E+00
CGA:  12    -0.384038421663E+03   -0.23843E+01   -0.23765E+01  8112   0.464E+02 0.407E+01
CGA:  13    -0.385062557752E+03   -0.10241E+01   -0.10124E+01  8112   0.105E+02 0.294E-01
CGA:  14    -0.385317224227E+03   -0.25467E+00   -0.27638E+00  8112   0.588E+01-0.264E+00
CGA:  15    -0.385528791050E+03   -0.21157E+00   -0.21174E+00  8112   0.514E+01 0.486E-02
CGA:  16    -0.385721146294E+03   -0.19236E+00   -0.19621E+00  8112   0.336E+01 0.212E+00
CGA:  17    -0.385819427091E+03   -0.98281E-01   -0.98020E-01  8112   0.146E+01 0.467E-04
CGA:  18    -0.385871329040E+03   -0.51902E-01   -0.52679E-01  8112   0.100E+01 0.323E-01
CGA:  19    -0.385909568126E+03   -0.38239E-01   -0.38275E-01  8112   0.716E+00 0.220E-02
CGA:  20    -0.385938311625E+03   -0.28743E-01   -0.28891E-01  8112   0.446E+00 0.280E-01
CGA:  21    -0.385953785306E+03   -0.15474E-01   -0.15495E-01  8112   0.249E+00 0.533E-03
CGA:  22    -0.385965065848E+03   -0.11281E-01   -0.11227E-01  8112   0.195E+00 0.103E-01
CGA:  23    -0.385972946002E+03   -0.78802E-02   -0.78819E-02  8112   0.130E+00 0.211E-03
CGA:  24    -0.385979014793E+03   -0.60688E-02   -0.60344E-02  8112   0.998E-01 0.466E-02
CGA:  25    -0.385983342424E+03   -0.43276E-02   -0.43276E-02  8112   0.745E-01-0.261E-04
CGA:  26    -0.385987025098E+03   -0.36827E-02   -0.36588E-02  8112   0.571E-01 0.219E-02
CGA:  27    -0.385989421800E+03   -0.23967E-02   -0.23968E-02  8112   0.395E-01 0.182E-04
CGA:  28    -0.385991520638E+03   -0.20988E-02   -0.20863E-02  8112   0.367E-01 0.836E-03
CGA:  29    -0.385993146492E+03   -0.16259E-02   -0.16258E-02  8112   0.232E-01 0.687E-04
CGA:  30    -0.385994138683E+03   -0.99219E-03   -0.99225E-03  8112   0.149E-01 0.141E-03
CGA:  31    -0.385994832858E+03   -0.69418E-03   -0.69395E-03  8112   0.117E-01 0.457E-04
CGA:  32    -0.385995407047E+03   -0.57419E-03   -0.57370E-03  8112   0.908E-02 0.561E-04
CGA:  33    -0.385995802823E+03   -0.39578E-03   -0.39578E-03  8112   0.551E-02 0.276E-04
CGA:  34    -0.385996047554E+03   -0.24473E-03   -0.24472E-03  8112   0.412E-02 0.111E-04
CGA:  35    -0.385996273782E+03   -0.22623E-03   -0.22594E-03  8112   0.417E-02 0.207E-04
CGA:  36    -0.385996482460E+03   -0.20868E-03   -0.20863E-03  8112   0.313E-02 0.816E-05
CGA:  37    -0.385996622467E+03   -0.14001E-03   -0.14000E-03  8112   0.218E-02 0.133E-04
CGA:  38    -0.385996735859E+03   -0.11339E-03   -0.11337E-03  8112   0.209E-02 0.321E-05
SDA:  39    -0.385996849933E+03   -0.11407E-03   -0.11393E-03  8112   0.187E-02 0.115E-04
CGA:  40    -0.385996879768E+03   -0.29834E-04   -0.29817E-04  8112   0.284E-03-0.667E-06
CGA:  41    -0.385996993840E+03   -0.11407E-03   -0.41091E-04  8112   0.540E-03 0.117E-03
CGA:  42    -0.385997059532E+03   -0.65692E-04   -0.65691E-04  8112   0.975E-03-0.343E-06
CGA:  43    -0.385997101386E+03   -0.41855E-04   -0.41833E-04  8112   0.710E-03 0.129E-06
CGA:  44    -0.385997141609E+03   -0.40222E-04   -0.40193E-04  8112   0.665E-03 0.204E-06
CGA:  45    -0.385997159257E+03   -0.17649E-04   -0.17674E-04  8112   0.168E-03 0.195E-06
CGA:  46    -0.385997171930E+03   -0.12672E-04   -0.12672E-04  8112   0.224E-03-0.128E-06
CGA:  47    -0.385997181804E+03   -0.98742E-05   -0.98751E-05  8112   0.262E-03 0.604E-07
CGA:  48    -0.385997202012E+03   -0.20208E-04   -0.20203E-04  8112   0.390E-03 0.912E-06
CGA:  49    -0.385997216878E+03   -0.14867E-04   -0.14891E-04  8112   0.298E-03 0.668E-06
CGA:  50    -0.385997232014E+03   -0.15135E-04   -0.15150E-04  8112   0.140E-03 0.399E-06
CGA:  51    -0.385997239554E+03   -0.75404E-05   -0.75425E-05  8112   0.216E-03-0.339E-08
CGA:  52    -0.385997250819E+03   -0.11265E-04   -0.11267E-04  8112   0.194E-03 0.187E-06
CGA:  53    -0.385997260584E+03   -0.97647E-05   -0.97831E-05  8112   0.217E-03 0.506E-06
  98 F= -.38599726E+03 E0= -.38597792E+03  d E =0.116095E-01  mag=    18.0000
       N       E                     dE             d eps       ncg     rms          ort
SDA:   1    -0.376662167450E+03    0.93351E+01    0.00000E+00  8112   0.292E+02 0.000E+00
CGA:   2    -0.378685056599E+03   -0.20229E+01   -0.20170E+01  8112   0.809E+02 0.124E+01
CGA:   3    -0.383402262472E+03   -0.47172E+01   -0.45874E+01  8112   0.291E+02 0.392E-01
CGA:   4    -0.384280252507E+03   -0.87799E+00   -0.80866E+00  8112   0.101E+02 0.159E+01
CGA:   5    -0.384913515898E+03   -0.63326E+00   -0.63368E+00  8112   0.181E+02 0.385E-01
CGA:   6    -0.385380403352E+03   -0.46689E+00   -0.42018E+00  8112   0.972E+01 0.144E+01
CGA:   7    -0.385718122098E+03   -0.33772E+00   -0.33046E+00  8112   0.290E+01 0.122E+00
CGA:   8    -0.385807804153E+03   -0.89682E-01   -0.94130E-01  8112   0.202E+01-0.561E-01
CGA:   9    -0.385857690324E+03   -0.49886E-01   -0.50397E-01  8112   0.146E+01-0.124E-01
CGA:  10    -0.385922468088E+03   -0.64778E-01   -0.65050E-01  8112   0.972E+00 0.527E-02
CGA:  11    -0.385962569142E+03   -0.40101E-01   -0.41330E-01  8112   0.563E+00 0.158E-01
CGA:  12    -0.385977199682E+03   -0.14631E-01   -0.14516E-01  8112   0.335E+00 0.261E-02
CGA:  13    -0.385988063891E+03   -0.10864E-01   -0.11048E-01  8112   0.166E+00-0.115E-02
CGA:  14    -0.385997272279E+03   -0.92084E-02   -0.91898E-02  8112   0.126E+00 0.433E-02
CGA:  15    -0.386001458417E+03   -0.41861E-02   -0.41436E-02  8112   0.104E+00 0.342E-03
CGA:  16    -0.386005708494E+03   -0.42501E-02   -0.42978E-02  8112   0.857E-01 0.101E-02
CGA:  17    -0.386008898024E+03   -0.31895E-02   -0.32189E-02  8112   0.235E-01 0.261E-03
CGA:  18    -0.386010143978E+03   -0.12460E-02   -0.12462E-02  8112   0.270E-01-0.804E-04
CGA:  19    -0.386011122142E+03   -0.97816E-03   -0.99270E-03  8112   0.243E-01 0.130E-03
CGA:  20    -0.386012633972E+03   -0.15118E-02   -0.15116E-02  8112   0.187E-01 0.828E-05
CGA:  21    -0.386013414772E+03   -0.78080E-03   -0.78094E-03  8112   0.887E-02 0.305E-05
CGA:  22    -0.386014011584E+03   -0.59681E-03   -0.59433E-03  8112   0.780E-02 0.113E-03
CGA:  23    -0.386014420900E+03   -0.40932E-03   -0.40933E-03  8112   0.130E-01-0.108E-04
CGA:  24    -0.386015081618E+03   -0.66072E-03   -0.66084E-03  8112   0.676E-02 0.935E-04
CGA:  25    -0.386015369531E+03   -0.28791E-03   -0.28813E-03  8112   0.425E-02 0.110E-04
CGA:  26    -0.386015622487E+03   -0.25296E-03   -0.25295E-03  8112   0.310E-02 0.153E-05
CGA:  27    -0.386015758469E+03   -0.13598E-03   -0.13604E-03  8112   0.388E-02 0.397E-05
CGA:  28    -0.386015941543E+03   -0.18307E-03   -0.18310E-03  8112   0.196E-02 0.526E-05
CGA:  29    -0.386016041697E+03   -0.10015E-03   -0.10015E-03  8112   0.125E-02 0.472E-05
CGA:  30    -0.386016110167E+03   -0.68470E-04   -0.68455E-04  8112   0.122E-02 0.386E-05
CGA:  31    -0.386016161558E+03   -0.51391E-04   -0.51422E-04  8112   0.102E-02 0.370E-05
SDA:  32    -0.386016202629E+03   -0.41071E-04   -0.41089E-04  8112   0.694E-03 0.246E-05
CGA:  33    -0.386016222997E+03   -0.20368E-04   -0.20366E-04  8112   0.330E-03-0.477E-06
CGA:  34    -0.386016244079E+03   -0.21083E-04   -0.21089E-04  8112   0.487E-03-0.594E-06
CGA:  35    -0.386016270228E+03   -0.26149E-04   -0.26154E-04  8112   0.610E-03-0.105E-05
CGA:  36    -0.386016306433E+03   -0.36205E-04   -0.36215E-04  8112   0.474E-03-0.134E-05
CGA:  37    -0.386016341187E+03   -0.34754E-04   -0.34776E-04  8112   0.242E-03-0.103E-05
CGA:  38    -0.386016362390E+03   -0.21203E-04   -0.21193E-04  8112   0.165E-03 0.114E-06
CGA:  39    -0.386016379660E+03   -0.17270E-04   -0.17290E-04  8112   0.402E-03-0.464E-06
CGA:  40    -0.386016390450E+03   -0.10790E-04   -0.10769E-04  8112   0.102E-03-0.666E-07
CGA:  41    -0.386016398324E+03   -0.78734E-05   -0.78871E-05  8112   0.698E-04-0.719E-06
  99 F= -.38601640E+03 E0= -.38599727E+03  d E =-.191377E-01  mag=    18.0000
       N       E                     dE             d eps       ncg     rms          ort
SDA:   1    -0.382084676496E+03    0.39317E+01    0.00000E+00  8112   0.977E+01 0.000E+00
CGA:   2    -0.384938407662E+03   -0.28537E+01   -0.28446E+01  8112   0.113E+02 0.496E-01
CGA:   3    -0.385278414131E+03   -0.34001E+00   -0.35663E+00  8112   0.747E+01-0.262E+00
CGA:   4    -0.385539012311E+03   -0.26060E+00   -0.24308E+00  8112   0.361E+01 0.266E+00
CGA:   5    -0.385798056840E+03   -0.25904E+00   -0.25885E+00  8112   0.402E+01 0.408E-01
CGA:   6    -0.385906505435E+03   -0.10845E+00   -0.10945E+00  8112   0.109E+01-0.262E-01
CGA:   7    -0.385938315456E+03   -0.31810E-01   -0.31653E-01  8112   0.571E+00 0.360E-02
CGA:   8    -0.385964727525E+03   -0.26412E-01   -0.26354E-01  8112   0.332E+00-0.199E-03
CGA:   9    -0.385986725681E+03   -0.21998E-01   -0.22002E-01  8112   0.400E+00-0.468E-03
CGA:  10    -0.385996396434E+03   -0.96708E-02   -0.96102E-02  8112   0.124E+00 0.190E-02
CGA:  11    -0.386002561069E+03   -0.61646E-02   -0.61666E-02  8112   0.501E-01 0.725E-04
CGA:  12    -0.386004653385E+03   -0.20923E-02   -0.20972E-02  8112   0.504E-01 0.177E-04
CGA:  13    -0.386006796575E+03   -0.21432E-02   -0.21440E-02  8112   0.415E-01-0.686E-06
CGA:  14    -0.386008595929E+03   -0.17994E-02   -0.18026E-02  8112   0.228E-01 0.294E-04
CGA:  15    -0.386009416316E+03   -0.82039E-03   -0.82110E-03  8112   0.775E-02-0.124E-04
CGA:  16    -0.386009733126E+03   -0.31681E-03   -0.31677E-03  8112   0.893E-02-0.354E-05
CGA:  17    -0.386010119725E+03   -0.38660E-03   -0.38645E-03  8112   0.519E-02-0.369E-05
CGA:  18    -0.386010539797E+03   -0.42007E-03   -0.42000E-03  8112   0.570E-02 0.205E-05
CGA:  19    -0.386010750068E+03   -0.21027E-03   -0.21019E-03  8112   0.516E-02 0.125E-05
CGA:  20    -0.386010965902E+03   -0.21583E-03   -0.21596E-03  8112   0.222E-02 0.442E-05
CGA:  21    -0.386011059863E+03   -0.93961E-04   -0.93969E-04  8112   0.207E-02 0.126E-05
CGA:  22    -0.386011288653E+03   -0.22879E-03   -0.22847E-03  8112   0.454E-02 0.556E-05
CGA:  23    -0.386011425023E+03   -0.13637E-03   -0.13649E-03  8112   0.231E-02 0.613E-05
CGA:  24    -0.386011518940E+03   -0.93917E-04   -0.93965E-04  8112   0.739E-03 0.323E-05
CGA:  25    -0.386011588983E+03   -0.70043E-04   -0.69934E-04  8112   0.206E-02 0.284E-05
CGA:  26    -0.386011665388E+03   -0.76406E-04   -0.76493E-04  8112   0.119E-02 0.358E-05
CGA:  27    -0.386011717087E+03   -0.51699E-04   -0.51706E-04  8112   0.664E-03 0.189E-05
CGA:  28    -0.386011743006E+03   -0.25920E-04   -0.25937E-04  8112   0.357E-03 0.109E-05
CGA:  29    -0.386011770924E+03   -0.27918E-04   -0.27911E-04  8112   0.773E-03 0.214E-06
CGA:  30    -0.386011795981E+03   -0.25056E-04   -0.25052E-04  8112   0.337E-03-0.190E-06
CGA:  31    -0.386011824373E+03   -0.28393E-04   -0.28368E-04  8112   0.282E-03 0.751E-06
SDA:  32    -0.386011835226E+03   -0.10852E-04   -0.10862E-04  8112   0.234E-03 0.349E-06
CGA:  33    -0.386011840162E+03   -0.49364E-05   -0.49365E-05  8112   0.895E-04-0.373E-07
 100 F= -.38601184E+03 E0= -.38599270E+03  d E =0.455816E-02  mag=    18.0000
       N       E                     dE             d eps       ncg     rms          ort
SDA:   1    -0.385675829272E+03    0.33601E+00    0.00000E+00  8112   0.152E+01 0.000E+00
CGA:   2    -0.385733830279E+03   -0.58001E-01   -0.58405E-01  8112   0.172E+01 0.160E-02
CGA:   3    -0.385851633579E+03   -0.11780E+00   -0.11761E+00  8112   0.220E+01 0.954E-02
CGA:   4    -0.385942126947E+03   -0.90493E-01   -0.90164E-01  8112   0.826E+00-0.371E-02
CGA:   5    -0.385968966974E+03   -0.26840E-01   -0.26443E-01  8112   0.217E+00 0.336E-02
CGA:   6    -0.385995808531E+03   -0.26842E-01   -0.26887E-01  8112   0.195E+00-0.698E-03
CGA:   7    -0.386005806006E+03   -0.99975E-02   -0.99936E-02  8112   0.451E-01-0.296E-03
CGA:   8    -0.386008383151E+03   -0.25771E-02   -0.25770E-02  8112   0.297E-01 0.837E-04
CGA:   9    -0.386009632034E+03   -0.12489E-02   -0.12489E-02  8112   0.194E-01 0.618E-05
CGA:  10    -0.386011054290E+03   -0.14223E-02   -0.14223E-02  8112   0.169E-01-0.124E-05
CGA:  11    -0.386011466295E+03   -0.41201E-03   -0.41201E-03  8112   0.525E-02-0.437E-05
CGA:  12    -0.386011700000E+03   -0.23370E-03   -0.23383E-03  8112   0.215E-02 0.743E-06
CGA:  13    -0.386011977034E+03   -0.27703E-03   -0.27771E-03  8112   0.233E-02-0.952E-05
CGA:  14    -0.386012064770E+03   -0.87735E-04   -0.87767E-04  8112   0.116E-02-0.798E-06
CGA:  15    -0.386012129847E+03   -0.65077E-04   -0.65077E-04  8112   0.547E-03 0.161E-08
CGA:  16    -0.386012162030E+03   -0.32184E-04   -0.32184E-04  8112   0.802E-03-0.184E-06
CGA:  17    -0.386012191416E+03   -0.29386E-04   -0.29384E-04  8112   0.484E-03-0.437E-06
CGA:  18    -0.386012236950E+03   -0.45534E-04   -0.45507E-04  8112   0.404E-03 0.539E-06
CGA:  19    -0.386012257300E+03   -0.20350E-04   -0.20357E-04  8112   0.225E-03 0.723E-06
CGA:  20    -0.386012269190E+03   -0.11890E-04   -0.11893E-04  8112   0.244E-03 0.468E-06
CGA:  21    -0.386012299618E+03   -0.30428E-04   -0.30289E-04  8112   0.272E-03 0.189E-05
CGA:  22    -0.386012306108E+03   -0.64897E-05   -0.65058E-05  8112   0.102E-03 0.335E-06
 101 F= -.38601231E+03 E0= -.38599307E+03  d E =-.465946E-03  mag=    18.0000
       N       E                     dE             d eps       ncg     rms          ort
SDA:   1    -0.385952004341E+03    0.60295E-01    0.00000E+00  8112   0.474E+00 0.000E+00
CGA:   2    -0.385963399574E+03   -0.11395E-01   -0.11397E-01  8112   0.232E+00 0.641E-04
CGA:   3    -0.385978505408E+03   -0.15106E-01   -0.15120E-01  8112   0.346E+00-0.110E-02
CGA:   4    -0.386000534668E+03   -0.22029E-01   -0.22023E-01  8112   0.170E+00 0.657E-03
CGA:   5    -0.386005414934E+03   -0.48803E-02   -0.48802E-02  8112   0.409E-01-0.143E-05
CGA:   6    -0.386010672359E+03   -0.52574E-02   -0.52629E-02  8112   0.393E-01-0.776E-04
CGA:   7    -0.386012144363E+03   -0.14720E-02   -0.14721E-02  8112   0.206E-01-0.222E-05
CGA:   8    -0.386012670511E+03   -0.52615E-03   -0.52497E-03  8112   0.588E-02 0.307E-04
CGA:   9    -0.386013103379E+03   -0.43287E-03   -0.43293E-03  8112   0.488E-02-0.237E-05
CGA:  10    -0.386013333022E+03   -0.22964E-03   -0.22968E-03  8112   0.309E-02 0.191E-05
CGA:  11    -0.386013478709E+03   -0.14569E-03   -0.14570E-03  8112   0.103E-02 0.117E-05
CGA:  12    -0.386013560453E+03   -0.81744E-04   -0.81753E-04  8112   0.426E-03-0.623E-06
CGA:  13    -0.386013579021E+03   -0.18568E-04   -0.18566E-04  8112   0.615E-03 0.102E-07
CGA:  14    -0.386013616844E+03   -0.37823E-04   -0.37819E-04  8112   0.353E-03 0.993E-06
CGA:  15    -0.386013629459E+03   -0.12616E-04   -0.12629E-04  8112   0.133E-03 0.583E-06
CGA:  16    -0.386013635360E+03   -0.59010E-05   -0.59108E-05  8112   0.667E-04 0.738E-06
 102 F= -.38601364E+03 E0= -.38599443E+03  d E =-.132925E-02  mag=    18.0000
