       N       E                     dE             d eps       ncg     rms          ort
DAV:   1     0.637272124134E+04    0.63727E+04   -0.31689E+05  8320   0.178E+03
DAV:   2     0.346340589834E+03   -0.60264E+04   -0.56401E+04  8320   0.511E+02
DAV:   3    -0.299642611266E+03   -0.64598E+03   -0.62610E+03  8320   0.188E+02
DAV:   4    -0.318268050808E+03   -0.18625E+02   -0.18476E+02  8320   0.348E+01
DAV:   5    -0.318790050370E+03   -0.52200E+00   -0.51899E+00  8320   0.530E+00
SDA:   6     0.887679818737E+02    0.40756E+03   -0.51899E+00  8320   0.264E+04 0.000E+00
CGA:   7     0.764755028325E+00   -0.88003E+02   -0.10985E+03  8320   0.930E+04-0.139E+04
CGA:   8     0.551933160300E+03    0.55117E+03   -0.60179E+03  8320   0.231E+05-0.334E+04
CGA:   9     0.296918349071E+04    0.24173E+04   -0.65466E+03  8320   0.219E+06-0.911E+05
CGA:  10     0.748269250762E+04    0.45135E+04   -0.15414E+05  8320   0.215E+06-0.101E+06
CGA:  11     0.307490386479E+04   -0.44078E+04   -0.67780E+04  8320   0.235E+05-0.133E+05
CGA:  12     0.946794321145E+03   -0.21281E+04   -0.53958E+03  8320   0.433E+05-0.130E+05
CGA:  13     0.251719730832E+04    0.15704E+04   -0.25239E+04  8320   0.958E+05-0.459E+05
CGA:  14     0.273201640034E+04    0.21482E+03   -0.57480E+04  8320   0.416E+05-0.233E+05
CGA:  15     0.741083294919E+03   -0.19909E+04   -0.10535E+04  8320   0.293E+05 0.357E+05
CGA:  16     0.106926374424E+04    0.32818E+03   -0.13929E+04  8320   0.767E+05-0.419E+05
CGA:  17     0.229753657651E+04    0.12283E+04   -0.43490E+04  8320   0.184E+05-0.871E+04
CGA:  18     0.129692578841E+03   -0.21678E+04   -0.36380E+03  8320   0.107E+05 0.250E+05
CGA:  19     0.274520977946E+02   -0.10224E+03   -0.36409E+03  8320   0.760E+04-0.595E+04
CGA:  20     0.203212933667E+02   -0.71308E+01   -0.19964E+03  8320   0.171E+05-0.105E+05
CGA:  21     0.144975861326E+03    0.12465E+03   -0.73226E+03  8320   0.160E+05-0.955E+04
CGA:  22     0.282126957316E+03    0.13715E+03   -0.59461E+03  8320   0.413E+05-0.337E+05
CGA:  23     0.751213878352E+03    0.46909E+03   -0.16762E+04  8320   0.577E+05-0.372E+05
CGA:  24     0.185685997666E+04    0.11056E+04   -0.26369E+04  8320   0.422E+05-0.220E+05
CGA:  25     0.649138766338E+03   -0.12077E+04   -0.81331E+03  8320   0.410E+05-0.581E+05
CGA:  26     0.114126384899E+04    0.49213E+03   -0.14683E+04  8320   0.532E+05-0.422E+05
CGA:  27     0.208212933125E+04    0.94087E+03   -0.19395E+04  8320   0.861E+05-0.526E+05
CGA:  28     0.199619711011E+04   -0.85932E+02   -0.34531E+04  8320   0.454E+05-0.310E+05
CGA:  29     0.467036091392E+03   -0.15292E+04   -0.93645E+03  8320   0.310E+05-0.448E+05
CGA:  30     0.518010149704E+03    0.50974E+02   -0.89700E+03  8320   0.332E+05-0.221E+05
CGA:  31     0.708792717402E+03    0.19078E+03   -0.97008E+03  8320   0.254E+05-0.159E+05
CGA:  32    -0.718721093842E+02   -0.78066E+03   -0.22817E+03  8320   0.546E+04-0.928E+04
CGA:  33    -0.127550768728E+03   -0.55679E+02   -0.85814E+02  8320   0.329E+04-0.192E+03
CGA:  34    -0.923606693319E+02    0.35190E+02   -0.53233E+02  8320   0.707E+04-0.362E+04
CGA:  35    -0.115198897454E+03   -0.22838E+02   -0.10505E+03  8320   0.891E+04-0.938E+04
CGA:  36     0.349940875648E+02    0.15019E+03   -0.16545E+03  8320   0.330E+05-0.163E+05
CGA:  37     0.351021369735E+03    0.31603E+03   -0.75628E+03  8320   0.558E+05-0.349E+05
CGA:  38     0.904400887868E+03    0.55338E+03   -0.14483E+04  8320   0.370E+05-0.255E+05
CGA:  39     0.331277751470E+02   -0.87127E+03   -0.32212E+03  8320   0.180E+05-0.404E+05
CGA:  40     0.988012997322E+02    0.65674E+02   -0.32500E+03  8320   0.501E+05-0.429E+05
CGA:  41     0.537678802141E+03    0.43888E+03   -0.10978E+04  8320   0.437E+05-0.267E+05
CGA:  42     0.102423909383E+04    0.48656E+03   -0.91648E+03  8320   0.278E+05-0.200E+05
CGA:  43    -0.623449772981E+02   -0.10866E+04   -0.17811E+03  8320   0.930E+04-0.297E+05
CGA:  44    -0.179743435737E+03   -0.11740E+03   -0.10804E+03  8320   0.127E+04-0.320E+04
CGA:  45    -0.191177189727E+03   -0.11434E+02   -0.97394E+01  8320   0.146E+03 0.166E+03
CGA:  46    -0.192691864256E+03   -0.15147E+01   -0.14594E+01  8320   0.629E+02 0.419E+01
CGA:  47    -0.195864678787E+03   -0.31728E+01   -0.31641E+01  8320   0.198E+03 0.421E+01
CGA:  48    -0.199368546163E+03   -0.35039E+01   -0.24846E+01  8320   0.238E+03 0.453E+02
CGA:  49    -0.201313991812E+03   -0.19454E+01   -0.75323E+01  8320   0.101E+04 0.251E+02
CGA:  50    -0.205111884869E+03   -0.37979E+01   -0.13277E+02  8320   0.427E+03-0.496E+03
CGA:  51    -0.207464364095E+03   -0.23525E+01   -0.22718E+01  8320   0.236E+03 0.407E+01
CGA:  52    -0.210075324266E+03   -0.26110E+01   -0.22253E+01  8320   0.941E+02 0.342E+02
CGA:  53    -0.211426310540E+03   -0.13510E+01   -0.12818E+01  8320   0.926E+02 0.325E+01
CGA:  54    -0.213079425241E+03   -0.16531E+01   -0.14446E+01  8320   0.135E+03 0.925E+01
CGA:  55    -0.214499182599E+03   -0.14198E+01   -0.16364E+01  8320   0.161E+03-0.259E+02
CGA:  56    -0.215110595039E+03   -0.61141E+00   -0.12750E+01  8320   0.203E+03-0.631E+02
CGA:  57    -0.215740135203E+03   -0.62954E+00   -0.94386E+00  8320   0.198E+03-0.361E+02
CGA:  58    -0.216733569578E+03   -0.99343E+00   -0.10432E+01  8320   0.143E+03-0.175E+02
CGA:  59    -0.217304590853E+03   -0.57102E+00   -0.62800E+00  8320   0.988E+02-0.217E+02
CGA:  60    -0.217604897920E+03   -0.30031E+00   -0.39607E+00  8320   0.102E+03-0.206E+02
CGA:  61    -0.217904708643E+03   -0.29981E+00   -0.47809E+00  8320   0.130E+03-0.261E+02
CGA:  62    -0.218285832162E+03   -0.38112E+00   -0.53770E+00  8320   0.121E+03-0.266E+02
CGA:  63    -0.218603467097E+03   -0.31763E+00   -0.59820E+00  8320   0.119E+03-0.400E+02
CGA:  64    -0.219016406705E+03   -0.41294E+00   -0.72722E+00  8320   0.164E+03-0.237E+02
CGA:  65    -0.220447178380E+03   -0.14308E+01   -0.13251E+01  8320   0.112E+03 0.742E+01
CGA:  66    -0.221290363167E+03   -0.84318E+00   -0.85932E+00  8320   0.494E+02-0.339E+01
CGA:  67    -0.221710392534E+03   -0.42003E+00   -0.43002E+00  8320   0.439E+02-0.122E+01
CGA:  68    -0.222181649241E+03   -0.47126E+00   -0.46245E+00  8320   0.466E+02 0.124E+00
CGA:  69    -0.222585210123E+03   -0.40356E+00   -0.44687E+00  8320   0.361E+02-0.335E+01
CGA:  70    -0.222905286373E+03   -0.32008E+00   -0.35261E+00  8320   0.292E+02-0.151E+01
CGA:  71    -0.223295345890E+03   -0.39006E+00   -0.39260E+00  8320   0.364E+02-0.472E-01
CGA:  72    -0.223966924204E+03   -0.67158E+00   -0.67642E+00  8320   0.536E+02 0.778E+00
CGA:  73    -0.224721674446E+03   -0.75475E+00   -0.72112E+00  8320   0.312E+02-0.138E+00
SDA:  74    -0.225054539572E+03   -0.33287E+00   -0.33382E+00  8320   0.224E+02-0.577E-01
CGA:  75    -0.225897394269E+03   -0.84285E+00   -0.82220E+00  8320   0.878E+01 0.115E+01
CGA:  76    -0.226468427579E+03   -0.57103E+00   -0.55409E+00  8320   0.147E+02 0.491E+00
CGA:  77    -0.227122460993E+03   -0.65403E+00   -0.62684E+00  8320   0.405E+01 0.125E+01
CGA:  78    -0.227718199419E+03   -0.59574E+00   -0.11052E-01  8320   0.118E+02-0.682E+00
CGA:  79    -0.228069832793E+03   -0.35163E+00   -0.35669E+00  8320   0.903E+01 0.257E+00
CGA:  80    -0.228429218558E+03   -0.35939E+00   -0.34075E+00  8320   0.785E+01-0.111E+01
CGA:  81    -0.228663667025E+03   -0.23445E+00   -0.23687E+00  8320   0.913E+01 0.560E-01
CGA:  82    -0.228884437118E+03   -0.22077E+00   -0.22066E+00  8320   0.523E+01-0.741E-01
CGA:  83    -0.228997197393E+03   -0.11276E+00   -0.10940E+00  8320   0.381E+01 0.694E-01
CGA:  84    -0.229155718100E+03   -0.15852E+00   -0.15829E+00  8320   0.598E+01 0.123E+00
CGA:  85    -0.229314471408E+03   -0.15875E+00   -0.16264E+00  8320   0.340E+01-0.108E-01
CGA:  86    -0.229462231506E+03   -0.14776E+00   -0.14686E+00  8320   0.493E+01 0.136E+00
CGA:  87    -0.229633362688E+03   -0.17113E+00   -0.17106E+00  8320   0.284E+01-0.458E-02
CGA:  88    -0.229787560622E+03   -0.15420E+00   -0.15230E+00  8320   0.415E+01 0.939E-01
CGA:  89    -0.229942658894E+03   -0.15510E+00   -0.15553E+00  8320   0.132E+01 0.447E-01
CGA:  90    -0.230005352360E+03   -0.62693E-01   -0.62622E-01  8320   0.203E+01 0.697E-02
CGA:  91    -0.230132750340E+03   -0.12740E+00   -0.12404E+00  8320   0.171E+01 0.131E+00
CGA:  92    -0.230229177583E+03   -0.96427E-01   -0.96871E-01  8320   0.245E+01-0.214E-01
CGA:  93    -0.230337187793E+03   -0.10801E+00   -0.10815E+00  8320   0.127E+01-0.285E-01
CGA:  94    -0.230399297864E+03   -0.62110E-01   -0.62070E-01  8320   0.205E+01 0.284E-02
CGA:  95    -0.230526520015E+03   -0.12722E+00   -0.12481E+00  8320   0.165E+01 0.945E-01
CGA:  96    -0.230581053150E+03   -0.54533E-01   -0.55109E-01  8320   0.920E+00 0.893E-02
CGA:  97    -0.230631579267E+03   -0.50526E-01   -0.51302E-01  8320   0.619E+00-0.441E-01
CGA:  98    -0.230679440737E+03   -0.47861E-01   -0.47957E-01  8320   0.131E+01-0.160E-02
CGA:  99    -0.230744276276E+03   -0.64836E-01   -0.64628E-01  8320   0.801E+00 0.291E-01
CGA: 100    -0.230804500644E+03   -0.60224E-01   -0.60774E-01  8320   0.528E+00-0.184E-01
CGA: 101    -0.230846166575E+03   -0.41666E-01   -0.42782E-01  8320   0.652E+00-0.300E-01
CGA: 102    -0.230869089607E+03   -0.22923E-01   -0.23091E-01  8320   0.598E+00 0.330E-02
CGA: 103    -0.230918172471E+03   -0.49083E-01   -0.51194E-01  8320   0.534E+00-0.510E-01
CGA: 104    -0.230947860171E+03   -0.29688E-01   -0.29925E-01  8320   0.689E+00-0.143E-01
SDA: 105    -0.230973000510E+03   -0.25140E-01   -0.25064E-01  8320   0.502E+00 0.149E-03
CGA: 106    -0.230993418407E+03   -0.20418E-01   -0.20455E-01  8320   0.827E+00 0.937E-03
CGA: 107    -0.231042710557E+03   -0.49292E-01   -0.49127E-01  8320   0.517E+00 0.113E-01
CGA: 108    -0.231109447919E+03   -0.66737E-01   -0.66906E-01  8320   0.902E+00-0.216E-01
CGA: 109    -0.231186807471E+03   -0.77360E-01   -0.79414E-01  8320   0.164E+01-0.429E-01
CGA: 110    -0.231222910704E+03   -0.36103E-01   -0.38337E-01  8320   0.618E+00-0.644E-01
CGA: 111    -0.231275609265E+03   -0.52699E-01   -0.53604E-01  8320   0.149E+01-0.260E-01
CGA: 112    -0.231313969904E+03   -0.38361E-01   -0.36250E-01  8320   0.389E+00 0.438E-01
CGA: 113    -0.231338280429E+03   -0.24311E-01   -0.24359E-01  8320   0.386E+00-0.442E-02
CGA: 114    -0.231353658248E+03   -0.15378E-01   -0.15331E-01  8320   0.601E+00-0.440E-03
CGA: 115    -0.231375533529E+03   -0.21875E-01   -0.22076E-01  8320   0.261E+00 0.477E-04
CGA: 116    -0.231403940581E+03   -0.28407E-01   -0.28420E-01  8320   0.678E+00-0.419E-02
CGA: 117    -0.231417055730E+03   -0.13115E-01   -0.12722E-01  8320   0.290E+00 0.286E-02
CGA: 118    -0.231436340763E+03   -0.19285E-01   -0.19171E-01  8320   0.343E+00 0.746E-02
CGA: 119    -0.231446396437E+03   -0.10056E-01   -0.99550E-02  8320   0.425E+00 0.919E-03
CGA: 120    -0.231461246277E+03   -0.14850E-01   -0.14810E-01  8320   0.214E+00 0.119E-02
CGA: 121    -0.231476765916E+03   -0.15520E-01   -0.16889E-01  8320   0.892E+00-0.445E-01
CGA: 122    -0.231485209268E+03   -0.84434E-02   -0.95136E-02  8320   0.409E+00-0.713E-01
CGA: 123    -0.231488579433E+03   -0.33702E-02   -0.33364E-02  8320   0.207E+00 0.313E-02
CGA: 124    -0.231493454289E+03   -0.48749E-02   -0.49286E-02  8320   0.553E+00-0.112E-02
CGA: 125    -0.231507331239E+03   -0.13877E-01   -0.14567E-01  8320   0.587E+00-0.630E-02
CGA: 126    -0.231512523232E+03   -0.51920E-02   -0.50177E-02  8320   0.167E+00 0.190E-01
CGA: 127    -0.231515441615E+03   -0.29184E-02   -0.29189E-02  8320   0.268E+00-0.214E-05
CGA: 128    -0.231522128140E+03   -0.66865E-02   -0.65781E-02  8320   0.437E+00 0.200E-02
CGA: 129    -0.231527098403E+03   -0.49703E-02   -0.50068E-02  8320   0.219E+00-0.205E-02
CGA: 130    -0.231530520455E+03   -0.34221E-02   -0.33733E-02  8320   0.294E+00 0.204E-02
CGA: 131    -0.231536178772E+03   -0.56583E-02   -0.57940E-02  8320   0.290E+00-0.520E-02
CGA: 132    -0.231539068839E+03   -0.28901E-02   -0.29307E-02  8320   0.147E+00-0.316E-02
CGA: 133    -0.231542080473E+03   -0.30116E-02   -0.30068E-02  8320   0.293E+00 0.103E-03
CGA: 134    -0.231547442910E+03   -0.53624E-02   -0.52376E-02  8320   0.235E+00 0.309E-02
CGA: 135    -0.231549544925E+03   -0.21020E-02   -0.21293E-02  8320   0.849E-01-0.277E-02
SDA: 136    -0.231551127643E+03   -0.15827E-02   -0.15872E-02  8320   0.185E+00-0.109E-03
CGA: 137    -0.231554269957E+03   -0.31423E-02   -0.31618E-02  8320   0.113E+00-0.584E-03
CGA: 138    -0.231563928621E+03   -0.96587E-02   -0.96656E-02  8320   0.108E+00-0.932E-03
CGA: 139    -0.231575058823E+03   -0.11130E-01   -0.11488E-01  8320   0.222E+00-0.125E-01
CGA: 140    -0.231581841680E+03   -0.67829E-02   -0.64366E-02  8320   0.288E+00-0.159E-01
CGA: 141    -0.231587692021E+03   -0.58503E-02   -0.51383E-02  8320   0.334E+00 0.172E-01
CGA: 142    -0.231594805444E+03   -0.71134E-02   -0.74577E-02  8320   0.500E+00-0.143E-01
CGA: 143    -0.231604526226E+03   -0.97208E-02   -0.90346E-02  8320   0.373E+00 0.488E-01
CGA: 144    -0.231609484445E+03   -0.49582E-02   -0.38792E-02  8320   0.232E+00 0.968E-01
CGA: 145    -0.231613345973E+03   -0.38615E-02   -0.34012E-02  8320   0.227E+00 0.301E-01
CGA: 146    -0.231616251805E+03   -0.29058E-02   -0.26278E-02  8320   0.256E+00 0.214E-01
CGA: 147    -0.231618993003E+03   -0.27412E-02   -0.26154E-02  8320   0.285E+00 0.110E-01
CGA: 148    -0.231621607415E+03   -0.26144E-02   -0.26974E-02  8320   0.285E+00-0.696E-02
CGA: 149    -0.231623770417E+03   -0.21630E-02   -0.23032E-02  8320   0.226E+00-0.125E-01
CGA: 150    -0.231625488999E+03   -0.17186E-02   -0.17514E-02  8320   0.186E+00-0.198E-02
CGA: 151    -0.231627262201E+03   -0.17732E-02   -0.17481E-02  8320   0.194E+00 0.279E-02
CGA: 152    -0.231629233367E+03   -0.19712E-02   -0.19162E-02  8320   0.203E+00 0.397E-02
CGA: 153    -0.231631087726E+03   -0.18544E-02   -0.18456E-02  8320   0.190E+00 0.172E-03
CGA: 154    -0.231632687964E+03   -0.16002E-02   -0.16184E-02  8320   0.165E+00-0.167E-02
CGA: 155    -0.231633978835E+03   -0.12909E-02   -0.12963E-02  8320   0.127E+00-0.429E-03
CGA: 156    -0.231635011902E+03   -0.10331E-02   -0.10262E-02  8320   0.113E+00 0.687E-03
CGA: 157    -0.231636125504E+03   -0.11136E-02   -0.10961E-02  8320   0.143E+00 0.120E-02
CGA: 158    -0.231637581801E+03   -0.14563E-02   -0.14156E-02  8320   0.183E+00 0.259E-02
CGA: 159    -0.231639163106E+03   -0.15813E-02   -0.15306E-02  8320   0.184E+00 0.449E-02
CGA: 160    -0.231640579919E+03   -0.14168E-02   -0.13943E-02  8320   0.160E+00 0.241E-02
CGA: 161    -0.231641727080E+03   -0.11472E-02   -0.11516E-02  8320   0.128E+00-0.496E-03
CGA: 162    -0.231642611729E+03   -0.88465E-03   -0.90067E-03  8320   0.103E+00-0.174E-02
CGA: 163    -0.231643403952E+03   -0.79222E-03   -0.81158E-03  8320   0.106E+00-0.161E-02
CGA: 164    -0.231644431080E+03   -0.10271E-02   -0.10572E-02  8320   0.139E+00-0.118E-02
CGA: 165    -0.231645853659E+03   -0.14226E-02   -0.14581E-02  8320   0.139E+00-0.856E-03
CGA: 166    -0.231647080648E+03   -0.12270E-02   -0.12293E-02  8320   0.979E-01-0.200E-03
SDA: 167    -0.231647982744E+03   -0.90210E-03   -0.89875E-03  8320   0.792E-01 0.105E-03
CGA: 168    -0.231651560382E+03   -0.35776E-02   -0.36405E-02  8320   0.127E+00-0.247E-02
CGA: 169    -0.231653777166E+03   -0.22168E-02   -0.22168E-02  8320   0.287E-01 0.117E-03
CGA: 170    -0.231655972926E+03   -0.21958E-02   -0.21733E-02  8320   0.584E-01 0.474E-03
CGA: 171    -0.231657273188E+03   -0.13003E-02   -0.13005E-02  8320   0.473E-01-0.176E-03
CGA: 172    -0.231659065730E+03   -0.17925E-02   -0.17938E-02  8320   0.201E-01-0.686E-04
CGA: 173    -0.231660119801E+03   -0.10541E-02   -0.10502E-02  8320   0.578E-01 0.131E-03
CGA: 174    -0.231661515223E+03   -0.13954E-02   -0.13965E-02  8320   0.149E-01-0.107E-02
CGA: 175    -0.231662719213E+03   -0.12040E-02   -0.12068E-02  8320   0.512E-01-0.681E-04
CGA: 176    -0.231663549416E+03   -0.83020E-03   -0.83567E-03  8320   0.482E-02 0.146E-04
CGA: 177    -0.231664097364E+03   -0.54795E-03   -0.54353E-03  8320   0.244E-01 0.619E-04
CGA: 178    -0.231664632138E+03   -0.53477E-03   -0.54730E-03  8320   0.107E-01 0.181E-03
CGA: 179    -0.231663919444E+03    0.71269E-03   -0.14782E-02  8320   0.900E-01-0.351E-01
CGA: 180    -0.231665486260E+03   -0.15668E-02   -0.15638E-02  8320   0.442E-01 0.923E-04
CGA: 181    -0.231666554414E+03   -0.10682E-02   -0.10686E-02  8320   0.318E-02 0.934E-05
CGA: 182    -0.231666933733E+03   -0.37932E-03   -0.37997E-03  8320   0.245E-02-0.109E-04
CGA: 183    -0.231667082135E+03   -0.14840E-03   -0.14856E-03  8320   0.616E-02-0.675E-05
CGA: 184    -0.231667225260E+03   -0.14312E-03   -0.14270E-03  8320   0.283E-02 0.203E-05
CGA: 185    -0.231667370140E+03   -0.14488E-03   -0.14477E-03  8320   0.216E-02 0.497E-05
CGA: 186    -0.231667643773E+03   -0.27363E-03   -0.28427E-03  8320   0.365E-02-0.144E-03
CGA: 187    -0.231667701438E+03   -0.57666E-04   -0.58416E-04  8320   0.226E-02-0.379E-04
CGA: 188    -0.231667886094E+03   -0.18466E-03   -0.18961E-03  8320   0.835E-03-0.130E-03
CGA: 189    -0.231667922555E+03   -0.36461E-04   -0.36483E-04  8320   0.138E-02-0.639E-05
CGA: 190    -0.231667954287E+03   -0.31732E-04   -0.32097E-04  8320   0.846E-03-0.578E-05
CGA: 191    -0.231667996713E+03   -0.42427E-04   -0.42507E-04  8320   0.361E-03-0.682E-05
CGA: 192    -0.231668021539E+03   -0.24826E-04   -0.24833E-04  8320   0.239E-03-0.312E-06
CGA: 193    -0.231668035103E+03   -0.13563E-04   -0.13598E-04  8320   0.749E-03-0.248E-05
CGA: 194    -0.231668056185E+03   -0.21082E-04   -0.21147E-04  8320   0.157E-03-0.198E-05
CGA: 195    -0.231668079452E+03   -0.23268E-04   -0.23250E-04  8320   0.255E-03-0.916E-07
CGA: 196    -0.231668084585E+03   -0.51324E-05   -0.51058E-05  8320   0.241E-03 0.818E-06
CGA: 197    -0.231668107987E+03   -0.23403E-04   -0.23431E-04  8320   0.281E-03-0.839E-06
CGA: 198    -0.231668120263E+03   -0.12276E-04   -0.12285E-04  8320   0.390E-03 0.491E-06
CGA: 199    -0.231668128359E+03   -0.80961E-05   -0.80143E-05  8320   0.216E-03 0.308E-05
CGA: 200    -0.231668139212E+03   -0.10852E-04   -0.10852E-04  8320   0.118E-03 0.576E-06
   1 F= -.23166814E+03 E0= -.23164739E+03  d E =-.231668E+03  mag=    -3.3762
       N       E                     dE             d eps       ncg     rms          ort
SDA:   1    -0.228786682174E+03    0.28814E+01    0.00000E+00  8320   0.204E+03 0.000E+00
CGA:   2    -0.231451368045E+03   -0.26647E+01   -0.27743E+01  8320   0.228E+02-0.838E+02
CGA:   3    -0.231663325359E+03   -0.21196E+00   -0.22594E+00  8320   0.123E+00-0.769E+00
CGA:   4    -0.231664904905E+03   -0.15795E-02   -0.15647E-02  8320   0.307E-01 0.877E-03
CGA:   5    -0.231666511740E+03   -0.16068E-02   -0.16056E-02  8320   0.191E-01 0.105E-03
CGA:   6    -0.231667379351E+03   -0.86761E-03   -0.86762E-03  8320   0.179E-01-0.815E-05
CGA:   7    -0.231667711674E+03   -0.33232E-03   -0.33273E-03  8320   0.680E-02-0.112E-04
CGA:   8    -0.231667963230E+03   -0.25156E-03   -0.25149E-03  8320   0.235E-02-0.350E-05
CGA:   9    -0.231668116540E+03   -0.15331E-03   -0.15330E-03  8320   0.486E-02 0.388E-06
CGA:  10    -0.231668198740E+03   -0.82200E-04   -0.82131E-04  8320   0.531E-03 0.280E-05
CGA:  11    -0.231668241199E+03   -0.42459E-04   -0.42413E-04  8320   0.677E-03 0.120E-05
CGA:  12    -0.231668255775E+03   -0.14576E-04   -0.14573E-04  8320   0.544E-03 0.696E-07
CGA:  13    -0.231668289089E+03   -0.33314E-04   -0.33325E-04  8320   0.134E-03-0.641E-06
CGA:  14    -0.231668293498E+03   -0.44094E-05   -0.44161E-05  8320   0.204E-03 0.590E-06
   2 F= -.23166829E+03 E0= -.23164756E+03  d E =-.154287E-03  mag=    -3.3747
       N       E                     dE             d eps       ncg     rms          ort
SDA:   1    -0.231664775865E+03    0.35132E-02    0.00000E+00  8320   0.258E+00 0.000E+00
CGA:   2    -0.231667704814E+03   -0.29289E-02   -0.29520E-02  8320   0.287E-01-0.176E-02
CGA:   3    -0.231668257851E+03   -0.55304E-03   -0.55303E-03  8320   0.118E-02 0.249E-05
CGA:   4    -0.231668316313E+03   -0.58462E-04   -0.58411E-04  8320   0.266E-03 0.537E-05
CGA:   5    -0.231668324187E+03   -0.78744E-05   -0.78742E-05  8320   0.422E-03 0.166E-07
CGA:   6    -0.231668343115E+03   -0.18927E-04   -0.18931E-04  8320   0.137E-03-0.922E-06
CGA:   7    -0.231668353959E+03   -0.10844E-04   -0.10907E-04  8320   0.775E-04-0.161E-05
CGA:   8    -0.231668356070E+03   -0.21111E-05   -0.21027E-05  8320   0.101E-03-0.559E-06
   3 F= -.23166836E+03 E0= -.23164762E+03  d E =-.625715E-04  mag=    -3.3755
       N       E                     dE             d eps       ncg     rms          ort
SDA:   1    -0.231544266654E+03    0.12409E+00    0.00000E+00  8320   0.519E+00 0.000E+00
CGA:   2    -0.231567340694E+03   -0.23074E-01   -0.23085E-01  8320   0.123E+01-0.226E-02
CGA:   3    -0.231605420107E+03   -0.38079E-01   -0.38214E-01  8320   0.593E+00 0.188E-02
CGA:   4    -0.231630393659E+03   -0.24974E-01   -0.24973E-01  8320   0.231E+00 0.234E-03
CGA:   5    -0.231647842549E+03   -0.17449E-01   -0.17431E-01  8320   0.203E+00 0.529E-03
CGA:   6    -0.231654667570E+03   -0.68250E-02   -0.68348E-02  8320   0.314E+00 0.212E-03
CGA:   7    -0.231663037208E+03   -0.83696E-02   -0.83383E-02  8320   0.444E-01 0.178E-03
CGA:   8    -0.231666841843E+03   -0.38046E-02   -0.38100E-02  8320   0.239E-01-0.122E-03
CGA:   9    -0.231668203328E+03   -0.13615E-02   -0.13599E-02  8320   0.162E-01 0.864E-04
CGA:  10    -0.231668973548E+03   -0.77022E-03   -0.77018E-03  8320   0.127E-01 0.931E-05
CGA:  11    -0.231669187763E+03   -0.21422E-03   -0.21405E-03  8320   0.587E-02 0.516E-05
CGA:  12    -0.231669562472E+03   -0.37471E-03   -0.37468E-03  8320   0.225E-02 0.638E-06
CGA:  13    -0.231669790112E+03   -0.22764E-03   -0.22726E-03  8320   0.212E-02 0.666E-05
CGA:  14    -0.231669840463E+03   -0.50351E-04   -0.50382E-04  8320   0.169E-02 0.488E-06
CGA:  15    -0.231669886986E+03   -0.46524E-04   -0.46506E-04  8320   0.859E-03 0.222E-06
CGA:  16    -0.231669947756E+03   -0.60770E-04   -0.60815E-04  8320   0.512E-03-0.161E-05
CGA:  17    -0.231669984546E+03   -0.36790E-04   -0.36742E-04  8320   0.804E-03 0.183E-05
CGA:  18    -0.231669997233E+03   -0.12687E-04   -0.12715E-04  8320   0.231E-03 0.394E-06
CGA:  19    -0.231670014712E+03   -0.17479E-04   -0.17457E-04  8320   0.192E-03 0.740E-06
CGA:  20    -0.231670025744E+03   -0.11032E-04   -0.11031E-04  8320   0.243E-03 0.361E-07
CGA:  21    -0.231670031685E+03   -0.59411E-05   -0.59390E-05  8320   0.213E-03-0.465E-07
   4 F= -.23167003E+03 E0= -.23164930E+03  d E =-.167562E-02  mag=    -3.3733
       N       E                     dE             d eps       ncg     rms          ort
SDA:   1    -0.231613639254E+03    0.56386E-01    0.00000E+00  8320   0.279E+00 0.000E+00
CGA:   2    -0.231629485654E+03   -0.15846E-01   -0.15916E-01  8320   0.217E+00-0.439E-02
CGA:   3    -0.231645889163E+03   -0.16404E-01   -0.16410E-01  8320   0.317E+00-0.160E-03
CGA:   4    -0.231654097982E+03   -0.82088E-02   -0.81789E-02  8320   0.286E+00 0.439E-03
CGA:   5    -0.231661413273E+03   -0.73153E-02   -0.73534E-02  8320   0.575E-01-0.671E-03
CGA:   6    -0.231666999519E+03   -0.55862E-02   -0.55843E-02  8320   0.284E-01 0.368E-04
CGA:   7    -0.231668849792E+03   -0.18503E-02   -0.18506E-02  8320   0.615E-01-0.155E-04
CGA:   8    -0.231669844135E+03   -0.99434E-03   -0.99104E-03  8320   0.705E-02 0.146E-03
CGA:   9    -0.231670371701E+03   -0.52757E-03   -0.52653E-03  8320   0.342E-02 0.342E-04
CGA:  10    -0.231670604039E+03   -0.23234E-03   -0.23245E-03  8320   0.393E-02-0.504E-05
CGA:  11    -0.231670721677E+03   -0.11764E-03   -0.11761E-03  8320   0.349E-02-0.219E-05
CGA:  12    -0.231670789066E+03   -0.67390E-04   -0.67275E-04  8320   0.691E-03 0.189E-05
CGA:  13    -0.231670863269E+03   -0.74202E-04   -0.74077E-04  8320   0.479E-03 0.210E-05
CGA:  14    -0.231670901005E+03   -0.37737E-04   -0.37725E-04  8320   0.886E-03 0.419E-06
CGA:  15    -0.231670914533E+03   -0.13528E-04   -0.13536E-04  8320   0.207E-03-0.129E-06
CGA:  16    -0.231670929431E+03   -0.14897E-04   -0.14896E-04  8320   0.134E-03 0.967E-07
CGA:  17    -0.231670938242E+03   -0.88109E-05   -0.88080E-05  8320   0.165E-03 0.197E-06
   5 F= -.23167094E+03 E0= -.23165021E+03  d E =-.906556E-03  mag=    -3.3719
       N       E                     dE             d eps       ncg     rms          ort
SDA:   1    -0.226764015560E+03    0.49069E+01    0.00000E+00  8320   0.327E+03 0.000E+00
CGA:   2    -0.228845354901E+03   -0.20813E+01   -0.58884E+01  8320   0.149E+03-0.203E+03
CGA:   3    -0.230878233176E+03   -0.20329E+01   -0.18719E+01  8320   0.881E+01-0.360E+02
CGA:   4    -0.231012605249E+03   -0.13437E+00   -0.13940E+00  8320   0.298E+01-0.193E+00
CGA:   5    -0.231168061898E+03   -0.15546E+00   -0.15602E+00  8320   0.688E+01-0.480E-01
CGA:   6    -0.231422442460E+03   -0.25438E+00   -0.25495E+00  8320   0.272E+01 0.139E-01
CGA:   7    -0.231477821636E+03   -0.55379E-01   -0.54688E-01  8320   0.119E+01 0.124E-01
CGA:   8    -0.231542278300E+03   -0.64457E-01   -0.64295E-01  8320   0.195E+01 0.123E-01
CGA:   9    -0.231600983936E+03   -0.58706E-01   -0.58520E-01  8320   0.928E+00-0.987E-03
CGA:  10    -0.231624122358E+03   -0.23138E-01   -0.23207E-01  8320   0.425E+00-0.161E-02
CGA:  11    -0.231638463323E+03   -0.14341E-01   -0.14309E-01  8320   0.386E+00-0.698E-03
CGA:  12    -0.231650098201E+03   -0.11635E-01   -0.11645E-01  8320   0.168E+00 0.272E-04
CGA:  13    -0.231654586218E+03   -0.44880E-02   -0.44805E-02  8320   0.126E+00 0.301E-04
CGA:  14    -0.231659856288E+03   -0.52701E-02   -0.52700E-02  8320   0.908E-01 0.882E-04
CGA:  15    -0.231661793366E+03   -0.19371E-02   -0.19331E-02  8320   0.362E-01 0.920E-04
CGA:  16    -0.231663508887E+03   -0.17155E-02   -0.17148E-02  8320   0.513E-01 0.690E-04
CGA:  17    -0.231664909328E+03   -0.14004E-02   -0.14001E-02  8320   0.221E-01 0.397E-05
CGA:  18    -0.231665707165E+03   -0.79784E-03   -0.79798E-03  8320   0.248E-01 0.147E-04
CGA:  19    -0.231666522000E+03   -0.81484E-03   -0.81457E-03  8320   0.134E-01-0.768E-05
CGA:  20    -0.231666934042E+03   -0.41204E-03   -0.41223E-03  8320   0.121E-01 0.799E-05
CGA:  21    -0.231667372747E+03   -0.43870E-03   -0.43870E-03  8320   0.748E-02 0.287E-05
CGA:  22    -0.231667576856E+03   -0.20411E-03   -0.20422E-03  8320   0.579E-02 0.357E-05
CGA:  23    -0.231667865968E+03   -0.28911E-03   -0.28914E-03  8320   0.737E-02-0.864E-06
CGA:  24    -0.231668057547E+03   -0.19158E-03   -0.19166E-03  8320   0.294E-02 0.263E-05
CGA:  25    -0.231668138679E+03   -0.81132E-04   -0.81137E-04  8320   0.198E-02 0.143E-05
CGA:  26    -0.231668230294E+03   -0.91616E-04   -0.91576E-04  8320   0.307E-02 0.410E-05
CGA:  27    -0.231668335447E+03   -0.10515E-03   -0.10516E-03  8320   0.140E-02 0.262E-05
CGA:  28    -0.231668366875E+03   -0.31429E-04   -0.31444E-04  8320   0.752E-03 0.555E-06
CGA:  29    -0.231668406659E+03   -0.39784E-04   -0.39788E-04  8320   0.106E-02-0.185E-06
CGA:  30    -0.231668431711E+03   -0.25052E-04   -0.25058E-04  8320   0.352E-03 0.797E-07
CGA:  31    -0.231668445981E+03   -0.14270E-04   -0.14269E-04  8320   0.553E-03 0.414E-06
CGA:  32    -0.231668468148E+03   -0.22167E-04   -0.22164E-04  8320   0.280E-03 0.115E-05
SDA:  33    -0.231668473926E+03   -0.57775E-05   -0.57807E-05  8320   0.118E-03 0.241E-06
   6 F= -.23166847E+03 E0= -.23164782E+03  d E =0.246432E-02  mag=    -3.3728
       N       E                     dE             d eps       ncg     rms          ort
SDA:   1    -0.226066425239E+03    0.56020E+01    0.00000E+00  8320   0.273E+03 0.000E+00
CGA:   2    -0.230597621376E+03   -0.45312E+01   -0.33647E+01  8320   0.652E+01-0.365E+02
CGA:   3    -0.230758302380E+03   -0.16068E+00   -0.16116E+00  8320   0.671E+01 0.169E-01
CGA:   4    -0.231123225797E+03   -0.36492E+00   -0.36818E+00  8320   0.823E+01-0.130E+00
CGA:   5    -0.231295703711E+03   -0.17248E+00   -0.17435E+00  8320   0.240E+01-0.351E-01
CGA:   6    -0.231379110403E+03   -0.83407E-01   -0.83411E-01  8320   0.279E+01-0.851E-02
CGA:   7    -0.231493141325E+03   -0.11403E+00   -0.11375E+00  8320   0.244E+01 0.305E-01
CGA:   8    -0.231564921597E+03   -0.71780E-01   -0.71492E-01  8320   0.145E+01-0.150E-01
CGA:   9    -0.231603873847E+03   -0.38952E-01   -0.39069E-01  8320   0.656E+00 0.303E-02
CGA:  10    -0.231622861070E+03   -0.18987E-01   -0.18964E-01  8320   0.461E+00-0.142E-02
CGA:  11    -0.231639382959E+03   -0.16522E-01   -0.16512E-01  8320   0.404E+00 0.294E-02
CGA:  12    -0.231652144146E+03   -0.12761E-01   -0.12758E-01  8320   0.211E+00-0.547E-03
CGA:  13    -0.231656783747E+03   -0.46396E-02   -0.46465E-02  8320   0.744E-01-0.388E-04
CGA:  14    -0.231659759814E+03   -0.29761E-02   -0.29772E-02  8320   0.981E-01-0.111E-03
CGA:  15    -0.231662952806E+03   -0.31930E-02   -0.31932E-02  8320   0.459E-01 0.997E-04
CGA:  16    -0.231664261820E+03   -0.13090E-02   -0.13087E-02  8320   0.395E-01-0.181E-04
CGA:  17    -0.231665927189E+03   -0.16654E-02   -0.16648E-02  8320   0.287E-01 0.539E-04
CGA:  18    -0.231666588269E+03   -0.66108E-03   -0.66075E-03  8320   0.140E-01 0.459E-05
CGA:  19    -0.231667230066E+03   -0.64180E-03   -0.64155E-03  8320   0.183E-01 0.167E-04
CGA:  20    -0.231667780466E+03   -0.55040E-03   -0.55031E-03  8320   0.105E-01-0.614E-05
CGA:  21    -0.231668119471E+03   -0.33900E-03   -0.33902E-03  8320   0.842E-02 0.595E-05
CGA:  22    -0.231668416837E+03   -0.29737E-03   -0.29737E-03  8320   0.746E-02 0.695E-06
CGA:  23    -0.231668659207E+03   -0.24237E-03   -0.24238E-03  8320   0.449E-02 0.605E-05
CGA:  24    -0.231668788206E+03   -0.12900E-03   -0.12900E-03  8320   0.347E-02 0.761E-06
CGA:  25    -0.231668944729E+03   -0.15652E-03   -0.15649E-03  8320   0.377E-02 0.223E-05
CGA:  26    -0.231669047376E+03   -0.10265E-03   -0.10263E-03  8320   0.212E-02-0.629E-06
CGA:  27    -0.231669126029E+03   -0.78653E-04   -0.78650E-04  8320   0.174E-02 0.363E-06
CGA:  28    -0.231669168879E+03   -0.42850E-04   -0.42846E-04  8320   0.751E-03-0.201E-06
CGA:  29    -0.231669202341E+03   -0.33462E-04   -0.33463E-04  8320   0.124E-02-0.184E-06
CGA:  30    -0.231669247862E+03   -0.45521E-04   -0.45523E-04  8320   0.626E-03-0.574E-06
CGA:  31    -0.231669261977E+03   -0.14116E-04   -0.14118E-04  8320   0.288E-03-0.639E-07
SDA:  32    -0.231669273117E+03   -0.11140E-04   -0.11139E-04  8320   0.300E-03 0.186E-06
CGA:  33    -0.231669276725E+03   -0.36074E-05   -0.36068E-05  8320   0.699E-04-0.109E-06
   7 F= -.23166928E+03 E0= -.23164855E+03  d E =-.802799E-03  mag=    -3.3525
       N       E                     dE             d eps       ncg     rms          ort
SDA:   1    -0.231593007215E+03    0.76266E-01    0.00000E+00  8320   0.675E+00 0.000E+00
CGA:   2    -0.231613450619E+03   -0.20443E-01   -0.20442E-01  8320   0.272E+00-0.242E-03
CGA:   3    -0.231627374563E+03   -0.13924E-01   -0.13946E-01  8320   0.771E+00-0.112E-02
CGA:   4    -0.231649202157E+03   -0.21828E-01   -0.21844E-01  8320   0.817E-01 0.472E-03
CGA:   5    -0.231662731645E+03   -0.13529E-01   -0.13517E-01  8320   0.101E+00 0.123E-03
CGA:   6    -0.231665790533E+03   -0.30589E-02   -0.30549E-02  8320   0.851E-01-0.383E-04
CGA:   7    -0.231667549024E+03   -0.17585E-02   -0.17626E-02  8320   0.384E-01-0.109E-03
CGA:   8    -0.231669551212E+03   -0.20022E-02   -0.20036E-02  8320   0.151E-01-0.882E-04
CGA:   9    -0.231670712746E+03   -0.11615E-02   -0.11604E-02  8320   0.603E-02 0.302E-04
CGA:  10    -0.231670898347E+03   -0.18560E-03   -0.18558E-03  8320   0.811E-02 0.175E-05
CGA:  11    -0.231671136580E+03   -0.23823E-03   -0.23830E-03  8320   0.349E-02 0.285E-05
CGA:  12    -0.231671337860E+03   -0.20128E-03   -0.20133E-03  8320   0.192E-02-0.221E-05
CGA:  13    -0.231671434137E+03   -0.96277E-04   -0.96273E-04  8320   0.117E-02 0.440E-07
CGA:  14    -0.231671457165E+03   -0.23028E-04   -0.23020E-04  8320   0.895E-03 0.260E-06
CGA:  15    -0.231671517059E+03   -0.59894E-04   -0.59871E-04  8320   0.427E-03 0.907E-06
CGA:  16    -0.231671545274E+03   -0.28215E-04   -0.28227E-04  8320   0.487E-03-0.511E-06
CGA:  17    -0.231671556472E+03   -0.11198E-04   -0.11197E-04  8320   0.368E-03-0.166E-06
CGA:  18    -0.231671568061E+03   -0.11589E-04   -0.11589E-04  8320   0.147E-03 0.636E-07
CGA:  19    -0.231671579836E+03   -0.11775E-04   -0.11745E-04  8320   0.116E-03 0.793E-06
CGA:  20    -0.231671583964E+03   -0.41283E-05   -0.41285E-05  8320   0.213E-03 0.154E-07
   8 F= -.23167158E+03 E0= -.23165088E+03  d E =-.230724E-02  mag=    -3.3610
       N       E                     dE             d eps       ncg     rms          ort
SDA:   1    -0.231640616674E+03    0.30963E-01    0.00000E+00  8320   0.493E+00 0.000E+00
CGA:   2    -0.231646693324E+03   -0.60767E-02   -0.61835E-02  8320   0.125E+00-0.701E-02
CGA:   3    -0.231653350384E+03   -0.66571E-02   -0.66641E-02  8320   0.147E+00-0.415E-03
CGA:   4    -0.231663011436E+03   -0.96611E-02   -0.96611E-02  8320   0.715E-01 0.422E-06
CGA:   5    -0.231664503849E+03   -0.14924E-02   -0.14898E-02  8320   0.625E-01 0.689E-04
CGA:   6    -0.231668128025E+03   -0.36242E-02   -0.36244E-02  8320   0.338E-01-0.618E-05
CGA:   7    -0.231670257148E+03   -0.21291E-02   -0.21300E-02  8320   0.409E-01-0.357E-04
CGA:   8    -0.231670881286E+03   -0.62414E-03   -0.62506E-03  8320   0.917E-02-0.487E-04
CGA:   9    -0.231671377514E+03   -0.49623E-03   -0.49629E-03  8320   0.702E-02-0.377E-05
CGA:  10    -0.231671670754E+03   -0.29324E-03   -0.29325E-03  8320   0.787E-02 0.456E-05
CGA:  11    -0.231671826197E+03   -0.15544E-03   -0.15529E-03  8320   0.278E-02 0.532E-05
CGA:  12    -0.231671967415E+03   -0.14122E-03   -0.14121E-03  8320   0.979E-03 0.559E-06
CGA:  13    -0.231671999342E+03   -0.31927E-04   -0.31925E-04  8320   0.163E-02-0.106E-07
CGA:  14    -0.231672069589E+03   -0.70247E-04   -0.70247E-04  8320   0.552E-03 0.240E-06
CGA:  15    -0.231672097462E+03   -0.27873E-04   -0.27871E-04  8320   0.663E-03 0.296E-06
CGA:  16    -0.231672110593E+03   -0.13131E-04   -0.13134E-04  8320   0.281E-03 0.347E-08
CGA:  17    -0.231672122657E+03   -0.12064E-04   -0.12065E-04  8320   0.188E-03-0.151E-06
CGA:  18    -0.231672134869E+03   -0.12211E-04   -0.12217E-04  8320   0.404E-03-0.273E-06
CGA:  19    -0.231672142482E+03   -0.76136E-05   -0.76109E-05  8320   0.833E-04-0.368E-07
   9 F= -.23167214E+03 E0= -.23165146E+03  d E =-.558518E-03  mag=    -3.3676
       N       E                     dE             d eps       ncg     rms          ort
SDA:   1    -0.231631587513E+03    0.40547E-01    0.00000E+00  8320   0.208E+01 0.000E+00
CGA:   2    -0.231651658100E+03   -0.20071E-01   -0.20816E-01  8320   0.730E-01-0.689E-01
CGA:   3    -0.231656905822E+03   -0.52477E-02   -0.52587E-02  8320   0.179E+00-0.309E-03
CGA:   4    -0.231662552253E+03   -0.56464E-02   -0.56515E-02  8320   0.179E+00 0.537E-04
CGA:   5    -0.231667803725E+03   -0.52515E-02   -0.52461E-02  8320   0.408E-01-0.259E-04
CGA:   6    -0.231669551515E+03   -0.17478E-02   -0.17477E-02  8320   0.518E-01 0.499E-04
CGA:   7    -0.231670654058E+03   -0.11025E-02   -0.11012E-02  8320   0.193E-01 0.282E-04
CGA:   8    -0.231672018448E+03   -0.13644E-02   -0.13642E-02  8320   0.176E-01 0.522E-05
CGA:   9    -0.231672301302E+03   -0.28285E-03   -0.28248E-03  8320   0.560E-02 0.182E-04
CGA:  10    -0.231672604157E+03   -0.30286E-03   -0.30271E-03  8320   0.305E-02 0.996E-05
CGA:  11    -0.231672677623E+03   -0.73466E-04   -0.73473E-04  8320   0.277E-02 0.146E-05
CGA:  12    -0.231672807800E+03   -0.13018E-03   -0.13017E-03  8320   0.160E-02 0.128E-05
CGA:  13    -0.231672856224E+03   -0.48424E-04   -0.48409E-04  8320   0.972E-03-0.348E-06
CGA:  14    -0.231672877118E+03   -0.20894E-04   -0.20894E-04  8320   0.495E-03-0.176E-06
CGA:  15    -0.231672909871E+03   -0.32753E-04   -0.32748E-04  8320   0.430E-03 0.232E-06
CGA:  16    -0.231672918637E+03   -0.87656E-05   -0.87714E-05  8320   0.284E-03 0.136E-06
CGA:  17    -0.231672936786E+03   -0.18149E-04   -0.18133E-04  8320   0.168E-03 0.683E-06
CGA:  18    -0.231672940673E+03   -0.38876E-05   -0.38880E-05  8320   0.140E-03-0.659E-08
  10 F= -.23167294E+03 E0= -.23165227E+03  d E =-.798191E-03  mag=    -3.3697
       N       E                     dE             d eps       ncg     rms          ort
SDA:   1    -0.231635328937E+03    0.37608E-01    0.00000E+00  8320   0.475E+00 0.000E+00
CGA:   2    -0.231641874517E+03   -0.65456E-02   -0.64997E-02  8320   0.155E+00 0.218E-02
CGA:   3    -0.231648271316E+03   -0.63968E-02   -0.63971E-02  8320   0.156E+00-0.101E-03
CGA:   4    -0.231664294136E+03   -0.16023E-01   -0.16045E-01  8320   0.985E-01-0.371E-03
CGA:   5    -0.231668385947E+03   -0.40918E-02   -0.40917E-02  8320   0.121E+00-0.554E-04
CGA:   6    -0.231670364855E+03   -0.19789E-02   -0.19868E-02  8320   0.211E-01-0.323E-03
CGA:   7    -0.231672501874E+03   -0.21370E-02   -0.21383E-02  8320   0.979E-02-0.245E-04
CGA:   8    -0.231673268480E+03   -0.76661E-03   -0.76652E-03  8320   0.416E-02 0.225E-05
CGA:   9    -0.231673417809E+03   -0.14933E-03   -0.14934E-03  8320   0.665E-02 0.205E-05
CGA:  10    -0.231673580368E+03   -0.16256E-03   -0.16271E-03  8320   0.128E-02 0.141E-05
CGA:  11    -0.231673701561E+03   -0.12119E-03   -0.12132E-03  8320   0.113E-02-0.246E-05
CGA:  12    -0.231673742261E+03   -0.40700E-04   -0.40690E-04  8320   0.555E-03-0.789E-06
CGA:  13    -0.231673755628E+03   -0.13367E-04   -0.13368E-04  8320   0.591E-03 0.113E-06
CGA:  14    -0.231673785889E+03   -0.30261E-04   -0.30255E-04  8320   0.166E-03 0.916E-06
CGA:  15    -0.231673802083E+03   -0.16195E-04   -0.16192E-04  8320   0.161E-03 0.501E-07
CGA:  16    -0.231673804848E+03   -0.27646E-05   -0.27655E-05  8320   0.947E-04-0.212E-07
  11 F= -.23167380E+03 E0= -.23165314E+03  d E =-.864175E-03  mag=    -3.3704
       N       E                     dE             d eps       ncg     rms          ort
SDA:   1    -0.231618704312E+03    0.55098E-01    0.00000E+00  8320   0.272E+00 0.000E+00
CGA:   2    -0.231626069183E+03   -0.73649E-02   -0.73389E-02  8320   0.395E+00 0.316E-03
CGA:   3    -0.231644693782E+03   -0.18625E-01   -0.18625E-01  8320   0.220E+00-0.216E-03
CGA:   4    -0.231660787366E+03   -0.16094E-01   -0.16080E-01  8320   0.714E-01 0.475E-03
CGA:   5    -0.231667368895E+03   -0.65815E-02   -0.65753E-02  8320   0.101E+00 0.142E-03
CGA:   6    -0.231671419369E+03   -0.40505E-02   -0.40486E-02  8320   0.517E-01-0.417E-04
CGA:   7    -0.231672216853E+03   -0.79748E-03   -0.80164E-03  8320   0.197E-01-0.208E-03
CGA:   8    -0.231673666138E+03   -0.14493E-02   -0.14495E-02  8320   0.564E-02-0.596E-05
CGA:   9    -0.231674067089E+03   -0.40095E-03   -0.40072E-03  8320   0.132E-01 0.935E-05
CGA:  10    -0.231674302377E+03   -0.23529E-03   -0.23523E-03  8320   0.280E-02 0.720E-05
CGA:  11    -0.231674422235E+03   -0.11986E-03   -0.11987E-03  8320   0.147E-02 0.261E-06
CGA:  12    -0.231674520357E+03   -0.98122E-04   -0.98152E-04  8320   0.201E-02-0.149E-05
CGA:  13    -0.231674559883E+03   -0.39525E-04   -0.39552E-04  8320   0.117E-02-0.974E-06
CGA:  14    -0.231674611014E+03   -0.51132E-04   -0.51136E-04  8320   0.275E-03 0.106E-05
CGA:  15    -0.231674635009E+03   -0.23994E-04   -0.23971E-04  8320   0.654E-03 0.583E-06
CGA:  16    -0.231674646621E+03   -0.11612E-04   -0.11615E-04  8320   0.225E-03 0.244E-06
CGA:  17    -0.231674660460E+03   -0.13839E-04   -0.13842E-04  8320   0.187E-03-0.217E-06
CGA:  18    -0.231674669034E+03   -0.85734E-05   -0.85727E-05  8320   0.133E-03-0.163E-06
  12 F= -.23167467E+03 E0= -.23165403E+03  d E =-.864186E-03  mag=    -3.3727
       N       E                     dE             d eps       ncg     rms          ort
SDA:   1    -0.224555506779E+03    0.71192E+01    0.00000E+00  8320   0.265E+03 0.000E+00
CGA:   2    -0.230630491184E+03   -0.60750E+01   -0.35557E+01  8320   0.525E+01-0.953E+01
CGA:   3    -0.230859926176E+03   -0.22943E+00   -0.22942E+00  8320   0.475E+01-0.361E-01
CGA:   4    -0.231123274336E+03   -0.26335E+00   -0.26256E+00  8320   0.115E+02 0.576E-01
CGA:   5    -0.231352922477E+03   -0.22965E+00   -0.22632E+00  8320   0.147E+01 0.241E-01
CGA:   6    -0.231492793238E+03   -0.13987E+00   -0.13529E+00  8320   0.197E+01 0.977E-01
CGA:   7    -0.231554629998E+03   -0.61837E-01   -0.62409E-01  8320   0.231E+01-0.462E-02
CGA:   8    -0.231609348666E+03   -0.54719E-01   -0.54216E-01  8320   0.567E+00 0.802E-02
CGA:   9    -0.231636696597E+03   -0.27348E-01   -0.27363E-01  8320   0.288E+00-0.267E-02
CGA:  10    -0.231644732399E+03   -0.80358E-02   -0.80779E-02  8320   0.400E+00-0.266E-03
CGA:  11    -0.231658327595E+03   -0.13595E-01   -0.13569E-01  8320   0.931E-01-0.507E-03
CGA:  12    -0.231662771418E+03   -0.44438E-02   -0.44423E-02  8320   0.460E-01 0.232E-03
CGA:  13    -0.231664435526E+03   -0.16641E-02   -0.16647E-02  8320   0.758E-01 0.231E-04
CGA:  14    -0.231666500361E+03   -0.20648E-02   -0.20640E-02  8320   0.300E-01 0.847E-05
CGA:  15    -0.231668396942E+03   -0.18966E-02   -0.18976E-02  8320   0.130E-01-0.365E-04
CGA:  16    -0.231668921961E+03   -0.52502E-03   -0.52513E-03  8320   0.210E-01 0.174E-04
CGA:  17    -0.231669406679E+03   -0.48472E-03   -0.48457E-03  8320   0.889E-02 0.974E-05
CGA:  18    -0.231669903835E+03   -0.49716E-03   -0.49698E-03  8320   0.474E-02 0.108E-04
CGA:  19    -0.231670288367E+03   -0.38453E-03   -0.38449E-03  8320   0.676E-02 0.120E-05
CGA:  20    -0.231670402869E+03   -0.11450E-03   -0.11447E-03  8320   0.309E-02 0.312E-05
CGA:  21    -0.231670555502E+03   -0.15263E-03   -0.15259E-03  8320   0.202E-02 0.606E-05
CGA:  22    -0.231670707005E+03   -0.15150E-03   -0.15134E-03  8320   0.160E-02 0.521E-05
CGA:  23    -0.231670762771E+03   -0.55767E-04   -0.55758E-04  8320   0.252E-02 0.213E-06
CGA:  24    -0.231670829645E+03   -0.66873E-04   -0.66891E-04  8320   0.634E-03-0.162E-06
CGA:  25    -0.231670872035E+03   -0.42390E-04   -0.42387E-04  8320   0.591E-03 0.167E-06
CGA:  26    -0.231670909402E+03   -0.37367E-04   -0.37350E-04  8320   0.908E-03 0.946E-06
CGA:  27    -0.231670924381E+03   -0.14979E-04   -0.14999E-04  8320   0.290E-03 0.502E-07
CGA:  28    -0.231670941989E+03   -0.17607E-04   -0.17597E-04  8320   0.147E-03 0.682E-06
CGA:  29    -0.231670952185E+03   -0.10196E-04   -0.10194E-04  8320   0.160E-03 0.643E-07
CGA:  30    -0.231670958772E+03   -0.65870E-05   -0.65875E-05  8320   0.285E-03 0.665E-07
  13 F= -.23167096E+03 E0= -.23165031E+03  d E =0.371026E-02  mag=    -3.3709
       N       E                     dE             d eps       ncg     rms          ort
SDA:   1    -0.228766741823E+03    0.29042E+01    0.00000E+00  8320   0.241E+03 0.000E+00
CGA:   2    -0.230428581528E+03   -0.16618E+01   -0.38870E+01  8320   0.941E+02-0.149E+03
CGA:   3    -0.231468513056E+03   -0.10399E+01   -0.10552E+01  8320   0.220E+01-0.130E+02
CGA:   4    -0.231498528371E+03   -0.30015E-01   -0.30493E-01  8320   0.677E+00-0.244E-01
CGA:   5    -0.231564799511E+03   -0.66271E-01   -0.66673E-01  8320   0.223E+01-0.726E-02
CGA:   6    -0.231611776293E+03   -0.46977E-01   -0.47330E-01  8320   0.477E+00-0.104E-01
CGA:   7    -0.231626432604E+03   -0.14656E-01   -0.14640E-01  8320   0.362E+00-0.314E-03
CGA:   8    -0.231640032376E+03   -0.13600E-01   -0.13613E-01  8320   0.463E+00 0.111E-02
CGA:   9    -0.231658161788E+03   -0.18129E-01   -0.18126E-01  8320   0.198E+00-0.479E-03
CGA:  10    -0.231662445908E+03   -0.42841E-02   -0.42932E-02  8320   0.113E+00-0.227E-03
CGA:  11    -0.231667198616E+03   -0.47527E-02   -0.47533E-02  8320   0.643E-01-0.250E-03
CGA:  12    -0.231668763570E+03   -0.15650E-02   -0.15659E-02  8320   0.500E-01-0.142E-04
CGA:  13    -0.231671343474E+03   -0.25799E-02   -0.25804E-02  8320   0.302E-01-0.288E-04
CGA:  14    -0.231671873440E+03   -0.52997E-03   -0.53062E-03  8320   0.104E-01-0.205E-04
CGA:  15    -0.231672591011E+03   -0.71757E-03   -0.71764E-03  8320   0.194E-01-0.174E-05
CGA:  16    -0.231673009243E+03   -0.41823E-03   -0.41863E-03  8320   0.612E-02-0.746E-05
CGA:  17    -0.231673288907E+03   -0.27966E-03   -0.27970E-03  8320   0.793E-02-0.469E-05
CGA:  18    -0.231673496266E+03   -0.20736E-03   -0.20744E-03  8320   0.382E-02-0.460E-06
CGA:  19    -0.231673646308E+03   -0.15004E-03   -0.15004E-03  8320   0.350E-02 0.674E-06
CGA:  20    -0.231673743565E+03   -0.97256E-04   -0.97298E-04  8320   0.233E-02 0.176E-05
CGA:  21    -0.231673836045E+03   -0.92480E-04   -0.92481E-04  8320   0.198E-02 0.502E-06
CGA:  22    -0.231673901500E+03   -0.65455E-04   -0.65461E-04  8320   0.198E-02 0.597E-06
CGA:  23    -0.231673968222E+03   -0.66722E-04   -0.66720E-04  8320   0.788E-03 0.185E-08
CGA:  24    -0.231673989842E+03   -0.21620E-04   -0.21626E-04  8320   0.784E-03 0.306E-06
CGA:  25    -0.231674033863E+03   -0.44022E-04   -0.44002E-04  8320   0.690E-03 0.108E-05
CGA:  26    -0.231674050015E+03   -0.16152E-04   -0.16158E-04  8320   0.455E-03 0.217E-06
CGA:  27    -0.231674072880E+03   -0.22865E-04   -0.22866E-04  8320   0.327E-03 0.342E-08
CGA:  28    -0.231674079105E+03   -0.62249E-05   -0.62252E-05  8320   0.129E-03-0.306E-07
  14 F= -.23167408E+03 E0= -.23165349E+03  d E =-.312033E-02  mag=    -3.3891
       N       E                     dE             d eps       ncg     rms          ort
SDA:   1    -0.231553011280E+03    0.12106E+00    0.00000E+00  8320   0.232E+01 0.000E+00
CGA:   2    -0.231579060355E+03   -0.26049E-01   -0.25584E-01  8320   0.370E+00 0.298E-01
CGA:   3    -0.231612777366E+03   -0.33717E-01   -0.33890E-01  8320   0.512E+00-0.339E-02
CGA:   4    -0.231640095055E+03   -0.27318E-01   -0.27277E-01  8320   0.459E+00 0.237E-02
CGA:   5    -0.231649616382E+03   -0.95213E-02   -0.94829E-02  8320   0.307E+00 0.787E-03
CGA:   6    -0.231659710547E+03   -0.10094E-01   -0.10118E-01  8320   0.975E-01 0.878E-03
CGA:   7    -0.231669854747E+03   -0.10144E-01   -0.10164E-01  8320   0.538E-01-0.333E-03
CGA:   8    -0.231671467736E+03   -0.16130E-02   -0.16118E-02  8320   0.706E-01-0.838E-05
CGA:   9    -0.231673292521E+03   -0.18248E-02   -0.18263E-02  8320   0.132E-01-0.158E-04
CGA:  10    -0.231674704675E+03   -0.14122E-02   -0.14103E-02  8320   0.439E-02 0.308E-04
CGA:  11    -0.231675058396E+03   -0.35372E-03   -0.35406E-03  8320   0.281E-02-0.924E-05
CGA:  12    -0.231675243901E+03   -0.18550E-03   -0.18545E-03  8320   0.277E-02 0.242E-05
CGA:  13    -0.231675410793E+03   -0.16689E-03   -0.16677E-03  8320   0.844E-03 0.805E-05
CGA:  14    -0.231675435543E+03   -0.24750E-04   -0.24746E-04  8320   0.133E-02 0.590E-07
CGA:  15    -0.231675494851E+03   -0.59308E-04   -0.59306E-04  8320   0.375E-03-0.650E-06
CGA:  16    -0.231675538992E+03   -0.44140E-04   -0.44039E-04  8320   0.234E-03 0.145E-05
CGA:  17    -0.231675550306E+03   -0.11314E-04   -0.11314E-04  8320   0.408E-03 0.134E-06
CGA:  18    -0.231675558685E+03   -0.83795E-05   -0.83789E-05  8320   0.142E-03 0.613E-07
CGA:  19    -0.231675569700E+03   -0.11015E-04   -0.11013E-04  8320   0.143E-03 0.664E-07
CGA:  20    -0.231675577203E+03   -0.75029E-05   -0.75028E-05  8320   0.668E-04 0.610E-07
  15 F= -.23167558E+03 E0= -.23165503E+03  d E =-.149810E-02  mag=    -3.3983
       N       E                     dE             d eps       ncg     rms          ort
SDA:   1    -0.231391635543E+03    0.28393E+00    0.00000E+00  8320   0.842E+01 0.000E+00
CGA:   2    -0.231475229053E+03   -0.83594E-01   -0.95147E-01  8320   0.913E+00-0.972E+00
CGA:   3    -0.231523913395E+03   -0.48684E-01   -0.48744E-01  8320   0.196E+01-0.330E-02
CGA:   4    -0.231581369189E+03   -0.57456E-01   -0.57864E-01  8320   0.972E+00-0.455E-02
CGA:   5    -0.231610677096E+03   -0.29308E-01   -0.29117E-01  8320   0.626E+00 0.621E-03
CGA:   6    -0.231628847022E+03   -0.18170E-01   -0.18240E-01  8320   0.403E+00-0.595E-03
CGA:   7    -0.231643926971E+03   -0.15080E-01   -0.15073E-01  8320   0.388E+00-0.257E-03
CGA:   8    -0.231656201919E+03   -0.12275E-01   -0.12293E-01  8320   0.258E+00 0.367E-04
CGA:   9    -0.231663482601E+03   -0.72807E-02   -0.72511E-02  8320   0.105E+00 0.173E-03
CGA:  10    -0.231665901079E+03   -0.24185E-02   -0.24213E-02  8320   0.524E-01-0.663E-04
CGA:  11    -0.231668388474E+03   -0.24874E-02   -0.24879E-02  8320   0.699E-01-0.637E-04
CGA:  12    -0.231670166861E+03   -0.17784E-02   -0.17800E-02  8320   0.231E-01-0.212E-04
CGA:  13    -0.231670857405E+03   -0.69054E-03   -0.69029E-03  8320   0.185E-01-0.105E-05
CGA:  14    -0.231671419212E+03   -0.56181E-03   -0.56197E-03  8320   0.839E-02 0.257E-05
CGA:  15    -0.231671672379E+03   -0.25317E-03   -0.25311E-03  8320   0.830E-02-0.511E-06
CGA:  16    -0.231672075440E+03   -0.40306E-03   -0.40307E-03  8320   0.798E-02-0.650E-06
CGA:  17    -0.231672257172E+03   -0.18173E-03   -0.18166E-03  8320   0.302E-02 0.234E-05
CGA:  18    -0.231672360180E+03   -0.10301E-03   -0.10303E-03  8320   0.274E-02 0.242E-05
CGA:  19    -0.231672459178E+03   -0.98998E-04   -0.99006E-04  8320   0.247E-02 0.228E-05
CGA:  20    -0.231672541272E+03   -0.82094E-04   -0.82118E-04  8320   0.173E-02 0.216E-05
CGA:  21    -0.231672597651E+03   -0.56379E-04   -0.56377E-04  8320   0.149E-02-0.912E-07
CGA:  22    -0.231672649047E+03   -0.51395E-04   -0.51395E-04  8320   0.889E-03-0.247E-06
CGA:  23    -0.231672672619E+03   -0.23573E-04   -0.23574E-04  8320   0.621E-03 0.262E-06
CGA:  24    -0.231672703039E+03   -0.30420E-04   -0.30403E-04  8320   0.743E-03 0.152E-05
CGA:  25    -0.231672721600E+03   -0.18560E-04   -0.18569E-04  8320   0.334E-03 0.683E-06
CGA:  26    -0.231672735919E+03   -0.14319E-04   -0.14320E-04  8320   0.451E-03-0.670E-07
CGA:  27    -0.231672749386E+03   -0.13467E-04   -0.13463E-04  8320   0.177E-03-0.427E-06
CGA:  28    -0.231672754089E+03   -0.47031E-05   -0.47022E-05  8320   0.126E-03-0.109E-06
  16 F= -.23167275E+03 E0= -.23165223E+03  d E =0.282311E-02  mag=    -3.4043
       N       E                     dE             d eps       ncg     rms          ort
SDA:   1    -0.230616531701E+03    0.10562E+01    0.00000E+00  8320   0.172E+02 0.000E+00
CGA:   2    -0.230821090070E+03   -0.20456E+00   -0.20249E+00  8320   0.348E+01-0.217E+00
CGA:   3    -0.231125821836E+03   -0.30473E+00   -0.29772E+00  8320   0.436E+01 0.165E+00
CGA:   4    -0.231378999364E+03   -0.25318E+00   -0.25713E+00  8320   0.259E+01-0.175E+00
CGA:   5    -0.231455079330E+03   -0.76080E-01   -0.76422E-01  8320   0.307E+01 0.659E-02
CGA:   6    -0.231532220446E+03   -0.77141E-01   -0.76360E-01  8320   0.944E+00 0.111E-02
CGA:   7    -0.231620902619E+03   -0.88682E-01   -0.88285E-01  8320   0.527E+00 0.875E-02
CGA:   8    -0.231633570926E+03   -0.12668E-01   -0.12636E-01  8320   0.490E+00 0.263E-03
CGA:   9    -0.231649498903E+03   -0.15928E-01   -0.15939E-01  8320   0.178E+00 0.310E-03
CGA:  10    -0.231659618730E+03   -0.10120E-01   -0.10145E-01  8320   0.118E+00-0.114E-02
CGA:  11    -0.231663921824E+03   -0.43031E-02   -0.43031E-02  8320   0.121E+00-0.280E-05
CGA:  12    -0.231666063034E+03   -0.21412E-02   -0.21364E-02  8320   0.245E-01 0.158E-03
CGA:  13    -0.231668675460E+03   -0.26124E-02   -0.26010E-02  8320   0.232E-01 0.191E-03
CGA:  14    -0.231669464516E+03   -0.78906E-03   -0.78881E-03  8320   0.303E-01-0.668E-05
CGA:  15    -0.231670220780E+03   -0.75626E-03   -0.75620E-03  8320   0.982E-02-0.259E-05
CGA:  16    -0.231670697485E+03   -0.47671E-03   -0.47686E-03  8320   0.530E-02-0.148E-04
CGA:  17    -0.231671098664E+03   -0.40118E-03   -0.40098E-03  8320   0.111E-01 0.587E-05
CGA:  18    -0.231671287236E+03   -0.18857E-03   -0.18854E-03  8320   0.293E-02 0.693E-05
CGA:  19    -0.231671517264E+03   -0.23003E-03   -0.22990E-03  8320   0.200E-02 0.343E-05
CGA:  20    -0.231671605109E+03   -0.87845E-04   -0.87844E-04  8320   0.235E-02 0.528E-06
CGA:  21    -0.231671658614E+03   -0.53505E-04   -0.53548E-04  8320   0.164E-02 0.459E-06
CGA:  22    -0.231671754495E+03   -0.95881E-04   -0.95847E-04  8320   0.839E-03 0.230E-05
CGA:  23    -0.231671809359E+03   -0.54865E-04   -0.54837E-04  8320   0.944E-03 0.123E-05
CGA:  24    -0.231671825036E+03   -0.15677E-04   -0.15677E-04  8320   0.380E-03 0.587E-06
CGA:  25    -0.231671854140E+03   -0.29103E-04   -0.29087E-04  8320   0.359E-03 0.476E-06
CGA:  26    -0.231671872255E+03   -0.18115E-04   -0.18112E-04  8320   0.328E-03 0.550E-06
CGA:  27    -0.231671879308E+03   -0.70534E-05   -0.70609E-05  8320   0.233E-03 0.255E-06
CGA:  28    -0.231671889411E+03   -0.10103E-04   -0.10103E-04  8320   0.676E-04 0.506E-06
CGA:  29    -0.231671895303E+03   -0.58921E-05   -0.58784E-05  8320   0.166E-03 0.305E-06
  17 F= -.23167190E+03 E0= -.23165131E+03  d E =0.858787E-03  mag=    -3.3836
       N       E                     dE             d eps       ncg     rms          ort
SDA:   1    -0.221211094074E+03    0.10461E+02    0.00000E+00  8320   0.609E+03 0.000E+00
CGA:   2    -0.228476648862E+03   -0.72656E+01   -0.11147E+02  8320   0.166E+03-0.307E+03
CGA:   3    -0.231257285627E+03   -0.27806E+01   -0.19149E+01  8320   0.428E+01 0.163E+01
CGA:   4    -0.231371996216E+03   -0.11471E+00   -0.11035E+00  8320   0.159E+01 0.127E-01
CGA:   5    -0.231404833307E+03   -0.32837E-01   -0.33203E-01  8320   0.174E+01-0.114E-01
CGA:   6    -0.231562680873E+03   -0.15785E+00   -0.15923E+00  8320   0.165E+01-0.284E-01
CGA:   7    -0.231588252362E+03   -0.25571E-01   -0.25236E-01  8320   0.908E+00 0.135E-01
CGA:   8    -0.231622835596E+03   -0.34583E-01   -0.34686E-01  8320   0.377E+00 0.121E-01
CGA:   9    -0.231634374995E+03   -0.11539E-01   -0.11579E-01  8320   0.616E+00 0.495E-03
CGA:  10    -0.231653548611E+03   -0.19174E-01   -0.19150E-01  8320   0.309E+00-0.606E-03
CGA:  11    -0.231665103772E+03   -0.11555E-01   -0.11544E-01  8320   0.180E+00-0.182E-02
CGA:  12    -0.231667434830E+03   -0.23311E-02   -0.23381E-02  8320   0.477E-01-0.459E-03
CGA:  13    -0.231671702293E+03   -0.42675E-02   -0.42535E-02  8320   0.689E-01 0.295E-03
CGA:  14    -0.231672683190E+03   -0.98090E-03   -0.97622E-03  8320   0.233E-01 0.250E-03
CGA:  15    -0.231673611835E+03   -0.92864E-03   -0.92864E-03  8320   0.131E-01-0.133E-05
CGA:  16    -0.231674120923E+03   -0.50909E-03   -0.50911E-03  8320   0.249E-01 0.143E-04
CGA:  17    -0.231674721136E+03   -0.60021E-03   -0.59971E-03  8320   0.909E-02 0.575E-05
CGA:  18    -0.231675210068E+03   -0.48893E-03   -0.48874E-03  8320   0.844E-02 0.103E-04
CGA:  19    -0.231675338814E+03   -0.12875E-03   -0.12888E-03  8320   0.379E-02-0.468E-05
CGA:  20    -0.231675598185E+03   -0.25937E-03   -0.25927E-03  8320   0.278E-02 0.338E-05
CGA:  21    -0.231675669509E+03   -0.71324E-04   -0.71300E-04  8320   0.345E-02 0.318E-06
CGA:  22    -0.231675789066E+03   -0.11956E-03   -0.11955E-03  8320   0.204E-02-0.827E-06
CGA:  23    -0.231675889282E+03   -0.10022E-03   -0.10022E-03  8320   0.157E-02-0.329E-06
CGA:  24    -0.231675913263E+03   -0.23981E-04   -0.23993E-04  8320   0.725E-03 0.626E-06
CGA:  25    -0.231675972407E+03   -0.59144E-04   -0.58941E-04  8320   0.706E-03 0.477E-05
CGA:  26    -0.231675991243E+03   -0.18836E-04   -0.18847E-04  8320   0.956E-03 0.275E-06
CGA:  27    -0.231676025039E+03   -0.33795E-04   -0.33788E-04  8320   0.384E-03-0.107E-05
CGA:  28    -0.231676040089E+03   -0.15050E-04   -0.15050E-04  8320   0.342E-03-0.100E-05
CGA:  29    -0.231676046272E+03   -0.61825E-05   -0.61766E-05  8320   0.209E-03-0.314E-06
CGA:  30    -0.231676061164E+03   -0.14892E-04   -0.14895E-04  8320   0.139E-03-0.866E-07
CGA:  31    -0.231676064710E+03   -0.35458E-05   -0.35440E-05  8320   0.185E-03-0.103E-06
  18 F= -.23167606E+03 E0= -.23165551E+03  d E =-.416941E-02  mag=    -3.3948
       N       E                     dE             d eps       ncg     rms          ort
SDA:   1    -0.231662184756E+03    0.13876E-01    0.00000E+00  8320   0.282E+00 0.000E+00
CGA:   2    -0.231666035877E+03   -0.38511E-02   -0.38023E-02  8320   0.716E-01 0.259E-02
CGA:   3    -0.231667993818E+03   -0.19579E-02   -0.19601E-02  8320   0.361E-01 0.140E-04
CGA:   4    -0.231672999584E+03   -0.50058E-02   -0.50051E-02  8320   0.353E-01 0.718E-05
CGA:   5    -0.231674705129E+03   -0.17055E-02   -0.17063E-02  8320   0.302E-01-0.783E-04
CGA:   6    -0.231675145452E+03   -0.44032E-03   -0.44127E-03  8320   0.836E-02-0.517E-04
CGA:   7    -0.231676061796E+03   -0.91634E-03   -0.91721E-03  8320   0.359E-02-0.128E-04
CGA:   8    -0.231676321231E+03   -0.25943E-03   -0.25916E-03  8320   0.192E-02 0.945E-05
CGA:   9    -0.231676356947E+03   -0.35716E-04   -0.35726E-04  8320   0.140E-02 0.152E-05
CGA:  10    -0.231676449318E+03   -0.92371E-04   -0.92322E-04  8320   0.696E-03 0.239E-05
CGA:  11    -0.231676475591E+03   -0.26273E-04   -0.26279E-04  8320   0.312E-03 0.765E-06
CGA:  12    -0.231676487123E+03   -0.11532E-04   -0.11535E-04  8320   0.534E-03 0.336E-06
CGA:  13    -0.231676502807E+03   -0.15684E-04   -0.15687E-04  8320   0.138E-03 0.334E-06
CGA:  14    -0.231676513470E+03   -0.10664E-04   -0.10682E-04  8320   0.936E-04-0.534E-06
CGA:  15    -0.231676515756E+03   -0.22858E-05   -0.22814E-05  8320   0.105E-03-0.194E-06
  19 F= -.23167652E+03 E0= -.23165596E+03  d E =-.451046E-03  mag=    -3.3917
       N       E                     dE             d eps       ncg     rms          ort
SDA:   1    -0.231549267142E+03    0.12725E+00    0.00000E+00  8320   0.579E+00 0.000E+00
CGA:   2    -0.231561188966E+03   -0.11922E-01   -0.11871E-01  8320   0.621E+00 0.108E-02
CGA:   3    -0.231627500408E+03   -0.66311E-01   -0.66116E-01  8320   0.582E+00 0.351E-02
CGA:   4    -0.231651349400E+03   -0.23849E-01   -0.23782E-01  8320   0.196E+00-0.381E-02
CGA:   5    -0.231663871035E+03   -0.12522E-01   -0.12572E-01  8320   0.160E+00-0.218E-02
CGA:   6    -0.231667430904E+03   -0.35599E-02   -0.35735E-02  8320   0.153E+00-0.335E-03
CGA:   7    -0.231673931913E+03   -0.65010E-02   -0.65022E-02  8320   0.213E-01 0.145E-03
CGA:   8    -0.231675774727E+03   -0.18428E-02   -0.18447E-02  8320   0.176E-01-0.437E-04
CGA:   9    -0.231676323194E+03   -0.54847E-03   -0.54789E-03  8320   0.184E-01 0.697E-06
CGA:  10    -0.231676744073E+03   -0.42088E-03   -0.42139E-03  8320   0.722E-02-0.128E-04
CGA:  11    -0.231677110804E+03   -0.36673E-03   -0.36669E-03  8320   0.277E-02 0.637E-05
CGA:  12    -0.231677303163E+03   -0.19236E-03   -0.19226E-03  8320   0.272E-02 0.375E-05
CGA:  13    -0.231677353581E+03   -0.50418E-04   -0.50385E-04  8320   0.176E-02 0.593E-06
CGA:  14    -0.231677475866E+03   -0.12228E-03   -0.12240E-03  8320   0.566E-03-0.462E-05
CGA:  15    -0.231677506949E+03   -0.31084E-04   -0.31076E-04  8320   0.645E-03 0.914E-06
CGA:  16    -0.231677523577E+03   -0.16627E-04   -0.16641E-04  8320   0.594E-03 0.529E-06
CGA:  17    -0.231677543314E+03   -0.19737E-04   -0.19745E-04  8320   0.237E-03 0.557E-06
CGA:  18    -0.231677565089E+03   -0.21775E-04   -0.21813E-04  8320   0.161E-03-0.812E-06
CGA:  19    -0.231677568610E+03   -0.35208E-05   -0.35235E-05  8320   0.157E-03 0.113E-06
  20 F= -.23167757E+03 E0= -.23165703E+03  d E =-.105285E-02  mag=    -3.3862
       N       E                     dE             d eps       ncg     rms          ort
SDA:   1    -0.231565021624E+03    0.11254E+00    0.00000E+00  8320   0.846E+00 0.000E+00
CGA:   2    -0.231580224036E+03   -0.15202E-01   -0.15520E-01  8320   0.566E+00-0.125E-01
CGA:   3    -0.231604683784E+03   -0.24460E-01   -0.24467E-01  8320   0.588E+00 0.160E-02
CGA:   4    -0.231645048525E+03   -0.40365E-01   -0.40289E-01  8320   0.244E+00 0.283E-02
CGA:   5    -0.231658172874E+03   -0.13124E-01   -0.13134E-01  8320   0.374E+00-0.925E-03
CGA:   6    -0.231664443882E+03   -0.62710E-02   -0.62912E-02  8320   0.989E-01-0.942E-03
CGA:   7    -0.231673749569E+03   -0.93057E-02   -0.92811E-02  8320   0.318E-01 0.515E-03
CGA:   8    -0.231675351432E+03   -0.16019E-02   -0.16020E-02  8320   0.216E-01-0.271E-04
CGA:   9    -0.231676591481E+03   -0.12400E-02   -0.12406E-02  8320   0.221E-01-0.438E-04
CGA:  10    -0.231676937889E+03   -0.34641E-03   -0.34678E-03  8320   0.748E-02-0.205E-04
CGA:  11    -0.231677398348E+03   -0.46046E-03   -0.46029E-03  8320   0.250E-02 0.967E-05
CGA:  12    -0.231677618241E+03   -0.21989E-03   -0.21976E-03  8320   0.247E-02 0.322E-05
CGA:  13    -0.231677714204E+03   -0.95963E-04   -0.95949E-04  8320   0.314E-02-0.435E-06
CGA:  14    -0.231677779398E+03   -0.65194E-04   -0.65194E-04  8320   0.113E-02-0.943E-06
CGA:  15    -0.231677833608E+03   -0.54209E-04   -0.54209E-04  8320   0.424E-03-0.129E-06
CGA:  16    -0.231677877318E+03   -0.43711E-04   -0.43588E-04  8320   0.346E-03 0.222E-05
CGA:  17    -0.231677890786E+03   -0.13468E-04   -0.13468E-04  8320   0.645E-03 0.108E-06
CGA:  18    -0.231677908961E+03   -0.18175E-04   -0.18171E-04  8320   0.176E-03-0.139E-06
CGA:  19    -0.231677917735E+03   -0.87735E-05   -0.87736E-05  8320   0.115E-03-0.861E-07
CGA:  20    -0.231677928516E+03   -0.10781E-04   -0.10767E-04  8320   0.814E-04 0.310E-06
CGA:  21    -0.231677931893E+03   -0.33776E-05   -0.33779E-05  8320   0.174E-03 0.301E-07
  21 F= -.23167793E+03 E0= -.23165739E+03  d E =-.363283E-03  mag=    -3.3763
       N       E                     dE             d eps       ncg     rms          ort
SDA:   1    -0.231652439415E+03    0.25489E-01    0.00000E+00  8320   0.282E+00 0.000E+00
CGA:   2    -0.231655990539E+03   -0.35511E-02   -0.36041E-02  8320   0.864E-01-0.351E-02
CGA:   3    -0.231663409206E+03   -0.74187E-02   -0.74279E-02  8320   0.155E+00-0.217E-03
CGA:   4    -0.231671576586E+03   -0.81674E-02   -0.81675E-02  8320   0.519E-01-0.224E-04
CGA:   5    -0.231672863401E+03   -0.12868E-02   -0.12849E-02  8320   0.571E-01 0.423E-04
CGA:   6    -0.231675136181E+03   -0.22728E-02   -0.22748E-02  8320   0.193E-01 0.681E-04
CGA:   7    -0.231676717996E+03   -0.15818E-02   -0.15840E-02  8320   0.186E-01-0.588E-04
CGA:   8    -0.231676973500E+03   -0.25550E-03   -0.25598E-03  8320   0.429E-02-0.300E-04
CGA:   9    -0.231677273044E+03   -0.29954E-03   -0.29958E-03  8320   0.390E-02-0.119E-05
CGA:  10    -0.231677424286E+03   -0.15124E-03   -0.15125E-03  8320   0.333E-02-0.464E-06
CGA:  11    -0.231677486860E+03   -0.62574E-04   -0.62482E-04  8320   0.130E-02 0.173E-05
CGA:  12    -0.231677552106E+03   -0.65246E-04   -0.65255E-04  8320   0.551E-03-0.210E-05
CGA:  13    -0.231677580635E+03   -0.28529E-04   -0.28530E-04  8320   0.115E-02-0.572E-08
CGA:  14    -0.231677605975E+03   -0.25340E-04   -0.25355E-04  8320   0.275E-03 0.865E-07
CGA:  15    -0.231677627710E+03   -0.21735E-04   -0.21727E-04  8320   0.231E-03 0.224E-06
CGA:  16    -0.231677632086E+03   -0.43759E-05   -0.43761E-05  8320   0.137E-03-0.121E-07
  22 F= -.23167763E+03 E0= -.23165707E+03  d E =0.299807E-03  mag=    -3.3748
       N       E                     dE             d eps       ncg     rms          ort
SDA:   1    -0.231654564402E+03    0.23063E-01    0.00000E+00  8320   0.368E+00 0.000E+00
CGA:   2    -0.231661424501E+03   -0.68601E-02   -0.67378E-02  8320   0.122E+00 0.430E-02
CGA:   3    -0.231663777812E+03   -0.23533E-02   -0.23565E-02  8320   0.565E-01-0.134E-03
CGA:   4    -0.231672722725E+03   -0.89449E-02   -0.89508E-02  8320   0.296E-01-0.645E-04
CGA:   5    -0.231674900471E+03   -0.21777E-02   -0.21788E-02  8320   0.336E-01-0.340E-04
CGA:   6    -0.231675504544E+03   -0.60407E-03   -0.60305E-03  8320   0.194E-01 0.375E-04
CGA:   7    -0.231676700365E+03   -0.11958E-02   -0.11960E-02  8320   0.899E-02-0.143E-04
CGA:   8    -0.231677015160E+03   -0.31480E-03   -0.31454E-03  8320   0.301E-02-0.409E-05
CGA:   9    -0.231677128437E+03   -0.11328E-03   -0.11330E-03  8320   0.527E-02 0.136E-05
CGA:  10    -0.231677274795E+03   -0.14636E-03   -0.14648E-03  8320   0.100E-02 0.168E-05
CGA:  11    -0.231677363538E+03   -0.88744E-04   -0.88748E-04  8320   0.815E-03-0.552E-07
CGA:  12    -0.231677377553E+03   -0.14015E-04   -0.14018E-04  8320   0.457E-03 0.399E-06
CGA:  13    -0.231677406075E+03   -0.28522E-04   -0.28506E-04  8320   0.224E-03 0.103E-05
CGA:  14    -0.231677422268E+03   -0.16193E-04   -0.16191E-04  8320   0.453E-03 0.823E-07
CGA:  15    -0.231677429709E+03   -0.74416E-05   -0.74448E-05  8320   0.886E-04-0.407E-07
  23 F= -.23167743E+03 E0= -.23165687E+03  d E =0.202377E-03  mag=    -3.3769
       N       E                     dE             d eps       ncg     rms          ort
SDA:   1    -0.231667839905E+03    0.95824E-02    0.00000E+00  8320   0.280E+00 0.000E+00
CGA:   2    -0.231671163691E+03   -0.33238E-02   -0.33005E-02  8320   0.462E-01 0.152E-02
CGA:   3    -0.231672564680E+03   -0.14010E-02   -0.14001E-02  8320   0.211E-01 0.264E-05
CGA:   4    -0.231674927943E+03   -0.23633E-02   -0.23661E-02  8320   0.238E-01-0.463E-04
CGA:   5    -0.231676163603E+03   -0.12357E-02   -0.12357E-02  8320   0.308E-01-0.343E-05
CGA:   6    -0.231676616753E+03   -0.45315E-03   -0.45465E-03  8320   0.468E-02-0.764E-04
CGA:   7    -0.231677184999E+03   -0.56825E-03   -0.56808E-03  8320   0.310E-02 0.213E-05
CGA:   8    -0.231677369151E+03   -0.18415E-03   -0.18417E-03  8320   0.195E-02-0.207E-05
CGA:   9    -0.231677399348E+03   -0.30197E-04   -0.30156E-04  8320   0.837E-03 0.101E-05
CGA:  10    -0.231677466038E+03   -0.66690E-04   -0.66693E-04  8320   0.396E-03-0.148E-06
CGA:  11    -0.231677484840E+03   -0.18802E-04   -0.18799E-04  8320   0.379E-03-0.647E-06
CGA:  12    -0.231677494682E+03   -0.98419E-05   -0.98316E-05  8320   0.337E-03-0.442E-06
  24 F= -.23167749E+03 E0= -.23165695E+03  d E =-.649729E-04  mag=    -3.3794
       N       E                     dE             d eps       ncg     rms          ort
SDA:   1     0.123345992484E+02    0.24401E+03    0.00000E+00  8320   0.384E+04 0.000E+00
CGA:   2    -0.763860319357E+02   -0.88721E+02   -0.12080E+03  8320   0.804E+03 0.208E+03
CGA:   3    -0.116562503694E+03   -0.40176E+02   -0.40306E+02  8320   0.690E+03 0.609E+02
CGA:   4    -0.150901038991E+03   -0.34339E+02   -0.34116E+02  8320   0.888E+03-0.859E+02
CGA:   5    -0.176561978720E+03   -0.25661E+02   -0.29566E+02  8320   0.551E+03 0.106E+03
CGA:   6    -0.191999392410E+03   -0.15437E+02   -0.14406E+02  8320   0.647E+03-0.292E+03
CGA:   7    -0.196810470828E+03   -0.48111E+01   -0.11454E+02  8320   0.899E+03-0.781E+03
CGA:   8    -0.200448007527E+03   -0.36375E+01   -0.15468E+02  8320   0.568E+03-0.455E+03
CGA:   9    -0.205115346181E+03   -0.46673E+01   -0.89458E+01  8320   0.552E+03-0.589E+03
CGA:  10    -0.207675655637E+03   -0.25603E+01   -0.83185E+01  8320   0.399E+03-0.364E+03
CGA:  11    -0.210413140444E+03   -0.27375E+01   -0.53775E+01  8320   0.291E+03-0.301E+03
CGA:  12    -0.212141838902E+03   -0.17287E+01   -0.38199E+01  8320   0.197E+03-0.167E+03
CGA:  13    -0.213811903178E+03   -0.16701E+01   -0.21541E+01  8320   0.824E+02-0.614E+02
CGA:  14    -0.216806126694E+03   -0.29942E+01   -0.61448E+01  8320   0.737E+03-0.472E+02
CGA:  15    -0.215503466555E+03    0.13027E+01   -0.11570E+02  8320   0.666E+03-0.425E+03
CGA:  16    -0.220037402237E+03   -0.45339E+01   -0.81076E+01  8320   0.307E+03-0.475E+03
CGA:  17    -0.221856345794E+03   -0.18189E+01   -0.34463E+01  8320   0.143E+03-0.201E+03
CGA:  18    -0.222951273969E+03   -0.10949E+01   -0.11643E+01  8320   0.201E+02-0.219E+02
CGA:  19    -0.223939461448E+03   -0.98819E+00   -0.10189E+01  8320   0.877E+02-0.966E+00
CGA:  20    -0.226314738145E+03   -0.23753E+01   -0.22415E+01  8320   0.127E+03-0.261E+01
CGA:  21    -0.228494644939E+03   -0.21799E+01   -0.18919E+01  8320   0.194E+02 0.138E+02
CGA:  22    -0.229014449854E+03   -0.51980E+00   -0.57966E+00  8320   0.181E+02 0.190E+01
CGA:  23    -0.229274755276E+03   -0.26031E+00   -0.26312E+00  8320   0.124E+02-0.402E+00
CGA:  24    -0.229765077922E+03   -0.49032E+00   -0.50059E+00  8320   0.126E+02-0.103E+01
CGA:  25    -0.230104742004E+03   -0.33966E+00   -0.34420E+00  8320   0.306E+01 0.424E+00
CGA:  26    -0.230239791398E+03   -0.13505E+00   -0.13441E+00  8320   0.572E+01 0.494E-01
CGA:  27    -0.230359473976E+03   -0.11968E+00   -0.12668E+00  8320   0.516E+01-0.260E-01
CGA:  28    -0.230475231329E+03   -0.11576E+00   -0.11652E+00  8320   0.212E+01 0.287E-01
CGA:  29    -0.230527154892E+03   -0.51924E-01   -0.52053E-01  8320   0.255E+01 0.105E-02
CGA:  30    -0.230596613124E+03   -0.69458E-01   -0.70079E-01  8320   0.122E+01 0.413E-01
CGA:  31    -0.230623448521E+03   -0.26835E-01   -0.27508E-01  8320   0.136E+01 0.300E-02
CGA:  32    -0.230674740606E+03   -0.51292E-01   -0.51507E-01  8320   0.107E+01-0.238E-01
CGA:  33    -0.230692808970E+03   -0.18068E-01   -0.18644E-01  8320   0.520E+00-0.123E-01
CGA:  34    -0.230715003480E+03   -0.22195E-01   -0.22123E-01  8320   0.834E+00 0.477E-02
CGA:  35    -0.230732312496E+03   -0.17309E-01   -0.17522E-01  8320   0.272E+00-0.467E-03
CGA:  36    -0.230739169899E+03   -0.68574E-02   -0.68651E-02  8320   0.281E+00 0.230E-03
CGA:  37    -0.230749260777E+03   -0.10091E-01   -0.10033E-01  8320   0.180E+00 0.774E-02
CGA:  38    -0.230752551516E+03   -0.32907E-02   -0.33189E-02  8320   0.874E-01-0.509E-03
CGA:  39    -0.230756489088E+03   -0.39376E-02   -0.39102E-02  8320   0.136E+00 0.153E-02
CGA:  40    -0.230759750182E+03   -0.32611E-02   -0.32792E-02  8320   0.658E-01 0.421E-03
CGA:  41    -0.230761858166E+03   -0.21080E-02   -0.21061E-02  8320   0.736E-01 0.990E-03
CGA:  42    -0.230763995747E+03   -0.21376E-02   -0.21393E-02  8320   0.362E-01 0.307E-03
CGA:  43    -0.230764780296E+03   -0.78455E-03   -0.78895E-03  8320   0.204E-01 0.247E-04
CGA:  44    -0.230765561358E+03   -0.78106E-03   -0.77990E-03  8320   0.247E-01 0.901E-04
CGA:  45    -0.230766297290E+03   -0.73593E-03   -0.73662E-03  8320   0.178E-01 0.293E-03
CGA:  46    -0.230766874448E+03   -0.57716E-03   -0.57702E-03  8320   0.174E-01 0.576E-04
CGA:  47    -0.230767454518E+03   -0.58007E-03   -0.57880E-03  8320   0.125E-01 0.316E-03
SDA:  48    -0.230767782572E+03   -0.32805E-03   -0.32820E-03  8320   0.791E-02 0.115E-04
CGA:  49    -0.230767879937E+03   -0.97365E-04   -0.97529E-04  8320   0.290E-02-0.162E-04
CGA:  50    -0.230768188639E+03   -0.30870E-03   -0.30653E-03  8320   0.292E-02 0.291E-04
CGA:  51    -0.230768595002E+03   -0.40636E-03   -0.39493E-03  8320   0.107E-01 0.135E-03
CGA:  52    -0.230768805954E+03   -0.21095E-03   -0.21024E-03  8320   0.609E-02 0.207E-04
CGA:  53    -0.230769132054E+03   -0.32610E-03   -0.32625E-03  8320   0.522E-02-0.718E-05
CGA:  54    -0.230769453901E+03   -0.32185E-03   -0.32014E-03  8320   0.279E-02 0.645E-04
CGA:  55    -0.230769507990E+03   -0.54089E-04   -0.54343E-04  8320   0.216E-02-0.851E-05
CGA:  56    -0.230769633889E+03   -0.12590E-03   -0.12601E-03  8320   0.918E-03-0.582E-05
CGA:  57    -0.230769724592E+03   -0.90702E-04   -0.90540E-04  8320   0.347E-02 0.258E-05
CGA:  58    -0.230769791441E+03   -0.66849E-04   -0.67068E-04  8320   0.107E-02-0.597E-05
CGA:  59    -0.230769916364E+03   -0.12492E-03   -0.12398E-03  8320   0.989E-03 0.141E-04
CGA:  60    -0.230769942977E+03   -0.26614E-04   -0.26657E-04  8320   0.136E-02-0.699E-06
CGA:  61    -0.230770027135E+03   -0.84158E-04   -0.84166E-04  8320   0.895E-03-0.700E-06
CGA:  62    -0.230770067715E+03   -0.40580E-04   -0.40579E-04  8320   0.650E-03 0.275E-06
CGA:  63    -0.230770092548E+03   -0.24833E-04   -0.24831E-04  8320   0.134E-02-0.936E-06
CGA:  64    -0.230770151127E+03   -0.58578E-04   -0.58581E-04  8320   0.364E-03 0.923E-06
CGA:  65    -0.230770177904E+03   -0.26777E-04   -0.26727E-04  8320   0.404E-03 0.148E-05
CGA:  66    -0.230770185876E+03   -0.79715E-05   -0.79902E-05  8320   0.309E-03-0.121E-06
CGA:  67    -0.230770223535E+03   -0.37660E-04   -0.37707E-04  8320   0.173E-03-0.941E-06
CGA:  68    -0.230770233739E+03   -0.10204E-04   -0.10193E-04  8320   0.481E-03 0.100E-05
CGA:  69    -0.230770246076E+03   -0.12336E-04   -0.12365E-04  8320   0.167E-03 0.765E-06
CGA:  70    -0.230770261379E+03   -0.15303E-04   -0.15276E-04  8320   0.320E-03 0.504E-06
CGA:  71    -0.230770275019E+03   -0.13640E-04   -0.13634E-04  8320   0.392E-03-0.407E-06
CGA:  72    -0.230770282003E+03   -0.69835E-05   -0.69762E-05  8320   0.578E-04-0.339E-06
CGA:  73    -0.230770292679E+03   -0.10676E-04   -0.10816E-04  8320   0.202E-03-0.116E-05
CGA:  74    -0.230770296092E+03   -0.34134E-05   -0.34007E-05  8320   0.920E-04-0.226E-06
  25 F= -.23077030E+03 E0= -.23075026E+03  d E =0.907199E+00  mag=    -3.4300
       N       E                     dE             d eps       ncg     rms          ort
SDA:   1    -0.725846533910E+02    0.15819E+03    0.00000E+00  8320   0.623E+04 0.000E+00
CGA:   2    -0.136212064720E+03   -0.63627E+02   -0.16974E+03  8320   0.195E+04-0.957E+03
CGA:   3    -0.172689612784E+03   -0.36478E+02   -0.35663E+02  8320   0.309E+03-0.176E+03
CGA:   4    -0.184844702929E+03   -0.12155E+02   -0.10298E+02  8320   0.448E+03-0.904E+02
CGA:   5    -0.205985257358E+03   -0.21141E+02   -0.21188E+02  8320   0.242E+03-0.103E+02
CGA:   6    -0.211473541803E+03   -0.54883E+01   -0.71203E+01  8320   0.636E+03-0.483E+02
CGA:   7    -0.216898323005E+03   -0.54248E+01   -0.94920E+01  8320   0.167E+03-0.160E+03
CGA:   8    -0.220191063626E+03   -0.32927E+01   -0.23344E+01  8320   0.152E+03-0.436E+02
CGA:   9    -0.222664551730E+03   -0.24735E+01   -0.21427E+01  8320   0.280E+03-0.881E+01
CGA:  10    -0.223916295264E+03   -0.12517E+01   -0.29378E+01  8320   0.142E+03-0.173E+03
CGA:  11    -0.227352741645E+03   -0.34364E+01   -0.36340E+01  8320   0.478E+02-0.182E+02
CGA:  12    -0.227858725934E+03   -0.50598E+00   -0.61821E+00  8320   0.339E+02-0.653E+01
CGA:  13    -0.228935688406E+03   -0.10770E+01   -0.10614E+01  8320   0.172E+02-0.116E+01
CGA:  14    -0.230092110172E+03   -0.11564E+01   -0.13036E+01  8320   0.220E+02-0.526E+01
CGA:  15    -0.230407731595E+03   -0.31562E+00   -0.33481E+00  8320   0.176E+02-0.409E+00
CGA:  16    -0.230655839075E+03   -0.24811E+00   -0.20145E+00  8320   0.261E+01 0.317E+01
CGA:  17    -0.230794033864E+03   -0.13819E+00   -0.13718E+00  8320   0.161E+01 0.151E+00
CGA:  18    -0.230901005437E+03   -0.10697E+00   -0.10773E+00  8320   0.215E+01-0.324E-01
CGA:  19    -0.231031854656E+03   -0.13085E+00   -0.13281E+00  8320   0.374E+01-0.813E-01
CGA:  20    -0.231085360414E+03   -0.53506E-01   -0.58726E-01  8320   0.331E+01-0.232E+00
CGA:  21    -0.231166051630E+03   -0.80691E-01   -0.76925E-01  8320   0.147E+01 0.685E-01
CGA:  22    -0.231215330970E+03   -0.49279E-01   -0.50440E-01  8320   0.133E+01 0.473E-01
CGA:  23    -0.231235636199E+03   -0.20305E-01   -0.19916E-01  8320   0.649E+00 0.179E-01
CGA:  24    -0.231255469405E+03   -0.19833E-01   -0.20099E-01  8320   0.453E+00 0.708E-02
CGA:  25    -0.231278208723E+03   -0.22739E-01   -0.23087E-01  8320   0.124E+01-0.220E-01
CGA:  26    -0.231298951826E+03   -0.20743E-01   -0.23880E-01  8320   0.351E+00-0.620E-01
CGA:  27    -0.231316181787E+03   -0.17230E-01   -0.17129E-01  8320   0.194E+00 0.517E-02
CGA:  28    -0.231328251320E+03   -0.12070E-01   -0.12212E-01  8320   0.262E+00-0.574E-02
CGA:  29    -0.231333500928E+03   -0.52496E-02   -0.57211E-02  8320   0.237E+00-0.677E-02
CGA:  30    -0.231341441732E+03   -0.79408E-02   -0.78132E-02  8320   0.127E+00-0.806E-02
CGA:  31    -0.231345146976E+03   -0.37052E-02   -0.37723E-02  8320   0.111E+00 0.202E-02
CGA:  32    -0.231348666228E+03   -0.35193E-02   -0.34944E-02  8320   0.119E+00-0.902E-03
CGA:  33    -0.231353887126E+03   -0.52209E-02   -0.51524E-02  8320   0.762E-01 0.786E-02
CGA:  34    -0.231356956245E+03   -0.30691E-02   -0.30695E-02  8320   0.777E-01 0.215E-03
CGA:  35    -0.231358681531E+03   -0.17253E-02   -0.17416E-02  8320   0.372E-01-0.215E-03
CGA:  36    -0.231360800200E+03   -0.21187E-02   -0.21092E-02  8320   0.276E-01 0.374E-03
CGA:  37    -0.231362152711E+03   -0.13525E-02   -0.13531E-02  8320   0.526E-01-0.875E-04
CGA:  38    -0.231363649767E+03   -0.14971E-02   -0.15146E-02  8320   0.265E-01 0.235E-03
CGA:  39    -0.231364952746E+03   -0.13030E-02   -0.13045E-02  8320   0.153E-01-0.129E-03
CGA:  40    -0.231365627018E+03   -0.67427E-03   -0.67296E-03  8320   0.275E-01 0.138E-03
SDA:  41    -0.231366558238E+03   -0.93122E-03   -0.93017E-03  8320   0.134E-01-0.100E-03
CGA:  42    -0.231366967953E+03   -0.40972E-03   -0.40960E-03  8320   0.143E-01-0.678E-05
CGA:  43    -0.231367359104E+03   -0.39115E-03   -0.39211E-03  8320   0.701E-02 0.103E-04
CGA:  44    -0.231368004494E+03   -0.64539E-03   -0.64512E-03  8320   0.843E-02 0.338E-06
CGA:  45    -0.231368516095E+03   -0.51160E-03   -0.51024E-03  8320   0.585E-02 0.560E-04
CGA:  46    -0.231369033362E+03   -0.51727E-03   -0.52011E-03  8320   0.925E-02-0.690E-04
CGA:  47    -0.231369206877E+03   -0.17352E-03   -0.17499E-03  8320   0.485E-02-0.520E-04
CGA:  48    -0.231369706524E+03   -0.49965E-03   -0.50389E-03  8320   0.268E-02-0.873E-04
CGA:  49    -0.231369949650E+03   -0.24313E-03   -0.24010E-03  8320   0.595E-02 0.680E-04
CGA:  50    -0.231370058825E+03   -0.10917E-03   -0.10355E-03  8320   0.177E-02 0.245E-03
CGA:  51    -0.231370272687E+03   -0.21386E-03   -0.21318E-03  8320   0.146E-02 0.108E-04
CGA:  52    -0.231370347632E+03   -0.74946E-04   -0.74939E-04  8320   0.201E-02 0.812E-06
CGA:  53    -0.231370400371E+03   -0.52739E-04   -0.51423E-04  8320   0.168E-02 0.207E-04
CGA:  54    -0.231370470068E+03   -0.69696E-04   -0.69856E-04  8320   0.784E-03 0.173E-05
CGA:  55    -0.231370538173E+03   -0.68105E-04   -0.67958E-04  8320   0.168E-02 0.309E-05
CGA:  56    -0.231370564267E+03   -0.26095E-04   -0.25385E-04  8320   0.406E-03 0.331E-04
CGA:  57    -0.231370606748E+03   -0.42481E-04   -0.42677E-04  8320   0.730E-03-0.390E-05
CGA:  58    -0.231370619447E+03   -0.12699E-04   -0.12718E-04  8320   0.429E-03-0.150E-05
CGA:  59    -0.231370647979E+03   -0.28532E-04   -0.28530E-04  8320   0.554E-03 0.182E-06
CGA:  60    -0.231370671378E+03   -0.23399E-04   -0.23379E-04  8320   0.821E-03-0.109E-05
CGA:  61    -0.231370688232E+03   -0.16854E-04   -0.17040E-04  8320   0.321E-03-0.708E-05
CGA:  62    -0.231370707997E+03   -0.19764E-04   -0.19755E-04  8320   0.262E-03 0.352E-06
CGA:  63    -0.231370713969E+03   -0.59721E-05   -0.59495E-05  8320   0.272E-03 0.466E-06
CGA:  64    -0.231370727856E+03   -0.13887E-04   -0.13881E-04  8320   0.131E-03 0.759E-06
CGA:  65    -0.231370734013E+03   -0.61575E-05   -0.61588E-05  8320   0.365E-03 0.505E-06
CGA:  66    -0.231370746350E+03   -0.12337E-04   -0.12280E-04  8320   0.124E-03 0.289E-06
CGA:  67    -0.231370753014E+03   -0.66643E-05   -0.66633E-05  8320   0.177E-03 0.219E-06
  26 F= -.23137075E+03 E0= -.23135022E+03  d E =-.600457E+00  mag=    -3.1464
       N       E                     dE             d eps       ncg     rms          ort
SDA:   1    -0.220018544090E+03    0.11352E+02    0.00000E+00  8320   0.264E+03 0.000E+00
CGA:   2    -0.226163538370E+03   -0.61450E+01   -0.44710E+01  8320   0.214E+02-0.216E+02
CGA:   3    -0.227802049794E+03   -0.16385E+01   -0.16858E+01  8320   0.574E+02-0.635E+00
CGA:   4    -0.228849308509E+03   -0.10473E+01   -0.11415E+01  8320   0.353E+02-0.253E+01
CGA:   5    -0.229854445602E+03   -0.10051E+01   -0.92866E+00  8320   0.795E+01 0.543E+00
CGA:   6    -0.230295201441E+03   -0.44076E+00   -0.44368E+00  8320   0.249E+02-0.183E+00
CGA:   7    -0.230929466049E+03   -0.63426E+00   -0.64190E+00  8320   0.520E+01-0.130E+00
CGA:   8    -0.231175258221E+03   -0.24579E+00   -0.24568E+00  8320   0.724E+01 0.192E-01
CGA:   9    -0.231278597907E+03   -0.10334E+00   -0.91963E-01  8320   0.197E+01 0.750E+00
CGA:  10    -0.231337476245E+03   -0.58878E-01   -0.57838E-01  8320   0.320E+01 0.545E-02
CGA:  11    -0.231399871073E+03   -0.62395E-01   -0.64694E-01  8320   0.182E+01-0.613E-01
CGA:  12    -0.231435655616E+03   -0.35785E-01   -0.36607E-01  8320   0.189E+01-0.205E-01
CGA:  13    -0.231466772370E+03   -0.31117E-01   -0.31578E-01  8320   0.576E+00-0.190E-01
CGA:  14    -0.231477479806E+03   -0.10707E-01   -0.10712E-01  8320   0.679E+00-0.237E-03
CGA:  15    -0.231498634937E+03   -0.21155E-01   -0.21113E-01  8320   0.453E+00-0.161E-02
CGA:  16    -0.231504071422E+03   -0.54365E-02   -0.55349E-02  8320   0.201E+00-0.632E-02
CGA:  17    -0.231512843584E+03   -0.87722E-02   -0.87572E-02  8320   0.376E+00 0.132E-02
CGA:  18    -0.231518108366E+03   -0.52648E-02   -0.52282E-02  8320   0.112E+00 0.191E-02
[...]
CGA:  27    -0.231666081560E+03   -0.22685E-04   -0.22666E-04  8320   0.855E-03 0.827E-06
CGA:  28    -0.231666098795E+03   -0.17235E-04   -0.17252E-04  8320   0.213E-03 0.328E-06
CGA:  29    -0.231666112976E+03   -0.14181E-04   -0.14167E-04  8320   0.170E-03 0.677E-06
CGA:  30    -0.231666117612E+03   -0.46361E-05   -0.46433E-05  8320   0.166E-03 0.264E-06
  94 F= -.23166612E+03 E0= -.23164539E+03  d E =0.118628E-02  mag=    -3.3313
       N       E                     dE             d eps       ncg     rms          ort
SDA:   1    -0.230232387174E+03    0.14337E+01    0.00000E+00  8320   0.102E+03 0.000E+00
CGA:   2    -0.230959757758E+03   -0.72737E+00   -0.14797E+01  8320   0.294E+02-0.512E+02
CGA:   3    -0.231262385422E+03   -0.30263E+00   -0.29861E+00  8320   0.115E+01-0.734E+00
CGA:   4    -0.231478348576E+03   -0.21596E+00   -0.21462E+00  8320   0.469E+01 0.125E-01
CGA:   5    -0.231547357907E+03   -0.69009E-01   -0.67116E-01  8320   0.659E+00 0.915E-01
CGA:   6    -0.231604393209E+03   -0.57035E-01   -0.56522E-01  8320   0.651E+00 0.134E-01
CGA:   7    -0.231623027356E+03   -0.18634E-01   -0.18575E-01  8320   0.817E+00 0.549E-03
CGA:   8    -0.231652298053E+03   -0.29271E-01   -0.29263E-01  8320   0.121E+00-0.149E-03
CGA:   9    -0.231660230139E+03   -0.79321E-02   -0.79405E-02  8320   0.183E+00-0.358E-03
CGA:  10    -0.231663461061E+03   -0.32309E-02   -0.32462E-02  8320   0.693E-01-0.609E-03
CGA:  11    -0.231667229969E+03   -0.37689E-02   -0.37694E-02  8320   0.420E-01-0.341E-04
CGA:  12    -0.231668773880E+03   -0.15439E-02   -0.15445E-02  8320   0.325E-01 0.143E-04
CGA:  13    -0.231669428013E+03   -0.65413E-03   -0.65238E-03  8320   0.174E-01 0.533E-04
CGA:  14    -0.231670504758E+03   -0.10767E-02   -0.10779E-02  8320   0.855E-02-0.560E-04
CGA:  15    -0.231670910338E+03   -0.40558E-03   -0.40558E-03  8320   0.189E-01 0.198E-05
CGA:  16    -0.231671386005E+03   -0.47567E-03   -0.47621E-03  8320   0.260E-02-0.548E-05
CGA:  17    -0.231671614083E+03   -0.22808E-03   -0.22836E-03  8320   0.668E-02-0.656E-05
CGA:  18    -0.231671742547E+03   -0.12846E-03   -0.12850E-03  8320   0.256E-02-0.383E-05
CGA:  19    -0.231671882626E+03   -0.14008E-03   -0.14005E-03  8320   0.183E-02 0.311E-05
CGA:  20    -0.231671955718E+03   -0.73092E-04   -0.73115E-04  8320   0.201E-02 0.218E-05
CGA:  21    -0.231672000347E+03   -0.44629E-04   -0.44642E-04  8320   0.109E-02 0.824E-06
CGA:  22    -0.231672075176E+03   -0.74829E-04   -0.74828E-04  8320   0.652E-03-0.104E-06
CGA:  23    -0.231672096279E+03   -0.21104E-04   -0.21094E-04  8320   0.971E-03-0.636E-06
CGA:  24    -0.231672130042E+03   -0.33763E-04   -0.33749E-04  8320   0.300E-03-0.144E-05
CGA:  25    -0.231672154266E+03   -0.24224E-04   -0.24281E-04  8320   0.627E-03-0.159E-05
CGA:  26    -0.231672164917E+03   -0.10651E-04   -0.10631E-04  8320   0.162E-03-0.930E-06
CGA:  27    -0.231672175405E+03   -0.10487E-04   -0.10508E-04  8320   0.167E-03-0.106E-05
CGA:  28    -0.231672181327E+03   -0.59219E-05   -0.59174E-05  8320   0.168E-03-0.429E-06
  95 F= -.23167218E+03 E0= -.23165146E+03  d E =-.606371E-02  mag=    -3.3257
       N       E                     dE             d eps       ncg     rms          ort
SDA:   1    -0.229915507683E+03    0.17567E+01    0.00000E+00  8320   0.160E+03 0.000E+00
CGA:   2    -0.231090242972E+03   -0.11747E+01   -0.24097E+01  8320   0.507E+02-0.907E+02
CGA:   3    -0.231615709314E+03   -0.52547E+00   -0.52203E+00  8320   0.353E+00-0.301E+01
CGA:   4    -0.231622097896E+03   -0.63886E-02   -0.64129E-02  8320   0.236E+00-0.855E-03
CGA:   5    -0.231639089442E+03   -0.16992E-01   -0.17052E-01  8320   0.433E+00-0.174E-02
CGA:   6    -0.231654877081E+03   -0.15788E-01   -0.15799E-01  8320   0.311E+00 0.785E-03
CGA:   7    -0.231660649369E+03   -0.57723E-02   -0.57550E-02  8320   0.763E-01 0.477E-03
CGA:   8    -0.231664822965E+03   -0.41736E-02   -0.41670E-02  8320   0.934E-01 0.361E-03
CGA:   9    -0.231666902240E+03   -0.20793E-02   -0.20762E-02  8320   0.515E-01 0.507E-04
CGA:  10    -0.231669399001E+03   -0.24968E-02   -0.24971E-02  8320   0.252E-01-0.265E-04
CGA:  11    -0.231669877794E+03   -0.47879E-03   -0.47807E-03  8320   0.133E-01 0.154E-04
CGA:  12    -0.231670698791E+03   -0.82100E-03   -0.82153E-03  8320   0.108E-01-0.222E-04
CGA:  13    -0.231670913399E+03   -0.21461E-03   -0.21417E-03  8320   0.494E-02 0.925E-05
CGA:  14    -0.231671107574E+03   -0.19418E-03   -0.19418E-03  8320   0.348E-02 0.494E-05
CGA:  15    -0.231671222157E+03   -0.11458E-03   -0.11459E-03  8320   0.283E-02 0.114E-05
CGA:  16    -0.231671292487E+03   -0.70330E-04   -0.70359E-04  8320   0.142E-02-0.346E-06
CGA:  17    -0.231671378212E+03   -0.85725E-04   -0.85790E-04  8320   0.193E-02-0.290E-05
CGA:  18    -0.231671414144E+03   -0.35933E-04   -0.35919E-04  8320   0.554E-03-0.995E-06
CGA:  19    -0.231671449242E+03   -0.35098E-04   -0.35061E-04  8320   0.767E-03 0.147E-05
CGA:  20    -0.231671463567E+03   -0.14325E-04   -0.14341E-04  8320   0.244E-03 0.502E-06
CGA:  21    -0.231671481948E+03   -0.18381E-04   -0.18361E-04  8320   0.487E-03 0.571E-06
CGA:  22    -0.231671492447E+03   -0.10500E-04   -0.10507E-04  8320   0.198E-03 0.341E-06
CGA:  23    -0.231671502329E+03   -0.98820E-05   -0.98742E-05  8320   0.208E-03 0.783E-06
  96 F= -.23167150E+03 E0= -.23165079E+03  d E =0.678997E-03  mag=    -3.3271
       N       E                     dE             d eps       ncg     rms          ort
SDA:   1    -0.228046353577E+03    0.36251E+01    0.00000E+00  8320   0.215E+03 0.000E+00
CGA:   2    -0.231587330687E+03   -0.35410E+01   -0.25894E+01  8320   0.102E+01-0.155E+02
CGA:   3    -0.231601890570E+03   -0.14560E-01   -0.14687E-01  8320   0.333E+00-0.626E-02
CGA:   4    -0.231618457248E+03   -0.16567E-01   -0.16606E-01  8320   0.457E+00-0.224E-02
CGA:   5    -0.231641656187E+03   -0.23199E-01   -0.23175E-01  8320   0.561E+00 0.137E-02
CGA:   6    -0.231652276398E+03   -0.10620E-01   -0.10586E-01  8320   0.135E+00 0.654E-03
CGA:   7    -0.231659557623E+03   -0.72812E-02   -0.72789E-02  8320   0.165E+00 0.119E-03
CGA:   8    -0.231663317862E+03   -0.37602E-02   -0.37503E-02  8320   0.100E+00 0.108E-03
CGA:   9    -0.231668176505E+03   -0.48586E-02   -0.48529E-02  8320   0.408E-01 0.374E-03
CGA:  10    -0.231668919067E+03   -0.74256E-03   -0.74162E-03  8320   0.195E-01 0.252E-04
CGA:  11    -0.231670045980E+03   -0.11269E-02   -0.11251E-02  8320   0.218E-01 0.743E-04
CGA:  12    -0.231670647711E+03   -0.60173E-03   -0.60154E-03  8320   0.117E-01-0.124E-05
CGA:  13    -0.231670890408E+03   -0.24270E-03   -0.24269E-03  8320   0.329E-02 0.689E-07
CGA:  14    -0.231671066320E+03   -0.17591E-03   -0.17594E-03  8320   0.458E-02-0.132E-05
CGA:  15    -0.231671165159E+03   -0.98840E-04   -0.98879E-04  8320   0.205E-02 0.182E-06
CGA:  16    -0.231671313504E+03   -0.14834E-03   -0.14822E-03  8320   0.261E-02 0.337E-05
CGA:  17    -0.231671356221E+03   -0.42717E-04   -0.42745E-04  8320   0.591E-03-0.379E-07
CGA:  18    -0.231671394667E+03   -0.38446E-04   -0.38473E-04  8320   0.941E-03-0.970E-06
CGA:  19    -0.231671415445E+03   -0.20778E-04   -0.20776E-04  8320   0.464E-03-0.242E-06
CGA:  20    -0.231671438875E+03   -0.23430E-04   -0.23419E-04  8320   0.484E-03 0.926E-06
CGA:  21    -0.231671453139E+03   -0.14264E-04   -0.14271E-04  8320   0.366E-03 0.646E-06
CGA:  22    -0.231671462928E+03   -0.97887E-05   -0.97908E-05  8320   0.150E-03 0.223E-06
  97 F= -.23167146E+03 E0= -.23165075E+03  d E =0.394014E-04  mag=    -3.3256
       N       E                     dE             d eps       ncg     rms          ort
SDA:   1    -0.231596227895E+03    0.75225E-01    0.00000E+00  8320   0.302E+01 0.000E+00
CGA:   2    -0.231626137213E+03   -0.29909E-01   -0.30941E-01  8320   0.182E+00-0.918E-01
CGA:   3    -0.231639675567E+03   -0.13538E-01   -0.13546E-01  8320   0.328E+00-0.167E-03
CGA:   4    -0.231649500639E+03   -0.98251E-02   -0.98367E-02  8320   0.312E+00 0.254E-03
CGA:   5    -0.231657700341E+03   -0.81997E-02   -0.81842E-02  8320   0.908E-01-0.793E-04
CGA:   6    -0.231662555264E+03   -0.48549E-02   -0.48564E-02  8320   0.104E+00-0.721E-04
CGA:   7    -0.231664882996E+03   -0.23277E-02   -0.23244E-02  8320   0.732E-01 0.488E-04
CGA:   8    -0.231668945709E+03   -0.40627E-02   -0.40591E-02  8320   0.243E-01 0.172E-03
CGA:   9    -0.231669545425E+03   -0.59972E-03   -0.59949E-03  8320   0.243E-01 0.669E-05
CGA:  10    -0.231670538513E+03   -0.99309E-03   -0.99298E-03  8320   0.698E-02 0.279E-04
CGA:  11    -0.231670808486E+03   -0.26997E-03   -0.26997E-03  8320   0.103E-01-0.185E-05
CGA:  12    -0.231671088059E+03   -0.27957E-03   -0.27956E-03  8320   0.395E-02 0.133E-06
CGA:  13    -0.231671239189E+03   -0.15113E-03   -0.15113E-03  8320   0.218E-02-0.560E-06
CGA:  14    -0.231671296073E+03   -0.56884E-04   -0.56904E-04  8320   0.200E-02 0.730E-06
CGA:  15    -0.231671371524E+03   -0.75451E-04   -0.75451E-04  8320   0.830E-03 0.725E-06
CGA:  16    -0.231671416120E+03   -0.44596E-04   -0.44617E-04  8320   0.175E-02-0.133E-05
CGA:  17    -0.231671455345E+03   -0.39225E-04   -0.39189E-04  8320   0.268E-03-0.131E-05
CGA:  18    -0.231671472636E+03   -0.17291E-04   -0.17293E-04  8320   0.654E-03-0.649E-07
CGA:  19    -0.231671488539E+03   -0.15903E-04   -0.15902E-04  8320   0.261E-03 0.236E-07
CGA:  20    -0.231671500603E+03   -0.12064E-04   -0.12066E-04  8320   0.207E-03-0.248E-06
CGA:  21    -0.231671506764E+03   -0.61606E-05   -0.61586E-05  8320   0.215E-03-0.210E-06
  98 F= -.23167151E+03 E0= -.23165080E+03  d E =-.438357E-04  mag=    -3.3286
       N       E                     dE             d eps       ncg     rms          ort
SDA:   1    -0.231635432840E+03    0.36068E-01    0.00000E+00  8320   0.532E+00 0.000E+00
CGA:   2    -0.231641697975E+03   -0.62651E-02   -0.63545E-02  8320   0.118E+00-0.593E-02
CGA:   3    -0.231649853238E+03   -0.81553E-02   -0.81769E-02  8320   0.181E+00-0.612E-03
CGA:   4    -0.231662413764E+03   -0.12561E-01   -0.12555E-01  8320   0.106E+00 0.174E-03
CGA:   5    -0.231664900753E+03   -0.24870E-02   -0.24818E-02  8320   0.884E-01 0.643E-04
CGA:   6    -0.231667381549E+03   -0.24808E-02   -0.24815E-02  8320   0.273E-01 0.106E-04
CGA:   7    -0.231670242359E+03   -0.28608E-02   -0.28598E-02  8320   0.146E-01 0.188E-04
CGA:   8    -0.231670497700E+03   -0.25534E-03   -0.25563E-03  8320   0.889E-02-0.149E-04
CGA:   9    -0.231670960618E+03   -0.46292E-03   -0.46318E-03  8320   0.367E-02-0.177E-04
CGA:  10    -0.231671135231E+03   -0.17461E-03   -0.17462E-03  8320   0.377E-02-0.127E-05
CGA:  11    -0.231671227675E+03   -0.92444E-04   -0.92400E-04  8320   0.293E-02 0.193E-06
CGA:  12    -0.231671319217E+03   -0.91542E-04   -0.91561E-04  8320   0.601E-03 0.739E-06
CGA:  13    -0.231671364330E+03   -0.45113E-04   -0.45092E-04  8320   0.109E-02 0.617E-06
CGA:  14    -0.231671384195E+03   -0.19865E-04   -0.19877E-04  8320   0.461E-03 0.740E-07
CGA:  15    -0.231671414679E+03   -0.30484E-04   -0.30482E-04  8320   0.174E-03 0.848E-07
CGA:  16    -0.231671420528E+03   -0.58485E-05   -0.58517E-05  8320   0.248E-03 0.358E-06
  99 F= -.23167142E+03 E0= -.23165070E+03  d E =0.862358E-04  mag=    -3.3285
       N       E                     dE             d eps       ncg     rms          ort
SDA:   1    -0.230103732859E+03    0.15677E+01    0.00000E+00  8320   0.111E+03 0.000E+00
CGA:   2    -0.231122582591E+03   -0.10188E+01   -0.14421E+01  8320   0.164E+02-0.411E+02
CGA:   3    -0.231310688714E+03   -0.18811E+00   -0.18096E+00  8320   0.967E+00 0.179E+00
CGA:   4    -0.231421085351E+03   -0.11040E+00   -0.10948E+00  8320   0.585E+01 0.162E-01
CGA:   5    -0.231579792052E+03   -0.15871E+00   -0.15803E+00  8320   0.661E+00 0.237E-02
CGA:   6    -0.231605040115E+03   -0.25248E-01   -0.25267E-01  8320   0.801E+00 0.245E-02
CGA:   7    -0.231626813866E+03   -0.21774E-01   -0.21734E-01  8320   0.519E+00-0.217E-03
CGA:   8    -0.231649003621E+03   -0.22190E-01   -0.22187E-01  8320   0.250E+00 0.574E-03
CGA:   9    -0.231655243164E+03   -0.62395E-02   -0.62180E-02  8320   0.174E+00 0.161E-03
CGA:  10    -0.231659805828E+03   -0.45627E-02   -0.45746E-02  8320   0.542E-01-0.238E-04
CGA:  11    -0.231663363388E+03   -0.35576E-02   -0.35624E-02  8320   0.112E+00-0.163E-03
CGA:  12    -0.231665449046E+03   -0.20857E-02   -0.20885E-02  8320   0.194E-01-0.932E-04
CGA:  13    -0.231666597010E+03   -0.11480E-02   -0.11484E-02  8320   0.245E-01-0.181E-04
CGA:  14    -0.231667043583E+03   -0.44657E-03   -0.44719E-03  8320   0.878E-02-0.177E-04
CGA:  15    -0.231667655848E+03   -0.61226E-03   -0.61273E-03  8320   0.117E-01-0.141E-04
CGA:  16    -0.231667943489E+03   -0.28764E-03   -0.28780E-03  8320   0.727E-02 0.702E-06
CGA:  17    -0.231668140074E+03   -0.19658E-03   -0.19658E-03  8320   0.276E-02 0.184E-05
CGA:  18    -0.231668294857E+03   -0.15478E-03   -0.15472E-03  8320   0.422E-02 0.316E-05
CGA:  19    -0.231668378830E+03   -0.83974E-04   -0.83932E-04  8320   0.143E-02 0.227E-05
CGA:  20    -0.231668498247E+03   -0.11942E-03   -0.11939E-03  8320   0.240E-02 0.704E-06
CGA:  21    -0.231668542529E+03   -0.44282E-04   -0.44281E-04  8320   0.937E-03 0.170E-05
CGA:  22    -0.231668597591E+03   -0.55062E-04   -0.54984E-04  8320   0.713E-03 0.406E-05
CGA:  23    -0.231668614611E+03   -0.17020E-04   -0.17036E-04  8320   0.605E-03 0.105E-05
CGA:  24    -0.231668647191E+03   -0.32580E-04   -0.32562E-04  8320   0.630E-03 0.136E-05
CGA:  25    -0.231668672623E+03   -0.25432E-04   -0.25432E-04  8320   0.593E-03 0.692E-06
CGA:  26    -0.231668684686E+03   -0.12064E-04   -0.12074E-04  8320   0.208E-03 0.473E-06
CGA:  27    -0.231668696589E+03   -0.11902E-04   -0.11885E-04  8320   0.211E-03 0.101E-05
CGA:  28    -0.231668701682E+03   -0.50930E-05   -0.51014E-05  8320   0.183E-03 0.453E-06
CGA:  29    -0.231668713962E+03   -0.12280E-04   -0.12248E-04  8320   0.108E-03 0.118E-05
CGA:  30    -0.231668716229E+03   -0.22672E-05   -0.22700E-05  8320   0.765E-04 0.128E-06
 100 F= -.23166872E+03 E0= -.23164794E+03  d E =0.270430E-02  mag=    -3.3300
       N       E                     dE             d eps       ncg     rms          ort
SDA:   1    -0.231559992694E+03    0.10872E+00    0.00000E+00  8320   0.550E+00 0.000E+00
CGA:   2    -0.231574886997E+03   -0.14894E-01   -0.14849E-01  8320   0.662E+00-0.170E-03
CGA:   3    -0.231600262741E+03   -0.25376E-01   -0.25380E-01  8320   0.748E+00 0.108E-02
CGA:   4    -0.231642372276E+03   -0.42110E-01   -0.42210E-01  8320   0.157E+00-0.480E-02
CGA:   5    -0.231656150114E+03   -0.13778E-01   -0.13765E-01  8320   0.267E+00 0.283E-03
CGA:   6    -0.231660547850E+03   -0.43977E-02   -0.44146E-02  8320   0.114E+00-0.724E-03
CGA:   7    -0.231666635960E+03   -0.60881E-02   -0.60910E-02  8320   0.323E-01-0.179E-03
CGA:   8    -0.231668139434E+03   -0.15035E-02   -0.15039E-02  8320   0.197E-01-0.595E-04
CGA:   9    -0.231669708141E+03   -0.15687E-02   -0.15670E-02  8320   0.130E-01 0.446E-04
CGA:  10    -0.231669915620E+03   -0.20748E-03   -0.20786E-03  8320   0.624E-02-0.145E-04
CGA:  11    -0.231670267039E+03   -0.35142E-03   -0.35151E-03  8320   0.310E-02-0.462E-05
CGA:  12    -0.231670488015E+03   -0.22098E-03   -0.22098E-03  8320   0.301E-02-0.453E-06
CGA:  13    -0.231670572606E+03   -0.84591E-04   -0.84573E-04  8320   0.283E-02-0.484E-06
CGA:  14    -0.231670638505E+03   -0.65899E-04   -0.65935E-04  8320   0.812E-03-0.876E-06
CGA:  15    -0.231670691721E+03   -0.53215E-04   -0.53187E-04  8320   0.476E-03 0.124E-05
CGA:  16    -0.231670723419E+03   -0.31698E-04   -0.31697E-04  8320   0.127E-02 0.422E-07
CGA:  17    -0.231670748376E+03   -0.24957E-04   -0.24950E-04  8320   0.226E-03 0.261E-06
CGA:  18    -0.231670761917E+03   -0.13541E-04   -0.13540E-04  8320   0.186E-03 0.338E-07
CGA:  19    -0.231670772135E+03   -0.10219E-04   -0.10221E-04  8320   0.205E-03-0.152E-06
CGA:  20    -0.231670776323E+03   -0.41880E-05   -0.41861E-05  8320   0.144E-03-0.153E-06
CGA:  21    -0.231670786443E+03   -0.10120E-04   -0.10128E-04  8320   0.547E-04-0.338E-06
CGA:  22    -0.231670790137E+03   -0.36942E-05   -0.36911E-05  8320   0.945E-04 0.138E-06
 101 F= -.23167079E+03 E0= -.23165005E+03  d E =-.207391E-02  mag=    -3.3318
       N       E                     dE             d eps       ncg     rms          ort
SDA:   1    -0.229018397141E+03    0.26524E+01    0.00000E+00  8320   0.236E+03 0.000E+00
CGA:   2    -0.230535016638E+03   -0.15166E+01   -0.38515E+01  8320   0.987E+02-0.151E+03
CGA:   3    -0.231623721817E+03   -0.10887E+01   -0.11110E+01  8320   0.214E+01-0.153E+02
CGA:   4    -0.231645090719E+03   -0.21369E-01   -0.21823E-01  8320   0.886E-01-0.345E-01
CGA:   5    -0.231651278842E+03   -0.61881E-02   -0.62043E-02  8320   0.225E+00-0.485E-03
CGA:   6    -0.231658156652E+03   -0.68778E-02   -0.68892E-02  8320   0.195E+00 0.102E-03
CGA:   7    -0.231663662521E+03   -0.55059E-02   -0.55002E-02  8320   0.372E-01-0.196E-04
CGA:   8    -0.231665553670E+03   -0.18911E-02   -0.18899E-02  8320   0.785E-01 0.879E-04
CGA:   9    -0.231667578978E+03   -0.20253E-02   -0.20227E-02  8320   0.277E-01 0.203E-04
CGA:  10    -0.231669108888E+03   -0.15299E-02   -0.15299E-02  8320   0.202E-01 0.266E-05
CGA:  11    -0.231669437735E+03   -0.32885E-03   -0.32837E-03  8320   0.714E-02 0.236E-04
CGA:  12    -0.231670094801E+03   -0.65707E-03   -0.65667E-03  8320   0.722E-02 0.799E-05
CGA:  13    -0.231670210352E+03   -0.11555E-03   -0.11541E-03  8320   0.246E-02 0.800E-05
CGA:  14    -0.231670346360E+03   -0.13601E-03   -0.13595E-03  8320   0.137E-02 0.339E-05
CGA:  15    -0.231670383943E+03   -0.37583E-04   -0.37569E-04  8320   0.170E-02-0.461E-06
CGA:  16    -0.231670482274E+03   -0.98332E-04   -0.98384E-04  8320   0.853E-03-0.317E-05
CGA:  17    -0.231670506060E+03   -0.23785E-04   -0.23779E-04  8320   0.714E-03-0.227E-06
CGA:  18    -0.231670526320E+03   -0.20260E-04   -0.20265E-04  8320   0.411E-03 0.242E-06
CGA:  19    -0.231670545359E+03   -0.19039E-04   -0.19036E-04  8320   0.291E-03 0.526E-06
CGA:  20    -0.231670553451E+03   -0.80920E-05   -0.80916E-05  8320   0.343E-03-0.104E-06
CGA:  21    -0.231670572672E+03   -0.19221E-04   -0.19232E-04  8320   0.129E-03-0.670E-06
CGA:  22    -0.231670576048E+03   -0.33764E-05   -0.33788E-05  8320   0.137E-03 0.151E-06
 102 F= -.23167058E+03 E0= -.23164987E+03  d E =0.214089E-03  mag=    -3.3351
       N       E                     dE             d eps       ncg     rms          ort
SDA:   1    -0.231607896963E+03    0.62676E-01    0.00000E+00  8320   0.567E+00 0.000E+00
CGA:   2    -0.231615655138E+03   -0.77582E-02   -0.76903E-02  8320   0.224E+00 0.352E-02
CGA:   3    -0.231633301189E+03   -0.17646E-01   -0.17758E-01  8320   0.267E+00-0.271E-02
CGA:   4    -0.231660250295E+03   -0.26949E-01   -0.26900E-01  8320   0.200E+00 0.905E-03
CGA:   5    -0.231662747457E+03   -0.24972E-02   -0.24745E-02  8320   0.438E-01 0.144E-02
CGA:   6    -0.231666914487E+03   -0.41670E-02   -0.41692E-02  8320   0.294E-01-0.446E-04
CGA:   7    -0.231668417086E+03   -0.15026E-02   -0.15026E-02  8320   0.181E-01-0.326E-05
CGA:   8    -0.231669074000E+03   -0.65691E-03   -0.65668E-03  8320   0.161E-01-0.521E-05
CGA:   9    -0.231669341347E+03   -0.26735E-03   -0.26762E-03  8320   0.411E-02-0.110E-04
CGA:  10    -0.231669717761E+03   -0.37641E-03   -0.37639E-03  8320   0.189E-02 0.595E-06
CGA:  11    -0.231669864224E+03   -0.14646E-03   -0.14649E-03  8320   0.104E-02-0.926E-06
CGA:  12    -0.231669905563E+03   -0.41339E-04   -0.41338E-04  8320   0.167E-02-0.441E-07
CGA:  13    -0.231669944496E+03   -0.38933E-04   -0.38946E-04  8320   0.588E-03-0.115E-06
CGA:  14    -0.231669974361E+03   -0.29865E-04   -0.29861E-04  8320   0.328E-03 0.742E-06
CGA:  15    -0.231669994172E+03   -0.19811E-04   -0.19807E-04  8320   0.137E-03 0.279E-06
CGA:  16    -0.231669999219E+03   -0.50470E-05   -0.50457E-05  8320   0.265E-03-0.103E-06
 103 F= -.23167000E+03 E0= -.23164930E+03  d E =0.576829E-03  mag=    -3.3381
