       N       E                     dE             d eps       ncg     rms          rms(c)
DAV:   1     0.826871331893E+04    0.82687E+04   -0.33277E+05 31696   0.166E+03
DAV:   2     0.600712040229E+03   -0.76680E+04   -0.71312E+04 31280   0.497E+02
DAV:   3    -0.432392306866E+03   -0.10331E+04   -0.10110E+04 32512   0.193E+02
DAV:   4    -0.479976051581E+03   -0.47584E+02   -0.47005E+02 39120   0.377E+01
DAV:   5    -0.482016741596E+03   -0.20407E+01   -0.20100E+01 50208   0.628E+00    0.735E+01
DAV:   6    -0.439382163759E+03    0.42635E+02   -0.37353E+02 35504   0.399E+01    0.636E+01
DAV:   7    -0.437493588173E+03    0.18886E+01   -0.40695E+01 33136   0.173E+01    0.429E+01
DAV:   8    -0.439107084240E+03   -0.16135E+01   -0.65839E+00 38944   0.727E+00    0.280E+01
DAV:   9    -0.442440012732E+03   -0.33329E+01   -0.90151E+00 35904   0.688E+00    0.200E+01
DAV:  10    -0.443021829440E+03   -0.58182E+00   -0.51447E+00 34864   0.546E+00    0.900E+00
DAV:  11    -0.442998062161E+03    0.23767E-01   -0.16937E+00 34672   0.302E+00    0.483E+00
DAV:  12    -0.442996695378E+03    0.13668E-02   -0.27544E-01 33824   0.144E+00    0.127E+00
DAV:  13    -0.443005149949E+03   -0.84546E-02   -0.67002E-02 38384   0.601E-01    0.131E+00
DAV:  14    -0.443006110380E+03   -0.96043E-03   -0.27098E-02 34080   0.395E-01    0.565E-01
DAV:  15    -0.443008920108E+03   -0.28097E-02   -0.72278E-03 35824   0.196E-01    0.447E-01
DAV:  16    -0.443010412843E+03   -0.14927E-02   -0.32505E-03 33424   0.150E-01    0.226E-01
DAV:  17    -0.443011068552E+03   -0.65571E-03   -0.15659E-03 33696   0.911E-02    0.117E-01
DAV:  18    -0.443011161909E+03   -0.93357E-04   -0.38501E-04 35680   0.525E-02    0.613E-02
DAV:  19    -0.443011194659E+03   -0.32750E-04   -0.89443E-05 31808   0.239E-02    0.377E-02
DAV:  20    -0.443011207623E+03   -0.12964E-04   -0.39556E-05 25664   0.166E-02    0.201E-02
DAV:  21    -0.443011209360E+03   -0.17369E-05   -0.14468E-05 22144   0.109E-02
   1 F= -.44301121E+03 E0= -.44300039E+03  d E =-.443011E+03  mag=    78.0019
