       N       E                     dE             d eps       ncg     rms          ort
DAV:   1     0.603428929332E+04    0.60343E+04   -0.32398E+05  8320   0.182E+03
DAV:   2     0.339602422812E+03   -0.56947E+04   -0.54340E+04  8320   0.518E+02
DAV:   3    -0.216612415087E+03   -0.55621E+03   -0.53436E+03  8320   0.179E+02
DAV:   4    -0.232299284459E+03   -0.15687E+02   -0.15602E+02  8320   0.322E+01
DAV:   5    -0.232673807477E+03   -0.37452E+00   -0.37269E+00  8320   0.405E+00
SDA:   6    -0.229271169865E+03    0.34026E+01   -0.37269E+00  8320   0.202E+02 0.000E+00
CGA:   7    -0.229518936291E+03   -0.24777E+00   -0.12507E+00  8320   0.185E+02 0.206E+02
CGA:   8    -0.229846636930E+03   -0.32770E+00   -0.13921E+00  8320   0.226E+02 0.263E+02
CGA:   9    -0.230590131678E+03   -0.74349E+00   -0.32893E+00  8320   0.121E+02 0.225E+02
CGA:  10    -0.230863124442E+03   -0.27299E+00   -0.18032E+00  8320   0.236E+01 0.545E+01
CGA:  11    -0.230916703962E+03   -0.53580E-01   -0.39294E-01  8320   0.751E+00 0.114E+01
CGA:  12    -0.230945106305E+03   -0.28402E-01   -0.22200E-01  8320   0.970E+00 0.288E+00
CGA:  13    -0.230981093134E+03   -0.35987E-01   -0.30263E-01  8320   0.122E+01 0.236E+00
CGA:  14    -0.231002807888E+03   -0.21715E-01   -0.22977E-01  8320   0.482E+00-0.722E-01
CGA:  15    -0.231008929772E+03   -0.61219E-02   -0.68754E-02  8320   0.358E+00-0.457E-01
CGA:  16    -0.231017089084E+03   -0.81593E-02   -0.80936E-02  8320   0.608E+00 0.277E-02
CGA:  17    -0.231032323494E+03   -0.15234E-01   -0.15373E-01  8320   0.610E+00-0.391E-02
CGA:  18    -0.231042355657E+03   -0.10032E-01   -0.89015E-02  8320   0.390E+00 0.726E-01
CGA:  19    -0.231051056971E+03   -0.87013E-02   -0.77398E-02  8320   0.370E+00 0.501E-01
CGA:  20    -0.231058803699E+03   -0.77467E-02   -0.73490E-02  8320   0.218E+00 0.211E-01
CGA:  21    -0.231061689883E+03   -0.28862E-02   -0.28973E-02  8320   0.794E-01-0.443E-03
CGA:  22    -0.231063196912E+03   -0.15070E-02   -0.15423E-02  8320   0.981E-01-0.162E-02
CGA:  23    -0.231066644415E+03   -0.34475E-02   -0.34659E-02  8320   0.218E+00-0.396E-03
CGA:  24    -0.231071036787E+03   -0.43924E-02   -0.42757E-02  8320   0.142E+00 0.509E-02
CGA:  25    -0.231073439904E+03   -0.24031E-02   -0.23018E-02  8320   0.105E+00 0.565E-02
CGA:  26    -0.231076098341E+03   -0.26584E-02   -0.26348E-02  8320   0.123E+00 0.728E-03
CGA:  27    -0.231078014905E+03   -0.19166E-02   -0.19252E-02  8320   0.490E-01-0.514E-03
CGA:  28    -0.231078662279E+03   -0.64737E-03   -0.66183E-03  8320   0.269E-01-0.999E-03
CGA:  29    -0.231079442096E+03   -0.77982E-03   -0.78291E-03  8320   0.594E-01-0.956E-04
CGA:  30    -0.231081265109E+03   -0.18230E-02   -0.18240E-02  8320   0.744E-01-0.601E-04
CGA:  31    -0.231082308186E+03   -0.10431E-02   -0.98824E-03  8320   0.293E-01 0.362E-02
CGA:  32    -0.231082824071E+03   -0.51589E-03   -0.50408E-03  8320   0.265E-01 0.581E-03
CGA:  33    -0.231083476820E+03   -0.65275E-03   -0.64830E-03  8320   0.321E-01 0.935E-04
CGA:  34    -0.231083944406E+03   -0.46759E-03   -0.47473E-03  8320   0.147E-01-0.484E-03
CGA:  35    -0.231084164393E+03   -0.21999E-03   -0.22190E-03  8320   0.126E-01-0.148E-03
CGA:  36    -0.231084538416E+03   -0.37402E-03   -0.37398E-03  8320   0.266E-01-0.338E-04
CGA:  37    -0.231085084609E+03   -0.54619E-03   -0.54427E-03  8320   0.180E-01-0.164E-05
CGA:  38    -0.231085300738E+03   -0.21613E-03   -0.21257E-03  8320   0.641E-02 0.218E-03
CGA:  39    -0.231085410636E+03   -0.10990E-03   -0.10929E-03  8320   0.612E-02 0.141E-04
SDA:  40    -0.231085551648E+03   -0.14101E-03   -0.14056E-03  8320   0.679E-02-0.265E-05
CGA:  41    -0.231085708671E+03   -0.15702E-03   -0.15779E-03  8320   0.245E-02-0.238E-04
CGA:  42    -0.231086001755E+03   -0.29308E-03   -0.29289E-03  8320   0.244E-02 0.226E-05
CGA:  43    -0.231086203608E+03   -0.20185E-03   -0.20199E-03  8320   0.958E-03-0.499E-05
CGA:  44    -0.231086293173E+03   -0.89565E-04   -0.89945E-04  8320   0.166E-02-0.990E-05
CGA:  45    -0.231086357442E+03   -0.64269E-04   -0.64191E-04  8320   0.105E-02-0.880E-05
CGA:  46    -0.231086446996E+03   -0.89555E-04   -0.89919E-04  8320   0.350E-03-0.123E-04
CGA:  47    -0.231086516788E+03   -0.69792E-04   -0.70564E-04  8320   0.582E-03-0.552E-05
CGA:  48    -0.231086567567E+03   -0.50779E-04   -0.50773E-04  8320   0.559E-03-0.154E-06
CGA:  49    -0.231086583278E+03   -0.15711E-04   -0.15721E-04  8320   0.185E-03-0.653E-06
CGA:  50    -0.231086602090E+03   -0.18812E-04   -0.18719E-04  8320   0.190E-03 0.230E-05
CGA:  51    -0.231086622797E+03   -0.20707E-04   -0.20565E-04  8320   0.956E-04 0.332E-05
CGA:  52    -0.231086630456E+03   -0.76588E-05   -0.76364E-05  8320   0.207E-03 0.193E-05
CGA:  53    -0.231086640522E+03   -0.10066E-04   -0.10101E-04  8320   0.646E-04 0.189E-05
CGA:  54    -0.231086649045E+03   -0.85227E-05   -0.84440E-05  8320   0.537E-04 0.114E-05
   1 F= -.23108665E+03 E0= -.23106976E+03  d E =-.231087E+03  mag=     9.0608
       N       E                     dE             d eps       ncg     rms          ort
SDA:   1    -0.230333828628E+03    0.75281E+00    0.00000E+00  8320   0.303E+02 0.000E+00
CGA:   2    -0.230729030468E+03   -0.39520E+00   -0.72167E+00  8320   0.756E+01-0.104E+02
CGA:   3    -0.230940619838E+03   -0.21159E+00   -0.19879E+00  8320   0.889E+00 0.126E+00
CGA:   4    -0.230986481537E+03   -0.45862E-01   -0.46391E-01  8320   0.913E+00 0.610E-02
CGA:   5    -0.231037413449E+03   -0.50932E-01   -0.50528E-01  8320   0.298E+00-0.120E-01
CGA:   6    -0.231050498516E+03   -0.13085E-01   -0.13218E-01  8320   0.243E+00-0.287E-03
CGA:   7    -0.231068513565E+03   -0.18015E-01   -0.18041E-01  8320   0.164E+00-0.197E-02
CGA:   8    -0.231074488784E+03   -0.59752E-02   -0.60418E-02  8320   0.730E-01-0.793E-03
CGA:   9    -0.231080022262E+03   -0.55335E-02   -0.55439E-02  8320   0.854E-01-0.526E-03
CGA:  10    -0.231083960942E+03   -0.39387E-02   -0.39567E-02  8320   0.373E-01 0.207E-03
CGA:  11    -0.231085710957E+03   -0.17500E-02   -0.17494E-02  8320   0.194E-01 0.355E-04
CGA:  12    -0.231086742741E+03   -0.10318E-02   -0.10332E-02  8320   0.156E-01 0.501E-04
CGA:  13    -0.231087768770E+03   -0.10260E-02   -0.10264E-02  8320   0.127E-01-0.706E-04
CGA:  14    -0.231088353320E+03   -0.58455E-03   -0.58465E-03  8320   0.638E-02-0.273E-04
CGA:  15    -0.231088686261E+03   -0.33294E-03   -0.33245E-03  8320   0.411E-02-0.340E-04
CGA:  16    -0.231088914019E+03   -0.22776E-03   -0.22775E-03  8320   0.310E-02-0.126E-04
CGA:  17    -0.231089077527E+03   -0.16351E-03   -0.16343E-03  8320   0.176E-02-0.971E-05
CGA:  18    -0.231089175493E+03   -0.97965E-04   -0.97986E-04  8320   0.161E-02 0.944E-06
CGA:  19    -0.231089275114E+03   -0.99621E-04   -0.99611E-04  8320   0.905E-03 0.535E-05
CGA:  20    -0.231089312651E+03   -0.37537E-04   -0.37640E-04  8320   0.488E-03 0.353E-05
CGA:  21    -0.231089347971E+03   -0.35320E-04   -0.35221E-04  8320   0.435E-03 0.707E-05
CGA:  22    -0.231089366666E+03   -0.18695E-04   -0.18769E-04  8320   0.195E-03 0.329E-05
CGA:  23    -0.231089379371E+03   -0.12705E-04   -0.12688E-04  8320   0.174E-03 0.262E-05
CGA:  24    -0.231089387444E+03   -0.80729E-05   -0.80848E-05  8320   0.750E-04 0.435E-06
   2 F= -.23108939E+03 E0= -.23107235E+03  d E =-.273840E-02  mag=     9.0767
       N       E                     dE             d eps       ncg     rms          ort
SDA:   1    -0.231055212826E+03    0.34167E-01    0.00000E+00  8320   0.151E+01 0.000E+00
CGA:   2    -0.231081221535E+03   -0.26009E-01   -0.23393E-01  8320   0.507E-01 0.140E+00
CGA:   3    -0.231083792885E+03   -0.25713E-02   -0.25670E-02  8320   0.815E-01 0.423E-04
CGA:   4    -0.231086873460E+03   -0.30806E-02   -0.30934E-02  8320   0.190E-01 0.423E-03
CGA:   5    -0.231087373468E+03   -0.50001E-03   -0.50634E-03  8320   0.148E-01 0.404E-04
CGA:   6    -0.231088285873E+03   -0.91240E-03   -0.91014E-03  8320   0.103E-01 0.283E-03
CGA:   7    -0.231088563538E+03   -0.27767E-03   -0.27851E-03  8320   0.691E-02 0.924E-04
CGA:   8    -0.231088971436E+03   -0.40790E-03   -0.40758E-03  8320   0.418E-02 0.610E-04
CGA:   9    -0.231089072532E+03   -0.10110E-03   -0.10136E-03  8320   0.244E-02-0.369E-05
CGA:  10    -0.231089294373E+03   -0.22184E-03   -0.22315E-03  8320   0.328E-02-0.333E-04
CGA:  11    -0.231089361579E+03   -0.67206E-04   -0.66756E-04  8320   0.869E-03-0.342E-05
CGA:  12    -0.231089411604E+03   -0.50025E-04   -0.50036E-04  8320   0.940E-03-0.172E-05
CGA:  13    -0.231089434311E+03   -0.22707E-04   -0.22747E-04  8320   0.375E-03 0.114E-05
CGA:  14    -0.231089466912E+03   -0.32601E-04   -0.32193E-04  8320   0.800E-03 0.114E-04
CGA:  15    -0.231089487267E+03   -0.20354E-04   -0.20580E-04  8320   0.165E-03 0.862E-05
CGA:  16    -0.231089495428E+03   -0.81611E-05   -0.81679E-05  8320   0.159E-03 0.327E-05
   3 F= -.23108950E+03 E0= -.23107250E+03  d E =-.284638E-02  mag=     9.0744
       N       E                     dE             d eps       ncg     rms          ort
SDA:   1    -0.231084055339E+03    0.54319E-02    0.00000E+00  8320   0.911E-01 0.000E+00
CGA:   2    -0.231087090369E+03   -0.30350E-02   -0.30215E-02  8320   0.270E-01 0.120E-03
CGA:   3    -0.231087932749E+03   -0.84238E-03   -0.84934E-03  8320   0.115E-01 0.931E-04
CGA:   4    -0.231088871281E+03   -0.93853E-03   -0.92970E-03  8320   0.230E-02 0.280E-03
CGA:   5    -0.231089145512E+03   -0.27423E-03   -0.26443E-03  8320   0.258E-02 0.157E-03
CGA:   6    -0.231089230971E+03   -0.85459E-04   -0.86298E-04  8320   0.129E-02 0.445E-04
CGA:   7    -0.231089343005E+03   -0.11203E-03   -0.11092E-03  8320   0.616E-03 0.338E-04
CGA:   8    -0.231089390831E+03   -0.47827E-04   -0.47924E-04  8320   0.806E-03-0.424E-05
CGA:   9    -0.231089421902E+03   -0.31070E-04   -0.30975E-04  8320   0.368E-03-0.645E-05
CGA:  10    -0.231089442840E+03   -0.20938E-04   -0.20944E-04  8320   0.113E-03-0.153E-05
CGA:  11    -0.231089455405E+03   -0.12565E-04   -0.12143E-04  8320   0.207E-03 0.786E-05
CGA:  12    -0.231089462623E+03   -0.72176E-05   -0.73594E-05  8320   0.595E-04 0.614E-05
   4 F= -.23108946E+03 E0= -.23107248E+03  d E =-.281358E-02  mag=     9.0732
       N       E                     dE             d eps       ncg     rms          ort
SDA:   1    -0.230996956984E+03    0.92498E-01    0.00000E+00  8320   0.148E+01 0.000E+00
CGA:   2    -0.231023094967E+03   -0.26138E-01   -0.28703E-01  8320   0.238E+00-0.975E-01
CGA:   3    -0.231057644444E+03   -0.34549E-01   -0.35030E-01  8320   0.460E+00-0.528E-02
CGA:   4    -0.231071404639E+03   -0.13760E-01   -0.14031E-01  8320   0.138E+00-0.448E-02
CGA:   5    -0.231079904362E+03   -0.84997E-02   -0.85071E-02  8320   0.991E-01-0.125E-02
CGA:   6    -0.231085284767E+03   -0.53804E-02   -0.53851E-02  8320   0.711E-01 0.470E-03
CGA:   7    -0.231087842073E+03   -0.25573E-02   -0.25440E-02  8320   0.169E-01 0.992E-04
CGA:   8    -0.231089252039E+03   -0.14100E-02   -0.14059E-02  8320   0.237E-01 0.139E-03
CGA:   9    -0.231090064560E+03   -0.81252E-03   -0.81044E-03  8320   0.345E-02 0.705E-04
CGA:  10    -0.231090318532E+03   -0.25397E-03   -0.25386E-03  8320   0.554E-02 0.473E-05
CGA:  11    -0.231090583623E+03   -0.26509E-03   -0.26496E-03  8320   0.179E-02-0.517E-05
CGA:  12    -0.231090700417E+03   -0.11679E-03   -0.11681E-03  8320   0.185E-02-0.300E-05
CGA:  13    -0.231090768920E+03   -0.68503E-04   -0.68439E-04  8320   0.457E-03-0.608E-06
CGA:  14    -0.231090809502E+03   -0.40582E-04   -0.40570E-04  8320   0.887E-03 0.292E-06
CGA:  15    -0.231090851149E+03   -0.41648E-04   -0.41662E-04  8320   0.293E-03 0.162E-05
CGA:  16    -0.231090867353E+03   -0.16203E-04   -0.16203E-04  8320   0.221E-03-0.286E-06
CGA:  17    -0.231090877856E+03   -0.10503E-04   -0.10503E-04  8320   0.153E-03-0.239E-07
CGA:  18    -0.231090888933E+03   -0.11077E-04   -0.11094E-04  8320   0.118E-03-0.118E-05
CGA:  19    -0.231090894109E+03   -0.51760E-05   -0.51744E-05  8320   0.715E-04-0.121E-06
   5 F= -.23109089E+03 E0= -.23107384E+03  d E =-.143149E-02  mag=     9.0791
       N       E                     dE             d eps       ncg     rms          ort
SDA:   1    -0.230658818650E+03    0.43207E+00    0.00000E+00  8320   0.546E+01 0.000E+00
CGA:   2    -0.230757181277E+03   -0.98363E-01   -0.11459E+00  8320   0.136E+01-0.531E+00
CGA:   3    -0.230921871979E+03   -0.16469E+00   -0.16900E+00  8320   0.237E+01-0.579E-01
CGA:   4    -0.230991966971E+03   -0.70095E-01   -0.72896E-01  8320   0.706E+00-0.379E-01
CGA:   5    -0.231033248314E+03   -0.41281E-01   -0.41306E-01  8320   0.556E+00-0.104E-01
CGA:   6    -0.231060516202E+03   -0.27268E-01   -0.27405E-01  8320   0.341E+00 0.551E-02
CGA:   7    -0.231074543125E+03   -0.14027E-01   -0.13911E-01  8320   0.104E+00-0.446E-03
CGA:   8    -0.231080632519E+03   -0.60894E-02   -0.60871E-02  8320   0.112E+00 0.742E-03
CGA:   9    -0.231085893906E+03   -0.52614E-02   -0.52486E-02  8320   0.285E-01-0.256E-03
CGA:  10    -0.231087161806E+03   -0.12679E-02   -0.12708E-02  8320   0.230E-01 0.647E-04
CGA:  11    -0.231088634485E+03   -0.14727E-02   -0.14731E-02  8320   0.134E-01-0.321E-04
CGA:  12    -0.231089267094E+03   -0.63261E-03   -0.63306E-03  8320   0.102E-01 0.711E-05
CGA:  13    -0.231089829236E+03   -0.56214E-03   -0.56210E-03  8320   0.446E-02-0.306E-04
CGA:  14    -0.231090017491E+03   -0.18825E-03   -0.18834E-03  8320   0.279E-02-0.367E-05
CGA:  15    -0.231090204344E+03   -0.18685E-03   -0.18690E-03  8320   0.274E-02-0.351E-05
CGA:  16    -0.231090365414E+03   -0.16107E-03   -0.16105E-03  8320   0.196E-02 0.663E-06
CGA:  17    -0.231090442397E+03   -0.76983E-04   -0.76937E-04  8320   0.683E-03-0.773E-06
CGA:  18    -0.231090489447E+03   -0.47050E-04   -0.47070E-04  8320   0.929E-03-0.191E-05
CGA:  19    -0.231090539603E+03   -0.50155E-04   -0.50154E-04  8320   0.438E-03-0.843E-06
CGA:  20    -0.231090561419E+03   -0.21817E-04   -0.21817E-04  8320   0.309E-03-0.508E-06
CGA:  21    -0.231090577064E+03   -0.15645E-04   -0.15650E-04  8320   0.185E-03 0.927E-06
CGA:  22    -0.231090589759E+03   -0.12695E-04   -0.12685E-04  8320   0.208E-03 0.537E-06
CGA:  23    -0.231090599613E+03   -0.98537E-05   -0.98656E-05  8320   0.801E-04 0.127E-05
   6 F= -.23109060E+03 E0= -.23107341E+03  d E =-.113699E-02  mag=     9.0924
       N       E                     dE             d eps       ncg     rms          ort
SDA:   1    -0.231002056606E+03    0.88533E-01    0.00000E+00  8320   0.348E+00 0.000E+00
CGA:   2    -0.231017678353E+03   -0.15622E-01   -0.15522E-01  8320   0.504E+00-0.232E-02
CGA:   3    -0.231060672355E+03   -0.42994E-01   -0.42832E-01  8320   0.220E+00 0.462E-02
CGA:   4    -0.231075162395E+03   -0.14490E-01   -0.14484E-01  8320   0.105E+00 0.521E-03
CGA:   5    -0.231082459361E+03   -0.72970E-02   -0.73104E-02  8320   0.149E+00-0.694E-03
CGA:   6    -0.231087019602E+03   -0.45602E-02   -0.45872E-02  8320   0.249E-01-0.380E-03
CGA:   7    -0.231089506363E+03   -0.24868E-02   -0.24959E-02  8320   0.126E-01-0.201E-03
CGA:   8    -0.231090196778E+03   -0.69042E-03   -0.69033E-03  8320   0.130E-01-0.309E-04
CGA:   9    -0.231090615695E+03   -0.41892E-03   -0.41938E-03  8320   0.331E-02-0.308E-04
CGA:  10    -0.231090969840E+03   -0.35415E-03   -0.35411E-03  8320   0.207E-02 0.539E-06
CGA:  11    -0.231091143430E+03   -0.17359E-03   -0.17349E-03  8320   0.149E-02 0.412E-05
CGA:  12    -0.231091188816E+03   -0.45387E-04   -0.45431E-04  8320   0.799E-03-0.260E-05
CGA:  13    -0.231091248526E+03   -0.59710E-04   -0.59763E-04  8320   0.463E-03-0.349E-05
CGA:  14    -0.231091305648E+03   -0.57122E-04   -0.57512E-04  8320   0.199E-03-0.617E-05
CGA:  15    -0.231091318710E+03   -0.13062E-04   -0.13066E-04  8320   0.252E-03-0.116E-05
CGA:  16    -0.231091328809E+03   -0.10099E-04   -0.10101E-04  8320   0.160E-03 0.366E-07
CGA:  17    -0.231091340788E+03   -0.11979E-04   -0.11976E-04  8320   0.456E-04 0.470E-07
CGA:  18    -0.231091346506E+03   -0.57176E-05   -0.56899E-05  8320   0.358E-04 0.314E-06
   7 F= -.23109135E+03 E0= -.23107426E+03  d E =-.188388E-02  mag=     9.0881
       N       E                     dE             d eps       ncg     rms          ort
SDA:   1    -0.231074607966E+03    0.16733E-01    0.00000E+00  8320   0.144E+00 0.000E+00
CGA:   2    -0.231078019309E+03   -0.34113E-02   -0.35109E-02  8320   0.611E-01-0.309E-02
CGA:   3    -0.231084255457E+03   -0.62361E-02   -0.62615E-02  8320   0.597E-01-0.609E-03
CGA:   4    -0.231088139696E+03   -0.38842E-02   -0.38841E-02  8320   0.226E-01-0.159E-03
CGA:   5    -0.231089302562E+03   -0.11629E-02   -0.11603E-02  8320   0.305E-01-0.672E-04
CGA:   6    -0.231090929928E+03   -0.16274E-02   -0.16287E-02  8320   0.543E-02-0.672E-05
CGA:   7    -0.231091432927E+03   -0.50300E-03   -0.50203E-03  8320   0.395E-02 0.375E-04
CGA:   8    -0.231091572408E+03   -0.13948E-03   -0.14019E-03  8320   0.241E-02 0.978E-05
CGA:   9    -0.231091696320E+03   -0.12391E-03   -0.12410E-03  8320   0.698E-03 0.155E-04
CGA:  10    -0.231091758574E+03   -0.62254E-04   -0.62153E-04  8320   0.593E-03 0.422E-05
CGA:  11    -0.231091787514E+03   -0.28940E-04   -0.28960E-04  8320   0.614E-03 0.142E-05
CGA:  12    -0.231091816083E+03   -0.28569E-04   -0.28580E-04  8320   0.109E-03 0.310E-06
CGA:  13    -0.231091826814E+03   -0.10731E-04   -0.10687E-04  8320   0.134E-03 0.128E-05
CGA:  14    -0.231091833478E+03   -0.66641E-05   -0.66755E-05  8320   0.141E-03 0.577E-06
   8 F= -.23109183E+03 E0= -.23107470E+03  d E =-.486973E-03  mag=     9.0906
       N       E                     dE             d eps       ncg     rms          ort
SDA:   1    -0.230928467232E+03    0.16336E+00    0.00000E+00  8320   0.195E+01 0.000E+00
CGA:   2    -0.230965587673E+03   -0.37120E-01   -0.41473E-01  8320   0.533E+00-0.153E+00
CGA:   3    -0.231031876172E+03   -0.66288E-01   -0.67248E-01  8320   0.625E+00-0.136E-01
CGA:   4    -0.231051472406E+03   -0.19596E-01   -0.20151E-01  8320   0.287E+00-0.899E-02
CGA:   5    -0.231069764834E+03   -0.18292E-01   -0.18293E-01  8320   0.214E+00-0.384E-02
CGA:   6    -0.231081489049E+03   -0.11724E-01   -0.11759E-01  8320   0.140E+00 0.125E-02
CGA:   7    -0.231086229356E+03   -0.47403E-02   -0.46915E-02  8320   0.383E-01 0.682E-03
CGA:   8    -0.231089403797E+03   -0.31744E-02   -0.31664E-02  8320   0.433E-01 0.326E-03
CGA:   9    -0.231090831325E+03   -0.14275E-02   -0.14199E-02  8320   0.954E-02 0.193E-03
CGA:  10    -0.231091421389E+03   -0.59006E-03   -0.59007E-03  8320   0.812E-02 0.175E-04
CGA:  11    -0.231091827871E+03   -0.40648E-03   -0.40628E-03  8320   0.679E-02 0.397E-06
CGA:  12    -0.231092247685E+03   -0.41981E-03   -0.41981E-03  8320   0.276E-02 0.923E-05
CGA:  13    -0.231092352946E+03   -0.10526E-03   -0.10523E-03  8320   0.154E-02 0.208E-05
CGA:  14    -0.231092444741E+03   -0.91796E-04   -0.91797E-04  8320   0.108E-02 0.896E-06
CGA:  15    -0.231092527719E+03   -0.82978E-04   -0.82966E-04  8320   0.154E-02 0.738E-06
CGA:  16    -0.231092589947E+03   -0.62228E-04   -0.62259E-04  8320   0.335E-03-0.819E-06
CGA:  17    -0.231092610733E+03   -0.20786E-04   -0.20786E-04  8320   0.425E-03-0.265E-06
CGA:  18    -0.231092634440E+03   -0.23707E-04   -0.23701E-04  8320   0.275E-03-0.176E-05
CGA:  19    -0.231092652206E+03   -0.17767E-04   -0.17772E-04  8320   0.195E-03-0.127E-05
CGA:  20    -0.231092659244E+03   -0.70379E-05   -0.70151E-05  8320   0.806E-04-0.117E-05
   9 F= -.23109266E+03 E0= -.23107545E+03  d E =-.131274E-02  mag=     9.1010
       N       E                     dE             d eps       ncg     rms          ort
SDA:   1    -0.231066530778E+03    0.26121E-01    0.00000E+00  8320   0.858E-01 0.000E+00
CGA:   2    -0.231076943322E+03   -0.10413E-01   -0.10531E-01  8320   0.177E+00-0.191E-02
CGA:   3    -0.231082629886E+03   -0.56866E-02   -0.57321E-02  8320   0.797E-01-0.103E-02
CGA:   4    -0.231087059504E+03   -0.44296E-02   -0.44267E-02  8320   0.340E-01-0.329E-03
CGA:   5    -0.231090785802E+03   -0.37263E-02   -0.37296E-02  8320   0.129E-01-0.661E-04
CGA:   6    -0.231091883147E+03   -0.10973E-02   -0.10966E-02  8320   0.667E-02 0.407E-04
CGA:   7    -0.231092193460E+03   -0.31031E-03   -0.31123E-03  8320   0.620E-02 0.313E-04
CGA:   8    -0.231092431107E+03   -0.23765E-03   -0.23827E-03  8320   0.152E-02 0.300E-04
CGA:   9    -0.231092569117E+03   -0.13801E-03   -0.13775E-03  8320   0.805E-03 0.920E-05
CGA:  10    -0.231092660973E+03   -0.91856E-04   -0.91871E-04  8320   0.683E-03-0.334E-06
CGA:  11    -0.231092680827E+03   -0.19854E-04   -0.19871E-04  8320   0.321E-03-0.775E-06
CGA:  12    -0.231092702831E+03   -0.22003E-04   -0.21995E-04  8320   0.158E-03 0.208E-05
CGA:  13    -0.231092724007E+03   -0.21176E-04   -0.20952E-04  8320   0.121E-03 0.332E-05
CGA:  14    -0.231092730225E+03   -0.62184E-05   -0.62347E-05  8320   0.994E-04 0.945E-06
  10 F= -.23109273E+03 E0= -.23107551E+03  d E =-.138372E-02  mag=     9.1047
       N       E                     dE             d eps       ncg     rms          ort
SDA:   1    -0.231081736221E+03    0.10988E-01    0.00000E+00  8320   0.296E+00 0.000E+00
CGA:   2    -0.231086801114E+03   -0.50649E-02   -0.53048E-02  8320   0.257E-01-0.108E-01
CGA:   3    -0.231089061080E+03   -0.22600E-02   -0.22631E-02  8320   0.275E-01-0.930E-04
CGA:   4    -0.231090752786E+03   -0.16917E-02   -0.16922E-02  8320   0.296E-01 0.519E-04
CGA:   5    -0.231091839694E+03   -0.10869E-02   -0.10856E-02  8320   0.809E-02-0.108E-06
CGA:   6    -0.231092498462E+03   -0.65877E-03   -0.65829E-03  8320   0.616E-02 0.181E-04
CGA:   7    -0.231092754826E+03   -0.25636E-03   -0.25603E-03  8320   0.457E-02 0.429E-05
CGA:   8    -0.231092978427E+03   -0.22360E-03   -0.22373E-03  8320   0.895E-03 0.465E-05
CGA:   9    -0.231093041557E+03   -0.63130E-04   -0.63104E-04  8320   0.115E-02 0.331E-05
CGA:  10    -0.231093083582E+03   -0.42026E-04   -0.42105E-04  8320   0.335E-03 0.501E-06
CGA:  11    -0.231093108223E+03   -0.24640E-04   -0.24634E-04  8320   0.202E-03 0.629E-06
CGA:  12    -0.231093116369E+03   -0.81462E-05   -0.81445E-05  8320   0.156E-03-0.195E-06
CGA:  13    -0.231093126769E+03   -0.10400E-04   -0.10396E-04  8320   0.760E-04 0.689E-06
CGA:  14    -0.231093131189E+03   -0.44203E-05   -0.44208E-05  8320   0.589E-04 0.155E-06
  11 F= -.23109313E+03 E0= -.23107594E+03  d E =-.400964E-03  mag=     9.1047
       N       E                     dE             d eps       ncg     rms          ort
SDA:   1    -0.231072788713E+03    0.20338E-01    0.00000E+00  8320   0.909E-01 0.000E+00
CGA:   2    -0.231077571714E+03   -0.47830E-02   -0.47752E-02  8320   0.123E+00-0.377E-03
CGA:   3    -0.231083754762E+03   -0.61830E-02   -0.61956E-02  8320   0.752E-01 0.423E-03
CGA:   4    -0.231088974969E+03   -0.52202E-02   -0.52228E-02  8320   0.249E-01-0.176E-03
CGA:   5    -0.231091596669E+03   -0.26217E-02   -0.26216E-02  8320   0.131E-01 0.426E-05
CGA:   6    -0.231092914718E+03   -0.13180E-02   -0.13171E-02  8320   0.385E-02 0.243E-04
CGA:   7    -0.231093091172E+03   -0.17645E-03   -0.17637E-03  8320   0.415E-02 0.365E-05
CGA:   8    -0.231093291162E+03   -0.19999E-03   -0.20014E-03  8320   0.154E-02 0.448E-05
CGA:   9    -0.231093391789E+03   -0.10063E-03   -0.10062E-03  8320   0.471E-03 0.204E-05
CGA:  10    -0.231093439811E+03   -0.48021E-04   -0.48012E-04  8320   0.501E-03 0.224E-06
CGA:  11    -0.231093456100E+03   -0.16289E-04   -0.16295E-04  8320   0.277E-03 0.694E-06
CGA:  12    -0.231093475545E+03   -0.19445E-04   -0.19446E-04  8320   0.100E-03-0.139E-06
CGA:  13    -0.231093484993E+03   -0.94488E-05   -0.94333E-05  8320   0.776E-04 0.489E-06
  12 F= -.23109348E+03 E0= -.23107635E+03  d E =-.754769E-03  mag=     9.1005
       N       E                     dE             d eps       ncg     rms          ort
SDA:   1    -0.231083726934E+03    0.97486E-02    0.00000E+00  8320   0.487E+00 0.000E+00
CGA:   2    -0.231091393710E+03   -0.76668E-02   -0.82477E-02  8320   0.973E-02-0.281E-01
CGA:   3    -0.231091911084E+03   -0.51737E-03   -0.51724E-03  8320   0.116E-01-0.124E-04
CGA:   4    -0.231092574905E+03   -0.66382E-03   -0.66408E-03  8320   0.818E-02 0.138E-04
CGA:   5    -0.231093058628E+03   -0.48372E-03   -0.48365E-03  8320   0.424E-02-0.193E-04
CGA:   6    -0.231093224254E+03   -0.16563E-03   -0.16569E-03  8320   0.253E-02-0.460E-05
CGA:   7    -0.231093387007E+03   -0.16275E-03   -0.16276E-03  8320   0.129E-02-0.670E-06
CGA:   8    -0.231093445103E+03   -0.58096E-04   -0.58149E-04  8320   0.899E-03 0.148E-05
CGA:   9    -0.231093487746E+03   -0.42643E-04   -0.42679E-04  8320   0.306E-03 0.303E-05
CGA:  10    -0.231093504815E+03   -0.17069E-04   -0.17071E-04  8320   0.257E-03 0.480E-06
CGA:  11    -0.231093515684E+03   -0.10869E-04   -0.10879E-04  8320   0.103E-03 0.736E-06
CGA:  12    -0.231093522449E+03   -0.67650E-05   -0.67657E-05  8320   0.790E-04-0.111E-06
  13 F= -.23109352E+03 E0= -.23107640E+03  d E =-.792224E-03  mag=     9.1002
       N       E                     dE             d eps       ncg     rms          ort
SDA:   1    -0.231084250523E+03    0.92652E-02    0.00000E+00  8320   0.184E+00 0.000E+00
CGA:   2    -0.231087578083E+03   -0.33276E-02   -0.32212E-02  8320   0.184E-01 0.480E-02
CGA:   3    -0.231089878709E+03   -0.23006E-02   -0.22926E-02  8320   0.328E-01 0.125E-03
CGA:   4    -0.231092030323E+03   -0.21516E-02   -0.21501E-02  8320   0.315E-01 0.179E-03
CGA:   5    -0.231092828491E+03   -0.79817E-03   -0.79326E-03  8320   0.429E-02 0.186E-03
CGA:   6    -0.231093358858E+03   -0.53037E-03   -0.53215E-03  8320   0.403E-02-0.269E-04
CGA:   7    -0.231093495675E+03   -0.13682E-03   -0.13663E-03  8320   0.259E-02-0.165E-04
CGA:   8    -0.231093608823E+03   -0.11315E-03   -0.11290E-03  8320   0.618E-03-0.145E-04
CGA:   9    -0.231093659912E+03   -0.51089E-04   -0.51259E-04  8320   0.410E-03-0.685E-05
CGA:  10    -0.231093676615E+03   -0.16703E-04   -0.16687E-04  8320   0.384E-03-0.127E-05
CGA:  11    -0.231093694545E+03   -0.17930E-04   -0.17942E-04  8320   0.843E-04 0.100E-05
CGA:  12    -0.231093704843E+03   -0.10298E-04   -0.10107E-04  8320   0.832E-04 0.313E-05
CGA:  13    -0.231093707562E+03   -0.27190E-05   -0.27377E-05  8320   0.479E-04 0.584E-06
  14 F= -.23109371E+03 E0= -.23107662E+03  d E =-.185113E-03  mag=     9.0973
