       N       E                     dE             d eps       ncg     rms          ort
DAV:   1     0.639050571751E+04    0.63905E+04   -0.31698E+05  8320   0.178E+03
DAV:   2     0.349414282750E+03   -0.60411E+04   -0.56538E+04  8320   0.512E+02
DAV:   3    -0.298690754284E+03   -0.64811E+03   -0.62807E+03  8320   0.188E+02
DAV:   4    -0.317933255429E+03   -0.19243E+02   -0.19090E+02  8320   0.351E+01
DAV:   5    -0.318452943178E+03   -0.51969E+00   -0.51662E+00  8320   0.534E+00
SDA:   6     0.823885453440E+02    0.40084E+03   -0.51662E+00  8320   0.265E+04 0.000E+00
CGA:   7    -0.211223517250E+02   -0.10351E+03   -0.15138E+03  8320   0.747E+04-0.710E+03
CGA:   8     0.363608855724E+02    0.57483E+02   -0.18638E+03  8320   0.164E+05-0.612E+04
CGA:   9     0.861238199720E+03    0.82488E+03   -0.11241E+04  8320   0.630E+05-0.172E+05
CGA:  10     0.352101362883E+04    0.26598E+04   -0.34168E+04  8320   0.327E+05-0.143E+05
CGA:  11     0.156197353758E+04   -0.19590E+04   -0.96568E+03  8320   0.660E+05-0.153E+05
CGA:  12     0.648209072556E+03   -0.91376E+03   -0.16120E+04  8320   0.217E+05 0.561E+04
CGA:  13     0.720912257402E+03    0.72703E+02   -0.12388E+04  8320   0.124E+05-0.856E+04
CGA:  14    -0.198945614179E+02   -0.74081E+03   -0.21961E+03  8320   0.297E+04-0.215E+03
CGA:  15    -0.629201959724E+02   -0.43026E+02   -0.12892E+03  8320   0.233E+04-0.653E+03
CGA:  16    -0.109949028614E+03   -0.47029E+02   -0.37509E+02  8320   0.916E+03-0.409E+03
CGA:  17    -0.138619085150E+03   -0.28670E+02   -0.28718E+02  8320   0.471E+03-0.948E+02
CGA:  18    -0.154337529148E+03   -0.15718E+02   -0.10057E+02  8320   0.167E+03 0.226E+03
CGA:  19    -0.157396590574E+03   -0.30591E+01   -0.13608E+02  8320   0.709E+03-0.418E+02
CGA:  20    -0.160617557564E+03   -0.32210E+01   -0.12993E+02  8320   0.121E+04-0.150E+03
CGA:  21    -0.159122543686E+03    0.14950E+01   -0.16923E+02  8320   0.990E+03-0.174E+03
CGA:  22    -0.169386506178E+03   -0.10264E+02   -0.16503E+02  8320   0.492E+03-0.600E+02
CGA:  23    -0.176246433548E+03   -0.68599E+01   -0.90788E+01  8320   0.193E+03-0.138E+03
CGA:  24    -0.179093490475E+03   -0.28471E+01   -0.31932E+01  8320   0.208E+03-0.243E+02
CGA:  25    -0.181610724409E+03   -0.25172E+01   -0.48120E+01  8320   0.212E+03-0.650E+02
CGA:  26    -0.183648979564E+03   -0.20383E+01   -0.47384E+01  8320   0.333E+03-0.571E+02
CGA:  27    -0.191255586827E+03   -0.76066E+01   -0.82954E+01  8320   0.207E+03-0.383E+02
CGA:  28    -0.195566415835E+03   -0.43108E+01   -0.47267E+01  8320   0.848E+02-0.312E+02
CGA:  29    -0.198491112346E+03   -0.29247E+01   -0.27501E+01  8320   0.796E+02 0.372E+01
CGA:  30    -0.200790406667E+03   -0.22993E+01   -0.26509E+01  8320   0.892E+02-0.126E+02
CGA:  31    -0.203301057454E+03   -0.25107E+01   -0.27879E+01  8320   0.987E+02-0.335E+01
CGA:  32    -0.205460856234E+03   -0.21598E+01   -0.25938E+01  8320   0.821E+02-0.168E+02
CGA:  33    -0.207097494146E+03   -0.16366E+01   -0.17378E+01  8320   0.593E+02-0.354E+01
CGA:  34    -0.208460170397E+03   -0.13627E+01   -0.15276E+01  8320   0.496E+02-0.513E+01
CGA:  35    -0.209894278309E+03   -0.14341E+01   -0.15714E+01  8320   0.540E+02-0.208E+01
CGA:  36    -0.211380451527E+03   -0.14862E+01   -0.15020E+01  8320   0.393E+02-0.409E+00
CGA:  37    -0.212554683467E+03   -0.11742E+01   -0.11788E+01  8320   0.334E+02-0.124E+01
CGA:  38    -0.213462732662E+03   -0.90805E+00   -0.94701E+00  8320   0.264E+02-0.153E+01
CGA:  39    -0.214189036616E+03   -0.72630E+00   -0.72614E+00  8320   0.269E+02-0.214E+00
SDA:  40    -0.215167098655E+03   -0.97806E+00   -0.10019E+01  8320   0.403E+02-0.468E+00
CGA:  41    -0.216408766432E+03   -0.12417E+01   -0.12232E+01  8320   0.985E+01 0.311E+00
CGA:  42    -0.217668347086E+03   -0.12596E+01   -0.12882E+01  8320   0.949E+01-0.463E+00
CGA:  43    -0.219153587965E+03   -0.14852E+01   -0.14173E+01  8320   0.105E+02 0.670E+00
CGA:  44    -0.219947973947E+03   -0.79439E+00   -0.79293E+00  8320   0.105E+02 0.280E+00
CGA:  45    -0.221027656924E+03   -0.10797E+01   -0.11415E+01  8320   0.101E+02-0.171E+01
CGA:  46    -0.221913084505E+03   -0.88543E+00   -0.91149E+00  8320   0.103E+02-0.784E+00
CGA:  47    -0.223160872177E+03   -0.12478E+01   -0.15073E+01  8320   0.163E+02-0.304E+01
CGA:  48    -0.223966956743E+03   -0.80608E+00   -0.80946E+00  8320   0.130E+02 0.227E+00
CGA:  49    -0.224700776799E+03   -0.73382E+00   -0.74076E+00  8320   0.521E+01 0.123E-01
CGA:  50    -0.225217061348E+03   -0.51628E+00   -0.52175E+00  8320   0.776E+01-0.149E+00
CGA:  51    -0.225940351487E+03   -0.72329E+00   -0.73515E+00  8320   0.101E+02-0.373E+00
CGA:  52    -0.226447974876E+03   -0.50762E+00   -0.49818E+00  8320   0.562E+01-0.343E-02
CGA:  53    -0.226746903674E+03   -0.29893E+00   -0.29704E+00  8320   0.578E+01-0.311E-01
CGA:  54    -0.227242705225E+03   -0.49580E+00   -0.49420E+00  8320   0.718E+01 0.936E-01
CGA:  55    -0.227571345058E+03   -0.32864E+00   -0.31537E+00  8320   0.392E+01 0.689E-01
CGA:  56    -0.227810904830E+03   -0.23956E+00   -0.23947E+00  8320   0.508E+01-0.101E-01
CGA:  57    -0.228111838311E+03   -0.30093E+00   -0.30153E+00  8320   0.518E+01 0.331E-02
CGA:  58    -0.228415066409E+03   -0.30323E+00   -0.30545E+00  8320   0.470E+01 0.487E-01
CGA:  59    -0.228644061447E+03   -0.22900E+00   -0.22298E+00  8320   0.274E+01 0.649E-04
CGA:  60    -0.228768293125E+03   -0.12423E+00   -0.12238E+00  8320   0.237E+01 0.205E-02
CGA:  61    -0.228919269660E+03   -0.15098E+00   -0.15096E+00  8320   0.363E+01-0.469E-02
CGA:  62    -0.229119815329E+03   -0.20055E+00   -0.20151E+00  8320   0.331E+01 0.155E-01
CGA:  63    -0.229259920891E+03   -0.14011E+00   -0.13383E+00  8320   0.223E+01 0.898E-01
CGA:  64    -0.229363175954E+03   -0.10326E+00   -0.95075E-01  8320   0.260E+01 0.326E-01
CGA:  65    -0.229471881318E+03   -0.10871E+00   -0.10913E+00  8320   0.369E+01-0.178E-01
CGA:  66    -0.229586872067E+03   -0.11499E+00   -0.10850E+00  8320   0.323E+01 0.112E+00
CGA:  67    -0.229671049134E+03   -0.84177E-01   -0.81906E-01  8320   0.276E+01 0.250E-01
CGA:  68    -0.229740629553E+03   -0.69580E-01   -0.69863E-01  8320   0.254E+01-0.714E-02
CGA:  69    -0.229800910428E+03   -0.60281E-01   -0.59603E-01  8320   0.222E+01 0.107E-01
CGA:  70    -0.229859047627E+03   -0.58137E-01   -0.59601E-01  8320   0.266E+01-0.470E-01
SDA:  71    -0.229946806633E+03   -0.87759E-01   -0.90105E-01  8320   0.382E+01-0.401E-02
CGA:  72    -0.230146050460E+03   -0.19924E+00   -0.19901E+00  8320   0.112E+01-0.424E-01
CGA:  73    -0.230299438558E+03   -0.15339E+00   -0.15771E+00  8320   0.206E+01-0.570E-01
CGA:  74    -0.230765526519E+03   -0.46609E+00   -0.44003E+00  8320   0.177E+01-0.357E-01
CGA:  75    -0.230876295649E+03   -0.11077E+00   -0.11047E+00  8320   0.929E+00-0.349E-01
CGA:  76    -0.230964827956E+03   -0.88532E-01   -0.84656E-01  8320   0.104E+01 0.110E+00
CGA:  77    -0.231051614140E+03   -0.86786E-01   -0.12123E+00  8320   0.211E+01-0.722E+00
CGA:  78    -0.231142873691E+03   -0.91260E-01   -0.90684E-01  8320   0.477E+00 0.639E-02
CGA:  79    -0.231188972615E+03   -0.46099E-01   -0.46920E-01  8320   0.657E+00-0.227E-01
CGA:  80    -0.231246660186E+03   -0.57688E-01   -0.64228E-01  8320   0.880E+00-0.168E+00
CGA:  81    -0.231288753672E+03   -0.42093E-01   -0.41936E-01  8320   0.856E+00-0.954E-02
CGA:  82    -0.231338169189E+03   -0.49416E-01   -0.44201E-01  8320   0.118E+01-0.333E-01
CGA:  83    -0.231368373846E+03   -0.30205E-01   -0.23462E-01  8320   0.838E+00 0.262E+00
CGA:  84    -0.231388548341E+03   -0.20174E-01   -0.16070E-01  8320   0.646E+00 0.232E+00
CGA:  85    -0.231407422824E+03   -0.18874E-01   -0.16899E-01  8320   0.733E+00 0.842E-01
CGA:  86    -0.231423406240E+03   -0.15983E-01   -0.18626E-01  8320   0.658E+00-0.654E-01
CGA:  87    -0.231433857318E+03   -0.10451E-01   -0.12476E-01  8320   0.417E+00-0.617E-01
CGA:  88    -0.231443615516E+03   -0.97582E-02   -0.10041E-01  8320   0.380E+00-0.536E-02
CGA:  89    -0.231455136040E+03   -0.11521E-01   -0.10998E-01  8320   0.432E+00 0.801E-02
CGA:  90    -0.231467107015E+03   -0.11971E-01   -0.11946E-01  8320   0.406E+00 0.101E-02
CGA:  91    -0.231476708962E+03   -0.96019E-02   -0.10981E-01  8320   0.292E+00-0.186E-01
CGA:  92    -0.231488457808E+03   -0.11749E-01   -0.12097E-01  8320   0.312E+00 0.112E-01
CGA:  93    -0.231502050674E+03   -0.13593E-01   -0.13591E-01  8320   0.151E+00-0.395E-03
CGA:  94    -0.231509367459E+03   -0.73168E-02   -0.73279E-02  8320   0.128E+00 0.128E-02
CGA:  95    -0.231516235726E+03   -0.68683E-02   -0.68642E-02  8320   0.976E-01 0.211E-02
CGA:  96    -0.231521046267E+03   -0.48105E-02   -0.48009E-02  8320   0.526E-01-0.111E-02
CGA:  97    -0.231524474539E+03   -0.34283E-02   -0.34827E-02  8320   0.882E-01-0.267E-02
CGA:  98    -0.231529237127E+03   -0.47626E-02   -0.47567E-02  8320   0.846E-01 0.771E-03
CGA:  99    -0.231533045588E+03   -0.38085E-02   -0.38086E-02  8320   0.514E-01 0.144E-03
CGA: 100    -0.231535478540E+03   -0.24330E-02   -0.24157E-02  8320   0.464E-01-0.120E-02
CGA: 101    -0.231537440718E+03   -0.19622E-02   -0.19656E-02  8320   0.349E-01 0.118E-03
CGA: 102    -0.231539397898E+03   -0.19572E-02   -0.19608E-02  8320   0.480E-01-0.490E-03
CGA: 103    -0.231541112735E+03   -0.17148E-02   -0.16727E-02  8320   0.260E-01-0.995E-04
CGA: 104    -0.231541961930E+03   -0.84919E-03   -0.85122E-03  8320   0.164E-01-0.683E-05
CGA: 105    -0.231542539238E+03   -0.57731E-03   -0.58453E-03  8320   0.148E-01 0.530E-04
CGA: 106    -0.231543449845E+03   -0.91061E-03   -0.90839E-03  8320   0.183E-01 0.131E-03
CGA: 107    -0.231544046940E+03   -0.59709E-03   -0.58727E-03  8320   0.111E-01 0.548E-04
SDA: 108    -0.231544552976E+03   -0.50604E-03   -0.50471E-03  8320   0.112E-01-0.140E-03
CGA: 109    -0.231544992722E+03   -0.43975E-03   -0.44200E-03  8320   0.621E-02 0.596E-04
CGA: 110    -0.231545287339E+03   -0.29462E-03   -0.29462E-03  8320   0.471E-02 0.751E-06
CGA: 111    -0.231545709610E+03   -0.42227E-03   -0.42458E-03  8320   0.320E-02-0.543E-04
CGA: 112    -0.231546187595E+03   -0.47798E-03   -0.47287E-03  8320   0.302E-02 0.546E-04
CGA: 113    -0.231546612822E+03   -0.42523E-03   -0.42946E-03  8320   0.254E-02-0.590E-04
CGA: 114    -0.231546716241E+03   -0.10342E-03   -0.10261E-03  8320   0.225E-02-0.433E-06
CGA: 115    -0.231546843625E+03   -0.12738E-03   -0.12742E-03  8320   0.582E-03 0.755E-05
CGA: 116    -0.231546912184E+03   -0.68559E-04   -0.68347E-04  8320   0.684E-03 0.291E-05
CGA: 117    -0.231546945834E+03   -0.33650E-04   -0.33457E-04  8320   0.610E-03-0.585E-05
CGA: 118    -0.231546971921E+03   -0.26087E-04   -0.26086E-04  8320   0.277E-03-0.310E-05
CGA: 119    -0.231547001961E+03   -0.30040E-04   -0.30169E-04  8320   0.304E-03-0.322E-05
CGA: 120    -0.231547019623E+03   -0.17663E-04   -0.17626E-04  8320   0.363E-03-0.552E-05
CGA: 121    -0.231547032482E+03   -0.12859E-04   -0.12918E-04  8320   0.945E-04-0.283E-05
CGA: 122    -0.231547048375E+03   -0.15893E-04   -0.15972E-04  8320   0.265E-03-0.101E-05
CGA: 123    -0.231547056365E+03   -0.79897E-05   -0.76458E-05  8320   0.127E-03 0.547E-05
CGA: 124    -0.231547068149E+03   -0.11784E-04   -0.11868E-04  8320   0.138E-03-0.315E-05
CGA: 125    -0.231547072124E+03   -0.39747E-05   -0.40187E-05  8320   0.872E-04-0.169E-05
   1 F= -.23154707E+03 E0= -.23153309E+03  d E =-.231547E+03  mag=     7.0629
       N       E                     dE             d eps       ncg     rms          ort
SDA:   1    -0.231545807212E+03    0.12609E-02    0.00000E+00  8320   0.122E+00 0.000E+00
CGA:   2    -0.231547953035E+03   -0.21458E-02   -0.23876E-02  8320   0.943E-02-0.955E-02
CGA:   3    -0.231548222541E+03   -0.26951E-03   -0.26901E-03  8320   0.679E-03 0.576E-05
CGA:   4    -0.231548252304E+03   -0.29763E-04   -0.29768E-04  8320   0.442E-03-0.678E-06
CGA:   5    -0.231548273008E+03   -0.20704E-04   -0.20690E-04  8320   0.236E-03-0.271E-06
CGA:   6    -0.231548290153E+03   -0.17145E-04   -0.17132E-04  8320   0.161E-03 0.872E-06
CGA:   7    -0.231548297820E+03   -0.76672E-05   -0.76704E-05  8320   0.107E-03 0.284E-06
   2 F= -.23154830E+03 E0= -.23153434E+03  d E =-.122570E-02  mag=     7.0626
       N       E                     dE             d eps       ncg     rms          ort
SDA:   1    -0.231551146308E+03   -0.28562E-02    0.00000E+00  8320   0.109E+00 0.000E+00
CGA:   2    -0.231556299121E+03   -0.51528E-02   -0.51615E-02  8320   0.143E+00 0.191E-03
CGA:   3    -0.231566789031E+03   -0.10490E-01   -0.10529E-01  8320   0.110E+00-0.180E-02
CGA:   4    -0.231573272768E+03   -0.64837E-02   -0.64815E-02  8320   0.229E-01 0.137E-02
CGA:   5    -0.231575585095E+03   -0.23123E-02   -0.23303E-02  8320   0.225E-01-0.395E-03
CGA:   6    -0.231576811132E+03   -0.12260E-02   -0.12280E-02  8320   0.146E-01 0.148E-03
CGA:   7    -0.231577245574E+03   -0.43444E-03   -0.43507E-03  8320   0.365E-02-0.104E-04
CGA:   8    -0.231577568416E+03   -0.32284E-03   -0.32277E-03  8320   0.162E-02 0.231E-05
CGA:   9    -0.231577695394E+03   -0.12698E-03   -0.12700E-03  8320   0.178E-02-0.902E-06
CGA:  10    -0.231577749579E+03   -0.54185E-04   -0.54282E-04  8320   0.464E-03-0.186E-05
CGA:  11    -0.231577792571E+03   -0.42992E-04   -0.43015E-04  8320   0.283E-03-0.604E-06
CGA:  12    -0.231577816330E+03   -0.23759E-04   -0.23751E-04  8320   0.362E-03 0.277E-06
CGA:  13    -0.231577827860E+03   -0.11530E-04   -0.11525E-04  8320   0.966E-04 0.294E-06
CGA:  14    -0.231577837191E+03   -0.93309E-05   -0.93230E-05  8320   0.740E-04 0.191E-06
   3 F= -.23157784E+03 E0= -.23156392E+03  d E =-.295394E-01  mag=     7.0616
       N       E                     dE             d eps       ncg     rms          ort
SDA:   1    -0.231426494788E+03    0.15133E+00    0.00000E+00  8320   0.108E+01 0.000E+00
CGA:   2    -0.231465903254E+03   -0.39408E-01   -0.36686E-01  8320   0.954E+00 0.359E-01
CGA:   3    -0.231576154254E+03   -0.11025E+00   -0.11019E+00  8320   0.769E+00 0.912E-03
CGA:   4    -0.231618466986E+03   -0.42313E-01   -0.42946E-01  8320   0.338E+00 0.252E-01
CGA:   5    -0.231630086767E+03   -0.11620E-01   -0.11137E-01  8320   0.201E+00 0.798E-02
CGA:   6    -0.231648694402E+03   -0.18608E-01   -0.18631E-01  8320   0.103E+00-0.682E-03
CGA:   7    -0.231654041330E+03   -0.53469E-02   -0.54022E-02  8320   0.442E-01 0.138E-02
CGA:   8    -0.231655779947E+03   -0.17386E-02   -0.17321E-02  8320   0.334E-01 0.358E-04
CGA:   9    -0.231657687060E+03   -0.19071E-02   -0.19065E-02  8320   0.101E-01-0.453E-04
CGA:  10    -0.231658632169E+03   -0.94511E-03   -0.94459E-03  8320   0.669E-02 0.138E-04
CGA:  11    -0.231658857862E+03   -0.22569E-03   -0.22505E-03  8320   0.425E-02 0.982E-05
CGA:  12    -0.231659152279E+03   -0.29442E-03   -0.29438E-03  8320   0.223E-02 0.373E-05
CGA:  13    -0.231659369782E+03   -0.21750E-03   -0.21746E-03  8320   0.104E-02 0.698E-06
CGA:  14    -0.231659418810E+03   -0.49028E-04   -0.48901E-04  8320   0.113E-02-0.400E-06
CGA:  15    -0.231659483253E+03   -0.64444E-04   -0.64460E-04  8320   0.640E-03 0.214E-05
CGA:  16    -0.231659535469E+03   -0.52215E-04   -0.52159E-04  8320   0.301E-03 0.258E-05
CGA:  17    -0.231659559069E+03   -0.23600E-04   -0.23601E-04  8320   0.332E-03 0.771E-07
CGA:  18    -0.231659571893E+03   -0.12824E-04   -0.12841E-04  8320   0.218E-03 0.513E-06
CGA:  19    -0.231659587497E+03   -0.15604E-04   -0.15590E-04  8320   0.104E-03 0.157E-05
CGA:  20    -0.231659598676E+03   -0.11180E-04   -0.11113E-04  8320   0.616E-04 0.150E-05
CGA:  21    -0.231659601645E+03   -0.29689E-05   -0.29785E-05  8320   0.783E-04 0.440E-06
   4 F= -.23165960E+03 E0= -.23164583E+03  d E =-.817645E-01  mag=     7.0624
       N       E                     dE             d eps       ncg     rms          ort
SDA:   1    -0.231164801086E+03    0.49480E+00    0.00000E+00  8320   0.176E+01 0.000E+00
CGA:   2    -0.231423628998E+03   -0.25883E+00   -0.29643E+00  8320   0.636E+01-0.476E+00
CGA:   3    -0.231552520413E+03   -0.12889E+00   -0.14200E+00  8320   0.259E+01-0.245E+00
CGA:   4    -0.231651903800E+03   -0.99383E-01   -0.10615E+00  8320   0.765E+00 0.217E-03
CGA:   5    -0.231694048807E+03   -0.42145E-01   -0.41416E-01  8320   0.105E+01-0.145E-01
CGA:   6    -0.231739940634E+03   -0.45892E-01   -0.45750E-01  8320   0.364E+00-0.597E-04
CGA:   7    -0.231757778242E+03   -0.17838E-01   -0.17999E-01  8320   0.164E+00 0.195E-02
CGA:   8    -0.231763342770E+03   -0.55645E-02   -0.55382E-02  8320   0.103E+00 0.358E-03
CGA:   9    -0.231770349766E+03   -0.70070E-02   -0.70075E-02  8320   0.433E-01-0.559E-04
CGA:  10    -0.231772559600E+03   -0.22098E-02   -0.22112E-02  8320   0.447E-01 0.312E-04
CGA:  11    -0.231774183014E+03   -0.16234E-02   -0.16205E-02  8320   0.120E-01 0.295E-04
CGA:  12    -0.231775264786E+03   -0.10818E-02   -0.10812E-02  8320   0.138E-01 0.175E-04
CGA:  13    -0.231775762460E+03   -0.49767E-03   -0.49877E-03  8320   0.823E-02-0.108E-04
CGA:  14    -0.231776203222E+03   -0.44076E-03   -0.44047E-03  8320   0.285E-02-0.134E-04
CGA:  15    -0.231776410604E+03   -0.20738E-03   -0.20735E-03  8320   0.347E-02 0.254E-05
CGA:  16    -0.231776544474E+03   -0.13387E-03   -0.13420E-03  8320   0.210E-02 0.117E-05
CGA:  17    -0.231776686731E+03   -0.14226E-03   -0.14226E-03  8320   0.888E-03 0.152E-05
CGA:  18    -0.231776743745E+03   -0.57013E-04   -0.57009E-04  8320   0.101E-02 0.131E-05
CGA:  19    -0.231776781380E+03   -0.37635E-04   -0.37727E-04  8320   0.502E-03 0.891E-06
CGA:  20    -0.231776828782E+03   -0.47402E-04   -0.47298E-04  8320   0.284E-03 0.298E-05
CGA:  21    -0.231776844712E+03   -0.15930E-04   -0.15939E-04  8320   0.378E-03 0.169E-05
CGA:  22    -0.231776862464E+03   -0.17752E-04   -0.17794E-04  8320   0.134E-03 0.251E-05
CGA:  23    -0.231776875034E+03   -0.12570E-04   -0.12500E-04  8320   0.104E-03 0.215E-05
CGA:  24    -0.231776879592E+03   -0.45583E-05   -0.45633E-05  8320   0.100E-03 0.501E-06
   5 F= -.23177688E+03 E0= -.23176335E+03  d E =-.117278E+00  mag=     7.0632
       N       E                     dE             d eps       ncg     rms          ort
SDA:   1    -0.230233203606E+03    0.15437E+01    0.00000E+00  8320   0.509E+01 0.000E+00
CGA:   2    -0.230840231836E+03   -0.60703E+00   -0.78118E+00  8320   0.214E+02-0.273E+01
CGA:   3    -0.231280385135E+03   -0.44015E+00   -0.78593E+00  8320   0.268E+01-0.406E+00
CGA:   4    -0.231398850398E+03   -0.11847E+00   -0.10390E+00  8320   0.239E+01 0.115E+00
CGA:   5    -0.231593303959E+03   -0.19445E+00   -0.20303E+00  8320   0.516E+01-0.364E+00
CGA:   6    -0.231715783198E+03   -0.12248E+00   -0.13309E+00  8320   0.448E+01-0.178E+00
CGA:   7    -0.231857622492E+03   -0.14184E+00   -0.15041E+00  8320   0.605E+00-0.652E-01
CGA:   8    -0.231872958102E+03   -0.15336E-01   -0.14480E-01  8320   0.271E+00 0.248E-01
CGA:   9    -0.231892450724E+03   -0.19493E-01   -0.19675E-01  8320   0.336E+00-0.115E-01
CGA:  10    -0.231900336702E+03   -0.78860E-02   -0.79997E-02  8320   0.132E+00-0.292E-02
CGA:  11    -0.231906371272E+03   -0.60346E-02   -0.60953E-02  8320   0.941E-01 0.138E-02
CGA:  12    -0.231908959077E+03   -0.25878E-02   -0.25758E-02  8320   0.456E-01 0.276E-03
CGA:  13    -0.231912359137E+03   -0.34001E-02   -0.34116E-02  8320   0.706E-01-0.466E-03
CGA:  14    -0.231914167163E+03   -0.18080E-02   -0.18119E-02  8320   0.222E-01-0.622E-04
CGA:  15    -0.231915327872E+03   -0.11607E-02   -0.11616E-02  8320   0.233E-01 0.135E-03
CGA:  16    -0.231916005500E+03   -0.67763E-03   -0.67828E-03  8320   0.901E-02-0.304E-05
CGA:  17    -0.231916580285E+03   -0.57479E-03   -0.57637E-03  8320   0.134E-01-0.101E-03
CGA:  18    -0.231916980501E+03   -0.40022E-03   -0.40013E-03  8320   0.517E-02 0.873E-05
CGA:  19    -0.231917258717E+03   -0.27822E-03   -0.27817E-03  8320   0.586E-02 0.416E-04
CGA:  20    -0.231917435236E+03   -0.17652E-03   -0.17667E-03  8320   0.229E-02 0.243E-06
CGA:  21    -0.231917580628E+03   -0.14539E-03   -0.14567E-03  8320   0.323E-02-0.168E-04
CGA:  22    -0.231917675441E+03   -0.94813E-04   -0.94831E-04  8320   0.119E-02-0.148E-06
CGA:  23    -0.231917753671E+03   -0.78230E-04   -0.77997E-04  8320   0.201E-02 0.128E-04
CGA:  24    -0.231917819533E+03   -0.65862E-04   -0.65957E-04  8320   0.695E-03 0.549E-05
CGA:  25    -0.231917860863E+03   -0.41330E-04   -0.41334E-04  8320   0.955E-03 0.146E-05
CGA:  26    -0.231917890276E+03   -0.29414E-04   -0.29500E-04  8320   0.276E-03 0.384E-05
CGA:  27    -0.231917905495E+03   -0.15218E-04   -0.15207E-04  8320   0.386E-03 0.227E-05
CGA:  28    -0.231917920721E+03   -0.15226E-04   -0.15248E-04  8320   0.231E-03 0.158E-05
CGA:  29    -0.231917935628E+03   -0.14907E-04   -0.14898E-04  8320   0.264E-03 0.700E-06
CGA:  30    -0.231917942506E+03   -0.68785E-05   -0.68944E-05  8320   0.628E-04 0.569E-06
   6 F= -.23191794E+03 E0= -.23190481E+03  d E =-.141063E+00  mag=     7.0663
       N       E                     dE             d eps       ncg     rms          ort
SDA:   1    -0.229336893636E+03    0.25810E+01    0.00000E+00  8320   0.880E+01 0.000E+00
CGA:   2    -0.230293220336E+03   -0.95633E+00   -0.95263E+00  8320   0.156E+02 0.171E-01
CGA:   3    -0.230959747673E+03   -0.66653E+00   -0.65315E+00  8320   0.173E+02-0.268E+00
CGA:   4    -0.231382445406E+03   -0.42270E+00   -0.52047E+00  8320   0.480E+01-0.283E+00
CGA:   5    -0.231585820817E+03   -0.20338E+00   -0.20473E+00  8320   0.327E+01 0.645E-01
CGA:   6    -0.231833974637E+03   -0.24815E+00   -0.27619E+00  8320   0.299E+01-0.875E+00
CGA:   7    -0.231920403370E+03   -0.86429E-01   -0.89342E-01  8320   0.648E+00 0.523E-01
CGA:   8    -0.231957605681E+03   -0.37202E-01   -0.37127E-01  8320   0.337E+00 0.107E-01
CGA:   9    -0.231987927959E+03   -0.30322E-01   -0.30321E-01  8320   0.222E+00-0.126E-04
CGA:  10    -0.231996874508E+03   -0.89465E-02   -0.86817E-02  8320   0.102E+00-0.154E-02
CGA:  11    -0.232003318669E+03   -0.64442E-02   -0.64411E-02  8320   0.524E-01 0.216E-03
CGA:  12    -0.232008227172E+03   -0.49085E-02   -0.48920E-02  8320   0.349E-01 0.388E-03
CGA:  13    -0.232010611218E+03   -0.23840E-02   -0.23841E-02  8320   0.148E-01-0.211E-05
CGA:  14    -0.232011411073E+03   -0.79985E-03   -0.79880E-03  8320   0.154E-01-0.187E-03
CGA:  15    -0.232012404217E+03   -0.99314E-03   -0.99253E-03  8320   0.767E-02 0.449E-04
CGA:  16    -0.232013047715E+03   -0.64350E-03   -0.64244E-03  8320   0.341E-02 0.344E-04
CGA:  17    -0.232013318754E+03   -0.27104E-03   -0.27119E-03  8320   0.213E-02-0.558E-05
CGA:  18    -0.232013589036E+03   -0.27028E-03   -0.27021E-03  8320   0.214E-02 0.288E-06
CGA:  19    -0.232013682779E+03   -0.93743E-04   -0.94127E-04  8320   0.130E-02 0.569E-05
CGA:  20    -0.232013754464E+03   -0.71685E-04   -0.71716E-04  8320   0.598E-03 0.476E-05
CGA:  21    -0.232013822845E+03   -0.68382E-04   -0.68180E-04  8320   0.521E-03 0.378E-05
CGA:  22    -0.232013864965E+03   -0.42120E-04   -0.42069E-04  8320   0.294E-03 0.294E-05
CGA:  23    -0.232013881514E+03   -0.16549E-04   -0.16560E-04  8320   0.275E-03 0.985E-06
CGA:  24    -0.232013896853E+03   -0.15339E-04   -0.15336E-04  8320   0.133E-03-0.569E-07
CGA:  25    -0.232013910546E+03   -0.13693E-04   -0.13680E-04  8320   0.838E-04 0.224E-06
CGA:  26    -0.232013918129E+03   -0.75832E-05   -0.75443E-05  8320   0.826E-04 0.151E-05
   7 F= -.23201392E+03 E0= -.23200119E+03  d E =-.959756E-01  mag=     7.0705
       N       E                     dE             d eps       ncg     rms          ort
SDA:   1    -0.227675988772E+03    0.43379E+01    0.00000E+00  8320   0.131E+02 0.000E+00
CGA:   2    -0.229317995383E+03   -0.16420E+01   -0.19242E+01  8320   0.502E+02-0.472E+01
CGA:   3    -0.230292021722E+03   -0.97403E+00   -0.10785E+01  8320   0.250E+02-0.142E+01
CGA:   4    -0.230951959966E+03   -0.65994E+00   -0.67343E+00  8320   0.679E+01 0.198E+00
CGA:   5    -0.231463931641E+03   -0.51197E+00   -0.51073E+00  8320   0.699E+01 0.823E-01
CGA:   6    -0.231748045841E+03   -0.28411E+00   -0.28298E+00  8320   0.357E+01 0.132E-01
CGA:   7    -0.231919474394E+03   -0.17143E+00   -0.15845E+00  8320   0.933E+00 0.909E-01
CGA:   8    -0.231975879851E+03   -0.56405E-01   -0.56408E-01  8320   0.117E+01 0.285E-03
CGA:   9    -0.232018902843E+03   -0.43023E-01   -0.45634E-01  8320   0.410E+00-0.739E-02
CGA:  10    -0.232041430216E+03   -0.22527E-01   -0.22528E-01  8320   0.267E+00 0.926E-04
CGA:  11    -0.232050864100E+03   -0.94339E-02   -0.88343E-02  8320   0.131E+00 0.884E-02
CGA:  12    -0.232060492864E+03   -0.96288E-02   -0.96457E-02  8320   0.121E+00-0.107E-02
CGA:  13    -0.232064460935E+03   -0.39681E-02   -0.40895E-02  8320   0.748E-01-0.123E-02
CGA:  14    -0.232068694072E+03   -0.42331E-02   -0.42340E-02  8320   0.301E-01 0.136E-03
CGA:  15    -0.232069929661E+03   -0.12356E-02   -0.12269E-02  8320   0.254E-01-0.137E-04
CGA:  16    -0.232071404653E+03   -0.14750E-02   -0.14750E-02  8320   0.152E-01-0.108E-04
CGA:  17    -0.232072295131E+03   -0.89048E-03   -0.89054E-03  8320   0.160E-01 0.641E-04
CGA:  18    -0.232072906860E+03   -0.61173E-03   -0.61217E-03  8320   0.655E-02 0.558E-05
CGA:  19    -0.232073334586E+03   -0.42773E-03   -0.42772E-03  8320   0.482E-02 0.198E-05
CGA:  20    -0.232073518170E+03   -0.18358E-03   -0.18397E-03  8320   0.361E-02 0.414E-05
CGA:  21    -0.232073829038E+03   -0.31087E-03   -0.31058E-03  8320   0.219E-02 0.960E-05
CGA:  22    -0.232073914596E+03   -0.85559E-04   -0.85568E-04  8320   0.184E-02 0.435E-06
CGA:  23    -0.232074054395E+03   -0.13980E-03   -0.13975E-03  8320   0.113E-02 0.176E-05
CGA:  24    -0.232074107904E+03   -0.53509E-04   -0.53505E-04  8320   0.794E-03-0.321E-06
CGA:  25    -0.232074142311E+03   -0.34407E-04   -0.34379E-04  8320   0.519E-03 0.598E-07
CGA:  26    -0.232074195297E+03   -0.52987E-04   -0.52736E-04  8320   0.541E-03 0.540E-05
CGA:  27    -0.232074213707E+03   -0.18410E-04   -0.18485E-04  8320   0.270E-03 0.139E-05
CGA:  28    -0.232074232898E+03   -0.19191E-04   -0.19187E-04  8320   0.141E-03 0.261E-06
CGA:  29    -0.232074241075E+03   -0.81771E-05   -0.81771E-05  8320   0.192E-03 0.112E-07
CGA:  30    -0.232074252388E+03   -0.11313E-04   -0.11312E-04  8320   0.114E-03 0.884E-06
CGA:  31    -0.232074260336E+03   -0.79486E-05   -0.79385E-05  8320   0.855E-04 0.839E-06
   8 F= -.23207426E+03 E0= -.23206184E+03  d E =-.603422E-01  mag=     7.0747
       N       E                     dE             d eps       ncg     rms          ort
SDA:   1    -0.224478663796E+03    0.75956E+01    0.00000E+00  8320   0.229E+02 0.000E+00
CGA:   2    -0.227718079230E+03   -0.32394E+01   -0.31672E+01  8320   0.572E+02-0.125E+01
CGA:   3    -0.230052132691E+03   -0.23341E+01   -0.25776E+01  8320   0.143E+02 0.482E+01
CGA:   4    -0.230652604238E+03   -0.60047E+00   -0.58561E+00  8320   0.116E+02 0.272E+00
CGA:   5    -0.231632652375E+03   -0.98005E+00   -0.97339E+00  8320   0.372E+01 0.207E+00
CGA:   6    -0.231829304938E+03   -0.19665E+00   -0.19501E+00  8320   0.286E+01-0.490E-01
CGA:   7    -0.231941858383E+03   -0.11255E+00   -0.10261E+00  8320   0.136E+01 0.102E+00
CGA:   8    -0.232030181878E+03   -0.88323E-01   -0.88132E-01  8320   0.867E+00 0.375E-01
CGA:   9    -0.232058384054E+03   -0.28202E-01   -0.29907E-01  8320   0.339E+00-0.134E-01
CGA:  10    -0.232086628491E+03   -0.28244E-01   -0.29245E-01  8320   0.175E+00-0.307E-01
CGA:  11    -0.232100350267E+03   -0.13722E-01   -0.13691E-01  8320   0.788E-01 0.959E-03
CGA:  12    -0.232105890422E+03   -0.55402E-02   -0.55251E-02  8320   0.826E-01 0.109E-02
CGA:  13    -0.232109406401E+03   -0.35160E-02   -0.34899E-02  8320   0.230E-01-0.108E-04
CGA:  14    -0.232112661242E+03   -0.32548E-02   -0.32499E-02  8320   0.128E-01 0.569E-04
CGA:  15    -0.232113761581E+03   -0.11003E-02   -0.10971E-02  8320   0.834E-02 0.118E-03
CGA:  16    -0.232114724914E+03   -0.96333E-03   -0.96128E-03  8320   0.637E-02 0.392E-04
CGA:  17    -0.232115052509E+03   -0.32760E-03   -0.32711E-03  8320   0.551E-02-0.295E-05
CGA:  18    -0.232115406010E+03   -0.35350E-03   -0.35371E-03  8320   0.288E-02 0.348E-04
CGA:  19    -0.232115726306E+03   -0.32030E-03   -0.32000E-03  8320   0.120E-02 0.641E-05
CGA:  20    -0.232115871558E+03   -0.14525E-03   -0.14506E-03  8320   0.759E-03 0.373E-05
CGA:  21    -0.232115965774E+03   -0.94217E-04   -0.93799E-04  8320   0.722E-03 0.791E-05
CGA:  22    -0.232115993720E+03   -0.27946E-04   -0.27898E-04  8320   0.354E-03 0.194E-05
CGA:  23    -0.232116022472E+03   -0.28752E-04   -0.28744E-04  8320   0.184E-03 0.846E-06
CGA:  24    -0.232116041283E+03   -0.18811E-04   -0.18754E-04  8320   0.140E-03 0.188E-05
CGA:  25    -0.232116056294E+03   -0.15010E-04   -0.14989E-04  8320   0.645E-04 0.652E-06
CGA:  26    -0.232116062313E+03   -0.60197E-05   -0.60110E-05  8320   0.123E-03 0.483E-06
   9 F= -.23211606E+03 E0= -.23210376E+03  d E =-.418020E-01  mag=     7.0751
       N       E                     dE             d eps       ncg     rms          ort
SDA:   1    -0.222481051398E+03    0.96350E+01    0.00000E+00  8320   0.271E+02 0.000E+00
CGA:   2    -0.227011186769E+03   -0.45301E+01   -0.46044E+01  8320   0.621E+02-0.110E+01
CGA:   3    -0.229503315437E+03   -0.24921E+01   -0.24278E+01  8320   0.247E+02 0.192E+01
CGA:   4    -0.230557160415E+03   -0.10538E+01   -0.13753E+01  8320   0.917E+01 0.302E+01
CGA:   5    -0.231494520201E+03   -0.93736E+00   -0.10878E+01  8320   0.140E+02-0.691E+01
CGA:   6    -0.231758096429E+03   -0.26358E+00   -0.56993E+00  8320   0.278E+01-0.846E+00
CGA:   7    -0.231858563888E+03   -0.10047E+00   -0.66777E-01  8320   0.127E+01 0.117E+01
CGA:   8    -0.231901700680E+03   -0.43137E-01   -0.26059E-01  8320   0.850E+00 0.110E+01
CGA:   9    -0.231941169245E+03   -0.39469E-01   -0.40122E-01  8320   0.104E+01 0.133E-02
CGA:  10    -0.232016149579E+03   -0.74980E-01   -0.75686E-01  8320   0.177E+01-0.130E+00
CGA:  11    -0.232077740719E+03   -0.61591E-01   -0.65668E-01  8320   0.161E+00-0.142E-01
CGA:  12    -0.232087990619E+03   -0.10250E-01   -0.10361E-01  8320   0.221E+00 0.132E-01
CGA:  13    -0.232103131758E+03   -0.15141E-01   -0.15136E-01  8320   0.184E+00-0.379E-03
CGA:  14    -0.232111733499E+03   -0.86017E-02   -0.86344E-02  8320   0.567E-01 0.152E-03
CGA:  15    -0.232117544841E+03   -0.58113E-02   -0.58127E-02  8320   0.349E-01-0.342E-04
CGA:  16    -0.232119689453E+03   -0.21446E-02   -0.21510E-02  8320   0.316E-01 0.347E-03
CGA:  17    -0.232121231103E+03   -0.15417E-02   -0.15354E-02  8320   0.165E-01-0.134E-04
CGA:  18    -0.232122433441E+03   -0.12023E-02   -0.12019E-02  8320   0.656E-02 0.502E-04
CGA:  19    -0.232122986791E+03   -0.55335E-03   -0.55287E-03  8320   0.813E-02 0.232E-04
CGA:  20    -0.232123506630E+03   -0.51984E-03   -0.52057E-03  8320   0.681E-02 0.711E-04
CGA:  21    -0.232123895362E+03   -0.38873E-03   -0.38696E-03  8320   0.292E-02-0.390E-04
CGA:  22    -0.232124211437E+03   -0.31608E-03   -0.31470E-03  8320   0.271E-02 0.304E-04
CGA:  23    -0.232124330586E+03   -0.11915E-03   -0.11924E-03  8320   0.159E-02 0.351E-05
CGA:  24    -0.232124463259E+03   -0.13267E-03   -0.13239E-03  8320   0.907E-03 0.149E-04
CGA:  25    -0.232124526923E+03   -0.63664E-04   -0.63665E-04  8320   0.634E-03-0.139E-05
CGA:  26    -0.232124561944E+03   -0.35021E-04   -0.35083E-04  8320   0.418E-03 0.304E-05
CGA:  27    -0.232124585596E+03   -0.23652E-04   -0.23672E-04  8320   0.200E-03 0.140E-05
CGA:  28    -0.232124608211E+03   -0.22615E-04   -0.22642E-04  8320   0.200E-03-0.717E-06
CGA:  29    -0.232124617849E+03   -0.96380E-05   -0.96105E-05  8320   0.136E-03-0.104E-05
CGA:  30    -0.232124628564E+03   -0.10715E-04   -0.10714E-04  8320   0.792E-04-0.541E-07
CGA:  31    -0.232124635929E+03   -0.73650E-05   -0.73484E-05  8320   0.906E-04 0.634E-06
  10 F= -.23212464E+03 E0= -.23211230E+03  d E =-.857362E-02  mag=     7.0741
       N       E                     dE             d eps       ncg     rms          ort
SDA:   1    -0.224049865073E+03    0.80748E+01    0.00000E+00  8320   0.231E+02 0.000E+00
CGA:   2    -0.227931726831E+03   -0.38819E+01   -0.38993E+01  8320   0.489E+02-0.322E+00
CGA:   3    -0.229381450640E+03   -0.14497E+01   -0.14732E+01  8320   0.310E+02-0.520E+01
CGA:   4    -0.230415117288E+03   -0.10337E+01   -0.11681E+01  8320   0.167E+02 0.707E+00
CGA:   5    -0.231177995678E+03   -0.76288E+00   -0.79479E+00  8320   0.899E+01 0.305E+00
CGA:   6    -0.231730663988E+03   -0.55267E+00   -0.49201E+00  8320   0.324E+01-0.181E+00
CGA:   7    -0.231939097990E+03   -0.20843E+00   -0.20923E+00  8320   0.182E+01 0.110E+00
CGA:   8    -0.232018835684E+03   -0.79738E-01   -0.78542E-01  8320   0.726E+00 0.138E-01
CGA:   9    -0.232069716554E+03   -0.50881E-01   -0.50796E-01  8320   0.451E+00 0.256E-01
CGA:  10    -0.232094514794E+03   -0.24798E-01   -0.23933E-01  8320   0.249E+00-0.790E-02
CGA:  11    -0.232108148222E+03   -0.13633E-01   -0.13719E-01  8320   0.121E+00 0.259E-02
CGA:  12    -0.232117253030E+03   -0.91048E-02   -0.90982E-02  8320   0.101E+00 0.523E-03
CGA:  13    -0.232121824460E+03   -0.45714E-02   -0.46452E-02  8320   0.418E-01 0.246E-03
CGA:  14    -0.232124650831E+03   -0.28264E-02   -0.28305E-02  8320   0.314E-01-0.117E-02
CGA:  15    -0.232126671723E+03   -0.20209E-02   -0.20206E-02  8320   0.219E-01 0.421E-03
CGA:  16    -0.232127774053E+03   -0.11023E-02   -0.11042E-02  8320   0.101E-01 0.342E-04
CGA:  17    -0.232128627402E+03   -0.85335E-03   -0.85145E-03  8320   0.102E-01 0.745E-04
CGA:  18    -0.232129168206E+03   -0.54080E-03   -0.53821E-03  8320   0.571E-02-0.400E-04
CGA:  19    -0.232129612901E+03   -0.44469E-03   -0.44352E-03  8320   0.381E-02 0.653E-04
CGA:  20    -0.232129822793E+03   -0.20989E-03   -0.20987E-03  8320   0.291E-02 0.365E-05
CGA:  21    -0.232130050714E+03   -0.22792E-03   -0.22765E-03  8320   0.179E-02 0.180E-04
CGA:  22    -0.232130158526E+03   -0.10781E-03   -0.10775E-03  8320   0.138E-02-0.182E-05
CGA:  23    -0.232130238929E+03   -0.80403E-04   -0.80494E-04  8320   0.638E-03 0.819E-05
CGA:  24    -0.232130289730E+03   -0.50801E-04   -0.50755E-04  8320   0.672E-03 0.330E-05
CGA:  25    -0.232130324828E+03   -0.35098E-04   -0.35165E-04  8320   0.284E-03 0.368E-05
CGA:  26    -0.232130345202E+03   -0.20375E-04   -0.20376E-04  8320   0.208E-03 0.189E-06
CGA:  27    -0.232130356678E+03   -0.11476E-04   -0.11492E-04  8320   0.142E-03 0.129E-05
CGA:  28    -0.232130368014E+03   -0.11337E-04   -0.11332E-04  8320   0.995E-04 0.242E-06
CGA:  29    -0.232130373307E+03   -0.52923E-05   -0.52932E-05  8320   0.580E-04-0.896E-08
  11 F= -.23213037E+03 E0= -.23211801E+03  d E =-.573738E-02  mag=     7.0832
       N       E                     dE             d eps       ncg     rms          ort
SDA:   1    -0.228442972487E+03    0.36874E+01    0.00000E+00  8320   0.141E+02 0.000E+00
CGA:   2    -0.230117609922E+03   -0.16746E+01   -0.15456E+01  8320   0.119E+02 0.192E+01
CGA:   3    -0.230957820715E+03   -0.84021E+00   -0.86384E+00  8320   0.638E+01 0.286E+01
CGA:   4    -0.231410916240E+03   -0.45310E+00   -0.42005E+00  8320   0.750E+01-0.352E+00
CGA:   5    -0.231791519715E+03   -0.38060E+00   -0.37826E+00  8320   0.537E+01-0.267E-01
CGA:   6    -0.231900524382E+03   -0.10900E+00   -0.14701E+00  8320   0.353E+01-0.708E+00
CGA:   7    -0.232051366104E+03   -0.15084E+00   -0.15137E+00  8320   0.764E+00 0.819E-02
CGA:   8    -0.232081551467E+03   -0.30185E-01   -0.24632E-01  8320   0.525E+00 0.988E-01
CGA:   9    -0.232113774470E+03   -0.32223E-01   -0.32007E-01  8320   0.669E+00-0.897E-02
CGA:  10    -0.232132588214E+03   -0.18814E-01   -0.19743E-01  8320   0.530E+00-0.153E-01
CGA:  11    -0.232149366775E+03   -0.16779E-01   -0.17161E-01  8320   0.141E+00-0.368E-02
CGA:  12    -0.232152800608E+03   -0.34338E-02   -0.33775E-02  8320   0.838E-01 0.159E-02
CGA:  13    -0.232159917506E+03   -0.71169E-02   -0.71500E-02  8320   0.147E+00-0.100E-02
CGA:  14    -0.232163012812E+03   -0.30953E-02   -0.32053E-02  8320   0.352E-01-0.331E-02
CGA:  15    -0.232164932983E+03   -0.19202E-02   -0.19209E-02  8320   0.481E-01 0.586E-03
CGA:  16    -0.232166494445E+03   -0.15615E-02   -0.15561E-02  8320   0.193E-01 0.727E-04
CGA:  17    -0.232167697177E+03   -0.12027E-02   -0.12057E-02  8320   0.264E-01-0.263E-03
CGA:  18    -0.232168455076E+03   -0.75790E-03   -0.76188E-03  8320   0.100E-01-0.422E-04
CGA:  19    -0.232169048338E+03   -0.59326E-03   -0.59235E-03  8320   0.108E-01 0.116E-03
CGA:  20    -0.232169353457E+03   -0.30512E-03   -0.30468E-03  8320   0.387E-02 0.981E-05
CGA:  21    -0.232169621634E+03   -0.26818E-03   -0.26883E-03  8320   0.555E-02-0.313E-04
CGA:  22    -0.232169798239E+03   -0.17660E-03   -0.17716E-03  8320   0.285E-02-0.124E-05
CGA:  23    -0.232169945869E+03   -0.14763E-03   -0.14766E-03  8320   0.180E-02 0.135E-04
CGA:  24    -0.232170005618E+03   -0.59750E-04   -0.59681E-04  8320   0.139E-02-0.664E-06
CGA:  25    -0.232170106258E+03   -0.10064E-03   -0.10073E-03  8320   0.883E-03-0.423E-05
CGA:  26    -0.232170128908E+03   -0.22650E-04   -0.22731E-04  8320   0.440E-03-0.608E-06
CGA:  27    -0.232170170547E+03   -0.41639E-04   -0.41509E-04  8320   0.552E-03 0.344E-05
CGA:  28    -0.232170186466E+03   -0.15919E-04   -0.15891E-04  8320   0.285E-03 0.888E-06
CGA:  29    -0.232170206122E+03   -0.19656E-04   -0.19644E-04  8320   0.223E-03 0.423E-06
CGA:  30    -0.232170213011E+03   -0.68886E-05   -0.69237E-05  8320   0.138E-03 0.104E-05
  12 F= -.23217021E+03 E0= -.23215750E+03  d E =-.398397E-01  mag=     7.1021
       N       E                     dE             d eps       ncg     rms          ort
SDA:   1    -0.231341607666E+03    0.82860E+00    0.00000E+00  8320   0.295E+01 0.000E+00
CGA:   2    -0.231634100685E+03   -0.29249E+00   -0.26278E+00  8320   0.318E+01 0.671E+00
CGA:   3    -0.231854838686E+03   -0.22074E+00   -0.22408E+00  8320   0.352E+01-0.623E+00
CGA:   4    -0.232011511423E+03   -0.15667E+00   -0.15670E+00  8320   0.146E+01-0.187E-01
CGA:   5    -0.232059704585E+03   -0.48193E-01   -0.53407E-01  8320   0.130E+01 0.171E-01
CGA:   6    -0.232128702002E+03   -0.68997E-01   -0.69027E-01  8320   0.519E+00 0.116E-01
CGA:   7    -0.232159899689E+03   -0.31198E-01   -0.31848E-01  8320   0.367E+00-0.567E-01
CGA:   8    -0.232168909903E+03   -0.90102E-02   -0.91729E-02  8320   0.142E+00-0.253E-02
CGA:   9    -0.232178039805E+03   -0.91299E-02   -0.90659E-02  8320   0.708E-01 0.374E-02
CGA:  10    -0.232181201284E+03   -0.31615E-02   -0.31197E-02  8320   0.681E-01-0.104E-02
CGA:  11    -0.232184475363E+03   -0.32741E-02   -0.32734E-02  8320   0.249E-01-0.764E-04
CGA:  12    -0.232185660867E+03   -0.11855E-02   -0.11907E-02  8320   0.246E-01 0.461E-03
CGA:  13    -0.232186585255E+03   -0.92439E-03   -0.92466E-03  8320   0.101E-01 0.786E-05
CGA:  14    -0.232187401100E+03   -0.81584E-03   -0.82189E-03  8320   0.100E-01-0.177E-03
CGA:  15    -0.232187678979E+03   -0.27788E-03   -0.27967E-03  8320   0.395E-02-0.212E-04
CGA:  16    -0.232187943120E+03   -0.26414E-03   -0.26358E-03  8320   0.260E-02 0.317E-04
CGA:  17    -0.232188081637E+03   -0.13852E-03   -0.13852E-03  8320   0.322E-02-0.137E-04
CGA:  18    -0.232188216488E+03   -0.13485E-03   -0.13484E-03  8320   0.889E-03 0.719E-06
CGA:  19    -0.232188275535E+03   -0.59047E-04   -0.58867E-04  8320   0.116E-02 0.107E-04
CGA:  20    -0.232188319556E+03   -0.44022E-04   -0.44038E-04  8320   0.605E-03 0.139E-05
CGA:  21    -0.232188364558E+03   -0.45002E-04   -0.45038E-04  8320   0.356E-03-0.141E-05
CGA:  22    -0.232188377731E+03   -0.13173E-04   -0.13225E-04  8320   0.292E-03 0.208E-05
CGA:  23    -0.232188396749E+03   -0.19018E-04   -0.18977E-04  8320   0.168E-03 0.320E-05
CGA:  24    -0.232188408504E+03   -0.11755E-04   -0.11767E-04  8320   0.189E-03-0.608E-06
CGA:  25    -0.232188414577E+03   -0.60736E-05   -0.60895E-05  8320   0.725E-04 0.631E-06
  13 F= -.23218841E+03 E0= -.23217571E+03  d E =-.182016E-01  mag=     7.1030
       N       E                     dE             d eps       ncg     rms          ort
SDA:   1    -0.231432964099E+03    0.75544E+00    0.00000E+00  8320   0.210E+01 0.000E+00
CGA:   2    -0.231861434993E+03   -0.42847E+00   -0.40858E+00  8320   0.228E+01 0.149E+00
CGA:   3    -0.231991024528E+03   -0.12959E+00   -0.12166E+00  8320   0.225E+01-0.148E+00
CGA:   4    -0.232084688547E+03   -0.93664E-01   -0.94849E-01  8320   0.937E+00 0.151E-01
CGA:   5    -0.232148744268E+03   -0.64056E-01   -0.63099E-01  8320   0.638E+00 0.833E-01
CGA:   6    -0.232169316291E+03   -0.20572E-01   -0.19305E-01  8320   0.171E+00 0.280E-01
CGA:   7    -0.232182878969E+03   -0.13563E-01   -0.13702E-01  8320   0.155E+00-0.583E-02
CGA:   8    -0.232188531266E+03   -0.56523E-02   -0.57915E-02  8320   0.104E+00-0.184E-03
CGA:   9    -0.232192420912E+03   -0.38896E-02   -0.39067E-02  8320   0.237E-01-0.267E-04
CGA:  10    -0.232194144679E+03   -0.17238E-02   -0.17314E-02  8320   0.285E-01-0.341E-03
CGA:  11    -0.232195093531E+03   -0.94885E-03   -0.95025E-03  8320   0.136E-01-0.113E-04
CGA:  12    -0.232196084553E+03   -0.99102E-03   -0.99016E-03  8320   0.572E-02 0.417E-04
CGA:  13    -0.232196285599E+03   -0.20105E-03   -0.19990E-03  8320   0.441E-02 0.621E-05
CGA:  14    -0.232196592939E+03   -0.30734E-03   -0.30740E-03  8320   0.216E-02-0.330E-05
CGA:  15    -0.232196737948E+03   -0.14501E-03   -0.14483E-03  8320   0.265E-02 0.135E-04
CGA:  16    -0.232196826634E+03   -0.88686E-04   -0.88567E-04  8320   0.748E-03 0.146E-05
CGA:  17    -0.232196894188E+03   -0.67554E-04   -0.67680E-04  8320   0.797E-03-0.336E-05
CGA:  18    -0.232196931257E+03   -0.37069E-04   -0.37144E-04  8320   0.786E-03 0.322E-05
CGA:  19    -0.232196972662E+03   -0.41405E-04   -0.41415E-04  8320   0.344E-03 0.156E-05
CGA:  20    -0.232196996663E+03   -0.24001E-04   -0.24034E-04  8320   0.237E-03-0.234E-05
CGA:  21    -0.232197005701E+03   -0.90379E-05   -0.90500E-05  8320   0.203E-03 0.362E-06
CGA:  22    -0.232197024857E+03   -0.19156E-04   -0.19111E-04  8320   0.936E-04 0.123E-05
CGA:  23    -0.232197030308E+03   -0.54511E-05   -0.54506E-05  8320   0.117E-03-0.151E-06
  14 F= -.23219703E+03 E0= -.23218433E+03  d E =-.861573E-02  mag=     7.1018
       N       E                     dE             d eps       ncg     rms          ort
SDA:   1    -0.220699614176E+03    0.11497E+02    0.00000E+00  8320   0.308E+02 0.000E+00
CGA:   2    -0.227114643977E+03   -0.64150E+01   -0.68026E+01  8320   0.597E+02-0.333E+01
CGA:   3    -0.229579924931E+03   -0.24653E+01   -0.26205E+01  8320   0.150E+02 0.146E+01
CGA:   4    -0.231211778358E+03   -0.16319E+01   -0.16099E+01  8320   0.851E+01 0.396E+00
CGA:   5    -0.231682488657E+03   -0.47071E+00   -0.45953E+00  8320   0.836E+01-0.138E+00
CGA:   6    -0.231916875019E+03   -0.23439E+00   -0.27814E+00  8320   0.191E+01-0.357E+00
CGA:   7    -0.232068712730E+03   -0.15184E+00   -0.15119E+00  8320   0.162E+01 0.254E-01
CGA:   8    -0.232117859223E+03   -0.49146E-01   -0.41211E-01  8320   0.489E+00 0.235E+00
CGA:   9    -0.232159758628E+03   -0.41899E-01   -0.41966E-01  8320   0.540E+00-0.390E-02
CGA:  10    -0.232175045923E+03   -0.15287E-01   -0.15984E-01  8320   0.291E+00-0.123E-01
CGA:  11    -0.232192604009E+03   -0.17558E-01   -0.17558E-01  8320   0.176E+00 0.172E-03
CGA:  12    -0.232197011625E+03   -0.44076E-02   -0.42529E-02  8320   0.788E-01 0.451E-02
CGA:  13    -0.232202403062E+03   -0.53914E-02   -0.53825E-02  8320   0.864E-01 0.904E-03
CGA:  14    -0.232205479239E+03   -0.30762E-02   -0.31297E-02  8320   0.575E-01-0.372E-03
CGA:  15    -0.232208205718E+03   -0.27265E-02   -0.27055E-02  8320   0.228E-01-0.375E-03
CGA:  16    -0.232209197430E+03   -0.99171E-03   -0.98904E-03  8320   0.261E-01 0.119E-04
CGA:  17    -0.232210329616E+03   -0.11322E-02   -0.11372E-02  8320   0.122E-01 0.813E-04
CGA:  18    -0.232211074398E+03   -0.74478E-03   -0.74465E-03  8320   0.171E-01 0.297E-04
CGA:  19    -0.232211657866E+03   -0.58347E-03   -0.57951E-03  8320   0.588E-02 0.467E-04
CGA:  20    -0.232212074269E+03   -0.41640E-03   -0.41604E-03  8320   0.774E-02 0.213E-04
CGA:  21    -0.232212298540E+03   -0.22427E-03   -0.22754E-03  8320   0.285E-02-0.352E-04
CGA:  22    -0.232212603456E+03   -0.30492E-03   -0.30387E-03  8320   0.485E-02 0.203E-04
CGA:  23    -0.232212723624E+03   -0.12017E-03   -0.11943E-03  8320   0.952E-03 0.285E-04
CGA:  24    -0.232212828067E+03   -0.10444E-03   -0.10394E-03  8320   0.222E-02 0.939E-05
CGA:  25    -0.232212896341E+03   -0.68275E-04   -0.68726E-04  8320   0.675E-03 0.391E-05
CGA:  26    -0.232212939709E+03   -0.43367E-04   -0.43346E-04  8320   0.530E-03 0.352E-05
CGA:  27    -0.232212957901E+03   -0.18192E-04   -0.18218E-04  8320   0.342E-03 0.168E-05
CGA:  28    -0.232212978346E+03   -0.20446E-04   -0.20433E-04  8320   0.232E-03 0.437E-05
CGA:  29    -0.232212992173E+03   -0.13826E-04   -0.13823E-04  8320   0.304E-03 0.169E-05
CGA:  30    -0.232213003351E+03   -0.11178E-04   -0.11165E-04  8320   0.832E-04 0.133E-06
CGA:  31    -0.232213009541E+03   -0.61902E-05   -0.61766E-05  8320   0.116E-03 0.690E-06
  15 F= -.23221301E+03 E0= -.23220035E+03  d E =-.159792E-01  mag=     7.0970
       N       E                     dE             d eps       ncg     rms          ort
SDA:   1    -0.230038079856E+03    0.21749E+01    0.00000E+00  8320   0.136E+02 0.000E+00
CGA:   2    -0.230487316891E+03   -0.44924E+00   -0.40283E+00  8320   0.779E+01 0.758E+00
CGA:   3    -0.231386826162E+03   -0.89951E+00   -0.87432E+00  8320   0.409E+01 0.447E+00
CGA:   4    -0.231689490541E+03   -0.30266E+00   -0.30823E+00  8320   0.458E+01-0.279E+00
CGA:   5    -0.231853631242E+03   -0.16414E+00   -0.14810E+00  8320   0.407E+01 0.138E+00
CGA:   6    -0.232041606384E+03   -0.18798E+00   -0.19212E+00  8320   0.162E+01 0.108E+00
CGA:   7    -0.232095049346E+03   -0.53443E-01   -0.57082E-01  8320   0.772E+00-0.121E-01
CGA:   8    -0.232152532802E+03   -0.57483E-01   -0.63147E-01  8320   0.488E+00-0.188E+00
CGA:   9    -0.232174362693E+03   -0.21830E-01   -0.21769E-01  8320   0.126E+00 0.135E-01
CGA:  10    -0.232181901878E+03   -0.75392E-02   -0.75388E-02  8320   0.132E+00 0.187E-03
CGA:  11    -0.232189022648E+03   -0.71208E-02   -0.71266E-02  8320   0.599E-01 0.876E-03
CGA:  12    -0.232193317662E+03   -0.42950E-02   -0.43199E-02  8320   0.322E-01-0.118E-02
CGA:  13    -0.232195245115E+03   -0.19275E-02   -0.19258E-02  8320   0.185E-01 0.265E-03
CGA:  14    -0.232196190799E+03   -0.94568E-03   -0.94538E-03  8320   0.148E-01-0.130E-04
CGA:  15    -0.232197165324E+03   -0.97453E-03   -0.97463E-03  8320   0.724E-02-0.555E-05
CGA:  16    -0.232197689333E+03   -0.52401E-03   -0.52383E-03  8320   0.387E-02 0.902E-05
CGA:  17    -0.232197879546E+03   -0.19021E-03   -0.19077E-03  8320   0.321E-02 0.220E-04
CGA:  18    -0.232198123562E+03   -0.24402E-03   -0.24399E-03  8320   0.213E-02 0.109E-05
CGA:  19    -0.232198244406E+03   -0.12084E-03   -0.12084E-03  8320   0.918E-03-0.637E-06
CGA:  20    -0.232198304766E+03   -0.60361E-04   -0.60354E-04  8320   0.954E-03 0.137E-05
CGA:  21    -0.232198355107E+03   -0.50341E-04   -0.50403E-04  8320   0.470E-03 0.652E-05
CGA:  22    -0.232198397204E+03   -0.42097E-04   -0.42073E-04  8320   0.347E-03 0.774E-06
CGA:  23    -0.232198415749E+03   -0.18545E-04   -0.18550E-04  8320   0.263E-03 0.653E-06
CGA:  24    -0.232198430915E+03   -0.15167E-04   -0.15167E-04  8320   0.142E-03 0.340E-06
CGA:  25    -0.232198441806E+03   -0.10891E-04   -0.10852E-04  8320   0.108E-03 0.223E-05
CGA:  26    -0.232198448922E+03   -0.71159E-05   -0.71140E-05  8320   0.930E-04 0.445E-06
  16 F= -.23219845E+03 E0= -.23218604E+03  d E =0.145606E-01  mag=     7.0801
       N       E                     dE             d eps       ncg     rms          ort
SDA:   1    -0.231428841613E+03    0.76960E+00    0.00000E+00  8320   0.388E+01 0.000E+00
CGA:   2    -0.231607249583E+03   -0.17841E+00   -0.17304E+00  8320   0.432E+01-0.396E-01
CGA:   3    -0.231919676668E+03   -0.31243E+00   -0.31025E+00  8320   0.130E+01 0.112E+00
CGA:   4    -0.232044590955E+03   -0.12491E+00   -0.12937E+00  8320   0.150E+01-0.111E+00
CGA:   5    -0.232142931231E+03   -0.98340E-01   -0.98127E-01  8320   0.897E+00 0.143E-01
CGA:   6    -0.232170863825E+03   -0.27933E-01   -0.31842E-01  8320   0.362E+00-0.304E-01
CGA:   7    -0.232198496939E+03   -0.27633E-01   -0.27868E-01  8320   0.165E+00-0.939E-02
CGA:   8    -0.232206580595E+03   -0.80837E-02   -0.80851E-02  8320   0.971E-01 0.352E-04
CGA:   9    -0.232211414647E+03   -0.48341E-02   -0.48215E-02  8320   0.458E-01-0.272E-03
CGA:  10    -0.232214726209E+03   -0.33116E-02   -0.33045E-02  8320   0.265E-01 0.408E-03
CGA:  11    -0.232216138282E+03   -0.14121E-02   -0.14034E-02  8320   0.160E-01-0.313E-03
CGA:  12    -0.232216951631E+03   -0.81335E-03   -0.81349E-03  8320   0.797E-02 0.671E-05
CGA:  13    -0.232217505432E+03   -0.55380E-03   -0.55379E-03  8320   0.488E-02 0.322E-05
CGA:  14    -0.232217835384E+03   -0.32995E-03   -0.32977E-03  8320   0.449E-02 0.178E-04
CGA:  15    -0.232218039888E+03   -0.20450E-03   -0.20341E-03  8320   0.129E-02-0.107E-04
CGA:  16    -0.232218157327E+03   -0.11744E-03   -0.11737E-03  8320   0.147E-02 0.220E-05
CGA:  17    -0.232218231125E+03   -0.73798E-04   -0.73802E-04  8320   0.870E-03 0.573E-06
CGA:  18    -0.232218288453E+03   -0.57327E-04   -0.57308E-04  8320   0.413E-03 0.343E-05
CGA:  19    -0.232218313909E+03   -0.25457E-04   -0.25456E-04  8320   0.349E-03-0.185E-05
CGA:  20    -0.232218336548E+03   -0.22639E-04   -0.22635E-04  8320   0.281E-03 0.887E-06
CGA:  21    -0.232218353670E+03   -0.17123E-04   -0.17123E-04  8320   0.121E-03 0.743E-06
CGA:  22    -0.232218361956E+03   -0.82856E-05   -0.82821E-05  8320   0.120E-03 0.453E-06
  17 F= -.23221836E+03 E0= -.23220600E+03  d E =-.199130E-01  mag=     7.0748
       N       E                     dE             d eps       ncg     rms          ort
SDA:   1    -0.232207536092E+03    0.10818E-01    0.00000E+00  8320   0.130E+00 0.000E+00
CGA:   2    -0.232210734158E+03   -0.31981E-02   -0.29963E-02  8320   0.280E-01 0.631E-02
CGA:   3    -0.232214170110E+03   -0.34360E-02   -0.34436E-02  8320   0.312E-01-0.133E-03
CGA:   4    -0.232216249624E+03   -0.20795E-02   -0.20769E-02  8320   0.301E-01 0.337E-03
CGA:   5    -0.232217302208E+03   -0.10526E-02   -0.10498E-02  8320   0.881E-02 0.342E-04
CGA:   6    -0.232218201272E+03   -0.89906E-03   -0.90044E-03  8320   0.568E-02-0.309E-04
CGA:   7    -0.232218481021E+03   -0.27975E-03   -0.28128E-03  8320   0.330E-02 0.288E-04
CGA:   8    -0.232218602753E+03   -0.12173E-03   -0.12175E-03  8320   0.121E-02 0.818E-06
CGA:   9    -0.232218696056E+03   -0.93304E-04   -0.93339E-04  8320   0.481E-03-0.207E-05
CGA:  10    -0.232218739170E+03   -0.43114E-04   -0.43115E-04  8320   0.385E-03-0.105E-06
CGA:  11    -0.232218752725E+03   -0.13555E-04   -0.13527E-04  8320   0.188E-03-0.430E-06
CGA:  12    -0.232218767646E+03   -0.14921E-04   -0.14921E-04  8320   0.950E-04-0.185E-07
CGA:  13    -0.232218777082E+03   -0.94356E-05   -0.94221E-05  8320   0.367E-04 0.369E-06
  18 F= -.23221878E+03 E0= -.23220643E+03  d E =-.415126E-03  mag=     7.0741
       N       E                     dE             d eps       ncg     rms          ort
SDA:   1    -0.232080112108E+03    0.13866E+00    0.00000E+00  8320   0.608E+00 0.000E+00
CGA:   2    -0.232103421974E+03   -0.23310E-01   -0.21849E-01  8320   0.524E+00 0.168E-01
CGA:   3    -0.232183175185E+03   -0.79753E-01   -0.79744E-01  8320   0.241E+00 0.842E-04
CGA:   4    -0.232200921064E+03   -0.17746E-01   -0.17729E-01  8320   0.209E+00 0.152E-02
CGA:   5    -0.232209314524E+03   -0.83935E-02   -0.82835E-02  8320   0.107E+00 0.912E-03
CGA:   6    -0.232216098848E+03   -0.67843E-02   -0.67866E-02  8320   0.201E-01 0.315E-03
CGA:   7    -0.232218469282E+03   -0.23704E-02   -0.23743E-02  8320   0.112E-01-0.707E-04
CGA:   8    -0.232219048164E+03   -0.57888E-03   -0.57928E-03  8320   0.842E-02 0.553E-05
CGA:   9    -0.232219429933E+03   -0.38177E-03   -0.38480E-03  8320   0.381E-02 0.520E-05
CGA:  10    -0.232219695920E+03   -0.26599E-03   -0.26610E-03  8320   0.156E-02-0.214E-04
CGA:  11    -0.232219863043E+03   -0.16712E-03   -0.16695E-03  8320   0.591E-03 0.393E-05
CGA:  12    -0.232219923203E+03   -0.60160E-04   -0.60174E-04  8320   0.348E-03-0.423E-06
CGA:  13    -0.232219948336E+03   -0.25133E-04   -0.25132E-04  8320   0.458E-03 0.146E-06
CGA:  14    -0.232219967610E+03   -0.19274E-04   -0.19327E-04  8320   0.112E-03 0.799E-06
CGA:  15    -0.232219981321E+03   -0.13712E-04   -0.13726E-04  8320   0.818E-04-0.281E-06
CGA:  16    -0.232219990131E+03   -0.88092E-05   -0.87764E-05  8320   0.567E-04 0.896E-06
  19 F= -.23221999E+03 E0= -.23220767E+03  d E =-.121305E-02  mag=     7.0732
       N       E                     dE             d eps       ncg     rms          ort
SDA:   1    -0.232116390656E+03    0.10359E+00    0.00000E+00  8320   0.474E+00 0.000E+00
CGA:   2    -0.232135671044E+03   -0.19280E-01   -0.17714E-01  8320   0.406E+00 0.227E-01
CGA:   3    -0.232187030250E+03   -0.51359E-01   -0.51381E-01  8320   0.176E+00-0.445E-03
CGA:   4    -0.232204033915E+03   -0.17004E-01   -0.16878E-01  8320   0.136E+00 0.419E-02
CGA:   5    -0.232212750852E+03   -0.87169E-02   -0.86338E-02  8320   0.102E+00-0.175E-02
CGA:   6    -0.232216315592E+03   -0.35647E-02   -0.35691E-02  8320   0.269E-01-0.535E-04
CGA:   7    -0.232218414746E+03   -0.20992E-02   -0.20985E-02  8320   0.116E-01 0.694E-04
CGA:   8    -0.232219415264E+03   -0.10005E-02   -0.10031E-02  8320   0.454E-02-0.128E-03
CGA:   9    -0.232219671291E+03   -0.25603E-03   -0.25717E-03  8320   0.475E-02 0.165E-04
CGA:  10    -0.232219901777E+03   -0.23049E-03   -0.23049E-03  8320   0.144E-02 0.523E-06
CGA:  11    -0.232220042440E+03   -0.14066E-03   -0.14078E-03  8320   0.727E-03-0.378E-05
CGA:  12    -0.232220103412E+03   -0.60972E-04   -0.60934E-04  8320   0.393E-03 0.308E-05
CGA:  13    -0.232220129640E+03   -0.26228E-04   -0.26232E-04  8320   0.448E-03 0.696E-06
CGA:  14    -0.232220150796E+03   -0.21157E-04   -0.21117E-04  8320   0.150E-03-0.279E-06
CGA:  15    -0.232220163651E+03   -0.12855E-04   -0.12840E-04  8320   0.843E-04 0.940E-06
CGA:  16    -0.232220173628E+03   -0.99767E-05   -0.10006E-04  8320   0.769E-04-0.642E-06
  20 F= -.23222017E+03 E0= -.23220790E+03  d E =-.183497E-03  mag=     7.0704
       N       E                     dE             d eps       ncg     rms          ort
SDA:   1    -0.230014446557E+03    0.22057E+01    0.00000E+00  8320   0.732E+01 0.000E+00
CGA:   2    -0.230536055900E+03   -0.52161E+00   -0.51300E+00  8320   0.209E+02-0.119E+01
CGA:   3    -0.231323446146E+03   -0.78739E+00   -0.78562E+00  8320   0.876E+01 0.173E-01
CGA:   4    -0.231557735947E+03   -0.23429E+00   -0.31630E+00  8320   0.665E+01-0.606E+00
CGA:   5    -0.231864910143E+03   -0.30717E+00   -0.31557E+00  8320   0.285E+01 0.708E-01
CGA:   6    -0.232055488072E+03   -0.19058E+00   -0.18976E+00  8320   0.240E+01-0.117E+00
CGA:   7    -0.232117894023E+03   -0.62406E-01   -0.67478E-01  8320   0.751E+00-0.882E-01
CGA:   8    -0.232167151503E+03   -0.49257E-01   -0.49230E-01  8320   0.289E+00 0.122E-01
CGA:   9    -0.232186281554E+03   -0.19130E-01   -0.18990E-01  8320   0.285E+00-0.270E-01
CGA:  10    -0.232195783577E+03   -0.95020E-02   -0.94708E-02  8320   0.985E-01 0.453E-03
CGA:  11    -0.232201387651E+03   -0.56041E-02   -0.56742E-02  8320   0.891E-01 0.334E-02
CGA:  12    -0.232204444737E+03   -0.30571E-02   -0.30584E-02  8320   0.353E-01 0.357E-04
CGA:  13    -0.232207649303E+03   -0.32046E-02   -0.32316E-02  8320   0.319E-01-0.789E-03
CGA:  14    -0.232208542790E+03   -0.89349E-03   -0.90086E-03  8320   0.117E-01-0.139E-03
CGA:  15    -0.232209465408E+03   -0.92262E-03   -0.92080E-03  8320   0.831E-02 0.815E-04
CGA:  16    -0.232209832953E+03   -0.36754E-03   -0.36591E-03  8320   0.758E-02-0.311E-05
CGA:  17    -0.232210286636E+03   -0.45368E-03   -0.45369E-03  8320   0.280E-02 0.128E-05
CGA:  18    -0.232210430497E+03   -0.14386E-03   -0.14454E-03  8320   0.295E-02 0.206E-04
CGA:  19    -0.232210574769E+03   -0.14427E-03   -0.14437E-03  8320   0.145E-02 0.418E-05
CGA:  20    -0.232210692898E+03   -0.11813E-03   -0.11833E-03  8320   0.131E-02-0.797E-05
CGA:  21    -0.232210742527E+03   -0.49629E-04   -0.49703E-04  8320   0.801E-03 0.997E-06
CGA:  22    -0.232210801261E+03   -0.58734E-04   -0.58671E-04  8320   0.441E-03 0.470E-05
CGA:  23    -0.232210827981E+03   -0.26720E-04   -0.26721E-04  8320   0.544E-03 0.770E-06
CGA:  24    -0.232210853403E+03   -0.25422E-04   -0.25447E-04  8320   0.204E-03 0.159E-05
CGA:  25    -0.232210871819E+03   -0.18416E-04   -0.18326E-04  8320   0.238E-03 0.303E-05
CGA:  26    -0.232210880308E+03   -0.84893E-05   -0.85239E-05  8320   0.111E-03 0.118E-05
CGA:  27    -0.232210891086E+03   -0.10778E-04   -0.10699E-04  8320   0.706E-04 0.219E-05
CGA:  28    -0.232210894207E+03   -0.31213E-05   -0.31380E-05  8320   0.629E-04 0.721E-06
  21 F= -.23221089E+03 E0= -.23219886E+03  d E =0.927942E-02  mag=     7.0526
       N       E                     dE             d eps       ncg     rms          ort
SDA:   1    -0.231802975331E+03    0.40792E+00    0.00000E+00  8320   0.172E+01 0.000E+00
CGA:   2    -0.231938037039E+03   -0.13506E+00   -0.13367E+00  8320   0.223E+01 0.625E-01
CGA:   3    -0.232054132388E+03   -0.11610E+00   -0.11748E+00  8320   0.886E+00 0.331E-01
CGA:   4    -0.232122916557E+03   -0.68784E-01   -0.71511E-01  8320   0.740E+00-0.121E+00
CGA:   5    -0.232177383442E+03   -0.54467E-01   -0.53962E-01  8320   0.414E+00 0.176E-01
CGA:   6    -0.232193886737E+03   -0.16503E-01   -0.16636E-01  8320   0.161E+00-0.596E-03
CGA:   7    -0.232206590913E+03   -0.12704E-01   -0.12686E-01  8320   0.989E-01 0.810E-03
CGA:   8    -0.232211597306E+03   -0.50064E-02   -0.49776E-02  8320   0.411E-01-0.456E-03
CGA:   9    -0.232213718332E+03   -0.21210E-02   -0.21288E-02  8320   0.206E-01 0.203E-03
CGA:  10    -0.232215241387E+03   -0.15231E-02   -0.15226E-02  8320   0.129E-01 0.321E-04
CGA:  11    -0.232215918007E+03   -0.67662E-03   -0.67683E-03  8320   0.674E-02 0.724E-05
CGA:  12    -0.232216334167E+03   -0.41616E-03   -0.41612E-03  8320   0.397E-02-0.227E-04
CGA:  13    -0.232216586382E+03   -0.25221E-03   -0.25213E-03  8320   0.219E-02 0.403E-04
CGA:  14    -0.232216731247E+03   -0.14487E-03   -0.14487E-03  8320   0.182E-02 0.871E-08
CGA:  15    -0.232216833493E+03   -0.10225E-03   -0.10225E-03  8320   0.620E-03 0.295E-06
CGA:  16    -0.232216880728E+03   -0.47235E-04   -0.47277E-04  8320   0.700E-03-0.219E-05
CGA:  17    -0.232216924018E+03   -0.43290E-04   -0.43294E-04  8320   0.350E-03 0.279E-05
CGA:  18    -0.232216945889E+03   -0.21871E-04   -0.21872E-04  8320   0.207E-03 0.860E-06
CGA:  19    -0.232216959592E+03   -0.13703E-04   -0.13702E-04  8320   0.160E-03 0.270E-06
CGA:  20    -0.232216970189E+03   -0.10597E-04   -0.10599E-04  8320   0.115E-03-0.618E-06
CGA:  21    -0.232216978003E+03   -0.78146E-05   -0.78120E-05  8320   0.608E-04 0.481E-06
  22 F= -.23221698E+03 E0= -.23220492E+03  d E =-.608380E-02  mag=     7.0544
       N       E                     dE             d eps       ncg     rms          ort
SDA:   1    -0.232190407155E+03    0.26563E-01    0.00000E+00  8320   0.170E+00 0.000E+00
CGA:   2    -0.232196729954E+03   -0.63228E-02   -0.63131E-02  8320   0.117E+00 0.123E-03
CGA:   3    -0.232208425883E+03   -0.11696E-01   -0.11590E-01  8320   0.621E-01 0.245E-02
CGA:   4    -0.232213250257E+03   -0.48244E-02   -0.48626E-02  8320   0.350E-01-0.202E-02
CGA:   5    -0.232217165151E+03   -0.39149E-02   -0.39049E-02  8320   0.134E-01 0.185E-03
CGA:   6    -0.232218091810E+03   -0.92666E-03   -0.92698E-03  8320   0.119E-01-0.999E-04
CGA:   7    -0.232218550894E+03   -0.45908E-03   -0.45969E-03  8320   0.361E-02-0.506E-05
CGA:   8    -0.232218884896E+03   -0.33400E-03   -0.33396E-03  8320   0.107E-02 0.164E-05
CGA:   9    -0.232218994276E+03   -0.10938E-03   -0.10943E-03  8320   0.766E-03-0.120E-05
CGA:  10    -0.232219038297E+03   -0.44021E-04   -0.44028E-04  8320   0.599E-03 0.290E-06
CGA:  11    -0.232219065483E+03   -0.27186E-04   -0.27261E-04  8320   0.209E-03 0.666E-06
CGA:  12    -0.232219086141E+03   -0.20658E-04   -0.20700E-04  8320   0.124E-03-0.123E-05
CGA:  13    -0.232219097234E+03   -0.11093E-04   -0.11074E-04  8320   0.752E-04 0.857E-06
CGA:  14    -0.232219101170E+03   -0.39363E-05   -0.39323E-05  8320   0.635E-04-0.181E-06
  23 F= -.23221910E+03 E0= -.23220701E+03  d E =-.212317E-02  mag=     7.0572
       N       E                     dE             d eps       ncg     rms          ort
SDA:   1    -0.232168190620E+03    0.50907E-01    0.00000E+00  8320   0.161E+00 0.000E+00
CGA:   2    -0.232189184980E+03   -0.20994E-01   -0.21241E-01  8320   0.281E+00-0.381E-02
CGA:   3    -0.232203046465E+03   -0.13861E-01   -0.13820E-01  8320   0.182E+00-0.110E-03
CGA:   4    -0.232211979900E+03   -0.89334E-02   -0.90495E-02  8320   0.531E-01 0.532E-03
CGA:   5    -0.232218056300E+03   -0.60764E-02   -0.61136E-02  8320   0.266E-01-0.747E-03
CGA:   6    -0.232219710608E+03   -0.16543E-02   -0.16607E-02  8320   0.805E-02 0.284E-03
CGA:   7    -0.232220264926E+03   -0.55432E-03   -0.55415E-03  8320   0.850E-02-0.225E-04
CGA:   8    -0.232220626987E+03   -0.36206E-03   -0.36193E-03  8320   0.205E-02 0.182E-05
CGA:   9    -0.232220818508E+03   -0.19152E-03   -0.19153E-03  8320   0.845E-03 0.181E-07
CGA:  10    -0.232220925008E+03   -0.10650E-03   -0.10656E-03  8320   0.420E-03-0.100E-05
CGA:  11    -0.232220946953E+03   -0.21945E-04   -0.21941E-04  8320   0.389E-03-0.778E-07
CGA:  12    -0.232220969761E+03   -0.22808E-04   -0.22828E-04  8320   0.140E-03 0.872E-06
CGA:  13    -0.232220984642E+03   -0.14881E-04   -0.14894E-04  8320   0.797E-04-0.366E-06
CGA:  14    -0.232220991133E+03   -0.64907E-05   -0.64859E-05  8320   0.556E-04 0.563E-06
  24 F= -.23222099E+03 E0= -.23220893E+03  d E =-.188996E-02  mag=     7.0547
       N       E                     dE             d eps       ncg     rms          ort
SDA:   1    -0.232098888380E+03    0.12210E+00    0.00000E+00  8320   0.511E+00 0.000E+00
CGA:   2    -0.232123220329E+03   -0.24332E-01   -0.23750E-01  8320   0.585E+00 0.240E-02
CGA:   3    -0.232184170069E+03   -0.60950E-01   -0.60684E-01  8320   0.238E+00 0.654E-02
CGA:   4    -0.232205325421E+03   -0.21155E-01   -0.21176E-01  8320   0.138E+00-0.998E-03
CGA:   5    -0.232216274029E+03   -0.10949E-01   -0.10944E-01  8320   0.106E+00 0.425E-03
CGA:   6    -0.232219769444E+03   -0.34954E-02   -0.35957E-02  8320   0.259E-01-0.162E-02
CGA:   7    -0.232222094587E+03   -0.23251E-02   -0.23440E-02  8320   0.134E-01-0.697E-03
CGA:   8    -0.232222952070E+03   -0.85748E-03   -0.85895E-03  8320   0.562E-02 0.836E-04
CGA:   9    -0.232223256108E+03   -0.30404E-03   -0.30382E-03  8320   0.489E-02-0.196E-05
CGA:  10    -0.232223550582E+03   -0.29447E-03   -0.29435E-03  8320   0.142E-02-0.424E-05
CGA:  11    -0.232223703368E+03   -0.15279E-03   -0.15275E-03  8320   0.871E-03 0.854E-06
CGA:  12    -0.232223742333E+03   -0.38965E-04   -0.39030E-04  8320   0.602E-03 0.509E-06
CGA:  13    -0.232223787528E+03   -0.45194E-04   -0.45196E-04  8320   0.269E-03-0.221E-06
CGA:  14    -0.232223813312E+03   -0.25784E-04   -0.25771E-04  8320   0.164E-03 0.494E-06
CGA:  15    -0.232223820789E+03   -0.74771E-05   -0.74695E-05  8320   0.124E-03-0.200E-06
CGA:  16    -0.232223833470E+03   -0.12681E-04   -0.12677E-04  8320   0.655E-04 0.131E-06
CGA:  17    -0.232223839148E+03   -0.56783E-05   -0.56775E-05  8320   0.610E-04 0.591E-07
  25 F= -.23222384E+03 E0= -.23221180E+03  d E =-.284802E-02  mag=     7.0534
       N       E                     dE             d eps       ncg     rms          ort
SDA:   1    -0.231723583720E+03    0.50025E+00    0.00000E+00  8320   0.135E+01 0.000E+00
CGA:   2    -0.232037364660E+03   -0.31378E+00   -0.31477E+00  8320   0.133E+01-0.746E-02
CGA:   3    -0.232108490405E+03   -0.71126E-01   -0.70987E-01  8320   0.125E+01 0.313E-02
CGA:   4    -0.232175635885E+03   -0.67145E-01   -0.68580E-01  8320   0.465E+00 0.622E-02
CGA:   5    -0.232211297651E+03   -0.35662E-01   -0.35644E-01  8320   0.129E+00-0.521E-02
CGA:   6    -0.232219797110E+03   -0.84995E-02   -0.85437E-02  8320   0.125E+00 0.143E-02
CGA:   7    -0.232225619970E+03   -0.58229E-02   -0.58004E-02  8320   0.309E-01 0.173E-03
CGA:   8    -0.232228067785E+03   -0.24478E-02   -0.24483E-02  8320   0.172E-01-0.759E-04
CGA:   9    -0.232229234456E+03   -0.11667E-02   -0.11669E-02  8320   0.147E-01 0.124E-04
CGA:  10    -0.232229909997E+03   -0.67554E-03   -0.68293E-03  8320   0.479E-02-0.261E-04
CGA:  11    -0.232230286819E+03   -0.37682E-03   -0.37721E-03  8320   0.275E-02-0.456E-04
CGA:  12    -0.232230486131E+03   -0.19931E-03   -0.19933E-03  8320   0.262E-02 0.807E-05
CGA:  13    -0.232230604393E+03   -0.11826E-03   -0.11836E-03  8320   0.741E-03 0.723E-06
CGA:  14    -0.232230684066E+03   -0.79674E-04   -0.79624E-04  8320   0.663E-03 0.141E-05
CGA:  15    -0.232230719597E+03   -0.35531E-04   -0.35512E-04  8320   0.527E-03 0.626E-07
CGA:  16    -0.232230757668E+03   -0.38071E-04   -0.38073E-04  8320   0.211E-03 0.141E-05
CGA:  17    -0.232230778123E+03   -0.20455E-04   -0.20459E-04  8320   0.269E-03-0.193E-06
CGA:  18    -0.232230791203E+03   -0.13080E-04   -0.13106E-04  8320   0.135E-03 0.659E-06
CGA:  19    -0.232230804261E+03   -0.13058E-04   -0.13035E-04  8320   0.733E-04 0.981E-06
CGA:  20    -0.232230808638E+03   -0.43766E-05   -0.43824E-05  8320   0.689E-04 0.371E-06
  26 F= -.23223081E+03 E0= -.23221882E+03  d E =-.696949E-02  mag=     7.0487
       N       E                     dE             d eps       ncg     rms          ort
SDA:   1    -0.211020576524E+03    0.21210E+02    0.00000E+00  8320   0.869E+02 0.000E+00
CGA:   2    -0.217169609997E+03   -0.61490E+01   -0.62417E+01  8320   0.698E+02 0.257E+02
CGA:   3    -0.222373407607E+03   -0.52038E+01   -0.53058E+01  8320   0.104E+03-0.725E+01
CGA:   4    -0.226894033521E+03   -0.45206E+01   -0.45805E+01  8320   0.209E+03 0.370E+01
CGA:   5    -0.226885637010E+03    0.83965E-02   -0.34356E+01  8320   0.175E+03-0.206E+03
CGA:   6    -0.227382591675E+03   -0.49695E+00   -0.44562E+01  8320   0.207E+03-0.106E+03
CGA:   7    -0.229762280863E+03   -0.23797E+01   -0.38259E+01  8320   0.379E+02-0.568E+02
CGA:   8    -0.230696017994E+03   -0.93374E+00   -0.67204E+00  8320   0.641E+01 0.864E+01
CGA:   9    -0.231008702992E+03   -0.31268E+00   -0.24912E+00  8320   0.119E+02 0.986E+00
CGA:  10    -0.231476443953E+03   -0.46774E+00   -0.45953E+00  8320   0.148E+02 0.323E-01
CGA:  11    -0.231729821974E+03   -0.25338E+00   -0.35357E+00  8320   0.130E+02-0.241E+01
CGA:  12    -0.231848910984E+03   -0.11909E+00   -0.13216E+00  8320   0.243E+01-0.673E+00
CGA:  13    -0.231883344199E+03   -0.34433E-01   -0.36549E-01  8320   0.193E+01-0.104E+00
CGA:  14    -0.231981544715E+03   -0.98201E-01   -0.98206E-01  8320   0.427E+01 0.442E-01
CGA:  15    -0.232065984098E+03   -0.84439E-01   -0.93859E-01  8320   0.126E+01-0.241E+00
CGA:  16    -0.232110754946E+03   -0.44771E-01   -0.44052E-01  8320   0.133E+01-0.454E-02
CGA:  17    -0.232143850974E+03   -0.33096E-01   -0.30581E-01  8320   0.857E+00 0.675E-01
CGA:  18    -0.232184349231E+03   -0.40498E-01   -0.40700E-01  8320   0.901E+00 0.195E-01
CGA:  19    -0.232204034142E+03   -0.19685E-01   -0.23602E-01  8320   0.333E+00-0.588E-01
CGA:  20    -0.232219178580E+03   -0.15144E-01   -0.15140E-01  8320   0.183E+00 0.396E-02
CGA:  21    -0.232225440257E+03   -0.62617E-02   -0.60645E-02  8320   0.152E+00-0.304E-03
CGA:  22    -0.232234923371E+03   -0.94831E-02   -0.94953E-02  8320   0.997E-01-0.649E-03
CGA:  23    -0.232238878440E+03   -0.39551E-02   -0.40230E-02  8320   0.841E-01 0.279E-02
CGA:  24    -0.232242510311E+03   -0.36319E-02   -0.36407E-02  8320   0.568E-01 0.600E-03
CGA:  25    -0.232245939674E+03   -0.34294E-02   -0.34280E-02  8320   0.259E-01 0.784E-04
CGA:  26    -0.232247341479E+03   -0.14018E-02   -0.14012E-02  8320   0.344E-01 0.793E-04
CGA:  27    -0.232249153881E+03   -0.18124E-02   -0.18115E-02  8320   0.193E-01 0.149E-03
CGA:  28    -0.232250360970E+03   -0.12071E-02   -0.12019E-02  8320   0.161E-01 0.284E-03
CGA:  29    -0.232251193645E+03   -0.83267E-03   -0.83234E-03  8320   0.148E-01 0.119E-03
CGA:  30    -0.232251962370E+03   -0.76873E-03   -0.76864E-03  8320   0.641E-02 0.238E-04
CGA:  31    -0.232252431550E+03   -0.46918E-03   -0.46800E-03  8320   0.695E-02 0.394E-04
CGA:  32    -0.232252717763E+03   -0.28621E-03   -0.28803E-03  8320   0.405E-02 0.573E-04
CGA:  33    -0.232253035374E+03   -0.31761E-03   -0.31583E-03  8320   0.338E-02 0.566E-04
CGA:  34    -0.232253269275E+03   -0.23390E-03   -0.23343E-03  8320   0.245E-02 0.211E-04
CGA:  35    -0.232253378892E+03   -0.10962E-03   -0.10952E-03  8320   0.173E-02-0.225E-05
CGA:  36    -0.232253523369E+03   -0.14448E-03   -0.14391E-03  8320   0.127E-02 0.157E-04
SDA:  37    -0.232253615975E+03   -0.92605E-04   -0.92386E-04  8320   0.127E-02 0.826E-05
CGA:  38    -0.232253667306E+03   -0.51331E-04   -0.51320E-04  8320   0.760E-03-0.119E-05
CGA:  39    -0.232253718350E+03   -0.51044E-04   -0.51090E-04  8320   0.425E-03-0.335E-05
CGA:  40    -0.232253771965E+03   -0.53615E-04   -0.53293E-04  8320   0.385E-03 0.463E-05
CGA:  41    -0.232253813339E+03   -0.41374E-04   -0.41498E-04  8320   0.143E-03-0.261E-05
CGA:  42    -0.232253832960E+03   -0.19621E-04   -0.19747E-04  8320   0.132E-03-0.168E-05
CGA:  43    -0.232253842616E+03   -0.96556E-05   -0.96639E-05  8320   0.197E-03-0.109E-05
CGA:  44    -0.232253855543E+03   -0.12927E-04   -0.12931E-04  8320   0.856E-04-0.192E-05
CGA:  45    -0.232253868170E+03   -0.12627E-04   -0.12816E-04  8320   0.773E-04-0.221E-05
CGA:  46    -0.232253876394E+03   -0.82245E-05   -0.82852E-05  8320   0.488E-04-0.150E-05
  27 F= -.23225388E+03 E0= -.23224215E+03  d E =-.230678E-01  mag=     7.0331
       N       E                     dE             d eps       ncg     rms          ort
SDA:   1    -0.194055204888E+03    0.38199E+02    0.00000E+00  8320   0.613E+03 0.000E+00
CGA:   2    -0.210972895092E+03   -0.16918E+02   -0.18324E+02  8320   0.147E+03-0.610E+02
CGA:   3    -0.218583239333E+03   -0.76103E+01   -0.40886E+01  8320   0.364E+02 0.499E+02
CGA:   4    -0.220659134656E+03   -0.20759E+01   -0.18800E+01  8320   0.996E+02-0.436E-02
CGA:   5    -0.223323327171E+03   -0.26642E+01   -0.28014E+01  8320   0.220E+03-0.900E+01
CGA:   6    -0.225260636368E+03   -0.19373E+01   -0.19610E+01  8320   0.147E+03 0.523E+01
CGA:   7    -0.225440606039E+03   -0.17997E+00   -0.20874E+01  8320   0.195E+03-0.161E+03
CGA:   8    -0.227516888691E+03   -0.20763E+01   -0.53359E+01  8320   0.958E+02-0.573E+02
CGA:   9    -0.229520980890E+03   -0.20041E+01   -0.19349E+01  8320   0.160E+02-0.476E+00
CGA:  10    -0.230562452518E+03   -0.10415E+01   -0.10759E+01  8320   0.111E+02-0.207E+01
CGA:  11    -0.231147135184E+03   -0.58468E+00   -0.58532E+00  8320   0.126E+02-0.972E-01
CGA:  12    -0.231379024205E+03   -0.23189E+00   -0.29119E+00  8320   0.289E+01-0.142E+01
CGA:  13    -0.231485839158E+03   -0.10681E+00   -0.10738E+00  8320   0.228E+01 0.158E-01
CGA:  14    -0.231594185506E+03   -0.10835E+00   -0.10897E+00  8320   0.193E+01 0.341E-01
CGA:  15    -0.231710145990E+03   -0.11596E+00   -0.11592E+00  8320   0.201E+01 0.303E-02
CGA:  16    -0.231790185759E+03   -0.80040E-01   -0.82607E-01  8320   0.798E+00 0.438E-01
CGA:  17    -0.231832279158E+03   -0.42093E-01   -0.42193E-01  8320   0.751E+00 0.244E-01
CGA:  18    -0.231871328614E+03   -0.39049E-01   -0.39224E-01  8320   0.348E+00 0.272E-01
CGA:  19    -0.231888866413E+03   -0.17538E-01   -0.17532E-01  8320   0.245E+00-0.427E-03
CGA:  20    -0.231902542428E+03   -0.13676E-01   -0.13653E-01  8320   0.158E+00 0.474E-02
CGA:  21    -0.231912490295E+03   -0.99479E-02   -0.98781E-02  8320   0.114E+00 0.541E-02
CGA:  22    -0.231918125988E+03   -0.56357E-02   -0.56632E-02  8320   0.628E-01 0.193E-02
CGA:  23    -0.231923040418E+03   -0.49144E-02   -0.48972E-02  8320   0.618E-01 0.589E-03
CGA:  24    -0.231926315679E+03   -0.32753E-02   -0.32775E-02  8320   0.348E-01 0.518E-03
CGA:  25    -0.231928749651E+03   -0.24340E-02   -0.24129E-02  8320   0.262E-01 0.105E-02
CGA:  26    -0.231930438291E+03   -0.16886E-02   -0.16853E-02  8320   0.223E-01 0.281E-03
CGA:  27    -0.231931932222E+03   -0.14939E-02   -0.14862E-02  8320   0.106E-01 0.491E-03
CGA:  28    -0.231932614220E+03   -0.68200E-03   -0.68223E-03  8320   0.108E-01-0.168E-04
CGA:  29    -0.231933488419E+03   -0.87420E-03   -0.85645E-03  8320   0.650E-02 0.604E-03
CGA:  30    -0.231934022842E+03   -0.53442E-03   -0.53946E-03  8320   0.832E-02-0.184E-03
CGA:  31    -0.231934562598E+03   -0.53976E-03   -0.53541E-03  8320   0.455E-02 0.353E-03
CGA:  32    -0.231935041416E+03   -0.47882E-03   -0.48670E-03  8320   0.430E-02-0.169E-03
CGA:  33    -0.231935348798E+03   -0.30738E-03   -0.30275E-03  8320   0.467E-02 0.258E-03
CGA:  34    -0.231935687534E+03   -0.33874E-03   -0.34138E-03  8320   0.236E-02-0.222E-03
CGA:  35    -0.231935887767E+03   -0.20023E-03   -0.19583E-03  8320   0.248E-02 0.137E-03
CGA:  36    -0.231936045248E+03   -0.15748E-03   -0.15718E-03  8320   0.126E-02-0.367E-04
CGA:  37    -0.231936159565E+03   -0.11432E-03   -0.11274E-03  8320   0.128E-02 0.453E-04
SDA:  38    -0.231936244533E+03   -0.84968E-04   -0.84952E-04  8320   0.767E-03-0.174E-04
CGA:  39    -0.231936269754E+03   -0.25220E-04   -0.25209E-04  8320   0.343E-03 0.291E-07
CGA:  40    -0.231936332168E+03   -0.62414E-04   -0.62481E-04  8320   0.483E-03-0.633E-06
CGA:  41    -0.231936387864E+03   -0.55697E-04   -0.55877E-04  8320   0.316E-03-0.377E-05
CGA:  42    -0.231936432125E+03   -0.44261E-04   -0.44345E-04  8320   0.142E-03-0.123E-05
CGA:  43    -0.231936454695E+03   -0.22570E-04   -0.22591E-04  8320   0.133E-03-0.263E-06
CGA:  44    -0.231936464291E+03   -0.95955E-05   -0.95926E-05  8320   0.134E-03-0.372E-06
  28 F= -.23193646E+03 E0= -.23192462E+03  d E =0.317412E+00  mag=     7.0229
       N       E                     dE             d eps       ncg     rms          ort
SDA:   1    -0.228058325022E+03    0.38781E+01    0.00000E+00  8320   0.233E+02 0.000E+00
CGA:   2    -0.229070002111E+03   -0.10117E+01   -0.99853E+00  8320   0.184E+02 0.329E+00
CGA:   3    -0.230643981716E+03   -0.15740E+01   -0.15682E+01  8320   0.729E+01 0.390E+00
CGA:   4    -0.231302179721E+03   -0.65820E+00   -0.67853E+00  8320   0.779E+01-0.963E+00
CGA:   5    -0.231691475665E+03   -0.38930E+00   -0.39554E+00  8320   0.603E+01 0.986E-01
CGA:   6    -0.231970413582E+03   -0.27894E+00   -0.29937E+00  8320   0.117E+01-0.294E-01
CGA:   7    -0.232102167358E+03   -0.13175E+00   -0.13549E+00  8320   0.757E+00-0.859E-01
CGA:   8    -0.232142790346E+03   -0.40623E-01   -0.42312E-01  8320   0.308E+00 0.276E-01
CGA:   9    -0.232156983444E+03   -0.14193E-01   -0.14291E-01  8320   0.208E+00-0.225E-03
CGA:  10    -0.232173550055E+03   -0.16567E-01   -0.16566E-01  8320   0.704E-01 0.104E-03
CGA:  11    -0.232180125340E+03   -0.65753E-02   -0.65861E-02  8320   0.425E-01-0.412E-03
CGA:  12    -0.232182608513E+03   -0.24832E-02   -0.24939E-02  8320   0.345E-01 0.154E-03
CGA:  13    -0.232184660554E+03   -0.20520E-02   -0.20560E-02  8320   0.164E-01 0.740E-04
CGA:  14    -0.232185982395E+03   -0.13218E-02   -0.13220E-02  8320   0.665E-02-0.155E-04
CGA:  15    -0.232186540299E+03   -0.55790E-03   -0.55761E-03  8320   0.733E-02 0.213E-04
CGA:  16    -0.232186951352E+03   -0.41105E-03   -0.41203E-03  8320   0.436E-02 0.137E-04
CGA:  17    -0.232187272108E+03   -0.32076E-03   -0.32076E-03  8320   0.129E-02 0.388E-05
CGA:  18    -0.232187404880E+03   -0.13277E-03   -0.13271E-03  8320   0.186E-02 0.180E-05
CGA:  19    -0.232187507985E+03   -0.10311E-03   -0.10319E-03  8320   0.104E-02 0.273E-05
CGA:  20    -0.232187583347E+03   -0.75362E-04   -0.75372E-04  8320   0.376E-03 0.352E-05
CGA:  21    -0.232187620539E+03   -0.37192E-04   -0.37243E-04  8320   0.442E-03-0.203E-05
CGA:  22    -0.232187643973E+03   -0.23434E-04   -0.23431E-04  8320   0.265E-03-0.350E-06
CGA:  23    -0.232187665949E+03   -0.21976E-04   -0.21965E-04  8320   0.125E-03 0.103E-05
CGA:  24    -0.232187675730E+03   -0.97810E-05   -0.97790E-05  8320   0.834E-04 0.603E-06
  29 F= -.23218768E+03 E0= -.23217599E+03  d E =-.251211E+00  mag=     7.0060
       N       E                     dE             d eps       ncg     rms          ort
SDA:   1    -0.230404074877E+03    0.17836E+01    0.00000E+00  8320   0.103E+02 0.000E+00
CGA:   2    -0.230842073831E+03   -0.43800E+00   -0.40664E+00  8320   0.733E+01 0.552E+00
CGA:   3    -0.231596900078E+03   -0.75483E+00   -0.75492E+00  8320   0.286E+01-0.140E-01
CGA:   4    -0.231897209333E+03   -0.30031E+00   -0.30699E+00  8320   0.341E+01-0.179E+00
CGA:   5    -0.232059875594E+03   -0.16267E+00   -0.16635E+00  8320   0.208E+01 0.224E-01
CGA:   6    -0.232165195863E+03   -0.10532E+00   -0.10953E+00  8320   0.490E+00 0.171E-01
CGA:   7    -0.232222515259E+03   -0.57319E-01   -0.57689E-01  8320   0.224E+00-0.760E-02
CGA:   8    -0.232235833600E+03   -0.13318E-01   -0.13361E-01  8320   0.139E+00 0.835E-03
CGA:   9    -0.232243132102E+03   -0.72985E-02   -0.74045E-02  8320   0.838E-01 0.615E-03
CGA:  10    -0.232249299929E+03   -0.61678E-02   -0.61672E-02  8320   0.262E-01-0.811E-03
CGA:  11    -0.232251528145E+03   -0.22282E-02   -0.22282E-02  8320   0.257E-01 0.197E-05
CGA:  12    -0.232252733356E+03   -0.12052E-02   -0.12070E-02  8320   0.114E-01 0.235E-05
CGA:  13    -0.232253792600E+03   -0.10592E-02   -0.10591E-02  8320   0.542E-02 0.978E-05
CGA:  14    -0.232254150352E+03   -0.35775E-03   -0.35768E-03  8320   0.474E-02-0.270E-05
CGA:  15    -0.232254416360E+03   -0.26601E-03   -0.26609E-03  8320   0.227E-02 0.229E-05
CGA:  16    -0.232254658112E+03   -0.24175E-03   -0.24128E-03  8320   0.139E-02 0.120E-04
CGA:  17    -0.232254727510E+03   -0.69398E-04   -0.69396E-04  8320   0.900E-03 0.101E-05
CGA:  18    -0.232254799190E+03   -0.71680E-04   -0.71707E-04  8320   0.618E-03-0.219E-05
CGA:  19    -0.232254854421E+03   -0.55231E-04   -0.55147E-04  8320   0.397E-03 0.435E-05
CGA:  20    -0.232254873708E+03   -0.19287E-04   -0.19305E-04  8320   0.230E-03 0.337E-06
CGA:  21    -0.232254894132E+03   -0.20425E-04   -0.20429E-04  8320   0.161E-03-0.262E-06
CGA:  22    -0.232254906983E+03   -0.12850E-04   -0.12848E-04  8320   0.125E-03 0.175E-06
CGA:  23    -0.232254913478E+03   -0.64954E-05   -0.65071E-05  8320   0.679E-04 0.411E-06
  30 F= -.23225491E+03 E0= -.23224328E+03  d E =-.672377E-01  mag=     7.0052
       N       E                     dE             d eps       ncg     rms          ort
SDA:   1    -0.232029036408E+03    0.22587E+00    0.00000E+00  8320   0.971E+00 0.000E+00
CGA:   2    -0.232092714583E+03   -0.63678E-01   -0.63366E-01  8320   0.141E+01-0.140E-01
CGA:   3    -0.232177667930E+03   -0.84953E-01   -0.85082E-01  8320   0.322E+00 0.382E-02
CGA:   4    -0.232226580935E+03   -0.48913E-01   -0.49138E-01  8320   0.253E+00-0.296E-02
CGA:   5    -0.232246826994E+03   -0.20246E-01   -0.20221E-01  8320   0.996E-01 0.330E-02
CGA:   6    -0.232252247506E+03   -0.54205E-02   -0.54292E-02  8320   0.862E-01 0.308E-04
CGA:   7    -0.232257120144E+03   -0.48726E-02   -0.48644E-02  8320   0.144E-01-0.722E-04
CGA:   8    -0.232259058916E+03   -0.19388E-02   -0.19352E-02  8320   0.774E-02 0.562E-04
CGA:   9    -0.232259681614E+03   -0.62270E-03   -0.62281E-03  8320   0.543E-02-0.228E-04
CGA:  10    -0.232259907240E+03   -0.22563E-03   -0.22587E-03  8320   0.270E-02-0.150E-05
CGA:  11    -0.232260178702E+03   -0.27146E-03   -0.27136E-03  8320   0.100E-02 0.401E-05
CGA:  12    -0.232260287883E+03   -0.10918E-03   -0.10919E-03  8320   0.673E-03-0.348E-06
CGA:  13    -0.232260325662E+03   -0.37779E-04   -0.37787E-04  8320   0.599E-03 0.336E-06
CGA:  14    -0.232260364004E+03   -0.38342E-04   -0.38379E-04  8320   0.235E-03 0.154E-05
CGA:  15    -0.232260390708E+03   -0.26704E-04   -0.26723E-04  8320   0.113E-03-0.438E-06
[...]
CGA:  19    -0.231825367451E+03   -0.12697E-01   -0.12722E-01  8320   0.480E+00 0.880E-03
CGA:  20    -0.231840162787E+03   -0.14795E-01   -0.14949E-01  8320   0.297E+00 0.378E-02
CGA:  21    -0.231847367886E+03   -0.72051E-02   -0.72588E-02  8320   0.187E+00-0.342E-03
CGA:  22    -0.231854331616E+03   -0.69637E-02   -0.69688E-02  8320   0.147E+00 0.125E-02
CGA:  23    -0.231858179252E+03   -0.38476E-02   -0.38230E-02  8320   0.944E-01 0.195E-03
CGA:  24    -0.231862742643E+03   -0.45634E-02   -0.45923E-02  8320   0.136E+00-0.205E-02
CGA:  25    -0.231865978919E+03   -0.32363E-02   -0.32264E-02  8320   0.545E-01 0.640E-04
CGA:  26    -0.231867636878E+03   -0.16580E-02   -0.16665E-02  8320   0.544E-01 0.253E-03
CGA:  27    -0.231869421674E+03   -0.17848E-02   -0.17889E-02  8320   0.284E-01 0.258E-03
CGA:  28    -0.231870259106E+03   -0.83743E-03   -0.83884E-03  8320   0.259E-01 0.104E-04
CGA:  29    -0.231871439404E+03   -0.11803E-02   -0.11806E-02  8320   0.232E-01-0.387E-04
CGA:  30    -0.231872058474E+03   -0.61907E-03   -0.61732E-03  8320   0.166E-01-0.301E-04
CGA:  31    -0.231872937181E+03   -0.87871E-03   -0.87904E-03  8320   0.233E-01-0.208E-04
CGA:  32    -0.231873512637E+03   -0.57546E-03   -0.57573E-03  8320   0.980E-02-0.730E-05
CGA:  33    -0.231873872008E+03   -0.35937E-03   -0.35940E-03  8320   0.101E-01 0.305E-04
CGA:  34    -0.231874167580E+03   -0.29557E-03   -0.29604E-03  8320   0.509E-02 0.205E-04
CGA:  35    -0.231874356182E+03   -0.18860E-03   -0.18860E-03  8320   0.624E-02 0.479E-05
CGA:  36    -0.231874588621E+03   -0.23244E-03   -0.23244E-03  8320   0.397E-02 0.410E-05
CGA:  37    -0.231874708680E+03   -0.12006E-03   -0.12009E-03  8320   0.375E-02 0.353E-05
CGA:  38    -0.231874878843E+03   -0.17016E-03   -0.17007E-03  8320   0.305E-02 0.928E-05
CGA:  39    -0.231874948837E+03   -0.69993E-04   -0.70030E-04  8320   0.143E-02 0.314E-05
SDA:  40    -0.231875019569E+03   -0.70732E-04   -0.70686E-04  8320   0.204E-02 0.264E-05
CGA:  41    -0.231875076906E+03   -0.57338E-04   -0.57341E-04  8320   0.826E-03-0.130E-05
CGA:  42    -0.231875146757E+03   -0.69851E-04   -0.69941E-04  8320   0.532E-03-0.204E-05
CGA:  43    -0.231875197150E+03   -0.50393E-04   -0.50350E-04  8320   0.254E-03 0.778E-06
CGA:  44    -0.231875220830E+03   -0.23679E-04   -0.23819E-04  8320   0.236E-03-0.278E-05
CGA:  45    -0.231875229936E+03   -0.91060E-05   -0.90982E-05  8320   0.162E-03-0.162E-05
CGA:  46    -0.231875247037E+03   -0.17101E-04   -0.17239E-04  8320   0.969E-04-0.229E-05
CGA:  47    -0.231875261028E+03   -0.13991E-04   -0.13889E-04  8320   0.850E-04 0.990E-06
CGA:  48    -0.231875271065E+03   -0.10038E-04   -0.99691E-05  8320   0.509E-04 0.100E-05
CGA:  49    -0.231875278072E+03   -0.70067E-05   -0.70349E-05  8320   0.116E-03-0.400E-06
 143 F= -.23187528E+03 E0= -.23186230E+03  d E =-.381747E+00  mag=     7.0090
       N       E                     dE             d eps       ncg     rms          ort
SDA:   1    -0.230335123235E+03    0.15401E+01    0.00000E+00  8320   0.643E+01 0.000E+00
CGA:   2    -0.230804353827E+03   -0.46923E+00   -0.46261E+00  8320   0.104E+02 0.322E+00
CGA:   3    -0.231321666475E+03   -0.51731E+00   -0.52106E+00  8320   0.265E+01 0.133E+00
CGA:   4    -0.231597664643E+03   -0.27600E+00   -0.28248E+00  8320   0.293E+01-0.131E+00
CGA:   5    -0.231742462578E+03   -0.14480E+00   -0.14442E+00  8320   0.227E+01-0.146E-01
CGA:   6    -0.231836597542E+03   -0.94135E-01   -0.95752E-01  8320   0.554E+00 0.934E-02
CGA:   7    -0.231881652659E+03   -0.45055E-01   -0.44897E-01  8320   0.371E+00 0.508E-02
CGA:   8    -0.231896596022E+03   -0.14943E-01   -0.15056E-01  8320   0.210E+00 0.840E-04
CGA:   9    -0.231909562650E+03   -0.12967E-01   -0.12970E-01  8320   0.628E-01-0.784E-03
CGA:  10    -0.231914156287E+03   -0.45936E-02   -0.46037E-02  8320   0.704E-01-0.500E-03
CGA:  11    -0.231917064080E+03   -0.29078E-02   -0.29022E-02  8320   0.251E-01-0.636E-05
CGA:  12    -0.231919094416E+03   -0.20303E-02   -0.20252E-02  8320   0.120E-01 0.189E-03
CGA:  13    -0.231919696600E+03   -0.60218E-03   -0.60163E-03  8320   0.119E-01-0.926E-05
CGA:  14    -0.231920612763E+03   -0.91616E-03   -0.91861E-03  8320   0.425E-02-0.997E-04
CGA:  15    -0.231920876075E+03   -0.26331E-03   -0.26328E-03  8320   0.408E-02 0.115E-04
CGA:  16    -0.231921073679E+03   -0.19760E-03   -0.19784E-03  8320   0.198E-02 0.620E-05
CGA:  17    -0.231921266456E+03   -0.19278E-03   -0.19286E-03  8320   0.171E-02-0.170E-05
CGA:  18    -0.231921339003E+03   -0.72548E-04   -0.72567E-04  8320   0.990E-03 0.443E-06
CGA:  19    -0.231921409428E+03   -0.70425E-04   -0.70410E-04  8320   0.472E-03 0.128E-05
CGA:  20    -0.231921446010E+03   -0.36582E-04   -0.36564E-04  8320   0.753E-03 0.846E-06
CGA:  21    -0.231921486908E+03   -0.40898E-04   -0.40904E-04  8320   0.168E-03 0.678E-06
CGA:  22    -0.231921499705E+03   -0.12797E-04   -0.12787E-04  8320   0.239E-03 0.627E-06
CGA:  23    -0.231921512845E+03   -0.13140E-04   -0.13147E-04  8320   0.117E-03 0.941E-06
CGA:  24    -0.231921522206E+03   -0.93607E-05   -0.93479E-05  8320   0.866E-04 0.663E-06
 144 F= -.23192152E+03 E0= -.23190856E+03  d E =-.462441E-01  mag=     7.0108
       N       E                     dE             d eps       ncg     rms          ort
SDA:   1    -0.230994922276E+03    0.92659E+00    0.00000E+00  8320   0.335E+01 0.000E+00
CGA:   2    -0.231312935306E+03   -0.31801E+00   -0.31373E+00  8320   0.636E+01 0.108E+00
CGA:   3    -0.231586525556E+03   -0.27359E+00   -0.27044E+00  8320   0.168E+01 0.424E-01
CGA:   4    -0.231752770689E+03   -0.16625E+00   -0.16739E+00  8320   0.137E+01-0.301E-01
CGA:   5    -0.231844775526E+03   -0.92005E-01   -0.91936E-01  8320   0.116E+01 0.982E-02
CGA:   6    -0.231884102977E+03   -0.39327E-01   -0.40205E-01  8320   0.293E+00-0.983E-02
CGA:   7    -0.231907339716E+03   -0.23237E-01   -0.23291E-01  8320   0.178E+00-0.237E-02
CGA:   8    -0.231916068628E+03   -0.87289E-02   -0.87699E-02  8320   0.120E+00 0.642E-03
CGA:   9    -0.231921437372E+03   -0.53687E-02   -0.53675E-02  8320   0.320E-01 0.139E-04
CGA:  10    -0.231924584476E+03   -0.31471E-02   -0.31557E-02  8320   0.381E-01-0.208E-03
CGA:  11    -0.231925916982E+03   -0.13325E-02   -0.13281E-02  8320   0.108E-01 0.572E-04
CGA:  12    -0.231926950878E+03   -0.10339E-02   -0.10324E-02  8320   0.731E-02 0.416E-04
CGA:  13    -0.231927287120E+03   -0.33624E-03   -0.33597E-03  8320   0.597E-02 0.241E-05
CGA:  14    -0.231927766579E+03   -0.47946E-03   -0.48002E-03  8320   0.218E-02-0.227E-04
CGA:  15    -0.231927887270E+03   -0.12069E-03   -0.12073E-03  8320   0.210E-02 0.259E-05
CGA:  16    -0.231928016310E+03   -0.12904E-03   -0.12906E-03  8320   0.126E-02 0.417E-05
CGA:  17    -0.231928117928E+03   -0.10162E-03   -0.10166E-03  8320   0.926E-03-0.162E-05
CGA:  18    -0.231928157146E+03   -0.39218E-04   -0.39229E-04  8320   0.506E-03-0.172E-06
CGA:  19    -0.231928196756E+03   -0.39609E-04   -0.39584E-04  8320   0.352E-03 0.152E-05
CGA:  20    -0.231928221759E+03   -0.25003E-04   -0.24997E-04  8320   0.377E-03 0.772E-06
CGA:  21    -0.231928239327E+03   -0.17569E-04   -0.17580E-04  8320   0.127E-03 0.634E-06
CGA:  22    -0.231928249820E+03   -0.10493E-04   -0.10476E-04  8320   0.119E-03 0.816E-06
CGA:  23    -0.231928255696E+03   -0.58758E-05   -0.58876E-05  8320   0.878E-04 0.722E-06
 145 F= -.23192826E+03 E0= -.23191530E+03  d E =-.673349E-02  mag=     7.0129
       N       E                     dE             d eps       ncg     rms          ort
SDA:   1    -0.231722483599E+03    0.20577E+00    0.00000E+00  8320   0.999E+00 0.000E+00
CGA:   2    -0.231761439692E+03   -0.38956E-01   -0.39448E-01  8320   0.933E+00-0.153E-02
CGA:   3    -0.231856593289E+03   -0.95154E-01   -0.95487E-01  8320   0.439E+00-0.786E-02
CGA:   4    -0.231893685600E+03   -0.37092E-01   -0.36905E-01  8320   0.203E+00 0.677E-02
CGA:   5    -0.231908689255E+03   -0.15004E-01   -0.15006E-01  8320   0.290E+00-0.234E-03
CGA:   6    -0.231919975143E+03   -0.11286E-01   -0.11367E-01  8320   0.413E-01-0.583E-03
CGA:   7    -0.231923942460E+03   -0.39673E-02   -0.39647E-02  8320   0.233E-01 0.723E-04
CGA:   8    -0.231925590889E+03   -0.16484E-02   -0.16489E-02  8320   0.148E-01-0.656E-04
CGA:   9    -0.231926113331E+03   -0.52244E-03   -0.52287E-03  8320   0.684E-02-0.496E-05
CGA:  10    -0.231926641690E+03   -0.52836E-03   -0.52803E-03  8320   0.275E-02 0.182E-04
CGA:  11    -0.231926936135E+03   -0.29444E-03   -0.29474E-03  8320   0.196E-02-0.629E-05
CGA:  12    -0.231927016328E+03   -0.80194E-04   -0.80317E-04  8320   0.131E-02-0.239E-07
CGA:  13    -0.231927097411E+03   -0.81082E-04   -0.81103E-04  8320   0.612E-03 0.266E-05
CGA:  14    -0.231927171472E+03   -0.74061E-04   -0.74121E-04  8320   0.322E-03-0.115E-05
CGA:  15    -0.231927185973E+03   -0.14501E-04   -0.14509E-04  8320   0.316E-03 0.366E-06
CGA:  16    -0.231927213062E+03   -0.27090E-04   -0.27061E-04  8320   0.168E-03 0.153E-05
CGA:  17    -0.231927228541E+03   -0.15478E-04   -0.15489E-04  8320   0.113E-03-0.489E-06
CGA:  18    -0.231927234315E+03   -0.57748E-05   -0.57768E-05  8320   0.105E-03-0.163E-09
 146 F= -.23192723E+03 E0= -.23191426E+03  d E =0.102138E-02  mag=     7.0101
       N       E                     dE             d eps       ncg     rms          ort
SDA:   1    -0.231823247475E+03    0.10398E+00    0.00000E+00  8320   0.349E+00 0.000E+00
CGA:   2    -0.231865691961E+03   -0.42444E-01   -0.42336E-01  8320   0.628E+00 0.188E-02
CGA:   3    -0.231888134566E+03   -0.22443E-01   -0.22595E-01  8320   0.235E+00-0.192E-02
CGA:   4    -0.231905982476E+03   -0.17848E-01   -0.17878E-01  8320   0.138E+00-0.253E-02
CGA:   5    -0.231920004290E+03   -0.14022E-01   -0.13985E-01  8320   0.548E-01 0.924E-03
CGA:   6    -0.231923160849E+03   -0.31566E-02   -0.31492E-02  8320   0.447E-01-0.127E-03
CGA:   7    -0.231924862645E+03   -0.17018E-02   -0.17017E-02  8320   0.147E-01-0.684E-05
CGA:   8    -0.231926147040E+03   -0.12844E-02   -0.12834E-02  8320   0.396E-02 0.392E-04
CGA:   9    -0.231926536337E+03   -0.38930E-03   -0.38947E-03  8320   0.495E-02-0.515E-05
CGA:  10    -0.231926702486E+03   -0.16615E-03   -0.16586E-03  8320   0.157E-02 0.440E-05
CGA:  11    -0.231926847450E+03   -0.14496E-03   -0.14492E-03  8320   0.780E-03 0.176E-05
CGA:  12    -0.231926911719E+03   -0.64269E-04   -0.64287E-04  8320   0.563E-03-0.115E-05
CGA:  13    -0.231926939024E+03   -0.27305E-04   -0.27301E-04  8320   0.495E-03-0.104E-06
CGA:  14    -0.231926967980E+03   -0.28956E-04   -0.28965E-04  8320   0.140E-03 0.589E-06
CGA:  15    -0.231926984926E+03   -0.16946E-04   -0.16948E-04  8320   0.124E-03-0.553E-07
CGA:  16    -0.231926991426E+03   -0.65002E-05   -0.65028E-05  8320   0.131E-03 0.125E-06
 147 F= -.23192699E+03 E0= -.23191401E+03  d E =0.242889E-03  mag=     7.0098
       N       E                     dE             d eps       ncg     rms          ort
SDA:   1    -0.231884205577E+03    0.42779E-01    0.00000E+00  8320   0.156E+00 0.000E+00
CGA:   2    -0.231898918636E+03   -0.14713E-01   -0.14649E-01  8320   0.257E+00 0.207E-02
CGA:   3    -0.231909897282E+03   -0.10979E-01   -0.10913E-01  8320   0.118E+00 0.461E-03
CGA:   4    -0.231918470481E+03   -0.85732E-02   -0.85778E-02  8320   0.502E-01-0.953E-03
CGA:   5    -0.231924139719E+03   -0.56692E-02   -0.56532E-02  8320   0.340E-01 0.329E-03
CGA:   6    -0.231925556070E+03   -0.14164E-02   -0.14189E-02  8320   0.192E-01-0.218E-04
CGA:   7    -0.231926413423E+03   -0.85735E-03   -0.85515E-03  8320   0.592E-02 0.653E-05
CGA:   8    -0.231926991166E+03   -0.57774E-03   -0.57747E-03  8320   0.225E-02 0.837E-05
CGA:   9    -0.231927120683E+03   -0.12952E-03   -0.12950E-03  8320   0.239E-02-0.455E-06
CGA:  10    -0.231927230126E+03   -0.10944E-03   -0.10946E-03  8320   0.652E-03-0.111E-05
CGA:  11    -0.231927299311E+03   -0.69185E-04   -0.69204E-04  8320   0.423E-03-0.505E-06
CGA:  12    -0.231927322726E+03   -0.23414E-04   -0.23410E-04  8320   0.376E-03-0.338E-06
CGA:  13    -0.231927339509E+03   -0.16783E-04   -0.16781E-04  8320   0.131E-03-0.624E-07
CGA:  14    -0.231927354713E+03   -0.15204E-04   -0.15206E-04  8320   0.915E-04-0.939E-08
CGA:  15    -0.231927359486E+03   -0.47731E-05   -0.47702E-05  8320   0.761E-04-0.116E-06
 148 F= -.23192736E+03 E0= -.23191436E+03  d E =-.368060E-03  mag=     7.0111
       N       E                     dE             d eps       ncg     rms          ort
SDA:   1    -0.231783435651E+03    0.14392E+00    0.00000E+00  8320   0.442E+00 0.000E+00
CGA:   2    -0.231840786006E+03   -0.57350E-01   -0.58139E-01  8320   0.817E+00-0.123E-01
CGA:   3    -0.231879217432E+03   -0.38431E-01   -0.38322E-01  8320   0.571E+00-0.811E-04
CGA:   4    -0.231903104122E+03   -0.23887E-01   -0.24360E-01  8320   0.149E+00-0.245E-02
CGA:   5    -0.231920874608E+03   -0.17770E-01   -0.17778E-01  8320   0.685E-01-0.139E-03
CGA:   6    -0.231925505459E+03   -0.46309E-02   -0.46322E-02  8320   0.411E-01 0.141E-03
CGA:   7    -0.231926890486E+03   -0.13850E-02   -0.13782E-02  8320   0.171E-01 0.120E-03
CGA:   8    -0.231928442395E+03   -0.15519E-02   -0.15506E-02  8320   0.481E-02 0.495E-04
CGA:   9    -0.231928917144E+03   -0.47475E-03   -0.47429E-03  8320   0.419E-02 0.128E-04
CGA:  10    -0.231929066941E+03   -0.14980E-03   -0.15006E-03  8320   0.216E-02-0.583E-05
CGA:  11    -0.231929255298E+03   -0.18836E-03   -0.18845E-03  8320   0.864E-03-0.421E-05
CGA:  12    -0.231929328236E+03   -0.72938E-04   -0.72919E-04  8320   0.577E-03 0.119E-05
CGA:  13    -0.231929352711E+03   -0.24476E-04   -0.24468E-04  8320   0.458E-03-0.130E-08
CGA:  14    -0.231929393157E+03   -0.40446E-04   -0.40464E-04  8320   0.146E-03-0.985E-06
CGA:  15    -0.231929407261E+03   -0.14104E-04   -0.14078E-04  8320   0.191E-03 0.998E-06
CGA:  16    -0.231929415674E+03   -0.84131E-05   -0.84262E-05  8320   0.118E-03 0.335E-06
 149 F= -.23192942E+03 E0= -.23191641E+03  d E =-.205619E-02  mag=     7.0131
       N       E                     dE             d eps       ncg     rms          ort
SDA:   1    -0.231885978443E+03    0.43429E-01    0.00000E+00  8320   0.295E+00 0.000E+00
CGA:   2    -0.231895807932E+03   -0.98295E-02   -0.95020E-02  8320   0.166E+00 0.608E-02
CGA:   3    -0.231910127577E+03   -0.14320E-01   -0.14380E-01  8320   0.197E+00-0.271E-02
CGA:   4    -0.231926467597E+03   -0.16340E-01   -0.16317E-01  8320   0.391E-01 0.111E-02
CGA:   5    -0.231929562843E+03   -0.30952E-02   -0.30956E-02  8320   0.511E-01-0.303E-04
CGA:   6    -0.231931420375E+03   -0.18575E-02   -0.18689E-02  8320   0.163E-01-0.146E-03
CGA:   7    -0.231932625283E+03   -0.12049E-02   -0.12049E-02  8320   0.440E-02 0.636E-05
CGA:   8    -0.231933029362E+03   -0.40408E-03   -0.40394E-03  8320   0.243E-02 0.571E-05
CGA:   9    -0.231933184387E+03   -0.15503E-03   -0.15501E-03  8320   0.234E-02-0.217E-05
CGA:  10    -0.231933271390E+03   -0.87003E-04   -0.87017E-04  8320   0.682E-03-0.148E-05
CGA:  11    -0.231933326717E+03   -0.55326E-04   -0.55315E-04  8320   0.383E-03 0.775E-06
CGA:  12    -0.231933371836E+03   -0.45120E-04   -0.45150E-04  8320   0.104E-03-0.655E-06
CGA:  13    -0.231933382834E+03   -0.10998E-04   -0.11002E-04  8320   0.172E-03-0.158E-06
CGA:  14    -0.231933389745E+03   -0.69102E-05   -0.69093E-05  8320   0.871E-04-0.182E-06
 150 F= -.23193339E+03 E0= -.23192040E+03  d E =-.397407E-02  mag=     7.0146
       N       E                     dE             d eps       ncg     rms          ort
SDA:   1    -0.231451331583E+03    0.48205E+00    0.00000E+00  8320   0.148E+01 0.000E+00
CGA:   2    -0.231572411702E+03   -0.12108E+00   -0.12220E+00  8320   0.402E+01-0.671E-01
CGA:   3    -0.231808012868E+03   -0.23560E+00   -0.23544E+00  8320   0.109E+01-0.336E-02
CGA:   4    -0.231873686334E+03   -0.65673E-01   -0.66421E-01  8320   0.673E+00 0.201E-01
CGA:   5    -0.231899353431E+03   -0.25667E-01   -0.25660E-01  8320   0.437E+00 0.114E-02
CGA:   6    -0.231929577662E+03   -0.30224E-01   -0.30217E-01  8320   0.119E+00-0.294E-02
CGA:   7    -0.231938028578E+03   -0.84509E-02   -0.84492E-02  8320   0.593E-01 0.636E-03
CGA:   8    -0.231940826872E+03   -0.27983E-02   -0.27894E-02  8320   0.535E-01 0.115E-04
CGA:   9    -0.231943576807E+03   -0.27499E-02   -0.27481E-02  8320   0.118E-01-0.170E-04
CGA:  10    -0.231944837549E+03   -0.12607E-02   -0.12566E-02  8320   0.618E-02 0.930E-04
CGA:  11    -0.231945284026E+03   -0.44648E-03   -0.44650E-03  8320   0.895E-02-0.793E-05
CGA:  12    -0.231945632558E+03   -0.34853E-03   -0.34762E-03  8320   0.147E-02 0.684E-05
CGA:  13    -0.231945815076E+03   -0.18252E-03   -0.18246E-03  8320   0.117E-02 0.880E-06
CGA:  14    -0.231945915633E+03   -0.10056E-03   -0.10056E-03  8320   0.109E-02 0.214E-06
CGA:  15    -0.231945952096E+03   -0.36463E-04   -0.36528E-04  8320   0.456E-03-0.422E-06
CGA:  16    -0.231946004788E+03   -0.52692E-04   -0.52549E-04  8320   0.346E-03 0.301E-05
CGA:  17    -0.231946037738E+03   -0.32950E-04   -0.32952E-04  8320   0.196E-03-0.755E-07
CGA:  18    -0.231946054900E+03   -0.17163E-04   -0.17156E-04  8320   0.279E-03 0.368E-06
CGA:  19    -0.231946065398E+03   -0.10498E-04   -0.10514E-04  8320   0.103E-03 0.549E-07
CGA:  20    -0.231946077532E+03   -0.12134E-04   -0.12143E-04  8320   0.483E-04-0.246E-06
CGA:  21    -0.231946083385E+03   -0.58525E-05   -0.58405E-05  8320   0.363E-04 0.222E-06
 151 F= -.23194608E+03 E0= -.23193315E+03  d E =-.126936E-01  mag=     7.0189
       N       E                     dE             d eps       ncg     rms          ort
SDA:   1    -0.231899029402E+03    0.47048E-01    0.00000E+00  8320   0.189E+00 0.000E+00
CGA:   2    -0.231907675609E+03   -0.86462E-02   -0.85821E-02  8320   0.224E+00 0.413E-03
CGA:   3    -0.231929849790E+03   -0.22174E-01   -0.22151E-01  8320   0.125E+00 0.745E-03
CGA:   4    -0.231938347367E+03   -0.84976E-02   -0.84920E-02  8320   0.321E-01-0.246E-03
CGA:   5    -0.231942515274E+03   -0.41679E-02   -0.41644E-02  8320   0.189E-01 0.597E-04
CGA:   6    -0.231943570159E+03   -0.10549E-02   -0.10533E-02  8320   0.125E-01-0.148E-04
CGA:   7    -0.231944034209E+03   -0.46405E-03   -0.46310E-03  8320   0.497E-02 0.819E-05
CGA:   8    -0.231944447192E+03   -0.41298E-03   -0.41290E-03  8320   0.152E-02 0.648E-05
CGA:   9    -0.231944608554E+03   -0.16136E-03   -0.16147E-03  8320   0.625E-03-0.251E-05
CGA:  10    -0.231944662348E+03   -0.53794E-04   -0.53772E-04  8320   0.881E-03 0.211E-05
CGA:  11    -0.231944695254E+03   -0.32906E-04   -0.32974E-04  8320   0.251E-03 0.551E-06
CGA:  12    -0.231944715832E+03   -0.20578E-04   -0.20578E-04  8320   0.122E-03 0.126E-06
CGA:  13    -0.231944731189E+03   -0.15357E-04   -0.15302E-04  8320   0.958E-04 0.111E-05
CGA:  14    -0.231944735393E+03   -0.42043E-05   -0.42051E-05  8320   0.721E-04-0.254E-07
 152 F= -.23194474E+03 E0= -.23193183E+03  d E =0.134799E-02  mag=     7.0183
       N       E                     dE             d eps       ncg     rms          ort
SDA:   1    -0.231937439248E+03    0.72919E-02    0.00000E+00  8320   0.452E-01 0.000E+00
CGA:   2    -0.231939327799E+03   -0.18886E-02   -0.18743E-02  8320   0.276E-01 0.139E-03
CGA:   3    -0.231940867086E+03   -0.15393E-02   -0.15386E-02  8320   0.262E-01-0.113E-04
CGA:   4    -0.231943422826E+03   -0.25557E-02   -0.25540E-02  8320   0.674E-02 0.534E-04
CGA:   5    -0.231944110285E+03   -0.68746E-03   -0.68769E-03  8320   0.379E-02-0.625E-05
CGA:   6    -0.231944467750E+03   -0.35746E-03   -0.35742E-03  8320   0.121E-02 0.142E-05
CGA:   7    -0.231944516811E+03   -0.49061E-04   -0.48981E-04  8320   0.947E-03 0.361E-06
CGA:   8    -0.231944579477E+03   -0.62666E-04   -0.62658E-04  8320   0.254E-03-0.926E-06
CGA:   9    -0.231944604944E+03   -0.25467E-04   -0.25456E-04  8320   0.121E-03 0.405E-06
CGA:  10    -0.231944613457E+03   -0.85130E-05   -0.85119E-05  8320   0.132E-03-0.238E-06
 153 F= -.23194461E+03 E0= -.23193172E+03  d E =0.121936E-03  mag=     7.0177
