       N       E                     dE             d eps       ncg     rms          ort
DAV:   1     0.695126017130E+04    0.69513E+04   -0.30573E+05  9360   0.164E+03
DAV:   2     0.465840417625E+03   -0.64854E+04   -0.60230E+04  9360   0.472E+02
DAV:   3    -0.377556448000E+03   -0.84340E+03   -0.82833E+03  9360   0.184E+02
DAV:   4    -0.416377593027E+03   -0.38821E+02   -0.38347E+02  9360   0.359E+01
DAV:   5    -0.418769496656E+03   -0.23919E+01   -0.23707E+01  9360   0.644E+00
SDA:   6    -0.276902511996E+03    0.14187E+03   -0.23707E+01  9360   0.842E+03 0.000E+00
CGA:   7    -0.354117569799E+03   -0.77215E+02   -0.92177E+02  9360   0.445E+03-0.735E+02
CGA:   8    -0.363648500296E+03   -0.95309E+01   -0.26370E+02  9360   0.816E+02-0.696E+02
CGA:   9    -0.362935592206E+03    0.71291E+00   -0.42943E+01  9360   0.531E+03-0.205E+03
CGA:  10    -0.365826023252E+03   -0.28904E+01   -0.39748E+02  9360   0.116E+03-0.477E+02
CGA:  11    -0.370217299953E+03   -0.43913E+01   -0.73866E+01  9360   0.648E+02-0.792E+01
CGA:  12    -0.373999203390E+03   -0.37819E+01   -0.54906E+01  9360   0.353E+02-0.106E+02
CGA:  13    -0.376618575102E+03   -0.26194E+01   -0.23068E+01  9360   0.391E+02 0.110E+02
CGA:  14    -0.373415345628E+03    0.32032E+01   -0.30303E+01  9360   0.706E+02-0.163E+02
CGA:  15    -0.375617816088E+03   -0.22025E+01   -0.21962E+01  9360   0.105E+03 0.423E+02
CGA:  16    -0.377331922018E+03   -0.17141E+01   -0.66039E+01  9360   0.456E+02-0.111E+02
CGA:  17    -0.376814103104E+03    0.51782E+00   -0.18854E+01  9360   0.120E+03-0.784E+02
CGA:  18    -0.375783646827E+03    0.10305E+01   -0.73687E+01  9360   0.114E+03-0.808E+02
CGA:  19    -0.375543964316E+03    0.23968E+00   -0.62083E+01  9360   0.747E+02-0.746E+02
CGA:  20    -0.377355388165E+03   -0.18114E+01   -0.40254E+01  9360   0.257E+02-0.283E+02
CGA:  21    -0.378768697764E+03   -0.14133E+01   -0.47238E+00  9360   0.383E+02 0.415E+02
CGA:  22    -0.378724072427E+03    0.44625E-01   -0.14245E+01  9360   0.665E+02-0.612E+02
CGA:  23    -0.378200151402E+03    0.52392E+00   -0.34951E+01  9360   0.258E+02-0.190E+02
CGA:  24    -0.380254208439E+03   -0.20541E+01   -0.62125E+00  9360   0.709E+01 0.233E+02
CGA:  25    -0.380327256274E+03   -0.73048E-01   -0.19101E+00  9360   0.468E+01-0.458E+01
CGA:  26    -0.380372071815E+03   -0.44816E-01   -0.13115E+00  9360   0.324E+01-0.270E+01
CGA:  27    -0.380424562947E+03   -0.52491E-01   -0.78383E-01  9360   0.129E+01-0.107E+01
CGA:  28    -0.380572271231E+03   -0.14771E+00   -0.13784E+00  9360   0.187E+01 0.122E+00
CGA:  29    -0.380666341120E+03   -0.94070E-01   -0.11879E+00  9360   0.131E+01-0.125E+00
CGA:  30    -0.380737245121E+03   -0.70904E-01   -0.75360E-01  9360   0.600E+00-0.423E-01
CGA:  31    -0.380764388891E+03   -0.27144E-01   -0.29672E-01  9360   0.252E+00-0.264E-01
CGA:  32    -0.380782717178E+03   -0.18328E-01   -0.18745E-01  9360   0.183E+00 0.533E-02
CGA:  33    -0.380796398189E+03   -0.13681E-01   -0.14050E-01  9360   0.125E+00 0.384E-02
CGA:  34    -0.380806657487E+03   -0.10259E-01   -0.10427E-01  9360   0.736E-01 0.421E-02
CGA:  35    -0.380812183960E+03   -0.55265E-02   -0.56559E-02  9360   0.425E-01 0.150E-02
CGA:  36    -0.380816039124E+03   -0.38552E-02   -0.38723E-02  9360   0.259E-01 0.176E-02
CGA:  37    -0.380818450318E+03   -0.24112E-02   -0.24176E-02  9360   0.172E-01 0.794E-03
CGA:  38    -0.380820145201E+03   -0.16949E-02   -0.16939E-02  9360   0.126E-01 0.205E-03
CGA:  39    -0.380821739210E+03   -0.15940E-02   -0.15513E-02  9360   0.112E-01 0.104E-02
CGA:  40    -0.380822885393E+03   -0.11462E-02   -0.11463E-02  9360   0.938E-02-0.524E-03
CGA:  41    -0.380823971451E+03   -0.10861E-02   -0.11058E-02  9360   0.474E-02-0.579E-03
CGA:  42    -0.380824291156E+03   -0.31970E-03   -0.32416E-03  9360   0.191E-02-0.621E-05
CGA:  43    -0.380824560640E+03   -0.26948E-03   -0.27521E-03  9360   0.289E-02-0.106E-03
CGA:  44    -0.380824890142E+03   -0.32950E-03   -0.32716E-03  9360   0.119E-02 0.482E-04
CGA:  45    -0.380824994282E+03   -0.10414E-03   -0.10357E-03  9360   0.907E-03-0.302E-04
CGA:  46    -0.380825123011E+03   -0.12873E-03   -0.13063E-03  9360   0.740E-03-0.377E-04
CGA:  47    -0.380825181262E+03   -0.58252E-04   -0.57889E-04  9360   0.367E-03-0.140E-04
CGA:  48    -0.380825222078E+03   -0.40816E-04   -0.40861E-04  9360   0.284E-03-0.353E-05
CGA:  49    -0.380825250921E+03   -0.28843E-04   -0.28848E-04  9360   0.197E-03-0.708E-07
CGA:  50    -0.380825270756E+03   -0.19835E-04   -0.19833E-04  9360   0.130E-03 0.442E-05
CGA:  51    -0.380825288410E+03   -0.17654E-04   -0.17556E-04  9360   0.154E-03 0.416E-05
CGA:  52    -0.380825303186E+03   -0.14776E-04   -0.14853E-04  9360   0.556E-04 0.811E-05
CGA:  53    -0.380825309080E+03   -0.58947E-05   -0.58980E-05  9360   0.584E-04 0.426E-05
   1 F= -.38082531E+03 E0= -.38081815E+03  d E =-.380825E+03  mag=    58.0000
       N       E                     dE             d eps       ncg     rms          ort
SDA:   1    -0.380826149994E+03   -0.84681E-03    0.00000E+00  9360   0.161E-01 0.000E+00
CGA:   2    -0.380826641123E+03   -0.49113E-03   -0.49055E-03  9360   0.218E-03 0.104E-04
CGA:   3    -0.380826681486E+03   -0.40364E-04   -0.39844E-04  9360   0.119E-03 0.618E-05
CGA:   4    -0.380826696629E+03   -0.15143E-04   -0.15157E-04  9360   0.109E-03-0.679E-06
CGA:   5    -0.380826705661E+03   -0.90324E-05   -0.90059E-05  9360   0.463E-04-0.135E-05
   2 F= -.38082671E+03 E0= -.38081957E+03  d E =-.139658E-02  mag=    58.0000
       N       E                     dE             d eps       ncg     rms          ort
SDA:   1    -0.380815972463E+03    0.10724E-01    0.00000E+00  9360   0.143E+00 0.000E+00
CGA:   2    -0.380846123005E+03   -0.30151E-01   -0.30179E-01  9360   0.953E-01-0.265E-03
CGA:   3    -0.380853320594E+03   -0.71976E-02   -0.72883E-02  9360   0.639E-01 0.261E-03
CGA:   4    -0.380860136924E+03   -0.68163E-02   -0.68167E-02  9360   0.212E-01-0.359E-03
CGA:   5    -0.380862006587E+03   -0.18697E-02   -0.18696E-02  9360   0.111E-01-0.232E-05
CGA:   6    -0.380862797630E+03   -0.79104E-03   -0.79217E-03  9360   0.487E-02 0.763E-06
CGA:   7    -0.380863152921E+03   -0.35529E-03   -0.35471E-03  9360   0.140E-02-0.334E-05
CGA:   8    -0.380863364407E+03   -0.21149E-03   -0.21140E-03  9360   0.978E-03 0.133E-05
CGA:   9    -0.380863425553E+03   -0.61146E-04   -0.61064E-04  9360   0.353E-03 0.106E-05
CGA:  10    -0.380863483158E+03   -0.57605E-04   -0.57428E-04  9360   0.253E-03 0.293E-05
CGA:  11    -0.380863503656E+03   -0.20498E-04   -0.20523E-04  9360   0.182E-03 0.119E-05
CGA:  12    -0.380863521888E+03   -0.18231E-04   -0.18237E-04  9360   0.128E-03 0.141E-05
CGA:  13    -0.380863538361E+03   -0.16473E-04   -0.16457E-04  9360   0.846E-04 0.627E-06
CGA:  14    -0.380863546719E+03   -0.83584E-05   -0.83591E-05  9360   0.690E-04 0.132E-06
   3 F= -.38086355E+03 E0= -.38085644E+03  d E =-.368411E-01  mag=    58.0000
       N       E                     dE             d eps       ncg     rms          ort
SDA:   1    -0.380606232186E+03    0.25731E+00    0.00000E+00  9360   0.109E+01 0.000E+00
CGA:   2    -0.380802126228E+03   -0.19589E+00   -0.19403E+00  9360   0.113E+01 0.235E-01
CGA:   3    -0.380866516233E+03   -0.64390E-01   -0.62183E-01  9360   0.386E+00 0.110E-01
CGA:   4    -0.380926295746E+03   -0.59780E-01   -0.59958E-01  9360   0.206E+00-0.304E-02
CGA:   5    -0.380939161737E+03   -0.12866E-01   -0.13272E-01  9360   0.920E-01-0.169E-02
CGA:   6    -0.380948998501E+03   -0.98368E-02   -0.98376E-02  9360   0.179E-01-0.280E-03
CGA:   7    -0.380951337023E+03   -0.23385E-02   -0.23369E-02  9360   0.148E-01 0.419E-04
CGA:   8    -0.380952427012E+03   -0.10900E-02   -0.10845E-02  9360   0.479E-02-0.557E-05
CGA:   9    -0.380953085608E+03   -0.65860E-03   -0.65803E-03  9360   0.241E-02 0.137E-04
CGA:  10    -0.380953355815E+03   -0.27021E-03   -0.27026E-03  9360   0.217E-02-0.435E-05
CGA:  11    -0.380953564973E+03   -0.20916E-03   -0.20925E-03  9360   0.993E-03 0.628E-05
CGA:  12    -0.380953686113E+03   -0.12114E-03   -0.12114E-03  9360   0.108E-02 0.898E-06
CGA:  13    -0.380953788343E+03   -0.10223E-03   -0.10226E-03  9360   0.711E-03 0.148E-05
CGA:  14    -0.380953847825E+03   -0.59482E-04   -0.59530E-04  9360   0.379E-03 0.203E-07
CGA:  15    -0.380953910336E+03   -0.62511E-04   -0.62575E-04  9360   0.366E-03-0.961E-06
CGA:  16    -0.380953936932E+03   -0.26596E-04   -0.26618E-04  9360   0.138E-03-0.329E-06
CGA:  17    -0.380953960942E+03   -0.24010E-04   -0.23971E-04  9360   0.961E-04 0.592E-06
CGA:  18    -0.380953969733E+03   -0.87914E-05   -0.88014E-05  9360   0.691E-04 0.442E-06
   4 F= -.38095397E+03 E0= -.38094691E+03  d E =-.904230E-01  mag=    58.0000
       N       E                     dE             d eps       ncg     rms          ort
SDA:   1    -0.380333781457E+03    0.62018E+00    0.00000E+00  9360   0.226E+01 0.000E+00
CGA:   2    -0.380805689727E+03   -0.47191E+00   -0.47198E+00  9360   0.101E+01-0.604E-03
CGA:   3    -0.380948509729E+03   -0.14282E+00   -0.14195E+00  9360   0.992E+00 0.225E-01
CGA:   4    -0.381010576368E+03   -0.62067E-01   -0.59160E-01  9360   0.277E+00 0.192E-01
CGA:   5    -0.381043651198E+03   -0.33075E-01   -0.33104E-01  9360   0.168E+00-0.312E-02
CGA:   6    -0.381053157029E+03   -0.95058E-02   -0.98876E-02  9360   0.425E-01-0.294E-02
CGA:   7    -0.381058309469E+03   -0.51524E-02   -0.51586E-02  9360   0.261E-01-0.278E-03
CGA:   8    -0.381060760096E+03   -0.24506E-02   -0.24545E-02  9360   0.782E-02 0.761E-04
CGA:   9    -0.381061742400E+03   -0.98230E-03   -0.98340E-03  9360   0.839E-02-0.416E-04
CGA:  10    -0.381062459029E+03   -0.71663E-03   -0.71838E-03  9360   0.212E-02 0.209E-04
CGA:  11    -0.381062921227E+03   -0.46220E-03   -0.46212E-03  9360   0.327E-02 0.755E-06
CGA:  12    -0.381063131540E+03   -0.21031E-03   -0.21118E-03  9360   0.126E-02-0.246E-05
CGA:  13    -0.381063304007E+03   -0.17247E-03   -0.17238E-03  9360   0.154E-02 0.251E-05
CGA:  14    -0.381063445678E+03   -0.14167E-03   -0.14153E-03  9360   0.825E-03-0.259E-05
CGA:  15    -0.381063529108E+03   -0.83431E-04   -0.83425E-04  9360   0.429E-03-0.523E-06
CGA:  16    -0.381063592928E+03   -0.63819E-04   -0.63824E-04  9360   0.338E-03 0.553E-07
CGA:  17    -0.381063625511E+03   -0.32583E-04   -0.32602E-04  9360   0.194E-03 0.748E-06
CGA:  18    -0.381063642494E+03   -0.16983E-04   -0.16995E-04  9360   0.959E-04 0.675E-06
CGA:  19    -0.381063656059E+03   -0.13565E-04   -0.13530E-04  9360   0.120E-03 0.122E-05
CGA:  20    -0.381063664089E+03   -0.80295E-05   -0.80528E-05  9360   0.294E-04 0.475E-06
   5 F= -.38106366E+03 E0= -.38105669E+03  d E =-.109694E+00  mag=    58.0000
       N       E                     dE             d eps       ncg     rms          ort
SDA:   1    -0.378701471845E+03    0.23622E+01    0.00000E+00  9360   0.805E+01 0.000E+00
CGA:   2    -0.380204892322E+03   -0.15034E+01   -0.15106E+01  9360   0.533E+01-0.816E-01
CGA:   3    -0.380628808502E+03   -0.42392E+00   -0.46279E+00  9360   0.328E+01 0.233E+00
CGA:   4    -0.381011557497E+03   -0.38275E+00   -0.38046E+00  9360   0.124E+01-0.204E+00
CGA:   5    -0.381114231618E+03   -0.10267E+00   -0.10464E+00  9360   0.713E+00 0.149E-01
CGA:   6    -0.381164872454E+03   -0.50641E-01   -0.50637E-01  9360   0.227E+00-0.164E-02
CGA:   7    -0.381183412770E+03   -0.18540E-01   -0.18062E-01  9360   0.105E+00-0.142E-02
CGA:   8    -0.381194711153E+03   -0.11298E-01   -0.11306E-01  9360   0.485E-01 0.154E-02
CGA:   9    -0.381199248602E+03   -0.45374E-02   -0.45067E-02  9360   0.251E-01-0.469E-03
CGA:  10    -0.381202263133E+03   -0.30145E-02   -0.30083E-02  9360   0.134E-01 0.338E-03
CGA:  11    -0.381203531551E+03   -0.12684E-02   -0.12642E-02  9360   0.101E-01-0.658E-04
CGA:  12    -0.381204702619E+03   -0.11711E-02   -0.11709E-02  9360   0.795E-02 0.199E-04
CGA:  13    -0.381205329657E+03   -0.62704E-03   -0.62906E-03  9360   0.442E-02 0.139E-04
CGA:  14    -0.381206001059E+03   -0.67140E-03   -0.67213E-03  9360   0.397E-02-0.125E-04
CGA:  15    -0.381206364393E+03   -0.36333E-03   -0.36396E-03  9360   0.198E-02 0.102E-04
CGA:  16    -0.381206655921E+03   -0.29153E-03   -0.29194E-03  9360   0.176E-02-0.867E-05
CGA:  17    -0.381206804267E+03   -0.14835E-03   -0.14852E-03  9360   0.926E-03 0.881E-06
CGA:  18    -0.381206896317E+03   -0.92050E-04   -0.92059E-04  9360   0.692E-03 0.180E-06
CGA:  19    -0.381206960008E+03   -0.63691E-04   -0.63686E-04  9360   0.360E-03 0.826E-06
CGA:  20    -0.381207001006E+03   -0.40998E-04   -0.40988E-04  9360   0.215E-03 0.147E-05
CGA:  21    -0.381207024347E+03   -0.23341E-04   -0.23342E-04  9360   0.145E-03 0.923E-06
CGA:  22    -0.381207042646E+03   -0.18299E-04   -0.18292E-04  9360   0.111E-03 0.346E-06
CGA:  23    -0.381207052135E+03   -0.94894E-05   -0.94891E-05  9360   0.663E-04-0.357E-08
   6 F= -.38120705E+03 E0= -.38120024E+03  d E =-.143388E+00  mag=    58.0000
       N       E                     dE             d eps       ncg     rms          ort
SDA:   1    -0.375897757032E+03    0.53093E+01    0.00000E+00  9360   0.171E+02 0.000E+00
CGA:   2    -0.378814557051E+03   -0.29168E+01   -0.29636E+01  9360   0.192E+02-0.569E+00
CGA:   3    -0.379868793938E+03   -0.10542E+01   -0.12563E+01  9360   0.789E+01-0.581E+00
CGA:   4    -0.380828923549E+03   -0.96013E+00   -0.96854E+00  9360   0.372E+01-0.316E+00
CGA:   5    -0.381071180228E+03   -0.24226E+00   -0.21882E+00  9360   0.139E+01 0.851E-01
CGA:   6    -0.381242652553E+03   -0.17147E+00   -0.17118E+00  9360   0.333E+00 0.146E-01
CGA:   7    -0.381280169884E+03   -0.37517E-01   -0.37527E-01  9360   0.197E+00-0.194E-02
CGA:   8    -0.381298714977E+03   -0.18545E-01   -0.18567E-01  9360   0.118E+00 0.532E-03
CGA:   9    -0.381306873586E+03   -0.81586E-02   -0.81273E-02  9360   0.398E-01 0.527E-04
CGA:  10    -0.381312875531E+03   -0.60019E-02   -0.60154E-02  9360   0.265E-01-0.236E-03
CGA:  11    -0.381314898223E+03   -0.20227E-02   -0.20368E-02  9360   0.150E-01 0.614E-04
CGA:  12    -0.381316913280E+03   -0.20151E-02   -0.20162E-02  9360   0.954E-02-0.226E-04
CGA:  13    -0.381318022940E+03   -0.11097E-02   -0.11094E-02  9360   0.102E-01 0.246E-04
CGA:  14    -0.381318865009E+03   -0.84207E-03   -0.84594E-03  9360   0.393E-02 0.326E-04
CGA:  15    -0.381319631000E+03   -0.76599E-03   -0.76804E-03  9360   0.399E-02-0.223E-04
CGA:  16    -0.381319963823E+03   -0.33282E-03   -0.33342E-03  9360   0.214E-02 0.185E-05
CGA:  17    -0.381320175267E+03   -0.21144E-03   -0.21147E-03  9360   0.160E-02 0.477E-06
CGA:  18    -0.381320379001E+03   -0.20373E-03   -0.20376E-03  9360   0.843E-03-0.128E-05
CGA:  19    -0.381320441613E+03   -0.62612E-04   -0.62784E-04  9360   0.453E-03 0.104E-05
CGA:  20    -0.381320523217E+03   -0.81604E-04   -0.81417E-04  9360   0.308E-03 0.272E-05
CGA:  21    -0.381320548316E+03   -0.25099E-04   -0.25134E-04  9360   0.230E-03 0.103E-05
CGA:  22    -0.381320576003E+03   -0.27688E-04   -0.27685E-04  9360   0.132E-03 0.163E-06
CGA:  23    -0.381320595423E+03   -0.19419E-04   -0.19447E-04  9360   0.116E-03-0.742E-06
CGA:  24    -0.381320604896E+03   -0.94735E-05   -0.94453E-05  9360   0.608E-04-0.983E-06
   7 F= -.38132060E+03 E0= -.38131406E+03  d E =-.113553E+00  mag=    58.0000
       N       E                     dE             d eps       ncg     rms          ort
SDA:   1    -0.372170036706E+03    0.91506E+01    0.00000E+00  9360   0.248E+02 0.000E+00
CGA:   2    -0.378010813548E+03   -0.58408E+01   -0.60003E+01  9360   0.275E+02-0.720E+00
CGA:   3    -0.379686868121E+03   -0.16761E+01   -0.19112E+01  9360   0.932E+01 0.193E+00
CGA:   4    -0.380850176912E+03   -0.11633E+01   -0.11765E+01  9360   0.475E+01-0.922E+00
CGA:   5    -0.381131318756E+03   -0.28114E+00   -0.27428E+00  9360   0.171E+01 0.328E-02
CGA:   6    -0.381276771233E+03   -0.14545E+00   -0.15152E+00  9360   0.623E+00 0.541E-01
CGA:   7    -0.381343056297E+03   -0.66285E-01   -0.65061E-01  9360   0.251E+00-0.388E-01
CGA:   8    -0.381367322465E+03   -0.24266E-01   -0.24381E-01  9360   0.128E+00 0.540E-02
CGA:   9    -0.381381282520E+03   -0.13960E-01   -0.13936E-01  9360   0.405E-01-0.187E-02
CGA:  10    -0.381386469426E+03   -0.51869E-02   -0.51531E-02  9360   0.293E-01 0.123E-02
CGA:  11    -0.381388966416E+03   -0.24970E-02   -0.24875E-02  9360   0.150E-01-0.271E-04
CGA:  12    -0.381390675230E+03   -0.17088E-02   -0.17092E-02  9360   0.126E-01-0.558E-04
CGA:  13    -0.381391826721E+03   -0.11515E-02   -0.11559E-02  9360   0.603E-02 0.765E-04
CGA:  14    -0.381392843569E+03   -0.10168E-02   -0.10207E-02  9360   0.494E-02-0.543E-04
CGA:  15    -0.381393437833E+03   -0.59426E-03   -0.59362E-03  9360   0.313E-02 0.459E-04
CGA:  16    -0.381393837194E+03   -0.39936E-03   -0.39956E-03  9360   0.221E-02-0.966E-05
CGA:  17    -0.381394087678E+03   -0.25048E-03   -0.25049E-03  9360   0.154E-02 0.191E-05
CGA:  18    -0.381394213488E+03   -0.12581E-03   -0.12599E-03  9360   0.835E-03 0.104E-05
CGA:  19    -0.381394320666E+03   -0.10718E-03   -0.10717E-03  9360   0.490E-03 0.141E-05
CGA:  20    -0.381394378515E+03   -0.57849E-04   -0.57832E-04  9360   0.310E-03 0.308E-05
CGA:  21    -0.381394417864E+03   -0.39349E-04   -0.39342E-04  9360   0.193E-03 0.889E-06
CGA:  22    -0.381394444394E+03   -0.26530E-04   -0.26541E-04  9360   0.181E-03-0.557E-06
CGA:  23    -0.381394459534E+03   -0.15140E-04   -0.15118E-04  9360   0.950E-04-0.759E-06
CGA:  24    -0.381394472377E+03   -0.12843E-04   -0.12879E-04  9360   0.809E-04-0.161E-05
CGA:  25    -0.381394481052E+03   -0.86750E-05   -0.86684E-05  9360   0.382E-04-0.121E-05
   8 F= -.38139448E+03 E0= -.38138836E+03  d E =-.738762E-01  mag=    58.0000
       N       E                     dE             d eps       ncg     rms          ort
SDA:   1    -0.371097325854E+03    0.10297E+02    0.00000E+00  9360   0.271E+02 0.000E+00
CGA:   2    -0.377284668164E+03   -0.61873E+01   -0.65029E+01  9360   0.457E+02-0.203E+01
CGA:   3    -0.379596785009E+03   -0.23121E+01   -0.25900E+01  9360   0.959E+01-0.813E+00
CGA:   4    -0.380856848075E+03   -0.12601E+01   -0.12763E+01  9360   0.422E+01-0.650E+00
CGA:   5    -0.381211898891E+03   -0.35505E+00   -0.35322E+00  9360   0.152E+01 0.902E-02
CGA:   6    -0.381330805546E+03   -0.11891E+00   -0.11884E+00  9360   0.862E+00-0.358E-02
CGA:   7    -0.381408383816E+03   -0.77578E-01   -0.77974E-01  9360   0.176E+00 0.344E-02
CGA:   8    -0.381435785506E+03   -0.27402E-01   -0.27497E-01  9360   0.162E+00-0.177E-02
CGA:   9    -0.381445538342E+03   -0.97528E-02   -0.10218E-01  9360   0.400E-01-0.281E-02
CGA:  10    -0.381450988394E+03   -0.54501E-02   -0.54430E-02  9360   0.266E-01 0.196E-03
CGA:  11    -0.381453280889E+03   -0.22925E-02   -0.22956E-02  9360   0.128E-01 0.220E-04
CGA:  12    -0.381454596788E+03   -0.13159E-02   -0.13170E-02  9360   0.683E-02 0.417E-04
CGA:  13    -0.381455558443E+03   -0.96166E-03   -0.95982E-03  9360   0.470E-02 0.513E-04
CGA:  14    -0.381456000291E+03   -0.44185E-03   -0.44192E-03  9360   0.309E-02 0.399E-05
CGA:  15    -0.381456356543E+03   -0.35625E-03   -0.35624E-03  9360   0.157E-02 0.800E-05
CGA:  16    -0.381456596664E+03   -0.24012E-03   -0.24011E-03  9360   0.122E-02-0.471E-07
CGA:  17    -0.381456688230E+03   -0.91566E-04   -0.91569E-04  9360   0.564E-03 0.435E-06
CGA:  18    -0.381456784636E+03   -0.96406E-04   -0.96271E-04  9360   0.308E-03 0.223E-05
CGA:  19    -0.381456814650E+03   -0.30014E-04   -0.30057E-04  9360   0.254E-03 0.192E-05
CGA:  20    -0.381456846226E+03   -0.31576E-04   -0.31558E-04  9360   0.121E-03 0.236E-05
CGA:  21    -0.381456863479E+03   -0.17253E-04   -0.17231E-04  9360   0.135E-03 0.898E-06
CGA:  22    -0.381456878345E+03   -0.14866E-04   -0.14866E-04  9360   0.774E-04-0.161E-07
CGA:  23    -0.381456888312E+03   -0.99668E-05   -0.99717E-05  9360   0.602E-04-0.441E-06
   9 F= -.38145689E+03 E0= -.38145113E+03  d E =-.624073E-01  mag=    58.0000
       N       E                     dE             d eps       ncg     rms          ort
SDA:   1    -0.380996912558E+03    0.45997E+00    0.00000E+00  9360   0.128E+01 0.000E+00
CGA:   2    -0.381265322669E+03   -0.26841E+00   -0.27323E+00  9360   0.211E+01-0.469E-01
CGA:   3    -0.381378118250E+03   -0.11280E+00   -0.12344E+00  9360   0.500E+00-0.947E-01
CGA:   4    -0.381442197299E+03   -0.64079E-01   -0.63888E-01  9360   0.188E+00 0.838E-02
CGA:   5    -0.381458287893E+03   -0.16091E-01   -0.15551E-01  9360   0.726E-01 0.444E-03
CGA:   6    -0.381466837577E+03   -0.85497E-02   -0.85498E-02  9360   0.215E-01 0.333E-04
CGA:   7    -0.381468711273E+03   -0.18737E-02   -0.18802E-02  9360   0.138E-01 0.287E-04
CGA:   8    -0.381469993835E+03   -0.12826E-02   -0.12795E-02  9360   0.447E-02-0.289E-04
CGA:   9    -0.381470548671E+03   -0.55484E-03   -0.55467E-03  9360   0.174E-02 0.116E-04
CGA:  10    -0.381470754476E+03   -0.20581E-03   -0.20581E-03  9360   0.135E-02-0.290E-05
CGA:  11    -0.381470863996E+03   -0.10952E-03   -0.10967E-03  9360   0.507E-03 0.182E-05
CGA:  12    -0.381470934513E+03   -0.70517E-04   -0.70492E-04  9360   0.364E-03 0.832E-06
CGA:  13    -0.381470976409E+03   -0.41896E-04   -0.41895E-04  9360   0.259E-03-0.705E-07
CGA:  14    -0.381471008510E+03   -0.32101E-04   -0.32101E-04  9360   0.145E-03-0.156E-06
CGA:  15    -0.381471025061E+03   -0.16551E-04   -0.16552E-04  9360   0.149E-03-0.586E-07
CGA:  16    -0.381471041873E+03   -0.16812E-04   -0.16811E-04  9360   0.455E-04-0.358E-06
CGA:  17    -0.381471050335E+03   -0.84623E-05   -0.84290E-05  9360   0.508E-04 0.480E-06
  10 F= -.38147105E+03 E0= -.38146540E+03  d E =-.141620E-01  mag=    58.0000
       N       E                     dE             d eps       ncg     rms          ort
SDA:   1    -0.381385067370E+03    0.85975E-01    0.00000E+00  9360   0.246E+00 0.000E+00
CGA:   2    -0.381438881717E+03   -0.53814E-01   -0.54205E-01  9360   0.379E+00-0.363E-02
CGA:   3    -0.381460157875E+03   -0.21276E-01   -0.22092E-01  9360   0.857E-01-0.763E-02
CGA:   4    -0.381472579799E+03   -0.12422E-01   -0.12404E-01  9360   0.255E-01 0.437E-03
CGA:   5    -0.381475229582E+03   -0.26498E-02   -0.26371E-02  9360   0.139E-01-0.217E-03
CGA:   6    -0.381476397097E+03   -0.11675E-02   -0.11689E-02  9360   0.380E-02 0.244E-05
CGA:   7    -0.381476768805E+03   -0.37171E-03   -0.37203E-03  9360   0.246E-02 0.429E-05
CGA:   8    -0.381476984341E+03   -0.21554E-03   -0.21518E-03  9360   0.766E-03-0.249E-05
CGA:   9    -0.381477086306E+03   -0.10196E-03   -0.10193E-03  9360   0.299E-03 0.126E-05
CGA:  10    -0.381477120486E+03   -0.34180E-04   -0.34180E-04  9360   0.242E-03 0.234E-06
CGA:  11    -0.381477141447E+03   -0.20961E-04   -0.20985E-04  9360   0.102E-03 0.617E-06
CGA:  12    -0.381477155823E+03   -0.14375E-04   -0.14376E-04  9360   0.654E-04-0.285E-07
CGA:  13    -0.381477165359E+03   -0.95362E-05   -0.95378E-05  9360   0.637E-04-0.411E-07
  11 F= -.38147717E+03 E0= -.38147155E+03  d E =-.611502E-02  mag=    58.0000
       N       E                     dE             d eps       ncg     rms          ort
SDA:   1    -0.372858447971E+03    0.86187E+01    0.00000E+00  9360   0.226E+02 0.000E+00
CGA:   2    -0.378832507052E+03   -0.59741E+01   -0.60049E+01  9360   0.179E+02-0.198E+00
CGA:   3    -0.380187426623E+03   -0.13549E+01   -0.15494E+01  9360   0.872E+01 0.447E+00
CGA:   4    -0.381087087841E+03   -0.89966E+00   -0.84872E+00  9360   0.262E+01-0.307E+00
CGA:   5    -0.381338796576E+03   -0.25171E+00   -0.24796E+00  9360   0.116E+01-0.259E-01
CGA:   6    -0.381450545016E+03   -0.11175E+00   -0.11250E+00  9360   0.292E+00 0.118E-01
CGA:   7    -0.381487878699E+03   -0.37334E-01   -0.37279E-01  9360   0.175E+00 0.406E-02
CGA:   8    -0.381502800929E+03   -0.14922E-01   -0.14864E-01  9360   0.729E-01-0.136E-03
CGA:   9    -0.381509987209E+03   -0.71863E-02   -0.72433E-02  9360   0.337E-01 0.104E-02
CGA:  10    -0.381513862475E+03   -0.38753E-02   -0.38725E-02  9360   0.147E-01-0.408E-03
CGA:  11    -0.381515739219E+03   -0.18767E-02   -0.18731E-02  9360   0.835E-02 0.182E-03
CGA:  12    -0.381516709963E+03   -0.97074E-03   -0.97066E-03  9360   0.678E-02-0.175E-04
CGA:  13    -0.381517429464E+03   -0.71950E-03   -0.71967E-03  9360   0.355E-02 0.101E-04
CGA:  14    -0.381517918056E+03   -0.48859E-03   -0.48812E-03  9360   0.234E-02 0.156E-04
CGA:  15    -0.381518242452E+03   -0.32440E-03   -0.32426E-03  9360   0.155E-02 0.491E-05
CGA:  16    -0.381518407353E+03   -0.16490E-03   -0.16491E-03  9360   0.101E-02 0.794E-06
CGA:  17    -0.381518516584E+03   -0.10923E-03   -0.10931E-03  9360   0.591E-03 0.441E-05
CGA:  18    -0.381518594828E+03   -0.78244E-04   -0.78243E-04  9360   0.279E-03 0.949E-06
CGA:  19    -0.381518634293E+03   -0.39465E-04   -0.39411E-04  9360   0.254E-03 0.205E-05
CGA:  20    -0.381518662835E+03   -0.28542E-04   -0.28543E-04  9360   0.162E-03 0.353E-06
CGA:  21    -0.381518681908E+03   -0.19073E-04   -0.19073E-04  9360   0.117E-03-0.773E-08
CGA:  22    -0.381518701168E+03   -0.19260E-04   -0.19304E-04  9360   0.760E-04-0.963E-06
CGA:  23    -0.381518710579E+03   -0.94107E-05   -0.94133E-05  9360   0.629E-04-0.666E-06
  12 F= -.38151871E+03 E0= -.38151343E+03  d E =-.415452E-01  mag=    58.0000
       N       E                     dE             d eps       ncg     rms          ort
SDA:   1    -0.374930083192E+03    0.65886E+01    0.00000E+00  9360   0.172E+02 0.000E+00
CGA:   2    -0.378983577013E+03   -0.40535E+01   -0.41930E+01  9360   0.235E+02-0.900E+00
CGA:   3    -0.380372223150E+03   -0.13886E+01   -0.15033E+01  9360   0.610E+01 0.263E+00
CGA:   4    -0.381171340324E+03   -0.79912E+00   -0.80029E+00  9360   0.257E+01-0.112E+00
CGA:   5    -0.381351933606E+03   -0.18059E+00   -0.17693E+00  9360   0.897E+00 0.686E-01
CGA:   6    -0.381468847489E+03   -0.11691E+00   -0.11691E+00  9360   0.232E+00 0.135E-03
CGA:   7    -0.381498568643E+03   -0.29721E-01   -0.29718E-01  9360   0.132E+00 0.244E-03
CGA:   8    -0.381510427185E+03   -0.11859E-01   -0.11729E-01  9360   0.664E-01-0.512E-03
CGA:   9    -0.381516738351E+03   -0.63112E-02   -0.63415E-02  9360   0.210E-01 0.312E-03
CGA:  10    -0.381519553264E+03   -0.28149E-02   -0.28117E-02  9360   0.148E-01 0.139E-03
CGA:  11    -0.381520935847E+03   -0.13826E-02   -0.13831E-02  9360   0.502E-02 0.842E-05
CGA:  12    -0.381521810005E+03   -0.87416E-03   -0.87469E-03  9360   0.543E-02-0.703E-05
CGA:  13    -0.381522250992E+03   -0.44099E-03   -0.44368E-03  9360   0.215E-02 0.499E-05
CGA:  14    -0.381522647919E+03   -0.39693E-03   -0.39664E-03  9360   0.142E-02 0.414E-05
CGA:  15    -0.381522853931E+03   -0.20601E-03   -0.20595E-03  9360   0.122E-02 0.208E-05
CGA:  16    -0.381522954148E+03   -0.10022E-03   -0.10012E-03  9360   0.534E-03 0.143E-06
CGA:  17    -0.381523051946E+03   -0.97798E-04   -0.97650E-04  9360   0.269E-03 0.234E-05
CGA:  18    -0.381523085786E+03   -0.33840E-04   -0.33839E-04  9360   0.232E-03 0.807E-06
CGA:  19    -0.381523111231E+03   -0.25445E-04   -0.25467E-04  9360   0.140E-03 0.116E-05
CGA:  20    -0.381523130859E+03   -0.19628E-04   -0.19622E-04  9360   0.940E-04 0.364E-06
CGA:  21    -0.381523142140E+03   -0.11281E-04   -0.11280E-04  9360   0.711E-04-0.132E-06
CGA:  22    -0.381523154140E+03   -0.11999E-04   -0.12042E-04  9360   0.464E-04-0.946E-06
CGA:  23    -0.381523158700E+03   -0.45601E-05   -0.45526E-05  9360   0.369E-04-0.301E-06
  13 F= -.38152316E+03 E0= -.38151798E+03  d E =-.444812E-02  mag=    58.0000
       N       E                     dE             d eps       ncg     rms          ort
SDA:   1    -0.380970533517E+03    0.55262E+00    0.00000E+00  9360   0.182E+01 0.000E+00
CGA:   2    -0.381272546738E+03   -0.30201E+00   -0.30235E+00  9360   0.153E+01-0.600E-02
CGA:   3    -0.381391371686E+03   -0.11882E+00   -0.12224E+00  9360   0.813E+00-0.121E-01
CGA:   4    -0.381493906646E+03   -0.10253E+00   -0.10255E+00  9360   0.217E+00-0.654E-02
CGA:   5    -0.381520056703E+03   -0.26150E-01   -0.26192E-01  9360   0.115E+00 0.409E-02
CGA:   6    -0.381530304667E+03   -0.10248E-01   -0.10086E-01  9360   0.331E-01-0.132E-03
CGA:   7    -0.381533746178E+03   -0.34415E-02   -0.34442E-02  9360   0.209E-01 0.421E-04
CGA:   8    -0.381535736991E+03   -0.19908E-02   -0.19917E-02  9360   0.507E-02 0.622E-05
CGA:   9    -0.381536600667E+03   -0.86368E-03   -0.86381E-03  9360   0.370E-02-0.120E-05
CGA:  10    -0.381536896007E+03   -0.29534E-03   -0.29520E-03  9360   0.150E-02 0.173E-05
CGA:  11    -0.381537107369E+03   -0.21136E-03   -0.21122E-03  9360   0.112E-02 0.557E-05
CGA:  12    -0.381537224587E+03   -0.11722E-03   -0.11713E-03  9360   0.429E-03-0.133E-05
CGA:  13    -0.381537298775E+03   -0.74188E-04   -0.74147E-04  9360   0.433E-03 0.623E-06
CGA:  14    -0.381537337507E+03   -0.38732E-04   -0.38709E-04  9360   0.202E-03-0.304E-06
CGA:  15    -0.381537368207E+03   -0.30700E-04   -0.30682E-04  9360   0.146E-03 0.605E-06
CGA:  16    -0.381537386414E+03   -0.18206E-04   -0.18206E-04  9360   0.854E-04 0.477E-06
CGA:  17    -0.381537396672E+03   -0.10259E-04   -0.10261E-04  9360   0.579E-04 0.543E-06
CGA:  18    -0.381537403023E+03   -0.63511E-05   -0.63528E-05  9360   0.383E-04 0.150E-06
  14 F= -.38153740E+03 E0= -.38153228E+03  d E =-.142443E-01  mag=    58.0000
       N       E                     dE             d eps       ncg     rms          ort
SDA:   1    -0.381511987031E+03    0.25410E-01    0.00000E+00  9360   0.837E-01 0.000E+00
CGA:   2    -0.381525054160E+03   -0.13067E-01   -0.12988E-01  9360   0.105E+00 0.177E-02
CGA:   3    -0.381534067546E+03   -0.90134E-02   -0.89281E-02  9360   0.278E-01 0.298E-04
CGA:   4    -0.381537321632E+03   -0.32541E-02   -0.32536E-02  9360   0.164E-01-0.301E-04
CGA:   5    -0.381538875595E+03   -0.15540E-02   -0.15563E-02  9360   0.301E-02 0.187E-04
CGA:   6    -0.381539343746E+03   -0.46815E-03   -0.46824E-03  9360   0.135E-02-0.212E-05
CGA:   7    -0.381539441663E+03   -0.97917E-04   -0.97802E-04  9360   0.592E-03-0.407E-06
CGA:   8    -0.381539519231E+03   -0.77569E-04   -0.77565E-04  9360   0.249E-03 0.170E-06
CGA:   9    -0.381539543975E+03   -0.24744E-04   -0.24737E-04  9360   0.107E-03 0.328E-07
CGA:  10    -0.381539561010E+03   -0.17035E-04   -0.17001E-04  9360   0.673E-04 0.872E-06
CGA:  11    -0.381539567533E+03   -0.65224E-05   -0.65268E-05  9360   0.452E-04 0.206E-06
  15 F= -.38153957E+03 E0= -.38153446E+03  d E =-.216451E-02  mag=    58.0000
       N       E                     dE             d eps       ncg     rms          ort
SDA:   1    -0.381332101566E+03    0.20746E+00    0.00000E+00  9360   0.572E+00 0.000E+00
CGA:   2    -0.381466034964E+03   -0.13393E+00   -0.13364E+00  9360   0.572E+00 0.267E-02
CGA:   3    -0.381505541174E+03   -0.39506E-01   -0.38596E-01  9360   0.208E+00 0.502E-02
CGA:   4    -0.381533840300E+03   -0.28299E-01   -0.28280E-01  9360   0.523E-01 0.106E-02
CGA:   5    -0.381540201546E+03   -0.63612E-02   -0.63549E-02  9360   0.258E-01-0.812E-03
CGA:   6    -0.381542472316E+03   -0.22708E-02   -0.22860E-02  9360   0.776E-02 0.532E-04
CGA:   7    -0.381543283126E+03   -0.81081E-03   -0.81053E-03  9360   0.483E-02-0.667E-05
CGA:   8    -0.381543728797E+03   -0.44567E-03   -0.44565E-03  9360   0.152E-02-0.156E-06
CGA:   9    -0.381543924953E+03   -0.19616E-03   -0.19613E-03  9360   0.645E-03 0.197E-05
CGA:  10    -0.381544019855E+03   -0.94903E-04   -0.94860E-04  9360   0.478E-03 0.158E-05
CGA:  11    -0.381544057748E+03   -0.37893E-04   -0.37888E-04  9360   0.217E-03 0.309E-06
CGA:  12    -0.381544104024E+03   -0.46276E-04   -0.46224E-04  9360   0.139E-03 0.555E-06
CGA:  13    -0.381544121527E+03   -0.17503E-04   -0.17504E-04  9360   0.132E-03-0.365E-06
CGA:  14    -0.381544139097E+03   -0.17570E-04   -0.17569E-04  9360   0.865E-04-0.208E-07
CGA:  15    -0.381544148161E+03   -0.90648E-05   -0.90665E-05  9360   0.476E-04 0.636E-07
  16 F= -.38154415E+03 E0= -.38153906E+03  d E =-.458063E-02  mag=    58.0000
       N       E                     dE             d eps       ncg     rms          ort
SDA:   1    -0.381112467593E+03    0.43167E+00    0.00000E+00  9360   0.111E+01 0.000E+00
CGA:   2    -0.381422292080E+03   -0.30982E+00   -0.30947E+00  9360   0.796E+00 0.246E-02
CGA:   3    -0.381484619512E+03   -0.62327E-01   -0.61203E-01  9360   0.427E+00 0.304E-02
CGA:   4    -0.381531165375E+03   -0.46546E-01   -0.46666E-01  9360   0.937E-01 0.183E-02
CGA:   5    -0.381542096691E+03   -0.10931E-01   -0.10875E-01  9360   0.441E-01-0.167E-02
CGA:   6    -0.381546199508E+03   -0.41028E-02   -0.41342E-02  9360   0.126E-01 0.158E-03
CGA:   7    -0.381547718373E+03   -0.15189E-02   -0.15187E-02  9360   0.883E-02-0.146E-04
CGA:   8    -0.381548425716E+03   -0.70734E-03   -0.70772E-03  9360   0.249E-02-0.106E-07
CGA:   9    -0.381548755671E+03   -0.32996E-03   -0.32992E-03  9360   0.110E-02 0.249E-05
CGA:  10    -0.381548920689E+03   -0.16502E-03   -0.16499E-03  9360   0.685E-03 0.954E-06
CGA:  11    -0.381548980437E+03   -0.59748E-04   -0.59723E-04  9360   0.444E-03 0.623E-07
CGA:  12    -0.381549062839E+03   -0.82402E-04   -0.82357E-04  9360   0.251E-03 0.694E-06
CGA:  13    -0.381549095900E+03   -0.33061E-04   -0.33065E-04  9360   0.243E-03-0.623E-06
CGA:  14    -0.381549132082E+03   -0.36182E-04   -0.36175E-04  9360   0.151E-03 0.157E-06
CGA:  15    -0.381549146159E+03   -0.14077E-04   -0.14080E-04  9360   0.902E-04 0.839E-07
CGA:  16    -0.381549160036E+03   -0.13877E-04   -0.13861E-04  9360   0.501E-04 0.563E-06
CGA:  17    -0.381549166808E+03   -0.67719E-05   -0.67712E-05  9360   0.261E-04 0.140E-06
  17 F= -.38154917E+03 E0= -.38154410E+03  d E =-.501865E-02  mag=    58.0000
       N       E                     dE             d eps       ncg     rms          ort
SDA:   1    -0.378342470484E+03    0.32067E+01    0.00000E+00  9360   0.821E+01 0.000E+00
CGA:   2    -0.380482975710E+03   -0.21405E+01   -0.21447E+01  9360   0.795E+01-0.200E-01
CGA:   3    -0.381021548004E+03   -0.53857E+00   -0.61775E+00  9360   0.370E+01-0.521E+00
CGA:   4    -0.381391740985E+03   -0.37019E+00   -0.36373E+00  9360   0.808E+00-0.653E-01
CGA:   5    -0.381492980867E+03   -0.10124E+00   -0.10123E+00  9360   0.343E+00-0.321E-02
CGA:   6    -0.381521853976E+03   -0.28873E-01   -0.28991E-01  9360   0.138E+00 0.341E-03
CGA:   7    -0.381535795473E+03   -0.13941E-01   -0.13978E-01  9360   0.568E-01 0.361E-03
CGA:   8    -0.381542009641E+03   -0.62142E-02   -0.62038E-02  9360   0.268E-01-0.212E-03
CGA:   9    -0.381544626467E+03   -0.26168E-02   -0.26365E-02  9360   0.958E-02 0.178E-03
CGA:  10    -0.381545883773E+03   -0.12573E-02   -0.12575E-02  9360   0.663E-02-0.178E-04
CGA:  11    -0.381546444886E+03   -0.56111E-03   -0.56179E-03  9360   0.251E-02 0.220E-05
CGA:  12    -0.381546927500E+03   -0.48261E-03   -0.48244E-03  9360   0.181E-02 0.246E-05
CGA:  13    -0.381547119575E+03   -0.19207E-03   -0.19220E-03  9360   0.139E-02 0.327E-05
CGA:  14    -0.381547299744E+03   -0.18017E-03   -0.18018E-03  9360   0.792E-03-0.590E-06
CGA:  15    -0.381547421069E+03   -0.12133E-03   -0.12120E-03  9360   0.531E-03 0.340E-05
CGA:  16    -0.381547475337E+03   -0.54268E-04   -0.54258E-04  9360   0.352E-03 0.163E-06
CGA:  17    -0.381547524947E+03   -0.49610E-04   -0.49588E-04  9360   0.185E-03 0.128E-05
CGA:  18    -0.381547544712E+03   -0.19766E-04   -0.19775E-04  9360   0.117E-03 0.407E-06
CGA:  19    -0.381547562829E+03   -0.18116E-04   -0.18100E-04  9360   0.778E-04 0.561E-06
CGA:  20    -0.381547571320E+03   -0.84918E-05   -0.84925E-05  9360   0.574E-04 0.102E-06
  18 F= -.38154757E+03 E0= -.38154251E+03  d E =0.159549E-02  mag=    58.0000
       N       E                     dE             d eps       ncg     rms          ort
SDA:   1    -0.381447833651E+03    0.99729E-01    0.00000E+00  9360   0.359E+00 0.000E+00
CGA:   2    -0.381495896994E+03   -0.48063E-01   -0.48025E-01  9360   0.350E+00 0.283E-02
CGA:   3    -0.381525533566E+03   -0.29637E-01   -0.29239E-01  9360   0.126E+00 0.123E-03
CGA:   4    -0.381544388687E+03   -0.18855E-01   -0.18857E-01  9360   0.465E-01-0.547E-04
CGA:   5    -0.381549411533E+03   -0.50228E-02   -0.50279E-02  9360   0.201E-01 0.108E-03
CGA:   6    -0.381551381486E+03   -0.19700E-02   -0.19692E-02  9360   0.751E-02-0.626E-05
CGA:   7    -0.381552073009E+03   -0.69152E-03   -0.69091E-03  9360   0.353E-02-0.616E-05
CGA:   8    -0.381552436983E+03   -0.36397E-03   -0.36447E-03  9360   0.131E-02 0.790E-05
CGA:   9    -0.381552617089E+03   -0.18011E-03   -0.18020E-03  9360   0.541E-03-0.338E-05
CGA:  10    -0.381552685688E+03   -0.68599E-04   -0.68586E-04  9360   0.460E-03 0.184E-05
CGA:  11    -0.381552727002E+03   -0.41315E-04   -0.41328E-04  9360   0.163E-03 0.573E-06
CGA:  12    -0.381552755013E+03   -0.28010E-04   -0.27968E-04  9360   0.122E-03 0.804E-06
CGA:  13    -0.381552769068E+03   -0.14055E-04   -0.14057E-04  9360   0.722E-04 0.138E-06
CGA:  14    -0.381552778913E+03   -0.98455E-05   -0.98443E-05  9360   0.595E-04 0.792E-07
  19 F= -.38155278E+03 E0= -.38154774E+03  d E =-.520759E-02  mag=    58.0000
       N       E                     dE             d eps       ncg     rms          ort
SDA:   1    -0.381547397432E+03    0.53716E-02    0.00000E+00  9360   0.266E-01 0.000E+00
CGA:   2    -0.381549749078E+03   -0.23516E-02   -0.23366E-02  9360   0.214E-01-0.492E-04
CGA:   3    -0.381552333809E+03   -0.25847E-02   -0.25847E-02  9360   0.797E-02 0.126E-04
CGA:   4    -0.381553200469E+03   -0.86666E-03   -0.86732E-03  9360   0.405E-02 0.226E-04
CGA:   5    -0.381553670406E+03   -0.46994E-03   -0.46991E-03  9360   0.941E-03-0.184E-05
CGA:   6    -0.381553797143E+03   -0.12674E-03   -0.12675E-03  9360   0.320E-03-0.112E-05
CGA:   7    -0.381553832911E+03   -0.35768E-04   -0.35767E-04  9360   0.208E-03-0.242E-06
CGA:   8    -0.381553850112E+03   -0.17201E-04   -0.17186E-04  9360   0.784E-04-0.263E-06
CGA:   9    -0.381553861261E+03   -0.11150E-04   -0.11139E-04  9360   0.381E-04 0.402E-06
CGA:  10    -0.381553866302E+03   -0.50411E-05   -0.50378E-05  9360   0.245E-04 0.295E-06
  20 F= -.38155387E+03 E0= -.38154883E+03  d E =-.108739E-02  mag=    58.0000
       N       E                     dE             d eps       ncg     rms          ort
SDA:   1    -0.381266922954E+03    0.28694E+00    0.00000E+00  9360   0.853E+00 0.000E+00
CGA:   2    -0.381429148739E+03   -0.16223E+00   -0.16107E+00  9360   0.893E+00 0.147E-01
CGA:   3    -0.381501182242E+03   -0.72034E-01   -0.69158E-01  9360   0.298E+00 0.830E-02
CGA:   4    -0.381537597499E+03   -0.36415E-01   -0.36411E-01  9360   0.147E+00-0.101E-02
CGA:   5    -0.381551517385E+03   -0.13920E-01   -0.13994E-01  9360   0.354E-01 0.743E-03
CGA:   6    -0.381556138355E+03   -0.46210E-02   -0.46245E-02  9360   0.123E-01-0.231E-03
CGA:   7    -0.381557664512E+03   -0.15262E-02   -0.15260E-02  9360   0.528E-02 0.205E-04
CGA:   8    -0.381558159265E+03   -0.49475E-03   -0.49520E-03  9360   0.331E-02 0.344E-05
CGA:   9    -0.381558503673E+03   -0.34441E-03   -0.34409E-03  9360   0.103E-02-0.592E-05
CGA:  10    -0.381558651804E+03   -0.14813E-03   -0.14792E-03  9360   0.738E-03 0.656E-05
CGA:  11    -0.381558752580E+03   -0.10078E-03   -0.10077E-03  9360   0.381E-03 0.748E-06
CGA:  12    -0.381558808366E+03   -0.55785E-04   -0.55754E-04  9360   0.401E-03 0.113E-05
CGA:  13    -0.381558850099E+03   -0.41733E-04   -0.41730E-04  9360   0.235E-03-0.156E-06
CGA:  14    -0.381558887413E+03   -0.37314E-04   -0.37333E-04  9360   0.121E-03-0.442E-06
CGA:  15    -0.381558907402E+03   -0.19989E-04   -0.19986E-04  9360   0.111E-03 0.486E-07
CGA:  16    -0.381558919066E+03   -0.11664E-04   -0.11669E-04  9360   0.498E-04 0.246E-06
CGA:  17    -0.381558924399E+03   -0.53329E-05   -0.53322E-05  9360   0.374E-04-0.729E-08
  21 F= -.38155892E+03 E0= -.38155391E+03  d E =-.505810E-02  mag=    58.0000
       N       E                     dE             d eps       ncg     rms          ort
SDA:   1    -0.381498964289E+03    0.59955E-01    0.00000E+00  9360   0.162E+00 0.000E+00
CGA:   2    -0.381539872033E+03   -0.40908E-01   -0.40819E-01  9360   0.132E+00 0.695E-03
CGA:   3    -0.381551647640E+03   -0.11776E-01   -0.11723E-01  9360   0.562E-01 0.107E-03
CGA:   4    -0.381557337525E+03   -0.56899E-02   -0.56798E-02  9360   0.267E-01-0.825E-04
CGA:   5    -0.381559402405E+03   -0.20649E-02   -0.20959E-02  9360   0.672E-02-0.741E-04
CGA:   6    -0.381560264230E+03   -0.86182E-03   -0.86189E-03  9360   0.211E-02-0.982E-05
CGA:   7    -0.381560551101E+03   -0.28687E-03   -0.28683E-03  9360   0.768E-03 0.243E-05
CGA:   8    -0.381560661180E+03   -0.11008E-03   -0.11009E-03  9360   0.340E-03-0.497E-06
CGA:   9    -0.381560697252E+03   -0.36072E-04   -0.36106E-04  9360   0.155E-03 0.644E-06
CGA:  10    -0.381560717349E+03   -0.20096E-04   -0.20097E-04  9360   0.131E-03-0.114E-06
CGA:  11    -0.381560728865E+03   -0.11516E-04   -0.11520E-04  9360   0.516E-04 0.711E-07
CGA:  12    -0.381560739741E+03   -0.10876E-04   -0.10897E-04  9360   0.411E-04-0.246E-06
CGA:  13    -0.381560745867E+03   -0.61262E-05   -0.61268E-05  9360   0.275E-04-0.288E-07
  22 F= -.38156075E+03 E0= -.38155573E+03  d E =-.182147E-02  mag=    58.0000
       N       E                     dE             d eps       ncg     rms          ort
SDA:   1    -0.377757891304E+03    0.38028E+01    0.00000E+00  9360   0.106E+02 0.000E+00
CGA:   2    -0.379570663982E+03   -0.18128E+01   -0.18158E+01  9360   0.167E+02 0.195E-01
CGA:   3    -0.380828686637E+03   -0.12580E+01   -0.13011E+01  9360   0.382E+01-0.934E+00
CGA:   4    -0.381348385972E+03   -0.51970E+00   -0.52264E+00  9360   0.147E+01-0.117E+00
CGA:   5    -0.381459691582E+03   -0.11131E+00   -0.12006E+00  9360   0.572E+00-0.575E-02
CGA:   6    -0.381522615947E+03   -0.62924E-01   -0.62633E-01  9360   0.206E+00-0.535E-02
CGA:   7    -0.381536844933E+03   -0.14229E-01   -0.14392E-01  9360   0.115E+00-0.107E-02
CGA:   8    -0.381549011197E+03   -0.12166E-01   -0.12302E-01  9360   0.392E-01 0.273E-02
CGA:   9    -0.381553068221E+03   -0.40570E-02   -0.40574E-02  9360   0.185E-01 0.533E-05
CGA:  10    -0.381555513803E+03   -0.24456E-02   -0.24403E-02  9360   0.776E-02 0.326E-03
CGA:  11    -0.381556421932E+03   -0.90813E-03   -0.90794E-03  9360   0.549E-02-0.990E-05
CGA:  12    -0.381556979766E+03   -0.55783E-03   -0.55783E-03  9360   0.378E-02 0.912E-06
CGA:  13    -0.381557432604E+03   -0.45284E-03   -0.45317E-03  9360   0.157E-02 0.966E-04
CGA:  14    -0.381557704714E+03   -0.27211E-03   -0.27229E-03  9360   0.149E-02-0.249E-05
CGA:  15    -0.381557908511E+03   -0.20380E-03   -0.20303E-03  9360   0.502E-03 0.369E-04
CGA:  16    -0.381558005360E+03   -0.96848E-04   -0.96783E-04  9360   0.680E-03 0.102E-05
CGA:  17    -0.381558061191E+03   -0.55831E-04   -0.55890E-04  9360   0.229E-03 0.109E-05
CGA:  18    -0.381558090544E+03   -0.29353E-04   -0.29348E-04  9360   0.160E-03 0.155E-05
CGA:  19    -0.381558117175E+03   -0.26631E-04   -0.26608E-04  9360   0.928E-04 0.596E-06
CGA:  20    -0.381558130603E+03   -0.13428E-04   -0.13424E-04  9360   0.526E-04 0.193E-06
CGA:  21    -0.381558141595E+03   -0.10992E-04   -0.11017E-04  9360   0.632E-04-0.309E-06
CGA:  22    -0.381558146767E+03   -0.51713E-05   -0.51636E-05  9360   0.275E-04-0.131E-06
  23 F= -.38155815E+03 E0= -.38155310E+03  d E =0.259910E-02  mag=    58.0000
       N       E                     dE             d eps       ncg     rms          ort
SDA:   1    -0.381243994349E+03    0.31415E+00    0.00000E+00  9360   0.999E+00 0.000E+00
CGA:   2    -0.381430828764E+03   -0.18683E+00   -0.18632E+00  9360   0.612E+00 0.726E-02
CGA:   3    -0.381496765182E+03   -0.65936E-01   -0.64612E-01  9360   0.463E+00-0.101E-01
CGA:   4    -0.381540163509E+03   -0.43398E-01   -0.43590E-01  9360   0.135E+00 0.526E-03
CGA:   5    -0.381554312406E+03   -0.14149E-01   -0.14211E-01  9360   0.595E-01 0.728E-03
CGA:   6    -0.381560884198E+03   -0.65718E-02   -0.65567E-02  9360   0.129E-01-0.239E-03
CGA:   7    -0.381563064096E+03   -0.21799E-02   -0.21790E-02  9360   0.664E-02 0.145E-04
CGA:   8    -0.381563602680E+03   -0.53858E-03   -0.53876E-03  9360   0.337E-02 0.705E-06
CGA:   9    -0.381564035813E+03   -0.43313E-03   -0.43314E-03  9360   0.180E-02-0.533E-05
CGA:  10    -0.381564219530E+03   -0.18372E-03   -0.18414E-03  9360   0.758E-03 0.598E-05
CGA:  11    -0.381564370251E+03   -0.15072E-03   -0.15062E-03  9360   0.472E-03 0.158E-05
CGA:  12    -0.381564424421E+03   -0.54171E-04   -0.54193E-04  9360   0.385E-03 0.109E-05
CGA:  13    -0.381564472636E+03   -0.48214E-04   -0.48213E-04  9360   0.275E-03-0.207E-06
CGA:  14    -0.381564505565E+03   -0.32929E-04   -0.32927E-04  9360   0.129E-03-0.204E-06
CGA:  15    -0.381564527403E+03   -0.21838E-04   -0.21846E-04  9360   0.101E-03-0.226E-06
CGA:  16    -0.381564539842E+03   -0.12439E-04   -0.12440E-04  9360   0.521E-04 0.648E-07
CGA:  17    -0.381564545212E+03   -0.53695E-05   -0.53665E-05  9360   0.401E-04-0.907E-07
  24 F= -.38156455E+03 E0= -.38155952E+03  d E =-.639845E-02  mag=    58.0000
       N       E                     dE             d eps       ncg     rms          ort
SDA:   1    -0.381556970249E+03    0.75696E-02    0.00000E+00  9360   0.289E-01 0.000E+00
CGA:   2    -0.381560764077E+03   -0.37938E-02   -0.37928E-02  9360   0.224E-01 0.344E-03
CGA:   3    -0.381563072105E+03   -0.23080E-02   -0.22996E-02  9360   0.115E-01-0.679E-04
CGA:   4    -0.381564290473E+03   -0.12184E-02   -0.12189E-02  9360   0.608E-02 0.677E-05
CGA:   5    -0.381564848671E+03   -0.55820E-03   -0.55895E-03  9360   0.147E-02 0.171E-05
CGA:   6    -0.381565057809E+03   -0.20914E-03   -0.20916E-03  9360   0.460E-03-0.661E-06
CGA:   7    -0.381565114251E+03   -0.56442E-04   -0.56445E-04  9360   0.236E-03 0.503E-06
CGA:   8    -0.381565135793E+03   -0.21542E-04   -0.21556E-04  9360   0.117E-03 0.279E-06
CGA:   9    -0.381565147864E+03   -0.12070E-04   -0.12069E-04  9360   0.473E-04-0.562E-07
CGA:  10    -0.381565153738E+03   -0.58742E-05   -0.58743E-05  9360   0.244E-04 0.181E-06
  25 F= -.38156515E+03 E0= -.38156012E+03  d E =-.608526E-03  mag=    58.0000
       N       E                     dE             d eps       ncg     rms          ort
SDA:   1    -0.381558314368E+03    0.68335E-02    0.00000E+00  9360   0.224E-01 0.000E+00
CGA:   2    -0.381561898310E+03   -0.35839E-02   -0.35945E-02  9360   0.297E-01-0.211E-03
CGA:   3    -0.381564225392E+03   -0.23271E-02   -0.23369E-02  9360   0.758E-02-0.177E-04
CGA:   4    -0.381565253468E+03   -0.10281E-02   -0.10278E-02  9360   0.355E-02 0.137E-04
CGA:   5    -0.381565585011E+03   -0.33154E-03   -0.33095E-03  9360   0.955E-03-0.261E-05
CGA:   6    -0.381565713870E+03   -0.12886E-03   -0.12885E-03  9360   0.304E-03 0.163E-06
CGA:   7    -0.381565747663E+03   -0.33794E-04   -0.33794E-04  9360   0.195E-03 0.255E-09
CGA:   8    -0.381565764250E+03   -0.16587E-04   -0.16578E-04  9360   0.749E-04-0.170E-06
CGA:   9    -0.381565774156E+03   -0.99057E-05   -0.99025E-05  9360   0.274E-04 0.292E-06
  26 F= -.38156577E+03 E0= -.38156075E+03  d E =-.620418E-03  mag=    58.0000
       N       E                     dE             d eps       ncg     rms          ort
SDA:   1    -0.381525039215E+03    0.40725E-01    0.00000E+00  9360   0.115E+00 0.000E+00
CGA:   2    -0.381547759475E+03   -0.22720E-01   -0.22919E-01  9360   0.170E+00-0.231E-02
CGA:   3    -0.381559742834E+03   -0.11983E-01   -0.12218E-01  9360   0.382E-01-0.100E-02
CGA:   4    -0.381564175904E+03   -0.44331E-02   -0.44371E-02  9360   0.210E-01 0.236E-03
CGA:   5    -0.381566165616E+03   -0.19897E-02   -0.19855E-02  9360   0.403E-02-0.208E-04
CGA:   6    -0.381566755046E+03   -0.58943E-03   -0.58944E-03  9360   0.136E-02-0.667E-06
CGA:   7    -0.381566918805E+03   -0.16376E-03   -0.16377E-03  9360   0.934E-03 0.123E-05
CGA:   8    -0.381566991250E+03   -0.72445E-04   -0.72388E-04  9360   0.288E-03-0.176E-06
CGA:   9    -0.381567033773E+03   -0.42523E-04   -0.42494E-04  9360   0.114E-03 0.946E-06
CGA:  10    -0.381567049119E+03   -0.15346E-04   -0.15345E-04  9360   0.808E-04 0.205E-06
CGA:  11    -0.381567059830E+03   -0.10711E-04   -0.10708E-04  9360   0.522E-04 0.382E-06
CGA:  12    -0.381567065914E+03   -0.60843E-05   -0.60838E-05  9360   0.431E-04-0.704E-07
  27 F= -.38156707E+03 E0= -.38156205E+03  d E =-.129176E-02  mag=    58.0000
       N       E                     dE             d eps       ncg     rms          ort
SDA:   1    -0.381319347900E+03    0.24771E+00    0.00000E+00  9360   0.666E+00 0.000E+00
CGA:   2    -0.381478667740E+03   -0.15932E+00   -0.15927E+00  9360   0.608E+00 0.330E-03
CGA:   3    -0.381526115543E+03   -0.47448E-01   -0.46808E-01  9360   0.273E+00 0.217E-02
CGA:   4    -0.381556108546E+03   -0.29993E-01   -0.30007E-01  9360   0.751E-01 0.297E-03
CGA:   5    -0.381564976286E+03   -0.88677E-02   -0.88665E-02  9360   0.250E-01-0.654E-04
CGA:   6    -0.381567476618E+03   -0.25003E-02   -0.25094E-02  9360   0.119E-01 0.918E-04
CGA:   7    -0.381568610291E+03   -0.11337E-02   -0.11304E-02  9360   0.447E-02-0.212E-04
CGA:   8    -0.381569088309E+03   -0.47802E-03   -0.47795E-03  9360   0.240E-02-0.110E-05
CGA:   9    -0.381569346079E+03   -0.25777E-03   -0.25781E-03  9360   0.651E-03 0.748E-06
CGA:  10    -0.381569456135E+03   -0.11006E-03   -0.10999E-03  9360   0.572E-03 0.142E-05
CGA:  11    -0.381569502365E+03   -0.46230E-04   -0.46198E-04  9360   0.247E-03 0.262E-06
CGA:  12    -0.381569549444E+03   -0.47079E-04   -0.47005E-04  9360   0.179E-03 0.101E-05
CGA:  13    -0.381569576189E+03   -0.26745E-04   -0.26752E-04  9360   0.148E-03-0.135E-06
CGA:  14    -0.381569591927E+03   -0.15738E-04   -0.15744E-04  9360   0.101E-03 0.271E-06
CGA:  15    -0.381569607024E+03   -0.15097E-04   -0.15100E-04  9360   0.588E-04-0.115E-06
CGA:  16    -0.381569613429E+03   -0.64053E-05   -0.64073E-05  9360   0.341E-04 0.122E-06
  28 F= -.38156961E+03 E0= -.38156459E+03  d E =-.254751E-02  mag=    58.0000
       N       E                     dE             d eps       ncg     rms          ort
SDA:   1    -0.377412378452E+03    0.41572E+01    0.00000E+00  9360   0.128E+02 0.000E+00
CGA:   2    -0.379147673934E+03   -0.17353E+01   -0.17364E+01  9360   0.175E+02-0.320E-01
CGA:   3    -0.380594688844E+03   -0.14470E+01   -0.14706E+01  9360   0.463E+01-0.365E+00
CGA:   4    -0.381280937121E+03   -0.68625E+00   -0.69181E+00  9360   0.148E+01-0.142E+00
CGA:   5    -0.381440151008E+03   -0.15921E+00   -0.16191E+00  9360   0.542E+00 0.722E-01
CGA:   6    -0.381492447718E+03   -0.52297E-01   -0.51166E-01  9360   0.297E+00-0.299E-02
CGA:   7    -0.381516549746E+03   -0.24102E-01   -0.24241E-01  9360   0.127E+00-0.123E-03
CGA:   8    -0.381526462461E+03   -0.99127E-02   -0.10310E-01  9360   0.575E-01 0.850E-04
CGA:   9    -0.381533831465E+03   -0.73690E-02   -0.73673E-02  9360   0.181E-01 0.123E-03
CGA:  10    -0.381536052673E+03   -0.22212E-02   -0.22211E-02  9360   0.184E-01 0.332E-04
CGA:  11    -0.381537581532E+03   -0.15289E-02   -0.15611E-02  9360   0.556E-02 0.788E-04
CGA:  12    -0.381538370377E+03   -0.78884E-03   -0.78848E-03  9360   0.437E-02 0.109E-04
CGA:  13    -0.381538935222E+03   -0.56484E-03   -0.56309E-03  9360   0.201E-02 0.115E-03
CGA:  14    -0.381539263378E+03   -0.32816E-03   -0.32855E-03  9360   0.130E-02-0.715E-05
CGA:  15    -0.381539453081E+03   -0.18970E-03   -0.18965E-03  9360   0.128E-02 0.211E-05
CGA:  16    -0.381539557769E+03   -0.10469E-03   -0.10511E-03  9360   0.441E-03 0.303E-06
CGA:  17    -0.381539638155E+03   -0.80385E-04   -0.80437E-04  9360   0.341E-03-0.692E-06
CGA:  18    -0.381539677270E+03   -0.39115E-04   -0.39142E-04  9360   0.142E-03 0.105E-05
CGA:  19    -0.381539704801E+03   -0.27531E-04   -0.27521E-04  9360   0.102E-03 0.139E-06
CGA:  20    -0.381539723345E+03   -0.18543E-04   -0.18534E-04  9360   0.533E-04 0.174E-06
CGA:  21    -0.381539732987E+03   -0.96424E-05   -0.96619E-05  9360   0.596E-04-0.344E-06
  29 F= -.38153973E+03 E0= -.38153465E+03  d E =0.298804E-01  mag=    58.0000
       N       E                     dE             d eps       ncg     rms          ort
SDA:   1    -0.381109203333E+03    0.43052E+00    0.00000E+00  9360   0.154E+01 0.000E+00
CGA:   2    -0.381334964612E+03   -0.22576E+00   -0.22576E+00  9360   0.123E+01 0.418E-03
CGA:   3    -0.381438509838E+03   -0.10355E+00   -0.10632E+00  9360   0.683E+00-0.636E-02
CGA:   4    -0.381523829694E+03   -0.85320E-01   -0.85273E-01  9360   0.203E+00-0.408E-02
CGA:   5    -0.381550223517E+03   -0.26394E-01   -0.26394E-01  9360   0.753E-01-0.566E-03
CGA:   6    -0.381557338027E+03   -0.71145E-02   -0.71235E-02  9360   0.406E-01 0.453E-04
CGA:   7    -0.381561035211E+03   -0.36972E-02   -0.37039E-02  9360   0.112E-01 0.154E-04
CGA:   8    -0.381562489801E+03   -0.14546E-02   -0.14547E-02  9360   0.631E-02-0.171E-04
CGA:   9    -0.381563090312E+03   -0.60051E-03   -0.60332E-03  9360   0.237E-02 0.172E-04
CGA:  10    -0.381563413742E+03   -0.32343E-03   -0.32345E-03  9360   0.159E-02 0.715E-07
CGA:  11    -0.381563548511E+03   -0.13477E-03   -0.13481E-03  9360   0.605E-03 0.177E-05
CGA:  12    -0.381563646909E+03   -0.98399E-04   -0.98382E-04  9360   0.311E-03 0.301E-06
CGA:  13    -0.381563684142E+03   -0.37233E-04   -0.37234E-04  9360   0.225E-03 0.173E-06
CGA:  14    -0.381563706130E+03   -0.21988E-04   -0.21976E-04  9360   0.101E-03-0.257E-06
CGA:  15    -0.381563723404E+03   -0.17274E-04   -0.17253E-04  9360   0.575E-04 0.409E-06
CGA:  16    -0.381563729518E+03   -0.61139E-05   -0.61178E-05  9360   0.411E-04 0.231E-06
  30 F= -.38156373E+03 E0= -.38155864E+03  d E =-.239965E-01  mag=    58.0000
       N       E                     dE             d eps       ncg     rms          ort
SDA:   1    -0.381552947807E+03    0.10776E-01    0.00000E+00  9360   0.478E-01 0.000E+00
CGA:   2    -0.381558438697E+03   -0.54909E-02   -0.54909E-02  9360   0.439E-01-0.317E-06
CGA:   3    -0.381562440360E+03   -0.40017E-02   -0.39959E-02  9360   0.159E-01-0.264E-04
CGA:   4    -0.381564920762E+03   -0.24804E-02   -0.24789E-02  9360   0.704E-02 0.324E-04
CGA:   5    -0.381565577877E+03   -0.65711E-03   -0.65434E-03  9360   0.262E-02-0.130E-04
CGA:   6    -0.381565901138E+03   -0.32326E-03   -0.32326E-03  9360   0.899E-03 0.437E-05
CGA:   7    -0.381565974136E+03   -0.72998E-04   -0.72963E-04  9360   0.466E-03-0.190E-06
CGA:   8    -0.381566031090E+03   -0.56955E-04   -0.56954E-04  9360   0.116E-03 0.166E-06
CGA:   9    -0.381566049076E+03   -0.17986E-04   -0.17981E-04  9360   0.961E-04 0.147E-06
CGA:  10    -0.381566057667E+03   -0.85909E-05   -0.86020E-05  9360   0.328E-04 0.342E-06
  31 F= -.38156606E+03 E0= -.38156097E+03  d E =-.232815E-02  mag=    58.0000
       N       E                     dE             d eps       ncg     rms          ort
SDA:   1    -0.381010392064E+03    0.55566E+00    0.00000E+00  9360   0.191E+01 0.000E+00
CGA:   2    -0.381282138771E+03   -0.27175E+00   -0.27176E+00  9360   0.164E+01 0.353E-03
CGA:   3    -0.381419687664E+03   -0.13755E+00   -0.14133E+00  9360   0.819E+00 0.461E-02
CGA:   4    -0.381519841295E+03   -0.10015E+00   -0.10016E+00  9360   0.275E+00-0.736E-03
CGA:   5    -0.381553261238E+03   -0.33420E-01   -0.33425E-01  9360   0.102E+00-0.282E-02
CGA:   6    -0.381563525141E+03   -0.10264E-01   -0.10307E-01  9360   0.407E-01 0.812E-03
CGA:   7    -0.381568005705E+03   -0.44806E-02   -0.44809E-02  9360   0.159E-01 0.109E-04
CGA:   8    -0.381569405415E+03   -0.13997E-02   -0.13942E-02  9360   0.869E-02-0.264E-04
CGA:   9    -0.381570428116E+03   -0.10227E-02   -0.10227E-02  9360   0.240E-02 0.527E-04
CGA:  10    -0.381570860756E+03   -0.43264E-03   -0.43308E-03  9360   0.136E-02-0.531E-05
CGA:  11    -0.381571004426E+03   -0.14367E-03   -0.14383E-03  9360   0.864E-03 0.524E-05
CGA:  12    -0.381571097676E+03   -0.93250E-04   -0.93249E-04  9360   0.457E-03-0.240E-07
CGA:  13    -0.381571155168E+03   -0.57491E-04   -0.57493E-04  9360   0.267E-03-0.412E-07
CGA:  14    -0.381571187841E+03   -0.32673E-04   -0.32672E-04  9360   0.136E-03 0.431E-07
CGA:  15    -0.381571212324E+03   -0.24483E-04   -0.24456E-04  9360   0.103E-03 0.453E-06
CGA:  16    -0.381571221150E+03   -0.88255E-05   -0.88318E-05  9360   0.582E-04 0.220E-06
  32 F= -.38157122E+03 E0= -.38156616E+03  d E =-.516348E-02  mag=    58.0000
       N       E                     dE             d eps       ncg     rms          ort
SDA:   1    -0.381537369937E+03    0.33842E-01    0.00000E+00  9360   0.121E+00 0.000E+00
CGA:   2    -0.381553604273E+03   -0.16234E-01   -0.16224E-01  9360   0.105E+00 0.560E-03
CGA:   3    -0.381563040807E+03   -0.94365E-02   -0.93559E-02  9360   0.478E-01-0.277E-03
CGA:   4    -0.381569179187E+03   -0.61384E-02   -0.61396E-02  9360   0.208E-01-0.928E-04
CGA:   5    -0.381571163487E+03   -0.19843E-02   -0.19897E-02  9360   0.674E-02 0.521E-04
CGA:   6    -0.381571998278E+03   -0.83479E-03   -0.83485E-03  9360   0.243E-02-0.103E-04
CGA:   7    -0.381572245941E+03   -0.24766E-03   -0.24759E-03  9360   0.130E-02-0.233E-05
CGA:   8    -0.381572357703E+03   -0.11176E-03   -0.11192E-03  9360   0.463E-03 0.570E-06
CGA:   9    -0.381572420160E+03   -0.62457E-04   -0.62479E-04  9360   0.168E-03-0.823E-06
CGA:  10    -0.381572443475E+03   -0.23315E-04   -0.23310E-04  9360   0.118E-03 0.161E-06
CGA:  11    -0.381572454466E+03   -0.10991E-04   -0.10983E-04  9360   0.465E-04-0.243E-06
CGA:  12    -0.381572460032E+03   -0.55665E-05   -0.55662E-05  9360   0.329E-04 0.163E-06
  33 F= -.38157246E+03 E0= -.38156740E+03  d E =-.123888E-02  mag=    58.0000
       N       E                     dE             d eps       ncg     rms          ort
SDA:   1    -0.381568629070E+03    0.38254E-02    0.00000E+00  9360   0.142E-01 0.000E+00
CGA:   2    -0.381570564610E+03   -0.19355E-02   -0.19348E-02  9360   0.161E-01 0.261E-04
CGA:   3    -0.381572106172E+03   -0.15416E-02   -0.15418E-02  9360   0.501E-02 0.248E-05
CGA:   4    -0.381572621211E+03   -0.51504E-03   -0.51430E-03  9360   0.281E-02-0.154E-04
CGA:   5    -0.381572912310E+03   -0.29110E-03   -0.29126E-03  9360   0.504E-03 0.548E-05
CGA:   6    -0.381572993866E+03   -0.81555E-04   -0.81622E-04  9360   0.174E-03-0.141E-05
CGA:   7    -0.381573010069E+03   -0.16203E-04   -0.16205E-04  9360   0.111E-03-0.124E-06
CGA:   8    -0.381573021428E+03   -0.11359E-04   -0.11356E-04  9360   0.378E-04-0.178E-06
CGA:   9    -0.381573025898E+03   -0.44699E-05   -0.44696E-05  9360   0.200E-04 0.330E-06
  34 F= -.38157303E+03 E0= -.38156796E+03  d E =-.565866E-03  mag=    58.0000
       N       E                     dE             d eps       ncg     rms          ort
SDA:   1    -0.381428105510E+03    0.14492E+00    0.00000E+00  9360   0.406E+00 0.000E+00
CGA:   2    -0.381521092572E+03   -0.92987E-01   -0.92528E-01  9360   0.299E+00 0.402E-02
CGA:   3    -0.381553608730E+03   -0.32516E-01   -0.32373E-01  9360   0.150E+00-0.302E-02
CGA:   4    -0.381567077589E+03   -0.13469E-01   -0.13509E-01  9360   0.614E-01 0.273E-03
CGA:   5    -0.381572298967E+03   -0.52214E-02   -0.52889E-02  9360   0.207E-01 0.203E-03
CGA:   6    -0.381574429160E+03   -0.21302E-02   -0.21261E-02  9360   0.617E-02-0.843E-04
CGA:   7    -0.381575290140E+03   -0.86098E-03   -0.86060E-03  9360   0.191E-02 0.106E-04
CGA:   8    -0.381575590241E+03   -0.30010E-03   -0.30019E-03  9360   0.977E-03-0.157E-05
CGA:   9    -0.381575681204E+03   -0.90963E-04   -0.90983E-04  9360   0.500E-03 0.588E-06
CGA:  10    -0.381575735709E+03   -0.54505E-04   -0.54521E-04  9360   0.294E-03 0.147E-05
CGA:  11    -0.381575768712E+03   -0.33003E-04   -0.33002E-04  9360   0.160E-03 0.249E-06
CGA:  12    -0.381575794145E+03   -0.25433E-04   -0.25404E-04  9360   0.883E-04 0.636E-06
CGA:  13    -0.381575813832E+03   -0.19687E-04   -0.19686E-04  9360   0.627E-04 0.171E-07
CGA:  14    -0.381575822478E+03   -0.86455E-05   -0.86430E-05  9360   0.529E-04 0.155E-06
  35 F= -.38157582E+03 E0= -.38157076E+03  d E =-.279658E-02  mag=    58.0000
       N       E                     dE             d eps       ncg     rms          ort
SDA:   1    -0.381346105383E+03    0.22971E+00    0.00000E+00  9360   0.676E+00 0.000E+00
CGA:   2    -0.381458211940E+03   -0.11211E+00   -0.11225E+00  9360   0.910E+00-0.264E-02
CGA:   3    -0.381530164284E+03   -0.71952E-01   -0.73023E-01  9360   0.257E+00-0.308E-02
CGA:   4    -0.381563145962E+03   -0.32982E-01   -0.33018E-01  9360   0.107E+00-0.603E-02
CGA:   5    -0.381572731525E+03   -0.95856E-02   -0.97438E-02  9360   0.314E-01 0.753E-03
CGA:   6    -0.381576466616E+03   -0.37351E-02   -0.37341E-02  9360   0.114E-01-0.726E-04
CGA:   7    -0.381577656587E+03   -0.11900E-02   -0.11903E-02  9360   0.572E-02 0.464E-05
CGA:   8    -0.381578141324E+03   -0.48474E-03   -0.48442E-03  9360   0.245E-02-0.696E-06
CGA:   9    -0.381578470241E+03   -0.32892E-03   -0.32892E-03  9360   0.638E-03 0.536E-06
CGA:  10    -0.381578572836E+03   -0.10259E-03   -0.10253E-03  9360   0.562E-03 0.128E-05
CGA:  11    -0.381578623780E+03   -0.50944E-04   -0.50965E-04  9360   0.217E-03 0.600E-06
CGA:  12    -0.381578653623E+03   -0.29843E-04   -0.29849E-04  9360   0.218E-03-0.319E-06
CGA:  13    -0.381578680116E+03   -0.26493E-04   -0.26494E-04  9360   0.871E-04 0.459E-06
CGA:  14    -0.381578696147E+03   -0.16031E-04   -0.16024E-04  9360   0.771E-04 0.146E-06
CGA:  15    -0.381578705603E+03   -0.94562E-05   -0.94575E-05  9360   0.582E-04 0.338E-06
  36 F= -.38157871E+03 E0= -.38157362E+03  d E =-.288313E-02  mag=    58.0000
       N       E                     dE             d eps       ncg     rms          ort
SDA:   1    -0.375580492488E+03    0.59982E+01    0.00000E+00  9360   0.218E+02 0.000E+00
CGA:   2    -0.378017112398E+03   -0.24366E+01   -0.24334E+01  9360   0.206E+02-0.286E+00
CGA:   3    -0.379859377279E+03   -0.18423E+01   -0.19268E+01  9360   0.854E+01 0.122E+00
CGA:   4    -0.380932859445E+03   -0.10735E+01   -0.10762E+01  9360   0.339E+01-0.455E+00
CGA:   5    -0.381327026354E+03   -0.39417E+00   -0.39418E+00  9360   0.119E+01-0.112E-01
CGA:   6    -0.381403573371E+03   -0.76547E-01   -0.82196E-01  9360   0.701E+00-0.376E-01
CGA:   7    -0.381474830522E+03   -0.71257E-01   -0.71223E-01  9360   0.125E+00-0.104E-02
CGA:   8    -0.381496012859E+03   -0.21182E-01   -0.21140E-01  9360   0.828E-01 0.639E-03
CGA:   9    -0.381502776138E+03   -0.67633E-02   -0.69065E-02  9360   0.330E-01 0.178E-03
CGA:  10    -0.381506908728E+03   -0.41326E-02   -0.41353E-02  9360   0.204E-01-0.273E-03
CGA:  11    -0.381508996193E+03   -0.20875E-02   -0.20891E-02  9360   0.116E-01 0.405E-04
CGA:  12    -0.381510031709E+03   -0.10355E-02   -0.10448E-02  9360   0.558E-02 0.597E-04
CGA:  13    -0.381511136107E+03   -0.11044E-02   -0.11072E-02  9360   0.250E-02-0.319E-04
CGA:  14    -0.381511504620E+03   -0.36851E-03   -0.36649E-03  9360   0.268E-02 0.527E-04
CGA:  15    -0.381511811632E+03   -0.30701E-03   -0.30699E-03  9360   0.142E-02 0.124E-05
CGA:  16    -0.381511964188E+03   -0.15256E-03   -0.15254E-03  9360   0.889E-03 0.910E-06
CGA:  17    -0.381512067589E+03   -0.10340E-03   -0.10343E-03  9360   0.515E-03 0.385E-05
CGA:  18    -0.381512145178E+03   -0.77589E-04   -0.77531E-04  9360   0.210E-03 0.183E-05
CGA:  19    -0.381512177411E+03   -0.32232E-04   -0.32193E-04  9360   0.230E-03 0.121E-05
CGA:  20    -0.381512200944E+03   -0.23533E-04   -0.23533E-04  9360   0.114E-03 0.214E-06
CGA:  21    -0.381512215491E+03   -0.14547E-04   -0.14547E-04  9360   0.812E-04-0.301E-07
CGA:  22    -0.381512226433E+03   -0.10942E-04   -0.10946E-04  9360   0.536E-04-0.388E-06
CGA:  23    -0.381512234313E+03   -0.78803E-05   -0.78856E-05  9360   0.286E-04-0.203E-06
  37 F= -.38151223E+03 E0= -.38150694E+03  d E =0.664713E-01  mag=    58.0000
       N       E                     dE             d eps       ncg     rms          ort
SDA:   1    -0.377087681802E+03    0.44245E+01    0.00000E+00  9360   0.169E+02 0.000E+00
CGA:   2    -0.379104318427E+03   -0.20166E+01   -0.20179E+01  9360   0.133E+02 0.850E-01
CGA:   3    -0.380293017633E+03   -0.11887E+01   -0.12682E+01  9360   0.657E+01 0.173E+00
CGA:   4    -0.381126558450E+03   -0.83354E+00   -0.83484E+00  9360   0.254E+01-0.384E+00
CGA:   5    -0.381424050388E+03   -0.29749E+00   -0.29750E+00  9360   0.791E+00-0.570E-02
CGA:   6    -0.381493988385E+03   -0.69938E-01   -0.69927E-01  9360   0.465E+00-0.658E-03
CGA:   7    -0.381541106848E+03   -0.47118E-01   -0.47226E-01  9360   0.106E+00 0.146E-02
CGA:   8    -0.381554458797E+03   -0.13352E-01   -0.13367E-01  9360   0.850E-01-0.169E-02
CGA:   9    -0.381561928999E+03   -0.74702E-02   -0.75335E-02  9360   0.209E-01 0.329E-03
CGA:  10    -0.381564952754E+03   -0.30238E-02   -0.30204E-02  9360   0.202E-01 0.943E-04
CGA:  11    -0.381566744428E+03   -0.17917E-02   -0.17920E-02  9360   0.482E-02 0.109E-04
CGA:  12    -0.381567604704E+03   -0.86028E-03   -0.86006E-03  9360   0.511E-02 0.316E-05
CGA:  13    -0.381568020559E+03   -0.41586E-03   -0.41704E-03  9360   0.154E-02 0.253E-05
CGA:  14    -0.381568279193E+03   -0.25863E-03   -0.25847E-03  9360   0.126E-02 0.329E-05
CGA:  15    -0.381568426455E+03   -0.14726E-03   -0.14728E-03  9360   0.784E-03 0.294E-05
CGA:  16    -0.381568503528E+03   -0.77073E-04   -0.77091E-04  9360   0.352E-03 0.506E-07
CGA:  17    -0.381568567991E+03   -0.64463E-04   -0.64567E-04  9360   0.250E-03-0.167E-05
CGA:  18    -0.381568589017E+03   -0.21026E-04   -0.20981E-04  9360   0.121E-03-0.101E-05
CGA:  19    -0.381568608939E+03   -0.19922E-04   -0.19951E-04  9360   0.861E-04-0.665E-06
CGA:  20    -0.381568619466E+03   -0.10527E-04   -0.10526E-04  9360   0.640E-04-0.449E-06
CGA:  21    -0.381568626946E+03   -0.74796E-05   -0.74788E-05  9360   0.358E-04-0.113E-06
  38 F= -.38156863E+03 E0= -.38156346E+03  d E =-.563926E-01  mag=    58.0000
       N       E                     dE             d eps       ncg     rms          ort
SDA:   1    -0.381525545832E+03    0.43074E-01    0.00000E+00  9360   0.183E+00 0.000E+00
CGA:   2    -0.381543098476E+03   -0.17553E-01   -0.17501E-01  9360   0.157E+00-0.364E-03
CGA:   3    -0.381559383323E+03   -0.16285E-01   -0.16309E-01  9360   0.553E-01 0.357E-03
CGA:   4    -0.381568157493E+03   -0.87742E-02   -0.87925E-02  9360   0.211E-01-0.378E-03
CGA:   5    -0.381570534154E+03   -0.23767E-02   -0.23814E-02  9360   0.845E-02 0.166E-03
CGA:   6    -0.381571349647E+03   -0.81549E-03   -0.81364E-03  9360   0.348E-02-0.123E-04
CGA:   7    -0.381571689697E+03   -0.34005E-03   -0.34014E-03  9360   0.148E-02 0.149E-05
CGA:   8    -0.381571824160E+03   -0.13446E-03   -0.13455E-03  9360   0.630E-03-0.483E-07
CGA:   9    -0.381571909073E+03   -0.84913E-04   -0.84923E-04  9360   0.196E-03-0.356E-06
CGA:  10    -0.381571941603E+03   -0.32530E-04   -0.32502E-04  9360   0.147E-03 0.611E-06
CGA:  11    -0.381571953383E+03   -0.11780E-04   -0.11798E-04  9360   0.647E-04 0.393E-06
CGA:  12    -0.381571962979E+03   -0.95960E-05   -0.96009E-05  9360   0.405E-04-0.171E-06
  39 F= -.38157196E+03 E0= -.38156680E+03  d E =-.333603E-02  mag=    58.0000
       N       E                     dE             d eps       ncg     rms          ort
SDA:   1    -0.381225935157E+03    0.34602E+00    0.00000E+00  9360   0.114E+01 0.000E+00
CGA:   2    -0.381412402484E+03   -0.18647E+00   -0.18613E+00  9360   0.733E+00 0.657E-02
CGA:   3    -0.381500887534E+03   -0.88485E-01   -0.88544E-01  9360   0.523E+00 0.637E-02
CGA:   4    -0.381544640256E+03   -0.43753E-01   -0.42842E-01  9360   0.168E+00 0.320E-03
CGA:   5    -0.381566176407E+03   -0.21536E-01   -0.21531E-01  9360   0.387E-01 0.491E-03
CGA:   6    -0.381572080777E+03   -0.59044E-02   -0.59083E-02  9360   0.198E-01-0.932E-04
CGA:   7    -0.381573479419E+03   -0.13986E-02   -0.14061E-02  9360   0.800E-02-0.352E-04
CGA:   8    -0.381574578360E+03   -0.10989E-02   -0.10990E-02  9360   0.253E-02-0.362E-05
CGA:   9    -0.381574940989E+03   -0.36263E-03   -0.36255E-03  9360   0.158E-02 0.330E-05
CGA:  10    -0.381575087462E+03   -0.14647E-03   -0.14634E-03  9360   0.890E-03-0.142E-07
CGA:  11    -0.381575192797E+03   -0.10534E-03   -0.10534E-03  9360   0.358E-03 0.137E-05
CGA:  12    -0.381575246916E+03   -0.54119E-04   -0.54116E-04  9360   0.315E-03-0.395E-07
CGA:  13    -0.381575279299E+03   -0.32382E-04   -0.32377E-04  9360   0.129E-03-0.113E-06
CGA:  14    -0.381575299552E+03   -0.20254E-04   -0.20267E-04  9360   0.138E-03-0.372E-06
CGA:  15    -0.381575312795E+03   -0.13243E-04   -0.13254E-04  9360   0.546E-04 0.246E-06
CGA:  16    -0.381575321626E+03   -0.88305E-05   -0.88159E-05  9360   0.333E-04 0.398E-06
  40 F= -.38157532E+03 E0= -.38157015E+03  d E =-.335865E-02  mag=    58.0000
       N       E                     dE             d eps       ncg     rms          ort
SDA:   1    -0.381527505165E+03    0.47808E-01    0.00000E+00  9360   0.148E+00 0.000E+00
CGA:   2    -0.381550206664E+03   -0.22701E-01   -0.22621E-01  9360   0.191E+00 0.196E-02
CGA:   3    -0.381566348029E+03   -0.16141E-01   -0.15988E-01  9360   0.519E-01 0.185E-04
CGA:   4    -0.381574213431E+03   -0.78654E-02   -0.78646E-02  9360   0.145E-01 0.243E-04
CGA:   5    -0.381575883557E+03   -0.16701E-02   -0.16700E-02  9360   0.783E-02-0.882E-05
CGA:   6    -0.381576486059E+03   -0.60250E-03   -0.60340E-03  9360   0.250E-02-0.316E-05
CGA:   7    -0.381576780829E+03   -0.29477E-03   -0.29472E-03  9360   0.888E-03-0.548E-05
CGA:   8    -0.381576890712E+03   -0.10988E-03   -0.10988E-03  9360   0.497E-03 0.214E-05
CGA:   9    -0.381576935231E+03   -0.44519E-04   -0.44499E-04  9360   0.191E-03-0.121E-06
CGA:  10    -0.381576960578E+03   -0.25347E-04   -0.25342E-04  9360   0.125E-03 0.404E-06
CGA:  11    -0.381576971793E+03   -0.11215E-04   -0.11217E-04  9360   0.477E-04-0.141E-07
CGA:  12    -0.381576981007E+03   -0.92141E-05   -0.92016E-05  9360   0.347E-04 0.168E-06
  41 F= -.38157698E+03 E0= -.38157181E+03  d E =-.165938E-02  mag=    58.0000
       N       E                     dE             d eps       ncg     rms          ort
SDA:   1    -0.380828421359E+03    0.74855E+00    0.00000E+00  9360   0.209E+01 0.000E+00
CGA:   2    -0.381175470700E+03   -0.34705E+00   -0.34939E+00  9360   0.343E+01-0.359E-01
CGA:   3    -0.381437011150E+03   -0.26154E+00   -0.26917E+00  9360   0.781E+00-0.242E-01
CGA:   4    -0.381536844982E+03   -0.99834E-01   -0.99947E-01  9360   0.235E+00-0.922E-02
CGA:   5    -0.381566489445E+03   -0.29644E-01   -0.29630E-01  9360   0.684E-01 0.152E-02
CGA:   6    -0.381573828830E+03   -0.73394E-02   -0.73268E-02  9360   0.416E-01-0.257E-03
CGA:   7    -0.381577308464E+03   -0.34796E-02   -0.34795E-02  9360   0.120E-01 0.111E-06
CGA:   8    -0.381578568823E+03   -0.12604E-02   -0.12632E-02  9360   0.772E-02 0.719E-04
CGA:   9    -0.381579381841E+03   -0.81302E-03   -0.81255E-03  9360   0.155E-02-0.112E-04
CGA:  10    -0.381579690935E+03   -0.30909E-03   -0.30893E-03  9360   0.766E-03 0.200E-05
CGA:  11    -0.381579795203E+03   -0.10427E-03   -0.10428E-03  9360   0.491E-03-0.547E-06
CGA:  12    -0.381579855164E+03   -0.59960E-04   -0.59962E-04  9360   0.400E-03 0.125E-05
CGA:  13    -0.381579901505E+03   -0.46342E-04   -0.46339E-04  9360   0.217E-03-0.126E-06
CGA:  14    -0.381579924693E+03   -0.23188E-04   -0.23192E-04  9360   0.154E-03 0.358E-06
CGA:  15    -0.381579951010E+03   -0.26316E-04   -0.26305E-04  9360   0.545E-04 0.216E-06
CGA:  16    -0.381579961620E+03   -0.10611E-04   -0.10585E-04  9360   0.432E-04 0.373E-06
CGA:  17    -0.381579966607E+03   -0.49871E-05   -0.49872E-05  9360   0.271E-04 0.735E-08
  42 F= -.38157997E+03 E0= -.38157476E+03  d E =-.298560E-02  mag=    58.0000
       N       E                     dE             d eps       ncg     rms          ort
SDA:   1    -0.372818338607E+03    0.87616E+01    0.00000E+00  9360   0.246E+02 0.000E+00
CGA:   2    -0.378028326038E+03   -0.52100E+01   -0.52125E+01  9360   0.217E+02 0.339E-01
CGA:   3    -0.379822660809E+03   -0.17943E+01   -0.20342E+01  9360   0.893E+01 0.125E+01
CGA:   4    -0.380972991417E+03   -0.11503E+01   -0.10823E+01  9360   0.460E+01-0.195E+01
CGA:   5    -0.381296488567E+03   -0.32350E+00   -0.31148E+00  9360   0.112E+01-0.716E-02
CGA:   6    -0.381447311119E+03   -0.15082E+00   -0.15076E+00  9360   0.376E+00 0.357E-02
CGA:   7    -0.381476888782E+03   -0.29578E-01   -0.29726E-01  9360   0.287E+00-0.158E-02
CGA:   8    -0.381504922305E+03   -0.28034E-01   -0.28017E-01  9360   0.844E-01-0.272E-03
CGA:   9    -0.381514071903E+03   -0.91496E-02   -0.92172E-02  9360   0.587E-01 0.194E-02
CGA:  10    -0.381519790453E+03   -0.57185E-02   -0.56744E-02  9360   0.275E-01-0.341E-03
CGA:  11    -0.381522681238E+03   -0.28908E-02   -0.29112E-02  9360   0.195E-01 0.552E-03
CGA:  12    -0.381524620757E+03   -0.19395E-02   -0.19518E-02  9360   0.103E-01 0.170E-03
CGA:  13    -0.381526345633E+03   -0.17249E-02   -0.16990E-02  9360   0.600E-02 0.437E-03
CGA:  14    -0.381527067390E+03   -0.72176E-03   -0.72164E-03  9360   0.616E-02-0.797E-05
CGA:  15    -0.381527788475E+03   -0.72109E-03   -0.72188E-03  9360   0.266E-02 0.116E-03
CGA:  16    -0.381528159114E+03   -0.37064E-03   -0.37085E-03  9360   0.202E-02-0.743E-05
CGA:  17    -0.381528410112E+03   -0.25100E-03   -0.25092E-03  9360   0.118E-02 0.139E-04
CGA:  18    -0.381528564242E+03   -0.15413E-03   -0.15414E-03  9360   0.559E-03-0.178E-06
CGA:  19    -0.381528637685E+03   -0.73443E-04   -0.73423E-04  9360   0.634E-03 0.201E-05
CGA:  20    -0.381528705901E+03   -0.68216E-04   -0.68231E-04  9360   0.196E-03 0.881E-06
CGA:  21    -0.381528747076E+03   -0.41175E-04   -0.41164E-04  9360   0.208E-03 0.137E-06
CGA:  22    -0.381528769613E+03   -0.22537E-04   -0.22518E-04  9360   0.114E-03-0.804E-06
CGA:  23    -0.381528783914E+03   -0.14301E-04   -0.14301E-04  9360   0.795E-04-0.687E-06
CGA:  24    -0.381528794062E+03   -0.10148E-04   -0.10152E-04  9360   0.640E-04-0.114E-05
CGA:  25    -0.381528800752E+03   -0.66902E-05   -0.66795E-05  9360   0.220E-04-0.583E-06
  43 F= -.38152880E+03 E0= -.38152339E+03  d E =0.511659E-01  mag=    58.0000
       N       E                     dE             d eps       ncg     rms          ort
SDA:   1    -0.377357701102E+03    0.41711E+01    0.00000E+00  9360   0.162E+02 0.000E+00
CGA:   2    -0.379202153192E+03   -0.18445E+01   -0.18414E+01  9360   0.136E+02-0.124E+00
CGA:   3    -0.380307403814E+03   -0.11053E+01   -0.12149E+01  9360   0.640E+01-0.102E+00
CGA:   4    -0.381111769031E+03   -0.80437E+00   -0.80435E+00  9360   0.242E+01-0.383E-01
CGA:   5    -0.381398940846E+03   -0.28717E+00   -0.28542E+00  9360   0.115E+01-0.825E-01
CGA:   6    -0.381489278762E+03   -0.90338E-01   -0.96990E-01  9360   0.320E+00 0.145E-01
CGA:   7    -0.381536524201E+03   -0.47245E-01   -0.47443E-01  9360   0.942E-01-0.597E-02
CGA:   8    -0.381548261172E+03   -0.11737E-01   -0.11736E-01  9360   0.751E-01 0.554E-03
CGA:   9    -0.381553877504E+03   -0.56163E-02   -0.56181E-02  9360   0.231E-01-0.102E-04
CGA:  10    -0.381557571158E+03   -0.36937E-02   -0.36931E-02  9360   0.899E-02 0.158E-04
CGA:  11    -0.381559171586E+03   -0.16004E-02   -0.15978E-02  9360   0.552E-02 0.405E-04
CGA:  12    -0.381559687942E+03   -0.51636E-03   -0.51695E-03  9360   0.415E-02 0.402E-05
CGA:  13    -0.381560212898E+03   -0.52496E-03   -0.52496E-03  9360   0.155E-02-0.131E-05
CGA:  14    -0.381560506960E+03   -0.29406E-03   -0.29324E-03  9360   0.122E-02 0.114E-04
CGA:  15    -0.381560642304E+03   -0.13534E-03   -0.13528E-03  9360   0.922E-03-0.147E-06
CGA:  16    -0.381560750751E+03   -0.10845E-03   -0.10847E-03  9360   0.460E-03 0.180E-05
CGA:  17    -0.381560806162E+03   -0.55411E-04   -0.55416E-04  9360   0.353E-03-0.198E-07
CGA:  18    -0.381560849872E+03   -0.43710E-04   -0.43705E-04  9360   0.144E-03-0.108E-05
CGA:  19    -0.381560876385E+03   -0.26513E-04   -0.26573E-04  9360   0.130E-03-0.103E-05
CGA:  20    -0.381560888404E+03   -0.12018E-04   -0.12015E-04  9360   0.884E-04-0.183E-06
CGA:  21    -0.381560901267E+03   -0.12863E-04   -0.12871E-04  9360   0.400E-04-0.393E-06
CGA:  22    -0.381560909427E+03   -0.81602E-05   -0.81533E-05  9360   0.308E-04 0.932E-07
  44 F= -.38156091E+03 E0= -.38155560E+03  d E =-.321087E-01  mag=    58.0000
       N       E                     dE             d eps       ncg     rms          ort
SDA:   1    -0.381140279654E+03    0.42062E+00    0.00000E+00  9360   0.146E+01 0.000E+00
CGA:   2    -0.381353510988E+03   -0.21323E+00   -0.21335E+00  9360   0.119E+01-0.428E-02
CGA:   3    -0.381448912620E+03   -0.95402E-01   -0.99489E-01  9360   0.641E+00-0.120E-01
CGA:   4    -0.381531298691E+03   -0.82386E-01   -0.82388E-01  9360   0.200E+00-0.204E-02
CGA:   5    -0.381554715961E+03   -0.23417E-01   -0.23336E-01  9360   0.967E-01-0.254E-02
CGA:   6    -0.381563150471E+03   -0.84345E-02   -0.85164E-02  9360   0.326E-01 0.172E-03
CGA:   7    -0.381566686085E+03   -0.35356E-02   -0.35373E-02  9360   0.147E-01 0.302E-04
CGA:   8    -0.381568006519E+03   -0.13204E-02   -0.13150E-02  9360   0.682E-02-0.163E-04
CGA:   9    -0.381568788836E+03   -0.78232E-03   -0.78297E-03  9360   0.222E-02 0.308E-04
CGA:  10    -0.381569143819E+03   -0.35498E-03   -0.35517E-03  9360   0.152E-02-0.324E-05
CGA:  11    -0.381569260657E+03   -0.11684E-03   -0.11708E-03  9360   0.647E-03 0.913E-06
CGA:  12    -0.381569364316E+03   -0.10366E-03   -0.10364E-03  9360   0.328E-03 0.354E-06
CGA:  13    -0.381569401522E+03   -0.37206E-04   -0.37204E-04  9360   0.213E-03 0.620E-07
CGA:  14    -0.381569426861E+03   -0.25339E-04   -0.25338E-04  9360   0.120E-03-0.212E-06
CGA:  15    -0.381569441770E+03   -0.14910E-04   -0.14910E-04  9360   0.828E-04 0.252E-06
CGA:  16    -0.381569450304E+03   -0.85341E-05   -0.85359E-05  9360   0.405E-04 0.981E-07
  45 F= -.38156945E+03 E0= -.38156412E+03  d E =-.854088E-02  mag=    58.0000
       N       E                     dE             d eps       ncg     rms          ort
SDA:   1    -0.381535931980E+03    0.33510E-01    0.00000E+00  9360   0.106E+00 0.000E+00
CGA:   2    -0.381555745073E+03   -0.19813E-01   -0.19862E-01  9360   0.102E+00-0.655E-03
CGA:   3    -0.381564250911E+03   -0.85058E-02   -0.85426E-02  9360   0.475E-01-0.260E-04
CGA:   4    -0.381568912096E+03   -0.46612E-02   -0.46643E-02  9360   0.161E-01 0.241E-04
CGA:   5    -0.381570777336E+03   -0.18652E-02   -0.18649E-02  9360   0.613E-02-0.173E-04
CGA:   6    -0.381571322032E+03   -0.54470E-03   -0.54735E-03  9360   0.217E-02 0.922E-05
CGA:   7    -0.381571590273E+03   -0.26824E-03   -0.26825E-03  9360   0.770E-03-0.365E-05
CGA:   8    -0.381571657780E+03   -0.67506E-04   -0.67530E-04  9360   0.490E-03 0.449E-06
CGA:   9    -0.381571715245E+03   -0.57465E-04   -0.57464E-04  9360   0.124E-03-0.361E-06
CGA:  10    -0.381571736041E+03   -0.20796E-04   -0.20781E-04  9360   0.932E-04 0.337E-06
CGA:  11    -0.381571744790E+03   -0.87485E-05   -0.87453E-05  9360   0.515E-04-0.108E-06
  46 F= -.38157174E+03 E0= -.38156642E+03  d E =-.229449E-02  mag=    58.0000
       N       E                     dE             d eps       ncg     rms          ort
SDA:   1    -0.381398494560E+03    0.17324E+00    0.00000E+00  9360   0.533E+00 0.000E+00
CGA:   2    -0.381498981058E+03   -0.10049E+00   -0.10053E+00  9360   0.404E+00-0.393E-03
CGA:   3    -0.381548424059E+03   -0.49443E-01   -0.49444E-01  9360   0.179E+00 0.140E-03
CGA:   4    -0.381562500570E+03   -0.14077E-01   -0.13730E-01  9360   0.837E-01 0.822E-03
CGA:   5    -0.381572301432E+03   -0.98009E-02   -0.98017E-02  9360   0.168E-01 0.726E-04
CGA:   6    -0.381574401805E+03   -0.21004E-02   -0.20998E-02  9360   0.996E-02 0.947E-04
CGA:   7    -0.381575275583E+03   -0.87378E-03   -0.87130E-03  9360   0.253E-02-0.530E-05
CGA:   8    -0.381575633856E+03   -0.35827E-03   -0.35834E-03  9360   0.208E-02-0.229E-05
CGA:   9    -0.381575787659E+03   -0.15380E-03   -0.15427E-03  9360   0.558E-03-0.401E-06
CGA:  10    -0.381575885352E+03   -0.97693E-04   -0.97734E-04  9360   0.336E-03-0.510E-06
CGA:  11    -0.381575930119E+03   -0.44767E-04   -0.44755E-04  9360   0.220E-03 0.582E-06
CGA:  12    -0.381575953934E+03   -0.23816E-04   -0.23806E-04  9360   0.172E-03-0.519E-06
CGA:  13    -0.381575979041E+03   -0.25106E-04   -0.25108E-04  9360   0.108E-03-0.390E-07
[...]
CGA:   2    -0.376476566467E+03   -0.58524E+01   -0.58657E+01  9360   0.287E+02-0.368E-01
CGA:   3    -0.379212855593E+03   -0.27363E+01   -0.30155E+01  9360   0.947E+01 0.297E+01
CGA:   4    -0.380779719949E+03   -0.15669E+01   -0.15692E+01  9360   0.305E+01-0.284E+00
CGA:   5    -0.381095887526E+03   -0.31617E+00   -0.31062E+00  9360   0.301E+01-0.452E-01
CGA:   6    -0.381249689001E+03   -0.15380E+00   -0.19113E+00  9360   0.105E+01-0.330E+00
CGA:   7    -0.381322413972E+03   -0.72725E-01   -0.76331E-01  9360   0.370E+00 0.641E-03
CGA:   8    -0.381359515600E+03   -0.37102E-01   -0.35584E-01  9360   0.270E+00-0.826E-02
CGA:   9    -0.381378500231E+03   -0.18985E-01   -0.19120E-01  9360   0.886E-01-0.175E-03
CGA:  10    -0.381388938184E+03   -0.10438E-01   -0.10466E-01  9360   0.548E-01 0.255E-02
CGA:  11    -0.381393894823E+03   -0.49566E-02   -0.47823E-02  9360   0.351E-01-0.264E-03
CGA:  12    -0.381397582952E+03   -0.36881E-02   -0.36831E-02  9360   0.132E-01-0.976E-04
CGA:  13    -0.381399226249E+03   -0.16433E-02   -0.16386E-02  9360   0.143E-01 0.579E-03
CGA:  14    -0.381400552524E+03   -0.13263E-02   -0.13158E-02  9360   0.442E-02-0.443E-04
CGA:  15    -0.381401257962E+03   -0.70544E-03   -0.70782E-03  9360   0.355E-02-0.428E-04
CGA:  16    -0.381401677000E+03   -0.41904E-03   -0.41929E-03  9360   0.209E-02 0.646E-04
CGA:  17    -0.381401915830E+03   -0.23883E-03   -0.23875E-03  9360   0.139E-02-0.438E-05
CGA:  18    -0.381402082341E+03   -0.16651E-03   -0.16652E-03  9360   0.698E-03 0.415E-05
CGA:  19    -0.381402197673E+03   -0.11533E-03   -0.11529E-03  9360   0.425E-03 0.527E-06
CGA:  20    -0.381402247561E+03   -0.49888E-04   -0.49878E-04  9360   0.375E-03-0.123E-05
CGA:  21    -0.381402298820E+03   -0.51259E-04   -0.51241E-04  9360   0.174E-03 0.798E-06
CGA:  22    -0.381402327064E+03   -0.28244E-04   -0.28258E-04  9360   0.141E-03-0.338E-06
CGA:  23    -0.381402346462E+03   -0.19398E-04   -0.19420E-04  9360   0.107E-03-0.136E-05
CGA:  24    -0.381402358647E+03   -0.12184E-04   -0.12179E-04  9360   0.586E-04-0.493E-06
CGA:  25    -0.381402366753E+03   -0.81064E-05   -0.81146E-05  9360   0.420E-04-0.631E-06
 108 F= -.38140237E+03 E0= -.38139718E+03  d E =0.125139E+00  mag=    58.0000
       N       E                     dE             d eps       ncg     rms          ort
SDA:   1    -0.378762887644E+03    0.26395E+01    0.00000E+00  9360   0.934E+01 0.000E+00
CGA:   2    -0.380000534415E+03   -0.12376E+01   -0.12465E+01  9360   0.104E+02-0.771E+00
CGA:   3    -0.380763036855E+03   -0.76250E+00   -0.83945E+00  9360   0.368E+01 0.502E-01
CGA:   4    -0.381260641614E+03   -0.49760E+00   -0.49780E+00  9360   0.148E+01-0.123E-01
CGA:   5    -0.381395648243E+03   -0.13501E+00   -0.13066E+00  9360   0.820E+00-0.133E-01
CGA:   6    -0.381458064574E+03   -0.62416E-01   -0.65564E-01  9360   0.249E+00-0.407E-02
CGA:   7    -0.381488085590E+03   -0.30021E-01   -0.30023E-01  9360   0.979E-01 0.841E-03
CGA:   8    -0.381497054634E+03   -0.89690E-02   -0.87685E-02  9360   0.481E-01-0.775E-03
CGA:   9    -0.381502377455E+03   -0.53228E-02   -0.53307E-02  9360   0.234E-01 0.383E-03
CGA:  10    -0.381504532807E+03   -0.21554E-02   -0.21777E-02  9360   0.962E-02 0.171E-03
CGA:  11    -0.381506087615E+03   -0.15548E-02   -0.15579E-02  9360   0.468E-02-0.537E-04
CGA:  12    -0.381506536365E+03   -0.44875E-03   -0.45072E-03  9360   0.319E-02 0.217E-04
CGA:  13    -0.381506928362E+03   -0.39200E-03   -0.39197E-03  9360   0.137E-02 0.310E-05
CGA:  14    -0.381507149262E+03   -0.22090E-03   -0.22116E-03  9360   0.655E-03-0.475E-05
CGA:  15    -0.381507245646E+03   -0.96384E-04   -0.96216E-04  9360   0.682E-03 0.514E-05
CGA:  16    -0.381507313445E+03   -0.67799E-04   -0.67809E-04  9360   0.242E-03 0.134E-05
CGA:  17    -0.381507348492E+03   -0.35047E-04   -0.35021E-04  9360   0.176E-03 0.142E-05
CGA:  18    -0.381507371053E+03   -0.22561E-04   -0.22556E-04  9360   0.815E-04 0.119E-05
CGA:  19    -0.381507383083E+03   -0.12030E-04   -0.12022E-04  9360   0.514E-04 0.313E-06
CGA:  20    -0.381507389700E+03   -0.66165E-05   -0.66149E-05  9360   0.483E-04 0.359E-06
 109 F= -.38150739E+03 E0= -.38150198E+03  d E =-.105023E+00  mag=    58.0000
       N       E                     dE             d eps       ncg     rms          ort
SDA:   1    -0.380777917902E+03    0.72947E+00    0.00000E+00  9360   0.243E+01 0.000E+00
CGA:   2    -0.381129918286E+03   -0.35200E+00   -0.35715E+00  9360   0.289E+01-0.142E+00
CGA:   3    -0.381332849595E+03   -0.20293E+00   -0.22030E+00  9360   0.942E+00-0.369E-01
CGA:   4    -0.381471776875E+03   -0.13893E+00   -0.13911E+00  9360   0.277E+00-0.458E-02
CGA:   5    -0.381506062450E+03   -0.34286E-01   -0.34286E-01  9360   0.145E+00-0.607E-03
CGA:   6    -0.381517322142E+03   -0.11260E-01   -0.11646E-01  9360   0.552E-01-0.450E-03
CGA:   7    -0.381523240056E+03   -0.59179E-02   -0.59047E-02  9360   0.162E-01-0.323E-03
CGA:   8    -0.381525635028E+03   -0.23950E-02   -0.23960E-02  9360   0.706E-02-0.247E-04
CGA:   9    -0.381526411030E+03   -0.77600E-03   -0.77767E-03  9360   0.370E-02 0.533E-04
CGA:  10    -0.381526947668E+03   -0.53664E-03   -0.53706E-03  9360   0.130E-02-0.117E-04
CGA:  11    -0.381527123793E+03   -0.17612E-03   -0.17599E-03  9360   0.124E-02 0.639E-05
CGA:  12    -0.381527246479E+03   -0.12269E-03   -0.12258E-03  9360   0.441E-03-0.242E-05
CGA:  13    -0.381527319028E+03   -0.72549E-04   -0.72596E-04  9360   0.256E-03-0.916E-06
CGA:  14    -0.381527365670E+03   -0.46642E-04   -0.46578E-04  9360   0.156E-03 0.100E-05
CGA:  15    -0.381527384762E+03   -0.19091E-04   -0.19096E-04  9360   0.106E-03 0.958E-06
CGA:  16    -0.381527400891E+03   -0.16130E-04   -0.16106E-04  9360   0.562E-04 0.104E-05
CGA:  17    -0.381527406744E+03   -0.58530E-05   -0.58703E-05  9360   0.400E-04 0.595E-06
 110 F= -.38152741E+03 E0= -.38152186E+03  d E =-.200170E-01  mag=    58.0000
       N       E                     dE             d eps       ncg     rms          ort
SDA:   1    -0.381403521483E+03    0.12388E+00    0.00000E+00  9360   0.422E+00 0.000E+00
CGA:   2    -0.381463715036E+03   -0.60194E-01   -0.60468E-01  9360   0.452E+00-0.109E-01
CGA:   3    -0.381499181587E+03   -0.35467E-01   -0.36953E-01  9360   0.153E+00-0.195E-02
CGA:   4    -0.381520727157E+03   -0.21546E-01   -0.21554E-01  9360   0.552E-01-0.365E-03
CGA:   5    -0.381527060687E+03   -0.63335E-02   -0.63267E-02  9360   0.209E-01-0.211E-03
CGA:   6    -0.381529378066E+03   -0.23174E-02   -0.23232E-02  9360   0.731E-02 0.139E-03
CGA:   7    -0.381530229957E+03   -0.85189E-03   -0.85094E-03  9360   0.220E-02-0.354E-04
CGA:   8    -0.381530610378E+03   -0.38042E-03   -0.37996E-03  9360   0.844E-03 0.769E-05
CGA:   9    -0.381530710412E+03   -0.10003E-03   -0.99982E-04  9360   0.752E-03-0.209E-05
CGA:  10    -0.381530788271E+03   -0.77859E-04   -0.77920E-04  9360   0.249E-03 0.138E-05
CGA:  11    -0.381530825974E+03   -0.37702E-04   -0.37703E-04  9360   0.198E-03-0.259E-06
CGA:  12    -0.381530852475E+03   -0.26501E-04   -0.26507E-04  9360   0.104E-03-0.692E-06
CGA:  13    -0.381530868749E+03   -0.16274E-04   -0.16279E-04  9360   0.662E-04-0.175E-06
CGA:  14    -0.381530881525E+03   -0.12776E-04   -0.12742E-04  9360   0.440E-04 0.523E-06
CGA:  15    -0.381530885862E+03   -0.43366E-05   -0.43411E-05  9360   0.326E-04 0.172E-06
 111 F= -.38153089E+03 E0= -.38152529E+03  d E =-.347912E-02  mag=    58.0000
       N       E                     dE             d eps       ncg     rms          ort
SDA:   1    -0.381483178231E+03    0.47703E-01    0.00000E+00  9360   0.155E+00 0.000E+00
CGA:   2    -0.381513024152E+03   -0.29846E-01   -0.29836E-01  9360   0.770E-01 0.135E-03
CGA:   3    -0.381524838375E+03   -0.11814E-01   -0.11839E-01  9360   0.534E-01-0.810E-03
CGA:   4    -0.381529352621E+03   -0.45142E-02   -0.45412E-02  9360   0.178E-01-0.300E-04
CGA:   5    -0.381531419602E+03   -0.20670E-02   -0.20707E-02  9360   0.779E-02 0.808E-04
CGA:   6    -0.381532051510E+03   -0.63191E-03   -0.62551E-03  9360   0.226E-02 0.191E-04
CGA:   7    -0.381532394855E+03   -0.34334E-03   -0.34327E-03  9360   0.767E-03 0.279E-05
CGA:   8    -0.381532496844E+03   -0.10199E-03   -0.10199E-03  9360   0.523E-03-0.400E-06
CGA:   9    -0.381532549304E+03   -0.52460E-04   -0.52545E-04  9360   0.261E-03 0.115E-05
CGA:  10    -0.381532580053E+03   -0.30750E-04   -0.30745E-04  9360   0.134E-03-0.226E-06
CGA:  11    -0.381532602735E+03   -0.22681E-04   -0.22685E-04  9360   0.102E-03-0.861E-07
CGA:  12    -0.381532614454E+03   -0.11719E-04   -0.11715E-04  9360   0.586E-04-0.333E-06
CGA:  13    -0.381532625418E+03   -0.10964E-04   -0.10955E-04  9360   0.555E-04 0.153E-06
CGA:  14    -0.381532630420E+03   -0.50017E-05   -0.49955E-05  9360   0.268E-04-0.447E-07
 112 F= -.38153263E+03 E0= -.38152702E+03  d E =-.174456E-02  mag=    58.0000
       N       E                     dE             d eps       ncg     rms          ort
SDA:   1    -0.381518480399E+03    0.14145E-01    0.00000E+00  9360   0.498E-01 0.000E+00
CGA:   2    -0.381526165137E+03   -0.76847E-02   -0.76639E-02  9360   0.359E-01 0.658E-03
CGA:   3    -0.381529883378E+03   -0.37182E-02   -0.36701E-02  9360   0.199E-01-0.234E-03
CGA:   4    -0.381531907305E+03   -0.20239E-02   -0.20275E-02  9360   0.799E-02 0.235E-04
CGA:   5    -0.381532817464E+03   -0.91016E-03   -0.91097E-03  9360   0.263E-02 0.144E-04
CGA:   6    -0.381533084733E+03   -0.26727E-03   -0.26679E-03  9360   0.965E-03-0.257E-05
CGA:   7    -0.381533204701E+03   -0.11997E-03   -0.11997E-03  9360   0.260E-03 0.735E-06
CGA:   8    -0.381533245273E+03   -0.40572E-04   -0.40555E-04  9360   0.198E-03 0.522E-06
CGA:   9    -0.381533261014E+03   -0.15741E-04   -0.15708E-04  9360   0.745E-04-0.171E-06
CGA:  10    -0.381533272653E+03   -0.11640E-04   -0.11633E-04  9360   0.434E-04 0.218E-06
CGA:  11    -0.381533278718E+03   -0.60644E-05   -0.60655E-05  9360   0.276E-04-0.845E-07
 113 F= -.38153328E+03 E0= -.38152767E+03  d E =-.648298E-03  mag=    58.0000
       N       E                     dE             d eps       ncg     rms          ort
SDA:   1    -0.381491493578E+03    0.41779E-01    0.00000E+00  9360   0.136E+00 0.000E+00
CGA:   2    -0.381514589735E+03   -0.23096E-01   -0.22996E-01  9360   0.876E-01 0.185E-02
CGA:   3    -0.381527116613E+03   -0.12527E-01   -0.12559E-01  9360   0.375E-01-0.198E-02
CGA:   4    -0.381531447464E+03   -0.43309E-02   -0.43400E-02  9360   0.162E-01 0.240E-03
CGA:   5    -0.381533064235E+03   -0.16168E-02   -0.16139E-02  9360   0.442E-02-0.157E-04
CGA:   6    -0.381533583617E+03   -0.51938E-03   -0.51967E-03  9360   0.252E-02 0.101E-04
CGA:   7    -0.381533773485E+03   -0.18987E-03   -0.18927E-03  9360   0.664E-03 0.194E-05
CGA:   8    -0.381533885172E+03   -0.11169E-03   -0.11168E-03  9360   0.261E-03 0.170E-06
CGA:   9    -0.381533919071E+03   -0.33899E-04   -0.33899E-04  9360   0.153E-03 0.151E-06
CGA:  10    -0.381533937722E+03   -0.18651E-04   -0.18651E-04  9360   0.779E-04 0.195E-06
CGA:  11    -0.381533947643E+03   -0.99211E-05   -0.99204E-05  9360   0.515E-04-0.306E-06
 114 F= -.38153395E+03 E0= -.38152834E+03  d E =-.668925E-03  mag=    58.0000
       N       E                     dE             d eps       ncg     rms          ort
SDA:   1    -0.381517132856E+03    0.16805E-01    0.00000E+00  9360   0.640E-01 0.000E+00
CGA:   2    -0.381524204165E+03   -0.70713E-02   -0.71361E-02  9360   0.525E-01 0.143E-02
CGA:   3    -0.381530282697E+03   -0.60785E-02   -0.60594E-02  9360   0.249E-01-0.526E-03
CGA:   4    -0.381532840744E+03   -0.25580E-02   -0.25564E-02  9360   0.935E-02-0.196E-04
CGA:   5    -0.381533865711E+03   -0.10250E-02   -0.10259E-02  9360   0.336E-02 0.200E-04
CGA:   6    -0.381534202677E+03   -0.33697E-03   -0.33670E-03  9360   0.976E-03-0.259E-05
CGA:   7    -0.381534340697E+03   -0.13802E-03   -0.13803E-03  9360   0.410E-03-0.337E-06
CGA:   8    -0.381534372896E+03   -0.32199E-04   -0.32293E-04  9360   0.194E-03 0.304E-06
CGA:   9    -0.381534400635E+03   -0.27740E-04   -0.27752E-04  9360   0.656E-04-0.550E-06
CGA:  10    -0.381534408595E+03   -0.79600E-05   -0.79602E-05  9360   0.418E-04 0.760E-07
 115 F= -.38153441E+03 E0= -.38152879E+03  d E =-.460953E-03  mag=    58.0000
       N       E                     dE             d eps       ncg     rms          ort
SDA:   1    -0.378070459857E+03    0.34639E+01    0.00000E+00  9360   0.958E+01 0.000E+00
CGA:   2    -0.379928155172E+03   -0.18577E+01   -0.19013E+01  9360   0.148E+02-0.394E+00
CGA:   3    -0.380769987173E+03   -0.84183E+00   -0.10640E+01  9360   0.457E+01-0.900E+00
CGA:   4    -0.381306943937E+03   -0.53696E+00   -0.53709E+00  9360   0.123E+01-0.924E-01
CGA:   5    -0.381455346841E+03   -0.14840E+00   -0.14835E+00  9360   0.493E+00-0.208E-01
CGA:   6    -0.381500228029E+03   -0.44881E-01   -0.45879E-01  9360   0.169E+00 0.701E-02
CGA:   7    -0.381521229927E+03   -0.21002E-01   -0.21001E-01  9360   0.584E-01-0.249E-02
CGA:   8    -0.381529492575E+03   -0.82626E-02   -0.82568E-02  9360   0.240E-01 0.185E-03
CGA:   9    -0.381531900106E+03   -0.24075E-02   -0.24160E-02  9360   0.157E-01 0.968E-04
CGA:  10    -0.381533507071E+03   -0.16070E-02   -0.16012E-02  9360   0.463E-02-0.795E-04
CGA:  11    -0.381534243269E+03   -0.73620E-03   -0.73429E-03  9360   0.358E-02 0.375E-04
CGA:  12    -0.381534623461E+03   -0.38019E-03   -0.37963E-03  9360   0.161E-02-0.964E-05
CGA:  13    -0.381534928052E+03   -0.30459E-03   -0.30426E-03  9360   0.124E-02 0.453E-05
CGA:  14    -0.381535058940E+03   -0.13089E-03   -0.13074E-03  9360   0.918E-03-0.221E-05
CGA:  15    -0.381535182008E+03   -0.12307E-03   -0.12303E-03  9360   0.515E-03 0.294E-05
CGA:  16    -0.381535256869E+03   -0.74862E-04   -0.74839E-04  9360   0.294E-03 0.959E-06
CGA:  17    -0.381535297476E+03   -0.40607E-04   -0.40598E-04  9360   0.226E-03 0.975E-06
CGA:  18    -0.381535325571E+03   -0.28095E-04   -0.28096E-04  9360   0.103E-03 0.479E-06
CGA:  19    -0.381535339901E+03   -0.14330E-04   -0.14319E-04  9360   0.107E-03 0.882E-06
CGA:  20    -0.381535352150E+03   -0.12249E-04   -0.12247E-04  9360   0.426E-04 0.371E-07
CGA:  21    -0.381535360474E+03   -0.83240E-05   -0.83430E-05  9360   0.380E-04-0.290E-06
 116 F= -.38153536E+03 E0= -.38152972E+03  d E =-.951878E-03  mag=    58.0000
       N       E                     dE             d eps       ncg     rms          ort
SDA:   1    -0.380385069776E+03    0.11503E+01    0.00000E+00  9360   0.327E+01 0.000E+00
CGA:   2    -0.381067327624E+03   -0.68226E+00   -0.67148E+00  9360   0.225E+01 0.124E+00
CGA:   3    -0.381328972196E+03   -0.26164E+00   -0.23766E+00  9360   0.149E+01-0.161E+00
CGA:   4    -0.381471846316E+03   -0.14287E+00   -0.14440E+00  9360   0.334E+00 0.121E-01
CGA:   5    -0.381515072386E+03   -0.43226E-01   -0.43231E-01  9360   0.124E+00 0.118E-02
CGA:   6    -0.381527911804E+03   -0.12839E-01   -0.12791E-01  9360   0.555E-01-0.419E-03
CGA:   7    -0.381532632311E+03   -0.47205E-02   -0.48212E-02  9360   0.227E-01 0.552E-04
CGA:   8    -0.381535212914E+03   -0.25806E-02   -0.25790E-02  9360   0.105E-01-0.465E-04
CGA:   9    -0.381536196468E+03   -0.98355E-03   -0.97766E-03  9360   0.414E-02-0.228E-04
CGA:  10    -0.381536866947E+03   -0.67048E-03   -0.66975E-03  9360   0.134E-02 0.149E-04
CGA:  11    -0.381537107017E+03   -0.24007E-03   -0.24026E-03  9360   0.120E-02-0.261E-05
CGA:  12    -0.381537211580E+03   -0.10456E-03   -0.10495E-03  9360   0.676E-03 0.178E-05
CGA:  13    -0.381537308410E+03   -0.96830E-04   -0.96808E-04  9360   0.322E-03 0.120E-05
CGA:  14    -0.381537371114E+03   -0.62704E-04   -0.62633E-04  9360   0.206E-03 0.114E-05
CGA:  15    -0.381537399545E+03   -0.28431E-04   -0.28424E-04  9360   0.138E-03 0.770E-06
CGA:  16    -0.381537416900E+03   -0.17354E-04   -0.17353E-04  9360   0.725E-04-0.765E-07
CGA:  17    -0.381537428760E+03   -0.11860E-04   -0.11857E-04  9360   0.399E-04 0.961E-07
CGA:  18    -0.381537432803E+03   -0.40423E-05   -0.40349E-05  9360   0.345E-04-0.197E-06
 117 F= -.38153743E+03 E0= -.38153184E+03  d E =-.207233E-02  mag=    58.0000
       N       E                     dE             d eps       ncg     rms          ort
SDA:   1    -0.381354439316E+03    0.18299E+00    0.00000E+00  9360   0.548E+00 0.000E+00
CGA:   2    -0.381462551183E+03   -0.10811E+00   -0.10808E+00  9360   0.296E+00 0.390E-03
CGA:   3    -0.381514531134E+03   -0.51980E-01   -0.51990E-01  9360   0.110E+00-0.182E-03
CGA:   4    -0.381530039106E+03   -0.15508E-01   -0.15508E-01  9360   0.329E-01-0.600E-04
CGA:   5    -0.381534402537E+03   -0.43634E-02   -0.43637E-02  9360   0.128E-01 0.300E-04
CGA:   6    -0.381535579037E+03   -0.11765E-02   -0.11754E-02  9360   0.638E-02 0.500E-05
CGA:   7    -0.381536229078E+03   -0.65004E-03   -0.64947E-03  9360   0.219E-02-0.280E-05
CGA:   8    -0.381536479890E+03   -0.25081E-03   -0.25106E-03  9360   0.135E-02 0.529E-05
CGA:   9    -0.381536624488E+03   -0.14460E-03   -0.14442E-03  9360   0.411E-03-0.159E-05
CGA:  10    -0.381536695858E+03   -0.71371E-04   -0.71329E-04  9360   0.207E-03 0.732E-06
CGA:  11    -0.381536721392E+03   -0.25534E-04   -0.25523E-04  9360   0.151E-03-0.653E-06
CGA:  12    -0.381536735803E+03   -0.14411E-04   -0.14422E-04  9360   0.699E-04 0.124E-06
CGA:  13    -0.381536746593E+03   -0.10790E-04   -0.10792E-04  9360   0.363E-04-0.105E-06
CGA:  14    -0.381536751206E+03   -0.46126E-05   -0.46147E-05  9360   0.255E-04 0.396E-06
 118 F= -.38153675E+03 E0= -.38153109E+03  d E =0.681597E-03  mag=    58.0000
       N       E                     dE             d eps       ncg     rms          ort
SDA:   1    -0.381483345213E+03    0.53401E-01    0.00000E+00  9360   0.160E+00 0.000E+00
CGA:   2    -0.381515264123E+03   -0.31919E-01   -0.31980E-01  9360   0.128E+00-0.744E-03
CGA:   3    -0.381526855205E+03   -0.11591E-01   -0.11898E-01  9360   0.775E-01 0.311E-03
CGA:   4    -0.381534605936E+03   -0.77507E-02   -0.77248E-02  9360   0.184E-01-0.125E-03
CGA:   5    -0.381537087384E+03   -0.24814E-02   -0.24814E-02  9360   0.646E-02 0.139E-04
CGA:   6    -0.381537760283E+03   -0.67290E-03   -0.67184E-03  9360   0.318E-02-0.123E-04
CGA:   7    -0.381538045104E+03   -0.28482E-03   -0.28598E-03  9360   0.112E-02 0.907E-06
CGA:   8    -0.381538185706E+03   -0.14060E-03   -0.14060E-03  9360   0.472E-03-0.127E-05
CGA:   9    -0.381538236097E+03   -0.50391E-04   -0.50390E-04  9360   0.264E-03 0.394E-06
CGA:  10    -0.381538267824E+03   -0.31727E-04   -0.31726E-04  9360   0.916E-04-0.153E-06
CGA:  11    -0.381538279903E+03   -0.12079E-04   -0.12077E-04  9360   0.790E-04 0.347E-06
CGA:  12    -0.381538287871E+03   -0.79677E-05   -0.79632E-05  9360   0.285E-04-0.682E-07
 119 F= -.38153829E+03 E0= -.38153266E+03  d E =-.153667E-02  mag=    58.0000
       N       E                     dE             d eps       ncg     rms          ort
SDA:   1    -0.381486396894E+03    0.51883E-01    0.00000E+00  9360   0.174E+00 0.000E+00
CGA:   2    -0.381507976786E+03   -0.21580E-01   -0.21621E-01  9360   0.178E+00 0.607E-02
CGA:   3    -0.381527419335E+03   -0.19443E-01   -0.19188E-01  9360   0.574E-01-0.312E-02
CGA:   4    -0.381535532827E+03   -0.81135E-02   -0.81087E-02  9360   0.237E-01 0.180E-03
CGA:   5    -0.381537464005E+03   -0.19312E-02   -0.19268E-02  9360   0.810E-02 0.704E-05
CGA:   6    -0.381538472082E+03   -0.10081E-02   -0.10081E-02  9360   0.276E-02 0.152E-04
CGA:   7    -0.381538716247E+03   -0.24416E-03   -0.24323E-03  9360   0.135E-02-0.314E-05
CGA:   8    -0.381538886898E+03   -0.17065E-03   -0.17063E-03  9360   0.399E-03 0.431E-05
CGA:   9    -0.381538935029E+03   -0.48131E-04   -0.48127E-04  9360   0.290E-03-0.734E-06
CGA:  10    -0.381538965167E+03   -0.30138E-04   -0.30159E-04  9360   0.998E-04 0.698E-06
CGA:  11    -0.381538977502E+03   -0.12335E-04   -0.12336E-04  9360   0.696E-04-0.314E-06
CGA:  12    -0.381538986902E+03   -0.94001E-05   -0.93975E-05  9360   0.390E-04 0.182E-06
 120 F= -.38153899E+03 E0= -.38153337E+03  d E =-.699031E-03  mag=    58.0000
