       N       E                     dE             d eps       ncg     rms          rms(c)
DAV:   1     0.629377207380E+04    0.62938E+04   -0.27081E+05 35904   0.155E+03
DAV:   2     0.399744321818E+03   -0.58940E+04   -0.55828E+04 35712   0.470E+02
DAV:   3    -0.348620301194E+03   -0.74836E+03   -0.72693E+03 40304   0.172E+02
DAV:   4    -0.385198784218E+03   -0.36578E+02   -0.36051E+02 47152   0.403E+01
DAV:   5    -0.387924756570E+03   -0.27260E+01   -0.27213E+01 66352   0.829E+00    0.514E-01
DAV:   6    -0.388098760573E+03   -0.17400E+00   -0.65823E-01 50368   0.128E+00    0.569E-01
DAV:   7    -0.388102474747E+03   -0.37142E-02   -0.35706E-02 63200   0.321E-01    0.820E-01
DAV:   8    -0.388101567904E+03    0.90684E-03   -0.14459E-02 51728   0.186E-01    0.475E-01
DAV:   9    -0.388101736323E+03   -0.16842E-03   -0.50700E-03 48352   0.113E-01    0.394E-01
DAV:  10    -0.388101624355E+03    0.11197E-03   -0.31905E-03 46768   0.787E-02    0.303E-01
DAV:  11    -0.388101534625E+03    0.89730E-04   -0.90724E-04 40496   0.471E-02    0.136E-01
DAV:  12    -0.388101590522E+03   -0.55897E-04   -0.38069E-05 35696   0.189E-02    0.115E-01
DAV:  13    -0.388101590889E+03   -0.36693E-06   -0.14195E-05 28896   0.117E-02
   1 F= -.38810159E+03 E0= -.38808213E+03  d E =-.388102E+03  mag=    34.0000
