       N       E                     dE             d eps       ncg     rms          ort
DAV:   1     0.518865468943E+04    0.51887E+04   -0.25315E+05 27440   0.161E+03
DAV:   2    -0.768862986685E+02   -0.52655E+04   -0.50963E+04 27440   0.458E+02
DAV:   3    -0.663295173837E+03   -0.58641E+03   -0.57527E+03 27440   0.167E+02
DAV:   4    -0.683467694155E+03   -0.20173E+02   -0.19747E+02 27440   0.364E+01
DAV:   5    -0.684120657350E+03   -0.65296E+00   -0.65068E+00 27440   0.644E+00
SDA:   6    -0.300925660682E+03    0.38319E+03   -0.65068E+00 27440   0.137E+04 0.000E+00
CGA:   7    -0.386405377099E+03   -0.85480E+02   -0.11331E+03 27440   0.216E+04-0.350E+03
CGA:   8    -0.419135663190E+03   -0.32730E+02   -0.80414E+02 27440   0.538E+03-0.406E+03
CGA:   9    -0.428735163436E+03   -0.95995E+01   -0.28632E+02 27440   0.441E+03-0.245E+03
CGA:  10    -0.444135423791E+03   -0.15400E+02   -0.10133E+02 27440   0.388E+03 0.759E+02
CGA:  11    -0.462773660347E+03   -0.18638E+02   -0.21093E+02 27440   0.170E+03-0.623E+02
CGA:  12    -0.468975469590E+03   -0.62018E+01   -0.95528E+01 27440   0.334E+03-0.398E+02
CGA:  13    -0.465517255487E+03    0.34582E+01   -0.84884E+01 27440   0.433E+03-0.255E+03
CGA:  14    -0.468424260370E+03   -0.29070E+01   -0.16135E+02 27440   0.337E+03-0.145E+03
CGA:  15    -0.478409584464E+03   -0.99853E+01   -0.59723E+01 27440   0.147E+03-0.108E+03
CGA:  16    -0.480968395934E+03   -0.25588E+01   -0.43125E+01 27440   0.109E+03-0.225E+02
CGA:  17    -0.484118107501E+03   -0.31497E+01   -0.26273E+01 27440   0.110E+03 0.191E+02
CGA:  18    -0.475451495953E+03    0.86666E+01   -0.59716E+01 27440   0.563E+03-0.967E+02
CGA:  19    -0.480466137830E+03   -0.50146E+01   -0.27437E+02 27440   0.136E+03-0.101E+03
CGA:  20    -0.485122470993E+03   -0.46563E+01   -0.28153E+01 27440   0.985E+02 0.969E+02
CGA:  21    -0.488236079653E+03   -0.31136E+01   -0.32373E+01 27440   0.273E+02-0.300E+02
CGA:  22    -0.489434986409E+03   -0.11989E+01   -0.12241E+01 27440   0.183E+02 0.848E+00
CGA:  23    -0.491107538649E+03   -0.16726E+01   -0.18277E+01 27440   0.872E+01 0.327E+01
CGA:  24    -0.492068568056E+03   -0.96103E+00   -0.10240E+01 27440   0.881E+01 0.164E+01
CGA:  25    -0.494026747263E+03   -0.19582E+01   -0.18464E+01 27440   0.183E+01 0.168E+01
CGA:  26    -0.494784385176E+03   -0.75764E+00   -0.76170E+00 27440   0.400E+00 0.242E+00
CGA:  27    -0.495002141075E+03   -0.21776E+00   -0.20281E+00 27440   0.128E+00 0.639E-01
CGA:  28    -0.495077054040E+03   -0.74913E-01   -0.17874E-02 27440   0.284E+00-0.812E-01
CGA:  29    -0.495138407231E+03   -0.61353E-01   -0.61385E-01 27440   0.276E-01 0.793E-03
CGA:  30    -0.495158150364E+03   -0.19743E-01   -0.18464E-01 27440   0.220E-01 0.320E-02
CGA:  31    -0.495174622679E+03   -0.16472E-01   -0.20133E-01 27440   0.381E-01-0.842E-02
CGA:  32    -0.495011506500E+03    0.16312E+00   -0.58267E-01 27440   0.847E+00-0.112E+00
CGA:  33    -0.495176280761E+03   -0.16477E+00   -0.27931E+00 27440   0.188E+00 0.107E+00
CGA:  34    -0.495243897712E+03   -0.67617E-01   -0.83144E-01 27440   0.462E-01 0.268E-01
CGA:  35    -0.495281507182E+03   -0.37609E-01   -0.35329E-01 27440   0.228E-01 0.113E-01
CGA:  36    -0.495306692783E+03   -0.25186E-01   -0.25281E-01 27440   0.412E-01 0.521E-03
CGA:  37    -0.495329759627E+03   -0.23067E-01   -0.22966E-01 27440   0.564E-01 0.155E-02
CGA:  38    -0.495353296273E+03   -0.23537E-01   -0.25241E-01 27440   0.761E-01 0.756E-02
CGA:  39    -0.495397113604E+03   -0.43817E-01   -0.43911E-01 27440   0.962E-01 0.143E-01
CGA:  40    -0.495444202667E+03   -0.47089E-01   -0.48839E-01 27440   0.123E+00 0.288E-01
CGA:  41    -0.495500410395E+03   -0.56208E-01   -0.59710E-01 27440   0.146E+00 0.420E-01
CGA:  42    -0.495559802092E+03   -0.59392E-01   -0.63921E-01 27440   0.199E+00 0.447E-01
CGA:  43    -0.495618470113E+03   -0.58668E-01   -0.62650E-01 27440   0.242E+00 0.515E-01
CGA:  44    -0.495668717573E+03   -0.50247E-01   -0.54871E-01 27440   0.276E+00 0.373E-01
CGA:  45    -0.495711600368E+03   -0.42883E-01   -0.47271E-01 27440   0.311E+00 0.134E-01
CGA:  46    -0.495748059695E+03   -0.36459E-01   -0.39945E-01 27440   0.320E+00-0.342E-02
CGA:  47    -0.495780437696E+03   -0.32378E-01   -0.33616E-01 27440   0.311E+00-0.159E-01
CGA:  48    -0.495811285835E+03   -0.30848E-01   -0.29374E-01 27440   0.307E+00-0.278E-01
CGA:  49    -0.495843008113E+03   -0.31722E-01   -0.27239E-01 27440   0.310E+00-0.374E-01
CGA:  50    -0.495875354827E+03   -0.32347E-01   -0.25529E-01 27440   0.297E+00-0.392E-01
CGA:  51    -0.495906125926E+03   -0.30771E-01   -0.23169E-01 27440   0.265E+00-0.372E-01
CGA:  52    -0.495933579716E+03   -0.27454E-01   -0.20150E-01 27440   0.234E+00-0.349E-01
CGA:  53    -0.495957835677E+03   -0.24256E-01   -0.17783E-01 27440   0.215E+00-0.291E-01
CGA:  54    -0.495979864694E+03   -0.22029E-01   -0.16573E-01 27440   0.196E+00-0.220E-01
CGA:  55    -0.495999136160E+03   -0.19271E-01   -0.15173E-01 27440   0.171E+00-0.148E-01
CGA:  56    -0.496015060693E+03   -0.15925E-01   -0.13300E-01 27440   0.146E+00-0.859E-02
CGA:  57    -0.496028263696E+03   -0.13203E-01   -0.11801E-01 27440   0.130E+00-0.345E-02
CGA:  58    -0.496039633289E+03   -0.11370E-01   -0.10900E-01 27440   0.117E+00 0.133E-02
CGA:  59    -0.496049362914E+03   -0.97296E-02   -0.10031E-01 27440   0.101E+00 0.513E-02
CGA:  60    -0.496057411187E+03   -0.80483E-02   -0.89229E-02 27440   0.874E-01 0.751E-02
CGA:  61    -0.496064202874E+03   -0.67917E-02   -0.80411E-02 27440   0.791E-01 0.913E-02
CGA:  62    -0.496070375587E+03   -0.61727E-02   -0.76889E-02 27440   0.753E-01 0.106E-01
SDA:  63    -0.496076296472E+03   -0.59209E-02   -0.76287E-02 27440   0.727E-01 0.120E-01
CGA:  64    -0.496138694285E+03   -0.62398E-01   -0.61172E-01 27440   0.903E-01 0.167E-02
CGA:  65    -0.496176279427E+03   -0.37585E-01   -0.37517E-01 27440   0.478E-01 0.984E-03
CGA:  66    -0.496201685426E+03   -0.25406E-01   -0.24653E-01 27440   0.402E-01 0.330E-02
CGA:  67    -0.496221161100E+03   -0.19476E-01   -0.18892E-01 27440   0.517E-01 0.384E-02
CGA:  68    -0.496262747480E+03   -0.41586E-01   -0.39044E-01 27440   0.723E-01 0.564E-02
CGA:  69    -0.496306707955E+03   -0.43960E-01   -0.44634E-01 27440   0.628E-01-0.213E-02
CGA:  70    -0.496335428516E+03   -0.28721E-01   -0.28917E-01 27440   0.566E-01-0.116E-02
CGA:  71    -0.496368524039E+03   -0.33096E-01   -0.33104E-01 27440   0.559E-01-0.221E-03
CGA:  72    -0.496398859977E+03   -0.30336E-01   -0.30874E-01 27440   0.591E-01-0.270E-02
CGA:  73    -0.496425708317E+03   -0.26848E-01   -0.27004E-01 27440   0.422E-01-0.289E-02
CGA:  74    -0.496444018119E+03   -0.18310E-01   -0.18528E-01 27440   0.324E-01-0.287E-02
CGA:  75    -0.496457101459E+03   -0.13083E-01   -0.13226E-01 27440   0.199E-01-0.251E-02
CGA:  76    -0.496465204982E+03   -0.81035E-02   -0.81519E-02 27440   0.151E-01-0.106E-02
CGA:  77    -0.496471672392E+03   -0.64674E-02   -0.64893E-02 27440   0.114E-01-0.136E-03
CGA:  78    -0.496476455251E+03   -0.47829E-02   -0.47477E-02 27440   0.898E-02 0.940E-03
CGA:  79    -0.496480916301E+03   -0.44610E-02   -0.43776E-02 27440   0.805E-02 0.138E-02
CGA:  80    -0.496485589501E+03   -0.46732E-02   -0.45138E-02 27440   0.875E-02 0.167E-02
CGA:  81    -0.496491534689E+03   -0.59452E-02   -0.56514E-02 27440   0.102E-01 0.192E-02
CGA:  82    -0.496498420429E+03   -0.68857E-02   -0.66503E-02 27440   0.110E-01 0.146E-02
CGA:  83    -0.496504591024E+03   -0.61706E-02   -0.61210E-02 27440   0.952E-02 0.425E-03
CGA:  84    -0.496509080547E+03   -0.44895E-02   -0.44890E-02 27440   0.811E-02-0.176E-03
CGA:  85    -0.496512501674E+03   -0.34211E-02   -0.34305E-02 27440   0.628E-02-0.577E-03
CGA:  86    -0.496515169206E+03   -0.26675E-02   -0.27001E-02 27440   0.586E-02-0.679E-03
CGA:  87    -0.496517504697E+03   -0.23355E-02   -0.23611E-02 27440   0.524E-02-0.706E-03
CGA:  88    -0.496519479547E+03   -0.19749E-02   -0.19827E-02 27440   0.463E-02-0.593E-03
CGA:  89    -0.496521255944E+03   -0.17764E-02   -0.17860E-02 27440   0.410E-02-0.593E-03
CGA:  90    -0.496522769340E+03   -0.15134E-02   -0.15160E-02 27440   0.344E-02-0.603E-03
CGA:  91    -0.496523989158E+03   -0.12198E-02   -0.12177E-02 27440   0.302E-02-0.504E-03
CGA:  92    -0.496525064141E+03   -0.10750E-02   -0.10744E-02 27440   0.275E-02-0.371E-03
CGA:  93    -0.496526136947E+03   -0.10728E-02   -0.10810E-02 27440   0.297E-02-0.304E-03
SDA:  94    -0.496527404448E+03   -0.12675E-02   -0.12860E-02 27440   0.343E-02-0.312E-03
CGA:  95    -0.496529645634E+03   -0.22412E-02   -0.21777E-02 27440   0.230E-02 0.307E-03
CGA:  96    -0.496531272722E+03   -0.16271E-02   -0.15594E-02 27440   0.179E-02 0.367E-03
CGA:  97    -0.496532743007E+03   -0.14703E-02   -0.13905E-02 27440   0.110E-02 0.358E-03
CGA:  98    -0.496534088474E+03   -0.13455E-02   -0.12290E-02 27440   0.133E-02 0.248E-03
CGA:  99    -0.496535490659E+03   -0.14022E-02   -0.13149E-02 27440   0.920E-03 0.273E-03
CGA: 100    -0.496536282823E+03   -0.79216E-03   -0.77223E-03 27440   0.624E-03 0.103E-03
   1 F= -.49653628E+03 E0= -.49653628E+03  d E =-.496536E+03  mag=    18.0000
       N       E                     dE             d eps       ncg     rms          ort
SDA:   1    -0.496402387615E+03    0.13310E+00    0.00000E+00 27440   0.353E+00 0.000E+00
CGA:   2    -0.496499608396E+03   -0.97221E-01   -0.97107E-01 27440   0.164E+00-0.465E-03
CGA:   3    -0.496529606737E+03   -0.29998E-01   -0.29915E-01 27440   0.404E-01-0.144E-03
CGA:   4    -0.496535830693E+03   -0.62240E-02   -0.62374E-02 27440   0.901E-02 0.564E-04
CGA:   5    -0.496537402062E+03   -0.15714E-02   -0.15830E-02 27440   0.203E-02 0.420E-04
CGA:   6    -0.496537841409E+03   -0.43935E-03   -0.43729E-03 27440   0.652E-03-0.822E-05
CGA:   7    -0.496537999292E+03   -0.15788E-03   -0.15518E-03 27440   0.256E-03-0.122E-04
CGA:   8    -0.496538085671E+03   -0.86379E-04   -0.84530E-04 27440   0.189E-03-0.169E-04
CGA:   9    -0.496538180734E+03   -0.95063E-04   -0.10244E-03 27440   0.339E-03-0.524E-04
CGA:  10    -0.496538312462E+03   -0.13173E-03   -0.15554E-03 27440   0.585E-03-0.127E-03
CGA:  11    -0.496538491905E+03   -0.17944E-03   -0.19861E-03 27440   0.773E-03-0.224E-03
CGA:  12    -0.496538728453E+03   -0.23655E-03   -0.27953E-03 27440   0.113E-02-0.365E-03
CGA:  13    -0.496539014389E+03   -0.28594E-03   -0.30648E-03 27440   0.124E-02-0.472E-03
CGA:  14    -0.496539357139E+03   -0.34275E-03   -0.34825E-03 27440   0.121E-02-0.467E-03
CGA:  15    -0.496539717720E+03   -0.36058E-03   -0.36559E-03 27440   0.122E-02-0.372E-03
CGA:  16    -0.496540153478E+03   -0.43576E-03   -0.44829E-03 27440   0.143E-02-0.226E-03
CGA:  17    -0.496540854964E+03   -0.70149E-03   -0.72587E-03 27440   0.189E-02-0.799E-04
CGA:  18    -0.496541609288E+03   -0.75432E-03   -0.76475E-03 27440   0.145E-02 0.254E-03
CGA:  19    -0.496542239415E+03   -0.63013E-03   -0.65063E-03 27440   0.846E-03 0.240E-03
CGA:  20    -0.496542618075E+03   -0.37866E-03   -0.39038E-03 27440   0.480E-03 0.128E-03
CGA:  21    -0.496542842611E+03   -0.22454E-03   -0.22866E-03 27440   0.315E-03 0.598E-04
CGA:  22    -0.496543027831E+03   -0.18522E-03   -0.18394E-03 27440   0.280E-03 0.146E-04
CGA:  23    -0.496543227581E+03   -0.19975E-03   -0.23083E-03 27440   0.441E-03-0.108E-03
CGA:  24    -0.496543334212E+03   -0.10663E-03   -0.20850E-03 27440   0.748E-03-0.369E-03
CGA:  25    -0.496543739169E+03   -0.40496E-03   -0.40899E-03 27440   0.476E-03-0.852E-04
CGA:  26    -0.496543935654E+03   -0.19648E-03   -0.19289E-03 27440   0.282E-03-0.800E-04
CGA:  27    -0.496544077592E+03   -0.14194E-03   -0.15111E-03 27440   0.154E-03-0.642E-04
CGA:  28    -0.496544176012E+03   -0.98421E-04   -0.10209E-03 27440   0.119E-03-0.107E-04
CGA:  29    -0.496544250324E+03   -0.74312E-04   -0.72018E-04 27440   0.879E-04 0.180E-04
CGA:  30    -0.496544299731E+03   -0.49407E-04   -0.50365E-04 27440   0.469E-04 0.290E-04
CGA:  31    -0.496544329919E+03   -0.30188E-04   -0.31136E-04 27440   0.257E-04 0.312E-04
CGA:  32    -0.496544345569E+03   -0.15649E-04   -0.15071E-04 27440   0.197E-04 0.990E-05
CGA:  33    -0.496544359172E+03   -0.13604E-04   -0.13976E-04 27440   0.156E-04 0.201E-04
CGA:  34    -0.496544368496E+03   -0.93235E-05   -0.89035E-05 27440   0.127E-04 0.104E-04
   2 F= -.49654437E+03 E0= -.49654437E+03  d E =-.808567E-02  mag=    18.0000
       N       E                     dE             d eps       ncg     rms          ort
SDA:   1    -0.496544132540E+03    0.22663E-03    0.00000E+00 27440   0.111E-02 0.000E+00
CGA:   2    -0.496544424906E+03   -0.29237E-03   -0.30037E-03 27440   0.516E-03 0.303E-04
CGA:   3    -0.496544515596E+03   -0.90690E-04   -0.97754E-04 27440   0.134E-03 0.211E-04
CGA:   4    -0.496544539810E+03   -0.24214E-04   -0.24330E-04 27440   0.459E-04 0.364E-06
CGA:   5    -0.496544550834E+03   -0.11024E-04   -0.10889E-04 27440   0.290E-04-0.540E-06
CGA:   6    -0.496544559056E+03   -0.82222E-05   -0.92662E-05 27440   0.291E-04 0.680E-05
CGA:   7    -0.496544572918E+03   -0.13862E-04   -0.14776E-04 27440   0.367E-04 0.156E-04
CGA:   8    -0.496544581818E+03   -0.89001E-05   -0.93747E-05 27440   0.235E-04 0.225E-05
   3 F= -.49654458E+03 E0= -.49654458E+03  d E =-.829900E-02  mag=    18.0000
       N       E                     dE             d eps       ncg     rms          ort
SDA:   1    -0.496521963390E+03    0.22610E-01    0.00000E+00 27440   0.605E-01 0.000E+00
CGA:   2    -0.496538658288E+03   -0.16695E-01   -0.16738E-01 27440   0.276E-01 0.257E-03
CGA:   3    -0.496543858572E+03   -0.52003E-02   -0.52199E-02 27440   0.647E-02 0.886E-04
CGA:   4    -0.496544909526E+03   -0.10510E-02   -0.10402E-02 27440   0.144E-02-0.390E-04
CGA:   5    -0.496545172499E+03   -0.26297E-03   -0.25714E-03 27440   0.349E-03-0.242E-04
CGA:   6    -0.496545246295E+03   -0.73796E-04   -0.72744E-04 27440   0.114E-03-0.542E-05
CGA:   7    -0.496545275364E+03   -0.29068E-04   -0.27904E-04 27440   0.506E-04-0.797E-05
CGA:   8    -0.496545293982E+03   -0.18618E-04   -0.18753E-04 27440   0.551E-04-0.127E-04
CGA:   9    -0.496545315118E+03   -0.21136E-04   -0.25775E-04 27440   0.110E-03-0.197E-04
CGA:  10    -0.496545352956E+03   -0.37839E-04   -0.42251E-04 27440   0.170E-03-0.225E-04
CGA:  11    -0.496545422223E+03   -0.69267E-04   -0.68506E-04 27440   0.198E-03 0.708E-05
CGA:  12    -0.496545528745E+03   -0.10652E-03   -0.10230E-03 27440   0.195E-03 0.514E-04
CGA:  13    -0.496545655439E+03   -0.12669E-03   -0.12150E-03 27440   0.152E-03 0.681E-04
CGA:  14    -0.496545753124E+03   -0.97686E-04   -0.95381E-04 27440   0.933E-04 0.554E-04
CGA:  15    -0.496545807869E+03   -0.54745E-04   -0.54592E-04 27440   0.535E-04 0.410E-04
CGA:  16    -0.496545848094E+03   -0.40225E-04   -0.38167E-04 27440   0.466E-04 0.293E-04
CGA:  17    -0.496545870735E+03   -0.22642E-04   -0.22845E-04 27440   0.374E-04-0.333E-05
CGA:  18    -0.496545895994E+03   -0.25259E-04   -0.24243E-04 27440   0.393E-04 0.389E-05
CGA:  19    -0.496545925637E+03   -0.29643E-04   -0.27157E-04 27440   0.364E-04 0.139E-04
CGA:  20    -0.496545982127E+03   -0.56490E-04   -0.47582E-04 27440   0.640E-04 0.177E-04
CGA:  21    -0.496546123096E+03   -0.14097E-03   -0.11128E-03 27440   0.104E-03 0.447E-04
CGA:  22    -0.496546160313E+03   -0.37218E-04   -0.39026E-04 27440   0.313E-04 0.129E-04
CGA:  23    -0.496546181123E+03   -0.20809E-04   -0.20313E-04 27440   0.246E-04 0.711E-05
CGA:  24    -0.496546214120E+03   -0.32997E-04   -0.30074E-04 27440   0.486E-04 0.599E-05
CGA:  25    -0.496546332343E+03   -0.11822E-03   -0.10650E-03 27440   0.159E-03 0.109E-04
CGA:  26    -0.496546546694E+03   -0.21435E-03   -0.20213E-03 27440   0.382E-03 0.304E-04
CGA:  27    -0.496546861204E+03   -0.31451E-03   -0.69833E-03 27440   0.438E-02-0.604E-03
CGA:  28    -0.496548029374E+03   -0.11682E-02   -0.17542E-02 27440   0.115E-02 0.406E-03
CGA:  29    -0.496548608537E+03   -0.57916E-03   -0.62579E-03 27440   0.814E-03 0.245E-03
CGA:  30    -0.496548913000E+03   -0.30446E-03   -0.40866E-03 27440   0.642E-03 0.463E-03
CGA:  31    -0.496549248577E+03   -0.33558E-03   -0.34887E-03 27440   0.287E-03 0.746E-04
CGA:  32    -0.496549549886E+03   -0.30131E-03   -0.30130E-03 27440   0.290E-03 0.317E-04
CGA:  33    -0.496549676129E+03   -0.12624E-03   -0.13927E-03 27440   0.182E-03 0.993E-04
CGA:  34    -0.496549795125E+03   -0.11900E-03   -0.12714E-03 27440   0.201E-03 0.868E-04
CGA:  35    -0.496549936307E+03   -0.14118E-03   -0.15179E-03 27440   0.217E-03 0.933E-04
CGA:  36    -0.496550095402E+03   -0.15910E-03   -0.16714E-03 27440   0.270E-03 0.759E-04
CGA:  37    -0.496550238264E+03   -0.14286E-03   -0.14963E-03 27440   0.274E-03 0.228E-04
CGA:  38    -0.496550343848E+03   -0.10558E-03   -0.99471E-04 27440   0.305E-03-0.276E-04
CGA:  39    -0.496550449618E+03   -0.10577E-03   -0.86576E-04 27440   0.391E-03-0.722E-04
CGA:  40    -0.496550573098E+03   -0.12348E-03   -0.89145E-04 27440   0.538E-03-0.125E-03
CGA:  41    -0.496550739423E+03   -0.16632E-03   -0.11210E-03 27440   0.836E-03-0.208E-03
CGA:  42    -0.496550988693E+03   -0.24927E-03   -0.15628E-03 27440   0.141E-02-0.361E-03
CGA:  43    -0.496551331678E+03   -0.34299E-03   -0.16942E-03 27440   0.200E-02-0.387E-03
CGA:  44    -0.496551851820E+03   -0.52014E-03   -0.27023E-03 27440   0.264E-02-0.224E-03
CGA:  45    -0.496552440293E+03   -0.58847E-03   -0.32093E-03 27440   0.325E-02 0.446E-03
CGA:  46    -0.496553080723E+03   -0.64043E-03   -0.49203E-03 27440   0.379E-02-0.103E-03
CGA:  47    -0.496553450312E+03   -0.36959E-03   -0.34432E-03 27440   0.397E-02-0.162E-03
CGA:  48    -0.496553816455E+03   -0.36614E-03   -0.32352E-03 27440   0.383E-02 0.303E-03
CGA:  49    -0.496554221263E+03   -0.40481E-03   -0.35509E-03 27440   0.355E-02 0.158E-02
CGA:  50    -0.496554633140E+03   -0.41188E-03   -0.47004E-03 27440   0.330E-02 0.733E-03
CGA:  51    -0.496554736153E+03   -0.10301E-03   -0.29964E-03 27440   0.309E-02-0.200E-03
CGA:  52    -0.496554805152E+03   -0.68999E-04   -0.17328E-03 27440   0.282E-02 0.266E-03
CGA:  53    -0.496554893291E+03   -0.88139E-04   -0.19580E-03 27440   0.247E-02 0.182E-03
CGA:  54    -0.496554964937E+03   -0.71646E-04   -0.15936E-03 27440   0.219E-02 0.260E-03
CGA:  55    -0.496555027623E+03   -0.62687E-04   -0.14652E-03 27440   0.199E-02 0.214E-03
CGA:  56    -0.496555069555E+03   -0.41932E-04   -0.12817E-03 27440   0.184E-02 0.130E-03
CGA:  57    -0.496555094883E+03   -0.25328E-04   -0.11001E-03 27440   0.169E-02 0.123E-03
CGA:  58    -0.496555114738E+03   -0.19856E-04   -0.99023E-04 27440   0.152E-02 0.174E-03
CGA:  59    -0.496555134032E+03   -0.19294E-04   -0.92327E-04 27440   0.135E-02 0.217E-03
CGA:  60    -0.496555152091E+03   -0.18059E-04   -0.85654E-04 27440   0.121E-02 0.245E-03
SDA:  61    -0.496555168554E+03   -0.16463E-04   -0.80022E-04 27440   0.109E-02 0.258E-03
CGA:  62    -0.496556116124E+03   -0.94757E-03   -0.79308E-03 27440   0.729E-03 0.329E-03
CGA:  63    -0.496556566381E+03   -0.45026E-03   -0.40554E-03 27440   0.423E-03 0.299E-03
CGA:  64    -0.496556842914E+03   -0.27653E-03   -0.24025E-03 27440   0.232E-03 0.308E-03
CGA:  65    -0.496556983702E+03   -0.14079E-03   -0.12039E-03 27440   0.267E-03 0.896E-04
CGA:  66    -0.496557270200E+03   -0.28650E-03   -0.22602E-03 27440   0.244E-03 0.195E-03
CGA:  67    -0.496557364424E+03   -0.94224E-04   -0.93269E-04 27440   0.219E-03 0.144E-04
CGA:  68    -0.496557602550E+03   -0.23813E-03   -0.20326E-03 27440   0.385E-03 0.621E-04
CGA:  69    -0.496558219774E+03   -0.61722E-03   -0.51743E-03 27440   0.623E-03 0.141E-03
CGA:  70    -0.496558767908E+03   -0.54813E-03   -0.52531E-03 27440   0.657E-03 0.106E-03
CGA:  71    -0.496559350436E+03   -0.58253E-03   -0.54869E-03 27440   0.498E-03 0.124E-03
CGA:  72    -0.496559723514E+03   -0.37308E-03   -0.35796E-03 27440   0.415E-03 0.760E-04
CGA:  73    -0.496560129790E+03   -0.40628E-03   -0.41689E-03 27440   0.602E-03 0.297E-04
CGA:  74    -0.496560325699E+03   -0.19591E-03   -0.21899E-03 27440   0.399E-03 0.141E-03
CGA:  75    -0.496560508177E+03   -0.18248E-03   -0.18650E-03 27440   0.170E-03 0.572E-04
CGA:  76    -0.496560600171E+03   -0.91994E-04   -0.90920E-04 27440   0.991E-04 0.305E-04
CGA:  77    -0.496560653897E+03   -0.53727E-04   -0.53288E-04 27440   0.547E-04 0.211E-04
CGA:  78    -0.496560681955E+03   -0.28058E-04   -0.28252E-04 27440   0.312E-04 0.163E-04
CGA:  79    -0.496560696210E+03   -0.14254E-04   -0.15167E-04 27440   0.192E-04 0.146E-04
CGA:  80    -0.496560703577E+03   -0.73673E-05   -0.89964E-05 27440   0.133E-04 0.143E-04
   4 F= -.49656070E+03 E0= -.49656070E+03  d E =-.244208E-01  mag=    18.0000
       N       E                     dE             d eps       ncg     rms          ort
SDA:   1    -0.496551752852E+03    0.89434E-02    0.00000E+00 27440   0.240E-01 0.000E+00
CGA:   2    -0.496558347903E+03   -0.65951E-02   -0.66195E-02 27440   0.110E-01 0.170E-03
CGA:   3    -0.496560401676E+03   -0.20538E-02   -0.20656E-02 27440   0.254E-02 0.560E-04
CGA:   4    -0.496560821352E+03   -0.41968E-03   -0.41353E-03 27440   0.583E-03-0.247E-04
CGA:   5    -0.496560929318E+03   -0.10797E-03   -0.10485E-03 27440   0.139E-03-0.145E-04
CGA:   6    -0.496560958823E+03   -0.29505E-04   -0.29112E-04 27440   0.443E-04-0.232E-05
CGA:   7    -0.496560970774E+03   -0.11950E-04   -0.11383E-04 27440   0.214E-04-0.502E-05
CGA:   8    -0.496560978461E+03   -0.76869E-05   -0.82603E-05 27440   0.285E-04-0.873E-05
   5 F= -.49656098E+03 E0= -.49656098E+03  d E =-.246956E-01  mag=    18.0000
       N       E                     dE             d eps       ncg     rms          ort
SDA:   1    -0.496519647371E+03    0.41323E-01    0.00000E+00 27440   0.108E+00 0.000E+00
CGA:   2    -0.496549398287E+03   -0.29751E-01   -0.29728E-01 27440   0.535E-01-0.207E-03
CGA:   3    -0.496559210324E+03   -0.98120E-02   -0.97536E-02 27440   0.116E-01-0.269E-03
CGA:   4    -0.496561001185E+03   -0.17909E-02   -0.17926E-02 27440   0.251E-02 0.960E-05
CGA:   5    -0.496561439844E+03   -0.43866E-03   -0.44602E-03 27440   0.541E-03 0.421E-04
CGA:   6    -0.496561549270E+03   -0.10943E-03   -0.11224E-03 27440   0.141E-03 0.199E-04
CGA:   7    -0.496561579079E+03   -0.29810E-04   -0.30994E-04 27440   0.390E-04 0.931E-05
CGA:   8    -0.496561588595E+03   -0.95153E-05   -0.99695E-05 27440   0.141E-04 0.490E-05
   6 F= -.49656159E+03 E0= -.49656159E+03  d E =-.610134E-03  mag=    18.0000
       N       E                     dE             d eps       ncg     rms          ort
SDA:   1    -0.496561536360E+03    0.42719E-04    0.00000E+00 27440   0.176E-03 0.000E+00
CGA:   2    -0.496561580395E+03   -0.44034E-04   -0.44728E-04 27440   0.864E-04 0.979E-05
CGA:   3    -0.496561593722E+03   -0.13327E-04   -0.14991E-04 27440   0.216E-04 0.106E-04
CGA:   4    -0.496561597391E+03   -0.36687E-05   -0.39867E-05 27440   0.739E-05 0.213E-05
CGA:   5    -0.496561599546E+03   -0.21552E-05   -0.21235E-05 27440   0.419E-05-0.707E-06
CGA:   6    -0.496561600867E+03   -0.13209E-05   -0.12862E-05 27440   0.401E-05 0.982E-06
   7 F= -.49656160E+03 E0= -.49656160E+03  d E =-.622406E-03  mag=    18.0000
       N       E                     dE             d eps       ncg     rms          ort
SDA:   1    -0.496535589533E+03    0.26010E-01    0.00000E+00 27440   0.699E-01 0.000E+00
CGA:   2    -0.496554613551E+03   -0.19024E-01   -0.19029E-01 27440   0.349E-01 0.163E-03
CGA:   3    -0.496561091989E+03   -0.64784E-02   -0.64577E-02 27440   0.780E-02-0.165E-03
CGA:   4    -0.496562291427E+03   -0.11994E-02   -0.11892E-02 27440   0.161E-02-0.696E-04
CGA:   5    -0.496562573416E+03   -0.28199E-03   -0.28150E-03 27440   0.384E-03-0.398E-05
CGA:   6    -0.496562648695E+03   -0.75279E-04   -0.76335E-04 27440   0.103E-03 0.125E-04
CGA:   7    -0.496562672745E+03   -0.24050E-04   -0.24035E-04 27440   0.331E-04-0.247E-06
CGA:   8    -0.496562684041E+03   -0.11296E-04   -0.13985E-04 27440   0.426E-04-0.184E-04
CGA:   9    -0.496562692664E+03   -0.86230E-05   -0.82712E-05 27440   0.119E-04-0.388E-05
CGA:  10    -0.496562698764E+03   -0.60993E-05    0.34183E-03 27440   0.547E-05 0.313E-05
   8 F= -.49656270E+03 E0= -.49656270E+03  d E =-.109790E-02  mag=    18.0000
       N       E                     dE             d eps       ncg     rms          ort
SDA:   1    -0.496557824922E+03    0.48677E-02    0.00000E+00 27440   0.132E-01 0.000E+00
CGA:   2    -0.496561398040E+03   -0.35731E-02   -0.35738E-02 27440   0.656E-02 0.760E-04
CGA:   3    -0.496562626478E+03   -0.12284E-02   -0.12210E-02 27440   0.155E-02-0.765E-04
CGA:   4    -0.496562867229E+03   -0.24075E-03   -0.23647E-03 27440   0.322E-03-0.351E-04
CGA:   5    -0.496562924529E+03   -0.57301E-04   -0.56977E-04 27440   0.775E-04-0.360E-05
CGA:   6    -0.496562940162E+03   -0.15633E-04   -0.15879E-04 27440   0.239E-04 0.431E-05
CGA:   7    -0.496562947516E+03   -0.73546E-05   -0.74464E-05 27440   0.159E-04-0.274E-05
CGA:   8    -0.496562891088E+03    0.56429E-04   -0.30536E-04 27440   0.452E-03-0.564E-04
CGA:   9    -0.496562963398E+03   -0.72310E-04   -0.72675E-04 27440   0.672E-04 0.121E-05
CGA:  10    -0.496562984492E+03   -0.21094E-04   -0.21056E-04 27440   0.224E-04-0.238E-06
CGA:  11    -0.496562992412E+03   -0.79199E-05   -0.77561E-05 27440   0.110E-04-0.151E-05
   9 F= -.49656299E+03 E0= -.49656299E+03  d E =-.139155E-02  mag=    18.0000
       N       E                     dE             d eps       ncg     rms          ort
SDA:   1    -0.496542746072E+03    0.20238E-01    0.00000E+00 27440   0.524E-01 0.000E+00
CGA:   2    -0.496557003248E+03   -0.14257E-01   -0.14274E-01 27440   0.259E-01 0.104E-03
CGA:   3    -0.496561867934E+03   -0.48647E-02   -0.48378E-02 27440   0.571E-02-0.993E-04
CGA:   4    -0.496562756437E+03   -0.88850E-03   -0.87688E-03 27440   0.118E-02-0.417E-04
CGA:   5    -0.496562965831E+03   -0.20939E-03   -0.20860E-03 27440   0.289E-03-0.310E-05
CGA:   6    -0.496563022941E+03   -0.57111E-04   -0.58381E-04 27440   0.811E-04 0.646E-05
CGA:   7    -0.496563043172E+03   -0.20231E-04   -0.19969E-04 27440   0.310E-04-0.173E-05
CGA:   8    -0.496563055946E+03   -0.12775E-04   -0.14048E-04 27440   0.484E-04-0.159E-04
CGA:   9    -0.496563066257E+03   -0.10311E-04   -0.97094E-05 27440   0.158E-04-0.322E-05
CGA:  10    -0.496563048498E+03    0.17759E-04   -0.22404E-04 27440   0.255E-03-0.352E-04
CGA:  11    -0.496563093844E+03   -0.45345E-04   -0.45382E-04 27440   0.368E-04 0.161E-06
CGA:  12    -0.496563105151E+03   -0.11308E-04   -0.11409E-04 27440   0.903E-05 0.909E-06
CGA:  13    -0.496563111518E+03   -0.63671E-05   -0.62519E-05 27440   0.122E-04 0.444E-06
CGA:  14    -0.496563115945E+03   -0.44271E-05   -0.21199E-04 27440   0.122E-03-0.137E-04
CGA:  15    -0.496563147208E+03   -0.31263E-04   -0.30363E-04 27440   0.211E-04-0.368E-05
CGA:  16    -0.496563159434E+03   -0.12226E-04   -0.13993E-04 27440   0.184E-04-0.855E-05
CGA:  17    -0.496563165136E+03   -0.57015E-05   -0.59839E-05 27440   0.173E-04-0.485E-05
  10 F= -.49656317E+03 E0= -.49656317E+03  d E =-.156427E-02  mag=    18.0000
       N       E                     dE             d eps       ncg     rms          ort
SDA:   1    -0.496558640397E+03    0.45190E-02    0.00000E+00 27440   0.120E-01 0.000E+00
CGA:   2    -0.496561874002E+03   -0.32336E-02   -0.32241E-02 27440   0.598E-02-0.396E-04
CGA:   3    -0.496562973084E+03   -0.10991E-02   -0.11104E-02 27440   0.120E-02 0.395E-04
CGA:   4    -0.496563150651E+03   -0.17757E-03   -0.18293E-03 27440   0.252E-03 0.170E-04
CGA:   5    -0.496563195236E+03   -0.44585E-04   -0.45078E-04 27440   0.686E-04 0.181E-05
CGA:   6    -0.496563210675E+03   -0.15439E-04   -0.14649E-04 27440   0.210E-04-0.342E-05
CGA:   7    -0.496563215136E+03   -0.44604E-05   -0.44190E-05 27440   0.619E-05-0.193E-06
  11 F= -.49656322E+03 E0= -.49656322E+03  d E =-.161427E-02  mag=    18.0000
       N       E                     dE             d eps       ncg     rms          ort
SDA:   1    -0.496540332005E+03    0.22879E-01    0.00000E+00 27440   0.597E-01 0.000E+00
CGA:   2    -0.496557284569E+03   -0.16953E-01   -0.16980E-01 27440   0.283E-01 0.232E-03
CGA:   3    -0.496562501157E+03   -0.52166E-02   -0.51758E-02 27440   0.618E-02-0.173E-03
CGA:   4    -0.496563494745E+03   -0.99359E-03   -0.97509E-03 27440   0.136E-02-0.784E-04
CGA:   5    -0.496563729914E+03   -0.23517E-03   -0.23519E-03 27440   0.310E-03 0.410E-06
CGA:   6    -0.496563789456E+03   -0.59542E-04   -0.61648E-04 27440   0.819E-04 0.124E-04
CGA:   7    -0.496563810074E+03   -0.20618E-04   -0.20153E-04 27440   0.284E-04-0.370E-05
CGA:   8    -0.496563820002E+03   -0.99278E-05   -0.13533E-04 27440   0.574E-04-0.250E-04
  12 F= -.49656382E+03 E0= -.49656382E+03  d E =-.604866E-03  mag=    18.0000
       N       E                     dE             d eps       ncg     rms          ort
SDA:   1    -0.496553651518E+03    0.10159E-01    0.00000E+00 27440   0.262E-01 0.000E+00
CGA:   2    -0.496561080669E+03   -0.74292E-02   -0.74408E-02 27440   0.123E-01 0.173E-03
CGA:   3    -0.496563384603E+03   -0.23039E-02   -0.22802E-02 27440   0.270E-02-0.138E-03
CGA:   4    -0.496563813256E+03   -0.42865E-03   -0.41740E-03 27440   0.649E-03-0.604E-04
CGA:   5    -0.496563920422E+03   -0.10717E-03   -0.10638E-03 27440   0.158E-03-0.466E-05
CGA:   6    -0.496563950247E+03   -0.29825E-04   -0.30650E-04 27440   0.430E-04 0.645E-05
CGA:   7    -0.496563963135E+03   -0.12888E-04   -0.12640E-04 27440   0.229E-04-0.715E-05
CGA:   8    -0.496563795819E+03    0.16732E-03   -0.90242E-04 27440   0.115E-02-0.120E-03
CGA:   9    -0.496563974079E+03   -0.17826E-03   -0.17942E-03 27440   0.135E-03 0.287E-05
CGA:  10    -0.496564016365E+03   -0.42286E-04   -0.42354E-04 27440   0.421E-04 0.311E-06
CGA:  11    -0.496564031435E+03   -0.15071E-04   -0.14390E-04 27440   0.172E-04-0.337E-05
CGA:  12    -0.496564037440E+03   -0.60052E-05   -0.57068E-05 27440   0.879E-05-0.172E-05
  13 F= -.49656404E+03 E0= -.49656404E+03  d E =-.822305E-03  mag=    18.0000
       N       E                     dE             d eps       ncg     rms          ort
SDA:   1    -0.496539995745E+03    0.24036E-01    0.00000E+00 27440   0.610E-01 0.000E+00
CGA:   2    -0.496558060331E+03   -0.18065E-01   -0.18092E-01 27440   0.282E-01 0.131E-03
CGA:   3    -0.496563164151E+03   -0.51038E-02   -0.50449E-02 27440   0.580E-02-0.165E-03
CGA:   4    -0.496564097102E+03   -0.93295E-03   -0.91778E-03 27440   0.134E-02-0.441E-04
CGA:   5    -0.496564323626E+03   -0.22652E-03   -0.23129E-03 27440   0.295E-03 0.157E-04
CGA:   6    -0.496564379760E+03   -0.56134E-04   -0.59651E-04 27440   0.762E-04 0.133E-04
CGA:   7    -0.496564400101E+03   -0.20341E-04   -0.19286E-04 27440   0.289E-04-0.499E-05
CGA:   8    -0.496564412282E+03   -0.12181E-04   -0.13128E-04 27440   0.535E-04-0.218E-04
CGA:   9    -0.496564422344E+03   -0.10062E-04   -0.94480E-05 27440   0.116E-04-0.229E-05
CGA:  10    -0.496564391023E+03    0.31321E-04   -0.19113E-04 27440   0.291E-03-0.391E-04
CGA:  11    -0.496564445742E+03   -0.54719E-04   -0.52945E-04 27440   0.415E-04-0.565E-05
CGA:  12    -0.496564458976E+03   -0.13234E-04   -0.12664E-04 27440   0.888E-05-0.337E-05
CGA:  13    -0.496564463352E+03   -0.43763E-05   -0.44184E-05 27440   0.701E-05-0.596E-06
  14 F= -.49656446E+03 E0= -.49656446E+03  d E =-.425912E-03  mag=    18.0000
       N       E                     dE             d eps       ncg     rms          ort
SDA:   1    -0.496564288805E+03    0.17017E-03    0.00000E+00 27440   0.520E-03 0.000E+00
CGA:   2    -0.496564443937E+03   -0.15513E-03   -0.15630E-03 27440   0.227E-03 0.674E-05
CGA:   3    -0.496564491770E+03   -0.47833E-04   -0.42631E-04 27440   0.623E-04-0.184E-04
CGA:   4    -0.496564503021E+03   -0.11252E-04   -0.94716E-05 27440   0.215E-04-0.621E-05
CGA:   5    -0.496564506477E+03   -0.34551E-05   -0.33347E-05 27440   0.728E-05-0.452E-06
CGA:   6    -0.496564509360E+03   -0.28831E-05   -0.28426E-05 27440   0.100E-04-0.158E-05
  15 F= -.49656451E+03 E0= -.49656451E+03  d E =-.471919E-03  mag=    18.0000
       N       E                     dE             d eps       ncg     rms          ort
SDA:   1    -0.496563749339E+03    0.75714E-03    0.00000E+00 27440   0.202E-02 0.000E+00
CGA:   2    -0.496564338125E+03   -0.58879E-03   -0.59137E-03 27440   0.948E-03 0.201E-04
CGA:   3    -0.496564512719E+03   -0.17459E-03   -0.16567E-03 27440   0.214E-03-0.362E-04
CGA:   4    -0.496564548321E+03   -0.35602E-04   -0.32512E-04 27440   0.610E-04-0.125E-04
CGA:   5    -0.496564558058E+03   -0.97376E-05   -0.10010E-04 27440   0.131E-04 0.126E-05
CGA:   6    -0.496564560621E+03   -0.25625E-05   -0.28464E-05 27440   0.547E-05 0.169E-05
  16 F= -.49656456E+03 E0= -.49656456E+03  d E =-.523180E-03  mag=    18.0000
       N       E                     dE             d eps       ncg     rms          ort
SDA:   1    -0.496541552943E+03    0.23005E-01    0.00000E+00 27440   0.630E-01 0.000E+00
CGA:   2    -0.496557349547E+03   -0.15797E-01   -0.15795E-01 27440   0.319E-01 0.852E-05
CGA:   3    -0.496563496674E+03   -0.61471E-02   -0.60643E-02 27440   0.728E-02-0.360E-03
CGA:   4    -0.496564596909E+03   -0.11002E-02   -0.10837E-02 27440   0.153E-02-0.642E-04
CGA:   5    -0.496564848766E+03   -0.25186E-03   -0.25918E-03 27440   0.367E-03 0.341E-04
CGA:   6    -0.496564912784E+03   -0.64019E-04   -0.69400E-04 27440   0.914E-04 0.282E-04
CGA:   7    -0.496564933402E+03   -0.20618E-04   -0.21323E-04 27440   0.261E-04 0.472E-05
CGA:   8    -0.496564942933E+03   -0.95306E-05   -0.94175E-05 27440   0.196E-04-0.697E-05
  17 F= -.49656494E+03 E0= -.49656494E+03  d E =-.382312E-03  mag=    18.0000
       N       E                     dE             d eps       ncg     rms          ort
SDA:   1    -0.496550204244E+03    0.14729E-01    0.00000E+00 27440   0.401E-01 0.000E+00
CGA:   2    -0.496560185441E+03   -0.99812E-02   -0.99821E-02 27440   0.203E-01 0.170E-04
CGA:   3    -0.496564106204E+03   -0.39208E-02   -0.38662E-02 27440   0.484E-02-0.314E-03
CGA:   4    -0.496564854051E+03   -0.74785E-03   -0.73429E-03 27440   0.877E-03-0.673E-04
CGA:   5    -0.496565003457E+03   -0.14941E-03   -0.15471E-03 27440   0.206E-03 0.329E-04
CGA:   6    -0.496565040299E+03   -0.36842E-04   -0.40153E-04 27440   0.527E-04 0.229E-04
CGA:   7    -0.496565053166E+03   -0.12867E-04   -0.13160E-04 27440   0.177E-04 0.292E-05
CGA:   8    -0.496565060130E+03   -0.69633E-05   -0.77557E-05 27440   0.222E-04-0.833E-05
  18 F= -.49656506E+03 E0= -.49656506E+03  d E =-.499509E-03  mag=    18.0000
       N       E                     dE             d eps       ncg     rms          ort
SDA:   1    -0.496505607810E+03    0.59445E-01    0.00000E+00 27440   0.160E+00 0.000E+00
CGA:   2    -0.496545494572E+03   -0.39887E-01   -0.39889E-01 27440   0.810E-01 0.646E-04
CGA:   3    -0.496560880133E+03   -0.15386E-01   -0.15278E-01 27440   0.195E-01-0.667E-03
CGA:   4    -0.496563829465E+03   -0.29493E-02   -0.29224E-02 27440   0.369E-02-0.141E-03
CGA:   5    -0.496564461271E+03   -0.63181E-03   -0.64130E-03 27440   0.916E-03 0.643E-04
CGA:   6    -0.496564629678E+03   -0.16841E-03   -0.17525E-03 27440   0.233E-03 0.533E-04
CGA:   7    -0.496564682164E+03   -0.52487E-04   -0.53346E-04 27440   0.649E-04 0.916E-05
CGA:   8    -0.496564702411E+03   -0.20247E-04   -0.20198E-04 27440   0.350E-04-0.845E-05
CGA:   9    -0.496564713933E+03   -0.11522E-04   -0.13827E-04 27440   0.418E-04-0.155E-04
CGA:  10    -0.496564715537E+03   -0.16033E-05   -0.16180E-04 27440   0.968E-04-0.382E-04
CGA:  11    -0.496564741679E+03   -0.26142E-04   -0.25344E-04 27440   0.409E-04-0.114E-04
CGA:  12    -0.496564756945E+03   -0.15266E-04   -0.21218E-04 27440   0.534E-04-0.229E-04
CGA:  13    -0.496564767799E+03   -0.10854E-04   -0.11095E-04 27440   0.894E-05 0.182E-05
CGA:  14    -0.496564772347E+03   -0.45478E-05   -0.59613E-05 27440   0.138E-04-0.455E-05
  19 F= -.49656477E+03 E0= -.49656477E+03  d E =-.211726E-03  mag=    18.0000
       N       E                     dE             d eps       ncg     rms          ort
SDA:   1    -0.496529947551E+03    0.34820E-01    0.00000E+00 27440   0.963E-01 0.000E+00
CGA:   2    -0.496553824748E+03   -0.23877E-01   -0.23875E-01 27440   0.497E-01-0.282E-05
CGA:   3    -0.496562691411E+03   -0.88667E-02   -0.89422E-02 27440   0.125E-01 0.441E-03
CGA:   4    -0.496564530705E+03   -0.18393E-02   -0.18637E-02 27440   0.241E-02 0.125E-03
CGA:   5    -0.496564980282E+03   -0.44958E-03   -0.44145E-03 27440   0.599E-03-0.503E-04
CGA:   6    -0.496565113393E+03   -0.13311E-03   -0.12694E-03 27440   0.185E-03-0.525E-04
CGA:   7    -0.496565150931E+03   -0.37538E-04   -0.36186E-04 27440   0.488E-04-0.119E-04
CGA:   8    -0.496565161583E+03   -0.10652E-04   -0.10715E-04 27440   0.152E-04 0.724E-06
CGA:   9    -0.496565167021E+03   -0.54377E-05   -0.55552E-05 27440   0.106E-04-0.280E-05
CGA:  10    -0.496565100539E+03    0.66481E-04   -0.35822E-04 27440   0.367E-03-0.477E-04
CGA:  11    -0.496565165432E+03   -0.64893E-04   -0.66383E-04 27440   0.509E-04 0.370E-05
CGA:  12    -0.496565183169E+03   -0.17737E-04   -0.17987E-04 27440   0.174E-04 0.117E-05
CGA:  13    -0.496565193320E+03   -0.10151E-04   -0.10446E-04 27440   0.193E-04-0.888E-05
CGA:  14    -0.496565198219E+03   -0.48996E-05   -0.46480E-05 27440   0.326E-05-0.802E-06
CGA:  15    -0.496565201721E+03   -0.35020E-05    0.21266E-04 27440   0.224E-05-0.262E-07
  20 F= -.49656520E+03 E0= -.49656520E+03  d E =-.641101E-03  mag=    18.0000
       N       E                     dE             d eps       ncg     rms          ort
SDA:   1    -0.496564651918E+03    0.54630E-03    0.00000E+00 27440   0.161E-02 0.000E+00
CGA:   2    -0.496565057750E+03   -0.40583E-03   -0.40469E-03 27440   0.824E-03-0.364E-05
CGA:   3    -0.496565190506E+03   -0.13276E-03   -0.14661E-03 27440   0.186E-03 0.404E-04
CGA:   4    -0.496565215701E+03   -0.25195E-04   -0.28664E-04 27440   0.376E-04 0.972E-05
CGA:   5    -0.496565225812E+03   -0.10111E-04   -0.83994E-05 27440   0.144E-04-0.618E-05
CGA:   6    -0.496565231224E+03   -0.54118E-05   -0.41470E-05 27440   0.183E-04-0.974E-05
  21 F= -.49656523E+03 E0= -.49656523E+03  d E =-.670603E-03  mag=    18.0000
       N       E                     dE             d eps       ncg     rms          ort
SDA:   1    -0.496565034488E+03    0.19132E-03    0.00000E+00 27440   0.613E-03 0.000E+00
CGA:   2    -0.496565185880E+03   -0.15139E-03   -0.15134E-03 27440   0.307E-03-0.131E-06
CGA:   3    -0.496565229006E+03   -0.43125E-04   -0.49865E-04 27440   0.744E-04 0.243E-04
CGA:   4    -0.496565238462E+03   -0.94560E-05   -0.11647E-04 27440   0.159E-04 0.781E-05
CGA:   5    -0.496565243638E+03   -0.51767E-05   -0.44078E-05 27440   0.917E-05-0.474E-05
CGA:   6    -0.496565245847E+03   -0.22087E-05   -0.31355E-05 27440   0.275E-04-0.113E-04
  22 F= -.49656525E+03 E0= -.49656525E+03  d E =-.685226E-03  mag=    18.0000
       N       E                     dE             d eps       ncg     rms          ort
SDA:   1    -0.496565186648E+03    0.56991E-04    0.00000E+00 27440   0.224E-03 0.000E+00
CGA:   2    -0.496565239520E+03   -0.52872E-04   -0.52872E-04 27440   0.109E-03 0.390E-07
CGA:   3    -0.496565252175E+03   -0.12655E-04   -0.15807E-04 27440   0.286E-04 0.131E-04
CGA:   4    -0.496565255160E+03   -0.29854E-05   -0.43500E-05 27440   0.634E-05 0.573E-05
CGA:   5    -0.496565257682E+03   -0.25218E-05   -0.23712E-05 27440   0.568E-05-0.293E-05
CGA:   6    -0.496565259932E+03   -0.22500E-05    0.23296E-04 27440   0.762E-05-0.402E-05
  23 F= -.49656526E+03 E0= -.49656526E+03  d E =-.699311E-03  mag=    18.0000
       N       E                     dE             d eps       ncg     rms          ort
SDA:   1    -0.496565260157E+03   -0.24753E-05    0.00000E+00 27440   0.287E-04 0.000E+00
CGA:   2    -0.496565266724E+03   -0.65666E-05   -0.62942E-05 27440   0.160E-04-0.203E-05
CGA:   3    -0.496565267956E+03   -0.12322E-05   -0.18968E-05 27440   0.449E-05 0.304E-05
CGA:   4    -0.496565268080E+03   -0.12392E-06   -0.58998E-06 27440   0.145E-05 0.208E-05
CGA:   5    -0.496565268518E+03   -0.43804E-06   -0.43992E-06 27440   0.156E-05 0.181E-07
CGA:   6    -0.496565270522E+03   -0.20045E-05    0.25222E-06 27440   0.270E-05-0.508E-06
  24 F= -.49656527E+03 E0= -.49656527E+03  d E =-.709902E-03  mag=    18.0000
       N       E                     dE             d eps       ncg     rms          ort
SDA:   1    -0.496565279040E+03   -0.10522E-04    0.00000E+00 27440   0.117E-04 0.000E+00
CGA:   2    -0.496565281260E+03   -0.22203E-05   -0.20637E-05 27440   0.532E-05-0.110E-05
CGA:   3    -0.496565281918E+03   -0.65759E-06   -0.60106E-06 27440   0.134E-05-0.303E-06
CGA:   4    -0.496565282404E+03   -0.48593E-06   -0.66734E-06 27440   0.378E-05-0.801E-06
CGA:   5    -0.496565281120E+03    0.12835E-05   -0.23860E-05 27440   0.474E-04-0.116E-04
CGA:   6    -0.496565286350E+03   -0.52299E-05   -0.55586E-05 27440   0.240E-05 0.157E-05
  25 F= -.49656529E+03 E0= -.49656529E+03  d E =-.725729E-03  mag=    18.0000
       N       E                     dE             d eps       ncg     rms          ort
SDA:   1    -0.496558329777E+03    0.69513E-02    0.00000E+00 27440   0.183E-01 0.000E+00
CGA:   2    -0.496563518027E+03   -0.51883E-02   -0.51858E-02 27440   0.911E-02-0.919E-04
CGA:   3    -0.496565157887E+03   -0.16399E-02   -0.16259E-02 27440   0.188E-02-0.995E-04
CGA:   4    -0.496565443540E+03   -0.28565E-03   -0.28646E-03 27440   0.400E-03 0.564E-05
CGA:   5    -0.496565507074E+03   -0.63534E-04   -0.67350E-04 27440   0.832E-04 0.301E-04
CGA:   6    -0.496565520761E+03   -0.13687E-04   -0.15591E-04 27440   0.202E-04 0.167E-04
CGA:   7    -0.496565525320E+03   -0.45589E-05   -0.48720E-05 27440   0.604E-05 0.383E-05
  26 F= -.49656553E+03 E0= -.49656553E+03  d E =-.238970E-03  mag=    18.0000
       N       E                     dE             d eps       ncg     rms          ort
SDA:   1    -0.496512551955E+03    0.52969E-01    0.00000E+00 27440   0.136E+00 0.000E+00
CGA:   2    -0.496551094837E+03   -0.38543E-01   -0.38543E-01 27440   0.677E-01-0.252E-03
CGA:   3    -0.496563143756E+03   -0.12049E-01   -0.12010E-01 27440   0.140E-01-0.313E-03
CGA:   4    -0.496565279013E+03   -0.21353E-02   -0.21370E-02 27440   0.304E-02 0.157E-04
CGA:   5    -0.496565805215E+03   -0.52620E-03   -0.53518E-03 27440   0.655E-03 0.950E-04
CGA:   6    -0.496565930901E+03   -0.12569E-03   -0.12972E-03 27440   0.158E-03 0.544E-04
CGA:   7    -0.496565967274E+03   -0.36373E-04   -0.36795E-04 27440   0.430E-04 0.891E-05
CGA:   8    -0.496565980399E+03   -0.13125E-04   -0.13253E-04 27440   0.206E-04-0.402E-05
CGA:   9    -0.496565986230E+03   -0.58318E-05   -0.59052E-05 27440   0.109E-04-0.134E-05
  27 F= -.49656599E+03 E0= -.49656599E+03  d E =-.699880E-03  mag=    18.0000
       N       E                     dE             d eps       ncg     rms          ort
SDA:   1    -0.496352821411E+03    0.21316E+00    0.00000E+00 27440   0.544E+00 0.000E+00
CGA:   2    -0.496506577809E+03   -0.15376E+00   -0.15376E+00 27440   0.269E+00-0.441E-03
CGA:   3    -0.496554619283E+03   -0.48041E-01   -0.47947E-01 27440   0.554E-01-0.695E-03
CGA:   4    -0.496563194376E+03   -0.85751E-02   -0.85785E-02 27440   0.120E-01 0.326E-04
CGA:   5    -0.496565305360E+03   -0.21110E-02   -0.21287E-02 27440   0.266E-02 0.194E-03
CGA:   6    -0.496565835334E+03   -0.52997E-03   -0.53731E-03 27440   0.653E-03 0.113E-03
CGA:   7    -0.496565983153E+03   -0.14782E-03   -0.14840E-03 27440   0.175E-03 0.136E-04
CGA:   8    -0.496566032438E+03   -0.49285E-04   -0.49459E-04 27440   0.735E-04-0.986E-05
CGA:   9    -0.496566054079E+03   -0.21641E-04   -0.21751E-04 27440   0.368E-04-0.203E-05
CGA:  10    -0.496566068070E+03   -0.13991E-04   -0.14736E-04 27440   0.256E-04-0.496E-05
CGA:  11    -0.496566080183E+03   -0.12114E-04    0.24829E-03 27440   0.124E-04 0.642E-05
CGA:  12    -0.496566090951E+03   -0.10768E-04    0.74184E-05 27440   0.885E-05 0.658E-05
CGA:  13    -0.496566075727E+03    0.15224E-04   -0.89702E-05 27440   0.175E-03-0.207E-04
CGA:  14    -0.496566113005E+03   -0.37278E-04   -0.36048E-04 27440   0.110E-04-0.431E-05
CGA:  15    -0.496566118652E+03   -0.56466E-05   -0.80845E-05 27440   0.296E-04-0.887E-05
  28 F= -.49656612E+03 E0= -.49656612E+03  d E =-.832301E-03  mag=    18.0000
       N       E                     dE             d eps       ncg     rms          ort
SDA:   1    -0.496504069304E+03    0.62044E-01    0.00000E+00 27440   0.159E+00 0.000E+00
CGA:   2    -0.496548909166E+03   -0.44840E-01   -0.44875E-01 27440   0.786E-01 0.189E-03
CGA:   3    -0.496562822529E+03   -0.13913E-01   -0.13948E-01 27440   0.161E-01 0.186E-03
CGA:   4    -0.496565344325E+03   -0.25218E-02   -0.25176E-02 27440   0.349E-02-0.115E-04
CGA:   5    -0.496566008396E+03   -0.66407E-03   -0.64608E-03 27440   0.819E-03-0.701E-04
CGA:   6    -0.496566189166E+03   -0.18077E-03   -0.17126E-03 27440   0.223E-03-0.444E-04
CGA:   7    -0.496566236490E+03   -0.47324E-04   -0.45574E-04 27440   0.574E-04-0.870E-05
CGA:   8    -0.496566250929E+03   -0.14439E-04   -0.14251E-04 27440   0.204E-04-0.126E-05
CGA:   9    -0.496566259378E+03   -0.84484E-05   -0.88018E-05 27440   0.213E-04-0.826E-05
  29 F= -.49656626E+03 E0= -.49656626E+03  d E =-.973027E-03  mag=    18.0000
       N       E                     dE             d eps       ncg     rms          ort
SDA:   1    -0.496541617393E+03    0.24634E-01    0.00000E+00 27440   0.616E-01 0.000E+00
CGA:   2    -0.496560673135E+03   -0.19056E-01   -0.19066E-01 27440   0.276E-01 0.113E-03
CGA:   3    -0.496565567778E+03   -0.48946E-02   -0.48788E-02 27440   0.508E-02-0.546E-04
CGA:   4    -0.496566389714E+03   -0.82194E-03   -0.81534E-03 27440   0.130E-02-0.280E-04
CGA:   5    -0.496566610761E+03   -0.22105E-03   -0.22424E-03 27440   0.292E-03 0.154E-04
CGA:   6    -0.496566661510E+03   -0.50749E-04   -0.54767E-04 27440   0.688E-04 0.214E-04
CGA:   7    -0.496566676698E+03   -0.15188E-04   -0.15809E-04 27440   0.188E-04 0.416E-05
CGA:   8    -0.496566683584E+03   -0.68864E-05   -0.68257E-05 27440   0.133E-04-0.429E-05
  30 F= -.49656668E+03 E0= -.49656668E+03  d E =-.424206E-03  mag=    18.0000
       N       E                     dE             d eps       ncg     rms          ort
SDA:   1    -0.496557872221E+03    0.88045E-02    0.00000E+00 27440   0.220E-01 0.000E+00
CGA:   2    -0.496564670059E+03   -0.67978E-02   -0.68016E-02 27440   0.979E-02 0.791E-04
CGA:   3    -0.496566446098E+03   -0.17760E-02   -0.17677E-02 27440   0.172E-02-0.419E-04
CGA:   4    -0.496566738118E+03   -0.29202E-03   -0.28841E-03 27440   0.404E-03-0.202E-04
CGA:   5    -0.496566806384E+03   -0.68266E-04   -0.70430E-04 27440   0.933E-04 0.134E-04
CGA:   6    -0.496566821866E+03   -0.15482E-04   -0.17381E-04 27440   0.229E-04 0.127E-04
CGA:   7    -0.496566827419E+03   -0.55530E-05   -0.57565E-05 27440   0.809E-05 0.201E-05
  31 F= -.49656683E+03 E0= -.49656683E+03  d E =-.568042E-03  mag=    18.0000
       N       E                     dE             d eps       ncg     rms          ort
SDA:   1    -0.496531039431E+03    0.35782E-01    0.00000E+00 27440   0.878E-01 0.000E+00
CGA:   2    -0.496558218960E+03   -0.27180E-01   -0.27182E-01 27440   0.396E-01 0.178E-03
CGA:   3    -0.496565244680E+03   -0.70257E-02   -0.70085E-02 27440   0.738E-02-0.950E-04
CGA:   4    -0.496566417995E+03   -0.11733E-02   -0.11666E-02 27440   0.180E-02-0.421E-04
CGA:   5    -0.496566735012E+03   -0.31702E-03   -0.32034E-03 27440   0.384E-03 0.254E-04
CGA:   6    -0.496566807220E+03   -0.72208E-04   -0.75737E-04 27440   0.901E-04 0.323E-04
CGA:   7    -0.496566827853E+03   -0.20632E-04   -0.21077E-04 27440   0.262E-04 0.540E-05
CGA:   8    -0.496566836711E+03   -0.88582E-05   -0.89882E-05 27440   0.164E-04-0.437E-05
  32 F= -.49656684E+03 E0= -.49656684E+03  d E =-.577333E-03  mag=    18.0000
       N       E                     dE             d eps       ncg     rms          ort
SDA:   1    -0.496550952022E+03    0.15876E-01    0.00000E+00 27440   0.390E-01 0.000E+00
CGA:   2    -0.496563091785E+03   -0.12140E-01   -0.12141E-01 27440   0.177E-01-0.125E-03
CGA:   3    -0.496566175940E+03   -0.30842E-02   -0.30893E-02 27440   0.324E-02 0.513E-04
CGA:   4    -0.496566691128E+03   -0.51519E-03   -0.51862E-03 27440   0.820E-03 0.256E-04
CGA:   5    -0.496566843605E+03   -0.15248E-03   -0.15018E-03 27440   0.181E-03-0.216E-04
CGA:   6    -0.496566889270E+03   -0.45665E-04   -0.44633E-04 27440   0.671E-04-0.352E-04
CGA:   7    -0.496566901168E+03   -0.11898E-04   -0.11509E-04 27440   0.193E-04-0.569E-05
CGA:   8    -0.496566905249E+03   -0.40811E-05   -0.41325E-05 27440   0.711E-05 0.117E-05
  33 F= -.49656691E+03 E0= -.49656691E+03  d E =-.645871E-03  mag=    18.0000
       N       E                     dE             d eps       ncg     rms          ort
SDA:   1    -0.496558240403E+03    0.86608E-02    0.00000E+00 27440   0.230E-01 0.000E+00
CGA:   2    -0.496564570100E+03   -0.63297E-02   -0.63406E-02 27440   0.104E-01 0.643E-03
CGA:   3    -0.496566650982E+03   -0.20809E-02   -0.20420E-02 27440   0.248E-02-0.383E-03
CGA:   4    -0.496567052732E+03   -0.40175E-03   -0.37986E-03 27440   0.626E-03-0.172E-03
CGA:   5    -0.496567159376E+03   -0.10664E-03   -0.10357E-03 27440   0.132E-03-0.300E-04
CGA:   6    -0.496567181312E+03   -0.21937E-04   -0.22959E-04 27440   0.304E-04 0.111E-04
CGA:   7    -0.496567187639E+03   -0.63265E-05   -0.66266E-05 27440   0.905E-05 0.436E-05
  34 F= -.49656719E+03 E0= -.49656719E+03  d E =-.282390E-03  mag=    18.0000
       N       E                     dE             d eps       ncg     rms          ort
SDA:   1    -0.496544870345E+03    0.22311E-01    0.00000E+00 27440   0.579E-01 0.000E+00
CGA:   2    -0.496560907420E+03   -0.16037E-01   -0.16036E-01 27440   0.268E-01 0.110E-02
CGA:   3    -0.496566066775E+03   -0.51594E-02   -0.51012E-02 27440   0.620E-02-0.641E-03
CGA:   4    -0.496567042700E+03   -0.97593E-03   -0.94112E-03 27440   0.145E-02-0.300E-03
CGA:   5    -0.496567299121E+03   -0.25642E-03   -0.25209E-03 27440   0.317E-03-0.519E-04
CGA:   6    -0.496567354774E+03   -0.55653E-04   -0.57179E-04 27440   0.730E-04 0.206E-04
CGA:   7    -0.496567370204E+03   -0.15430E-04   -0.15845E-04 27440   0.196E-04 0.772E-05
CGA:   8    -0.496567377057E+03   -0.68529E-05   -0.71374E-05 27440   0.134E-04-0.382E-05
CGA:   9    -0.496567319640E+03    0.57418E-04   -0.30917E-04 27440   0.340E-03-0.526E-04
CGA:  10    -0.496567377235E+03   -0.57596E-04   -0.58592E-04 27440   0.502E-04 0.335E-05
CGA:  11    -0.496567392322E+03   -0.15087E-04   -0.16068E-04 27440   0.148E-04 0.705E-05
CGA:  12    -0.496567397838E+03   -0.55152E-05   -0.57441E-05 27440   0.551E-05 0.212E-05
  35 F= -.49656740E+03 E0= -.49656740E+03  d E =-.492589E-03  mag=    18.0000
       N       E                     dE             d eps       ncg     rms          ort
SDA:   1    -0.496477187479E+03    0.90205E-01    0.00000E+00 27440   0.231E+00 0.000E+00
CGA:   2    -0.496541614703E+03   -0.64427E-01   -0.64648E-01 27440   0.109E+00 0.140E-02
CGA:   3    -0.496561807766E+03   -0.20193E-01   -0.19974E-01 27440   0.234E-01-0.826E-03
CGA:   4    -0.496565569763E+03   -0.37620E-02   -0.36535E-02 27440   0.535E-02-0.399E-03
CGA:   5    -0.496566527552E+03   -0.95779E-03   -0.94153E-03 27440   0.119E-02-0.680E-04
CGA:   6    -0.496566752485E+03   -0.22493E-03   -0.23097E-03 27440   0.294E-03 0.295E-04
CGA:   7    -0.496566814616E+03   -0.62131E-04   -0.63625E-04 27440   0.774E-04 0.831E-05
CGA:   8    -0.496566837597E+03   -0.22981E-04   -0.22276E-04 27440   0.342E-04-0.680E-05
CGA:   9    -0.496566850186E+03   -0.12589E-04   -0.13159E-04 27440   0.320E-04-0.131E-04
CGA:  10    -0.496566858011E+03   -0.78247E-05   -0.82909E-05 27440   0.250E-04-0.116E-04
  36 F= -.49656686E+03 E0= -.49656686E+03  d E =0.472375E-04  mag=    18.0000
       N       E                     dE             d eps       ncg     rms          ort
SDA:   1    -0.496516925128E+03    0.49925E-01    0.00000E+00 27440   0.130E+00 0.000E+00
CGA:   2    -0.496553959469E+03   -0.37034E-01   -0.36919E-01 27440   0.628E-01-0.123E-02
CGA:   3    -0.496564838863E+03   -0.10879E-01   -0.11007E-01 27440   0.124E-01 0.687E-03
CGA:   4    -0.496566711563E+03   -0.18727E-02   -0.19471E-02 27440   0.271E-02 0.360E-03
CGA:   5    -0.496567200892E+03   -0.48933E-03   -0.50090E-03 27440   0.628E-03 0.672E-04
CGA:   6    -0.496567342601E+03   -0.14171E-03   -0.13792E-03 27440   0.186E-03-0.291E-04
CGA:   7    -0.496567381843E+03   -0.39242E-04   -0.38261E-04 27440   0.497E-04-0.803E-05
CGA:   8    -0.496567391782E+03   -0.99387E-05   -0.10479E-04 27440   0.145E-04 0.488E-05
  37 F= -.49656739E+03 E0= -.49656739E+03  d E =-.486533E-03  mag=    18.0000
       N       E                     dE             d eps       ncg     rms          ort
SDA:   1    -0.496558232592E+03    0.91493E-02    0.00000E+00 27440   0.240E-01 0.000E+00
CGA:   2    -0.496565062013E+03   -0.68294E-02   -0.68287E-02 27440   0.116E-01-0.162E-04
CGA:   3    -0.496567163869E+03   -0.21019E-02   -0.20760E-02 27440   0.247E-02-0.177E-03
CGA:   4    -0.496567543747E+03   -0.37988E-03   -0.37789E-03 27440   0.549E-03-0.124E-04
CGA:   5    -0.496567629785E+03   -0.86037E-04   -0.90661E-04 27440   0.110E-03 0.335E-04
CGA:   6    -0.496567648828E+03   -0.19043E-04   -0.21127E-04 27440   0.270E-04 0.178E-04
CGA:   7    -0.496567656142E+03   -0.73145E-05   -0.73400E-05 27440   0.963E-05 0.448E-06
  38 F= -.49656766E+03 E0= -.49656766E+03  d E =-.264361E-03  mag=    18.0000
       N       E                     dE             d eps       ncg     rms          ort
SDA:   1    -0.496520756636E+03    0.46892E-01    0.00000E+00 27440   0.121E+00 0.000E+00
CGA:   2    -0.496555053363E+03   -0.34297E-01   -0.34296E-01 27440   0.586E-01-0.198E-04
CGA:   3    -0.496565434743E+03   -0.10381E-01   -0.10326E-01 27440   0.125E-01-0.437E-03
CGA:   4    -0.496567343135E+03   -0.19084E-02   -0.19029E-02 27440   0.274E-02-0.399E-04
CGA:   5    -0.496567814401E+03   -0.47127E-03   -0.48024E-03 27440   0.575E-03 0.863E-04
CGA:   6    -0.496567924556E+03   -0.11015E-03   -0.11394E-03 27440   0.139E-03 0.456E-04
CGA:   7    -0.496567958843E+03   -0.34288E-04   -0.34208E-04 27440   0.416E-04-0.178E-05
CGA:   8    -0.496567970954E+03   -0.12111E-04   -0.12340E-04 27440   0.215E-04-0.726E-05
CGA:   9    -0.496567975130E+03   -0.41760E-05   -0.42590E-05 27440   0.841E-05 0.271E-05
  39 F= -.49656798E+03 E0= -.49656798E+03  d E =-.583348E-03  mag=    18.0000
       N       E                     dE             d eps       ncg     rms          ort
SDA:   1    -0.496561104860E+03    0.68661E-02    0.00000E+00 27440   0.185E-01 0.000E+00
CGA:   2    -0.496566524227E+03   -0.54194E-02   -0.54454E-02 27440   0.968E-02-0.943E-03
CGA:   3    -0.496568061213E+03   -0.15370E-02   -0.15569E-02 27440   0.183E-02 0.208E-03
CGA:   4    -0.496568292948E+03   -0.23173E-03   -0.26209E-03 27440   0.367E-03 0.248E-03
CGA:   5    -0.496568337859E+03   -0.44911E-04   -0.58417E-04 27440   0.862E-04 0.116E-03
CGA:   6    -0.496568349220E+03   -0.11361E-04   -0.15790E-04 27440   0.296E-04 0.397E-04
CGA:   7    -0.496568354561E+03   -0.53411E-05   -0.66558E-05 27440   0.107E-04 0.144E-04
  40 F= -.49656835E+03 E0= -.49656835E+03  d E =-.379431E-03  mag=    18.0000
