       N       E                     dE             d eps       ncg     rms          rms(c)
DAV:   1     0.642104237656E+04    0.64210E+04   -0.30094E+05 37440   0.170E+03
DAV:   2     0.363508754887E+03   -0.60575E+04   -0.56709E+04 35480   0.513E+02
DAV:   3    -0.288031346280E+03   -0.65154E+03   -0.63137E+03 37432   0.189E+02
DAV:   4    -0.307716137019E+03   -0.19685E+02   -0.19515E+02 38272   0.354E+01
DAV:   5    -0.308166538329E+03   -0.45040E+00   -0.44827E+00 46024   0.522E+00    0.881E+01
DAV:   6    -0.245551326209E+03    0.62615E+02   -0.67792E+02 43120   0.113E+02    0.215E+02
DAV:   7    -0.204228085220E+03    0.41323E+02   -0.12874E+02 41256   0.496E+01    0.105E+02
DAV:   8    -0.284142592042E+03   -0.79915E+02   -0.20463E+02 49056   0.861E+01    0.155E+02
DAV:   9    -0.223022314324E+03    0.61120E+02   -0.20220E+02 44976   0.759E+01    0.116E+02
DAV:  10    -0.205551029549E+03    0.17471E+02   -0.19068E+02 43248   0.465E+01    0.117E+02
DAV:  11    -0.192954020369E+03    0.12597E+02   -0.97020E+01 42000   0.319E+01    0.899E+01
DAV:  12    -0.202487575883E+03   -0.95336E+01   -0.18268E+02 40968   0.485E+01    0.935E+01
DAV:  13    -0.204789212660E+03   -0.23016E+01   -0.87881E+01 42680   0.337E+01    0.100E+02
DAV:  14    -0.197804788338E+03    0.69844E+01   -0.19730E+01 41168   0.278E+01    0.815E+01
DAV:  15    -0.198212577277E+03   -0.40779E+00   -0.34781E+01 43208   0.281E+01    0.863E+01
DAV:  16    -0.193505312170E+03    0.47073E+01   -0.17224E+01 41104   0.287E+01    0.733E+01
DAV:  17    -0.182811249342E+03    0.10694E+02   -0.10782E+01 44000   0.172E+01    0.536E+01
DAV:  18    -0.189210932128E+03   -0.63997E+01   -0.20941E+01 45688   0.207E+01    0.627E+01
DAV:  19    -0.192666937266E+03   -0.34560E+01   -0.54966E+01 43936   0.239E+01    0.456E+01
DAV:  20    -0.194859724374E+03   -0.21928E+01   -0.20679E+01 42384   0.126E+01    0.282E+01
DAV:  21    -0.200065419766E+03   -0.52057E+01   -0.56606E+00 42752   0.117E+01    0.330E+01
DAV:  22    -0.202446638786E+03   -0.23812E+01   -0.17451E+00 42600   0.745E+00    0.294E+01
DAV:  23    -0.205898562229E+03   -0.34519E+01   -0.15184E+00 41456   0.452E+00    0.266E+01
DAV:  24    -0.213059617830E+03   -0.71611E+01   -0.54929E+00 42648   0.853E+00    0.275E+01
DAV:  25    -0.215571375526E+03   -0.25118E+01   -0.55975E+00 42136   0.985E+00    0.242E+01
DAV:  26    -0.217073196479E+03   -0.15018E+01   -0.44137E+00 42664   0.941E+00    0.215E+01
DAV:  27    -0.217307524435E+03   -0.23433E+00   -0.22856E+00 42496   0.767E+00    0.183E+01
DAV:  28    -0.217298652803E+03    0.88716E-02   -0.10683E+00 41144   0.279E+00    0.167E+01
DAV:  29    -0.217622546465E+03   -0.32389E+00   -0.34254E-01 41784   0.207E+00    0.152E+01
DAV:  30    -0.217954778529E+03   -0.33223E+00   -0.31353E-01 41816   0.132E+00    0.158E+01
DAV:  31    -0.218117854269E+03   -0.16308E+00   -0.71326E-02 38584   0.141E+00    0.165E+01
DAV:  32    -0.218078728868E+03    0.39125E-01   -0.21594E-02 41064   0.590E-01    0.168E+01
DAV:  33    -0.218055462040E+03    0.23267E-01   -0.40880E-03 37976   0.250E-01    0.170E+01
DAV:  34    -0.218086076829E+03   -0.30615E-01   -0.31482E-03 43352   0.261E-01    0.170E+01
DAV:  35    -0.218080945161E+03    0.51317E-02   -0.75822E-04 37408   0.105E-01    0.171E+01
DAV:  36    -0.218192563180E+03   -0.11162E+00   -0.59208E-02 43984   0.128E+00    0.171E+01
DAV:  37    -0.218304432395E+03   -0.11187E+00   -0.42868E-02 44800   0.101E+00    0.166E+01
DAV:  38    -0.218477341581E+03   -0.17291E+00   -0.58856E-02 44672   0.112E+00    0.156E+01
DAV:  39    -0.218909593004E+03   -0.43225E+00   -0.22976E-01 44376   0.215E+00    0.138E+01
DAV:  40    -0.219185983358E+03   -0.27639E+00   -0.41194E-01 42560   0.205E+00    0.122E+01
DAV:  41    -0.219371305175E+03   -0.18532E+00   -0.30994E-01 41352   0.182E+00    0.110E+01
DAV:  42    -0.219507321813E+03   -0.13602E+00   -0.23107E-01 44320   0.219E+00    0.984E+00
DAV:  43    -0.219535395742E+03   -0.28074E-01   -0.13803E-01 44976   0.186E+00    0.816E+00
DAV:  44    -0.219684258667E+03   -0.14886E+00   -0.19374E-01 41536   0.185E+00    0.834E+00
DAV:  45    -0.219800272383E+03   -0.11601E+00   -0.25660E-01 41096   0.186E+00    0.940E+00
DAV:  46    -0.219916966907E+03   -0.11669E+00   -0.25162E-01 40528   0.121E+00    0.130E+01
DAV:  47    -0.219874148990E+03    0.42818E-01   -0.17076E-02 35512   0.566E-01    0.130E+01
DAV:  48    -0.219868685936E+03    0.54631E-02   -0.18063E-03 37520   0.150E-01    0.131E+01
DAV:  49    -0.219816790252E+03    0.51896E-01   -0.71836E-03 42288   0.283E-01    0.124E+01
DAV:  50    -0.219962267977E+03   -0.14548E+00   -0.64341E-02 42000   0.121E+00    0.130E+01
DAV:  51    -0.220138221703E+03   -0.17595E+00   -0.72131E-01 43168   0.455E+00    0.154E+01
DAV:  52    -0.219930522805E+03    0.20770E+00   -0.24499E-01 43056   0.177E+00    0.133E+01
DAV:  53    -0.219834576670E+03    0.95946E-01   -0.69459E-01 44336   0.132E+00    0.111E+01
DAV:  54    -0.219822186993E+03    0.12390E-01   -0.85616E-02 44032   0.136E+00    0.105E+01
DAV:  55    -0.219764763556E+03    0.57423E-01   -0.56374E-02 45400   0.112E+00    0.936E+00
DAV:  56    -0.219614879156E+03    0.14988E+00   -0.71746E-01 43712   0.432E+00    0.114E+01
DAV:  57    -0.219661001584E+03   -0.46122E-01   -0.17021E-01 39176   0.203E+00    0.102E+01
DAV:  58    -0.219658185259E+03    0.28163E-02   -0.81133E-02 45464   0.976E-01    0.878E+00
DAV:  59    -0.219671776591E+03   -0.13591E-01   -0.25302E-02 39488   0.417E-01    0.845E+00
DAV:  60    -0.219711601738E+03   -0.39825E-01   -0.91794E-03 43752   0.446E-01    0.871E+00
DAV:  61    -0.219750551677E+03   -0.38950E-01   -0.74340E-02 42704   0.118E+00    0.929E+00
DAV:  62    -0.219746332366E+03    0.42193E-02   -0.10776E-02 39560   0.475E-01    0.917E+00
DAV:  63    -0.219748333837E+03   -0.20015E-02   -0.62841E-02 46288   0.754E-01    0.887E+00
DAV:  64    -0.219790583466E+03   -0.42250E-01   -0.38860E-02 42864   0.715E-01    0.101E+01
DAV:  65    -0.219769960393E+03    0.20623E-01   -0.17312E-02 39920   0.791E-01    0.109E+01
DAV:  66    -0.219777522031E+03   -0.75616E-02   -0.55223E-02 44992   0.117E+00    0.917E+00
DAV:  67    -0.219767003320E+03    0.10519E-01   -0.89387E-02 43592   0.130E+00    0.768E+00
DAV:  68    -0.219758121583E+03    0.88817E-02   -0.14152E-01 44536   0.125E+00    0.692E+00
DAV:  69    -0.219718163894E+03    0.39958E-01   -0.10495E-01 44456   0.151E+00    0.611E+00
DAV:  70    -0.219729107628E+03   -0.10944E-01   -0.23564E-01 42232   0.113E+00    0.426E+00
DAV:  71    -0.219789505153E+03   -0.60398E-01   -0.70636E-02 43280   0.128E+00    0.412E+00
DAV:  72    -0.219782763128E+03    0.67420E-02   -0.21721E-02 41016   0.928E-01    0.400E+00
DAV:  73    -0.219779905584E+03    0.28575E-02   -0.21823E-02 45216   0.551E-01    0.505E+00
DAV:  74    -0.219755452249E+03    0.24453E-01   -0.14136E-02 43328   0.442E-01    0.466E+00
DAV:  75    -0.219755906821E+03   -0.45457E-03   -0.13494E-02 43728   0.245E-01    0.427E+00
DAV:  76    -0.219768784159E+03   -0.12877E-01   -0.57495E-03 43408   0.319E-01    0.383E+00
DAV:  77    -0.219778181162E+03   -0.93970E-02   -0.93633E-03 45280   0.306E-01    0.317E+00
DAV:  78    -0.219781714753E+03   -0.35336E-02   -0.29157E-03 40088   0.180E-01    0.292E+00
DAV:  79    -0.219786376770E+03   -0.46620E-02   -0.17836E-03 44520   0.163E-01    0.292E+00
DAV:  80    -0.219788235621E+03   -0.18589E-02   -0.33833E-03 44008   0.169E-01    0.309E+00
DAV:  81    -0.219786726350E+03    0.15093E-02   -0.60233E-04 38800   0.111E-01    0.295E+00
DAV:  82    -0.219786919511E+03   -0.19316E-03   -0.66637E-04 43008   0.139E-01    0.304E+00
DAV:  83    -0.219786869664E+03    0.49847E-04   -0.31118E-04 44520   0.718E-02    0.309E+00
DAV:  84    -0.219786340124E+03    0.52954E-03   -0.50471E-05 30888   0.244E-02    0.311E+00
DAV:  85    -0.219785558612E+03    0.78151E-03   -0.21343E-04 25504   0.494E-02    0.319E+00
DAV:  86    -0.219788592090E+03   -0.30335E-02   -0.25894E-03 45008   0.266E-01    0.290E+00
DAV:  87    -0.219796374743E+03   -0.77827E-02   -0.21359E-03 42288   0.233E-01    0.333E+00
DAV:  88    -0.219794906471E+03    0.14683E-02   -0.36187E-04 33448   0.694E-02    0.347E+00
DAV:  89    -0.219793517983E+03    0.13885E-02   -0.79194E-05 31440   0.314E-02    0.352E+00
DAV:  90    -0.219790004998E+03    0.35130E-02   -0.20980E-04 39528   0.808E-02    0.338E+00
DAV:  91    -0.219752569210E+03    0.37436E-01   -0.10361E-01 44808   0.757E-01    0.274E+00
DAV:  92    -0.219762854978E+03   -0.10286E-01   -0.93314E-03 34792   0.373E-01    0.363E+00
DAV:  93    -0.219760546844E+03    0.23081E-02   -0.18650E-03 34792   0.200E-01    0.383E+00
DAV:  94    -0.219754483875E+03    0.60630E-02   -0.25152E-03 42544   0.259E-01    0.467E+00
DAV:  95    -0.219748831779E+03    0.56521E-02   -0.24281E-03 37032   0.167E-01    0.527E+00
DAV:  96    -0.219806303881E+03   -0.57472E-01   -0.43497E-01 43760   0.186E+00    0.409E+00
DAV:  97    -0.219835545904E+03   -0.29242E-01   -0.55178E-02 42184   0.134E+00    0.620E+00
DAV:  98    -0.219826150422E+03    0.93955E-02   -0.18125E-02 43272   0.744E-01    0.580E+00
DAV:  99    -0.219807789464E+03    0.18361E-01   -0.87341E-03 44504   0.564E-01    0.429E+00
DAV: 100    -0.219812578246E+03   -0.47888E-02   -0.49730E-03 42872   0.377E-01    0.371E+00
DAV: 101    -0.219816038319E+03   -0.34601E-02   -0.17496E-03 43920   0.204E-01    0.374E+00
DAV: 102    -0.219819637820E+03   -0.35995E-02   -0.16236E-03 44880   0.189E-01    0.414E+00
DAV: 103    -0.219818027095E+03    0.16107E-02   -0.73918E-04 41488   0.113E-01    0.433E+00
DAV: 104    -0.219817093301E+03    0.93379E-03   -0.40243E-04 44184   0.939E-02    0.443E+00
DAV: 105    -0.219818228277E+03   -0.11350E-02   -0.29043E-04 43296   0.773E-02    0.472E+00
DAV: 106    -0.219815666667E+03    0.25616E-02   -0.63481E-04 42152   0.133E-01    0.455E+00
DAV: 107    -0.219816194138E+03   -0.52747E-03   -0.35184E-04 41528   0.887E-02    0.452E+00
DAV: 108    -0.219816845469E+03   -0.65133E-03   -0.11115E-04 36728   0.471E-02    0.468E+00
DAV: 109    -0.219816118853E+03    0.72662E-03   -0.40947E-04 47616   0.122E-01    0.442E+00
DAV: 110    -0.219817743942E+03   -0.16251E-02   -0.76798E-04 46208   0.130E-01    0.406E+00
DAV: 111    -0.219821079724E+03   -0.33358E-02   -0.67161E-04 44376   0.110E-01    0.401E+00
DAV: 112    -0.219824795841E+03   -0.37161E-02   -0.47139E-04 45224   0.120E-01    0.427E+00
DAV: 113    -0.219825197144E+03   -0.40130E-03   -0.31581E-04 42064   0.768E-02    0.431E+00
DAV: 114    -0.219825896761E+03   -0.69962E-03   -0.13014E-04 36984   0.518E-02    0.448E+00
DAV: 115    -0.219825932993E+03   -0.36232E-04   -0.88929E-05 34040   0.325E-02    0.461E+00
DAV: 116    -0.219825587948E+03    0.34504E-03   -0.36604E-05 27736   0.338E-02    0.470E+00
DAV: 117    -0.219824783660E+03    0.80429E-03   -0.21197E-05 23480   0.324E-02    0.470E+00
DAV: 118    -0.219824332453E+03    0.45121E-03   -0.56607E-06 21200   0.104E-02    0.468E+00
DAV: 119    -0.219824387976E+03   -0.55523E-04   -0.17064E-06 17888   0.496E-03    0.469E+00
DAV: 120    -0.219824158402E+03    0.22957E-03   -0.84599E-07 17888   0.664E-03    0.468E+00
DAV: 121    -0.219823664005E+03    0.49440E-03   -0.34650E-05 26544   0.387E-02    0.456E+00
DAV: 122    -0.219822913794E+03    0.75021E-03   -0.55785E-05 34792   0.393E-02    0.448E+00
DAV: 123    -0.219821752584E+03    0.11612E-02   -0.15214E-04 41360   0.603E-02    0.428E+00
DAV: 124    -0.219820444487E+03    0.13081E-02   -0.36048E-04 44456   0.873E-02    0.392E+00
DAV: 125    -0.219818957899E+03    0.14866E-02   -0.59702E-04 43760   0.122E-01    0.326E+00
DAV: 126    -0.219821753028E+03   -0.27951E-02   -0.48846E-04 34000   0.810E-02    0.294E+00
DAV: 127    -0.219823597109E+03   -0.18441E-02   -0.13010E-04 32712   0.490E-02    0.276E+00
DAV: 128    -0.219825066649E+03   -0.14695E-02   -0.48362E-05 30312   0.331E-02    0.274E+00
DAV: 129    -0.219825690806E+03   -0.62416E-03   -0.14013E-05 25440   0.161E-02    0.275E+00
DAV: 130    -0.219826562741E+03   -0.87193E-03   -0.24290E-05 24080   0.358E-02    0.290E+00
DAV: 131    -0.219818758022E+03    0.78047E-02   -0.10423E-02 48848   0.663E-01    0.529E-01
DAV: 132    -0.219825558513E+03   -0.68005E-02   -0.76237E-03 34448   0.276E-01    0.844E-01
DAV: 133    -0.219825849904E+03   -0.29139E-03   -0.80594E-04 36768   0.116E-01    0.136E+00
DAV: 134    -0.219823873354E+03    0.19766E-02   -0.42803E-04 34296   0.834E-02    0.158E+00
DAV: 135    -0.219822325710E+03    0.15476E-02   -0.15448E-04 33512   0.463E-02    0.167E+00
DAV: 136    -0.219821537362E+03    0.78835E-03   -0.19023E-03 51096   0.286E-01    0.110E+00
DAV: 137    -0.219822876226E+03   -0.13389E-02   -0.12882E-03 40688   0.144E-01    0.459E-01
DAV: 138    -0.219826279562E+03   -0.34033E-02   -0.21411E-03 41136   0.200E-01    0.128E+00
DAV: 139    -0.219827357820E+03   -0.10783E-02   -0.14014E-03 36344   0.158E-01    0.224E+00
DAV: 140    -0.219826606646E+03    0.75117E-03   -0.88559E-04 34224   0.115E-01    0.280E+00
DAV: 141    -0.219825156635E+03    0.14500E-02   -0.45896E-04 35376   0.818E-02    0.318E+00
DAV: 142    -0.219823261001E+03    0.18956E-02   -0.16074E-04 33048   0.493E-02    0.332E+00
DAV: 143    -0.219822199712E+03    0.10613E-02   -0.41639E-05 29320   0.234E-02    0.340E+00
DAV: 144    -0.219819867017E+03    0.23327E-02   -0.38369E-04 42208   0.966E-02    0.296E+00
DAV: 145    -0.219819436949E+03    0.43007E-03   -0.43010E-04 40792   0.840E-02    0.238E+00
DAV: 146    -0.219820314340E+03   -0.87739E-03   -0.65535E-04 40208   0.117E-01    0.166E+00
DAV: 147    -0.219822307445E+03   -0.19931E-02   -0.40873E-04 36176   0.104E-01    0.145E+00
DAV: 148    -0.219823069331E+03   -0.76189E-03   -0.21162E-04 34144   0.674E-02    0.104E+00
DAV: 149    -0.219823866312E+03   -0.79698E-03   -0.13945E-04 34456   0.586E-02    0.856E-01
DAV: 150    -0.219824325611E+03   -0.45930E-03   -0.11658E-04 33056   0.530E-02    0.639E-01
DAV: 151    -0.219824751487E+03   -0.42588E-03   -0.20493E-04 37728   0.656E-02    0.141E-01
DAV: 152    -0.219825357421E+03   -0.60593E-03   -0.17201E-04 33872   0.553E-02    0.252E-01
DAV: 153    -0.219825372944E+03   -0.15523E-04   -0.79296E-05 32152   0.509E-02    0.213E-01
DAV: 154    -0.219825316604E+03    0.56341E-04   -0.20383E-05 26696   0.207E-02    0.144E-01
DAV: 155    -0.219825331976E+03   -0.15372E-04   -0.65549E-06 20848   0.110E-02    0.129E-01
DAV: 156    -0.219825340442E+03   -0.84659E-05   -0.27768E-06 18296   0.670E-03
   1 F= -.21982534E+03 E0= -.21980777E+03  d E =-.219825E+03  mag=     9.0264
       N       E                     dE             d eps       ncg     rms          rms(c)
DAV:   1    -0.220057487859E+03   -0.23216E+00   -0.59139E-02 33416   0.447E-01    0.147E-01
DAV:   2    -0.220059667006E+03   -0.21791E-02   -0.54177E-03 41168   0.327E-01    0.150E+00
DAV:   3    -0.220056302432E+03    0.33646E-02   -0.20974E-03 37512   0.314E-01    0.334E-01
DAV:   4    -0.220057403641E+03   -0.11012E-02   -0.71489E-04 39624   0.140E-01    0.206E-01
DAV:   5    -0.220057619742E+03   -0.21610E-03   -0.44640E-04 38184   0.978E-02    0.121E-01
DAV:   6    -0.220057683432E+03   -0.63690E-04   -0.17289E-04 33960   0.753E-02    0.148E-01
DAV:   7    -0.220057685475E+03   -0.20425E-05   -0.75955E-05 28768   0.558E-02
   2 F= -.22005769E+03 E0= -.22004007E+03  d E =-.232345E+00  mag=     9.0269
       N       E                     dE             d eps       ncg     rms          rms(c)
DAV:   1    -0.223906563281E+03   -0.38489E+01   -0.31979E+01 33392   0.103E+01    0.206E+00
DAV:   2    -0.224047398392E+03   -0.14084E+00   -0.21683E+00 38712   0.311E+00    0.323E+00
DAV:   3    -0.224063367218E+03   -0.15969E-01   -0.29708E-01 43664   0.281E+00    0.492E+00
DAV:   4    -0.224068681799E+03   -0.53146E-02   -0.27401E-01 41816   0.205E+00    0.574E+00
DAV:   5    -0.224022389277E+03    0.46293E-01   -0.13917E-01 38648   0.197E+00    0.231E+00
DAV:   6    -0.224026931355E+03   -0.45421E-02   -0.78732E-02 39568   0.145E+00    0.236E+00
DAV:   7    -0.224032849459E+03   -0.59181E-02   -0.15105E-01 41928   0.144E+00    0.208E+00
DAV:   8    -0.224032026494E+03    0.82296E-03   -0.23492E-02 41608   0.128E+00    0.296E+00
DAV:   9    -0.224031213966E+03    0.81253E-03   -0.83485E-03 41464   0.631E-01    0.336E+00
DAV:  10    -0.224025778844E+03    0.54351E-02   -0.44831E-03 40216   0.408E-01    0.326E+00
DAV:  11    -0.224024272385E+03    0.15065E-02   -0.77242E-04 41008   0.118E-01    0.336E+00
DAV:  12    -0.224019475576E+03    0.47968E-02   -0.97181E-04 42240   0.171E-01    0.301E+00
DAV:  13    -0.224020279959E+03   -0.80438E-03   -0.89038E-04 42224   0.163E-01    0.291E+00
DAV:  14    -0.224021132825E+03   -0.85287E-03   -0.14270E-04 32448   0.347E-02    0.289E+00
DAV:  15    -0.224021251232E+03   -0.11841E-03   -0.29297E-05 24024   0.199E-02    0.287E+00
DAV:  16    -0.224020290788E+03    0.96044E-03   -0.71447E-04 43208   0.187E-01    0.231E+00
DAV:  17    -0.224020420655E+03   -0.12987E-03   -0.15915E-03 41448   0.235E-01    0.147E+00
DAV:  18    -0.224021833205E+03   -0.14125E-02   -0.36543E-03 41184   0.335E-01    0.566E-01
DAV:  19    -0.224024630031E+03   -0.27968E-02   -0.44459E-03 39832   0.370E-01    0.781E-01
DAV:  20    -0.224024732182E+03   -0.10215E-03   -0.11597E-03 38216   0.210E-01    0.766E-01
DAV:  21    -0.224024089284E+03    0.64290E-03   -0.47147E-04 42840   0.120E-01    0.731E-01
DAV:  22    -0.224023855694E+03    0.23359E-03   -0.27793E-04 40336   0.931E-02    0.338E-01
DAV:  23    -0.224024584840E+03   -0.72915E-03   -0.50907E-04 40848   0.151E-01    0.187E-01
DAV:  24    -0.224024798305E+03   -0.21347E-03   -0.28732E-04 41200   0.133E-01    0.241E-01
DAV:  25    -0.224024731019E+03    0.67286E-04   -0.12203E-04 34608   0.658E-02    0.691E-02
DAV:  26    -0.224024770993E+03   -0.39974E-04   -0.32872E-05 25864   0.326E-02    0.131E-01
DAV:  27    -0.224024767888E+03    0.31055E-05   -0.24466E-05 24744   0.360E-02
   3 F= -.22402477E+03 E0= -.22400718E+03  d E =-.396708E+01  mag=     9.0349
       N       E                     dE             d eps       ncg     rms          rms(c)
DAV:   1    -0.226596936348E+03   -0.25722E+01   -0.86223E+01 33880   0.227E+01    0.282E+00
DAV:   2    -0.227115743358E+03   -0.51881E+00   -0.59767E+00 37160   0.494E+00    0.419E+00
DAV:   3    -0.227151870356E+03   -0.36127E-01   -0.46337E-01 45296   0.326E+00    0.676E+00
DAV:   4    -0.227142087501E+03    0.97829E-02   -0.48536E-01 40424   0.247E+00    0.655E+00
DAV:   5    -0.227079808523E+03    0.62279E-01   -0.21360E-01 38840   0.239E+00    0.247E+00
DAV:   6    -0.227108295695E+03   -0.28487E-01   -0.25938E-01 40888   0.200E+00    0.541E+00
DAV:   7    -0.227087580598E+03    0.20715E-01   -0.85312E-01 42272   0.190E+00    0.275E+00
DAV:   8    -0.227098953721E+03   -0.11373E-01   -0.57638E-02 42320   0.176E+00    0.395E+00
DAV:   9    -0.227086505026E+03    0.12449E-01   -0.44539E-02 42152   0.129E+00    0.310E+00
DAV:  10    -0.227078277911E+03    0.82271E-02   -0.16234E-02 41512   0.953E-01    0.202E+00
DAV:  11    -0.227080458540E+03   -0.21806E-02   -0.24830E-03 42944   0.318E-01    0.210E+00
DAV:  12    -0.227077954959E+03    0.25036E-02   -0.10356E-03 42872   0.196E-01    0.189E+00
DAV:  13    -0.227077603019E+03    0.35194E-03   -0.46579E-03 43192   0.396E-01    0.183E+00
DAV:  14    -0.227079273845E+03   -0.16708E-02   -0.71335E-03 43288   0.465E-01    0.250E+00
DAV:  15    -0.227079194980E+03    0.78865E-04   -0.22201E-03 40824   0.193E-01    0.288E+00
DAV:  16    -0.227077484981E+03    0.17100E-02   -0.61202E-04 35792   0.902E-02    0.308E+00
DAV:  17    -0.227075246848E+03    0.22381E-02   -0.31509E-03 43912   0.294E-01    0.299E+00
DAV:  18    -0.227073073783E+03    0.21731E-02   -0.60304E-03 44496   0.475E-01    0.248E+00
DAV:  19    -0.227072863217E+03    0.21057E-03   -0.77203E-03 43112   0.471E-01    0.168E+00
DAV:  20    -0.227077215569E+03   -0.43524E-02   -0.51026E-03 40320   0.383E-01    0.151E+00
DAV:  21    -0.227078791378E+03   -0.15758E-02   -0.26270E-03 42960   0.333E-01    0.161E+00
DAV:  22    -0.227079322376E+03   -0.53100E-03   -0.13659E-03 45544   0.191E-01    0.165E+00
DAV:  23    -0.227078296888E+03    0.10255E-02   -0.19678E-03 45248   0.241E-01    0.140E+00
DAV:  24    -0.227077104293E+03    0.11926E-02   -0.27048E-03 43840   0.255E-01    0.763E-01
DAV:  25    -0.227078175833E+03   -0.10715E-02   -0.80192E-04 36520   0.941E-02    0.525E-01
DAV:  26    -0.227079080192E+03   -0.90436E-03   -0.38346E-04 41776   0.894E-02    0.733E-01
DAV:  27    -0.227079179377E+03   -0.99184E-04   -0.38047E-04 40344   0.106E-01    0.833E-01
DAV:  28    -0.227078852329E+03    0.32705E-03   -0.28049E-04 39592   0.116E-01    0.607E-01
DAV:  29    -0.227078972164E+03   -0.11983E-03   -0.11157E-04 35840   0.786E-02    0.367E-01
DAV:  30    -0.227079262823E+03   -0.29066E-03   -0.92192E-05 33560   0.514E-02    0.211E-01
DAV:  31    -0.227079457314E+03   -0.19449E-03   -0.95517E-05 32680   0.405E-02    0.162E-01
DAV:  32    -0.227079508709E+03   -0.51396E-04   -0.27951E-05 25544   0.282E-02    0.890E-02
DAV:  33    -0.227079540562E+03   -0.31853E-04   -0.16033E-05 22096   0.196E-02    0.364E-02
DAV:  34    -0.227079562167E+03   -0.21605E-04   -0.11399E-05 21640   0.165E-02    0.322E-02
DAV:  35    -0.227079562573E+03   -0.40546E-06   -0.53276E-06 19464   0.947E-03
   4 F= -.22707956E+03 E0= -.22706217E+03  d E =-.305479E+01  mag=     9.0358
       N       E                     dE             d eps       ncg     rms          rms(c)
DAV:   1    -0.227704183270E+03   -0.62462E+00   -0.84086E+01 35168   0.333E+01    0.273E+00
DAV:   2    -0.228460505570E+03   -0.75632E+00   -0.79803E+00 36952   0.660E+00    0.350E+00
DAV:   3    -0.228483055306E+03   -0.22550E-01   -0.35154E-01 44464   0.356E+00    0.484E+00
DAV:   4    -0.228466825495E+03    0.16230E-01   -0.89490E-02 41328   0.239E+00    0.565E+00
DAV:   5    -0.228436786389E+03    0.30039E-01   -0.58502E-02 38624   0.164E+00    0.205E+00
DAV:   6    -0.228458084159E+03   -0.21298E-01   -0.97077E-02 41248   0.176E+00    0.353E+00
DAV:   7    -0.228451717614E+03    0.63665E-02   -0.33971E-01 42992   0.170E+00    0.255E+00
DAV:   8    -0.228436136359E+03    0.15581E-01   -0.48625E-02 40496   0.153E+00    0.931E-01
DAV:   9    -0.228441091548E+03   -0.49552E-02   -0.19819E-02 45096   0.875E-01    0.175E+00
DAV:  10    -0.228438674355E+03    0.24172E-02   -0.12589E-02 40912   0.715E-01    0.182E+00
DAV:  11    -0.228437867008E+03    0.80735E-03   -0.14970E-03 41992   0.245E-01    0.203E+00
DAV:  12    -0.228437127353E+03    0.73966E-03   -0.46197E-04 37736   0.949E-02    0.233E+00
DAV:  13    -0.228433415921E+03    0.37114E-02   -0.27426E-03 44240   0.321E-01    0.129E+00
DAV:  14    -0.228435312312E+03   -0.18964E-02   -0.60717E-03 40288   0.492E-01    0.752E-01
DAV:  15    -0.228437802490E+03   -0.24902E-02   -0.31449E-03 37944   0.405E-01    0.872E-01
DAV:  16    -0.228437105567E+03    0.69692E-03   -0.13282E-03 42112   0.189E-01    0.830E-01
DAV:  17    -0.228436537173E+03    0.56839E-03   -0.39285E-04 42800   0.101E-01    0.653E-01
DAV:  18    -0.228436775629E+03   -0.23846E-03   -0.14429E-04 31488   0.584E-02    0.594E-01
DAV:  19    -0.228436944326E+03   -0.16870E-03   -0.50669E-05 24248   0.339E-02    0.621E-01
DAV:  20    -0.228436923460E+03    0.20866E-04   -0.12987E-05 20680   0.175E-02    0.599E-01
DAV:  21    -0.228436849325E+03    0.74134E-04   -0.56311E-05 28744   0.610E-02    0.512E-01
DAV:  22    -0.228436961245E+03   -0.11192E-03   -0.29193E-05 27456   0.297E-02    0.481E-01
DAV:  23    -0.228437050645E+03   -0.89400E-04   -0.23429E-04 40528   0.992E-02    0.238E-01
DAV:  24    -0.228437238981E+03   -0.18834E-03   -0.38521E-04 42784   0.938E-02    0.212E-01
DAV:  25    -0.228437270367E+03   -0.31385E-04   -0.16739E-04 34992   0.773E-02    0.177E-01
DAV:  26    -0.228437242103E+03    0.28264E-04   -0.73648E-05 34024   0.514E-02    0.683E-02
DAV:  27    -0.228437274964E+03   -0.32862E-04   -0.31185E-05 25944   0.423E-02    0.107E-01
DAV:  28    -0.228437265882E+03    0.90821E-05   -0.20376E-05 23192   0.293E-02
   5 F= -.22843727E+03 E0= -.22841983E+03  d E =-.135770E+01  mag=     9.0365
       N       E                     dE             d eps       ncg     rms          rms(c)
DAV:   1    -0.226918024831E+03    0.15193E+01   -0.15400E+02 37040   0.620E+01    0.535E+00
DAV:   2    -0.229694207821E+03   -0.27762E+01   -0.27098E+01 36776   0.137E+01    0.146E+01
DAV:   3    -0.229675242163E+03    0.18966E-01   -0.68453E+00 44112   0.833E+00    0.951E+00
DAV:   4    -0.229552471973E+03    0.12277E+00   -0.29714E+00 42048   0.626E+00    0.619E+00
DAV:   5    -0.229454738051E+03    0.97734E-01   -0.54395E-01 38536   0.446E+00    0.320E+00
DAV:   6    -0.229446297731E+03    0.84403E-02   -0.13704E-01 44872   0.203E+00    0.313E+00
DAV:   7    -0.229437922629E+03    0.83751E-02   -0.56685E-02 44424   0.141E+00    0.237E+00
DAV:   8    -0.229435822402E+03    0.21002E-02   -0.22462E-02 44096   0.104E+00    0.249E+00
DAV:   9    -0.229432804265E+03    0.30181E-02   -0.78709E-03 43552   0.531E-01    0.275E+00
DAV:  10    -0.229441613350E+03   -0.88091E-02   -0.16910E-02 41672   0.726E-01    0.451E+00
DAV:  11    -0.229438804449E+03    0.28089E-02   -0.34995E-03 40392   0.263E-01    0.488E+00
DAV:  12    -0.229439506219E+03   -0.70177E-03   -0.81439E-04 40280   0.134E-01    0.549E+00
DAV:  13    -0.229435847164E+03    0.36591E-02   -0.67631E-02 43720   0.167E+00    0.497E+00
DAV:  14    -0.229426111177E+03    0.97360E-02   -0.95901E-02 41440   0.172E+00    0.359E+00
DAV:  15    -0.229431440659E+03   -0.53295E-02   -0.55545E-02 41176   0.934E-01    0.307E+00
DAV:  16    -0.229433357307E+03   -0.19166E-02   -0.11512E-02 35072   0.342E-01    0.348E+00
DAV:  17    -0.229417738838E+03    0.15618E-01   -0.14295E-02 41728   0.512E-01    0.429E+00
DAV:  18    -0.229400076407E+03    0.17662E-01   -0.10249E-02 44536   0.506E-01    0.458E+00
DAV:  19    -0.229384508709E+03    0.15568E-01   -0.16595E-02 44040   0.706E-01    0.488E+00
DAV:  20    -0.229374134145E+03    0.10375E-01   -0.78661E-03 43544   0.553E-01    0.438E+00
DAV:  21    -0.229383907684E+03   -0.97735E-02   -0.14709E-02 43584   0.606E-01    0.405E+00
DAV:  22    -0.229393022135E+03   -0.91145E-02   -0.76227E-03 44224   0.591E-01    0.375E+00
DAV:  23    -0.229407829419E+03   -0.14807E-01   -0.65855E-03 44104   0.426E-01    0.353E+00
DAV:  24    -0.229408509655E+03   -0.68024E-03   -0.28989E-03 45232   0.273E-01    0.334E+00
DAV:  25    -0.229409703077E+03   -0.11934E-02   -0.11019E-03 45024   0.181E-01    0.328E+00
DAV:  26    -0.229414902167E+03   -0.51991E-02   -0.21786E-03 45080   0.235E-01    0.326E+00
DAV:  27    -0.229410817380E+03    0.40848E-02   -0.14701E-03 43176   0.185E-01    0.349E+00
DAV:  28    -0.229404597631E+03    0.62197E-02   -0.57602E-04 38624   0.966E-02    0.374E+00
DAV:  29    -0.229408006322E+03   -0.34087E-02   -0.43436E-04 42192   0.122E-01    0.369E+00
DAV:  30    -0.229413809035E+03   -0.58027E-02   -0.13688E-03 43280   0.167E-01    0.333E+00
DAV:  31    -0.229417830265E+03   -0.40212E-02   -0.83360E-04 42864   0.953E-02    0.307E+00
DAV:  32    -0.229433437125E+03   -0.15607E-01   -0.11926E-02 41544   0.441E-01    0.225E+00
DAV:  33    -0.229436453649E+03   -0.30165E-02   -0.88467E-03 42792   0.319E-01    0.135E+00
DAV:  34    -0.229438543037E+03   -0.20894E-02   -0.38558E-03 40016   0.211E-01    0.608E-01
DAV:  35    -0.229439624110E+03   -0.10811E-02   -0.97870E-04 39640   0.103E-01    0.238E-01
DAV:  36    -0.229440031830E+03   -0.40772E-03   -0.22364E-04 33752   0.651E-02    0.204E-01
DAV:  37    -0.229440025610E+03    0.62203E-05   -0.90090E-05 34944   0.371E-02
   6 F= -.22944003E+03 E0= -.22942275E+03  d E =-.100276E+01  mag=     9.0342
       N       E                     dE             d eps       ncg     rms          rms(c)
DAV:   1    -0.226558623007E+03    0.28814E+01   -0.19902E+02 37024   0.733E+01    0.648E+00
DAV:   2    -0.230576990976E+03   -0.40184E+01   -0.38849E+01 36152   0.174E+01    0.188E+01
DAV:   3    -0.230383399344E+03    0.19359E+00   -0.11190E+01 43736   0.106E+01    0.107E+01
DAV:   4    -0.230268280577E+03    0.11512E+00   -0.43816E+00 42176   0.782E+00    0.833E+00
DAV:   5    -0.230093925553E+03    0.17436E+00   -0.60761E-01 39592   0.522E+00    0.416E+00
DAV:   6    -0.230074367805E+03    0.19558E-01   -0.13289E-01 44568   0.210E+00    0.364E+00
DAV:   7    -0.230065734332E+03    0.86335E-02   -0.93676E-02 43616   0.148E+00    0.292E+00
DAV:   8    -0.230058488556E+03    0.72458E-02   -0.32889E-02 43096   0.121E+00    0.212E+00
DAV:   9    -0.230065321008E+03   -0.68325E-02   -0.81004E-02 43328   0.176E+00    0.292E+00
DAV:  10    -0.230062358705E+03    0.29623E-02   -0.86084E-02 43856   0.218E+00    0.273E+00
DAV:  11    -0.230054785999E+03    0.75727E-02   -0.48332E-02 44016   0.181E+00    0.196E+00
DAV:  12    -0.230064038768E+03   -0.92528E-02   -0.62426E-02 42296   0.105E+00    0.273E+00
DAV:  13    -0.230062486244E+03    0.15525E-02   -0.62628E-03 37776   0.392E-01    0.280E+00
DAV:  14    -0.230052418885E+03    0.10067E-01   -0.52688E-03 39488   0.375E-01    0.320E+00
DAV:  15    -0.230049822515E+03    0.25964E-02   -0.80718E-04 38088   0.106E-01    0.325E+00
DAV:  16    -0.230047913903E+03    0.19086E-02   -0.15627E-04 36760   0.559E-02    0.331E+00
DAV:  17    -0.230056739129E+03   -0.88252E-02   -0.66879E-03 43912   0.456E-01    0.314E+00
DAV:  18    -0.230064781600E+03   -0.80425E-02   -0.24357E-02 43040   0.705E-01    0.238E+00
DAV:  19    -0.230064065835E+03    0.71576E-03   -0.18057E-02 44768   0.481E-01    0.155E+00
DAV:  20    -0.230066864581E+03   -0.27987E-02   -0.65223E-03 44464   0.382E-01    0.130E+00
DAV:  21    -0.230065989820E+03    0.87476E-03   -0.51184E-03 44704   0.329E-01    0.977E-01
DAV:  22    -0.230066886788E+03   -0.89697E-03   -0.35158E-03 43544   0.354E-01    0.577E-01
DAV:  23    -0.230067393217E+03   -0.50643E-03   -0.29403E-03 42664   0.341E-01    0.829E-01
DAV:  24    -0.230067068116E+03    0.32510E-03   -0.10070E-03 43024   0.218E-01    0.883E-01
DAV:  25    -0.230066621229E+03    0.44689E-03   -0.32533E-04 43432   0.115E-01    0.706E-01
DAV:  26    -0.230066551422E+03    0.69808E-04   -0.39637E-04 42536   0.175E-01    0.267E-01
DAV:  27    -0.230067145612E+03   -0.59419E-03   -0.70102E-04 39360   0.189E-01    0.324E-01
DAV:  28    -0.230067134074E+03    0.11538E-04   -0.83529E-04 38696   0.103E-01    0.346E-01
DAV:  29    -0.230067073075E+03    0.60999E-04   -0.14050E-04 33336   0.319E-02    0.399E-01
DAV:  30    -0.230066866880E+03    0.20620E-03   -0.71915E-05 29544   0.582E-02    0.330E-01
DAV:  31    -0.230066983576E+03   -0.11670E-03   -0.99096E-05 33256   0.821E-02    0.366E-01
DAV:  32    -0.230066947440E+03    0.36137E-04   -0.36273E-05 26592   0.350E-02    0.415E-01
DAV:  33    -0.230066851270E+03    0.96170E-04   -0.31780E-05 27920   0.254E-02    0.493E-01
DAV:  34    -0.230066750847E+03    0.10042E-03   -0.21038E-05 26512   0.167E-02    0.539E-01
DAV:  35    -0.230066727501E+03    0.23346E-04   -0.65126E-06 20792   0.106E-02    0.549E-01
DAV:  36    -0.230066666487E+03    0.61014E-04   -0.26622E-06 19336   0.829E-03    0.585E-01
DAV:  37    -0.230066681755E+03   -0.15268E-04   -0.14570E-05 22984   0.205E-02    0.561E-01
DAV:  38    -0.230066745649E+03   -0.63894E-04   -0.16973E-04 38984   0.559E-02    0.363E-01
DAV:  39    -0.230066999186E+03   -0.25354E-03   -0.21468E-04 40200   0.544E-02    0.156E-01
DAV:  40    -0.230067168809E+03   -0.16962E-03   -0.73645E-05 34832   0.283E-02    0.611E-02
DAV:  41    -0.230067217759E+03   -0.48950E-04   -0.19890E-05 25424   0.228E-02    0.748E-02
DAV:  42    -0.230067227672E+03   -0.99124E-05   -0.11577E-05 22992   0.178E-02
   7 F= -.23006723E+03 E0= -.23005012E+03  d E =-.627202E+00  mag=     9.0286
       N       E                     dE             d eps       ncg     rms          rms(c)
DAV:   1    -0.227680769015E+03    0.23864E+01   -0.23154E+02 34352   0.649E+01    0.587E+00
DAV:   2    -0.230598722063E+03   -0.29180E+01   -0.28931E+01 36136   0.143E+01    0.132E+01
DAV:   3    -0.230725618698E+03   -0.12690E+00   -0.73468E+00 42560   0.803E+00    0.989E+00
DAV:   4    -0.230560604365E+03    0.16501E+00   -0.25014E+00 41392   0.653E+00    0.786E+00
DAV:   5    -0.230431195939E+03    0.12941E+00   -0.37484E-01 39536   0.451E+00    0.507E+00
DAV:   6    -0.230417326155E+03    0.13870E-01   -0.10838E-01 44864   0.172E+00    0.391E+00
DAV:   7    -0.230422099008E+03   -0.47729E-02   -0.93281E-02 42640   0.209E+00    0.334E+00
DAV:   8    -0.230429295445E+03   -0.71964E-02   -0.12008E-01 41880   0.239E+00    0.532E+00
DAV:   9    -0.230423107596E+03    0.61878E-02   -0.54264E-02 42416   0.147E+00    0.466E+00
DAV:  10    -0.230400141707E+03    0.22966E-01   -0.63026E-02 45008   0.130E+00    0.258E+00
DAV:  11    -0.230399559897E+03    0.58181E-03   -0.27410E-02 42400   0.109E+00    0.142E+00
DAV:  12    -0.230405074835E+03   -0.55149E-02   -0.37573E-02 42336   0.105E+00    0.199E+00
DAV:  13    -0.230407665135E+03   -0.25903E-02   -0.40504E-02 41960   0.823E-01    0.245E+00
DAV:  14    -0.230407584218E+03    0.80918E-04   -0.72518E-03 38440   0.253E-01    0.296E+00
DAV:  15    -0.230407574448E+03    0.97692E-05   -0.10434E-02 41872   0.575E-01    0.444E+00
DAV:  16    -0.230396102523E+03    0.11472E-01   -0.18091E-02 42424   0.716E-01    0.476E+00
DAV:  17    -0.230381007693E+03    0.15095E-01   -0.23136E-02 43024   0.883E-01    0.503E+00
DAV:  18    -0.230375651907E+03    0.53558E-02   -0.18372E-02 41824   0.592E-01    0.506E+00
DAV:  19    -0.230372151741E+03    0.35002E-02   -0.12674E-02 43000   0.449E-01    0.494E+00
DAV:  20    -0.230371428441E+03    0.72330E-03   -0.73773E-03 44552   0.250E-01    0.471E+00
DAV:  21    -0.230365042692E+03    0.63857E-02   -0.25259E-03 34440   0.118E-01    0.490E+00
DAV:  22    -0.230378084261E+03   -0.13042E-01   -0.96493E-03 44464   0.364E-01    0.416E+00
DAV:  23    -0.230387420224E+03   -0.93360E-02   -0.76016E-03 44536   0.443E-01    0.383E+00
DAV:  24    -0.230403728035E+03   -0.16308E-01   -0.18102E-02 43400   0.610E-01    0.353E+00
DAV:  25    -0.230404846869E+03   -0.11188E-02   -0.77412E-03 45072   0.362E-01    0.338E+00
DAV:  26    -0.230404713832E+03    0.13304E-03   -0.22227E-03 43768   0.226E-01    0.346E+00
DAV:  27    -0.230403929251E+03    0.78458E-03   -0.18946E-03 42792   0.160E-01    0.384E+00
DAV:  28    -0.230404273584E+03   -0.34433E-03   -0.48527E-04 36184   0.879E-02    0.375E+00
DAV:  29    -0.230404030190E+03    0.24339E-03   -0.25960E-05 28168   0.191E-02    0.380E+00
DAV:  30    -0.230403501408E+03    0.52878E-03   -0.61523E-04 42384   0.119E-01    0.362E+00
DAV:  31    -0.230403882132E+03   -0.38072E-03   -0.11909E-02 43664   0.515E-01    0.213E+00
DAV:  32    -0.230409258027E+03   -0.53759E-02   -0.10673E-02 43656   0.456E-01    0.114E+00
DAV:  33    -0.230411903371E+03   -0.26453E-02   -0.79687E-03 42288   0.368E-01    0.126E+00
DAV:  34    -0.230414800751E+03   -0.28974E-02   -0.26598E-03 34584   0.170E-01    0.129E+00
DAV:  35    -0.230415811902E+03   -0.10112E-02   -0.26927E-03 40608   0.222E-01    0.724E-01
DAV:  36    -0.230416190846E+03   -0.37894E-03   -0.15280E-03 44008   0.131E-01    0.339E-01
DAV:  37    -0.230416484427E+03   -0.29358E-03   -0.30014E-04 39656   0.651E-02    0.286E-01
DAV:  38    -0.230416570633E+03   -0.86205E-04   -0.79122E-05 31456   0.298E-02    0.362E-01
DAV:  39    -0.230416527640E+03    0.42993E-04   -0.13240E-04 36544   0.603E-02    0.135E-01
DAV:  40    -0.230416601244E+03   -0.73604E-04   -0.56696E-05 31448   0.317E-02    0.839E-02
DAV:  41    -0.230416623200E+03   -0.21957E-04   -0.53906E-05 33064   0.296E-02    0.284E-02
DAV:  42    -0.230416626819E+03   -0.36189E-05   -0.18433E-05 26088   0.120E-02
   8 F= -.23041663E+03 E0= -.23039991E+03  d E =-.349399E+00  mag=     9.0491
       N       E                     dE             d eps       ncg     rms          rms(c)
DAV:   1    -0.224055619586E+03    0.63610E+01   -0.33745E+02 35128   0.101E+02    0.120E+01
DAV:   2    -0.239302752354E+03   -0.15247E+02   -0.10584E+02 44336   0.349E+01    0.572E+01
DAV:   3    -0.231620884477E+03    0.76819E+01   -0.13118E+01 43448   0.219E+01    0.174E+01
DAV:   4    -0.231272077557E+03    0.34881E+00   -0.46800E+00 42432   0.170E+01    0.221E+01
DAV:   5    -0.230909458732E+03    0.36262E+00   -0.76917E+00 43728   0.735E+00    0.176E+01
DAV:   6    -0.230582362080E+03    0.32710E+00   -0.54322E+00 40056   0.447E+00    0.579E+00
DAV:   7    -0.230658646782E+03   -0.76285E-01   -0.35088E-01 41032   0.426E+00    0.572E+00
DAV:   8    -0.230622283377E+03    0.36363E-01   -0.22929E-01 41104   0.292E+00    0.435E+00
DAV:   9    -0.230606621530E+03    0.15662E-01   -0.63558E-02 44344   0.152E+00    0.344E+00
DAV:  10    -0.230614254168E+03   -0.76326E-02   -0.91187E-02 44112   0.203E+00    0.454E+00
DAV:  11    -0.230626300451E+03   -0.12046E-01   -0.35298E-02 42696   0.124E+00    0.636E+00
DAV:  12    -0.230609009113E+03    0.17291E-01   -0.10718E-02 36432   0.466E-01    0.691E+00
DAV:  13    -0.230601540358E+03    0.74688E-02   -0.12596E-03 38184   0.132E-01    0.720E+00
DAV:  14    -0.230590715441E+03    0.10825E-01   -0.21585E-02 42824   0.102E+00    0.708E+00
DAV:  15    -0.230583583348E+03    0.71321E-02   -0.23100E-02 44424   0.122E+00    0.604E+00
DAV:  16    -0.230585220903E+03   -0.16376E-02   -0.32993E-02 44296   0.100E+00    0.466E+00
DAV:  17    -0.230593966638E+03   -0.87457E-02   -0.24047E-02 42920   0.904E-01    0.353E+00
DAV:  18    -0.230599352876E+03   -0.53862E-02   -0.93347E-03 41768   0.518E-01    0.276E+00
DAV:  19    -0.230603824207E+03   -0.44713E-02   -0.68931E-03 43584   0.447E-01    0.239E+00
DAV:  20    -0.230606427704E+03   -0.26035E-02   -0.52507E-03 41384   0.387E-01    0.217E+00
DAV:  21    -0.230607335265E+03   -0.90756E-03   -0.57484E-03 44872   0.402E-01    0.191E+00
DAV:  22    -0.230608694396E+03   -0.13591E-02   -0.97078E-03 41504   0.667E-01    0.204E+00
DAV:  23    -0.230607005146E+03    0.16892E-02   -0.66174E-03 44160   0.481E-01    0.173E+00
DAV:  24    -0.230608988574E+03   -0.19834E-02   -0.13113E-02 44448   0.732E-01    0.188E+00
DAV:  25    -0.230614838334E+03   -0.58498E-02   -0.33865E-02 44312   0.721E-01    0.385E+00
DAV:  26    -0.230609441991E+03    0.53963E-02   -0.12544E-02 41448   0.644E-01    0.417E+00
DAV:  27    -0.230601223346E+03    0.82186E-02   -0.13235E-02 46376   0.583E-01    0.317E+00
DAV:  28    -0.230602762563E+03   -0.15392E-02   -0.99783E-03 42440   0.307E-01    0.206E+00
DAV:  29    -0.230607897740E+03   -0.51352E-02   -0.38891E-03 40440   0.307E-01    0.149E+00
DAV:  30    -0.230609650102E+03   -0.17524E-02   -0.21774E-03 44272   0.270E-01    0.106E+00
DAV:  31    -0.230610995502E+03   -0.13454E-02   -0.17039E-03 43960   0.247E-01    0.960E-01
DAV:  32    -0.230611408284E+03   -0.41278E-03   -0.13128E-03 38008   0.157E-01    0.136E+00
DAV:  33    -0.230610438549E+03    0.96973E-03   -0.34620E-04 34224   0.729E-02    0.159E+00
DAV:  34    -0.230610490038E+03   -0.51489E-04   -0.32870E-04 41856   0.946E-02    0.203E+00
DAV:  35    -0.230611152487E+03   -0.66245E-03   -0.83074E-04 43280   0.122E-01    0.272E+00
DAV:  36    -0.230611923880E+03   -0.77139E-03   -0.13953E-03 41632   0.137E-01    0.333E+00
DAV:  37    -0.230611431870E+03    0.49201E-03   -0.87701E-04 41024   0.111E-01    0.360E+00
DAV:  38    -0.230611658232E+03   -0.22636E-03   -0.74043E-04 40984   0.110E-01    0.387E+00
DAV:  39    -0.230612687477E+03   -0.10292E-02   -0.54685E-04 42680   0.845E-02    0.415E+00
DAV:  40    -0.230607598573E+03    0.50889E-02   -0.88335E-04 44384   0.164E-01    0.374E+00
DAV:  41    -0.230601625521E+03    0.59731E-02   -0.31164E-03 46312   0.223E-01    0.275E+00
DAV:  42    -0.230601420697E+03    0.20482E-03   -0.53805E-03 44056   0.293E-01    0.624E-01
DAV:  43    -0.230611726941E+03   -0.10306E-01   -0.78618E-03 35408   0.250E-01    0.131E+00
DAV:  44    -0.230614123624E+03   -0.23967E-02   -0.54056E-03 34304   0.202E-01    0.233E+00
DAV:  45    -0.230609943932E+03    0.41797E-02   -0.21749E-03 34224   0.148E-01    0.297E+00
DAV:  46    -0.230606916814E+03    0.30271E-02   -0.85036E-04 33312   0.923E-02    0.336E+00
DAV:  47    -0.230598628509E+03    0.82883E-02   -0.52501E-02 49128   0.349E-01    0.813E-01
DAV:  48    -0.230609327324E+03   -0.10699E-01   -0.40312E-03 34216   0.319E-01    0.597E-01
DAV:  49    -0.230611574411E+03   -0.22471E-02   -0.13143E-03 40840   0.157E-01    0.316E-01
DAV:  50    -0.230612322144E+03   -0.74773E-03   -0.59027E-04 44456   0.881E-02    0.534E-01
DAV:  51    -0.230612439911E+03   -0.11777E-03   -0.30319E-04 37984   0.603E-02    0.779E-01
DAV:  52    -0.230613040288E+03   -0.60038E-03   -0.18463E-03 40256   0.721E-02    0.155E+00
DAV:  53    -0.230612177977E+03    0.86231E-03   -0.18907E-03 34304   0.932E-02    0.225E+00
DAV:  54    -0.230609762165E+03    0.24158E-02   -0.92774E-04 32328   0.879E-02    0.271E+00
DAV:  55    -0.230607466979E+03    0.22952E-02   -0.42309E-04 33040   0.632E-02    0.299E+00
DAV:  56    -0.230605965938E+03    0.15010E-02   -0.18270E-04 31064   0.399E-02    0.318E+00
DAV:  57    -0.230605121366E+03    0.84457E-03   -0.19964E-04 41216   0.739E-02    0.338E+00
DAV:  58    -0.230604917578E+03    0.20379E-03   -0.20636E-04 33984   0.422E-02    0.368E+00
DAV:  59    -0.230603556598E+03    0.13610E-02   -0.89007E-05 30680   0.362E-02    0.380E+00
DAV:  60    -0.230603009349E+03    0.54725E-03   -0.40210E-05 27728   0.192E-02    0.395E+00
DAV:  61    -0.230602189557E+03    0.81979E-03   -0.18228E-05 24496   0.168E-02    0.400E+00
DAV:  62    -0.230601539855E+03    0.64970E-03   -0.13564E-05 21424   0.194E-02    0.400E+00
DAV:  63    -0.230601388894E+03    0.15096E-03   -0.13409E-05 20544   0.229E-02    0.401E+00
DAV:  64    -0.230600709943E+03    0.67895E-03   -0.27050E-05 22792   0.211E-02    0.384E+00
DAV:  65    -0.230600903190E+03   -0.19325E-03   -0.32660E-05 23360   0.203E-02    0.371E+00
DAV:  66    -0.230600856331E+03    0.46859E-04   -0.92078E-05 27560   0.249E-02    0.347E+00
DAV:  67    -0.230603006737E+03   -0.21504E-02   -0.77369E-05 29040   0.436E-02    0.363E+00
DAV:  68    -0.230602494937E+03    0.51180E-03   -0.89317E-06 20880   0.188E-02    0.363E+00
DAV:  69    -0.230602272552E+03    0.22238E-03   -0.35907E-06 18936   0.759E-03    0.359E+00
DAV:  70    -0.230602240384E+03    0.32168E-04   -0.64061E-06 20128   0.156E-02    0.354E+00
DAV:  71    -0.230602081330E+03    0.15905E-03   -0.28632E-05 23048   0.188E-02    0.343E+00
DAV:  72    -0.230601912654E+03    0.16868E-03   -0.16495E-04 28104   0.317E-02    0.313E+00
DAV:  73    -0.230602620177E+03   -0.70752E-03   -0.21728E-04 30944   0.400E-02    0.285E+00
DAV:  74    -0.230603549513E+03   -0.92934E-03   -0.32129E-04 31496   0.415E-02    0.249E+00
DAV:  75    -0.230604572101E+03   -0.10226E-02   -0.50462E-04 32528   0.458E-02    0.208E+00
DAV:  76    -0.230606008865E+03   -0.14368E-02   -0.63858E-04 32664   0.509E-02    0.167E+00
DAV:  77    -0.230607797012E+03   -0.17881E-02   -0.31620E-04 31464   0.507E-02    0.142E+00
DAV:  78    -0.230608939166E+03   -0.11422E-02   -0.20704E-04 30864   0.354E-02    0.120E+00
DAV:  79    -0.230609799736E+03   -0.86057E-03   -0.21724E-04 29016   0.307E-02    0.951E-01
DAV:  80    -0.230610572480E+03   -0.77274E-03   -0.12573E-04 29128   0.319E-02    0.750E-01
DAV:  81    -0.230611182689E+03   -0.61021E-03   -0.87559E-05 27952   0.271E-02    0.577E-01
DAV:  82    -0.230611557349E+03   -0.37466E-03   -0.14496E-04 28248   0.299E-02    0.283E-01
DAV:  83    -0.230612040473E+03   -0.48312E-03   -0.79640E-05 29904   0.344E-02    0.137E-01
DAV:  84    -0.230612243578E+03   -0.20311E-03   -0.27568E-05 26008   0.226E-02    0.777E-02
DAV:  85    -0.230612300154E+03   -0.56576E-04   -0.95600E-06 21712   0.153E-02    0.521E-02
DAV:  86    -0.230612313093E+03   -0.12939E-04   -0.46300E-06 20528   0.940E-03    0.406E-02
DAV:  87    -0.230612320018E+03   -0.69249E-05   -0.45635E-06 18952   0.952E-03
   9 F= -.23061232E+03 E0= -.23059408E+03  d E =-.195693E+00  mag=     9.4535
       N       E                     dE             d eps       ncg     rms          rms(c)
DAV:   1    -0.228169378092E+03    0.24429E+01   -0.17756E+02 33944   0.681E+01    0.556E+00
DAV:   2    -0.230907113208E+03   -0.27377E+01   -0.27407E+01 35504   0.147E+01    0.964E+00
DAV:   3    -0.231115548891E+03   -0.20844E+00   -0.42413E+00 43160   0.892E+00    0.973E+00
DAV:   4    -0.230824351156E+03    0.29120E+00   -0.38002E-01 39040   0.581E+00    0.444E+00
DAV:   5    -0.230856942952E+03   -0.32592E-01   -0.47136E-01 39864   0.306E+00    0.717E+00
DAV:   6    -0.230811549762E+03    0.45393E-01   -0.76958E-02 40184   0.124E+00    0.526E+00
DAV:   7    -0.230802384754E+03    0.91650E-02   -0.28898E-02 41072   0.107E+00    0.465E+00
DAV:   8    -0.230793328645E+03    0.90561E-02   -0.76463E-02 43680   0.120E+00    0.245E+00
DAV:   9    -0.230821949534E+03   -0.28621E-01   -0.83579E-02 40824   0.135E+00    0.532E+00
DAV:  10    -0.230815752686E+03    0.61968E-02   -0.19582E-02 42784   0.102E+00    0.508E+00
DAV:  11    -0.230808741992E+03    0.70107E-02   -0.23935E-02 43240   0.954E-01    0.448E+00
DAV:  12    -0.230808340192E+03    0.40180E-03   -0.59780E-03 40680   0.460E-01    0.467E+00
DAV:  13    -0.230798052524E+03    0.10288E-01   -0.29963E-03 42336   0.300E-01    0.467E+00
DAV:  14    -0.230794557477E+03    0.34950E-02   -0.12468E-03 43992   0.211E-01    0.466E+00
DAV:  15    -0.230794590128E+03   -0.32651E-04   -0.11058E-04 32440   0.338E-02    0.465E+00
DAV:  16    -0.230793631108E+03    0.95902E-03   -0.19131E-04 40888   0.116E-01    0.444E+00
DAV:  17    -0.230793640447E+03   -0.93392E-05   -0.83588E-03 43344   0.667E-01    0.385E+00
DAV:  18    -0.230791815327E+03    0.18251E-02   -0.16301E-02 43200   0.786E-01    0.243E+00
DAV:  19    -0.230798594412E+03   -0.67791E-02   -0.15228E-02 42928   0.821E-01    0.135E+00
DAV:  20    -0.230806742180E+03   -0.81478E-02   -0.10416E-02 39104   0.641E-01    0.166E+00
DAV:  21    -0.230804382565E+03    0.23596E-02   -0.41195E-03 45432   0.401E-01    0.116E+00
DAV:  22    -0.230804142502E+03    0.24006E-03   -0.17464E-03 45944   0.221E-01    0.763E-01
DAV:  23    -0.230805314637E+03   -0.11721E-02   -0.49744E-04 37944   0.103E-01    0.686E-01
DAV:  24    -0.230805858030E+03   -0.54339E-03   -0.14760E-04 32440   0.431E-02    0.687E-01
DAV:  25    -0.230806466129E+03   -0.60810E-03   -0.41548E-04 42976   0.130E-01    0.942E-01
DAV:  26    -0.230805807905E+03    0.65822E-03   -0.61960E-04 39088   0.183E-01    0.785E-01
DAV:  27    -0.230805808115E+03   -0.21003E-06   -0.18958E-04 43128   0.919E-02    0.874E-01
DAV:  28    -0.230805570735E+03    0.23738E-03   -0.89086E-05 38208   0.659E-02    0.891E-01
DAV:  29    -0.230805344834E+03    0.22590E-03   -0.66589E-05 31136   0.658E-02    0.729E-01
DAV:  30    -0.230805571120E+03   -0.22629E-03   -0.48363E-05 28488   0.441E-02    0.600E-01
DAV:  31    -0.230805826119E+03   -0.25500E-03   -0.44455E-05 30296   0.423E-02    0.610E-01
DAV:  32    -0.230805950956E+03   -0.12484E-03   -0.30568E-05 25960   0.293E-02    0.753E-01
DAV:  33    -0.230805779772E+03    0.17118E-03   -0.23584E-05 24384   0.224E-02    0.835E-01
DAV:  34    -0.230805553038E+03    0.22673E-03   -0.11095E-05 21016   0.164E-02    0.860E-01
DAV:  35    -0.230805447685E+03    0.10535E-03   -0.46704E-06 20336   0.793E-03    0.885E-01
DAV:  36    -0.230805371365E+03    0.76321E-04   -0.17715E-06 18776   0.549E-03    0.907E-01
DAV:  37    -0.230805315136E+03    0.56229E-04   -0.11426E-06 18512   0.378E-03    0.927E-01
DAV:  38    -0.230805265333E+03    0.49803E-04   -0.65656E-07 18200   0.476E-03    0.938E-01
DAV:  39    -0.230805229540E+03    0.35792E-04   -0.81466E-07 18264   0.538E-03    0.958E-01
DAV:  40    -0.230805172208E+03    0.57332E-04   -0.74860E-07 17552   0.595E-03    0.940E-01
DAV:  41    -0.230805171518E+03    0.68978E-06   -0.55612E-07 17328   0.288E-03
  10 F= -.23080517E+03 E0= -.23078825E+03  d E =-.192852E+00  mag=     9.4771
       N       E                     dE             d eps       ncg     rms          rms(c)
DAV:   1    -0.229265683000E+03    0.15395E+01   -0.11013E+02 34672   0.552E+01    0.433E+00
DAV:   2    -0.231126041063E+03   -0.18604E+01   -0.18250E+01 35472   0.121E+01    0.131E+01
DAV:   3    -0.231001436429E+03    0.12460E+00   -0.45455E+00 40784   0.744E+00    0.815E+00
DAV:   4    -0.230984413534E+03    0.17023E-01   -0.75654E-01 39552   0.500E+00    0.767E+00
DAV:   5    -0.230887511996E+03    0.96902E-01   -0.29889E-01 38352   0.350E+00    0.311E+00
DAV:   6    -0.230903362549E+03   -0.15851E-01   -0.11831E-01 38992   0.235E+00    0.369E+00
DAV:   7    -0.230891233582E+03    0.12129E-01   -0.52855E-02 40312   0.114E+00    0.298E+00
DAV:   8    -0.230886702070E+03    0.45315E-02   -0.17330E-02 43424   0.105E+00    0.207E+00
DAV:   9    -0.230886310386E+03    0.39168E-03   -0.21347E-02 42808   0.934E-01    0.165E+00
DAV:  10    -0.230890775796E+03   -0.44654E-02   -0.64335E-03 43592   0.497E-01    0.241E+00
DAV:  11    -0.230893656209E+03   -0.28804E-02   -0.49519E-03 40960   0.381E-01    0.378E+00
DAV:  12    -0.230885952011E+03    0.77042E-02   -0.38520E-03 40600   0.394E-01    0.343E+00
DAV:  13    -0.230880590909E+03    0.53611E-02   -0.43617E-02 44368   0.104E+00    0.181E+00
DAV:  14    -0.230891525385E+03   -0.10934E-01   -0.51256E-02 38896   0.123E+00    0.230E+00
DAV:  15    -0.230889995716E+03    0.15297E-02   -0.29771E-02 40544   0.724E-01    0.155E+00
DAV:  16    -0.230891916144E+03   -0.19204E-02   -0.66617E-03 42184   0.416E-01    0.183E+00
DAV:  17    -0.230892776930E+03   -0.86079E-03   -0.43061E-03 38016   0.324E-01    0.315E+00
DAV:  18    -0.230888400072E+03    0.43769E-02   -0.27862E-03 36880   0.209E-01    0.379E+00
DAV:  19    -0.230888284429E+03    0.11564E-03   -0.22055E-03 42760   0.304E-01    0.440E+00
DAV:  20    -0.230890196257E+03   -0.19118E-02   -0.36110E-03 44328   0.415E-01    0.473E+00
DAV:  21    -0.230888540045E+03    0.16562E-02   -0.45301E-03 44992   0.446E-01    0.462E+00
DAV:  22    -0.230880609094E+03    0.79310E-02   -0.25972E-03 45064   0.319E-01    0.400E+00
DAV:  23    -0.230879734959E+03    0.87414E-03   -0.19677E-03 43696   0.293E-01    0.328E+00
DAV:  24    -0.230880749044E+03   -0.10141E-02   -0.18413E-03 43208   0.258E-01    0.218E+00
DAV:  25    -0.230884564148E+03   -0.38151E-02   -0.24001E-03 39728   0.270E-01    0.860E-01
DAV:  26    -0.230889964334E+03   -0.54002E-02   -0.31806E-03 35512   0.208E-01    0.763E-01
DAV:  27    -0.230892408285E+03   -0.24440E-02   -0.13002E-03 34472   0.182E-01    0.931E-01
DAV:  28    -0.230891558920E+03    0.84937E-03   -0.56808E-04 42256   0.107E-01    0.628E-01
DAV:  29    -0.230891638815E+03   -0.79895E-04   -0.21802E-04 37232   0.508E-02    0.347E-01
DAV:  30    -0.230892043960E+03   -0.40514E-03   -0.82729E-05 30544   0.506E-02    0.222E-01
DAV:  31    -0.230892218071E+03   -0.17411E-03   -0.16121E-04 35192   0.576E-02    0.242E-01
DAV:  32    -0.230892307833E+03   -0.89763E-04   -0.12409E-04 34568   0.506E-02    0.434E-01
DAV:  33    -0.230892030513E+03    0.27732E-03   -0.64481E-05 32144   0.497E-02    0.250E-01
DAV:  34    -0.230892104103E+03   -0.73590E-04   -0.44962E-05 26288   0.207E-02    0.486E-02
DAV:  35    -0.230892253901E+03   -0.14980E-03   -0.43138E-05 27328   0.271E-02    0.121E-01
DAV:  36    -0.230892258719E+03   -0.48183E-05   -0.16429E-05 22688   0.223E-02
  11 F= -.23089226E+03 E0= -.23087414E+03  d E =-.870872E-01  mag=     9.5114
       N       E                     dE             d eps       ncg     rms          rms(c)
DAV:   1    -0.229855755852E+03    0.10365E+01   -0.11824E+02 33280   0.487E+01    0.325E+00
DAV:   2    -0.231027004900E+03   -0.11712E+01   -0.11873E+01 35360   0.997E+00    0.521E+00
DAV:   3    -0.231094117522E+03   -0.67113E-01   -0.12543E+00 38064   0.557E+00    0.953E+00
DAV:   4    -0.231066371140E+03    0.27746E-01   -0.21837E+00 39112   0.317E+00    0.763E+00
DAV:   5    -0.230997869947E+03    0.68501E-01   -0.21755E-01 37624   0.298E+00    0.389E+00
DAV:   6    -0.230985643080E+03    0.12227E-01   -0.43923E-02 39048   0.182E+00    0.142E+00
DAV:   7    -0.230993044358E+03   -0.74013E-02   -0.25244E-02 43496   0.108E+00    0.171E+00
DAV:   8    -0.230992284166E+03    0.76019E-03   -0.22303E-02 43424   0.968E-01    0.212E+00
DAV:   9    -0.230991456959E+03    0.82721E-03   -0.11921E-02 42624   0.852E-01    0.268E+00
DAV:  10    -0.230984047674E+03    0.74093E-02   -0.19200E-02 41640   0.776E-01    0.119E+00
DAV:  11    -0.230993773983E+03   -0.97263E-02   -0.23100E-02 42032   0.819E-01    0.280E+00
DAV:  12    -0.230993437412E+03    0.33657E-03   -0.67160E-03 37576   0.532E-01    0.347E+00
DAV:  13    -0.230990188207E+03    0.32492E-02   -0.26374E-03 37552   0.203E-01    0.396E+00
DAV:  14    -0.230983480646E+03    0.67076E-02   -0.18674E-03 44616   0.251E-01    0.375E+00
DAV:  15    -0.230975883302E+03    0.75973E-02   -0.57382E-03 43952   0.532E-01    0.214E+00
DAV:  16    -0.230982826199E+03   -0.69429E-02   -0.20118E-02 42496   0.531E-01    0.138E+00
DAV:  17    -0.230991802982E+03   -0.89768E-02   -0.10672E-02 35880   0.488E-01    0.213E+00
DAV:  18    -0.230986446863E+03    0.53561E-02   -0.43262E-03 41384   0.285E-01    0.148E+00
DAV:  19    -0.230986764545E+03   -0.31768E-03   -0.47679E-04 35568   0.782E-02    0.151E+00
DAV:  20    -0.230986233097E+03    0.53145E-03   -0.52753E-04 29440   0.523E-02    0.120E+00
DAV:  21    -0.230987338151E+03   -0.11051E-02   -0.16038E-04 31712   0.539E-02    0.113E+00
DAV:  22    -0.230987509056E+03   -0.17090E-03   -0.93727E-04 42600   0.939E-02    0.818E-01
DAV:  23    -0.230989145328E+03   -0.16363E-02   -0.13788E-03 42776   0.197E-01    0.969E-01
DAV:  24    -0.230990175287E+03   -0.10300E-02   -0.12538E-03 40576   0.191E-01    0.166E+00
DAV:  25    -0.230988161048E+03    0.20142E-02   -0.72197E-04 35344   0.125E-01    0.196E+00
DAV:  26    -0.230986218182E+03    0.19429E-02   -0.24484E-04 37224   0.751E-02    0.201E+00
DAV:  27    -0.230984631653E+03    0.15865E-02   -0.25470E-04 43840   0.869E-02    0.171E+00
DAV:  28    -0.230984566523E+03    0.65130E-04   -0.11725E-03 44600   0.150E-01    0.633E-01
DAV:  29    -0.230987880289E+03   -0.33138E-02   -0.11686E-03 35240   0.163E-01    0.180E-01
DAV:  30    -0.230989278758E+03   -0.13985E-02   -0.41697E-04 36608   0.116E-01    0.134E-01
DAV:  31    -0.230989538817E+03   -0.26006E-03   -0.17971E-04 40544   0.597E-02    0.307E-01
DAV:  32    -0.230989430956E+03    0.10786E-03   -0.51370E-05 31800   0.396E-02    0.245E-01
DAV:  33    -0.230989442044E+03   -0.11088E-04   -0.95812E-05 27128   0.335E-02    0.932E-02
DAV:  34    -0.230989550596E+03   -0.10855E-03   -0.49548E-05 28968   0.387E-02    0.833E-02
DAV:  35    -0.230989542959E+03    0.76368E-05   -0.16776E-05 21520   0.159E-02
  12 F= -.23098954E+03 E0= -.23097132E+03  d E =-.972842E-01  mag=     9.5464
       N       E                     dE             d eps       ncg     rms          rms(c)
DAV:   1    -0.230445859682E+03    0.54369E+00   -0.57372E+01 33344   0.348E+01    0.231E+00
DAV:   2    -0.231056514379E+03   -0.61065E+00   -0.61608E+00 35264   0.706E+00    0.402E+00
DAV:   3    -0.231112514682E+03   -0.56000E-01   -0.86337E-01 38840   0.399E+00    0.916E+00
DAV:   4    -0.231077618019E+03    0.34897E-01   -0.15303E+00 40040   0.246E+00    0.719E+00
DAV:   5    -0.231033677999E+03    0.43940E-01   -0.11833E-01 37376   0.223E+00    0.260E+00
DAV:   6    -0.231033901363E+03   -0.22336E-03   -0.29827E-02 39384   0.152E+00    0.207E+00
DAV:   7    -0.231035508080E+03   -0.16067E-02   -0.10877E-02 44304   0.697E-01    0.165E+00
DAV:   8    -0.231034649263E+03    0.85882E-03   -0.99043E-03 42904   0.663E-01    0.105E+00
DAV:   9    -0.231036357217E+03   -0.17080E-02   -0.10181E-02 41568   0.665E-01    0.120E+00
DAV:  10    -0.231037387512E+03   -0.10303E-02   -0.74403E-03 44072   0.426E-01    0.195E+00
DAV:  11    -0.231035754508E+03    0.16330E-02   -0.37344E-03 41120   0.297E-01    0.276E+00
DAV:  12    -0.231032001408E+03    0.37531E-02   -0.17262E-03 34472   0.144E-01    0.333E+00
DAV:  13    -0.231024281025E+03    0.77204E-02   -0.12115E-02 44640   0.324E-01    0.134E+00
DAV:  14    -0.231032115607E+03   -0.78346E-02   -0.17108E-02 39352   0.493E-01    0.111E+00
DAV:  15    -0.231037242661E+03   -0.51271E-02   -0.49661E-03 36584   0.409E-01    0.175E+00
DAV:  16    -0.231033837917E+03    0.34047E-02   -0.19100E-03 41328   0.221E-01    0.161E+00
DAV:  17    -0.231033076762E+03    0.76115E-03   -0.34033E-04 34336   0.510E-02    0.170E+00
DAV:  18    -0.231031399257E+03    0.16775E-02   -0.47104E-04 41736   0.126E-01    0.101E+00
DAV:  19    -0.231033283635E+03   -0.18844E-02   -0.60079E-04 39768   0.119E-01    0.497E-01
DAV:  20    -0.231034943556E+03   -0.16599E-02   -0.56726E-04 37696   0.123E-01    0.384E-01
DAV:  21    -0.231035402464E+03   -0.45891E-03   -0.20815E-04 37672   0.794E-02    0.362E-01
DAV:  22    -0.231035460860E+03   -0.58396E-04   -0.50342E-05 30960   0.486E-02    0.349E-01
DAV:  23    -0.231035498877E+03   -0.38017E-04   -0.50429E-05 25128   0.449E-02    0.351E-01
DAV:  24    -0.231035521755E+03   -0.22878E-04   -0.43246E-05 23896   0.407E-02    0.407E-01
DAV:  25    -0.231035468028E+03    0.53727E-04   -0.32370E-05 26192   0.407E-02    0.429E-01
DAV:  26    -0.231035405631E+03    0.62397E-04   -0.14660E-05 20896   0.269E-02    0.399E-01
DAV:  27    -0.231035409461E+03   -0.38298E-05   -0.85151E-06 17960   0.150E-02
  13 F= -.23103541E+03 E0= -.23101736E+03  d E =-.458665E-01  mag=     9.5367
       N       E                     dE             d eps       ncg     rms          rms(c)
DAV:   1    -0.230428788449E+03    0.60662E+00   -0.58639E+01 33352   0.365E+01    0.240E+00
DAV:   2    -0.231071768719E+03   -0.64298E+00   -0.65540E+00 34904   0.726E+00    0.427E+00
DAV:   3    -0.231147625764E+03   -0.75857E-01   -0.54484E-01 39640   0.390E+00    0.953E+00
DAV:   4    -0.231075931660E+03    0.71694E-01   -0.85082E-01 39136   0.260E+00    0.687E+00
DAV:   5    -0.231047989414E+03    0.27942E-01   -0.28316E-01 37528   0.207E+00    0.245E+00
DAV:   6    -0.231051309192E+03   -0.33198E-02   -0.28763E-02 38384   0.115E+00    0.150E+00
DAV:   7    -0.231052724260E+03   -0.14151E-02   -0.45229E-03 40064   0.268E-01    0.165E+00
DAV:   8    -0.231051065623E+03    0.16586E-02   -0.55709E-03 41616   0.418E-01    0.198E+00
DAV:   9    -0.231048575609E+03    0.24900E-02   -0.46315E-03 42120   0.437E-01    0.176E+00
DAV:  10    -0.231046447116E+03    0.21285E-02   -0.83114E-03 44312   0.570E-01    0.168E+00
DAV:  11    -0.231046517650E+03   -0.70534E-04   -0.10734E-02 44736   0.651E-01    0.172E+00
DAV:  12    -0.231049335577E+03   -0.28179E-02   -0.18890E-02 43872   0.657E-01    0.301E+00
DAV:  13    -0.231053861615E+03   -0.45260E-02   -0.46226E-03 41192   0.435E-01    0.357E+00
DAV:  14    -0.231052884310E+03    0.97730E-03   -0.17550E-03 38600   0.223E-01    0.374E+00
DAV:  15    -0.231049384204E+03    0.35001E-02   -0.72790E-03 43376   0.435E-01    0.314E+00
DAV:  16    -0.231047842499E+03    0.15417E-02   -0.15635E-02 44896   0.712E-01    0.251E+00
DAV:  17    -0.231045993995E+03    0.18485E-02   -0.13862E-02 44424   0.701E-01    0.223E+00
DAV:  18    -0.231048295339E+03   -0.23013E-02   -0.11322E-02 43696   0.756E-01    0.257E+00
DAV:  19    -0.231049756197E+03   -0.14609E-02   -0.84149E-03 44744   0.536E-01    0.348E+00
DAV:  20    -0.231047289888E+03    0.24663E-02   -0.29908E-03 42616   0.327E-01    0.433E+00
DAV:  21    -0.231040880414E+03    0.64095E-02   -0.99253E-04 36888   0.124E-01    0.475E+00
DAV:  22    -0.231040227445E+03    0.65297E-03   -0.50612E-04 43368   0.146E-01    0.497E+00
DAV:  23    -0.231038541733E+03    0.16857E-02   -0.12075E-03 44304   0.203E-01    0.470E+00
DAV:  24    -0.231043995385E+03   -0.54537E-02   -0.50917E-03 43840   0.369E-01    0.381E+00
DAV:  25    -0.231045048093E+03   -0.10527E-02   -0.48619E-03 43712   0.376E-01    0.245E+00
DAV:  26    -0.231048089654E+03   -0.30416E-02   -0.38291E-03 40848   0.298E-01    0.880E-01
DAV:  27    -0.231053785635E+03   -0.56960E-02   -0.25137E-03 36800   0.265E-01    0.371E-01
DAV:  28    -0.231055803225E+03   -0.20176E-02   -0.10440E-03 43080   0.184E-01    0.302E-01
DAV:  29    -0.231056167801E+03   -0.36458E-03   -0.29852E-04 41144   0.119E-01    0.232E-01
DAV:  30    -0.231056220544E+03   -0.52742E-04   -0.73200E-05 35104   0.602E-02    0.192E-01
DAV:  31    -0.231056198544E+03    0.22000E-04   -0.13856E-04 36504   0.614E-02    0.300E-01
DAV:  32    -0.231056193709E+03    0.48351E-05   -0.39098E-05 27200   0.348E-02
  14 F= -.23105619E+03 E0= -.23103844E+03  d E =-.207842E-01  mag=     9.5067
       N       E                     dE             d eps       ncg     rms          rms(c)
DAV:   1    -0.229978072873E+03    0.10781E+01   -0.80272E+01 33576   0.476E+01    0.314E+00
DAV:   2    -0.231082764933E+03   -0.11047E+01   -0.11340E+01 34880   0.955E+00    0.395E+00
DAV:   3    -0.231269746811E+03   -0.18698E+00   -0.16005E+00 39968   0.508E+00    0.130E+01
DAV:   4    -0.231059162886E+03    0.21058E+00   -0.13532E+00 39368   0.333E+00    0.465E+00
DAV:   5    -0.231069255604E+03   -0.10093E-01   -0.12815E-01 36464   0.254E+00    0.191E+00
DAV:   6    -0.231077139184E+03   -0.78836E-02   -0.27230E-02 43464   0.110E+00    0.251E+00
DAV:   7    -0.231073015555E+03    0.41236E-02   -0.22256E-02 39808   0.103E+00    0.194E+00
DAV:   8    -0.231071354462E+03    0.16611E-02   -0.14923E-02 39824   0.872E-01    0.120E+00
DAV:   9    -0.231075305041E+03   -0.39506E-02   -0.27489E-02 42344   0.734E-01    0.244E+00
DAV:  10    -0.231071970401E+03    0.33346E-02   -0.46832E-03 37592   0.334E-01    0.306E+00
DAV:  11    -0.231070561712E+03    0.14087E-02   -0.42760E-03 40024   0.269E-01    0.420E+00
DAV:  12    -0.231062372704E+03    0.81890E-02   -0.15267E-03 37128   0.204E-01    0.394E+00
DAV:  13    -0.231054359736E+03    0.80130E-02   -0.42466E-02 43568   0.461E-01    0.115E+00
DAV:  14    -0.231069827178E+03   -0.15467E-01   -0.13180E-02 39000   0.588E-01    0.153E+00
DAV:  15    -0.231072126609E+03   -0.22994E-02   -0.68353E-03 39864   0.516E-01    0.173E+00
DAV:  16    -0.231068140807E+03    0.39858E-02   -0.30444E-03 42904   0.351E-01    0.101E+00
DAV:  17    -0.231069504726E+03   -0.13639E-02   -0.29623E-03 42568   0.335E-01    0.549E-01
DAV:  18    -0.231071146017E+03   -0.16413E-02   -0.64614E-03 40104   0.427E-01    0.618E-01
DAV:  19    -0.231071838065E+03   -0.69205E-03   -0.49249E-03 41160   0.283E-01    0.711E-01
DAV:  20    -0.231072005424E+03   -0.16736E-03   -0.13436E-03 39760   0.192E-01    0.819E-01
DAV:  21    -0.231071435699E+03    0.56972E-03   -0.35376E-04 39936   0.648E-02    0.804E-01
DAV:  22    -0.231070996207E+03    0.43949E-03   -0.96495E-05 33704   0.399E-02    0.922E-01
DAV:  23    -0.231071113917E+03   -0.11771E-03   -0.65750E-04 43112   0.113E-01    0.561E-01
DAV:  24    -0.231071744346E+03   -0.63043E-03   -0.41721E-04 41472   0.113E-01    0.547E-01
DAV:  25    -0.231071762459E+03   -0.18113E-04   -0.18530E-04 40528   0.825E-02    0.503E-01
DAV:  26    -0.231071895192E+03   -0.13273E-03   -0.56321E-04 43416   0.117E-01    0.227E-01
DAV:  27    -0.231072063121E+03   -0.16793E-03   -0.54185E-04 42496   0.123E-01    0.164E-01
DAV:  28    -0.231072081799E+03   -0.18678E-04   -0.15628E-04 35144   0.607E-02    0.142E-01
DAV:  29    -0.231072111231E+03   -0.29432E-04   -0.62127E-05 30392   0.562E-02    0.230E-01
DAV:  30    -0.231072058490E+03    0.52741E-04   -0.36592E-05 29728   0.476E-02    0.232E-01
DAV:  31    -0.231072022586E+03    0.35904E-04   -0.20909E-05 23712   0.279E-02    0.116E-01
DAV:  32    -0.231072076339E+03   -0.53754E-04   -0.30761E-05 24040   0.179E-02    0.620E-02
DAV:  33    -0.231072107690E+03   -0.31350E-04   -0.16311E-05 23504   0.219E-02    0.664E-02
DAV:  34    -0.231072100576E+03    0.71133E-05   -0.48866E-06 19776   0.108E-02
  15 F= -.23107210E+03 E0= -.23105438E+03  d E =-.159069E-01  mag=     9.4689
       N       E                     dE             d eps       ncg     rms          rms(c)
DAV:   1    -0.230753266482E+03    0.31884E+00   -0.27685E+01 33448   0.266E+01    0.172E+00
DAV:   2    -0.231102749973E+03   -0.34948E+00   -0.35670E+00 34712   0.535E+00    0.329E+00
DAV:   3    -0.231155294241E+03   -0.52544E-01   -0.95797E-01 40840   0.267E+00    0.732E+00
DAV:   4    -0.231094321764E+03    0.60972E-01   -0.36315E-01 38240   0.209E+00    0.366E+00
DAV:   5    -0.231086994482E+03    0.73273E-02   -0.67364E-02 37720   0.141E+00    0.130E+00
DAV:   6    -0.231094685709E+03   -0.76912E-02   -0.14173E-02 38432   0.868E-01    0.834E-01
DAV:   7    -0.231096310417E+03   -0.16247E-02   -0.61815E-03 44416   0.561E-01    0.868E-01
DAV:   8    -0.231095692282E+03    0.61814E-03   -0.67278E-03 41392   0.578E-01    0.524E-01
DAV:   9    -0.231096258406E+03   -0.56612E-03   -0.34206E-03 43680   0.499E-01    0.739E-01
DAV:  10    -0.231096526570E+03   -0.26816E-03   -0.27222E-03 42336   0.414E-01    0.111E+00
DAV:  11    -0.231096292543E+03    0.23403E-03   -0.17885E-03 41528   0.310E-01    0.152E+00
DAV:  12    -0.231094444574E+03    0.18480E-02   -0.10244E-03 41528   0.199E-01    0.144E+00
DAV:  13    -0.231093133829E+03    0.13107E-02   -0.38984E-04 43464   0.136E-01    0.919E-01
DAV:  14    -0.231094109119E+03   -0.97529E-03   -0.16850E-03 41376   0.220E-01    0.595E-01
DAV:  15    -0.231096457469E+03   -0.23484E-02   -0.20111E-03 38424   0.234E-01    0.118E+00
DAV:  16    -0.231094642742E+03    0.18147E-02   -0.75204E-04 40040   0.150E-01    0.118E+00
DAV:  17    -0.231093488348E+03    0.11544E-02   -0.21363E-04 39904   0.555E-02    0.995E-01
DAV:  18    -0.231093582726E+03   -0.94378E-04   -0.39171E-04 32752   0.771E-02    0.605E-01
DAV:  19    -0.231094622034E+03   -0.10393E-02   -0.20695E-04 33920   0.678E-02    0.467E-01
DAV:  20    -0.231095082257E+03   -0.46022E-03   -0.50730E-05 29904   0.282E-02    0.411E-01
DAV:  21    -0.231095264431E+03   -0.18217E-03   -0.66911E-05 25704   0.422E-02    0.191E-01
DAV:  22    -0.231095569924E+03   -0.30549E-03   -0.21882E-04 35168   0.672E-02    0.234E-01
DAV:  23    -0.231095880818E+03   -0.31089E-03   -0.23039E-04 37648   0.681E-02    0.724E-01
DAV:  24    -0.231095501132E+03    0.37969E-03   -0.18428E-04 33560   0.712E-02    0.970E-01
DAV:  25    -0.231094809122E+03    0.69201E-03   -0.77554E-05 32880   0.456E-02    0.103E+00
DAV:  26    -0.231094498454E+03    0.31067E-03   -0.20685E-05 26960   0.173E-02    0.110E+00
DAV:  27    -0.231094308974E+03    0.18948E-03   -0.80615E-06 20960   0.136E-02    0.116E+00
DAV:  28    -0.231093985512E+03    0.32346E-03   -0.15069E-05 23808   0.250E-02    0.104E+00
DAV:  29    -0.231093956008E+03    0.29503E-04   -0.94368E-05 34752   0.513E-02    0.696E-01
DAV:  30    -0.231094569715E+03   -0.61371E-03   -0.19652E-04 36296   0.570E-02    0.231E-01
DAV:  31    -0.231095401932E+03   -0.83222E-03   -0.18196E-04 31984   0.579E-02    0.993E-02
DAV:  32    -0.231095672749E+03   -0.27082E-03   -0.91289E-05 31128   0.434E-02    0.237E-01
DAV:  33    -0.231095596318E+03    0.76431E-04   -0.29215E-05 27848   0.277E-02    0.209E-01
DAV:  34    -0.231095561803E+03    0.34515E-04   -0.24723E-05 23256   0.191E-02    0.459E-02
DAV:  35    -0.231095627066E+03   -0.65263E-04   -0.16467E-05 23312   0.176E-02    0.224E-02
DAV:  36    -0.231095640233E+03   -0.13167E-04   -0.43394E-06 20008   0.105E-02    0.161E-02
DAV:  37    -0.231095640562E+03   -0.32822E-06   -0.14166E-06 17704   0.425E-03
  16 F= -.23109564E+03 E0= -.23107818E+03  d E =-.235400E-01  mag=     9.4389
       N       E                     dE             d eps       ncg     rms          rms(c)
DAV:   1    -0.230937739642E+03    0.15790E+00   -0.90368E+00 34376   0.180E+01    0.117E+00
DAV:   2    -0.231106460478E+03   -0.16872E+00   -0.17055E+00 34760   0.354E+00    0.290E+00
DAV:   3    -0.231120312231E+03   -0.13852E-01   -0.43177E-01 40432   0.177E+00    0.539E+00
DAV:   4    -0.231097489412E+03    0.22823E-01   -0.16124E-01 38272   0.148E+00    0.282E+00
DAV:   5    -0.231094345761E+03    0.31437E-02   -0.37738E-02 37632   0.109E+00    0.118E+00
DAV:   6    -0.231098663893E+03   -0.43181E-02   -0.76110E-03 37368   0.631E-01    0.592E-01
DAV:   7    -0.231101354337E+03   -0.26904E-02   -0.42535E-03 43576   0.463E-01    0.892E-01
DAV:   8    -0.231101884089E+03   -0.52975E-03   -0.28449E-03 40288   0.391E-01    0.121E+00
DAV:   9    -0.231101120604E+03    0.76348E-03   -0.11537E-03 43624   0.256E-01    0.136E+00
DAV:  10    -0.231099976067E+03    0.11445E-02   -0.69421E-04 42984   0.193E-01    0.126E+00
DAV:  11    -0.231099257867E+03    0.71820E-03   -0.88183E-04 42752   0.194E-01    0.762E-01
DAV:  12    -0.231100370710E+03   -0.11128E-02   -0.20075E-03 40800   0.276E-01    0.588E-01
DAV:  13    -0.231102700321E+03   -0.23296E-02   -0.40734E-03 40208   0.247E-01    0.156E+00
DAV:  14    -0.231099178658E+03    0.35217E-02   -0.12775E-03 37360   0.213E-01    0.130E+00
DAV:  15    -0.231098167073E+03    0.10116E-02   -0.90673E-04 45232   0.951E-02    0.740E-01
DAV:  16    -0.231099744453E+03   -0.15774E-02   -0.81958E-04 39680   0.105E-01    0.149E-01
DAV:  17    -0.231101251494E+03   -0.15070E-02   -0.54904E-04 35560   0.124E-01    0.347E-01
DAV:  18    -0.231101333480E+03   -0.81986E-04   -0.18914E-04 34672   0.676E-02    0.483E-01
DAV:  19    -0.231101058421E+03    0.27506E-03   -0.55389E-05 33096   0.467E-02    0.418E-01
DAV:  20    -0.231101006830E+03    0.51591E-04   -0.34312E-05 24216   0.302E-02    0.319E-01
DAV:  21    -0.231101069922E+03   -0.63092E-04   -0.27331E-05 21456   0.275E-02    0.155E-01
DAV:  22    -0.231101205000E+03   -0.13508E-03   -0.37636E-05 26424   0.316E-02    0.294E-02
DAV:  23    -0.231101277903E+03   -0.72902E-04   -0.24320E-05 23712   0.249E-02    0.695E-02
DAV:  24    -0.231101285357E+03   -0.74544E-05   -0.12594E-05 21328   0.143E-02
  17 F= -.23110129E+03 E0= -.23108380E+03  d E =-.564480E-02  mag=     9.4347
       N       E                     dE             d eps       ncg     rms          rms(c)
DAV:   1    -0.230960189900E+03    0.14109E+00   -0.13006E+01 33448   0.179E+01    0.114E+00
DAV:   2    -0.231116610656E+03   -0.15642E+00   -0.15460E+00 34376   0.359E+00    0.357E+00
DAV:   3    -0.231113337214E+03    0.32734E-02   -0.34205E-01 38280   0.173E+00    0.433E+00
DAV:   4    -0.231104366803E+03    0.89704E-02   -0.83280E-02 37792   0.137E+00    0.237E+00
DAV:   5    -0.231100965256E+03    0.34015E-02   -0.15969E-02 37392   0.916E-01    0.122E+00
DAV:   6    -0.231103662771E+03   -0.26975E-02   -0.59906E-03 37672   0.484E-01    0.843E-01
DAV:   7    -0.231105111286E+03   -0.14485E-02   -0.35207E-03 42064   0.363E-01    0.669E-01
DAV:   8    -0.231106839310E+03   -0.17280E-02   -0.26554E-03 40120   0.333E-01    0.116E+00
DAV:   9    -0.231106053736E+03    0.78557E-03   -0.12916E-03 42056   0.229E-01    0.142E+00
DAV:  10    -0.231104995618E+03    0.10581E-02   -0.31648E-04 36248   0.716E-02    0.160E+00
DAV:  11    -0.231103253376E+03    0.17422E-02   -0.11459E-03 43192   0.184E-01    0.140E+00
DAV:  12    -0.231103796249E+03   -0.54287E-03   -0.14395E-03 41400   0.220E-01    0.136E+00
DAV:  13    -0.231104303452E+03   -0.50720E-03   -0.73871E-04 39736   0.120E-01    0.145E+00
DAV:  14    -0.231104253272E+03    0.50180E-04   -0.14330E-04 33352   0.448E-02    0.155E+00
DAV:  15    -0.231103516798E+03    0.73647E-03   -0.21362E-04 34640   0.927E-02    0.126E+00
DAV:  16    -0.231103640466E+03   -0.12367E-03   -0.57221E-04 40752   0.161E-01    0.825E-01
DAV:  17    -0.231104462623E+03   -0.82216E-03   -0.48867E-04 38904   0.148E-01    0.376E-01
DAV:  18    -0.231105492955E+03   -0.10303E-02   -0.30897E-04 37856   0.111E-01    0.241E-01
DAV:  19    -0.231105846436E+03   -0.35348E-03   -0.16022E-04 37960   0.755E-02    0.290E-01
DAV:  20    -0.231105913714E+03   -0.67279E-04   -0.95474E-05 26424   0.539E-02    0.454E-01
DAV:  21    -0.231105846675E+03    0.67039E-04   -0.53674E-05 25288   0.459E-02    0.642E-01
DAV:  22    -0.231105526292E+03    0.32038E-03   -0.43057E-05 29704   0.376E-02    0.639E-01
DAV:  23    -0.231105395135E+03    0.13116E-03   -0.82211E-06 21784   0.160E-02    0.621E-01
DAV:  24    -0.231105394582E+03    0.55296E-06   -0.46569E-06 18192   0.111E-02
  18 F= -.23110539E+03 E0= -.23108860E+03  d E =-.410922E-02  mag=     9.4224
       N       E                     dE             d eps       ncg     rms          rms(c)
DAV:   1    -0.224896469536E+03    0.62089E+01   -0.23575E+02 34656   0.993E+01    0.106E+01
DAV:   2    -0.231451290264E+03   -0.65548E+01   -0.63951E+01 37200   0.236E+01    0.173E+01
DAV:   3    -0.232009440148E+03   -0.55815E+00   -0.78937E+00 42456   0.194E+01    0.222E+01
DAV:   4    -0.231400590826E+03    0.60885E+00   -0.10818E+01 39320   0.105E+01    0.142E+01
DAV:   5    -0.230849933473E+03    0.55066E+00   -0.27846E+00 37832   0.834E+00    0.515E+00
DAV:   6    -0.230938717663E+03   -0.88784E-01   -0.66745E-01 44056   0.402E+00    0.831E+00
DAV:   7    -0.230859174819E+03    0.79543E-01   -0.34007E-01 39632   0.301E+00    0.431E+00
DAV:   8    -0.230886728854E+03   -0.27554E-01   -0.21552E-01 39328   0.202E+00    0.505E+00
DAV:   9    -0.230869880224E+03    0.16849E-01   -0.33320E-01 39400   0.191E+00    0.435E+00
DAV:  10    -0.230877531161E+03   -0.76509E-02   -0.46845E-02 42480   0.137E+00    0.496E+00
DAV:  11    -0.230863892453E+03    0.13639E-01   -0.46415E-02 42400   0.120E+00    0.408E+00
DAV:  12    -0.230855618068E+03    0.82744E-02   -0.20943E-02 43568   0.576E-01    0.352E+00
DAV:  13    -0.230860458425E+03   -0.48404E-02   -0.15301E-02 41136   0.480E-01    0.406E+00
DAV:  14    -0.230860188269E+03    0.27016E-03   -0.34460E-03 42104   0.244E-01    0.444E+00
DAV:  15    -0.230858459008E+03    0.17293E-02   -0.24766E-03 43544   0.199E-01    0.464E+00
DAV:  16    -0.230855642702E+03    0.28163E-02   -0.12059E-03 41784   0.169E-01    0.456E+00
DAV:  17    -0.230846718425E+03    0.89243E-02   -0.50147E-02 45072   0.103E+00    0.227E+00
DAV:  18    -0.230875871766E+03   -0.29153E-01   -0.12641E-01 42808   0.120E+00    0.381E+00
DAV:  19    -0.230877167208E+03   -0.12954E-02   -0.26647E-02 40632   0.117E+00    0.400E+00
DAV:  20    -0.230867550712E+03    0.96165E-02   -0.15418E-02 44656   0.667E-01    0.320E+00
DAV:  21    -0.230867651337E+03   -0.10063E-03   -0.30025E-03 34160   0.168E-01    0.305E+00
DAV:  22    -0.230865860274E+03    0.17911E-02   -0.19576E-02 43416   0.328E-01    0.319E+00
DAV:  23    -0.230869696791E+03   -0.38365E-02   -0.81462E-03 39024   0.441E-01    0.462E+00
DAV:  24    -0.230855801610E+03    0.13895E-01   -0.40498E-03 35328   0.293E-01    0.539E+00
DAV:  25    -0.230842199635E+03    0.13602E-01   -0.11672E-03 39304   0.168E-01    0.570E+00
DAV:  26    -0.230830588100E+03    0.11612E-01   -0.47783E-03 43624   0.401E-01    0.614E+00
DAV:  27    -0.230827333850E+03    0.32543E-02   -0.28060E-03 44664   0.186E-01    0.655E+00
DAV:  28    -0.230823285641E+03    0.40482E-02   -0.35260E-03 44328   0.288E-01    0.706E+00
DAV:  29    -0.230832042464E+03   -0.87568E-02   -0.43111E-03 46384   0.346E-01    0.771E+00
DAV:  30    -0.230838444236E+03   -0.64018E-02   -0.22991E-03 45872   0.211E-01    0.811E+00
DAV:  31    -0.230839604599E+03   -0.11604E-02   -0.73150E-04 42376   0.142E-01    0.820E+00
DAV:  32    -0.230838669620E+03    0.93498E-03   -0.11116E-03 46088   0.245E-01    0.829E+00
DAV:  33    -0.230843443864E+03   -0.47742E-02   -0.63761E-03 48072   0.409E-01    0.877E+00
DAV:  34    -0.230838964843E+03    0.44790E-02   -0.27248E-03 41976   0.299E-01    0.839E+00
DAV:  35    -0.230831314577E+03    0.76503E-02   -0.29788E-03 47720   0.243E-01    0.798E+00
DAV:  36    -0.230821345399E+03    0.99692E-02   -0.14332E-01 49032   0.122E+00    0.488E+00
DAV:  37    -0.230863772099E+03   -0.42427E-01   -0.10868E-01 39832   0.548E-01    0.533E+00
DAV:  38    -0.230924128788E+03   -0.60357E-01   -0.59781E-02 36192   0.539E-01    0.905E+00
DAV:  39    -0.230949504439E+03   -0.25376E-01   -0.28754E-02 39408   0.526E-01    0.116E+01
DAV:  40    -0.230934596389E+03    0.14908E-01   -0.51203E-03 37096   0.297E-01    0.124E+01
DAV:  41    -0.230927994091E+03    0.66023E-02   -0.79425E-04 39288   0.108E-01    0.128E+01
DAV:  42    -0.230920808309E+03    0.71858E-02   -0.15042E-04 34776   0.585E-02    0.129E+01
DAV:  43    -0.230920217904E+03    0.59040E-03   -0.76358E-04 45584   0.155E-01    0.128E+01
DAV:  44    -0.230916255717E+03    0.39622E-02   -0.22714E-04 37184   0.394E-02    0.127E+01
DAV:  45    -0.230915026032E+03    0.12297E-02   -0.27323E-05 24264   0.142E-02    0.126E+01
DAV:  46    -0.230914691995E+03    0.33404E-03   -0.11141E-04 24840   0.275E-02    0.126E+01
DAV:  47    -0.230786807053E+03    0.12788E+00   -0.37291E-01 47136   0.115E+00    0.493E+00
DAV:  48    -0.230876117127E+03   -0.89310E-01   -0.20844E-02 36144   0.770E-01    0.638E+00
DAV:  49    -0.230878261604E+03   -0.21445E-02   -0.31964E-03 39296   0.179E-01    0.708E+00
DAV:  50    -0.230870702747E+03    0.75589E-02   -0.14270E-03 41384   0.174E-01    0.715E+00
DAV:  51    -0.230841015621E+03    0.29687E-01   -0.85772E-03 47560   0.388E-01    0.502E+00
DAV:  52    -0.230848326943E+03   -0.73113E-02   -0.37449E-01 47136   0.872E-01    0.473E+00
DAV:  53    -0.230893249385E+03   -0.44922E-01   -0.49181E-02 36904   0.868E-01    0.654E+00
DAV:  54    -0.230874773215E+03    0.18476E-01   -0.70366E-03 38192   0.320E-01    0.678E+00
DAV:  55    -0.230865177367E+03    0.95958E-02   -0.51658E-04 40152   0.841E-02    0.680E+00
DAV:  56    -0.230862185962E+03    0.29914E-02   -0.71374E-05 35464   0.513E-02    0.683E+00
DAV:  57    -0.230858520869E+03    0.36651E-02   -0.58684E-04 44408   0.138E-01    0.658E+00
DAV:  58    -0.230856650904E+03    0.18700E-02   -0.84815E-04 47560   0.177E-01    0.643E+00
DAV:  59    -0.230848574360E+03    0.80765E-02   -0.24306E-02 49424   0.632E-01    0.535E+00
DAV:  60    -0.230846351072E+03    0.22233E-02   -0.80469E-03 41032   0.289E-01    0.479E+00
DAV:  61    -0.230853834951E+03   -0.74839E-02   -0.24803E-03 40984   0.216E-01    0.414E+00
DAV:  62    -0.230858920441E+03   -0.50855E-02   -0.32718E-03 41992   0.324E-01    0.433E+00
DAV:  63    -0.230859386119E+03   -0.46568E-03   -0.29556E-03 41352   0.322E-01    0.390E+00
DAV:  64    -0.230858116116E+03    0.12700E-02   -0.55492E-03 42024   0.329E-01    0.309E+00
DAV:  65    -0.230858974424E+03   -0.85831E-03   -0.45703E-03 47568   0.344E-01    0.310E+00
DAV:  66    -0.230857530554E+03    0.14439E-02   -0.16774E-03 36944   0.178E-01    0.261E+00
DAV:  67    -0.230865642146E+03   -0.81116E-02   -0.14365E-02 47296   0.464E-01    0.183E+00
DAV:  68    -0.230877651470E+03   -0.12009E-01   -0.23658E-02 34376   0.360E-01    0.352E+00
DAV:  69    -0.230872297738E+03    0.53537E-02   -0.57142E-03 34424   0.305E-01    0.405E+00
DAV:  70    -0.230862214014E+03    0.10084E-01   -0.31328E-03 43240   0.199E-01    0.317E+00
DAV:  71    -0.230861292983E+03    0.92103E-03   -0.18131E-02 43160   0.199E-01    0.134E+00
DAV:  72    -0.230868934198E+03   -0.76412E-02   -0.45472E-03 36536   0.280E-01    0.702E-01
DAV:  73    -0.230873555744E+03   -0.46215E-02   -0.20200E-03 37288   0.232E-01    0.697E-01
DAV:  74    -0.230873812835E+03   -0.25709E-03   -0.13638E-03 45864   0.142E-01    0.771E-01
DAV:  75    -0.230873239761E+03    0.57307E-03   -0.54213E-04 41376   0.924E-02    0.837E-01
DAV:  76    -0.230873142502E+03    0.97259E-04   -0.73807E-04 44168   0.102E-01    0.849E-01
DAV:  77    -0.230874193952E+03   -0.10515E-02   -0.78688E-04 43376   0.121E-01    0.923E-01
DAV:  78    -0.230874698151E+03   -0.50420E-03   -0.22150E-04 40736   0.648E-02    0.952E-01
[...]
DAV:  10    -0.232580839530E+03   -0.24812E-04   -0.22596E-04 28936   0.586E-02    0.179E-01
DAV:  11    -0.232580810604E+03    0.28925E-04   -0.70726E-05 25976   0.262E-02    0.217E-01
DAV:  12    -0.232580779830E+03    0.30774E-04   -0.23738E-05 24232   0.333E-02    0.303E-01
DAV:  13    -0.232580667089E+03    0.11274E-03   -0.69240E-05 34672   0.664E-02    0.274E-01
DAV:  14    -0.232580650881E+03    0.16208E-04   -0.61276E-05 29048   0.595E-02    0.291E-01
DAV:  15    -0.232580624620E+03    0.26262E-04   -0.45883E-05 30080   0.450E-02    0.337E-01
DAV:  16    -0.232580594403E+03    0.30216E-04   -0.17238E-05 23616   0.233E-02    0.366E-01
DAV:  17    -0.232580589234E+03    0.51691E-05   -0.74857E-06 20152   0.158E-02
 191 F= -.23258059E+03 E0= -.23256615E+03  d E =0.229304E-03  mag=     9.0480
       N       E                     dE             d eps       ncg     rms          rms(c)
DAV:   1    -0.232546777774E+03    0.33817E-01   -0.28836E+00 33496   0.841E+00    0.615E-01
DAV:   2    -0.232581930554E+03   -0.35153E-01   -0.35812E-01 34080   0.171E+00    0.107E+00
DAV:   3    -0.232582036590E+03   -0.10604E-03   -0.20493E-02 40392   0.705E-01    0.101E+00
DAV:   4    -0.232581555684E+03    0.48091E-03   -0.23503E-03 39672   0.158E-01    0.110E+00
DAV:   5    -0.232578902468E+03    0.26532E-02   -0.76472E-03 42304   0.376E-01    0.170E+00
DAV:   6    -0.232578845834E+03    0.56633E-04   -0.14306E-03 37648   0.169E-01    0.165E+00
DAV:   7    -0.232578931068E+03   -0.85233E-04   -0.45679E-04 39728   0.874E-02    0.177E+00
DAV:   8    -0.232578824620E+03    0.10645E-03   -0.12329E-04 34368   0.306E-02    0.178E+00
DAV:   9    -0.232577075716E+03    0.17489E-02   -0.86359E-04 41280   0.241E-01    0.815E-01
DAV:  10    -0.232579445056E+03   -0.23693E-02   -0.37608E-03 38568   0.439E-01    0.738E-01
DAV:  11    -0.232579536942E+03   -0.91886E-04   -0.22022E-03 42120   0.289E-01    0.534E-01
DAV:  12    -0.232579800877E+03   -0.26394E-03   -0.14744E-03 41608   0.215E-01    0.655E-01
DAV:  13    -0.232579858342E+03   -0.57465E-04   -0.10702E-03 41208   0.194E-01    0.101E+00
DAV:  14    -0.232578838488E+03    0.10199E-02   -0.55958E-04 40480   0.149E-01    0.118E+00
DAV:  15    -0.232577579338E+03    0.12591E-02   -0.22936E-04 41312   0.913E-02    0.112E+00
DAV:  16    -0.232577365075E+03    0.21426E-03   -0.70906E-05 39936   0.395E-02    0.112E+00
DAV:  17    -0.232577458324E+03   -0.93250E-04   -0.11872E-05 22816   0.116E-02    0.111E+00
DAV:  18    -0.232577670536E+03   -0.21221E-03   -0.28788E-05 25936   0.294E-02    0.112E+00
DAV:  19    -0.232577703905E+03   -0.33369E-04   -0.57518E-05 34584   0.477E-02    0.105E+00
DAV:  20    -0.232578164435E+03   -0.46053E-03   -0.16337E-04 41032   0.736E-02    0.970E-01
DAV:  21    -0.232578597252E+03   -0.43282E-03   -0.34247E-04 42288   0.895E-02    0.611E-01
DAV:  22    -0.232579474554E+03   -0.87730E-03   -0.33957E-04 41720   0.960E-02    0.303E-01
DAV:  23    -0.232580129468E+03   -0.65491E-03   -0.26625E-04 40752   0.887E-02    0.193E-01
DAV:  24    -0.232580259447E+03   -0.12998E-03   -0.18043E-04 39656   0.727E-02    0.304E-01
DAV:  25    -0.232580299448E+03   -0.40001E-04   -0.81942E-05 34336   0.614E-02    0.331E-01
DAV:  26    -0.232580264832E+03    0.34616E-04   -0.38438E-05 31512   0.479E-02    0.355E-01
DAV:  27    -0.232580247077E+03    0.17755E-04   -0.63373E-05 36536   0.470E-02    0.242E-01
DAV:  28    -0.232580295838E+03   -0.48761E-04   -0.53035E-05 34968   0.314E-02    0.932E-02
DAV:  29    -0.232580365433E+03   -0.69595E-04   -0.22799E-05 26888   0.200E-02    0.178E-02
DAV:  30    -0.232580388557E+03   -0.23124E-04   -0.69371E-06 20672   0.142E-02    0.353E-02
DAV:  31    -0.232580390199E+03   -0.16421E-05   -0.33131E-06 19680   0.107E-02
 192 F= -.23258039E+03 E0= -.23256603E+03  d E =0.199035E-03  mag=     9.0496
       N       E                     dE             d eps       ncg     rms          rms(c)
DAV:   1    -0.232503314712E+03    0.77074E-01   -0.67629E+00 33544   0.130E+01    0.828E-01
DAV:   2    -0.232587643052E+03   -0.84328E-01   -0.77703E-01 33896   0.264E+00    0.351E+00
DAV:   3    -0.232574566050E+03    0.13077E-01   -0.34340E-02 37536   0.126E+00    0.118E+00
DAV:   4    -0.232581054895E+03   -0.64888E-02   -0.18371E-02 36328   0.874E-01    0.138E+00
DAV:   5    -0.232577543131E+03    0.35118E-02   -0.88997E-03 34792   0.612E-01    0.338E-01
DAV:   6    -0.232578124663E+03   -0.58153E-03   -0.96847E-04 40344   0.232E-01    0.364E-01
DAV:   7    -0.232578311140E+03   -0.18648E-03   -0.12234E-03 43600   0.274E-01    0.549E-01
DAV:   8    -0.232578328513E+03   -0.17374E-04   -0.88981E-04 43232   0.163E-01    0.731E-01
DAV:   9    -0.232578135730E+03    0.19278E-03   -0.20248E-04 33552   0.517E-02    0.887E-01
DAV:  10    -0.232577390526E+03    0.74520E-03   -0.79295E-04 42552   0.162E-01    0.912E-01
DAV:  11    -0.232577425629E+03   -0.35104E-04   -0.75327E-04 42360   0.133E-01    0.836E-01
DAV:  12    -0.232577554963E+03   -0.12933E-03   -0.40576E-04 36176   0.988E-02    0.852E-01
DAV:  13    -0.232577514751E+03    0.40213E-04   -0.10860E-04 27720   0.267E-02    0.882E-01
DAV:  14    -0.232577213802E+03    0.30095E-03   -0.12543E-04 30536   0.667E-02    0.669E-01
DAV:  15    -0.232577303418E+03   -0.89616E-04   -0.22103E-04 37304   0.957E-02    0.427E-01
DAV:  16    -0.232577655570E+03   -0.35215E-03   -0.11520E-04 34144   0.611E-02    0.270E-01
DAV:  17    -0.232577857497E+03   -0.20193E-03   -0.60682E-05 29240   0.467E-02    0.203E-01
DAV:  18    -0.232577930895E+03   -0.73397E-04   -0.25223E-05 25256   0.331E-02    0.178E-01
DAV:  19    -0.232577964072E+03   -0.33178E-04   -0.13097E-05 22432   0.197E-02    0.177E-01
DAV:  20    -0.232577969259E+03   -0.51868E-05   -0.66291E-06 20312   0.182E-02
 193 F= -.23257797E+03 E0= -.23256366E+03  d E =0.242094E-02  mag=     9.0427
       N       E                     dE             d eps       ncg     rms          rms(c)
DAV:   1    -0.232478015484E+03    0.99949E-01   -0.54204E+00 33992   0.148E+01    0.876E-01
DAV:   2    -0.232575613993E+03   -0.97599E-01   -0.10081E+00 33336   0.284E+00    0.130E+00
DAV:   3    -0.232588280972E+03   -0.12667E-01   -0.33387E-02 40280   0.124E+00    0.341E+00
DAV:   4    -0.232569192644E+03    0.19088E-01   -0.11664E-02 37488   0.928E-01    0.111E+00
DAV:   5    -0.232573217157E+03   -0.40245E-02   -0.16119E-03 36408   0.161E-01    0.858E-01
DAV:   6    -0.232574080907E+03   -0.86375E-03   -0.14715E-03 39760   0.126E-01    0.741E-01
DAV:   7    -0.232574904675E+03   -0.82377E-03   -0.29613E-03 42744   0.312E-01    0.103E+00
DAV:   8    -0.232575841325E+03   -0.93665E-03   -0.27254E-03 42144   0.298E-01    0.154E+00
DAV:   9    -0.232574208676E+03    0.16326E-02   -0.27213E-03 40464   0.329E-01    0.143E+00
DAV:  10    -0.232573237913E+03    0.97076E-03   -0.20610E-03 43128   0.277E-01    0.107E+00
DAV:  11    -0.232573818149E+03   -0.58024E-03   -0.11471E-03 41872   0.223E-01    0.819E-01
DAV:  12    -0.232574364216E+03   -0.54607E-03   -0.74133E-04 41536   0.208E-01    0.761E-01
DAV:  13    -0.232574348238E+03    0.15978E-04   -0.42809E-04 43688   0.164E-01    0.740E-01
DAV:  14    -0.232574364454E+03   -0.16216E-04   -0.15740E-04 40496   0.700E-02    0.735E-01
DAV:  15    -0.232574490097E+03   -0.12564E-03   -0.26358E-05 27744   0.196E-02    0.725E-01
DAV:  16    -0.232574739356E+03   -0.24926E-03   -0.43746E-05 28168   0.410E-02    0.635E-01
DAV:  17    -0.232575061375E+03   -0.32202E-03   -0.24032E-04 42112   0.856E-02    0.473E-01
DAV:  18    -0.232575417693E+03   -0.35632E-03   -0.34327E-04 42896   0.956E-02    0.339E-01
DAV:  19    -0.232575622491E+03   -0.20480E-03   -0.19764E-04 39208   0.609E-02    0.435E-01
DAV:  20    -0.232575500452E+03    0.12204E-03   -0.77923E-05 33808   0.418E-02    0.534E-01
DAV:  21    -0.232575268344E+03    0.23211E-03   -0.32804E-05 28184   0.352E-02    0.544E-01
DAV:  22    -0.232575236159E+03    0.32185E-04   -0.68366E-05 35544   0.575E-02    0.306E-01
DAV:  23    -0.232575615786E+03   -0.37963E-03   -0.21322E-04 42304   0.830E-02    0.226E-01
DAV:  24    -0.232575804421E+03   -0.18864E-03   -0.14680E-04 37544   0.780E-02    0.410E-01
DAV:  25    -0.232575641517E+03    0.16290E-03   -0.59005E-05 32792   0.539E-02    0.467E-01
DAV:  26    -0.232575498420E+03    0.14310E-03   -0.23646E-05 26920   0.347E-02    0.421E-01
DAV:  27    -0.232575482248E+03    0.16172E-04   -0.12695E-05 20864   0.243E-02    0.373E-01
DAV:  28    -0.232575508358E+03   -0.26111E-04   -0.26945E-05 26368   0.270E-02    0.212E-01
DAV:  29    -0.232575611963E+03   -0.10360E-03   -0.32318E-05 29616   0.262E-02    0.656E-02
DAV:  30    -0.232575694140E+03   -0.82177E-04   -0.18935E-05 24976   0.226E-02    0.410E-02
DAV:  31    -0.232575712381E+03   -0.18240E-04   -0.98474E-06 22056   0.161E-02    0.542E-02
DAV:  32    -0.232575709636E+03    0.27444E-05   -0.34682E-06 19424   0.773E-03
 194 F= -.23257571E+03 E0= -.23256138E+03  d E =0.225962E-02  mag=     9.0409
       N       E                     dE             d eps       ncg     rms          rms(c)
DAV:   1    -0.232184765274E+03    0.39095E+00   -0.26363E+01 33664   0.292E+01    0.183E+00
DAV:   2    -0.232607336967E+03   -0.42257E+00   -0.39690E+00 33336   0.595E+00    0.608E+00
DAV:   3    -0.232562348605E+03    0.44988E-01   -0.15429E-01 38544   0.288E+00    0.335E+00
DAV:   4    -0.232575709157E+03   -0.13361E-01   -0.66901E-02 37056   0.164E+00    0.295E+00
DAV:   5    -0.232571022019E+03    0.46871E-02   -0.35789E-02 35568   0.119E+00    0.309E+00
DAV:   6    -0.232564964253E+03    0.60578E-02   -0.71764E-03 41328   0.618E-01    0.254E+00
DAV:   7    -0.232560585155E+03    0.43791E-02   -0.87865E-03 43544   0.743E-01    0.111E+00
DAV:   8    -0.232567689444E+03   -0.71043E-02   -0.89508E-03 40936   0.650E-01    0.186E+00
DAV:   9    -0.232569430132E+03   -0.17407E-02   -0.41314E-03 39328   0.418E-01    0.227E+00
DAV:  10    -0.232570541353E+03   -0.11112E-02   -0.19119E-03 37216   0.249E-01    0.336E+00
DAV:  11    -0.232567816023E+03    0.27253E-02   -0.10677E-03 36344   0.140E-01    0.377E+00
DAV:  12    -0.232566063501E+03    0.17525E-02   -0.18638E-03 42536   0.232E-01    0.440E+00
DAV:  13    -0.232562912166E+03    0.31513E-02   -0.20751E-03 40992   0.245E-01    0.485E+00
DAV:  14    -0.232558651616E+03    0.42605E-02   -0.53665E-04 35208   0.813E-02    0.502E+00
DAV:  15    -0.232555669318E+03    0.29823E-02   -0.23925E-04 39712   0.890E-02    0.530E+00
DAV:  16    -0.232553144605E+03    0.25247E-02   -0.98448E-05 36208   0.441E-02    0.541E+00
DAV:  17    -0.232552437025E+03    0.70758E-03   -0.10664E-04 35208   0.598E-02    0.529E+00
DAV:  18    -0.232551709350E+03    0.72767E-03   -0.13158E-03 44512   0.239E-01    0.449E+00
DAV:  19    -0.232552249114E+03   -0.53976E-03   -0.66889E-03 44024   0.513E-01    0.240E+00
DAV:  20    -0.232559796564E+03   -0.75475E-02   -0.65553E-03 41752   0.432E-01    0.410E-01
DAV:  21    -0.232566813388E+03   -0.70168E-02   -0.36972E-03 37056   0.382E-01    0.610E-01
DAV:  22    -0.232567341022E+03   -0.52763E-03   -0.13167E-03 42360   0.212E-01    0.485E-01
DAV:  23    -0.232567152261E+03    0.18876E-03   -0.36120E-04 45736   0.890E-02    0.303E-01
DAV:  24    -0.232567220740E+03   -0.68479E-04   -0.76528E-05 35184   0.677E-02    0.285E-01
DAV:  25    -0.232567244865E+03   -0.24124E-04   -0.58689E-05 31376   0.662E-02    0.263E-01
DAV:  26    -0.232567262542E+03   -0.17678E-04   -0.41216E-05 30184   0.390E-02    0.180E-01
DAV:  27    -0.232567293161E+03   -0.30619E-04   -0.23166E-05 27120   0.196E-02    0.163E-01
DAV:  28    -0.232567302757E+03   -0.95959E-05   -0.42585E-06 20480   0.929E-03
 195 F= -.23256730E+03 E0= -.23255283E+03  d E =0.840688E-02  mag=     9.0659
       N       E                     dE             d eps       ncg     rms          rms(c)
DAV:   1    -0.232457065374E+03    0.11023E+00   -0.62961E+00 35144   0.160E+01    0.890E-01
DAV:   2    -0.232565663879E+03   -0.10860E+00   -0.11311E+00 34384   0.299E+00    0.963E-01
DAV:   3    -0.232570921109E+03   -0.52572E-02   -0.46604E-02 39232   0.127E+00    0.199E+00
DAV:   4    -0.232564945377E+03    0.59757E-02   -0.12865E-02 38880   0.740E-01    0.871E-01
DAV:   5    -0.232565436260E+03   -0.49088E-03   -0.25961E-03 39496   0.315E-01    0.815E-01
DAV:   6    -0.232565765175E+03   -0.32891E-03   -0.70936E-04 42216   0.135E-01    0.130E+00
DAV:   7    -0.232565070726E+03    0.69445E-03   -0.28660E-04 37608   0.106E-01    0.148E+00
DAV:   8    -0.232564210175E+03    0.86055E-03   -0.96471E-04 41688   0.225E-01    0.162E+00
DAV:   9    -0.232565507903E+03   -0.12977E-02   -0.37263E-03 41808   0.433E-01    0.226E+00
DAV:  10    -0.232567331581E+03   -0.18237E-02   -0.33223E-03 43024   0.411E-01    0.319E+00
DAV:  11    -0.232563402401E+03    0.39292E-02   -0.27306E-03 40296   0.308E-01    0.309E+00
DAV:  12    -0.232560798205E+03    0.26042E-02   -0.19407E-03 44376   0.259E-01    0.270E+00
DAV:  13    -0.232560287357E+03    0.51085E-03   -0.10485E-03 44032   0.140E-01    0.220E+00
DAV:  14    -0.232560908331E+03   -0.62097E-03   -0.94650E-04 40784   0.149E-01    0.172E+00
DAV:  15    -0.232561316828E+03   -0.40850E-03   -0.13483E-03 43040   0.195E-01    0.553E-01
DAV:  16    -0.232564409114E+03   -0.30923E-02   -0.14338E-03 39272   0.224E-01    0.661E-01
DAV:  17    -0.232565363643E+03   -0.95453E-03   -0.94134E-04 38408   0.212E-01    0.876E-01
DAV:  18    -0.232564354130E+03    0.10095E-02   -0.42346E-04 43024   0.138E-01    0.538E-01
DAV:  19    -0.232564635215E+03   -0.28109E-03   -0.22697E-04 43752   0.868E-02    0.378E-01
DAV:  20    -0.232564889705E+03   -0.25449E-03   -0.15202E-04 39496   0.754E-02    0.306E-01
DAV:  21    -0.232564986596E+03   -0.96891E-04   -0.14017E-04 38400   0.750E-02    0.219E-01
DAV:  22    -0.232565020641E+03   -0.34045E-04   -0.12709E-04 38928   0.673E-02    0.181E-01
DAV:  23    -0.232565050360E+03   -0.29719E-04   -0.59512E-05 30256   0.494E-02    0.245E-01
DAV:  24    -0.232565002959E+03    0.47401E-04   -0.57546E-05 29688   0.514E-02    0.251E-01
DAV:  25    -0.232564976209E+03    0.26750E-04   -0.15021E-05 22032   0.339E-02    0.219E-01
DAV:  26    -0.232564984559E+03   -0.83502E-05   -0.74000E-06 20304   0.186E-02
 196 F= -.23256498E+03 E0= -.23255064E+03  d E =0.231820E-02  mag=     9.0594
       N       E                     dE             d eps       ncg     rms          rms(c)
DAV:   1    -0.232523842339E+03    0.41134E-01   -0.24184E+00 35360   0.101E+01    0.634E-01
DAV:   2    -0.232580371582E+03   -0.56529E-01   -0.49357E-01 35216   0.200E+00    0.353E+00
DAV:   3    -0.232565523437E+03    0.14848E-01   -0.24367E-02 36208   0.107E+00    0.671E-01
DAV:   4    -0.232571791456E+03   -0.62680E-02   -0.15250E-02 36592   0.713E-01    0.128E+00
DAV:   5    -0.232569418640E+03    0.23728E-02   -0.67948E-03 38984   0.492E-01    0.558E-01
DAV:   6    -0.232569831122E+03   -0.41248E-03   -0.90388E-04 41432   0.210E-01    0.498E-01
DAV:   7    -0.232569870024E+03   -0.38902E-04   -0.91977E-04 43672   0.198E-01    0.419E-01
DAV:   8    -0.232569840524E+03    0.29501E-04   -0.54427E-04 42584   0.991E-02    0.333E-01
DAV:   9    -0.232569883694E+03   -0.43170E-04   -0.15396E-04 33360   0.405E-02    0.323E-01
DAV:  10    -0.232569756450E+03    0.12724E-03   -0.86233E-04 42136   0.149E-01    0.389E-01
DAV:  11    -0.232569767615E+03   -0.11165E-04   -0.10373E-03 43448   0.218E-01    0.403E-01
DAV:  12    -0.232569910002E+03   -0.14239E-03   -0.56408E-04 39944   0.132E-01    0.664E-01
DAV:  13    -0.232569494350E+03    0.41565E-03   -0.21040E-04 32184   0.524E-02    0.820E-01
DAV:  14    -0.232568832477E+03    0.66187E-03   -0.19877E-04 37184   0.632E-02    0.963E-01
DAV:  15    -0.232568395133E+03    0.43734E-03   -0.84204E-05 33776   0.464E-02    0.105E+00
DAV:  16    -0.232568013077E+03    0.38206E-03   -0.62479E-05 32624   0.358E-02    0.119E+00
DAV:  17    -0.232567601784E+03    0.41129E-03   -0.30290E-05 27928   0.378E-02    0.116E+00
DAV:  18    -0.232567634274E+03   -0.32490E-04   -0.69170E-05 35080   0.551E-02    0.105E+00
DAV:  19    -0.232567961383E+03   -0.32711E-03   -0.53810E-05 32144   0.421E-02    0.987E-01
DAV:  20    -0.232568313450E+03   -0.35207E-03   -0.54559E-05 32352   0.522E-02    0.933E-01
DAV:  21    -0.232568572474E+03   -0.25902E-03   -0.47972E-05 32128   0.387E-02    0.867E-01
DAV:  22    -0.232568777347E+03   -0.20487E-03   -0.28317E-05 30136   0.310E-02    0.826E-01
DAV:  23    -0.232568934144E+03   -0.15680E-03   -0.14251E-05 23312   0.262E-02    0.797E-01
DAV:  24    -0.232569026075E+03   -0.91931E-04   -0.60532E-06 20040   0.167E-02    0.787E-01
DAV:  25    -0.232569089886E+03   -0.63811E-04   -0.30701E-06 17880   0.105E-02    0.807E-01
DAV:  26    -0.232569072950E+03    0.16936E-04   -0.10279E-06 17520   0.660E-03    0.820E-01
DAV:  27    -0.232569046143E+03    0.26807E-04   -0.58459E-07 17368   0.606E-03    0.824E-01
DAV:  28    -0.232569024072E+03    0.22071E-04   -0.29805E-07 17280   0.370E-03    0.824E-01
DAV:  29    -0.232569022263E+03    0.18090E-05   -0.16581E-07 17200   0.283E-03
 197 F= -.23256902E+03 E0= -.23255513E+03  d E =-.403770E-02  mag=     9.0562
       N       E                     dE             d eps       ncg     rms          rms(c)
DAV:   1    -0.232517626775E+03    0.51397E-01   -0.37943E+00 33696   0.106E+01    0.110E+00
DAV:   2    -0.232676525929E+03   -0.15890E+00   -0.54945E-01 41368   0.298E+00    0.115E+01
DAV:   3    -0.232522704409E+03    0.15382E+00   -0.88757E-02 40496   0.230E+00    0.218E+00
DAV:   4    -0.232561598615E+03   -0.38894E-01   -0.13339E-02 37616   0.570E-01    0.155E+00
DAV:   5    -0.232565194558E+03   -0.35959E-02   -0.38909E-03 41792   0.278E-01    0.174E+00
DAV:   6    -0.232568072054E+03   -0.28775E-02   -0.64691E-03 42272   0.498E-01    0.253E+00
DAV:   7    -0.232567862582E+03    0.20947E-03   -0.35973E-03 42040   0.347E-01    0.307E+00
DAV:   8    -0.232566217447E+03    0.16451E-02   -0.91361E-04 35528   0.130E-01    0.319E+00
DAV:   9    -0.232566180467E+03    0.36980E-04   -0.32084E-04 41104   0.941E-02    0.337E+00
DAV:  10    -0.232568410338E+03   -0.22299E-02   -0.11764E-03 41784   0.288E-01    0.352E+00
DAV:  11    -0.232559768390E+03    0.86419E-02   -0.75583E-03 45240   0.641E-01    0.196E+00
DAV:  12    -0.232561985524E+03   -0.22171E-02   -0.12203E-02 42000   0.797E-01    0.828E-01
DAV:  13    -0.232567620378E+03   -0.56349E-02   -0.84773E-03 40616   0.533E-01    0.158E+00
DAV:  14    -0.232566336712E+03    0.12837E-02   -0.37937E-03 40224   0.356E-01    0.162E+00
DAV:  15    -0.232565312082E+03    0.10246E-02   -0.92453E-04 44920   0.151E-01    0.157E+00
DAV:  16    -0.232564964100E+03    0.34798E-03   -0.19825E-04 44352   0.667E-02    0.154E+00
DAV:  17    -0.232564639821E+03    0.32428E-03   -0.13739E-04 38096   0.601E-02    0.145E+00
DAV:  18    -0.232564654613E+03   -0.14792E-04   -0.10495E-04 37360   0.573E-02    0.141E+00
DAV:  19    -0.232564730807E+03   -0.76194E-04   -0.44107E-05 30808   0.302E-02    0.142E+00
DAV:  20    -0.232565147481E+03   -0.41667E-03   -0.40936E-04 42376   0.140E-01    0.105E+00
DAV:  21    -0.232566087510E+03   -0.94003E-03   -0.96043E-04 43000   0.199E-01    0.719E-01
DAV:  22    -0.232567214865E+03   -0.11274E-02   -0.12797E-03 43104   0.204E-01    0.604E-01
DAV:  23    -0.232567338931E+03   -0.12407E-03   -0.97238E-04 44416   0.222E-01    0.581E-01
DAV:  24    -0.232567036696E+03    0.30223E-03   -0.61113E-04 45616   0.175E-01    0.437E-01
DAV:  25    -0.232567183600E+03   -0.14690E-03   -0.24801E-04 44224   0.922E-02    0.152E-01
DAV:  26    -0.232567389538E+03   -0.20594E-03   -0.11958E-04 35544   0.748E-02    0.816E-02
DAV:  27    -0.232567441294E+03   -0.51756E-04   -0.60421E-05 33560   0.562E-02    0.483E-02
DAV:  28    -0.232567446288E+03   -0.49948E-05   -0.20472E-05 26952   0.258E-02
 198 F= -.23256745E+03 E0= -.23255317E+03  d E =0.157597E-02  mag=     9.0431
