       N       E                     dE             d eps       ncg     rms          rms(c)
DAV:   1     0.639058555017E+04    0.63906E+04   -0.30085E+05 37376   0.170E+03
DAV:   2     0.348297872042E+03   -0.60423E+04   -0.56531E+04 35600   0.512E+02
DAV:   3    -0.298728227364E+03   -0.64703E+03   -0.62709E+03 37496   0.188E+02
DAV:   4    -0.317921546496E+03   -0.19193E+02   -0.19043E+02 37840   0.351E+01
DAV:   5    -0.318439314955E+03   -0.51777E+00   -0.51459E+00 47088   0.533E+00    0.878E+01
DAV:   6    -0.251920763240E+03    0.66519E+02   -0.68196E+02 42992   0.113E+02    0.212E+02
DAV:   7    -0.211032987543E+03    0.40888E+02   -0.13183E+02 41224   0.473E+01    0.894E+01
DAV:   8    -0.235414932405E+03   -0.24382E+02   -0.10573E+02 49496   0.779E+01    0.128E+02
DAV:   9    -0.182188679033E+03    0.53226E+02   -0.71490E+01 43960   0.580E+01    0.755E+01
DAV:  10    -0.195208635069E+03   -0.13020E+02   -0.10135E+02 43560   0.471E+01    0.105E+02
DAV:  11    -0.195194009340E+03    0.14626E-01   -0.10861E+02 44088   0.364E+01    0.700E+01
DAV:  12    -0.207880333260E+03   -0.12686E+02   -0.10781E+02 44072   0.263E+01    0.847E+01
DAV:  13    -0.203240149799E+03    0.46402E+01   -0.37866E+01 43304   0.281E+01    0.718E+01
DAV:  14    -0.203572885392E+03   -0.33274E+00   -0.50758E+01 43464   0.205E+01    0.598E+01
DAV:  15    -0.206138403072E+03   -0.25655E+01   -0.29307E+01 44240   0.213E+01    0.634E+01
DAV:  16    -0.203348461079E+03    0.27899E+01   -0.44550E+01 42528   0.212E+01    0.534E+01
DAV:  17    -0.199614989501E+03    0.37335E+01   -0.19682E+01 41808   0.195E+01    0.342E+01
DAV:  18    -0.201464068597E+03   -0.18491E+01   -0.94926E+00 43048   0.112E+01    0.336E+01
DAV:  19    -0.204881390160E+03   -0.34173E+01   -0.11101E+01 39912   0.111E+01    0.274E+01
DAV:  20    -0.208683121964E+03   -0.38017E+01   -0.56402E+00 41384   0.853E+00    0.220E+01
DAV:  21    -0.211382407282E+03   -0.26993E+01   -0.64067E+00 42384   0.812E+00    0.282E+01
DAV:  22    -0.213911829499E+03   -0.25294E+01   -0.24032E+00 42944   0.659E+00    0.221E+01
DAV:  23    -0.215923852074E+03   -0.20120E+01   -0.90099E-01 40656   0.279E+00    0.227E+01
DAV:  24    -0.216508329001E+03   -0.58448E+00   -0.13066E-01 38888   0.138E+00    0.221E+01
DAV:  25    -0.216552009557E+03   -0.43681E-01   -0.64046E-02 41824   0.111E+00    0.217E+01
DAV:  26    -0.217099827195E+03   -0.54782E+00   -0.14278E-01 42368   0.200E+00    0.205E+01
DAV:  27    -0.218569502455E+03   -0.14697E+01   -0.50176E-01 41376   0.298E+00    0.199E+01
DAV:  28    -0.220925017621E+03   -0.23555E+01   -0.12092E+00 43512   0.456E+00    0.201E+01
DAV:  29    -0.225425404946E+03   -0.45004E+01   -0.29250E+00 41592   0.667E+00    0.181E+01
DAV:  30    -0.226742324388E+03   -0.13169E+01   -0.20014E+00 41648   0.450E+00    0.184E+01
DAV:  31    -0.227504303266E+03   -0.76198E+00   -0.72955E-01 40832   0.367E+00    0.176E+01
DAV:  32    -0.228122822532E+03   -0.61852E+00   -0.37673E-01 40752   0.317E+00    0.167E+01
DAV:  33    -0.228736212003E+03   -0.61339E+00   -0.49672E-01 42664   0.318E+00    0.153E+01
DAV:  34    -0.229733575341E+03   -0.99736E+00   -0.74418E-01 42920   0.353E+00    0.165E+01
DAV:  35    -0.229935852287E+03   -0.20228E+00   -0.22724E-01 41872   0.217E+00    0.143E+01
DAV:  36    -0.230373296465E+03   -0.43744E+00   -0.52865E-01 42784   0.218E+00    0.116E+01
DAV:  37    -0.230754498181E+03   -0.38120E+00   -0.27988E-01 42504   0.243E+00    0.112E+01
DAV:  38    -0.231033927177E+03   -0.27943E+00   -0.16387E-01 41632   0.194E+00    0.121E+01
DAV:  39    -0.231008713070E+03    0.25214E-01   -0.58396E-02 42648   0.119E+00    0.103E+01
DAV:  40    -0.231090809884E+03   -0.82097E-01   -0.62283E-02 43048   0.792E-01    0.907E+00
DAV:  41    -0.231209341848E+03   -0.11853E+00   -0.61959E-02 41256   0.127E+00    0.849E+00
DAV:  42    -0.231294870690E+03   -0.85529E-01   -0.35578E-01 41336   0.128E+00    0.765E+00
DAV:  43    -0.231392185569E+03   -0.97315E-01   -0.43123E-01 42872   0.110E+00    0.111E+01
DAV:  44    -0.231436220873E+03   -0.44035E-01   -0.69342E-02 42200   0.102E+00    0.114E+01
DAV:  45    -0.231493836906E+03   -0.57616E-01   -0.47838E-02 45960   0.803E-01    0.112E+01
DAV:  46    -0.231482238765E+03    0.11598E-01   -0.98029E-02 44440   0.152E+00    0.973E+00
DAV:  47    -0.231495956807E+03   -0.13718E-01   -0.11357E-01 43760   0.118E+00    0.884E+00
DAV:  48    -0.231450227118E+03    0.45730E-01   -0.86647E-02 43960   0.113E+00    0.870E+00
DAV:  49    -0.231340878902E+03    0.10935E+00   -0.49425E-02 43400   0.837E-01    0.829E+00
DAV:  50    -0.231173389855E+03    0.16749E+00   -0.56308E-02 43296   0.966E-01    0.774E+00
DAV:  51    -0.230757595885E+03    0.41579E+00   -0.17548E-01 43640   0.212E+00    0.846E+00
DAV:  52    -0.230884162882E+03   -0.12657E+00   -0.98149E-02 39976   0.114E+00    0.695E+00
DAV:  53    -0.230926670636E+03   -0.42508E-01   -0.13137E-01 45000   0.655E-01    0.693E+00
DAV:  54    -0.230883012425E+03    0.43658E-01   -0.13899E-02 35624   0.401E-01    0.684E+00
DAV:  55    -0.230928296000E+03   -0.45284E-01   -0.12218E-02 38176   0.241E-01    0.712E+00
DAV:  56    -0.231040340997E+03   -0.11204E+00   -0.54459E-01 47392   0.159E+00    0.821E+00
DAV:  57    -0.231147172157E+03   -0.10683E+00   -0.55091E-02 37512   0.734E-01    0.109E+01
DAV:  58    -0.231096474520E+03    0.50698E-01   -0.82702E-02 40776   0.640E-01    0.108E+01
DAV:  59    -0.231090308710E+03    0.61658E-02   -0.91023E-02 41536   0.402E-01    0.117E+01
DAV:  60    -0.231080218874E+03    0.10090E-01   -0.96775E-03 35632   0.351E-01    0.121E+01
DAV:  61    -0.231254026174E+03   -0.17381E+00   -0.15576E+00 47256   0.233E+00    0.128E+01
DAV:  62    -0.231120601879E+03    0.13342E+00   -0.20847E-01 37960   0.993E-01    0.114E+01
DAV:  63    -0.231206326357E+03   -0.85724E-01   -0.45567E-02 44352   0.988E-01    0.112E+01
DAV:  64    -0.231343776940E+03   -0.13745E+00   -0.25074E-02 44040   0.675E-01    0.109E+01
DAV:  65    -0.231351457636E+03   -0.76807E-02   -0.58741E-03 37792   0.235E-01    0.108E+01
DAV:  66    -0.231511730102E+03   -0.16027E+00   -0.82653E-02 45704   0.129E+00    0.915E+00
DAV:  67    -0.231636314652E+03   -0.12458E+00   -0.51698E-01 44968   0.134E+00    0.713E+00
DAV:  68    -0.231705162365E+03   -0.68848E-01   -0.36788E-02 40728   0.631E-01    0.670E+00
DAV:  69    -0.231715656096E+03   -0.10494E-01   -0.74278E-03 44416   0.368E-01    0.661E+00
DAV:  70    -0.231716753993E+03   -0.10979E-02   -0.30497E-03 38920   0.210E-01    0.673E+00
DAV:  71    -0.231725366358E+03   -0.86124E-02   -0.17286E-02 43640   0.932E-01    0.704E+00
DAV:  72    -0.231717454832E+03    0.79115E-02   -0.19419E-02 43584   0.881E-01    0.719E+00
DAV:  73    -0.231728788876E+03   -0.11334E-01   -0.88021E-03 44952   0.323E-01    0.740E+00
DAV:  74    -0.231756062315E+03   -0.27273E-01   -0.11257E-02 41880   0.338E-01    0.812E+00
DAV:  75    -0.231734257659E+03    0.21805E-01   -0.97947E-03 39704   0.310E-01    0.808E+00
DAV:  76    -0.231711214617E+03    0.23043E-01   -0.43777E-02 45456   0.708E-01    0.639E+00
DAV:  77    -0.231749200741E+03   -0.37986E-01   -0.30502E-02 41736   0.634E-01    0.586E+00
DAV:  78    -0.231758834613E+03   -0.96339E-02   -0.11600E-02 35440   0.308E-01    0.605E+00
DAV:  79    -0.231759666194E+03   -0.83158E-03   -0.49082E-03 42616   0.299E-01    0.604E+00
DAV:  80    -0.231754509672E+03    0.51565E-02   -0.61696E-03 45920   0.332E-01    0.606E+00
DAV:  81    -0.231776025143E+03   -0.21515E-01   -0.66145E-02 47808   0.839E-01    0.672E+00
DAV:  82    -0.231778875378E+03   -0.28502E-02   -0.17834E-02 34768   0.316E-01    0.745E+00
DAV:  83    -0.231770445336E+03    0.84300E-02   -0.20471E-02 45328   0.352E-01    0.781E+00
DAV:  84    -0.231765156969E+03    0.52884E-02   -0.93517E-03 42160   0.261E-01    0.743E+00
DAV:  85    -0.231769504447E+03   -0.43475E-02   -0.22543E-03 43856   0.167E-01    0.727E+00
DAV:  86    -0.231736599476E+03    0.32905E-01   -0.39742E-02 45872   0.480E-01    0.620E+00
DAV:  87    -0.231750517462E+03   -0.13918E-01   -0.43011E-03 36312   0.286E-01    0.615E+00
DAV:  88    -0.231758192937E+03   -0.76755E-02   -0.11643E-02 45872   0.349E-01    0.579E+00
DAV:  89    -0.231769625937E+03   -0.11433E-01   -0.49513E-02 44040   0.474E-01    0.513E+00
DAV:  90    -0.231782067453E+03   -0.12442E-01   -0.40702E-02 42584   0.472E-01    0.487E+00
DAV:  91    -0.231788468947E+03   -0.64015E-02   -0.46589E-02 43536   0.912E-01    0.479E+00
DAV:  92    -0.231785459374E+03    0.30096E-02   -0.15161E-02 41824   0.773E-01    0.485E+00
DAV:  93    -0.231784698477E+03    0.76090E-03   -0.17538E-03 36792   0.152E-01    0.491E+00
DAV:  94    -0.231782944210E+03    0.17543E-02   -0.21536E-03 43864   0.159E-01    0.497E+00
DAV:  95    -0.231772830741E+03    0.10113E-01   -0.19031E-03 48464   0.179E-01    0.486E+00
DAV:  96    -0.231729774748E+03    0.43056E-01   -0.57333E-02 50472   0.680E-01    0.443E+00
DAV:  97    -0.231712840257E+03    0.16934E-01   -0.63173E-02 41296   0.529E-01    0.423E+00
DAV:  98    -0.231688797150E+03    0.24043E-01   -0.78257E-03 49840   0.416E-01    0.395E+00
DAV:  99    -0.231666048835E+03    0.22748E-01   -0.82410E-03 45744   0.317E-01    0.371E+00
DAV: 100    -0.231662381636E+03    0.36672E-02   -0.20077E-03 35904   0.115E-01    0.364E+00
DAV: 101    -0.231574483630E+03    0.87898E-01   -0.24881E-01 52112   0.256E+00    0.717E+00
DAV: 102    -0.231559293126E+03    0.15191E-01   -0.15908E-01 34600   0.681E-01    0.559E+00
DAV: 103    -0.231562873502E+03   -0.35804E-02   -0.24084E-03 37496   0.158E-01    0.594E+00
DAV: 104    -0.231542777211E+03    0.20096E-01   -0.13802E-02 46488   0.265E-01    0.405E+00
DAV: 105    -0.231544101388E+03   -0.13242E-02   -0.10088E-02 43768   0.363E-01    0.270E+00
DAV: 106    -0.231548063945E+03   -0.39626E-02   -0.16732E-02 41520   0.451E-01    0.236E+00
DAV: 107    -0.231543494886E+03    0.45691E-02   -0.27123E-02 46024   0.565E-01    0.247E+00
DAV: 108    -0.231541427137E+03    0.20677E-02   -0.11561E-02 44560   0.362E-01    0.278E+00
DAV: 109    -0.231524834222E+03    0.16593E-01   -0.15139E-02 45112   0.410E-01    0.331E+00
DAV: 110    -0.231504609665E+03    0.20225E-01   -0.13636E-02 45368   0.378E-01    0.394E+00
DAV: 111    -0.231417935545E+03    0.86674E-01   -0.10758E-01 45352   0.152E+00    0.531E+00
DAV: 112    -0.231427209171E+03   -0.92736E-02   -0.23157E-02 41656   0.755E-01    0.527E+00
DAV: 113    -0.231446360266E+03   -0.19151E-01   -0.49631E-03 42920   0.329E-01    0.510E+00
DAV: 114    -0.231444660892E+03    0.16994E-02   -0.39567E-03 45136   0.251E-01    0.516E+00
DAV: 115    -0.231451404362E+03   -0.67435E-02   -0.33607E-03 46320   0.245E-01    0.522E+00
DAV: 116    -0.231484887903E+03   -0.33484E-01   -0.14091E-02 45664   0.571E-01    0.567E+00
DAV: 117    -0.231468692875E+03    0.16195E-01   -0.54051E-03 44704   0.347E-01    0.562E+00
DAV: 118    -0.231468602952E+03    0.89923E-04   -0.81499E-04 34752   0.937E-02    0.563E+00
DAV: 119    -0.231471632275E+03   -0.30293E-02   -0.72892E-04 46032   0.108E-01    0.581E+00
DAV: 120    -0.231470701968E+03    0.93031E-03   -0.21822E-04 34208   0.496E-02    0.584E+00
DAV: 121    -0.231568133348E+03   -0.97431E-01   -0.15812E+00 46176   0.286E+00    0.343E+00
DAV: 122    -0.231614825577E+03   -0.46692E-01   -0.99852E-02 42448   0.163E+00    0.317E+00
DAV: 123    -0.231625424832E+03   -0.10599E-01   -0.25693E-02 42560   0.825E-01    0.467E+00
DAV: 124    -0.231612172053E+03    0.13253E-01   -0.76546E-03 35840   0.404E-01    0.475E+00
DAV: 125    -0.231598926861E+03    0.13245E-01   -0.56335E-03 44936   0.241E-01    0.353E+00
DAV: 126    -0.231614315464E+03   -0.15389E-01   -0.19267E-01 43976   0.942E-01    0.401E+00
DAV: 127    -0.231646065297E+03   -0.31750E-01   -0.77540E-02 40008   0.700E-01    0.520E+00
DAV: 128    -0.231630213712E+03    0.15852E-01   -0.75391E-03 36792   0.301E-01    0.539E+00
DAV: 129    -0.231625277106E+03    0.49366E-02   -0.82554E-04 39824   0.796E-02    0.545E+00
DAV: 130    -0.231642307606E+03   -0.17030E-01   -0.10151E-02 44000   0.284E-01    0.550E+00
DAV: 131    -0.231671595876E+03   -0.29288E-01   -0.35223E-02 44160   0.619E-01    0.587E+00
DAV: 132    -0.231675962575E+03   -0.43667E-02   -0.51685E-03 43864   0.234E-01    0.607E+00
DAV: 133    -0.231676461219E+03   -0.49864E-03   -0.53344E-04 38072   0.753E-02    0.615E+00
DAV: 134    -0.231670572995E+03    0.58882E-02   -0.31185E-04 42000   0.809E-02    0.606E+00
DAV: 135    -0.231661513955E+03    0.90590E-02   -0.13673E-03 41152   0.138E-01    0.601E+00
DAV: 136    -0.231679641487E+03   -0.18128E-01   -0.89156E-03 43664   0.429E-01    0.632E+00
DAV: 137    -0.231601812152E+03    0.77829E-01   -0.37837E-02 42304   0.848E-01    0.588E+00
DAV: 138    -0.231577043456E+03    0.24769E-01   -0.32312E-02 46288   0.843E-01    0.550E+00
DAV: 139    -0.231571548004E+03    0.54955E-02   -0.13092E-02 45032   0.319E-01    0.539E+00
DAV: 140    -0.231581854093E+03   -0.10306E-01   -0.89932E-03 44992   0.280E-01    0.744E+00
DAV: 141    -0.231560489942E+03    0.21364E-01   -0.23491E-02 38840   0.477E-01    0.634E+00
DAV: 142    -0.231555291977E+03    0.51980E-02   -0.20402E-01 43088   0.405E-01    0.435E+00
DAV: 143    -0.231562285050E+03   -0.69931E-02   -0.19705E-02 39928   0.436E-01    0.406E+00
DAV: 144    -0.231565968820E+03   -0.36838E-02   -0.10088E-02 37016   0.298E-01    0.418E+00
DAV: 145    -0.231562117133E+03    0.38517E-02   -0.13796E-02 43376   0.282E-01    0.317E+00
DAV: 146    -0.231541806068E+03    0.20311E-01   -0.34916E-01 41880   0.113E+00    0.373E+00
DAV: 147    -0.231570507943E+03   -0.28702E-01   -0.41634E-02 37080   0.720E-01    0.379E+00
DAV: 148    -0.231567858656E+03    0.26493E-02   -0.37261E-03 39208   0.212E-01    0.365E+00
DAV: 149    -0.231564803947E+03    0.30547E-02   -0.38865E-03 44320   0.133E-01    0.309E+00
DAV: 150    -0.231564613624E+03    0.19032E-03   -0.14702E-02 45248   0.276E-01    0.203E+00
DAV: 151    -0.231571625286E+03   -0.70117E-02   -0.16990E-02 42960   0.364E-01    0.136E+00
DAV: 152    -0.231571482461E+03    0.14283E-03   -0.11760E-02 41120   0.445E-01    0.111E+00
DAV: 153    -0.231568886794E+03    0.25957E-02   -0.64484E-03 45352   0.234E-01    0.122E+00
DAV: 154    -0.231569333349E+03   -0.44655E-03   -0.69235E-04 38896   0.915E-02    0.132E+00
DAV: 155    -0.231569712113E+03   -0.37876E-03   -0.27697E-04 40872   0.712E-02    0.131E+00
DAV: 156    -0.231569569646E+03    0.14247E-03   -0.12826E-03 45008   0.130E-01    0.134E+00
DAV: 157    -0.231570776663E+03   -0.12070E-02   -0.15869E-03 45872   0.117E-01    0.122E+00
DAV: 158    -0.231570559486E+03    0.21718E-03   -0.53054E-04 39448   0.824E-02    0.132E+00
DAV: 159    -0.231570046120E+03    0.51337E-03   -0.27415E-04 41104   0.457E-02    0.138E+00
DAV: 160    -0.231568882122E+03    0.11640E-02   -0.52474E-04 40488   0.681E-02    0.153E+00
DAV: 161    -0.231577611097E+03   -0.87290E-02   -0.12991E-01 44288   0.109E+00    0.142E+00
DAV: 162    -0.231585578040E+03   -0.79669E-02   -0.11654E-02 38080   0.300E-01    0.173E+00
DAV: 163    -0.231584761242E+03    0.81680E-03   -0.39875E-03 43944   0.142E-01    0.183E+00
DAV: 164    -0.231585166283E+03   -0.40504E-03   -0.74893E-04 35232   0.956E-02    0.200E+00
DAV: 165    -0.231585412469E+03   -0.24619E-03   -0.48750E-04 39584   0.816E-02    0.200E+00
DAV: 166    -0.231575333666E+03    0.10079E-01   -0.24699E-02 42912   0.375E-01    0.153E+00
DAV: 167    -0.231580318573E+03   -0.49849E-02   -0.33090E-03 39096   0.232E-01    0.171E+00
DAV: 168    -0.231580706407E+03   -0.38783E-03   -0.12073E-03 44648   0.131E-01    0.178E+00
DAV: 169    -0.231581007492E+03   -0.30108E-03   -0.15137E-03 44744   0.141E-01    0.166E+00
DAV: 170    -0.231581657397E+03   -0.64991E-03   -0.25795E-03 45808   0.158E-01    0.174E+00
DAV: 171    -0.231581729269E+03   -0.71872E-04   -0.29043E-03 45888   0.164E-01    0.173E+00
DAV: 172    -0.231579492630E+03    0.22366E-02   -0.15871E-03 45168   0.151E-01    0.180E+00
DAV: 173    -0.231578723878E+03    0.76875E-03   -0.37727E-04 42752   0.611E-02    0.181E+00
DAV: 174    -0.231578534150E+03    0.18973E-03   -0.95046E-05 28720   0.316E-02    0.179E+00
DAV: 175    -0.231578503502E+03    0.30649E-04   -0.35768E-04 37568   0.659E-02    0.174E+00
DAV: 176    -0.231579503087E+03   -0.99958E-03   -0.18138E-02 42336   0.251E-01    0.200E+00
DAV: 177    -0.231577509985E+03    0.19931E-02   -0.75455E-03 40464   0.302E-01    0.169E+00
DAV: 178    -0.231576800615E+03    0.70937E-03   -0.60603E-03 46696   0.207E-01    0.151E+00
DAV: 179    -0.231576873214E+03   -0.72599E-04   -0.11264E-03 41008   0.116E-01    0.148E+00
DAV: 180    -0.231576703928E+03    0.16929E-03   -0.16525E-03 47736   0.101E-01    0.141E+00
DAV: 181    -0.231579530260E+03   -0.28263E-02   -0.93647E-03 48576   0.375E-01    0.119E+00
DAV: 182    -0.231581909358E+03   -0.23791E-02   -0.55498E-03 43112   0.246E-01    0.118E+00
DAV: 183    -0.231582957382E+03   -0.10480E-02   -0.21067E-03 48064   0.132E-01    0.119E+00
DAV: 184    -0.231583647125E+03   -0.68974E-03   -0.39178E-03 44816   0.157E-01    0.127E+00
DAV: 185    -0.231584131386E+03   -0.48426E-03   -0.13911E-02 42344   0.281E-01    0.117E+00
DAV: 186    -0.231577391195E+03    0.67402E-02   -0.15943E-01 45808   0.901E-01    0.184E+00
DAV: 187    -0.231584503546E+03   -0.71124E-02   -0.19838E-02 39232   0.552E-01    0.103E+00
DAV: 188    -0.231587139944E+03   -0.26364E-02   -0.90007E-03 43320   0.195E-01    0.133E+00
DAV: 189    -0.231579677355E+03    0.74626E-02   -0.26666E-01 42064   0.704E-01    0.135E+00
DAV: 190    -0.231584604851E+03   -0.49275E-02   -0.15112E-02 40672   0.312E-01    0.122E+00
DAV: 191    -0.231585922591E+03   -0.13177E-02   -0.68367E-03 43056   0.266E-01    0.119E+00
DAV: 192    -0.231586285470E+03   -0.36288E-03   -0.97058E-03 46960   0.210E-01    0.182E+00
DAV: 193    -0.231591485049E+03   -0.51996E-02   -0.27866E-03 33640   0.222E-01    0.199E+00
DAV: 194    -0.231585558261E+03    0.59268E-02   -0.24806E-03 43312   0.196E-01    0.110E+00
DAV: 195    -0.231591522865E+03   -0.59646E-02   -0.15219E-03 37192   0.177E-01    0.149E+00
DAV: 196    -0.231586083503E+03    0.54394E-02   -0.29964E-03 41272   0.238E-01    0.886E-01
DAV: 197    -0.231589083094E+03   -0.29996E-02   -0.23331E-03 41280   0.189E-01    0.885E-01
DAV: 198    -0.231588553133E+03    0.52996E-03   -0.41124E-03 46160   0.144E-01    0.926E-01
DAV: 199    -0.231589383624E+03   -0.83049E-03   -0.49035E-04 33344   0.803E-02    0.928E-01
DAV: 200    -0.231589292642E+03    0.90982E-04   -0.20159E-04 32784   0.398E-02
   1 F= -.23158929E+03 E0= -.23157668E+03  d E =-.231589E+03  mag=     8.2158
       N       E                     dE             d eps       ncg     rms          rms(c)
DAV:   1    -0.231589759877E+03   -0.37625E-03   -0.50332E-03 40360   0.212E-01    0.880E-01
DAV:   2    -0.231620819916E+03   -0.31060E-01   -0.10069E-01 44440   0.124E+00    0.435E+00
DAV:   3    -0.231605310182E+03    0.15510E-01   -0.27418E-01 40352   0.120E+00    0.428E+00
DAV:   4    -0.231612909674E+03   -0.75995E-02   -0.12952E-02 37968   0.421E-01    0.603E+00
DAV:   5    -0.231602777807E+03    0.10132E-01   -0.25402E-03 36888   0.212E-01    0.663E+00
DAV:   6    -0.231598775235E+03    0.40026E-02   -0.43703E-03 41968   0.398E-01    0.727E+00
DAV:   7    -0.231602536029E+03   -0.37608E-02   -0.55451E-03 40776   0.358E-01    0.786E+00
DAV:   8    -0.231604375392E+03   -0.18394E-02   -0.35575E-03 42848   0.219E-01    0.829E+00
DAV:   9    -0.231606780278E+03   -0.24049E-02   -0.42548E-03 43184   0.229E-01    0.859E+00
DAV:  10    -0.231603671282E+03    0.31090E-02   -0.58464E-04 36792   0.824E-02    0.867E+00
DAV:  11    -0.231615472440E+03   -0.11801E-01   -0.88135E-03 44352   0.394E-01    0.877E+00
DAV:  12    -0.231612396516E+03    0.30759E-02   -0.13579E-02 42896   0.658E-01    0.862E+00
DAV:  13    -0.231605315542E+03    0.70810E-02   -0.23074E-02 44400   0.561E-01    0.822E+00
DAV:  14    -0.231608721037E+03   -0.34055E-02   -0.70975E-03 44016   0.266E-01    0.812E+00
DAV:  15    -0.231608114929E+03    0.60611E-03   -0.50528E-03 41384   0.262E-01    0.825E+00
DAV:  16    -0.231613580976E+03   -0.54660E-02   -0.61396E-04 39896   0.129E-01    0.827E+00
DAV:  17    -0.231627213908E+03   -0.13633E-01   -0.44333E-03 43440   0.311E-01    0.822E+00
DAV:  18    -0.231630803900E+03   -0.35900E-02   -0.58631E-03 45504   0.311E-01    0.820E+00
DAV:  19    -0.231626649536E+03    0.41544E-02   -0.38871E-03 44320   0.186E-01    0.820E+00
DAV:  20    -0.231626867814E+03   -0.21828E-03   -0.12932E-03 38376   0.109E-01    0.824E+00
DAV:  21    -0.231627288836E+03   -0.42102E-03   -0.56109E-04 34968   0.557E-02    0.826E+00
DAV:  22    -0.231625256058E+03    0.20328E-02   -0.42961E-04 40056   0.921E-02    0.823E+00
DAV:  23    -0.231625332959E+03   -0.76900E-04   -0.86880E-04 43984   0.164E-01    0.827E+00
DAV:  24    -0.231637575300E+03   -0.12242E-01   -0.17746E-03 44224   0.211E-01    0.854E+00
DAV:  25    -0.231634443164E+03    0.31321E-02   -0.17080E-03 44528   0.179E-01    0.854E+00
DAV:  26    -0.231644541433E+03   -0.10098E-01   -0.29714E-03 43392   0.172E-01    0.874E+00
DAV:  27    -0.231653727062E+03   -0.91856E-02   -0.27195E-03 44712   0.123E-01    0.911E+00
DAV:  28    -0.231649728168E+03    0.39989E-02   -0.57263E-04 37288   0.113E-01    0.908E+00
DAV:  29    -0.231646535135E+03    0.31930E-02   -0.19933E-04 41048   0.548E-02    0.897E+00
DAV:  30    -0.231646246443E+03    0.28869E-03   -0.55090E-05 30648   0.287E-02    0.892E+00
DAV:  31    -0.231640472352E+03    0.57741E-02   -0.67233E-04 41944   0.967E-02    0.865E+00
DAV:  32    -0.231619934694E+03    0.20538E-01   -0.61405E-03 45672   0.269E-01    0.810E+00
DAV:  33    -0.231603578288E+03    0.16356E-01   -0.11037E-02 45752   0.226E-01    0.781E+00
DAV:  34    -0.231608731744E+03   -0.51535E-02   -0.19404E-03 34752   0.138E-01    0.779E+00
DAV:  35    -0.231606441372E+03    0.22904E-02   -0.12399E-03 37704   0.654E-02    0.772E+00
DAV:  36    -0.231604816597E+03    0.16248E-02   -0.28299E-04 37656   0.677E-02    0.766E+00
DAV:  37    -0.231605420054E+03   -0.60346E-03   -0.38134E-05 32000   0.172E-02    0.764E+00
DAV:  38    -0.231606992965E+03   -0.15729E-02   -0.64534E-05 23696   0.171E-02    0.765E+00
DAV:  39    -0.231613861205E+03   -0.68682E-02   -0.49050E-04 39592   0.729E-02    0.782E+00
DAV:  40    -0.231610941720E+03    0.29195E-02   -0.63467E-05 31224   0.338E-02    0.784E+00
DAV:  41    -0.231616228698E+03   -0.52870E-02   -0.39808E-04 35640   0.584E-02    0.794E+00
DAV:  42    -0.231592044238E+03    0.24184E-01   -0.34739E-03 40848   0.234E-01    0.756E+00
DAV:  43    -0.231590411562E+03    0.16327E-02   -0.10157E-03 41920   0.110E-01    0.721E+00
DAV:  44    -0.231586599023E+03    0.38125E-02   -0.38262E-03 44296   0.145E-01    0.701E+00
DAV:  45    -0.231584382635E+03    0.22164E-02   -0.70700E-04 42488   0.932E-02    0.674E+00
DAV:  46    -0.231564874986E+03    0.19508E-01   -0.34855E-03 43368   0.274E-01    0.458E+00
DAV:  47    -0.231563595883E+03    0.12791E-02   -0.15086E-01 43904   0.962E-01    0.255E+00
DAV:  48    -0.231590715987E+03   -0.27120E-01   -0.16499E-02 34872   0.471E-01    0.312E+00
DAV:  49    -0.231589015483E+03    0.17005E-02   -0.19000E-03 37384   0.126E-01    0.333E+00
DAV:  50    -0.231587136628E+03    0.18789E-02   -0.20554E-04 35480   0.393E-02    0.340E+00
DAV:  51    -0.231587978754E+03   -0.84213E-03   -0.22186E-03 40656   0.875E-02    0.337E+00
DAV:  52    -0.231584194307E+03    0.37844E-02   -0.25084E-02 42984   0.189E-01    0.339E+00
DAV:  53    -0.231582124962E+03    0.20693E-02   -0.25415E-02 43272   0.298E-01    0.240E+00
DAV:  54    -0.231586791621E+03   -0.46667E-02   -0.10603E-02 36576   0.163E-01    0.204E+00
DAV:  55    -0.231593117059E+03   -0.63254E-02   -0.14682E-02 37640   0.157E-01    0.249E+00
DAV:  56    -0.231596407584E+03   -0.32905E-02   -0.13164E-02 39416   0.129E-01    0.318E+00
DAV:  57    -0.231591192851E+03    0.52147E-02   -0.28994E-03 36816   0.170E-01    0.318E+00
DAV:  58    -0.231590561656E+03    0.63119E-03   -0.74051E-04 42808   0.148E-01    0.324E+00
DAV:  59    -0.231581042549E+03    0.95191E-02   -0.19287E-02 42736   0.129E-01    0.231E+00
DAV:  60    -0.231583742750E+03   -0.27002E-02   -0.16722E-02 36352   0.133E-01    0.171E+00
DAV:  61    -0.231594326247E+03   -0.10583E-01   -0.75224E-03 36616   0.150E-01    0.216E+00
DAV:  62    -0.231590848005E+03    0.34782E-02   -0.17428E-03 39976   0.837E-02    0.201E+00
DAV:  63    -0.231592153346E+03   -0.13053E-02   -0.18334E-03 39200   0.967E-02    0.215E+00
DAV:  64    -0.231590740124E+03    0.14132E-02   -0.30423E-03 40744   0.108E-01    0.220E+00
DAV:  65    -0.231592389433E+03   -0.16493E-02   -0.10716E-03 42088   0.715E-02    0.234E+00
DAV:  66    -0.231588884576E+03    0.35049E-02   -0.43097E-03 42032   0.117E-01    0.220E+00
DAV:  67    -0.231590048682E+03   -0.11641E-02   -0.16428E-03 41480   0.135E-01    0.238E+00
DAV:  68    -0.231589770919E+03    0.27776E-03   -0.29665E-04 35152   0.761E-02    0.239E+00
DAV:  69    -0.231589183759E+03    0.58716E-03   -0.39711E-04 36360   0.362E-02    0.236E+00
DAV:  70    -0.231588843289E+03    0.34047E-03   -0.53107E-04 39000   0.546E-02    0.223E+00
DAV:  71    -0.231588634698E+03    0.20859E-03   -0.32760E-04 41104   0.425E-02    0.209E+00
DAV:  72    -0.231599933993E+03   -0.11299E-01   -0.48960E-02 43912   0.234E-01    0.315E+00
DAV:  73    -0.231591496179E+03    0.84378E-02   -0.24985E-03 35944   0.230E-01    0.276E+00
DAV:  74    -0.231590404679E+03    0.10915E-02   -0.49365E-04 42784   0.621E-02    0.265E+00
DAV:  75    -0.231591215732E+03   -0.81105E-03   -0.98042E-05 31928   0.335E-02    0.271E+00
DAV:  76    -0.231590926034E+03    0.28970E-03   -0.17339E-05 22176   0.144E-02    0.267E+00
DAV:  77    -0.231592985756E+03   -0.20597E-02   -0.41940E-03 43168   0.143E-01    0.262E+00
DAV:  78    -0.231593401357E+03   -0.41560E-03   -0.57313E-04 40424   0.110E-01    0.268E+00
DAV:  79    -0.231592799649E+03    0.60171E-03   -0.15043E-04 37648   0.557E-02    0.268E+00
DAV:  80    -0.231591122139E+03    0.16775E-02   -0.18610E-03 42760   0.789E-02    0.238E+00
DAV:  81    -0.231592060113E+03   -0.93797E-03   -0.26833E-03 43024   0.104E-01    0.205E+00
DAV:  82    -0.231596128491E+03   -0.40684E-02   -0.32427E-03 43160   0.269E-01    0.246E+00
DAV:  83    -0.231595133188E+03    0.99530E-03   -0.46558E-03 42544   0.183E-01    0.233E+00
DAV:  84    -0.231599534621E+03   -0.44014E-02   -0.51605E-03 42208   0.199E-01    0.306E+00
DAV:  85    -0.231596653337E+03    0.28813E-02   -0.16218E-03 34536   0.170E-01    0.327E+00
DAV:  86    -0.231593784433E+03    0.28689E-02   -0.37810E-04 41792   0.780E-02    0.315E+00
DAV:  87    -0.231601768128E+03   -0.79837E-02   -0.29875E-03 41368   0.201E-01    0.431E+00
DAV:  88    -0.231588637408E+03    0.13131E-01   -0.15334E-03 33960   0.156E-01    0.370E+00
DAV:  89    -0.231585219861E+03    0.34175E-02   -0.61132E-04 43856   0.942E-02    0.274E+00
DAV:  90    -0.231586968026E+03   -0.17482E-02   -0.79319E-04 37560   0.130E-01    0.194E+00
DAV:  91    -0.231589515665E+03   -0.25476E-02   -0.86063E-04 40472   0.125E-01    0.142E+00
DAV:  92    -0.231590108411E+03   -0.59275E-03   -0.40737E-03 43664   0.202E-01    0.689E-01
DAV:  93    -0.231591909861E+03   -0.18015E-02   -0.22948E-03 41968   0.134E-01    0.563E-01
DAV:  94    -0.231592052296E+03   -0.14243E-03   -0.31444E-03 42416   0.112E-01    0.623E-01
DAV:  95    -0.231591945943E+03    0.10635E-03   -0.18072E-03 42872   0.731E-02    0.761E-01
DAV:  96    -0.231591798505E+03    0.14744E-03   -0.11873E-04 33024   0.459E-02    0.758E-01
DAV:  97    -0.231590992881E+03    0.80562E-03   -0.35491E-04 36160   0.666E-02    0.767E-01
DAV:  98    -0.231590727181E+03    0.26570E-03   -0.34066E-04 36864   0.456E-02    0.808E-01
DAV:  99    -0.231590539088E+03    0.18809E-03   -0.35984E-04 38096   0.540E-02    0.879E-01
DAV: 100    -0.231590424054E+03    0.11503E-03   -0.19145E-04 37496   0.336E-02    0.903E-01
DAV: 101    -0.231590378838E+03    0.45217E-04   -0.54994E-05 26072   0.220E-02    0.899E-01
DAV: 102    -0.231591070455E+03   -0.69162E-03   -0.47684E-04 41688   0.700E-02    0.832E-01
DAV: 103    -0.231590944480E+03    0.12598E-03   -0.58196E-04 39904   0.520E-02    0.832E-01
DAV: 104    -0.231589674049E+03    0.12704E-02   -0.34111E-03 43712   0.115E-01    0.938E-01
DAV: 105    -0.231588365613E+03    0.13084E-02   -0.31297E-03 42664   0.931E-02    0.111E+00
DAV: 106    -0.231587301631E+03    0.10640E-02   -0.56562E-04 41504   0.757E-02    0.113E+00
DAV: 107    -0.231586516573E+03    0.78506E-03   -0.69353E-04 44784   0.798E-02    0.109E+00
DAV: 108    -0.231585893710E+03    0.62286E-03   -0.47178E-04 42288   0.461E-02    0.113E+00
DAV: 109    -0.231586570481E+03   -0.67677E-03   -0.61948E-04 38432   0.621E-02    0.104E+00
DAV: 110    -0.231587519672E+03   -0.94919E-03   -0.10768E-03 42456   0.866E-02    0.887E-01
DAV: 111    -0.231587401548E+03    0.11812E-03   -0.61543E-04 41624   0.673E-02    0.837E-01
DAV: 112    -0.231587330171E+03    0.71377E-04   -0.18717E-03 38856   0.578E-02    0.959E-01
DAV: 113    -0.231587037451E+03    0.29272E-03   -0.24834E-04 38960   0.687E-02    0.869E-01
DAV: 114    -0.231586647189E+03    0.39026E-03   -0.97655E-05 34912   0.296E-02    0.868E-01
DAV: 115    -0.231586448977E+03    0.19821E-03   -0.17306E-05 23224   0.127E-02    0.854E-01
DAV: 116    -0.231586236048E+03    0.21293E-03   -0.19482E-05 21384   0.973E-03    0.864E-01
DAV: 117    -0.231584436319E+03    0.17997E-02   -0.63316E-04 41528   0.737E-02    0.863E-01
DAV: 118    -0.231582475390E+03    0.19609E-02   -0.10602E-03 41944   0.663E-02    0.983E-01
DAV: 119    -0.231582399653E+03    0.75737E-04   -0.10497E-04 32928   0.315E-02    0.998E-01
DAV: 120    -0.231582379573E+03    0.20079E-04   -0.97819E-06 23024   0.125E-02    0.996E-01
DAV: 121    -0.231582346691E+03    0.32882E-04   -0.26048E-06 19192   0.488E-03    0.997E-01
DAV: 122    -0.231581490802E+03    0.85589E-03   -0.98830E-05 30064   0.358E-02    0.991E-01
DAV: 123    -0.231579715776E+03    0.17750E-02   -0.44451E-04 39552   0.548E-02    0.106E+00
DAV: 124    -0.231579121009E+03    0.59477E-03   -0.11406E-04 32024   0.234E-02    0.109E+00
DAV: 125    -0.231579601816E+03   -0.48081E-03   -0.48636E-05 28552   0.235E-02    0.111E+00
DAV: 126    -0.231579806026E+03   -0.20421E-03   -0.15513E-05 25048   0.109E-02    0.111E+00
DAV: 127    -0.231581624328E+03   -0.18183E-02   -0.67440E-04 40112   0.677E-02    0.999E-01
DAV: 128    -0.231581807234E+03   -0.18291E-03   -0.14916E-04 32472   0.340E-02    0.955E-01
DAV: 129    -0.231582599705E+03   -0.79247E-03   -0.23984E-04 30416   0.311E-02    0.876E-01
DAV: 130    -0.231582816616E+03   -0.21691E-03   -0.41057E-05 28064   0.182E-02    0.864E-01
DAV: 131    -0.231582872790E+03   -0.56174E-04   -0.51576E-06 20624   0.105E-02    0.870E-01
DAV: 132    -0.231589992536E+03   -0.71197E-02   -0.17133E-02 44120   0.330E-01    0.158E+00
DAV: 133    -0.231589372672E+03    0.61986E-03   -0.15567E-03 34416   0.131E-01    0.148E+00
DAV: 134    -0.231590568357E+03   -0.11957E-02   -0.29713E-04 41992   0.656E-02    0.165E+00
DAV: 135    -0.231589315691E+03    0.12527E-02   -0.79242E-04 38376   0.642E-02    0.134E+00
DAV: 136    -0.231589540771E+03   -0.22508E-03   -0.14212E-04 32112   0.358E-02    0.125E+00
DAV: 137    -0.231597842042E+03   -0.83013E-02   -0.69064E-03 44440   0.200E-01    0.254E+00
DAV: 138    -0.231594719150E+03    0.31229E-02   -0.98652E-04 33872   0.130E-01    0.281E+00
DAV: 139    -0.231593495323E+03    0.12238E-02   -0.14382E-04 36208   0.453E-02    0.299E+00
DAV: 140    -0.231592912979E+03    0.58234E-03   -0.57721E-04 40480   0.766E-02    0.326E+00
DAV: 141    -0.231586385200E+03    0.65278E-02   -0.35275E-03 40904   0.146E-01    0.174E+00
DAV: 142    -0.231591636349E+03   -0.52511E-02   -0.29505E-03 40392   0.193E-01    0.122E+00
DAV: 143    -0.231593495981E+03   -0.18596E-02   -0.61493E-04 39104   0.718E-02    0.123E+00
DAV: 144    -0.231593499449E+03   -0.34684E-05   -0.51024E-05 29736   0.196E-02
   2 F= -.23159350E+03 E0= -.23157858E+03  d E =-.420681E-02  mag=     8.0687
       N       E                     dE             d eps       ncg     rms          rms(c)
DAV:   1    -0.231618263922E+03   -0.24768E-01   -0.16491E-01 34576   0.177E+00    0.117E+00
DAV:   2    -0.231665287656E+03   -0.47024E-01   -0.34569E-01 42792   0.146E+00    0.393E+00
DAV:   3    -0.231628802100E+03    0.36486E-01   -0.10116E-01 38832   0.150E+00    0.298E+00
DAV:   4    -0.231621903979E+03    0.68981E-02   -0.48290E-02 40536   0.668E-01    0.334E+00
DAV:   5    -0.231618258995E+03    0.36450E-02   -0.14082E-02 40280   0.703E-01    0.224E+00
DAV:   6    -0.231618151721E+03    0.10727E-03   -0.20994E-02 42624   0.773E-01    0.116E+00
DAV:   7    -0.231622468216E+03   -0.43165E-02   -0.14672E-02 38952   0.521E-01    0.989E-01
DAV:   8    -0.231622913036E+03   -0.44482E-03   -0.17121E-03 40568   0.140E-01    0.115E+00
DAV:   9    -0.231623296745E+03   -0.38371E-03   -0.43052E-03 43624   0.228E-01    0.150E+00
DAV:  10    -0.231621448427E+03    0.18483E-02   -0.38982E-03 44104   0.306E-01    0.145E+00
DAV:  11    -0.231620600530E+03    0.84790E-03   -0.25668E-03 44648   0.202E-01    0.151E+00
DAV:  12    -0.231621015231E+03   -0.41470E-03   -0.10670E-02 43248   0.226E-01    0.202E+00
DAV:  13    -0.231618390761E+03    0.26245E-02   -0.10878E-03 38696   0.140E-01    0.215E+00
DAV:  14    -0.231615635797E+03    0.27550E-02   -0.66882E-03 40136   0.349E-01    0.168E+00
DAV:  15    -0.231615936990E+03   -0.30119E-03   -0.34942E-02 44600   0.564E-01    0.105E+00
DAV:  16    -0.231622322237E+03   -0.63852E-02   -0.10239E-02 43472   0.477E-01    0.169E+00
DAV:  17    -0.231622032508E+03    0.28973E-03   -0.32580E-03 40240   0.309E-01    0.205E+00
DAV:  18    -0.231621154579E+03    0.87793E-03   -0.41563E-04 36544   0.731E-02    0.220E+00
DAV:  19    -0.231622041923E+03   -0.88734E-03   -0.22748E-03 42904   0.150E-01    0.246E+00
DAV:  20    -0.231621392954E+03    0.64897E-03   -0.12895E-03 42976   0.111E-01    0.252E+00
DAV:  21    -0.231619542717E+03    0.18502E-02   -0.14213E-03 43096   0.921E-02    0.215E+00
DAV:  22    -0.231618240122E+03    0.13026E-02   -0.20680E-03 42648   0.113E-01    0.132E+00
DAV:  23    -0.231619352942E+03   -0.11128E-02   -0.11905E-03 38880   0.146E-01    0.663E-01
DAV:  24    -0.231620412297E+03   -0.10594E-02   -0.87172E-04 39352   0.117E-01    0.416E-01
DAV:  25    -0.231620615524E+03   -0.20323E-03   -0.74108E-04 42664   0.771E-02    0.361E-01
DAV:  26    -0.231620641684E+03   -0.26160E-04   -0.30184E-04 37696   0.540E-02    0.363E-01
DAV:  27    -0.231620447806E+03    0.19388E-03   -0.17635E-04 35048   0.549E-02    0.356E-01
DAV:  28    -0.231620060977E+03    0.38683E-03   -0.28953E-04 40696   0.575E-02    0.376E-01
DAV:  29    -0.231619880908E+03    0.18007E-03   -0.20794E-04 33936   0.382E-02    0.392E-01
DAV:  30    -0.231619703696E+03    0.17721E-03   -0.62486E-05 30232   0.285E-02    0.415E-01
DAV:  31    -0.231619639960E+03    0.63736E-04   -0.13637E-05 22328   0.120E-02    0.424E-01
DAV:  32    -0.231619582796E+03    0.57165E-04   -0.50299E-06 18528   0.668E-03    0.424E-01
DAV:  33    -0.231619583923E+03   -0.11277E-05   -0.13372E-06 18424   0.377E-03
   3 F= -.23161958E+03 E0= -.23160566E+03  d E =-.260845E-01  mag=     7.9528
       N       E                     dE             d eps       ncg     rms          rms(c)
DAV:   1    -0.231680741876E+03   -0.61159E-01   -0.16233E+00 34544   0.556E+00    0.590E-01
DAV:   2    -0.231715600222E+03   -0.34858E-01   -0.29296E-01 35968   0.144E+00    0.300E+00
DAV:   3    -0.231700371239E+03    0.15229E-01   -0.15087E-02 42344   0.613E-01    0.190E+00
DAV:   4    -0.231697578267E+03    0.27930E-02   -0.15454E-02 46632   0.439E-01    0.915E-01
DAV:   5    -0.231699840381E+03   -0.22621E-02   -0.20566E-02 43200   0.554E-01    0.685E-01
DAV:   6    -0.231699661363E+03    0.17902E-03   -0.35067E-03 41888   0.279E-01    0.398E-01
DAV:   7    -0.231700033813E+03   -0.37245E-03   -0.15956E-03 43792   0.246E-01    0.537E-01
DAV:   8    -0.231700909032E+03   -0.87522E-03   -0.45492E-03 41904   0.339E-01    0.888E-01
DAV:   9    -0.231700856844E+03    0.52188E-04   -0.22033E-03 40952   0.320E-01    0.974E-01
DAV:  10    -0.231700659168E+03    0.19768E-03   -0.79069E-04 42040   0.188E-01    0.106E+00
DAV:  11    -0.231699437285E+03    0.12219E-02   -0.47703E-04 41976   0.106E-01    0.981E-01
DAV:  12    -0.231698887962E+03    0.54932E-03   -0.13186E-03 40016   0.158E-01    0.762E-01
DAV:  13    -0.231699108521E+03   -0.22056E-03   -0.30211E-04 40088   0.969E-02    0.686E-01
DAV:  14    -0.231699222833E+03   -0.11431E-03   -0.23810E-04 39944   0.842E-02    0.631E-01
DAV:  15    -0.231699167168E+03    0.55665E-04   -0.32704E-04 39608   0.980E-02    0.609E-01
DAV:  16    -0.231699092859E+03    0.74309E-04   -0.45453E-04 41640   0.115E-01    0.534E-01
DAV:  17    -0.231698995001E+03    0.97859E-04   -0.40714E-04 41488   0.109E-01    0.457E-01
DAV:  18    -0.231698586858E+03    0.40814E-03   -0.73984E-04 44048   0.110E-01    0.488E-01
DAV:  19    -0.231698225516E+03    0.36134E-03   -0.65292E-04 44552   0.904E-02    0.531E-01
DAV:  20    -0.231697878660E+03    0.34686E-03   -0.44285E-04 40848   0.548E-02    0.627E-01
DAV:  21    -0.231697938915E+03   -0.60254E-04   -0.25679E-04 35224   0.664E-02    0.595E-01
DAV:  22    -0.231698385976E+03   -0.44706E-03   -0.14780E-03 42320   0.128E-01    0.445E-01
DAV:  23    -0.231699132394E+03   -0.74642E-03   -0.35096E-04 42536   0.777E-02    0.557E-01
DAV:  24    -0.231699251299E+03   -0.11891E-03   -0.10351E-04 31304   0.422E-02    0.654E-01
DAV:  25    -0.231699208662E+03    0.42637E-04   -0.38675E-05 25112   0.237E-02    0.627E-01
DAV:  26    -0.231698719106E+03    0.48956E-03   -0.33841E-04 35976   0.469E-02    0.413E-01
DAV:  27    -0.231698666368E+03    0.52738E-04   -0.69478E-04 39960   0.581E-02    0.318E-01
DAV:  28    -0.231698251167E+03    0.41520E-03   -0.97589E-04 40688   0.656E-02    0.365E-01
DAV:  29    -0.231698162321E+03    0.88845E-04   -0.15294E-04 32984   0.313E-02    0.404E-01
DAV:  30    -0.231698118769E+03    0.43552E-04   -0.38262E-05 26568   0.204E-02    0.440E-01
DAV:  31    -0.231698086137E+03    0.32632E-04   -0.64486E-06 21504   0.863E-03    0.443E-01
DAV:  32    -0.231698116716E+03   -0.30579E-04   -0.59821E-06 19544   0.780E-03    0.429E-01
DAV:  33    -0.231698298705E+03   -0.18199E-03   -0.85678E-05 27000   0.237E-02    0.385E-01
DAV:  34    -0.231698721865E+03   -0.42316E-03   -0.48507E-04 39584   0.520E-02    0.301E-01
DAV:  35    -0.231699366016E+03   -0.64415E-03   -0.84176E-04 43000   0.702E-02    0.353E-01
DAV:  36    -0.231700238882E+03   -0.87287E-03   -0.46060E-04 41880   0.593E-02    0.676E-01
DAV:  37    -0.231699543382E+03    0.69550E-03   -0.13027E-04 32320   0.526E-02    0.590E-01
DAV:  38    -0.231699227832E+03    0.31555E-03   -0.66910E-05 30696   0.241E-02    0.464E-01
DAV:  39    -0.231698912054E+03    0.31578E-03   -0.22219E-04 36168   0.411E-02    0.318E-01
DAV:  40    -0.231698775432E+03    0.13662E-03   -0.30424E-04 37800   0.440E-02    0.277E-01
DAV:  41    -0.231698607816E+03    0.16762E-03   -0.29006E-04 35672   0.383E-02    0.312E-01
DAV:  42    -0.231698365250E+03    0.24257E-03   -0.24885E-04 35584   0.345E-02    0.378E-01
DAV:  43    -0.231698176072E+03    0.18918E-03   -0.10434E-04 30456   0.232E-02    0.430E-01
DAV:  44    -0.231698102094E+03    0.73978E-04   -0.15977E-05 23320   0.140E-02    0.439E-01
DAV:  45    -0.231698039035E+03    0.63059E-04   -0.46867E-06 19968   0.595E-03    0.448E-01
DAV:  46    -0.231698008738E+03    0.30297E-04   -0.11727E-06 18640   0.343E-03    0.450E-01
DAV:  47    -0.231697991752E+03    0.16987E-04   -0.11128E-06 17512   0.266E-03    0.454E-01
DAV:  48    -0.231697985394E+03    0.63579E-05   -0.20349E-07 17352   0.168E-03
   4 F= -.23169799E+03 E0= -.23168420E+03  d E =-.784015E-01  mag=     7.9315
       N       E                     dE             d eps       ncg     rms          rms(c)
DAV:   1    -0.231758903642E+03   -0.60912E-01   -0.41778E+00 34256   0.914E+00    0.826E-01
DAV:   2    -0.231831018571E+03   -0.72115E-01   -0.68127E-01 35736   0.207E+00    0.346E+00
DAV:   3    -0.231807732162E+03    0.23286E-01   -0.30734E-02 42800   0.901E-01    0.195E+00
DAV:   4    -0.231806324386E+03    0.14078E-02   -0.22733E-02 45408   0.552E-01    0.108E+00
DAV:   5    -0.231808840283E+03   -0.25159E-02   -0.39988E-02 42656   0.831E-01    0.904E-01
DAV:   6    -0.231807961603E+03    0.87868E-03   -0.85230E-03 42160   0.481E-01    0.460E-01
DAV:   7    -0.231808691770E+03   -0.73017E-03   -0.38612E-03 44040   0.350E-01    0.696E-01
DAV:   8    -0.231809954001E+03   -0.12622E-02   -0.48717E-03 42480   0.369E-01    0.105E+00
DAV:   9    -0.231810960920E+03   -0.10069E-02   -0.30180E-03 42584   0.322E-01    0.134E+00
DAV:  10    -0.231809586648E+03    0.13743E-02   -0.54206E-04 34376   0.827E-02    0.139E+00
DAV:  11    -0.231809215236E+03    0.37141E-03   -0.13601E-03 39448   0.179E-01    0.138E+00
DAV:  12    -0.231807880092E+03    0.13351E-02   -0.14793E-03 41744   0.177E-01    0.128E+00
DAV:  13    -0.231807611589E+03    0.26850E-03   -0.32303E-04 41384   0.952E-02    0.114E+00
DAV:  14    -0.231809875419E+03   -0.22638E-02   -0.45990E-04 40320   0.147E-01    0.141E+00
DAV:  15    -0.231808112839E+03    0.17626E-02   -0.30755E-04 37672   0.962E-02    0.134E+00
DAV:  16    -0.231807968415E+03    0.14442E-03   -0.57208E-05 32296   0.330E-02    0.127E+00
DAV:  17    -0.231806406385E+03    0.15620E-02   -0.57107E-04 42176   0.117E-01    0.102E+00
DAV:  18    -0.231806653096E+03   -0.24671E-03   -0.54024E-04 43768   0.138E-01    0.851E-01
DAV:  19    -0.231805495940E+03    0.11572E-02   -0.12572E-03 44592   0.153E-01    0.658E-01
DAV:  20    -0.231806570933E+03   -0.10750E-02   -0.34765E-04 38328   0.620E-02    0.609E-01
DAV:  21    -0.231807098401E+03   -0.52747E-03   -0.22196E-04 32768   0.561E-02    0.641E-01
DAV:  22    -0.231807561594E+03   -0.46319E-03   -0.19155E-04 37200   0.654E-02    0.602E-01
DAV:  23    -0.231807098728E+03    0.46287E-03   -0.87232E-04 39680   0.160E-01    0.551E-01
DAV:  24    -0.231807265918E+03   -0.16719E-03   -0.74593E-04 42896   0.189E-01    0.385E-01
DAV:  25    -0.231806576380E+03    0.68954E-03   -0.80688E-04 44416   0.998E-02    0.317E-01
DAV:  26    -0.231806209940E+03    0.36644E-03   -0.75663E-04 41344   0.881E-02    0.411E-01
DAV:  27    -0.231806597925E+03   -0.38799E-03   -0.19676E-04 34224   0.584E-02    0.357E-01
DAV:  28    -0.231806766568E+03   -0.16864E-03   -0.16636E-04 32048   0.417E-02    0.334E-01
DAV:  29    -0.231806922485E+03   -0.15592E-03   -0.34017E-04 39376   0.587E-02    0.405E-01
DAV:  30    -0.231807266355E+03   -0.34387E-03   -0.22252E-04 37128   0.565E-02    0.460E-01
DAV:  31    -0.231807499618E+03   -0.23326E-03   -0.10618E-04 31352   0.431E-02    0.556E-01
DAV:  32    -0.231807616799E+03   -0.11718E-03   -0.18372E-04 31624   0.357E-02    0.671E-01
DAV:  33    -0.231807525593E+03    0.91206E-04   -0.51777E-05 26312   0.212E-02    0.716E-01
DAV:  34    -0.231807410996E+03    0.11460E-03   -0.74953E-06 20800   0.979E-03    0.720E-01
DAV:  35    -0.231807683233E+03   -0.27224E-03   -0.38085E-05 22752   0.165E-02    0.845E-01
DAV:  36    -0.231807404142E+03    0.27909E-03   -0.13684E-05 22440   0.157E-02    0.832E-01
DAV:  37    -0.231806618221E+03    0.78592E-03   -0.19327E-04 31592   0.442E-02    0.568E-01
DAV:  38    -0.231806283762E+03    0.33446E-03   -0.25459E-03 43184   0.106E-01    0.434E-01
DAV:  39    -0.231806643637E+03   -0.35987E-03   -0.42403E-04 37992   0.558E-02    0.456E-01
DAV:  40    -0.231806620595E+03    0.23042E-04   -0.48823E-05 27560   0.221E-02    0.470E-01
DAV:  41    -0.231806510541E+03    0.11005E-03   -0.29171E-05 22968   0.119E-02    0.495E-01
DAV:  42    -0.231806432621E+03    0.77920E-04   -0.67616E-06 20984   0.117E-02    0.493E-01
DAV:  43    -0.231806346920E+03    0.85701E-04   -0.20593E-04 27744   0.300E-02    0.444E-01
DAV:  44    -0.231805936771E+03    0.41015E-03   -0.40772E-04 38464   0.526E-02    0.497E-01
DAV:  45    -0.231805479186E+03    0.45759E-03   -0.35416E-04 41176   0.489E-02    0.589E-01
DAV:  46    -0.231805346743E+03    0.13244E-03   -0.49853E-05 30496   0.244E-02    0.597E-01
DAV:  47    -0.231805366364E+03   -0.19621E-04   -0.28902E-05 23704   0.179E-02    0.580E-01
DAV:  48    -0.231805447778E+03   -0.81414E-04   -0.30508E-05 23376   0.137E-02    0.550E-01
DAV:  49    -0.231805895574E+03   -0.44780E-03   -0.20249E-04 33520   0.369E-02    0.482E-01
DAV:  50    -0.231806628843E+03   -0.73327E-03   -0.18582E-03 42800   0.112E-01    0.386E-01
DAV:  51    -0.231807923557E+03   -0.12947E-02   -0.82132E-04 43504   0.745E-02    0.679E-01
DAV:  52    -0.231808786491E+03   -0.86293E-03   -0.48684E-04 38736   0.802E-02    0.102E+00
DAV:  53    -0.231808085623E+03    0.70087E-03   -0.13191E-04 32960   0.497E-02    0.109E+00
DAV:  54    -0.231807743651E+03    0.34197E-03   -0.13484E-05 25344   0.134E-02    0.110E+00
DAV:  55    -0.231807688122E+03    0.55529E-04   -0.56713E-06 20888   0.679E-03    0.112E+00
DAV:  56    -0.231808001476E+03   -0.31335E-03   -0.47213E-05 22528   0.153E-02    0.125E+00
DAV:  57    -0.231809664221E+03   -0.16627E-02   -0.26809E-04 37296   0.500E-02    0.186E+00
DAV:  58    -0.231807687753E+03    0.19765E-02   -0.15896E-04 31664   0.605E-02    0.191E+00
DAV:  59    -0.231807506224E+03    0.18153E-03   -0.21676E-05 27256   0.143E-02    0.201E+00
DAV:  60    -0.231805948072E+03    0.15582E-02   -0.67985E-05 26960   0.260E-02    0.172E+00
DAV:  61    -0.231808064945E+03   -0.21169E-02   -0.26660E-04 32680   0.441E-02    0.197E+00
DAV:  62    -0.231815386710E+03   -0.73218E-02   -0.99744E-04 41544   0.110E-01    0.357E+00
DAV:  63    -0.231809378192E+03    0.60085E-02   -0.83755E-04 33176   0.141E-01    0.384E+00
DAV:  64    -0.231802758944E+03    0.66192E-02   -0.22626E-04 37728   0.646E-02    0.336E+00
DAV:  65    -0.231800851732E+03    0.19072E-02   -0.19897E-04 39008   0.650E-02    0.259E+00
DAV:  66    -0.231803186463E+03   -0.23347E-02   -0.26374E-04 34392   0.771E-02    0.211E+00
DAV:  67    -0.231803918501E+03   -0.73204E-03   -0.26120E-04 37528   0.680E-02    0.152E+00
DAV:  68    -0.231804083516E+03   -0.16502E-03   -0.71154E-04 39976   0.993E-02    0.789E-01
DAV:  69    -0.231805458257E+03   -0.13747E-02   -0.17746E-03 40712   0.117E-01    0.442E-01
DAV:  70    -0.231806322747E+03   -0.86449E-03   -0.16692E-03 42304   0.837E-02    0.555E-01
DAV:  71    -0.231806435477E+03   -0.11273E-03   -0.30339E-04 33776   0.428E-02    0.621E-01
DAV:  72    -0.231805938510E+03    0.49697E-03   -0.32455E-04 34344   0.407E-02    0.697E-01
DAV:  73    -0.231805724358E+03    0.21415E-03   -0.65564E-05 29512   0.283E-02    0.713E-01
DAV:  74    -0.231805622003E+03    0.10235E-03   -0.77099E-06 22152   0.975E-03    0.706E-01
DAV:  75    -0.231805644407E+03   -0.22404E-04   -0.33679E-05 22928   0.148E-02    0.673E-01
DAV:  76    -0.231805777557E+03   -0.13315E-03   -0.23051E-05 21600   0.104E-02    0.684E-01
DAV:  77    -0.231805987377E+03   -0.20982E-03   -0.88211E-04 38360   0.730E-02    0.523E-01
DAV:  78    -0.231806815765E+03   -0.82839E-03   -0.56999E-04 43136   0.588E-02    0.520E-01
DAV:  79    -0.231807385366E+03   -0.56960E-03   -0.15837E-04 34312   0.348E-02    0.597E-01
DAV:  80    -0.231807880416E+03   -0.49505E-03   -0.15552E-04 30576   0.329E-02    0.767E-01
DAV:  81    -0.231807841045E+03    0.39371E-04   -0.60002E-05 28792   0.278E-02    0.851E-01
DAV:  82    -0.231808134590E+03   -0.29354E-03   -0.56317E-05 25256   0.220E-02    0.103E+00
DAV:  83    -0.231807761102E+03    0.37349E-03   -0.25932E-05 25648   0.219E-02    0.106E+00
DAV:  84    -0.231807594828E+03    0.16627E-03   -0.43692E-06 21112   0.784E-03    0.107E+00
DAV:  85    -0.231807443539E+03    0.15129E-03   -0.39254E-06 18128   0.662E-03    0.104E+00
DAV:  86    -0.231807512494E+03   -0.68955E-04   -0.10712E-06 17448   0.422E-03    0.103E+00
DAV:  87    -0.231805471925E+03    0.20406E-02   -0.18757E-03 40552   0.126E-01    0.569E-01
DAV:  88    -0.231806721918E+03   -0.12500E-02   -0.10625E-03 37416   0.778E-02    0.658E-01
DAV:  89    -0.231806783370E+03   -0.61452E-04   -0.13456E-04 32400   0.352E-02    0.697E-01
DAV:  90    -0.231806672679E+03    0.11069E-03   -0.17604E-05 25368   0.166E-02    0.700E-01
DAV:  91    -0.231806634847E+03    0.37832E-04   -0.29306E-06 19808   0.519E-03    0.700E-01
DAV:  92    -0.231806740587E+03   -0.10574E-03   -0.54539E-04 33648   0.477E-02    0.638E-01
DAV:  93    -0.231806948930E+03   -0.20834E-03   -0.41319E-05 26896   0.242E-02    0.634E-01
DAV:  94    -0.231806962306E+03   -0.13376E-04   -0.86271E-06 21144   0.122E-02    0.635E-01
DAV:  95    -0.231806827432E+03    0.13487E-03   -0.77123E-05 26168   0.236E-02    0.660E-01
DAV:  96    -0.231806782630E+03    0.44802E-04   -0.11909E-05 21816   0.107E-02    0.667E-01
DAV:  97    -0.231807542117E+03   -0.75949E-03   -0.24922E-03 39656   0.138E-01    0.659E-01
DAV:  98    -0.231807305637E+03    0.23648E-03   -0.21693E-04 33968   0.663E-02    0.584E-01
DAV:  99    -0.231806758642E+03    0.54699E-03   -0.11454E-03 38888   0.732E-02    0.522E-01
DAV: 100    -0.231806752597E+03    0.60448E-05   -0.92880E-04 39968   0.529E-02    0.627E-01
DAV: 101    -0.231806384516E+03    0.36808E-03   -0.12614E-03 38632   0.557E-02    0.808E-01
DAV: 102    -0.231805946620E+03    0.43790E-03   -0.19566E-04 32112   0.485E-02    0.763E-01
DAV: 103    -0.231805812603E+03    0.13402E-03   -0.38464E-05 25624   0.161E-02    0.779E-01
DAV: 104    -0.231805690499E+03    0.12210E-03   -0.89862E-06 21304   0.987E-03    0.785E-01
DAV: 105    -0.231805680767E+03    0.97326E-05   -0.14628E-05 22008   0.110E-02
   5 F= -.23180568E+03 E0= -.23179159E+03  d E =-.107695E+00  mag=     7.9171
       N       E                     dE             d eps       ncg     rms          rms(c)
DAV:   1    -0.231778079646E+03    0.27611E-01   -0.11246E+01 34776   0.164E+01    0.148E+00
DAV:   2    -0.231994956199E+03   -0.21688E+00   -0.21131E+00 35832   0.375E+00    0.499E+00
DAV:   3    -0.231934414455E+03    0.60542E-01   -0.95474E-02 42072   0.200E+00    0.179E+00
DAV:   4    -0.231936173360E+03   -0.17589E-02   -0.45692E-02 44352   0.838E-01    0.123E+00
DAV:   5    -0.231935277175E+03    0.89619E-03   -0.21844E-02 42160   0.860E-01    0.865E-01
DAV:   6    -0.231937073201E+03   -0.17960E-02   -0.22688E-02 43224   0.899E-01    0.116E+00
DAV:   7    -0.231936546807E+03    0.52639E-03   -0.13353E-02 41432   0.765E-01    0.808E-01
DAV:   8    -0.231936221453E+03    0.32535E-03   -0.65253E-03 43256   0.513E-01    0.524E-01
DAV:   9    -0.231936488387E+03   -0.26693E-03   -0.35761E-03 42960   0.296E-01    0.526E-01
DAV:  10    -0.231937233663E+03   -0.74528E-03   -0.23076E-03 40872   0.325E-01    0.736E-01
DAV:  11    -0.231936898943E+03    0.33472E-03   -0.13990E-03 40568   0.271E-01    0.590E-01
DAV:  12    -0.231936953702E+03   -0.54759E-04   -0.13731E-03 42512   0.260E-01    0.512E-01
DAV:  13    -0.231937144161E+03   -0.19046E-03   -0.56072E-04 44208   0.161E-01    0.455E-01
DAV:  14    -0.231937092860E+03    0.51300E-04   -0.79606E-05 33328   0.293E-02    0.466E-01
DAV:  15    -0.231937959400E+03   -0.86654E-03   -0.12371E-03 42712   0.128E-01    0.786E-01
DAV:  16    -0.231937813061E+03    0.14634E-03   -0.67862E-04 42200   0.977E-02    0.938E-01
DAV:  17    -0.231937804042E+03    0.90183E-05   -0.26333E-04 41000   0.874E-02    0.108E+00
DAV:  18    -0.231937594758E+03    0.20928E-03   -0.29812E-04 40832   0.856E-02    0.114E+00
DAV:  19    -0.231937393879E+03    0.20088E-03   -0.14571E-03 44184   0.100E-01    0.124E+00
DAV:  20    -0.231937249532E+03    0.14435E-03   -0.15675E-04 35320   0.508E-02    0.127E+00
DAV:  21    -0.231936372140E+03    0.87739E-03   -0.37228E-03 43056   0.117E-01    0.112E+00
DAV:  22    -0.231936825545E+03   -0.45340E-03   -0.55180E-04 39952   0.510E-02    0.104E+00
DAV:  23    -0.231936963054E+03   -0.13751E-03   -0.15163E-04 29384   0.385E-02    0.963E-01
DAV:  24    -0.231937421599E+03   -0.45854E-03   -0.15214E-03 41904   0.104E-01    0.101E+00
DAV:  25    -0.231937406388E+03    0.15210E-04   -0.32703E-03 43912   0.140E-01    0.116E+00
DAV:  26    -0.231937367005E+03    0.39383E-04   -0.71168E-04 38320   0.559E-02    0.124E+00
DAV:  27    -0.231937292694E+03    0.74311E-04   -0.72863E-05 30392   0.271E-02    0.129E+00
DAV:  28    -0.231937565056E+03   -0.27236E-03   -0.37605E-04 31552   0.383E-02    0.142E+00
DAV:  29    -0.231937130198E+03    0.43486E-03   -0.53906E-05 29448   0.364E-02    0.141E+00
DAV:  30    -0.231937345473E+03   -0.21527E-03   -0.34230E-05 22912   0.279E-02    0.145E+00
DAV:  31    -0.231937479643E+03   -0.13417E-03   -0.74217E-05 26176   0.215E-02    0.152E+00
DAV:  32    -0.231937660651E+03   -0.18101E-03   -0.27409E-04 34200   0.295E-02    0.161E+00
DAV:  33    -0.231937612285E+03    0.48367E-04   -0.82987E-05 27368   0.204E-02    0.167E+00
DAV:  34    -0.231935678044E+03    0.19342E-02   -0.37374E-03 41272   0.151E-01    0.144E+00
DAV:  35    -0.231934800052E+03    0.87799E-03   -0.25122E-02 44320   0.260E-01    0.124E+00
DAV:  36    -0.231939890580E+03   -0.50905E-02   -0.15907E-02 39576   0.197E-01    0.160E+00
DAV:  37    -0.231939768053E+03    0.12253E-03   -0.15109E-03 35248   0.117E-01    0.176E+00
DAV:  38    -0.231938457296E+03    0.13108E-02   -0.13455E-04 36984   0.461E-02    0.175E+00
DAV:  39    -0.231938859306E+03   -0.40201E-03   -0.34968E-04 31336   0.247E-02    0.184E+00
DAV:  40    -0.231937671502E+03    0.11878E-02   -0.28423E-04 28624   0.246E-02    0.175E+00
DAV:  41    -0.231937041081E+03    0.63042E-03   -0.53295E-04 29416   0.230E-02    0.162E+00
DAV:  42    -0.231936074239E+03    0.96684E-03   -0.14617E-03 40960   0.626E-02    0.147E+00
DAV:  43    -0.231936184448E+03   -0.11021E-03   -0.51676E-04 38472   0.399E-02    0.139E+00
DAV:  44    -0.231936862969E+03   -0.67852E-03   -0.26614E-05 27440   0.204E-02    0.139E+00
DAV:  45    -0.231935939575E+03    0.92339E-03   -0.50984E-04 39720   0.644E-02    0.138E+00
DAV:  46    -0.231934316629E+03    0.16229E-02   -0.18971E-03 43128   0.683E-02    0.129E+00
DAV:  47    -0.231939826537E+03   -0.55099E-02   -0.21578E-02 42560   0.217E-01    0.230E+00
DAV:  48    -0.231933840838E+03    0.59857E-02   -0.17490E-03 33544   0.134E-01    0.224E+00
DAV:  49    -0.231933621565E+03    0.21927E-03   -0.10123E-04 34448   0.254E-02    0.222E+00
DAV:  50    -0.231933562296E+03    0.59269E-04   -0.41063E-04 37464   0.487E-02    0.202E+00
DAV:  51    -0.231929783115E+03    0.37792E-02   -0.26778E-02 42768   0.184E-01    0.834E-01
DAV:  52    -0.231935653664E+03   -0.58705E-02   -0.91816E-03 41016   0.253E-01    0.563E-01
DAV:  53    -0.231934990127E+03    0.66354E-03   -0.36264E-03 36184   0.145E-01    0.533E-01
DAV:  54    -0.231935420832E+03   -0.43071E-03   -0.14474E-03 41456   0.629E-02    0.463E-01
DAV:  55    -0.231935727380E+03   -0.30655E-03   -0.54229E-04 41384   0.572E-02    0.442E-01
DAV:  56    -0.231935734380E+03   -0.70006E-05   -0.16923E-04 39632   0.417E-02    0.426E-01
DAV:  57    -0.231936347592E+03   -0.61321E-03   -0.12134E-03 43728   0.136E-01    0.399E-01
DAV:  58    -0.231936466749E+03   -0.11916E-03   -0.33771E-04 34328   0.446E-02    0.428E-01
DAV:  59    -0.231936478586E+03   -0.11838E-04   -0.13304E-04 27224   0.182E-02    0.417E-01
DAV:  60    -0.231936379173E+03    0.99413E-04   -0.82996E-04 36432   0.369E-02    0.380E-01
DAV:  61    -0.231936038528E+03    0.34065E-03   -0.35660E-03 41608   0.780E-02    0.286E-01
DAV:  62    -0.231936308242E+03   -0.26971E-03   -0.69208E-04 32896   0.579E-02    0.309E-01
DAV:  63    -0.231936234536E+03    0.73705E-04   -0.57724E-05 28968   0.275E-02    0.296E-01
DAV:  64    -0.231936204178E+03    0.30358E-04   -0.19406E-04 35280   0.282E-02    0.298E-01
DAV:  65    -0.231936143850E+03    0.60328E-04   -0.11828E-04 30176   0.219E-02    0.306E-01
DAV:  66    -0.231935991212E+03    0.15264E-03   -0.24950E-04 36224   0.315E-02    0.314E-01
DAV:  67    -0.231935930041E+03    0.61172E-04   -0.66021E-04 34976   0.311E-02    0.289E-01
DAV:  68    -0.231935940876E+03   -0.10835E-04   -0.12887E-04 26400   0.210E-02    0.271E-01
DAV:  69    -0.231935942221E+03   -0.13453E-05   -0.28654E-05 22488   0.142E-02
   6 F= -.23193594E+03 E0= -.23192362E+03  d E =-.130261E+00  mag=     8.0084
       N       E                     dE             d eps       ncg     rms          rms(c)
DAV:   1    -0.231684430449E+03    0.25151E+00   -0.17318E+01 35832   0.238E+01    0.178E+00
DAV:   2    -0.232022656388E+03   -0.33823E+00   -0.35442E+00 35336   0.458E+00    0.171E+00
DAV:   3    -0.232049392255E+03   -0.26736E-01   -0.26909E-01 43840   0.216E+00    0.341E+00
DAV:   4    -0.232022523624E+03    0.26869E-01   -0.91969E-02 38472   0.149E+00    0.222E+00
DAV:   5    -0.232026774412E+03   -0.42508E-02   -0.47768E-03 37592   0.278E-01    0.286E+00
DAV:   6    -0.232025129588E+03    0.16448E-02   -0.16944E-02 43248   0.554E-01    0.365E+00
DAV:   7    -0.232018283764E+03    0.68458E-02   -0.12744E-02 42880   0.713E-01    0.307E+00
DAV:   8    -0.232018061080E+03    0.22268E-03   -0.13439E-02 42440   0.739E-01    0.285E+00
DAV:   9    -0.232015012617E+03    0.30485E-02   -0.81522E-03 40488   0.655E-01    0.191E+00
DAV:  10    -0.232017207401E+03   -0.21948E-02   -0.48576E-03 41880   0.478E-01    0.131E+00
DAV:  11    -0.232019597875E+03   -0.23905E-02   -0.27473E-03 41520   0.359E-01    0.120E+00
DAV:  12    -0.232021336247E+03   -0.17384E-02   -0.20245E-03 43552   0.336E-01    0.155E+00
DAV:  13    -0.232022203655E+03   -0.86741E-03   -0.18812E-03 42688   0.226E-01    0.197E+00
DAV:  14    -0.232021183973E+03    0.10197E-02   -0.87794E-04 40784   0.151E-01    0.212E+00
DAV:  15    -0.232020619005E+03    0.56497E-03   -0.11952E-04 33336   0.392E-02    0.218E+00
DAV:  16    -0.232020479392E+03    0.13961E-03   -0.64031E-04 38760   0.983E-02    0.218E+00
DAV:  17    -0.232020738864E+03   -0.25947E-03   -0.50487E-04 40032   0.110E-01    0.223E+00
DAV:  18    -0.232020898967E+03   -0.16010E-03   -0.60378E-04 37080   0.568E-02    0.230E+00
DAV:  19    -0.232020609239E+03    0.28973E-03   -0.22296E-04 29400   0.430E-02    0.232E+00
DAV:  20    -0.232020337294E+03    0.27194E-03   -0.15606E-04 26040   0.326E-02    0.230E+00
DAV:  21    -0.232020247828E+03    0.89466E-04   -0.19777E-04 28312   0.324E-02    0.229E+00
DAV:  22    -0.232020529542E+03   -0.28171E-03   -0.70087E-04 39536   0.619E-02    0.236E+00
DAV:  23    -0.232020521722E+03    0.78203E-05   -0.23537E-03 42096   0.749E-02    0.243E+00
DAV:  24    -0.232020044974E+03    0.47675E-03   -0.32599E-04 33664   0.445E-02    0.240E+00
DAV:  25    -0.232019858424E+03    0.18655E-03   -0.30897E-05 25864   0.218E-02    0.237E+00
DAV:  26    -0.232019808107E+03    0.50317E-04   -0.12464E-04 28688   0.367E-02    0.238E+00
DAV:  27    -0.232020071077E+03   -0.26297E-03   -0.36426E-05 26920   0.403E-02    0.245E+00
DAV:  28    -0.232020068230E+03    0.28474E-05   -0.37740E-05 23456   0.211E-02
   7 F= -.23202007E+03 E0= -.23200426E+03  d E =-.841260E-01  mag=     8.1075
       N       E                     dE             d eps       ncg     rms          rms(c)
DAV:   1    -0.231639117229E+03    0.38095E+00   -0.28139E+01 34424   0.275E+01    0.323E+00
DAV:   2    -0.232473789807E+03   -0.83467E+00   -0.75479E+00 36680   0.869E+00    0.100E+01
DAV:   3    -0.232089906813E+03    0.38388E+00   -0.67947E-01 39432   0.651E+00    0.315E+00
DAV:   4    -0.232128301100E+03   -0.38394E-01   -0.18908E-01 45416   0.268E+00    0.652E+00
DAV:   5    -0.232112459433E+03    0.15842E-01   -0.57130E-02 40032   0.137E+00    0.642E+00
DAV:   6    -0.232103888640E+03    0.85708E-02   -0.19433E-02 44240   0.626E-01    0.719E+00
DAV:   7    -0.232093790704E+03    0.10098E-01   -0.19602E-02 42568   0.768E-01    0.649E+00
DAV:   8    -0.232070676974E+03    0.23114E-01   -0.81440E-02 43840   0.161E+00    0.267E+00
DAV:   9    -0.232093345536E+03   -0.22669E-01   -0.53384E-02 41592   0.146E+00    0.171E+00
DAV:  10    -0.232103237851E+03   -0.98923E-02   -0.41253E-02 41792   0.117E+00    0.168E+00
DAV:  11    -0.232107677932E+03   -0.44401E-02   -0.99981E-03 42016   0.469E-01    0.222E+00
DAV:  12    -0.232102156797E+03    0.55211E-02   -0.43378E-03 37920   0.370E-01    0.256E+00
DAV:  13    -0.232098441812E+03    0.37150E-02   -0.10548E-03 36832   0.115E-01    0.269E+00
DAV:  14    -0.232095092312E+03    0.33495E-02   -0.59680E-03 42640   0.466E-01    0.317E+00
DAV:  15    -0.232091659826E+03    0.34325E-02   -0.25913E-03 40320   0.233E-01    0.367E+00
DAV:  16    -0.232085812607E+03    0.58472E-02   -0.55045E-04 35888   0.919E-02    0.391E+00
DAV:  17    -0.232087039649E+03   -0.12270E-02   -0.26398E-03 43760   0.257E-01    0.477E+00
DAV:  18    -0.232077813266E+03    0.92264E-02   -0.36454E-03 41376   0.344E-01    0.511E+00
DAV:  19    -0.232070370657E+03    0.74426E-02   -0.21997E-03 42488   0.232E-01    0.534E+00
DAV:  20    -0.232064875388E+03    0.54953E-02   -0.70726E-04 39920   0.861E-02    0.544E+00
DAV:  21    -0.232065952703E+03   -0.10773E-02   -0.11554E-03 41360   0.268E-01    0.604E+00
DAV:  22    -0.232070926140E+03   -0.49734E-02   -0.27912E-03 44736   0.382E-01    0.695E+00
DAV:  23    -0.232063502792E+03    0.74233E-02   -0.81019E-04 35264   0.112E-01    0.709E+00
DAV:  24    -0.232059984173E+03    0.35186E-02   -0.48926E-05 34336   0.317E-02    0.712E+00
DAV:  25    -0.232058604835E+03    0.13793E-02   -0.19157E-05 25128   0.294E-02    0.718E+00
DAV:  26    -0.232058550482E+03    0.54352E-04   -0.22487E-04 41728   0.115E-01    0.696E+00
DAV:  27    -0.232061115735E+03   -0.25653E-02   -0.15283E-03 45016   0.261E-01    0.659E+00
DAV:  28    -0.232065249212E+03   -0.41335E-02   -0.13429E-03 44384   0.215E-01    0.622E+00
DAV:  29    -0.232071062827E+03   -0.58136E-02   -0.74361E-04 45376   0.155E-01    0.604E+00
DAV:  30    -0.232077532646E+03   -0.64698E-02   -0.60984E-04 43568   0.164E-01    0.612E+00
DAV:  31    -0.232082129548E+03   -0.45969E-02   -0.10028E-03 44448   0.140E-01    0.586E+00
DAV:  32    -0.232086417158E+03   -0.42876E-02   -0.77874E-04 45336   0.127E-01    0.569E+00
DAV:  33    -0.232091799147E+03   -0.53820E-02   -0.11584E-03 43976   0.179E-01    0.534E+00
DAV:  34    -0.232097469686E+03   -0.56705E-02   -0.22761E-03 44160   0.223E-01    0.469E+00
DAV:  35    -0.232100735010E+03   -0.32653E-02   -0.18276E-03 42872   0.164E-01    0.399E+00
DAV:  36    -0.232101764569E+03   -0.10296E-02   -0.17556E-03 41736   0.192E-01    0.301E+00
DAV:  37    -0.232102440502E+03   -0.67593E-03   -0.15773E-03 40616   0.169E-01    0.202E+00
DAV:  38    -0.232104957307E+03   -0.25168E-02   -0.21228E-03 39352   0.212E-01    0.101E+00
DAV:  39    -0.232108094486E+03   -0.31372E-02   -0.14417E-03 36688   0.170E-01    0.683E-01
DAV:  40    -0.232109091498E+03   -0.99701E-03   -0.77469E-04 37688   0.125E-01    0.900E-01
DAV:  41    -0.232108302787E+03    0.78871E-03   -0.47012E-04 34408   0.987E-02    0.970E-01
DAV:  42    -0.232107341103E+03    0.96168E-03   -0.15621E-04 36816   0.527E-02    0.105E+00
DAV:  43    -0.232107268490E+03    0.72613E-04   -0.85811E-05 39216   0.452E-02    0.116E+00
DAV:  44    -0.232106790608E+03    0.47788E-03   -0.60018E-05 33632   0.346E-02    0.123E+00
DAV:  45    -0.232106462359E+03    0.32825E-03   -0.26703E-05 26312   0.241E-02    0.117E+00
DAV:  46    -0.232106823044E+03   -0.36069E-03   -0.27422E-05 27800   0.177E-02    0.114E+00
DAV:  47    -0.232107010588E+03   -0.18754E-03   -0.83257E-06 22656   0.104E-02    0.113E+00
DAV:  48    -0.232107016783E+03   -0.61943E-05   -0.25052E-06 18192   0.752E-03
   8 F= -.23210702E+03 E0= -.23209350E+03  d E =-.869486E-01  mag=     9.0328
       N       E                     dE             d eps       ncg     rms          rms(c)
DAV:   1    -0.231247844493E+03    0.85917E+00   -0.68925E+01 33568   0.399E+01    0.335E+00
DAV:   2    -0.232548513723E+03   -0.13007E+01   -0.96395E+00 34992   0.953E+00    0.181E+01
DAV:   3    -0.232061827764E+03    0.48669E+00   -0.53919E-01 40944   0.518E+00    0.352E+00
DAV:   4    -0.232180973223E+03   -0.11915E+00   -0.27611E-01 38448   0.289E+00    0.425E+00
DAV:   5    -0.232150299254E+03    0.30674E-01   -0.68666E-02 40576   0.172E+00    0.255E+00
DAV:   6    -0.232150609030E+03   -0.30978E-03   -0.64920E-03 35704   0.321E-01    0.278E+00
DAV:   7    -0.232156988968E+03   -0.63799E-02   -0.12195E-02 42216   0.719E-01    0.336E+00
DAV:   8    -0.232147338351E+03    0.96506E-02   -0.10607E-01 42464   0.185E+00    0.264E+00
DAV:   9    -0.232145985860E+03    0.13525E-02   -0.10529E-01 39888   0.196E+00    0.194E+00
DAV:  10    -0.232150436153E+03   -0.44503E-02   -0.32097E-02 41400   0.104E+00    0.184E+00
DAV:  11    -0.232150871607E+03   -0.43545E-03   -0.91055E-03 42064   0.624E-01    0.188E+00
DAV:  12    -0.232149569352E+03    0.13023E-02   -0.21331E-03 38280   0.191E-01    0.205E+00
DAV:  13    -0.232149191635E+03    0.37772E-03   -0.22915E-03 41488   0.262E-01    0.279E+00
DAV:  14    -0.232147137900E+03    0.20537E-02   -0.13211E-03 42032   0.202E-01    0.268E+00
DAV:  15    -0.232147761974E+03   -0.62407E-03   -0.13511E-02 44552   0.713E-01    0.136E+00
DAV:  16    -0.232153478370E+03   -0.57164E-02   -0.10524E-02 40672   0.683E-01    0.173E+00
DAV:  17    -0.232150738867E+03    0.27395E-02   -0.58364E-03 42184   0.461E-01    0.112E+00
DAV:  18    -0.232150902392E+03   -0.16352E-03   -0.14481E-03 41448   0.187E-01    0.109E+00
DAV:  19    -0.232150644634E+03    0.25776E-03   -0.47089E-04 43016   0.101E-01    0.109E+00
DAV:  20    -0.232150438950E+03    0.20568E-03   -0.11437E-04 36616   0.438E-02    0.108E+00
DAV:  21    -0.232150268519E+03    0.17043E-03   -0.86299E-04 43896   0.221E-01    0.976E-01
DAV:  22    -0.232150369080E+03   -0.10056E-03   -0.91648E-03 43872   0.637E-01    0.114E+00
DAV:  23    -0.232150666376E+03   -0.29730E-03   -0.57527E-03 44480   0.488E-01    0.111E+00
DAV:  24    -0.232151420800E+03   -0.75442E-03   -0.25787E-03 43056   0.270E-01    0.122E+00
DAV:  25    -0.232150177779E+03    0.12430E-02   -0.32612E-03 44152   0.349E-01    0.554E-01
DAV:  26    -0.232150888785E+03   -0.71101E-03   -0.12914E-03 43400   0.229E-01    0.312E-01
DAV:  27    -0.232151328841E+03   -0.44006E-03   -0.32549E-04 41056   0.124E-01    0.296E-01
DAV:  28    -0.232151332590E+03   -0.37497E-05   -0.18562E-04 42808   0.807E-02    0.271E-01
DAV:  29    -0.232151279359E+03    0.53232E-04   -0.90491E-05 34832   0.734E-02    0.160E-01
DAV:  30    -0.232151302281E+03   -0.22922E-04   -0.50334E-05 30752   0.562E-02    0.645E-02
DAV:  31    -0.232151349411E+03   -0.47130E-04   -0.32636E-05 24760   0.305E-02    0.793E-02
DAV:  32    -0.232151350208E+03   -0.79696E-06   -0.16327E-05 24104   0.219E-02
   9 F= -.23215135E+03 E0= -.23213831E+03  d E =-.443334E-01  mag=     9.0360
       N       E                     dE             d eps       ncg     rms          rms(c)
DAV:   1    -0.231469876772E+03    0.68147E+00   -0.48634E+01 34296   0.361E+01    0.255E+00
DAV:   2    -0.232211197548E+03   -0.74132E+00   -0.71825E+00 34832   0.746E+00    0.765E+00
DAV:   3    -0.232176957269E+03    0.34240E-01   -0.44526E-01 41584   0.368E+00    0.529E+00
DAV:   4    -0.232174876006E+03    0.20813E-02   -0.15894E-01 37536   0.277E+00    0.333E+00
DAV:   5    -0.232158669338E+03    0.16207E-01   -0.87015E-02 37384   0.200E+00    0.176E+00
DAV:   6    -0.232159887117E+03   -0.12178E-02   -0.17159E-02 41568   0.104E+00    0.156E+00
DAV:   7    -0.232159191111E+03    0.69601E-03   -0.15669E-02 42240   0.901E-01    0.117E+00
DAV:   8    -0.232165599906E+03   -0.64088E-02   -0.95540E-03 41528   0.674E-01    0.228E+00
DAV:   9    -0.232163426936E+03    0.21730E-02   -0.39584E-03 40256   0.455E-01    0.264E+00
DAV:  10    -0.232161224966E+03    0.22020E-02   -0.95030E-04 38536   0.125E-01    0.282E+00
DAV:  11    -0.232162560224E+03   -0.13353E-02   -0.12779E-03 41720   0.220E-01    0.335E+00
DAV:  12    -0.232161453659E+03    0.11066E-02   -0.15754E-03 41608   0.245E-01    0.362E+00
DAV:  13    -0.232162202198E+03   -0.74854E-03   -0.99447E-04 43736   0.174E-01    0.413E+00
DAV:  14    -0.232157927858E+03    0.42743E-02   -0.37546E-04 36104   0.114E-01    0.399E+00
DAV:  15    -0.232150362646E+03    0.75652E-02   -0.28392E-03 47152   0.452E-01    0.228E+00
DAV:  16    -0.232156456129E+03   -0.60935E-02   -0.12917E-02 43248   0.737E-01    0.164E+00
DAV:  17    -0.232165089580E+03   -0.86335E-02   -0.10817E-02 39368   0.534E-01    0.337E+00
DAV:  18    -0.232152878674E+03    0.12211E-01   -0.47623E-03 36032   0.433E-01    0.283E+00
DAV:  19    -0.232149053793E+03    0.38249E-02   -0.17923E-03 46048   0.265E-01    0.204E+00
DAV:  20    -0.232151185373E+03   -0.21316E-02   -0.82201E-04 39520   0.134E-01    0.158E+00
DAV:  21    -0.232154181899E+03   -0.29965E-02   -0.77505E-04 39456   0.152E-01    0.135E+00
DAV:  22    -0.232156387199E+03   -0.22053E-02   -0.10686E-03 42808   0.200E-01    0.923E-01
DAV:  23    -0.232158391189E+03   -0.20040E-02   -0.12214E-03 42760   0.227E-01    0.423E-01
DAV:  24    -0.232159823197E+03   -0.14320E-02   -0.84129E-04 41432   0.187E-01    0.184E-01
DAV:  25    -0.232160329460E+03   -0.50626E-03   -0.35885E-04 37344   0.972E-02    0.151E-01
DAV:  26    -0.232160442334E+03   -0.11287E-03   -0.10249E-04 36720   0.424E-02    0.127E-01
DAV:  27    -0.232160475312E+03   -0.32978E-04   -0.38057E-05 28040   0.275E-02    0.117E-01
DAV:  28    -0.232160487190E+03   -0.11878E-04   -0.47801E-05 30960   0.411E-02    0.973E-02
DAV:  29    -0.232160500018E+03   -0.12828E-04   -0.29561E-05 26568   0.423E-02    0.607E-02
DAV:  30    -0.232160509629E+03   -0.96108E-05   -0.25689E-05 25344   0.351E-02
  10 F= -.23216051E+03 E0= -.23214787E+03  d E =-.915942E-02  mag=     9.0497
       N       E                     dE             d eps       ncg     rms          rms(c)
DAV:   1    -0.231401623540E+03    0.75888E+00   -0.35338E+01 35472   0.376E+01    0.269E+00
DAV:   2    -0.232183345349E+03   -0.78172E+00   -0.80917E+00 35864   0.728E+00    0.318E+00
DAV:   3    -0.232248916901E+03   -0.65572E-01   -0.29744E-01 42776   0.397E+00    0.762E+00
DAV:   4    -0.232179279590E+03    0.69637E-01   -0.11042E-01 38584   0.248E+00    0.379E+00
DAV:   5    -0.232174613963E+03    0.46656E-02   -0.41663E-02 36952   0.160E+00    0.145E+00
DAV:   6    -0.232178597998E+03   -0.39840E-02   -0.13968E-02 43024   0.938E-01    0.140E+00
DAV:   7    -0.232176678333E+03    0.19197E-02   -0.97171E-03 41232   0.843E-01    0.748E-01
DAV:   8    -0.232180776907E+03   -0.40986E-02   -0.78166E-03 43272   0.605E-01    0.167E+00
DAV:   9    -0.232179545687E+03    0.12312E-02   -0.49135E-03 40848   0.437E-01    0.194E+00
DAV:  10    -0.232177222260E+03    0.23234E-02   -0.83581E-04 39568   0.160E-01    0.191E+00
DAV:  11    -0.232176388794E+03    0.83347E-03   -0.15988E-04 40448   0.600E-02    0.186E+00
DAV:  12    -0.232175450099E+03    0.93869E-03   -0.74445E-04 42040   0.162E-01    0.152E+00
DAV:  13    -0.232175404211E+03    0.45888E-04   -0.42924E-03 43696   0.525E-01    0.796E-01
DAV:  14    -0.232179051425E+03   -0.36472E-02   -0.55809E-03 40232   0.508E-01    0.133E+00
DAV:  15    -0.232177664767E+03    0.13867E-02   -0.36702E-03 40512   0.374E-01    0.132E+00
DAV:  16    -0.232175622263E+03    0.20425E-02   -0.18354E-03 44704   0.255E-01    0.836E-01
DAV:  17    -0.232176284536E+03   -0.66227E-03   -0.67955E-04 42544   0.146E-01    0.607E-01
DAV:  18    -0.232177012731E+03   -0.72820E-03   -0.25342E-04 37000   0.865E-02    0.591E-01
DAV:  19    -0.232177206088E+03   -0.19336E-03   -0.40125E-05 28336   0.202E-02    0.530E-01
DAV:  20    -0.232177406388E+03   -0.20030E-03   -0.68698E-05 34328   0.502E-02    0.328E-01
DAV:  21    -0.232177751243E+03   -0.34486E-03   -0.16397E-04 41672   0.795E-02    0.960E-02
DAV:  22    -0.232177958520E+03   -0.20728E-03   -0.12813E-04 36560   0.763E-02    0.143E-01
DAV:  23    -0.232177946904E+03    0.11616E-04   -0.60619E-05 28992   0.474E-02    0.899E-02
DAV:  24    -0.232177947878E+03   -0.97416E-06   -0.12766E-05 21032   0.240E-02
  11 F= -.23217795E+03 E0= -.23216528E+03  d E =-.174382E-01  mag=     9.0614
       N       E                     dE             d eps       ncg     rms          rms(c)
DAV:   1    -0.231303505735E+03    0.87444E+00   -0.42777E+01 34424   0.390E+01    0.285E+00
DAV:   2    -0.232223143665E+03   -0.91964E+00   -0.94321E+00 34544   0.803E+00    0.389E+00
DAV:   3    -0.232250032001E+03   -0.26888E-01   -0.47672E-01 41728   0.469E+00    0.438E+00
DAV:   4    -0.232212083359E+03    0.37949E-01   -0.12838E-01 41664   0.258E+00    0.195E+00
DAV:   5    -0.232210530211E+03    0.15531E-02   -0.31464E-02 39512   0.150E+00    0.168E+00
DAV:   6    -0.232212521548E+03   -0.19913E-02   -0.10377E-02 41160   0.823E-01    0.231E+00
DAV:   7    -0.232205754282E+03    0.67673E-02   -0.15709E-02 38336   0.971E-01    0.112E+00
DAV:   8    -0.232207526132E+03   -0.17718E-02   -0.18176E-02 40760   0.790E-01    0.108E+00
DAV:   9    -0.232206394767E+03    0.11314E-02   -0.81565E-03 42832   0.626E-01    0.551E-01
DAV:  10    -0.232206442410E+03   -0.47643E-04   -0.33547E-03 43688   0.409E-01    0.353E-01
DAV:  11    -0.232206536187E+03   -0.93776E-04   -0.10213E-03 41752   0.197E-01    0.346E-01
DAV:  12    -0.232206431570E+03    0.10462E-03   -0.29413E-04 39408   0.137E-01    0.325E-01
DAV:  13    -0.232206367677E+03    0.63893E-04   -0.82103E-05 31096   0.524E-02    0.299E-01
DAV:  14    -0.232206332470E+03    0.35207E-04   -0.17594E-04 30696   0.767E-02    0.235E-01
DAV:  15    -0.232206399976E+03   -0.67506E-04   -0.27542E-04 40464   0.121E-01    0.332E-01
DAV:  16    -0.232206391324E+03    0.86524E-05   -0.41969E-04 37232   0.119E-01    0.331E-01
DAV:  17    -0.232206294790E+03    0.96534E-04   -0.24867E-04 35936   0.846E-02    0.258E-01
DAV:  18    -0.232206331606E+03   -0.36816E-04   -0.71309E-05 24432   0.286E-02    0.271E-01
DAV:  19    -0.232206316317E+03    0.15289E-04   -0.19053E-05 20536   0.160E-02    0.271E-01
DAV:  20    -0.232206320143E+03   -0.38259E-05   -0.85831E-06 18712   0.888E-03
  12 F= -.23220632E+03 E0= -.23219324E+03  d E =-.283723E-01  mag=     9.0595
       N       E                     dE             d eps       ncg     rms          rms(c)
DAV:   1    -0.231751899659E+03    0.45442E+00   -0.21272E+01 35072   0.304E+01    0.200E+00
DAV:   2    -0.232239541573E+03   -0.48764E+00   -0.48783E+00 35176   0.591E+00    0.460E+00
DAV:   3    -0.232264995550E+03   -0.25454E-01   -0.28761E-01 41336   0.301E+00    0.589E+00
DAV:   4    -0.232216470001E+03    0.48526E-01   -0.45469E-02 38392   0.192E+00    0.252E+00
DAV:   5    -0.232217370647E+03   -0.90065E-03   -0.13769E-02 41168   0.777E-01    0.172E+00
DAV:   6    -0.232219215940E+03   -0.18453E-02   -0.20813E-03 41288   0.227E-01    0.133E+00
DAV:   7    -0.232220403790E+03   -0.11878E-02   -0.65745E-04 40688   0.140E-01    0.133E+00
DAV:   8    -0.232221219084E+03   -0.81529E-03   -0.30911E-04 41528   0.804E-02    0.135E+00
DAV:   9    -0.232221719990E+03   -0.50091E-03   -0.21739E-03 42456   0.254E-01    0.133E+00
DAV:  10    -0.232222238416E+03   -0.51843E-03   -0.10480E-02 43304   0.766E-01    0.129E+00
DAV:  11    -0.232220938823E+03    0.12996E-02   -0.17076E-02 43584   0.747E-01    0.952E-01
DAV:  12    -0.232223132150E+03   -0.21933E-02   -0.87795E-03 40168   0.537E-01    0.132E+00
DAV:  13    -0.232222430707E+03    0.70144E-03   -0.31601E-03 41592   0.302E-01    0.138E+00
DAV:  14    -0.232221483385E+03    0.94732E-03   -0.99786E-04 43632   0.140E-01    0.139E+00
DAV:  15    -0.232221045258E+03    0.43813E-03   -0.24751E-04 43208   0.648E-02    0.134E+00
DAV:  16    -0.232221203734E+03   -0.15848E-03   -0.11080E-03 44928   0.204E-01    0.970E-01
DAV:  17    -0.232222388806E+03   -0.11851E-02   -0.65800E-03 44152   0.463E-01    0.564E-01
DAV:  18    -0.232223528315E+03   -0.11395E-02   -0.34442E-03 44032   0.331E-01    0.101E+00
DAV:  19    -0.232222102186E+03    0.14261E-02   -0.12132E-03 41712   0.254E-01    0.931E-01
DAV:  20    -0.232221565355E+03    0.53683E-03   -0.65573E-04 45728   0.158E-01    0.321E-01
DAV:  21    -0.232222741610E+03   -0.11763E-02   -0.43230E-04 39112   0.109E-01    0.135E-01
DAV:  22    -0.232223061983E+03   -0.32037E-03   -0.15756E-04 36328   0.703E-02    0.130E-01
DAV:  23    -0.232223100022E+03   -0.38039E-04   -0.41577E-05 29256   0.384E-02    0.112E-01
DAV:  24    -0.232223102505E+03   -0.24832E-05   -0.59377E-05 33048   0.407E-02
  13 F= -.23222310E+03 E0= -.23220995E+03  d E =-.167824E-01  mag=     9.0524
       N       E                     dE             d eps       ncg     rms          rms(c)
DAV:   1    -0.231829360882E+03    0.39374E+00   -0.21994E+01 34816   0.296E+01    0.182E+00
DAV:   2    -0.232243101806E+03   -0.41374E+00   -0.42942E+00 34728   0.572E+00    0.194E+00
DAV:   3    -0.232272513965E+03   -0.29412E-01   -0.18597E-01 40728   0.279E+00    0.449E+00
DAV:   4    -0.232240710225E+03    0.31804E-01   -0.46344E-02 38264   0.179E+00    0.247E+00
DAV:   5    -0.232241972588E+03   -0.12624E-02   -0.21684E-02 37616   0.104E+00    0.870E-01
DAV:   6    -0.232244063104E+03   -0.20905E-02   -0.78603E-03 39544   0.749E-01    0.883E-01
DAV:   7    -0.232242631360E+03    0.14317E-02   -0.39329E-03 43544   0.506E-01    0.527E-01
DAV:   8    -0.232242812465E+03   -0.18111E-03   -0.31980E-03 45768   0.360E-01    0.624E-01
DAV:   9    -0.232242432353E+03    0.38011E-03   -0.22216E-03 44304   0.304E-01    0.566E-01
DAV:  10    -0.232242136458E+03    0.29590E-03   -0.88815E-04 43976   0.161E-01    0.460E-01
DAV:  11    -0.232242025524E+03    0.11093E-03   -0.10030E-03 42304   0.186E-01    0.423E-01
DAV:  12    -0.232242153631E+03   -0.12811E-03   -0.17533E-03 43712   0.255E-01    0.574E-01
DAV:  13    -0.232242171454E+03   -0.17823E-04   -0.56671E-03 40472   0.414E-01    0.461E-01
DAV:  14    -0.232242519047E+03   -0.34759E-03   -0.35209E-03 40256   0.294E-01    0.562E-01
DAV:  15    -0.232242396450E+03    0.12260E-03   -0.99288E-04 40224   0.146E-01    0.585E-01
DAV:  16    -0.232242179303E+03    0.21715E-03   -0.32052E-04 39392   0.623E-02    0.624E-01
DAV:  17    -0.232241759649E+03    0.41965E-03   -0.13385E-04 34984   0.507E-02    0.740E-01
DAV:  18    -0.232241987155E+03   -0.22751E-03   -0.21965E-04 37432   0.916E-02    0.676E-01
DAV:  19    -0.232242400083E+03   -0.41293E-03   -0.10936E-03 44104   0.183E-01    0.398E-01
DAV:  20    -0.232242544605E+03   -0.14452E-03   -0.49410E-04 43832   0.136E-01    0.255E-01
DAV:  21    -0.232242666804E+03   -0.12220E-03   -0.20796E-04 41744   0.894E-02    0.150E-01
DAV:  22    -0.232242687723E+03   -0.20919E-04   -0.83462E-05 35136   0.482E-02    0.120E-01
DAV:  23    -0.232242687181E+03    0.54228E-06   -0.34817E-05 24640   0.498E-02
  14 F= -.23224269E+03 E0= -.23222961E+03  d E =-.195847E-01  mag=     9.0493
       N       E                     dE             d eps       ncg     rms          rms(c)
DAV:   1    -0.231703664861E+03    0.53902E+00   -0.39008E+01 34624   0.345E+01    0.209E+00
DAV:   2    -0.232251281140E+03   -0.54762E+00   -0.56226E+00 34736   0.665E+00    0.334E+00
DAV:   3    -0.232314025398E+03   -0.62744E-01   -0.21355E-01 39184   0.322E+00    0.862E+00
DAV:   4    -0.232225162371E+03    0.88863E-01   -0.63595E-02 38240   0.218E+00    0.206E+00
DAV:   5    -0.232240987512E+03   -0.15825E-01   -0.54149E-02 38072   0.140E+00    0.137E+00
DAV:   6    -0.232244277500E+03   -0.32900E-02   -0.16242E-02 42000   0.847E-01    0.161E+00
DAV:   7    -0.232240133875E+03    0.41436E-02   -0.11036E-02 40624   0.695E-01    0.989E-01
DAV:   8    -0.232241555906E+03   -0.14220E-02   -0.52523E-03 42832   0.512E-01    0.123E+00
[...]
DAV:  17    -0.232119374269E+03    0.42033E-04   -0.58071E-05 27600   0.520E-02    0.167E-01
DAV:  18    -0.232119388869E+03   -0.14600E-04   -0.36891E-05 22696   0.402E-02    0.948E-02
DAV:  19    -0.232119426138E+03   -0.37269E-04   -0.19135E-05 23328   0.271E-02    0.888E-02
DAV:  20    -0.232119432599E+03   -0.64617E-05   -0.13572E-05 22664   0.245E-02
 190 F= -.23211943E+03 E0= -.23210663E+03  d E =-.554561E-02  mag=     9.0829
       N       E                     dE             d eps       ncg     rms          rms(c)
DAV:   1    -0.232111987806E+03    0.74383E-02   -0.74233E-01 33696   0.430E+00    0.257E-01
DAV:   2    -0.232120498918E+03   -0.85111E-02   -0.87005E-02 34680   0.849E-01    0.456E-01
DAV:   3    -0.232120843974E+03   -0.34506E-03   -0.43065E-03 38672   0.431E-01    0.685E-01
DAV:   4    -0.232120324703E+03    0.51927E-03   -0.87902E-04 37096   0.261E-01    0.433E-01
DAV:   5    -0.232120229850E+03    0.94853E-04   -0.62783E-04 35496   0.183E-01    0.111E-01
DAV:   6    -0.232120303971E+03   -0.74121E-04   -0.16527E-04 34640   0.968E-02    0.140E-01
DAV:   7    -0.232120279980E+03    0.23990E-04   -0.97007E-05 32056   0.627E-02    0.106E-01
DAV:   8    -0.232120275368E+03    0.46127E-05   -0.50422E-05 23704   0.405E-02
 191 F= -.23212028E+03 E0= -.23210747E+03  d E =-.842768E-03  mag=     9.0825
       N       E                     dE             d eps       ncg     rms          rms(c)
DAV:   1    -0.232088780985E+03    0.31499E-01   -0.17937E+00 33872   0.808E+00    0.497E-01
DAV:   2    -0.232119276206E+03   -0.30495E-01   -0.31385E-01 34024   0.161E+00    0.732E-01
DAV:   3    -0.232120741091E+03   -0.14649E-02   -0.18985E-02 38928   0.825E-01    0.104E+00
DAV:   4    -0.232118770116E+03    0.19710E-02   -0.39964E-03 37280   0.453E-01    0.391E-01
DAV:   5    -0.232118888934E+03   -0.11882E-03   -0.66190E-04 36232   0.185E-01    0.304E-01
DAV:   6    -0.232119095935E+03   -0.20700E-03   -0.93874E-04 37728   0.209E-01    0.368E-01
DAV:   7    -0.232118958101E+03    0.13783E-03   -0.11043E-03 38488   0.182E-01    0.210E-01
DAV:   8    -0.232119001417E+03   -0.43317E-04   -0.22445E-04 34920   0.456E-02    0.238E-01
DAV:   9    -0.232118950139E+03    0.51279E-04   -0.14555E-04 34472   0.108E-01    0.314E-01
DAV:  10    -0.232118768957E+03    0.18118E-03   -0.31620E-04 41568   0.131E-01    0.334E-01
DAV:  11    -0.232118728437E+03    0.40520E-04   -0.71790E-05 32088   0.520E-02    0.347E-01
DAV:  12    -0.232118736975E+03   -0.85376E-05   -0.10374E-05 19808   0.107E-02
 192 F= -.23211874E+03 E0= -.23210597E+03  d E =0.153839E-02  mag=     9.0807
       N       E                     dE             d eps       ncg     rms          rms(c)
DAV:   1    -0.232016053072E+03    0.10268E+00   -0.49157E+00 34352   0.151E+01    0.954E-01
DAV:   2    -0.232119806541E+03   -0.10375E+00   -0.10703E+00 33344   0.290E+00    0.129E+00
DAV:   3    -0.232129870064E+03   -0.10064E-01   -0.43162E-02 39496   0.137E+00    0.308E+00
DAV:   4    -0.232117142728E+03    0.12727E-01   -0.10829E-02 37912   0.757E-01    0.148E+00
DAV:   5    -0.232118569720E+03   -0.14270E-02   -0.15427E-03 36568   0.142E-01    0.139E+00
DAV:   6    -0.232117487025E+03    0.10827E-02   -0.13624E-03 40744   0.134E-01    0.133E+00
DAV:   7    -0.232114639107E+03    0.28479E-02   -0.12742E-02 42376   0.526E-01    0.137E+00
DAV:   8    -0.232115729367E+03   -0.10903E-02   -0.90043E-03 41800   0.582E-01    0.167E+00
DAV:   9    -0.232113312200E+03    0.24172E-02   -0.55080E-03 41200   0.438E-01    0.149E+00
DAV:  10    -0.232112819064E+03    0.49314E-03   -0.24265E-03 43136   0.335E-01    0.133E+00
DAV:  11    -0.232114187306E+03   -0.13682E-02   -0.17407E-03 42320   0.289E-01    0.168E+00
DAV:  12    -0.232114481669E+03   -0.29436E-03   -0.14919E-03 43096   0.282E-01    0.235E+00
DAV:  13    -0.232112034417E+03    0.24473E-02   -0.81706E-04 38048   0.131E-01    0.252E+00
DAV:  14    -0.232110811203E+03    0.12232E-02   -0.31164E-04 41472   0.949E-02    0.264E+00
DAV:  15    -0.232110396810E+03    0.41439E-03   -0.15918E-04 39432   0.605E-02    0.282E+00
DAV:  16    -0.232110292151E+03    0.10466E-03   -0.29399E-04 40712   0.110E-01    0.267E+00
DAV:  17    -0.232109134579E+03    0.11576E-02   -0.89987E-04 44312   0.173E-01    0.198E+00
DAV:  18    -0.232111003928E+03   -0.18693E-02   -0.10138E-03 42432   0.197E-01    0.141E+00
DAV:  19    -0.232114222410E+03   -0.32185E-02   -0.13291E-03 41544   0.200E-01    0.811E-01
DAV:  20    -0.232116948753E+03   -0.27263E-02   -0.93561E-04 39672   0.130E-01    0.400E-01
DAV:  21    -0.232118500121E+03   -0.15514E-02   -0.48412E-04 39784   0.109E-01    0.216E-01
DAV:  22    -0.232119064507E+03   -0.56439E-03   -0.23970E-04 38400   0.729E-02    0.108E-01
DAV:  23    -0.232119165262E+03   -0.10076E-03   -0.94835E-05 38104   0.555E-02    0.679E-02
DAV:  24    -0.232119172827E+03   -0.75642E-05   -0.44242E-05 28040   0.454E-02
 193 F= -.23211917E+03 E0= -.23210638E+03  d E =-.435852E-03  mag=     9.0797
       N       E                     dE             d eps       ncg     rms          rms(c)
DAV:   1    -0.232015120512E+03    0.10404E+00   -0.55022E+00 34448   0.156E+01    0.933E-01
DAV:   2    -0.232124233459E+03   -0.10911E+00   -0.11301E+00 33664   0.300E+00    0.113E+00
DAV:   3    -0.232136450571E+03   -0.12217E-01   -0.48631E-02 38904   0.151E+00    0.306E+00
DAV:   4    -0.232122122639E+03    0.14328E-01   -0.12319E-02 37960   0.984E-01    0.122E+00
DAV:   5    -0.232123847867E+03   -0.17252E-02   -0.53801E-03 37048   0.536E-01    0.360E-01
DAV:   6    -0.232124625752E+03   -0.77789E-03   -0.14297E-03 43504   0.291E-01    0.452E-01
DAV:   7    -0.232124426491E+03    0.19926E-03   -0.18919E-03 42768   0.338E-01    0.374E-01
DAV:   8    -0.232124734513E+03   -0.30802E-03   -0.15841E-03 43248   0.270E-01    0.618E-01
DAV:   9    -0.232124344049E+03    0.39046E-03   -0.69747E-04 42240   0.194E-01    0.611E-01
DAV:  10    -0.232123928872E+03    0.41518E-03   -0.25066E-04 42936   0.113E-01    0.337E-01
DAV:  11    -0.232124120266E+03   -0.19139E-03   -0.36833E-04 39304   0.138E-01    0.174E-01
DAV:  12    -0.232124366893E+03   -0.24663E-03   -0.28724E-04 38656   0.116E-01    0.284E-01
DAV:  13    -0.232124341564E+03    0.25329E-04   -0.36052E-04 37296   0.108E-01    0.276E-01
DAV:  14    -0.232124295052E+03    0.46513E-04   -0.28610E-04 35112   0.773E-02    0.234E-01
DAV:  15    -0.232124296523E+03   -0.14714E-05   -0.10521E-04 25272   0.479E-02    0.232E-01
DAV:  16    -0.232124288560E+03    0.79627E-05   -0.24575E-05 20632   0.133E-02
 194 F= -.23212429E+03 E0= -.23211143E+03  d E =-.511573E-02  mag=     9.0844
       N       E                     dE             d eps       ncg     rms          rms(c)
DAV:   1    -0.231652629055E+03    0.47167E+00   -0.26417E+01 34304   0.321E+01    0.201E+00
DAV:   2    -0.232136130097E+03   -0.48350E+00   -0.49966E+00 33760   0.630E+00    0.253E+00
DAV:   3    -0.232191763689E+03   -0.55634E-01   -0.27481E-01 40128   0.309E+00    0.651E+00
DAV:   4    -0.232122825628E+03    0.68938E-01   -0.64018E-02 37120   0.214E+00    0.204E+00
DAV:   5    -0.232131528436E+03   -0.87028E-02   -0.21056E-02 38184   0.962E-01    0.105E+00
DAV:   6    -0.232134507136E+03   -0.29787E-02   -0.56301E-03 43272   0.461E-01    0.100E+00
DAV:   7    -0.232134539113E+03   -0.31977E-04   -0.15664E-03 42504   0.200E-01    0.984E-01
DAV:   8    -0.232134385403E+03    0.15371E-03   -0.14113E-03 42208   0.229E-01    0.134E+00
DAV:   9    -0.232134260816E+03    0.12459E-03   -0.23804E-03 42808   0.280E-01    0.167E+00
DAV:  10    -0.232134050122E+03    0.21069E-03   -0.37174E-04 34032   0.807E-02    0.184E+00
DAV:  11    -0.232133145649E+03    0.90447E-03   -0.79679E-05 32832   0.518E-02    0.180E+00
DAV:  12    -0.232133043301E+03    0.10235E-03   -0.86014E-03 43024   0.479E-01    0.136E+00
DAV:  13    -0.232133626204E+03   -0.58290E-03   -0.12657E-02 44472   0.659E-01    0.112E+00
DAV:  14    -0.232136558724E+03   -0.29325E-02   -0.12505E-02 40736   0.680E-01    0.182E+00
DAV:  15    -0.232132981942E+03    0.35768E-02   -0.73697E-03 41272   0.518E-01    0.132E+00
DAV:  16    -0.232132961485E+03    0.20457E-04   -0.21881E-03 42864   0.357E-01    0.956E-01
DAV:  17    -0.232133930791E+03   -0.96931E-03   -0.13115E-03 43968   0.226E-01    0.929E-01
DAV:  18    -0.232133824559E+03    0.10623E-03   -0.59512E-04 37992   0.125E-01    0.105E+00
DAV:  19    -0.232133867051E+03   -0.42492E-04   -0.41259E-04 42560   0.128E-01    0.129E+00
DAV:  20    -0.232135128455E+03   -0.12614E-02   -0.12812E-03 44016   0.210E-01    0.204E+00
DAV:  21    -0.232136429908E+03   -0.13015E-02   -0.16260E-03 42304   0.212E-01    0.292E+00
DAV:  22    -0.232135835160E+03    0.59475E-03   -0.11888E-03 38328   0.137E-01    0.351E+00
DAV:  23    -0.232133251675E+03    0.25835E-02   -0.48050E-04 34472   0.777E-02    0.373E+00
DAV:  24    -0.232132310361E+03    0.94131E-03   -0.18961E-04 34496   0.503E-02    0.399E+00
DAV:  25    -0.232132033158E+03    0.27720E-03   -0.19662E-04 38144   0.523E-02    0.425E+00
DAV:  26    -0.232131978810E+03    0.54348E-04   -0.15830E-04 41824   0.686E-02    0.452E+00
DAV:  27    -0.232130971158E+03    0.10077E-02   -0.10711E-04 35184   0.401E-02    0.468E+00
DAV:  28    -0.232128948873E+03    0.20223E-02   -0.51742E-05 31896   0.434E-02    0.459E+00
DAV:  29    -0.232123723062E+03    0.52258E-02   -0.93004E-04 46312   0.209E-01    0.375E+00
DAV:  30    -0.232121430568E+03    0.22925E-02   -0.33369E-03 44136   0.322E-01    0.215E+00
DAV:  31    -0.232126517817E+03   -0.50872E-02   -0.49451E-03 41464   0.326E-01    0.873E-01
DAV:  32    -0.232133848290E+03   -0.73305E-02   -0.38712E-03 38816   0.256E-01    0.178E+00
DAV:  33    -0.232132588056E+03    0.12602E-02   -0.19956E-03 34592   0.182E-01    0.248E+00
DAV:  34    -0.232128359366E+03    0.42287E-02   -0.79670E-04 33448   0.107E-01    0.276E+00
DAV:  35    -0.232125205002E+03    0.31544E-02   -0.23553E-04 39208   0.797E-02    0.259E+00
DAV:  36    -0.232124845823E+03    0.35918E-03   -0.49809E-05 32480   0.186E-02    0.256E+00
DAV:  37    -0.232124919929E+03   -0.74106E-04   -0.25943E-06 19224   0.735E-03    0.257E+00
DAV:  38    -0.232125041003E+03   -0.12107E-03   -0.75883E-05 34576   0.452E-02    0.241E+00
DAV:  39    -0.232125819903E+03   -0.77890E-03   -0.12091E-03 43728   0.185E-01    0.173E+00
DAV:  40    -0.232130850867E+03   -0.50310E-02   -0.62293E-03 43176   0.403E-01    0.489E-01
DAV:  41    -0.232137038204E+03   -0.61873E-02   -0.50534E-03 40072   0.270E-01    0.193E+00
DAV:  42    -0.232136065105E+03    0.97310E-03   -0.18972E-03 35984   0.175E-01    0.274E+00
DAV:  43    -0.232133189211E+03    0.28759E-02   -0.80512E-04 33744   0.107E-01    0.309E+00
DAV:  44    -0.232131124973E+03    0.20642E-02   -0.28142E-04 34592   0.561E-02    0.328E+00
DAV:  45    -0.232129719124E+03    0.14058E-02   -0.92136E-05 31016   0.317E-02    0.339E+00
DAV:  46    -0.232128510438E+03    0.12087E-02   -0.94050E-05 38184   0.553E-02    0.327E+00
DAV:  47    -0.232128393498E+03    0.11694E-03   -0.26456E-04 42992   0.902E-02    0.303E+00
DAV:  48    -0.232128127920E+03    0.26558E-03   -0.22752E-04 42664   0.712E-02    0.267E+00
DAV:  49    -0.232129488855E+03   -0.13609E-02   -0.15264E-04 36208   0.474E-02    0.251E+00
DAV:  50    -0.232129587914E+03   -0.99059E-04   -0.23517E-04 42168   0.818E-02    0.213E+00
DAV:  51    -0.232130562667E+03   -0.97475E-03   -0.18247E-04 36560   0.480E-02    0.192E+00
DAV:  52    -0.232131582970E+03   -0.10203E-02   -0.56957E-05 31936   0.322E-02    0.185E+00
DAV:  53    -0.232131675066E+03   -0.92096E-04   -0.11949E-04 39080   0.632E-02    0.160E+00
DAV:  54    -0.232132397476E+03   -0.72241E-03   -0.55433E-05 31352   0.329E-02    0.157E+00
DAV:  55    -0.232132633799E+03   -0.23632E-03   -0.97951E-06 23248   0.122E-02    0.152E+00
DAV:  56    -0.232132815463E+03   -0.18166E-03   -0.43360E-06 20424   0.766E-03    0.150E+00
DAV:  57    -0.232132739287E+03    0.76176E-04   -0.25334E-05 26392   0.329E-02    0.139E+00
DAV:  58    -0.232133044390E+03   -0.30510E-03   -0.22755E-05 28072   0.179E-02    0.137E+00
DAV:  59    -0.232133146104E+03   -0.10171E-03   -0.40693E-06 20728   0.679E-03    0.134E+00
DAV:  60    -0.232133133689E+03    0.12415E-04   -0.65348E-06 21560   0.157E-02    0.127E+00
DAV:  61    -0.232133196103E+03   -0.62414E-04   -0.23963E-05 27648   0.225E-02    0.118E+00
DAV:  62    -0.232133386026E+03   -0.18992E-03   -0.34371E-05 30080   0.300E-02    0.106E+00
DAV:  63    -0.232133748546E+03   -0.36252E-03   -0.24538E-05 27864   0.234E-02    0.104E+00
DAV:  64    -0.232133850310E+03   -0.10176E-03   -0.48474E-06 21016   0.844E-03    0.102E+00
DAV:  65    -0.232133895372E+03   -0.45062E-04   -0.73520E-06 21776   0.182E-02    0.948E-01
DAV:  66    -0.232134059071E+03   -0.16370E-03   -0.14661E-05 24184   0.166E-02    0.889E-01
DAV:  67    -0.232135362248E+03   -0.13032E-02   -0.17813E-03 43416   0.263E-01    0.172E+00
DAV:  68    -0.232134040299E+03    0.13219E-02   -0.60483E-04 34768   0.974E-02    0.178E+00
DAV:  69    -0.232132958394E+03    0.10819E-02   -0.89772E-05 37320   0.440E-02    0.170E+00
DAV:  70    -0.232132344127E+03    0.61427E-03   -0.11426E-04 33040   0.524E-02    0.141E+00
DAV:  71    -0.232132560621E+03   -0.21649E-03   -0.15928E-04 39664   0.494E-02    0.110E+00
DAV:  72    -0.232133175855E+03   -0.61523E-03   -0.10028E-04 33616   0.477E-02    0.927E-01
DAV:  73    -0.232133423020E+03   -0.24717E-03   -0.13063E-04 36400   0.498E-02    0.649E-01
DAV:  74    -0.232133898533E+03   -0.47551E-03   -0.13500E-04 39640   0.503E-02    0.466E-01
DAV:  75    -0.232134260731E+03   -0.36220E-03   -0.52089E-05 33480   0.367E-02    0.439E-01
DAV:  76    -0.232134430207E+03   -0.16948E-03   -0.15624E-05 24936   0.153E-02    0.391E-01
DAV:  77    -0.232134485505E+03   -0.55299E-04   -0.20650E-05 25304   0.322E-02    0.463E-01
DAV:  78    -0.232134466246E+03    0.19259E-04   -0.72115E-06 20352   0.169E-02    0.403E-01
DAV:  79    -0.232134510098E+03   -0.43852E-04   -0.84856E-06 21960   0.155E-02    0.310E-01
DAV:  80    -0.232134590473E+03   -0.80374E-04   -0.11965E-05 22584   0.126E-02    0.240E-01
DAV:  81    -0.232134657117E+03   -0.66645E-04   -0.57762E-06 20376   0.926E-03    0.191E-01
DAV:  82    -0.232134705374E+03   -0.48257E-04   -0.31839E-06 19728   0.840E-03    0.188E-01
DAV:  83    -0.232134720723E+03   -0.15349E-04   -0.16117E-06 18368   0.694E-03    0.161E-01
DAV:  84    -0.232134737517E+03   -0.16794E-04   -0.20220E-06 18976   0.673E-03    0.131E-01
DAV:  85    -0.232134751671E+03   -0.14154E-04   -0.21349E-06 18504   0.559E-03    0.101E-01
DAV:  86    -0.232134764239E+03   -0.12568E-04   -0.15267E-06 18496   0.472E-03    0.713E-02
DAV:  87    -0.232134774694E+03   -0.10455E-04   -0.13874E-06 18616   0.451E-03    0.434E-02
DAV:  88    -0.232134781067E+03   -0.63725E-05   -0.99671E-07 18024   0.337E-03
 195 F= -.23213478E+03 E0= -.23212194E+03  d E =-.104925E-01  mag=     9.0869
       N       E                     dE             d eps       ncg     rms          rms(c)
DAV:   1    -0.231931484398E+03    0.20329E+00   -0.61460E+00 35136   0.206E+01    0.128E+00
DAV:   2    -0.232134195509E+03   -0.20271E+00   -0.21182E+00 34656   0.380E+00    0.133E+00
DAV:   3    -0.232148414730E+03   -0.14219E-01   -0.11193E-01 39152   0.196E+00    0.274E+00
DAV:   4    -0.232133588588E+03    0.14826E-01   -0.31332E-02 38832   0.121E+00    0.629E-01
DAV:   5    -0.232135862262E+03   -0.22737E-02   -0.46918E-03 38024   0.479E-01    0.104E+00
DAV:   6    -0.232134895453E+03    0.96681E-03   -0.23644E-03 39016   0.417E-01    0.680E-01
DAV:   7    -0.232135170921E+03   -0.27547E-03   -0.35173E-03 39120   0.426E-01    0.438E-01
DAV:   8    -0.232135481978E+03   -0.31106E-03   -0.28043E-03 42752   0.381E-01    0.496E-01
DAV:   9    -0.232135128923E+03    0.35306E-03   -0.16422E-03 42984   0.318E-01    0.327E-01
DAV:  10    -0.232135185417E+03   -0.56494E-04   -0.43879E-04 42984   0.137E-01    0.326E-01
DAV:  11    -0.232135197492E+03   -0.12076E-04   -0.42997E-04 40600   0.129E-01    0.309E-01
DAV:  12    -0.232135184036E+03    0.13457E-04   -0.27723E-04 33744   0.998E-02    0.224E-01
DAV:  13    -0.232135218640E+03   -0.34605E-04   -0.21963E-04 32296   0.874E-02    0.222E-01
DAV:  14    -0.232135213951E+03    0.46896E-05   -0.91734E-05 25952   0.421E-02
 196 F= -.23213521E+03 E0= -.23212224E+03  d E =-.432884E-03  mag=     9.0865
       N       E                     dE             d eps       ncg     rms          rms(c)
DAV:   1    -0.232049617063E+03    0.85602E-01   -0.30529E+00 34472   0.129E+01    0.870E-01
DAV:   2    -0.232138649871E+03   -0.89033E-01   -0.88697E-01 34752   0.259E+00    0.216E+00
DAV:   3    -0.232136895246E+03    0.17546E-02   -0.54562E-02 39632   0.146E+00    0.207E+00
DAV:   4    -0.232135469564E+03    0.14257E-02   -0.13039E-02 37760   0.898E-01    0.167E+00
DAV:   5    -0.232133148047E+03    0.23215E-02   -0.73203E-03 36488   0.572E-01    0.671E-01
DAV:   6    -0.232133248809E+03   -0.10076E-03   -0.93539E-04 40648   0.142E-01    0.712E-01
DAV:   7    -0.232133125095E+03    0.12371E-03   -0.22288E-04 36672   0.912E-02    0.696E-01
DAV:   8    -0.232133309357E+03   -0.18426E-03   -0.25267E-03 42960   0.273E-01    0.665E-01
DAV:   9    -0.232133607970E+03   -0.29861E-03   -0.45272E-03 41320   0.411E-01    0.808E-01
DAV:  10    -0.232133225574E+03    0.38240E-03   -0.25705E-03 43248   0.291E-01    0.765E-01
DAV:  11    -0.232132839054E+03    0.38652E-03   -0.13018E-03 41056   0.264E-01    0.603E-01
DAV:  12    -0.232133193933E+03   -0.35488E-03   -0.86924E-04 42560   0.185E-01    0.464E-01
DAV:  13    -0.232133514506E+03   -0.32057E-03   -0.45771E-04 41376   0.132E-01    0.473E-01
DAV:  14    -0.232133460377E+03    0.54129E-04   -0.13772E-04 39400   0.761E-02    0.430E-01
DAV:  15    -0.232133463850E+03   -0.34734E-05   -0.10265E-04 35552   0.687E-02    0.396E-01
DAV:  16    -0.232133531806E+03   -0.67956E-04   -0.20044E-04 40184   0.851E-02    0.311E-01
DAV:  17    -0.232133691559E+03   -0.15975E-03   -0.37902E-04 43568   0.134E-01    0.280E-01
DAV:  18    -0.232133667698E+03    0.23862E-04   -0.29559E-04 43504   0.113E-01    0.261E-01
DAV:  19    -0.232133645511E+03    0.22186E-04   -0.89732E-05 37120   0.608E-02    0.190E-01
DAV:  20    -0.232133765333E+03   -0.11982E-03   -0.75288E-05 32608   0.686E-02    0.318E-01
DAV:  21    -0.232133638828E+03    0.12650E-03   -0.76151E-05 34320   0.661E-02    0.199E-01
DAV:  22    -0.232133630378E+03    0.84504E-05   -0.31479E-05 26736   0.457E-02
 197 F= -.23213363E+03 E0= -.23212080E+03  d E =0.158357E-02  mag=     9.0870
       N       E                     dE             d eps       ncg     rms          rms(c)
DAV:   1    -0.232089643735E+03    0.43995E-01   -0.24351E+00 34496   0.101E+01    0.593E-01
DAV:   2    -0.232135227955E+03   -0.45584E-01   -0.47252E-01 33280   0.194E+00    0.601E-01
DAV:   3    -0.232139709512E+03   -0.44816E-02   -0.23050E-02 39640   0.886E-01    0.181E+00
DAV:   4    -0.232134126710E+03    0.55828E-02   -0.48963E-03 37208   0.574E-01    0.650E-01
DAV:   5    -0.232135350054E+03   -0.12233E-02   -0.15883E-03 37008   0.286E-01    0.252E-01
DAV:   6    -0.232135689390E+03   -0.33934E-03   -0.83725E-04 40808   0.207E-01    0.370E-01
DAV:   7    -0.232135507736E+03    0.18165E-03   -0.83766E-04 40408   0.202E-01    0.209E-01
DAV:   8    -0.232135541980E+03   -0.34244E-04   -0.50556E-04 42592   0.160E-01    0.167E-01
DAV:   9    -0.232135508548E+03    0.33433E-04   -0.27304E-04 38216   0.120E-01    0.125E-01
DAV:  10    -0.232135509827E+03   -0.12794E-05   -0.11209E-04 27880   0.602E-02    0.134E-01
DAV:  11    -0.232135486930E+03    0.22897E-04   -0.46263E-05 24768   0.458E-02    0.109E-01
DAV:  12    -0.232135489820E+03   -0.28905E-05   -0.85228E-05 33592   0.706E-02
 198 F= -.23213549E+03 E0= -.23212261E+03  d E =-.185944E-02  mag=     9.0860
