       N       E                     dE             d eps       ncg     rms          ort
DAV:   1     0.559730335025E+04    0.55973E+04   -0.26863E+05  7696   0.164E+03
DAV:   2     0.233025857792E+03   -0.53643E+04   -0.49627E+04  7696   0.459E+02
DAV:   3    -0.379670139671E+03   -0.61270E+03   -0.60264E+03  7696   0.172E+02
DAV:   4    -0.395690808198E+03   -0.16021E+02   -0.15925E+02  7696   0.288E+01
DAV:   5    -0.396131802069E+03   -0.44099E+00   -0.43999E+00  7696   0.403E+00
SDA:   6    -0.160734187506E+03    0.23540E+03   -0.43999E+00  7696   0.107E+04 0.000E+00
CGA:   7    -0.232243671113E+03   -0.71509E+02   -0.11226E+03  7696   0.177E+04 0.143E+02
CGA:   8    -0.284832012884E+03   -0.52588E+02   -0.35131E+02  7696   0.367E+03 0.665E+02
CGA:   9    -0.293629885369E+03   -0.87979E+01   -0.14104E+02  7696   0.546E+03 0.785E+01
CGA:  10    -0.264273220031E+03    0.29357E+02   -0.23587E+02  7696   0.253E+04-0.305E+03
CGA:  11    -0.295789819294E+03   -0.31517E+02   -0.85738E+02  7696   0.104E+04-0.131E+03
CGA:  12    -0.285368229189E+03    0.10422E+02   -0.31363E+02  7696   0.817E+03-0.185E+03
CGA:  13    -0.316701654793E+03   -0.31333E+02   -0.10659E+02  7696   0.250E+03-0.397E+03
CGA:  14    -0.312708607201E+03    0.39930E+01   -0.38305E+01  7696   0.330E+03-0.179E+03
CGA:  15    -0.270103109365E+03    0.42605E+02   -0.14519E+02  7696   0.730E+03-0.171E+03
CGA:  16    -0.297318484758E+03   -0.27215E+02   -0.10486E+02  7696   0.247E+04-0.283E+03
CGA:  17    -0.288575766826E+03    0.87427E+01   -0.46178E+02  7696   0.640E+03-0.405E+03
CGA:  18    -0.305910680122E+03   -0.17335E+02   -0.80083E+01  7696   0.557E+03 0.730E+03
CGA:  19    -0.322454292734E+03   -0.16544E+02   -0.10216E+02  7696   0.806E+02 0.209E+03
CGA:  20    -0.324018826029E+03   -0.15645E+01   -0.49591E+01  7696   0.665E+02-0.490E+02
CGA:  21    -0.326609687426E+03   -0.25909E+01   -0.16221E+01  7696   0.150E+02 0.300E+02
CGA:  22    -0.327126232440E+03   -0.51655E+00   -0.33443E+00  7696   0.103E+02 0.117E+02
CGA:  23    -0.327346262347E+03   -0.22003E+00   -0.11126E+00  7696   0.970E+01 0.101E+02
CGA:  24    -0.327506920554E+03   -0.16066E+00   -0.80356E-01  7696   0.944E+01 0.971E+01
CGA:  25    -0.327644213073E+03   -0.13729E+00   -0.68024E-01  7696   0.943E+01 0.965E+01
CGA:  26    -0.327773609768E+03   -0.12940E+00   -0.62665E-01  7696   0.993E+01 0.102E+02
CGA:  27    -0.327916029764E+03   -0.14242E+00   -0.65815E-01  7696   0.114E+02 0.118E+02
CGA:  28    -0.328109848790E+03   -0.19382E+00   -0.86007E-01  7696   0.130E+02 0.142E+02
CGA:  29    -0.328393217472E+03   -0.28337E+00   -0.13596E+00  7696   0.104E+02 0.131E+02
CGA:  30    -0.328774121140E+03   -0.38090E+00   -0.24894E+00  7696   0.837E+01 0.424E+01
CGA:  31    -0.330869817914E+03   -0.20957E+01   -0.17789E+01  7696   0.563E+02-0.251E+01
CGA:  32    -0.331893096345E+03   -0.10233E+01   -0.56009E+00  7696   0.170E+02-0.266E+02
CGA:  33    -0.331986186152E+03   -0.93090E-01   -0.73108E-01  7696   0.169E+02 0.242E+01
CGA:  34    -0.332214927299E+03   -0.22874E+00   -0.13515E+00  7696   0.142E+02 0.156E+02
CGA:  35    -0.332440518175E+03   -0.22559E+00   -0.11332E+00  7696   0.102E+02 0.137E+02
CGA:  36    -0.332597844338E+03   -0.15733E+00   -0.84545E-01  7696   0.563E+01 0.823E+01
CGA:  37    -0.332717319282E+03   -0.11947E+00   -0.80846E-01  7696   0.213E+01 0.226E+01
CGA:  38    -0.332839086613E+03   -0.12177E+00   -0.12243E+00  7696   0.702E+01-0.215E-01
CGA:  39    -0.332975903091E+03   -0.13682E+00   -0.12485E+00  7696   0.118E+02-0.721E-01
CGA:  40    -0.332993534359E+03   -0.17631E-01   -0.18088E+00  7696   0.253E+02-0.126E+02
CGA:  41    -0.333358722849E+03   -0.36519E+00   -0.22795E+00  7696   0.543E+01 0.118E+02
CGA:  42    -0.333436802169E+03   -0.78079E-01   -0.59449E-01  7696   0.207E+01 0.218E+01
CGA:  43    -0.333468067446E+03   -0.31265E-01   -0.22489E-01  7696   0.149E+01 0.102E+01
CGA:  44    -0.333494043220E+03   -0.25976E-01   -0.24019E-01  7696   0.205E+01 0.140E+00
CGA:  45    -0.333518361800E+03   -0.24319E-01   -0.22285E-01  7696   0.359E+01 0.185E+00
CGA:  46    -0.333541526385E+03   -0.23165E-01   -0.15797E-01  7696   0.372E+01 0.176E+01
CGA:  47    -0.333576582846E+03   -0.35056E-01   -0.25462E-01  7696   0.318E+01 0.205E+01
CGA:  48    -0.333629319866E+03   -0.52737E-01   -0.43949E-01  7696   0.701E+00 0.452E+00
CGA:  49    -0.333658061952E+03   -0.28742E-01   -0.28767E-01  7696   0.111E+01 0.349E-02
CGA:  50    -0.333736027855E+03   -0.77966E-01   -0.74112E-01  7696   0.273E+01 0.106E+00
CGA:  51    -0.333824701684E+03   -0.88674E-01   -0.79148E-01  7696   0.153E+01 0.172E+00
CGA:  52    -0.333889755566E+03   -0.65054E-01   -0.60943E-01  7696   0.246E+01-0.913E+00
CGA:  53    -0.333918792251E+03   -0.29037E-01   -0.27989E-01  7696   0.526E+00 0.615E-01
CGA:  54    -0.333935709627E+03   -0.16917E-01   -0.17025E-01  7696   0.574E+00 0.447E-02
CGA:  55    -0.333965885086E+03   -0.30175E-01   -0.29512E-01  7696   0.949E+00 0.338E-01
CGA:  56    -0.333995365440E+03   -0.29480E-01   -0.29676E-01  7696   0.498E+00 0.657E-02
CGA:  57    -0.334010569486E+03   -0.15204E-01   -0.15205E-01  7696   0.726E+00-0.773E-04
CGA:  58    -0.334040770869E+03   -0.30201E-01   -0.29729E-01  7696   0.570E+00 0.790E-01
CGA:  59    -0.334066687663E+03   -0.25917E-01   -0.26107E-01  7696   0.492E+00-0.305E-01
CGA:  60    -0.334082617543E+03   -0.15930E-01   -0.15970E-01  7696   0.447E+00 0.438E-02
CGA:  61    -0.334096777414E+03   -0.14160E-01   -0.14255E-01  7696   0.216E+00 0.538E-02
CGA:  62    -0.334104943689E+03   -0.81663E-02   -0.81662E-02  7696   0.460E+00 0.912E-03
CGA:  63    -0.334121395703E+03   -0.16452E-01   -0.16548E-01  7696   0.235E+00 0.288E-01
CGA:  64    -0.334130257508E+03   -0.88618E-02   -0.88613E-02  7696   0.115E+00-0.169E-03
CGA:  65    -0.334133376087E+03   -0.31186E-02   -0.31179E-02  7696   0.150E+00-0.979E-04
CGA:  66    -0.334142097900E+03   -0.87218E-02   -0.83773E-02  7696   0.237E+00 0.148E-01
CGA:  67    -0.334148537250E+03   -0.64394E-02   -0.65123E-02  7696   0.124E+00 0.759E-04
CGA:  68    -0.334152451260E+03   -0.39140E-02   -0.38508E-02  7696   0.685E-01-0.321E-02
CGA:  69    -0.334158431784E+03   -0.59805E-02   -0.58357E-02  7696   0.180E+00 0.304E-02
CGA:  70    -0.334163224752E+03   -0.47930E-02   -0.48886E-02  7696   0.138E+00-0.108E-03
CGA:  71    -0.334167212332E+03   -0.39876E-02   -0.38701E-02  7696   0.559E-01-0.132E-02
CGA:  72    -0.334171042473E+03   -0.38301E-02   -0.38605E-02  7696   0.158E+00-0.964E-03
CGA:  73    -0.334175287271E+03   -0.42448E-02   -0.42264E-02  7696   0.866E-01-0.574E-03
CGA:  74    -0.334178224556E+03   -0.29373E-02   -0.29094E-02  7696   0.563E-01-0.187E-02
CGA:  75    -0.334180492711E+03   -0.22682E-02   -0.22676E-02  7696   0.103E+00 0.626E-04
CGA:  76    -0.334184179119E+03   -0.36864E-02   -0.36991E-02  7696   0.443E-01 0.169E-02
CGA:  77    -0.334185645391E+03   -0.14663E-02   -0.14724E-02  7696   0.720E-01 0.292E-03
CGA:  78    -0.334189583368E+03   -0.39380E-02   -0.41279E-02  7696   0.107E+00-0.784E-02
CGA:  79    -0.334192591446E+03   -0.30081E-02   -0.29839E-02  7696   0.458E-01-0.515E-03
CGA:  80    -0.334193497238E+03   -0.90579E-03   -0.91214E-03  7696   0.295E-01-0.157E-03
CGA:  81    -0.334197416100E+03   -0.39189E-02   -0.39942E-02  7696   0.129E+00-0.898E-03
CGA:  82    -0.334199580707E+03   -0.21646E-02   -0.21504E-02  7696   0.234E-01 0.100E-02
SDA:  83    -0.334200732891E+03   -0.11522E-02   -0.11563E-02  7696   0.564E-01-0.356E-03
CGA:  84    -0.334201674621E+03   -0.94173E-03   -0.91763E-03  7696   0.228E-01 0.101E-02
CGA:  85    -0.334202905025E+03   -0.12304E-02   -0.12329E-02  7696   0.744E-01-0.149E-03
CGA:  86    -0.334207863647E+03   -0.49586E-02   -0.51739E-02  7696   0.201E+00-0.736E-02
CGA:  87    -0.334211505414E+03   -0.36418E-02   -0.34129E-02  7696   0.701E-01 0.761E-02
CGA:  88    -0.334213607165E+03   -0.21018E-02   -0.21142E-02  7696   0.170E+00 0.453E-04
CGA:  89    -0.334220906836E+03   -0.72997E-02   -0.83280E-02  7696   0.234E+00-0.928E-01
CGA:  90    -0.334223115533E+03   -0.22087E-02   -0.20221E-02  7696   0.175E-01 0.187E-01
CGA:  91    -0.334224010074E+03   -0.89454E-03   -0.89557E-03  7696   0.574E-01-0.717E-04
CGA:  92    -0.334225439709E+03   -0.14296E-02   -0.14311E-02  7696   0.475E-01 0.993E-04
CGA:  93    -0.334226275547E+03   -0.83584E-03   -0.82835E-03  7696   0.169E-01 0.360E-03
CGA:  94    -0.334226524081E+03   -0.24853E-03   -0.24711E-03  7696   0.123E-01 0.883E-04
CGA:  95    -0.334227387500E+03   -0.86342E-03   -0.86051E-03  7696   0.580E-01 0.851E-04
CGA:  96    -0.334228449421E+03   -0.10619E-02   -0.10744E-02  7696   0.200E-01-0.381E-03
CGA:  97    -0.334228868968E+03   -0.41955E-03   -0.41737E-03  7696   0.278E-01 0.914E-05
CGA:  98    -0.334230059523E+03   -0.11906E-02   -0.11985E-02  7696   0.658E-01-0.865E-03
CGA:  99    -0.334231636441E+03   -0.15769E-02   -0.15535E-02  7696   0.731E-01 0.163E-03
CGA: 100    -0.334232632226E+03   -0.99578E-03   -0.98167E-03  7696   0.221E-01 0.538E-03
CGA: 101    -0.334233093925E+03   -0.46170E-03   -0.46382E-03  7696   0.372E-01-0.676E-04
CGA: 102    -0.334234633113E+03   -0.15392E-02   -0.15367E-02  7696   0.579E-01 0.197E-03
CGA: 103    -0.334235350205E+03   -0.71709E-03   -0.69398E-03  7696   0.178E-01 0.128E-02
CGA: 104    -0.334235608642E+03   -0.25844E-03   -0.25684E-03  7696   0.102E-01 0.677E-04
CGA: 105    -0.334235870383E+03   -0.26174E-03   -0.26213E-03  7696   0.233E-01 0.308E-04
CGA: 106    -0.334237033900E+03   -0.11635E-02   -0.11600E-02  7696   0.662E-01 0.159E-03
CGA: 107    -0.334237871421E+03   -0.83752E-03   -0.83971E-03  7696   0.191E-01 0.162E-03
CGA: 108    -0.334238131863E+03   -0.26044E-03   -0.26494E-03  7696   0.121E-01-0.136E-03
CGA: 109    -0.334238375510E+03   -0.24365E-03   -0.24382E-03  7696   0.151E-01 0.296E-04
CGA: 110    -0.334238927719E+03   -0.55221E-03   -0.55140E-03  7696   0.419E-01 0.110E-03
CGA: 111    -0.334239721491E+03   -0.79377E-03   -0.78168E-03  7696   0.174E-01 0.523E-03
CGA: 112    -0.334239939484E+03   -0.21799E-03   -0.21694E-03  7696   0.111E-01 0.983E-04
CGA: 113    -0.334240350922E+03   -0.41144E-03   -0.41547E-03  7696   0.330E-01-0.375E-03
CGA: 114    -0.334240948661E+03   -0.59774E-03   -0.55243E-03  7696   0.402E-01 0.794E-03
CGA: 115    -0.334241393106E+03   -0.44445E-03   -0.41279E-03  7696   0.243E-01 0.240E-02
CGA: 116    -0.334241607408E+03   -0.21430E-03   -0.21199E-03  7696   0.117E-01 0.294E-03
CGA: 117    -0.334241744023E+03   -0.13662E-03   -0.13735E-03  7696   0.143E-01-0.170E-04
CGA: 118    -0.334241990883E+03   -0.24686E-03   -0.24764E-03  7696   0.255E-01 0.220E-04
CGA: 119    -0.334242299773E+03   -0.30889E-03   -0.30964E-03  7696   0.230E-01 0.266E-05
SDA: 120    -0.334242540882E+03   -0.24111E-03   -0.24494E-03  7696   0.163E-01-0.179E-03
CGA: 121    -0.334242825267E+03   -0.28439E-03   -0.28443E-03  7696   0.104E-01-0.386E-05
CGA: 122    -0.334243225053E+03   -0.39979E-03   -0.40214E-03  7696   0.164E-01-0.146E-03
CGA: 123    -0.334244181469E+03   -0.95642E-03   -0.96859E-03  7696   0.153E-01-0.391E-03
CGA: 124    -0.334244670826E+03   -0.48936E-03   -0.49064E-03  7696   0.209E-01-0.152E-03
CGA: 125    -0.334246226461E+03   -0.15556E-02   -0.17599E-02  7696   0.959E-01-0.680E-02
CGA: 126    -0.334246629190E+03   -0.40273E-03   -0.26177E-03  7696   0.933E-01 0.329E-01
CGA: 127    -0.334247637489E+03   -0.10083E-02   -0.10114E-02  7696   0.307E-01-0.138E-03
CGA: 128    -0.334247852330E+03   -0.21484E-03   -0.23511E-03  7696   0.104E-01-0.213E-02
CGA: 129    -0.334247973559E+03   -0.12123E-03   -0.12249E-03  7696   0.137E-01-0.761E-04
CGA: 130    -0.334248246247E+03   -0.27269E-03   -0.27083E-03  7696   0.155E-01-0.948E-04
CGA: 131    -0.334248367505E+03   -0.12126E-03   -0.11552E-03  7696   0.490E-02 0.543E-03
CGA: 132    -0.334248423007E+03   -0.55503E-04   -0.54857E-04  7696   0.540E-02 0.184E-04
CGA: 133    -0.334248518384E+03   -0.95377E-04   -0.95019E-04  7696   0.906E-02-0.211E-04
CGA: 134    -0.334248622200E+03   -0.10382E-03   -0.10462E-03  7696   0.839E-02-0.582E-04
CGA: 135    -0.334248725946E+03   -0.10375E-03   -0.10438E-03  7696   0.752E-02-0.365E-04
CGA: 136    -0.334248793329E+03   -0.67383E-04   -0.66436E-04  7696   0.355E-02 0.689E-04
CGA: 137    -0.334248837617E+03   -0.44288E-04   -0.44067E-04  7696   0.535E-02 0.133E-04
CGA: 138    -0.334248986426E+03   -0.14881E-03   -0.14937E-03  7696   0.192E-01-0.778E-04
CGA: 139    -0.334249104906E+03   -0.11848E-03   -0.71246E-04  7696   0.171E-01 0.124E-01
CGA: 140    -0.334249285731E+03   -0.18082E-03   -0.18090E-03  7696   0.470E-02 0.952E-05
CGA: 141    -0.334249483582E+03   -0.19785E-03   -0.19770E-03  7696   0.913E-02 0.591E-05
CGA: 142    -0.334249942000E+03   -0.45842E-03   -0.46101E-03  7696   0.485E-02-0.106E-03
CGA: 143    -0.334250143569E+03   -0.20157E-03   -0.19865E-03  7696   0.101E-01 0.152E-03
CGA: 144    -0.334250490723E+03   -0.34715E-03   -0.35816E-03  7696   0.878E-02-0.867E-03
CGA: 145    -0.334250660266E+03   -0.16954E-03   -0.16997E-03  7696   0.418E-02 0.611E-04
CGA: 146    -0.334251466682E+03   -0.80642E-03   -0.12541E-03  7696   0.569E-02 0.653E-03
CGA: 147    -0.334251549458E+03   -0.82775E-04   -0.75099E-04  7696   0.198E-02 0.562E-03
CGA: 148    -0.334251589911E+03   -0.40453E-04   -0.40861E-04  7696   0.173E-02-0.161E-04
CGA: 149    -0.334251661825E+03   -0.71915E-04   -0.71918E-04  7696   0.298E-02-0.703E-05
CGA: 150    -0.334251691625E+03   -0.29800E-04   -0.28699E-04  7696   0.408E-03 0.828E-04
CGA: 151    -0.334251702521E+03   -0.10896E-04   -0.10888E-04  7696   0.964E-03-0.129E-05
CGA: 152    -0.334251723069E+03   -0.20547E-04   -0.20565E-04  7696   0.473E-03-0.976E-06
CGA: 153    -0.334251729593E+03   -0.65239E-05   -0.65216E-05  7696   0.412E-03-0.779E-06
CGA: 154    -0.334251740202E+03   -0.10609E-04   -0.10622E-04  7696   0.716E-03-0.523E-06
CGA: 155    -0.334251764862E+03   -0.24659E-04   -0.24669E-04  7696   0.161E-02 0.349E-05
CGA: 156    -0.334251783912E+03   -0.19050E-04   -0.18573E-04  7696   0.331E-03 0.455E-04
CGA: 157    -0.334251790398E+03   -0.64858E-05   -0.65177E-05  7696   0.718E-03 0.778E-06
CGA: 158    -0.334251840820E+03   -0.50423E-04   -0.52825E-04  7696   0.290E-02-0.820E-04
CGA: 159    -0.334251853754E+03   -0.12934E-04   -0.86542E-05  7696   0.158E-02 0.128E-02
CGA: 160    -0.334251865333E+03   -0.11579E-04   -0.11026E-04  7696   0.419E-03 0.125E-03
CGA: 161    -0.334251870473E+03   -0.51400E-05   -0.52094E-05  7696   0.716E-03-0.313E-05
CGA: 162    -0.334251880784E+03   -0.10311E-04   -0.10551E-04  7696   0.139E-02-0.688E-05
CGA: 163    -0.334251894297E+03   -0.13513E-04   -0.12648E-04  7696   0.131E-02 0.881E-04
CGA: 164    -0.334251905885E+03   -0.11588E-04   -0.98727E-05  7696   0.922E-03 0.215E-03
CGA: 165    -0.334251912995E+03   -0.71102E-05   -0.64911E-05  7696   0.391E-03 0.890E-04
   1 F= -.33425191E+03 E0= -.33421896E+03  d E =-.334252E+03  mag=    32.0000
       N       E                     dE             d eps       ncg     rms          ort
SDA:   1    -0.323867960567E+03    0.10384E+02    0.00000E+00  7696   0.908E+03 0.000E+00
CGA:   2    -0.332742619870E+03   -0.88747E+01   -0.94365E+01  7696   0.724E+02-0.714E+02
CGA:   3    -0.333919449231E+03   -0.11768E+01   -0.68142E+00  7696   0.233E+02 0.377E+02
CGA:   4    -0.334184922912E+03   -0.26547E+00   -0.17324E+00  7696   0.460E+01 0.103E+02
CGA:   5    -0.334231871636E+03   -0.46949E-01   -0.34031E-01  7696   0.886E+00 0.220E+01
CGA:   6    -0.334241163283E+03   -0.92916E-02   -0.83538E-02  7696   0.199E+00 0.119E+00
CGA:   7    -0.334243092486E+03   -0.19292E-02   -0.19349E-02  7696   0.912E-01-0.498E-03
CGA:   8    -0.334244295030E+03   -0.12025E-02   -0.12071E-02  7696   0.128E+00-0.572E-04
CGA:   9    -0.334247122535E+03   -0.28275E-02   -0.28271E-02  7696   0.280E+00 0.290E-03
CGA:  10    -0.334250617877E+03   -0.34953E-02   -0.34855E-02  7696   0.158E+00 0.235E-03
CGA:  11    -0.334251834592E+03   -0.12167E-02   -0.11980E-02  7696   0.502E-01 0.172E-02
CGA:  12    -0.334252313905E+03   -0.47931E-03   -0.48015E-03  7696   0.288E-01-0.603E-04
CGA:  13    -0.334252606148E+03   -0.29224E-03   -0.29289E-03  7696   0.172E-01-0.263E-04
CGA:  14    -0.334252819802E+03   -0.21365E-03   -0.21364E-03  7696   0.197E-01-0.169E-06
CGA:  15    -0.334253143816E+03   -0.32401E-03   -0.32366E-03  7696   0.221E-01-0.580E-04
CGA:  16    -0.334253346718E+03   -0.20290E-03   -0.20221E-03  7696   0.113E-01 0.246E-04
CGA:  17    -0.334253503295E+03   -0.15658E-03   -0.15667E-03  7696   0.153E-01 0.195E-05
CGA:  18    -0.334253712502E+03   -0.20921E-03   -0.20960E-03  7696   0.108E-01 0.196E-04
CGA:  19    -0.334253805897E+03   -0.93396E-04   -0.93524E-04  7696   0.534E-02-0.393E-05
CGA:  20    -0.334253871951E+03   -0.66054E-04   -0.66056E-04  7696   0.415E-02 0.260E-06
CGA:  21    -0.334253911742E+03   -0.39791E-04   -0.39792E-04  7696   0.234E-02-0.113E-05
CGA:  22    -0.334253950647E+03   -0.38905E-04   -0.38905E-04  7696   0.430E-02-0.435E-06
CGA:  23    -0.334254019015E+03   -0.68369E-04   -0.68372E-04  7696   0.327E-02 0.361E-06
CGA:  24    -0.334254043768E+03   -0.24753E-04   -0.24736E-04  7696   0.102E-02-0.744E-06
CGA:  25    -0.334254055189E+03   -0.11421E-04   -0.11415E-04  7696   0.776E-03-0.904E-06
CGA:  26    -0.334254063814E+03   -0.86250E-05   -0.86252E-05  7696   0.554E-03-0.331E-06
   2 F= -.33425406E+03 E0= -.33422137E+03  d E =-.215082E-02  mag=    32.0000
       N       E                     dE             d eps       ncg     rms          ort
SDA:   1    -0.332982274923E+03    0.12718E+01    0.00000E+00  7696   0.124E+03 0.000E+00
CGA:   2    -0.334071843721E+03   -0.10896E+01   -0.10703E+01  7696   0.147E+02 0.825E+00
CGA:   3    -0.334247505099E+03   -0.17566E+00   -0.12591E+00  7696   0.209E+01 0.247E+01
CGA:   4    -0.334263956488E+03   -0.16451E-01   -0.16174E-01  7696   0.295E+00 0.243E-01
CGA:   5    -0.334266353775E+03   -0.23973E-02   -0.24033E-02  7696   0.938E-01-0.287E-03
CGA:   6    -0.334267526413E+03   -0.11726E-02   -0.11739E-02  7696   0.886E-01 0.265E-03
CGA:   7    -0.334269576139E+03   -0.20497E-02   -0.20507E-02  7696   0.215E+00-0.979E-04
CGA:   8    -0.334273991862E+03   -0.44157E-02   -0.44241E-02  7696   0.259E+00-0.112E-02
CGA:   9    -0.334276526858E+03   -0.25350E-02   -0.25369E-02  7696   0.973E-01-0.915E-05
CGA:  10    -0.334277464010E+03   -0.93715E-03   -0.94073E-03  7696   0.380E-01 0.199E-05
CGA:  11    -0.334277868755E+03   -0.40475E-03   -0.40550E-03  7696   0.245E-01 0.338E-04
CGA:  12    -0.334278370652E+03   -0.50190E-03   -0.50290E-03  7696   0.474E-01-0.133E-03
CGA:  13    -0.334279209242E+03   -0.83859E-03   -0.83950E-03  7696   0.473E-01-0.201E-03
CGA:  14    -0.334279712674E+03   -0.50343E-03   -0.50478E-03  7696   0.207E-01 0.396E-04
CGA:  15    -0.334279923924E+03   -0.21125E-03   -0.21161E-03  7696   0.104E-01 0.103E-04
CGA:  16    -0.334280082751E+03   -0.15883E-03   -0.15886E-03  7696   0.124E-01-0.244E-04
CGA:  17    -0.334280309165E+03   -0.22641E-03   -0.22653E-03  7696   0.165E-01-0.234E-04
CGA:  18    -0.334280552780E+03   -0.24361E-03   -0.24361E-03  7696   0.127E-01 0.233E-04
CGA:  19    -0.334280678574E+03   -0.12579E-03   -0.12586E-03  7696   0.421E-02 0.452E-05
CGA:  20    -0.334280724815E+03   -0.46240E-04   -0.46242E-04  7696   0.278E-02 0.127E-05
CGA:  21    -0.334280766684E+03   -0.41869E-04   -0.41870E-04  7696   0.236E-02-0.437E-06
CGA:  22    -0.334280796677E+03   -0.29994E-04   -0.30006E-04  7696   0.176E-02 0.404E-05
CGA:  23    -0.334280823402E+03   -0.26724E-04   -0.26718E-04  7696   0.171E-02 0.424E-05
CGA:  24    -0.334280851626E+03   -0.28225E-04   -0.28227E-04  7696   0.215E-02-0.143E-05
CGA:  25    -0.334280891793E+03   -0.40166E-04   -0.40206E-04  7696   0.261E-02-0.840E-05
CGA:  26    -0.334280924461E+03   -0.32669E-04   -0.32671E-04  7696   0.137E-02-0.837E-06
CGA:  27    -0.334280937779E+03   -0.13318E-04   -0.13335E-04  7696   0.482E-03 0.217E-05
CGA:  28    -0.334280943785E+03   -0.60061E-05   -0.60093E-05  7696   0.454E-03 0.170E-05
CGA:  29    -0.334280954561E+03   -0.10776E-04   -0.10750E-04  7696   0.895E-03 0.279E-05
CGA:  30    -0.334280969583E+03   -0.15022E-04   -0.15007E-04  7696   0.930E-03 0.671E-05
CGA:  31    -0.334280982102E+03   -0.12519E-04   -0.12532E-04  7696   0.532E-03 0.917E-05
SDA:  32    -0.334280987478E+03   -0.53763E-05   -0.53952E-05  7696   0.248E-03 0.373E-05
   3 F= -.33428099E+03 E0= -.33424853E+03  d E =-.269237E-01  mag=    32.0000
       N       E                     dE             d eps       ncg     rms          ort
SDA:   1    -0.333880954389E+03    0.40003E+00    0.00000E+00  7696   0.275E+01 0.000E+00
CGA:   2    -0.333944800635E+03   -0.63846E-01   -0.63618E-01  7696   0.255E+01 0.245E-01
CGA:   3    -0.334156480203E+03   -0.21168E+00   -0.39014E-02  7696   0.112E+02-0.284E+00
CGA:   4    -0.334290769303E+03   -0.13429E+00   -0.13030E+00  7696   0.969E+00 0.162E+00
CGA:   5    -0.334304181544E+03   -0.13412E-01   -0.12879E-01  7696   0.765E+00 0.206E-01
CGA:   6    -0.334339818617E+03   -0.35637E-01   -0.38871E-01  7696   0.224E+01-0.140E+00
CGA:   7    -0.334357839655E+03   -0.18021E-01   -0.17561E-01  7696   0.131E+01 0.373E-01
CGA:   8    -0.334372625627E+03   -0.14786E-01   -0.15701E-01  7696   0.123E+01-0.455E-01
CGA:   9    -0.334389941408E+03   -0.17316E-01   -0.18141E-01  7696   0.898E+00-0.977E-02
CGA:  10    -0.334399188484E+03   -0.92471E-02   -0.92912E-02  7696   0.336E+00-0.113E-02
CGA:  11    -0.334402667909E+03   -0.34794E-02   -0.34388E-02  7696   0.120E+00 0.252E-02
CGA:  12    -0.334404265382E+03   -0.15975E-02   -0.16054E-02  7696   0.131E+00-0.204E-03
CGA:  13    -0.334409215346E+03   -0.49500E-02   -0.49348E-02  7696   0.372E+00 0.903E-03
CGA:  14    -0.334413377609E+03   -0.41623E-02   -0.41209E-02  7696   0.723E-01 0.216E-02
CGA:  15    -0.334414081583E+03   -0.70397E-03   -0.69782E-03  7696   0.384E-01 0.392E-03
CGA:  16    -0.334415018355E+03   -0.93677E-03   -0.93740E-03  7696   0.739E-01-0.193E-03
CGA:  17    -0.334416357620E+03   -0.13393E-02   -0.13424E-02  7696   0.786E-01 0.213E-03
CGA:  18    -0.334417401463E+03   -0.10438E-02   -0.10494E-02  7696   0.302E-01-0.853E-04
CGA:  19    -0.334417678783E+03   -0.27732E-03   -0.27501E-03  7696   0.108E-01 0.160E-03
CGA:  20    -0.334417937442E+03   -0.25866E-03   -0.25904E-03  7696   0.249E-01-0.885E-04
CGA:  21    -0.334418397713E+03   -0.46027E-03   -0.45866E-03  7696   0.190E-01-0.207E-03
CGA:  22    -0.334418599870E+03   -0.20216E-03   -0.20313E-03  7696   0.133E-01-0.345E-04
CGA:  23    -0.334418936856E+03   -0.33699E-03   -0.33657E-03  7696   0.270E-01 0.666E-04
CGA:  24    -0.334419287053E+03   -0.35020E-03   -0.35055E-03  7696   0.111E-01 0.143E-04
CGA:  25    -0.334419402138E+03   -0.11508E-03   -0.11510E-03  7696   0.479E-02 0.663E-05
CGA:  26    -0.334419458798E+03   -0.56661E-04   -0.56762E-04  7696   0.289E-02 0.302E-05
CGA:  27    -0.334419525041E+03   -0.66243E-04   -0.66186E-04  7696   0.707E-02 0.138E-04
CGA:  28    -0.334419717909E+03   -0.19287E-03   -0.19258E-03  7696   0.769E-02 0.342E-04
CGA:  29    -0.334419781367E+03   -0.63458E-04   -0.63204E-04  7696   0.162E-02 0.266E-04
CGA:  30    -0.334419810725E+03   -0.29358E-04   -0.29358E-04  7696   0.296E-02-0.490E-07
CGA:  31    -0.334419895453E+03   -0.84727E-04   -0.84649E-04  7696   0.503E-02 0.785E-05
SDA:  32    -0.334419959034E+03   -0.63581E-04   -0.63732E-04  7696   0.288E-02 0.551E-05
CGA:  33    -0.334420000895E+03   -0.41861E-04   -0.41809E-04  7696   0.854E-03-0.267E-05
CGA:  34    -0.334420022816E+03   -0.21921E-04   -0.21929E-04  7696   0.845E-03-0.120E-05
CGA:  35    -0.334420044013E+03   -0.21197E-04   -0.21227E-04  7696   0.470E-03-0.440E-05
CGA:  36    -0.334420082689E+03   -0.38677E-04   -0.38454E-04  7696   0.237E-02 0.359E-05
CGA:  37    -0.334420131489E+03   -0.48800E-04   -0.48831E-04  7696   0.270E-03 0.920E-05
CGA:  38    -0.334420141454E+03   -0.99649E-05   -0.99611E-05  7696   0.426E-03 0.289E-06
CGA:  39    -0.334420173745E+03   -0.32291E-04   -0.32039E-04  7696   0.215E-03 0.479E-05
CGA:  40    -0.334420178758E+03   -0.50129E-05   -0.50149E-05  7696   0.350E-03 0.609E-06
CGA:  41    -0.334420221903E+03   -0.43145E-04   -0.42038E-04  7696   0.386E-03 0.119E-04
CGA:  42    -0.334420227151E+03   -0.52484E-05   -0.52741E-05  7696   0.165E-03 0.799E-06
CGA:  43    -0.334420239435E+03   -0.12284E-04   -0.12233E-04  7696   0.493E-03 0.118E-05
CGA:  44    -0.334420255288E+03   -0.15853E-04   -0.15853E-04  7696   0.201E-03 0.238E-05
CGA:  45    -0.334420264461E+03   -0.91736E-05   -0.91879E-05  7696   0.271E-03-0.967E-06
   4 F= -.33442026E+03 E0= -.33438819E+03  d E =-.139277E+00  mag=    32.0000
       N       E                     dE             d eps       ncg     rms          ort
SDA:   1    -0.332213399426E+03    0.22069E+01    0.00000E+00  7696   0.121E+03 0.000E+00
CGA:   2    -0.333178952453E+03   -0.96555E+00   -0.14544E+01  7696   0.442E+02-0.255E+02
CGA:   3    -0.333450541028E+03   -0.27159E+00   -0.15029E+00  7696   0.242E+02 0.263E+02
CGA:   4    -0.333682590187E+03   -0.23205E+00   -0.21329E+00  7696   0.253E+01 0.141E+01
CGA:   5    -0.333803386013E+03   -0.12080E+00   -0.12868E+00  7696   0.131E+02-0.362E+00
CGA:   6    -0.334137475352E+03   -0.33409E+00   -0.33405E+00  7696   0.201E+02 0.436E-01
CGA:   7    -0.334324128502E+03   -0.18665E+00   -0.23076E+00  7696   0.600E+01-0.260E+01
CGA:   8    -0.334374258536E+03   -0.50130E-01   -0.48014E-01  7696   0.119E+01 0.179E+00
CGA:   9    -0.334388180006E+03   -0.13921E-01   -0.13396E-01  7696   0.972E+00 0.322E-01
CGA:  10    -0.334438890530E+03   -0.50711E-01   -0.51581E-01  7696   0.574E+01-0.344E-01
CGA:  11    -0.334514965872E+03   -0.76075E-01   -0.76493E-01  7696   0.193E+01-0.151E-01
CGA:  12    -0.334527350668E+03   -0.12385E-01   -0.14219E-01  7696   0.324E+00-0.201E+00
CGA:  13    -0.334532172743E+03   -0.48221E-02   -0.48162E-02  7696   0.327E+00 0.634E-05
CGA:  14    -0.334540105718E+03   -0.79330E-02   -0.79298E-02  7696   0.528E+00-0.948E-03
CGA:  15    -0.334550283236E+03   -0.10178E-01   -0.10182E-01  7696   0.257E+00 0.126E-03
CGA:  16    -0.334552893403E+03   -0.26102E-02   -0.26463E-02  7696   0.106E+00-0.231E-02
CGA:  17    -0.334557000021E+03   -0.41066E-02   -0.41243E-02  7696   0.278E+00-0.109E-02
CGA:  18    -0.334560579726E+03   -0.35797E-02   -0.34067E-02  7696   0.927E-01 0.776E-02
CGA:  19    -0.334561973437E+03   -0.13937E-02   -0.13838E-02  7696   0.115E+00 0.198E-03
CGA:  20    -0.334565054940E+03   -0.30815E-02   -0.30723E-02  7696   0.139E+00 0.225E-02
CGA:  21    -0.334566272223E+03   -0.12173E-02   -0.12569E-02  7696   0.180E-01-0.305E-02
CGA:  22    -0.334566634760E+03   -0.36254E-03   -0.36284E-03  7696   0.368E-01 0.413E-04
CGA:  23    -0.334568731868E+03   -0.20971E-02   -0.20994E-02  7696   0.729E-01-0.786E-04
CGA:  24    -0.334569456878E+03   -0.72501E-03   -0.72005E-03  7696   0.148E-01 0.321E-03
CGA:  25    -0.334569704100E+03   -0.24722E-03   -0.24674E-03  7696   0.128E-01-0.131E-06
CGA:  26    -0.334570012104E+03   -0.30800E-03   -0.30799E-03  7696   0.197E-01 0.915E-04
CGA:  27    -0.334570436891E+03   -0.42479E-03   -0.42565E-03  7696   0.104E-01 0.153E-03
CGA:  28    -0.334570581910E+03   -0.14502E-03   -0.14475E-03  7696   0.818E-02 0.112E-04
CGA:  29    -0.334570896110E+03   -0.31420E-03   -0.31608E-03  7696   0.115E-01-0.111E-03
CGA:  30    -0.334571012005E+03   -0.11589E-03   -0.11621E-03  7696   0.304E-02-0.118E-04
CGA:  31    -0.334571119148E+03   -0.10714E-03   -0.10695E-03  7696   0.107E-01 0.141E-04
CGA:  32    -0.334571438700E+03   -0.31955E-03   -0.31962E-03  7696   0.567E-02-0.691E-05
CGA:  33    -0.334571488641E+03   -0.49942E-04   -0.49771E-04  7696   0.117E-02 0.116E-04
SDA:  34    -0.334571518490E+03   -0.29849E-04   -0.29852E-04  7696   0.215E-02-0.104E-05
CGA:  35    -0.334571548943E+03   -0.30453E-04   -0.30494E-04  7696   0.997E-03 0.168E-05
CGA:  36    -0.334571602214E+03   -0.53271E-04   -0.53188E-04  7696   0.286E-02 0.258E-05
CGA:  37    -0.334571715413E+03   -0.11320E-03   -0.11320E-03  7696   0.134E-02 0.821E-06
CGA:  38    -0.334571743390E+03   -0.27976E-04   -0.27999E-04  7696   0.143E-02 0.391E-05
CGA:  39    -0.334571797267E+03   -0.53878E-04   -0.53713E-04  7696   0.525E-03 0.119E-04
CGA:  40    -0.334571830973E+03   -0.33705E-04   -0.33758E-04  7696   0.112E-02-0.151E-05
CGA:  41    -0.334571864246E+03   -0.33274E-04   -0.33279E-04  7696   0.256E-03-0.188E-05
CGA:  42    -0.334571883047E+03   -0.18801E-04   -0.18663E-04  7696   0.151E-02 0.299E-05
CGA:  43    -0.334571947905E+03   -0.64858E-04   -0.64805E-04  7696   0.261E-03 0.435E-05
CGA:  44    -0.334571955099E+03   -0.71940E-05   -0.71925E-05  7696   0.513E-03-0.670E-06
CGA:  45    -0.334571986649E+03   -0.31550E-04   -0.31692E-04  7696   0.540E-03-0.458E-05
CGA:  46    -0.334571996906E+03   -0.10258E-04   -0.10252E-04  7696   0.169E-03-0.868E-06
CGA:  47    -0.334572011117E+03   -0.14211E-04   -0.14136E-04  7696   0.614E-03 0.141E-05
CGA:  48    -0.334572022427E+03   -0.11310E-04   -0.11315E-04  7696   0.131E-03 0.679E-06
CGA:  49    -0.334572028335E+03   -0.59081E-05   -0.58743E-05  7696   0.118E-03 0.283E-05
   5 F= -.33457203E+03 E0= -.33454037E+03  d E =-.151764E+00  mag=    32.0000
       N       E                     dE             d eps       ncg     rms          ort
SDA:   1    -0.331322545330E+03    0.32495E+01    0.00000E+00  7696   0.932E+02 0.000E+00
CGA:   2    -0.332009376074E+03   -0.68683E+00   -0.13424E+01  7696   0.357E+02-0.309E+02
CGA:   3    -0.332495154205E+03   -0.48578E+00   -0.48526E+00  7696   0.160E+02 0.266E-01
CGA:   4    -0.332973569281E+03   -0.47842E+00   -0.47468E+00  7696   0.149E+02-0.717E+00
CGA:   5    -0.333673366956E+03   -0.69980E+00   -0.67370E+00  7696   0.192E+02 0.138E+01
CGA:   6    -0.334124698161E+03   -0.45133E+00   -0.36123E+00  7696   0.298E+01 0.249E+01
CGA:   7    -0.334229705940E+03   -0.10501E+00   -0.10501E+00  7696   0.507E+01 0.576E-03
CGA:   8    -0.334425542451E+03   -0.19584E+00   -0.19619E+00  7696   0.843E+01-0.321E-01
CGA:   9    -0.334614588592E+03   -0.18905E+00   -0.18445E+00  7696   0.999E+00-0.328E-01
CGA:  10    -0.334633501113E+03   -0.18913E-01   -0.19924E-01  7696   0.636E+00-0.615E-02
CGA:  11    -0.334654988277E+03   -0.21487E-01   -0.21524E-01  7696   0.870E+00-0.710E-02
CGA:  12    -0.334684863295E+03   -0.29875E-01   -0.29721E-01  7696   0.515E+00 0.268E-01
CGA:  13    -0.334695869887E+03   -0.11007E-01   -0.10989E-01  7696   0.400E+00-0.477E-04
CGA:  14    -0.334705265300E+03   -0.93954E-02   -0.92803E-02  7696   0.194E+00-0.247E-02
CGA:  15    -0.334709952814E+03   -0.46875E-02   -0.46939E-02  7696   0.754E-01 0.286E-03
CGA:  16    -0.334712363697E+03   -0.24109E-02   -0.24121E-02  7696   0.139E+00-0.355E-03
CGA:  17    -0.334717370943E+03   -0.50072E-02   -0.50022E-02  7696   0.108E+00 0.575E-03
CGA:  18    -0.334719431826E+03   -0.20609E-02   -0.20681E-02  7696   0.480E-01-0.382E-04
CGA:  19    -0.334720509723E+03   -0.10779E-02   -0.10711E-02  7696   0.452E-01-0.145E-03
CGA:  20    -0.334722892547E+03   -0.23828E-02   -0.23861E-02  7696   0.372E-01-0.137E-03
CGA:  21    -0.334723660610E+03   -0.76806E-03   -0.76876E-03  7696   0.246E-01 0.205E-05
CGA:  22    -0.334724250652E+03   -0.59004E-03   -0.59112E-03  7696   0.244E-01 0.500E-04
CGA:  23    -0.334725206539E+03   -0.95589E-03   -0.95237E-03  7696   0.187E-01 0.286E-03
CGA:  24    -0.334725648116E+03   -0.44158E-03   -0.44016E-03  7696   0.185E-01-0.341E-04
CGA:  25    -0.334726320821E+03   -0.67271E-03   -0.67195E-03  7696   0.156E-01 0.855E-04
CGA:  26    -0.334726673152E+03   -0.35233E-03   -0.35155E-03  7696   0.647E-02-0.817E-05
CGA:  27    -0.334726792688E+03   -0.11954E-03   -0.11951E-03  7696   0.568E-02 0.279E-05
CGA:  28    -0.334727189319E+03   -0.39663E-03   -0.39446E-03  7696   0.101E-01 0.570E-04
CGA:  29    -0.334727437807E+03   -0.24849E-03   -0.24837E-03  7696   0.414E-02 0.103E-05
CGA:  30    -0.334727507625E+03   -0.69819E-04   -0.69919E-04  7696   0.235E-02 0.262E-05
CGA:  31    -0.334727606156E+03   -0.98531E-04   -0.98466E-04  7696   0.283E-02 0.562E-05
SDA:  32    -0.334727670623E+03   -0.64467E-04   -0.64447E-04  7696   0.233E-02 0.252E-05
CGA:  33    -0.334727698113E+03   -0.27489E-04   -0.27675E-04  7696   0.763E-03-0.700E-05
CGA:  34    -0.334727738059E+03   -0.39946E-04   -0.39710E-04  7696   0.852E-03 0.994E-05
CGA:  35    -0.334727764514E+03   -0.26455E-04   -0.26455E-04  7696   0.131E-02 0.321E-05
CGA:  36    -0.334727833530E+03   -0.69016E-04   -0.68842E-04  7696   0.319E-02 0.788E-05
CGA:  37    -0.334727903958E+03   -0.70428E-04   -0.70374E-04  7696   0.181E-03 0.320E-05
CGA:  38    -0.334727942300E+03   -0.38342E-04   -0.26414E-05  7696   0.750E-03 0.713E-05
CGA:  39    -0.334727954644E+03   -0.12344E-04   -0.12295E-04  7696   0.303E-03-0.276E-06
CGA:  40    -0.334727969984E+03   -0.15340E-04   -0.15342E-04  7696   0.750E-03 0.510E-06
CGA:  41    -0.334727999100E+03   -0.29116E-04   -0.29146E-04  7696   0.247E-03 0.148E-05
CGA:  42    -0.334728002398E+03   -0.32984E-05   -0.33022E-05  7696   0.113E-03 0.884E-07
CGA:  43    -0.334728013927E+03   -0.11528E-04   -0.11506E-04  7696   0.219E-03 0.423E-06
CGA:  44    -0.334728021169E+03   -0.72420E-05   -0.72511E-05  7696   0.277E-03 0.632E-06
   6 F= -.33472802E+03 E0= -.33469683E+03  d E =-.155993E+00  mag=    32.0000
       N       E                     dE             d eps       ncg     rms          ort
SDA:   1    -0.331007902297E+03    0.37201E+01    0.00000E+00  7696   0.102E+03 0.000E+00
CGA:   2    -0.331087599865E+03   -0.79698E-01   -0.21111E+01  7696   0.102E+03-0.633E+02
CGA:   3    -0.332249645859E+03   -0.11620E+01   -0.94036E+00  7696   0.871E+01 0.990E+01
CGA:   4    -0.332467888103E+03   -0.21824E+00   -0.20343E+00  7696   0.146E+02 0.338E+00
CGA:   5    -0.333017467317E+03   -0.54958E+00   -0.55341E+00  7696   0.444E+02 0.672E-01
CGA:   6    -0.334001035198E+03   -0.98357E+00   -0.10141E+01  7696   0.266E+02-0.700E+00
CGA:   7    -0.334269580822E+03   -0.26855E+00   -0.20562E+00  7696   0.722E+01 0.748E+01
CGA:   8    -0.334329227544E+03   -0.59647E-01   -0.38583E-01  7696   0.291E+01 0.480E+01
CGA:   9    -0.334382739381E+03   -0.53512E-01   -0.45789E-01  7696   0.228E+01 0.343E+00
CGA:  10    -0.334647512776E+03   -0.26477E+00   -0.26337E+00  7696   0.370E+01 0.245E-01
CGA:  11    -0.334697795030E+03   -0.50282E-01   -0.51675E-01  7696   0.590E+00-0.746E-01
CGA:  12    -0.334707229642E+03   -0.94346E-02   -0.91678E-02  7696   0.366E+00 0.114E-01
CGA:  13    -0.334756809697E+03   -0.49580E-01   -0.49272E-01  7696   0.569E+00 0.320E-02
CGA:  14    -0.334764742608E+03   -0.79329E-02   -0.79887E-02  7696   0.286E+00-0.334E-02
CGA:  15    -0.334777799849E+03   -0.13057E-01   -0.13098E-01  7696   0.371E+00-0.981E-02
CGA:  16    -0.334785981933E+03   -0.81821E-02   -0.80482E-02  7696   0.166E+00 0.310E-02
CGA:  17    -0.334790673012E+03   -0.46911E-02   -0.47441E-02  7696   0.248E+00 0.409E-04
CGA:  18    -0.334797296375E+03   -0.66234E-02   -0.67442E-02  7696   0.443E-01-0.696E-04
CGA:  19    -0.334799721101E+03   -0.24247E-02   -0.24293E-02  7696   0.155E+00-0.259E-03
CGA:  20    -0.334803653184E+03   -0.39321E-02   -0.39234E-02  7696   0.456E-01 0.858E-04
CGA:  21    -0.334804402200E+03   -0.74902E-03   -0.74999E-03  7696   0.143E-01-0.372E-04
CGA:  22    -0.334805633529E+03   -0.12313E-02   -0.12116E-02  7696   0.364E-01 0.446E-03
CGA:  23    -0.334806245169E+03   -0.61164E-03   -0.62280E-03  7696   0.180E-01-0.426E-03
CGA:  24    -0.334807335465E+03   -0.10903E-02   -0.10950E-02  7696   0.291E-01-0.192E-03
CGA:  25    -0.334807859965E+03   -0.52450E-03   -0.52342E-03  7696   0.924E-02 0.446E-04
CGA:  26    -0.334808129103E+03   -0.26914E-03   -0.26933E-03  7696   0.152E-01 0.247E-05
CGA:  27    -0.334809005375E+03   -0.87627E-03   -0.87780E-03  7696   0.607E-02-0.706E-04
CGA:  28    -0.334809137060E+03   -0.13168E-03   -0.13202E-03  7696   0.470E-02-0.406E-05
CGA:  29    -0.334809481356E+03   -0.34430E-03   -0.34560E-03  7696   0.137E-01-0.377E-04
CGA:  30    -0.334809734135E+03   -0.25278E-03   -0.25381E-03  7696   0.302E-02-0.220E-04
CGA:  31    -0.334809883699E+03   -0.14956E-03   -0.14917E-03  7696   0.269E-02 0.319E-04
CGA:  32    -0.334809928565E+03   -0.44866E-04   -0.45125E-04  7696   0.103E-02-0.506E-05
CGA:  33    -0.334809967991E+03   -0.39427E-04   -0.39430E-04  7696   0.252E-02 0.138E-05
CGA:  34    -0.334810116543E+03   -0.14855E-03   -0.14871E-03  7696   0.726E-03-0.699E-05
CGA:  35    -0.334810131575E+03   -0.15033E-04   -0.15076E-04  7696   0.791E-03 0.658E-06
CGA:  36    -0.334810183146E+03   -0.51570E-04   -0.51391E-04  7696   0.712E-03 0.682E-05
CGA:  37    -0.334810198832E+03   -0.15686E-04   -0.15729E-04  7696   0.381E-03 0.119E-05
CGA:  38    -0.334810222288E+03   -0.23456E-04   -0.23519E-04  7696   0.650E-03-0.264E-05
SDA:  39    -0.334810233342E+03   -0.11054E-04   -0.11052E-04  7696   0.337E-03-0.298E-06
CGA:  40    -0.334810241082E+03   -0.77403E-05   -0.77474E-05  7696   0.374E-03 0.310E-08
   7 F= -.33481024E+03 E0= -.33477922E+03  d E =-.822199E-01  mag=    32.0000
       N       E                     dE             d eps       ncg     rms          ort
SDA:   1    -0.330369596612E+03    0.44406E+01    0.00000E+00  7696   0.131E+03 0.000E+00
CGA:   2    -0.331589733497E+03   -0.12201E+01   -0.13026E+01  7696   0.140E+02-0.158E+02
CGA:   3    -0.332091311833E+03   -0.50158E+00   -0.50505E+00  7696   0.271E+02-0.502E+00
CGA:   4    -0.333740729007E+03   -0.16494E+01   -0.16121E+01  7696   0.297E+02 0.130E+01
CGA:   5    -0.334191028269E+03   -0.45030E+00   -0.37616E+00  7696   0.241E+01 0.457E+01
CGA:   6    -0.334319177928E+03   -0.12815E+00   -0.13035E+00  7696   0.819E+01-0.157E+00
CGA:   7    -0.334561136652E+03   -0.24196E+00   -0.23761E+00  7696   0.923E+01-0.172E+00
CGA:   8    -0.334692516064E+03   -0.13138E+00   -0.14915E+00  7696   0.467E+01-0.701E+00
CGA:   9    -0.334749662466E+03   -0.57146E-01   -0.57366E-01  7696   0.192E+01 0.114E-01
CGA:  10    -0.334785515658E+03   -0.35853E-01   -0.37830E-01  7696   0.838E+00-0.229E-01
CGA:  11    -0.334796039895E+03   -0.10524E-01   -0.11067E-01  7696   0.411E+00-0.267E-01
CGA:  12    -0.334818468253E+03   -0.22428E-01   -0.22317E-01  7696   0.804E+00 0.443E-02
CGA:  13    -0.334833060520E+03   -0.14592E-01   -0.14377E-01  7696   0.396E+00 0.586E-02
CGA:  14    -0.334839659982E+03   -0.65995E-02   -0.66238E-02  7696   0.129E+00-0.724E-03
CGA:  15    -0.334844150616E+03   -0.44906E-02   -0.44906E-02  7696   0.202E+00 0.183E-04
CGA:  16    -0.334847845122E+03   -0.36945E-02   -0.35920E-02  7696   0.100E+00 0.239E-02
CGA:  17    -0.334851201023E+03   -0.33559E-02   -0.33565E-02  7696   0.112E+00-0.328E-03
CGA:  18    -0.334853437591E+03   -0.22366E-02   -0.22659E-02  7696   0.815E-01-0.155E-03
CGA:  19    -0.334854989741E+03   -0.15522E-02   -0.15534E-02  7696   0.314E-01-0.627E-05
CGA:  20    -0.334856433457E+03   -0.14437E-02   -0.14454E-02  7696   0.859E-01-0.893E-04
CGA:  21    -0.334858079844E+03   -0.16464E-02   -0.16565E-02  7696   0.262E-01-0.793E-04
CGA:  22    -0.334858571260E+03   -0.49142E-03   -0.49244E-03  7696   0.100E-01-0.187E-05
CGA:  23    -0.334858789196E+03   -0.21794E-03   -0.21722E-03  7696   0.137E-01-0.831E-05
CGA:  24    -0.334859552072E+03   -0.76288E-03   -0.76539E-03  7696   0.184E-01-0.942E-04
CGA:  25    -0.334859914142E+03   -0.36207E-03   -0.36300E-03  7696   0.144E-01 0.515E-05
CGA:  26    -0.334860214657E+03   -0.30052E-03   -0.30067E-03  7696   0.681E-02 0.818E-05
CGA:  27    -0.334860388639E+03   -0.17398E-03   -0.17409E-03  7696   0.429E-02 0.112E-04
CGA:  28    -0.334860465950E+03   -0.77311E-04   -0.77577E-04  7696   0.383E-02 0.185E-05
CGA:  29    -0.334860726314E+03   -0.26036E-03   -0.25963E-03  7696   0.798E-02 0.193E-04
CGA:  30    -0.334860877526E+03   -0.15121E-03   -0.15104E-03  7696   0.413E-02 0.322E-05
CGA:  31    -0.334860946260E+03   -0.68734E-04   -0.68781E-04  7696   0.172E-02-0.107E-05
SDA:  32    -0.334861043361E+03   -0.97101E-04   -0.97114E-04  7696   0.449E-02-0.674E-06
CGA:  33    -0.334861090555E+03   -0.47194E-04   -0.47041E-04  7696   0.731E-03 0.707E-05
CGA:  34    -0.334861126433E+03   -0.35879E-04   -0.35867E-04  7696   0.143E-02 0.372E-06
CGA:  35    -0.334861182909E+03   -0.56476E-04   -0.56441E-04  7696   0.929E-03 0.268E-05
CGA:  36    -0.334861226430E+03   -0.43521E-04   -0.43592E-04  7696   0.234E-02-0.453E-05
CGA:  37    -0.334861273674E+03   -0.47244E-04   -0.47173E-04  7696   0.448E-03-0.159E-05
CGA:  38    -0.334861310064E+03   -0.36390E-04   -0.36177E-04  7696   0.110E-02 0.429E-05
CGA:  39    -0.334861339363E+03   -0.29299E-04   -0.29327E-04  7696   0.265E-03 0.311E-05
CGA:  40    -0.334861344444E+03   -0.50814E-05   -0.50947E-05  7696   0.300E-03 0.587E-06
   8 F= -.33486134E+03 E0= -.33483028E+03  d E =-.511034E-01  mag=    32.0000
       N       E                     dE             d eps       ncg     rms          ort
SDA:   1    -0.334515813229E+03    0.34553E+00    0.00000E+00  7696   0.810E+01 0.000E+00
CGA:   2    -0.334582557530E+03   -0.66744E-01   -0.11340E+00  7696   0.333E+01-0.307E+01
CGA:   3    -0.334630382166E+03   -0.47825E-01   -0.48759E-01  7696   0.185E+01-0.230E-01
CGA:   4    -0.334691095780E+03   -0.60714E-01   -0.61170E-01  7696   0.154E+01-0.390E-02
CGA:   5    -0.334754073053E+03   -0.62977E-01   -0.60763E-01  7696   0.260E+01-0.147E-01
CGA:   6    -0.334809042276E+03   -0.54969E-01   -0.57267E-01  7696   0.115E+01-0.637E-01
CGA:   7    -0.334836477987E+03   -0.27436E-01   -0.26886E-01  7696   0.297E+00 0.140E-01
CGA:   8    -0.334844318496E+03   -0.78405E-02   -0.78438E-02  7696   0.327E+00-0.108E-03
CGA:   9    -0.334853389607E+03   -0.90711E-02   -0.91484E-02  7696   0.318E+00-0.103E-02
CGA:  10    -0.334863938654E+03   -0.10549E-01   -0.10481E-01  7696   0.116E+00-0.102E-03
CGA:  11    -0.334866782586E+03   -0.28439E-02   -0.28770E-02  7696   0.619E-01-0.629E-03
CGA:  12    -0.334868206465E+03   -0.14239E-02   -0.14195E-02  7696   0.583E-01 0.888E-04
CGA:  13    -0.334870150996E+03   -0.19445E-02   -0.19444E-02  7696   0.367E-01-0.636E-05
CGA:  14    -0.334871095703E+03   -0.94471E-03   -0.94760E-03  7696   0.189E-01-0.321E-04
CGA:  15    -0.334871429624E+03   -0.33392E-03   -0.33060E-03  7696   0.107E-01 0.128E-03
CGA:  16    -0.334871887222E+03   -0.45760E-03   -0.45760E-03  7696   0.118E-01 0.996E-05
CGA:  17    -0.334872398588E+03   -0.51137E-03   -0.51137E-03  7696   0.769E-02 0.672E-05
CGA:  18    -0.334872535058E+03   -0.13647E-03   -0.13644E-03  7696   0.391E-02 0.573E-05
CGA:  19    -0.334872624285E+03   -0.89227E-04   -0.88948E-04  7696   0.239E-02 0.440E-05
CGA:  20    -0.334872762436E+03   -0.13815E-03   -0.13822E-03  7696   0.444E-02-0.342E-05
CGA:  21    -0.334872866672E+03   -0.10424E-03   -0.10461E-03  7696   0.296E-02-0.686E-05
CGA:  22    -0.334872926587E+03   -0.59915E-04   -0.59791E-04  7696   0.854E-03-0.459E-06
CGA:  23    -0.334872961359E+03   -0.34772E-04   -0.34769E-04  7696   0.105E-02 0.202E-05
CGA:  24    -0.334873003876E+03   -0.42517E-04   -0.42516E-04  7696   0.191E-02 0.171E-05
CGA:  25    -0.334873045591E+03   -0.41715E-04   -0.41719E-04  7696   0.828E-03 0.277E-05
CGA:  26    -0.334873068357E+03   -0.22765E-04   -0.22800E-04  7696   0.374E-03 0.228E-05
CGA:  27    -0.334873081707E+03   -0.13351E-04   -0.13351E-04  7696   0.528E-03 0.154E-06
CGA:  28    -0.334873096009E+03   -0.14302E-04   -0.14319E-04  7696   0.480E-03 0.833E-06
CGA:  29    -0.334873112643E+03   -0.16633E-04   -0.16634E-04  7696   0.277E-03 0.198E-06
CGA:  30    -0.334873120426E+03   -0.77838E-05   -0.77783E-05  7696   0.238E-03-0.433E-06
   9 F= -.33487312E+03 E0= -.33484204E+03  d E =-.117760E-01  mag=    32.0000
       N       E                     dE             d eps       ncg     rms          ort
SDA:   1    -0.334248392377E+03    0.62472E+00    0.00000E+00  7696   0.573E+01 0.000E+00
CGA:   2    -0.334310903191E+03   -0.62511E-01   -0.86116E-01  7696   0.317E+01-0.992E+00
CGA:   3    -0.334487206590E+03   -0.17630E+00   -0.18162E+00  7696   0.901E+01-0.157E+00
CGA:   4    -0.334745907615E+03   -0.25870E+00   -0.26079E+00  7696   0.183E+01 0.976E-01
CGA:   5    -0.334774407073E+03   -0.28499E-01   -0.27202E-01  7696   0.651E+00 0.586E-01
CGA:   6    -0.334801453495E+03   -0.27046E-01   -0.26994E-01  7696   0.117E+01 0.671E-02
CGA:   7    -0.334855155257E+03   -0.53702E-01   -0.53539E-01  7696   0.943E+00 0.119E-01
CGA:   8    -0.334867995092E+03   -0.12840E-01   -0.12857E-01  7696   0.172E+00-0.143E-02
CGA:   9    -0.334873117800E+03   -0.51227E-02   -0.51192E-02  7696   0.139E+00-0.223E-03
CGA:  10    -0.334877877148E+03   -0.47593E-02   -0.47568E-02  7696   0.110E+00-0.287E-02
CGA:  11    -0.334880195871E+03   -0.23187E-02   -0.23333E-02  7696   0.781E-01-0.870E-04
CGA:  12    -0.334883568067E+03   -0.33722E-02   -0.33710E-02  7696   0.489E-01 0.100E-03
CGA:  13    -0.334884542845E+03   -0.97478E-03   -0.98060E-03  7696   0.196E-01-0.640E-04
CGA:  14    -0.334885035038E+03   -0.49219E-03   -0.49146E-03  7696   0.215E-01-0.882E-05
CGA:  15    -0.334886014524E+03   -0.97949E-03   -0.98155E-03  7696   0.148E-01-0.125E-03
CGA:  16    -0.334886255792E+03   -0.24127E-03   -0.24162E-03  7696   0.588E-02-0.624E-05
CGA:  17    -0.334886441634E+03   -0.18584E-03   -0.18584E-03  7696   0.734E-02-0.231E-05
CGA:  18    -0.334886862462E+03   -0.42083E-03   -0.42062E-03  7696   0.604E-02 0.727E-05
CGA:  19    -0.334886956891E+03   -0.94429E-04   -0.93985E-04  7696   0.185E-02 0.127E-04
CGA:  20    -0.334887019859E+03   -0.62968E-04   -0.62964E-04  7696   0.217E-02 0.385E-05
CGA:  21    -0.334887136378E+03   -0.11652E-03   -0.11677E-03  7696   0.263E-02-0.107E-04
CGA:  22    -0.334887202266E+03   -0.65888E-04   -0.66004E-04  7696   0.251E-02 0.667E-05
CGA:  23    -0.334887286869E+03   -0.84603E-04   -0.84605E-04  7696   0.158E-02 0.672E-05
CGA:  24    -0.334887321212E+03   -0.34343E-04   -0.34377E-04  7696   0.639E-03 0.208E-05
CGA:  25    -0.334887338271E+03   -0.17059E-04   -0.17058E-04  7696   0.907E-03-0.136E-06
CGA:  26    -0.334887396662E+03   -0.58390E-04   -0.58437E-04  7696   0.133E-02-0.148E-05
CGA:  27    -0.334887424441E+03   -0.27779E-04   -0.27771E-04  7696   0.426E-03-0.110E-05
CGA:  28    -0.334887433868E+03   -0.94269E-05   -0.94198E-05  7696   0.373E-03-0.356E-06
CGA:  29    -0.334887458310E+03   -0.24442E-04   -0.24324E-04  7696   0.428E-03 0.364E-05
CGA:  30    -0.334887467530E+03   -0.92200E-05   -0.92214E-05  7696   0.165E-03 0.281E-06
  10 F= -.33488747E+03 E0= -.33485639E+03  d E =-.143471E-01  mag=    32.0000
       N       E                     dE             d eps       ncg     rms          ort
SDA:   1    -0.334387658702E+03    0.49980E+00    0.00000E+00  7696   0.660E+01 0.000E+00
CGA:   2    -0.334450570050E+03   -0.62911E-01   -0.71203E-01  7696   0.163E+01-0.588E+00
CGA:   3    -0.334644667523E+03   -0.19410E+00   -0.19911E+00  7696   0.902E+01-0.621E-01
CGA:   4    -0.334800257781E+03   -0.15559E+00   -0.16054E+00  7696   0.116E+01-0.140E+00
CGA:   5    -0.334817823145E+03   -0.17565E-01   -0.17946E-01  7696   0.493E+00-0.156E-01
CGA:   6    -0.334850138344E+03   -0.32315E-01   -0.32878E-01  7696   0.122E+01-0.179E-01
CGA:   7    -0.334870984019E+03   -0.20846E-01   -0.20577E-01  7696   0.312E+00 0.853E-02
CGA:   8    -0.334885896392E+03   -0.14912E-01   -0.14585E-01  7696   0.115E+00 0.225E-01
CGA:   9    -0.334887748959E+03   -0.18526E-02   -0.18610E-02  7696   0.531E-01-0.339E-03
CGA:  10    -0.334891357062E+03   -0.36081E-02   -0.36064E-02  7696   0.127E+00 0.529E-04
CGA:  11    -0.334894180928E+03   -0.28239E-02   -0.28265E-02  7696   0.281E-01 0.110E-04
CGA:  12    -0.334894672787E+03   -0.49186E-03   -0.49300E-03  7696   0.171E-01-0.329E-04
CGA:  13    -0.334895702460E+03   -0.10297E-02   -0.10357E-02  7696   0.235E-01-0.222E-03
CGA:  14    -0.334896087955E+03   -0.38550E-03   -0.38704E-03  7696   0.803E-02-0.543E-04
CGA:  15    -0.334896390288E+03   -0.30233E-03   -0.30231E-03  7696   0.841E-02 0.645E-05
CGA:  16    -0.334896598227E+03   -0.20794E-03   -0.20886E-03  7696   0.421E-02 0.796E-05
CGA:  17    -0.334896739884E+03   -0.14166E-03   -0.14164E-03  7696   0.642E-02-0.351E-05
CGA:  18    -0.334896977233E+03   -0.23735E-03   -0.23731E-03  7696   0.201E-02 0.135E-04
CGA:  19    -0.334897010697E+03   -0.33464E-04   -0.33410E-04  7696   0.994E-03 0.906E-06
CGA:  20    -0.334897072511E+03   -0.61814E-04   -0.61831E-04  7696   0.307E-02-0.619E-06
CGA:  21    -0.334897178273E+03   -0.10576E-03   -0.10577E-03  7696   0.146E-02 0.244E-05
CGA:  22    -0.334897202371E+03   -0.24099E-04   -0.24138E-04  7696   0.663E-03 0.325E-06
CGA:  23    -0.334897235591E+03   -0.33219E-04   -0.33122E-04  7696   0.755E-03 0.589E-05
CGA:  24    -0.334897253247E+03   -0.17657E-04   -0.17674E-04  7696   0.602E-03 0.163E-05
CGA:  25    -0.334897282057E+03   -0.28810E-04   -0.28772E-04  7696   0.840E-03 0.292E-05
CGA:  26    -0.334897302518E+03   -0.20461E-04   -0.20442E-04  7696   0.300E-03-0.425E-07
CGA:  27    -0.334897311174E+03   -0.86560E-05   -0.86536E-05  7696   0.443E-03-0.433E-06
CGA:  28    -0.334897335650E+03   -0.24476E-04   -0.24530E-04  7696   0.347E-03-0.264E-05
CGA:  29    -0.334897340783E+03   -0.51332E-05   -0.51221E-05  7696   0.970E-04-0.497E-06
  11 F= -.33489734E+03 E0= -.33486627E+03  d E =-.987325E-02  mag=    32.0000
       N       E                     dE             d eps       ncg     rms          ort
SDA:   1    -0.330014937051E+03    0.48824E+01    0.00000E+00  7696   0.573E+02 0.000E+00
CGA:   2    -0.330497623127E+03   -0.48269E+00   -0.88237E+00  7696   0.288E+02-0.132E+02
CGA:   3    -0.331470519160E+03   -0.97290E+00   -0.14885E+01  7696   0.154E+03-0.153E+02
CGA:   4    -0.331995577664E+03   -0.52506E+00   -0.25159E+01  7696   0.461E+02-0.413E+02
CGA:   5    -0.332714531024E+03   -0.71895E+00   -0.49583E+00  7696   0.106E+02 0.109E+02
CGA:   6    -0.332859990214E+03   -0.14546E+00   -0.99116E-01  7696   0.544E+01 0.523E+01
CGA:   7    -0.332999487856E+03   -0.13950E+00   -0.12987E+00  7696   0.159E+02 0.282E+00
CGA:   8    -0.333209658940E+03   -0.21017E+00   -0.22865E+00  7696   0.537E+02-0.889E+00
CGA:   9    -0.333591658080E+03   -0.38200E+00   -0.41579E+00  7696   0.671E+02-0.309E+01
CGA:  10    -0.333938662784E+03   -0.34700E+00   -0.40951E+00  7696   0.566E+02-0.826E+01
CGA:  11    -0.334195639017E+03   -0.25698E+00   -0.21593E+00  7696   0.354E+02 0.820E+01
CGA:  12    -0.334361922820E+03   -0.16628E+00   -0.13274E+00  7696   0.156E+02 0.924E+01
CGA:  13    -0.334435765251E+03   -0.73842E-01   -0.62040E-01  7696   0.623E+01 0.347E+01
CGA:  14    -0.334464087336E+03   -0.28322E-01   -0.24760E-01  7696   0.288E+01 0.101E+01
CGA:  15    -0.334477549564E+03   -0.13462E-01   -0.12296E-01  7696   0.204E+01 0.288E+00
CGA:  16    -0.334488654803E+03   -0.11105E-01   -0.10867E-01  7696   0.267E+01 0.450E-01
CGA:  17    -0.334505050674E+03   -0.16396E-01   -0.17896E-01  7696   0.533E+01-0.156E+00
CGA:  18    -0.334541483687E+03   -0.36433E-01   -0.42869E-01  7696   0.997E+01-0.325E+00
CGA:  19    -0.334602531119E+03   -0.61047E-01   -0.61507E-01  7696   0.660E+01 0.834E-01
CGA:  20    -0.334634706301E+03   -0.32175E-01   -0.35061E-01  7696   0.266E+01-0.447E+00
CGA:  21    -0.334652131739E+03   -0.17425E-01   -0.17751E-01  7696   0.277E+01-0.334E-01
CGA:  22    -0.334686903160E+03   -0.34771E-01   -0.34988E-01  7696   0.562E+01 0.265E-02
CGA:  23    -0.334733522469E+03   -0.46619E-01   -0.32296E-01  7696   0.472E+01 0.244E+01
CGA:  24    -0.334767006635E+03   -0.33484E-01   -0.22384E-01  7696   0.207E+01 0.317E+01
CGA:  25    -0.334790343730E+03   -0.23337E-01   -0.23476E-01  7696   0.550E+00 0.516E-04
CGA:  26    -0.334814933074E+03   -0.24589E-01   -0.26729E-01  7696   0.126E+01-0.808E-01
CGA:  27    -0.334844048195E+03   -0.29115E-01   -0.29759E-01  7696   0.104E+01-0.592E-01
CGA:  28    -0.334865843117E+03   -0.21795E-01   -0.21672E-01  7696   0.104E+01 0.248E-01
CGA:  29    -0.334889625899E+03   -0.23783E-01   -0.23457E-01  7696   0.233E+00 0.626E-01
CGA:  30    -0.334893269217E+03   -0.36433E-02   -0.36384E-02  7696   0.727E-01-0.271E-03
CGA:  31    -0.334902301905E+03   -0.90327E-02   -0.54536E-03  7696   0.313E+00 0.133E-02
CGA:  32    -0.334907362413E+03   -0.50605E-02   -0.49954E-02  7696   0.552E-01 0.222E-02
CGA:  33    -0.334908974375E+03   -0.16120E-02   -0.16142E-02  7696   0.696E-01 0.194E-03
CGA:  34    -0.334912799149E+03   -0.38248E-02   -0.38190E-02  7696   0.257E-01 0.227E-03
CGA:  35    -0.334913167401E+03   -0.36825E-03   -0.36764E-03  7696   0.790E-02 0.455E-04
CGA:  36    -0.334913446494E+03   -0.27909E-03   -0.27884E-03  7696   0.131E-01 0.778E-04
CGA:  37    -0.334913913474E+03   -0.46698E-03   -0.46665E-03  7696   0.545E-02 0.109E-03
CGA:  38    -0.334914194612E+03   -0.28114E-03   -0.28155E-03  7696   0.750E-02-0.164E-04
CGA:  39    -0.334914323422E+03   -0.12881E-03   -0.12853E-03  7696   0.189E-02 0.236E-04
CGA:  40    -0.334914369539E+03   -0.46117E-04   -0.46156E-04  7696   0.243E-02 0.151E-05
CGA:  41    -0.334914631084E+03   -0.26155E-03   -0.26103E-03  7696   0.198E-02 0.988E-05
CGA:  42    -0.334914668480E+03   -0.37396E-04   -0.37263E-04  7696   0.101E-02-0.208E-05
CGA:  43    -0.334914750124E+03   -0.81643E-04   -0.81968E-04  7696   0.373E-02-0.744E-05
CGA:  44    -0.334914819497E+03   -0.69374E-04   -0.69263E-04  7696   0.589E-03-0.530E-05
CGA:  45    -0.334914838390E+03   -0.18893E-04   -0.18903E-04  7696   0.827E-03 0.187E-05
CGA:  46    -0.334914906910E+03   -0.68520E-04   -0.67857E-04  7696   0.132E-02 0.145E-04
CGA:  47    -0.334914925548E+03   -0.18639E-04   -0.18733E-04  7696   0.378E-03 0.500E-05
CGA:  48    -0.334914941277E+03   -0.15729E-04   -0.15703E-04  7696   0.456E-03 0.611E-05
CGA:  49    -0.334914953641E+03   -0.12364E-04   -0.12398E-04  7696   0.222E-03 0.240E-05
CGA:  50    -0.334914976504E+03   -0.22863E-04   -0.22798E-04  7696   0.708E-03 0.890E-06
CGA:  51    -0.334914986860E+03   -0.10355E-04   -0.10372E-04  7696   0.151E-03 0.320E-06
CGA:  52    -0.334914992609E+03   -0.57495E-05   -0.57501E-05  7696   0.283E-03 0.340E-06
CGA:  53    -0.334915011817E+03   -0.19208E-04   -0.19188E-04  7696   0.122E-03 0.565E-06
CGA:  54    -0.334915014514E+03   -0.26969E-05   -0.27020E-05  7696   0.868E-04 0.127E-06
  12 F= -.33491501E+03 E0= -.33488403E+03  d E =-.176737E-01  mag=    32.0000
       N       E                     dE             d eps       ncg     rms          ort
SDA:   1    -0.334528628261E+03    0.38638E+00    0.00000E+00  7696   0.838E+01 0.000E+00
CGA:   2    -0.334607385748E+03   -0.78757E-01   -0.89845E-01  7696   0.152E+01-0.851E+00
CGA:   3    -0.334659230632E+03   -0.51845E-01   -0.51947E-01  7696   0.241E+01 0.410E-01
CGA:   4    -0.334784501424E+03   -0.12527E+00   -0.12639E+00  7696   0.224E+01-0.681E-01
CGA:   5    -0.334819145416E+03   -0.34644E-01   -0.35292E-01  7696   0.742E+00-0.267E-01
CGA:   6    -0.334840670478E+03   -0.21525E-01   -0.21662E-01  7696   0.707E+00 0.296E-02
CGA:   7    -0.334875976746E+03   -0.35306E-01   -0.35596E-01  7696   0.875E+00-0.179E-01
CGA:   8    -0.334891767654E+03   -0.15791E-01   -0.15788E-01  7696   0.376E+00-0.136E-03
CGA:   9    -0.334901314572E+03   -0.95469E-02   -0.96990E-02  7696   0.174E+00 0.613E-03
CGA:  10    -0.334906243881E+03   -0.49293E-02   -0.49216E-02  7696   0.982E-01-0.148E-03
CGA:  11    -0.334908684114E+03   -0.24402E-02   -0.24448E-02  7696   0.105E+00 0.188E-04
CGA:  12    -0.334913141228E+03   -0.44571E-02   -0.44530E-02  7696   0.981E-01 0.430E-03
CGA:  13    -0.334915620320E+03   -0.24791E-02   -0.24641E-02  7696   0.297E-01-0.612E-04
CGA:  14    -0.334916109917E+03   -0.48960E-03   -0.48925E-03  7696   0.139E-01 0.126E-04
CGA:  15    -0.334916718320E+03   -0.60840E-03   -0.60802E-03  7696   0.209E-01 0.315E-04
CGA:  16    -0.334917656221E+03   -0.93790E-03   -0.93863E-03  7696   0.190E-01-0.539E-04
CGA:  17    -0.334917967643E+03   -0.31142E-03   -0.31151E-03  7696   0.631E-02-0.203E-05
CGA:  18    -0.334918153241E+03   -0.18560E-03   -0.18574E-03  7696   0.537E-02 0.981E-05
CGA:  19    -0.334918442985E+03   -0.28974E-03   -0.28997E-03  7696   0.883E-02-0.100E-04
CGA:  20    -0.334918617665E+03   -0.17468E-03   -0.17460E-03  7696   0.378E-02 0.986E-06
CGA:  21    -0.334918712372E+03   -0.94707E-04   -0.94793E-04  7696   0.203E-02 0.241E-05
CGA:  22    -0.334918803439E+03   -0.91066E-04   -0.91136E-04  7696   0.291E-02-0.459E-05
CGA:  23    -0.334918874936E+03   -0.71497E-04   -0.71530E-04  7696   0.224E-02 0.273E-05
CGA:  24    -0.334918941610E+03   -0.66674E-04   -0.66695E-04  7696   0.138E-02 0.410E-05
CGA:  25    -0.334918986634E+03   -0.45024E-04   -0.45027E-04  7696   0.962E-03 0.184E-05
CGA:  26    -0.334919007275E+03   -0.20641E-04   -0.20647E-04  7696   0.710E-03 0.435E-06
CGA:  27    -0.334919035706E+03   -0.28431E-04   -0.28426E-04  7696   0.820E-03 0.321E-06
CGA:  28    -0.334919066310E+03   -0.30604E-04   -0.30615E-04  7696   0.542E-03-0.271E-05
CGA:  29    -0.334919075526E+03   -0.92167E-05   -0.92050E-05  7696   0.222E-03-0.763E-06
  13 F= -.33491908E+03 E0= -.33488804E+03  d E =-.406101E-02  mag=    32.0000
       N       E                     dE             d eps       ncg     rms          ort
SDA:   1    -0.334879420095E+03    0.39646E-01    0.00000E+00  7696   0.133E+01 0.000E+00
CGA:   2    -0.334892876856E+03   -0.13457E-01   -0.13772E-01  7696   0.158E+00-0.226E-01
CGA:   3    -0.334896418447E+03   -0.35416E-02   -0.35659E-02  7696   0.149E+00 0.267E-03
CGA:   4    -0.334910676812E+03   -0.14258E-01   -0.14292E-01  7696   0.817E-01-0.595E-03
CGA:   5    -0.334912227596E+03   -0.15508E-02   -0.15594E-02  7696   0.595E-01-0.159E-03
CGA:   6    -0.334914857530E+03   -0.26299E-02   -0.26250E-02  7696   0.116E+00 0.362E-03
CGA:   7    -0.334918214991E+03   -0.33575E-02   -0.33560E-02  7696   0.298E-01-0.586E-04
CGA:   8    -0.334919517103E+03   -0.13021E-02   -0.13054E-02  7696   0.370E-01-0.246E-03
CGA:   9    -0.334920075837E+03   -0.55873E-03   -0.55398E-03  7696   0.859E-02 0.196E-03
CGA:  10    -0.334920358615E+03   -0.28278E-03   -0.28277E-03  7696   0.105E-01-0.644E-05
CGA:  11    -0.334921102892E+03   -0.74428E-03   -0.74256E-03  7696   0.344E-02 0.472E-04
CGA:  12    -0.334921161596E+03   -0.58704E-04   -0.58654E-04  7696   0.226E-02 0.238E-05
CGA:  13    -0.334921262631E+03   -0.10104E-03   -0.10112E-03  7696   0.341E-02-0.536E-05
CGA:  14    -0.334921351306E+03   -0.88674E-04   -0.88718E-04  7696   0.887E-03 0.309E-05
CGA:  15    -0.334921389667E+03   -0.38361E-04   -0.38325E-04  7696   0.184E-02 0.343E-05
CGA:  16    -0.334921430446E+03   -0.40779E-04   -0.40799E-04  7696   0.609E-03 0.214E-06
CGA:  17    -0.334921453561E+03   -0.23114E-04   -0.23114E-04  7696   0.735E-03-0.306E-07
CGA:  18    -0.334921484366E+03   -0.30805E-04   -0.30846E-04  7696   0.304E-03-0.470E-05
CGA:  19    -0.334921488795E+03   -0.44295E-05   -0.44292E-05  7696   0.168E-03-0.441E-07
CGA:  20    -0.334921506049E+03   -0.17253E-04   -0.17091E-04  7696   0.408E-03 0.242E-05
CGA:  21    -0.334921515229E+03   -0.91808E-05   -0.91861E-05  7696   0.962E-04 0.533E-06
  14 F= -.33492152E+03 E0= -.33489049E+03  d E =-.243970E-02  mag=    32.0000
       N       E                     dE             d eps       ncg     rms          ort
SDA:   1    -0.334439426324E+03    0.48208E+00    0.00000E+00  7696   0.519E+02 0.000E+00
CGA:   2    -0.334877741822E+03   -0.43832E+00   -0.45745E+00  7696   0.633E+00-0.308E+01
CGA:   3    -0.334885859672E+03   -0.81179E-02   -0.80019E-02  7696   0.120E+00 0.613E-02
CGA:   4    -0.334892219349E+03   -0.63597E-02   -0.63722E-02  7696   0.428E+00-0.556E-03
CGA:   5    -0.334911901954E+03   -0.19683E-01   -0.19666E-01  7696   0.126E+00 0.106E-02
CGA:   6    -0.334914265469E+03   -0.23635E-02   -0.23682E-02  7696   0.807E-01-0.953E-04
CGA:   7    -0.334917340036E+03   -0.30746E-02   -0.30912E-02  7696   0.861E-01-0.246E-02
CGA:   8    -0.334919026056E+03   -0.16860E-02   -0.16777E-02  7696   0.369E-01 0.120E-03
CGA:   9    -0.334921180392E+03   -0.21543E-02   -0.21356E-02  7696   0.429E-01 0.706E-03
CGA:  10    -0.334921850840E+03   -0.67045E-03   -0.67044E-03  7696   0.700E-02 0.974E-05
CGA:  11    -0.334922032585E+03   -0.18174E-03   -0.18162E-03  7696   0.916E-02-0.664E-06
CGA:  12    -0.334922605337E+03   -0.57275E-03   -0.57251E-03  7696   0.424E-02 0.834E-05
CGA:  13    -0.334922676106E+03   -0.70769E-04   -0.70822E-04  7696   0.266E-02 0.407E-06
CGA:  14    -0.334922808451E+03   -0.13234E-03   -0.13197E-03  7696   0.292E-02 0.201E-04
CGA:  15    -0.334922867611E+03   -0.59160E-04   -0.59109E-04  7696   0.110E-02 0.149E-06
CGA:  16    -0.334922914589E+03   -0.46978E-04   -0.46999E-04  7696   0.187E-02-0.207E-05
CGA:  17    -0.334922950753E+03   -0.36164E-04   -0.36030E-04  7696   0.361E-03 0.276E-06
CGA:  18    -0.334922976809E+03   -0.26056E-04   -0.25994E-04  7696   0.124E-02 0.164E-05
CGA:  19    -0.334923008695E+03   -0.31887E-04   -0.31911E-04  7696   0.399E-03 0.235E-05
CGA:  20    -0.334923014546E+03   -0.58513E-05   -0.58601E-05  7696   0.106E-03 0.324E-06
  15 F= -.33492301E+03 E0= -.33489199E+03  d E =-.149932E-02  mag=    32.0000
       N       E                     dE             d eps       ncg     rms          ort
SDA:   1    -0.334825416131E+03    0.97593E-01    0.00000E+00  7696   0.653E+01 0.000E+00
CGA:   2    -0.334879398414E+03   -0.53982E-01   -0.59237E-01  7696   0.225E+00-0.507E+00
CGA:   3    -0.334884380402E+03   -0.49820E-02   -0.49921E-02  7696   0.234E+00 0.374E-04
CGA:   4    -0.334898465967E+03   -0.14086E-01   -0.14392E-01  7696   0.515E+00-0.111E-01
CGA:   5    -0.334908855203E+03   -0.10389E-01   -0.10326E-01  7696   0.232E+00 0.896E-03
CGA:   6    -0.334918329147E+03   -0.94739E-02   -0.94177E-02  7696   0.113E+00 0.683E-02
CGA:   7    -0.334919912284E+03   -0.15831E-02   -0.16144E-02  7696   0.247E-01-0.150E-02
CGA:   8    -0.334920982640E+03   -0.10704E-02   -0.10711E-02  7696   0.559E-01-0.591E-04
CGA:   9    -0.334923399029E+03   -0.24164E-02   -0.24154E-02  7696   0.299E-01 0.765E-04
CGA:  10    -0.334923787976E+03   -0.38895E-03   -0.38863E-03  7696   0.482E-02 0.125E-04
CGA:  11    -0.334923989252E+03   -0.20128E-03   -0.20140E-03  7696   0.743E-02-0.112E-04
CGA:  12    -0.334924154855E+03   -0.16560E-03   -0.16544E-03  7696   0.332E-02 0.552E-05
CGA:  13    -0.334924296088E+03   -0.14123E-03   -0.14116E-03  7696   0.491E-02 0.809E-05
CGA:  14    -0.334924413814E+03   -0.11773E-03   -0.11796E-03  7696   0.154E-02 0.794E-05
CGA:  15    -0.334924443255E+03   -0.29441E-04   -0.29437E-04  7696   0.817E-03 0.305E-06
CGA:  16    -0.334924493307E+03   -0.50052E-04   -0.50139E-04  7696   0.165E-02-0.295E-05
CGA:  17    -0.334924520830E+03   -0.27522E-04   -0.27505E-04  7696   0.244E-03-0.218E-05
CGA:  18    -0.334924529422E+03   -0.85920E-05   -0.85926E-05  7696   0.480E-03-0.363E-06
CGA:  19    -0.334924553244E+03   -0.23822E-04   -0.23808E-04  7696   0.444E-03 0.937E-06
CGA:  20    -0.334924560782E+03   -0.75377E-05   -0.75382E-05  7696   0.954E-04 0.373E-06
  16 F= -.33492456E+03 E0= -.33489353E+03  d E =-.154624E-02  mag=    32.0000
       N       E                     dE             d eps       ncg     rms          ort
SDA:   1    -0.331684161794E+03    0.32404E+01    0.00000E+00  7696   0.322E+02 0.000E+00
CGA:   2    -0.332018752409E+03   -0.33459E+00   -0.43743E+00  7696   0.144E+02-0.498E+01
CGA:   3    -0.332857484294E+03   -0.83873E+00   -0.91496E+00  7696   0.561E+02-0.184E+01
CGA:   4    -0.334281266348E+03   -0.14238E+01   -0.14422E+01  7696   0.750E+01 0.108E+01
CGA:   5    -0.334390895836E+03   -0.10963E+00   -0.10014E+00  7696   0.256E+01 0.503E+00
CGA:   6    -0.334677177197E+03   -0.28628E+00   -0.33310E+00  7696   0.755E+01-0.786E+00
CGA:   7    -0.334746115280E+03   -0.68938E-01   -0.71198E-01  7696   0.377E+01-0.125E+00
CGA:   8    -0.334820435737E+03   -0.74320E-01   -0.86430E-01  7696   0.192E+01-0.966E-03
CGA:   9    -0.334844364652E+03   -0.23929E-01   -0.23777E-01  7696   0.566E+00 0.134E-01
CGA:  10    -0.334868142959E+03   -0.23778E-01   -0.23758E-01  7696   0.943E+00 0.193E-02
CGA:  11    -0.334901221319E+03   -0.33078E-01   -0.33078E-01  7696   0.288E+00-0.361E-03
CGA:  12    -0.334907661684E+03   -0.64404E-02   -0.64643E-02  7696   0.324E+00-0.203E-04
CGA:  13    -0.334915771675E+03   -0.81100E-02   -0.76265E-02  7696   0.639E-01 0.549E-03
CGA:  14    -0.334918369758E+03   -0.25981E-02   -0.26050E-02  7696   0.186E+00-0.695E-03
CGA:  15    -0.334923576289E+03   -0.52065E-02   -0.52128E-02  7696   0.516E-01 0.319E-03
CGA:  16    -0.334924577692E+03   -0.10014E-02   -0.10044E-02  7696   0.409E-01-0.519E-04
CGA:  17    -0.334926014043E+03   -0.14364E-02   -0.14365E-02  7696   0.639E-01-0.488E-04
CGA:  18    -0.334927622578E+03   -0.16085E-02   -0.16118E-02  7696   0.210E-01 0.750E-04
CGA:  19    -0.334928192941E+03   -0.57036E-03   -0.56989E-03  7696   0.299E-01-0.237E-04
CGA:  20    -0.334928785719E+03   -0.59278E-03   -0.58012E-03  7696   0.550E-02 0.181E-03
CGA:  21    -0.334928997993E+03   -0.21227E-03   -0.21223E-03  7696   0.164E-01 0.652E-05
CGA:  22    -0.334929661556E+03   -0.66356E-03   -0.66285E-03  7696   0.195E-01 0.712E-04
CGA:  23    -0.334930021901E+03   -0.36034E-03   -0.35925E-03  7696   0.352E-02 0.356E-04
CGA:  24    -0.334930082580E+03   -0.60679E-04   -0.60684E-04  7696   0.329E-02 0.486E-06
CGA:  25    -0.334930209105E+03   -0.12653E-03   -0.12618E-03  7696   0.201E-02 0.335E-04
CGA:  26    -0.334930270043E+03   -0.60939E-04   -0.60938E-04  7696   0.437E-02-0.219E-05
CGA:  27    -0.334930436179E+03   -0.16614E-03   -0.16647E-03  7696   0.281E-02-0.397E-04
CGA:  28    -0.334930483658E+03   -0.47478E-04   -0.47321E-04  7696   0.154E-02 0.195E-06
CGA:  29    -0.334930530491E+03   -0.46833E-04   -0.46835E-04  7696   0.269E-02 0.242E-05
CGA:  30    -0.334930627735E+03   -0.97245E-04   -0.97230E-04  7696   0.129E-02 0.325E-05
CGA:  31    -0.334930643218E+03   -0.15483E-04   -0.15468E-04  7696   0.498E-03 0.219E-05
SDA:  32    -0.334930676037E+03   -0.32818E-04   -0.32483E-04  7696   0.920E-03 0.967E-05
CGA:  33    -0.334930687967E+03   -0.11931E-04   -0.11943E-04  7696   0.402E-03-0.791E-06
CGA:  34    -0.334930707217E+03   -0.19250E-04   -0.19321E-04  7696   0.377E-03-0.382E-05
CGA:  35    -0.334930717278E+03   -0.10061E-04   -0.10064E-04  7696   0.311E-03 0.451E-06
CGA:  36    -0.334930734660E+03   -0.17381E-04   -0.17296E-04  7696   0.710E-03 0.353E-05
CGA:  37    -0.334930747635E+03   -0.12975E-04   -0.13000E-04  7696   0.149E-03 0.193E-05
CGA:  38    -0.334930764196E+03   -0.16561E-04   -0.16231E-04  7696   0.340E-03 0.434E-05
CGA:  39    -0.334930771915E+03   -0.77196E-05   -0.77283E-05  7696   0.774E-04 0.933E-06
  17 F= -.33493077E+03 E0= -.33489969E+03  d E =-.621113E-02  mag=    32.0000
       N       E                     dE             d eps       ncg     rms          ort
SDA:   1    -0.326995382851E+03    0.79354E+01    0.00000E+00  7696   0.102E+03 0.000E+00
CGA:   2    -0.327874717758E+03   -0.87933E+00   -0.17057E+01  7696   0.651E+02-0.343E+02
CGA:   3    -0.329423326723E+03   -0.15486E+01   -0.15513E+01  7696   0.708E+02-0.269E+01
CGA:   4    -0.331458528131E+03   -0.20352E+01   -0.20186E+01  7696   0.365E+02-0.666E+00
CGA:   5    -0.332350607416E+03   -0.89208E+00   -0.92996E+00  7696   0.313E+02 0.721E+00
CGA:   6    -0.333163314590E+03   -0.81271E+00   -0.79253E+00  7696   0.186E+02-0.448E+00
CGA:   7    -0.333871750524E+03   -0.70844E+00   -0.72066E+00  7696   0.181E+02-0.145E+01
CGA:   8    -0.334283548113E+03   -0.41180E+00   -0.41140E+00  7696   0.119E+02-0.515E-01
CGA:   9    -0.334499532223E+03   -0.21598E+00   -0.21901E+00  7696   0.354E+01-0.302E-01
CGA:  10    -0.334595402961E+03   -0.95871E-01   -0.95845E-01  7696   0.293E+01-0.955E-03
CGA:  11    -0.334679810079E+03   -0.84407E-01   -0.84257E-01  7696   0.309E+01-0.139E-01
CGA:  12    -0.334778508654E+03   -0.98699E-01   -0.98832E-01  7696   0.151E+01 0.122E+00
CGA:  13    -0.334815287174E+03   -0.36779E-01   -0.35846E-01  7696   0.684E+00-0.668E-02
CGA:  14    -0.334830474321E+03   -0.15187E-01   -0.15208E-01  7696   0.515E+00 0.233E-03
CGA:  15    -0.334847523253E+03   -0.17049E-01   -0.17036E-01  7696   0.457E+00 0.521E-02
CGA:  16    -0.334862074701E+03   -0.14551E-01   -0.14550E-01  7696   0.423E+00-0.386E-02
CGA:  17    -0.334871214178E+03   -0.91395E-02   -0.91957E-02  7696   0.227E+00 0.345E-03
CGA:  18    -0.334877133317E+03   -0.59191E-02   -0.59024E-02  7696   0.102E+00-0.905E-03
CGA:  19    -0.334880708299E+03   -0.35750E-02   -0.35685E-02  7696   0.115E+00 0.988E-03
CGA:  20    -0.334884157619E+03   -0.34493E-02   -0.34479E-02  7696   0.129E+00-0.388E-03
CGA:  21    -0.334888243906E+03   -0.40863E-02   -0.40856E-02  7696   0.675E-01 0.622E-03
CGA:  22    -0.334889859540E+03   -0.16156E-02   -0.16144E-02  7696   0.400E-01-0.267E-04
CGA:  23    -0.334890712932E+03   -0.85339E-03   -0.85252E-03  7696   0.289E-01-0.142E-05
CGA:  24    -0.334892151601E+03   -0.14387E-02   -0.14358E-02  7696   0.382E-01 0.133E-03
CGA:  25    -0.334893385231E+03   -0.12336E-02   -0.12337E-02  7696   0.325E-01-0.548E-04
CGA:  26    -0.334894006547E+03   -0.62132E-03   -0.62256E-03  7696   0.123E-01-0.679E-06
CGA:  27    -0.334894423798E+03   -0.41725E-03   -0.41719E-03  7696   0.943E-02 0.144E-04
CGA:  28    -0.334894776120E+03   -0.35232E-03   -0.35227E-03  7696   0.138E-01 0.881E-05
CGA:  29    -0.334895112337E+03   -0.33622E-03   -0.33625E-03  7696   0.873E-02 0.773E-05
CGA:  30    -0.334895388552E+03   -0.27621E-03   -0.27621E-03  7696   0.538E-02 0.105E-04
CGA:  31    -0.334895516662E+03   -0.12811E-03   -0.12824E-03  7696   0.425E-02 0.820E-05
SDA:  32    -0.334895631161E+03   -0.11450E-03   -0.11449E-03  7696   0.293E-02 0.101E-05
CGA:  33    -0.334895668768E+03   -0.37606E-04   -0.37669E-04  7696   0.891E-03-0.200E-05
CGA:  34    -0.334895704983E+03   -0.36216E-04   -0.36240E-04  7696   0.223E-02-0.207E-05
CGA:  35    -0.334895862948E+03   -0.15796E-03   -0.15852E-03  7696   0.207E-02-0.143E-04
CGA:  36    -0.334895915263E+03   -0.52315E-04   -0.52363E-04  7696   0.245E-02 0.331E-05
CGA:  37    -0.334895977786E+03   -0.62524E-04   -0.62615E-04  7696   0.532E-03 0.558E-05
CGA:  38    -0.334895992733E+03   -0.14947E-04   -0.14950E-04  7696   0.516E-03 0.848E-06
CGA:  39    -0.334896042901E+03   -0.50168E-04   -0.49805E-04  7696   0.294E-03 0.539E-05
CGA:  40    -0.334896049575E+03   -0.66738E-05   -0.66958E-05  7696   0.433E-03 0.150E-05
CGA:  41    -0.334896087901E+03   -0.38326E-04   -0.37885E-04  7696   0.209E-03 0.828E-05
CGA:  42    -0.334896092190E+03   -0.42896E-05   -0.42849E-05  7696   0.260E-03-0.302E-06
CGA:  43    -0.334896115325E+03   -0.23134E-04   -0.23406E-04  7696   0.536E-03-0.501E-05
CGA:  44    -0.334896125176E+03   -0.98509E-05   -0.97922E-05  7696   0.744E-04-0.248E-05
  18 F= -.33489613E+03 E0= -.33486471E+03  d E =0.346467E-01  mag=    32.0000
       N       E                     dE             d eps       ncg     rms          ort
SDA:   1    -0.239393485152E+03    0.95503E+02    0.00000E+00  7696   0.235E+04 0.000E+00
CGA:   2    -0.264263415900E+03   -0.24870E+02   -0.52835E+02  7696   0.258E+03 0.232E+03
CGA:   3    -0.263430100930E+03    0.83331E+00   -0.17847E+02  7696   0.714E+03-0.459E+03
CGA:   4    -0.294913748034E+03   -0.31484E+02   -0.22315E+02  7696   0.144E+03-0.129E+03
CGA:   5    -0.299188159973E+03   -0.42744E+01   -0.12834E+01  7696   0.274E+03 0.346E+03
CGA:   6    -0.303956526811E+03   -0.47684E+01   -0.32349E+01  7696   0.190E+03 0.144E+03
CGA:   7    -0.307627211523E+03   -0.36707E+01   -0.27120E+01  7696   0.968E+02 0.112E+02
CGA:   8    -0.308804870865E+03   -0.11777E+01   -0.56777E+00  7696   0.105E+03 0.102E+03
CGA:   9    -0.311728438120E+03   -0.29236E+01   -0.19115E+01  7696   0.822E+02 0.655E+02
CGA:  10    -0.313044290135E+03   -0.13159E+01   -0.10146E+01  7696   0.556E+02 0.145E+02
CGA:  11    -0.319847664964E+03   -0.68034E+01   -0.63871E+01  7696   0.282E+03-0.105E+01
CGA:  12    -0.324337727383E+03   -0.44901E+01   -0.53376E+01  7696   0.219E+03-0.242E+02
CGA:  13    -0.327432068533E+03   -0.30943E+01   -0.17779E+01  7696   0.113E+03 0.124E+03
CGA:  14    -0.329119855978E+03   -0.16878E+01   -0.16457E+01  7696   0.606E+02 0.155E+00
CGA:  15    -0.330179164420E+03   -0.10593E+01   -0.11325E+01  7696   0.285E+02 0.216E+01
CGA:  16    -0.330535418112E+03   -0.35625E+00   -0.34907E+00  7696   0.941E+01 0.715E+00
CGA:  17    -0.330730753546E+03   -0.19534E+00   -0.17776E+00  7696   0.114E+02 0.233E+00
CGA:  18    -0.331782451019E+03   -0.10517E+01   -0.10488E+01  7696   0.268E+02 0.854E-01
CGA:  19    -0.332024439449E+03   -0.24199E+00   -0.24289E+00  7696   0.432E+01-0.446E-01
CGA:  20    -0.332169753857E+03   -0.14531E+00   -0.14583E+00  7696   0.129E+02-0.150E+00
CGA:  21    -0.332586359835E+03   -0.41661E+00   -0.42484E+00  7696   0.701E+01-0.228E+01
CGA:  22    -0.332646102506E+03   -0.59743E-01   -0.53227E-01  7696   0.246E+01 0.567E+00
CGA:  23    -0.332700970143E+03   -0.54868E-01   -0.54068E-01  7696   0.533E+01-0.124E-02
CGA:  24    -0.332817487853E+03   -0.11652E+00   -0.11759E+00  7696   0.655E+01 0.348E-01
CGA:  25    -0.332897521760E+03   -0.80034E-01   -0.85138E-01  7696   0.313E+01-0.244E+00
CGA:  26    -0.332927437528E+03   -0.29916E-01   -0.30542E-01  7696   0.140E+01-0.472E-01
CGA:  27    -0.332951667316E+03   -0.24230E-01   -0.23672E-01  7696   0.215E+01 0.635E-02
CGA:  28    -0.333003884945E+03   -0.52218E-01   -0.51165E-01  7696   0.315E+01-0.806E-01
CGA:  29    -0.333029409622E+03   -0.25525E-01   -0.23407E-01  7696   0.125E+01 0.239E+00
CGA:  30    -0.333039908898E+03   -0.10499E-01   -0.10833E-01  7696   0.774E+00-0.323E-01
CGA:  31    -0.333051935859E+03   -0.12027E-01   -0.12212E-01  7696   0.132E+01-0.110E-02
CGA:  32    -0.333068306037E+03   -0.16370E-01   -0.17269E-01  7696   0.102E+01-0.228E-01
CGA:  33    -0.333079148968E+03   -0.10843E-01   -0.10880E-01  7696   0.597E+00-0.163E-02
CGA:  34    -0.333085191538E+03   -0.60426E-02   -0.61546E-02  7696   0.246E+00-0.701E-02
CGA:  35    -0.333088372843E+03   -0.31813E-02   -0.31959E-02  7696   0.311E+00-0.331E-03
CGA:  36    -0.333097182149E+03   -0.88093E-02   -0.87903E-02  7696   0.712E+00 0.220E-02
CGA:  37    -0.333106589693E+03   -0.94075E-02   -0.96294E-02  7696   0.329E+00-0.441E-02
CGA:  38    -0.333109940155E+03   -0.33505E-02   -0.34626E-02  7696   0.135E+00-0.590E-02
CGA:  39    -0.333111927023E+03   -0.19869E-02   -0.19778E-02  7696   0.127E+00-0.114E-03
CGA:  40    -0.333114684477E+03   -0.27575E-02   -0.27577E-02  7696   0.214E+00-0.485E-03
CGA:  41    -0.333119625410E+03   -0.49409E-02   -0.49388E-02  7696   0.265E+00 0.650E-03
CGA:  42    -0.333122401396E+03   -0.27760E-02   -0.28016E-02  7696   0.647E-01-0.138E-02
CGA:  43    -0.333123278466E+03   -0.87707E-03   -0.87660E-03  7696   0.602E-01-0.467E-04
SDA:  44    -0.333124706011E+03   -0.14275E-02   -0.14277E-02  7696   0.902E-01-0.697E-04
CGA:  45    -0.333125701843E+03   -0.99583E-03   -0.99952E-03  7696   0.179E-01-0.132E-03
CGA:  46    -0.333126416158E+03   -0.71432E-03   -0.71343E-03  7696   0.369E-01 0.404E-04
CGA:  47    -0.333128045288E+03   -0.16291E-02   -0.16281E-02  7696   0.179E-01 0.427E-04
CGA:  48    -0.333128385133E+03   -0.33985E-03   -0.33993E-03  7696   0.220E-01-0.244E-05
CGA:  49    -0.333130588732E+03   -0.22036E-02   -0.22365E-02  7696   0.271E-01-0.512E-03
CGA:  50    -0.333131050429E+03   -0.46170E-03   -0.46241E-03  7696   0.551E-02-0.237E-04
CGA:  51    -0.333131497356E+03   -0.44693E-03   -0.45022E-03  7696   0.336E-01-0.693E-04
CGA:  52    -0.333132512751E+03   -0.10154E-02   -0.10144E-02  7696   0.510E-02 0.280E-03
CGA:  53    -0.333132802875E+03   -0.29012E-03   -0.28993E-03  7696   0.178E-01 0.612E-05
CGA:  54    -0.333133419699E+03   -0.61682E-03   -0.61610E-03  7696   0.194E-01 0.103E-03
CGA:  55    -0.333133750300E+03   -0.33060E-03   -0.33317E-03  7696   0.414E-02-0.432E-04
CGA:  56    -0.333134128423E+03   -0.37812E-03   -0.38500E-03  7696   0.664E-02-0.135E-03
CGA:  57    -0.333134211723E+03   -0.83300E-04   -0.82522E-04  7696   0.244E-02 0.329E-04
CGA:  58    -0.333134401968E+03   -0.19025E-03   -0.19109E-03  7696   0.697E-02-0.191E-04
CGA:  59    -0.333134558660E+03   -0.15669E-03   -0.15714E-03  7696   0.217E-02-0.109E-04
CGA:  60    -0.333134594029E+03   -0.35369E-04   -0.35169E-04  7696   0.160E-02-0.139E-06
CGA:  61    -0.333134761340E+03   -0.16731E-03   -0.17303E-03  7696   0.217E-02-0.883E-04
CGA:  62    -0.333134786011E+03   -0.24672E-04   -0.24739E-04  7696   0.717E-03-0.124E-04
CGA:  63    -0.333134817684E+03   -0.31673E-04   -0.31693E-04  7696   0.167E-02-0.207E-05
CGA:  64    -0.333134884629E+03   -0.66944E-04   -0.66920E-04  7696   0.164E-02 0.452E-05
CGA:  65    -0.333134907353E+03   -0.22724E-04   -0.22843E-04  7696   0.733E-03-0.232E-05
CGA:  66    -0.333134966808E+03   -0.59455E-04   -0.59682E-04  7696   0.180E-02-0.688E-05
CGA:  67    -0.333134989857E+03   -0.23049E-04   -0.22759E-04  7696   0.463E-03 0.144E-04
CGA:  68    -0.333135004401E+03   -0.14545E-04   -0.14538E-04  7696   0.756E-03-0.253E-05
CGA:  69    -0.333135038139E+03   -0.33738E-04   -0.33663E-04  7696   0.131E-02 0.348E-05
CGA:  70    -0.333135056839E+03   -0.18700E-04   -0.18584E-04  7696   0.287E-03-0.189E-05
CGA:  71    -0.333135078558E+03   -0.21718E-04   -0.22479E-04  7696   0.141E-02-0.203E-04
CGA:  72    -0.333135097362E+03   -0.18804E-04   -0.16231E-04  7696   0.477E-03 0.171E-03
CGA:  73    -0.333135102709E+03   -0.53468E-05   -0.53756E-05  7696   0.214E-03-0.292E-05
  19 F= -.33313510E+03 E0= -.33310300E+03  d E =0.176102E+01  mag=    32.0000
       N       E                     dE             d eps       ncg     rms          ort
SDA:   1    -0.302131979512E+03    0.31003E+02    0.00000E+00  7696   0.253E+03 0.000E+00
CGA:   2    -0.308376193929E+03   -0.62442E+01   -0.36111E+01  7696   0.416E+03 0.472E+03
CGA:   3    -0.314347986037E+03   -0.59718E+01   -0.47912E+01  7696   0.169E+03-0.142E+03
CGA:   4    -0.317314302043E+03   -0.29663E+01   -0.19888E+01  7696   0.140E+03-0.100E+02
CGA:   5    -0.318990140004E+03   -0.16758E+01   -0.23389E+01  7696   0.242E+03-0.833E+01
CGA:   6    -0.325045732982E+03   -0.60556E+01   -0.61598E+01  7696   0.189E+03 0.611E+01
CGA:   7    -0.328299448792E+03   -0.32537E+01   -0.24212E+01  7696   0.698E+02 0.495E+02
CGA:   8    -0.329074761432E+03   -0.77531E+00   -0.42569E+00  7696   0.438E+02 0.655E+02
CGA:   9    -0.329672573203E+03   -0.59781E+00   -0.54237E+00  7696   0.186E+02 0.198E+01
CGA:  10    -0.330342266409E+03   -0.66969E+00   -0.13887E+01  7696   0.118E+03-0.261E+02
CGA:  11    -0.331506603148E+03   -0.11643E+01   -0.17642E+01  7696   0.257E+02-0.173E+02
CGA:  12    -0.331851109577E+03   -0.34451E+00   -0.28716E+00  7696   0.684E+01 0.267E+01
CGA:  13    -0.332209981529E+03   -0.35887E+00   -0.37558E+00  7696   0.236E+02-0.658E+00
CGA:  14    -0.333119927586E+03   -0.90995E+00   -0.93051E+00  7696   0.402E+02-0.130E+01
CGA:  15    -0.333776633964E+03   -0.65671E+00   -0.66492E+00  7696   0.187E+02-0.157E+00
CGA:  16    -0.334001631444E+03   -0.22500E+00   -0.18527E+00  7696   0.117E+02 0.292E+01
CGA:  17    -0.334291900288E+03   -0.29027E+00   -0.30116E+00  7696   0.136E+02 0.506E+00
CGA:  18    -0.334410275043E+03   -0.11837E+00   -0.13443E+00  7696   0.204E+01-0.118E+01
CGA:  19    -0.334430076737E+03   -0.19802E-01   -0.20280E-01  7696   0.112E+01-0.294E-01
CGA:  20    -0.334470016023E+03   -0.39939E-01   -0.40248E-01  7696   0.292E+01-0.244E-01
CGA:  21    -0.334534444300E+03   -0.64428E-01   -0.64567E-01  7696   0.342E+01 0.970E-02
CGA:  22    -0.334585581128E+03   -0.51137E-01   -0.53309E-01  7696   0.122E+01-0.419E-01
CGA:  23    -0.334598605040E+03   -0.13024E-01   -0.13016E-01  7696   0.603E+00-0.197E-03
[...]
       N       E                     dE             d eps       ncg     rms          ort
SDA:   1    -0.334951067521E+03    0.38898E-01    0.00000E+00  7696   0.280E+01 0.000E+00
CGA:   2    -0.334978280736E+03   -0.27213E-01   -0.22590E-01  7696   0.171E+00 0.503E+00
CGA:   3    -0.334980545199E+03   -0.22645E-02   -0.21396E-02  7696   0.460E-01 0.979E-02
CGA:   4    -0.334981425732E+03   -0.88053E-03   -0.87932E-03  7696   0.484E-01 0.349E-04
CGA:   5    -0.334984409931E+03   -0.29842E-02   -0.29807E-02  7696   0.198E+00 0.136E-03
CGA:   6    -0.334987292398E+03   -0.28825E-02   -0.28761E-02  7696   0.420E-01 0.287E-03
CGA:   7    -0.334987940326E+03   -0.64793E-03   -0.64446E-03  7696   0.299E-01 0.154E-03
CGA:   8    -0.334988511889E+03   -0.57156E-03   -0.57789E-03  7696   0.191E-01-0.153E-03
CGA:   9    -0.334988890741E+03   -0.37885E-03   -0.38329E-03  7696   0.138E-01-0.798E-04
CGA:  10    -0.334989124204E+03   -0.23346E-03   -0.23394E-03  7696   0.109E-01-0.888E-05
CGA:  11    -0.334989552022E+03   -0.42782E-03   -0.42817E-03  7696   0.154E-01-0.661E-04
CGA:  12    -0.334989722023E+03   -0.17000E-03   -0.16983E-03  7696   0.277E-02 0.193E-04
CGA:  13    -0.334989798151E+03   -0.76128E-04   -0.76165E-04  7696   0.577E-02 0.136E-05
CGA:  14    -0.334989954035E+03   -0.15588E-03   -0.15580E-03  7696   0.316E-02-0.606E-05
CGA:  15    -0.334989991812E+03   -0.37778E-04   -0.37672E-04  7696   0.865E-03-0.332E-07
CGA:  16    -0.334990004925E+03   -0.13113E-04   -0.13091E-04  7696   0.455E-03-0.643E-06
CGA:  17    -0.334990022089E+03   -0.17164E-04   -0.17166E-04  7696   0.136E-02-0.526E-06
CGA:  18    -0.334990058715E+03   -0.36626E-04   -0.36604E-04  7696   0.609E-03-0.330E-05
CGA:  19    -0.334990066389E+03   -0.76736E-05   -0.76517E-05  7696   0.286E-03-0.731E-06
 104 F= -.33499007E+03 E0= -.33495994E+03  d E =-.966050E-04  mag=    32.0000
       N       E                     dE             d eps       ncg     rms          ort
SDA:   1    -0.334756334803E+03    0.23372E+00    0.00000E+00  7696   0.624E+01 0.000E+00
CGA:   2    -0.334827830907E+03   -0.71496E-01   -0.69227E-01  7696   0.721E+00 0.180E+00
CGA:   3    -0.334844555305E+03   -0.16724E-01   -0.16516E-01  7696   0.774E+00-0.446E-02
CGA:   4    -0.334944015357E+03   -0.99460E-01   -0.99333E-01  7696   0.117E+01 0.160E-02
CGA:   5    -0.334960199158E+03   -0.16184E-01   -0.15795E-01  7696   0.198E+00 0.200E-01
CGA:   6    -0.334964518212E+03   -0.43191E-02   -0.43450E-02  7696   0.179E+00-0.106E-03
CGA:   7    -0.334981566282E+03   -0.17048E-01   -0.17077E-01  7696   0.208E+00-0.532E-03
CGA:   8    -0.334984042294E+03   -0.24760E-02   -0.24641E-02  7696   0.351E-01 0.686E-03
CGA:   9    -0.334985493305E+03   -0.14510E-02   -0.14505E-02  7696   0.539E-01 0.488E-04
CGA:  10    -0.334987255320E+03   -0.17620E-02   -0.17603E-02  7696   0.188E-01-0.287E-03
CGA:  11    -0.334988038363E+03   -0.78304E-03   -0.78180E-03  7696   0.231E-01 0.122E-03
CGA:  12    -0.334988387866E+03   -0.34950E-03   -0.35552E-03  7696   0.495E-02-0.232E-03
CGA:  13    -0.334988720485E+03   -0.33262E-03   -0.33204E-03  7696   0.124E-01 0.173E-04
CGA:  14    -0.334989017479E+03   -0.29699E-03   -0.29635E-03  7696   0.278E-02-0.112E-04
CGA:  15    -0.334989061613E+03   -0.44134E-04   -0.44165E-04  7696   0.141E-02-0.365E-05
CGA:  16    -0.334989198461E+03   -0.13685E-03   -0.13684E-03  7696   0.273E-02 0.295E-06
CGA:  17    -0.334989251735E+03   -0.53274E-04   -0.53248E-04  7696   0.383E-03 0.475E-07
CGA:  18    -0.334989263313E+03   -0.11578E-04   -0.11576E-04  7696   0.728E-03-0.363E-06
CGA:  19    -0.334989310000E+03   -0.46687E-04   -0.46696E-04  7696   0.277E-03-0.269E-06
CGA:  20    -0.334989315060E+03   -0.50604E-05   -0.50781E-05  7696   0.177E-03 0.530E-06
CGA:  21    -0.334989325744E+03   -0.10683E-04   -0.10650E-04  7696   0.439E-03 0.140E-05
CGA:  22    -0.334989335907E+03   -0.10163E-04   -0.10184E-04  7696   0.783E-04 0.152E-05
CGA:  23    -0.334989340040E+03   -0.41334E-05   -0.41212E-05  7696   0.109E-03 0.769E-06
 105 F= -.33498934E+03 E0= -.33495922E+03  d E =0.726348E-03  mag=    32.0000
       N       E                     dE             d eps       ncg     rms          ort
SDA:   1    -0.334942714377E+03    0.46622E-01    0.00000E+00  7696   0.138E+01 0.000E+00
CGA:   2    -0.334957031665E+03   -0.14317E-01   -0.15578E-01  7696   0.187E+00-0.851E-01
CGA:   3    -0.334961711430E+03   -0.46798E-02   -0.46753E-02  7696   0.176E+00-0.722E-04
CGA:   4    -0.334974176763E+03   -0.12465E-01   -0.12346E-01  7696   0.238E+00 0.325E-02
CGA:   5    -0.334979374930E+03   -0.51982E-02   -0.52435E-02  7696   0.173E+00-0.620E-03
CGA:   6    -0.334984155349E+03   -0.47804E-02   -0.47471E-02  7696   0.733E-01-0.641E-03
CGA:   7    -0.334985681974E+03   -0.15266E-02   -0.15189E-02  7696   0.251E-01 0.114E-03
CGA:   8    -0.334987074877E+03   -0.13929E-02   -0.13942E-02  7696   0.691E-01-0.535E-04
CGA:   9    -0.334988883173E+03   -0.18083E-02   -0.18128E-02  7696   0.167E-01 0.785E-04
CGA:  10    -0.334989202640E+03   -0.31947E-03   -0.31892E-03  7696   0.439E-02 0.110E-04
CGA:  11    -0.334989517219E+03   -0.31458E-03   -0.31424E-03  7696   0.126E-01 0.931E-05
CGA:  12    -0.334989749509E+03   -0.23229E-03   -0.23191E-03  7696   0.216E-02 0.936E-05
CGA:  13    -0.334989817466E+03   -0.67957E-04   -0.67961E-04  7696   0.179E-02 0.818E-06
CGA:  14    -0.334989870896E+03   -0.53430E-04   -0.53446E-04  7696   0.165E-02 0.749E-06
CGA:  15    -0.334989906746E+03   -0.35850E-04   -0.35848E-04  7696   0.807E-03-0.573E-06
CGA:  16    -0.334989950071E+03   -0.43324E-04   -0.43402E-04  7696   0.621E-03-0.379E-05
CGA:  17    -0.334989960511E+03   -0.10441E-04   -0.10418E-04  7696   0.289E-03 0.250E-06
CGA:  18    -0.334989975797E+03   -0.15285E-04   -0.15245E-04  7696   0.475E-03 0.220E-05
CGA:  19    -0.334989991369E+03   -0.15572E-04   -0.15577E-04  7696   0.113E-03 0.155E-05
CGA:  20    -0.334989993486E+03   -0.21167E-05   -0.21215E-05  7696   0.782E-04 0.255E-06
 106 F= -.33498999E+03 E0= -.33495986E+03  d E =-.653445E-03  mag=    32.0000
       N       E                     dE             d eps       ncg     rms          ort
SDA:   1    -0.334911760892E+03    0.78230E-01    0.00000E+00  7696   0.312E+01 0.000E+00
CGA:   2    -0.334945892440E+03   -0.34132E-01   -0.40930E-01  7696   0.372E+00-0.374E+00
CGA:   3    -0.334950663653E+03   -0.47712E-02   -0.47524E-02  7696   0.170E+00 0.832E-03
CGA:   4    -0.334963409781E+03   -0.12746E-01   -0.12889E-01  7696   0.465E+00-0.363E-02
CGA:   5    -0.334978860914E+03   -0.15451E-01   -0.15463E-01  7696   0.238E+00 0.287E-02
CGA:   6    -0.334982139247E+03   -0.32783E-02   -0.32734E-02  7696   0.806E-01 0.262E-03
CGA:   7    -0.334984635769E+03   -0.24965E-02   -0.25013E-02  7696   0.396E-01 0.517E-03
CGA:   8    -0.334986022791E+03   -0.13870E-02   -0.13869E-02  7696   0.431E-01 0.245E-03
CGA:   9    -0.334987430361E+03   -0.14076E-02   -0.14073E-02  7696   0.663E-01-0.663E-04
CGA:  10    -0.334988996651E+03   -0.15663E-02   -0.15598E-02  7696   0.941E-02-0.319E-04
CGA:  11    -0.334989193397E+03   -0.19675E-03   -0.19698E-03  7696   0.483E-02 0.174E-05
CGA:  12    -0.334989350041E+03   -0.15664E-03   -0.15663E-03  7696   0.843E-02-0.710E-05
CGA:  13    -0.334989669783E+03   -0.31974E-03   -0.31973E-03  7696   0.320E-02 0.398E-05
CGA:  14    -0.334989726610E+03   -0.56827E-04   -0.56888E-04  7696   0.116E-02 0.181E-05
CGA:  15    -0.334989754117E+03   -0.27508E-04   -0.27487E-04  7696   0.128E-02-0.249E-06
CGA:  16    -0.334989831865E+03   -0.77748E-04   -0.77779E-04  7696   0.106E-02-0.107E-05
CGA:  17    -0.334989853914E+03   -0.22049E-04   -0.22062E-04  7696   0.396E-03 0.961E-06
CGA:  18    -0.334989862227E+03   -0.83133E-05   -0.83230E-05  7696   0.402E-03 0.661E-06
CGA:  19    -0.334989884968E+03   -0.22741E-04   -0.22706E-04  7696   0.303E-03 0.147E-05
CGA:  20    -0.334989891919E+03   -0.69512E-05   -0.69584E-05  7696   0.997E-04 0.750E-06
 107 F= -.33498989E+03 E0= -.33495971E+03  d E =0.101566E-03  mag=    32.0000
       N       E                     dE             d eps       ncg     rms          ort
SDA:   1    -0.334956772721E+03    0.33112E-01    0.00000E+00  7696   0.259E+01 0.000E+00
CGA:   2    -0.334978240650E+03   -0.21468E-01   -0.23643E-01  7696   0.617E-01-0.196E+00
CGA:   3    -0.334979463090E+03   -0.12224E-02   -0.12228E-02  7696   0.535E-01 0.482E-05
CGA:   4    -0.334983744991E+03   -0.42819E-02   -0.42641E-02  7696   0.150E+00 0.406E-03
CGA:   5    -0.334986844405E+03   -0.30994E-02   -0.30780E-02  7696   0.316E-01 0.229E-03
CGA:   6    -0.334987695316E+03   -0.85091E-03   -0.85056E-03  7696   0.294E-01-0.192E-04
CGA:   7    -0.334988509868E+03   -0.81455E-03   -0.81261E-03  7696   0.124E-01-0.138E-03
CGA:   8    -0.334988875454E+03   -0.36559E-03   -0.36558E-03  7696   0.140E-01-0.279E-05
CGA:   9    -0.334989343582E+03   -0.46813E-03   -0.46807E-03  7696   0.643E-02 0.233E-04
CGA:  10    -0.334989456469E+03   -0.11289E-03   -0.11309E-03  7696   0.265E-02-0.198E-05
CGA:  11    -0.334989619869E+03   -0.16340E-03   -0.16349E-03  7696   0.529E-02-0.305E-05
CGA:  12    -0.334989709316E+03   -0.89447E-04   -0.89417E-04  7696   0.468E-03 0.226E-05
CGA:  13    -0.334989723833E+03   -0.14517E-04   -0.14516E-04  7696   0.817E-03-0.770E-06
CGA:  14    -0.334989769825E+03   -0.45991E-04   -0.46030E-04  7696   0.540E-03-0.164E-05
CGA:  15    -0.334989779369E+03   -0.95445E-05   -0.95224E-05  7696   0.252E-03-0.104E-05
 108 F= -.33498978E+03 E0= -.33495957E+03  d E =0.112550E-03  mag=    32.0000
       N       E                     dE             d eps       ncg     rms          ort
SDA:   1    -0.334580646725E+03    0.40912E+00    0.00000E+00  7696   0.518E+01 0.000E+00
CGA:   2    -0.334638171326E+03   -0.57525E-01   -0.57344E-01  7696   0.117E+01 0.210E-01
CGA:   3    -0.334706829100E+03   -0.68658E-01   -0.70878E-01  7696   0.411E+01-0.751E-01
CGA:   4    -0.334917124038E+03   -0.21029E+00   -0.20994E+00  7696   0.110E+01 0.148E-01
CGA:   5    -0.334934298871E+03   -0.17175E-01   -0.17264E-01  7696   0.316E+00-0.322E-02
CGA:   6    -0.334948228745E+03   -0.13930E-01   -0.14010E-01  7696   0.785E+00-0.543E-02
CGA:   7    -0.334974745860E+03   -0.26517E-01   -0.26517E-01  7696   0.192E+00 0.351E-03
CGA:   8    -0.334978968851E+03   -0.42230E-02   -0.42870E-02  7696   0.102E+00-0.255E-04
CGA:   9    -0.334982569748E+03   -0.36009E-02   -0.35952E-02  7696   0.571E-01 0.154E-02
CGA:  10    -0.334983802464E+03   -0.12327E-02   -0.12443E-02  7696   0.562E-01-0.532E-04
CGA:  11    -0.334986615757E+03   -0.28133E-02   -0.28425E-02  7696   0.115E-01-0.141E-02
CGA:  12    -0.334987250399E+03   -0.63464E-03   -0.63422E-03  7696   0.314E-01 0.171E-04
CGA:  13    -0.334988062775E+03   -0.81238E-03   -0.81274E-03  7696   0.112E-01 0.183E-04
CGA:  14    -0.334988226811E+03   -0.16404E-03   -0.16267E-03  7696   0.224E-02 0.585E-04
CGA:  15    -0.334988542211E+03   -0.31540E-03   -0.31627E-03  7696   0.615E-02-0.810E-05
CGA:  16    -0.334988658464E+03   -0.11625E-03   -0.11621E-03  7696   0.117E-02-0.442E-05
CGA:  17    -0.334988678426E+03   -0.19962E-04   -0.19933E-04  7696   0.771E-03 0.226E-06
CGA:  18    -0.334988737219E+03   -0.58793E-04   -0.58980E-04  7696   0.765E-03-0.484E-05
CGA:  19    -0.334988787263E+03   -0.50044E-04   -0.49846E-04  7696   0.126E-02 0.714E-05
CGA:  20    -0.334988804045E+03   -0.16781E-04   -0.16796E-04  7696   0.155E-03 0.203E-05
CGA:  21    -0.334988813685E+03   -0.96405E-05   -0.96435E-05  7696   0.442E-03-0.128E-06
CGA:  22    -0.334988832160E+03   -0.18474E-04   -0.18474E-04  7696   0.190E-03 0.119E-06
CGA:  23    -0.334988834991E+03   -0.28318E-05   -0.28364E-05  7696   0.901E-04 0.706E-07
 109 F= -.33498883E+03 E0= -.33495861E+03  d E =0.944378E-03  mag=    32.0000
       N       E                     dE             d eps       ncg     rms          ort
SDA:   1    -0.334884822850E+03    0.10401E+00    0.00000E+00  7696   0.650E+01 0.000E+00
CGA:   2    -0.334950997670E+03   -0.66175E-01   -0.57363E-01  7696   0.398E+00 0.856E+00
CGA:   3    -0.334957419776E+03   -0.64221E-02   -0.62542E-02  7696   0.135E+00 0.881E-02
CGA:   4    -0.334961545694E+03   -0.41259E-02   -0.41177E-02  7696   0.324E+00-0.181E-03
CGA:   5    -0.334976265409E+03   -0.14720E-01   -0.14720E-01  7696   0.251E+00-0.496E-04
CGA:   6    -0.334979015895E+03   -0.27505E-02   -0.26832E-02  7696   0.666E-01 0.503E-02
CGA:   7    -0.334980763635E+03   -0.17477E-02   -0.17460E-02  7696   0.785E-01-0.209E-05
CGA:   8    -0.334983069853E+03   -0.23062E-02   -0.23175E-02  7696   0.115E+00 0.401E-03
CGA:   9    -0.334985093773E+03   -0.20239E-02   -0.20318E-02  7696   0.418E-01-0.213E-03
CGA:  10    -0.334986392048E+03   -0.12983E-02   -0.12933E-02  7696   0.620E-01-0.372E-03
CGA:  11    -0.334987237658E+03   -0.84561E-03   -0.82523E-03  7696   0.935E-02 0.108E-02
CGA:  12    -0.334987402937E+03   -0.16528E-03   -0.16565E-03  7696   0.118E-01-0.356E-05
CGA:  13    -0.334987998169E+03   -0.59523E-03   -0.59397E-03  7696   0.197E-01 0.649E-04
CGA:  14    -0.334988240837E+03   -0.24267E-03   -0.24129E-03  7696   0.510E-02 0.855E-04
CGA:  15    -0.334988330127E+03   -0.89291E-04   -0.89233E-04  7696   0.324E-02-0.692E-06
CGA:  16    -0.334988414434E+03   -0.84307E-04   -0.84325E-04  7696   0.516E-02-0.141E-05
CGA:  17    -0.334988539768E+03   -0.12533E-03   -0.12518E-03  7696   0.214E-02-0.967E-05
CGA:  18    -0.334988564923E+03   -0.25155E-04   -0.25080E-04  7696   0.926E-03 0.114E-05
CGA:  19    -0.334988598832E+03   -0.33908E-04   -0.33885E-04  7696   0.142E-02 0.290E-05
CGA:  20    -0.334988621242E+03   -0.22410E-04   -0.22495E-04  7696   0.832E-03-0.514E-07
CGA:  21    -0.334988646273E+03   -0.25031E-04   -0.25031E-04  7696   0.123E-02 0.201E-05
CGA:  22    -0.334988676915E+03   -0.30642E-04   -0.30640E-04  7696   0.119E-02 0.615E-06
CGA:  23    -0.334988692717E+03   -0.15802E-04   -0.15785E-04  7696   0.133E-03 0.578E-06
CGA:  24    -0.334988694742E+03   -0.20259E-05   -0.20219E-05  7696   0.134E-03-0.250E-06
 110 F= -.33498869E+03 E0= -.33495850E+03  d E =0.140249E-03  mag=    32.0000
       N       E                     dE             d eps       ncg     rms          ort
SDA:   1    -0.334917275830E+03    0.71417E-01    0.00000E+00  7696   0.447E+01 0.000E+00
CGA:   2    -0.334959215841E+03   -0.41940E-01   -0.45255E-01  7696   0.286E+00-0.269E+00
CGA:   3    -0.334963360870E+03   -0.41450E-02   -0.41797E-02  7696   0.972E-01-0.961E-03
CGA:   4    -0.334975931304E+03   -0.12570E-01   -0.12581E-01  7696   0.321E+00-0.176E-03
CGA:   5    -0.334981337596E+03   -0.54063E-02   -0.54971E-02  7696   0.941E-01-0.258E-02
CGA:   6    -0.334983663303E+03   -0.23257E-02   -0.23220E-02  7696   0.651E-01-0.778E-04
CGA:   7    -0.334985687894E+03   -0.20246E-02   -0.20213E-02  7696   0.275E-01-0.957E-03
CGA:   8    -0.334987010056E+03   -0.13222E-02   -0.13230E-02  7696   0.685E-01-0.453E-04
CGA:   9    -0.334988524966E+03   -0.15149E-02   -0.15207E-02  7696   0.464E-02-0.153E-05
CGA:  10    -0.334988707736E+03   -0.18277E-03   -0.18286E-03  7696   0.109E-01-0.103E-04
CGA:  11    -0.334989117050E+03   -0.40931E-03   -0.40934E-03  7696   0.410E-02-0.536E-05
CGA:  12    -0.334989191759E+03   -0.74709E-04   -0.74822E-04  7696   0.157E-02-0.215E-06
CGA:  13    -0.334989277249E+03   -0.85490E-04   -0.85245E-04  7696   0.301E-02 0.108E-04
CGA:  14    -0.334989332984E+03   -0.55736E-04   -0.55687E-04  7696   0.689E-03 0.494E-05
CGA:  15    -0.334989368033E+03   -0.35049E-04   -0.35070E-04  7696   0.730E-03-0.854E-06
CGA:  16    -0.334989380013E+03   -0.11979E-04   -0.11960E-04  7696   0.313E-03 0.257E-07
CGA:  17    -0.334989408891E+03   -0.28879E-04   -0.28913E-04  7696   0.719E-03-0.596E-06
CGA:  18    -0.334989421085E+03   -0.12194E-04   -0.12198E-04  7696   0.100E-03-0.889E-07
CGA:  19    -0.334989422899E+03   -0.18143E-05   -0.18178E-05  7696   0.627E-04 0.134E-06
 111 F= -.33498942E+03 E0= -.33495924E+03  d E =-.728157E-03  mag=    32.0000
       N       E                     dE             d eps       ncg     rms          ort
SDA:   1    -0.334895731943E+03    0.93689E-01    0.00000E+00  7696   0.225E+01 0.000E+00
CGA:   2    -0.334918529179E+03   -0.22797E-01   -0.23949E-01  7696   0.347E+00-0.837E-01
CGA:   3    -0.334929935331E+03   -0.11406E-01   -0.11387E-01  7696   0.425E+00-0.302E-02
CGA:   4    -0.334951839278E+03   -0.21904E-01   -0.22416E-01  7696   0.515E+00-0.255E-01
CGA:   5    -0.334968940765E+03   -0.17101E-01   -0.17129E-01  7696   0.611E+00 0.606E-02
CGA:   6    -0.334980197895E+03   -0.11257E-01   -0.11420E-01  7696   0.727E-01-0.368E-02
CGA:   7    -0.334981834186E+03   -0.16363E-02   -0.16357E-02  7696   0.621E-01-0.346E-05
CGA:   8    -0.334986096225E+03   -0.42620E-02   -0.42687E-02  7696   0.113E+00-0.199E-03
CGA:   9    -0.334987905623E+03   -0.18094E-02   -0.18221E-02  7696   0.160E-01-0.508E-03
CGA:  10    -0.334988475420E+03   -0.56980E-03   -0.56971E-03  7696   0.189E-01-0.985E-04
CGA:  11    -0.334988847408E+03   -0.37199E-03   -0.37029E-03  7696   0.686E-02 0.360E-04
CGA:  12    -0.334989281549E+03   -0.43414E-03   -0.43293E-03  7696   0.121E-01 0.421E-04
CGA:  13    -0.334989463005E+03   -0.18146E-03   -0.18133E-03  7696   0.154E-02 0.182E-04
CGA:  14    -0.334989568287E+03   -0.10528E-03   -0.10508E-03  7696   0.500E-02 0.619E-05
CGA:  15    -0.334989688379E+03   -0.12009E-03   -0.12003E-03  7696   0.826E-03 0.234E-05
CGA:  16    -0.334989706396E+03   -0.18017E-04   -0.18013E-04  7696   0.600E-03-0.384E-06
CGA:  17    -0.334989740350E+03   -0.33955E-04   -0.34025E-04  7696   0.118E-02-0.325E-05
CGA:  18    -0.334989766171E+03   -0.25820E-04   -0.25803E-04  7696   0.424E-03-0.128E-05
CGA:  19    -0.334989779351E+03   -0.13180E-04   -0.13185E-04  7696   0.331E-03 0.499E-06
CGA:  20    -0.334989785507E+03   -0.61561E-05   -0.61626E-05  7696   0.907E-04 0.844E-07
 112 F= -.33498979E+03 E0= -.33495957E+03  d E =-.362608E-03  mag=    32.0000
       N       E                     dE             d eps       ncg     rms          ort
SDA:   1    -0.334928084830E+03    0.61695E-01    0.00000E+00  7696   0.267E+01 0.000E+00
CGA:   2    -0.334954088342E+03   -0.26004E-01   -0.27812E-01  7696   0.247E+00-0.132E+00
CGA:   3    -0.334959502879E+03   -0.54145E-02   -0.54528E-02  7696   0.161E+00 0.796E-04
CGA:   4    -0.334969950596E+03   -0.10448E-01   -0.10268E-01  7696   0.249E+00 0.565E-02
CGA:   5    -0.334975621617E+03   -0.56710E-02   -0.56649E-02  7696   0.208E+00 0.363E-04
CGA:   6    -0.334983564837E+03   -0.79432E-02   -0.79638E-02  7696   0.888E-01-0.331E-02
CGA:   7    -0.334985136691E+03   -0.15719E-02   -0.15724E-02  7696   0.289E-01-0.156E-04
CGA:   8    -0.334986365695E+03   -0.12290E-02   -0.12300E-02  7696   0.638E-01-0.750E-04
CGA:   9    -0.334988664258E+03   -0.22986E-02   -0.22981E-02  7696   0.162E-01 0.148E-03
CGA:  10    -0.334988941969E+03   -0.27771E-03   -0.27736E-03  7696   0.443E-02 0.120E-04
CGA:  11    -0.334989123120E+03   -0.18115E-03   -0.18118E-03  7696   0.102E-01-0.344E-05
CGA:  12    -0.334989509170E+03   -0.38605E-03   -0.38607E-03  7696   0.256E-02-0.573E-05
CGA:  13    -0.334989562026E+03   -0.52857E-04   -0.52849E-04  7696   0.181E-02-0.123E-05
CGA:  14    -0.334989617222E+03   -0.55195E-04   -0.55214E-04  7696   0.123E-02 0.307E-05
CGA:  15    -0.334989656077E+03   -0.38856E-04   -0.38854E-04  7696   0.853E-03-0.762E-06
CGA:  16    -0.334989691900E+03   -0.35823E-04   -0.35825E-04  7696   0.117E-02-0.286E-06
CGA:  17    -0.334989713158E+03   -0.21258E-04   -0.21204E-04  7696   0.220E-03-0.660E-06
CGA:  18    -0.334989727944E+03   -0.14786E-04   -0.14771E-04  7696   0.590E-03 0.437E-06
CGA:  19    -0.334989741241E+03   -0.13296E-04   -0.13298E-04  7696   0.193E-03 0.188E-06
CGA:  20    -0.334989744569E+03   -0.33283E-05   -0.33306E-05  7696   0.460E-04 0.121E-06
 113 F= -.33498974E+03 E0= -.33495956E+03  d E =0.409384E-04  mag=    32.0000
