       N       E                     dE             d eps       ncg     rms          rms(c)
DAV:   1     0.647342988247E+04    0.64734E+04   -0.28942E+05 28248   0.159E+03
DAV:   2     0.370990921162E+03   -0.61024E+04   -0.57259E+04 28680   0.470E+02
DAV:   3    -0.385291426661E+03   -0.75628E+03   -0.70999E+03 29440   0.177E+02
DAV:   4    -0.418229351316E+03   -0.32938E+02   -0.32133E+02 31432   0.390E+01
DAV:   5    -0.419368778957E+03   -0.11394E+01   -0.11371E+01 38416   0.684E+00    0.425E-01
DAV:   6    -0.419585649141E+03   -0.21687E+00   -0.39353E-01 41336   0.117E+00    0.116E+00
DAV:   7    -0.419588386316E+03   -0.27372E-02   -0.19479E-02 39088   0.361E-01    0.151E+00
DAV:   8    -0.419584934822E+03    0.34515E-02   -0.53714E-03 38288   0.197E-01    0.276E-01
DAV:   9    -0.419585137068E+03   -0.20225E-03   -0.32276E-04 36920   0.576E-02    0.283E-01
DAV:  10    -0.419585092637E+03    0.44430E-04   -0.14257E-04 29184   0.446E-02    0.142E-01
DAV:  11    -0.419585086978E+03    0.56596E-05   -0.28447E-05 19936   0.201E-02
   1 F= -.41958509E+03 E0= -.41956065E+03  d E =-.419585E+03  mag=    34.0000
