       N       E                     dE             d eps       ncg     rms          ort
DAV:   1     0.957785118622E+04    0.95779E+04   -0.30183E+05 29792   0.205E+03
DAV:   2     0.125013673548E+04   -0.83277E+04   -0.76042E+04 29792   0.558E+02
DAV:   3    -0.308163904510E+03   -0.15583E+04   -0.14498E+04 29792   0.253E+02
DAV:   4    -0.405321972264E+03   -0.97158E+02   -0.96108E+02 29792   0.633E+01
DAV:   5    -0.406734504926E+03   -0.14125E+01   -0.14043E+01 29792   0.808E+00
SDA:   6    -0.468463986947E+02    0.35989E+03   -0.14043E+01 29792   0.468E+04 0.000E+00
CGA:   7     0.535983204152E+02    0.10044E+03   -0.23783E+03 29792   0.190E+05-0.553E+04
CGA:   8     0.628245859715E+03    0.57465E+03   -0.11991E+04 29792   0.589E+04-0.287E+04
CGA:   9    -0.136146701445E+03   -0.76439E+03   -0.14310E+03 29792   0.649E+04-0.156E+05
CGA:  10     0.150731926978E+03    0.28688E+03   -0.27286E+03 29792   0.178E+05-0.925E+04
CGA:  11     0.501537657387E+03    0.35081E+03   -0.90883E+03 29792   0.108E+05-0.756E+04
CGA:  12    -0.191127798855E+03   -0.69267E+03   -0.17386E+03 29792   0.648E+04 0.466E+02
CGA:  13    -0.547304981821E+02    0.13640E+03   -0.30382E+03 29792   0.102E+05-0.582E+04
CGA:  14    -0.132656612648E+03   -0.77926E+02   -0.44995E+03 29792   0.686E+04-0.577E+04
CGA:  15    -0.114086080806E+03    0.18571E+02   -0.28808E+03 29792   0.497E+04-0.311E+04
CGA:  16    -0.232969060942E+03   -0.11888E+03   -0.60348E+02 29792   0.332E+04 0.208E+04
CGA:  17    -0.142582246685E+03    0.90387E+02   -0.16167E+03 29792   0.754E+04-0.410E+04
CGA:  18    -0.128303739592E+03    0.14279E+02   -0.33595E+03 29792   0.397E+04-0.372E+04
CGA:  19    -0.218020613734E+03   -0.89717E+02   -0.30012E+02 29792   0.330E+04 0.395E+04
CGA:  20    -0.242722696707E+03   -0.24702E+02   -0.72482E+02 29792   0.446E+04-0.376E+04
CGA:  21    -0.171466942183E+03    0.71256E+02   -0.18602E+03 29792   0.221E+04-0.138E+04
CGA:  22    -0.220688800888E+03   -0.49222E+02   -0.16585E+02 29792   0.319E+04 0.381E+04
CGA:  23    -0.254009170783E+03   -0.33320E+02   -0.63346E+02 29792   0.479E+04-0.556E+04
CGA:  24    -0.168253481575E+03    0.85756E+02   -0.18981E+03 29792   0.240E+04-0.131E+04
CGA:  25    -0.227524111783E+03   -0.59271E+02   -0.19263E+02 29792   0.502E+04 0.618E+04
CGA:  26    -0.177151511524E+03    0.50373E+02   -0.11439E+03 29792   0.958E+04-0.748E+04
CGA:  27    -0.127721517670E+03    0.49430E+02   -0.34966E+03 29792   0.201E+04-0.153E+04
CGA:  28    -0.164658100266E+03   -0.36937E+02   -0.15400E+02 29792   0.286E+04 0.293E+04
CGA:  29    -0.279588137291E+03   -0.11493E+03   -0.36767E+02 29792   0.230E+04 0.380E+04
CGA:  30    -0.235870710085E+03    0.43717E+02   -0.47278E+02 29792   0.944E+04-0.500E+04
CGA:  31    -0.200107899852E+03    0.35763E+02   -0.32753E+03 29792   0.214E+04-0.150E+04
CGA:  32    -0.242057444959E+03   -0.41950E+02   -0.23645E+02 29792   0.149E+04 0.172E+04
CGA:  33    -0.300238633886E+03   -0.58181E+02   -0.18596E+02 29792   0.866E+03-0.620E+03
CGA:  34    -0.273296368789E+03    0.26942E+02   -0.48028E+01 29792   0.449E+04-0.305E+04
CGA:  35    -0.229723423835E+03    0.43573E+02   -0.12355E+03 29792   0.166E+04-0.965E+03
CGA:  36    -0.284229654379E+03   -0.54506E+02   -0.14053E+02 29792   0.312E+04 0.540E+04
CGA:  37    -0.235415641023E+03    0.48814E+02   -0.61235E+02 29792   0.663E+04-0.378E+04
CGA:  38    -0.210415780960E+03    0.25000E+02   -0.16723E+03 29792   0.256E+04-0.165E+04
CGA:  39    -0.276608411605E+03   -0.66193E+02   -0.23205E+02 29792   0.387E+04 0.647E+04
CGA:  40    -0.234381288458E+03    0.42227E+02   -0.71183E+02 29792   0.738E+04-0.485E+04
CGA:  41    -0.206713613548E+03    0.27668E+02   -0.17275E+03 29792   0.230E+04-0.174E+04
CGA:  42    -0.287818263477E+03   -0.81105E+02   -0.19825E+02 29792   0.279E+04 0.627E+04
CGA:  43    -0.270228538795E+03    0.17590E+02   -0.41546E+02 29792   0.537E+04-0.378E+04
CGA:  44    -0.218696753898E+03    0.51532E+02   -0.10430E+03 29792   0.322E+04-0.180E+04
CGA:  45    -0.299822804546E+03   -0.81126E+02   -0.24391E+02 29792   0.194E+04-0.174E+04
CGA:  46    -0.270260372439E+03    0.29562E+02   -0.27519E+02 29792   0.617E+04-0.287E+04
CGA:  47    -0.220851025034E+03    0.49409E+02   -0.11036E+03 29792   0.457E+04-0.233E+04
CGA:  48    -0.258476890257E+03   -0.37626E+02   -0.41300E+02 29792   0.468E+04-0.453E+04
CGA:  49    -0.206499219947E+03    0.51978E+02   -0.61587E+02 29792   0.949E+04-0.645E+04
CGA:  50    -0.179747340969E+03    0.26752E+02   -0.15290E+03 29792   0.453E+04-0.325E+04
CGA:  51    -0.271191174657E+03   -0.91444E+02   -0.34508E+02 29792   0.525E+04 0.900E+03
CGA:  52    -0.125158713471E+03    0.14603E+03   -0.81824E+02 29792   0.705E+04-0.228E+04
CGA:  53    -0.243963333504E+03   -0.11880E+03   -0.53610E+02 29792   0.118E+05-0.410E+04
CGA:  54    -0.226538462799E+03    0.17425E+02   -0.17394E+03 29792   0.537E+04-0.463E+04
CGA:  55    -0.298118847663E+03   -0.71580E+02   -0.27961E+02 29792   0.270E+04 0.484E+04
CGA:  56    -0.299973622974E+03   -0.18548E+01   -0.21189E+02 29792   0.353E+04-0.331E+04
CGA:  57    -0.280919463109E+03    0.19054E+02   -0.40732E+02 29792   0.365E+04-0.220E+04
CGA:  58    -0.288492063428E+03   -0.75726E+01   -0.28941E+02 29792   0.678E+04-0.727E+04
CGA:  59    -0.260971976961E+03    0.27520E+02   -0.80886E+02 29792   0.442E+04-0.269E+04
CGA:  60    -0.303547031319E+03   -0.42575E+02   -0.17787E+02 29792   0.223E+04 0.303E+04
CGA:  61    -0.303546387110E+03    0.64421E-03   -0.14539E+02 29792   0.312E+04-0.289E+04
CGA:  62    -0.291360072769E+03    0.12186E+02   -0.30954E+02 29792   0.247E+04-0.144E+04
CGA:  63    -0.306533223796E+03   -0.15173E+02   -0.80620E+01 29792   0.153E+04 0.994E+03
CGA:  64    -0.288839583021E+03    0.17694E+02   -0.13764E+02 29792   0.538E+04-0.374E+04
CGA:  65    -0.282570329621E+03    0.62693E+01   -0.52772E+02 29792   0.324E+04-0.196E+04
CGA:  66    -0.301977749249E+03   -0.19407E+02   -0.12088E+02 29792   0.179E+04 0.129E+04
CGA:  67    -0.287401902826E+03    0.14576E+02   -0.14559E+02 29792   0.585E+04-0.457E+04
CGA:  68    -0.280222345212E+03    0.71796E+01   -0.50134E+02 29792   0.401E+04-0.288E+04
CGA:  69    -0.306050353522E+03   -0.25828E+02   -0.15134E+02 29792   0.181E+04 0.900E+03
CGA:  70    -0.299061610387E+03    0.69887E+01   -0.13153E+02 29792   0.425E+04-0.318E+04
CGA:  71    -0.295885295919E+03    0.31763E+01   -0.31679E+02 29792   0.349E+04-0.291E+04
CGA:  72    -0.307937371698E+03   -0.12052E+02   -0.19423E+02 29792   0.205E+04-0.335E+04
CGA:  73    -0.310224400627E+03   -0.22870E+01   -0.11532E+02 29792   0.118E+04-0.145E+04
CGA:  74    -0.314164569830E+03   -0.39402E+01   -0.44233E+01 29792   0.443E+02-0.219E+03
CGA:  75    -0.314325365303E+03   -0.16080E+00   -0.16926E+00 29792   0.621E+01-0.151E+01
CGA:  76    -0.314600091586E+03   -0.27473E+00   -0.27011E+00 29792   0.559E+02 0.207E+00
CGA:  77    -0.315812507584E+03   -0.12124E+01   -0.12505E+01 29792   0.405E+02-0.946E+01
CGA:  78    -0.316117252910E+03   -0.30475E+00   -0.31240E+00 29792   0.195E+02 0.285E+00
CGA:  79    -0.316324478466E+03   -0.20723E+00   -0.21756E+00 29792   0.105E+02-0.336E-01
CGA:  80    -0.316451904735E+03   -0.12743E+00   -0.12961E+00 29792   0.480E+01 0.647E-01
CGA:  81    -0.316537129387E+03   -0.85225E-01   -0.85082E-01 29792   0.537E+01 0.963E-01
CGA:  82    -0.316674279506E+03   -0.13715E+00   -0.13345E+00 29792   0.744E+01 0.387E+00
CGA:  83    -0.316892655939E+03   -0.21838E+00   -0.20716E+00 29792   0.554E+01 0.102E+01
CGA:  84    -0.317010192900E+03   -0.11754E+00   -0.11724E+00 29792   0.298E+01 0.175E+00
CGA:  85    -0.317087716655E+03   -0.77524E-01   -0.76346E-01 29792   0.168E+01 0.128E+00
CGA:  86    -0.317157944374E+03   -0.70228E-01   -0.67259E-01 29792   0.234E+01 0.143E+00
CGA:  87    -0.317253828521E+03   -0.95884E-01   -0.92382E-01 29792   0.196E+01 0.191E+00
CGA:  88    -0.317357518736E+03   -0.10369E+00   -0.96801E-01 29792   0.183E+01 0.269E+00
CGA:  89    -0.317419757785E+03   -0.62239E-01   -0.61507E-01 29792   0.148E+01 0.700E-01
CGA:  90    -0.317486364457E+03   -0.66607E-01   -0.65403E-01 29792   0.175E+01 0.534E-01
CGA:  91    -0.317568422672E+03   -0.82058E-01   -0.79631E-01 29792   0.156E+01 0.118E+00
CGA:  92    -0.317626078072E+03   -0.57655E-01   -0.56464E-01 29792   0.102E+01 0.896E-01
CGA:  93    -0.317675206249E+03   -0.49128E-01   -0.48825E-01 29792   0.922E+00 0.126E-01
CGA:  94    -0.317733241880E+03   -0.58036E-01   -0.56483E-01 29792   0.116E+01 0.458E-01
CGA:  95    -0.317789754665E+03   -0.56513E-01   -0.55199E-01 29792   0.708E+00 0.633E-01
CGA:  96    -0.317820696665E+03   -0.30942E-01   -0.30571E-01 29792   0.561E+00 0.228E-01
CGA:  97    -0.317856006238E+03   -0.35310E-01   -0.36008E-01 29792   0.894E+00-0.219E-01
CGA:  98    -0.317903344909E+03   -0.47339E-01   -0.46290E-01 29792   0.675E+00 0.403E-01
CGA:  99    -0.317928898531E+03   -0.25554E-01   -0.25442E-01 29792   0.377E+00 0.153E-01
CGA: 100    -0.317949210498E+03   -0.20312E-01   -0.20271E-01 29792   0.567E+00 0.185E-02
CGA: 101    -0.317996642483E+03   -0.47432E-01   -0.47523E-01 29792   0.886E+00-0.431E-02
CGA: 102    -0.318030073388E+03   -0.33431E-01   -0.33591E-01 29792   0.444E+00-0.310E-01
CGA: 103    -0.318050490378E+03   -0.20417E-01   -0.20142E-01 29792   0.450E+00 0.178E-01
SDA: 104    -0.318098740713E+03   -0.48250E-01   -0.51835E-01 29792   0.124E+01-0.563E-01
CGA: 105    -0.318124321496E+03   -0.25581E-01   -0.25560E-01 29792   0.255E+00 0.523E-03
CGA: 106    -0.318152202814E+03   -0.27881E-01   -0.28092E-01 29792   0.114E+01-0.349E-02
CGA: 107    -0.318237912094E+03   -0.85709E-01   -0.88667E-01 29792   0.153E+01-0.848E-01
CGA: 108    -0.318302322597E+03   -0.64411E-01   -0.64457E-01 29792   0.138E+01-0.168E-01
CGA: 109    -0.318344506419E+03   -0.42184E-01   -0.43178E-01 29792   0.432E+00 0.104E-01
CGA: 110    -0.318363835530E+03   -0.19329E-01   -0.19320E-01 29792   0.585E+00 0.611E-02
CGA: 111    -0.318415950357E+03   -0.52115E-01   -0.52675E-01 29792   0.103E+01-0.131E-01
CGA: 112    -0.318444777821E+03   -0.28827E-01   -0.28991E-01 29792   0.264E+00-0.582E-03
CGA: 113    -0.318455604476E+03   -0.10827E-01   -0.10834E-01 29792   0.338E+00 0.796E-03
CGA: 114    -0.318492370548E+03   -0.36766E-01   -0.37512E-01 29792   0.835E+00-0.125E-01
CGA: 115    -0.318537178089E+03   -0.44808E-01   -0.44650E-01 29792   0.976E+00 0.127E-01
CGA: 116    -0.318570343907E+03   -0.33166E-01   -0.30576E-01 29792   0.696E+00-0.869E-02
CGA: 117    -0.318593821311E+03   -0.23477E-01   -0.23372E-01 29792   0.600E+00-0.117E-01
CGA: 118    -0.318626726656E+03   -0.32905E-01   -0.32034E-01 29792   0.167E+01 0.514E-01
CGA: 119    -0.318654288217E+03   -0.27562E-01   -0.29246E-01 29792   0.166E+01-0.289E+00
CGA: 120    -0.318665645705E+03   -0.11357E-01   -0.16017E-01 29792   0.108E+01-0.254E+00
CGA: 121    -0.318678148782E+03   -0.12503E-01   -0.12956E-01 29792   0.967E+00-0.200E-01
CGA: 122    -0.318693442514E+03   -0.15294E-01   -0.14981E-01 29792   0.688E+00 0.159E-01
CGA: 123    -0.318702973114E+03   -0.95306E-02   -0.93044E-02 29792   0.470E+00 0.131E-01
CGA: 124    -0.318712260268E+03   -0.92872E-02   -0.92358E-02 29792   0.676E+00 0.128E-02
CGA: 125    -0.318726985287E+03   -0.14725E-01   -0.14677E-01 29792   0.104E+01 0.531E-03
CGA: 126    -0.318747072664E+03   -0.20087E-01   -0.20402E-01 29792   0.138E+01-0.905E-02
CGA: 127    -0.318772927053E+03   -0.25854E-01   -0.25735E-01 29792   0.136E+01 0.150E-01
CGA: 128    -0.318792051409E+03   -0.19124E-01   -0.17945E-01 29792   0.818E+00 0.632E-01
CGA: 129    -0.318803888588E+03   -0.11837E-01   -0.11587E-01 29792   0.630E+00 0.122E-01
CGA: 130    -0.318813987870E+03   -0.10099E-01   -0.99939E-02 29792   0.646E+00 0.320E-02
CGA: 131    -0.318824305385E+03   -0.10318E-01   -0.10390E-01 29792   0.741E+00-0.459E-02
CGA: 132    -0.318837641638E+03   -0.13336E-01   -0.13787E-01 29792   0.103E+01-0.637E-02
CGA: 133    -0.318856078915E+03   -0.18437E-01   -0.17149E-01 29792   0.103E+01 0.369E-01
CGA: 134    -0.318869281139E+03   -0.13202E-01   -0.12961E-01 29792   0.815E+00 0.515E-02
SDA: 135    -0.318879266004E+03   -0.99849E-02   -0.10002E-01 29792   0.690E+00 0.336E-02
CGA: 136    -0.318902342959E+03   -0.23077E-01   -0.23041E-01 29792   0.477E+00 0.513E-02
CGA: 137    -0.318932268782E+03   -0.29926E-01   -0.29688E-01 29792   0.611E+00 0.725E-02
CGA: 138    -0.318980780249E+03   -0.48511E-01   -0.47207E-01 29792   0.102E+01 0.303E-01
CGA: 139    -0.319033103098E+03   -0.52323E-01   -0.52540E-01 29792   0.395E+00-0.112E-01
CGA: 140    -0.319049817995E+03   -0.16715E-01   -0.16726E-01 29792   0.166E+00-0.906E-03
CGA: 141    -0.319063699170E+03   -0.13881E-01   -0.13862E-01 29792   0.290E+00 0.399E-03
CGA: 142    -0.319081529061E+03   -0.17830E-01   -0.17727E-01 29792   0.242E+00 0.374E-02
CGA: 143    -0.319092662348E+03   -0.11133E-01   -0.11145E-01 29792   0.125E+00-0.112E-02
CGA: 144    -0.319097998896E+03   -0.53365E-02   -0.53335E-02 29792   0.102E+00 0.397E-03
CGA: 145    -0.319109947161E+03   -0.11948E-01   -0.12231E-01 29792   0.228E+00-0.425E-02
CGA: 146    -0.319119536303E+03   -0.95891E-02   -0.95903E-02 29792   0.729E-01-0.531E-03
CGA: 147    -0.319122350250E+03   -0.28139E-02   -0.28128E-02 29792   0.413E-01-0.124E-03
CGA: 148    -0.319124928040E+03   -0.25778E-02   -0.25859E-02 29792   0.578E-01-0.336E-03
CGA: 149    -0.319129067419E+03   -0.41394E-02   -0.41472E-02 29792   0.843E-01-0.260E-03
CGA: 150    -0.319134844482E+03   -0.57771E-02   -0.58717E-02 29792   0.526E-01-0.331E-02
CGA: 151    -0.319136305516E+03   -0.14610E-02   -0.14554E-02 29792   0.184E-01 0.473E-04
CGA: 152    -0.319137817921E+03   -0.15124E-02   -0.15119E-02 29792   0.363E-01 0.917E-05
CGA: 153    -0.319140084614E+03   -0.22667E-02   -0.22759E-02 29792   0.404E-01-0.451E-03
CGA: 154    -0.319141876424E+03   -0.17918E-02   -0.17900E-02 29792   0.232E-01-0.266E-03
CGA: 155    -0.319142693737E+03   -0.81731E-03   -0.81267E-03 29792   0.124E-01-0.704E-04
CGA: 156    -0.319143516669E+03   -0.82293E-03   -0.82490E-03 29792   0.228E-01-0.908E-04
CGA: 157    -0.319145188587E+03   -0.16719E-02   -0.16905E-02 29792   0.238E-01-0.639E-03
CGA: 158    -0.319145862966E+03   -0.67438E-03   -0.66899E-03 29792   0.781E-02 0.252E-04
CGA: 159    -0.319146249547E+03   -0.38658E-03   -0.38660E-03 29792   0.120E-01-0.118E-04
CGA: 160    -0.319147054738E+03   -0.80519E-03   -0.80842E-03 29792   0.149E-01-0.134E-03
CGA: 161    -0.319147726843E+03   -0.67210E-03   -0.67206E-03 29792   0.135E-01 0.642E-05
CGA: 162    -0.319148280555E+03   -0.55371E-03   -0.55276E-03 29792   0.795E-02-0.303E-04
CGA: 163    -0.319148539857E+03   -0.25930E-03   -0.25889E-03 29792   0.648E-02-0.788E-05
CGA: 164    -0.319149203480E+03   -0.66362E-03   -0.66534E-03 29792   0.141E-01-0.345E-04
CGA: 165    -0.319149646367E+03   -0.44289E-03   -0.44231E-03 29792   0.489E-02-0.250E-04
SDA: 166    -0.319149815090E+03   -0.16872E-03   -0.16869E-03 29792   0.450E-02-0.440E-05
CGA: 167    -0.319149966523E+03   -0.15143E-03   -0.15160E-03 29792   0.425E-02 0.846E-05
CGA: 168    -0.319150353738E+03   -0.38721E-03   -0.38515E-03 29792   0.923E-02 0.475E-04
CGA: 169    -0.319150795759E+03   -0.44202E-03   -0.44245E-03 29792   0.414E-02 0.846E-04
CGA: 170    -0.319150979352E+03   -0.18359E-03   -0.18374E-03 29792   0.406E-02 0.103E-04
CGA: 171    -0.319151308690E+03   -0.32934E-03   -0.32876E-03 29792   0.483E-02 0.128E-04
CGA: 172    -0.319151600152E+03   -0.29146E-03   -0.29117E-03 29792   0.369E-02 0.111E-04
CGA: 173    -0.319151741311E+03   -0.14116E-03   -0.14104E-03 29792   0.118E-02-0.126E-04
CGA: 174    -0.319151810006E+03   -0.68694E-04   -0.68646E-04 29792   0.153E-02 0.540E-05
CGA: 175    -0.319151949635E+03   -0.13963E-03   -0.13878E-03 29792   0.207E-02 0.211E-04
CGA: 176    -0.319152024765E+03   -0.75131E-04   -0.75285E-04 29792   0.850E-03 0.945E-05
CGA: 177    -0.319152061420E+03   -0.36654E-04   -0.36670E-04 29792   0.841E-03 0.844E-06
CGA: 178    -0.319152120379E+03   -0.58959E-04   -0.59027E-04 29792   0.146E-02-0.460E-05
CGA: 179    -0.319152254148E+03   -0.13377E-03   -0.13512E-03 29792   0.156E-02-0.332E-04
CGA: 180    -0.319152315811E+03   -0.61662E-04   -0.61716E-04 29792   0.682E-03-0.413E-05
CGA: 181    -0.319152382574E+03   -0.66763E-04   -0.66743E-04 29792   0.214E-02 0.156E-07
CGA: 182    -0.319152599314E+03   -0.21674E-03   -0.21652E-03 29792   0.172E-02 0.266E-05
CGA: 183    -0.319152654039E+03   -0.54725E-04   -0.54972E-04 29792   0.927E-03 0.135E-05
CGA: 184    -0.319152694062E+03   -0.40022E-04   -0.40054E-04 29792   0.613E-03 0.213E-05
CGA: 185    -0.319152737054E+03   -0.42992E-04   -0.42991E-04 29792   0.127E-02 0.487E-06
CGA: 186    -0.319152836316E+03   -0.99263E-04   -0.98778E-04 29792   0.618E-03 0.195E-04
CGA: 187    -0.319152862058E+03   -0.25742E-04   -0.25833E-04 29792   0.393E-03 0.282E-05
CGA: 188    -0.319152884602E+03   -0.22543E-04   -0.22545E-04 29792   0.444E-03 0.315E-05
CGA: 189    -0.319152929824E+03   -0.45222E-04   -0.44794E-04 29792   0.863E-03 0.918E-05
CGA: 190    -0.319152963148E+03   -0.33324E-04   -0.33613E-04 29792   0.362E-03 0.642E-05
CGA: 191    -0.319152978287E+03   -0.15140E-04   -0.15175E-04 29792   0.316E-03 0.122E-05
CGA: 192    -0.319152999585E+03   -0.21297E-04   -0.21306E-04 29792   0.560E-03-0.136E-05
CGA: 193    -0.319153057794E+03   -0.58210E-04   -0.58093E-04 29792   0.556E-03 0.182E-05
CGA: 194    -0.319153083669E+03   -0.25875E-04   -0.25897E-04 29792   0.191E-03-0.215E-07
CGA: 195    -0.319153093257E+03   -0.95873E-05   -0.96038E-05 29792   0.321E-03 0.144E-05
CGA: 196    -0.319153121826E+03   -0.28569E-04   -0.28346E-04 29792   0.535E-03 0.752E-05
SDA: 197    -0.319153146657E+03   -0.24831E-04   -0.24905E-04 29792   0.185E-03 0.506E-05
CGA: 198    -0.319153152754E+03   -0.60966E-05   -0.60576E-05 29792   0.132E-03-0.167E-05
   1 F= -.31915315E+03 E0= -.31912404E+03  d E =-.319153E+03  mag=    45.7392
       N       E                     dE             d eps       ncg     rms          ort
SDA:   1    -0.319147527066E+03    0.56196E-02    0.00000E+00 29792   0.422E+00 0.000E+00
CGA:   2    -0.319154087210E+03   -0.65601E-02   -0.63922E-02 29792   0.215E-01 0.916E-02
CGA:   3    -0.319154687267E+03   -0.60006E-03   -0.60083E-03 29792   0.278E-02-0.120E-04
CGA:   4    -0.319154772006E+03   -0.84740E-04   -0.84839E-04 29792   0.625E-03 0.772E-06
CGA:   5    -0.319154799739E+03   -0.27733E-04   -0.27729E-04 29792   0.666E-03-0.289E-06
CGA:   6    -0.319154834430E+03   -0.34691E-04   -0.34691E-04 29792   0.705E-03-0.455E-06
CGA:   7    -0.319154861858E+03   -0.27427E-04   -0.27405E-04 29792   0.216E-03-0.145E-05
CGA:   8    -0.319154870724E+03   -0.88662E-05   -0.88403E-05 29792   0.128E-03-0.223E-05
   2 F= -.31915487E+03 E0= -.31912576E+03  d E =-.171797E-02  mag=    45.7411
       N       E                     dE             d eps       ncg     rms          ort
SDA:   1    -0.318826788494E+03    0.32807E+00    0.00000E+00 29792   0.185E+01 0.000E+00
CGA:   2    -0.318897379771E+03   -0.70591E-01   -0.70860E-01 29792   0.200E+01 0.280E-02
CGA:   3    -0.319115318564E+03   -0.21794E+00   -0.21859E+00 29792   0.202E+01-0.120E-01
CGA:   4    -0.319182448610E+03   -0.67130E-01   -0.67274E-01 29792   0.530E+00-0.336E-03
CGA:   5    -0.319209999638E+03   -0.27551E-01   -0.27548E-01 29792   0.478E+00-0.111E-02
CGA:   6    -0.319233927671E+03   -0.23928E-01   -0.23935E-01 29792   0.400E+00 0.953E-03
CGA:   7    -0.319246373201E+03   -0.12446E-01   -0.12410E-01 29792   0.133E+00 0.370E-03
CGA:   8    -0.319251353036E+03   -0.49798E-02   -0.49824E-02 29792   0.481E-01 0.380E-04
CGA:   9    -0.319255716013E+03   -0.43630E-02   -0.43622E-02 29792   0.502E-01 0.215E-04
CGA:  10    -0.319257455982E+03   -0.17400E-02   -0.17403E-02 29792   0.167E-01 0.950E-05
CGA:  11    -0.319258099154E+03   -0.64317E-03   -0.64369E-03 29792   0.742E-02 0.117E-04
CGA:  12    -0.319258489916E+03   -0.39076E-03   -0.39075E-03 29792   0.849E-02 0.624E-05
CGA:  13    -0.319258910090E+03   -0.42017E-03   -0.42016E-03 29792   0.736E-02-0.378E-05
CGA:  14    -0.319259169003E+03   -0.25891E-03   -0.25899E-03 29792   0.171E-02 0.111E-05
CGA:  15    -0.319259247132E+03   -0.78129E-04   -0.78146E-04 29792   0.144E-02 0.277E-05
CGA:  16    -0.319259351856E+03   -0.10472E-03   -0.10455E-03 29792   0.178E-02 0.763E-05
CGA:  17    -0.319259444200E+03   -0.92344E-04   -0.92344E-04 29792   0.834E-03 0.401E-05
CGA:  18    -0.319259471963E+03   -0.27763E-04   -0.27805E-04 29792   0.379E-03 0.159E-05
CGA:  19    -0.319259492988E+03   -0.21025E-04   -0.21022E-04 29792   0.572E-03 0.386E-06
CGA:  20    -0.319259531750E+03   -0.38762E-04   -0.38742E-04 29792   0.549E-03 0.899E-06
CGA:  21    -0.319259549516E+03   -0.17766E-04   -0.17796E-04 29792   0.143E-03 0.104E-05
CGA:  22    -0.319259559067E+03   -0.95507E-05   -0.95372E-05 29792   0.143E-03 0.630E-06
   3 F= -.31925956E+03 E0= -.31923062E+03  d E =-.104688E+00  mag=    45.7607
       N       E                     dE             d eps       ncg     rms          ort
SDA:   1    -0.316652689811E+03    0.26069E+01    0.00000E+00 29792   0.150E+02 0.000E+00
CGA:   2    -0.317068754786E+03   -0.41606E+00   -0.41329E+00 29792   0.109E+02 0.342E-01
CGA:   3    -0.318436831632E+03   -0.13681E+01   -0.13489E+01 29792   0.198E+02 0.268E+00
CGA:   4    -0.318972602805E+03   -0.53577E+00   -0.50522E+00 29792   0.324E+01 0.748E+00
CGA:   5    -0.319138987994E+03   -0.16639E+00   -0.16660E+00 29792   0.307E+01 0.266E-01
CGA:   6    -0.319329566677E+03   -0.19058E+00   -0.19077E+00 29792   0.233E+01-0.148E-01
CGA:   7    -0.319411178336E+03   -0.81612E-01   -0.81327E-01 29792   0.730E+00 0.584E-03
CGA:   8    -0.319433613747E+03   -0.22435E-01   -0.22552E-01 29792   0.449E+00-0.110E-02
CGA:   9    -0.319457199777E+03   -0.23586E-01   -0.23586E-01 29792   0.395E+00 0.151E-03
CGA:  10    -0.319475800862E+03   -0.18601E-01   -0.18607E-01 29792   0.146E+00 0.652E-03
CGA:  11    -0.319480000415E+03   -0.41996E-02   -0.41902E-02 29792   0.422E-01 0.132E-03
CGA:  12    -0.319483512757E+03   -0.35123E-02   -0.35124E-02 29792   0.629E-01 0.145E-05
CGA:  13    -0.319486497022E+03   -0.29843E-02   -0.29851E-02 29792   0.439E-01 0.860E-04
CGA:  14    -0.319487815873E+03   -0.13189E-02   -0.13189E-02 29792   0.165E-01 0.529E-05
CGA:  15    -0.319488444469E+03   -0.62860E-03   -0.62916E-03 29792   0.789E-02 0.157E-04
CGA:  16    -0.319489168634E+03   -0.72416E-03   -0.72293E-03 29792   0.150E-01 0.271E-04
CGA:  17    -0.319489857242E+03   -0.68861E-03   -0.68892E-03 29792   0.509E-02 0.304E-04
CGA:  18    -0.319490070976E+03   -0.21373E-03   -0.21381E-03 29792   0.284E-02 0.501E-05
CGA:  19    -0.319490220005E+03   -0.14903E-03   -0.14902E-03 29792   0.335E-02 0.608E-05
CGA:  20    -0.319490427591E+03   -0.20759E-03   -0.20743E-03 29792   0.476E-02 0.110E-04
CGA:  21    -0.319490601109E+03   -0.17352E-03   -0.17363E-03 29792   0.920E-03 0.439E-05
CGA:  22    -0.319490644804E+03   -0.43696E-04   -0.43716E-04 29792   0.892E-03 0.455E-05
CGA:  23    -0.319490720555E+03   -0.75751E-04   -0.75381E-04 29792   0.131E-02 0.102E-04
CGA:  24    -0.319490776658E+03   -0.56103E-04   -0.56201E-04 29792   0.480E-03 0.877E-05
CGA:  25    -0.319490800492E+03   -0.23834E-04   -0.23840E-04 29792   0.231E-03 0.166E-05
CGA:  26    -0.319490814035E+03   -0.13543E-04   -0.13535E-04 29792   0.490E-03 0.647E-06
CGA:  27    -0.319490845811E+03   -0.31776E-04   -0.31732E-04 29792   0.254E-03 0.311E-05
CGA:  28    -0.319490856123E+03   -0.10312E-04   -0.10322E-04 29792   0.163E-03 0.364E-06
CGA:  29    -0.319490865654E+03   -0.95307E-05   -0.95183E-05 29792   0.169E-03 0.156E-05
CGA:  30    -0.319490882046E+03   -0.16393E-04   -0.16236E-04 29792   0.256E-03 0.329E-05
CGA:  31    -0.319490896682E+03   -0.14636E-04   -0.14631E-04 29792   0.148E-03 0.292E-05
SDA:  32    -0.319490903835E+03   -0.71523E-05   -0.71490E-05 29792   0.141E-03-0.792E-06
   4 F= -.31949090E+03 E0= -.31946242E+03  d E =-.231345E+00  mag=    45.7839
       N       E                     dE             d eps       ncg     rms          ort
SDA:   1    -0.318307021562E+03    0.11839E+01    0.00000E+00 29792   0.505E+01 0.000E+00
CGA:   2    -0.318515059482E+03   -0.20804E+00   -0.20765E+00 29792   0.717E+01-0.623E-02
CGA:   3    -0.319239289467E+03   -0.72423E+00   -0.72090E+00 29792   0.645E+01 0.639E-01
CGA:   4    -0.319395995404E+03   -0.15671E+00   -0.15223E+00 29792   0.141E+01 0.122E+00
CGA:   5    -0.319473860035E+03   -0.77865E-01   -0.77856E-01 29792   0.167E+01 0.404E-02
CGA:   6    -0.319572165884E+03   -0.98306E-01   -0.98324E-01 29792   0.655E+00-0.215E-02
CGA:   7    -0.319597508284E+03   -0.25342E-01   -0.25308E-01 29792   0.230E+00-0.225E-03
CGA:   8    -0.319612466289E+03   -0.14958E-01   -0.14960E-01 29792   0.218E+00-0.111E-03
CGA:   9    -0.319620806040E+03   -0.83398E-02   -0.83314E-02 29792   0.155E+00-0.806E-05
CGA:  10    -0.319626261684E+03   -0.54556E-02   -0.54683E-02 29792   0.334E-01 0.507E-04
CGA:  11    -0.319627509137E+03   -0.12475E-02   -0.12473E-02 29792   0.257E-01-0.290E-06
CGA:  12    -0.319629417515E+03   -0.19084E-02   -0.19076E-02 29792   0.269E-01 0.277E-04
CGA:  13    -0.319630701235E+03   -0.12837E-02   -0.12837E-02 29792   0.775E-02-0.828E-05
CGA:  14    -0.319631035546E+03   -0.33431E-03   -0.33446E-03 29792   0.497E-02 0.894E-05
CGA:  15    -0.319631333977E+03   -0.29843E-03   -0.29835E-03 29792   0.586E-02 0.810E-05
CGA:  16    -0.319631736477E+03   -0.40250E-03   -0.40212E-03 29792   0.354E-02 0.202E-04
CGA:  17    -0.319631857564E+03   -0.12109E-03   -0.12118E-03 29792   0.150E-02 0.326E-05
CGA:  18    -0.319631934903E+03   -0.77339E-04   -0.77341E-04 29792   0.169E-02 0.387E-05
CGA:  19    -0.319632020866E+03   -0.85963E-04   -0.85969E-04 29792   0.194E-02 0.414E-05
CGA:  20    -0.319632146669E+03   -0.12580E-03   -0.12573E-03 29792   0.573E-03 0.548E-05
CGA:  21    -0.319632168762E+03   -0.22092E-04   -0.22133E-04 29792   0.420E-03 0.213E-05
CGA:  22    -0.319632211386E+03   -0.42625E-04   -0.42286E-04 29792   0.717E-03 0.650E-05
CGA:  23    -0.319632245018E+03   -0.33632E-04   -0.33678E-04 29792   0.322E-03 0.536E-05
CGA:  24    -0.319632257565E+03   -0.12547E-04   -0.12573E-04 29792   0.181E-03 0.125E-05
CGA:  25    -0.319632266337E+03   -0.87714E-05   -0.87761E-05 29792   0.190E-03 0.584E-06
CGA:  26    -0.319632280945E+03   -0.14608E-04   -0.14566E-04 29792   0.327E-03 0.150E-05
CGA:  27    -0.319632293792E+03   -0.12847E-04   -0.12863E-04 29792   0.970E-04 0.734E-06
CGA:  28    -0.319632301202E+03   -0.74102E-05   -0.73672E-05 29792   0.106E-03 0.166E-05
   5 F= -.31963230E+03 E0= -.31960414E+03  d E =-.141397E+00  mag=    45.7888
       N       E                     dE             d eps       ncg     rms          ort
SDA:   1    -0.306581122324E+03    0.13051E+02    0.00000E+00 29792   0.676E+02 0.000E+00
CGA:   2    -0.308634161125E+03   -0.20530E+01   -0.19556E+01 29792   0.509E+02 0.154E+01
CGA:   3    -0.314739984308E+03   -0.61058E+01   -0.60704E+01 29792   0.972E+02 0.514E-01
CGA:   4    -0.317419331672E+03   -0.26793E+01   -0.22162E+01 29792   0.157E+02 0.154E+02
CGA:   5    -0.318042112473E+03   -0.62278E+00   -0.62065E+00 29792   0.157E+02 0.522E-01
CGA:   6    -0.318662986235E+03   -0.62087E+00   -0.62454E+00 29792   0.185E+02 0.211E-01
CGA:   7    -0.319268871210E+03   -0.60588E+00   -0.60400E+00 29792   0.915E+01 0.350E-01
CGA:   8    -0.319540109096E+03   -0.27124E+00   -0.26721E+00 29792   0.478E+01 0.543E-01
CGA:   9    -0.319640230106E+03   -0.10012E+00   -0.10144E+00 29792   0.189E+01-0.423E-01
CGA:  10    -0.319721908736E+03   -0.81679E-01   -0.81731E-01 29792   0.199E+01 0.312E-02
CGA:  11    -0.319793881034E+03   -0.71972E-01   -0.72400E-01 29792   0.176E+01 0.499E-02
CGA:  12    -0.319841008267E+03   -0.47127E-01   -0.47739E-01 29792   0.497E+00-0.747E-02
CGA:  13    -0.319854485531E+03   -0.13477E-01   -0.13492E-01 29792   0.238E+00-0.490E-04
CGA:  14    -0.319865185938E+03   -0.10700E-01   -0.10703E-01 29792   0.294E+00 0.789E-03
CGA:  15    -0.319876168881E+03   -0.10983E-01   -0.11016E-01 29792   0.266E+00 0.928E-03
CGA:  16    -0.319889368198E+03   -0.13199E-01   -0.13189E-01 29792   0.116E+00 0.178E-02
CGA:  17    -0.319891951025E+03   -0.25828E-02   -0.25977E-02 29792   0.456E-01-0.315E-03
CGA:  18    -0.319894055028E+03   -0.21040E-02   -0.21037E-02 29792   0.488E-01 0.154E-03
CGA:  19    -0.319897051178E+03   -0.29961E-02   -0.29916E-02 29792   0.566E-01 0.229E-03
CGA:  20    -0.319899184932E+03   -0.21338E-02   -0.21384E-02 29792   0.421E-01 0.192E-03
CGA:  21    -0.319900522559E+03   -0.13376E-02   -0.13406E-02 29792   0.140E-01 0.387E-04
CGA:  22    -0.319901044756E+03   -0.52220E-03   -0.52236E-03 29792   0.101E-01 0.564E-05
CGA:  23    -0.319901804257E+03   -0.75950E-03   -0.75800E-03 29792   0.193E-01 0.427E-04
CGA:  24    -0.319902466700E+03   -0.66244E-03   -0.66341E-03 29792   0.797E-02 0.198E-04
CGA:  25    -0.319902744823E+03   -0.27812E-03   -0.27838E-03 29792   0.440E-02 0.150E-04
CGA:  26    -0.319903009504E+03   -0.26468E-03   -0.26396E-03 29792   0.504E-02 0.444E-04
CGA:  27    -0.319903212843E+03   -0.20334E-03   -0.20363E-03 29792   0.438E-02 0.416E-04
CGA:  28    -0.319903412594E+03   -0.19975E-03   -0.19976E-03 29792   0.230E-02 0.356E-04
CGA:  29    -0.319903487502E+03   -0.74908E-04   -0.75088E-04 29792   0.142E-02 0.105E-04
CGA:  30    -0.319903605831E+03   -0.11833E-03   -0.11798E-03 29792   0.209E-02 0.791E-05
CGA:  31    -0.319903681967E+03   -0.76136E-04   -0.76153E-04 29792   0.159E-02 0.120E-06
SDA:  32    -0.319903750260E+03   -0.68293E-04   -0.68295E-04 29792   0.742E-03-0.161E-06
CGA:  33    -0.319903775862E+03   -0.25602E-04   -0.25603E-04 29792   0.404E-03-0.447E-06
CGA:  34    -0.319903819009E+03   -0.43147E-04   -0.42922E-04 29792   0.117E-02 0.297E-05
CGA:  35    -0.319903884859E+03   -0.65850E-04   -0.65838E-04 29792   0.537E-03 0.125E-05
CGA:  36    -0.319903911739E+03   -0.26880E-04   -0.26884E-04 29792   0.455E-03-0.356E-05
CGA:  37    -0.319903943942E+03   -0.32203E-04   -0.32411E-04 29792   0.812E-03-0.947E-05
CGA:  38    -0.319903983827E+03   -0.39885E-04   -0.39887E-04 29792   0.708E-03-0.975E-05
CGA:  39    -0.319904016538E+03   -0.32711E-04   -0.32693E-04 29792   0.354E-03-0.607E-05
CGA:  40    -0.319904045358E+03   -0.28821E-04   -0.28773E-04 29792   0.730E-03 0.110E-05
CGA:  41    -0.319904114986E+03   -0.69627E-04   -0.69206E-04 29792   0.652E-03 0.951E-05
CGA:  42    -0.319904137963E+03   -0.22977E-04   -0.23030E-04 29792   0.254E-03 0.213E-05
CGA:  43    -0.319904157220E+03   -0.19256E-04   -0.19241E-04 29792   0.518E-03 0.220E-06
CGA:  44    -0.319904188939E+03   -0.31720E-04   -0.31749E-04 29792   0.645E-03-0.336E-05
CGA:  45    -0.319904220464E+03   -0.31525E-04   -0.31532E-04 29792   0.297E-03-0.629E-06
CGA:  46    -0.319904230876E+03   -0.10412E-04   -0.10415E-04 29792   0.160E-03-0.694E-07
CGA:  47    -0.319904249803E+03   -0.18927E-04   -0.18738E-04 29792   0.465E-03 0.266E-05
CGA:  48    -0.319904276246E+03   -0.26443E-04   -0.26444E-04 29792   0.199E-03 0.455E-05
CGA:  49    -0.319904284028E+03   -0.77817E-05   -0.77946E-05 29792   0.111E-03 0.498E-06
   6 F= -.31990428E+03 E0= -.31987714E+03  d E =-.271983E+00  mag=    45.7827
       N       E                     dE             d eps       ncg     rms          ort
SDA:   1    -0.318169914090E+03    0.17344E+01    0.00000E+00 29792   0.550E+01 0.000E+00
CGA:   2    -0.318552980909E+03   -0.38307E+00   -0.38136E+00 29792   0.127E+02 0.870E-01
CGA:   3    -0.319515503371E+03   -0.96252E+00   -0.96668E+00 29792   0.506E+01-0.175E+00
CGA:   4    -0.319663567397E+03   -0.14806E+00   -0.15001E+00 29792   0.204E+01-0.256E-01
CGA:   5    -0.319812732593E+03   -0.14917E+00   -0.14915E+00 29792   0.198E+01 0.248E-03
CGA:   6    -0.319883797208E+03   -0.71065E-01   -0.71502E-01 29792   0.893E+00-0.112E-02
CGA:   7    -0.319917574516E+03   -0.33777E-01   -0.33574E-01 29792   0.475E+00-0.223E-03
CGA:   8    -0.319936135061E+03   -0.18561E-01   -0.18577E-01 29792   0.183E+00 0.185E-03
CGA:   9    -0.319951546258E+03   -0.15411E-01   -0.15389E-01 29792   0.159E+00 0.654E-03
CGA:  10    -0.319956313446E+03   -0.47672E-02   -0.47669E-02 29792   0.390E-01 0.475E-04
CGA:  11    -0.319958335054E+03   -0.20216E-02   -0.20217E-02 29792   0.349E-01 0.165E-04
CGA:  12    -0.319960435347E+03   -0.21003E-02   -0.21001E-02 29792   0.300E-01 0.184E-04
CGA:  13    -0.319961657576E+03   -0.12222E-02   -0.12228E-02 29792   0.144E-01 0.596E-05
CGA:  14    -0.319962211976E+03   -0.55440E-03   -0.55496E-03 29792   0.606E-02 0.652E-05
CGA:  15    -0.319962470312E+03   -0.25834E-03   -0.25830E-03 29792   0.590E-02-0.926E-06
CGA:  16    -0.319962978325E+03   -0.50801E-03   -0.50715E-03 29792   0.497E-02 0.231E-04
CGA:  17    -0.319963138900E+03   -0.16058E-03   -0.16072E-03 29792   0.142E-02 0.338E-05
CGA:  18    -0.319963237036E+03   -0.98136E-04   -0.98002E-04 29792   0.221E-02 0.723E-05
CGA:  19    -0.319963376919E+03   -0.13988E-03   -0.13981E-03 29792   0.148E-02 0.775E-05
CGA:  20    -0.319963450791E+03   -0.73872E-04   -0.73906E-04 29792   0.121E-02 0.587E-05
CGA:  21    -0.319963492992E+03   -0.42200E-04   -0.42254E-04 29792   0.461E-03 0.249E-05
CGA:  22    -0.319963523640E+03   -0.30649E-04   -0.30597E-04 29792   0.745E-03 0.341E-05
CGA:  23    -0.319963571957E+03   -0.48317E-04   -0.48254E-04 29792   0.460E-03 0.547E-05
CGA:  24    -0.319963589099E+03   -0.17142E-04   -0.17175E-04 29792   0.196E-03 0.157E-05
CGA:  25    -0.319963598497E+03   -0.93980E-05   -0.94069E-05 29792   0.164E-03 0.131E-05
CGA:  26    -0.319963613147E+03   -0.14650E-04   -0.14547E-04 29792   0.233E-03 0.272E-05
CGA:  27    -0.319963623406E+03   -0.10259E-04   -0.10284E-04 29792   0.101E-03 0.201E-05
CGA:  28    -0.319963627548E+03   -0.41421E-05   -0.41556E-05 29792   0.905E-04 0.766E-06
   7 F= -.31996363E+03 E0= -.31993680E+03  d E =-.593435E-01  mag=    45.7750
       N       E                     dE             d eps       ncg     rms          ort
SDA:   1    -0.303979554831E+03    0.15984E+02    0.00000E+00 29792   0.595E+02 0.000E+00
CGA:   2    -0.306534652183E+03   -0.25551E+01   -0.25216E+01 29792   0.862E+02-0.687E+00
CGA:   3    -0.315004258747E+03   -0.84696E+01   -0.85130E+01 29792   0.803E+02-0.205E+01
CGA:   4    -0.317046266763E+03   -0.20420E+01   -0.15535E+01 29792   0.184E+02 0.209E+02
CGA:   5    -0.317733594665E+03   -0.68733E+00   -0.65340E+00 29792   0.193E+02 0.619E+00
CGA:   6    -0.318523456202E+03   -0.78986E+00   -0.79148E+00 29792   0.285E+02 0.249E-01
CGA:   7    -0.319205101305E+03   -0.68165E+00   -0.70292E+00 29792   0.118E+02-0.375E+00
CGA:   8    -0.319441383657E+03   -0.23628E+00   -0.23689E+00 29792   0.739E+01-0.624E-02
CGA:   9    -0.319660337953E+03   -0.21895E+00   -0.21364E+00 29792   0.388E+01 0.634E-01
CGA:  10    -0.319742225565E+03   -0.81888E-01   -0.83059E-01 29792   0.254E+01-0.326E-01
CGA:  11    -0.319834107383E+03   -0.91882E-01   -0.92171E-01 29792   0.288E+01 0.742E-02
CGA:  12    -0.319921991114E+03   -0.87884E-01   -0.88800E-01 29792   0.190E+01 0.131E-02
CGA:  13    -0.319959033554E+03   -0.37042E-01   -0.38133E-01 29792   0.518E+00-0.304E-01
CGA:  14    -0.319975846377E+03   -0.16813E-01   -0.16843E-01 29792   0.432E+00 0.586E-03
CGA:  15    -0.319988007561E+03   -0.12161E-01   -0.12198E-01 29792   0.309E+00-0.823E-04
CGA:  16    -0.320002906481E+03   -0.14899E-01   -0.14889E-01 29792   0.380E+00 0.108E-02
CGA:  17    -0.320015737073E+03   -0.12831E-01   -0.12871E-01 29792   0.296E+00 0.858E-03
CGA:  18    -0.320023076480E+03   -0.73394E-02   -0.74121E-02 29792   0.613E-01-0.763E-03
CGA:  19    -0.320024948612E+03   -0.18721E-02   -0.18756E-02 29792   0.608E-01 0.718E-04
CGA:  20    -0.320027845582E+03   -0.28970E-02   -0.28950E-02 29792   0.687E-01 0.223E-03
CGA:  21    -0.320031001654E+03   -0.31561E-02   -0.31538E-02 29792   0.613E-01 0.359E-03
CGA:  22    -0.320032691389E+03   -0.16897E-02   -0.16958E-02 29792   0.317E-01 0.448E-04
CGA:  23    -0.320033846159E+03   -0.11548E-02   -0.11552E-02 29792   0.149E-01 0.451E-04
CGA:  24    -0.320034394732E+03   -0.54857E-03   -0.54877E-03 29792   0.156E-01 0.117E-04
CGA:  25    -0.320035107914E+03   -0.71318E-03   -0.71305E-03 29792   0.137E-01 0.388E-05
CGA:  26    -0.320035625473E+03   -0.51756E-03   -0.51767E-03 29792   0.676E-02 0.965E-05
CGA:  27    -0.320035852387E+03   -0.22691E-03   -0.22713E-03 29792   0.630E-02 0.174E-04
CGA:  28    -0.320036163239E+03   -0.31085E-03   -0.31045E-03 29792   0.485E-02 0.422E-04
CGA:  29    -0.320036377023E+03   -0.21378E-03   -0.21364E-03 29792   0.536E-02 0.434E-04
CGA:  30    -0.320036574441E+03   -0.19742E-03   -0.19765E-03 29792   0.316E-02 0.464E-04
CGA:  31    -0.320036672251E+03   -0.97810E-04   -0.98072E-04 29792   0.124E-02 0.202E-04
SDA:  32    -0.320036736276E+03   -0.64025E-04   -0.63961E-04 29792   0.243E-02 0.416E-05
CGA:  33    -0.320036793140E+03   -0.56864E-04   -0.56849E-04 29792   0.851E-03-0.429E-05
CGA:  34    -0.320036843425E+03   -0.50285E-04   -0.50487E-04 29792   0.116E-02-0.113E-04
CGA:  35    -0.320036933356E+03   -0.89931E-04   -0.90571E-04 29792   0.838E-03-0.175E-04
CGA:  36    -0.320036976492E+03   -0.43136E-04   -0.43131E-04 29792   0.589E-03-0.401E-06
CGA:  37    -0.320037003367E+03   -0.26875E-04   -0.26861E-04 29792   0.489E-03 0.539E-05
CGA:  38    -0.320037038362E+03   -0.34995E-04   -0.34573E-04 29792   0.614E-03 0.151E-04
CGA:  39    -0.320037071887E+03   -0.33525E-04   -0.33413E-04 29792   0.329E-03 0.134E-04
CGA:  40    -0.320037098019E+03   -0.26132E-04   -0.25980E-04 29792   0.582E-03 0.422E-05
CGA:  41    -0.320037157227E+03   -0.59208E-04   -0.58923E-04 29792   0.105E-02 0.490E-05
CGA:  42    -0.320037200274E+03   -0.43046E-04   -0.42983E-04 29792   0.545E-03-0.313E-05
CGA:  43    -0.320037223417E+03   -0.23143E-04   -0.23137E-04 29792   0.291E-03-0.149E-05
CGA:  44    -0.320037238641E+03   -0.15224E-04   -0.15227E-04 29792   0.448E-03-0.113E-05
CGA:  45    -0.320037288708E+03   -0.50067E-04   -0.50036E-04 29792   0.602E-03 0.209E-08
CGA:  46    -0.320037316517E+03   -0.27810E-04   -0.27818E-04 29792   0.159E-03 0.924E-06
CGA:  47    -0.320037325833E+03   -0.93159E-05   -0.93120E-05 29792   0.186E-03 0.297E-06
CGA:  48    -0.320037336447E+03   -0.10613E-04   -0.10612E-04 29792   0.271E-03-0.253E-06
CGA:  49    -0.320037358576E+03   -0.22129E-04   -0.22171E-04 29792   0.962E-04-0.166E-05
CGA:  50    -0.320037362136E+03   -0.35601E-05   -0.35395E-05 29792   0.921E-04-0.151E-05
   8 F= -.32003736E+03 E0= -.32001107E+03  d E =-.737346E-01  mag=    45.7410
       N       E                     dE             d eps       ncg     rms          ort
SDA:   1    -0.316761479047E+03    0.32759E+01    0.00000E+00 29792   0.975E+01 0.000E+00
CGA:   2    -0.317613501775E+03   -0.85202E+00   -0.84642E+00 29792   0.236E+02 0.143E+00
CGA:   3    -0.319089458965E+03   -0.14760E+01   -0.14726E+01 29792   0.164E+02 0.359E+00
CGA:   4    -0.319515219535E+03   -0.42576E+00   -0.37935E+00 29792   0.295E+01 0.146E+01
CGA:   5    -0.319704025586E+03   -0.18881E+00   -0.18867E+00 29792   0.443E+01 0.191E-01
CGA:   6    -0.319866548434E+03   -0.16252E+00   -0.16348E+00 29792   0.278E+01 0.520E-03
CGA:   7    -0.319953380719E+03   -0.86832E-01   -0.86347E-01 29792   0.113E+01 0.603E-02
CGA:   8    -0.319993376499E+03   -0.39996E-01   -0.39807E-01 29792   0.554E+00 0.146E-03
CGA:   9    -0.320009832044E+03   -0.16456E-01   -0.16539E-01 29792   0.394E+00-0.821E-03
CGA:  10    -0.320033319271E+03   -0.23487E-01   -0.23484E-01 29792   0.362E+00 0.296E-03
CGA:  11    -0.320042725566E+03   -0.94063E-02   -0.94265E-02 29792   0.883E-01-0.286E-03
CGA:  12    -0.320045405398E+03   -0.26798E-02   -0.26857E-02 29792   0.559E-01-0.290E-04
CGA:  13    -0.320048199339E+03   -0.27939E-02   -0.27940E-02 29792   0.639E-01-0.249E-04
CGA:  14    -0.320051337042E+03   -0.31377E-02   -0.31377E-02 29792   0.474E-01 0.719E-06
CGA:  15    -0.320052758016E+03   -0.14210E-02   -0.14238E-02 29792   0.191E-01-0.181E-04
CGA:  16    -0.320053282558E+03   -0.52454E-03   -0.52509E-03 29792   0.658E-02-0.242E-06
CGA:  17    -0.320053758688E+03   -0.47613E-03   -0.47559E-03 29792   0.150E-01 0.191E-04
CGA:  18    -0.320054410194E+03   -0.65151E-03   -0.65165E-03 29792   0.880E-02 0.201E-04
CGA:  19    -0.320054695726E+03   -0.28553E-03   -0.28619E-03 29792   0.395E-02 0.908E-05
CGA:  20    -0.320054832607E+03   -0.13688E-03   -0.13701E-03 29792   0.221E-02 0.636E-05
CGA:  21    -0.320054943078E+03   -0.11047E-03   -0.11046E-03 29792   0.282E-02 0.265E-05
CGA:  22    -0.320055108612E+03   -0.16553E-03   -0.16544E-03 29792   0.325E-02 0.600E-05
CGA:  23    -0.320055211198E+03   -0.10259E-03   -0.10277E-03 29792   0.116E-02 0.616E-05
CGA:  24    -0.320055253280E+03   -0.42082E-04   -0.42139E-04 29792   0.651E-03 0.486E-05
CGA:  25    -0.320055288765E+03   -0.35484E-04   -0.35433E-04 29792   0.101E-02 0.580E-05
CGA:  26    -0.320055334572E+03   -0.45808E-04   -0.45822E-04 29792   0.700E-03 0.967E-05
CGA:  27    -0.320055361862E+03   -0.27290E-04   -0.27323E-04 29792   0.324E-03 0.368E-05
CGA:  28    -0.320055373732E+03   -0.11869E-04   -0.11865E-04 29792   0.217E-03-0.769E-06
CGA:  29    -0.320055384091E+03   -0.10360E-04   -0.10363E-04 29792   0.311E-03-0.194E-05
CGA:  30    -0.320055402837E+03   -0.18746E-04   -0.18809E-04 29792   0.139E-03-0.446E-05
CGA:  31    -0.320055407639E+03   -0.48022E-05   -0.47940E-05 29792   0.122E-03-0.950E-06
   9 F= -.32005541E+03 E0= -.32002893E+03  d E =-.180455E-01  mag=    45.7494
       N       E                     dE             d eps       ncg     rms          ort
SDA:   1    -0.316673779612E+03    0.33816E+01    0.00000E+00 29792   0.858E+01 0.000E+00
CGA:   2    -0.318019618669E+03   -0.13458E+01   -0.13275E+01 29792   0.332E+02 0.200E+00
CGA:   3    -0.319400466628E+03   -0.13808E+01   -0.13627E+01 29792   0.691E+01-0.306E+00
CGA:   4    -0.319609199027E+03   -0.20873E+00   -0.20892E+00 29792   0.322E+01 0.188E-02
CGA:   5    -0.319844294936E+03   -0.23510E+00   -0.23498E+00 29792   0.312E+01 0.355E-02
CGA:   6    -0.319952747914E+03   -0.10845E+00   -0.10904E+00 29792   0.129E+01 0.199E-02
CGA:   7    -0.320001085935E+03   -0.48338E-01   -0.48050E-01 29792   0.579E+00-0.324E-02
CGA:   8    -0.320023941638E+03   -0.22856E-01   -0.22888E-01 29792   0.353E+00 0.914E-03
CGA:   9    -0.320049076579E+03   -0.25135E-01   -0.25122E-01 29792   0.230E+00 0.511E-03
CGA:  10    -0.320055974205E+03   -0.68976E-02   -0.69050E-02 29792   0.553E-01 0.188E-04
CGA:  11    -0.320059557483E+03   -0.35833E-02   -0.35809E-02 29792   0.710E-01 0.120E-03
CGA:  12    -0.320063359663E+03   -0.38022E-02   -0.38017E-02 29792   0.494E-01 0.797E-04
CGA:  13    -0.320065117002E+03   -0.17573E-02   -0.17562E-02 29792   0.173E-01-0.134E-04
CGA:  14    -0.320065735143E+03   -0.61814E-03   -0.61831E-03 29792   0.924E-02 0.234E-05
CGA:  15    -0.320066289588E+03   -0.55444E-03   -0.55434E-03 29792   0.119E-01 0.806E-05
CGA:  16    -0.320067043101E+03   -0.75351E-03   -0.75281E-03 29792   0.597E-02 0.419E-04
CGA:  17    -0.320067224347E+03   -0.18125E-03   -0.18133E-03 29792   0.235E-02 0.417E-05
CGA:  18    -0.320067400735E+03   -0.17639E-03   -0.17605E-03 29792   0.378E-02 0.126E-04
CGA:  19    -0.320067644753E+03   -0.24402E-03   -0.24378E-03 29792   0.231E-02 0.169E-04
CGA:  20    -0.320067737632E+03   -0.92879E-04   -0.92994E-04 29792   0.140E-02 0.928E-05
CGA:  21    -0.320067789273E+03   -0.51642E-04   -0.51699E-04 29792   0.780E-03 0.478E-05
CGA:  22    -0.320067845015E+03   -0.55742E-04   -0.55601E-04 29792   0.122E-02 0.632E-05
CGA:  23    -0.320067919124E+03   -0.74109E-04   -0.74032E-04 29792   0.379E-03 0.795E-05
CGA:  24    -0.320067931896E+03   -0.12773E-04   -0.12797E-04 29792   0.235E-03 0.117E-05
CGA:  25    -0.320067950143E+03   -0.18246E-04   -0.18178E-04 29792   0.324E-03 0.241E-05
CGA:  26    -0.320067967669E+03   -0.17527E-04   -0.17523E-04 29792   0.237E-03 0.161E-05
CGA:  27    -0.320067976621E+03   -0.89516E-05   -0.89520E-05 29792   0.994E-04-0.443E-07
  10 F= -.32006798E+03 E0= -.32004140E+03  d E =-.125690E-01  mag=    45.7557
       N       E                     dE             d eps       ncg     rms          ort
SDA:   1    -0.310619735889E+03    0.94482E+01    0.00000E+00 29792   0.267E+02 0.000E+00
CGA:   2    -0.312930861716E+03   -0.23111E+01   -0.22637E+01 29792   0.722E+02 0.132E+01
CGA:   3    -0.317781827219E+03   -0.48510E+01   -0.49653E+01 29792   0.362E+02-0.697E+01
CGA:   4    -0.318704797872E+03   -0.92297E+00   -0.93562E+00 29792   0.851E+01-0.116E+00
CGA:   5    -0.319265902904E+03   -0.56111E+00   -0.56559E+00 29792   0.131E+02-0.222E+00
CGA:   6    -0.319776586036E+03   -0.51068E+00   -0.51253E+00 29792   0.212E+01 0.283E-01
CGA:   7    -0.319890141817E+03   -0.11356E+00   -0.11358E+00 29792   0.193E+01-0.956E-02
CGA:   8    -0.319967909334E+03   -0.77768E-01   -0.78315E-01 29792   0.118E+01 0.115E-01
CGA:   9    -0.320020360060E+03   -0.52451E-01   -0.52481E-01 29792   0.725E+00 0.162E-02
CGA:  10    -0.320044604908E+03   -0.24245E-01   -0.24580E-01 29792   0.217E+00 0.350E-03
CGA:  11    -0.320054484057E+03   -0.98791E-02   -0.98837E-02 29792   0.188E+00 0.415E-03
CGA:  12    -0.320067553492E+03   -0.13069E-01   -0.13011E-01 29792   0.128E+00 0.232E-02
CGA:  13    -0.320073586926E+03   -0.60334E-02   -0.60353E-02 29792   0.535E-01 0.147E-03
CGA:  14    -0.320075612334E+03   -0.20254E-02   -0.20304E-02 29792   0.289E-01 0.531E-04
CGA:  15    -0.320077475804E+03   -0.18635E-02   -0.18626E-02 29792   0.411E-01 0.391E-04
CGA:  16    -0.320079345545E+03   -0.18697E-02   -0.18709E-02 29792   0.229E-01 0.817E-04
CGA:  17    -0.320080102513E+03   -0.75697E-03   -0.75902E-03 29792   0.992E-02 0.877E-05
CGA:  18    -0.320080666011E+03   -0.56350E-03   -0.56311E-03 29792   0.794E-02 0.407E-04
CGA:  19    -0.320081253992E+03   -0.58798E-03   -0.58565E-03 29792   0.112E-01 0.855E-04
CGA:  20    -0.320081807772E+03   -0.55378E-03   -0.55388E-03 29792   0.428E-02 0.422E-04
CGA:  21    -0.320081956767E+03   -0.14900E-03   -0.14916E-03 29792   0.268E-02 0.846E-05
CGA:  22    -0.320082155959E+03   -0.19919E-03   -0.19843E-03 29792   0.439E-02 0.285E-04
CGA:  23    -0.320082350556E+03   -0.19460E-03   -0.19470E-03 29792   0.226E-02 0.152E-04
CGA:  24    -0.320082460458E+03   -0.10990E-03   -0.10993E-03 29792   0.145E-02 0.996E-05
CGA:  25    -0.320082512747E+03   -0.52288E-04   -0.52392E-04 29792   0.783E-03 0.561E-05
CGA:  26    -0.320082569344E+03   -0.56597E-04   -0.56400E-04 29792   0.113E-02 0.831E-05
CGA:  27    -0.320082637324E+03   -0.67980E-04   -0.67871E-04 29792   0.659E-03 0.116E-04
CGA:  28    -0.320082664134E+03   -0.26809E-04   -0.26844E-04 29792   0.414E-03 0.245E-05
CGA:  29    -0.320082686414E+03   -0.22280E-04   -0.22280E-04 29792   0.500E-03-0.266E-06
CGA:  30    -0.320082718726E+03   -0.32312E-04   -0.32291E-04 29792   0.726E-03 0.771E-06
CGA:  31    -0.320082758035E+03   -0.39309E-04   -0.39312E-04 29792   0.372E-03-0.124E-05
SDA:  32    -0.320082778439E+03   -0.20404E-04   -0.20399E-04 29792   0.432E-03 0.131E-05
CGA:  33    -0.320082789558E+03   -0.11119E-04   -0.11113E-04 29792   0.210E-03-0.632E-06
CGA:  34    -0.320082809581E+03   -0.20023E-04   -0.19989E-04 29792   0.521E-03 0.339E-06
CGA:  35    -0.320082838426E+03   -0.28845E-04   -0.28846E-04 29792   0.488E-03-0.531E-06
CGA:  36    -0.320082856707E+03   -0.18280E-04   -0.18259E-04 29792   0.151E-03-0.164E-05
CGA:  37    -0.320082866531E+03   -0.98248E-05   -0.98825E-05 29792   0.223E-03-0.457E-05
CGA:  38    -0.320082884094E+03   -0.17562E-04   -0.17890E-04 29792   0.365E-03-0.113E-04
CGA:  39    -0.320082900841E+03   -0.16747E-04   -0.16687E-04 29792   0.239E-03-0.949E-05
CGA:  40    -0.320082913715E+03   -0.12874E-04   -0.12877E-04 29792   0.311E-03-0.389E-05
CGA:  41    -0.320082949776E+03   -0.36061E-04   -0.36397E-04 29792   0.524E-03-0.545E-05
CGA:  42    -0.320082968668E+03   -0.18892E-04   -0.18889E-04 29792   0.348E-03-0.121E-05
CGA:  43    -0.320082984277E+03   -0.15609E-04   -0.15576E-04 29792   0.252E-03-0.264E-05
CGA:  44    -0.320082999818E+03   -0.15541E-04   -0.15569E-04 29792   0.345E-03-0.432E-05
CGA:  45    -0.320083034274E+03   -0.34456E-04   -0.34947E-04 29792   0.510E-03-0.106E-04
CGA:  46    -0.320083053277E+03   -0.19003E-04   -0.18939E-04 29792   0.178E-03-0.436E-05
CGA:  47    -0.320083064298E+03   -0.11021E-04   -0.11018E-04 29792   0.252E-03 0.579E-06
CGA:  48    -0.320083078421E+03   -0.14123E-04   -0.14131E-04 29792   0.310E-03 0.397E-05
CGA:  49    -0.320083098025E+03   -0.19605E-04   -0.19571E-04 29792   0.124E-03 0.766E-05
CGA:  50    -0.320083102035E+03   -0.40099E-05   -0.40557E-05 29792   0.921E-04 0.158E-05
  11 F= -.32008310E+03 E0= -.32005615E+03  d E =-.151254E-01  mag=    45.7831
       N       E                     dE             d eps       ncg     rms          ort
SDA:   1    -0.318688701664E+03    0.13944E+01    0.00000E+00 29792   0.598E+01 0.000E+00
CGA:   2    -0.318969241513E+03   -0.28054E+00   -0.28030E+00 29792   0.716E+01-0.464E-02
CGA:   3    -0.319436297820E+03   -0.46706E+00   -0.46564E+00 29792   0.934E+01 0.118E+00
CGA:   4    -0.319753807333E+03   -0.31751E+00   -0.30987E+00 29792   0.257E+01 0.908E-01
CGA:   5    -0.319888067268E+03   -0.13426E+00   -0.13390E+00 29792   0.160E+01-0.275E-01
CGA:   6    -0.319984608015E+03   -0.96541E-01   -0.96531E-01 29792   0.157E+01 0.130E-02
CGA:   7    -0.320047907661E+03   -0.63300E-01   -0.63460E-01 29792   0.289E+00 0.103E-02
CGA:   8    -0.320059918940E+03   -0.12011E-01   -0.12018E-01 29792   0.262E+00 0.109E-03
CGA:   9    -0.320074913571E+03   -0.14995E-01   -0.14994E-01 29792   0.211E+00 0.184E-03
CGA:  10    -0.320082783647E+03   -0.78701E-02   -0.78665E-02 29792   0.574E-01 0.261E-04
CGA:  11    -0.320084692344E+03   -0.19087E-02   -0.19132E-02 29792   0.341E-01-0.143E-04
CGA:  12    -0.320086247191E+03   -0.15548E-02   -0.15547E-02 29792   0.303E-01-0.168E-05
CGA:  13    -0.320088232637E+03   -0.19854E-02   -0.19849E-02 29792   0.159E-01 0.349E-04
CGA:  14    -0.320088891011E+03   -0.65837E-03   -0.65854E-03 29792   0.445E-02 0.717E-05
CGA:  15    -0.320089174142E+03   -0.28313E-03   -0.28302E-03 29792   0.818E-02 0.880E-05
CGA:  16    -0.320089622206E+03   -0.44806E-03   -0.44805E-03 29792   0.565E-02 0.103E-04
CGA:  17    -0.320089818184E+03   -0.19598E-03   -0.19620E-03 29792   0.195E-02 0.510E-05
CGA:  18    -0.320089899676E+03   -0.81492E-04   -0.81506E-04 29792   0.155E-02 0.123E-05
CGA:  19    -0.320089988109E+03   -0.88433E-04   -0.88417E-04 29792   0.189E-02 0.257E-05
CGA:  20    -0.320090132328E+03   -0.14422E-03   -0.14400E-03 29792   0.929E-03 0.875E-05
CGA:  21    -0.320090160694E+03   -0.28366E-04   -0.28401E-04 29792   0.413E-03 0.932E-06
CGA:  22    -0.320090197128E+03   -0.36434E-04   -0.36433E-04 29792   0.843E-03-0.158E-06
CGA:  23    -0.320090238355E+03   -0.41227E-04   -0.41234E-04 29792   0.601E-03 0.772E-06
CGA:  24    -0.320090258040E+03   -0.19685E-04   -0.19691E-04 29792   0.218E-03 0.138E-06
CGA:  25    -0.320090268014E+03   -0.99735E-05   -0.99773E-05 29792   0.157E-03 0.374E-06
CGA:  26    -0.320090281633E+03   -0.13619E-04   -0.13643E-04 29792   0.283E-03-0.846E-06
CGA:  27    -0.320090296968E+03   -0.15335E-04   -0.15335E-04 29792   0.137E-03-0.793E-06
CGA:  28    -0.320090301195E+03   -0.42275E-05   -0.42164E-05 29792   0.716E-04-0.565E-06
  12 F= -.32009030E+03 E0= -.32006317E+03  d E =-.719916E-02  mag=    45.7860
       N       E                     dE             d eps       ncg     rms          ort
SDA:   1    -0.319983001296E+03    0.10730E+00    0.00000E+00 29792   0.106E+01 0.000E+00
CGA:   2    -0.320004632362E+03   -0.21631E-01   -0.22382E-01 29792   0.415E+00-0.247E-01
CGA:   3    -0.320038578407E+03   -0.33946E-01   -0.33960E-01 29792   0.611E+00-0.397E-03
CGA:   4    -0.320067176150E+03   -0.28598E-01   -0.28605E-01 29792   0.234E+00 0.306E-03
CGA:   5    -0.320077338134E+03   -0.10162E-01   -0.10147E-01 29792   0.142E+00-0.313E-03
CGA:   6    -0.320084717207E+03   -0.73791E-02   -0.73800E-02 29792   0.145E+00 0.237E-03
CGA:   7    -0.320090684600E+03   -0.59674E-02   -0.59610E-02 29792   0.678E-01-0.745E-04
CGA:   8    -0.320092743778E+03   -0.20592E-02   -0.20613E-02 29792   0.188E-01-0.749E-05
CGA:   9    -0.320093838035E+03   -0.10943E-02   -0.10944E-02 29792   0.189E-01-0.159E-04
CGA:  10    -0.320094845714E+03   -0.10077E-02   -0.10077E-02 29792   0.117E-01 0.883E-05
CGA:  11    -0.320095202135E+03   -0.35642E-03   -0.35611E-03 29792   0.426E-02 0.409E-05
CGA:  12    -0.320095368886E+03   -0.16675E-03   -0.16679E-03 29792   0.192E-02 0.181E-05
CGA:  13    -0.320095482209E+03   -0.11332E-03   -0.11333E-03 29792   0.270E-02-0.653E-06
CGA:  14    -0.320095609550E+03   -0.12734E-03   -0.12735E-03 29792   0.108E-02 0.169E-05
CGA:  15    -0.320095644192E+03   -0.34641E-04   -0.34619E-04 29792   0.404E-03-0.651E-06
CGA:  16    -0.320095667942E+03   -0.23750E-04   -0.23747E-04 29792   0.571E-03 0.266E-06
CGA:  17    -0.320095704731E+03   -0.36789E-04   -0.36796E-04 29792   0.417E-03-0.416E-06
CGA:  18    -0.320095718541E+03   -0.13810E-04   -0.13811E-04 29792   0.198E-03-0.318E-07
CGA:  19    -0.320095727099E+03   -0.85574E-05   -0.85559E-05 29792   0.131E-03-0.229E-06
  13 F= -.32009573E+03 E0= -.32006849E+03  d E =-.542590E-02  mag=    45.7875
       N       E                     dE             d eps       ncg     rms          ort
SDA:   1    -0.319971430018E+03    0.12429E+00    0.00000E+00 29792   0.826E+00 0.000E+00
CGA:   2    -0.319991626936E+03   -0.20197E-01   -0.20429E-01 29792   0.467E+00-0.486E-02
CGA:   3    -0.320032554600E+03   -0.40928E-01   -0.41049E-01 29792   0.906E+00-0.291E-02
CGA:   4    -0.320069852204E+03   -0.37298E-01   -0.37300E-01 29792   0.275E+00 0.699E-04
CGA:   5    -0.320082092864E+03   -0.12241E-01   -0.12249E-01 29792   0.133E+00 0.516E-03
CGA:   6    -0.320088471931E+03   -0.63791E-02   -0.63799E-02 29792   0.970E-01 0.171E-03
CGA:   7    -0.320093955802E+03   -0.54839E-02   -0.54853E-02 29792   0.582E-01-0.134E-03
CGA:   8    -0.320095864578E+03   -0.19088E-02   -0.19099E-02 29792   0.184E-01 0.114E-04
CGA:   9    -0.320096591728E+03   -0.72715E-03   -0.72703E-03 29792   0.125E-01 0.819E-06
CGA:  10    -0.320097388160E+03   -0.79643E-03   -0.79620E-03 29792   0.125E-01 0.149E-04
CGA:  11    -0.320097790617E+03   -0.40246E-03   -0.40233E-03 29792   0.387E-02 0.484E-05
CGA:  12    -0.320097911914E+03   -0.12130E-03   -0.12133E-03 29792   0.171E-02 0.307E-06
CGA:  13    -0.320098010330E+03   -0.98415E-04   -0.98425E-04 29792   0.160E-02-0.961E-06
CGA:  14    -0.320098128872E+03   -0.11854E-03   -0.11854E-03 29792   0.109E-02 0.899E-07
CGA:  15    -0.320098163942E+03   -0.35069E-04   -0.35069E-04 29792   0.355E-03-0.558E-07
CGA:  16    -0.320098184479E+03   -0.20537E-04   -0.20536E-04 29792   0.353E-03 0.906E-07
CGA:  17    -0.320098200203E+03   -0.15725E-04   -0.15723E-04 29792   0.401E-03-0.382E-06
CGA:  18    -0.320098222998E+03   -0.22795E-04   -0.22792E-04 29792   0.231E-03 0.349E-06
CGA:  19    -0.320098231770E+03   -0.87721E-05   -0.87760E-05 29792   0.791E-04 0.281E-06
  14 F= -.32009823E+03 E0= -.32007090E+03  d E =-.250467E-02  mag=    45.7906
       N       E                     dE             d eps       ncg     rms          ort
SDA:   1    -0.319823369394E+03    0.27485E+00    0.00000E+00 29792   0.167E+01 0.000E+00
CGA:   2    -0.319863062524E+03   -0.39693E-01   -0.40219E-01 29792   0.916E+00-0.119E-01
CGA:   3    -0.319998429621E+03   -0.13537E+00   -0.13548E+00 29792   0.200E+01-0.146E-02
CGA:   4    -0.320057452377E+03   -0.59023E-01   -0.59200E-01 29792   0.535E+00-0.193E-02
CGA:   5    -0.320071672983E+03   -0.14221E-01   -0.14123E-01 29792   0.186E+00 0.179E-02
CGA:   6    -0.320088399025E+03   -0.16726E-01   -0.16726E-01 29792   0.147E+00 0.261E-05
CGA:   7    -0.320095243136E+03   -0.68441E-02   -0.68468E-02 29792   0.589E-01 0.176E-03
CGA:   8    -0.320097727821E+03   -0.24847E-02   -0.24834E-02 29792   0.241E-01-0.198E-04
CGA:   9    -0.320099039678E+03   -0.13119E-02   -0.13117E-02 29792   0.274E-01 0.395E-04
CGA:  10    -0.320100305198E+03   -0.12655E-02   -0.12657E-02 29792   0.961E-02 0.250E-04
CGA:  11    -0.320100647317E+03   -0.34212E-03   -0.34233E-03 29792   0.408E-02 0.661E-05
CGA:  12    -0.320100835252E+03   -0.18794E-03   -0.18794E-03 29792   0.312E-02-0.263E-06
CGA:  13    -0.320101048155E+03   -0.21290E-03   -0.21303E-03 29792   0.405E-02-0.724E-05
CGA:  14    -0.320101171008E+03   -0.12285E-03   -0.12286E-03 29792   0.122E-02-0.386E-05
CGA:  15    -0.320101213177E+03   -0.42169E-04   -0.42141E-04 29792   0.506E-03-0.144E-05
CGA:  16    -0.320101249558E+03   -0.36381E-04   -0.36327E-04 29792   0.655E-03 0.223E-05
CGA:  17    -0.320101290135E+03   -0.40578E-04   -0.40549E-04 29792   0.531E-03 0.250E-05
CGA:  18    -0.320101314560E+03   -0.24425E-04   -0.24435E-04 29792   0.252E-03 0.144E-05
CGA:  19    -0.320101323451E+03   -0.88904E-05   -0.88933E-05 29792   0.137E-03 0.649E-07
CGA:  20    -0.320101338881E+03   -0.15430E-04   -0.15340E-04 29792   0.369E-03 0.139E-05
CGA:  21    -0.320101352755E+03   -0.13874E-04   -0.13883E-04 29792   0.106E-03 0.565E-06
CGA:  22    -0.320101356629E+03   -0.38744E-05   -0.38792E-05 29792   0.826E-04 0.180E-06
  15 F= -.32010136E+03 E0= -.32007389E+03  d E =-.312486E-02  mag=    45.7970
       N       E                     dE             d eps       ncg     rms          ort
SDA:   1    -0.313246599512E+03    0.68548E+01    0.00000E+00 29792   0.198E+02 0.000E+00
CGA:   2    -0.314939554816E+03   -0.16930E+01   -0.17244E+01 29792   0.658E+02-0.747E+00
CGA:   3    -0.317761963214E+03   -0.28224E+01   -0.28212E+01 29792   0.291E+02 0.573E-01
CGA:   4    -0.318811218553E+03   -0.10493E+01   -0.10129E+01 29792   0.137E+02 0.199E+00
CGA:   5    -0.319233867722E+03   -0.42265E+00   -0.42592E+00 29792   0.689E+01-0.279E-01
CGA:   6    -0.319642692932E+03   -0.40883E+00   -0.40878E+00 29792   0.642E+01 0.439E-03
CGA:   7    -0.319885083533E+03   -0.24239E+00   -0.24316E+00 29792   0.219E+01 0.952E-02
CGA:   8    -0.319937119265E+03   -0.52036E-01   -0.52941E-01 29792   0.989E+00-0.200E-01
CGA:   9    -0.319991300416E+03   -0.54181E-01   -0.54195E-01 29792   0.992E+00-0.137E-02
CGA:  10    -0.320035916880E+03   -0.44616E-01   -0.44629E-01 29792   0.458E+00 0.114E-02
CGA:  11    -0.320051847166E+03   -0.15930E-01   -0.15978E-01 29792   0.184E+00 0.333E-03
CGA:  12    -0.320058643316E+03   -0.67962E-02   -0.68007E-02 29792   0.956E-01 0.984E-04
CGA:  13    -0.320065089558E+03   -0.64462E-02   -0.64386E-02 29792   0.161E+00 0.317E-03
CGA:  14    -0.320071349810E+03   -0.62603E-02   -0.62663E-02 29792   0.363E-01 0.125E-03
CGA:  15    -0.320072486150E+03   -0.11363E-02   -0.11382E-02 29792   0.237E-01 0.942E-07
CGA:  16    -0.320073628004E+03   -0.11419E-02   -0.11418E-02 29792   0.217E-01 0.789E-04
CGA:  17    -0.320075074059E+03   -0.14461E-02   -0.14447E-02 29792   0.187E-01 0.620E-04
CGA:  18    -0.320075952581E+03   -0.87852E-03   -0.87850E-03 29792   0.539E-02 0.484E-05
CGA:  19    -0.320076219604E+03   -0.26702E-03   -0.26700E-03 29792   0.623E-02 0.199E-04
CGA:  20    -0.320076600480E+03   -0.38088E-03   -0.38061E-03 29792   0.729E-02 0.202E-04
CGA:  21    -0.320076947455E+03   -0.34698E-03   -0.34706E-03 29792   0.417E-02 0.290E-04
CGA:  22    -0.320077114751E+03   -0.16730E-03   -0.16742E-03 29792   0.198E-02 0.105E-04
CGA:  23    -0.320077191255E+03   -0.76504E-04   -0.76587E-04 29792   0.195E-02 0.581E-05
CGA:  24    -0.320077336065E+03   -0.14481E-03   -0.14430E-03 29792   0.243E-02 0.190E-04
CGA:  25    -0.320077446198E+03   -0.11013E-03   -0.11020E-03 29792   0.711E-03 0.128E-04
CGA:  26    -0.320077481217E+03   -0.35019E-04   -0.35019E-04 29792   0.565E-03 0.359E-06
CGA:  27    -0.320077520296E+03   -0.39079E-04   -0.39068E-04 29792   0.800E-03 0.602E-07
CGA:  28    -0.320077561468E+03   -0.41171E-04   -0.41171E-04 29792   0.699E-03-0.584E-06
CGA:  29    -0.320077586052E+03   -0.24584E-04   -0.24603E-04 29792   0.310E-03 0.511E-06
CGA:  30    -0.320077600037E+03   -0.13986E-04   -0.13990E-04 29792   0.282E-03 0.567E-06
CGA:  31    -0.320077630968E+03   -0.30931E-04   -0.30745E-04 29792   0.584E-03 0.286E-05
SDA:  32    -0.320077653558E+03   -0.22590E-04   -0.22619E-04 29792   0.393E-03 0.181E-05
CGA:  33    -0.320077664226E+03   -0.10669E-04   -0.10645E-04 29792   0.167E-03-0.118E-05
CGA:  34    -0.320077674359E+03   -0.10133E-04   -0.10153E-04 29792   0.227E-03-0.221E-05
CGA:  35    -0.320077699667E+03   -0.25308E-04   -0.25769E-04 29792   0.408E-03-0.736E-05
CGA:  36    -0.320077714388E+03   -0.14721E-04   -0.14664E-04 29792   0.146E-03-0.337E-05
CGA:  37    -0.320077721349E+03   -0.69608E-05   -0.69633E-05 29792   0.179E-03 0.294E-06
CGA:  38    -0.320077734020E+03   -0.12671E-04   -0.12630E-04 29792   0.292E-03 0.225E-05
CGA:  39    -0.320077748599E+03   -0.14579E-04   -0.14590E-04 29792   0.208E-03 0.240E-05
CGA:  40    -0.320077764696E+03   -0.16097E-04   -0.16162E-04 29792   0.275E-03-0.293E-05
CGA:  41    -0.320077787986E+03   -0.23290E-04   -0.23641E-04 29792   0.446E-03-0.107E-04
CGA:  42    -0.320077819082E+03   -0.31096E-04   -0.31322E-04 29792   0.431E-03-0.140E-04
CGA:  43    -0.320077833336E+03   -0.14254E-04   -0.14130E-04 29792   0.202E-03-0.517E-05
CGA:  44    -0.320077844919E+03   -0.11583E-04   -0.11587E-04 29792   0.327E-03-0.207E-05
CGA:  45    -0.320077875691E+03   -0.30773E-04   -0.30629E-04 29792   0.535E-03 0.339E-05
CGA:  46    -0.320077897034E+03   -0.21343E-04   -0.21339E-04 29792   0.322E-03 0.182E-05
CGA:  47    -0.320077909151E+03   -0.12117E-04   -0.12135E-04 29792   0.136E-03 0.128E-05
CGA:  48    -0.320077919984E+03   -0.10833E-04   -0.10818E-04 29792   0.254E-03 0.450E-06
CGA:  49    -0.320077943849E+03   -0.23865E-04   -0.23897E-04 29792   0.168E-03-0.946E-06
CGA:  50    -0.320077948973E+03   -0.51247E-05   -0.51222E-05 29792   0.950E-04-0.529E-07
  16 F= -.32007795E+03 E0= -.32005008E+03  d E =0.234077E-01  mag=    45.8336
       N       E                     dE             d eps       ncg     rms          ort
SDA:   1    -0.318992287071E+03    0.10857E+01    0.00000E+00 29792   0.537E+01 0.000E+00
CGA:   2    -0.319191872686E+03   -0.19959E+00   -0.20496E+00 29792   0.678E+01-0.124E-01
CGA:   3    -0.319626879519E+03   -0.43501E+00   -0.43577E+00 29792   0.469E+01-0.673E-01
CGA:   4    -0.319831652356E+03   -0.20477E+00   -0.20374E+00 29792   0.202E+01-0.988E-02
CGA:   5    -0.319922238409E+03   -0.90586E-01   -0.90135E-01 29792   0.191E+01-0.844E-02
CGA:   6    -0.320018217805E+03   -0.95979E-01   -0.96125E-01 29792   0.144E+01 0.914E-02
CGA:   7    -0.320068801288E+03   -0.50583E-01   -0.50340E-01 29792   0.441E+00 0.150E-02
CGA:   8    -0.320083509169E+03   -0.14708E-01   -0.14733E-01 29792   0.221E+00-0.127E-03
CGA:   9    -0.320100597166E+03   -0.17088E-01   -0.17107E-01 29792   0.292E+00-0.680E-03
CGA:  10    -0.320108806864E+03   -0.82097E-02   -0.82419E-02 29792   0.642E-01-0.562E-03
CGA:  11    -0.320111454409E+03   -0.26475E-02   -0.26469E-02 29792   0.421E-01-0.111E-04
CGA:  12    -0.320113192040E+03   -0.17376E-02   -0.17385E-02 29792   0.269E-01 0.244E-04
CGA:  13    -0.320114969898E+03   -0.17779E-02   -0.17782E-02 29792   0.292E-01-0.130E-04
CGA:  14    -0.320115749301E+03   -0.77940E-03   -0.78162E-03 29792   0.596E-02-0.335E-04
CGA:  15    -0.320116076101E+03   -0.32680E-03   -0.32679E-03 29792   0.581E-02 0.312E-05
CGA:  16    -0.320116435000E+03   -0.35890E-03   -0.35874E-03 29792   0.742E-02 0.139E-04
CGA:  17    -0.320116699182E+03   -0.26418E-03   -0.26416E-03 29792   0.331E-02 0.344E-05
CGA:  18    -0.320116839750E+03   -0.14057E-03   -0.14060E-03 29792   0.113E-02 0.237E-05
CGA:  19    -0.320116906658E+03   -0.66908E-04   -0.66901E-04 29792   0.178E-02 0.758E-06
CGA:  20    -0.320117002685E+03   -0.96027E-04   -0.96013E-04 29792   0.165E-02 0.505E-05
CGA:  21    -0.320117066458E+03   -0.63773E-04   -0.63804E-04 29792   0.620E-03 0.230E-05
CGA:  22    -0.320117093056E+03   -0.26598E-04   -0.26610E-04 29792   0.392E-03 0.113E-05
CGA:  23    -0.320117115918E+03   -0.22863E-04   -0.22857E-04 29792   0.553E-03 0.697E-06
CGA:  24    -0.320117147377E+03   -0.31459E-04   -0.31445E-04 29792   0.527E-03 0.221E-05
CGA:  25    -0.320117165971E+03   -0.18594E-04   -0.18607E-04 29792   0.153E-03 0.754E-06
CGA:  26    -0.320117171921E+03   -0.59500E-05   -0.59529E-05 29792   0.123E-03 0.130E-06
CGA:  27    -0.320117184373E+03   -0.12452E-04   -0.12500E-04 29792   0.215E-03-0.103E-05
CGA:  28    -0.320117190919E+03   -0.65455E-05   -0.65464E-05 29792   0.897E-04-0.566E-07
  17 F= -.32011719E+03 E0= -.32008926E+03  d E =-.392419E-01  mag=    45.8354
       N       E                     dE             d eps       ncg     rms          ort
SDA:   1    -0.320102653832E+03    0.14531E-01    0.00000E+00 29792   0.124E+00 0.000E+00
CGA:   2    -0.320105558688E+03   -0.29049E-02   -0.28892E-02 29792   0.568E-01 0.391E-03
CGA:   3    -0.320109180663E+03   -0.36220E-02   -0.36193E-02 29792   0.856E-01 0.141E-03
CGA:   4    -0.320114044188E+03   -0.48635E-02   -0.48642E-02 29792   0.387E-01-0.720E-04
CGA:   5    -0.320115507428E+03   -0.14632E-02   -0.14627E-02 29792   0.174E-01-0.542E-05
CGA:   6    -0.320116399624E+03   -0.89220E-03   -0.89221E-03 29792   0.160E-01-0.509E-05
CGA:   7    -0.320117214804E+03   -0.81518E-03   -0.81517E-03 29792   0.888E-02 0.152E-04
CGA:   8    -0.320117499736E+03   -0.28493E-03   -0.28490E-03 29792   0.239E-02 0.215E-05
CGA:   9    -0.320117615334E+03   -0.11560E-03   -0.11560E-03 29792   0.237E-02 0.156E-05
CGA:  10    -0.320117739755E+03   -0.12442E-03   -0.12442E-03 29792   0.156E-02-0.571E-06
CGA:  11    -0.320117785703E+03   -0.45948E-04   -0.45972E-04 29792   0.674E-03 0.669E-06
CGA:  12    -0.320117812206E+03   -0.26503E-04   -0.26507E-04 29792   0.260E-03 0.433E-06
CGA:  13    -0.320117825223E+03   -0.13017E-04   -0.13017E-04 29792   0.234E-03 0.734E-07
CGA:  14    -0.320117844385E+03   -0.19162E-04   -0.19173E-04 29792   0.147E-03-0.335E-06
CGA:  15    -0.320117849927E+03   -0.55419E-05   -0.55422E-05 29792   0.752E-04 0.193E-07
  18 F= -.32011785E+03 E0= -.32008990E+03  d E =-.659008E-03  mag=    45.8366
       N       E                     dE             d eps       ncg     rms          ort
SDA:   1    -0.319841637979E+03    0.27621E+00    0.00000E+00 29792   0.805E+00 0.000E+00
CGA:   2    -0.319921100104E+03   -0.79462E-01   -0.79212E-01 29792   0.212E+01 0.514E-02
CGA:   3    -0.320032228861E+03   -0.11113E+00   -0.11114E+00 29792   0.124E+01-0.410E-02
CGA:   4    -0.320070779037E+03   -0.38550E-01   -0.38313E-01 29792   0.439E+00 0.171E-02
CGA:   5    -0.320087181971E+03   -0.16403E-01   -0.16417E-01 29792   0.279E+00 0.183E-03
CGA:   6    -0.320102412591E+03   -0.15231E-01   -0.15232E-01 29792   0.240E+00-0.166E-03
CGA:   7    -0.320110106368E+03   -0.76938E-02   -0.77072E-02 29792   0.900E-01-0.103E-04
CGA:   8    -0.320113726465E+03   -0.36201E-02   -0.36173E-02 29792   0.332E-01-0.823E-04
CGA:   9    -0.320115642017E+03   -0.19156E-02   -0.19152E-02 29792   0.306E-01 0.326E-04
CGA:  10    -0.320116994183E+03   -0.13522E-02   -0.13521E-02 29792   0.170E-01 0.441E-05
CGA:  11    -0.320117651937E+03   -0.65775E-03   -0.65810E-03 29792   0.803E-02 0.160E-04
CGA:  12    -0.320117876006E+03   -0.22407E-03   -0.22390E-03 29792   0.344E-02 0.382E-05
CGA:  13    -0.320118107188E+03   -0.23118E-03   -0.23116E-03 29792   0.370E-02 0.101E-05
CGA:  14    -0.320118358957E+03   -0.25177E-03   -0.25186E-03 29792   0.126E-02-0.467E-05
CGA:  15    -0.320118395453E+03   -0.36496E-04   -0.36506E-04 29792   0.720E-03 0.328E-08
CGA:  16    -0.320118439932E+03   -0.44479E-04   -0.44469E-04 29792   0.905E-03 0.727E-06
CGA:  17    -0.320118482189E+03   -0.42257E-04   -0.42260E-04 29792   0.702E-03 0.158E-05
CGA:  18    -0.320118513706E+03   -0.31518E-04   -0.31517E-04 29792   0.321E-03-0.258E-06
CGA:  19    -0.320118525777E+03   -0.12071E-04   -0.12076E-04 29792   0.188E-03 0.450E-06
CGA:  20    -0.320118538614E+03   -0.12837E-04   -0.12824E-04 29792   0.321E-03 0.587E-06
CGA:  21    -0.320118555664E+03   -0.17050E-04   -0.17043E-04 29792   0.179E-03 0.174E-05
CGA:  22    -0.320118562603E+03   -0.69394E-05   -0.69412E-05 29792   0.121E-03 0.185E-06
  19 F= -.32011856E+03 E0= -.32009058E+03  d E =-.712676E-03  mag=    45.8409
       N       E                     dE             d eps       ncg     rms          ort
SDA:   1    -0.320078024110E+03    0.40532E-01    0.00000E+00 29792   0.343E+00 0.000E+00
CGA:   2    -0.320084881539E+03   -0.68574E-02   -0.69202E-02 29792   0.132E+00-0.201E-02
CGA:   3    -0.320098725538E+03   -0.13844E-01   -0.13870E-01 29792   0.303E+00-0.456E-03
CGA:   4    -0.320110229218E+03   -0.11504E-01   -0.11510E-01 29792   0.113E+00 0.118E-03
CGA:   5    -0.320114472311E+03   -0.42431E-02   -0.42427E-02 29792   0.476E-01-0.658E-05
CGA:   6    -0.320116416362E+03   -0.19441E-02   -0.19441E-02 29792   0.308E-01 0.130E-05
CGA:   7    -0.320118300463E+03   -0.18841E-02   -0.18845E-02 29792   0.234E-01-0.254E-04
CGA:   8    -0.320119085351E+03   -0.78489E-03   -0.78547E-03 29792   0.549E-02 0.671E-05
CGA:   9    -0.320119356514E+03   -0.27116E-03   -0.27115E-03 29792   0.428E-02 0.701E-05
CGA:  10    -0.320119547233E+03   -0.19072E-03   -0.19076E-03 29792   0.389E-02 0.100E-04
CGA:  11    -0.320119691133E+03   -0.14390E-03   -0.14393E-03 29792   0.185E-02 0.504E-05
CGA:  12    -0.320119757654E+03   -0.66521E-04   -0.66545E-04 29792   0.508E-03 0.224E-05
CGA:  13    -0.320119784876E+03   -0.27222E-04   -0.27220E-04 29792   0.486E-03 0.188E-06
CGA:  14    -0.320119816895E+03   -0.32019E-04   -0.32038E-04 29792   0.540E-03-0.105E-05
CGA:  15    -0.320119835697E+03   -0.18802E-04   -0.18796E-04 29792   0.185E-03-0.406E-06
CGA:  16    -0.320119842862E+03   -0.71655E-05   -0.71652E-05 29792   0.942E-04-0.534E-07
  20 F= -.32011984E+03 E0= -.32009183E+03  d E =-.128026E-02  mag=    45.8428
       N       E                     dE             d eps       ncg     rms          ort
SDA:   1    -0.319594765424E+03    0.52507E+00    0.00000E+00 29792   0.203E+01 0.000E+00
CGA:   2    -0.319660115780E+03   -0.65350E-01   -0.64677E-01 29792   0.250E+01-0.120E-02
CGA:   3    -0.319977251708E+03   -0.31714E+00   -0.31639E+00 29792   0.281E+01 0.101E-01
CGA:   4    -0.320051816661E+03   -0.74565E-01   -0.74527E-01 29792   0.573E+00 0.123E-02
CGA:   5    -0.320074695086E+03   -0.22878E-01   -0.22864E-01 29792   0.382E+00-0.357E-03
CGA:   6    -0.320097537319E+03   -0.22842E-01   -0.22825E-01 29792   0.431E+00 0.104E-02
CGA:   7    -0.320111576617E+03   -0.14039E-01   -0.14019E-01 29792   0.128E+00 0.527E-05
CGA:   8    -0.320115583067E+03   -0.40065E-02   -0.40113E-02 29792   0.625E-01 0.880E-05
CGA:   9    -0.320118263796E+03   -0.26807E-02   -0.26809E-02 29792   0.458E-01 0.401E-04
CGA:  10    -0.320120567849E+03   -0.23041E-02   -0.23039E-02 29792   0.296E-01 0.568E-04
CGA:  11    -0.320121796195E+03   -0.12283E-02   -0.12288E-02 29792   0.806E-02 0.462E-04
CGA:  12    -0.320122194623E+03   -0.39843E-03   -0.39845E-03 29792   0.705E-02-0.615E-05
CGA:  13    -0.320122515074E+03   -0.32045E-03   -0.32045E-03 29792   0.765E-02-0.520E-05
CGA:  14    -0.320122834599E+03   -0.31953E-03   -0.31945E-03 29792   0.406E-02-0.137E-04
CGA:  15    -0.320122980388E+03   -0.14579E-03   -0.14576E-03 29792   0.101E-02-0.390E-05
CGA:  16    -0.320123029556E+03   -0.49168E-04   -0.49163E-04 29792   0.105E-02 0.154E-05
CGA:  17    -0.320123105862E+03   -0.76306E-04   -0.76193E-04 29792   0.135E-02 0.416E-05
CGA:  18    -0.320123159883E+03   -0.54021E-04   -0.54066E-04 29792   0.541E-03 0.483E-05
CGA:  19    -0.320123183507E+03   -0.23624E-04   -0.23628E-04 29792   0.352E-03 0.728E-06
CGA:  20    -0.320123197989E+03   -0.14482E-04   -0.14483E-04 29792   0.326E-03 0.194E-07
CGA:  21    -0.320123219860E+03   -0.21871E-04   -0.21882E-04 29792   0.543E-03-0.794E-06
CGA:  22    -0.320123240893E+03   -0.21034E-04   -0.21038E-04 29792   0.124E-03 0.219E-06
CGA:  23    -0.320123246883E+03   -0.59898E-05   -0.59885E-05 29792   0.105E-03 0.135E-05
  21 F= -.32012325E+03 E0= -.32009520E+03  d E =-.340402E-02  mag=    45.8484
       N       E                     dE             d eps       ncg     rms          ort
SDA:   1    -0.318133143067E+03    0.19901E+01    0.00000E+00 29792   0.549E+01 0.000E+00
CGA:   2    -0.318693914326E+03   -0.56077E+00   -0.56416E+00 29792   0.167E+02-0.654E-01
CGA:   3    -0.319606915195E+03   -0.91300E+00   -0.91263E+00 29792   0.664E+01 0.655E-01
CGA:   4    -0.319834598362E+03   -0.22768E+00   -0.22503E+00 29792   0.285E+01 0.808E-02
CGA:   5    -0.319939722784E+03   -0.10512E+00   -0.10529E+00 29792   0.144E+01 0.134E-02
CGA:   6    -0.320039150393E+03   -0.99428E-01   -0.99395E-01 29792   0.122E+01 0.131E-02
CGA:   7    -0.320080257084E+03   -0.41107E-01   -0.41245E-01 29792   0.409E+00-0.136E-03
CGA:   8    -0.320096717570E+03   -0.16460E-01   -0.16426E-01 29792   0.244E+00-0.705E-03
CGA:   9    -0.320105736242E+03   -0.90187E-02   -0.90363E-02 29792   0.187E+00 0.271E-03
CGA:  10    -0.320113933072E+03   -0.81968E-02   -0.81955E-02 29792   0.991E-01-0.957E-05
CGA:  11    -0.320119031465E+03   -0.50984E-02   -0.50968E-02 29792   0.332E-01 0.429E-03
CGA:  12    -0.320120147936E+03   -0.11165E-02   -0.11159E-02 29792   0.218E-01-0.248E-05
CGA:  13    -0.320121749290E+03   -0.16014E-02   -0.16013E-02 29792   0.300E-01-0.430E-05
CGA:  14    -0.320122916772E+03   -0.11675E-02   -0.11676E-02 29792   0.787E-02-0.175E-04
CGA:  15    -0.320123206543E+03   -0.28977E-03   -0.28985E-03 29792   0.389E-02 0.154E-05
CGA:  16    -0.320123426685E+03   -0.22014E-03   -0.22011E-03 29792   0.612E-02 0.481E-05
CGA:  17    -0.320123702846E+03   -0.27616E-03   -0.27624E-03 29792   0.412E-02 0.152E-04
CGA:  18    -0.320123888182E+03   -0.18534E-03   -0.18537E-03 29792   0.188E-02 0.771E-05
CGA:  19    -0.320123964566E+03   -0.76383E-04   -0.76418E-04 29792   0.111E-02 0.337E-05
CGA:  20    -0.320124055006E+03   -0.90441E-04   -0.90332E-04 29792   0.134E-02 0.301E-05
CGA:  21    -0.320124127256E+03   -0.72250E-04   -0.72234E-04 29792   0.150E-02 0.357E-05
CGA:  22    -0.320124179939E+03   -0.52682E-04   -0.52711E-04 29792   0.619E-03 0.193E-05
CGA:  23    -0.320124202493E+03   -0.22555E-04   -0.22592E-04 29792   0.338E-03 0.263E-05
CGA:  24    -0.320124229818E+03   -0.27325E-04   -0.27126E-04 29792   0.677E-03 0.621E-05
CGA:  25    -0.320124256576E+03   -0.26757E-04   -0.26825E-04 29792   0.273E-03 0.577E-05
CGA:  26    -0.320124268765E+03   -0.12189E-04   -0.12196E-04 29792   0.124E-03 0.114E-05
CGA:  27    -0.320124279555E+03   -0.10790E-04   -0.10870E-04 29792   0.210E-03-0.225E-05
CGA:  28    -0.320124288143E+03   -0.85880E-05   -0.85627E-05 29792   0.179E-03-0.266E-05
  22 F= -.32012429E+03 E0= -.32009616E+03  d E =-.104126E-02  mag=    45.8663
       N       E                     dE             d eps       ncg     rms          ort
SDA:   1    -0.297826535507E+03    0.22298E+02    0.00000E+00 29792   0.403E+03 0.000E+00
CGA:   2    -0.306670133915E+03   -0.88436E+01   -0.12027E+02 29792   0.812E+02-0.172E+02
CGA:   3    -0.309026881729E+03   -0.23567E+01   -0.21966E+01 29792   0.637E+02-0.383E+00
CGA:   4    -0.314707726734E+03   -0.56808E+01   -0.57934E+01 29792   0.724E+02-0.281E+01
CGA:   5    -0.316874186186E+03   -0.21665E+01   -0.21557E+01 29792   0.221E+02-0.221E+00
CGA:   6    -0.317911740863E+03   -0.10376E+01   -0.10384E+01 29792   0.162E+02 0.173E+00
CGA:   7    -0.318657846083E+03   -0.74611E+00   -0.74499E+00 29792   0.181E+02-0.122E+00
CGA:   8    -0.319266677642E+03   -0.60883E+00   -0.60926E+00 29792   0.826E+01-0.974E-02
CGA:   9    -0.319466874561E+03   -0.20020E+00   -0.19635E+00 29792   0.224E+01 0.795E-01
CGA:  10    -0.319563393370E+03   -0.96519E-01   -0.96629E-01 29792   0.236E+01 0.100E-01
CGA:  11    -0.319723057492E+03   -0.15966E+00   -0.15923E+00 29792   0.997E+00 0.169E-01
CGA:  12    -0.319754237747E+03   -0.31180E-01   -0.31315E-01 29792   0.493E+00-0.963E-04
CGA:  13    -0.319768690208E+03   -0.14452E-01   -0.14473E-01 29792   0.322E+00-0.506E-04
CGA:  14    -0.319785051287E+03   -0.16361E-01   -0.16352E-01 29792   0.293E+00 0.119E-02
CGA:  15    -0.319799911526E+03   -0.14860E-01   -0.14840E-01 29792   0.220E+00 0.304E-02
CGA:  16    -0.319806499692E+03   -0.65882E-02   -0.65979E-02 29792   0.561E-01 0.908E-04
CGA:  17    -0.319809866148E+03   -0.33665E-02   -0.33596E-02 29792   0.801E-01 0.362E-03
CGA:  18    -0.319813593972E+03   -0.37278E-02   -0.37279E-02 29792   0.668E-01 0.263E-03
CGA:  19    -0.319816031639E+03   -0.24377E-02   -0.24431E-02 29792   0.502E-01 0.136E-03
CGA:  20    -0.319817786981E+03   -0.17553E-02   -0.17580E-02 29792   0.140E-01 0.651E-04
CGA:  21    -0.319818574519E+03   -0.78754E-03   -0.78700E-03 29792   0.184E-01 0.424E-04
CGA:  22    -0.319819840425E+03   -0.12659E-02   -0.12629E-02 29792   0.183E-01 0.119E-03
CGA:  23    -0.319820442898E+03   -0.60247E-03   -0.60366E-03 29792   0.809E-02 0.263E-04
CGA:  24    -0.319820723102E+03   -0.28020E-03   -0.28055E-03 29792   0.491E-02 0.118E-04
CGA:  25    -0.319820955497E+03   -0.23239E-03   -0.23238E-03 29792   0.575E-02 0.534E-05
CGA:  26    -0.319821278011E+03   -0.32251E-03   -0.32249E-03 29792   0.475E-02-0.104E-05
CGA:  27    -0.319821458376E+03   -0.18037E-03   -0.18040E-03 29792   0.114E-02 0.249E-06
CGA:  28    -0.319821520734E+03   -0.62358E-04   -0.62296E-04 29792   0.159E-02 0.634E-05
CGA:  29    -0.319821600099E+03   -0.79365E-04   -0.79318E-04 29792   0.158E-02 0.130E-04
CGA:  30    -0.319821656279E+03   -0.56180E-04   -0.56303E-04 29792   0.767E-03 0.934E-05
CGA:  31    -0.319821686734E+03   -0.30454E-04   -0.30468E-04 29792   0.448E-03 0.148E-05
SDA:  32    -0.319821711282E+03   -0.24548E-04   -0.24552E-04 29792   0.525E-03-0.102E-05
CGA:  33    -0.319821722650E+03   -0.11368E-04   -0.11345E-04 29792   0.190E-03-0.142E-05
CGA:  34    -0.319821735901E+03   -0.13251E-04   -0.13309E-04 29792   0.358E-03-0.276E-05
CGA:  35    -0.319821757598E+03   -0.21697E-04   -0.21795E-04 29792   0.625E-03-0.661E-05
CGA:  36    -0.319821786671E+03   -0.29073E-04   -0.29076E-04 29792   0.415E-03-0.713E-05
CGA:  37    -0.319821803812E+03   -0.17141E-04   -0.17138E-04 29792   0.213E-03-0.780E-06
CGA:  38    -0.319821822892E+03   -0.19080E-04   -0.18785E-04 29792   0.340E-03 0.673E-05
CGA:  39    -0.319821844856E+03   -0.21964E-04   -0.21841E-04 29792   0.341E-03 0.879E-05
CGA:  40    -0.319821869494E+03   -0.24638E-04   -0.24533E-04 29792   0.265E-03 0.486E-05
CGA:  41    -0.319821886039E+03   -0.16545E-04   -0.16574E-04 29792   0.362E-03-0.282E-05
CGA:  42    -0.319821911518E+03   -0.25479E-04   -0.25701E-04 29792   0.543E-03-0.109E-04
CGA:  43    -0.319821926882E+03   -0.15364E-04   -0.15231E-04 29792   0.163E-03-0.618E-05
CGA:  44    -0.319821932238E+03   -0.53567E-05   -0.53353E-05 29792   0.114E-03-0.147E-05
CGA:  45    -0.319821943730E+03   -0.11492E-04   -0.11463E-04 29792   0.301E-03 0.381E-06
CGA:  46    -0.319821957838E+03   -0.14108E-04   -0.14115E-04 29792   0.171E-03 0.134E-05
CGA:  47    -0.319821965009E+03   -0.71708E-05   -0.71849E-05 29792   0.472E-04 0.109E-05
  23 F= -.31982197E+03 E0= -.31979376E+03  d E =0.302323E+00  mag=    45.8471
       N       E                     dE             d eps       ncg     rms          ort
SDA:   1    -0.316028556121E+03    0.37934E+01    0.00000E+00 29792   0.218E+02 0.000E+00
CGA:   2    -0.317091784501E+03   -0.10632E+01   -0.10728E+01 29792   0.192E+02 0.117E+01
CGA:   3    -0.317934469650E+03   -0.84269E+00   -0.83122E+00 29792   0.211E+02-0.225E+00
CGA:   4    -0.318984492858E+03   -0.10500E+01   -0.10504E+01 29792   0.137E+02 0.116E+00
CGA:   5    -0.319332973350E+03   -0.34848E+00   -0.35282E+00 29792   0.426E+01-0.974E-01
[...]
CGA:  17    -0.320050606964E+03   -0.53099E-04   -0.53100E-04 29792   0.879E-03-0.336E-06
CGA:  18    -0.320050702594E+03   -0.95630E-04   -0.95431E-04 29792   0.148E-02 0.304E-05
CGA:  19    -0.320050741506E+03   -0.38911E-04   -0.38932E-04 29792   0.478E-03 0.552E-06
CGA:  20    -0.320050758687E+03   -0.17181E-04   -0.17185E-04 29792   0.317E-03 0.125E-06
CGA:  21    -0.320050775345E+03   -0.16659E-04   -0.16663E-04 29792   0.511E-03-0.845E-06
CGA:  22    -0.320050803369E+03   -0.28023E-04   -0.28031E-04 29792   0.375E-03-0.101E-05
CGA:  23    -0.320050819119E+03   -0.15750E-04   -0.15752E-04 29792   0.169E-03 0.237E-06
CGA:  24    -0.320050825426E+03   -0.63073E-05   -0.63149E-05 29792   0.115E-03 0.734E-06
CGA:  25    -0.320050840260E+03   -0.14834E-04   -0.14489E-04 29792   0.156E-03 0.430E-05
CGA:  26    -0.320050846422E+03   -0.61619E-05   -0.61805E-05 29792   0.868E-04 0.143E-05
  46 F= -.32005085E+03 E0= -.32002184E+03  d E =0.145192E-01  mag=    45.8327
       N       E                     dE             d eps       ncg     rms          ort
SDA:   1    -0.319753879732E+03    0.29696E+00    0.00000E+00 29792   0.133E+01 0.000E+00
CGA:   2    -0.319795953325E+03   -0.42074E-01   -0.41793E-01 29792   0.153E+01 0.905E-03
CGA:   3    -0.319929376470E+03   -0.13342E+00   -0.13313E+00 29792   0.255E+01 0.713E-02
CGA:   4    -0.320002877111E+03   -0.73501E-01   -0.73382E-01 29792   0.571E+00 0.157E-02
CGA:   5    -0.320024193038E+03   -0.21316E-01   -0.21293E-01 29792   0.424E+00-0.332E-03
CGA:   6    -0.320042797973E+03   -0.18605E-01   -0.18593E-01 29792   0.244E+00-0.967E-03
CGA:   7    -0.320057271813E+03   -0.14474E-01   -0.14458E-01 29792   0.112E+00 0.995E-03
CGA:   8    -0.320061864684E+03   -0.45929E-02   -0.45935E-02 29792   0.502E-01 0.251E-04
CGA:   9    -0.320063379005E+03   -0.15143E-02   -0.15112E-02 29792   0.375E-01 0.957E-05
CGA:  10    -0.320065280370E+03   -0.19014E-02   -0.19014E-02 29792   0.309E-01-0.161E-05
CGA:  11    -0.320066296877E+03   -0.10165E-02   -0.10164E-02 29792   0.117E-01-0.737E-05
CGA:  12    -0.320066775986E+03   -0.47911E-03   -0.47912E-03 29792   0.376E-02-0.203E-06
CGA:  13    -0.320067011995E+03   -0.23601E-03   -0.23599E-03 29792   0.579E-02 0.937E-06
CGA:  14    -0.320067251913E+03   -0.23992E-03   -0.23995E-03 29792   0.318E-02 0.321E-05
CGA:  15    -0.320067387922E+03   -0.13601E-03   -0.13601E-03 29792   0.171E-02-0.122E-06
CGA:  16    -0.320067439423E+03   -0.51501E-04   -0.51533E-04 29792   0.780E-03 0.785E-06
CGA:  17    -0.320067468015E+03   -0.28593E-04   -0.28598E-04 29792   0.810E-03 0.432E-06
CGA:  18    -0.320067537499E+03   -0.69484E-04   -0.69396E-04 29792   0.677E-03 0.212E-05
CGA:  19    -0.320067561893E+03   -0.24394E-04   -0.24419E-04 29792   0.225E-03 0.183E-05
CGA:  20    -0.320067575191E+03   -0.13298E-04   -0.13270E-04 29792   0.275E-03 0.226E-05
CGA:  21    -0.320067588557E+03   -0.13366E-04   -0.13365E-04 29792   0.318E-03 0.242E-05
CGA:  22    -0.320067601963E+03   -0.13406E-04   -0.13422E-04 29792   0.224E-03 0.249E-05
CGA:  23    -0.320067609559E+03   -0.75953E-05   -0.76095E-05 29792   0.896E-04 0.947E-06
  47 F= -.32006761E+03 E0= -.32003860E+03  d E =-.167631E-01  mag=    45.8354
       N       E                     dE             d eps       ncg     rms          ort
SDA:   1    -0.319962627531E+03    0.10497E+00    0.00000E+00 29792   0.737E+00 0.000E+00
CGA:   2    -0.319977956580E+03   -0.15329E-01   -0.15291E-01 29792   0.314E+00 0.891E-03
CGA:   3    -0.320016875530E+03   -0.38919E-01   -0.38979E-01 29792   0.858E+00-0.858E-03
CGA:   4    -0.320040740989E+03   -0.23865E-01   -0.23999E-01 29792   0.284E+00-0.168E-02
CGA:   5    -0.320048696670E+03   -0.79557E-02   -0.79507E-02 29792   0.107E+00 0.467E-04
CGA:   6    -0.320054950354E+03   -0.62537E-02   -0.62558E-02 29792   0.908E-01-0.134E-03
CGA:   7    -0.320059578282E+03   -0.46279E-02   -0.46277E-02 29792   0.420E-01 0.418E-04
CGA:   8    -0.320061230106E+03   -0.16518E-02   -0.16520E-02 29792   0.114E-01 0.701E-05
CGA:   9    -0.320061904584E+03   -0.67448E-03   -0.67422E-03 29792   0.136E-01 0.203E-04
CGA:  10    -0.320062561585E+03   -0.65700E-03   -0.65700E-03 29792   0.989E-02 0.201E-04
CGA:  11    -0.320062769653E+03   -0.20807E-03   -0.20786E-03 29792   0.186E-02 0.118E-04
CGA:  12    -0.320062858960E+03   -0.89307E-04   -0.89305E-04 29792   0.170E-02 0.194E-05
CGA:  13    -0.320062963673E+03   -0.10471E-03   -0.10469E-03 29792   0.173E-02 0.133E-05
CGA:  14    -0.320063038801E+03   -0.75129E-04   -0.75129E-04 29792   0.663E-03 0.447E-07
CGA:  15    -0.320063060741E+03   -0.21939E-04   -0.21941E-04 29792   0.290E-03 0.263E-07
CGA:  16    -0.320063072960E+03   -0.12219E-04   -0.12223E-04 29792   0.312E-03 0.742E-06
CGA:  17    -0.320063095467E+03   -0.22507E-04   -0.22493E-04 29792   0.425E-03 0.528E-06
CGA:  18    -0.320063106866E+03   -0.11399E-04   -0.11402E-04 29792   0.132E-03-0.426E-07
CGA:  19    -0.320063111511E+03   -0.46447E-05   -0.46397E-05 29792   0.803E-04-0.485E-06
  48 F= -.32006311E+03 E0= -.32003417E+03  d E =0.449805E-02  mag=    45.8365
       N       E                     dE             d eps       ncg     rms          ort
SDA:   1    -0.319486831386E+03    0.57628E+00    0.00000E+00 29792   0.165E+01 0.000E+00
CGA:   2    -0.319627126581E+03   -0.14030E+00   -0.13971E+00 29792   0.450E+01 0.149E-01
CGA:   3    -0.319836451616E+03   -0.20933E+00   -0.20899E+00 29792   0.411E+01-0.448E-01
CGA:   4    -0.319951490613E+03   -0.11504E+00   -0.11526E+00 29792   0.903E+00-0.308E-02
CGA:   5    -0.319989599211E+03   -0.38109E-01   -0.38128E-01 29792   0.524E+00 0.128E-02
CGA:   6    -0.320023333232E+03   -0.33734E-01   -0.33694E-01 29792   0.480E+00 0.183E-02
CGA:   7    -0.320039335357E+03   -0.16002E-01   -0.15942E-01 29792   0.155E+00-0.164E-03
CGA:   8    -0.320044498113E+03   -0.51628E-02   -0.51636E-02 29792   0.695E-01 0.253E-04
CGA:   9    -0.320048942318E+03   -0.44442E-02   -0.44417E-02 29792   0.824E-01 0.130E-03
CGA:  10    -0.320051781590E+03   -0.28393E-02   -0.28395E-02 29792   0.295E-01 0.373E-04
CGA:  11    -0.320052668802E+03   -0.88721E-03   -0.88637E-03 29792   0.163E-01 0.133E-04
CGA:  12    -0.320053222214E+03   -0.55341E-03   -0.55365E-03 29792   0.870E-02 0.721E-05
CGA:  13    -0.320053761177E+03   -0.53896E-03   -0.53887E-03 29792   0.844E-02 0.566E-05
CGA:  14    -0.320054210966E+03   -0.44979E-03   -0.44979E-03 29792   0.365E-02 0.197E-06
CGA:  15    -0.320054340378E+03   -0.12941E-03   -0.12944E-03 29792   0.154E-02 0.717E-06
CGA:  16    -0.320054409905E+03   -0.69527E-04   -0.69528E-04 29792   0.181E-02 0.411E-06
CGA:  17    -0.320054493618E+03   -0.83713E-04   -0.83713E-04 29792   0.174E-02-0.512E-06
CGA:  18    -0.320054569095E+03   -0.75476E-04   -0.75482E-04 29792   0.102E-02 0.160E-05
CGA:  19    -0.320054599053E+03   -0.29958E-04   -0.29972E-04 29792   0.347E-03 0.519E-06
CGA:  20    -0.320054618268E+03   -0.19215E-04   -0.19205E-04 29792   0.521E-03 0.933E-06
CGA:  21    -0.320054659029E+03   -0.40761E-04   -0.40712E-04 29792   0.349E-03 0.149E-05
CGA:  22    -0.320054675170E+03   -0.16141E-04   -0.16142E-04 29792   0.229E-03 0.119E-05
CGA:  23    -0.320054681092E+03   -0.59219E-05   -0.59336E-05 29792   0.122E-03 0.476E-06
  49 F= -.32005468E+03 E0= -.32002588E+03  d E =0.843042E-02  mag=    45.8378
       N       E                     dE             d eps       ncg     rms          ort
SDA:   1    -0.319686377547E+03    0.36830E+00    0.00000E+00 29792   0.219E+01 0.000E+00
CGA:   2    -0.319736963329E+03   -0.50586E-01   -0.51919E-01 29792   0.144E+01-0.299E-01
CGA:   3    -0.319865872346E+03   -0.12891E+00   -0.12914E+00 29792   0.336E+01-0.502E-02
CGA:   4    -0.319990634633E+03   -0.12476E+00   -0.12451E+00 29792   0.747E+00-0.372E-02
CGA:   5    -0.320015196553E+03   -0.24562E-01   -0.24514E-01 29792   0.378E+00-0.493E-04
CGA:   6    -0.320034198199E+03   -0.19002E-01   -0.18997E-01 29792   0.342E+00 0.878E-03
CGA:   7    -0.320049554422E+03   -0.15356E-01   -0.15356E-01 29792   0.162E+00-0.241E-04
CGA:   8    -0.320055436844E+03   -0.58824E-02   -0.58800E-02 29792   0.806E-01-0.380E-04
CGA:   9    -0.320057805979E+03   -0.23691E-02   -0.23657E-02 29792   0.361E-01 0.238E-04
CGA:  10    -0.320059348301E+03   -0.15423E-02   -0.15427E-02 29792   0.384E-01 0.556E-04
CGA:  11    -0.320061121892E+03   -0.17736E-02   -0.17736E-02 29792   0.132E-01 0.145E-04
CGA:  12    -0.320061714839E+03   -0.59295E-03   -0.59296E-03 29792   0.547E-02 0.987E-05
CGA:  13    -0.320061944322E+03   -0.22948E-03   -0.22947E-03 29792   0.481E-02-0.242E-05
CGA:  14    -0.320062152824E+03   -0.20850E-03   -0.20851E-03 29792   0.490E-02 0.131E-05
CGA:  15    -0.320062381160E+03   -0.22834E-03   -0.22834E-03 29792   0.301E-02-0.209E-05
CGA:  16    -0.320062461489E+03   -0.80330E-04   -0.80337E-04 29792   0.713E-03-0.193E-06
CGA:  17    -0.320062498043E+03   -0.36554E-04   -0.36548E-04 29792   0.954E-03 0.730E-06
CGA:  18    -0.320062555388E+03   -0.57344E-04   -0.57274E-04 29792   0.830E-03 0.429E-05
CGA:  19    -0.320062602566E+03   -0.47178E-04   -0.47146E-04 29792   0.512E-03 0.278E-05
CGA:  20    -0.320062615008E+03   -0.12442E-04   -0.12469E-04 29792   0.236E-03 0.752E-06
CGA:  21    -0.320062629215E+03   -0.14207E-04   -0.14195E-04 29792   0.298E-03 0.697E-06
CGA:  22    -0.320062647911E+03   -0.18696E-04   -0.18668E-04 29792   0.291E-03 0.156E-05
CGA:  23    -0.320062660672E+03   -0.12761E-04   -0.12766E-04 29792   0.147E-03 0.135E-05
CGA:  24    -0.320062665761E+03   -0.50892E-05   -0.50970E-05 29792   0.975E-04 0.539E-06
  50 F= -.32006267E+03 E0= -.32003399E+03  d E =-.798467E-02  mag=    45.8415
       N       E                     dE             d eps       ncg     rms          ort
SDA:   1    -0.319903426375E+03    0.15923E+00    0.00000E+00 29792   0.124E+01 0.000E+00
CGA:   2    -0.319926084842E+03   -0.22658E-01   -0.21841E-01 29792   0.495E+00 0.311E-01
CGA:   3    -0.320001626427E+03   -0.75542E-01   -0.75453E-01 29792   0.959E+00 0.101E-02
CGA:   4    -0.320032249258E+03   -0.30623E-01   -0.30605E-01 29792   0.335E+00 0.507E-04
CGA:   5    -0.320043157355E+03   -0.10908E-01   -0.10892E-01 29792   0.203E+00 0.374E-04
CGA:   6    -0.320052351277E+03   -0.91939E-02   -0.91950E-02 29792   0.236E+00 0.152E-03
CGA:   7    -0.320060815659E+03   -0.84644E-02   -0.84666E-02 29792   0.730E-01 0.269E-04
CGA:   8    -0.320063066452E+03   -0.22508E-02   -0.22546E-02 29792   0.298E-01-0.200E-05
CGA:   9    -0.320064404707E+03   -0.13383E-02   -0.13382E-02 29792   0.271E-01-0.250E-04
CGA:  10    -0.320065932399E+03   -0.15277E-02   -0.15279E-02 29792   0.174E-01-0.191E-04
CGA:  11    -0.320066360825E+03   -0.42843E-03   -0.42885E-03 29792   0.591E-02-0.972E-05
CGA:  12    -0.320066563749E+03   -0.20292E-03   -0.20291E-03 29792   0.416E-02-0.404E-06
CGA:  13    -0.320066747564E+03   -0.18382E-03   -0.18382E-03 29792   0.221E-02 0.165E-05
CGA:  14    -0.320066963986E+03   -0.21642E-03   -0.21642E-03 29792   0.173E-02-0.782E-07
CGA:  15    -0.320067006502E+03   -0.42515E-04   -0.42520E-04 29792   0.644E-03 0.549E-06
CGA:  16    -0.320067033013E+03   -0.26512E-04   -0.26521E-04 29792   0.639E-03 0.144E-05
CGA:  17    -0.320067065211E+03   -0.32198E-04   -0.32193E-04 29792   0.656E-03 0.118E-05
CGA:  18    -0.320067096024E+03   -0.30813E-04   -0.30813E-04 29792   0.373E-03 0.104E-05
CGA:  19    -0.320067107948E+03   -0.11924E-04   -0.11929E-04 29792   0.152E-03 0.278E-06
CGA:  20    -0.320067116292E+03   -0.83432E-05   -0.83369E-05 29792   0.147E-03 0.679E-06
CGA:  21    -0.320067128317E+03   -0.12025E-04   -0.11981E-04 29792   0.226E-03 0.124E-05
CGA:  22    -0.320067134578E+03   -0.62618E-05   -0.62734E-05 29792   0.997E-04 0.521E-06
  51 F= -.32006713E+03 E0= -.32003848E+03  d E =-.446882E-02  mag=    45.8414
       N       E                     dE             d eps       ncg     rms          ort
SDA:   1    -0.319903430596E+03    0.16370E+00    0.00000E+00 29792   0.480E+00 0.000E+00
CGA:   2    -0.319933594689E+03   -0.30164E-01   -0.30186E-01 29792   0.115E+01-0.942E-03
CGA:   3    -0.320010622237E+03   -0.77028E-01   -0.77093E-01 29792   0.104E+01-0.262E-02
CGA:   4    -0.320034515353E+03   -0.23893E-01   -0.24011E-01 29792   0.213E+00-0.293E-02
CGA:   5    -0.320043022795E+03   -0.85074E-02   -0.85039E-02 29792   0.211E+00-0.161E-03
CGA:   6    -0.320053574666E+03   -0.10552E-01   -0.10551E-01 29792   0.118E+00 0.115E-03
CGA:   7    -0.320057773031E+03   -0.41984E-02   -0.41989E-02 29792   0.380E-01 0.116E-04
CGA:   8    -0.320059276650E+03   -0.15036E-02   -0.15036E-02 29792   0.224E-01 0.934E-05
CGA:   9    -0.320060665040E+03   -0.13884E-02   -0.13876E-02 29792   0.190E-01 0.442E-04
CGA:  10    -0.320061375093E+03   -0.71005E-03   -0.71040E-03 29792   0.107E-01 0.199E-04
CGA:  11    -0.320061628977E+03   -0.25388E-03   -0.25367E-03 29792   0.292E-02 0.831E-05
CGA:  12    -0.320061782430E+03   -0.15345E-03   -0.15344E-03 29792   0.311E-02 0.181E-05
CGA:  13    -0.320061974282E+03   -0.19185E-03   -0.19185E-03 29792   0.219E-02 0.908E-07
CGA:  14    -0.320062060055E+03   -0.85774E-04   -0.85782E-04 29792   0.906E-03 0.139E-06
CGA:  15    -0.320062085135E+03   -0.25080E-04   -0.25071E-04 29792   0.352E-03-0.638E-06
CGA:  16    -0.320062116404E+03   -0.31269E-04   -0.31257E-04 29792   0.841E-03 0.209E-06
CGA:  17    -0.320062145566E+03   -0.29162E-04   -0.29161E-04 29792   0.350E-03-0.105E-06
CGA:  18    -0.320062155180E+03   -0.96136E-05   -0.96170E-05 29792   0.122E-03 0.444E-07
  52 F= -.32006216E+03 E0= -.32003359E+03  d E =0.497940E-02  mag=    45.8421
       N       E                     dE             d eps       ncg     rms          ort
SDA:   1    -0.319245067114E+03    0.81708E+00    0.00000E+00 29792   0.361E+01 0.000E+00
CGA:   2    -0.319363462609E+03   -0.11840E+00   -0.11759E+00 29792   0.378E+01-0.567E-02
CGA:   3    -0.319668073946E+03   -0.30461E+00   -0.30384E+00 29792   0.667E+01 0.203E-01
CGA:   4    -0.319877323023E+03   -0.20925E+00   -0.20924E+00 29792   0.193E+01-0.186E-02
CGA:   5    -0.319937183540E+03   -0.59861E-01   -0.59565E-01 29792   0.997E+00 0.296E-03
CGA:   6    -0.319988177010E+03   -0.50993E-01   -0.51035E-01 29792   0.863E+00-0.462E-02
CGA:   7    -0.320027958799E+03   -0.39782E-01   -0.39781E-01 29792   0.330E+00 0.172E-02
CGA:   8    -0.320042399745E+03   -0.14441E-01   -0.14446E-01 29792   0.112E+00 0.851E-03
CGA:   9    -0.320047265829E+03   -0.48661E-02   -0.48667E-02 29792   0.112E+00 0.119E-03
CGA:  10    -0.320053791541E+03   -0.65257E-02   -0.65275E-02 29792   0.898E-01-0.970E-04
CGA:  11    -0.320055611262E+03   -0.18197E-02   -0.18275E-02 29792   0.160E-01-0.211E-03
CGA:  12    -0.320056497419E+03   -0.88616E-03   -0.88590E-03 29792   0.144E-01 0.190E-04
CGA:  13    -0.320057277513E+03   -0.78009E-03   -0.78010E-03 29792   0.134E-01 0.153E-06
CGA:  14    -0.320057989036E+03   -0.71152E-03   -0.71152E-03 29792   0.586E-02 0.454E-06
CGA:  15    -0.320058155680E+03   -0.16664E-03   -0.16673E-03 29792   0.249E-02 0.945E-06
CGA:  16    -0.320058268016E+03   -0.11234E-03   -0.11234E-03 29792   0.283E-02 0.972E-06
CGA:  17    -0.320058438190E+03   -0.17017E-03   -0.17011E-03 29792   0.302E-02 0.384E-05
CGA:  18    -0.320058535326E+03   -0.97137E-04   -0.97195E-04 29792   0.136E-02 0.977E-06
CGA:  19    -0.320058586451E+03   -0.51125E-04   -0.51148E-04 29792   0.589E-03 0.227E-05
CGA:  20    -0.320058626552E+03   -0.40100E-04   -0.40014E-04 29792   0.709E-03 0.354E-05
CGA:  21    -0.320058681623E+03   -0.55071E-04   -0.54836E-04 29792   0.815E-03 0.737E-05
CGA:  22    -0.320058704376E+03   -0.22754E-04   -0.22804E-04 29792   0.378E-03 0.188E-05
CGA:  23    -0.320058718613E+03   -0.14237E-04   -0.14248E-04 29792   0.196E-03 0.895E-06
CGA:  24    -0.320058730308E+03   -0.11695E-04   -0.11685E-04 29792   0.301E-03 0.583E-06
CGA:  25    -0.320058750271E+03   -0.19964E-04   -0.19926E-04 29792   0.190E-03 0.180E-05
CGA:  26    -0.320058756718E+03   -0.64463E-05   -0.64541E-05 29792   0.724E-04 0.379E-06
  53 F= -.32005876E+03 E0= -.32003022E+03  d E =0.339846E-02  mag=    45.8417
       N       E                     dE             d eps       ncg     rms          ort
SDA:   1    -0.319893966284E+03    0.16478E+00    0.00000E+00 29792   0.108E+01 0.000E+00
CGA:   2    -0.319918089941E+03   -0.24124E-01   -0.24771E-01 29792   0.701E+00-0.151E-01
CGA:   3    -0.319984397956E+03   -0.66308E-01   -0.66430E-01 29792   0.992E+00-0.252E-02
CGA:   4    -0.320019444597E+03   -0.35047E-01   -0.35033E-01 29792   0.347E+00-0.880E-04
CGA:   5    -0.320031607528E+03   -0.12163E-01   -0.12179E-01 29792   0.251E+00 0.173E-03
CGA:   6    -0.320047646642E+03   -0.16039E-01   -0.16037E-01 29792   0.174E+00 0.765E-04
CGA:   7    -0.320053924064E+03   -0.62774E-02   -0.62729E-02 29792   0.879E-01-0.711E-04
CGA:   8    -0.320056736773E+03   -0.28127E-02   -0.28165E-02 29792   0.459E-01 0.996E-05
CGA:   9    -0.320058380843E+03   -0.16441E-02   -0.16435E-02 29792   0.280E-01-0.923E-05
CGA:  10    -0.320060059525E+03   -0.16787E-02   -0.16786E-02 29792   0.168E-01 0.894E-05
CGA:  11    -0.320060720896E+03   -0.66137E-03   -0.66146E-03 29792   0.841E-02 0.706E-05
CGA:  12    -0.320060982837E+03   -0.26194E-03   -0.26210E-03 29792   0.343E-02 0.258E-05
CGA:  13    -0.320061134123E+03   -0.15129E-03   -0.15128E-03 29792   0.374E-02-0.548E-06
CGA:  14    -0.320061322411E+03   -0.18829E-03   -0.18827E-03 29792   0.304E-02 0.243E-05
CGA:  15    -0.320061429814E+03   -0.10740E-03   -0.10742E-03 29792   0.948E-03 0.652E-06
CGA:  16    -0.320061462689E+03   -0.32874E-04   -0.32883E-04 29792   0.638E-03 0.716E-06
CGA:  17    -0.320061512629E+03   -0.49940E-04   -0.49887E-04 29792   0.814E-03 0.154E-05
CGA:  18    -0.320061544157E+03   -0.31528E-04   -0.31545E-04 29792   0.596E-03 0.178E-05
CGA:  19    -0.320061565065E+03   -0.20909E-04   -0.20913E-04 29792   0.252E-03 0.345E-06
CGA:  20    -0.320061574154E+03   -0.90891E-05   -0.90882E-05 29792   0.180E-03-0.149E-06
CGA:  21    -0.320061589957E+03   -0.15802E-04   -0.15795E-04 29792   0.256E-03 0.130E-06
CGA:  22    -0.320061600811E+03   -0.10854E-04   -0.10858E-04 29792   0.145E-03 0.593E-06
CGA:  23    -0.320061605632E+03   -0.48211E-05   -0.48235E-05 29792   0.882E-04 0.150E-06
  54 F= -.32006161E+03 E0= -.32003318E+03  d E =-.284891E-02  mag=    45.8438
       N       E                     dE             d eps       ncg     rms          ort
SDA:   1    -0.320018659569E+03    0.42941E-01    0.00000E+00 29792   0.337E+00 0.000E+00
CGA:   2    -0.320025043394E+03   -0.63838E-02   -0.64232E-02 29792   0.124E+00-0.136E-02
CGA:   3    -0.320035613734E+03   -0.10570E-01   -0.10572E-01 29792   0.282E+00-0.326E-04
CGA:   4    -0.320049930590E+03   -0.14317E-01   -0.14318E-01 29792   0.114E+00-0.139E-03
CGA:   5    -0.320053740752E+03   -0.38102E-02   -0.38090E-02 29792   0.434E-01-0.925E-05
CGA:   6    -0.320055276315E+03   -0.15356E-02   -0.15350E-02 29792   0.249E-01-0.166E-04
CGA:   7    -0.320057065374E+03   -0.17891E-02   -0.17885E-02 29792   0.199E-01 0.165E-04
CGA:   8    -0.320057706097E+03   -0.64072E-03   -0.64083E-03 29792   0.525E-02 0.243E-05
CGA:   9    -0.320057971696E+03   -0.26560E-03   -0.26558E-03 29792   0.342E-02 0.375E-05
CGA:  10    -0.320058121059E+03   -0.14936E-03   -0.14939E-03 29792   0.349E-02 0.734E-05
CGA:  11    -0.320058249386E+03   -0.12833E-03   -0.12838E-03 29792   0.175E-02 0.631E-05
CGA:  12    -0.320058306706E+03   -0.57320E-04   -0.57361E-04 29792   0.607E-03 0.295E-05
CGA:  13    -0.320058331710E+03   -0.25004E-04   -0.25004E-04 29792   0.371E-03 0.222E-07
CGA:  14    -0.320058357736E+03   -0.26026E-04   -0.26038E-04 29792   0.428E-03-0.503E-06
CGA:  15    -0.320058376217E+03   -0.18481E-04   -0.18478E-04 29792   0.274E-03-0.775E-06
CGA:  16    -0.320058385255E+03   -0.90380E-05   -0.90379E-05 29792   0.699E-04-0.657E-07
  55 F= -.32005839E+03 E0= -.32003004E+03  d E =0.322038E-02  mag=    45.8433
