       N       E                     dE             d eps       ncg     rms          rms(c)
DAV:   1     0.870816035088E+04    0.87082E+04   -0.39984E+05 35856   0.176E+03
DAV:   2     0.619929995964E+03   -0.80882E+04   -0.76001E+04 34048   0.538E+02
DAV:   3    -0.300993286732E+03   -0.92092E+03   -0.88372E+03 35112   0.200E+02
DAV:   4    -0.344762904152E+03   -0.43770E+02   -0.43467E+02 37464   0.412E+01
DAV:   5    -0.347086693040E+03   -0.23238E+01   -0.23115E+01 57312   0.739E+00    0.445E+00
DAV:   6    -0.348530038379E+03   -0.14433E+01   -0.25897E+00 43008   0.608E+00    0.115E+01
DAV:   7    -0.348568142780E+03   -0.38104E-01   -0.45940E+00 42608   0.383E+00    0.768E+00
DAV:   8    -0.348473987947E+03    0.94155E-01   -0.64017E-01 40368   0.391E+00    0.608E+00
DAV:   9    -0.348433639793E+03    0.40348E-01   -0.31215E-01 41000   0.242E+00    0.404E+00
DAV:  10    -0.348455046351E+03   -0.21407E-01   -0.32067E-01 41632   0.144E+00    0.434E+00
DAV:  11    -0.348432455940E+03    0.22590E-01   -0.17954E-01 39288   0.127E+00    0.275E+00
DAV:  12    -0.348439045078E+03   -0.65891E-02   -0.13075E-02 39464   0.538E-01    0.199E+00
DAV:  13    -0.348437648540E+03    0.13965E-02   -0.12090E-02 42584   0.384E-01    0.156E+00
DAV:  14    -0.348439736504E+03   -0.20880E-02   -0.19946E-02 38944   0.387E-01    0.143E+00
DAV:  15    -0.348440482653E+03   -0.74615E-03   -0.96906E-03 39024   0.367E-01    0.112E+00
DAV:  16    -0.348440309914E+03    0.17274E-03   -0.44252E-03 40784   0.266E-01    0.749E-01
DAV:  17    -0.348441235697E+03   -0.92578E-03   -0.11215E-03 41896   0.153E-01    0.702E-01
DAV:  18    -0.348441250003E+03   -0.14306E-04   -0.44171E-04 38824   0.116E-01    0.658E-01
DAV:  19    -0.348441294884E+03   -0.44881E-04   -0.24396E-04 39848   0.682E-02    0.530E-01
DAV:  20    -0.348441501435E+03   -0.20655E-03   -0.11227E-04 33544   0.435E-02    0.468E-01
DAV:  21    -0.348441660372E+03   -0.15894E-03   -0.10499E-04 29280   0.460E-02    0.425E-01
DAV:  22    -0.348441783950E+03   -0.12358E-03   -0.93498E-05 30976   0.487E-02    0.365E-01
DAV:  23    -0.348441864049E+03   -0.80099E-04   -0.64068E-05 30088   0.357E-02    0.323E-01
DAV:  24    -0.348441891489E+03   -0.27441E-04   -0.30337E-05 21808   0.235E-02    0.304E-01
DAV:  25    -0.348441933840E+03   -0.42350E-04   -0.14212E-05 19608   0.216E-02    0.279E-01
DAV:  26    -0.348441987906E+03   -0.54067E-04   -0.26528E-05 25136   0.291E-02    0.241E-01
DAV:  27    -0.348442056748E+03   -0.68842E-04   -0.58764E-05 31400   0.412E-02    0.178E-01
DAV:  28    -0.348442104723E+03   -0.47975E-04   -0.72545E-05 33024   0.372E-02    0.122E-01
DAV:  29    -0.348442130769E+03   -0.26046E-04   -0.39014E-05 27160   0.241E-02    0.849E-02
DAV:  30    -0.348442143383E+03   -0.12614E-04   -0.20286E-05 23032   0.246E-02    0.449E-02
DAV:  31    -0.348442148219E+03   -0.48360E-05   -0.27816E-05 24576   0.210E-02
   1 F= -.34844215E+03 E0= -.34842101E+03  d E =-.348442E+03  mag=    24.8315
