       N       E                     dE             d eps       ncg     rms          ort
DAV:   1     0.562108887206E+04    0.56211E+04   -0.26913E+05  7696   0.164E+03
DAV:   2     0.239799197281E+03   -0.53813E+04   -0.49775E+04  7696   0.461E+02
DAV:   3    -0.374929595443E+03   -0.61473E+03   -0.60455E+03  7696   0.173E+02
DAV:   4    -0.391344534971E+03   -0.16415E+02   -0.16302E+02  7696   0.290E+01
DAV:   5    -0.391774349224E+03   -0.42981E+00   -0.42904E+00  7696   0.402E+00
SDA:   6    -0.153933149127E+03    0.23784E+03   -0.42904E+00  7696   0.107E+04 0.000E+00
CGA:   7    -0.247092708522E+03   -0.93160E+02   -0.11109E+03  7696   0.287E+04-0.210E+03
CGA:   8    -0.264936365723E+03   -0.17844E+02   -0.52040E+02  7696   0.115E+04-0.504E+03
CGA:   9    -0.280278419273E+03   -0.15342E+02   -0.29663E+02  7696   0.346E+03-0.227E+03
CGA:  10    -0.275652995862E+03    0.46254E+01   -0.18884E+02  7696   0.245E+04-0.470E+03
CGA:  11    -0.270219998469E+03    0.54330E+01   -0.13562E+03  7696   0.160E+04-0.154E+03
CGA:  12    -0.263834255485E+03    0.63857E+01   -0.41547E+02  7696   0.222E+04-0.760E+03
CGA:  13    -0.305364505553E+03   -0.41530E+02   -0.31464E+02  7696   0.818E+03 0.427E+03
CGA:  14    -0.300836927938E+03    0.45276E+01   -0.52029E+02  7696   0.364E+03-0.105E+03
CGA:  15    -0.308962678325E+03   -0.81258E+01   -0.99157E+01  7696   0.714E+03-0.206E+03
CGA:  16    -0.269177298381E+03    0.39785E+02   -0.32595E+02  7696   0.741E+03-0.283E+03
CGA:  17    -0.282373357095E+03   -0.13196E+02   -0.28436E+01  7696   0.253E+04 0.240E+04
CGA:  18    -0.281106195076E+03    0.12672E+01   -0.79587E+02  7696   0.648E+03-0.219E+03
CGA:  19    -0.308166435732E+03   -0.27060E+02   -0.79550E+01  7696   0.414E+03 0.599E+03
CGA:  20    -0.302173334806E+03    0.59931E+01   -0.11182E+02  7696   0.170E+04-0.131E+04
CGA:  21    -0.294056600979E+03    0.81167E+01   -0.47235E+02  7696   0.899E+03-0.396E+03
CGA:  22    -0.313290395835E+03   -0.19234E+02   -0.15671E+02  7696   0.476E+03 0.203E+02
CGA:  23    -0.295497842352E+03    0.17793E+02   -0.18935E+02  7696   0.529E+03-0.840E+02
CGA:  24    -0.306879122553E+03   -0.11381E+02   -0.57402E+01  7696   0.103E+04 0.756E+03
CGA:  25    -0.292734255562E+03    0.14145E+02   -0.38230E+02  7696   0.348E+03-0.138E+03
CGA:  26    -0.311257967703E+03   -0.18524E+02   -0.49310E+01  7696   0.134E+04-0.162E+04
CGA:  27    -0.287430439916E+03    0.23828E+02   -0.46523E+02  7696   0.426E+03-0.151E+03
CGA:  28    -0.305839558658E+03   -0.18409E+02   -0.72587E+01  7696   0.176E+04-0.206E+04
CGA:  29    -0.284658830697E+03    0.21181E+02   -0.62243E+02  7696   0.358E+03-0.177E+03
CGA:  30    -0.310229156952E+03   -0.25570E+02   -0.49381E+01  7696   0.144E+04 0.235E+04
CGA:  31    -0.292925133863E+03    0.17304E+02   -0.48592E+02  7696   0.320E+03-0.148E+03
CGA:  32    -0.316147655601E+03   -0.23223E+02   -0.43752E+01  7696   0.118E+04 0.191E+04
CGA:  33    -0.288372251398E+03    0.27775E+02   -0.35850E+02  7696   0.492E+03-0.200E+03
CGA:  34    -0.298244310434E+03   -0.98721E+01   -0.73078E+01  7696   0.271E+04-0.159E+04
CGA:  35    -0.290963899599E+03    0.72804E+01   -0.81655E+02  7696   0.171E+04-0.561E+03
CGA:  36    -0.307757412747E+03   -0.16794E+02   -0.39365E+02  7696   0.457E+03-0.689E+03
CGA:  37    -0.323572964914E+03   -0.15816E+02   -0.49745E+01  7696   0.507E+03 0.477E+03
CGA:  38    -0.314944032340E+03    0.86289E+01   -0.12372E+02  7696   0.115E+04-0.391E+03
CGA:  39    -0.306962022907E+03    0.79820E+01   -0.30191E+02  7696   0.443E+03-0.194E+03
CGA:  40    -0.319542885168E+03   -0.12581E+02   -0.59359E+01  7696   0.836E+03-0.331E+03
CGA:  41    -0.306839581287E+03    0.12703E+02   -0.17214E+02  7696   0.107E+04-0.463E+03
CGA:  42    -0.306650472055E+03    0.18911E+00   -0.26264E+02  7696   0.121E+04-0.697E+03
CGA:  43    -0.296763905951E+03    0.98866E+01   -0.27435E+02  7696   0.195E+04-0.625E+03
CGA:  44    -0.298059290263E+03   -0.12954E+01   -0.47987E+02  7696   0.653E+03-0.495E+03
CGA:  45    -0.306478949094E+03   -0.84197E+01   -0.92070E+01  7696   0.763E+03-0.567E+03
CGA:  46    -0.307072129998E+03   -0.59318E+00   -0.15551E+02  7696   0.112E+04-0.550E+03
CGA:  47    -0.307069635102E+03    0.24949E-02   -0.21946E+02  7696   0.200E+04-0.136E+04
CGA:  48    -0.305292916031E+03    0.17767E+01   -0.41423E+02  7696   0.296E+03-0.380E+03
CGA:  49    -0.327161460344E+03   -0.21869E+02   -0.27862E+01  7696   0.210E+03 0.624E+03
CGA:  50    -0.327219004135E+03   -0.57544E-01   -0.23845E+01  7696   0.319E+03-0.213E+03
CGA:  51    -0.324210182746E+03    0.30088E+01   -0.45156E+01  7696   0.605E+03-0.325E+03
CGA:  52    -0.319211126553E+03    0.49991E+01   -0.73484E+01  7696   0.169E+04-0.113E+04
CGA:  53    -0.314989533017E+03    0.42216E+01   -0.28136E+02  7696   0.689E+03-0.435E+03
CGA:  54    -0.328170135717E+03   -0.13181E+02   -0.60220E+01  7696   0.848E+02 0.264E+03
CGA:  55    -0.328225683452E+03   -0.55548E-01   -0.70355E+00  7696   0.114E+03-0.122E+03
CGA:  56    -0.328457254602E+03   -0.23157E+00   -0.89943E+00  7696   0.657E+02-0.774E+02
CGA:  57    -0.328759703304E+03   -0.30245E+00   -0.32527E+00  7696   0.175E+01-0.678E+01
CGA:  58    -0.328778044834E+03   -0.18342E-01   -0.19266E-01  7696   0.182E+01-0.521E-01
CGA:  59    -0.328845571259E+03   -0.67526E-01   -0.67939E-01  7696   0.521E+01-0.415E-01
CGA:  60    -0.328944211412E+03   -0.98640E-01   -0.93449E-01  7696   0.506E+01 0.320E+00
CGA:  61    -0.329042700998E+03   -0.98490E-01   -0.68274E-01  7696   0.267E+01 0.198E+01
CGA:  62    -0.329103632876E+03   -0.60932E-01   -0.68337E-01  7696   0.187E+01-0.193E-01
CGA:  63    -0.329132965071E+03   -0.29332E-01   -0.31373E-01  7696   0.247E+01-0.284E-01
CGA:  64    -0.329192663514E+03   -0.59698E-01   -0.56375E-01  7696   0.205E+01-0.837E-01
CGA:  65    -0.329217287539E+03   -0.24624E-01   -0.18580E-01  7696   0.797E+00 0.544E+00
CGA:  66    -0.329229498338E+03   -0.12211E-01   -0.11853E-01  7696   0.652E+00 0.209E-01
CGA:  67    -0.329238813491E+03   -0.93152E-02   -0.95452E-02  7696   0.978E+00-0.512E-02
CGA:  68    -0.329262859357E+03   -0.24046E-01   -0.24154E-01  7696   0.144E+01 0.361E-01
CGA:  69    -0.329276274008E+03   -0.13415E-01   -0.13077E-01  7696   0.644E+00 0.559E-01
CGA:  70    -0.329289461062E+03   -0.13187E-01   -0.13303E-01  7696   0.614E+00 0.847E-02
CGA:  71    -0.329297925786E+03   -0.84647E-02   -0.79127E-02  7696   0.607E+00 0.242E-01
CGA:  72    -0.329305533536E+03   -0.76078E-02   -0.69526E-02  7696   0.309E+00 0.379E-01
CGA:  73    -0.329308992571E+03   -0.34590E-02   -0.35229E-02  7696   0.348E+00-0.433E-02
CGA:  74    -0.329314740182E+03   -0.57476E-02   -0.58861E-02  7696   0.441E+00 0.310E-02
CGA:  75    -0.329321375381E+03   -0.66352E-02   -0.67556E-02  7696   0.683E+00 0.555E-03
CGA:  76    -0.329332484501E+03   -0.11109E-01   -0.11351E-01  7696   0.312E+00 0.128E-01
CGA:  77    -0.329335971176E+03   -0.34867E-02   -0.35559E-02  7696   0.237E+00-0.385E-02
CGA:  78    -0.329339266533E+03   -0.32954E-02   -0.32595E-02  7696   0.126E+00-0.421E-03
CGA:  79    -0.329342139357E+03   -0.28728E-02   -0.28676E-02  7696   0.222E+00 0.888E-03
CGA:  80    -0.329344753896E+03   -0.26145E-02   -0.27427E-02  7696   0.757E-01-0.399E-02
CGA:  81    -0.329347144897E+03   -0.23910E-02   -0.23467E-02  7696   0.113E+00 0.292E-02
CGA:  82    -0.329349827170E+03   -0.26823E-02   -0.26893E-02  7696   0.199E+00-0.304E-02
CGA:  83    -0.329352818796E+03   -0.29916E-02   -0.29557E-02  7696   0.114E+00-0.118E-02
CGA:  84    -0.329354582054E+03   -0.17633E-02   -0.17888E-02  7696   0.101E+00 0.332E-03
CGA:  85    -0.329355959624E+03   -0.13776E-02   -0.13829E-02  7696   0.732E-01-0.446E-03
CGA:  86    -0.329357291076E+03   -0.13315E-02   -0.13334E-02  7696   0.489E-01 0.784E-04
SDA:  87    -0.329358227199E+03   -0.93612E-03   -0.93710E-03  7696   0.653E-01 0.141E-03
CGA:  88    -0.329358754646E+03   -0.52745E-03   -0.52574E-03  7696   0.185E-01 0.704E-04
CGA:  89    -0.329359341583E+03   -0.58694E-03   -0.58548E-03  7696   0.221E-01 0.818E-04
CGA:  90    -0.329360662526E+03   -0.13209E-02   -0.13098E-02  7696   0.556E-01 0.332E-03
CGA:  91    -0.329361830036E+03   -0.11675E-02   -0.11708E-02  7696   0.289E-01 0.829E-03
CGA:  92    -0.329362849514E+03   -0.10195E-02   -0.10200E-02  7696   0.512E-01-0.734E-04
CGA:  93    -0.329363489833E+03   -0.64032E-03   -0.63226E-03  7696   0.211E-01 0.102E-03
CGA:  94    -0.329364170674E+03   -0.68084E-03   -0.67712E-03  7696   0.180E-01 0.286E-03
CGA:  95    -0.329364482042E+03   -0.31137E-03   -0.31081E-03  7696   0.101E-01-0.530E-04
CGA:  96    -0.329364655565E+03   -0.17352E-03   -0.17339E-03  7696   0.760E-02-0.289E-04
CGA:  97    -0.329364771598E+03   -0.11603E-03   -0.11624E-03  7696   0.477E-02-0.161E-04
CGA:  98    -0.329365226774E+03   -0.45518E-03   -0.46132E-03  7696   0.167E-01-0.846E-04
CGA:  99    -0.329365431275E+03   -0.20450E-03   -0.20464E-03  7696   0.485E-02-0.650E-04
CGA: 100    -0.329365498457E+03   -0.67182E-04   -0.67328E-04  7696   0.331E-02-0.168E-04
CGA: 101    -0.329365597085E+03   -0.98628E-04   -0.98831E-04  7696   0.354E-02-0.297E-04
CGA: 102    -0.329365758738E+03   -0.16165E-03   -0.16116E-03  7696   0.906E-02 0.215E-04
CGA: 103    -0.329365905450E+03   -0.14671E-03   -0.14730E-03  7696   0.644E-02-0.199E-04
CGA: 104    -0.329366066755E+03   -0.16131E-03   -0.16129E-03  7696   0.643E-02-0.578E-04
CGA: 105    -0.329366192477E+03   -0.12572E-03   -0.12581E-03  7696   0.255E-02-0.697E-07
CGA: 106    -0.329366267956E+03   -0.75479E-04   -0.75325E-04  7696   0.492E-02 0.286E-04
CGA: 107    -0.329366361376E+03   -0.93420E-04   -0.93791E-04  7696   0.389E-02 0.328E-04
CGA: 108    -0.329366480616E+03   -0.11924E-03   -0.11887E-03  7696   0.350E-02 0.597E-04
CGA: 109    -0.329366549922E+03   -0.69305E-04   -0.69406E-04  7696   0.262E-02 0.245E-04
CGA: 110    -0.329366706069E+03   -0.15615E-03   -0.15322E-03  7696   0.119E-01 0.897E-04
CGA: 111    -0.329366921027E+03   -0.21496E-03   -0.21742E-03  7696   0.340E-02 0.960E-04
CGA: 112    -0.329367000967E+03   -0.79940E-04   -0.80085E-04  7696   0.314E-02 0.429E-04
CGA: 113    -0.329367092176E+03   -0.91209E-04   -0.91037E-04  7696   0.224E-02 0.570E-04
CGA: 114    -0.329367190453E+03   -0.98277E-04   -0.97216E-04  7696   0.516E-02 0.626E-04
CGA: 115    -0.329367325153E+03   -0.13470E-03   -0.13488E-03  7696   0.718E-02 0.854E-04
CGA: 116    -0.329367536782E+03   -0.21163E-03   -0.21103E-03  7696   0.590E-02 0.207E-03
CGA: 117    -0.329367637605E+03   -0.10082E-03   -0.10148E-03  7696   0.197E-02 0.322E-04
SDA: 118    -0.329367745809E+03   -0.10820E-03   -0.10708E-03  7696   0.418E-02 0.412E-04
CGA: 119    -0.329367793258E+03   -0.47449E-04   -0.47207E-04  7696   0.114E-02 0.470E-05
CGA: 120    -0.329367831711E+03   -0.38453E-04   -0.38585E-04  7696   0.184E-02-0.194E-04
CGA: 121    -0.329367899995E+03   -0.68284E-04   -0.68686E-04  7696   0.492E-02-0.399E-04
CGA: 122    -0.329368023200E+03   -0.12321E-03   -0.12301E-03  7696   0.983E-03-0.922E-04
CGA: 123    -0.329368072468E+03   -0.49267E-04   -0.50747E-04  7696   0.183E-02-0.595E-04
CGA: 124    -0.329368171371E+03   -0.98903E-04   -0.10112E-03  7696   0.455E-02-0.743E-04
CGA: 125    -0.329368226537E+03   -0.55167E-04   -0.54701E-04  7696   0.853E-03-0.711E-04
CGA: 126    -0.329368258032E+03   -0.31495E-04   -0.31650E-04  7696   0.205E-02-0.200E-04
CGA: 127    -0.329368318122E+03   -0.60090E-04   -0.60089E-04  7696   0.134E-02-0.254E-04
CGA: 128    -0.329368407018E+03   -0.88896E-04   -0.90932E-04  7696   0.160E-02-0.530E-04
CGA: 129    -0.329368439811E+03   -0.32793E-04   -0.32747E-04  7696   0.134E-02-0.656E-05
CGA: 130    -0.329368463825E+03   -0.24014E-04   -0.24066E-04  7696   0.104E-02 0.556E-06
CGA: 131    -0.329368589007E+03   -0.12518E-03   -0.12024E-03  7696   0.267E-02 0.600E-04
CGA: 132    -0.329368646207E+03   -0.57199E-04   -0.57495E-04  7696   0.149E-02 0.226E-04
CGA: 133    -0.329368682695E+03   -0.36489E-04   -0.36691E-04  7696   0.134E-02 0.187E-04
CGA: 134    -0.329368755894E+03   -0.73199E-04   -0.72136E-04  7696   0.374E-02 0.536E-04
CGA: 135    -0.329368815495E+03   -0.59601E-04   -0.61031E-04  7696   0.515E-03 0.746E-05
CGA: 136    -0.329368850829E+03   -0.35334E-04   -0.34352E-04  7696   0.114E-02 0.299E-04
CGA: 137    -0.329368897755E+03   -0.46926E-04   -0.46755E-04  7696   0.222E-02 0.459E-04
CGA: 138    -0.329368943638E+03   -0.45883E-04   -0.46518E-04  7696   0.133E-02 0.377E-04
CGA: 139    -0.329368996898E+03   -0.53260E-04   -0.53109E-04  7696   0.268E-03 0.357E-04
CGA: 140    -0.329369005240E+03   -0.83425E-05   -0.83705E-05  7696   0.711E-03 0.573E-05
CGA: 141    -0.329369058307E+03   -0.53066E-04   -0.51737E-04  7696   0.342E-03 0.364E-04
CGA: 142    -0.329369066968E+03   -0.86617E-05   -0.87453E-05  7696   0.291E-03 0.504E-05
   1 F= -.32936907E+03 E0= -.32933961E+03  d E =-.329369E+03  mag=    32.0000
       N       E                     dE             d eps       ncg     rms          ort
SDA:   1    -0.329371867298E+03   -0.28090E-02    0.00000E+00  7696   0.516E+01 0.000E+00
CGA:   2    -0.329416634600E+03   -0.44767E-01   -0.42168E-01  7696   0.344E+00 0.259E+00
CGA:   3    -0.329421875894E+03   -0.52413E-02   -0.56461E-02  7696   0.250E-01-0.146E-01
CGA:   4    -0.329422197408E+03   -0.32151E-03   -0.32266E-03  7696   0.132E-01-0.479E-04
CGA:   5    -0.329422838641E+03   -0.64123E-03   -0.64214E-03  7696   0.385E-01-0.471E-04
CGA:   6    -0.329423764622E+03   -0.92598E-03   -0.92457E-03  7696   0.172E-01-0.223E-04
CGA:   7    -0.329424163102E+03   -0.39848E-03   -0.40084E-03  7696   0.615E-02 0.300E-04
CGA:   8    -0.329424287349E+03   -0.12425E-03   -0.12421E-03  7696   0.838E-02-0.231E-05
CGA:   9    -0.329424632445E+03   -0.34510E-03   -0.34526E-03  7696   0.451E-02-0.145E-04
CGA:  10    -0.329424741195E+03   -0.10875E-03   -0.10882E-03  7696   0.185E-02-0.552E-08
CGA:  11    -0.329424765772E+03   -0.24577E-04   -0.24548E-04  7696   0.113E-02-0.283E-05
CGA:  12    -0.329424867137E+03   -0.10136E-03   -0.10213E-03  7696   0.149E-02-0.126E-04
CGA:  13    -0.329424895981E+03   -0.28845E-04   -0.28783E-04  7696   0.862E-03-0.290E-05
CGA:  14    -0.329424909483E+03   -0.13502E-04   -0.13494E-04  7696   0.262E-03-0.170E-05
CGA:  15    -0.329424915241E+03   -0.57580E-05   -0.57669E-05  7696   0.268E-03 0.608E-06
CGA:  16    -0.329424925862E+03   -0.10621E-04   -0.10620E-04  7696   0.248E-03 0.158E-06
CGA:  17    -0.329424938654E+03   -0.12792E-04   -0.12798E-04  7696   0.480E-03-0.335E-06
CGA:  18    -0.329424944525E+03   -0.58708E-05   -0.58874E-05  7696   0.974E-04 0.100E-06
   2 F= -.32942494E+03 E0= -.32939565E+03  d E =-.558776E-01  mag=    32.0000
       N       E                     dE             d eps       ncg     rms          ort
SDA:   1    -0.329535292082E+03   -0.11035E+00    0.00000E+00  7696   0.276E+01 0.000E+00
CGA:   2    -0.329607968468E+03   -0.72676E-01   -0.72889E-01  7696   0.357E+01 0.978E-02
CGA:   3    -0.329708398657E+03   -0.10043E+00   -0.99535E-01  7696   0.609E+01-0.641E-01
CGA:   4    -0.329994135696E+03   -0.28574E+00   -0.28336E+00  7696   0.938E+00 0.129E+00
CGA:   5    -0.330015935667E+03   -0.21800E-01   -0.21370E-01  7696   0.845E+00-0.429E-03
CGA:   6    -0.330033175406E+03   -0.17240E-01   -0.16840E-01  7696   0.968E+00 0.412E-02
CGA:   7    -0.330091426792E+03   -0.58251E-01   -0.57535E-01  7696   0.105E+01 0.249E-01
CGA:   8    -0.330101337720E+03   -0.99109E-02   -0.10103E-01  7696   0.185E+00-0.170E-01
CGA:   9    -0.330108144733E+03   -0.68070E-02   -0.69547E-02  7696   0.938E-01-0.162E-01
CGA:  10    -0.330110359232E+03   -0.22145E-02   -0.22120E-02  7696   0.138E+00-0.113E-03
CGA:  11    -0.330113768211E+03   -0.34090E-02   -0.34290E-02  7696   0.108E+00 0.612E-03
CGA:  12    -0.330118508584E+03   -0.47404E-02   -0.47033E-02  7696   0.169E-01 0.241E-02
CGA:  13    -0.330119145918E+03   -0.63733E-03   -0.63832E-03  7696   0.341E-01-0.132E-03
CGA:  14    -0.330120218365E+03   -0.10724E-02   -0.10722E-02  7696   0.201E-01-0.170E-03
CGA:  15    -0.330120646972E+03   -0.42861E-03   -0.43032E-03  7696   0.201E-01 0.207E-04
CGA:  16    -0.330121182285E+03   -0.53531E-03   -0.53653E-03  7696   0.970E-02 0.923E-04
CGA:  17    -0.330121527533E+03   -0.34525E-03   -0.34540E-03  7696   0.682E-02-0.174E-04
CGA:  18    -0.330121993639E+03   -0.46611E-03   -0.46485E-03  7696   0.163E-01 0.320E-04
CGA:  19    -0.330122246798E+03   -0.25316E-03   -0.25198E-03  7696   0.261E-02 0.742E-04
CGA:  20    -0.330122317537E+03   -0.70739E-04   -0.70748E-04  7696   0.456E-02 0.281E-05
CGA:  21    -0.330122509145E+03   -0.19161E-03   -0.19094E-03  7696   0.426E-02 0.563E-04
CGA:  22    -0.330122700674E+03   -0.19153E-03   -0.19124E-03  7696   0.390E-02 0.222E-04
CGA:  23    -0.330122833616E+03   -0.13294E-03   -0.13296E-03  7696   0.306E-02-0.151E-04
CGA:  24    -0.330122880262E+03   -0.46646E-04   -0.46663E-04  7696   0.957E-03 0.314E-05
CGA:  25    -0.330122928004E+03   -0.47742E-04   -0.47580E-04  7696   0.320E-02 0.903E-05
CGA:  26    -0.330123013010E+03   -0.85006E-04   -0.85142E-04  7696   0.716E-03 0.123E-04
CGA:  27    -0.330123056360E+03   -0.43350E-04   -0.43471E-04  7696   0.117E-02-0.426E-05
CGA:  28    -0.330123080919E+03   -0.24559E-04   -0.24587E-04  7696   0.856E-03 0.169E-05
CGA:  29    -0.330123106773E+03   -0.25854E-04   -0.25878E-04  7696   0.836E-03 0.528E-05
CGA:  30    -0.330123127483E+03   -0.20711E-04   -0.20741E-04  7696   0.647E-03 0.261E-05
CGA:  31    -0.330123140166E+03   -0.12683E-04   -0.12727E-04  7696   0.162E-03 0.262E-05
SDA:  32    -0.330123159130E+03   -0.18964E-04   -0.18479E-04  7696   0.551E-03 0.579E-05
CGA:  33    -0.330123164746E+03   -0.56162E-05   -0.56101E-05  7696   0.902E-04 0.839E-06
   3 F= -.33012316E+03 E0= -.33009398E+03  d E =-.698220E+00  mag=    32.0000
       N       E                     dE             d eps       ncg     rms          ort
SDA:   1    -0.316738066100E+03    0.13385E+02    0.00000E+00  7696   0.359E+03 0.000E+00
CGA:   2    -0.320288587927E+03   -0.35505E+01   -0.72333E+01  7696   0.767E+02-0.858E+01
CGA:   3    -0.321989953721E+03   -0.17014E+01   -0.14314E+01  7696   0.578E+02 0.402E+01
CGA:   4    -0.323570505318E+03   -0.15806E+01   -0.93200E+00  7696   0.569E+02 0.288E+02
CGA:   5    -0.324752909816E+03   -0.11824E+01   -0.13489E+01  7696   0.123E+03-0.662E+01
CGA:   6    -0.326644214730E+03   -0.18913E+01   -0.19506E+01  7696   0.180E+03 0.814E+00
CGA:   7    -0.329222490481E+03   -0.25783E+01   -0.29224E+01  7696   0.752E+02-0.514E+01
CGA:   8    -0.329778542822E+03   -0.55605E+00   -0.53625E+00  7696   0.220E+02 0.427E+01
CGA:   9    -0.330002718403E+03   -0.22418E+00   -0.11088E+00  7696   0.216E+02 0.243E+02
CGA:  10    -0.330532126037E+03   -0.52941E+00   -0.26569E+00  7696   0.130E+02 0.162E+02
CGA:  11    -0.330814768696E+03   -0.28264E+00   -0.25312E+00  7696   0.859E+01-0.357E+00
CGA:  12    -0.331053282767E+03   -0.23851E+00   -0.23869E+00  7696   0.201E+02-0.558E-01
CGA:  13    -0.331590127074E+03   -0.53684E+00   -0.53677E+00  7696   0.195E+02 0.595E+00
CGA:  14    -0.331936124253E+03   -0.34600E+00   -0.30509E+00  7696   0.351E+01 0.134E+01
CGA:  15    -0.331970880960E+03   -0.34757E-01   -0.34320E-01  7696   0.906E+00 0.348E-01
CGA:  16    -0.332008729124E+03   -0.37848E-01   -0.38966E-01  7696   0.211E+01-0.615E-01
CGA:  17    -0.332035285777E+03   -0.26557E-01   -0.25788E-01  7696   0.143E+01 0.312E-01
CGA:  18    -0.332068086359E+03   -0.32801E-01   -0.32706E-01  7696   0.233E+01-0.106E-01
CGA:  19    -0.332100781917E+03   -0.32696E-01   -0.33693E-01  7696   0.164E+01-0.134E-01
CGA:  20    -0.332123288235E+03   -0.22506E-01   -0.24187E-01  7696   0.102E+01-0.218E-01
CGA:  21    -0.332139391283E+03   -0.16103E-01   -0.16121E-01  7696   0.886E+00 0.187E-02
CGA:  22    -0.332165041641E+03   -0.25650E-01   -0.25763E-01  7696   0.127E+01-0.154E-01
CGA:  23    -0.332184054805E+03   -0.19013E-01   -0.19582E-01  7696   0.632E+00-0.682E-03
CGA:  24    -0.332190883833E+03   -0.68290E-02   -0.70991E-02  7696   0.134E+00-0.126E-01
CGA:  25    -0.332195297354E+03   -0.44135E-02   -0.44254E-02  7696   0.331E+00-0.727E-03
CGA:  26    -0.332203287177E+03   -0.79898E-02   -0.79904E-02  7696   0.367E+00-0.565E-03
CGA:  27    -0.332211986875E+03   -0.86997E-02   -0.86987E-02  7696   0.201E+00 0.112E-01
CGA:  28    -0.332214366924E+03   -0.23800E-02   -0.23710E-02  7696   0.782E-01 0.344E-03
CGA:  29    -0.332216986795E+03   -0.26199E-02   -0.26550E-02  7696   0.112E+00-0.269E-02
CGA:  30    -0.332219066370E+03   -0.20796E-02   -0.20801E-02  7696   0.754E-01 0.368E-04
CGA:  31    -0.332220581171E+03   -0.15148E-02   -0.15158E-02  7696   0.882E-01 0.120E-03
CGA:  32    -0.332223328006E+03   -0.27468E-02   -0.27369E-02  7696   0.483E-01 0.969E-03
CGA:  33    -0.332223937024E+03   -0.60902E-03   -0.61173E-03  7696   0.292E-01-0.532E-04
CGA:  34    -0.332225119257E+03   -0.11822E-02   -0.11735E-02  7696   0.499E-01 0.482E-03
CGA:  35    -0.332226740201E+03   -0.16209E-02   -0.16225E-02  7696   0.920E-01-0.126E-03
CGA:  36    -0.332228165850E+03   -0.14256E-02   -0.14226E-02  7696   0.196E-01 0.106E-03
CGA:  37    -0.332228516778E+03   -0.35093E-03   -0.35168E-03  7696   0.186E-01 0.438E-04
CGA:  38    -0.332229145330E+03   -0.62855E-03   -0.62576E-03  7696   0.361E-01 0.230E-03
CGA:  39    -0.332229887188E+03   -0.74186E-03   -0.74196E-03  7696   0.173E-01 0.376E-04
CGA:  40    -0.332230395408E+03   -0.50822E-03   -0.50798E-03  7696   0.269E-01 0.389E-04
SDA:  41    -0.332230800750E+03   -0.40534E-03   -0.40425E-03  7696   0.747E-02 0.334E-04
CGA:  42    -0.332230938696E+03   -0.13795E-03   -0.13788E-03  7696   0.314E-02 0.126E-05
CGA:  43    -0.332231077977E+03   -0.13928E-03   -0.13868E-03  7696   0.685E-02 0.289E-04
CGA:  44    -0.332231386794E+03   -0.30882E-03   -0.30834E-03  7696   0.569E-02 0.244E-04
CGA:  45    -0.332231456474E+03   -0.69680E-04   -0.69575E-04  7696   0.197E-02 0.740E-05
CGA:  46    -0.332231726923E+03   -0.27045E-03   -0.36120E-05  7696   0.508E-02-0.302E-03
CGA:  47    -0.332231807085E+03   -0.80162E-04   -0.80392E-04  7696   0.101E-02-0.843E-05
CGA:  48    -0.332231859335E+03   -0.52250E-04   -0.52202E-04  7696   0.271E-02 0.424E-05
CGA:  49    -0.332231995281E+03   -0.13595E-03   -0.13595E-03  7696   0.131E-02-0.177E-05
CGA:  50    -0.332232025651E+03   -0.30370E-04   -0.30234E-04  7696   0.831E-03-0.126E-05
CGA:  51    -0.332232060532E+03   -0.34882E-04   -0.34861E-04  7696   0.111E-02-0.919E-05
CGA:  52    -0.332232084536E+03   -0.24003E-04   -0.23934E-04  7696   0.124E-02-0.263E-05
CGA:  53    -0.332232140819E+03   -0.56284E-04   -0.56302E-04  7696   0.149E-02-0.630E-05
CGA:  54    -0.332232170948E+03   -0.30128E-04   -0.30080E-04  7696   0.281E-03-0.339E-05
CGA:  55    -0.332232183385E+03   -0.12438E-04   -0.12439E-04  7696   0.628E-03-0.414E-06
CGA:  56    -0.332232212012E+03   -0.28627E-04   -0.28631E-04  7696   0.933E-03-0.127E-05
CGA:  57    -0.332232225530E+03   -0.13518E-04   -0.13479E-04  7696   0.242E-03-0.722E-06
CGA:  58    -0.332232232826E+03   -0.72962E-05   -0.72668E-05  7696   0.336E-03-0.259E-05
CGA:  59    -0.332232258194E+03   -0.25368E-04   -0.25650E-04  7696   0.566E-03-0.756E-05
CGA:  60    -0.332232267373E+03   -0.91784E-05   -0.91663E-05  7696   0.909E-04-0.198E-05
   4 F= -.33223227E+03 E0= -.33220304E+03  d E =-.210910E+01  mag=    32.0000
       N       E                     dE             d eps       ncg     rms          ort
SDA:   1    -0.316469708649E+03    0.15763E+02    0.00000E+00  7696   0.232E+03 0.000E+00
CGA:   2    -0.320394741571E+03   -0.39250E+01   -0.56233E+01  7696   0.100E+03-0.318E+02
CGA:   3    -0.322897128561E+03   -0.25024E+01   -0.16460E+01  7696   0.422E+02 0.190E+02
CGA:   4    -0.324855793750E+03   -0.19587E+01   -0.10782E+01  7696   0.553E+02 0.117E+02
CGA:   5    -0.325232116549E+03   -0.37632E+00   -0.85717E+00  7696   0.147E+03-0.306E+02
CGA:   6    -0.326605197533E+03   -0.13731E+01   -0.28658E+01  7696   0.556E+02-0.253E+02
CGA:   7    -0.327605416078E+03   -0.10002E+01   -0.91871E+00  7696   0.430E+02 0.179E+01
CGA:   8    -0.328571512335E+03   -0.96610E+00   -0.73874E+00  7696   0.342E+02 0.759E+01
CGA:   9    -0.329474563306E+03   -0.90305E+00   -0.96084E+00  7696   0.560E+02 0.767E+00
CGA:  10    -0.331345342707E+03   -0.18708E+01   -0.18732E+01  7696   0.597E+02 0.497E+01
CGA:  11    -0.332551576406E+03   -0.12062E+01   -0.87291E+00  7696   0.162E+02 0.208E+02
CGA:  12    -0.332717690993E+03   -0.16611E+00   -0.10783E+00  7696   0.452E+01 0.108E+02
CGA:  13    -0.332778884254E+03   -0.61193E-01   -0.56189E-01  7696   0.196E+01 0.262E+00
CGA:  14    -0.332834226455E+03   -0.55342E-01   -0.54692E-01  7696   0.312E+01-0.719E-01
CGA:  15    -0.333079903707E+03   -0.24568E+00   -0.24582E+00  7696   0.108E+02-0.228E-01
CGA:  16    -0.333186036907E+03   -0.10613E+00   -0.11770E+00  7696   0.173E+01-0.781E+00
CGA:  17    -0.333209585018E+03   -0.23548E-01   -0.24444E-01  7696   0.511E+00-0.286E-01
CGA:  18    -0.333238433239E+03   -0.28848E-01   -0.28629E-01  7696   0.231E+01 0.789E-02
CGA:  19    -0.333299627878E+03   -0.61195E-01   -0.61179E-01  7696   0.631E+00-0.349E-03
CGA:  20    -0.333308729942E+03   -0.91021E-02   -0.87508E-02  7696   0.227E+00 0.155E-01
CGA:  21    -0.333319392148E+03   -0.10662E-01   -0.10342E-01  7696   0.214E+00 0.183E-01
CGA:  22    -0.333327104014E+03   -0.77119E-02   -0.76936E-02  7696   0.180E+00 0.488E-02
CGA:  23    -0.333333212011E+03   -0.61080E-02   -0.61190E-02  7696   0.221E+00-0.321E-02
CGA:  24    -0.333336211088E+03   -0.29991E-02   -0.29671E-02  7696   0.563E-01 0.151E-02
CGA:  25    -0.333338051508E+03   -0.18404E-02   -0.18382E-02  7696   0.843E-01 0.643E-03
CGA:  26    -0.333341329752E+03   -0.32782E-02   -0.32810E-02  7696   0.173E+00-0.271E-03
CGA:  27    -0.333344662289E+03   -0.33325E-02   -0.33335E-02  7696   0.560E-01-0.856E-04
CGA:  28    -0.333345391036E+03   -0.72875E-03   -0.73203E-03  7696   0.176E-01-0.171E-03
CGA:  29    -0.333347237583E+03   -0.18465E-02   -0.18399E-02  7696   0.134E+00 0.101E-03
CGA:  30    -0.333349484598E+03   -0.22470E-02   -0.22515E-02  7696   0.125E-01-0.783E-04
CGA:  31    -0.333349790894E+03   -0.30630E-03   -0.30595E-03  7696   0.905E-02 0.400E-05
CGA:  32    -0.333350003328E+03   -0.21243E-03   -0.21221E-03  7696   0.137E-01 0.509E-06
CGA:  33    -0.333350496552E+03   -0.49322E-03   -0.49346E-03  7696   0.938E-02-0.219E-04
CGA:  34    -0.333350851032E+03   -0.35448E-03   -0.35400E-03  7696   0.150E-01 0.698E-04
CGA:  35    -0.333351083291E+03   -0.23226E-03   -0.23376E-03  7696   0.591E-02-0.140E-04
CGA:  36    -0.333351241741E+03   -0.15845E-03   -0.15856E-03  7696   0.521E-02 0.198E-04
CGA:  37    -0.333351481917E+03   -0.24018E-03   -0.23975E-03  7696   0.899E-02 0.296E-04
CGA:  38    -0.333351626052E+03   -0.14414E-03   -0.14444E-03  7696   0.229E-02 0.138E-04
CGA:  39    -0.333351667761E+03   -0.41709E-04   -0.41799E-04  7696   0.229E-02 0.246E-05
CGA:  40    -0.333352043022E+03   -0.37526E-03   -0.38056E-05  7696   0.615E-02-0.394E-03
CGA:  41    -0.333352097109E+03   -0.54087E-04   -0.54225E-04  7696   0.189E-02-0.172E-04
CGA:  42    -0.333352133718E+03   -0.36609E-04   -0.36904E-04  7696   0.118E-02-0.763E-05
SDA:  43    -0.333352165315E+03   -0.31598E-04   -0.31673E-04  7696   0.229E-02 0.950E-09
CGA:  44    -0.333352192073E+03   -0.26758E-04   -0.26567E-04  7696   0.876E-03 0.944E-05
CGA:  45    -0.333352223055E+03   -0.30982E-04   -0.30949E-04  7696   0.111E-02-0.117E-05
CGA:  46    -0.333352300010E+03   -0.76955E-04   -0.77030E-04  7696   0.110E-02-0.315E-05
CGA:  47    -0.333352333320E+03   -0.33310E-04   -0.33374E-04  7696   0.111E-02-0.120E-06
CGA:  48    -0.333352360595E+03   -0.27275E-04   -0.27293E-04  7696   0.276E-03-0.295E-05
CGA:  49    -0.333352402551E+03   -0.41956E-04   -0.43291E-04  7696   0.963E-03-0.121E-04
CGA:  50    -0.333352413684E+03   -0.11133E-04   -0.11047E-04  7696   0.263E-03-0.359E-05
CGA:  51    -0.333352421571E+03   -0.78868E-05   -0.78412E-05  7696   0.322E-03-0.182E-05
CGA:  52    -0.333352444767E+03   -0.23196E-04   -0.23300E-04  7696   0.454E-03-0.495E-05
CGA:  53    -0.333352450254E+03   -0.54866E-05   -0.54260E-05  7696   0.992E-04-0.442E-06
   5 F= -.33335245E+03 E0= -.33332321E+03  d E =-.112018E+01  mag=    32.0000
       N       E                     dE             d eps       ncg     rms          ort
SDA:   1    -0.287274277295E+03    0.46078E+02    0.00000E+00  7696   0.239E+04 0.000E+00
CGA:   2    -0.301650963984E+03   -0.14377E+02   -0.59267E+02  7696   0.512E+03-0.266E+03
CGA:   3    -0.306768966671E+03   -0.51180E+01   -0.77908E+01  7696   0.857E+03-0.636E+03
CGA:   4    -0.307854249107E+03   -0.10853E+01   -0.18289E+02  7696   0.459E+03-0.139E+03
CGA:   5    -0.314763830792E+03   -0.69096E+01   -0.55850E+01  7696   0.243E+03 0.156E+02
CGA:   6    -0.312935354035E+03    0.18285E+01   -0.31096E+01  7696   0.106E+04-0.614E+03
CGA:   7    -0.310600790636E+03    0.23346E+01   -0.19826E+02  7696   0.485E+03-0.285E+03
CGA:   8    -0.320188429838E+03   -0.95876E+01   -0.45134E+01  7696   0.175E+03 0.226E+03
CGA:   9    -0.319981067676E+03    0.20736E+00   -0.22087E+01  7696   0.450E+03-0.428E+03
CGA:  10    -0.319141861713E+03    0.83921E+00   -0.65433E+01  7696   0.439E+03-0.299E+03
CGA:  11    -0.322365442707E+03   -0.32236E+01   -0.43501E+01  7696   0.230E+03-0.365E+03
CGA:  12    -0.322791013535E+03   -0.42557E+00   -0.27571E+01  7696   0.195E+03-0.145E+03
CGA:  13    -0.324275662752E+03   -0.14846E+01   -0.13749E+01  7696   0.258E+02-0.108E+02
CGA:  14    -0.331203854811E+03   -0.69282E+01   -0.21768E+01  7696   0.347E+02 0.909E+01
CGA:  15    -0.331703423580E+03   -0.49957E+00   -0.58706E+00  7696   0.309E+02-0.822E+01
CGA:  16    -0.332810772486E+03   -0.11073E+01   -0.11469E+01  7696   0.263E+02 0.195E+01
CGA:  17    -0.333281850756E+03   -0.47108E+00   -0.33943E+00  7696   0.711E+01 0.933E+01
CGA:  18    -0.333438539903E+03   -0.15669E+00   -0.10367E+00  7696   0.305E+01 0.432E+01
CGA:  19    -0.333490053917E+03   -0.51514E-01   -0.53006E-01  7696   0.246E+01-0.653E-01
CGA:  20    -0.333635105115E+03   -0.14505E+00   -0.15203E+00  7696   0.786E+01-0.377E+00
CGA:  21    -0.333869457980E+03   -0.23435E+00   -0.23297E+00  7696   0.875E+01-0.273E-02
CGA:  22    -0.333978551799E+03   -0.10909E+00   -0.14980E+00  7696   0.392E+01-0.165E+01
CGA:  23    -0.334024217646E+03   -0.45666E-01   -0.52187E-01  7696   0.130E+01-0.245E+00
CGA:  24    -0.334044646827E+03   -0.20429E-01   -0.18995E-01  7696   0.783E+00 0.689E-01
CGA:  25    -0.334076346950E+03   -0.31700E-01   -0.31767E-01  7696   0.174E+01 0.382E-02
CGA:  26    -0.334161314421E+03   -0.84967E-01   -0.85016E-01  7696   0.333E+00-0.667E-02
CGA:  27    -0.334167449060E+03   -0.61346E-02   -0.64591E-02  7696   0.128E+00-0.101E-01
CGA:  28    -0.334179809099E+03   -0.12360E-01   -0.12677E-01  7696   0.503E+00-0.599E-02
CGA:  29    -0.334187541339E+03   -0.77322E-02   -0.75796E-02  7696   0.222E+00 0.696E-02
CGA:  30    -0.334192331969E+03   -0.47906E-02   -0.49822E-02  7696   0.159E+00-0.429E-02
CGA:  31    -0.334195003324E+03   -0.26714E-02   -0.27416E-02  7696   0.583E-01-0.256E-02
CGA:  32    -0.334197085959E+03   -0.20826E-02   -0.20904E-02  7696   0.694E-01 0.431E-03
CGA:  33    -0.334201698654E+03   -0.46127E-02   -0.46018E-02  7696   0.138E+00 0.387E-03
CGA:  34    -0.334203117474E+03   -0.14188E-02   -0.14121E-02  7696   0.205E-01 0.506E-03
CGA:  35    -0.334206007588E+03   -0.28901E-02   -0.28572E-02  7696   0.585E-01 0.389E-03
CGA:  36    -0.334206888893E+03   -0.88130E-03   -0.88561E-03  7696   0.189E-01-0.138E-03
CGA:  37    -0.334207158468E+03   -0.26957E-03   -0.27049E-03  7696   0.896E-02-0.261E-04
CGA:  38    -0.334207708888E+03   -0.55042E-03   -0.54825E-03  7696   0.182E-01 0.100E-03
CGA:  39    -0.334208077642E+03   -0.36875E-03   -0.36768E-03  7696   0.951E-02 0.435E-04
CGA:  40    -0.334208467734E+03   -0.39009E-03   -0.38989E-03  7696   0.120E-01-0.395E-04
CGA:  41    -0.334208634104E+03   -0.16637E-03   -0.16707E-03  7696   0.581E-02-0.215E-04
CGA:  42    -0.334208875182E+03   -0.24108E-03   -0.24108E-03  7696   0.749E-02 0.256E-04
CGA:  43    -0.334209179738E+03   -0.30456E-03   -0.30458E-03  7696   0.403E-02 0.203E-04
CGA:  44    -0.334209224925E+03   -0.45186E-04   -0.45375E-04  7696   0.158E-02-0.558E-05
CGA:  45    -0.334209376390E+03   -0.15147E-03   -0.15147E-03  7696   0.895E-02-0.201E-06
CGA:  46    -0.334209695141E+03   -0.31875E-03   -0.31902E-03  7696   0.502E-02 0.148E-04
CGA:  47    -0.334209772564E+03   -0.77423E-04   -0.77219E-04  7696   0.105E-02 0.832E-05
CGA:  48    -0.334209806814E+03   -0.34250E-04   -0.34214E-04  7696   0.282E-02-0.417E-05
SDA:  49    -0.334209928311E+03   -0.12150E-03   -0.12156E-03  7696   0.191E-02-0.193E-04
CGA:  50    -0.334209981669E+03   -0.53358E-04   -0.53542E-04  7696   0.104E-02 0.209E-05
CGA:  51    -0.334210001658E+03   -0.19989E-04   -0.20122E-04  7696   0.538E-03-0.447E-06
CGA:  52    -0.334210019392E+03   -0.17735E-04   -0.17737E-04  7696   0.108E-02 0.292E-06
CGA:  53    -0.334210073143E+03   -0.53750E-04   -0.53735E-04  7696   0.238E-02 0.107E-05
CGA:  54    -0.334210116820E+03   -0.43677E-04   -0.43679E-04  7696   0.319E-03-0.247E-05
CGA:  55    -0.334210140887E+03   -0.24067E-04   -0.24315E-04  7696   0.740E-03-0.654E-05
CGA:  56    -0.334210168476E+03   -0.27589E-04   -0.27578E-04  7696   0.239E-03-0.548E-05
CGA:  57    -0.334210172983E+03   -0.45068E-05   -0.44999E-05  7696   0.300E-03-0.607E-06
CGA:  58    -0.334210204465E+03   -0.31482E-04   -0.31727E-04  7696   0.128E-02-0.361E-05
CGA:  59    -0.334210224075E+03   -0.19610E-04   -0.19671E-04  7696   0.171E-03-0.675E-05
CGA:  60    -0.334210233753E+03   -0.96782E-05   -0.97217E-05  7696   0.344E-03-0.268E-05
CGA:  61    -0.334210253409E+03   -0.19656E-04   -0.19690E-04  7696   0.282E-03-0.211E-05
CGA:  62    -0.334210266695E+03   -0.13286E-04   -0.13278E-04  7696   0.350E-03 0.131E-05
CGA:  63    -0.334210273015E+03   -0.63205E-05   -0.63608E-05  7696   0.260E-03 0.404E-06
   6 F= -.33421027E+03 E0= -.33418047E+03  d E =-.857823E+00  mag=    32.0000
       N       E                     dE             d eps       ncg     rms          ort
SDA:   1    -0.305875349583E+03    0.28335E+02    0.00000E+00  7696   0.111E+04 0.000E+00
CGA:   2    -0.312637757449E+03   -0.67624E+01   -0.23090E+02  7696   0.333E+03-0.231E+03
CGA:   3    -0.317343110197E+03   -0.47054E+01   -0.50735E+01  7696   0.230E+03-0.394E+02
CGA:   4    -0.319635538344E+03   -0.22924E+01   -0.14254E+01  7696   0.102E+03 0.806E+02
CGA:   5    -0.320283300432E+03   -0.64776E+00   -0.13263E+01  7696   0.188E+03-0.691E+02
CGA:   6    -0.321686795888E+03   -0.14035E+01   -0.23943E+01  7696   0.882E+02-0.564E+02
CGA:   7    -0.325126697687E+03   -0.34399E+01   -0.33578E+01  7696   0.148E+03 0.487E+01
CGA:   8    -0.328289885991E+03   -0.31632E+01   -0.26850E+01  7696   0.540E+02 0.103E+02
CGA:   9    -0.330138666342E+03   -0.18488E+01   -0.18801E+01  7696   0.554E+02 0.569E+01
CGA:  10    -0.331849116024E+03   -0.17104E+01   -0.16513E+01  7696   0.537E+02-0.162E+01
CGA:  11    -0.333149356255E+03   -0.13002E+01   -0.13433E+01  7696   0.274E+02 0.638E+00
CGA:  12    -0.333608663975E+03   -0.45931E+00   -0.45393E+00  7696   0.947E+01-0.196E+00
CGA:  13    -0.333820681914E+03   -0.21202E+00   -0.21399E+00  7696   0.523E+01 0.143E-01
CGA:  14    -0.334017870111E+03   -0.19719E+00   -0.19474E+00  7696   0.713E+01 0.330E+00
CGA:  15    -0.334204038715E+03   -0.18617E+00   -0.18597E+00  7696   0.575E+01-0.141E-01
CGA:  16    -0.334329400202E+03   -0.12536E+00   -0.12323E+00  7696   0.262E+01-0.215E-02
CGA:  17    -0.334386173762E+03   -0.56774E-01   -0.58091E-01  7696   0.120E+01 0.888E-02
CGA:  18    -0.334416167752E+03   -0.29994E-01   -0.29742E-01  7696   0.851E+00-0.932E-02
CGA:  19    -0.334450272416E+03   -0.34105E-01   -0.33969E-01  7696   0.118E+01 0.107E-01
CGA:  20    -0.334476022224E+03   -0.25750E-01   -0.25587E-01  7696   0.876E+00-0.593E-03
CGA:  21    -0.334496348887E+03   -0.20327E-01   -0.20514E-01  7696   0.411E+00 0.459E-02
CGA:  22    -0.334505354095E+03   -0.90052E-02   -0.91147E-02  7696   0.254E+00 0.155E-02
CGA:  23    -0.334514652367E+03   -0.92983E-02   -0.93697E-02  7696   0.266E+00-0.728E-02
CGA:  24    -0.334523531557E+03   -0.88792E-02   -0.88516E-02  7696   0.342E+00 0.454E-02
CGA:  25    -0.334530481349E+03   -0.69498E-02   -0.70270E-02  7696   0.153E+00-0.137E-04
CGA:  26    -0.334533643611E+03   -0.31623E-02   -0.31534E-02  7696   0.937E-01-0.875E-05
CGA:  27    -0.334536557360E+03   -0.29137E-02   -0.29127E-02  7696   0.786E-01 0.437E-03
CGA:  28    -0.334539734289E+03   -0.31769E-02   -0.31825E-02  7696   0.110E+00-0.397E-03
CGA:  29    -0.334542255501E+03   -0.25212E-02   -0.25297E-02  7696   0.618E-01 0.250E-03
CGA:  30    -0.334543462768E+03   -0.12073E-02   -0.12050E-02  7696   0.327E-01 0.156E-04
CGA:  31    -0.334544261472E+03   -0.79870E-03   -0.79761E-03  7696   0.219E-01-0.583E-04
CGA:  32    -0.334545172538E+03   -0.91107E-03   -0.90613E-03  7696   0.300E-01 0.325E-03
CGA:  33    -0.334546030066E+03   -0.85753E-03   -0.85759E-03  7696   0.222E-01 0.311E-04
CGA:  34    -0.334546472130E+03   -0.44206E-03   -0.44158E-03  7696   0.123E-01 0.774E-05
CGA:  35    -0.334546746707E+03   -0.27458E-03   -0.27486E-03  7696   0.723E-02 0.179E-04
SDA:  36    -0.334546978522E+03   -0.23181E-03   -0.23184E-03  7696   0.789E-02-0.256E-05
CGA:  37    -0.334547061034E+03   -0.82513E-04   -0.82842E-04  7696   0.155E-02-0.153E-04
CGA:  38    -0.334547136111E+03   -0.75076E-04   -0.75043E-04  7696   0.550E-02 0.150E-05
CGA:  39    -0.334547475593E+03   -0.33948E-03   -0.33948E-03  7696   0.140E-01-0.321E-06
CGA:  40    -0.334547778682E+03   -0.30309E-03   -0.30349E-03  7696   0.187E-02 0.136E-04
CGA:  41    -0.334547844105E+03   -0.65422E-04   -0.65362E-04  7696   0.115E-02 0.102E-04
CGA:  42    -0.334547898921E+03   -0.54816E-04   -0.54580E-04  7696   0.152E-02 0.134E-04
CGA:  43    -0.334547949129E+03   -0.50207E-04   -0.50196E-04  7696   0.329E-02 0.775E-05
CGA:  44    -0.334548039360E+03   -0.90232E-04   -0.90214E-04  7696   0.384E-03 0.295E-05
CGA:  45    -0.334548085388E+03   -0.46028E-04   -0.45551E-04  7696   0.193E-02 0.563E-05
CGA:  46    -0.334548127199E+03   -0.41811E-04   -0.41813E-04  7696   0.479E-03 0.105E-06
CGA:  47    -0.334548138624E+03   -0.11425E-04   -0.11423E-04  7696   0.324E-03-0.576E-06
CGA:  48    -0.334548163819E+03   -0.25195E-04   -0.25313E-04  7696   0.132E-02-0.273E-05
CGA:  49    -0.334548187015E+03   -0.23196E-04   -0.23199E-04  7696   0.466E-03-0.594E-06
CGA:  50    -0.334548197791E+03   -0.10776E-04   -0.10793E-04  7696   0.187E-03 0.753E-06
CGA:  51    -0.334548207184E+03   -0.93926E-05   -0.93755E-05  7696   0.191E-03 0.996E-06
   7 F= -.33454821E+03 E0= -.33451867E+03  d E =-.337934E+00  mag=    32.0000
       N       E                     dE             d eps       ncg     rms          ort
SDA:   1    -0.312511072400E+03    0.22037E+02    0.00000E+00  7696   0.920E+03 0.000E+00
CGA:   2    -0.317522726046E+03   -0.50117E+01   -0.15215E+02  7696   0.314E+03-0.175E+03
CGA:   3    -0.320910624902E+03   -0.33879E+01   -0.52475E+01  7696   0.126E+03-0.385E+01
CGA:   4    -0.322604763111E+03   -0.16941E+01   -0.10041E+01  7696   0.636E+02 0.700E+02
CGA:   5    -0.323703810902E+03   -0.10990E+01   -0.79271E+00  7696   0.359E+02 0.163E+02
CGA:   6    -0.324894501704E+03   -0.11907E+01   -0.11437E+01  7696   0.105E+03-0.287E+01
CGA:   7    -0.326315402945E+03   -0.14209E+01   -0.15382E+01  7696   0.272E+03-0.455E+01
CGA:   8    -0.329231260083E+03   -0.29159E+01   -0.32992E+01  7696   0.327E+03-0.251E+02
CGA:   9    -0.331432069551E+03   -0.22008E+01   -0.26310E+01  7696   0.130E+03-0.396E+02
CGA:  10    -0.332006455298E+03   -0.57439E+00   -0.58987E+00  7696   0.298E+02-0.243E+01
CGA:  11    -0.332183520258E+03   -0.17706E+00   -0.16301E+00  7696   0.134E+02 0.267E+01
CGA:  12    -0.332320777000E+03   -0.13726E+00   -0.12797E+00  7696   0.150E+02 0.883E+00
CGA:  13    -0.332568777560E+03   -0.24800E+00   -0.26308E+00  7696   0.366E+02 0.764E-01
CGA:  14    -0.333303750942E+03   -0.73497E+00   -0.74103E+00  7696   0.221E+02 0.920E+00
CGA:  15    -0.333575581327E+03   -0.27183E+00   -0.31363E+00  7696   0.174E+02-0.928E+00
CGA:  16    -0.333749350227E+03   -0.17377E+00   -0.92891E-01  7696   0.145E+02 0.137E+02
CGA:  17    -0.334029616133E+03   -0.28027E+00   -0.25481E+00  7696   0.888E+01-0.694E+00
CGA:  18    -0.334202821236E+03   -0.17321E+00   -0.16880E+00  7696   0.782E+01-0.436E+00
CGA:  19    -0.334288998261E+03   -0.86177E-01   -0.69265E-01  7696   0.446E+01 0.139E+01
CGA:  20    -0.334346886573E+03   -0.57888E-01   -0.62474E-01  7696   0.389E+01-0.165E+00
CGA:  21    -0.334412411209E+03   -0.65525E-01   -0.66794E-01  7696   0.442E+01 0.997E-01
CGA:  22    -0.334515585946E+03   -0.10317E+00   -0.10242E+00  7696   0.588E+01 0.371E+00
CGA:  23    -0.334640063780E+03   -0.12448E+00   -0.12517E+00  7696   0.156E+01 0.157E+00
CGA:  24    -0.334668725923E+03   -0.28662E-01   -0.28134E-01  7696   0.138E+01-0.392E-01
CGA:  25    -0.334710419666E+03   -0.41694E-01   -0.51619E-01  7696   0.249E+01-0.614E+00
CGA:  26    -0.334718846631E+03   -0.84270E-02   -0.72694E-02  7696   0.216E+01 0.189E+00
CGA:  27    -0.334735664513E+03   -0.16818E-01   -0.18513E-01  7696   0.117E+01-0.146E+00
CGA:  28    -0.334746140414E+03   -0.10476E-01   -0.11040E-01  7696   0.984E+00-0.279E-01
CGA:  29    -0.334756766838E+03   -0.10626E-01   -0.11379E-01  7696   0.686E+00-0.146E-01
CGA:  30    -0.334764350875E+03   -0.75840E-02   -0.77248E-02  7696   0.347E+00-0.261E-02
CGA:  31    -0.334768407659E+03   -0.40568E-02   -0.39908E-02  7696   0.182E+00 0.140E-02
CGA:  32    -0.334771007183E+03   -0.25995E-02   -0.25908E-02  7696   0.221E+00-0.371E-03
CGA:  33    -0.334776145259E+03   -0.51381E-02   -0.51647E-02  7696   0.364E+00-0.407E-02
CGA:  34    -0.334779650590E+03   -0.35053E-02   -0.34083E-02  7696   0.161E+00 0.519E-02
CGA:  35    -0.334781236937E+03   -0.15863E-02   -0.15980E-02  7696   0.111E+00-0.520E-03
CGA:  36    -0.334782761152E+03   -0.15242E-02   -0.15325E-02  7696   0.117E+00 0.416E-03
CGA:  37    -0.334784373771E+03   -0.16126E-02   -0.16377E-02  7696   0.115E+00 0.157E-02
CGA:  38    -0.334786268374E+03   -0.18946E-02   -0.18999E-02  7696   0.102E+00 0.189E-02
CGA:  39    -0.334787659744E+03   -0.13914E-02   -0.13857E-02  7696   0.751E-01-0.274E-03
CGA:  40    -0.334789256347E+03   -0.15966E-02   -0.16030E-02  7696   0.142E+00-0.111E-02
CGA:  41    -0.334791470626E+03   -0.22143E-02   -0.21993E-02  7696   0.990E-01-0.335E-02
CGA:  42    -0.334792222684E+03   -0.75206E-03   -0.76138E-03  7696   0.306E-01-0.630E-03
CGA:  43    -0.334792572399E+03   -0.34972E-03   -0.35190E-03  7696   0.300E-01 0.558E-04
CGA:  44    -0.334793135394E+03   -0.56299E-03   -0.56149E-03  7696   0.420E-01 0.480E-03
CGA:  45    -0.334793742798E+03   -0.60740E-03   -0.60934E-03  7696   0.373E-01 0.288E-03
CGA:  46    -0.334794309693E+03   -0.56689E-03   -0.56664E-03  7696   0.327E-01-0.350E-04
SDA:  47    -0.334794751216E+03   -0.44152E-03   -0.44174E-03  7696   0.304E-01 0.444E-04
CGA:  48    -0.334795453375E+03   -0.70216E-03   -0.70375E-03  7696   0.982E-02-0.192E-03
CGA:  49    -0.334795700487E+03   -0.24711E-03   -0.24831E-03  7696   0.998E-02-0.120E-03
CGA:  50    -0.334795908654E+03   -0.20817E-03   -0.20844E-03  7696   0.805E-02-0.548E-04
CGA:  51    -0.334796803556E+03   -0.89490E-03   -0.44464E-04  7696   0.137E-01-0.813E-04
CGA:  52    -0.334797070331E+03   -0.26678E-03   -0.26743E-03  7696   0.696E-02-0.137E-05
CGA:  53    -0.334797226951E+03   -0.15662E-03   -0.15704E-03  7696   0.733E-02 0.154E-04
CGA:  54    -0.334797608314E+03   -0.38136E-03   -0.37980E-03  7696   0.106E-01 0.709E-04
CGA:  55    -0.334797765692E+03   -0.15738E-03   -0.15734E-03  7696   0.182E-02 0.235E-04
CGA:  56    -0.334798055559E+03   -0.28987E-03   -0.17294E-05  7696   0.119E-01-0.354E-03
CGA:  57    -0.334798189103E+03   -0.13354E-03   -0.13413E-03  7696   0.592E-02 0.749E-05
CGA:  58    -0.334798333407E+03   -0.14430E-03   -0.14299E-03  7696   0.394E-02 0.424E-04
CGA:  59    -0.334798394506E+03   -0.61099E-04   -0.60356E-04  7696   0.233E-02 0.366E-04
CGA:  60    -0.334798439757E+03   -0.45252E-04   -0.45088E-04  7696   0.166E-02-0.159E-07
CGA:  61    -0.334798509682E+03   -0.69924E-04   -0.69832E-04  7696   0.550E-02-0.976E-05
CGA:  62    -0.334798639097E+03   -0.12942E-03   -0.12910E-03  7696   0.274E-02-0.176E-04
CGA:  63    -0.334798671287E+03   -0.32190E-04   -0.32467E-04  7696   0.699E-03-0.268E-04
CGA:  64    -0.334798685937E+03   -0.14650E-04   -0.14711E-04  7696   0.958E-03-0.394E-06
CGA:  65    -0.334798717463E+03   -0.31526E-04   -0.31541E-04  7696   0.153E-02 0.133E-05
CGA:  66    -0.334798753510E+03   -0.36047E-04   -0.36022E-04  7696   0.901E-03 0.348E-05
CGA:  67    -0.334798762914E+03   -0.94044E-05   -0.94862E-05  7696   0.217E-03-0.372E-06
CGA:  68    -0.334798773982E+03   -0.11068E-04   -0.11015E-04  7696   0.834E-03 0.560E-05
CGA:  69    -0.334798794921E+03   -0.20939E-04   -0.21120E-04  7696   0.741E-03 0.113E-04
CGA:  70    -0.334798807865E+03   -0.12944E-04   -0.13150E-04  7696   0.134E-03 0.702E-05
CGA:  71    -0.334798809679E+03   -0.18139E-05   -0.18229E-05  7696   0.114E-03 0.196E-06
CGA:  72    -0.334798820972E+03   -0.11293E-04   -0.11846E-04  7696   0.514E-03-0.853E-05
CGA:  73    -0.334798827362E+03   -0.63909E-05   -0.62319E-05  7696   0.238E-03-0.559E-05
   8 F= -.33479883E+03 E0= -.33477017E+03  d E =-.250620E+00  mag=    32.0000
       N       E                     dE             d eps       ncg     rms          ort
SDA:   1    -0.333462467414E+03    0.13364E+01    0.00000E+00  7696   0.147E+02 0.000E+00
CGA:   2    -0.333623087712E+03   -0.16062E+00   -0.17674E+00  7696   0.546E+01-0.115E+01
CGA:   3    -0.334061168301E+03   -0.43808E+00   -0.42887E+00  7696   0.204E+02 0.206E+00
CGA:   4    -0.334516169810E+03   -0.45500E+00   -0.44117E+00  7696   0.626E+01 0.342E+00
CGA:   5    -0.334630088782E+03   -0.11392E+00   -0.12597E+00  7696   0.200E+01-0.296E+00
CGA:   6    -0.334685055327E+03   -0.54967E-01   -0.54291E-01  7696   0.277E+01-0.108E-01
CGA:   7    -0.334779720943E+03   -0.94666E-01   -0.94016E-01  7696   0.209E+01-0.670E-01
CGA:   8    -0.334841152353E+03   -0.61431E-01   -0.62113E-01  7696   0.133E+01 0.249E-01
CGA:   9    -0.334862169498E+03   -0.21017E-01   -0.21590E-01  7696   0.387E+00-0.222E-01
CGA:  10    -0.334871384069E+03   -0.92146E-02   -0.91955E-02  7696   0.254E+00-0.862E-05
CGA:  11    -0.334879845834E+03   -0.84618E-02   -0.84680E-02  7696   0.353E+00 0.122E-02
CGA:  12    -0.334891131869E+03   -0.11286E-01   -0.11269E-01  7696   0.186E+00-0.173E-02
CGA:  13    -0.334894504671E+03   -0.33728E-02   -0.34037E-02  7696   0.748E-01-0.738E-03
CGA:  14    -0.334896025182E+03   -0.15205E-02   -0.15165E-02  7696   0.381E-01 0.614E-04
CGA:  15    -0.334898110781E+03   -0.20856E-02   -0.20870E-02  7696   0.821E-01-0.549E-04
CGA:  16    -0.334899868955E+03   -0.17582E-02   -0.17553E-02  7696   0.328E-01 0.395E-04
CGA:  17    -0.334900596634E+03   -0.72768E-03   -0.73123E-03  7696   0.158E-01 0.761E-05
CGA:  18    -0.334900990090E+03   -0.39346E-03   -0.39320E-03  7696   0.155E-01-0.584E-05
CGA:  19    -0.334901779155E+03   -0.78906E-03   -0.78783E-03  7696   0.197E-01 0.593E-04
CGA:  20    -0.334902136767E+03   -0.35761E-03   -0.35733E-03  7696   0.816E-02 0.610E-05
CGA:  21    -0.334902338511E+03   -0.20174E-03   -0.20192E-03  7696   0.478E-02 0.103E-04
CGA:  22    -0.334902543335E+03   -0.20482E-03   -0.20458E-03  7696   0.952E-02 0.204E-04
CGA:  23    -0.334902838681E+03   -0.29535E-03   -0.29539E-03  7696   0.754E-02 0.175E-04
CGA:  24    -0.334903020541E+03   -0.18186E-03   -0.18173E-03  7696   0.387E-02 0.272E-05
CGA:  25    -0.334903103302E+03   -0.82761E-04   -0.82903E-04  7696   0.229E-02 0.658E-05
CGA:  26    -0.334903194672E+03   -0.91370E-04   -0.91368E-04  7696   0.323E-02 0.968E-06
CGA:  27    -0.334903297458E+03   -0.10279E-03   -0.10279E-03  7696   0.426E-02 0.620E-05
CGA:  28    -0.334903419871E+03   -0.12241E-03   -0.12243E-03  7696   0.173E-02 0.457E-05
CGA:  29    -0.334903458532E+03   -0.38662E-04   -0.38714E-04  7696   0.115E-02 0.348E-05
CGA:  30    -0.334903489592E+03   -0.31060E-04   -0.31071E-04  7696   0.108E-02 0.143E-05
CGA:  31    -0.334903541859E+03   -0.52267E-04   -0.52210E-04  7696   0.196E-02 0.331E-05
SDA:  32    -0.334903583705E+03   -0.41845E-04   -0.41806E-04  7696   0.597E-03-0.162E-05
CGA:  33    -0.334903590833E+03   -0.71288E-05   -0.71516E-05  7696   0.213E-03 0.131E-06
   9 F= -.33490359E+03 E0= -.33487513E+03  d E =-.104763E+00  mag=    32.0000
       N       E                     dE             d eps       ncg     rms          ort
SDA:   1    -0.331578537286E+03    0.33250E+01    0.00000E+00  7696   0.851E+02 0.000E+00
CGA:   2    -0.332213896078E+03   -0.63536E+00   -0.11073E+01  7696   0.268E+02-0.263E+02
CGA:   3    -0.332716550148E+03   -0.50265E+00   -0.50780E+00  7696   0.186E+02 0.707E+00
CGA:   4    -0.333179933763E+03   -0.46338E+00   -0.44993E+00  7696   0.179E+02-0.444E+00
CGA:   5    -0.334076155407E+03   -0.89622E+00   -0.87392E+00  7696   0.173E+02 0.887E+00
CGA:   6    -0.334513212835E+03   -0.43706E+00   -0.42889E+00  7696   0.595E+01-0.151E+00
CGA:   7    -0.334643768357E+03   -0.13056E+00   -0.13375E+00  7696   0.294E+01 0.670E-01
CGA:   8    -0.334748062649E+03   -0.10429E+00   -0.10548E+00  7696   0.507E+01-0.142E+00
CGA:   9    -0.334874604535E+03   -0.12654E+00   -0.12612E+00  7696   0.354E+01-0.356E-01
CGA:  10    -0.334949748809E+03   -0.75144E-01   -0.77289E-01  7696   0.109E+01 0.316E-01
CGA:  11    -0.334971212063E+03   -0.21463E-01   -0.21241E-01  7696   0.336E+00 0.117E-02
CGA:  12    -0.334983905720E+03   -0.12694E-01   -0.12640E-01  7696   0.538E+00 0.468E-02
CGA:  13    -0.334999286522E+03   -0.15381E-01   -0.15365E-01  7696   0.589E+00-0.497E-02
CGA:  14    -0.335012149966E+03   -0.12863E-01   -0.12864E-01  7696   0.214E+00 0.581E-04
CGA:  15    -0.335016336383E+03   -0.41864E-02   -0.42214E-02  7696   0.582E-01 0.119E-03
CGA:  16    -0.335018056835E+03   -0.17205E-02   -0.17208E-02  7696   0.614E-01-0.206E-03
CGA:  17    -0.335020527839E+03   -0.24710E-02   -0.24684E-02  7696   0.117E+00 0.187E-03
CGA:  18    -0.335023220318E+03   -0.26925E-02   -0.26974E-02  7696   0.634E-01 0.189E-03
CGA:  19    -0.335024598995E+03   -0.13787E-02   -0.13773E-02  7696   0.194E-01-0.138E-04
CGA:  20    -0.335025086461E+03   -0.48747E-03   -0.48789E-03  7696   0.139E-01 0.549E-04
CGA:  21    -0.335025801225E+03   -0.71476E-03   -0.71702E-03  7696   0.307E-01-0.916E-04
CGA:  22    -0.335026525364E+03   -0.72414E-03   -0.72489E-03  7696   0.240E-01 0.507E-04
CGA:  23    -0.335027058405E+03   -0.53304E-03   -0.53413E-03  7696   0.946E-02 0.445E-04
CGA:  24    -0.335027288068E+03   -0.22966E-03   -0.22955E-03  7696   0.632E-02-0.241E-05
CGA:  25    -0.335027639365E+03   -0.35130E-03   -0.35049E-03  7696   0.118E-01 0.299E-04
CGA:  26    -0.335027919123E+03   -0.27976E-03   -0.27961E-03  7696   0.916E-02 0.218E-05
CGA:  27    -0.335028105219E+03   -0.18610E-03   -0.18631E-03  7696   0.425E-02 0.146E-04
CGA:  28    -0.335028215464E+03   -0.11024E-03   -0.11032E-03  7696   0.343E-02 0.145E-04
CGA:  29    -0.335028403838E+03   -0.18837E-03   -0.18844E-03  7696   0.514E-02-0.219E-05
CGA:  30    -0.335028528785E+03   -0.12495E-03   -0.12508E-03  7696   0.321E-02 0.148E-04
CGA:  31    -0.335028586127E+03   -0.57342E-04   -0.57359E-04  7696   0.152E-02 0.291E-05
SDA:  32    -0.335028625179E+03   -0.39052E-04   -0.39053E-04  7696   0.137E-02 0.683E-06
CGA:  33    -0.335028642850E+03   -0.17671E-04   -0.17671E-04  7696   0.432E-03-0.144E-05
CGA:  34    -0.335028676181E+03   -0.33331E-04   -0.33690E-04  7696   0.181E-02-0.731E-05
CGA:  35    -0.335028728360E+03   -0.52180E-04   -0.52161E-04  7696   0.188E-02-0.114E-04
CGA:  36    -0.335028766664E+03   -0.38304E-04   -0.38339E-04  7696   0.370E-03-0.310E-05
CGA:  37    -0.335028815066E+03   -0.48401E-04   -0.48044E-04  7696   0.461E-03 0.390E-05
CGA:  38    -0.335028822099E+03   -0.70334E-05   -0.70196E-05  7696   0.219E-03-0.290E-06
  10 F= -.33502882E+03 E0= -.33500050E+03  d E =-.125231E+00  mag=    32.0000
       N       E                     dE             d eps       ncg     rms          ort
SDA:   1    -0.331696791149E+03    0.33320E+01    0.00000E+00  7696   0.137E+03 0.000E+00
CGA:   2    -0.332843361385E+03   -0.11466E+01   -0.16466E+01  7696   0.250E+02-0.423E+02
CGA:   3    -0.333209792704E+03   -0.36643E+00   -0.36516E+00  7696   0.108E+02-0.511E-01
CGA:   4    -0.333518268233E+03   -0.30848E+00   -0.30504E+00  7696   0.164E+02-0.292E+00
CGA:   5    -0.334498269430E+03   -0.98000E+00   -0.96246E+00  7696   0.147E+02 0.545E+00
CGA:   6    -0.334763590731E+03   -0.26532E+00   -0.25459E+00  7696   0.262E+01 0.409E+00
CGA:   7    -0.334822160461E+03   -0.58570E-01   -0.60454E-01  7696   0.238E+01 0.942E-02
CGA:   8    -0.334931026073E+03   -0.10887E+00   -0.10823E+00  7696   0.478E+01 0.397E-01
CGA:   9    -0.335057949693E+03   -0.12692E+00   -0.12650E+00  7696   0.121E+01-0.180E-01
CGA:  10    -0.335078842755E+03   -0.20893E-01   -0.20973E-01  7696   0.300E+00-0.240E-02
CGA:  11    -0.335087370396E+03   -0.85276E-02   -0.85229E-02  7696   0.386E+00-0.535E-03
CGA:  12    -0.335102708636E+03   -0.15338E-01   -0.15342E-01  7696   0.486E+00-0.249E-03
CGA:  13    -0.335112634450E+03   -0.99258E-02   -0.99699E-02  7696   0.149E+00-0.676E-04
CGA:  14    -0.335116164146E+03   -0.35297E-02   -0.35173E-02  7696   0.725E-01-0.252E-03
CGA:  15    -0.335118459515E+03   -0.22954E-02   -0.22949E-02  7696   0.873E-01 0.353E-03
CGA:  16    -0.335120824112E+03   -0.23646E-02   -0.23658E-02  7696   0.604E-01 0.110E-03
CGA:  17    -0.335122332970E+03   -0.15089E-02   -0.15070E-02  7696   0.410E-01-0.796E-04
CGA:  18    -0.335123509144E+03   -0.11762E-02   -0.11760E-02  7696   0.229E-01-0.466E-04
CGA:  19    -0.335124216972E+03   -0.70783E-03   -0.70782E-03  7696   0.273E-01 0.137E-04
CGA:  20    -0.335125060578E+03   -0.84361E-03   -0.84358E-03  7696   0.263E-01 0.366E-04
CGA:  21    -0.335125682744E+03   -0.62217E-03   -0.62296E-03  7696   0.109E-01 0.446E-04
CGA:  22    -0.335125920089E+03   -0.23735E-03   -0.23707E-03  7696   0.580E-02-0.111E-05
CGA:  23    -0.335126229431E+03   -0.30934E-03   -0.30852E-03  7696   0.152E-01 0.341E-04
CGA:  24    -0.335126746223E+03   -0.51679E-03   -0.51669E-03  7696   0.137E-01 0.279E-04
CGA:  25    -0.335126999278E+03   -0.25305E-03   -0.25281E-03  7696   0.308E-02 0.203E-04
CGA:  26    -0.335127077364E+03   -0.78087E-04   -0.78108E-04  7696   0.280E-02 0.318E-05
CGA:  27    -0.335127238825E+03   -0.16146E-03   -0.16126E-03  7696   0.683E-02 0.726E-05
CGA:  28    -0.335127431720E+03   -0.19289E-03   -0.19289E-03  7696   0.465E-02 0.396E-05
CGA:  29    -0.335127514687E+03   -0.82967E-04   -0.83179E-04  7696   0.113E-02 0.441E-05
CGA:  30    -0.335127551735E+03   -0.37048E-04   -0.37056E-04  7696   0.151E-02-0.327E-05
CGA:  31    -0.335127615079E+03   -0.63344E-04   -0.63326E-04  7696   0.194E-02 0.119E-05
SDA:  32    -0.335127662031E+03   -0.46952E-04   -0.46933E-04  7696   0.128E-02-0.203E-05
CGA:  33    -0.335127674611E+03   -0.12580E-04   -0.12608E-04  7696   0.255E-03 0.557E-06
CGA:  34    -0.335127689991E+03   -0.15380E-04   -0.15308E-04  7696   0.429E-03 0.233E-05
CGA:  35    -0.335127703063E+03   -0.13072E-04   -0.13074E-04  7696   0.581E-03 0.942E-06
CGA:  36    -0.335127737670E+03   -0.34607E-04   -0.34744E-04  7696   0.514E-03-0.490E-05
CGA:  37    -0.335127751773E+03   -0.14103E-04   -0.14100E-04  7696   0.153E-03-0.782E-06
CGA:  38    -0.335127761852E+03   -0.10079E-04   -0.10120E-04  7696   0.552E-03-0.129E-05
CGA:  39    -0.335127772199E+03   -0.10347E-04   -0.10296E-04  7696   0.140E-03-0.264E-05
CGA:  40    -0.335127775349E+03   -0.31501E-05   -0.31454E-05  7696   0.703E-04-0.564E-06
  11 F= -.33512778E+03 E0= -.33509954E+03  d E =-.989532E-01  mag=    32.0000
       N       E                     dE             d eps       ncg     rms          ort
SDA:   1    -0.295177326177E+03    0.39950E+02    0.00000E+00  7696   0.202E+04 0.000E+00
CGA:   2    -0.307737142263E+03   -0.12560E+02   -0.62316E+02  7696   0.401E+03-0.134E+03
CGA:   3    -0.312115476906E+03   -0.43783E+01   -0.97090E+01  7696   0.696E+03-0.202E+03
CGA:   4    -0.315851891307E+03   -0.37364E+01   -0.17331E+02  7696   0.238E+03-0.637E+02
CGA:   5    -0.319597437255E+03   -0.37455E+01   -0.27311E+01  7696   0.122E+03 0.329E+02
CGA:   6    -0.321638400473E+03   -0.20410E+01   -0.13518E+01  7696   0.234E+03-0.209E+03
CGA:   7    -0.321238160882E+03    0.40024E+00   -0.47831E+01  7696   0.286E+03-0.136E+03
CGA:   8    -0.324037646249E+03   -0.27995E+01   -0.33617E+01  7696   0.112E+03-0.159E+03
CGA:   9    -0.324394452044E+03   -0.35681E+00   -0.19348E+01  7696   0.137E+03-0.667E+02
CGA:  10    -0.325750826515E+03   -0.13564E+01   -0.11691E+01  7696   0.218E+02 0.577E+01
CGA:  11    -0.329039945202E+03   -0.32891E+01   -0.33587E+01  7696   0.314E+03-0.466E+00
CGA:  12    -0.333690048721E+03   -0.46501E+01   -0.46466E+01  7696   0.625E+02 0.224E+01
CGA:  13    -0.334171722982E+03   -0.48167E+00   -0.79019E+00  7696   0.226E+02-0.208E+02
CGA:  14    -0.334330518309E+03   -0.15880E+00   -0.12695E+00  7696   0.705E+01 0.300E+01
CGA:  15    -0.334403013564E+03   -0.72495E-01   -0.66283E-01  7696   0.452E+01 0.669E+00
CGA:  16    -0.334516073041E+03   -0.11306E+00   -0.10874E+00  7696   0.127E+02 0.834E-01
CGA:  17    -0.334740945251E+03   -0.22487E+00   -0.24497E+00  7696   0.232E+02-0.584E+00
CGA:  18    -0.334946773546E+03   -0.20583E+00   -0.23052E+00  7696   0.924E+01-0.185E+01
CGA:  19    -0.335022521134E+03   -0.75748E-01   -0.81470E-01  7696   0.431E+01-0.559E+00
CGA:  20    -0.335056529128E+03   -0.34008E-01   -0.25376E-01  7696   0.212E+01 0.121E+01
CGA:  21    -0.335076816707E+03   -0.20288E-01   -0.17337E-01  7696   0.115E+01 0.407E+00
CGA:  22    -0.335092438681E+03   -0.15622E-01   -0.14653E-01  7696   0.194E+01 0.715E-01
CGA:  23    -0.335118165143E+03   -0.25726E-01   -0.23410E-01  7696   0.407E+01 0.157E+00
CGA:  24    -0.335155677183E+03   -0.37512E-01   -0.35533E-01  7696   0.423E+01 0.225E+00
CGA:  25    -0.335181540316E+03   -0.25863E-01   -0.26129E-01  7696   0.243E+01-0.319E-01
CGA:  26    -0.335196414358E+03   -0.14874E-01   -0.16672E-01  7696   0.219E+01-0.210E+00
CGA:  27    -0.335211662932E+03   -0.15249E-01   -0.20813E-01  7696   0.193E+01-0.335E+00
CGA:  28    -0.335221179089E+03   -0.95162E-02   -0.10517E-01  7696   0.532E+00-0.121E+00
CGA:  29    -0.335224870155E+03   -0.36911E-02   -0.38202E-02  7696   0.418E+00-0.132E-01
CGA:  30    -0.335234115922E+03   -0.92458E-02   -0.92725E-02  7696   0.133E+01 0.378E-02
CGA:  31    -0.335252297092E+03   -0.18181E-01   -0.17144E-01  7696   0.981E+00 0.427E-01
CGA:  32    -0.335259550210E+03   -0.72531E-02   -0.72467E-02  7696   0.430E+00 0.191E-03
CGA:  33    -0.335264260539E+03   -0.47103E-02   -0.47142E-02  7696   0.470E+00-0.110E-03
CGA:  34    -0.335269749935E+03   -0.54894E-02   -0.54454E-02  7696   0.433E+00 0.223E-02
CGA:  35    -0.335274107617E+03   -0.43577E-02   -0.42722E-02  7696   0.428E+00 0.545E-02
CGA:  36    -0.335280265134E+03   -0.61575E-02   -0.61303E-02  7696   0.694E+00 0.159E-03
CGA:  37    -0.335287287422E+03   -0.70223E-02   -0.68276E-02  7696   0.489E+00 0.118E-01
CGA:  38    -0.335290896666E+03   -0.36092E-02   -0.35817E-02  7696   0.276E+00 0.272E-02
CGA:  39    -0.335293450099E+03   -0.25534E-02   -0.26649E-02  7696   0.238E+00-0.617E-02
SDA:  40    -0.335295484587E+03   -0.20345E-02   -0.21380E-02  7696   0.120E+00-0.612E-02
CGA:  41    -0.335297596272E+03   -0.21117E-02   -0.21128E-02  7696   0.930E-01 0.304E-03
CGA:  42    -0.335302478556E+03   -0.48823E-02   -0.48830E-02  7696   0.150E+00-0.489E-04
CGA:  43    -0.335305791358E+03   -0.33128E-02   -0.33105E-02  7696   0.540E-01 0.110E-02
CGA:  44    -0.335306856064E+03   -0.10647E-02   -0.10641E-02  7696   0.342E-01-0.173E-03
CGA:  45    -0.335309419050E+03   -0.25630E-02   -0.25060E-02  7696   0.361E-01 0.125E-02
CGA:  46    -0.335310546022E+03   -0.11270E-02   -0.11227E-02  7696   0.186E-01 0.482E-03
CGA:  47    -0.335311210828E+03   -0.66481E-03   -0.66777E-03  7696   0.357E-01-0.218E-03
CGA:  48    -0.335312069570E+03   -0.85874E-03   -0.85875E-03  7696   0.204E-01-0.248E-03
CGA:  49    -0.335313729053E+03   -0.16595E-02   -0.16552E-02  7696   0.194E-01 0.117E-03
CGA:  50    -0.335313927994E+03   -0.19894E-03   -0.19830E-03  7696   0.313E-02-0.297E-05
CGA:  51    -0.335314361587E+03   -0.43359E-03   -0.30876E-05  7696   0.206E-01-0.608E-03
CGA:  52    -0.335314721189E+03   -0.35960E-03   -0.36013E-03  7696   0.106E-01-0.254E-04
CGA:  53    -0.335314895291E+03   -0.17410E-03   -0.17362E-03  7696   0.535E-02 0.250E-04
CGA:  54    -0.335315088300E+03   -0.19301E-03   -0.19421E-03  7696   0.500E-02 0.432E-04
CGA:  55    -0.335315191316E+03   -0.10302E-03   -0.10394E-03  7696   0.425E-02-0.790E-05
CGA:  56    -0.335315349225E+03   -0.15791E-03   -0.15799E-03  7696   0.570E-02 0.131E-04
CGA:  57    -0.335315454447E+03   -0.10522E-03   -0.10467E-03  7696   0.152E-02 0.407E-04
CGA:  58    -0.335315494501E+03   -0.40054E-04   -0.40185E-04  7696   0.224E-02 0.596E-05
CGA:  59    -0.335315618411E+03   -0.12391E-03   -0.12356E-03  7696   0.529E-02 0.227E-04
CGA:  60    -0.335315710446E+03   -0.92035E-04   -0.92220E-04  7696   0.116E-02 0.177E-04
CGA:  61    -0.335315737454E+03   -0.27008E-04   -0.27059E-04  7696   0.105E-02 0.376E-05
CGA:  62    -0.335315780509E+03   -0.43055E-04   -0.43049E-04  7696   0.220E-02 0.644E-05
CGA:  63    -0.335315830488E+03   -0.49979E-04   -0.50224E-04  7696   0.833E-03 0.110E-04
CGA:  64    -0.335315846708E+03   -0.16220E-04   -0.16326E-04  7696   0.382E-03 0.268E-05
CGA:  65    -0.335315861152E+03   -0.14443E-04   -0.14443E-04  7696   0.819E-03-0.173E-06
CGA:  66    -0.335315883178E+03   -0.22027E-04   -0.22021E-04  7696   0.527E-03-0.248E-05
CGA:  67    -0.335315898651E+03   -0.15473E-04   -0.15430E-04  7696   0.504E-03-0.502E-05
CGA:  68    -0.335315912570E+03   -0.13919E-04   -0.13853E-04  7696   0.335E-03-0.576E-05
CGA:  69    -0.335315919003E+03   -0.64328E-05   -0.63993E-05  7696   0.285E-03-0.226E-05
CGA:  70    -0.335315940125E+03   -0.21122E-04   -0.21445E-04  7696   0.896E-03-0.844E-05
SDA:  71    -0.335315956791E+03   -0.16666E-04   -0.16591E-04  7696   0.156E-03-0.626E-05
CGA:  72    -0.335315959877E+03   -0.30863E-05   -0.30975E-05  7696   0.104E-03 0.480E-06
  12 F= -.33531596E+03 E0= -.33528799E+03  d E =-.188185E+00  mag=    32.0000
       N       E                     dE             d eps       ncg     rms          ort
SDA:   1    -0.334460057199E+03    0.85590E+00    0.00000E+00  7696   0.513E+01 0.000E+00
CGA:   2    -0.334552052665E+03   -0.91995E-01   -0.91519E-01  7696   0.414E+01-0.743E-02
CGA:   3    -0.334753092334E+03   -0.20104E+00   -0.20698E+00  7696   0.105E+02-0.317E+00
CGA:   4    -0.335091464002E+03   -0.33837E+00   -0.33852E+00  7696   0.225E+01 0.659E-01
CGA:   5    -0.335132598653E+03   -0.41135E-01   -0.40194E-01  7696   0.119E+01 0.299E-01
CGA:   6    -0.335223721283E+03   -0.91123E-01   -0.88298E-01  7696   0.216E+01 0.748E-01
CGA:   7    -0.335288994653E+03   -0.65273E-01   -0.64292E-01  7696   0.815E+00-0.196E-01
CGA:   8    -0.335298768534E+03   -0.97739E-02   -0.91373E-02  7696   0.168E+00 0.438E-01
CGA:   9    -0.335307518760E+03   -0.87502E-02   -0.87159E-02  7696   0.490E+00 0.197E-02
CGA:  10    -0.335323337834E+03   -0.15819E-01   -0.15823E-01  7696   0.289E+00 0.315E-03
CGA:  11    -0.335327202409E+03   -0.38646E-02   -0.38395E-02  7696   0.631E-01 0.124E-02
CGA:  12    -0.335328432181E+03   -0.12298E-02   -0.12443E-02  7696   0.464E-01-0.242E-03
CGA:  13    -0.335331050859E+03   -0.26187E-02   -0.26088E-02  7696   0.838E-01 0.385E-03
CGA:  14    -0.335332464555E+03   -0.14137E-02   -0.14067E-02  7696   0.446E-01 0.234E-03
CGA:  15    -0.335333651630E+03   -0.11871E-02   -0.11907E-02  7696   0.206E-01 0.110E-03
CGA:  16    -0.335334293636E+03   -0.64201E-03   -0.64113E-03  7696   0.256E-01-0.138E-03
CGA:  17    -0.335334751383E+03   -0.45775E-03   -0.45484E-03  7696   0.141E-01 0.495E-04
CGA:  18    -0.335335353908E+03   -0.60253E-03   -0.60183E-03  7696   0.172E-01 0.525E-04
CGA:  19    -0.335335614889E+03   -0.26098E-03   -0.26144E-03  7696   0.442E-02-0.980E-05
CGA:  20    -0.335335725453E+03   -0.11056E-03   -0.11054E-03  7696   0.651E-02 0.682E-07
CGA:  21    -0.335336073419E+03   -0.34797E-03   -0.34699E-03  7696   0.118E-01 0.424E-04
CGA:  22    -0.335336325788E+03   -0.25237E-03   -0.25209E-03  7696   0.322E-02 0.153E-04
CGA:  23    -0.335336367737E+03   -0.41949E-04   -0.41923E-04  7696   0.134E-02 0.285E-05
CGA:  24    -0.335336438970E+03   -0.71233E-04   -0.70969E-04  7696   0.246E-02 0.114E-04
CGA:  25    -0.335336531618E+03   -0.92648E-04   -0.92654E-04  7696   0.415E-02-0.801E-06
CGA:  26    -0.335336607537E+03   -0.75920E-04   -0.75664E-04  7696   0.148E-02-0.141E-05
CGA:  27    -0.335336653741E+03   -0.46203E-04   -0.46201E-04  7696   0.141E-02-0.160E-05
CGA:  28    -0.335336680141E+03   -0.26400E-04   -0.26361E-04  7696   0.673E-03 0.512E-06
CGA:  29    -0.335336705254E+03   -0.25113E-04   -0.25113E-04  7696   0.157E-02-0.183E-06
CGA:  30    -0.335336749113E+03   -0.43860E-04   -0.43889E-04  7696   0.471E-03 0.571E-05
CGA:  31    -0.335336759479E+03   -0.10365E-04   -0.10386E-04  7696   0.433E-03 0.167E-05
SDA:  32    -0.335336771598E+03   -0.12119E-04   -0.12119E-04  7696   0.634E-03-0.137E-06
CGA:  33    -0.335336781116E+03   -0.95177E-05   -0.95240E-05  7696   0.214E-03-0.362E-06
  13 F= -.33533678E+03 E0= -.33530905E+03  d E =-.208212E-01  mag=    32.0000
       N       E                     dE             d eps       ncg     rms          ort
SDA:   1    -0.335268184544E+03    0.68587E-01    0.00000E+00  7696   0.379E+01 0.000E+00
CGA:   2    -0.335303704329E+03   -0.35520E-01   -0.32986E-01  7696   0.181E+00 0.226E+00
CGA:   3    -0.335308056346E+03   -0.43520E-02   -0.43732E-02  7696   0.159E+00 0.867E-03
CGA:   4    -0.335315179715E+03   -0.71234E-02   -0.71505E-02  7696   0.455E+00-0.144E-02
CGA:   5    -0.335328701869E+03   -0.13522E-01   -0.13524E-01  7696   0.228E+00-0.102E-02
CGA:   6    -0.335331734923E+03   -0.30331E-02   -0.30867E-02  7696   0.572E-01-0.222E-02
CGA:   7    -0.335333516518E+03   -0.17816E-02   -0.17801E-02  7696   0.702E-01 0.324E-03
CGA:   8    -0.335335844250E+03   -0.23277E-02   -0.23312E-02  7696   0.105E+00-0.516E-03
CGA:   9    -0.335337844728E+03   -0.20005E-02   -0.20003E-02  7696   0.197E-01-0.146E-04
CGA:  10    -0.335338473982E+03   -0.62925E-03   -0.62751E-03  7696   0.218E-01 0.316E-03
CGA:  11    -0.335338800586E+03   -0.32660E-03   -0.32770E-03  7696   0.646E-02-0.327E-04
CGA:  12    -0.335339390960E+03   -0.59037E-03   -0.59104E-03  7696   0.125E-01-0.107E-04
CGA:  13    -0.335339569236E+03   -0.17828E-03   -0.17861E-03  7696   0.224E-02-0.983E-05
CGA:  14    -0.335339647737E+03   -0.78501E-04   -0.78487E-04  7696   0.288E-02 0.132E-05
CGA:  15    -0.335339737772E+03   -0.90035E-04   -0.90036E-04  7696   0.405E-02-0.163E-05
CGA:  16    -0.335339833973E+03   -0.96201E-04   -0.96091E-04  7696   0.395E-03-0.839E-05
CGA:  17    -0.335339863743E+03   -0.29771E-04   -0.29714E-04  7696   0.163E-02 0.123E-05
CGA:  18    -0.335339911002E+03   -0.47259E-04   -0.47272E-04  7696   0.110E-02 0.366E-05
CGA:  19    -0.335339928600E+03   -0.17597E-04   -0.17574E-04  7696   0.163E-03 0.538E-06
CGA:  20    -0.335339934119E+03   -0.55191E-05   -0.55194E-05  7696   0.304E-03-0.284E-06
CGA:  21    -0.335339949773E+03   -0.15654E-04   -0.15705E-04  7696   0.226E-03-0.247E-05
CGA:  22    -0.335339955917E+03   -0.61438E-05   -0.61474E-05  7696   0.111E-03 0.604E-06
  14 F= -.33533996E+03 E0= -.33531221E+03  d E =-.317480E-02  mag=    32.0000
       N       E                     dE             d eps       ncg     rms          ort
SDA:   1    -0.334851391836E+03    0.48856E+00    0.00000E+00  7696   0.423E+02 0.000E+00
CGA:   2    -0.335222005090E+03   -0.37061E+00   -0.40322E+00  7696   0.115E+01-0.445E+01
CGA:   3    -0.335235649176E+03   -0.13644E-01   -0.14295E-01  7696   0.415E+00-0.275E-01
CGA:   4    -0.335265360861E+03   -0.29712E-01   -0.29933E-01  7696   0.150E+01-0.562E-02
CGA:   5    -0.335316159710E+03   -0.50799E-01   -0.50751E-01  7696   0.650E+00 0.127E-01
CGA:   6    -0.335327210169E+03   -0.11050E-01   -0.10498E-01  7696   0.122E+00 0.175E-01
CGA:   7    -0.335330390734E+03   -0.31806E-02   -0.31814E-02  7696   0.146E+00 0.478E-04
CGA:   8    -0.335338695152E+03   -0.83044E-02   -0.83490E-02  7696   0.161E+00-0.163E-02
CGA:   9    -0.335341243624E+03   -0.25485E-02   -0.25594E-02  7696   0.275E-01-0.317E-03
CGA:  10    -0.335342245745E+03   -0.10021E-02   -0.10021E-02  7696   0.490E-01 0.378E-05
CGA:  11    -0.335343786777E+03   -0.15410E-02   -0.15412E-02  7696   0.246E-01 0.210E-03
CGA:  12    -0.335344235910E+03   -0.44913E-03   -0.44659E-03  7696   0.758E-02 0.251E-04
CGA:  13    -0.335344470182E+03   -0.23427E-03   -0.23426E-03  7696   0.664E-02-0.177E-04
CGA:  14    -0.335344669178E+03   -0.19900E-03   -0.19895E-03  7696   0.588E-02-0.229E-04
CGA:  15    -0.335344855383E+03   -0.18621E-03   -0.18619E-03  7696   0.671E-02 0.107E-04
CGA:  16    -0.335345038831E+03   -0.18345E-03   -0.18357E-03  7696   0.206E-02 0.116E-04
CGA:  17    -0.335345075878E+03   -0.37047E-04   -0.37017E-04  7696   0.841E-03 0.314E-08
CGA:  18    -0.335345123732E+03   -0.47854E-04   -0.48012E-04  7696   0.231E-02-0.589E-05
CGA:  19    -0.335345183919E+03   -0.60188E-04   -0.60185E-04  7696   0.711E-03-0.867E-06
CGA:  20    -0.335345196179E+03   -0.12260E-04   -0.12248E-04  7696   0.287E-03-0.477E-06
CGA:  21    -0.335345215195E+03   -0.19016E-04   -0.18857E-04  7696   0.784E-03 0.451E-05
CGA:  22    -0.335345237164E+03   -0.21968E-04   -0.21972E-04  7696   0.359E-03 0.103E-05
CGA:  23    -0.335345243835E+03   -0.66715E-05   -0.66811E-05  7696   0.166E-03 0.666E-06
  15 F= -.33534524E+03 E0= -.33531746E+03  d E =-.528792E-02  mag=    32.0000
       N       E                     dE             d eps       ncg     rms          ort
SDA:   1    -0.335160771797E+03    0.18447E+00    0.00000E+00  7696   0.316E+01 0.000E+00
CGA:   2    -0.335194175786E+03   -0.33404E-01   -0.34065E-01  7696   0.518E+00-0.501E-01
CGA:   3    -0.335226044464E+03   -0.31869E-01   -0.31785E-01  7696   0.173E+01 0.246E-02
CGA:   4    -0.335286811579E+03   -0.60767E-01   -0.60846E-01  7696   0.205E+01-0.176E-01
CGA:   5    -0.335328002962E+03   -0.41191E-01   -0.42944E-01  7696   0.148E+00-0.595E-02
CGA:   6    -0.335334852670E+03   -0.68497E-02   -0.67007E-02  7696   0.179E+00 0.868E-02
CGA:   7    -0.335339927647E+03   -0.50750E-02   -0.50658E-02  7696   0.151E+00-0.452E-03
CGA:   8    -0.335346232804E+03   -0.63052E-02   -0.62923E-02  7696   0.104E+00 0.973E-03
CGA:   9    -0.335348796354E+03   -0.25636E-02   -0.25314E-02  7696   0.152E-01-0.539E-03
CGA:  10    -0.335349551543E+03   -0.75519E-03   -0.75457E-03  7696   0.232E-01 0.303E-04
CGA:  11    -0.335350355846E+03   -0.80430E-03   -0.80428E-03  7696   0.197E-01 0.116E-04
CGA:  12    -0.335350745403E+03   -0.38956E-03   -0.39122E-03  7696   0.429E-02-0.715E-05
CGA:  13    -0.335350909933E+03   -0.16453E-03   -0.16457E-03  7696   0.939E-02-0.550E-05
CGA:  14    -0.335351169810E+03   -0.25988E-03   -0.25982E-03  7696   0.440E-02-0.316E-05
CGA:  15    -0.335351305405E+03   -0.13560E-03   -0.13559E-03  7696   0.170E-02-0.919E-06
CGA:  16    -0.335351354525E+03   -0.49120E-04   -0.49078E-04  7696   0.106E-02-0.547E-05
CGA:  17    -0.335351386922E+03   -0.32397E-04   -0.32397E-04  7696   0.117E-02-0.255E-06
CGA:  18    -0.335351449099E+03   -0.62177E-04   -0.62161E-04  7696   0.112E-02 0.966E-06
CGA:  19    -0.335351475228E+03   -0.26130E-04   -0.26153E-04  7696   0.482E-03 0.183E-05
CGA:  20    -0.335351482761E+03   -0.75328E-05   -0.75653E-05  7696   0.236E-03 0.128E-05
CGA:  21    -0.335351506290E+03   -0.23528E-04   -0.23591E-04  7696   0.461E-03-0.991E-06
CGA:  22    -0.335351515679E+03   -0.93897E-05   -0.94116E-05  7696   0.178E-03 0.955E-06
  16 F= -.33535152E+03 E0= -.33532371E+03  d E =-.627184E-02  mag=    32.0000
       N       E                     dE             d eps       ncg     rms          ort
SDA:   1    -0.322135510392E+03    0.13216E+02    0.00000E+00  7696   0.282E+03 0.000E+00
CGA:   2    -0.324667530385E+03   -0.25320E+01   -0.46411E+01  7696   0.116E+03-0.977E+02
CGA:   3    -0.326849082371E+03   -0.21816E+01   -0.21344E+01  7696   0.731E+02-0.225E+01
CGA:   4    -0.328682256009E+03   -0.18332E+01   -0.18984E+01  7696   0.594E+02 0.217E+01
CGA:   5    -0.330588926545E+03   -0.19067E+01   -0.19242E+01  7696   0.575E+02 0.544E+01
CGA:   6    -0.332848678598E+03   -0.22598E+01   -0.24655E+01  7696   0.757E+02-0.223E+02
CGA:   7    -0.334355076627E+03   -0.15064E+01   -0.15061E+01  7696   0.330E+02-0.218E+00
CGA:   8    -0.334694363622E+03   -0.33929E+00   -0.40358E+00  7696   0.462E+01-0.380E+01
CGA:   9    -0.334797307027E+03   -0.10294E+00   -0.99839E-01  7696   0.551E+01-0.752E-01
CGA:  10    -0.335051220111E+03   -0.25391E+00   -0.25121E+00  7696   0.883E+01 0.157E+00
CGA:  11    -0.335218991348E+03   -0.16777E+00   -0.17815E+00  7696   0.336E+01-0.134E+00
CGA:  12    -0.335264869716E+03   -0.45878E-01   -0.45502E-01  7696   0.751E+00 0.162E-01
CGA:  13    -0.335300199973E+03   -0.35330E-01   -0.35475E-01  7696   0.903E+00-0.892E-02
CGA:  14    -0.335325396327E+03   -0.25196E-01   -0.25185E-01  7696   0.879E+00-0.114E-02
CGA:  15    -0.335344721581E+03   -0.19325E-01   -0.19595E-01  7696   0.671E+00 0.350E-02
CGA:  16    -0.335360073052E+03   -0.15351E-01   -0.15898E-01  7696   0.148E+00 0.153E-01
CGA:  17    -0.335366926865E+03   -0.68538E-02   -0.69788E-02  7696   0.276E+00-0.681E-02
CGA:  18    -0.335374105947E+03   -0.71791E-02   -0.72243E-02  7696   0.249E+00 0.412E-02
CGA:  19    -0.335379327972E+03   -0.52220E-02   -0.52757E-02  7696   0.550E-01 0.280E-03
CGA:  20    -0.335380871861E+03   -0.15439E-02   -0.15441E-02  7696   0.820E-01 0.170E-04
CGA:  21    -0.335384666698E+03   -0.37948E-02   -0.37728E-02  7696   0.831E-01 0.113E-02
CGA:  22    -0.335386389314E+03   -0.17226E-02   -0.17460E-02  7696   0.233E-01 0.161E-04
CGA:  23    -0.335386860955E+03   -0.47164E-03   -0.47063E-03  7696   0.201E-01-0.822E-05
CGA:  24    -0.335387834012E+03   -0.97306E-03   -0.97676E-03  7696   0.211E-01-0.182E-03
CGA:  25    -0.335388684110E+03   -0.85010E-03   -0.84772E-03  7696   0.356E-01 0.172E-03
CGA:  26    -0.335389497276E+03   -0.81317E-03   -0.81411E-03  7696   0.142E-01 0.581E-04
CGA:  27    -0.335389833806E+03   -0.33653E-03   -0.33720E-03  7696   0.522E-02 0.348E-04
CGA:  28    -0.335389971998E+03   -0.13819E-03   -0.13835E-03  7696   0.732E-02 0.209E-04
CGA:  29    -0.335390413578E+03   -0.44158E-03   -0.44064E-03  7696   0.975E-02 0.311E-04
CGA:  30    -0.335390623942E+03   -0.21036E-03   -0.21053E-03  7696   0.355E-02 0.171E-04
CGA:  31    -0.335390697950E+03   -0.74008E-04   -0.74129E-04  7696   0.314E-02 0.573E-05
SDA:  32    -0.335390929576E+03   -0.23163E-03   -0.22957E-03  7696   0.395E-02 0.505E-04
CGA:  33    -0.335390977312E+03   -0.47736E-04   -0.47444E-04  7696   0.111E-02 0.100E-04
CGA:  34    -0.335391004123E+03   -0.26811E-04   -0.26791E-04  7696   0.824E-03-0.177E-05
CGA:  35    -0.335391064096E+03   -0.59973E-04   -0.60168E-04  7696   0.154E-02-0.524E-05
CGA:  36    -0.335391144313E+03   -0.80218E-04   -0.80151E-04  7696   0.235E-02 0.357E-05
CGA:  37    -0.335391198750E+03   -0.54437E-04   -0.54627E-04  7696   0.107E-02 0.631E-05
CGA:  38    -0.335391217030E+03   -0.18280E-04   -0.18283E-04  7696   0.354E-03 0.184E-05
CGA:  39    -0.335391230348E+03   -0.13318E-04   -0.13301E-04  7696   0.883E-03 0.388E-05
CGA:  40    -0.335391286394E+03   -0.56047E-04   -0.55458E-04  7696   0.149E-03 0.203E-04
CGA:  41    -0.335391311068E+03   -0.24674E-04   -0.24232E-04  7696   0.107E-02 0.339E-05
CGA:  42    -0.335391332742E+03   -0.21674E-04   -0.21735E-04  7696   0.152E-03 0.178E-05
CGA:  43    -0.335391337718E+03   -0.49762E-05   -0.49767E-05  7696   0.367E-03-0.167E-07
CGA:  44    -0.335391361043E+03   -0.23325E-04   -0.23439E-04  7696   0.487E-03-0.479E-05
CGA:  45    -0.335391372533E+03   -0.11490E-04   -0.11474E-04  7696   0.110E-03-0.147E-05
CGA:  46    -0.335391376504E+03   -0.39713E-05   -0.39669E-05  7696   0.126E-03-0.109E-05
  17 F= -.33539138E+03 E0= -.33536335E+03  d E =-.398608E-01  mag=    32.0000
       N       E                     dE             d eps       ncg     rms          ort
SDA:   1    -0.308386581299E+03    0.27005E+02    0.00000E+00  7696   0.550E+03 0.000E+00
CGA:   2    -0.313774240381E+03   -0.53877E+01   -0.11069E+02  7696   0.267E+03-0.192E+03
CGA:   3    -0.318281296392E+03   -0.45071E+01   -0.42961E+01  7696   0.284E+03 0.125E+02
CGA:   4    -0.320067288313E+03   -0.17860E+01   -0.28219E+01  7696   0.338E+03-0.252E+03
CGA:   5    -0.321874688891E+03   -0.18074E+01   -0.59701E+01  7696   0.947E+02-0.390E+02
CGA:   6    -0.324028573019E+03   -0.21539E+01   -0.13290E+01  7696   0.426E+02 0.369E+02
CGA:   7    -0.324735380648E+03   -0.70681E+00   -0.49835E+00  7696   0.432E+02 0.196E+02
CGA:   8    -0.325996675930E+03   -0.12613E+01   -0.13506E+01  7696   0.192E+03-0.161E-01
CGA:   9    -0.328033520697E+03   -0.20368E+01   -0.19053E+01  7696   0.363E+03 0.200E+01
CGA:  10    -0.330473946472E+03   -0.24404E+01   -0.31101E+01  7696   0.419E+03-0.531E+02
CGA:  11    -0.331980781288E+03   -0.15068E+01   -0.18004E+01  7696   0.112E+03-0.633E+02
CGA:  12    -0.332071437611E+03   -0.90656E-01   -0.59077E+00  7696   0.325E+02-0.735E+02
CGA:  13    -0.333026380536E+03   -0.95494E+00   -0.72346E+00  7696   0.585E+02 0.745E+01
CGA:  14    -0.333184747686E+03   -0.15837E+00   -0.13745E+00  7696   0.567E+02-0.255E+01
CGA:  15    -0.333202091577E+03   -0.17344E-01   -0.81956E-01  7696   0.692E+02-0.486E+02
CGA:  16    -0.333710876158E+03   -0.50878E+00   -0.68096E+00  7696   0.103E+02-0.107E+02
CGA:  17    -0.334013181020E+03   -0.30230E+00   -0.31422E+00  7696   0.209E+02-0.840E+00
CGA:  18    -0.334809255361E+03   -0.79607E+00   -0.79351E+00  7696   0.195E+02 0.171E+00
CGA:  19    -0.335111143254E+03   -0.30189E+00   -0.30631E+00  7696   0.366E+01-0.126E+00
CGA:  20    -0.335186324408E+03   -0.75181E-01   -0.75553E-01  7696   0.201E+01 0.235E-01
CGA:  21    -0.335257268467E+03   -0.70944E-01   -0.70074E-01  7696   0.247E+01 0.689E-01
CGA:  22    -0.335331728835E+03   -0.74460E-01   -0.74302E-01  7696   0.192E+01 0.285E-01
CGA:  23    -0.335375132322E+03   -0.43403E-01   -0.43168E-01  7696   0.947E+00-0.224E-01
CGA:  24    -0.335395906261E+03   -0.20774E-01   -0.20857E-01  7696   0.352E+00 0.950E-02
CGA:  25    -0.335403681998E+03   -0.77757E-02   -0.77596E-02  7696   0.247E+00-0.148E-02
CGA:  26    -0.335415828733E+03   -0.12147E-01   -0.11990E-01  7696   0.502E+00 0.643E-02
CGA:  27    -0.335429224216E+03   -0.13395E-01   -0.13398E-01  7696   0.212E+00 0.323E-02
CGA:  28    -0.335433128712E+03   -0.39045E-02   -0.39239E-02  7696   0.730E-01 0.220E-03
CGA:  29    -0.335435423906E+03   -0.22952E-02   -0.22942E-02  7696   0.957E-01 0.117E-03
CGA:  30    -0.335439820814E+03   -0.43969E-02   -0.43905E-02  7696   0.136E+00 0.303E-03
CGA:  31    -0.335442644245E+03   -0.28234E-02   -0.28135E-02  7696   0.408E-01-0.293E-03
CGA:  32    -0.335443620177E+03   -0.97593E-03   -0.97696E-03  7696   0.341E-01 0.166E-03
CGA:  33    -0.335445386527E+03   -0.17663E-02   -0.17651E-02  7696   0.723E-01 0.509E-04
CGA:  34    -0.335447481712E+03   -0.20952E-02   -0.20944E-02  7696   0.404E-01 0.519E-03
[...]
CGA:  10    -0.335572712331E+03   -0.78405E-04   -0.78519E-04  7696   0.167E-02 0.844E-05
CGA:  11    -0.335572742276E+03   -0.29946E-04   -0.30023E-04  7696   0.688E-03-0.228E-05
CGA:  12    -0.335572819830E+03   -0.77554E-04   -0.77722E-04  7696   0.884E-03-0.213E-05
CGA:  13    -0.335572834086E+03   -0.14256E-04   -0.14273E-04  7696   0.150E-03-0.103E-05
CGA:  14    -0.335572841034E+03   -0.69480E-05   -0.69553E-05  7696   0.312E-03-0.118E-05
CGA:  15    -0.335572856915E+03   -0.15882E-04   -0.15912E-04  7696   0.138E-03-0.268E-05
CGA:  16    -0.335572859430E+03   -0.25148E-05   -0.25240E-05  7696   0.640E-04 0.230E-06
 104 F= -.33557286E+03 E0= -.33554777E+03  d E =0.355863E-03  mag=    32.0000
       N       E                     dE             d eps       ncg     rms          ort
SDA:   1    -0.335344172458E+03    0.22868E+00    0.00000E+00  7696   0.463E+01 0.000E+00
CGA:   2    -0.335396949838E+03   -0.52777E-01   -0.49920E-01  7696   0.578E+00 0.229E+00
CGA:   3    -0.335430926443E+03   -0.33977E-01   -0.33214E-01  7696   0.127E+01 0.364E-01
CGA:   4    -0.335489800597E+03   -0.58874E-01   -0.58730E-01  7696   0.174E+01 0.196E-01
CGA:   5    -0.335536975374E+03   -0.47175E-01   -0.44824E-01  7696   0.228E+00 0.907E-02
CGA:   6    -0.335542399475E+03   -0.54241E-02   -0.53416E-02  7696   0.238E+00 0.827E-03
CGA:   7    -0.335554701896E+03   -0.12302E-01   -0.12369E-01  7696   0.249E+00-0.372E-02
CGA:   8    -0.335562554070E+03   -0.78522E-02   -0.78472E-02  7696   0.119E+00-0.215E-03
CGA:   9    -0.335565382535E+03   -0.28285E-02   -0.29105E-02  7696   0.360E-01-0.280E-03
CGA:  10    -0.335566194523E+03   -0.81199E-03   -0.80892E-03  7696   0.295E-01 0.257E-04
CGA:  11    -0.335567891025E+03   -0.16965E-02   -0.16984E-02  7696   0.316E-01-0.788E-04
CGA:  12    -0.335568565926E+03   -0.67490E-03   -0.67778E-03  7696   0.102E-01-0.377E-04
CGA:  13    -0.335568814724E+03   -0.24880E-03   -0.24908E-03  7696   0.568E-02 0.114E-05
CGA:  14    -0.335569340634E+03   -0.52591E-03   -0.52415E-03  7696   0.431E-02 0.339E-04
CGA:  15    -0.335569413065E+03   -0.72431E-04   -0.72074E-04  7696   0.152E-02 0.632E-05
CGA:  16    -0.335569501940E+03   -0.88875E-04   -0.89016E-04  7696   0.365E-02-0.651E-05
CGA:  17    -0.335569622922E+03   -0.12098E-03   -0.12097E-03  7696   0.150E-02-0.521E-05
CGA:  18    -0.335569649523E+03   -0.26601E-04   -0.26631E-04  7696   0.388E-03-0.137E-05
CGA:  19    -0.335569668254E+03   -0.18732E-04   -0.18694E-04  7696   0.598E-03 0.338E-05
CGA:  20    -0.335569711160E+03   -0.42905E-04   -0.42797E-04  7696   0.575E-03 0.335E-05
CGA:  21    -0.335569722862E+03   -0.11702E-04   -0.11739E-04  7696   0.253E-03 0.114E-05
CGA:  22    -0.335569730913E+03   -0.80506E-05   -0.80413E-05  7696   0.137E-03-0.770E-06
 105 F= -.33556973E+03 E0= -.33554468E+03  d E =0.312852E-02  mag=    32.0000
       N       E                     dE             d eps       ncg     rms          ort
SDA:   1    -0.335512667175E+03    0.57056E-01    0.00000E+00  7696   0.332E+01 0.000E+00
CGA:   2    -0.335545442946E+03   -0.32776E-01   -0.33487E-01  7696   0.123E+00-0.611E-01
CGA:   3    -0.335550628922E+03   -0.51860E-02   -0.52545E-02  7696   0.131E+00-0.690E-02
CGA:   4    -0.335554959058E+03   -0.43301E-02   -0.43306E-02  7696   0.161E+00 0.108E-03
CGA:   5    -0.335563753944E+03   -0.87949E-02   -0.87785E-02  7696   0.169E+00 0.761E-03
CGA:   6    -0.335566753278E+03   -0.29993E-02   -0.30379E-02  7696   0.193E-01-0.116E-02
CGA:   7    -0.335567515736E+03   -0.76246E-03   -0.76234E-03  7696   0.389E-01 0.257E-04
CGA:   8    -0.335569252376E+03   -0.17366E-02   -0.17404E-02  7696   0.200E-01-0.340E-03
CGA:   9    -0.335569850339E+03   -0.59796E-03   -0.59899E-03  7696   0.721E-02 0.454E-04
CGA:  10    -0.335570009590E+03   -0.15925E-03   -0.15987E-03  7696   0.404E-02 0.300E-05
CGA:  11    -0.335570150230E+03   -0.14064E-03   -0.14062E-03  7696   0.351E-02-0.267E-05
CGA:  12    -0.335570291849E+03   -0.14162E-03   -0.14158E-03  7696   0.314E-02 0.103E-04
CGA:  13    -0.335570379783E+03   -0.87933E-04   -0.87967E-04  7696   0.749E-03 0.630E-05
CGA:  14    -0.335570398317E+03   -0.18534E-04   -0.18570E-04  7696   0.784E-03 0.244E-05
CGA:  15    -0.335570447999E+03   -0.49683E-04   -0.49625E-04  7696   0.398E-03 0.213E-05
CGA:  16    -0.335570457607E+03   -0.96082E-05   -0.96045E-05  7696   0.301E-03 0.151E-06
CGA:  17    -0.335570468932E+03   -0.11324E-04   -0.11325E-04  7696   0.211E-03-0.149E-06
CGA:  18    -0.335570476967E+03   -0.80354E-05   -0.80340E-05  7696   0.241E-03 0.886E-06
 106 F= -.33557048E+03 E0= -.33554546E+03  d E =-.746054E-03  mag=    32.0000
       N       E                     dE             d eps       ncg     rms          ort
SDA:   1    -0.335510602676E+03    0.59866E-01    0.00000E+00  7696   0.162E+01 0.000E+00
CGA:   2    -0.335530328468E+03   -0.19726E-01   -0.20612E-01  7696   0.230E+00-0.504E-01
CGA:   3    -0.335536150408E+03   -0.58219E-02   -0.58150E-02  7696   0.181E+00-0.110E-03
CGA:   4    -0.335549903724E+03   -0.13753E-01   -0.13892E-01  7696   0.446E+00-0.346E-02
CGA:   5    -0.335562473047E+03   -0.12569E-01   -0.12663E-01  7696   0.108E+00 0.283E-02
CGA:   6    -0.335564300591E+03   -0.18275E-02   -0.17925E-02  7696   0.326E-01 0.123E-02
CGA:   7    -0.335568967660E+03   -0.46671E-02   -0.46676E-02  7696   0.297E-01-0.697E-05
CGA:   8    -0.335569437869E+03   -0.47021E-03   -0.46816E-03  7696   0.119E-01 0.949E-04
CGA:   9    -0.335569964263E+03   -0.52639E-03   -0.52587E-03  7696   0.127E-01 0.770E-04
CGA:  10    -0.335570497498E+03   -0.53324E-03   -0.53328E-03  7696   0.568E-02-0.379E-05
CGA:  11    -0.335570629223E+03   -0.13172E-03   -0.13145E-03  7696   0.157E-02 0.691E-05
CGA:  12    -0.335570723822E+03   -0.94600E-04   -0.94433E-04  7696   0.386E-02 0.766E-05
CGA:  13    -0.335570815642E+03   -0.91819E-04   -0.92027E-04  7696   0.137E-02 0.395E-05
CGA:  14    -0.335570869474E+03   -0.53832E-04   -0.53834E-04  7696   0.474E-03-0.640E-05
CGA:  15    -0.335570880917E+03   -0.11444E-04   -0.11469E-04  7696   0.440E-03 0.121E-05
CGA:  16    -0.335570910284E+03   -0.29367E-04   -0.29282E-04  7696   0.461E-03 0.297E-05
CGA:  17    -0.335570921775E+03   -0.11491E-04   -0.11505E-04  7696   0.165E-03 0.827E-06
CGA:  18    -0.335570925790E+03   -0.40149E-05   -0.40028E-05  7696   0.118E-03-0.642E-06
 107 F= -.33557093E+03 E0= -.33554590E+03  d E =-.448823E-03  mag=    32.0000
       N       E                     dE             d eps       ncg     rms          ort
SDA:   1    -0.335536134319E+03    0.34787E-01    0.00000E+00  7696   0.167E+01 0.000E+00
CGA:   2    -0.335557397436E+03   -0.21263E-01   -0.18940E-01  7696   0.117E+00 0.159E+00
CGA:   3    -0.335559671247E+03   -0.22738E-02   -0.22173E-02  7696   0.445E-01 0.186E-02
CGA:   4    -0.335562148391E+03   -0.24771E-02   -0.24914E-02  7696   0.113E+00-0.642E-03
CGA:   5    -0.335566264309E+03   -0.41159E-02   -0.41161E-02  7696   0.134E+00 0.236E-03
CGA:   6    -0.335568893041E+03   -0.26287E-02   -0.26397E-02  7696   0.206E-01-0.234E-03
CGA:   7    -0.335569323264E+03   -0.43022E-03   -0.43208E-03  7696   0.171E-01-0.288E-04
CGA:   8    -0.335570251714E+03   -0.92845E-03   -0.93506E-03  7696   0.221E-01-0.298E-03
CGA:   9    -0.335570649571E+03   -0.39786E-03   -0.39620E-03  7696   0.936E-02 0.409E-04
CGA:  10    -0.335570918418E+03   -0.26885E-03   -0.27008E-03  7696   0.491E-02 0.528E-04
CGA:  11    -0.335571031135E+03   -0.11272E-03   -0.11281E-03  7696   0.312E-02 0.416E-05
CGA:  12    -0.335571154275E+03   -0.12314E-03   -0.12315E-03  7696   0.466E-02-0.469E-06
CGA:  13    -0.335571246831E+03   -0.92556E-04   -0.92689E-04  7696   0.509E-03 0.442E-05
CGA:  14    -0.335571264259E+03   -0.17428E-04   -0.17428E-04  7696   0.875E-03 0.258E-05
CGA:  15    -0.335571297856E+03   -0.33597E-04   -0.33591E-04  7696   0.106E-02 0.145E-05
CGA:  16    -0.335571328370E+03   -0.30514E-04   -0.30509E-04  7696   0.348E-03-0.657E-06
CGA:  17    -0.335571335001E+03   -0.66309E-05   -0.66215E-05  7696   0.113E-03-0.353E-06
 108 F= -.33557134E+03 E0= -.33554630E+03  d E =-.409211E-03  mag=    32.0000
       N       E                     dE             d eps       ncg     rms          ort
SDA:   1    -0.334890933989E+03    0.68039E+00    0.00000E+00  7696   0.736E+01 0.000E+00
CGA:   2    -0.334982559545E+03   -0.91626E-01   -0.86860E-01  7696   0.192E+01 0.299E+00
CGA:   3    -0.335166938292E+03   -0.18438E+00   -0.19805E+00  7696   0.916E+01-0.238E+00
CGA:   4    -0.335350056515E+03   -0.18312E+00   -0.18645E+00  7696   0.572E+01-0.982E-02
CGA:   5    -0.335441059401E+03   -0.91003E-01   -0.95381E-01  7696   0.949E+00-0.132E+00
CGA:   6    -0.335468471075E+03   -0.27412E-01   -0.26904E-01  7696   0.127E+01-0.307E-01
CGA:   7    -0.335501032999E+03   -0.32562E-01   -0.31385E-01  7696   0.124E+01-0.210E-01
CGA:   8    -0.335525970420E+03   -0.24937E-01   -0.25077E-01  7696   0.111E+01-0.117E-02
CGA:   9    -0.335547137088E+03   -0.21167E-01   -0.21282E-01  7696   0.541E+00-0.118E-02
CGA:  10    -0.335554343867E+03   -0.72068E-02   -0.72066E-02  7696   0.196E+00 0.299E-03
CGA:  11    -0.335558364041E+03   -0.40202E-02   -0.41137E-02  7696   0.147E+00 0.215E-03
CGA:  12    -0.335561702615E+03   -0.33386E-02   -0.33524E-02  7696   0.159E+00 0.358E-03
CGA:  13    -0.335566869546E+03   -0.51669E-02   -0.51738E-02  7696   0.121E+00-0.180E-02
CGA:  14    -0.335568511343E+03   -0.16418E-02   -0.16366E-02  7696   0.405E-01 0.232E-03
CGA:  15    -0.335569359063E+03   -0.84772E-03   -0.84662E-03  7696   0.315E-01-0.460E-05
CGA:  16    -0.335570399367E+03   -0.10403E-02   -0.10386E-02  7696   0.588E-01 0.289E-03
CGA:  17    -0.335571814286E+03   -0.14149E-02   -0.14163E-02  7696   0.247E-01 0.815E-04
CGA:  18    -0.335572311517E+03   -0.49723E-03   -0.49492E-03  7696   0.205E-01-0.135E-04
CGA:  19    -0.335572695962E+03   -0.38445E-03   -0.38048E-03  7696   0.591E-02-0.134E-05
CGA:  20    -0.335572805210E+03   -0.10925E-03   -0.10918E-03  7696   0.602E-02-0.288E-05
CGA:  21    -0.335573044399E+03   -0.23919E-03   -0.23973E-03  7696   0.963E-02-0.377E-04
CGA:  22    -0.335573252373E+03   -0.20797E-03   -0.20795E-03  7696   0.786E-02-0.525E-05
CGA:  23    -0.335573393974E+03   -0.14160E-03   -0.14198E-03  7696   0.250E-02-0.184E-06
CGA:  24    -0.335573431556E+03   -0.37582E-04   -0.37695E-04  7696   0.145E-02 0.734E-06
CGA:  25    -0.335573490290E+03   -0.58733E-04   -0.58792E-04  7696   0.288E-02-0.375E-05
CGA:  26    -0.335573548278E+03   -0.57988E-04   -0.57872E-04  7696   0.167E-02-0.378E-05
CGA:  27    -0.335573586965E+03   -0.38687E-04   -0.38695E-04  7696   0.140E-02 0.227E-05
CGA:  28    -0.335573611483E+03   -0.24518E-04   -0.24619E-04  7696   0.627E-03 0.445E-05
CGA:  29    -0.335573624161E+03   -0.12678E-04   -0.12694E-04  7696   0.420E-03 0.204E-05
CGA:  30    -0.335573635487E+03   -0.11326E-04   -0.11326E-04  7696   0.690E-03-0.231E-06
CGA:  31    -0.335573663290E+03   -0.27803E-04   -0.27804E-04  7696   0.703E-03-0.937E-07
SDA:  32    -0.335573672773E+03   -0.94837E-05   -0.94912E-05  7696   0.256E-03 0.593E-07
 109 F= -.33557367E+03 E0= -.33554866E+03  d E =-.233777E-02  mag=    32.0000
       N       E                     dE             d eps       ncg     rms          ort
SDA:   1    -0.335459000914E+03    0.11466E+00    0.00000E+00  7696   0.123E+01 0.000E+00
CGA:   2    -0.335476600217E+03   -0.17599E-01   -0.18013E-01  7696   0.403E+00-0.986E-02
CGA:   3    -0.335521010604E+03   -0.44410E-01   -0.44583E-01  7696   0.114E+01-0.247E-02
CGA:   4    -0.335544661662E+03   -0.23651E-01   -0.23518E-01  7696   0.191E+00-0.922E-03
CGA:   5    -0.335549754320E+03   -0.50927E-02   -0.50894E-02  7696   0.236E+00-0.469E-03
CGA:   6    -0.335564770463E+03   -0.15016E-01   -0.15157E-01  7696   0.192E+00-0.421E-02
CGA:   7    -0.335569530040E+03   -0.47596E-02   -0.48059E-02  7696   0.500E-01 0.243E-02
CGA:   8    -0.335570615984E+03   -0.10859E-02   -0.10847E-02  7696   0.332E-01-0.124E-04
CGA:   9    -0.335572975795E+03   -0.23598E-02   -0.23422E-02  7696   0.403E-01 0.463E-03
CGA:  10    -0.335573828701E+03   -0.85291E-03   -0.85373E-03  7696   0.200E-01-0.140E-04
CGA:  11    -0.335574398965E+03   -0.57026E-03   -0.56850E-03  7696   0.464E-02-0.214E-03
CGA:  12    -0.335574580639E+03   -0.18167E-03   -0.18170E-03  7696   0.786E-02-0.265E-05
CGA:  13    -0.335574947913E+03   -0.36727E-03   -0.36720E-03  7696   0.385E-02 0.348E-05
CGA:  14    -0.335575015351E+03   -0.67438E-04   -0.67509E-04  7696   0.132E-02-0.262E-05
CGA:  15    -0.335575111031E+03   -0.95680E-04   -0.95572E-04  7696   0.355E-02 0.272E-05
CGA:  16    -0.335575194453E+03   -0.83422E-04   -0.83389E-04  7696   0.632E-03-0.792E-06
CGA:  17    -0.335575213793E+03   -0.19340E-04   -0.19354E-04  7696   0.400E-03 0.385E-05
CGA:  18    -0.335575229601E+03   -0.15808E-04   -0.15809E-04  7696   0.651E-03-0.134E-06
CGA:  19    -0.335575260217E+03   -0.30615E-04   -0.30623E-04  7696   0.463E-03-0.509E-06
CGA:  20    -0.335575272169E+03   -0.11952E-04   -0.11945E-04  7696   0.287E-03-0.598E-06
CGA:  21    -0.335575279039E+03   -0.68708E-05   -0.68686E-05  7696   0.924E-04 0.125E-06
 110 F= -.33557528E+03 E0= -.33555025E+03  d E =-.160627E-02  mag=    32.0000
       N       E                     dE             d eps       ncg     rms          ort
SDA:   1    -0.335507389526E+03    0.67883E-01    0.00000E+00  7696   0.268E+01 0.000E+00
CGA:   2    -0.335534830249E+03   -0.27441E-01   -0.30356E-01  7696   0.204E+00-0.202E+00
CGA:   3    -0.335542792061E+03   -0.79618E-02   -0.79319E-02  7696   0.335E+00 0.279E-02
CGA:   4    -0.335555671376E+03   -0.12879E-01   -0.12885E-01  7696   0.313E+00-0.112E-02
CGA:   5    -0.335564596143E+03   -0.89248E-02   -0.89283E-02  7696   0.105E+00 0.158E-03
CGA:   6    -0.335567158543E+03   -0.25624E-02   -0.25456E-02  7696   0.653E-01-0.744E-04
CGA:   7    -0.335571144474E+03   -0.39859E-02   -0.39540E-02  7696   0.915E-01 0.114E-02
CGA:   8    -0.335573452686E+03   -0.23082E-02   -0.23038E-02  7696   0.426E-01-0.318E-04
CGA:   9    -0.335574549039E+03   -0.10964E-02   -0.10924E-02  7696   0.150E-01-0.586E-04
CGA:  10    -0.335574902263E+03   -0.35322E-03   -0.35369E-03  7696   0.101E-01-0.241E-05
CGA:  11    -0.335575611975E+03   -0.70971E-03   -0.70985E-03  7696   0.137E-01-0.308E-05
CGA:  12    -0.335575873252E+03   -0.26128E-03   -0.26161E-03  7696   0.247E-02-0.948E-05
CGA:  13    -0.335575947551E+03   -0.74299E-04   -0.74274E-04  7696   0.205E-02-0.301E-05
CGA:  14    -0.335576027788E+03   -0.80237E-04   -0.80259E-04  7696   0.275E-02-0.396E-05
CGA:  15    -0.335576122256E+03   -0.94469E-04   -0.94475E-04  7696   0.971E-03 0.592E-05
CGA:  16    -0.335576141712E+03   -0.19456E-04   -0.19436E-04  7696   0.423E-03-0.532E-06
CGA:  17    -0.335576169670E+03   -0.27958E-04   -0.27904E-04  7696   0.712E-03 0.172E-05
CGA:  18    -0.335576188920E+03   -0.19250E-04   -0.19238E-04  7696   0.372E-03-0.106E-05
CGA:  19    -0.335576199145E+03   -0.10225E-04   -0.10228E-04  7696   0.158E-03 0.354E-06
CGA:  20    -0.335576202838E+03   -0.36927E-05   -0.36909E-05  7696   0.978E-04-0.213E-06
 111 F= -.33557620E+03 E0= -.33555116E+03  d E =-.923798E-03  mag=    32.0000
       N       E                     dE             d eps       ncg     rms          ort
SDA:   1    -0.335382665013E+03    0.19353E+00    0.00000E+00  7696   0.845E+01 0.000E+00
CGA:   2    -0.335469763341E+03   -0.87098E-01   -0.79903E-01  7696   0.345E+00 0.584E+00
CGA:   3    -0.335485686222E+03   -0.15923E-01   -0.16115E-01  7696   0.111E+01-0.153E-01
CGA:   4    -0.335517921084E+03   -0.32235E-01   -0.31996E-01  7696   0.120E+01-0.156E-01
CGA:   5    -0.335536062098E+03   -0.18141E-01   -0.18736E-01  7696   0.734E+00-0.219E-01
CGA:   6    -0.335549063701E+03   -0.13002E-01   -0.13729E-01  7696   0.305E+00-0.129E-01
CGA:   7    -0.335553464005E+03   -0.44003E-02   -0.43634E-02  7696   0.156E+00 0.169E-02
CGA:   8    -0.335559278961E+03   -0.58150E-02   -0.58394E-02  7696   0.336E+00-0.312E-02
CGA:   9    -0.335566489120E+03   -0.72102E-02   -0.72259E-02  7696   0.204E+00 0.453E-04
CGA:  10    -0.335569799401E+03   -0.33103E-02   -0.33345E-02  7696   0.955E-01-0.705E-03
CGA:  11    -0.335571196377E+03   -0.13970E-02   -0.13882E-02  7696   0.357E-01 0.334E-03
CGA:  12    -0.335572001067E+03   -0.80469E-03   -0.80310E-03  7696   0.401E-01-0.385E-04
CGA:  13    -0.335573046377E+03   -0.10453E-02   -0.10465E-02  7696   0.479E-01 0.105E-03
CGA:  14    -0.335574199420E+03   -0.11530E-02   -0.11531E-02  7696   0.258E-01-0.129E-04
CGA:  15    -0.335574485587E+03   -0.28617E-03   -0.28439E-03  7696   0.571E-02 0.104E-03
CGA:  16    -0.335574689405E+03   -0.20382E-03   -0.20375E-03  7696   0.144E-01 0.828E-05
CGA:  17    -0.335575038470E+03   -0.34906E-03   -0.34949E-03  7696   0.837E-02 0.376E-04
CGA:  18    -0.335575207475E+03   -0.16900E-03   -0.16911E-03  7696   0.683E-02 0.390E-05
CGA:  19    -0.335575311893E+03   -0.10442E-03   -0.10366E-03  7696   0.163E-02 0.161E-04
CGA:  20    -0.335575347731E+03   -0.35838E-04   -0.35815E-04  7696   0.252E-02-0.284E-05
CGA:  21    -0.335575448438E+03   -0.10071E-03   -0.10070E-03  7696   0.337E-02 0.427E-06
CGA:  22    -0.335575503816E+03   -0.55378E-04   -0.55465E-04  7696   0.193E-02 0.176E-05
CGA:  23    -0.335575539803E+03   -0.35987E-04   -0.36001E-04  7696   0.844E-03 0.706E-06
CGA:  24    -0.335575553485E+03   -0.13682E-04   -0.13662E-04  7696   0.488E-03-0.834E-06
CGA:  25    -0.335575564678E+03   -0.11193E-04   -0.11194E-04  7696   0.519E-03 0.525E-06
CGA:  26    -0.335575583028E+03   -0.18350E-04   -0.18318E-04  7696   0.945E-03 0.333E-05
CGA:  27    -0.335575600677E+03   -0.17649E-04   -0.17661E-04  7696   0.316E-03 0.115E-05
CGA:  28    -0.335575605650E+03   -0.49735E-05   -0.49564E-05  7696   0.192E-03-0.129E-05
 112 F= -.33557561E+03 E0= -.33555056E+03  d E =0.597187E-03  mag=    32.0000
       N       E                     dE             d eps       ncg     rms          ort
SDA:   1    -0.335514295936E+03    0.61305E-01    0.00000E+00  7696   0.161E+01 0.000E+00
CGA:   2    -0.335534629143E+03   -0.20333E-01   -0.19171E-01  7696   0.179E+00 0.576E-01
CGA:   3    -0.335543144064E+03   -0.85149E-02   -0.87555E-02  7696   0.282E+00-0.107E-01
CGA:   4    -0.335555921424E+03   -0.12777E-01   -0.12733E-01  7696   0.448E+00 0.197E-02
CGA:   5    -0.335565009020E+03   -0.90876E-02   -0.91232E-02  7696   0.686E-01 0.727E-03
CGA:   6    -0.335567757135E+03   -0.27481E-02   -0.27494E-02  7696   0.105E+00-0.813E-04
CGA:   7    -0.335572183032E+03   -0.44259E-02   -0.44301E-02  7696   0.814E-01-0.244E-03
CGA:   8    -0.335573737471E+03   -0.15544E-02   -0.15442E-02  7696   0.279E-01-0.161E-04
CGA:   9    -0.335574820534E+03   -0.10831E-02   -0.10980E-02  7696   0.157E-01-0.105E-02
CGA:  10    -0.335575296229E+03   -0.47569E-03   -0.47552E-03  7696   0.216E-01 0.448E-04
CGA:  11    -0.335576023134E+03   -0.72690E-03   -0.72584E-03  7696   0.336E-02 0.150E-03
CGA:  12    -0.335576133387E+03   -0.11025E-03   -0.11038E-03  7696   0.311E-02-0.227E-04
CGA:  13    -0.335576245807E+03   -0.11242E-03   -0.11243E-03  7696   0.451E-02-0.118E-05
CGA:  14    -0.335576427898E+03   -0.18209E-03   -0.18198E-03  7696   0.652E-03 0.714E-05
CGA:  15    -0.335576446159E+03   -0.18262E-04   -0.18261E-04  7696   0.793E-03 0.125E-06
CGA:  16    -0.335576485134E+03   -0.38975E-04   -0.38819E-04  7696   0.804E-03 0.775E-05
CGA:  17    -0.335576508876E+03   -0.23742E-04   -0.23743E-04  7696   0.441E-03 0.102E-05
CGA:  18    -0.335576522598E+03   -0.13722E-04   -0.13723E-04  7696   0.174E-03-0.236E-05
CGA:  19    -0.335576526547E+03   -0.39490E-05   -0.39527E-05  7696   0.155E-03 0.342E-06
CGA:  20    -0.335576539071E+03   -0.12524E-04   -0.12542E-04  7696   0.866E-04-0.376E-06
CGA:  21    -0.335576541095E+03   -0.20245E-05   -0.20175E-05  7696   0.645E-04-0.700E-06
 113 F= -.33557654E+03 E0= -.33555153E+03  d E =-.935445E-03  mag=    32.0000
