       N       E                     dE             d eps       ncg     rms          ort
DAV:   1     0.847587087209E+04    0.84759E+04   -0.38403E+05  7296   0.188E+03
DAV:   2     0.570477336714E+03   -0.79054E+04   -0.73864E+04  7296   0.552E+02
DAV:   3    -0.328519133338E+03   -0.89900E+03   -0.86431E+03  7296   0.209E+02
DAV:   4    -0.359643141584E+03   -0.31124E+02   -0.30795E+02  7296   0.410E+01
DAV:   5    -0.360406375016E+03   -0.76323E+00   -0.75828E+00  7296   0.623E+00
SDA:   6     0.170299873652E+02    0.37744E+03   -0.75828E+00  7296   0.282E+04 0.000E+00
CGA:   7    -0.121032169128E+03   -0.13806E+03   -0.11430E+03  7296   0.121E+04 0.714E+03
CGA:   8    -0.214404452498E+03   -0.93372E+02   -0.88379E+02  7296   0.448E+03 0.179E+03
CGA:   9    -0.228478203013E+03   -0.14074E+02   -0.14671E+02  7296   0.315E+03-0.193E+03
CGA:  10    -0.224239207883E+03    0.42390E+01   -0.57664E+01  7296   0.233E+04-0.635E+03
CGA:  11    -0.198756839505E+03    0.25482E+02   -0.14536E+03  7296   0.171E+04-0.471E+03
CGA:  12    -0.218929432445E+03   -0.20173E+02   -0.30286E+02  7296   0.159E+04 0.233E+02
CGA:  13    -0.191887731948E+03    0.27042E+02   -0.37349E+02  7296   0.843E+04-0.109E+04
CGA:  14    -0.142625199298E+02    0.17763E+03   -0.55796E+03  7296   0.735E+04-0.151E+04
CGA:  15    -0.929956313645E+02   -0.78733E+02   -0.29840E+03  7296   0.117E+05-0.155E+05
CGA:  16    -0.140029957585E+02    0.78993E+02   -0.58908E+03  7296   0.110E+05-0.650E+04
CGA:  17     0.231117373986E+02    0.37115E+02   -0.53810E+03  7296   0.701E+04-0.591E+04
CGA:  18    -0.147377391049E+03   -0.17049E+03   -0.26557E+03  7296   0.674E+04-0.279E+04
CGA:  19    -0.135494253606E+03    0.11883E+02   -0.13875E+03  7296   0.841E+04 0.218E+04
CGA:  20     0.250249102400E+03    0.38574E+03   -0.53318E+03  7296   0.311E+05-0.864E+04
CGA:  21     0.171111824651E+03   -0.79137E+02   -0.15845E+04  7296   0.107E+05-0.580E+04
CGA:  22    -0.636037763399E+02   -0.23472E+03   -0.32882E+03  7296   0.522E+04-0.324E+04
CGA:  23    -0.193138622483E+03   -0.12953E+03   -0.79988E+02  7296   0.120E+04-0.201E+03
CGA:  24    -0.216403852549E+03   -0.23265E+02   -0.12107E+02  7296   0.872E+03 0.978E+03
CGA:  25    -0.232358921238E+03   -0.15955E+02   -0.73742E+01  7296   0.778E+03 0.109E+04
CGA:  26    -0.244717847609E+03   -0.12359E+02   -0.64508E+01  7296   0.257E+03 0.449E+03
CGA:  27    -0.247949774651E+03   -0.32319E+01   -0.16337E+01  7296   0.209E+03 0.256E+03
CGA:  28    -0.250607874182E+03   -0.26581E+01   -0.12496E+01  7296   0.175E+03 0.231E+03
CGA:  29    -0.252554135068E+03   -0.19463E+01   -0.99867E+00  7296   0.109E+03 0.158E+03
CGA:  30    -0.253670076543E+03   -0.11159E+01   -0.63008E+00  7296   0.535E+02 0.792E+02
CGA:  31    -0.254415094708E+03   -0.74502E+00   -0.45735E+00  7296   0.288E+02 0.315E+02
CGA:  32    -0.259865579254E+03   -0.54505E+01   -0.73782E+01  7296   0.543E+03-0.760E+01
CGA:  33    -0.261897455471E+03   -0.20319E+01   -0.44142E+01  7296   0.401E+03 0.437E+02
CGA:  34    -0.261705856684E+03    0.19160E+00   -0.53937E+01  7296   0.357E+03-0.201E+03
CGA:  35    -0.264508840481E+03   -0.28030E+01   -0.10267E+02  7296   0.182E+03-0.158E+03
CGA:  36    -0.267233761713E+03   -0.27249E+01   -0.18413E+01  7296   0.714E+02 0.481E+02
CGA:  37    -0.268593293526E+03   -0.13595E+01   -0.10058E+01  7296   0.158E+02 0.263E+02
CGA:  38    -0.269027702244E+03   -0.43441E+00   -0.39223E+00  7296   0.182E+02 0.187E+01
CGA:  39    -0.269705547434E+03   -0.67785E+00   -0.68425E+00  7296   0.549E+02-0.191E+00
CGA:  40    -0.270649070962E+03   -0.94352E+00   -0.10480E+01  7296   0.588E+02-0.415E+01
CGA:  41    -0.271322657730E+03   -0.67359E+00   -0.75412E+00  7296   0.366E+02-0.413E+01
CGA:  42    -0.271650203623E+03   -0.32755E+00   -0.34852E+00  7296   0.192E+02-0.304E+01
CGA:  43    -0.271837208083E+03   -0.18700E+00   -0.24054E+00  7296   0.148E+02-0.293E+01
CGA:  44    -0.272012867340E+03   -0.17566E+00   -0.17571E+00  7296   0.139E+02-0.777E-01
CGA:  45    -0.272271882701E+03   -0.25902E+00   -0.30445E+00  7296   0.168E+02-0.129E+01
CGA:  46    -0.272531347906E+03   -0.25947E+00   -0.33708E+00  7296   0.141E+02-0.169E+01
CGA:  47    -0.272853990829E+03   -0.32264E+00   -0.25046E+00  7296   0.901E+01 0.364E+01
CGA:  48    -0.273035559569E+03   -0.18157E+00   -0.13260E+00  7296   0.514E+01 0.361E+01
CGA:  49    -0.273166988046E+03   -0.13143E+00   -0.13323E+00  7296   0.538E+01-0.423E-01
CGA:  50    -0.273252958258E+03   -0.85970E-01   -0.90409E-01  7296   0.605E+01-0.167E+00
CGA:  51    -0.273362465371E+03   -0.10951E+00   -0.12574E+00  7296   0.761E+01-0.282E+00
CGA:  52    -0.273531404478E+03   -0.16894E+00   -0.17776E+00  7296   0.756E+01-0.499E-01
CGA:  53    -0.273716883790E+03   -0.18548E+00   -0.19302E+00  7296   0.466E+01-0.177E-01
CGA:  54    -0.273817227686E+03   -0.10034E+00   -0.98604E-01  7296   0.200E+01 0.531E-01
CGA:  55    -0.273870814225E+03   -0.53587E-01   -0.53733E-01  7296   0.182E+01-0.333E-03
CGA:  56    -0.273946472963E+03   -0.75659E-01   -0.75530E-01  7296   0.286E+01 0.303E-01
CGA:  57    -0.274052984619E+03   -0.10651E+00   -0.10693E+00  7296   0.259E+01 0.755E-01
CGA:  58    -0.274127570534E+03   -0.74586E-01   -0.73848E-01  7296   0.141E+01-0.518E-02
CGA:  59    -0.274166613629E+03   -0.39043E-01   -0.39142E-01  7296   0.913E+00 0.117E-02
CGA:  60    -0.274198026719E+03   -0.31413E-01   -0.31464E-01  7296   0.948E+00 0.550E-02
CGA:  61    -0.274247108212E+03   -0.49081E-01   -0.48857E-01  7296   0.157E+01 0.129E-01
CGA:  62    -0.274309801705E+03   -0.62693E-01   -0.62705E-01  7296   0.112E+01-0.734E-02
CGA:  63    -0.274341006389E+03   -0.31205E-01   -0.31513E-01  7296   0.554E+00 0.354E-02
CGA:  64    -0.274361797772E+03   -0.20791E-01   -0.20799E-01  7296   0.454E+00 0.632E-02
SDA:  65    -0.274385265374E+03   -0.23468E-01   -0.23381E-01  7296   0.607E+00 0.523E-02
CGA:  66    -0.274430681377E+03   -0.45416E-01   -0.45126E-01  7296   0.257E+00 0.786E-02
CGA:  67    -0.274491795395E+03   -0.61114E-01   -0.12069E-02  7296   0.562E+00-0.356E-01
CGA:  68    -0.274532064408E+03   -0.40269E-01   -0.40549E-01  7296   0.285E+00-0.159E-01
CGA:  69    -0.274561182991E+03   -0.29119E-01   -0.29399E-01  7296   0.371E+00-0.714E-02
CGA:  70    -0.274602296220E+03   -0.41113E-01   -0.41038E-01  7296   0.298E+00-0.201E-02
CGA:  71    -0.274626516425E+03   -0.24220E-01   -0.24187E-01  7296   0.208E+00 0.460E-02
CGA:  72    -0.274650996886E+03   -0.24480E-01   -0.23829E-01  7296   0.214E+00 0.142E-01
CGA:  73    -0.274674189516E+03   -0.23193E-01   -0.23275E-01  7296   0.106E+00-0.291E-02
CGA:  74    -0.274685331513E+03   -0.11142E-01   -0.11114E-01  7296   0.963E-01 0.810E-03
CGA:  75    -0.274701538586E+03   -0.16207E-01   -0.16080E-01  7296   0.143E+00 0.131E-02
CGA:  76    -0.274719545810E+03   -0.18007E-01   -0.18263E-01  7296   0.129E+00-0.540E-02
CGA:  77    -0.274737019168E+03   -0.17473E-01   -0.17291E-01  7296   0.167E+00 0.286E-02
CGA:  78    -0.274754607216E+03   -0.17588E-01   -0.17600E-01  7296   0.601E-01-0.702E-03
CGA:  79    -0.274760485164E+03   -0.58779E-02   -0.58775E-02  7296   0.533E-01 0.403E-04
CGA:  80    -0.274769738215E+03   -0.92531E-02   -0.92729E-02  7296   0.583E-01-0.306E-03
CGA:  81    -0.274774505781E+03   -0.47676E-02   -0.47674E-02  7296   0.249E-01 0.454E-05
CGA:  82    -0.274777787011E+03   -0.32812E-02   -0.32697E-02  7296   0.248E-01 0.237E-03
CGA:  83    -0.274780396246E+03   -0.26092E-02   -0.26096E-02  7296   0.147E-01-0.385E-04
CGA:  84    -0.274782498447E+03   -0.21022E-02   -0.21137E-02  7296   0.168E-01-0.209E-03
CGA:  85    -0.274784235297E+03   -0.17368E-02   -0.17365E-02  7296   0.102E-01 0.393E-04
CGA:  86    -0.274785394849E+03   -0.11596E-02   -0.11591E-02  7296   0.876E-02 0.220E-04
CGA:  87    -0.274786485604E+03   -0.10908E-02   -0.10919E-02  7296   0.753E-02-0.348E-04
CGA:  88    -0.274787225020E+03   -0.73942E-03   -0.73902E-03  7296   0.415E-02-0.579E-04
CGA:  89    -0.274787697261E+03   -0.47224E-03   -0.47249E-03  7296   0.460E-02-0.124E-04
CGA:  90    -0.274788347376E+03   -0.65011E-03   -0.65378E-03  7296   0.405E-02-0.832E-04
CGA:  91    -0.274788653145E+03   -0.30577E-03   -0.30071E-03  7296   0.197E-02-0.140E-04
CGA:  92    -0.274788863208E+03   -0.21006E-03   -0.21024E-03  7296   0.229E-02-0.216E-04
CGA:  93    -0.274789094715E+03   -0.23151E-03   -0.23147E-03  7296   0.184E-02-0.204E-04
CGA:  94    -0.274789245967E+03   -0.15125E-03   -0.15077E-03  7296   0.159E-02-0.974E-05
CGA:  95    -0.274789415620E+03   -0.16965E-03   -0.16987E-03  7296   0.153E-02-0.263E-04
SDA:  96    -0.274789512511E+03   -0.96892E-04   -0.96305E-04  7296   0.775E-03-0.347E-05
CGA:  97    -0.274789741102E+03   -0.22859E-03   -0.22784E-03  7296   0.168E-02 0.309E-05
CGA:  98    -0.274789978608E+03   -0.23751E-03   -0.23759E-03  7296   0.744E-03 0.421E-06
CGA:  99    -0.274790128391E+03   -0.14978E-03   -0.14949E-03  7296   0.527E-03 0.338E-05
CGA: 100    -0.274790181539E+03   -0.53148E-04   -0.53143E-04  7296   0.197E-03-0.133E-05
CGA: 101    -0.274790211059E+03   -0.29520E-04   -0.29534E-04  7296   0.175E-03-0.422E-06
CGA: 102    -0.274790232036E+03   -0.20977E-04   -0.20978E-04  7296   0.569E-04-0.307E-06
CGA: 103    -0.274790244521E+03   -0.12485E-04   -0.12614E-04  7296   0.712E-04-0.125E-05
CGA: 104    -0.274790253230E+03   -0.87082E-05   -0.87103E-05  7296   0.346E-04-0.805E-06
   1 F= -.27479025E+03 E0= -.27478122E+03  d E =-.274790E+03  mag=    18.0000
       N       E                     dE             d eps       ncg     rms          ort
SDA:   1    -0.274879243567E+03   -0.88999E-01    0.00000E+00  7296   0.299E-01 0.000E+00
CGA:   2    -0.274881363266E+03   -0.21197E-02   -0.21309E-02  7296   0.152E-01-0.511E-04
CGA:   3    -0.274884374787E+03   -0.30115E-02   -0.30112E-02  7296   0.727E-02 0.324E-05
CGA:   4    -0.274884994415E+03   -0.61963E-03   -0.61939E-03  7296   0.229E-02-0.529E-05
CGA:   5    -0.274885321907E+03   -0.32749E-03   -0.32765E-03  7296   0.105E-02-0.924E-05
CGA:   6    -0.274885399192E+03   -0.77285E-04   -0.77283E-04  7296   0.294E-03-0.725E-06
CGA:   7    -0.274885444106E+03   -0.44913E-04   -0.44860E-04  7296   0.150E-03 0.196E-05
CGA:   8    -0.274885459452E+03   -0.15347E-04   -0.15379E-04  7296   0.635E-04 0.127E-05
CGA:   9    -0.274885470852E+03   -0.11400E-04   -0.11320E-04  7296   0.343E-04 0.156E-05
CGA:  10    -0.274885475114E+03   -0.42616E-05   -0.42673E-05  7296   0.255E-04 0.859E-06
   2 F= -.27488548E+03 E0= -.27487644E+03  d E =-.952219E-01  mag=    18.0000
       N       E                     dE             d eps       ncg     rms          ort
SDA:   1    -0.236575970509E+03    0.38310E+02    0.00000E+00  7296   0.221E+03 0.000E+00
CGA:   2    -0.257312467990E+03   -0.20736E+02   -0.20325E+02  7296   0.136E+03-0.329E+02
CGA:   3    -0.270734498752E+03   -0.13422E+02   -0.12228E+02  7296   0.518E+02-0.760E+01
CGA:   4    -0.275889155638E+03   -0.51547E+01   -0.52078E+01  7296   0.277E+02 0.103E+01
CGA:   5    -0.278096674219E+03   -0.22075E+01   -0.21904E+01  7296   0.764E+01 0.157E+00
CGA:   6    -0.278746385744E+03   -0.64971E+00   -0.63932E+00  7296   0.509E+01 0.111E-01
CGA:   7    -0.279215059305E+03   -0.46867E+00   -0.47768E+00  7296   0.227E+01 0.768E-01
CGA:   8    -0.279395965318E+03   -0.18091E+00   -0.18581E+00  7296   0.781E+00 0.300E-02
CGA:   9    -0.279475337816E+03   -0.79372E-01   -0.79489E-01  7296   0.457E+00 0.288E-02
CGA:  10    -0.279515075007E+03   -0.39737E-01   -0.40297E-01  7296   0.253E+00 0.350E-02
CGA:  11    -0.279546906195E+03   -0.31831E-01   -0.31751E-01  7296   0.154E+00 0.508E-02
CGA:  12    -0.279564172552E+03   -0.17266E-01   -0.17279E-01  7296   0.833E-01 0.979E-03
CGA:  13    -0.279574482964E+03   -0.10310E-01   -0.10284E-01  7296   0.632E-01 0.217E-02
CGA:  14    -0.279581384781E+03   -0.69018E-02   -0.69047E-02  7296   0.335E-01 0.164E-03
CGA:  15    -0.279585586532E+03   -0.42018E-02   -0.41976E-02  7296   0.200E-01 0.275E-03
CGA:  16    -0.279588023459E+03   -0.24369E-02   -0.24364E-02  7296   0.849E-02 0.605E-04
CGA:  17    -0.279588907464E+03   -0.88400E-03   -0.88441E-03  7296   0.551E-02 0.146E-04
CGA:  18    -0.279589636536E+03   -0.72907E-03   -0.72856E-03  7296   0.298E-02 0.215E-04
CGA:  19    -0.279589930873E+03   -0.29434E-03   -0.29435E-03  7296   0.130E-02 0.829E-06
CGA:  20    -0.279590131895E+03   -0.20102E-03   -0.20092E-03  7296   0.127E-02 0.163E-05
CGA:  21    -0.279590285943E+03   -0.15405E-03   -0.15405E-03  7296   0.698E-03-0.850E-06
CGA:  22    -0.279590367316E+03   -0.81373E-04   -0.81373E-04  7296   0.531E-03-0.137E-06
CGA:  23    -0.279590452380E+03   -0.85064E-04   -0.85019E-04  7296   0.335E-03 0.829E-06
CGA:  24    -0.279590497821E+03   -0.45441E-04   -0.45470E-04  7296   0.236E-03-0.189E-05
CGA:  25    -0.279590530044E+03   -0.32224E-04   -0.32271E-04  7296   0.168E-03-0.290E-05
CGA:  26    -0.279590547202E+03   -0.17158E-04   -0.17127E-04  7296   0.894E-04-0.174E-05
CGA:  27    -0.279590559597E+03   -0.12396E-04   -0.12418E-04  7296   0.671E-04-0.118E-05
CGA:  28    -0.279590569358E+03   -0.97606E-05   -0.98045E-05  7296   0.376E-04-0.167E-05
   3 F= -.27959057E+03 E0= -.27958194E+03  d E =-.470509E+01  mag=    18.0000
       N       E                     dE             d eps       ncg     rms          ort
SDA:   1    -0.125679801594E+03    0.15391E+03    0.00000E+00  7296   0.106E+04 0.000E+00
CGA:   2    -0.216457687496E+03   -0.90778E+02   -0.84514E+02  7296   0.319E+03 0.604E+02
CGA:   3    -0.252426456192E+03   -0.35969E+02   -0.33797E+02  7296   0.160E+03-0.198E+02
CGA:   4    -0.265654984096E+03   -0.13229E+02   -0.13320E+02  7296   0.140E+03 0.808E+00
CGA:   5    -0.275049989754E+03   -0.93950E+01   -0.94287E+01  7296   0.681E+02 0.163E+01
CGA:   6    -0.278619260965E+03   -0.35693E+01   -0.34793E+01  7296   0.311E+02 0.196E+01
CGA:   7    -0.280084721374E+03   -0.14655E+01   -0.13417E+01  7296   0.178E+02 0.163E+01
CGA:   8    -0.281089847458E+03   -0.10051E+01   -0.97202E+00  7296   0.154E+02 0.450E+00
CGA:   9    -0.281905230910E+03   -0.81538E+00   -0.87561E+00  7296   0.973E+01-0.474E+00
CGA:  10    -0.282435336641E+03   -0.53011E+00   -0.63400E+00  7296   0.439E+01 0.242E+00
CGA:  11    -0.282701430383E+03   -0.26609E+00   -0.26792E+00  7296   0.187E+01-0.426E-02
CGA:  12    -0.282891895162E+03   -0.19046E+00   -0.19041E+00  7296   0.127E+01 0.211E-01
CGA:  13    -0.283006483625E+03   -0.11459E+00   -0.11535E+00  7296   0.892E+00 0.286E-01
CGA:  14    -0.283097392769E+03   -0.90909E-01   -0.90912E-01  7296   0.574E+00 0.381E-02
CGA:  15    -0.283152846858E+03   -0.55454E-01   -0.55467E-01  7296   0.272E+00 0.126E-02
CGA:  16    -0.283182395109E+03   -0.29548E-01   -0.29507E-01  7296   0.212E+00 0.273E-02
CGA:  17    -0.283201693859E+03   -0.19299E-01   -0.19298E-01  7296   0.844E-01-0.258E-04
CGA:  18    -0.283211370203E+03   -0.96763E-02   -0.96677E-02  7296   0.555E-01 0.384E-03
CGA:  19    -0.283217261157E+03   -0.58910E-02   -0.58895E-02  7296   0.294E-01 0.173E-03
CGA:  20    -0.283219803604E+03   -0.25424E-02   -0.25424E-02  7296   0.130E-01 0.127E-04
CGA:  21    -0.283221718020E+03   -0.19144E-02   -0.19127E-02  7296   0.126E-01 0.321E-04
CGA:  22    -0.283222900032E+03   -0.11820E-02   -0.11822E-02  7296   0.490E-02 0.150E-04
CGA:  23    -0.283223398174E+03   -0.49814E-03   -0.49814E-03  7296   0.368E-02-0.853E-05
CGA:  24    -0.283223934471E+03   -0.53630E-03   -0.53737E-03  7296   0.246E-02-0.233E-04
CGA:  25    -0.283224164744E+03   -0.23027E-03   -0.23018E-03  7296   0.158E-02-0.973E-05
CGA:  26    -0.283224393237E+03   -0.22849E-03   -0.22898E-03  7296   0.142E-02-0.112E-04
CGA:  27    -0.283224539081E+03   -0.14584E-03   -0.14584E-03  7296   0.663E-03-0.159E-05
CGA:  28    -0.283224617590E+03   -0.78509E-04   -0.78465E-04  7296   0.576E-03 0.341E-05
CGA:  29    -0.283224688751E+03   -0.71162E-04   -0.71133E-04  7296   0.394E-03 0.165E-05
CGA:  30    -0.283224737866E+03   -0.49115E-04   -0.49176E-04  7296   0.262E-03-0.358E-05
CGA:  31    -0.283224765764E+03   -0.27898E-04   -0.27895E-04  7296   0.172E-03-0.500E-05
SDA:  32    -0.283224786427E+03   -0.20663E-04   -0.20720E-04  7296   0.150E-03-0.393E-05
CGA:  33    -0.283224798250E+03   -0.11823E-04   -0.11861E-04  7296   0.575E-04 0.117E-05
CGA:  34    -0.283224809932E+03   -0.11683E-04   -0.11524E-04  7296   0.566E-04 0.166E-05
CGA:  35    -0.283224819118E+03   -0.91855E-05   -0.92397E-05  7296   0.565E-04-0.120E-05
   4 F= -.28322482E+03 E0= -.28321697E+03  d E =-.363425E+01  mag=    18.0000
       N       E                     dE             d eps       ncg     rms          ort
SDA:   1    -0.277055002966E+03    0.61698E+01    0.00000E+00  7296   0.185E+02 0.000E+00
CGA:   2    -0.281531176207E+03   -0.44762E+01   -0.44696E+01  7296   0.120E+02 0.574E-01
CGA:   3    -0.283001561809E+03   -0.14704E+01   -0.14706E+01  7296   0.563E+01-0.918E-01
CGA:   4    -0.283582350334E+03   -0.58079E+00   -0.58199E+00  7296   0.136E+01 0.253E-01
CGA:   5    -0.283759578262E+03   -0.17723E+00   -0.17729E+00  7296   0.529E+00-0.375E-02
CGA:   6    -0.283812048895E+03   -0.52471E-01   -0.52531E-01  7296   0.215E+00 0.906E-03
CGA:   7    -0.283836608635E+03   -0.24560E-01   -0.24557E-01  7296   0.103E+00-0.139E-03
CGA:   8    -0.283846520311E+03   -0.99117E-02   -0.99200E-02  7296   0.400E-01 0.133E-03
CGA:   9    -0.283852617786E+03   -0.60975E-02   -0.60981E-02  7296   0.213E-01-0.704E-05
CGA:  10    -0.283854835321E+03   -0.22175E-02   -0.22182E-02  7296   0.975E-02 0.226E-04
CGA:  11    -0.283856565517E+03   -0.17302E-02   -0.17296E-02  7296   0.713E-02 0.878E-05
CGA:  12    -0.283857244987E+03   -0.67947E-03   -0.67955E-03  7296   0.353E-02 0.373E-05
CGA:  13    -0.283857809127E+03   -0.56414E-03   -0.56382E-03  7296   0.237E-02 0.795E-05
CGA:  14    -0.283858053949E+03   -0.24482E-03   -0.24494E-03  7296   0.904E-03 0.600E-05
CGA:  15    -0.283858207445E+03   -0.15350E-03   -0.15309E-03  7296   0.570E-03 0.864E-05
CGA:  16    -0.283858267029E+03   -0.59584E-04   -0.59675E-04  7296   0.230E-03 0.450E-05
CGA:  17    -0.283858302725E+03   -0.35696E-04   -0.35614E-04  7296   0.200E-03 0.269E-05
CGA:  18    -0.283858322912E+03   -0.20187E-04   -0.20225E-04  7296   0.771E-04 0.150E-05
CGA:  19    -0.283858335433E+03   -0.12521E-04   -0.12519E-04  7296   0.737E-04 0.654E-07
CGA:  20    -0.283858345477E+03   -0.10044E-04   -0.10046E-04  7296   0.334E-04-0.184E-06
CGA:  21    -0.283858351014E+03   -0.55364E-05   -0.55431E-05  7296   0.356E-04-0.163E-06
   5 F= -.28385835E+03 E0= -.28385064E+03  d E =-.633532E+00  mag=    18.0000
       N       E                     dE             d eps       ncg     rms          ort
SDA:   1    -0.209613891262E+03    0.74244E+02    0.00000E+00  7296   0.736E+03 0.000E+00
CGA:   2    -0.245883802909E+03   -0.36270E+02   -0.55526E+02  7296   0.185E+03-0.140E+02
CGA:   3    -0.264581462727E+03   -0.18698E+02   -0.14352E+02  7296   0.571E+02 0.401E+02
CGA:   4    -0.277468908196E+03   -0.12887E+02   -0.12785E+02  7296   0.602E+02 0.119E+01
CGA:   5    -0.282059136810E+03   -0.45902E+01   -0.44737E+01  7296   0.147E+02 0.140E+01
CGA:   6    -0.283198078465E+03   -0.11389E+01   -0.11137E+01  7296   0.954E+01 0.763E-01
CGA:   7    -0.284032313953E+03   -0.83424E+00   -0.84110E+00  7296   0.396E+01 0.248E-01
CGA:   8    -0.284314975171E+03   -0.28266E+00   -0.28616E+00  7296   0.164E+01-0.476E-02
CGA:   9    -0.284478193807E+03   -0.16322E+00   -0.16338E+00  7296   0.133E+01 0.454E-02
CGA:  10    -0.284585408132E+03   -0.10721E+00   -0.10828E+00  7296   0.404E+00 0.456E-02
CGA:  11    -0.284628765347E+03   -0.43357E-01   -0.43410E-01  7296   0.348E+00 0.368E-02
CGA:  12    -0.284659513580E+03   -0.30748E-01   -0.30780E-01  7296   0.128E+00 0.576E-03
CGA:  13    -0.284673149445E+03   -0.13636E-01   -0.13644E-01  7296   0.942E-01 0.696E-03
CGA:  14    -0.284682918783E+03   -0.97693E-02   -0.97804E-02  7296   0.421E-01 0.527E-03
CGA:  15    -0.284686973858E+03   -0.40551E-02   -0.40544E-02  7296   0.302E-01-0.157E-04
CGA:  16    -0.284691018262E+03   -0.40444E-02   -0.40410E-02  7296   0.156E-01 0.968E-04
CGA:  17    -0.284692290256E+03   -0.12720E-02   -0.12764E-02  7296   0.806E-02 0.266E-04
CGA:  18    -0.284693431058E+03   -0.11408E-02   -0.11399E-02  7296   0.557E-02 0.272E-04
CGA:  19    -0.284693917752E+03   -0.48669E-03   -0.48751E-03  7296   0.220E-02 0.218E-04
CGA:  20    -0.284694200339E+03   -0.28259E-03   -0.28225E-03  7296   0.213E-02 0.180E-04
CGA:  21    -0.284694457846E+03   -0.25751E-03   -0.25741E-03  7296   0.736E-03 0.116E-04
CGA:  22    -0.284694538482E+03   -0.80636E-04   -0.80646E-04  7296   0.768E-03 0.237E-05
CGA:  23    -0.284694664574E+03   -0.12609E-03   -0.12609E-03  7296   0.527E-03-0.151E-06
CGA:  24    -0.284694711876E+03   -0.47302E-04   -0.47247E-04  7296   0.269E-03-0.208E-05
CGA:  25    -0.284694760599E+03   -0.48723E-04   -0.48921E-04  7296   0.395E-03-0.291E-05
CGA:  26    -0.284694799546E+03   -0.38947E-04   -0.38917E-04  7296   0.164E-03-0.174E-05
CGA:  27    -0.284694822129E+03   -0.22583E-04   -0.22567E-04  7296   0.156E-03 0.716E-06
CGA:  28    -0.284694841253E+03   -0.19124E-04   -0.19121E-04  7296   0.104E-03 0.529E-06
CGA:  29    -0.284694853184E+03   -0.11931E-04   -0.11926E-04  7296   0.865E-04-0.186E-05
CGA:  30    -0.284694863785E+03   -0.10601E-04   -0.10624E-04  7296   0.384E-04-0.302E-05
CGA:  31    -0.284694868194E+03   -0.44095E-05   -0.44105E-05  7296   0.369E-04-0.744E-06
   6 F= -.28469487E+03 E0= -.28468705E+03  d E =-.836517E+00  mag=    18.0000
       N       E                     dE             d eps       ncg     rms          ort
SDA:   1    -0.266906886982E+03    0.17788E+02    0.00000E+00  7296   0.511E+02 0.000E+00
CGA:   2    -0.277658001578E+03   -0.10751E+02   -0.10717E+02  7296   0.351E+02 0.300E+00
CGA:   3    -0.282082239433E+03   -0.44242E+01   -0.44243E+01  7296   0.185E+02-0.234E-01
CGA:   4    -0.284112476534E+03   -0.20302E+01   -0.20298E+01  7296   0.450E+01-0.399E-02
CGA:   5    -0.284652490378E+03   -0.54001E+00   -0.54009E+00  7296   0.148E+01 0.220E-01
CGA:   6    -0.284810020120E+03   -0.15753E+00   -0.15746E+00  7296   0.520E+00-0.123E-02
CGA:   7    -0.284881854271E+03   -0.71834E-01   -0.71782E-01  7296   0.215E+00 0.203E-02
CGA:   8    -0.284904260104E+03   -0.22406E-01   -0.22389E-01  7296   0.108E+00-0.228E-03
CGA:   9    -0.284918254467E+03   -0.13994E-01   -0.13989E-01  7296   0.450E-01 0.362E-03
CGA:  10    -0.284922822203E+03   -0.45677E-02   -0.45651E-02  7296   0.237E-01-0.250E-04
CGA:  11    -0.284926622547E+03   -0.38003E-02   -0.37956E-02  7296   0.131E-01 0.954E-04
CGA:  12    -0.284928112596E+03   -0.14900E-02   -0.14897E-02  7296   0.847E-02-0.743E-05
CGA:  13    -0.284929360019E+03   -0.12474E-02   -0.12462E-02  7296   0.504E-02 0.411E-04
CGA:  14    -0.284929899761E+03   -0.53974E-03   -0.53998E-03  7296   0.229E-02 0.132E-04
CGA:  15    -0.284930307362E+03   -0.40760E-03   -0.40676E-03  7296   0.126E-02 0.151E-04
CGA:  16    -0.284930445617E+03   -0.13826E-03   -0.13834E-03  7296   0.641E-03 0.505E-05
CGA:  17    -0.284930559337E+03   -0.11372E-03   -0.11346E-03  7296   0.448E-03 0.489E-05
CGA:  18    -0.284930611838E+03   -0.52501E-04   -0.52513E-04  7296   0.281E-03 0.124E-05
CGA:  19    -0.284930660152E+03   -0.48314E-04   -0.48248E-04  7296   0.316E-03 0.137E-05
CGA:  20    -0.284930700805E+03   -0.40653E-04   -0.40652E-04  7296   0.171E-03-0.510E-06
CGA:  21    -0.284930738451E+03   -0.37647E-04   -0.37696E-04  7296   0.214E-03-0.560E-06
CGA:  22    -0.284930766185E+03   -0.27734E-04   -0.27728E-04  7296   0.106E-03-0.146E-05
CGA:  23    -0.284930783239E+03   -0.17053E-04   -0.17074E-04  7296   0.101E-03-0.784E-06
CGA:  24    -0.284930796004E+03   -0.12765E-04   -0.12755E-04  7296   0.466E-04-0.149E-05
CGA:  25    -0.284930801799E+03   -0.57947E-05   -0.57885E-05  7296   0.315E-04-0.775E-06
   7 F= -.28493080E+03 E0= -.28492244E+03  d E =-.235934E+00  mag=    18.0000
       N       E                     dE             d eps       ncg     rms          ort
SDA:   1    -0.244956590150E+03    0.39974E+02    0.00000E+00  7296   0.118E+03 0.000E+00
CGA:   2    -0.266921859741E+03   -0.21965E+02   -0.21827E+02  7296   0.914E+02 0.199E+01
CGA:   3    -0.277530441600E+03   -0.10609E+02   -0.10299E+02  7296   0.461E+02-0.227E+01
CGA:   4    -0.283036457295E+03   -0.55060E+01   -0.55191E+01  7296   0.130E+02 0.366E+00
CGA:   5    -0.284259618121E+03   -0.12232E+01   -0.11913E+01  7296   0.530E+01 0.527E-01
CGA:   6    -0.284785913801E+03   -0.52630E+00   -0.53158E+00  7296   0.151E+01 0.287E-01
CGA:   7    -0.284956311731E+03   -0.17040E+00   -0.17025E+00  7296   0.792E+00-0.209E-02
CGA:   8    -0.285051199429E+03   -0.94888E-01   -0.95010E-01  7296   0.229E+00 0.500E-02
CGA:   9    -0.285083478222E+03   -0.32279E-01   -0.32277E-01  7296   0.171E+00 0.148E-03
CGA:  10    -0.285101015981E+03   -0.17538E-01   -0.17578E-01  7296   0.464E-01 0.411E-03
CGA:  11    -0.285108645161E+03   -0.76292E-02   -0.76301E-02  7296   0.487E-01-0.631E-05
CGA:  12    -0.285113875304E+03   -0.52301E-02   -0.52433E-02  7296   0.156E-01 0.200E-03
CGA:  13    -0.285116560671E+03   -0.26854E-02   -0.26843E-02  7296   0.150E-01 0.296E-04
CGA:  14    -0.285118309761E+03   -0.17491E-02   -0.17506E-02  7296   0.470E-02 0.573E-04
CGA:  15    -0.285118992653E+03   -0.68289E-03   -0.68274E-03  7296   0.436E-02 0.131E-04
CGA:  16    -0.285119524184E+03   -0.53153E-03   -0.53175E-03  7296   0.127E-02 0.179E-04
CGA:  17    -0.285119722142E+03   -0.19796E-03   -0.19791E-03  7296   0.140E-02 0.243E-05
CGA:  18    -0.285119922794E+03   -0.20065E-03   -0.20054E-03  7296   0.576E-03 0.799E-05
CGA:  19    -0.285120030596E+03   -0.10780E-03   -0.10776E-03  7296   0.841E-03 0.109E-05
CGA:  20    -0.285120156042E+03   -0.12545E-03   -0.12538E-03  7296   0.521E-03 0.393E-05
CGA:  21    -0.285120243295E+03   -0.87254E-04   -0.87407E-04  7296   0.508E-03-0.464E-05
CGA:  22    -0.285120327274E+03   -0.83979E-04   -0.84075E-04  7296   0.329E-03-0.372E-05
CGA:  23    -0.285120376338E+03   -0.49064E-04   -0.49089E-04  7296   0.229E-03-0.213E-05
CGA:  24    -0.285120403143E+03   -0.26805E-04   -0.26787E-04  7296   0.120E-03-0.108E-05
CGA:  25    -0.285120424481E+03   -0.21338E-04   -0.21476E-04  7296   0.905E-04-0.337E-05
CGA:  26    -0.285120433008E+03   -0.85275E-05   -0.84869E-05  7296   0.347E-04-0.101E-05
   8 F= -.28512043E+03 E0= -.28511164E+03  d E =-.189631E+00  mag=    18.0000
       N       E                     dE             d eps       ncg     rms          ort
SDA:   1    -0.243770180434E+03    0.41350E+02    0.00000E+00  7296   0.112E+03 0.000E+00
CGA:   2    -0.269149368696E+03   -0.25379E+02   -0.25365E+02  7296   0.872E+02 0.565E-01
CGA:   3    -0.279025283029E+03   -0.98759E+01   -0.98603E+01  7296   0.392E+02 0.501E+00
CGA:   4    -0.283373860365E+03   -0.43486E+01   -0.43394E+01  7296   0.105E+02 0.275E-01
CGA:   5    -0.284447269486E+03   -0.10734E+01   -0.10921E+01  7296   0.413E+01 0.783E-01
CGA:   6    -0.284870959104E+03   -0.42369E+00   -0.41877E+00  7296   0.126E+01-0.645E-02
CGA:   7    -0.285037165387E+03   -0.16621E+00   -0.16635E+00  7296   0.621E+00 0.838E-02
CGA:   8    -0.285100540269E+03   -0.63375E-01   -0.63221E-01  7296   0.221E+00-0.225E-03
CGA:   9    -0.285131032487E+03   -0.30492E-01   -0.30492E-01  7296   0.133E+00 0.739E-03
CGA:  10    -0.285144630576E+03   -0.13598E-01   -0.13586E-01  7296   0.464E-01 0.160E-06
CGA:  11    -0.285153153483E+03   -0.85229E-02   -0.85114E-02  7296   0.357E-01 0.199E-03
CGA:  12    -0.285157054741E+03   -0.39013E-02   -0.39009E-02  7296   0.172E-01 0.308E-04
CGA:  13    -0.285159973568E+03   -0.29188E-02   -0.29162E-02  7296   0.120E-01 0.699E-04
CGA:  14    -0.285161326557E+03   -0.13530E-02   -0.13534E-02  7296   0.487E-02 0.229E-04
CGA:  15    -0.285162148696E+03   -0.82214E-03   -0.82115E-03  7296   0.329E-02 0.279E-04
CGA:  16    -0.285162498795E+03   -0.35010E-03   -0.35019E-03  7296   0.135E-02 0.580E-05
CGA:  17    -0.285162721831E+03   -0.22304E-03   -0.22278E-03  7296   0.122E-02 0.829E-05
CGA:  18    -0.285162869118E+03   -0.14729E-03   -0.14731E-03  7296   0.592E-03 0.191E-05
CGA:  19    -0.285162996030E+03   -0.12691E-03   -0.12665E-03  7296   0.718E-03 0.328E-05
CGA:  20    -0.285163106465E+03   -0.11043E-03   -0.11045E-03  7296   0.508E-03-0.537E-06
CGA:  21    -0.285163198022E+03   -0.91558E-04   -0.91516E-04  7296   0.560E-03 0.688E-06
CGA:  22    -0.285163281471E+03   -0.83449E-04   -0.83476E-04  7296   0.293E-03-0.467E-05
CGA:  23    -0.285163326124E+03   -0.44652E-04   -0.44677E-04  7296   0.245E-03-0.296E-05
CGA:  24    -0.285163358638E+03   -0.32514E-04   -0.32470E-04  7296   0.119E-03-0.394E-05
CGA:  25    -0.285163374075E+03   -0.15438E-04   -0.15427E-04  7296   0.761E-04-0.972E-06
CGA:  26    -0.285163385356E+03   -0.11280E-04   -0.11285E-04  7296   0.483E-04-0.740E-06
CGA:  27    -0.285163391899E+03   -0.65430E-05   -0.65396E-05  7296   0.310E-04-0.506E-06
   9 F= -.28516339E+03 E0= -.28515497E+03  d E =-.429589E-01  mag=    18.0000
       N       E                     dE             d eps       ncg     rms          ort
SDA:   1    -0.244124358057E+03    0.41039E+02    0.00000E+00  7296   0.128E+03 0.000E+00
CGA:   2    -0.265017192993E+03   -0.20893E+02   -0.20863E+02  7296   0.111E+03 0.970E+00
CGA:   3    -0.276892465490E+03   -0.11875E+02   -0.11921E+02  7296   0.452E+02 0.627E+00
CGA:   4    -0.282710554524E+03   -0.58181E+01   -0.57546E+01  7296   0.189E+02-0.111E+01
CGA:   5    -0.284203017680E+03   -0.14925E+01   -0.15898E+01  7296   0.553E+01-0.632E-01
CGA:   6    -0.284790244750E+03   -0.58723E+00   -0.58475E+00  7296   0.221E+01-0.993E-02
CGA:   7    -0.285008672906E+03   -0.21843E+00   -0.21940E+00  7296   0.812E+00 0.348E-02
CGA:   8    -0.285110849844E+03   -0.10218E+00   -0.10240E+00  7296   0.425E+00 0.922E-02
CGA:   9    -0.285147386011E+03   -0.36536E-01   -0.36646E-01  7296   0.168E+00-0.290E-03
CGA:  10    -0.285171564938E+03   -0.24179E-01   -0.24161E-01  7296   0.881E-01 0.100E-02
CGA:  11    -0.285180340021E+03   -0.87751E-02   -0.87801E-02  7296   0.413E-01 0.660E-04
CGA:  12    -0.285186536366E+03   -0.61963E-02   -0.61844E-02  7296   0.279E-01 0.444E-03
CGA:  13    -0.285189784384E+03   -0.32480E-02   -0.32481E-02  7296   0.134E-01 0.272E-04
CGA:  14    -0.285191786339E+03   -0.20020E-02   -0.19997E-02  7296   0.917E-02 0.956E-04
CGA:  15    -0.285192842138E+03   -0.10558E-02   -0.10569E-02  7296   0.351E-02 0.334E-04
CGA:  16    -0.285193361149E+03   -0.51901E-03   -0.51871E-03  7296   0.264E-02 0.152E-04
CGA:  17    -0.285193632707E+03   -0.27156E-03   -0.27194E-03  7296   0.960E-03 0.857E-05
CGA:  18    -0.285193775297E+03   -0.14259E-03   -0.14252E-03  7296   0.735E-03 0.401E-05
CGA:  19    -0.285193874810E+03   -0.99514E-04   -0.99497E-04  7296   0.416E-03 0.528E-05
CGA:  20    -0.285193933705E+03   -0.58895E-04   -0.58871E-04  7296   0.350E-03 0.277E-05
CGA:  21    -0.285194003445E+03   -0.69740E-04   -0.69492E-04  7296   0.283E-03 0.369E-05
CGA:  22    -0.285194045626E+03   -0.42181E-04   -0.42167E-04  7296   0.277E-03 0.104E-05
CGA:  23    -0.285194094440E+03   -0.48814E-04   -0.48876E-04  7296   0.213E-03-0.151E-05
CGA:  24    -0.285194121662E+03   -0.27222E-04   -0.27211E-04  7296   0.136E-03-0.127E-05
CGA:  25    -0.285194142884E+03   -0.21222E-04   -0.21270E-04  7296   0.113E-03-0.244E-05
CGA:  26    -0.285194155899E+03   -0.13015E-04   -0.12988E-04  7296   0.465E-04-0.133E-05
CGA:  27    -0.285194163456E+03   -0.75565E-05   -0.75858E-05  7296   0.433E-04-0.106E-05
  10 F= -.28519416E+03 E0= -.28518619E+03  d E =-.307716E-01  mag=    18.0000
       N       E                     dE             d eps       ncg     rms          ort
SDA:   1    -0.274478528264E+03    0.10716E+02    0.00000E+00  7296   0.352E+02 0.000E+00
CGA:   2    -0.279893840362E+03   -0.54153E+01   -0.54224E+01  7296   0.293E+02-0.274E+00
CGA:   3    -0.282890506161E+03   -0.29967E+01   -0.30363E+01  7296   0.120E+02 0.251E+00
CGA:   4    -0.284557442537E+03   -0.16669E+01   -0.16670E+01  7296   0.451E+01-0.119E+00
CGA:   5    -0.284975136831E+03   -0.41769E+00   -0.42098E+00  7296   0.153E+01 0.518E-02
CGA:   6    -0.285142266458E+03   -0.16713E+00   -0.16689E+00  7296   0.491E+00-0.213E-02
CGA:   7    -0.285197158552E+03   -0.54892E-01   -0.54960E-01  7296   0.215E+00 0.989E-03
CGA:   8    -0.285222644153E+03   -0.25486E-01   -0.25483E-01  7296   0.827E-01-0.536E-04
CGA:   9    -0.285231357458E+03   -0.87133E-02   -0.87257E-02  7296   0.437E-01 0.142E-03
CGA:  10    -0.285237301767E+03   -0.59443E-02   -0.59445E-02  7296   0.144E-01-0.138E-04
CGA:  11    -0.285239245277E+03   -0.19435E-02   -0.19433E-02  7296   0.105E-01 0.365E-04
CGA:  12    -0.285240644845E+03   -0.13996E-02   -0.13995E-02  7296   0.413E-02 0.115E-04
CGA:  13    -0.285241278096E+03   -0.63325E-03   -0.63291E-03  7296   0.321E-02 0.136E-04
CGA:  14    -0.285241680957E+03   -0.40286E-03   -0.40289E-03  7296   0.136E-02 0.380E-05
CGA:  15    -0.285241849944E+03   -0.16899E-03   -0.16903E-03  7296   0.822E-03 0.397E-05
CGA:  16    -0.285241969926E+03   -0.11998E-03   -0.11997E-03  7296   0.299E-03 0.120E-05
CGA:  17    -0.285242007771E+03   -0.37845E-04   -0.37856E-04  7296   0.222E-03 0.170E-05
CGA:  18    -0.285242037096E+03   -0.29325E-04   -0.29326E-04  7296   0.978E-04 0.114E-05
CGA:  19    -0.285242049842E+03   -0.12746E-04   -0.12749E-04  7296   0.652E-04 0.126E-05
CGA:  20    -0.285242061593E+03   -0.11751E-04   -0.11708E-04  7296   0.533E-04 0.932E-06
CGA:  21    -0.285242068584E+03   -0.69907E-05   -0.69936E-05  7296   0.354E-04 0.585E-06
  11 F= -.28524207E+03 E0= -.28523412E+03  d E =-.479051E-01  mag=    18.0000
       N       E                     dE             d eps       ncg     rms          ort
SDA:   1    -0.281613272746E+03    0.36288E+01    0.00000E+00  7296   0.123E+02 0.000E+00
CGA:   2    -0.283527985131E+03   -0.19147E+01   -0.19102E+01  7296   0.782E+01 0.154E+00
CGA:   3    -0.284459272067E+03   -0.93129E+00   -0.92449E+00  7296   0.474E+01-0.893E-01
CGA:   4    -0.285037567426E+03   -0.57830E+00   -0.57881E+00  7296   0.146E+01 0.139E-01
CGA:   5    -0.285192813608E+03   -0.15525E+00   -0.15493E+00  7296   0.524E+00-0.199E-02
CGA:   6    -0.285243710512E+03   -0.50897E-01   -0.50983E-01  7296   0.170E+00 0.262E-03
CGA:   7    -0.285262614269E+03   -0.18904E-01   -0.18888E-01  7296   0.729E-01-0.215E-03
CGA:   8    -0.285271532203E+03   -0.89179E-02   -0.89210E-02  7296   0.226E-01 0.141E-03
CGA:   9    -0.285274786790E+03   -0.32546E-02   -0.32548E-02  7296   0.146E-01-0.335E-05
CGA:  10    -0.285276287581E+03   -0.15008E-02   -0.15016E-02  7296   0.444E-02 0.137E-04
CGA:  11    -0.285276974076E+03   -0.68650E-03   -0.68638E-03  7296   0.343E-02 0.542E-05
CGA:  12    -0.285277352382E+03   -0.37831E-03   -0.37851E-03  7296   0.135E-02 0.711E-05
CGA:  13    -0.285277553290E+03   -0.20091E-03   -0.20088E-03  7296   0.106E-02 0.203E-05
CGA:  14    -0.285277683405E+03   -0.13012E-03   -0.13016E-03  7296   0.390E-03 0.424E-05
CGA:  15    -0.285277738122E+03   -0.54716E-04   -0.54709E-04  7296   0.285E-03 0.948E-06
CGA:  16    -0.285277776910E+03   -0.38788E-04   -0.38780E-04  7296   0.947E-04 0.209E-05
CGA:  17    -0.285277791350E+03   -0.14441E-04   -0.14435E-04  7296   0.863E-04 0.315E-06
CGA:  18    -0.285277801841E+03   -0.10491E-04   -0.10502E-04  7296   0.385E-04 0.917E-06
CGA:  19    -0.285277807289E+03   -0.54483E-05   -0.54454E-05  7296   0.309E-04 0.398E-06
  12 F= -.28527781E+03 E0= -.28526968E+03  d E =-.357387E-01  mag=    18.0000
       N       E                     dE             d eps       ncg     rms          ort
SDA:   1    -0.284126527635E+03    0.11513E+01    0.00000E+00  7296   0.324E+01 0.000E+00
CGA:   2    -0.284818512228E+03   -0.69198E+00   -0.69029E+00  7296   0.238E+01 0.185E-01
CGA:   3    -0.285097972080E+03   -0.27946E+00   -0.27779E+00  7296   0.121E+01-0.195E-01
CGA:   4    -0.285222187732E+03   -0.12422E+00   -0.12452E+00  7296   0.336E+00 0.158E-02
CGA:   5    -0.285257894839E+03   -0.35707E-01   -0.35670E-01  7296   0.121E+00-0.240E-03
CGA:   6    -0.285270412856E+03   -0.12518E-01   -0.12527E-01  7296   0.414E-01 0.635E-04
CGA:   7    -0.285275022532E+03   -0.46097E-02   -0.46082E-02  7296   0.182E-01-0.223E-04
CGA:   8    -0.285277134161E+03   -0.21116E-02   -0.21121E-02  7296   0.553E-02 0.127E-04
CGA:   9    -0.285277949500E+03   -0.81534E-03   -0.81538E-03  7296   0.360E-02-0.108E-05
CGA:  10    -0.285278288623E+03   -0.33912E-03   -0.33939E-03  7296   0.116E-02 0.361E-05
CGA:  11    -0.285278487897E+03   -0.19927E-03   -0.19919E-03  7296   0.855E-03 0.209E-05
CGA:  12    -0.285278589906E+03   -0.10201E-03   -0.10204E-03  7296   0.400E-03 0.240E-05
CGA:  13    -0.285278650983E+03   -0.61077E-04   -0.61069E-04  7296   0.317E-03 0.450E-06
CGA:  14    -0.285278688225E+03   -0.37242E-04   -0.37264E-04  7296   0.109E-03 0.132E-05
CGA:  15    -0.285278705435E+03   -0.17210E-04   -0.17207E-04  7296   0.885E-04 0.105E-06
CGA:  16    -0.285278714449E+03   -0.90140E-05   -0.90340E-05  7296   0.265E-04 0.624E-06
  13 F= -.28527871E+03 E0= -.28527057E+03  d E =-.907160E-03  mag=    18.0000
       N       E                     dE             d eps       ncg     rms          ort
SDA:   1    -0.281734470622E+03    0.35442E+01    0.00000E+00  7296   0.906E+01 0.000E+00
CGA:   2    -0.283939221089E+03   -0.22048E+01   -0.22124E+01  7296   0.984E+01-0.667E-01
CGA:   3    -0.284778923062E+03   -0.83970E+00   -0.85431E+00  7296   0.296E+01-0.135E-01
CGA:   4    -0.285124718944E+03   -0.34580E+00   -0.34507E+00  7296   0.104E+01-0.128E-01
CGA:   5    -0.285218631455E+03   -0.93913E-01   -0.94843E-01  7296   0.321E+00 0.122E-02
CGA:   6    -0.285255482531E+03   -0.36851E-01   -0.36802E-01  7296   0.123E+00-0.886E-03
CGA:   7    -0.285268381547E+03   -0.12899E-01   -0.12905E-01  7296   0.443E-01 0.694E-04
CGA:   8    -0.285274739609E+03   -0.63581E-02   -0.63580E-02  7296   0.137E-01 0.595E-06
CGA:   9    -0.285276424713E+03   -0.16851E-02   -0.16853E-02  7296   0.897E-02 0.121E-04
CGA:  10    -0.285277434530E+03   -0.10098E-02   -0.10097E-02  7296   0.287E-02 0.182E-05
CGA:  11    -0.285277842840E+03   -0.40831E-03   -0.40819E-03  7296   0.239E-02 0.808E-05
CGA:  12    -0.285278160043E+03   -0.31720E-03   -0.31720E-03  7296   0.111E-02 0.265E-05
CGA:  13    -0.285278308760E+03   -0.14872E-03   -0.14870E-03  7296   0.780E-03 0.496E-05
CGA:  14    -0.285278427837E+03   -0.11908E-03   -0.11902E-03  7296   0.337E-03 0.271E-05
CGA:  15    -0.285278468237E+03   -0.40399E-04   -0.40428E-04  7296   0.220E-03 0.234E-05
CGA:  16    -0.285278498510E+03   -0.30273E-04   -0.30267E-04  7296   0.822E-04 0.125E-05
CGA:  17    -0.285278508511E+03   -0.10002E-04   -0.10010E-04  7296   0.571E-04 0.754E-06
CGA:  18    -0.285278517385E+03   -0.88734E-05   -0.88665E-05  7296   0.354E-04 0.298E-06
  14 F= -.28527852E+03 E0= -.28527025E+03  d E =0.197064E-03  mag=    18.0000
       N       E                     dE             d eps       ncg     rms          ort
SDA:   1    -0.271102078738E+03    0.14176E+02    0.00000E+00  7296   0.385E+02 0.000E+00
CGA:   2    -0.279470582774E+03   -0.83685E+01   -0.83716E+01  7296   0.363E+02-0.368E-01
CGA:   3    -0.282985476414E+03   -0.35149E+01   -0.35762E+01  7296   0.135E+02 0.319E+00
CGA:   4    -0.284657546287E+03   -0.16721E+01   -0.16692E+01  7296   0.353E+01-0.901E-01
CGA:   5    -0.285008966525E+03   -0.35142E+00   -0.35429E+00  7296   0.152E+01 0.170E-01
CGA:   6    -0.285159575407E+03   -0.15061E+00   -0.14962E+00  7296   0.464E+00-0.373E-02
CGA:   7    -0.285217183162E+03   -0.57608E-01   -0.57629E-01  7296   0.216E+00 0.158E-02
CGA:   8    -0.285240931159E+03   -0.23748E-01   -0.23740E-01  7296   0.657E-01-0.760E-04
CGA:   9    -0.285250559865E+03   -0.96287E-02   -0.96231E-02  7296   0.381E-01 0.215E-03
CGA:  10    -0.285254618408E+03   -0.40585E-02   -0.40551E-02  7296   0.127E-01-0.216E-04
CGA:  11    -0.285256857799E+03   -0.22394E-02   -0.22362E-02  7296   0.102E-01 0.572E-04
CGA:  12    -0.285257907881E+03   -0.10501E-02   -0.10497E-02  7296   0.471E-02 0.647E-05
CGA:  13    -0.285258708680E+03   -0.80080E-03   -0.79970E-03  7296   0.347E-02 0.252E-04
CGA:  14    -0.285259078987E+03   -0.37031E-03   -0.37050E-03  7296   0.141E-02 0.817E-05
CGA:  15    -0.285259298209E+03   -0.21922E-03   -0.21895E-03  7296   0.869E-03 0.105E-04
CGA:  16    -0.285259397045E+03   -0.98836E-04   -0.98900E-04  7296   0.291E-03 0.375E-05
CGA:  17    -0.285259445131E+03   -0.48086E-04   -0.47985E-04  7296   0.227E-03 0.300E-05
CGA:  18    -0.285259469051E+03   -0.23920E-04   -0.23941E-04  7296   0.953E-04 0.772E-06
CGA:  19    -0.285259486270E+03   -0.17219E-04   -0.17166E-04  7296   0.955E-04 0.107E-05
CGA:  20    -0.285259500464E+03   -0.14193E-04   -0.14192E-04  7296   0.639E-04 0.118E-06
CGA:  21    -0.285259512304E+03   -0.11840E-04   -0.11828E-04  7296   0.740E-04 0.236E-06
CGA:  22    -0.285259524329E+03   -0.12025E-04   -0.12040E-04  7296   0.498E-04-0.583E-06
CGA:  23    -0.285259531409E+03   -0.70795E-05   -0.70813E-05  7296   0.430E-04-0.354E-06
  15 F= -.28525953E+03 E0= -.28525166E+03  d E =0.189860E-01  mag=    18.0000
       N       E                     dE             d eps       ncg     rms          ort
SDA:   1    -0.282093190365E+03    0.31663E+01    0.00000E+00  7296   0.103E+02 0.000E+00
CGA:   2    -0.283863424442E+03   -0.17702E+01   -0.17702E+01  7296   0.692E+01 0.246E-02
CGA:   3    -0.284643630831E+03   -0.78021E+00   -0.78508E+00  7296   0.385E+01 0.505E-01
CGA:   4    -0.285119503326E+03   -0.47587E+00   -0.47511E+00  7296   0.978E+00-0.159E-01
CGA:   5    -0.285239844637E+03   -0.12034E+00   -0.12041E+00  7296   0.405E+00 0.190E-02
CGA:   6    -0.285274789631E+03   -0.34945E-01   -0.34737E-01  7296   0.138E+00 0.433E-03
CGA:   7    -0.285293704828E+03   -0.18915E-01   -0.18914E-01  7296   0.509E-01 0.253E-03
CGA:   8    -0.285298762273E+03   -0.50574E-02   -0.50524E-02  7296   0.231E-01-0.743E-05
CGA:   9    -0.285302098890E+03   -0.33366E-02   -0.33361E-02  7296   0.844E-02 0.308E-04
CGA:  10    -0.285303108247E+03   -0.10094E-02   -0.10093E-02  7296   0.461E-02 0.211E-06
CGA:  11    -0.285303756673E+03   -0.64843E-03   -0.64836E-03  7296   0.216E-02 0.714E-05
CGA:  12    -0.285304004957E+03   -0.24828E-03   -0.24829E-03  7296   0.130E-02 0.124E-05
CGA:  13    -0.285304204440E+03   -0.19948E-03   -0.19938E-03  7296   0.686E-03 0.479E-05
CGA:  14    -0.285304274389E+03   -0.69949E-04   -0.69966E-04  7296   0.345E-03 0.705E-06
CGA:  15    -0.285304332478E+03   -0.58089E-04   -0.57998E-04  7296   0.145E-03 0.250E-05
CGA:  16    -0.285304349448E+03   -0.16970E-04   -0.16973E-04  7296   0.885E-04 0.140E-06
CGA:  17    -0.285304362453E+03   -0.13004E-04   -0.12995E-04  7296   0.384E-04 0.664E-06
CGA:  18    -0.285304367084E+03   -0.46315E-05   -0.46343E-05  7296   0.238E-04 0.215E-06
  16 F= -.28530437E+03 E0= -.28529630E+03  d E =-.448357E-01  mag=    18.0000
       N       E                     dE             d eps       ncg     rms          ort
SDA:   1    -0.284813267527E+03    0.49109E+00    0.00000E+00  7296   0.144E+01 0.000E+00
CGA:   2    -0.285102544669E+03   -0.28928E+00   -0.28932E+00  7296   0.104E+01-0.553E-03
CGA:   3    -0.285221287720E+03   -0.11874E+00   -0.11885E+00  7296   0.590E+00 0.145E-02
CGA:   4    -0.285283304946E+03   -0.62017E-01   -0.62031E-01  7296   0.146E+00 0.111E-03
CGA:   5    -0.285300114915E+03   -0.16810E-01   -0.16802E-01  7296   0.574E-01-0.133E-03
CGA:   6    -0.285305376092E+03   -0.52612E-02   -0.52692E-02  7296   0.181E-01 0.149E-04
CGA:   7    -0.285307814519E+03   -0.24384E-02   -0.24385E-02  7296   0.726E-02-0.708E-05
CGA:   8    -0.285308552418E+03   -0.73790E-03   -0.73825E-03  7296   0.308E-02 0.585E-05
CGA:   9    -0.285308956065E+03   -0.40365E-03   -0.40365E-03  7296   0.152E-02-0.124E-05
CGA:  10    -0.285309112835E+03   -0.15677E-03   -0.15686E-03  7296   0.540E-03 0.202E-05
CGA:  11    -0.285309207216E+03   -0.94381E-04   -0.94356E-04  7296   0.348E-03 0.601E-06
CGA:  12    -0.285309246783E+03   -0.39566E-04   -0.39583E-04  7296   0.175E-03 0.892E-06
CGA:  13    -0.285309277238E+03   -0.30455E-04   -0.30438E-04  7296   0.123E-03 0.409E-06
CGA:  14    -0.285309289487E+03   -0.12249E-04   -0.12272E-04  7296   0.533E-04 0.692E-06
CGA:  15    -0.285309298310E+03   -0.88235E-05   -0.88162E-05  7296   0.336E-04 0.218E-06
  17 F= -.28530930E+03 E0= -.28530122E+03  d E =-.493123E-02  mag=    18.0000
       N       E                     dE             d eps       ncg     rms          ort
SDA:   1    -0.285162031691E+03    0.14726E+00    0.00000E+00  7296   0.392E+00 0.000E+00
CGA:   2    -0.285249519588E+03   -0.87488E-01   -0.87506E-01  7296   0.331E+00-0.174E-03
CGA:   3    -0.285284743290E+03   -0.35224E-01   -0.35262E-01  7296   0.162E+00 0.314E-03
CGA:   4    -0.285301917536E+03   -0.17174E-01   -0.17166E-01  7296   0.366E-01-0.728E-04
CGA:   5    -0.285305930317E+03   -0.40128E-02   -0.40146E-02  7296   0.153E-01 0.237E-04
CGA:   6    -0.285307328158E+03   -0.13978E-02   -0.13963E-02  7296   0.452E-02-0.612E-05
CGA:   7    -0.285307963453E+03   -0.63530E-03   -0.63525E-03  7296   0.200E-02 0.348E-05
CGA:   8    -0.285308163382E+03   -0.19993E-03   -0.19989E-03  7296   0.728E-03-0.330E-06
CGA:   9    -0.285308268937E+03   -0.10556E-03   -0.10553E-03  7296   0.336E-03 0.147E-05
CGA:  10    -0.285308303338E+03   -0.34401E-04   -0.34394E-04  7296   0.142E-03-0.174E-06
CGA:  11    -0.285308325678E+03   -0.22340E-04   -0.22319E-04  7296   0.949E-04 0.689E-06
CGA:  12    -0.285308336325E+03   -0.10647E-04   -0.10644E-04  7296   0.452E-04-0.141E-06
CGA:  13    -0.285308344065E+03   -0.77403E-05   -0.77227E-05  7296   0.335E-04 0.413E-06
  18 F= -.28530834E+03 E0= -.28530028E+03  d E =0.954245E-03  mag=    18.0000
       N       E                     dE             d eps       ncg     rms          ort
SDA:   1    -0.284457932500E+03    0.85040E+00    0.00000E+00  7296   0.227E+01 0.000E+00
CGA:   2    -0.284923645361E+03   -0.46571E+00   -0.46679E+00  7296   0.250E+01-0.122E-01
CGA:   3    -0.285147754107E+03   -0.22411E+00   -0.22611E+00  7296   0.888E+00 0.229E-02
CGA:   4    -0.285256978455E+03   -0.10922E+00   -0.10920E+00  7296   0.279E+00-0.139E-02
CGA:   5    -0.285282979147E+03   -0.26001E-01   -0.26049E-01  7296   0.889E-01 0.146E-03
CGA:   6    -0.285293446147E+03   -0.10467E-01   -0.10465E-01  7296   0.268E-01-0.804E-04
CGA:   7    -0.285296511427E+03   -0.30653E-02   -0.30663E-02  7296   0.138E-01 0.328E-04
CGA:   8    -0.285298079141E+03   -0.15677E-02   -0.15675E-02  7296   0.391E-02-0.426E-05
CGA:   9    -0.285298621299E+03   -0.54216E-03   -0.54208E-03  7296   0.241E-02 0.585E-05
CGA:  10    -0.285298877340E+03   -0.25604E-03   -0.25603E-03  7296   0.802E-03 0.148E-06
CGA:  11    -0.285298989037E+03   -0.11170E-03   -0.11167E-03  7296   0.649E-03 0.215E-05
CGA:  12    -0.285299072730E+03   -0.83693E-04   -0.83692E-04  7296   0.238E-03 0.612E-06
CGA:  13    -0.285299114245E+03   -0.41515E-04   -0.41414E-04  7296   0.221E-03 0.211E-05
CGA:  14    -0.285299138426E+03   -0.24180E-04   -0.24204E-04  7296   0.758E-04 0.115E-05
CGA:  15    -0.285299149816E+03   -0.11390E-04   -0.11365E-04  7296   0.532E-04 0.121E-05
CGA:  16    -0.285299156067E+03   -0.62514E-05   -0.62579E-05  7296   0.178E-04 0.476E-06
  19 F= -.28529916E+03 E0= -.28529113E+03  d E =0.918800E-02  mag=    18.0000
       N       E                     dE             d eps       ncg     rms          ort
SDA:   1    -0.284846063884E+03    0.45309E+00    0.00000E+00  7296   0.139E+01 0.000E+00
CGA:   2    -0.285072978040E+03   -0.22691E+00   -0.22666E+00  7296   0.125E+01 0.521E-02
CGA:   3    -0.285194866086E+03   -0.12189E+00   -0.12142E+00  7296   0.554E+00-0.212E-02
CGA:   4    -0.285270828290E+03   -0.75962E-01   -0.75950E-01  7296   0.152E+00 0.817E-03
CGA:   5    -0.285287021199E+03   -0.16193E-01   -0.16179E-01  7296   0.629E-01-0.180E-03
CGA:   6    -0.285292991361E+03   -0.59702E-02   -0.59747E-02  7296   0.155E-01 0.278E-04
CGA:   7    -0.285295295184E+03   -0.23038E-02   -0.23042E-02  7296   0.735E-02-0.111E-04
CGA:   8    -0.285296006517E+03   -0.71133E-03   -0.71170E-03  7296   0.279E-02 0.610E-05
CGA:   9    -0.285296399793E+03   -0.39328E-03   -0.39329E-03  7296   0.144E-02-0.471E-06
CGA:  10    -0.285296544744E+03   -0.14495E-03   -0.14501E-03  7296   0.516E-03 0.158E-05
CGA:  11    -0.285296625813E+03   -0.81069E-04   -0.81080E-04  7296   0.381E-03-0.290E-06
CGA:  12    -0.285296667239E+03   -0.41426E-04   -0.41444E-04  7296   0.144E-03 0.905E-06
CGA:  13    -0.285296695325E+03   -0.28085E-04   -0.28046E-04  7296   0.116E-03 0.570E-06
CGA:  14    -0.285296706741E+03   -0.11417E-04   -0.11438E-04  7296   0.435E-04 0.688E-06
CGA:  15    -0.285296714621E+03   -0.78802E-05   -0.78555E-05  7296   0.321E-04 0.478E-06
  20 F= -.28529671E+03 E0= -.28528868E+03  d E =0.244145E-02  mag=    18.0000
       N       E                     dE             d eps       ncg     rms          ort
SDA:   1    -0.285079455318E+03    0.21725E+00    0.00000E+00  7296   0.659E+00 0.000E+00
CGA:   2    -0.285208423487E+03   -0.12897E+00   -0.12890E+00  7296   0.433E+00 0.899E-03
CGA:   3    -0.285262711216E+03   -0.54288E-01   -0.54254E-01  7296   0.267E+00-0.211E-02
CGA:   4    -0.285288688984E+03   -0.25978E-01   -0.26022E-01  7296   0.728E-01 0.235E-03
CGA:   5    -0.285296741579E+03   -0.80526E-02   -0.80505E-02  7296   0.250E-01-0.335E-04
CGA:   6    -0.285299262045E+03   -0.25205E-02   -0.25209E-02  7296   0.862E-02 0.805E-05
CGA:   7    -0.285300324700E+03   -0.10627E-02   -0.10626E-02  7296   0.372E-02-0.236E-05
CGA:   8    -0.285300705327E+03   -0.38063E-03   -0.38068E-03  7296   0.129E-02 0.633E-06
CGA:   9    -0.285300901489E+03   -0.19616E-03   -0.19619E-03  7296   0.646E-03-0.936E-06
CGA:  10    -0.285300965497E+03   -0.64008E-04   -0.64031E-04  7296   0.260E-03 0.627E-06
CGA:  11    -0.285301006690E+03   -0.41193E-04   -0.41192E-04  7296   0.163E-03 0.270E-07
CGA:  12    -0.285301023835E+03   -0.17145E-04   -0.17161E-04  7296   0.761E-04 0.671E-06
CGA:  13    -0.285301037368E+03   -0.13534E-04   -0.13542E-04  7296   0.477E-04-0.155E-06
CGA:  14    -0.285301042504E+03   -0.51361E-05   -0.51393E-05  7296   0.224E-04 0.149E-06
  21 F= -.28530104E+03 E0= -.28529299E+03  d E =-.432788E-02  mag=    18.0000
