       N       E                     dE             d eps       ncg     rms          rms(c)
DAV:   1     0.611106644266E+03    0.61111E+03   -0.30577E+04176979   0.170E+03
DAV:   2    -0.424313248618E+02   -0.65354E+03   -0.62746E+03172875   0.497E+02
DAV:   3    -0.798822111212E+02   -0.37451E+02   -0.36677E+02183729   0.135E+02
DAV:   4    -0.804811975516E+02   -0.59899E+00   -0.59854E+00188781   0.176E+01
DAV:   5    -0.804942178668E+02   -0.13020E-01   -0.13020E-01186510   0.256E+00    0.234E+01
DAV:   6    -0.705636902430E+02    0.99305E+01   -0.19389E+01182652   0.405E+01    0.130E+01
DAV:   7    -0.718405859454E+02   -0.12769E+01   -0.15980E+00184311   0.937E+00    0.695E+00
DAV:   8    -0.719900776518E+02   -0.14949E+00   -0.25779E-01180834   0.319E+00    0.390E+00
DAV:   9    -0.721437953905E+02   -0.15372E+00   -0.46362E-01183342   0.338E+00    0.967E-01
DAV:  10    -0.721567238571E+02   -0.12928E-01   -0.30904E-02183219   0.126E+00    0.403E-01
DAV:  11    -0.721738777828E+02   -0.17154E-01   -0.54815E-03186771   0.495E-01    0.184E-01
DAV:  12    -0.721784018223E+02   -0.45240E-02   -0.45969E-03184317   0.567E-01    0.164E-01
DAV:  13    -0.721792485574E+02   -0.84674E-03   -0.94906E-04186588   0.491E-01    0.822E-02
DAV:  14    -0.721801126025E+02   -0.86405E-03   -0.24091E-04193701   0.181E-01    0.223E-02
DAV:  15    -0.721801798477E+02   -0.67245E-04   -0.43630E-05170268   0.582E-02    0.130E-02
DAV:  16    -0.721802694471E+02   -0.89599E-04   -0.11474E-05123648   0.354E-02    0.964E-03
DAV:  17    -0.721803290072E+02   -0.59560E-04   -0.65414E-06 97110   0.243E-02    0.669E-03
DAV:  18    -0.721802968264E+02    0.32181E-04   -0.17268E-06 90072   0.153E-02    0.351E-03
DAV:  19    -0.721802951895E+02    0.16369E-05   -0.72776E-07 89088   0.118E-02
   1 F= -.72180295E+02 E0= -.72177405E+02  d E =-.721803E+02  mag=    15.2016
       N       E                     dE             d eps       ncg     rms          rms(c)
DAV:   1    -0.773358332191E+02   -0.51555E+01   -0.60420E+01175734   0.796E+01    0.217E+01
DAV:   2    -0.721644475915E+02    0.51714E+01   -0.18124E+01181131   0.385E+01    0.200E+01
DAV:   3    -0.722645231219E+02   -0.10008E+00   -0.50411E-01177888   0.562E+00    0.335E+00
DAV:   4    -0.722446569947E+02    0.19866E-01   -0.93750E-02183090   0.231E+00    0.195E+00
DAV:   5    -0.722403576436E+02    0.42994E-02   -0.44625E-02172986   0.154E+00    0.702E-01
DAV:   6    -0.722452906311E+02   -0.49330E-02   -0.30044E-03182895   0.473E-01    0.304E-01
DAV:   7    -0.722459496612E+02   -0.65903E-03   -0.81569E-04184740   0.343E-01    0.140E-01
DAV:   8    -0.722460155097E+02   -0.65849E-04   -0.61699E-04185472   0.419E-01    0.138E-01
DAV:   9    -0.722463886478E+02   -0.37314E-03   -0.24771E-04179688   0.247E-01    0.558E-02
DAV:  10    -0.722468735233E+02   -0.48488E-03   -0.82071E-05174162   0.859E-02    0.984E-03
DAV:  11    -0.722469953174E+02   -0.12179E-03   -0.77031E-06 97425   0.367E-02    0.711E-03
DAV:  12    -0.722470293943E+02   -0.34077E-04   -0.15785E-06 87870   0.190E-02    0.267E-03
DAV:  13    -0.722470855807E+02   -0.56186E-04   -0.70509E-07 87450   0.910E-03    0.206E-03
DAV:  14    -0.722471056290E+02   -0.20048E-04   -0.23245E-07 87426   0.626E-03    0.133E-03
DAV:  15    -0.722471253235E+02   -0.19694E-04   -0.12438E-07 87240   0.342E-03    0.389E-04
DAV:  16    -0.722471337469E+02   -0.84234E-05   -0.36644E-08 87282   0.178E-03
   2 F= -.72247134E+02 E0= -.72244715E+02  d E =-.668386E-01  mag=    15.6768
       N       E                     dE             d eps       ncg     rms          rms(c)
DAV:   1    -0.728315966755E+02   -0.58447E+00   -0.68119E+00176130   0.261E+01    0.724E+00
DAV:   2    -0.721990666832E+02    0.63253E+00   -0.20207E+00181416   0.131E+01    0.642E+00
DAV:   3    -0.722513095136E+02   -0.52243E-01   -0.60490E-02177252   0.190E+00    0.107E+00
DAV:   4    -0.722515800760E+02   -0.27056E-03   -0.89116E-03184008   0.753E-01    0.622E-01
DAV:   5    -0.722474512958E+02    0.41288E-02   -0.55919E-03173196   0.518E-01    0.199E-01
DAV:   6    -0.722492722513E+02   -0.18210E-02   -0.40923E-04179436   0.167E-01    0.768E-02
DAV:   7    -0.722494791813E+02   -0.20693E-03   -0.58750E-05168624   0.837E-02    0.361E-02
DAV:   8    -0.722496336153E+02   -0.15443E-03   -0.33641E-05154983   0.116E-01    0.224E-02
DAV:   9    -0.722497279244E+02   -0.94309E-04   -0.14271E-05127392   0.710E-02    0.739E-03
DAV:  10    -0.722497851887E+02   -0.57264E-04   -0.33371E-06 87516   0.200E-02    0.312E-03
DAV:  11    -0.722498165019E+02   -0.31313E-04   -0.92925E-07 87288   0.967E-03    0.150E-03
DAV:  12    -0.722498391825E+02   -0.22681E-04   -0.29275E-07 87252   0.490E-03    0.836E-04
DAV:  13    -0.722498460744E+02   -0.68920E-05   -0.84763E-08 87258   0.280E-03
   3 F= -.72249846E+02 E0= -.72247735E+02  d E =-.695509E-01  mag=    15.7885
       N       E                     dE             d eps       ncg     rms          rms(c)
DAV:   1    -0.723062177299E+02   -0.56379E-01   -0.67639E-01176928   0.810E+00    0.223E+00
DAV:   2    -0.722609394467E+02    0.45278E-01   -0.16246E-01179991   0.397E+00    0.190E+00
DAV:   3    -0.722515474632E+02    0.93920E-02   -0.59567E-03176526   0.568E-01    0.331E-01
DAV:   4    -0.722498845923E+02    0.16629E-02   -0.65981E-04181755   0.213E-01    0.189E-01
DAV:   5    -0.722511148509E+02   -0.12303E-02   -0.42956E-04176136   0.136E-01    0.710E-02
DAV:   6    -0.722506909254E+02    0.42393E-03   -0.47124E-05162795   0.537E-02    0.205E-02
DAV:   7    -0.722506774775E+02    0.13448E-04   -0.88211E-06105324   0.478E-02    0.162E-02
DAV:   8    -0.722506550451E+02    0.22432E-04   -0.55504E-06 88326   0.492E-02    0.911E-03
DAV:   9    -0.722506183002E+02    0.36745E-04   -0.18493E-06 87054   0.231E-02    0.238E-03
DAV:  10    -0.722506024492E+02    0.15851E-04   -0.53648E-07 87030   0.877E-03    0.128E-03
DAV:  11    -0.722505970118E+02    0.54374E-05   -0.14058E-07 86976   0.418E-03
   4 F= -.72250597E+02 E0= -.72248367E+02  d E =-.703018E-01  mag=    15.7655
