       N       E                     dE             d eps       ncg     rms          ort
DAV:   1     0.955666203094E+04    0.95567E+04   -0.30233E+05 24304   0.205E+03
DAV:   2     0.125096778058E+04   -0.83057E+04   -0.75843E+04 24304   0.556E+02
DAV:   3    -0.302593288753E+03   -0.15536E+04   -0.14454E+04 24304   0.253E+02
DAV:   4    -0.399786093647E+03   -0.97193E+02   -0.96138E+02 24304   0.633E+01
DAV:   5    -0.401356607638E+03   -0.15705E+01   -0.15542E+01 24304   0.820E+00
SDA:   6     0.226865792248E+02    0.42404E+03   -0.15542E+01 24304   0.395E+04 0.000E+00
CGA:   7    -0.633319005820E+02   -0.86018E+02   -0.15241E+03 24304   0.507E+04-0.206E+04
CGA:   8     0.555161716921E+02    0.11885E+03   -0.28077E+03 24304   0.731E+04-0.204E+04
CGA:   9    -0.164672638573E+03   -0.22019E+03   -0.11337E+03 24304   0.596E+04-0.408E+04
CGA:  10    -0.142446289751E+02    0.15043E+03   -0.26210E+03 24304   0.869E+04-0.329E+04
CGA:  11     0.400275580563E+02    0.54272E+02   -0.35846E+03 24304   0.897E+04-0.554E+04
CGA:  12     0.584430190779E+02    0.18415E+02   -0.34520E+03 24304   0.144E+05-0.119E+05
CGA:  13     0.222741161272E+03    0.16430E+03   -0.70329E+03 24304   0.797E+04-0.633E+04
CGA:  14    -0.124258064483E+03   -0.34700E+03   -0.10066E+03 24304   0.688E+04 0.325E+04
CGA:  15     0.517391199253E+02    0.17600E+03   -0.38523E+03 24304   0.161E+05-0.927E+04
CGA:  16    -0.922473674417E+02   -0.14399E+03   -0.69616E+03 24304   0.749E+04-0.101E+05
CGA:  17    -0.242261469222E+03   -0.15001E+03   -0.25574E+03 24304   0.157E+04-0.205E+04
CGA:  18    -0.275414898900E+03   -0.33153E+02   -0.20539E+02 24304   0.583E+03 0.331E+03
CGA:  19    -0.272437475832E+03    0.29774E+01   -0.16704E+02 24304   0.132E+04-0.111E+04
CGA:  20    -0.256224022057E+03    0.16213E+02   -0.44886E+02 24304   0.224E+04-0.130E+04
CGA:  21    -0.239466317573E+03    0.16758E+02   -0.77387E+02 24304   0.257E+04-0.210E+04
CGA:  22    -0.245063529737E+03   -0.55972E+01   -0.75249E+02 24304   0.303E+04-0.305E+04
CGA:  23    -0.233058030508E+03    0.12005E+02   -0.97964E+02 24304   0.296E+04-0.260E+04
CGA:  24    -0.252147290396E+03   -0.19089E+02   -0.81621E+02 24304   0.275E+04-0.331E+04
CGA:  25    -0.238910900335E+03    0.13236E+02   -0.84140E+02 24304   0.310E+04-0.270E+04
CGA:  26    -0.231076071685E+03    0.78348E+01   -0.93285E+02 24304   0.319E+04-0.293E+04
CGA:  27    -0.239220078486E+03   -0.81440E+01   -0.91019E+02 24304   0.295E+04-0.321E+04
CGA:  28    -0.246167870650E+03   -0.69478E+01   -0.81365E+02 24304   0.307E+04-0.326E+04
CGA:  29    -0.244046905153E+03    0.21210E+01   -0.86237E+02 24304   0.294E+04-0.288E+04
CGA:  30    -0.254311125962E+03   -0.10264E+02   -0.77011E+02 24304   0.274E+04-0.302E+04
CGA:  31    -0.257376118833E+03   -0.30650E+01   -0.71933E+02 24304   0.250E+04-0.261E+04
CGA:  32    -0.266698667556E+03   -0.93225E+01   -0.61456E+02 24304   0.215E+04-0.242E+04
CGA:  33    -0.273095916189E+03   -0.63972E+01   -0.51770E+02 24304   0.174E+04-0.191E+04
CGA:  34    -0.278534603241E+03   -0.54387E+01   -0.39672E+02 24304   0.155E+04-0.162E+04
CGA:  35    -0.278682361960E+03   -0.14776E+00   -0.34700E+02 24304   0.161E+04-0.151E+04
CGA:  36    -0.273870973702E+03    0.48114E+01   -0.33435E+02 24304   0.240E+04-0.192E+04
CGA:  37    -0.263878433202E+03    0.99925E+01   -0.57505E+02 24304   0.186E+04-0.155E+04
CGA:  38    -0.278441613967E+03   -0.14563E+02   -0.36944E+02 24304   0.211E+04-0.272E+04
CGA:  39    -0.272304760674E+03    0.61369E+01   -0.46473E+02 24304   0.174E+04-0.156E+04
CGA:  40    -0.280906881885E+03   -0.86021E+01   -0.32597E+02 24304   0.202E+04-0.234E+04
CGA:  41    -0.275786826522E+03    0.51201E+01   -0.42315E+02 24304   0.165E+04-0.147E+04
CGA:  42    -0.285237318585E+03   -0.94505E+01   -0.29515E+02 24304   0.171E+04-0.212E+04
CGA:  43    -0.283171007705E+03    0.20663E+01   -0.32557E+02 24304   0.146E+04-0.137E+04
CGA:  44    -0.291022375312E+03   -0.78514E+01   -0.23629E+02 24304   0.136E+04-0.172E+04
CGA:  45    -0.291004269745E+03    0.18106E-01   -0.22999E+02 24304   0.107E+04-0.106E+04
CGA:  46    -0.297995140009E+03   -0.69909E+01   -0.15105E+02 24304   0.756E+03-0.111E+04
CGA:  47    -0.299875315379E+03   -0.18802E+01   -0.10564E+02 24304   0.449E+03-0.528E+03
CGA:  48    -0.303455088526E+03   -0.35798E+01   -0.48478E+01 24304   0.970E+02-0.231E+03
CGA:  49    -0.304081426239E+03   -0.62634E+00   -0.96220E+00 24304   0.179E+02-0.316E+02
CGA:  50    -0.304332586178E+03   -0.25116E+00   -0.24243E+00 24304   0.746E+01 0.200E+00
CGA:  51    -0.304647397356E+03   -0.31481E+00   -0.31420E+00 24304   0.211E+02 0.318E+00
CGA:  52    -0.305310782718E+03   -0.66339E+00   -0.12876E+01 24304   0.998E+02-0.309E+02
CGA:  53    -0.306104027032E+03   -0.79324E+00   -0.10776E+01 24304   0.157E+02-0.254E+02
CGA:  54    -0.306254823311E+03   -0.15080E+00   -0.14750E+00 24304   0.219E+01 0.167E+00
CGA:  55    -0.306338835436E+03   -0.84012E-01   -0.84018E-01 24304   0.491E+01 0.484E-02
CGA:  56    -0.306776147054E+03   -0.43731E+00   -0.41132E+00 24304   0.122E+02 0.494E+00
CGA:  57    -0.307028303680E+03   -0.25216E+00   -0.25367E+00 24304   0.523E+01 0.110E+00
CGA:  58    -0.307135994834E+03   -0.10769E+00   -0.11002E+00 24304   0.180E+01-0.306E-01
CGA:  59    -0.307183678046E+03   -0.47683E-01   -0.47902E-01 24304   0.119E+01 0.179E-02
CGA:  60    -0.307260747610E+03   -0.77070E-01   -0.75719E-01 24304   0.213E+01 0.476E-01
CGA:  61    -0.307334002138E+03   -0.73255E-01   -0.73933E-01 24304   0.141E+01 0.361E-01
CGA:  62    -0.307376405204E+03   -0.42403E-01   -0.42991E-01 24304   0.846E+00 0.129E-01
CGA:  63    -0.307404082369E+03   -0.27677E-01   -0.27927E-01 24304   0.897E+00 0.137E-01
CGA:  64    -0.307461471541E+03   -0.57389E-01   -0.56557E-01 24304   0.122E+01 0.300E-01
CGA:  65    -0.307527775129E+03   -0.66304E-01   -0.65623E-01 24304   0.758E+00 0.391E-01
CGA:  66    -0.307559589133E+03   -0.31814E-01   -0.31805E-01 24304   0.505E+00 0.112E-01
CGA:  67    -0.307589920073E+03   -0.30331E-01   -0.30412E-01 24304   0.761E+00-0.357E-02
CGA:  68    -0.307628013728E+03   -0.38094E-01   -0.37722E-01 24304   0.687E+00 0.281E-01
CGA:  69    -0.307651558845E+03   -0.23545E-01   -0.23391E-01 24304   0.266E+00-0.458E-02
CGA:  70    -0.307664687994E+03   -0.13129E-01   -0.13090E-01 24304   0.302E+00 0.306E-02
CGA:  71    -0.307688537784E+03   -0.23850E-01   -0.24136E-01 24304   0.524E+00-0.794E-02
CGA:  72    -0.307714777009E+03   -0.26239E-01   -0.26326E-01 24304   0.325E+00-0.738E-02
CGA:  73    -0.307727001726E+03   -0.12225E-01   -0.12235E-01 24304   0.220E+00 0.666E-03
CGA:  74    -0.307741539452E+03   -0.14538E-01   -0.14693E-01 24304   0.452E+00-0.597E-02
CGA:  75    -0.307764606467E+03   -0.23067E-01   -0.23380E-01 24304   0.388E+00-0.247E-01
CGA:  76    -0.307776467889E+03   -0.11861E-01   -0.12038E-01 24304   0.145E+00 0.235E-02
CGA:  77    -0.307783346424E+03   -0.68785E-02   -0.68710E-02 24304   0.236E+00 0.178E-02
CGA:  78    -0.307806032544E+03   -0.22686E-01   -0.22282E-01 24304   0.559E+00 0.105E-01
CGA:  79    -0.307833668992E+03   -0.27636E-01   -0.27651E-01 24304   0.343E+00-0.364E-01
CGA:  80    -0.307848306222E+03   -0.14637E-01   -0.14609E-01 24304   0.381E+00-0.771E-02
CGA:  81    -0.307867542327E+03   -0.19236E-01   -0.19192E-01 24304   0.372E+00 0.756E-02
CGA:  82    -0.307889357029E+03   -0.21815E-01   -0.22756E-01 24304   0.688E+00-0.571E-01
SDA:  83    -0.307907693819E+03   -0.18337E-01   -0.17515E-01 24304   0.903E+00-0.116E-02
CGA:  84    -0.307933258452E+03   -0.25565E-01   -0.25863E-01 24304   0.360E+00-0.201E-02
CGA:  85    -0.308011490086E+03   -0.78232E-01   -0.76063E-01 24304   0.262E+01 0.128E-01
CGA:  86    -0.308195593318E+03   -0.18410E+00   -0.18113E+00 24304   0.122E+01 0.957E-01
CGA:  87    -0.308243257898E+03   -0.47665E-01   -0.47448E-01 24304   0.876E+00 0.107E-02
CGA:  88    -0.308315556171E+03   -0.72298E-01   -0.70459E-01 24304   0.105E+01 0.517E-01
CGA:  89    -0.308361996032E+03   -0.46440E-01   -0.46410E-01 24304   0.404E+00-0.517E-04
CGA:  90    -0.308381331474E+03   -0.19335E-01   -0.19264E-01 24304   0.428E+00-0.339E-02
CGA:  91    -0.308419756287E+03   -0.38425E-01   -0.41084E-01 24304   0.111E+01-0.532E-01
CGA:  92    -0.308462844646E+03   -0.43088E-01   -0.43905E-01 24304   0.524E+00 0.235E-01
CGA:  93    -0.308479481089E+03   -0.16636E-01   -0.15362E-01 24304   0.326E+00 0.181E-01
CGA:  94    -0.308502381572E+03   -0.22900E-01   -0.23244E-01 24304   0.917E+00-0.173E-01
CGA:  95    -0.308537506076E+03   -0.35125E-01   -0.35109E-01 24304   0.871E+00-0.667E-02
CGA:  96    -0.308554262380E+03   -0.16756E-01   -0.15472E-01 24304   0.243E+00 0.577E-01
CGA:  97    -0.308560381172E+03   -0.61188E-02   -0.59078E-02 24304   0.232E+00 0.596E-02
CGA:  98    -0.308572756813E+03   -0.12376E-01   -0.12380E-01 24304   0.687E+00-0.280E-02
CGA:  99    -0.308593467918E+03   -0.20711E-01   -0.20451E-01 24304   0.695E+00 0.249E-02
CGA: 100    -0.308605606241E+03   -0.12138E-01   -0.12098E-01 24304   0.339E+00 0.214E-02
CGA: 101    -0.308612864579E+03   -0.72583E-02   -0.73664E-02 24304   0.297E+00-0.289E-02
CGA: 102    -0.308620385211E+03   -0.75206E-02   -0.75948E-02 24304   0.291E+00-0.131E-02
CGA: 103    -0.308628210515E+03   -0.78253E-02   -0.77761E-02 24304   0.369E+00 0.306E-03
CGA: 104    -0.308639724076E+03   -0.11514E-01   -0.11413E-01 24304   0.464E+00-0.583E-03
CGA: 105    -0.308648611646E+03   -0.88876E-02   -0.86942E-02 24304   0.251E+00 0.686E-02
CGA: 106    -0.308653028170E+03   -0.44165E-02   -0.44097E-02 24304   0.153E+00 0.180E-03
CGA: 107    -0.308656725917E+03   -0.36977E-02   -0.36972E-02 24304   0.190E+00-0.898E-04
CGA: 108    -0.308662807430E+03   -0.60815E-02   -0.60818E-02 24304   0.330E+00-0.183E-03
CGA: 109    -0.308671825937E+03   -0.90185E-02   -0.89684E-02 24304   0.381E+00-0.308E-03
CGA: 110    -0.308679073869E+03   -0.72479E-02   -0.72549E-02 24304   0.213E+00-0.273E-03
CGA: 111    -0.308682352436E+03   -0.32786E-02   -0.33380E-02 24304   0.902E-01-0.257E-02
CGA: 112    -0.308684049184E+03   -0.16967E-02   -0.17139E-02 24304   0.687E-01-0.442E-03
CGA: 113    -0.308685978875E+03   -0.19297E-02   -0.19363E-02 24304   0.105E+00 0.156E-03
SDA: 114    -0.308690383884E+03   -0.44050E-02   -0.43983E-02 24304   0.242E+00 0.772E-03
CGA: 115    -0.308696113456E+03   -0.57296E-02   -0.57297E-02 24304   0.500E-01-0.848E-06
CGA: 116    -0.308698301099E+03   -0.21876E-02   -0.21883E-02 24304   0.634E-01-0.651E-04
CGA: 117    -0.308704737014E+03   -0.64359E-02   -0.63941E-02 24304   0.168E+00 0.717E-03
CGA: 118    -0.308713055629E+03   -0.83186E-02   -0.82901E-02 24304   0.740E-01 0.212E-02
CGA: 119    -0.308715811771E+03   -0.27561E-02   -0.27566E-02 24304   0.458E-01 0.100E-03
CGA: 120    -0.308720408208E+03   -0.45964E-02   -0.45720E-02 24304   0.112E+00 0.417E-03
CGA: 121    -0.308724878205E+03   -0.44700E-02   -0.44762E-02 24304   0.203E-01 0.871E-03
CGA: 122    -0.308726004147E+03   -0.11259E-02   -0.11261E-02 24304   0.319E-01-0.146E-04
CGA: 123    -0.308729972772E+03   -0.39686E-02   -0.41023E-02 24304   0.547E-01-0.197E-02
CGA: 124    -0.308731689426E+03   -0.17167E-02   -0.17312E-02 24304   0.133E-01 0.491E-04
CGA: 125    -0.308732491145E+03   -0.80172E-03   -0.80126E-03 24304   0.219E-01 0.182E-04
CGA: 126    -0.308734867550E+03   -0.23764E-02   -0.26266E-02 24304   0.754E-01-0.413E-02
CGA: 127    -0.308737032931E+03   -0.21654E-02   -0.20044E-02 24304   0.794E-01 0.903E-03
CGA: 128    -0.308738878442E+03   -0.18455E-02   -0.18969E-02 24304   0.359E-01-0.839E-03
CGA: 129    -0.308739665413E+03   -0.78697E-03   -0.80356E-03 24304   0.258E-01-0.413E-03
CGA: 130    -0.308741469795E+03   -0.18044E-02   -0.17926E-02 24304   0.810E-01 0.393E-03
CGA: 131    -0.308744067266E+03   -0.25975E-02   -0.24558E-02 24304   0.576E-01 0.691E-03
CGA: 132    -0.308745349087E+03   -0.12818E-02   -0.12442E-02 24304   0.335E-01 0.109E-02
CGA: 133    -0.308746115903E+03   -0.76682E-03   -0.76524E-03 24304   0.281E-01 0.788E-04
CGA: 134    -0.308747196919E+03   -0.10810E-02   -0.10832E-02 24304   0.599E-01 0.138E-03
CGA: 135    -0.308749968309E+03   -0.27714E-02   -0.27739E-02 24304   0.148E+00-0.105E-02
CGA: 136    -0.308753987654E+03   -0.40193E-02   -0.35556E-02 24304   0.180E+00 0.794E-02
CGA: 137    -0.308756685186E+03   -0.26975E-02   -0.24810E-02 24304   0.108E+00 0.121E-01
CGA: 138    -0.308758071495E+03   -0.13863E-02   -0.13972E-02 24304   0.639E-01-0.553E-03
CGA: 139    -0.308759112393E+03   -0.10409E-02   -0.10555E-02 24304   0.827E-01-0.455E-03
CGA: 140    -0.308761366878E+03   -0.22545E-02   -0.22475E-02 24304   0.210E+00 0.317E-03
CGA: 141    -0.308765371749E+03   -0.40049E-02   -0.34031E-02 24304   0.276E+00 0.217E-01
CGA: 142    -0.308768374521E+03   -0.30028E-02   -0.25712E-02 24304   0.192E+00 0.458E-01
CGA: 143    -0.308770360107E+03   -0.19856E-02   -0.18156E-02 24304   0.133E+00 0.187E-01
CGA: 144    -0.308771783376E+03   -0.14233E-02   -0.13728E-02 24304   0.141E+00 0.398E-02
SDA: 145    -0.308773249042E+03   -0.14657E-02   -0.15259E-02 24304   0.187E+00-0.523E-02
CGA: 146    -0.308779062868E+03   -0.58138E-02   -0.58120E-02 24304   0.161E+00-0.573E-03
CGA: 147    -0.308805639265E+03   -0.26576E-01   -0.26134E-01 24304   0.724E+00 0.371E-02
CGA: 148    -0.308835075310E+03   -0.29436E-01   -0.29401E-01 24304   0.229E+00 0.257E-01
CGA: 149    -0.308843887707E+03   -0.88124E-02   -0.88094E-02 24304   0.138E+00-0.745E-03
CGA: 150    -0.308855976695E+03   -0.12089E-01   -0.12007E-01 24304   0.300E+00 0.159E-02
CGA: 151    -0.308872597301E+03   -0.16621E-01   -0.16617E-01 24304   0.196E+00 0.825E-04
CGA: 152    -0.308877653947E+03   -0.50566E-02   -0.51174E-02 24304   0.452E-01-0.334E-03
CGA: 153    -0.308884479751E+03   -0.68258E-02   -0.69139E-02 24304   0.203E+00-0.101E-02
CGA: 154    -0.308895894449E+03   -0.11415E-01   -0.11476E-01 24304   0.183E+00-0.400E-02
CGA: 155    -0.308902972934E+03   -0.70785E-02   -0.71099E-02 24304   0.922E-01 0.132E-02
CGA: 156    -0.308908388838E+03   -0.54159E-02   -0.54281E-02 24304   0.123E+00-0.740E-03
CGA: 157    -0.308920098870E+03   -0.11710E-01   -0.11729E-01 24304   0.127E+00-0.618E-03
CGA: 158    -0.308923338205E+03   -0.32393E-02   -0.32534E-02 24304   0.344E-01-0.168E-03
CGA: 159    -0.308926215320E+03   -0.28771E-02   -0.28784E-02 24304   0.790E-01-0.378E-04
CGA: 160    -0.308932703546E+03   -0.64882E-02   -0.65107E-02 24304   0.934E-01-0.665E-03
CGA: 161    -0.308936292933E+03   -0.35894E-02   -0.35956E-02 24304   0.361E-01 0.468E-04
CGA: 162    -0.308937419743E+03   -0.11268E-02   -0.11247E-02 24304   0.181E-01 0.135E-05
CGA: 163    -0.308939832495E+03   -0.24128E-02   -0.24208E-02 24304   0.686E-01-0.114E-03
CGA: 164    -0.308943583688E+03   -0.37512E-02   -0.37512E-02 24304   0.214E-01-0.212E-04
CGA: 165    -0.308944388450E+03   -0.80476E-03   -0.80488E-03 24304   0.156E-01-0.657E-05
CGA: 166    -0.308945226367E+03   -0.83792E-03   -0.83791E-03 24304   0.164E-01 0.471E-04
CGA: 167    -0.308946953062E+03   -0.17267E-02   -0.17445E-02 24304   0.226E-01-0.347E-03
CGA: 168    -0.308947656291E+03   -0.70323E-03   -0.70396E-03 24304   0.607E-02-0.263E-04
CGA: 169    -0.308947956332E+03   -0.30004E-03   -0.30000E-03 24304   0.862E-02-0.124E-04
CGA: 170    -0.308948772643E+03   -0.81631E-03   -0.82289E-03 24304   0.157E-01-0.156E-03
CGA: 171    -0.308949568134E+03   -0.79549E-03   -0.79609E-03 24304   0.871E-02 0.206E-04
CGA: 172    -0.308949849173E+03   -0.28104E-03   -0.28086E-03 24304   0.300E-02-0.819E-05
CGA: 173    -0.308950172777E+03   -0.32360E-03   -0.32320E-03 24304   0.108E-01 0.667E-05
CGA: 174    -0.308950804358E+03   -0.63158E-03   -0.63155E-03 24304   0.611E-02 0.681E-04
CGA: 175    -0.308951038561E+03   -0.23420E-03   -0.23383E-03 24304   0.329E-02 0.445E-05
SDA: 176    -0.308951262150E+03   -0.22359E-03   -0.22384E-03 24304   0.486E-02-0.198E-04
CGA: 177    -0.308951408599E+03   -0.14645E-03   -0.14649E-03 24304   0.231E-02-0.428E-05
CGA: 178    -0.308951529247E+03   -0.12065E-03   -0.12063E-03 24304   0.246E-02-0.674E-05
CGA: 179    -0.308951784881E+03   -0.25563E-03   -0.25659E-03 24304   0.450E-02-0.208E-04
CGA: 180    -0.308951956378E+03   -0.17150E-03   -0.17126E-03 24304   0.198E-02-0.768E-05
CGA: 181    -0.308952124237E+03   -0.16786E-03   -0.16745E-03 24304   0.449E-02 0.146E-04
CGA: 182    -0.308952398914E+03   -0.27468E-03   -0.27457E-03 24304   0.478E-02 0.500E-04
CGA: 183    -0.308952628365E+03   -0.22945E-03   -0.22999E-03 24304   0.154E-02 0.382E-04
CGA: 184    -0.308952692693E+03   -0.64328E-04   -0.64384E-04 24304   0.115E-02 0.288E-05
CGA: 185    -0.308952894882E+03   -0.20219E-03   -0.20355E-03 24304   0.245E-02-0.121E-04
CGA: 186    -0.308953003215E+03   -0.10833E-03   -0.10816E-03 24304   0.152E-02-0.785E-05
CGA: 187    -0.308953063553E+03   -0.60338E-04   -0.60198E-04 24304   0.773E-03-0.292E-05
CGA: 188    -0.308953158687E+03   -0.95134E-04   -0.94768E-04 24304   0.313E-02 0.508E-05
CGA: 189    -0.308953354101E+03   -0.19541E-03   -0.19542E-03 24304   0.951E-03 0.605E-05
CGA: 190    -0.308953392463E+03   -0.38362E-04   -0.38340E-04 24304   0.953E-03-0.855E-07
CGA: 191    -0.308953588861E+03   -0.19640E-03   -0.19723E-03 24304   0.459E-02-0.725E-05
CGA: 192    -0.308953754362E+03   -0.16550E-03   -0.16626E-03 24304   0.112E-02-0.959E-05
CGA: 193    -0.308953792082E+03   -0.37720E-04   -0.37762E-04 24304   0.586E-03 0.665E-06
CGA: 194    -0.308953854445E+03   -0.62364E-04   -0.62103E-04 24304   0.121E-02 0.607E-05
CGA: 195    -0.308953954314E+03   -0.99869E-04   -0.99801E-04 24304   0.142E-02 0.657E-05
CGA: 196    -0.308953995341E+03   -0.41027E-04   -0.41182E-04 24304   0.389E-03 0.239E-05
CGA: 197    -0.308954022586E+03   -0.27245E-04   -0.27245E-04 24304   0.506E-03-0.590E-06
CGA: 198    -0.308954070869E+03   -0.48283E-04   -0.48469E-04 24304   0.105E-02-0.657E-05
CGA: 199    -0.308954121104E+03   -0.50235E-04   -0.50087E-04 24304   0.395E-03-0.513E-05
CGA: 200    -0.308954136581E+03   -0.15477E-04   -0.15514E-04 24304   0.421E-03-0.202E-06
   1 F= -.30895414E+03 E0= -.30892239E+03  d E =-.308954E+03  mag=    47.9695
       N       E                     dE             d eps       ncg     rms          ort
SDA:   1    -0.308957639706E+03   -0.35186E-02    0.00000E+00 24304   0.390E+01 0.000E+00
CGA:   2    -0.309025863907E+03   -0.68224E-01   -0.67817E-01 24304   0.158E+00 0.172E-01
CGA:   3    -0.309029353858E+03   -0.34900E-02   -0.34932E-02 24304   0.209E-01-0.101E-03
CGA:   4    -0.309030483818E+03   -0.11300E-02   -0.11291E-02 24304   0.222E-01-0.167E-04
CGA:   5    -0.309032163116E+03   -0.16793E-02   -0.16793E-02 24304   0.261E-01 0.255E-05
CGA:   6    -0.309033448610E+03   -0.12855E-02   -0.12863E-02 24304   0.499E-02 0.941E-06
CGA:   7    -0.309033620484E+03   -0.17187E-03   -0.17166E-03 24304   0.385E-02-0.500E-05
CGA:   8    -0.309033925497E+03   -0.30501E-03   -0.30527E-03 24304   0.348E-02-0.177E-04
CGA:   9    -0.309034020393E+03   -0.94896E-04   -0.94674E-04 24304   0.667E-03-0.478E-05
CGA:  10    -0.309034056531E+03   -0.36138E-04   -0.36142E-04 24304   0.555E-03 0.479E-06
CGA:  11    -0.309034089430E+03   -0.32899E-04   -0.32907E-04 24304   0.533E-03 0.192E-05
CGA:  12    -0.309034121405E+03   -0.31975E-04   -0.31982E-04 24304   0.170E-03 0.218E-05
CGA:  13    -0.309034126647E+03   -0.52415E-05   -0.52448E-05 24304   0.102E-03 0.109E-06
CGA:  14    -0.309034140380E+03   -0.13733E-04   -0.13764E-04 24304   0.277E-03-0.425E-06
CGA:  15    -0.309034150352E+03   -0.99723E-05   -0.99684E-05 24304   0.752E-04-0.987E-07
   2 F= -.30903415E+03 E0= -.30900247E+03  d E =-.800138E-01  mag=    47.9686
       N       E                     dE             d eps       ncg     rms          ort
SDA:   1    -0.285114365982E+03    0.23920E+02    0.00000E+00 24304   0.254E+03 0.000E+00
CGA:   2    -0.290884085746E+03   -0.57697E+01   -0.67414E+01 24304   0.114E+03-0.258E+02
CGA:   3    -0.300282175278E+03   -0.93981E+01   -0.97793E+01 24304   0.271E+03-0.144E+02
CGA:   4    -0.307488858200E+03   -0.72067E+01   -0.60002E+01 24304   0.725E+02 0.353E+02
CGA:   5    -0.308774594148E+03   -0.12857E+01   -0.15366E+01 24304   0.408E+02-0.110E+02
CGA:   6    -0.310004003563E+03   -0.12294E+01   -0.12371E+01 24304   0.429E+02-0.110E-01
CGA:   7    -0.311278487778E+03   -0.12745E+01   -0.11920E+01 24304   0.288E+02 0.145E+01
CGA:   8    -0.311865709447E+03   -0.58722E+00   -0.59740E+00 24304   0.143E+02-0.402E+00
CGA:   9    -0.312218674468E+03   -0.35297E+00   -0.37122E+00 24304   0.931E+01-0.376E+00
CGA:  10    -0.312455337981E+03   -0.23666E+00   -0.23485E+00 24304   0.606E+01 0.199E-01
CGA:  11    -0.312613558417E+03   -0.15822E+00   -0.16056E+00 24304   0.453E+01-0.433E-01
CGA:  12    -0.312746588283E+03   -0.13303E+00   -0.13762E+00 24304   0.311E+01-0.331E-01
CGA:  13    -0.312830859711E+03   -0.84271E-01   -0.85849E-01 24304   0.190E+01-0.192E-01
CGA:  14    -0.312879642565E+03   -0.48783E-01   -0.49855E-01 24304   0.112E+01-0.145E-01
CGA:  15    -0.312917109474E+03   -0.37467E-01   -0.37995E-01 24304   0.854E+00 0.619E-02
CGA:  16    -0.312945174196E+03   -0.28065E-01   -0.28332E-01 24304   0.702E+00 0.255E-02
CGA:  17    -0.312968820520E+03   -0.23646E-01   -0.23877E-01 24304   0.513E+00 0.379E-02
CGA:  18    -0.312987428386E+03   -0.18608E-01   -0.18765E-01 24304   0.351E+00 0.512E-02
CGA:  19    -0.312999051312E+03   -0.11623E-01   -0.11685E-01 24304   0.266E+00 0.100E-02
CGA:  20    -0.313009763502E+03   -0.10712E-01   -0.10728E-01 24304   0.237E+00 0.176E-02
CGA:  21    -0.313019618124E+03   -0.98546E-02   -0.98727E-02 24304   0.182E+00 0.307E-02
CGA:  22    -0.313025810436E+03   -0.61923E-02   -0.62119E-02 24304   0.114E+00 0.450E-03
CGA:  23    -0.313030112415E+03   -0.43020E-02   -0.43068E-02 24304   0.850E-01 0.335E-03
CGA:  24    -0.313033831750E+03   -0.37193E-02   -0.37187E-02 24304   0.753E-01 0.625E-03
CGA:  25    -0.313036988600E+03   -0.31569E-02   -0.31577E-02 24304   0.606E-01 0.272E-03
CGA:  26    -0.313039243138E+03   -0.22545E-02   -0.22567E-02 24304   0.366E-01 0.144E-03
CGA:  27    -0.313040595137E+03   -0.13520E-02   -0.13534E-02 24304   0.231E-01 0.954E-04
CGA:  28    -0.313041609531E+03   -0.10144E-02   -0.10143E-02 24304   0.205E-01 0.520E-04
CGA:  29    -0.313042498081E+03   -0.88855E-03   -0.88850E-03 24304   0.175E-01 0.503E-04
CGA:  30    -0.313043216650E+03   -0.71857E-03   -0.71872E-03 24304   0.124E-01 0.571E-04
CGA:  31    -0.313043754273E+03   -0.53762E-03   -0.53759E-03 24304   0.100E-01 0.313E-04
SDA:  32    -0.313044161894E+03   -0.40762E-03   -0.40769E-03 24304   0.832E-02 0.264E-04
CGA:  33    -0.313044312945E+03   -0.15105E-03   -0.15115E-03 24304   0.185E-02-0.356E-05
CGA:  34    -0.313044610204E+03   -0.29726E-03   -0.29621E-03 24304   0.636E-02 0.971E-05
CGA:  35    -0.313044925405E+03   -0.31520E-03   -0.31519E-03 24304   0.376E-02 0.125E-05
CGA:  36    -0.313045099468E+03   -0.17406E-03   -0.17405E-03 24304   0.219E-02-0.101E-04
CGA:  37    -0.313045259345E+03   -0.15988E-03   -0.16017E-03 24304   0.477E-02-0.126E-04
CGA:  38    -0.313045593636E+03   -0.33429E-03   -0.33515E-03 24304   0.226E-02-0.385E-04
CGA:  39    -0.313045669687E+03   -0.76051E-04   -0.76017E-04 24304   0.142E-02-0.279E-05
CGA:  40    -0.313045828349E+03   -0.15866E-03   -0.15795E-03 24304   0.341E-02 0.111E-04
CGA:  41    -0.313045985121E+03   -0.15677E-03   -0.15680E-03 24304   0.204E-02 0.527E-05
CGA:  42    -0.313046057336E+03   -0.72216E-04   -0.72155E-04 24304   0.890E-03-0.256E-05
CGA:  43    -0.313046131385E+03   -0.74049E-04   -0.74581E-04 24304   0.193E-02-0.164E-04
CGA:  44    -0.313046220992E+03   -0.89607E-04   -0.89519E-04 24304   0.609E-03-0.195E-04
CGA:  45    -0.313046250931E+03   -0.29939E-04   -0.29936E-04 24304   0.737E-03-0.158E-05
CGA:  46    -0.313046310835E+03   -0.59904E-04   -0.59736E-04 24304   0.837E-03 0.536E-05
CGA:  47    -0.313046373986E+03   -0.63151E-04   -0.62912E-04 24304   0.580E-03 0.106E-04
CGA:  48    -0.313046390249E+03   -0.16263E-04   -0.16286E-04 24304   0.347E-03 0.644E-06
CGA:  49    -0.313046464930E+03   -0.74682E-04   -0.76421E-04 24304   0.108E-02-0.105E-04
CGA:  50    -0.313046500564E+03   -0.35634E-04   -0.35549E-04 24304   0.355E-03-0.396E-05
CGA:  51    -0.313046521972E+03   -0.21407E-04   -0.21407E-04 24304   0.378E-03 0.147E-05
CGA:  52    -0.313046549057E+03   -0.27086E-04   -0.27031E-04 24304   0.639E-03 0.485E-05
CGA:  53    -0.313046585306E+03   -0.36249E-04   -0.36295E-04 24304   0.272E-03 0.882E-05
CGA:  54    -0.313046595368E+03   -0.10062E-04   -0.10130E-04 24304   0.250E-03 0.249E-05
CGA:  55    -0.313046630824E+03   -0.35456E-04   -0.34922E-04 24304   0.655E-03 0.646E-05
CGA:  56    -0.313046656745E+03   -0.25922E-04   -0.26117E-04 24304   0.165E-03 0.402E-05
CGA:  57    -0.313046668520E+03   -0.11775E-04   -0.11780E-04 24304   0.344E-03-0.713E-06
CGA:  58    -0.313046707952E+03   -0.39432E-04   -0.39668E-04 24304   0.615E-03-0.472E-05
CGA:  59    -0.313046735779E+03   -0.27827E-04   -0.27649E-04 24304   0.254E-03-0.561E-05
CGA:  60    -0.313046744731E+03   -0.89525E-05   -0.89254E-05 24304   0.185E-03-0.170E-05
CGA:  61    -0.313046767130E+03   -0.22399E-04   -0.22604E-04 24304   0.347E-03-0.358E-05
CGA:  62    -0.313046780124E+03   -0.12994E-04   -0.12907E-04 24304   0.168E-03-0.263E-05
SDA:  63    -0.313046787573E+03   -0.74484E-05   -0.74035E-05 24304   0.105E-03-0.241E-05
   3 F= -.31304679E+03 E0= -.31301487E+03  d E =-.401264E+01  mag=    47.9709
       N       E                     dE             d eps       ncg     rms          ort
SDA:   1    -0.152966575505E+03    0.16008E+03    0.00000E+00 24304   0.211E+04 0.000E+00
CGA:   2    -0.210738611676E+03   -0.57772E+02   -0.64975E+02 24304   0.147E+04-0.711E+03
CGA:   3    -0.257180192521E+03   -0.46442E+02   -0.27437E+02 24304   0.373E+03 0.430E+03
CGA:   4    -0.266389529583E+03   -0.92093E+01   -0.10168E+02 24304   0.435E+03-0.600E+02
CGA:   5    -0.274459371322E+03   -0.80698E+01   -0.93296E+01 24304   0.815E+03-0.409E+02
CGA:   6    -0.286025386322E+03   -0.11566E+02   -0.17226E+02 24304   0.104E+04-0.191E+03
CGA:   7    -0.295015727996E+03   -0.89903E+01   -0.11911E+02 24304   0.479E+03-0.271E+03
CGA:   8    -0.298172964061E+03   -0.31572E+01   -0.41530E+01 24304   0.306E+03-0.930E+02
CGA:   9    -0.299930272921E+03   -0.17573E+01   -0.27177E+01 24304   0.217E+03-0.918E+02
CGA:  10    -0.301396332650E+03   -0.14661E+01   -0.18802E+01 24304   0.234E+03-0.295E+02
CGA:  11    -0.303646145585E+03   -0.22498E+01   -0.26833E+01 24304   0.196E+03-0.273E+02
CGA:  12    -0.305487104894E+03   -0.18410E+01   -0.18334E+01 24304   0.159E+03 0.884E+00
CGA:  13    -0.307301466588E+03   -0.18144E+01   -0.16354E+01 24304   0.114E+03 0.144E+02
CGA:  14    -0.308317519664E+03   -0.10161E+01   -0.10022E+01 24304   0.651E+02 0.980E+00
CGA:  15    -0.308926149839E+03   -0.60863E+00   -0.64337E+00 24304   0.634E+02-0.328E+01
CGA:  16    -0.309530425986E+03   -0.60428E+00   -0.62818E+00 24304   0.688E+02-0.186E+01
CGA:  17    -0.310143255974E+03   -0.61283E+00   -0.60602E+00 24304   0.621E+02 0.247E+00
CGA:  18    -0.310709037348E+03   -0.56578E+00   -0.56241E+00 24304   0.634E+02-0.172E+00
CGA:  19    -0.311255482340E+03   -0.54644E+00   -0.53441E+00 24304   0.648E+02 0.529E+00
CGA:  20    -0.311752889408E+03   -0.49741E+00   -0.50856E+00 24304   0.609E+02-0.202E+01
CGA:  21    -0.312152693402E+03   -0.39980E+00   -0.45866E+00 24304   0.597E+02-0.716E+01
CGA:  22    -0.312510083268E+03   -0.35739E+00   -0.42186E+00 24304   0.610E+02-0.696E+01
CGA:  23    -0.312875666085E+03   -0.36558E+00   -0.43324E+00 24304   0.554E+02-0.727E+01
CGA:  24    -0.313213334175E+03   -0.33767E+00   -0.40499E+00 24304   0.435E+02-0.660E+01
CGA:  25    -0.313481684181E+03   -0.26835E+00   -0.31949E+00 24304   0.289E+02-0.478E+01
CGA:  26    -0.313701693805E+03   -0.22001E+00   -0.24511E+00 24304   0.232E+02-0.188E+01
CGA:  27    -0.313938832072E+03   -0.23714E+00   -0.25331E+00 24304   0.197E+02-0.767E+00
CGA:  28    -0.314149963618E+03   -0.21113E+00   -0.22305E+00 24304   0.152E+02-0.542E+00
CGA:  29    -0.314381756140E+03   -0.23179E+00   -0.23937E+00 24304   0.178E+02 0.283E-01
CGA:  30    -0.314676336454E+03   -0.29458E+00   -0.30220E+00 24304   0.148E+02 0.139E+00
CGA:  31    -0.314932050755E+03   -0.25571E+00   -0.26094E+00 24304   0.116E+02 0.158E+00
SDA:  32    -0.315142878709E+03   -0.21083E+00   -0.21365E+00 24304   0.705E+01 0.132E+00
CGA:  33    -0.315261807360E+03   -0.11893E+00   -0.11903E+00 24304   0.200E+01 0.159E-02
CGA:  34    -0.315445416469E+03   -0.18361E+00   -0.17984E+00 24304   0.756E+01 0.696E-01
CGA:  35    -0.315724667508E+03   -0.27925E+00   -0.27729E+00 24304   0.305E+01 0.155E+00
CGA:  36    -0.315819049647E+03   -0.94382E-01   -0.94044E-01 24304   0.138E+01 0.539E-01
CGA:  37    -0.315871187445E+03   -0.52138E-01   -0.51933E-01 24304   0.108E+01 0.149E-01
CGA:  38    -0.315919634586E+03   -0.48447E-01   -0.48146E-01 24304   0.143E+01 0.155E-01
CGA:  39    -0.315980024122E+03   -0.60390E-01   -0.60447E-01 24304   0.950E+00-0.374E-02
CGA:  40    -0.316008431498E+03   -0.28407E-01   -0.28391E-01 24304   0.448E+00 0.632E-02
CGA:  41    -0.316031359278E+03   -0.22928E-01   -0.22749E-01 24304   0.563E+00 0.764E-02
CGA:  42    -0.316058159822E+03   -0.26801E-01   -0.26545E-01 24304   0.764E+00 0.132E-01
CGA:  43    -0.316105340641E+03   -0.47181E-01   -0.46882E-01 24304   0.337E+00 0.912E-02
CGA:  44    -0.316114843837E+03   -0.95032E-02   -0.95043E-02 24304   0.178E+00 0.185E-03
CGA:  45    -0.316140789243E+03   -0.25945E-01   -0.25714E-01 24304   0.726E+00 0.235E-02
CGA:  46    -0.316158645460E+03   -0.17856E-01   -0.17892E-01 24304   0.874E-01 0.215E-03
CGA:  47    -0.316166475068E+03   -0.78296E-02   -0.77581E-02 24304   0.246E+00 0.147E-02
CGA:  48    -0.316185129854E+03   -0.18655E-01   -0.18938E-01 24304   0.396E+00-0.824E-02
CGA:  49    -0.316201307809E+03   -0.16178E-01   -0.16186E-01 24304   0.175E+00-0.403E-02
CGA:  50    -0.316205501265E+03   -0.41935E-02   -0.42112E-02 24304   0.577E-01-0.151E-03
CGA:  51    -0.316211618096E+03   -0.61168E-02   -0.61162E-02 24304   0.196E+00-0.157E-04
CGA:  52    -0.316222775400E+03   -0.11157E-01   -0.11306E-01 24304   0.155E+00-0.783E-02
CGA:  53    -0.316226800774E+03   -0.40254E-02   -0.40625E-02 24304   0.544E-01-0.252E-03
CGA:  54    -0.316229678260E+03   -0.28775E-02   -0.28727E-02 24304   0.867E-01 0.326E-03
CGA:  55    -0.316235259577E+03   -0.55813E-02   -0.56530E-02 24304   0.131E+00-0.290E-02
CGA:  56    -0.316239580871E+03   -0.43213E-02   -0.43021E-02 24304   0.539E-01-0.391E-03
CGA:  57    -0.316241129612E+03   -0.15487E-02   -0.15531E-02 24304   0.363E-01-0.225E-04
CGA:  58    -0.316244209206E+03   -0.30796E-02   -0.30612E-02 24304   0.108E+00 0.431E-03
CGA:  59    -0.316249081994E+03   -0.48728E-02   -0.48671E-02 24304   0.818E-01-0.230E-02
CGA:  60    -0.316251535726E+03   -0.24537E-02   -0.24516E-02 24304   0.420E-01 0.487E-04
CGA:  61    -0.316252926652E+03   -0.13909E-02   -0.13940E-02 24304   0.314E-01 0.461E-04
CGA:  62    -0.316254408568E+03   -0.14819E-02   -0.14826E-02 24304   0.440E-01-0.156E-03
SDA:  63    -0.316256910230E+03   -0.25017E-02   -0.25155E-02 24304   0.625E-01-0.801E-03
CGA:  64    -0.316258609735E+03   -0.16995E-02   -0.17004E-02 24304   0.236E-01-0.989E-05
CGA:  65    -0.316260055438E+03   -0.14457E-02   -0.14459E-02 24304   0.297E-01-0.938E-05
CGA:  66    -0.316263232698E+03   -0.31773E-02   -0.30973E-02 24304   0.124E+00 0.141E-02
CGA:  67    -0.316269854706E+03   -0.66220E-02   -0.11432E-01 24304   0.213E+00-0.786E-01
CGA:  68    -0.316274217964E+03   -0.43633E-02   -0.43689E-02 24304   0.529E-01-0.211E-03
CGA:  69    -0.316277016301E+03   -0.27983E-02   -0.27983E-02 24304   0.472E-01-0.606E-05
CGA:  70    -0.316279493478E+03   -0.24772E-02   -0.24772E-02 24304   0.358E-01-0.193E-04
CGA:  71    -0.316280746560E+03   -0.12531E-02   -0.12533E-02 24304   0.113E-01-0.162E-04
CGA:  72    -0.316281179680E+03   -0.43312E-03   -0.43324E-03 24304   0.889E-02 0.219E-05
CGA:  73    -0.316282449654E+03   -0.12700E-02   -0.12257E-02 24304   0.268E-01 0.549E-03
CGA:  74    -0.316284177515E+03   -0.17279E-02   -0.22069E-02 24304   0.857E-01-0.183E-01
CGA:  75    -0.316285742627E+03   -0.15651E-02   -0.15615E-02 24304   0.152E-01 0.104E-03
CGA:  76    -0.316286864688E+03   -0.11221E-02   -0.11236E-02 24304   0.216E-01-0.764E-04
CGA:  77    -0.316288027975E+03   -0.11633E-02   -0.11633E-02 24304   0.149E-01-0.619E-04
CGA:  78    -0.316288693808E+03   -0.66583E-03   -0.66619E-03 24304   0.106E-01-0.335E-04
CGA:  79    -0.316289563939E+03   -0.87013E-03   -0.87020E-03 24304   0.293E-01-0.323E-04
CGA:  80    -0.316272468777E+03    0.17095E-01   -0.75106E-02 24304   0.729E+00-0.551E-01
CGA:  81    -0.316285623087E+03   -0.13154E-01   -0.13104E-01 24304   0.107E+00 0.185E-02
CGA:  82    -0.316291445883E+03   -0.58228E-02   -0.58245E-02 24304   0.120E+00 0.543E-04
CGA:  83    -0.316298061612E+03   -0.66157E-02   -0.66148E-02 24304   0.695E-01-0.859E-04
CGA:  84    -0.316301842919E+03   -0.37813E-02   -0.37778E-02 24304   0.345E-01-0.194E-03
CGA:  85    -0.316303047254E+03   -0.12043E-02   -0.12051E-02 24304   0.243E-01 0.164E-04
CGA:  86    -0.316305566506E+03   -0.25193E-02   -0.25070E-02 24304   0.499E-01 0.258E-03
CGA:  87    -0.316307428400E+03   -0.18619E-02   -0.18605E-02 24304   0.176E-01 0.125E-03
CGA:  88    -0.316308157687E+03   -0.72929E-03   -0.73018E-03 24304   0.167E-01 0.933E-05
CGA:  89    -0.316310145339E+03   -0.19877E-02   -0.20629E-02 24304   0.527E-01-0.129E-02
CGA:  90    -0.316312288649E+03   -0.21433E-02   -0.19425E-02 24304   0.370E-01 0.942E-03
CGA:  91    -0.316313276574E+03   -0.98793E-03   -0.10163E-02 24304   0.115E-01-0.682E-03
CGA:  92    -0.316313607994E+03   -0.33142E-03   -0.33389E-03 24304   0.116E-01-0.819E-04
CGA:  93    -0.316314872853E+03   -0.12649E-02   -0.12670E-02 24304   0.300E-01-0.607E-04
CGA:  94    -0.316315640150E+03   -0.76730E-03   -0.74203E-03 24304   0.126E-01 0.508E-03
CGA:  95    -0.316316094722E+03   -0.45457E-03   -0.45242E-03 24304   0.102E-01-0.393E-04
CGA:  96    -0.316316473603E+03   -0.37888E-03   -0.38022E-03 24304   0.133E-01-0.418E-04
CGA:  97    -0.316317497284E+03   -0.10237E-02   -0.10073E-02 24304   0.304E-01 0.604E-03
CGA:  98    -0.316318553748E+03   -0.10565E-02   -0.10299E-02 24304   0.114E-01 0.289E-03
CGA:  99    -0.316318899679E+03   -0.34593E-03   -0.34548E-03 24304   0.743E-02-0.267E-04
CGA: 100    -0.316319394190E+03   -0.49451E-03   -0.49330E-03 24304   0.169E-01 0.597E-04
CGA: 101    -0.316320297531E+03   -0.90334E-03   -0.90353E-03 24304   0.142E-01-0.773E-06
CGA: 102    -0.316320771337E+03   -0.47381E-03   -0.46859E-03 24304   0.776E-02 0.181E-04
CGA: 103    -0.316321086985E+03   -0.31565E-03   -0.31650E-03 24304   0.847E-02 0.886E-05
CGA: 104    -0.316321734077E+03   -0.64709E-03   -0.63842E-03 24304   0.154E-01 0.319E-03
CGA: 105    -0.316322350867E+03   -0.61679E-03   -0.60396E-03 24304   0.796E-02 0.369E-05
CGA: 106    -0.316322600612E+03   -0.24974E-03   -0.25104E-03 24304   0.480E-02 0.540E-05
CGA: 107    -0.316322908320E+03   -0.30771E-03   -0.30648E-03 24304   0.836E-02 0.787E-04
CGA: 108    -0.316323414933E+03   -0.50661E-03   -0.51145E-03 24304   0.155E-01-0.441E-03
CGA: 109    -0.316323991451E+03   -0.57652E-03   -0.56563E-03 24304   0.115E-01-0.119E-04
CGA: 110    -0.316324260384E+03   -0.26893E-03   -0.27737E-03 24304   0.552E-02-0.193E-03
SDA: 111    -0.316324472939E+03   -0.21255E-03   -0.21229E-03 24304   0.712E-02-0.121E-04
CGA: 112    -0.316324721229E+03   -0.24829E-03   -0.24804E-03 24304   0.520E-02-0.108E-04
CGA: 113    -0.316325334551E+03   -0.61332E-03   -0.61533E-03 24304   0.141E-01-0.302E-04
CGA: 114    -0.316326024583E+03   -0.69003E-03   -0.68996E-03 24304   0.101E-01-0.317E-04
CGA: 115    -0.316326416058E+03   -0.39148E-03   -0.39118E-03 24304   0.309E-02-0.216E-04
CGA: 116    -0.316326616032E+03   -0.19997E-03   -0.19984E-03 24304   0.541E-02 0.624E-05
CGA: 117    -0.316327177130E+03   -0.56110E-03   -0.56301E-03 24304   0.872E-02-0.419E-04
CGA: 118    -0.316327467417E+03   -0.29029E-03   -0.29158E-03 24304   0.383E-02-0.359E-05
CGA: 119    -0.316327643609E+03   -0.17619E-03   -0.17617E-03 24304   0.282E-02 0.214E-05
CGA: 120    -0.316327959928E+03   -0.31632E-03   -0.31579E-03 24304   0.851E-02 0.740E-05
CGA: 121    -0.316328525980E+03   -0.56605E-03   -0.56653E-03 24304   0.370E-02-0.342E-04
CGA: 122    -0.316328667821E+03   -0.14184E-03   -0.14163E-03 24304   0.347E-02 0.949E-05
CGA: 123    -0.316329037901E+03   -0.37008E-03   -0.36584E-03 24304   0.744E-02 0.817E-04
CGA: 124    -0.316329395102E+03   -0.35720E-03   -0.35642E-03 24304   0.372E-02 0.264E-04
CGA: 125    -0.316329578604E+03   -0.18350E-03   -0.18418E-03 24304   0.271E-02 0.371E-04
CGA: 126    -0.316329788495E+03   -0.20989E-03   -0.21245E-03 24304   0.823E-02-0.973E-04
CGA: 127    -0.316330468102E+03   -0.67961E-03   -0.67628E-03 24304   0.589E-02 0.513E-04
CGA: 128    -0.316330605292E+03   -0.13719E-03   -0.14154E-03 24304   0.246E-02-0.118E-03
CGA: 129    -0.316330861356E+03   -0.25606E-03   -0.25748E-03 24304   0.739E-02-0.298E-04
CGA: 130    -0.316331262222E+03   -0.40087E-03   -0.40017E-03 24304   0.325E-02-0.365E-04
CGA: 131    -0.316331348777E+03   -0.86555E-04   -0.87114E-04 24304   0.137E-02-0.129E-04
CGA: 132    -0.316331428968E+03   -0.80191E-04   -0.80191E-04 24304   0.196E-02-0.746E-05
CGA: 133    -0.316331578144E+03   -0.14918E-03   -0.14882E-03 24304   0.417E-02 0.128E-04
CGA: 134    -0.316331808939E+03   -0.23080E-03   -0.23073E-03 24304   0.197E-02-0.958E-05
CGA: 135    -0.316331876461E+03   -0.67521E-04   -0.67357E-04 24304   0.128E-02-0.370E-05
CGA: 136    -0.316331975976E+03   -0.99516E-04   -0.99420E-04 24304   0.304E-02 0.257E-06
CGA: 137    -0.316332190359E+03   -0.21438E-03   -0.21572E-03 24304   0.394E-02-0.835E-04
CGA: 138    -0.316332364962E+03   -0.17460E-03   -0.17521E-03 24304   0.192E-02-0.166E-05
CGA: 139    -0.316332437146E+03   -0.72184E-04   -0.72451E-04 24304   0.194E-02-0.474E-06
CGA: 140    -0.316332678300E+03   -0.24115E-03   -0.24630E-03 24304   0.509E-02-0.813E-04
CGA: 141    -0.316332815035E+03   -0.13674E-03   -0.14086E-03 24304   0.100E-02-0.665E-04
SDA: 142    -0.316332870425E+03   -0.55390E-04   -0.55406E-04 24304   0.187E-02-0.709E-06
CGA: 143    -0.316332913496E+03   -0.43071E-04   -0.42981E-04 24304   0.757E-03-0.251E-05
CGA: 144    -0.316333022160E+03   -0.10866E-03   -0.11006E-03 24304   0.216E-02-0.168E-04
CGA: 145    -0.316333110301E+03   -0.88141E-04   -0.87845E-04 24304   0.959E-03-0.129E-04
CGA: 146    -0.316333160976E+03   -0.50675E-04   -0.50656E-04 24304   0.953E-03-0.289E-05
CGA: 147    -0.316333239024E+03   -0.78048E-04   -0.77955E-04 24304   0.171E-02 0.438E-05
CGA: 148    -0.316333337834E+03   -0.98810E-04   -0.98875E-04 24304   0.668E-03 0.135E-04
CGA: 149    -0.316333358385E+03   -0.20551E-04   -0.20585E-04 24304   0.415E-03 0.158E-05
CGA: 150    -0.316333411050E+03   -0.52665E-04   -0.53006E-04 24304   0.160E-02-0.564E-05
CGA: 151    -0.316333500006E+03   -0.88956E-04   -0.88852E-04 24304   0.372E-03-0.122E-04
CGA: 152    -0.316333514724E+03   -0.14718E-04   -0.14702E-04 24304   0.301E-03-0.913E-06
CGA: 153    -0.316333548203E+03   -0.33479E-04   -0.33415E-04 24304   0.728E-03 0.838E-06
CGA: 154    -0.316333591398E+03   -0.43195E-04   -0.43193E-04 24304   0.594E-03 0.536E-06
CGA: 155    -0.316333608820E+03   -0.17421E-04   -0.17433E-04 24304   0.173E-03-0.849E-06
CGA: 156    -0.316333626915E+03   -0.18095E-04   -0.18243E-04 24304   0.619E-03-0.373E-05
CGA: 157    -0.316333678227E+03   -0.51312E-04   -0.51492E-04 24304   0.240E-03-0.953E-05
CGA: 158    -0.316333689651E+03   -0.11424E-04   -0.11387E-04 24304   0.196E-03-0.239E-05
CGA: 159    -0.316333699822E+03   -0.10171E-04   -0.10159E-04 24304   0.270E-03-0.145E-05
CGA: 160    -0.316333733805E+03   -0.33983E-04   -0.34143E-04 24304   0.707E-03-0.281E-05
CGA: 161    -0.316333758890E+03   -0.25085E-04   -0.25143E-04 24304   0.142E-03-0.172E-05
CGA: 162    -0.316333766941E+03   -0.80518E-05   -0.80444E-05 24304   0.258E-03-0.124E-05
CGA: 163    -0.316333801189E+03   -0.34248E-04   -0.34912E-04 24304   0.483E-03-0.970E-05
CGA: 164    -0.316333814619E+03   -0.13430E-04   -0.13577E-04 24304   0.133E-03-0.540E-05
CGA: 165    -0.316333822981E+03   -0.83616E-05   -0.83640E-05 24304   0.260E-03 0.930E-06
CGA: 166    -0.316333849694E+03   -0.26713E-04   -0.26444E-04 24304   0.466E-03 0.736E-05
CGA: 167    -0.316333881292E+03   -0.31598E-04   -0.31626E-04 24304   0.216E-03 0.797E-05
CGA: 168    -0.316333891093E+03   -0.98008E-05   -0.97156E-05 24304   0.292E-03-0.648E-06
CGA: 169    -0.316333929742E+03   -0.38649E-04   -0.37778E-04 24304   0.612E-03 0.125E-04
CGA: 170    -0.316333949664E+03   -0.19922E-04   -0.19076E-04 24304   0.150E-03 0.119E-04
CGA: 171    -0.316333963577E+03   -0.13913E-04   -0.13832E-04 24304   0.393E-03 0.243E-05
CGA: 172    -0.316333990356E+03   -0.26779E-04   -0.26711E-04 24304   0.511E-03-0.125E-04
SDA: 173    -0.316334012296E+03   -0.21940E-04   -0.22311E-04 24304   0.168E-03 0.125E-05
CGA: 174    -0.316334017448E+03   -0.51521E-05   -0.51362E-05 24304   0.897E-04-0.684E-06
CGA: 175    -0.316334027704E+03   -0.10256E-04   -0.10350E-04 24304   0.257E-03-0.210E-05
CGA: 176    -0.316334037435E+03   -0.97309E-05   -0.96838E-05 24304   0.721E-04-0.176E-05
   4 F= -.31633404E+03 E0= -.31630161E+03  d E =-.328725E+01  mag=    48.1700
       N       E                     dE             d eps       ncg     rms          ort
SDA:   1    -0.310403755969E+03    0.59303E+01    0.00000E+00 24304   0.394E+02 0.000E+00
CGA:   2    -0.311453190814E+03   -0.10494E+01   -0.10443E+01 24304   0.218E+02 0.843E-01
CGA:   3    -0.314697873589E+03   -0.32447E+01   -0.33128E+01 24304   0.511E+02-0.921E+00
CGA:   4    -0.315847817521E+03   -0.11499E+01   -0.11267E+01 24304   0.739E+01 0.104E+01
CGA:   5    -0.316131240657E+03   -0.28342E+00   -0.28252E+00 24304   0.733E+01 0.929E-02
CGA:   6    -0.316540030526E+03   -0.40879E+00   -0.40833E+00 24304   0.434E+01-0.181E-01
CGA:   7    -0.316722739399E+03   -0.18271E+00   -0.18261E+00 24304   0.274E+01 0.159E-02
CGA:   8    -0.316791994969E+03   -0.69256E-01   -0.68945E-01 24304   0.670E+00 0.815E-02
CGA:   9    -0.316835125537E+03   -0.43131E-01   -0.43103E-01 24304   0.107E+01 0.507E-02
CGA:  10    -0.316881480408E+03   -0.46355E-01   -0.46549E-01 24304   0.361E+00 0.128E-02
CGA:  11    -0.316890500668E+03   -0.90203E-02   -0.90258E-02 24304   0.103E+00-0.494E-04
CGA:  12    -0.316897124906E+03   -0.66242E-02   -0.66231E-02 24304   0.181E+00 0.128E-03
CGA:  13    -0.316906220015E+03   -0.90951E-02   -0.91087E-02 24304   0.103E+00 0.551E-03
CGA:  14    -0.316909876485E+03   -0.36565E-02   -0.36699E-02 24304   0.356E-01-0.472E-04
CGA:  15    -0.316911039034E+03   -0.11625E-02   -0.11647E-02 24304   0.214E-01-0.102E-04
CGA:  16    -0.316912977430E+03   -0.19384E-02   -0.19346E-02 24304   0.437E-01 0.906E-04
CGA:  17    -0.316914677492E+03   -0.17001E-02   -0.17029E-02 24304   0.125E-01 0.127E-04
CGA:  18    -0.316915148778E+03   -0.47129E-03   -0.47180E-03 24304   0.789E-02 0.416E-06
CGA:  19    -0.316915525330E+03   -0.37655E-03   -0.37660E-03 24304   0.826E-02-0.268E-05
CGA:  20    -0.316916126220E+03   -0.60089E-03   -0.60075E-03 24304   0.109E-01 0.151E-05
CGA:  21    -0.316916488877E+03   -0.36266E-03   -0.36313E-03 24304   0.207E-02-0.392E-05
CGA:  22    -0.316916598758E+03   -0.10988E-03   -0.10990E-03 24304   0.276E-02 0.579E-05
CGA:  23    -0.316916838412E+03   -0.23965E-03   -0.23877E-03 24304   0.318E-02 0.263E-04
CGA:  24    -0.316916928096E+03   -0.89684E-04   -0.90002E-04 24304   0.116E-02 0.608E-05
CGA:  25    -0.316916982890E+03   -0.54794E-04   -0.54822E-04 24304   0.688E-03 0.277E-05
CGA:  26    -0.316917035942E+03   -0.53052E-04   -0.52978E-04 24304   0.130E-02 0.249E-05
CGA:  27    -0.316917109414E+03   -0.73471E-04   -0.73470E-04 24304   0.704E-03 0.196E-05
CGA:  28    -0.316917131285E+03   -0.21871E-04   -0.21906E-04 24304   0.376E-03 0.402E-06
CGA:  29    -0.316917166912E+03   -0.35626E-04   -0.35558E-04 24304   0.650E-03 0.111E-05
CGA:  30    -0.316917204229E+03   -0.37318E-04   -0.37316E-04 24304   0.733E-03 0.135E-05
CGA:  31    -0.316917233507E+03   -0.29278E-04   -0.29283E-04 24304   0.255E-03-0.770E-06
SDA:  32    -0.316917253392E+03   -0.19885E-04   -0.20002E-04 24304   0.672E-03-0.566E-05
CGA:  33    -0.316917266406E+03   -0.13013E-04   -0.12973E-04 24304   0.145E-03-0.152E-05
CGA:  34    -0.316917279928E+03   -0.13522E-04   -0.13705E-04 24304   0.409E-03-0.499E-05
CGA:  35    -0.316917309349E+03   -0.29421E-04   -0.29609E-04 24304   0.317E-03-0.108E-04
CGA:  36    -0.316917322264E+03   -0.12915E-04   -0.12869E-04 24304   0.196E-03-0.333E-05
CGA:  37    -0.316917332425E+03   -0.10161E-04   -0.10159E-04 24304   0.238E-03-0.822E-06
CGA:  38    -0.316917350804E+03   -0.18379E-04   -0.18382E-04 24304   0.239E-03-0.435E-06
CGA:  39    -0.316917359398E+03   -0.85930E-05   -0.85569E-05 24304   0.116E-03-0.197E-05
CGA:  40    -0.316917371074E+03   -0.11677E-04   -0.11973E-04 24304   0.418E-03-0.650E-05
CGA:  41    -0.316917418659E+03   -0.47585E-04   -0.49875E-04 24304   0.363E-03-0.343E-04
CGA:  42    -0.316917429773E+03   -0.11113E-04   -0.10914E-04 24304   0.176E-03-0.666E-05
CGA:  43    -0.316917443013E+03   -0.13240E-04   -0.13314E-04 24304   0.275E-03-0.482E-05
CGA:  44    -0.316917475930E+03   -0.32917E-04   -0.33189E-04 24304   0.671E-03-0.458E-05
CGA:  45    -0.316917495231E+03   -0.19301E-04   -0.19094E-04 24304   0.135E-03-0.192E-05
CGA:  46    -0.316917502808E+03   -0.75767E-05   -0.75645E-05 24304   0.200E-03-0.192E-05
CGA:  47    -0.316917522884E+03   -0.20076E-04   -0.20314E-04 24304   0.354E-03-0.607E-05
CGA:  48    -0.316917537109E+03   -0.14225E-04   -0.14128E-04 24304   0.161E-03-0.453E-05
CGA:  49    -0.316917542294E+03   -0.51849E-05   -0.51431E-05 24304   0.626E-04-0.153E-05
   5 F= -.31691754E+03 E0= -.31688539E+03  d E =-.583505E+00  mag=    48.3553
       N       E                     dE             d eps       ncg     rms          ort
SDA:   1    -0.250663483236E+03    0.66254E+02    0.00000E+00 24304   0.997E+03 0.000E+00
CGA:   2    -0.272472808981E+03   -0.21809E+02   -0.21053E+02 24304   0.189E+03-0.935E+01
CGA:   3    -0.287117587475E+03   -0.14645E+02   -0.14477E+02 24304   0.371E+03 0.752E+01
CGA:   4    -0.303227267525E+03   -0.16110E+02   -0.12887E+02 24304   0.109E+03 0.779E+02
CGA:   5    -0.306434614801E+03   -0.32073E+01   -0.29011E+01 24304   0.769E+02 0.728E+01
CGA:   6    -0.310033653891E+03   -0.35990E+01   -0.36432E+01 24304   0.127E+03 0.488E+00
CGA:   7    -0.314085477787E+03   -0.40518E+01   -0.37431E+01 24304   0.631E+02 0.486E+01
CGA:   8    -0.315370630022E+03   -0.12852E+01   -0.11626E+01 24304   0.313E+02 0.509E+01
CGA:   9    -0.316149193696E+03   -0.77856E+00   -0.72928E+00 24304   0.157E+02 0.150E+01
CGA:  10    -0.316455485268E+03   -0.30629E+00   -0.32622E+00 24304   0.105E+02-0.699E+00
CGA:  11    -0.316735603813E+03   -0.28012E+00   -0.28436E+00 24304   0.123E+02-0.700E-01
CGA:  12    -0.317144229332E+03   -0.40863E+00   -0.41372E+00 24304   0.135E+02 0.321E-02
CGA:  13    -0.317380664596E+03   -0.23644E+00   -0.25461E+00 24304   0.297E+01-0.645E+00
CGA:  14    -0.317440445810E+03   -0.59781E-01   -0.62100E-01 24304   0.187E+01-0.591E-01
CGA:  15    -0.317502975631E+03   -0.62530E-01   -0.62801E-01 24304   0.163E+01 0.414E-02
CGA:  16    -0.317554985628E+03   -0.52010E-01   -0.52485E-01 24304   0.169E+01 0.333E-02
CGA:  17    -0.317619205506E+03   -0.64220E-01   -0.64708E-01 24304   0.126E+01 0.215E-01
CGA:  18    -0.317651477297E+03   -0.32272E-01   -0.32745E-01 24304   0.535E+00-0.492E-02
CGA:  19    -0.317666767048E+03   -0.15290E-01   -0.15404E-01 24304   0.425E+00 0.327E-03
CGA:  20    -0.317690980754E+03   -0.24214E-01   -0.24095E-01 24304   0.522E+00 0.669E-02
CGA:  21    -0.317706564269E+03   -0.15584E-01   -0.15732E-01 24304   0.316E+00 0.397E-03
CGA:  22    -0.317717278737E+03   -0.10714E-01   -0.10757E-01 24304   0.172E+00 0.113E-02
CGA:  23    -0.317723706396E+03   -0.64277E-02   -0.64376E-02 24304   0.134E+00 0.619E-03
CGA:  24    -0.317730014803E+03   -0.63084E-02   -0.63028E-02 24304   0.198E+00 0.797E-03
CGA:  25    -0.317739027640E+03   -0.90128E-02   -0.90034E-02 24304   0.922E-01 0.234E-02
CGA:  26    -0.317741877367E+03   -0.28497E-02   -0.28566E-02 24304   0.485E-01 0.543E-04
CGA:  27    -0.317743776667E+03   -0.18993E-02   -0.18989E-02 24304   0.452E-01-0.281E-04
CGA:  28    -0.317746542905E+03   -0.27662E-02   -0.27521E-02 24304   0.558E-01 0.627E-03
CGA:  29    -0.317749065029E+03   -0.25221E-02   -0.25219E-02 24304   0.484E-01 0.151E-03
CGA:  30    -0.317750595867E+03   -0.15308E-02   -0.15312E-02 24304   0.163E-01 0.421E-04
CGA:  31    -0.317751334269E+03   -0.73840E-03   -0.73815E-03 24304   0.196E-01 0.617E-04
SDA:  32    -0.317752472086E+03   -0.11378E-02   -0.11370E-02 24304   0.262E-01 0.396E-04
CGA:  33    -0.317753009185E+03   -0.53710E-03   -0.53666E-03 24304   0.607E-02 0.298E-05
CGA:  34    -0.317753347838E+03   -0.33865E-03   -0.33864E-03 24304   0.763E-02-0.483E-05
CGA:  35    -0.317754176158E+03   -0.82832E-03   -0.82717E-03 24304   0.184E-01 0.244E-04
CGA:  36    -0.317755017016E+03   -0.84086E-03   -0.84067E-03 24304   0.546E-02-0.118E-03
CGA:  37    -0.317755204959E+03   -0.18794E-03   -0.18803E-03 24304   0.472E-02-0.542E-06
CGA:  38    -0.317755824123E+03   -0.61916E-03   -0.61555E-03 24304   0.118E-01 0.433E-04
CGA:  39    -0.317756268551E+03   -0.44443E-03   -0.44367E-03 24304   0.428E-02 0.999E-06
CGA:  40    -0.317756496269E+03   -0.22772E-03   -0.22772E-03 24304   0.615E-02-0.591E-05
CGA:  41    -0.317756971209E+03   -0.47494E-03   -0.48287E-03 24304   0.824E-02-0.246E-03
CGA:  42    -0.317757321920E+03   -0.35071E-03   -0.35106E-03 24304   0.299E-02-0.389E-05
CGA:  43    -0.317757473887E+03   -0.15197E-03   -0.15197E-03 24304   0.360E-02 0.923E-06
CGA:  44    -0.317757696418E+03   -0.22253E-03   -0.22262E-03 24304   0.477E-02-0.242E-05
CGA:  45    -0.317757945656E+03   -0.24924E-03   -0.24921E-03 24304   0.166E-02 0.230E-04
CGA:  46    -0.317758018964E+03   -0.73309E-04   -0.73340E-04 24304   0.176E-02 0.831E-06
CGA:  47    -0.317758223389E+03   -0.20443E-03   -0.20567E-03 24304   0.376E-02-0.203E-04
CGA:  48    -0.317758380697E+03   -0.15731E-03   -0.15746E-03 24304   0.181E-02-0.473E-05
CGA:  49    -0.317758450419E+03   -0.69721E-04   -0.69729E-04 24304   0.136E-02-0.329E-05
CGA:  50    -0.317758562400E+03   -0.11198E-03   -0.11200E-03 24304   0.337E-02-0.174E-05
CGA:  51    -0.317758852593E+03   -0.29019E-03   -0.28966E-03 24304   0.209E-02 0.123E-04
CGA:  52    -0.317758909008E+03   -0.56414E-04   -0.56411E-04 24304   0.776E-03 0.246E-05
CGA:  53    -0.317759016257E+03   -0.10725E-03   -0.10539E-03 24304   0.244E-02 0.230E-04
CGA:  54    -0.317759158008E+03   -0.14175E-03   -0.14178E-03 24304   0.138E-02 0.169E-04
CGA:  55    -0.317759207140E+03   -0.49132E-04   -0.49348E-04 24304   0.888E-03 0.517E-05
CGA:  56    -0.317759260963E+03   -0.53823E-04   -0.53806E-04 24304   0.113E-02 0.375E-05
CGA:  57    -0.317759374607E+03   -0.11364E-03   -0.11388E-03 24304   0.776E-03-0.577E-05
CGA:  58    -0.317759408939E+03   -0.34332E-04   -0.34365E-04 24304   0.817E-03 0.162E-05
CGA:  59    -0.317759490965E+03   -0.82026E-04   -0.81500E-04 24304   0.208E-02 0.123E-04
CGA:  60    -0.317759589986E+03   -0.99021E-04   -0.99243E-04 24304   0.116E-02 0.125E-04
CGA:  61    -0.317759645040E+03   -0.55054E-04   -0.55069E-04 24304   0.571E-03 0.278E-05
CGA:  62    -0.317759712143E+03   -0.67103E-04   -0.67408E-04 24304   0.218E-02-0.574E-05
SDA:  63    -0.317759833076E+03   -0.12093E-03   -0.12076E-03 24304   0.852E-03-0.225E-04
CGA:  64    -0.317759854900E+03   -0.21824E-04   -0.21799E-04 24304   0.427E-03-0.988E-06
CGA:  65    -0.317759895941E+03   -0.41041E-04   -0.41080E-04 24304   0.986E-03-0.158E-05
CGA:  66    -0.317759950156E+03   -0.54215E-04   -0.54211E-04 24304   0.408E-03-0.165E-05
CGA:  67    -0.317759969325E+03   -0.19169E-04   -0.19171E-04 24304   0.335E-03-0.327E-06
CGA:  68    -0.317759992735E+03   -0.23410E-04   -0.23414E-04 24304   0.621E-03-0.806E-06
CGA:  69    -0.317760035840E+03   -0.43104E-04   -0.43111E-04 24304   0.448E-03-0.115E-05
CGA:  70    -0.317760050716E+03   -0.14876E-04   -0.14845E-04 24304   0.162E-03-0.136E-05
CGA:  71    -0.317760063506E+03   -0.12791E-04   -0.12843E-04 24304   0.375E-03-0.290E-05
CGA:  72    -0.317760101102E+03   -0.37595E-04   -0.37813E-04 24304   0.604E-03-0.566E-05
CGA:  73    -0.317760121699E+03   -0.20597E-04   -0.20560E-04 24304   0.203E-03-0.839E-06
CGA:  74    -0.317760132088E+03   -0.10389E-04   -0.10421E-04 24304   0.236E-03 0.292E-05
CGA:  75    -0.317760155741E+03   -0.23653E-04   -0.23162E-04 24304   0.523E-03 0.135E-04
CGA:  76    -0.317760188468E+03   -0.32726E-04   -0.32773E-04 24304   0.284E-03 0.142E-04
CGA:  77    -0.317760202179E+03   -0.13711E-04   -0.13802E-04 24304   0.298E-03 0.468E-05
CGA:  78    -0.317760247273E+03   -0.45094E-04   -0.44526E-04 24304   0.614E-03 0.640E-05
CGA:  79    -0.317760266959E+03   -0.19686E-04   -0.19770E-04 24304   0.158E-03 0.326E-05
CGA:  80    -0.317760277129E+03   -0.10170E-04   -0.10171E-04 24304   0.397E-03 0.641E-06
CGA:  81    -0.317760329894E+03   -0.52765E-04   -0.52594E-04 24304   0.363E-03 0.212E-05
CGA:  82    -0.317760345100E+03   -0.15206E-04   -0.15259E-04 24304   0.222E-03 0.406E-06
CGA:  83    -0.317760356641E+03   -0.11541E-04   -0.11522E-04 24304   0.301E-03-0.623E-06
CGA:  84    -0.317760394890E+03   -0.38249E-04   -0.38229E-04 24304   0.643E-03-0.150E-06
CGA:  85    -0.317760416811E+03   -0.21921E-04   -0.21792E-04 24304   0.150E-03-0.216E-05
CGA:  86    -0.317760426522E+03   -0.97102E-05   -0.97050E-05 24304   0.304E-03-0.218E-05
CGA:  87    -0.317760459199E+03   -0.32677E-04   -0.32742E-04 24304   0.485E-03-0.223E-05
CGA:  88    -0.317760476420E+03   -0.17221E-04   -0.17270E-04 24304   0.201E-03-0.205E-05
CGA:  89    -0.317760487785E+03   -0.11365E-04   -0.11372E-04 24304   0.250E-03 0.128E-05
CGA:  90    -0.317760513605E+03   -0.25820E-04   -0.25441E-04 24304   0.350E-03 0.102E-04
CGA:  91    -0.317760530976E+03   -0.17370E-04   -0.17395E-04 24304   0.215E-03 0.363E-05
CGA:  92    -0.317760541161E+03   -0.10185E-04   -0.10214E-04 24304   0.194E-03 0.641E-06
CGA:  93    -0.317760565334E+03   -0.24173E-04   -0.24133E-04 24304   0.620E-03 0.233E-06
SDA:  94    -0.317760588021E+03   -0.22687E-04   -0.22195E-04 24304   0.130E-03 0.502E-05
CGA:  95    -0.317760593438E+03   -0.54169E-05   -0.54397E-05 24304   0.160E-03 0.544E-06
CGA:  96    -0.317760606944E+03   -0.13506E-04   -0.13442E-04 24304   0.222E-03 0.355E-05
CGA:  97    -0.317760616681E+03   -0.97367E-05   -0.97808E-05 24304   0.103E-03 0.160E-05
   6 F= -.31776062E+03 E0= -.31773059E+03  d E =-.843074E+00  mag=    48.6643
       N       E                     dE             d eps       ncg     rms          ort
SDA:   1    -0.313713012636E+03    0.40476E+01    0.00000E+00 24304   0.169E+02 0.000E+00
CGA:   2    -0.314339056664E+03   -0.62604E+00   -0.63771E+00 24304   0.211E+02-0.209E+00
CGA:   3    -0.316379244266E+03   -0.20402E+01   -0.20939E+01 24304   0.249E+02-0.138E+01
CGA:   4    -0.317011911541E+03   -0.63267E+00   -0.64965E+00 24304   0.813E+01-0.417E+00
CGA:   5    -0.317357471717E+03   -0.34556E+00   -0.33574E+00 24304   0.494E+01 0.209E-02
CGA:   6    -0.317584797428E+03   -0.22733E+00   -0.22970E+00 24304   0.471E+01 0.250E-01
CGA:   7    -0.317791100434E+03   -0.20630E+00   -0.20578E+00 24304   0.152E+01-0.120E-02
CGA:   8    -0.317832573449E+03   -0.41473E-01   -0.41507E-01 24304   0.522E+00-0.431E-03
CGA:   9    -0.317877046995E+03   -0.44474E-01   -0.44496E-01 24304   0.839E+00-0.653E-03
CGA:  10    -0.317901698176E+03   -0.24651E-01   -0.25155E-01 24304   0.205E+00-0.784E-02
CGA:  11    -0.317908264734E+03   -0.65666E-02   -0.65679E-02 24304   0.922E-01 0.354E-04
CGA:  12    -0.317912663337E+03   -0.43986E-02   -0.44077E-02 24304   0.902E-01 0.282E-03
CGA:  13    -0.317918891893E+03   -0.62286E-02   -0.62257E-02 24304   0.751E-01 0.155E-03
CGA:  14    -0.317921147727E+03   -0.22558E-02   -0.22673E-02 24304   0.160E-01-0.171E-03
CGA:  15    -0.317921829969E+03   -0.68224E-03   -0.68257E-03 24304   0.176E-01 0.189E-05
CGA:  16    -0.317923360932E+03   -0.15310E-02   -0.15249E-02 24304   0.196E-01 0.167E-03
CGA:  17    -0.317924047164E+03   -0.68623E-03   -0.68794E-03 24304   0.498E-02 0.605E-06
CGA:  18    -0.317924241406E+03   -0.19424E-03   -0.19486E-03 24304   0.526E-02 0.432E-05
CGA:  19    -0.317924709694E+03   -0.46829E-03   -0.46777E-03 24304   0.612E-02 0.120E-04
CGA:  20    -0.317925006279E+03   -0.29658E-03   -0.29692E-03 24304   0.307E-02 0.201E-04
CGA:  21    -0.317925104160E+03   -0.97881E-04   -0.98072E-04 24304   0.153E-02 0.371E-05
CGA:  22    -0.317925233228E+03   -0.12907E-03   -0.12853E-03 24304   0.315E-02 0.164E-04
CGA:  23    -0.317925438565E+03   -0.20534E-03   -0.20518E-03 24304   0.124E-02 0.181E-04
CGA:  24    -0.317925481815E+03   -0.43250E-04   -0.43389E-04 24304   0.780E-03 0.268E-05
CGA:  25    -0.317925530110E+03   -0.48296E-04   -0.48284E-04 24304   0.103E-02 0.118E-05
CGA:  26    -0.317925617691E+03   -0.87580E-04   -0.87483E-04 24304   0.142E-02 0.267E-05
CGA:  27    -0.317925663651E+03   -0.45960E-04   -0.46002E-04 24304   0.407E-03-0.661E-07
CGA:  28    -0.317925688265E+03   -0.24614E-04   -0.24604E-04 24304   0.641E-03 0.191E-05
CGA:  29    -0.317925756335E+03   -0.68069E-04   -0.67748E-04 24304   0.109E-02 0.619E-05
CGA:  30    -0.317925797698E+03   -0.41363E-04   -0.41443E-04 24304   0.549E-03 0.261E-05
CGA:  31    -0.317925829334E+03   -0.31636E-04   -0.31636E-04 24304   0.568E-03-0.874E-06
SDA:  32    -0.317925879509E+03   -0.50175E-04   -0.50227E-04 24304   0.121E-02-0.226E-05
CGA:  33    -0.317925904196E+03   -0.24686E-04   -0.24658E-04 24304   0.265E-03-0.309E-06
CGA:  34    -0.317925919621E+03   -0.15426E-04   -0.15426E-04 24304   0.380E-03-0.867E-06
CGA:  35    -0.317925957673E+03   -0.38052E-04   -0.38148E-04 24304   0.726E-03-0.250E-05
CGA:  36    -0.317925991539E+03   -0.33866E-04   -0.33841E-04 24304   0.221E-03-0.210E-05
CGA:  37    -0.317925998884E+03   -0.73454E-05   -0.73252E-05 24304   0.121E-03-0.102E-05
CGA:  38    -0.317926012089E+03   -0.13205E-04   -0.13298E-04 24304   0.456E-03-0.197E-05
CGA:  39    -0.317926048019E+03   -0.35930E-04   -0.36041E-04 24304   0.391E-03-0.585E-05
CGA:  40    -0.317926065994E+03   -0.17976E-04   -0.17918E-04 24304   0.226E-03-0.350E-05
CGA:  41    -0.317926081246E+03   -0.15252E-04   -0.15271E-04 24304   0.471E-03-0.265E-05
CGA:  42    -0.317926130141E+03   -0.48894E-04   -0.49027E-04 24304   0.812E-03-0.340E-05
CGA:  43    -0.317926159718E+03   -0.29577E-04   -0.29486E-04 24304   0.202E-03-0.145E-05
CGA:  44    -0.317926193692E+03   -0.33975E-04   -0.33942E-04 24304   0.980E-03 0.227E-07
CGA:  45    -0.317926261595E+03   -0.67903E-04   -0.67890E-04 24304   0.698E-03 0.420E-05
CGA:  46    -0.317926278792E+03   -0.17197E-04   -0.17217E-04 24304   0.199E-03 0.127E-05
CGA:  47    -0.317926301265E+03   -0.22473E-04   -0.22399E-04 24304   0.612E-03 0.121E-05
CGA:  48    -0.317926356491E+03   -0.55226E-04   -0.55170E-04 24304   0.285E-03 0.244E-05
CGA:  49    -0.317926366298E+03   -0.98071E-05   -0.98510E-05 24304   0.184E-03 0.177E-05
CGA:  50    -0.317926385726E+03   -0.19427E-04   -0.19119E-04 24304   0.402E-03 0.802E-05
CGA:  51    -0.317926405954E+03   -0.20228E-04   -0.20369E-04 24304   0.317E-03 0.655E-05
CGA:  52    -0.317926418085E+03   -0.12131E-04   -0.12212E-04 24304   0.107E-03 0.377E-05
CGA:  53    -0.317926425139E+03   -0.70543E-05   -0.70556E-05 24304   0.172E-03 0.467E-06
CGA:  54    -0.317926443161E+03   -0.18022E-04   -0.18065E-04 24304   0.204E-03-0.126E-05
CGA:  55    -0.317926448991E+03   -0.58301E-05   -0.58347E-05 24304   0.684E-04-0.235E-06
   7 F= -.31792645E+03 E0= -.31789722E+03  d E =-.165832E+00  mag=    48.7346
       N       E                     dE             d eps       ncg     rms          ort
SDA:   1    -0.270264578127E+03    0.47662E+02    0.00000E+00 24304   0.382E+03 0.000E+00
CGA:   2    -0.279514951543E+03   -0.92504E+01   -0.91706E+01 24304   0.140E+03-0.361E+01
CGA:   3    -0.293139687686E+03   -0.13625E+02   -0.16370E+02 24304   0.636E+03-0.482E+02
CGA:   4    -0.303108082456E+03   -0.99684E+01   -0.85918E+01 24304   0.477E+03 0.519E+02
CGA:   5    -0.305311751334E+03   -0.22037E+01   -0.87112E+01 24304   0.264E+03-0.255E+03
CGA:   6    -0.309271337629E+03   -0.39596E+01   -0.50634E+01 24304   0.202E+03-0.177E+03
CGA:   7    -0.310210050221E+03   -0.93871E+00   -0.48416E+01 24304   0.150E+03-0.720E+02
CGA:   8    -0.314218356450E+03   -0.40083E+01   -0.27453E+01 24304   0.289E+02 0.223E+02
CGA:   9    -0.314986346114E+03   -0.76799E+00   -0.78966E+00 24304   0.272E+02-0.852E+00
CGA:  10    -0.316115081823E+03   -0.11287E+01   -0.11628E+01 24304   0.472E+02 0.667E+00
CGA:  11    -0.316963022704E+03   -0.84794E+00   -0.83030E+00 24304   0.913E+01 0.228E+00
CGA:  12    -0.317213456819E+03   -0.25043E+00   -0.24966E+00 24304   0.850E+01-0.253E-02
CGA:  13    -0.317388803283E+03   -0.17535E+00   -0.19619E+00 24304   0.674E+01-0.540E+00
CGA:  14    -0.317579559539E+03   -0.19076E+00   -0.19240E+00 24304   0.603E+01-0.156E-01
CGA:  15    -0.317839056933E+03   -0.25950E+00   -0.26008E+00 24304   0.764E+01 0.353E-01
CGA:  16    -0.317974906788E+03   -0.13585E+00   -0.15869E+00 24304   0.169E+01-0.651E+00
CGA:  17    -0.318030999047E+03   -0.56092E-01   -0.56234E-01 24304   0.128E+01 0.272E-02
CGA:  18    -0.318085202940E+03   -0.54204E-01   -0.54380E-01 24304   0.936E+00 0.151E-01
CGA:  19    -0.318136510678E+03   -0.51308E-01   -0.50923E-01 24304   0.898E+00 0.344E-01
CGA:  20    -0.318164318914E+03   -0.27808E-01   -0.27909E-01 24304   0.252E+00-0.739E-03
CGA:  21    -0.318173982806E+03   -0.96639E-02   -0.97364E-02 24304   0.250E+00 0.292E-02
CGA:  22    -0.318185908918E+03   -0.11926E-01   -0.11924E-01 24304   0.207E+00 0.106E-02
CGA:  23    -0.318194872772E+03   -0.89639E-02   -0.89754E-02 24304   0.133E+00 0.181E-02
CGA:  24    -0.318200812936E+03   -0.59402E-02   -0.59441E-02 24304   0.624E-01 0.114E-02
CGA:  25    -0.318204138509E+03   -0.33256E-02   -0.33210E-02 24304   0.736E-01 0.416E-03
CGA:  26    -0.318208841625E+03   -0.47031E-02   -0.46937E-02 24304   0.673E-01 0.423E-03
CGA:  27    -0.318211610891E+03   -0.27693E-02   -0.27734E-02 24304   0.284E-01 0.263E-03
CGA:  28    -0.318212947739E+03   -0.13368E-02   -0.13368E-02 24304   0.236E-01 0.167E-03
CGA:  29    -0.318214303418E+03   -0.13557E-02   -0.13544E-02 24304   0.303E-01 0.997E-04
CGA:  30    -0.318215682193E+03   -0.13788E-02   -0.13796E-02 24304   0.172E-01 0.250E-03
CGA:  31    -0.318216342495E+03   -0.66030E-03   -0.66118E-03 24304   0.898E-02 0.589E-04
CGA:  32    -0.318216787181E+03   -0.44469E-03   -0.44449E-03 24304   0.817E-02 0.561E-04
CGA:  33    -0.318217343620E+03   -0.55644E-03   -0.55460E-03 24304   0.102E-01 0.805E-04
CGA:  34    -0.318217896449E+03   -0.55283E-03   -0.55234E-03 24304   0.463E-02 0.667E-04
CGA:  35    -0.318218105338E+03   -0.20889E-03   -0.20893E-03 24304   0.377E-02 0.856E-05
CGA:  36    -0.318218368299E+03   -0.26296E-03   -0.26272E-03 24304   0.506E-02 0.787E-05
SDA:  37    -0.318218669893E+03   -0.30159E-03   -0.30155E-03 24304   0.410E-02 0.202E-05
CGA:  38    -0.318218767085E+03   -0.97192E-04   -0.97261E-04 24304   0.139E-02-0.186E-05
CGA:  39    -0.318218856981E+03   -0.89895E-04   -0.89824E-04 24304   0.202E-02 0.290E-05
CGA:  40    -0.318219031991E+03   -0.17501E-03   -0.17516E-03 24304   0.382E-02-0.492E-05
CGA:  41    -0.318219201387E+03   -0.16940E-03   -0.16932E-03 24304   0.153E-02-0.113E-04
CGA:  42    -0.318219264155E+03   -0.62768E-04   -0.62667E-04 24304   0.147E-02-0.123E-04
CGA:  43    -0.318219383729E+03   -0.11957E-03   -0.12050E-03 24304   0.230E-02-0.296E-04
CGA:  44    -0.318219518019E+03   -0.13429E-03   -0.13467E-03 24304   0.114E-02-0.429E-04
CGA:  45    -0.318219596107E+03   -0.78088E-04   -0.78187E-04 24304   0.186E-02-0.667E-05
CGA:  46    -0.318219793148E+03   -0.19704E-03   -0.19517E-03 24304   0.374E-02 0.346E-04
CGA:  47    -0.318219944353E+03   -0.15121E-03   -0.15054E-03 24304   0.121E-02-0.378E-05
CGA:  48    -0.318219993226E+03   -0.48873E-04   -0.48832E-04 24304   0.113E-02-0.107E-05
CGA:  49    -0.318220094788E+03   -0.10156E-03   -0.10132E-03 24304   0.293E-02 0.561E-05
CGA:  50    -0.318220258062E+03   -0.16327E-03   -0.16328E-03 24304   0.581E-03 0.246E-05
CGA:  51    -0.318220297115E+03   -0.39054E-04   -0.38997E-04 24304   0.940E-03 0.427E-05
CGA:  52    -0.318220376021E+03   -0.78905E-04   -0.78545E-04 24304   0.159E-02 0.130E-04
CGA:  53    -0.318220440582E+03   -0.64561E-04   -0.64815E-04 24304   0.512E-03 0.132E-04
CGA:  54    -0.318220462452E+03   -0.21870E-04   -0.21970E-04 24304   0.398E-03 0.517E-05
CGA:  55    -0.318220502964E+03   -0.40512E-04   -0.40068E-04 24304   0.112E-02 0.971E-05
CGA:  56    -0.318220553439E+03   -0.50475E-04   -0.50649E-04 24304   0.303E-03 0.116E-04
CGA:  57    -0.318220564005E+03   -0.10566E-04   -0.10650E-04 24304   0.195E-03 0.243E-05
CGA:  58    -0.318220588399E+03   -0.24394E-04   -0.23919E-04 24304   0.515E-03 0.678E-05
CGA:  59    -0.318220619990E+03   -0.31591E-04   -0.31595E-04 24304   0.136E-03 0.879E-05
CGA:  60    -0.318220625781E+03   -0.57905E-05   -0.58325E-05 24304   0.151E-03 0.200E-05
CGA:  61    -0.318220638922E+03   -0.13141E-04   -0.12962E-04 24304   0.296E-03 0.658E-05
CGA:  62    -0.318220657029E+03   -0.18107E-04   -0.18119E-04 24304   0.239E-03 0.707E-05
CGA:  63    -0.318220667771E+03   -0.10743E-04   -0.10777E-04 24304   0.115E-03 0.224E-05
CGA:  64    -0.318220677558E+03   -0.97865E-05   -0.98083E-05 24304   0.214E-03-0.125E-05
CGA:  65    -0.318220691909E+03   -0.14351E-04   -0.14383E-04 24304   0.226E-03-0.441E-05
CGA:  66    -0.318220699353E+03   -0.74442E-05   -0.73865E-05 24304   0.853E-04-0.214E-05
   8 F= -.31822070E+03 E0= -.31819335E+03  d E =-.294250E+00  mag=    48.7975
       N       E                     dE             d eps       ncg     rms          ort
SDA:   1    -0.309705377216E+03    0.85153E+01    0.00000E+00 24304   0.438E+02 0.000E+00
CGA:   2    -0.311085053514E+03   -0.13797E+01   -0.15242E+01 24304   0.389E+02-0.143E+01
CGA:   3    -0.313873764134E+03   -0.27887E+01   -0.28962E+01 24304   0.772E+02-0.479E+01
CGA:   4    -0.316696016902E+03   -0.28223E+01   -0.25741E+01 24304   0.150E+02 0.657E+01
CGA:   5    -0.317050672310E+03   -0.35466E+00   -0.34731E+00 24304   0.947E+01 0.166E+00
CGA:   6    -0.317454624306E+03   -0.40395E+00   -0.40261E+00 24304   0.105E+02-0.122E-01
CGA:   7    -0.317899649388E+03   -0.44503E+00   -0.44445E+00 24304   0.552E+01 0.585E-02
CGA:   8    -0.318037011234E+03   -0.13736E+00   -0.14225E+00 24304   0.324E+01-0.112E+00
CGA:   9    -0.318106489195E+03   -0.69478E-01   -0.69998E-01 24304   0.104E+01-0.176E-01
CGA:  10    -0.318156294907E+03   -0.49806E-01   -0.49936E-01 24304   0.161E+01 0.111E-01
CGA:  11    -0.318217696099E+03   -0.61401E-01   -0.62332E-01 24304   0.105E+01 0.913E-02
CGA:  12    -0.318237301062E+03   -0.19605E-01   -0.19489E-01 24304   0.152E+00 0.453E-02
CGA:  13    -0.318244164441E+03   -0.68634E-02   -0.68712E-02 24304   0.190E+00 0.523E-03
CGA:  14    -0.318253130775E+03   -0.89663E-02   -0.90010E-02 24304   0.257E+00 0.494E-02
CGA:  15    -0.318261682431E+03   -0.85517E-02   -0.85541E-02 24304   0.851E-01-0.628E-04
CGA:  16    -0.318264393208E+03   -0.27108E-02   -0.27191E-02 24304   0.303E-01-0.409E-04
CGA:  17    -0.318265670311E+03   -0.12771E-02   -0.12790E-02 24304   0.295E-01 0.116E-03
CGA:  18    -0.318267159728E+03   -0.14894E-02   -0.14891E-02 24304   0.475E-01 0.712E-04
CGA:  19    -0.318269342063E+03   -0.21823E-02   -0.21849E-02 24304   0.115E-01 0.554E-03
CGA:  20    -0.318269741575E+03   -0.39951E-03   -0.40023E-03 24304   0.836E-02 0.712E-05
CGA:  21    -0.318270169973E+03   -0.42840E-03   -0.42840E-03 24304   0.119E-01-0.848E-05
CGA:  22    -0.318270782500E+03   -0.61253E-03   -0.61199E-03 24304   0.967E-02 0.737E-04
CGA:  23    -0.318271132544E+03   -0.35004E-03   -0.35044E-03 24304   0.393E-02 0.929E-05
CGA:  24    -0.318271289821E+03   -0.15728E-03   -0.15738E-03 24304   0.300E-02 0.110E-04
CGA:  25    -0.318271461073E+03   -0.17125E-03   -0.17077E-03 24304   0.470E-02 0.399E-04
CGA:  26    -0.318271660571E+03   -0.19950E-03   -0.19968E-03 24304   0.229E-02 0.323E-04
CGA:  27    -0.318271743430E+03   -0.82859E-04   -0.83008E-04 24304   0.105E-02 0.101E-04
CGA:  28    -0.318271804151E+03   -0.60721E-04   -0.60712E-04 24304   0.158E-02-0.526E-06
CGA:  29    -0.318271891333E+03   -0.87182E-04   -0.87225E-04 24304   0.152E-02-0.658E-05
CGA:  30    -0.318271936757E+03   -0.45425E-04   -0.45398E-04 24304   0.613E-03-0.372E-05
CGA:  31    -0.318271968647E+03   -0.31890E-04   -0.31888E-04 24304   0.480E-03-0.682E-06
SDA:  32    -0.318272010028E+03   -0.41381E-04   -0.41249E-04 24304   0.127E-02 0.264E-05
CGA:  33    -0.318272032399E+03   -0.22371E-04   -0.22404E-04 24304   0.222E-03-0.116E-05
CGA:  34    -0.318272046752E+03   -0.14353E-04   -0.14354E-04 24304   0.327E-03-0.671E-06
CGA:  35    -0.318272081238E+03   -0.34487E-04   -0.34468E-04 24304   0.816E-03-0.299E-06
CGA:  36    -0.318272118871E+03   -0.37633E-04   -0.37633E-04 24304   0.271E-03-0.482E-06
CGA:  37    -0.318272132076E+03   -0.13205E-04   -0.13199E-04 24304   0.276E-03-0.322E-05
CGA:  38    -0.318272159617E+03   -0.27541E-04   -0.28162E-04 24304   0.709E-03-0.123E-04
CGA:  39    -0.318272199267E+03   -0.39650E-04   -0.39740E-04 24304   0.324E-03-0.168E-04
CGA:  40    -0.318272221571E+03   -0.22303E-04   -0.22331E-04 24304   0.560E-03-0.201E-05
CGA:  41    -0.318272269302E+03   -0.47732E-04   -0.47834E-04 24304   0.962E-03-0.253E-05
CGA:  42    -0.318272296471E+03   -0.27169E-04   -0.27381E-04 24304   0.227E-03-0.658E-06
CGA:  43    -0.318272308698E+03   -0.12227E-04   -0.12226E-04 24304   0.319E-03-0.119E-05
CGA:  44    -0.318272356140E+03   -0.47442E-04   -0.48245E-04 24304   0.619E-03-0.837E-05
CGA:  45    -0.318272386722E+03   -0.30582E-04   -0.30532E-04 24304   0.251E-03-0.573E-05
CGA:  46    -0.318272397596E+03   -0.10873E-04   -0.10862E-04 24304   0.176E-03-0.959E-06
CGA:  47    -0.318272419848E+03   -0.22252E-04   -0.21947E-04 24304   0.444E-03 0.435E-05
CGA:  48    -0.318272446609E+03   -0.26761E-04   -0.26766E-04 24304   0.185E-03 0.374E-05
CGA:  49    -0.318272452858E+03   -0.62488E-05   -0.62900E-05 24304   0.181E-03 0.172E-06
CGA:  50    -0.318272473963E+03   -0.21105E-04   -0.21195E-04 24304   0.349E-03-0.177E-05
CGA:  51    -0.318272489713E+03   -0.15749E-04   -0.15794E-04 24304   0.158E-03 0.297E-06
CGA:  52    -0.318272494782E+03   -0.50693E-05   -0.50788E-05 24304   0.785E-04 0.476E-06
CGA:  53    -0.318272508932E+03   -0.14150E-04   -0.13502E-04 24304   0.322E-03 0.578E-05
CGA:  54    -0.318272528075E+03   -0.19143E-04   -0.19159E-04 24304   0.149E-03 0.502E-05
CGA:  55    -0.318272533760E+03   -0.56853E-05   -0.57408E-05 24304   0.939E-04 0.684E-06
CGA:  56    -0.318272545188E+03   -0.11428E-04   -0.11675E-04 24304   0.373E-03-0.418E-05
CGA:  57    -0.318272563505E+03   -0.18317E-04   -0.18602E-04 24304   0.260E-03 0.272E-05
CGA:  58    -0.318272573341E+03   -0.98357E-05   -0.97477E-05 24304   0.121E-03 0.494E-06
CGA:  59    -0.318272585050E+03   -0.11709E-04   -0.11659E-04 24304   0.273E-03 0.153E-05
CGA:  60    -0.318272606703E+03   -0.21653E-04   -0.21585E-04 24304   0.294E-03 0.485E-05
CGA:  61    -0.318272617060E+03   -0.10356E-04   -0.10296E-04 24304   0.111E-03 0.209E-05
CGA:  62    -0.318272623844E+03   -0.67849E-05   -0.67860E-05 24304   0.180E-03-0.824E-06
SDA:  63    -0.318272637252E+03   -0.13408E-04   -0.13593E-04 24304   0.297E-03-0.129E-04
CGA:  64    -0.318272642513E+03   -0.52604E-05   -0.52455E-05 24304   0.467E-04-0.216E-06
   9 F= -.31827264E+03 E0= -.31824564E+03  d E =-.519432E-01  mag=    48.8792
       N       E                     dE             d eps       ncg     rms          ort
SDA:   1    -0.310065225535E+03    0.82074E+01    0.00000E+00 24304   0.213E+02 0.000E+00
CGA:   2    -0.313099568255E+03   -0.30343E+01   -0.30600E+01 24304   0.840E+02-0.327E+00
CGA:   3    -0.316501722928E+03   -0.34022E+01   -0.34176E+01 24304   0.290E+02-0.289E+00
CGA:   4    -0.317158270769E+03   -0.65655E+00   -0.61643E+00 24304   0.633E+01 0.148E+01
CGA:   5    -0.317625983600E+03   -0.46771E+00   -0.46713E+00 24304   0.116E+02 0.511E-01
CGA:   6    -0.318042696693E+03   -0.41671E+00   -0.41517E+00 24304   0.401E+01 0.115E-01
CGA:   7    -0.318137017587E+03   -0.94321E-01   -0.92823E-01 24304   0.144E+01 0.448E-01
CGA:   8    -0.318209482374E+03   -0.72465E-01   -0.72237E-01 24304   0.131E+01-0.548E-02
CGA:   9    -0.318264216481E+03   -0.54734E-01   -0.54809E-01 24304   0.119E+01 0.705E-03
CGA:  10    -0.318299516652E+03   -0.35300E-01   -0.35402E-01 24304   0.349E+00-0.118E-02
CGA:  11    -0.318309963202E+03   -0.10447E-01   -0.10498E-01 24304   0.164E+00-0.639E-03
CGA:  12    -0.318317328418E+03   -0.73652E-02   -0.73717E-02 24304   0.187E+00 0.149E-03
CGA:  13    -0.318327888611E+03   -0.10560E-01   -0.10560E-01 24304   0.196E+00 0.834E-04
CGA:  14    -0.318332708529E+03   -0.48199E-02   -0.48249E-02 24304   0.331E-01-0.202E-03
CGA:  15    -0.318333932603E+03   -0.12241E-02   -0.12250E-02 24304   0.250E-01 0.668E-05
CGA:  16    -0.318335448862E+03   -0.15163E-02   -0.15158E-02 24304   0.446E-01 0.428E-04
CGA:  17    -0.318337248578E+03   -0.17997E-02   -0.18017E-02 24304   0.219E-01 0.586E-04
CGA:  18    -0.318337955060E+03   -0.70648E-03   -0.70698E-03 24304   0.660E-02 0.132E-04
CGA:  19    -0.318338254398E+03   -0.29934E-03   -0.29943E-03 24304   0.869E-02 0.786E-05
CGA:  20    -0.318338725432E+03   -0.47103E-03   -0.47096E-03 24304   0.108E-01 0.214E-04
CGA:  21    -0.318339239801E+03   -0.51437E-03   -0.51455E-03 24304   0.400E-02 0.300E-04
CGA:  22    -0.318339363283E+03   -0.12348E-03   -0.12376E-03 24304   0.228E-02 0.973E-05
CGA:  23    -0.318339494551E+03   -0.13127E-03   -0.13110E-03 24304   0.389E-02 0.232E-04
CGA:  24    -0.318339691426E+03   -0.19688E-03   -0.19691E-03 24304   0.221E-02 0.387E-04
CGA:  25    -0.318339772675E+03   -0.81249E-04   -0.81437E-04 24304   0.972E-03 0.120E-04
CGA:  26    -0.318339808278E+03   -0.35603E-04   -0.35638E-04 24304   0.848E-03 0.167E-05
CGA:  27    -0.318339855974E+03   -0.47695E-04   -0.47703E-04 24304   0.102E-02-0.196E-05
CGA:  28    -0.318339909308E+03   -0.53335E-04   -0.53342E-04 24304   0.636E-03-0.312E-05
CGA:  29    -0.318339927109E+03   -0.17800E-04   -0.17806E-04 24304   0.232E-03-0.124E-06
CGA:  30    -0.318339941215E+03   -0.14106E-04   -0.14070E-04 24304   0.448E-03 0.261E-05
CGA:  31    -0.318339970182E+03   -0.28967E-04   -0.28844E-04 24304   0.494E-03 0.823E-05
SDA:  32    -0.318339986889E+03   -0.16707E-04   -0.16783E-04 24304   0.158E-03 0.421E-05
CGA:  33    -0.318339993742E+03   -0.68526E-05   -0.68453E-05 24304   0.187E-03-0.158E-05
CGA:  34    -0.318340009108E+03   -0.15366E-04   -0.15522E-04 24304   0.332E-03-0.477E-05
CGA:  35    -0.318340024733E+03   -0.15625E-04   -0.15615E-04 24304   0.225E-03-0.463E-05
CGA:  36    -0.318340033461E+03   -0.87286E-05   -0.87176E-05 24304   0.132E-03-0.120E-05
  10 F= -.31834003E+03 E0= -.31831351E+03  d E =-.673909E-01  mag=    48.9022
       N       E                     dE             d eps       ncg     rms          ort
SDA:   1    -0.295803790938E+03    0.22536E+02    0.00000E+00 24304   0.785E+02 0.000E+00
CGA:   2    -0.301070811670E+03   -0.52670E+01   -0.52830E+01 24304   0.125E+03-0.221E+01
CGA:   3    -0.310479673760E+03   -0.94089E+01   -0.10096E+02 24304   0.164E+03-0.443E+02
CGA:   4    -0.313236458648E+03   -0.27568E+01   -0.26927E+01 24304   0.127E+03 0.938E+00
CGA:   5    -0.314752728638E+03   -0.15163E+01   -0.13216E+01 24304   0.354E+02 0.890E+01
CGA:   6    -0.315400059998E+03   -0.64733E+00   -0.58607E+00 24304   0.368E+02 0.280E+01
CGA:   7    -0.315916802909E+03   -0.51674E+00   -0.52310E+00 24304   0.262E+02-0.109E+01
CGA:   8    -0.316309412183E+03   -0.39261E+00   -0.43755E+00 24304   0.397E+02-0.191E+01
CGA:   9    -0.317020246254E+03   -0.71083E+00   -0.71937E+00 24304   0.495E+02-0.310E+00
CGA:  10    -0.317536995524E+03   -0.51675E+00   -0.47755E+00 24304   0.155E+02 0.247E+01
CGA:  11    -0.317692510911E+03   -0.15552E+00   -0.16142E+00 24304   0.780E+01-0.586E+00
CGA:  12    -0.317777988564E+03   -0.85478E-01   -0.87380E-01 24304   0.480E+01-0.143E+00
CGA:  13    -0.317844147760E+03   -0.66159E-01   -0.67850E-01 24304   0.549E+01-0.841E-01
CGA:  14    -0.317947765944E+03   -0.10362E+00   -0.10550E+00 24304   0.675E+01-0.440E-01
CGA:  15    -0.318042054614E+03   -0.94289E-01   -0.10121E+00 24304   0.609E+01-0.359E+00
CGA:  16    -0.318138417916E+03   -0.96363E-01   -0.99813E-01 24304   0.446E+01-0.999E-01
CGA:  17    -0.318190778638E+03   -0.52361E-01   -0.54900E-01 24304   0.206E+01-0.144E+00
CGA:  18    -0.318222086233E+03   -0.31308E-01   -0.31990E-01 24304   0.128E+01-0.219E-01
CGA:  19    -0.318239559201E+03   -0.17473E-01   -0.18567E-01 24304   0.738E+00-0.438E-01
CGA:  20    -0.318261772782E+03   -0.22214E-01   -0.22264E-01 24304   0.130E+01 0.345E-01
CGA:  21    -0.318297703379E+03   -0.35931E-01   -0.35923E-01 24304   0.101E+01-0.357E-03
CGA:  22    -0.318323531028E+03   -0.25828E-01   -0.25698E-01 24304   0.734E+00-0.550E-02
CGA:  23    -0.318336823570E+03   -0.13293E-01   -0.13927E-01 24304   0.287E+00-0.544E-02
CGA:  24    -0.318343309097E+03   -0.64855E-02   -0.66386E-02 24304   0.211E+00 0.405E-02
CGA:  25    -0.318353331052E+03   -0.10022E-01   -0.10013E-01 24304   0.331E+00 0.452E-03
CGA:  26    -0.318362674772E+03   -0.93437E-02   -0.93379E-02 24304   0.168E+00-0.711E-03
CGA:  27    -0.318366530200E+03   -0.38554E-02   -0.38998E-02 24304   0.787E-01 0.109E-02
CGA:  28    -0.318368819504E+03   -0.22893E-02   -0.22931E-02 24304   0.620E-01 0.102E-02
CGA:  29    -0.318371885276E+03   -0.30658E-02   -0.30659E-02 24304   0.925E-01-0.119E-04
CGA:  30    -0.318374964558E+03   -0.30793E-02   -0.30786E-02 24304   0.650E-01 0.161E-03
CGA:  31    -0.318376940082E+03   -0.19755E-02   -0.19766E-02 24304   0.311E-01 0.411E-03
SDA:  32    -0.318377641512E+03   -0.70143E-03   -0.70312E-03 24304   0.126E-01 0.153E-04
CGA:  33    -0.318378124184E+03   -0.48267E-03   -0.48240E-03 24304   0.989E-02 0.280E-04
CGA:  34    -0.318379236071E+03   -0.11119E-02   -0.11003E-02 24304   0.203E-01 0.154E-03
CGA:  35    -0.318380077036E+03   -0.84096E-03   -0.84025E-03 24304   0.726E-02 0.107E-03
CGA:  36    -0.318380335289E+03   -0.25825E-03   -0.25826E-03 24304   0.294E-02 0.211E-04
CGA:  37    -0.318380835424E+03   -0.50013E-03   -0.49700E-03 24304   0.930E-02 0.300E-04
CGA:  38    -0.318381178720E+03   -0.34330E-03   -0.34336E-03 24304   0.301E-02 0.616E-06
CGA:  39    -0.318381309383E+03   -0.13066E-03   -0.13066E-03 24304   0.355E-02 0.460E-05
CGA:  40    -0.318381661603E+03   -0.35222E-03   -0.34894E-03 24304   0.681E-02 0.581E-04
CGA:  41    -0.318381936760E+03   -0.27516E-03   -0.27544E-03 24304   0.138E-02 0.399E-04
CGA:  42    -0.318382008818E+03   -0.72057E-04   -0.72037E-04 24304   0.164E-02 0.932E-06
CGA:  43    -0.318382161273E+03   -0.15246E-03   -0.15310E-03 24304   0.251E-02-0.141E-04
CGA:  44    -0.318382246821E+03   -0.85548E-04   -0.85520E-04 24304   0.546E-03-0.677E-05
CGA:  45    -0.318382286306E+03   -0.39484E-04   -0.39355E-04 24304   0.745E-03 0.423E-05
CGA:  46    -0.318382339964E+03   -0.53658E-04   -0.53397E-04 24304   0.921E-03 0.106E-04
CGA:  47    -0.318382368682E+03   -0.28719E-04   -0.28828E-04 24304   0.302E-03 0.565E-05
CGA:  48    -0.318382382911E+03   -0.14228E-04   -0.14233E-04 24304   0.225E-03 0.238E-05
[...]
CGA:  12    -0.318415176072E+03   -0.65194E-03   -0.65189E-03 24304   0.792E-02 0.291E-05
CGA:  13    -0.318415457755E+03   -0.28168E-03   -0.28175E-03 24304   0.181E-02-0.180E-05
CGA:  14    -0.318415554063E+03   -0.96308E-04   -0.96302E-04 24304   0.173E-02-0.199E-05
CGA:  15    -0.318415649177E+03   -0.95113E-04   -0.95112E-04 24304   0.209E-02-0.139E-05
CGA:  16    -0.318415763975E+03   -0.11480E-03   -0.11480E-03 24304   0.481E-03 0.137E-05
CGA:  17    -0.318415791327E+03   -0.27352E-04   -0.27351E-04 24304   0.425E-03 0.365E-06
CGA:  18    -0.318415828615E+03   -0.37288E-04   -0.37232E-04 24304   0.727E-03 0.154E-05
CGA:  19    -0.318415861789E+03   -0.33175E-04   -0.33193E-04 24304   0.273E-03 0.126E-05
CGA:  20    -0.318415871928E+03   -0.10138E-04   -0.10148E-04 24304   0.147E-03 0.213E-06
CGA:  21    -0.318415883819E+03   -0.11891E-04   -0.11895E-04 24304   0.204E-03-0.319E-06
CGA:  22    -0.318415895987E+03   -0.12168E-04   -0.12170E-04 24304   0.203E-03-0.711E-06
CGA:  23    -0.318415902854E+03   -0.68671E-05   -0.68608E-05 24304   0.406E-04-0.456E-06
  46 F= -.31841590E+03 E0= -.31839507E+03  d E =-.544351E-03  mag=    49.1645
       N       E                     dE             d eps       ncg     rms          ort
SDA:   1    -0.318130145009E+03    0.28575E+00    0.00000E+00 24304   0.128E+01 0.000E+00
CGA:   2    -0.318180872965E+03   -0.50728E-01   -0.49739E-01 24304   0.126E+01-0.315E-02
CGA:   3    -0.318316792403E+03   -0.13592E+00   -0.13609E+00 24304   0.196E+01-0.326E-02
CGA:   4    -0.318380956132E+03   -0.64164E-01   -0.64328E-01 24304   0.352E+00-0.169E-02
CGA:   5    -0.318397138946E+03   -0.16183E-01   -0.16217E-01 24304   0.285E+00 0.840E-03
CGA:   6    -0.318413997660E+03   -0.16859E-01   -0.16861E-01 24304   0.240E+00-0.438E-03
CGA:   7    -0.318422486741E+03   -0.84891E-02   -0.84830E-02 24304   0.666E-01 0.282E-04
CGA:   8    -0.318425205898E+03   -0.27192E-02   -0.27181E-02 24304   0.290E-01-0.115E-04
CGA:   9    -0.318427985092E+03   -0.27792E-02   -0.27814E-02 24304   0.254E-01-0.488E-04
CGA:  10    -0.318428883549E+03   -0.89846E-03   -0.89947E-03 24304   0.548E-02-0.441E-05
CGA:  11    -0.318429170159E+03   -0.28661E-03   -0.28662E-03 24304   0.515E-02 0.207E-05
CGA:  12    -0.318429570807E+03   -0.40065E-03   -0.40068E-03 24304   0.582E-02-0.141E-05
CGA:  13    -0.318429750865E+03   -0.18006E-03   -0.18010E-03 24304   0.121E-02-0.669E-06
CGA:  14    -0.318429816062E+03   -0.65197E-04   -0.65199E-04 24304   0.861E-03 0.994E-06
CGA:  15    -0.318429878144E+03   -0.62083E-04   -0.62046E-04 24304   0.148E-02 0.204E-05
CGA:  16    -0.318429944407E+03   -0.66263E-04   -0.66294E-04 24304   0.516E-03 0.248E-05
CGA:  17    -0.318429964935E+03   -0.20528E-04   -0.20540E-04 24304   0.226E-03 0.655E-06
CGA:  18    -0.318429988678E+03   -0.23743E-04   -0.23632E-04 24304   0.395E-03 0.216E-05
CGA:  19    -0.318430016420E+03   -0.27743E-04   -0.27708E-04 24304   0.164E-03 0.276E-05
CGA:  20    -0.318430022865E+03   -0.64442E-05   -0.64533E-05 24304   0.101E-03 0.394E-06
  47 F= -.31843002E+03 E0= -.31840921E+03  d E =-.141200E-01  mag=    49.1645
       N       E                     dE             d eps       ncg     rms          ort
SDA:   1    -0.318269854917E+03    0.16016E+00    0.00000E+00 24304   0.741E+00 0.000E+00
CGA:   2    -0.318294877767E+03   -0.25023E-01   -0.25033E-01 24304   0.658E+00-0.140E-03
CGA:   3    -0.318359929509E+03   -0.65052E-01   -0.65173E-01 24304   0.111E+01-0.271E-02
CGA:   4    -0.318406005464E+03   -0.46076E-01   -0.46255E-01 24304   0.212E+00 0.141E-02
CGA:   5    -0.318414884460E+03   -0.88790E-02   -0.88818E-02 24304   0.138E+00 0.427E-04
CGA:   6    -0.318423012296E+03   -0.81278E-02   -0.81283E-02 24304   0.116E+00-0.115E-03
CGA:   7    -0.318427608324E+03   -0.45960E-02   -0.45954E-02 24304   0.353E-01 0.196E-06
CGA:   8    -0.318429114200E+03   -0.15059E-02   -0.15062E-02 24304   0.148E-01 0.162E-04
CGA:   9    -0.318430182510E+03   -0.10683E-02   -0.10677E-02 24304   0.175E-01 0.348E-04
CGA:  10    -0.318430785513E+03   -0.60300E-03   -0.60314E-03 24304   0.651E-02 0.156E-04
CGA:  11    -0.318431033045E+03   -0.24753E-03   -0.24761E-03 24304   0.196E-02 0.454E-05
CGA:  12    -0.318431175558E+03   -0.14251E-03   -0.14256E-03 24304   0.218E-02-0.213E-05
CGA:  13    -0.318431329786E+03   -0.15423E-03   -0.15428E-03 24304   0.123E-02-0.368E-05
CGA:  14    -0.318431370935E+03   -0.41149E-04   -0.41137E-04 24304   0.368E-03-0.904E-06
CGA:  15    -0.318431389862E+03   -0.18927E-04   -0.18927E-04 24304   0.422E-03-0.162E-06
CGA:  16    -0.318431427898E+03   -0.38036E-04   -0.38018E-04 24304   0.329E-03 0.378E-06
CGA:  17    -0.318431441047E+03   -0.13149E-04   -0.13141E-04 24304   0.120E-03-0.511E-06
CGA:  18    -0.318431446543E+03   -0.54962E-05   -0.54927E-05 24304   0.131E-03-0.469E-06
CGA:  19    -0.318431456661E+03   -0.10118E-04   -0.10125E-04 24304   0.161E-03-0.396E-06
CGA:  20    -0.318431464726E+03   -0.80646E-05   -0.80638E-05 24304   0.596E-04-0.194E-06
  48 F= -.31843146E+03 E0= -.31841056E+03  d E =-.144186E-02  mag=    49.1659
       N       E                     dE             d eps       ncg     rms          ort
SDA:   1    -0.317206896240E+03    0.12246E+01    0.00000E+00 24304   0.352E+01 0.000E+00
CGA:   2    -0.317499240861E+03   -0.29234E+00   -0.29388E+00 24304   0.103E+02-0.456E-01
CGA:   3    -0.318108502538E+03   -0.60926E+00   -0.60914E+00 24304   0.394E+01 0.202E-01
CGA:   4    -0.318232899234E+03   -0.12440E+00   -0.12508E+00 24304   0.153E+01-0.550E-02
CGA:   5    -0.318323656439E+03   -0.90757E-01   -0.90763E-01 24304   0.135E+01-0.759E-03
CGA:   6    -0.318390336195E+03   -0.66680E-01   -0.66612E-01 24304   0.586E+00-0.378E-02
CGA:   7    -0.318408534549E+03   -0.18198E-01   -0.18220E-01 24304   0.197E+00-0.231E-03
CGA:   8    -0.318422533968E+03   -0.13999E-01   -0.13990E-01 24304   0.149E+00 0.424E-03
CGA:   9    -0.318431011683E+03   -0.84777E-02   -0.84777E-02 24304   0.890E-01 0.512E-04
CGA:  10    -0.318433765321E+03   -0.27536E-02   -0.27548E-02 24304   0.280E-01 0.104E-04
CGA:  11    -0.318434991848E+03   -0.12265E-02   -0.12267E-02 24304   0.253E-01 0.768E-05
CGA:  12    -0.318436872046E+03   -0.18802E-02   -0.18798E-02 24304   0.171E-01 0.147E-04
CGA:  13    -0.318437607073E+03   -0.73503E-03   -0.73492E-03 24304   0.386E-02-0.466E-05
CGA:  14    -0.318437841941E+03   -0.23487E-03   -0.23483E-03 24304   0.515E-02 0.276E-05
CGA:  15    -0.318438185665E+03   -0.34372E-03   -0.34370E-03 24304   0.426E-02 0.133E-05
CGA:  16    -0.318438349877E+03   -0.16421E-03   -0.16432E-03 24304   0.144E-02 0.241E-05
CGA:  17    -0.318438426246E+03   -0.76369E-04   -0.76373E-04 24304   0.100E-02 0.321E-05
CGA:  18    -0.318438522614E+03   -0.96368E-04   -0.96163E-04 24304   0.164E-02 0.465E-05
CGA:  19    -0.318438605356E+03   -0.82742E-04   -0.82771E-04 24304   0.730E-03 0.420E-05
CGA:  20    -0.318438627530E+03   -0.22174E-04   -0.22221E-04 24304   0.348E-03 0.117E-05
CGA:  21    -0.318438658363E+03   -0.30833E-04   -0.30757E-04 24304   0.557E-03 0.205E-05
CGA:  22    -0.318438691863E+03   -0.33500E-04   -0.33494E-04 24304   0.319E-03 0.150E-05
CGA:  23    -0.318438704162E+03   -0.12298E-04   -0.12309E-04 24304   0.111E-03 0.327E-06
CGA:  24    -0.318438710603E+03   -0.64414E-05   -0.64410E-05 24304   0.141E-03 0.101E-07
  49 F= -.31843871E+03 E0= -.31841760E+03  d E =-.724588E-02  mag=    49.1659
       N       E                     dE             d eps       ncg     rms          ort
SDA:   1    -0.317549917333E+03    0.88879E+00    0.00000E+00 24304   0.284E+01 0.000E+00
CGA:   2    -0.317731556079E+03   -0.18164E+00   -0.18149E+00 24304   0.618E+01 0.130E-01
CGA:   3    -0.318185545154E+03   -0.45399E+00   -0.45428E+00 24304   0.353E+01-0.148E-01
CGA:   4    -0.318307822734E+03   -0.12228E+00   -0.12141E+00 24304   0.998E+00 0.109E-01
CGA:   5    -0.318357723680E+03   -0.49901E-01   -0.49963E-01 24304   0.111E+01 0.363E-02
CGA:   6    -0.318412441299E+03   -0.54718E-01   -0.54713E-01 24304   0.457E+00-0.211E-03
CGA:   7    -0.318431042961E+03   -0.18602E-01   -0.18590E-01 24304   0.177E+00-0.470E-04
CGA:   8    -0.318439252329E+03   -0.82094E-02   -0.82033E-02 24304   0.105E+00-0.197E-03
CGA:   9    -0.318445353986E+03   -0.61017E-02   -0.61015E-02 24304   0.948E-01 0.372E-04
CGA:  10    -0.318448736588E+03   -0.33826E-02   -0.33828E-02 24304   0.325E-01 0.122E-04
CGA:  11    -0.318449861053E+03   -0.11245E-02   -0.11239E-02 24304   0.114E-01 0.427E-05
CGA:  12    -0.318451146617E+03   -0.12856E-02   -0.12851E-02 24304   0.167E-01 0.914E-05
CGA:  13    -0.318451767629E+03   -0.62101E-03   -0.62133E-03 24304   0.600E-02-0.100E-05
CGA:  14    -0.318451970567E+03   -0.20294E-03   -0.20297E-03 24304   0.252E-02-0.239E-06
CGA:  15    -0.318452151436E+03   -0.18087E-03   -0.18085E-03 24304   0.379E-02 0.934E-06
CGA:  16    -0.318452373342E+03   -0.22191E-03   -0.22187E-03 24304   0.208E-02 0.631E-05
CGA:  17    -0.318452451350E+03   -0.78007E-04   -0.78065E-04 24304   0.102E-02 0.195E-05
CGA:  18    -0.318452501190E+03   -0.49841E-04   -0.49850E-04 24304   0.861E-03 0.164E-05
CGA:  19    -0.318452582659E+03   -0.81468E-04   -0.81276E-04 24304   0.111E-02 0.449E-05
CGA:  20    -0.318452634401E+03   -0.51742E-04   -0.51778E-04 24304   0.503E-03 0.343E-05
CGA:  21    -0.318452650552E+03   -0.16151E-04   -0.16181E-04 24304   0.278E-03 0.824E-06
CGA:  22    -0.318452679646E+03   -0.29094E-04   -0.28991E-04 24304   0.387E-03 0.192E-05
CGA:  23    -0.318452702043E+03   -0.22397E-04   -0.22397E-04 24304   0.257E-03 0.381E-06
CGA:  24    -0.318452710858E+03   -0.88154E-05   -0.88212E-05 24304   0.874E-04 0.245E-07
  50 F= -.31845271E+03 E0= -.31843134E+03  d E =-.140003E-01  mag=    49.1661
       N       E                     dE             d eps       ncg     rms          ort
SDA:   1    -0.318234344249E+03    0.21836E+00    0.00000E+00 24304   0.176E+01 0.000E+00
CGA:   2    -0.318272600225E+03   -0.38256E-01   -0.38510E-01 24304   0.623E+00-0.772E-02
CGA:   3    -0.318359839423E+03   -0.87239E-01   -0.87263E-01 24304   0.154E+01-0.400E-03
CGA:   4    -0.318411269103E+03   -0.51430E-01   -0.51568E-01 24304   0.259E+00-0.989E-03
CGA:   5    -0.318426445788E+03   -0.15177E-01   -0.15176E-01 24304   0.252E+00 0.216E-03
CGA:   6    -0.318438015726E+03   -0.11570E-01   -0.11564E-01 24304   0.152E+00-0.117E-03
CGA:   7    -0.318444823344E+03   -0.68076E-02   -0.68053E-02 24304   0.483E-01-0.447E-04
CGA:   8    -0.318446758440E+03   -0.19351E-02   -0.19366E-02 24304   0.234E-01 0.115E-04
CGA:   9    -0.318448657921E+03   -0.18995E-02   -0.18998E-02 24304   0.245E-01-0.796E-05
CGA:  10    -0.318449464673E+03   -0.80675E-03   -0.80628E-03 24304   0.758E-02 0.367E-05
CGA:  11    -0.318449703984E+03   -0.23931E-03   -0.23938E-03 24304   0.299E-02-0.217E-05
CGA:  12    -0.318449979002E+03   -0.27502E-03   -0.27506E-03 24304   0.361E-02-0.883E-06
CGA:  13    -0.318450171525E+03   -0.19252E-03   -0.19253E-03 24304   0.138E-02 0.236E-05
CGA:  14    -0.318450215863E+03   -0.44338E-04   -0.44364E-04 24304   0.554E-03 0.752E-06
CGA:  15    -0.318450262099E+03   -0.46236E-04   -0.46208E-04 24304   0.920E-03 0.819E-06
CGA:  16    -0.318450311482E+03   -0.49384E-04   -0.49384E-04 24304   0.425E-03-0.833E-07
CGA:  17    -0.318450329583E+03   -0.18101E-04   -0.18104E-04 24304   0.139E-03 0.176E-06
CGA:  18    -0.318450346103E+03   -0.16520E-04   -0.16447E-04 24304   0.292E-03 0.109E-05
CGA:  19    -0.318450359708E+03   -0.13605E-04   -0.13611E-04 24304   0.190E-03 0.426E-06
CGA:  20    -0.318450367389E+03   -0.76808E-05   -0.76797E-05 24304   0.725E-04-0.109E-06
  51 F= -.31845037E+03 E0= -.31842896E+03  d E =0.234347E-02  mag=    49.1708
       N       E                     dE             d eps       ncg     rms          ort
SDA:   1    -0.318026761973E+03    0.42360E+00    0.00000E+00 24304   0.116E+01 0.000E+00
CGA:   2    -0.318142523694E+03   -0.11576E+00   -0.11552E+00 24304   0.360E+01 0.531E-02
CGA:   3    -0.318337504433E+03   -0.19498E+00   -0.19501E+00 24304   0.164E+01 0.264E-02
CGA:   4    -0.318385003205E+03   -0.47499E-01   -0.47646E-01 24304   0.457E+00-0.162E-02
CGA:   5    -0.318413496173E+03   -0.28493E-01   -0.28477E-01 24304   0.404E+00 0.181E-02
CGA:   6    -0.318437370859E+03   -0.23875E-01   -0.23878E-01 24304   0.125E+00-0.118E-02
CGA:   7    -0.318441548854E+03   -0.41780E-02   -0.41795E-02 24304   0.677E-01 0.159E-05
CGA:   8    -0.318445704473E+03   -0.41556E-02   -0.41558E-02 24304   0.568E-01-0.819E-06
CGA:   9    -0.318448406551E+03   -0.27021E-02   -0.27021E-02 24304   0.212E-01 0.239E-04
CGA:  10    -0.318449129827E+03   -0.72328E-03   -0.72407E-03 24304   0.811E-02 0.464E-05
CGA:  11    -0.318449595581E+03   -0.46575E-03   -0.46577E-03 24304   0.105E-01-0.148E-05
CGA:  12    -0.318450146887E+03   -0.55131E-03   -0.55130E-03 24304   0.533E-02-0.155E-05
CGA:  13    -0.318450343745E+03   -0.19686E-03   -0.19685E-03 24304   0.139E-02-0.619E-06
CGA:  14    -0.318450430625E+03   -0.86880E-04   -0.86886E-04 24304   0.134E-02-0.544E-06
CGA:  15    -0.318450545779E+03   -0.11515E-03   -0.11518E-03 24304   0.162E-02-0.883E-06
CGA:  16    -0.318450592387E+03   -0.46608E-04   -0.46611E-04 24304   0.390E-03-0.522E-06
CGA:  17    -0.318450613281E+03   -0.20894E-04   -0.20894E-04 24304   0.399E-03 0.231E-06
CGA:  18    -0.318450646438E+03   -0.33157E-04   -0.33126E-04 24304   0.557E-03 0.106E-05
CGA:  19    -0.318450672455E+03   -0.26017E-04   -0.26034E-04 24304   0.232E-03 0.178E-05
CGA:  20    -0.318450680063E+03   -0.76078E-05   -0.76176E-05 24304   0.107E-03 0.340E-06
CGA:  21    -0.318450692888E+03   -0.12826E-04   -0.12823E-04 24304   0.185E-03 0.413E-08
CGA:  22    -0.318450702793E+03   -0.99044E-05   -0.99049E-05 24304   0.104E-03 0.102E-06
  52 F= -.31845070E+03 E0= -.31842911E+03  d E =-.335404E-03  mag=    49.1723
       N       E                     dE             d eps       ncg     rms          ort
SDA:   1    -0.317342163892E+03    0.11085E+01    0.00000E+00 24304   0.308E+01 0.000E+00
CGA:   2    -0.317632452598E+03   -0.29029E+00   -0.28949E+00 24304   0.953E+01 0.200E-01
CGA:   3    -0.318153568264E+03   -0.52112E+00   -0.52127E+00 24304   0.412E+01 0.192E-01
CGA:   4    -0.318267836836E+03   -0.11427E+00   -0.11239E+00 24304   0.124E+01 0.337E-01
CGA:   5    -0.318360608483E+03   -0.92772E-01   -0.92744E-01 24304   0.962E+00 0.117E-02
CGA:   6    -0.318415392236E+03   -0.54784E-01   -0.54785E-01 24304   0.393E+00 0.149E-02
CGA:   7    -0.318429763152E+03   -0.14371E-01   -0.14331E-01 24304   0.172E+00 0.199E-03
CGA:   8    -0.318438369926E+03   -0.86068E-02   -0.86077E-02 24304   0.176E+00 0.848E-04
CGA:   9    -0.318446556819E+03   -0.81869E-02   -0.81912E-02 24304   0.669E-01 0.170E-03
CGA:  10    -0.318448939423E+03   -0.23826E-02   -0.23824E-02 24304   0.257E-01 0.136E-04
CGA:  11    -0.318450117701E+03   -0.11783E-02   -0.11783E-02 24304   0.209E-01 0.200E-05
CGA:  12    -0.318451491074E+03   -0.13734E-02   -0.13731E-02 24304   0.217E-01 0.166E-04
CGA:  13    -0.318452317659E+03   -0.82659E-03   -0.82656E-03 24304   0.338E-02-0.218E-06
CGA:  14    -0.318452558689E+03   -0.24103E-03   -0.24100E-03 24304   0.364E-02 0.184E-05
CGA:  15    -0.318452882168E+03   -0.32348E-03   -0.32333E-03 24304   0.341E-02 0.391E-05
CGA:  16    -0.318453012524E+03   -0.13036E-03   -0.13041E-03 24304   0.127E-02 0.191E-05
CGA:  17    -0.318453067658E+03   -0.55134E-04   -0.55145E-04 24304   0.108E-02 0.886E-06
CGA:  18    -0.318453142682E+03   -0.75024E-04   -0.74970E-04 24304   0.147E-02 0.343E-05
CGA:  19    -0.318453233018E+03   -0.90336E-04   -0.90303E-04 24304   0.779E-03 0.554E-05
CGA:  20    -0.318453256016E+03   -0.22997E-04   -0.23026E-04 24304   0.330E-03 0.909E-06
CGA:  21    -0.318453280900E+03   -0.24885E-04   -0.24870E-04 24304   0.438E-03 0.586E-06
CGA:  22    -0.318453315465E+03   -0.34565E-04   -0.34504E-04 24304   0.369E-03 0.248E-05
CGA:  23    -0.318453330371E+03   -0.14906E-04   -0.14926E-04 24304   0.917E-04 0.110E-05
CGA:  24    -0.318453337345E+03   -0.69743E-05   -0.69721E-05 24304   0.161E-03 0.440E-08
CGA:  25    -0.318453348028E+03   -0.10683E-04   -0.10684E-04 24304   0.160E-03-0.230E-06
CGA:  26    -0.318453353947E+03   -0.59190E-05   -0.59186E-05 24304   0.625E-04-0.114E-06
  53 F= -.31845335E+03 E0= -.31843144E+03  d E =-.265115E-02  mag=    49.1665
       N       E                     dE             d eps       ncg     rms          ort
SDA:   1    -0.318357878703E+03    0.95469E-01    0.00000E+00 24304   0.421E+00 0.000E+00
CGA:   2    -0.318374715312E+03   -0.16837E-01   -0.16842E-01 24304   0.461E+00 0.633E-04
CGA:   3    -0.318417703982E+03   -0.42989E-01   -0.42988E-01 24304   0.643E+00 0.126E-07
CGA:   4    -0.318437546176E+03   -0.19842E-01   -0.19812E-01 24304   0.157E+00 0.411E-03
CGA:   5    -0.318444837916E+03   -0.72917E-02   -0.72906E-02 24304   0.911E-01-0.181E-04
CGA:   6    -0.318451300149E+03   -0.64622E-02   -0.64617E-02 24304   0.838E-01 0.215E-04
CGA:   7    -0.318454064653E+03   -0.27645E-02   -0.27647E-02 24304   0.263E-01-0.537E-05
CGA:   8    -0.318455185845E+03   -0.11212E-02   -0.11209E-02 24304   0.122E-01-0.391E-05
CGA:   9    -0.318456085822E+03   -0.89998E-03   -0.89996E-03 24304   0.938E-02 0.140E-05
CGA:  10    -0.318456516318E+03   -0.43050E-03   -0.43067E-03 24304   0.475E-02 0.556E-05
CGA:  11    -0.318456657910E+03   -0.14159E-03   -0.14154E-03 24304   0.145E-02 0.929E-06
CGA:  12    -0.318456737556E+03   -0.79647E-04   -0.79648E-04 24304   0.197E-02-0.786E-06
CGA:  13    -0.318456877590E+03   -0.14003E-03   -0.14004E-03 24304   0.537E-03-0.366E-06
CGA:  14    -0.318456903216E+03   -0.25626E-04   -0.25624E-04 24304   0.351E-03-0.323E-06
CGA:  15    -0.318456921664E+03   -0.18448E-04   -0.18448E-04 24304   0.419E-03 0.463E-07
CGA:  16    -0.318456950115E+03   -0.28451E-04   -0.28447E-04 24304   0.294E-03 0.226E-06
CGA:  17    -0.318456961449E+03   -0.11334E-04   -0.11340E-04 24304   0.118E-03 0.308E-06
CGA:  18    -0.318456967405E+03   -0.59562E-05   -0.59572E-05 24304   0.128E-03 0.243E-06
  54 F= -.31845697E+03 E0= -.31843490E+03  d E =-.361346E-02  mag=    49.1707
       N       E                     dE             d eps       ncg     rms          ort
SDA:   1    -0.318354965607E+03    0.10200E+00    0.00000E+00 24304   0.896E+00 0.000E+00
CGA:   2    -0.318373988999E+03   -0.19023E-01   -0.19060E-01 24304   0.286E+00-0.119E-02
CGA:   3    -0.318403544487E+03   -0.29555E-01   -0.29577E-01 24304   0.667E+00-0.428E-03
CGA:   4    -0.318436856401E+03   -0.33312E-01   -0.33320E-01 24304   0.236E+00 0.589E-03
CGA:   5    -0.318446051924E+03   -0.91955E-02   -0.92065E-02 24304   0.746E-01 0.750E-04
CGA:   6    -0.318449467781E+03   -0.34159E-02   -0.34161E-02 24304   0.675E-01 0.125E-04
CGA:   7    -0.318453173146E+03   -0.37054E-02   -0.37053E-02 24304   0.317E-01 0.149E-04
CGA:   8    -0.318454538004E+03   -0.13649E-02   -0.13651E-02 24304   0.105E-01 0.858E-05
CGA:   9    -0.318455006531E+03   -0.46853E-03   -0.46842E-03 24304   0.628E-02 0.355E-06
CGA:  10    -0.318455541321E+03   -0.53479E-03   -0.53424E-03 24304   0.615E-02 0.164E-04
CGA:  11    -0.318455699654E+03   -0.15833E-03   -0.15842E-03 24304   0.142E-02 0.323E-05
CGA:  12    -0.318455765070E+03   -0.65417E-04   -0.65408E-04 24304   0.102E-02-0.883E-06
CGA:  13    -0.318455838360E+03   -0.73290E-04   -0.73322E-04 24304   0.118E-02-0.173E-05
CGA:  14    -0.318455892696E+03   -0.54336E-04   -0.54332E-04 24304   0.459E-03-0.705E-06
CGA:  15    -0.318455908032E+03   -0.15336E-04   -0.15338E-04 24304   0.180E-03-0.166E-07
CGA:  16    -0.318455921077E+03   -0.13044E-04   -0.13049E-04 24304   0.255E-03-0.265E-06
CGA:  17    -0.318455940139E+03   -0.19063E-04   -0.19062E-04 24304   0.190E-03 0.507E-08
CGA:  18    -0.318455948611E+03   -0.84719E-05   -0.84719E-05 24304   0.675E-04-0.688E-07
  55 F= -.31845595E+03 E0= -.31843378E+03  d E =0.101879E-02  mag=    49.1736
