       N       E                     dE             d eps       ncg     rms          rms(c)
DAV:   1     0.660063464302E+04    0.66006E+04   -0.28177E+05 35976   0.160E+03
DAV:   2     0.374265849759E+03   -0.62264E+04   -0.58846E+04 36744   0.484E+02
DAV:   3    -0.387736855068E+03   -0.76200E+03   -0.75143E+03 37840   0.179E+02
DAV:   4    -0.419957861384E+03   -0.32221E+02   -0.31641E+02 46744   0.331E+01
DAV:   5    -0.422611676222E+03   -0.26538E+01   -0.26387E+01 62680   0.719E+00    0.572E+01
DAV:   6    -0.383461307162E+03    0.39150E+02   -0.26542E+02 47432   0.409E+01    0.553E+01
DAV:   7    -0.390551199855E+03   -0.70899E+01   -0.77126E+01 47144   0.252E+01    0.625E+01
DAV:   8    -0.393428489979E+03   -0.28773E+01   -0.23536E+01 43464   0.164E+01    0.544E+01
DAV:   9    -0.383953929019E+03    0.94746E+01   -0.10962E+01 41864   0.125E+01    0.394E+01
DAV:  10    -0.389970385611E+03   -0.60165E+01   -0.33440E+01 44504   0.102E+01    0.559E+01
DAV:  11    -0.384509790523E+03    0.54606E+01   -0.38924E+01 43224   0.133E+01    0.357E+01
DAV:  12    -0.383972086774E+03    0.53770E+00   -0.91588E+00 40296   0.737E+00    0.336E+01
DAV:  13    -0.380569919791E+03    0.34022E+01   -0.10156E+01 43584   0.609E+00    0.206E+01
DAV:  14    -0.381615369602E+03   -0.10454E+01   -0.20040E+00 43584   0.296E+00    0.204E+01
DAV:  15    -0.381971260678E+03   -0.35589E+00   -0.44041E+00 41536   0.240E+00    0.141E+01
DAV:  16    -0.381987227871E+03   -0.15967E-01   -0.13301E-01 38016   0.697E-01    0.141E+01
DAV:  17    -0.381963804157E+03    0.23424E-01   -0.15919E-02 49472   0.208E-01    0.144E+01
DAV:  18    -0.382103160129E+03   -0.13936E+00   -0.82443E-02 43848   0.607E-01    0.151E+01
DAV:  19    -0.382248279880E+03   -0.14512E+00   -0.41580E-02 42528   0.417E-01    0.151E+01
DAV:  20    -0.382825778958E+03   -0.57750E+00   -0.62522E-01 45056   0.119E+00    0.158E+01
DAV:  21    -0.382935047731E+03   -0.10927E+00   -0.42811E-02 40816   0.427E-01    0.158E+01
DAV:  22    -0.383492382530E+03   -0.55733E+00   -0.67499E-01 44208   0.141E+00    0.140E+01
DAV:  23    -0.384128392895E+03   -0.63601E+00   -0.95685E-01 45864   0.147E+00    0.148E+01
DAV:  24    -0.384145540149E+03   -0.17147E-01   -0.53519E-02 42664   0.598E-01    0.144E+01
DAV:  25    -0.384342217515E+03   -0.19668E+00   -0.44860E-01 45944   0.136E+00    0.137E+01
DAV:  26    -0.384495120287E+03   -0.15290E+00   -0.30882E-01 46008   0.125E+00    0.116E+01
DAV:  27    -0.384405688419E+03    0.89432E-01   -0.33072E-01 47328   0.185E+00    0.110E+01
DAV:  28    -0.383978535015E+03    0.42715E+00   -0.10435E+00 42200   0.163E+00    0.923E+00
DAV:  29    -0.383564318747E+03    0.41422E+00   -0.17465E-01 40824   0.911E-01    0.923E+00
DAV:  30    -0.383872380764E+03   -0.30806E+00   -0.45414E-02 41880   0.462E-01    0.834E+00
DAV:  31    -0.384412296097E+03   -0.53992E+00   -0.25065E-01 43632   0.814E-01    0.685E+00
DAV:  32    -0.384455215323E+03   -0.42919E-01   -0.29581E-02 47312   0.410E-01    0.597E+00
DAV:  33    -0.384458865236E+03   -0.36499E-02   -0.13379E-02 52592   0.381E-01    0.539E+00
DAV:  34    -0.384436395829E+03    0.22469E-01   -0.21447E-02 52216   0.555E-01    0.492E+00
DAV:  35    -0.384506991592E+03   -0.70596E-01   -0.21848E-02 48624   0.440E-01    0.369E+00
DAV:  36    -0.384525619206E+03   -0.18628E-01   -0.83124E-03 46648   0.239E-01    0.323E+00
DAV:  37    -0.384541584818E+03   -0.15966E-01   -0.47197E-03 47032   0.176E-01    0.275E+00
DAV:  38    -0.384547070383E+03   -0.54856E-02   -0.37727E-03 48648   0.162E-01    0.238E+00
DAV:  39    -0.384558895484E+03   -0.11825E-01   -0.60720E-03 49584   0.195E-01    0.186E+00
DAV:  40    -0.384564996917E+03   -0.61014E-02   -0.13891E-03 42856   0.101E-01    0.168E+00
DAV:  41    -0.384571731388E+03   -0.67345E-02   -0.19272E-03 50464   0.102E-01    0.136E+00
DAV:  42    -0.384577504929E+03   -0.57735E-02   -0.30632E-03 47296   0.121E-01    0.921E-01
DAV:  43    -0.384580911156E+03   -0.34062E-02   -0.13073E-03 48760   0.973E-02    0.665E-01
DAV:  44    -0.384582699127E+03   -0.17880E-02   -0.89643E-04 48920   0.778E-02    0.423E-01
DAV:  45    -0.384583356466E+03   -0.65734E-03   -0.62309E-04 46592   0.604E-02    0.229E-01
DAV:  46    -0.384583607704E+03   -0.25124E-03   -0.18749E-04 41248   0.351E-02    0.145E-01
DAV:  47    -0.384583696638E+03   -0.88934E-04   -0.63634E-05 35456   0.231E-02    0.892E-02
DAV:  48    -0.384583743968E+03   -0.47330E-04   -0.78303E-05 34040   0.238E-02    0.371E-02
DAV:  49    -0.384583746879E+03   -0.29113E-05   -0.25897E-05 31304   0.130E-02
   1 F= -.38458375E+03 E0= -.38457813E+03  d E =-.384584E+03  mag=    46.0052
       N       E                     dE             d eps       ncg     rms          rms(c)
DAV:   1    -0.384644592495E+03   -0.60849E-01   -0.17921E+00 35768   0.358E+00    0.191E+00
DAV:   2    -0.384594246766E+03    0.50346E-01   -0.18093E-01 38928   0.101E+00    0.126E+00
DAV:   3    -0.384607611468E+03   -0.13365E-01   -0.11572E-01 45256   0.671E-01    0.381E+00
DAV:   4    -0.384589406282E+03    0.18205E-01   -0.11249E-01 42840   0.556E-01    0.106E+00
DAV:   5    -0.384591111725E+03   -0.17054E-02   -0.26224E-02 45832   0.332E-01    0.111E+00
DAV:   6    -0.384589304236E+03    0.18075E-02   -0.97503E-03 45152   0.242E-01    0.453E-01
DAV:   7    -0.384589000582E+03    0.30365E-03   -0.26470E-03 49464   0.130E-01    0.185E-01
DAV:   8    -0.384588983320E+03    0.17262E-04   -0.69765E-04 52696   0.631E-02    0.192E-01
DAV:   9    -0.384588957702E+03    0.25618E-04   -0.59125E-04 44728   0.571E-02    0.152E-01
DAV:  10    -0.384588925774E+03    0.31927E-04   -0.18271E-04 36432   0.397E-02    0.767E-02
DAV:  11    -0.384588914886E+03    0.10888E-04   -0.10338E-04 37288   0.256E-02    0.412E-02
DAV:  12    -0.384588911482E+03    0.34044E-05   -0.15888E-05 25488   0.130E-02
   2 F= -.38458891E+03 E0= -.38458328E+03  d E =-.516460E-02  mag=    46.0008
       N       E                     dE             d eps       ncg     rms          rms(c)
DAV:   1    -0.384596003126E+03   -0.70882E-02   -0.20977E-01 35712   0.122E+00    0.655E-01
DAV:   2    -0.384590099119E+03    0.59040E-02   -0.21110E-02 38840   0.346E-01    0.415E-01
DAV:   3    -0.384591506215E+03   -0.14071E-02   -0.93835E-03 45416   0.223E-01    0.125E+00
DAV:   4    -0.384589510615E+03    0.19956E-02   -0.98471E-03 43424   0.190E-01    0.321E-01
DAV:   5    -0.384589760232E+03   -0.24962E-03   -0.29169E-03 46176   0.106E-01    0.393E-01
DAV:   6    -0.384589524358E+03    0.23587E-03   -0.12729E-03 44480   0.805E-02    0.134E-01
DAV:   7    -0.384589505352E+03    0.19005E-04   -0.25033E-04 38072   0.392E-02    0.704E-02
DAV:   8    -0.384589495746E+03    0.96067E-05   -0.86398E-05 36832   0.226E-02
   3 F= -.38458950E+03 E0= -.38458384E+03  d E =-.574887E-02  mag=    46.0003
       N       E                     dE             d eps       ncg     rms          rms(c)
DAV:   1    -0.384615035299E+03   -0.25530E-01   -0.83698E-01 35280   0.244E+00    0.132E+00
DAV:   2    -0.384591555494E+03    0.23480E-01   -0.85044E-02 38696   0.698E-01    0.960E-01
DAV:   3    -0.384599818323E+03   -0.82628E-02   -0.59586E-02 45160   0.511E-01    0.293E+00
DAV:   4    -0.384588801685E+03    0.11017E-01   -0.57561E-02 42496   0.419E-01    0.733E-01
DAV:   5    -0.384589799774E+03   -0.99809E-03   -0.11506E-02 45736   0.239E-01    0.710E-01
DAV:   6    -0.384589036741E+03    0.76303E-03   -0.44906E-03 44864   0.163E-01    0.341E-01
DAV:   7    -0.384588889373E+03    0.14737E-03   -0.13799E-03 49744   0.930E-02    0.165E-01
DAV:   8    -0.384588892046E+03   -0.26733E-05   -0.71044E-04 48552   0.642E-02    0.202E-01
DAV:   9    -0.384588825749E+03    0.66297E-04   -0.38592E-04 42952   0.477E-02    0.708E-02
DAV:  10    -0.384588821641E+03    0.41086E-05   -0.57671E-05 33976   0.204E-02
   4 F= -.38458882E+03 E0= -.38458320E+03  d E =-.507476E-02  mag=    46.0001
       N       E                     dE             d eps       ncg     rms          rms(c)
DAV:   1    -0.384604926593E+03   -0.16101E-01   -0.49395E-01 35256   0.188E+00    0.101E+00
DAV:   2    -0.384591025025E+03    0.13902E-01   -0.50376E-02 38816   0.533E-01    0.686E-01
DAV:   3    -0.384594921643E+03   -0.38966E-02   -0.23817E-02 45504   0.374E-01    0.193E+00
DAV:   4    -0.384589476237E+03    0.54454E-02   -0.19891E-02 43616   0.305E-01    0.398E-01
DAV:   5    -0.384590180355E+03   -0.70412E-03   -0.64892E-03 47232   0.160E-01    0.632E-01
DAV:   6    -0.384589554670E+03    0.62568E-03   -0.34125E-03 46080   0.126E-01    0.172E-01
DAV:   7    -0.384589572946E+03   -0.18275E-04   -0.46740E-04 50168   0.590E-02    0.159E-01
DAV:   8    -0.384589553401E+03    0.19545E-04   -0.30970E-04 42496   0.420E-02    0.119E-01
DAV:   9    -0.384589539124E+03    0.14277E-04   -0.12408E-04 31688   0.278E-02    0.501E-02
DAV:  10    -0.384589544323E+03   -0.51993E-05   -0.44483E-05 28408   0.181E-02
   5 F= -.38458954E+03 E0= -.38458388E+03  d E =-.579744E-02  mag=    46.0000
       N       E                     dE             d eps       ncg     rms          rms(c)
DAV:   1    -0.384600668311E+03   -0.11129E-01   -0.15188E+00 35472   0.325E+00    0.102E+00
DAV:   2    -0.384597603976E+03    0.30643E-02   -0.57546E-02 37296   0.686E-01    0.115E+00
DAV:   3    -0.384598925144E+03   -0.13212E-02   -0.24145E-02 41680   0.434E-01    0.177E+00
DAV:   4    -0.384595422290E+03    0.35029E-02   -0.32439E-02 44144   0.321E-01    0.114E+00
DAV:   5    -0.384593941106E+03    0.14812E-02   -0.17555E-02 46392   0.233E-01    0.544E-01
DAV:   6    -0.384593575746E+03    0.36536E-03   -0.41457E-03 47272   0.152E-01    0.402E-01
DAV:   7    -0.384593361118E+03    0.21463E-03   -0.17580E-03 46824   0.101E-01    0.226E-01
DAV:   8    -0.384593286000E+03    0.75118E-04   -0.55741E-04 44552   0.636E-02    0.152E-01
DAV:   9    -0.384593245096E+03    0.40903E-04   -0.25628E-04 41968   0.382E-02    0.949E-02
DAV:  10    -0.384593229518E+03    0.15578E-04   -0.10966E-04 33912   0.300E-02    0.675E-02
DAV:  11    -0.384593225681E+03    0.38369E-05   -0.40294E-05 29608   0.203E-02
   6 F= -.38459323E+03 E0= -.38458758E+03  d E =-.368136E-02  mag=    46.0000
       N       E                     dE             d eps       ncg     rms          rms(c)
DAV:   1    -0.384630548917E+03   -0.37319E-01   -0.71805E+00 35392   0.707E+00    0.222E+00
DAV:   2    -0.384617111405E+03    0.13438E-01   -0.28521E-01 37192   0.150E+00    0.261E+00
DAV:   3    -0.384620409334E+03   -0.32979E-02   -0.19373E-01 41000   0.930E-01    0.361E+00
DAV:   4    -0.384606539046E+03    0.13870E-01   -0.18270E-01 43944   0.656E-01    0.250E+00
DAV:   5    -0.384598064589E+03    0.84745E-02   -0.76194E-02 46656   0.515E-01    0.108E+00
DAV:   6    -0.384596530406E+03    0.15342E-02   -0.15719E-02 47648   0.320E-01    0.812E-01
DAV:   7    -0.384595728778E+03    0.80163E-03   -0.76936E-03 46712   0.211E-01    0.508E-01
DAV:   8    -0.384595293516E+03    0.43526E-03   -0.26198E-03 46008   0.141E-01    0.328E-01
DAV:   9    -0.384595090162E+03    0.20335E-03   -0.83120E-04 46320   0.729E-02    0.203E-01
DAV:  10    -0.384595032364E+03    0.57798E-04   -0.46741E-04 46064   0.583E-02    0.156E-01
DAV:  11    -0.384595014683E+03    0.17681E-04   -0.25710E-04 40888   0.450E-02    0.749E-02
DAV:  12    -0.384595017355E+03   -0.26724E-05   -0.10866E-04 34624   0.273E-02    0.518E-02
DAV:  13    -0.384595014969E+03    0.23859E-05   -0.18228E-05 26560   0.143E-02
   7 F= -.38459501E+03 E0= -.38458935E+03  d E =-.547065E-02  mag=    46.0000
       N       E                     dE             d eps       ncg     rms          rms(c)
DAV:   1    -0.384597939380E+03   -0.29220E-02   -0.52109E-01 35512   0.190E+00    0.602E-01
DAV:   2    -0.384597136012E+03    0.80337E-03   -0.20243E-02 37528   0.411E-01    0.806E-01
DAV:   3    -0.384597228164E+03   -0.92152E-04   -0.67095E-03 40976   0.264E-01    0.959E-01
DAV:   4    -0.384596188062E+03    0.10401E-02   -0.89888E-03 44560   0.175E-01    0.682E-01
DAV:   5    -0.384595613624E+03    0.57444E-03   -0.67013E-03 45912   0.132E-01    0.301E-01
DAV:   6    -0.384595511626E+03    0.10200E-03   -0.14472E-03 48304   0.855E-02    0.245E-01
DAV:   7    -0.384595416301E+03    0.95325E-04   -0.54603E-04 41520   0.578E-02    0.115E-01
DAV:   8    -0.384595395150E+03    0.21152E-04   -0.11854E-04 36040   0.314E-02    0.763E-02
DAV:   9    -0.384595381411E+03    0.13738E-04   -0.41259E-05 31384   0.196E-02    0.437E-02
DAV:  10    -0.384595378361E+03    0.30508E-05   -0.22346E-05 26000   0.140E-02
   8 F= -.38459538E+03 E0= -.38458972E+03  d E =-.583404E-02  mag=    46.0000
       N       E                     dE             d eps       ncg     rms          rms(c)
DAV:   1    -0.384591573220E+03    0.38082E-02   -0.30106E+00 38344   0.490E+00    0.842E-01
DAV:   2    -0.384601110036E+03   -0.95368E-02   -0.13280E-01 36032   0.954E-01    0.114E+00
DAV:   3    -0.384600896427E+03    0.21361E-03   -0.16831E-02 41600   0.395E-01    0.126E+00
DAV:   4    -0.384599579466E+03    0.13170E-02   -0.15097E-02 45312   0.243E-01    0.982E-01
DAV:   5    -0.384598323043E+03    0.12564E-02   -0.12033E-02 46456   0.174E-01    0.392E-01
DAV:   6    -0.384598166009E+03    0.15703E-03   -0.24395E-03 48624   0.116E-01    0.366E-01
DAV:   7    -0.384597952611E+03    0.21340E-03   -0.13660E-03 46080   0.899E-02    0.186E-01
DAV:   8    -0.384597896076E+03    0.56536E-04   -0.32558E-04 42168   0.477E-02    0.102E-01
DAV:   9    -0.384597880745E+03    0.15331E-04   -0.62859E-05 35280   0.238E-02    0.682E-02
DAV:  10    -0.384597872215E+03    0.85299E-05   -0.33017E-05 29960   0.173E-02
   9 F= -.38459787E+03 E0= -.38459224E+03  d E =-.249385E-02  mag=    46.0000
       N       E                     dE             d eps       ncg     rms          rms(c)
DAV:   1    -0.384596297516E+03    0.15832E-02   -0.85318E-01 38376   0.261E+00    0.443E-01
DAV:   2    -0.384598912441E+03   -0.26149E-02   -0.37776E-02 36040   0.505E-01    0.565E-01
DAV:   3    -0.384598834352E+03    0.78090E-04   -0.45069E-03 42024   0.205E-01    0.603E-01
DAV:   4    -0.384598474478E+03    0.35987E-03   -0.23052E-03 45504   0.123E-01    0.480E-01
DAV:   5    -0.384598218988E+03    0.25549E-03   -0.32826E-03 45368   0.891E-02    0.264E-01
DAV:   6    -0.384598134623E+03    0.84365E-04   -0.84405E-04 46248   0.629E-02    0.191E-01
DAV:   7    -0.384598078076E+03    0.56547E-04   -0.35144E-04 39976   0.473E-02    0.932E-02
DAV:   8    -0.384598064588E+03    0.13488E-04   -0.72859E-05 31168   0.244E-02    0.542E-02
DAV:   9    -0.384598059914E+03    0.46739E-05   -0.20359E-05 28952   0.150E-02
  10 F= -.38459806E+03 E0= -.38459245E+03  d E =-.268155E-02  mag=    46.0000
       N       E                     dE             d eps       ncg     rms          rms(c)
DAV:   1    -0.384594426499E+03    0.36381E-02   -0.18032E+00 38200   0.395E+00    0.586E-01
DAV:   2    -0.384601075165E+03   -0.66487E-02   -0.86222E-02 35584   0.747E-01    0.696E-01
DAV:   3    -0.384601282477E+03   -0.20731E-03   -0.77355E-03 42352   0.279E-01    0.870E-01
DAV:   4    -0.384600514643E+03    0.76783E-03   -0.51236E-03 45376   0.173E-01    0.636E-01
DAV:   5    -0.384600045515E+03    0.46913E-03   -0.52849E-03 46200   0.116E-01    0.294E-01
DAV:   6    -0.384599954650E+03    0.90865E-04   -0.13765E-03 48192   0.818E-02    0.262E-01
DAV:   7    -0.384599835554E+03    0.11910E-03   -0.66570E-04 45536   0.629E-02    0.116E-01
DAV:   8    -0.384599813185E+03    0.22369E-04   -0.11524E-04 36896   0.284E-02    0.631E-02
DAV:   9    -0.384599806945E+03    0.62407E-05   -0.36317E-05 29928   0.170E-02
  11 F= -.38459981E+03 E0= -.38459424E+03  d E =-.174703E-02  mag=    46.0000
       N       E                     dE             d eps       ncg     rms          rms(c)
DAV:   1    -0.384587745877E+03    0.12067E-01   -0.41521E+00 37992   0.600E+00    0.894E-01
DAV:   2    -0.384603358816E+03   -0.15613E-01   -0.20208E-01 35736   0.114E+00    0.105E+00
DAV:   3    -0.384603772189E+03   -0.41337E-03   -0.19746E-02 42448   0.422E-01    0.130E+00
DAV:   4    -0.384602080713E+03    0.16915E-02   -0.11647E-02 44864   0.265E-01    0.965E-01
DAV:   5    -0.384600982877E+03    0.10978E-02   -0.11955E-02 46768   0.176E-01    0.445E-01
DAV:   6    -0.384600746313E+03    0.23656E-03   -0.29197E-03 47896   0.121E-01    0.376E-01
DAV:   7    -0.384600508550E+03    0.23776E-03   -0.14780E-03 47024   0.944E-02    0.192E-01
DAV:   8    -0.384600446682E+03    0.61868E-04   -0.32271E-04 42856   0.473E-02    0.999E-02
DAV:   9    -0.384600431342E+03    0.15340E-04   -0.90805E-05 36032   0.258E-02    0.768E-02
DAV:  10    -0.384600419245E+03    0.12098E-04   -0.43616E-05 30744   0.207E-02    0.457E-02
DAV:  11    -0.384600416336E+03    0.29091E-05   -0.31378E-05 29040   0.163E-02
  12 F= -.38460042E+03 E0= -.38459494E+03  d E =-.235642E-02  mag=    46.0000
       N       E                     dE             d eps       ncg     rms          rms(c)
DAV:   1    -0.384592298348E+03    0.81209E-02   -0.31064E+00 38432   0.516E+00    0.682E-01
DAV:   2    -0.384603957346E+03   -0.11659E-01   -0.14396E-01 35160   0.941E-01    0.806E-01
DAV:   3    -0.384603953510E+03    0.38368E-05   -0.17448E-02 43256   0.321E-01    0.829E-01
DAV:   4    -0.384602713929E+03    0.12396E-02   -0.40775E-03 45688   0.175E-01    0.265E-01
DAV:   5    -0.384602830096E+03   -0.11617E-03   -0.29491E-03 48648   0.117E-01    0.530E-01
DAV:   6    -0.384602566099E+03    0.26400E-03   -0.31343E-03 46408   0.998E-02    0.366E-01
DAV:   7    -0.384602390115E+03    0.17598E-03   -0.10705E-03 42448   0.751E-02    0.145E-01
DAV:   8    -0.384602370864E+03    0.19251E-04   -0.21459E-04 39880   0.385E-02    0.834E-02
DAV:   9    -0.384602364467E+03    0.63967E-05   -0.70236E-05 32024   0.235E-02
  13 F= -.38460236E+03 E0= -.38459686E+03  d E =-.194813E-02  mag=    46.0000
       N       E                     dE             d eps       ncg     rms          rms(c)
DAV:   1    -0.384569540600E+03    0.32830E-01   -0.10352E+01 38528   0.942E+00    0.124E+00
DAV:   2    -0.384607768094E+03   -0.38227E-01   -0.47497E-01 35160   0.171E+00    0.141E+00
DAV:   3    -0.384608317782E+03   -0.54969E-03   -0.57653E-02 43696   0.570E-01    0.157E+00
DAV:   4    -0.384604014751E+03    0.43030E-02   -0.11722E-02 45656   0.324E-01    0.636E-01
DAV:   5    -0.384604821688E+03   -0.80694E-03   -0.16010E-02 48624   0.227E-01    0.120E+00
DAV:   6    -0.384603134615E+03    0.16871E-02   -0.13103E-02 44928   0.190E-01    0.546E-01
DAV:   7    -0.384602769377E+03    0.36524E-03   -0.28948E-03 44424   0.137E-01    0.249E-01
DAV:   8    -0.384602686725E+03    0.82652E-04   -0.91421E-04 48672   0.761E-02    0.178E-01
DAV:   9    -0.384602655879E+03    0.30846E-04   -0.30268E-04 43936   0.507E-02    0.108E-01
DAV:  10    -0.384602641089E+03    0.14790E-04   -0.71137E-05 37776   0.251E-02    0.750E-02
DAV:  11    -0.384602634000E+03    0.70888E-05   -0.52906E-05 31296   0.191E-02
  14 F= -.38460263E+03 E0= -.38459715E+03  d E =-.221766E-02  mag=    46.0000
       N       E                     dE             d eps       ncg     rms          rms(c)
DAV:   1    -0.384598730249E+03    0.39108E-02   -0.13294E+00 38528   0.338E+00    0.448E-01
DAV:   2    -0.384603666140E+03   -0.49359E-02   -0.61219E-02 35224   0.615E-01    0.501E-01
DAV:   3    -0.384603749762E+03   -0.83622E-04   -0.51469E-03 42456   0.212E-01    0.584E-01
DAV:   4    -0.384603267309E+03    0.48245E-03   -0.14708E-03 45416   0.123E-01    0.344E-01
DAV:   5    -0.384603223384E+03    0.43925E-04   -0.25566E-03 45216   0.797E-02    0.323E-01
DAV:   6    -0.384603076430E+03    0.14695E-03   -0.10683E-03 43464   0.638E-02    0.177E-01
DAV:   7    -0.384603025757E+03    0.50673E-04   -0.31038E-04 40336   0.469E-02    0.802E-02
DAV:   8    -0.384603016116E+03    0.96408E-05   -0.50216E-05 31272   0.194E-02
  15 F= -.38460302E+03 E0= -.38459753E+03  d E =-.259978E-02  mag=    46.0000
       N       E                     dE             d eps       ncg     rms          rms(c)
DAV:   1    -0.384586642502E+03    0.16383E-01   -0.47026E+00 38504   0.633E+00    0.609E-01
DAV:   2    -0.384606070312E+03   -0.19428E-01   -0.20122E-01 34976   0.107E+00    0.784E-01
DAV:   3    -0.384606552937E+03   -0.48262E-03   -0.24504E-02 46712   0.299E-01    0.844E-01
DAV:   4    -0.384605735879E+03    0.81706E-03   -0.86393E-03 45680   0.159E-01    0.471E-01
DAV:   5    -0.384605540211E+03    0.19567E-03   -0.13975E-03 44128   0.952E-02    0.286E-01
DAV:   6    -0.384605408654E+03    0.13156E-03   -0.74720E-04 43072   0.769E-02    0.200E-01
DAV:   7    -0.384605324132E+03    0.84522E-04   -0.48517E-04 46752   0.614E-02    0.109E-01
DAV:   8    -0.384605310356E+03    0.13777E-04   -0.21279E-04 42872   0.392E-02    0.811E-02
DAV:   9    -0.384605305027E+03    0.53286E-05   -0.65128E-05 31560   0.241E-02
  16 F= -.38460531E+03 E0= -.38459977E+03  d E =-.228891E-02  mag=    46.0000
       N       E                     dE             d eps       ncg     rms          rms(c)
DAV:   1    -0.384600552369E+03    0.47580E-02   -0.12995E+00 38504   0.333E+00    0.320E-01
DAV:   2    -0.384605817083E+03   -0.52647E-02   -0.54860E-02 35000   0.559E-01    0.340E-01
DAV:   3    -0.384605992019E+03   -0.17494E-03   -0.49013E-03 47520   0.149E-01    0.420E-01
DAV:   4    -0.384605730361E+03    0.26166E-03   -0.19222E-03 45928   0.837E-02    0.143E-01
DAV:   5    -0.384605775181E+03   -0.44820E-04   -0.48130E-04 37992   0.464E-02    0.249E-01
DAV:   6    -0.384605676092E+03    0.99089E-04   -0.32536E-04 39168   0.457E-02    0.898E-02
DAV:   7    -0.384605670416E+03    0.56768E-05   -0.13035E-04 37616   0.314E-02    0.675E-02
DAV:   8    -0.384605664681E+03    0.57343E-05   -0.48677E-05 30136   0.199E-02
  17 F= -.38460566E+03 E0= -.38460013E+03  d E =-.264857E-02  mag=    46.0000
       N       E                     dE             d eps       ncg     rms          rms(c)
DAV:   1    -0.384596188064E+03    0.94824E-02   -0.30516E+00 38016   0.491E+00    0.455E-01
DAV:   2    -0.384608625391E+03   -0.12437E-01   -0.12096E-01 35208   0.831E-01    0.866E-01
DAV:   3    -0.384608389696E+03    0.23570E-03   -0.84865E-03 41960   0.259E-01    0.674E-01
DAV:   4    -0.384608152412E+03    0.23728E-03   -0.58383E-03 44320   0.136E-01    0.492E-01
DAV:   5    -0.384607829994E+03    0.32242E-03   -0.24024E-03 44440   0.815E-02    0.129E-01
DAV:   6    -0.384607779563E+03    0.50431E-04   -0.17377E-04 40720   0.415E-02    0.102E-01
DAV:   7    -0.384607746145E+03    0.33417E-04   -0.19379E-04 44136   0.403E-02    0.516E-02
DAV:   8    -0.384607748326E+03   -0.21804E-05   -0.54447E-05 36448   0.194E-02
  18 F= -.38460775E+03 E0= -.38460226E+03  d E =-.208364E-02  mag=    46.0000
       N       E                     dE             d eps       ncg     rms          rms(c)
DAV:   1    -0.384598521850E+03    0.92243E-02   -0.26243E+00 38040   0.455E+00    0.423E-01
DAV:   2    -0.384609112837E+03   -0.10591E-01   -0.10416E-01 35504   0.770E-01    0.758E-01
DAV:   3    -0.384609034976E+03    0.77861E-04   -0.74555E-03 42872   0.238E-01    0.632E-01
DAV:   4    -0.384608794723E+03    0.24025E-03   -0.46289E-03 43920   0.127E-01    0.443E-01
DAV:   5    -0.384608534385E+03    0.26034E-03   -0.19245E-03 44328   0.751E-02    0.122E-01
DAV:   6    -0.384608495883E+03    0.38503E-04   -0.16480E-04 41176   0.407E-02    0.107E-01
DAV:   7    -0.384608474395E+03    0.21488E-04   -0.19543E-04 41392   0.427E-02    0.945E-02
DAV:   8    -0.384608461608E+03    0.12787E-04   -0.12094E-04 39112   0.289E-02    0.417E-02
DAV:   9    -0.384608461138E+03    0.47003E-06   -0.27060E-05 26920   0.145E-02
  19 F= -.38460846E+03 E0= -.38460302E+03  d E =-.279646E-02  mag=    46.0000
       N       E                     dE             d eps       ncg     rms          rms(c)
DAV:   1    -0.384603195684E+03    0.52659E-02   -0.19524E+00 37648   0.380E+00    0.396E-01
DAV:   2    -0.384610756413E+03   -0.75607E-02   -0.77313E-02 35512   0.663E-01    0.834E-01
DAV:   3    -0.384610387850E+03    0.36856E-03   -0.92614E-03 43448   0.223E-01    0.610E-01
DAV:   4    -0.384610052859E+03    0.33499E-03   -0.38602E-03 42400   0.113E-01    0.303E-01
DAV:   5    -0.384609939533E+03    0.11333E-03   -0.11507E-03 44456   0.707E-02    0.130E-01
DAV:   6    -0.384609898657E+03    0.40877E-04   -0.21680E-04 39176   0.397E-02    0.943E-02
DAV:   7    -0.384609881833E+03    0.16824E-04   -0.16663E-04 38600   0.364E-02    0.826E-02
DAV:   8    -0.384609870006E+03    0.11827E-04   -0.75235E-05 34728   0.269E-02    0.415E-02
DAV:   9    -0.384609868699E+03    0.13074E-05   -0.26417E-05 25920   0.145E-02
  20 F= -.38460987E+03 E0= -.38460442E+03  d E =-.140756E-02  mag=    46.0000
       N       E                     dE             d eps       ncg     rms          rms(c)
DAV:   1    -0.384588668003E+03    0.21202E-01   -0.64547E+00 37704   0.692E+00    0.713E-01
DAV:   2    -0.384613154576E+03   -0.24487E-01   -0.25297E-01 35136   0.120E+00    0.134E+00
DAV:   3    -0.384612684252E+03    0.47032E-03   -0.27991E-02 43896   0.390E-01    0.117E+00
DAV:   4    -0.384611425638E+03    0.12586E-02   -0.14807E-02 42408   0.214E-01    0.598E-01
DAV:   5    -0.384610985902E+03    0.43974E-03   -0.41425E-03 46416   0.129E-01    0.228E-01
DAV:   6    -0.384610855141E+03    0.13076E-03   -0.65024E-04 41672   0.735E-02    0.168E-01
DAV:   7    -0.384610798937E+03    0.56205E-04   -0.56228E-04 46384   0.669E-02    0.147E-01
DAV:   8    -0.384610765069E+03    0.33868E-04   -0.29111E-04 45296   0.481E-02    0.804E-02
DAV:   9    -0.384610760356E+03    0.47132E-05   -0.89950E-05 37752   0.249E-02
  21 F= -.38461076E+03 E0= -.38460531E+03  d E =-.229922E-02  mag=    46.0000
       N       E                     dE             d eps       ncg     rms          rms(c)
DAV:   1    -0.384597309886E+03    0.13455E-01   -0.35997E+00 38704   0.556E+00    0.554E-01
DAV:   2    -0.384612733336E+03   -0.15423E-01   -0.15547E-01 34976   0.931E-01    0.896E-01
DAV:   3    -0.384613428038E+03   -0.69470E-03   -0.18241E-02 44256   0.304E-01    0.109E+00
DAV:   4    -0.384612034429E+03    0.13936E-02   -0.96828E-03 43160   0.174E-01    0.342E-01
DAV:   5    -0.384612026037E+03    0.83913E-05   -0.16202E-03 46520   0.840E-02    0.198E-01
DAV:   6    -0.384611931202E+03    0.94835E-04   -0.31857E-04 40688   0.537E-02    0.980E-02
DAV:   7    -0.384611900849E+03    0.30353E-04   -0.24280E-04 41400   0.452E-02    0.703E-02
DAV:   8    -0.384611902367E+03   -0.15179E-05   -0.77408E-05 38960   0.242E-02
  22 F= -.38461190E+03 E0= -.38460645E+03  d E =-.114201E-02  mag=    46.0000
       N       E                     dE             d eps       ncg     rms          rms(c)
DAV:   1    -0.384611503194E+03    0.39765E-03   -0.12148E-01 38912   0.102E+00    0.104E-01
DAV:   2    -0.384612010863E+03   -0.50767E-03   -0.51097E-03 35384   0.171E-01    0.144E-01
DAV:   3    -0.384612038567E+03   -0.27704E-04   -0.43552E-04 39608   0.566E-02    0.190E-01
DAV:   4    -0.384611997338E+03    0.41229E-04   -0.33243E-04 30136   0.330E-02    0.845E-02
DAV:   5    -0.384611991771E+03    0.55676E-05   -0.74427E-05 26568   0.182E-02    0.318E-02
DAV:   6    -0.384611990963E+03    0.80791E-06   -0.15488E-05 21832   0.112E-02
  23 F= -.38461199E+03 E0= -.38460652E+03  d E =-.123061E-02  mag=    46.0000
       N       E                     dE             d eps       ncg     rms          rms(c)
DAV:   1    -0.384610096961E+03    0.18948E-02   -0.48371E-01 38736   0.204E+00    0.199E-01
DAV:   2    -0.384612157969E+03   -0.20610E-02   -0.20792E-02 35104   0.339E-01    0.328E-01
DAV:   3    -0.384612250330E+03   -0.92361E-04   -0.26806E-03 45344   0.109E-01    0.397E-01
DAV:   4    -0.384612047925E+03    0.20241E-03   -0.10896E-03 39032   0.605E-02    0.827E-02
DAV:   5    -0.384612061145E+03   -0.13220E-04   -0.13671E-04 30608   0.286E-02    0.906E-02
DAV:   6    -0.384612045663E+03    0.15483E-04   -0.72846E-05 29880   0.231E-02    0.451E-02
DAV:   7    -0.384612043178E+03    0.24844E-05   -0.38534E-05 29856   0.190E-02
  24 F= -.38461204E+03 E0= -.38460657E+03  d E =-.128282E-02  mag=    46.0000
       N       E                     dE             d eps       ncg     rms          rms(c)
DAV:   1    -0.384606356179E+03    0.56895E-02   -0.14189E+00 38032   0.350E+00    0.363E-01
DAV:   2    -0.384613321075E+03   -0.69649E-02   -0.69518E-02 35320   0.596E-01    0.478E-01
DAV:   3    -0.384613803688E+03   -0.48261E-03   -0.62058E-03 43480   0.193E-01    0.738E-01
DAV:   4    -0.384613136847E+03    0.66684E-03   -0.39248E-03 43592   0.114E-01    0.247E-01
DAV:   5    -0.384613116651E+03    0.20197E-04   -0.73622E-04 40984   0.533E-02    0.115E-01
DAV:   6    -0.384613062299E+03    0.54352E-04   -0.13907E-04 40856   0.378E-02    0.810E-02
DAV:   7    -0.384613049619E+03    0.12681E-04   -0.12265E-04 39312   0.323E-02    0.753E-02
DAV:   8    -0.384613039849E+03    0.97699E-05   -0.57431E-05 31008   0.232E-02
  25 F= -.38461304E+03 E0= -.38460758E+03  d E =-.996670E-03  mag=    46.0000
