       N       E                     dE             d eps       ncg     rms          ort
DAV:   1     0.671418539533E+04    0.67142E+04   -0.29861E+05 28560   0.172E+03
DAV:   2     0.134879767415E+03   -0.65793E+04   -0.61198E+04 28560   0.499E+02
DAV:   3    -0.725751831417E+03   -0.86063E+03   -0.84658E+03 28560   0.196E+02
DAV:   4    -0.760368272045E+03   -0.34616E+02   -0.34265E+02 28560   0.376E+01
DAV:   5    -0.762693487437E+03   -0.23252E+01   -0.23050E+01 28560   0.658E+00
SDA:   6    -0.503228173662E+03    0.25947E+03   -0.23050E+01 28560   0.743E+03 0.000E+00
CGA:   7    -0.588144016315E+03   -0.84916E+02   -0.89528E+02 28560   0.655E+02 0.283E+01
CGA:   8    -0.598215433807E+03   -0.10071E+02   -0.10121E+02 28560   0.178E+02 0.415E+00
CGA:   9    -0.601592635950E+03   -0.33772E+01   -0.33791E+01 28560   0.905E+01 0.218E+00
CGA:  10    -0.603502352495E+03   -0.19097E+01   -0.19093E+01 28560   0.486E+01 0.267E-01
CGA:  11    -0.604590727560E+03   -0.10884E+01   -0.10907E+01 28560   0.201E+01-0.757E-01
CGA:  12    -0.604994808593E+03   -0.40408E+00   -0.40451E+00 28560   0.668E+00-0.546E-01
CGA:  13    -0.605136647540E+03   -0.14184E+00   -0.14222E+00 28560   0.208E+00-0.178E-01
CGA:  14    -0.605180334583E+03   -0.43687E-01   -0.43628E-01 28560   0.617E-01 0.317E-02
CGA:  15    -0.605196227223E+03   -0.15893E-01   -0.15649E-01 28560   0.241E-01 0.468E-02
CGA:  16    -0.605203312444E+03   -0.70852E-02   -0.68643E-02 28560   0.110E-01 0.347E-02
CGA:  17    -0.605206777871E+03   -0.34654E-02   -0.32892E-02 28560   0.504E-02 0.301E-02
CGA:  18    -0.605208641351E+03   -0.18635E-02   -0.17556E-02 28560   0.234E-02 0.163E-02
CGA:  19    -0.605209878630E+03   -0.12373E-02   -0.12142E-02 28560   0.164E-02 0.126E-03
CGA:  20    -0.605210597058E+03   -0.71843E-03   -0.88219E-03 28560   0.165E-02-0.563E-03
CGA:  21    -0.605210845982E+03   -0.24892E-03   -0.24971E-03 28560   0.109E-02 0.205E-03
CGA:  22    -0.605211043900E+03   -0.19792E-03   -0.21910E-03 28560   0.550E-03 0.389E-03
CGA:  23    -0.605211192093E+03   -0.14819E-03   -0.15413E-03 28560   0.316E-03 0.240E-03
CGA:  24    -0.605211348318E+03   -0.15623E-03   -0.16907E-03 28560   0.248E-03-0.901E-04
CGA:  25    -0.605211254234E+03    0.94084E-04   -0.13807E-03 28560   0.662E-03-0.428E-03
CGA:  26    -0.605211536342E+03   -0.28211E-03   -0.29984E-03 28560   0.309E-03-0.937E-04
CGA:  27    -0.605211619278E+03   -0.82936E-04   -0.15795E-03 28560   0.411E-03-0.233E-03
CGA:  28    -0.605211675448E+03   -0.56170E-04   -0.66819E-04 28560   0.434E-04 0.839E-04
CGA:  29    -0.605211673644E+03    0.18037E-05   -0.50301E-05 28560   0.274E-04 0.365E-04
   1 F= -.60521167E+03 E0= -.60521167E+03  d E =-.605212E+03  mag=    54.0000
       N       E                     dE             d eps       ncg     rms          ort
SDA:   1    -0.605124441635E+03    0.87234E-01    0.00000E+00 28560   0.297E+00 0.000E+00
CGA:   2    -0.605174943389E+03   -0.50502E-01   -0.50501E-01 28560   0.132E+00-0.973E-04
CGA:   3    -0.605201777736E+03   -0.26834E-01   -0.26855E-01 28560   0.534E-01 0.318E-03
CGA:   4    -0.605210362135E+03   -0.85844E-02   -0.86045E-02 28560   0.131E-01 0.209E-03
CGA:   5    -0.605212496290E+03   -0.21342E-02   -0.21332E-02 28560   0.331E-02-0.112E-04
CGA:   6    -0.605213086464E+03   -0.59017E-03   -0.59067E-03 28560   0.102E-02 0.630E-05
CGA:   7    -0.605213273090E+03   -0.18663E-03   -0.19061E-03 28560   0.299E-03 0.674E-04
CGA:   8    -0.605213332336E+03   -0.59246E-04   -0.61766E-04 28560   0.950E-04 0.522E-04
CGA:   9    -0.605213358074E+03   -0.25737E-04   -0.25872E-04 28560   0.389E-04 0.181E-04
CGA:  10    -0.605213371963E+03   -0.13890E-04   -0.13799E-04 28560   0.224E-04 0.152E-05
CGA:  11    -0.605213377279E+03   -0.53153E-05   -0.53711E-05 28560   0.935E-05 0.503E-05
   2 F= -.60521338E+03 E0= -.60521338E+03  d E =-.170363E-02  mag=    54.0000
       N       E                     dE             d eps       ncg     rms          ort
SDA:   1    -0.605212899637E+03    0.47233E-03    0.00000E+00 28560   0.167E-02 0.000E+00
CGA:   2    -0.605213193424E+03   -0.29379E-03   -0.29166E-03 28560   0.783E-03-0.342E-04
CGA:   3    -0.605213342627E+03   -0.14920E-03   -0.14996E-03 28560   0.294E-03 0.191E-04
CGA:   4    -0.605213387731E+03   -0.45104E-04   -0.46618E-04 28560   0.650E-04 0.194E-04
CGA:   5    -0.605213399479E+03   -0.11749E-04   -0.11857E-04 28560   0.159E-04 0.187E-05
CGA:   6    -0.605213402124E+03   -0.26447E-05   -0.28024E-05 28560   0.485E-05 0.290E-05
   3 F= -.60521340E+03 E0= -.60521340E+03  d E =-.172848E-02  mag=    54.0000
       N       E                     dE             d eps       ncg     rms          ort
SDA:   1    -0.605159967282E+03    0.53432E-01    0.00000E+00 28560   0.163E+00 0.000E+00
CGA:   2    -0.605192959888E+03   -0.32993E-01   -0.33004E-01 28560   0.865E-01 0.697E-03
CGA:   3    -0.605209055470E+03   -0.16096E-01   -0.16091E-01 28560   0.262E-01-0.156E-03
CGA:   4    -0.605213221088E+03   -0.41656E-02   -0.41552E-02 28560   0.613E-02-0.190E-03
CGA:   5    -0.605214207929E+03   -0.98684E-03   -0.98764E-03 28560   0.151E-02 0.151E-04
CGA:   6    -0.605214473791E+03   -0.26586E-03   -0.26766E-03 28560   0.441E-03 0.555E-04
CGA:   7    -0.605214565363E+03   -0.91571E-04   -0.91684E-04 28560   0.141E-03 0.151E-04
CGA:   8    -0.605214604513E+03   -0.39150E-04   -0.41465E-04 28560   0.842E-04-0.299E-04
CGA:   9    -0.605214622538E+03   -0.18026E-04   -0.21244E-04 28560   0.586E-04-0.295E-04
CGA:  10    -0.605214630794E+03   -0.82552E-05   -0.82553E-05 28560   0.234E-04 0.412E-06
   4 F= -.60521463E+03 E0= -.60521463E+03  d E =-.122867E-02  mag=    54.0000
       N       E                     dE             d eps       ncg     rms          ort
SDA:   1    -0.605210163085E+03    0.44595E-02    0.00000E+00 28560   0.140E-01 0.000E+00
CGA:   2    -0.605212979968E+03   -0.28169E-02   -0.28190E-02 28560   0.737E-02 0.161E-03
CGA:   3    -0.605214369603E+03   -0.13896E-02   -0.13884E-02 28560   0.229E-02-0.479E-04
CGA:   4    -0.605214730587E+03   -0.36098E-03   -0.35817E-03 28560   0.545E-03-0.519E-04
CGA:   5    -0.605214813693E+03   -0.83106E-04   -0.83276E-04 28560   0.129E-03 0.312E-05
CGA:   6    -0.605214834929E+03   -0.21236E-04   -0.21803E-04 28560   0.363E-04 0.144E-04
CGA:   7    -0.605214842614E+03   -0.76849E-05   -0.77456E-05 28560   0.122E-04 0.468E-05
   5 F= -.60521484E+03 E0= -.60521484E+03  d E =-.144049E-02  mag=    54.0000
       N       E                     dE             d eps       ncg     rms          ort
SDA:   1    -0.605196289020E+03    0.18546E-01    0.00000E+00 28560   0.560E-01 0.000E+00
CGA:   2    -0.605207585910E+03   -0.11297E-01   -0.11304E-01 28560   0.299E-01 0.366E-03
CGA:   3    -0.605213126903E+03   -0.55410E-02   -0.55375E-02 28560   0.950E-02-0.103E-03
CGA:   4    -0.605214558525E+03   -0.14316E-02   -0.14241E-02 28560   0.230E-02-0.114E-03
CGA:   5    -0.605214918880E+03   -0.36035E-03   -0.36043E-03 28560   0.591E-03 0.104E-05
CGA:   6    -0.605215015165E+03   -0.96285E-04   -0.97658E-04 28560   0.174E-03 0.293E-04
CGA:   7    -0.605215049215E+03   -0.34050E-04   -0.34311E-04 28560   0.540E-04 0.119E-04
CGA:   8    -0.605215065198E+03   -0.15983E-04   -0.17607E-04 28560   0.395E-04-0.168E-04
CGA:   9    -0.605215070716E+03   -0.55184E-05   -0.11328E-04 28560   0.503E-04-0.285E-04
   6 F= -.60521507E+03 E0= -.60521507E+03  d E =-.166859E-02  mag=    54.0000
       N       E                     dE             d eps       ncg     rms          ort
SDA:   1    -0.605167754682E+03    0.47311E-01    0.00000E+00 28560   0.141E+00 0.000E+00
CGA:   2    -0.605197223988E+03   -0.29469E-01   -0.29481E-01 28560   0.748E-01 0.984E-03
CGA:   3    -0.605211292910E+03   -0.14069E-01   -0.14061E-01 28560   0.226E-01-0.242E-03
CGA:   4    -0.605214846228E+03   -0.35533E-02   -0.35352E-02 28560   0.541E-02-0.299E-03
CGA:   5    -0.605215692821E+03   -0.84659E-03   -0.84650E-03 28560   0.133E-02-0.250E-05
CGA:   6    -0.605215926748E+03   -0.23393E-03   -0.23550E-03 28560   0.393E-03 0.458E-04
CGA:   7    -0.605216013346E+03   -0.86598E-04   -0.86652E-04 28560   0.137E-03-0.174E-04
CGA:   8    -0.605216048928E+03   -0.35581E-04   -0.44626E-04 28560   0.137E-03-0.695E-04
CGA:   9    -0.605216067909E+03   -0.18982E-04   -0.19314E-04 28560   0.235E-04 0.438E-05
CGA:  10    -0.605216074582E+03   -0.66726E-05   -0.65993E-05 28560   0.986E-05 0.124E-05
CGA:  11    -0.605216052551E+03    0.22031E-04   -0.12198E-04 28560   0.166E-03-0.304E-04
CGA:  12    -0.605216079423E+03   -0.26872E-04   -0.27950E-04 28560   0.181E-04 0.475E-05
CGA:  13    -0.605216084717E+03   -0.52939E-05   -0.54425E-05 28560   0.458E-05 0.166E-05
   7 F= -.60521608E+03 E0= -.60521608E+03  d E =-.101400E-02  mag=    54.0000
       N       E                     dE             d eps       ncg     rms          ort
SDA:   1    -0.605208639592E+03    0.74398E-02    0.00000E+00 28560   0.225E-01 0.000E+00
CGA:   2    -0.605213312529E+03   -0.46729E-02   -0.47100E-02 28560   0.119E-01 0.200E-03
CGA:   3    -0.605215548944E+03   -0.22364E-02   -0.22255E-02 28560   0.370E-02-0.587E-04
CGA:   4    -0.605216132331E+03   -0.58339E-03   -0.56846E-03 28560   0.899E-03-0.702E-04
CGA:   5    -0.605216272706E+03   -0.14037E-03   -0.14010E-03 28560   0.220E-03-0.152E-05
CGA:   6    -0.605216308160E+03   -0.35454E-04   -0.37300E-04 28560   0.669E-04 0.104E-04
CGA:   7    -0.605216322955E+03   -0.14795E-04   -0.14345E-04 28560   0.234E-04-0.340E-05
CGA:   8    -0.605216330051E+03   -0.70966E-05   -0.10043E-04 28560   0.534E-04-0.245E-04
   8 F= -.60521633E+03 E0= -.60521633E+03  d E =-.125934E-02  mag=    54.0000
       N       E                     dE             d eps       ncg     rms          ort
SDA:   1    -0.605185820443E+03    0.30503E-01    0.00000E+00 28560   0.901E-01 0.000E+00
CGA:   2    -0.605204578972E+03   -0.18759E-01   -0.18823E-01 28560   0.477E-01 0.505E-03
CGA:   3    -0.605213562560E+03   -0.89836E-02   -0.89662E-02 28560   0.142E-01-0.137E-03
CGA:   4    -0.605215821302E+03   -0.22587E-02   -0.22327E-02 28560   0.338E-02-0.166E-03
CGA:   5    -0.605216356371E+03   -0.53507E-03   -0.53493E-03 28560   0.843E-03-0.145E-05
CGA:   6    -0.605216502211E+03   -0.14584E-03   -0.14893E-03 28560   0.255E-03 0.250E-04
CGA:   7    -0.605216557782E+03   -0.55572E-04   -0.54744E-04 28560   0.888E-04-0.984E-05
CGA:   8    -0.605216584033E+03   -0.26251E-04   -0.27605E-04 28560   0.793E-04-0.393E-04
CGA:   9    -0.605216596602E+03   -0.12569E-04   -0.12155E-04 28560   0.467E-04-0.266E-04
CGA:  10    -0.605216602874E+03   -0.62721E-05   -0.64119E-05 28560   0.213E-04 0.167E-05
   9 F= -.60521660E+03 E0= -.60521660E+03  d E =-.153216E-02  mag=    54.0000
       N       E                     dE             d eps       ncg     rms          ort
SDA:   1    -0.605139222271E+03    0.77374E-01    0.00000E+00 28560   0.219E+00 0.000E+00
CGA:   2    -0.605190185803E+03   -0.50964E-01   -0.50906E-01 28560   0.120E+00-0.128E-02
CGA:   3    -0.605211132662E+03   -0.20947E-01   -0.20993E-01 28560   0.313E-01 0.424E-03
CGA:   4    -0.605215982276E+03   -0.48496E-02   -0.48943E-02 28560   0.709E-02 0.380E-03
CGA:   5    -0.605217137952E+03   -0.11557E-02   -0.11589E-02 28560   0.180E-02 0.295E-04
CGA:   6    -0.605217472469E+03   -0.33452E-03   -0.33391E-03 28560   0.566E-03-0.845E-05
CGA:   7    -0.605217573844E+03   -0.10137E-03   -0.10342E-03 28560   0.163E-03 0.275E-04
CGA:   8    -0.605217608093E+03   -0.34249E-04   -0.35229E-04 28560   0.578E-04 0.206E-04
CGA:   9    -0.605217625499E+03   -0.17406E-04   -0.17340E-04 28560   0.289E-04 0.433E-05
CGA:  10    -0.605217634235E+03   -0.87366E-05   -0.86547E-05 28560   0.144E-04 0.310E-05
  10 F= -.60521763E+03 E0= -.60521763E+03  d E =-.103136E-02  mag=    54.0000
       N       E                     dE             d eps       ncg     rms          ort
SDA:   1    -0.605213077176E+03    0.45483E-02    0.00000E+00 28560   0.131E-01 0.000E+00
CGA:   2    -0.605216185279E+03   -0.31081E-02   -0.31034E-02 28560   0.750E-02-0.378E-03
CGA:   3    -0.605217413851E+03   -0.12286E-02   -0.12379E-02 28560   0.187E-02 0.116E-03
CGA:   4    -0.605217686209E+03   -0.27236E-03   -0.28299E-03 28560   0.405E-03 0.110E-03
CGA:   5    -0.605217754547E+03   -0.68338E-04   -0.69286E-04 28560   0.103E-03 0.119E-04
CGA:   6    -0.605217776164E+03   -0.21617E-04   -0.21510E-04 28560   0.368E-04-0.314E-05
CGA:   7    -0.605217781645E+03   -0.54806E-05   -0.59229E-05 28560   0.105E-04 0.636E-05
  11 F= -.60521778E+03 E0= -.60521778E+03  d E =-.117877E-02  mag=    54.0000
       N       E                     dE             d eps       ncg     rms          ort
SDA:   1    -0.605199197855E+03    0.18578E-01    0.00000E+00 28560   0.523E-01 0.000E+00
CGA:   2    -0.605211425097E+03   -0.12227E-01   -0.12232E-01 28560   0.291E-01-0.796E-03
CGA:   3    -0.605216376202E+03   -0.49511E-02   -0.49654E-02 28560   0.743E-02 0.253E-03
CGA:   4    -0.605217507360E+03   -0.11312E-02   -0.11478E-02 28560   0.170E-02 0.229E-03
CGA:   5    -0.605217789886E+03   -0.28253E-03   -0.28383E-03 28560   0.434E-03 0.215E-04
CGA:   6    -0.605217872989E+03   -0.83102E-04   -0.82915E-04 28560   0.142E-03-0.631E-05
CGA:   7    -0.605217896925E+03   -0.23936E-04   -0.24537E-04 28560   0.394E-04 0.143E-04
CGA:   8    -0.605217904578E+03   -0.76532E-05   -0.79924E-05 28560   0.141E-04 0.109E-04
  12 F= -.60521790E+03 E0= -.60521790E+03  d E =-.130170E-02  mag=    54.0000
       N       E                     dE             d eps       ncg     rms          ort
SDA:   1    -0.605166153783E+03    0.51743E-01    0.00000E+00 28560   0.144E+00 0.000E+00
CGA:   2    -0.605200611052E+03   -0.34457E-01   -0.34474E-01 28560   0.807E-01-0.779E-03
CGA:   3    -0.605214388303E+03   -0.13777E-01   -0.13793E-01 28560   0.197E-01 0.331E-03
CGA:   4    -0.605217478229E+03   -0.30899E-02   -0.31064E-02 28560   0.441E-02 0.285E-03
CGA:   5    -0.605218210781E+03   -0.73255E-03   -0.73428E-03 28560   0.109E-02 0.359E-04
CGA:   6    -0.605218417671E+03   -0.20689E-03   -0.20704E-03 28560   0.330E-03 0.729E-05
CGA:   7    -0.605218477203E+03   -0.59533E-04   -0.60219E-04 28560   0.914E-04 0.256E-04
CGA:   8    -0.605218497337E+03   -0.20133E-04   -0.20164E-04 28560   0.328E-04 0.164E-04
CGA:   9    -0.605218507907E+03   -0.10570E-04   -0.10303E-04 28560   0.173E-04 0.445E-05
CGA:  10    -0.605218513259E+03   -0.53527E-05   -0.51546E-05 28560   0.856E-05 0.374E-05
  13 F= -.60521851E+03 E0= -.60521851E+03  d E =-.608681E-03  mag=    54.0000
       N       E                     dE             d eps       ncg     rms          ort
SDA:   1    -0.605154960884E+03    0.63547E-01    0.00000E+00 28560   0.176E+00 0.000E+00
CGA:   2    -0.605197008096E+03   -0.42047E-01   -0.42069E-01 28560   0.984E-01-0.842E-03
CGA:   3    -0.605213813268E+03   -0.16805E-01   -0.16821E-01 28560   0.241E-01 0.372E-03
CGA:   4    -0.605217587463E+03   -0.37742E-02   -0.37911E-02 28560   0.546E-02 0.313E-03
CGA:   5    -0.605218477888E+03   -0.89042E-03   -0.89228E-03 28560   0.135E-02 0.390E-04
CGA:   6    -0.605218732416E+03   -0.25453E-03   -0.25466E-03 28560   0.406E-03 0.708E-05
CGA:   7    -0.605218806363E+03   -0.73947E-04   -0.74588E-04 28560   0.111E-03 0.294E-04
CGA:   8    -0.605218830984E+03   -0.24621E-04   -0.24561E-04 28560   0.393E-04 0.187E-04
CGA:   9    -0.605218843474E+03   -0.12490E-04   -0.12176E-04 28560   0.203E-04 0.508E-05
CGA:  10    -0.605218849659E+03   -0.61846E-05   -0.59454E-05 28560   0.978E-05 0.447E-05
  14 F= -.60521885E+03 E0= -.60521885E+03  d E =-.945080E-03  mag=    54.0000
       N       E                     dE             d eps       ncg     rms          ort
SDA:   1    -0.605176798663E+03    0.42045E-01    0.00000E+00 28560   0.131E+00 0.000E+00
CGA:   2    -0.605202275024E+03   -0.25476E-01   -0.25490E-01 28560   0.672E-01 0.952E-03
CGA:   3    -0.605215377716E+03   -0.13103E-01   -0.13103E-01 28560   0.201E-01-0.593E-05
CGA:   4    -0.605218547510E+03   -0.31698E-02   -0.31625E-02 28560   0.484E-02-0.150E-03
CGA:   5    -0.605219317893E+03   -0.77038E-03   -0.77046E-03 28560   0.120E-02 0.881E-06
CGA:   6    -0.605219531921E+03   -0.21403E-03   -0.21497E-03 28560   0.356E-03 0.416E-04
CGA:   7    -0.605219605441E+03   -0.73520E-04   -0.73528E-04 28560   0.110E-03 0.655E-05
CGA:   8    -0.605219635523E+03   -0.30082E-04   -0.33194E-04 28560   0.745E-04-0.324E-04
CGA:   9    -0.605219648716E+03   -0.13192E-04   -0.15040E-04 28560   0.424E-04-0.229E-04
CGA:  10    -0.605219655198E+03   -0.64825E-05   -0.64757E-05 28560   0.164E-04 0.628E-06
  15 F= -.60521966E+03 E0= -.60521966E+03  d E =-.805539E-03  mag=    54.0000
       N       E                     dE             d eps       ncg     rms          ort
SDA:   1    -0.605201777757E+03    0.17871E-01    0.00000E+00 28560   0.551E-01 0.000E+00
CGA:   2    -0.605212504844E+03   -0.10727E-01   -0.10736E-01 28560   0.283E-01 0.574E-03
CGA:   3    -0.605218032530E+03   -0.55277E-02   -0.55275E-02 28560   0.849E-02-0.177E-04
CGA:   4    -0.605219372111E+03   -0.13396E-02   -0.13348E-02 28560   0.204E-02-0.949E-04
CGA:   5    -0.605219695608E+03   -0.32350E-03   -0.32356E-03 28560   0.490E-03 0.112E-05
CGA:   6    -0.605219783705E+03   -0.88097E-04   -0.88690E-04 28560   0.139E-03 0.263E-04
CGA:   7    -0.605219814112E+03   -0.30407E-04   -0.30393E-04 28560   0.433E-04 0.299E-05
CGA:   8    -0.605219826075E+03   -0.11963E-04   -0.17128E-04 28560   0.555E-04-0.279E-04
CGA:   9    -0.605219833784E+03   -0.77084E-05   -0.78666E-05 28560   0.793E-05 0.225E-05
  16 F= -.60521983E+03 E0= -.60521983E+03  d E =-.984125E-03  mag=    54.0000
       N       E                     dE             d eps       ncg     rms          ort
SDA:   1    -0.605146839058E+03    0.72987E-01    0.00000E+00 28560   0.221E+00 0.000E+00
CGA:   2    -0.605189962396E+03   -0.43123E-01   -0.43144E-01 28560   0.114E+00 0.130E-02
CGA:   3    -0.605212091966E+03   -0.22130E-01   -0.22129E-01 28560   0.339E-01-0.389E-04
CGA:   4    -0.605217444604E+03   -0.53526E-02   -0.53420E-02 28560   0.812E-02-0.215E-03
CGA:   5    -0.605218744998E+03   -0.13004E-02   -0.13004E-02 28560   0.202E-02-0.609E-06
CGA:   6    -0.605219108309E+03   -0.36331E-03   -0.36461E-03 28560   0.607E-03 0.551E-04
CGA:   7    -0.605219231640E+03   -0.12333E-03   -0.12338E-03 28560   0.188E-03 0.902E-05
CGA:   8    -0.605219280734E+03   -0.49094E-04   -0.51682E-04 28560   0.105E-03-0.377E-04
CGA:   9    -0.605219302662E+03   -0.21928E-04   -0.24258E-04 28560   0.590E-04-0.284E-04
CGA:  10    -0.605219312699E+03   -0.10037E-04   -0.10053E-04 28560   0.214E-04-0.680E-06
CGA:  11    -0.605219317238E+03   -0.45393E-05   -0.45289E-05 28560   0.818E-05 0.410E-05
  17 F= -.60521932E+03 E0= -.60521932E+03  d E =-.467580E-03  mag=    54.0000
       N       E                     dE             d eps       ncg     rms          ort
SDA:   1    -0.605170192891E+03    0.49120E-01    0.00000E+00 28560   0.150E+00 0.000E+00
CGA:   2    -0.605199893827E+03   -0.29701E-01   -0.29690E-01 28560   0.792E-01-0.698E-03
CGA:   3    -0.605214952790E+03   -0.15059E-01   -0.15062E-01 28560   0.232E-01 0.851E-04
CGA:   4    -0.605218554205E+03   -0.36014E-02   -0.36095E-02 28560   0.543E-02 0.136E-03
CGA:   5    -0.605219445615E+03   -0.89141E-03   -0.89095E-03 28560   0.137E-02-0.109E-04
CGA:   6    -0.605219709884E+03   -0.26427E-03   -0.26360E-03 28560   0.443E-03-0.454E-04
CGA:   7    -0.605219793470E+03   -0.83586E-04   -0.83567E-04 28560   0.127E-03-0.181E-05
CGA:   8    -0.605219816041E+03   -0.22571E-04   -0.23131E-04 28560   0.366E-04 0.241E-04
CGA:   9    -0.605219822939E+03   -0.68974E-05   -0.74481E-05 28560   0.135E-04 0.161E-04
  18 F= -.60521982E+03 E0= -.60521982E+03  d E =-.973280E-03  mag=    54.0000
       N       E                     dE             d eps       ncg     rms          ort
SDA:   1    -0.605218938309E+03    0.87773E-03    0.00000E+00 28560   0.269E-02 0.000E+00
CGA:   2    -0.605219487698E+03   -0.54939E-03   -0.54969E-03 28560   0.153E-02-0.128E-03
CGA:   3    -0.605219753370E+03   -0.26567E-03   -0.26585E-03 28560   0.433E-03 0.890E-05
CGA:   4    -0.605219815036E+03   -0.61666E-04   -0.63160E-04 28560   0.954E-04 0.265E-04
CGA:   5    -0.605219831312E+03   -0.16276E-04   -0.16320E-04 28560   0.293E-04 0.117E-05
CGA:   6    -0.605219837754E+03   -0.64415E-05   -0.66308E-05 28560   0.159E-04-0.700E-05
  19 F= -.60521984E+03 E0= -.60521984E+03  d E =-.988095E-03  mag=    54.0000
       N       E                     dE             d eps       ncg     rms          ort
SDA:   1    -0.605177048283E+03    0.42783E-01    0.00000E+00 28560   0.123E+00 0.000E+00
CGA:   2    -0.605204212752E+03   -0.27164E-01   -0.27153E-01 28560   0.689E-01 0.421E-03
CGA:   3    -0.605216686457E+03   -0.12474E-01   -0.12474E-01 28560   0.179E-01-0.250E-04
CGA:   4    -0.605219467266E+03   -0.27808E-02   -0.27824E-02 28560   0.408E-02 0.369E-04
CGA:   5    -0.605220117909E+03   -0.65064E-03   -0.65314E-03 28560   0.992E-03 0.694E-04
CGA:   6    -0.605220300936E+03   -0.18303E-03   -0.18343E-03 28560   0.294E-03 0.334E-04
CGA:   7    -0.605220363108E+03   -0.62172E-04   -0.62284E-04 28560   0.953E-04-0.958E-05
CGA:   8    -0.605220387032E+03   -0.23923E-04   -0.27223E-04 28560   0.668E-04-0.325E-04
CGA:   9    -0.605220397507E+03   -0.10476E-04   -0.11597E-04 28560   0.333E-04-0.174E-04
CGA:  10    -0.605220402579E+03   -0.50718E-05   -0.50628E-05 28560   0.124E-04 0.278E-05
  20 F= -.60522040E+03 E0= -.60522040E+03  d E =-.564825E-03  mag=    54.0000
       N       E                     dE             d eps       ncg     rms          ort
SDA:   1    -0.605205070737E+03    0.15327E-01    0.00000E+00 28560   0.438E-01 0.000E+00
CGA:   2    -0.605214749401E+03   -0.96787E-02   -0.96740E-02 28560   0.245E-01 0.214E-03
CGA:   3    -0.605219184390E+03   -0.44350E-02   -0.44347E-02 28560   0.634E-02-0.189E-04
CGA:   4    -0.605220170311E+03   -0.98592E-03   -0.98701E-03 28560   0.145E-02 0.238E-04
CGA:   5    -0.605220397763E+03   -0.22745E-03   -0.22905E-03 28560   0.345E-03 0.391E-04
CGA:   6    -0.605220462505E+03   -0.64742E-04   -0.64976E-04 28560   0.102E-03 0.178E-04
CGA:   7    -0.605220485741E+03   -0.23236E-04   -0.23408E-04 28560   0.374E-04-0.739E-05
CGA:   8    -0.605220494168E+03   -0.84273E-05   -0.12995E-04 28560   0.517E-04-0.257E-04
  21 F= -.60522049E+03 E0= -.60522049E+03  d E =-.656415E-03  mag=    54.0000
       N       E                     dE             d eps       ncg     rms          ort
SDA:   1    -0.605185538596E+03    0.34947E-01    0.00000E+00 28560   0.100E+00 0.000E+00
CGA:   2    -0.605208073724E+03   -0.22535E-01   -0.22559E-01 28560   0.578E-01-0.106E-02
CGA:   3    -0.605217987984E+03   -0.99143E-02   -0.99214E-02 28560   0.148E-01 0.226E-03
CGA:   4    -0.605220238015E+03   -0.22500E-02   -0.22654E-02 28560   0.335E-02 0.314E-03
CGA:   5    -0.605220794298E+03   -0.55628E-03   -0.55760E-03 28560   0.873E-03 0.359E-04
CGA:   6    -0.605220956434E+03   -0.16214E-03   -0.16181E-03 28560   0.285E-03-0.232E-04
CGA:   7    -0.605221007309E+03   -0.50876E-04   -0.50957E-04 28560   0.817E-04 0.609E-05
CGA:   8    -0.605221023383E+03   -0.16074E-04   -0.16110E-04 28560   0.255E-04 0.115E-04
CGA:   9    -0.605221030880E+03   -0.74968E-05   -0.73521E-05 28560   0.117E-04 0.253E-05
  22 F= -.60522103E+03 E0= -.60522103E+03  d E =-.536712E-03  mag=    54.0000
       N       E                     dE             d eps       ncg     rms          ort
SDA:   1    -0.605215374126E+03    0.56493E-02    0.00000E+00 28560   0.162E-01 0.000E+00
CGA:   2    -0.605219064591E+03   -0.36905E-02   -0.36999E-02 28560   0.970E-02-0.438E-03
CGA:   3    -0.605220657712E+03   -0.15931E-02   -0.15965E-02 28560   0.250E-02 0.848E-04
CGA:   4    -0.605221014226E+03   -0.35651E-03   -0.36433E-03 28560   0.575E-03 0.127E-03
CGA:   5    -0.605221104382E+03   -0.90156E-04   -0.91185E-04 28560   0.151E-03 0.197E-04
CGA:   6    -0.605221134986E+03   -0.30604E-04   -0.30547E-04 28560   0.538E-04-0.110E-04
CGA:   7    -0.605221144049E+03   -0.90630E-05   -0.91005E-05 28560   0.152E-04 0.213E-05
  23 F= -.60522114E+03 E0= -.60522114E+03  d E =-.649881E-03  mag=    54.0000
       N       E                     dE             d eps       ncg     rms          ort
SDA:   1    -0.605198211569E+03    0.22923E-01    0.00000E+00 28560   0.648E-01 0.000E+00
CGA:   2    -0.605212827988E+03   -0.14616E-01   -0.14641E-01 28560   0.375E-01-0.877E-03
CGA:   3    -0.605219229235E+03   -0.64012E-02   -0.64061E-02 28560   0.954E-02 0.178E-03
CGA:   4    -0.605220680758E+03   -0.14515E-02   -0.14631E-02 28560   0.218E-02 0.256E-03
CGA:   5    -0.605221046454E+03   -0.36570E-03   -0.36663E-03 28560   0.551E-03 0.293E-04
CGA:   6    -0.605221152927E+03   -0.10647E-03   -0.10640E-03 28560   0.180E-03-0.206E-04
CGA:   7    -0.605221185015E+03   -0.32089E-04   -0.32141E-04 28560   0.509E-04 0.592E-05
CGA:   8    -0.605221194972E+03   -0.99567E-05   -0.99867E-05 28560   0.159E-04 0.895E-05
  24 F= -.60522119E+03 E0= -.60522119E+03  d E =-.700804E-03  mag=    54.0000
       N       E                     dE             d eps       ncg     rms          ort
SDA:   1    -0.605195313468E+03    0.25872E-01    0.00000E+00 28560   0.704E-01 0.000E+00
CGA:   2    -0.605212727025E+03   -0.17414E-01   -0.17450E-01 28560   0.416E-01-0.743E-03
CGA:   3    -0.605219549075E+03   -0.68220E-02   -0.68308E-02 28560   0.937E-02 0.251E-03
CGA:   4    -0.605220995305E+03   -0.14462E-02   -0.14552E-02 28560   0.203E-02 0.207E-03
CGA:   5    -0.605221346986E+03   -0.35168E-03   -0.35189E-03 28560   0.518E-03 0.781E-05
CGA:   6    -0.605221447658E+03   -0.10067E-03   -0.10066E-03 28560   0.163E-03-0.191E-04
CGA:   7    -0.605221476387E+03   -0.28729E-04   -0.28759E-04 28560   0.455E-04 0.280E-05
CGA:   8    -0.605221486038E+03   -0.96509E-05   -0.95947E-05 28560   0.156E-04 0.411E-05
  25 F= -.60522149E+03 E0= -.60522149E+03  d E =-.291066E-03  mag=    54.0000
       N       E                     dE             d eps       ncg     rms          ort
SDA:   1    -0.605143723795E+03    0.77753E-01    0.00000E+00 28560   0.210E+00 0.000E+00
CGA:   2    -0.605195461345E+03   -0.51738E-01   -0.51789E-01 28560   0.123E+00-0.117E-02
CGA:   3    -0.605215856965E+03   -0.20396E-01   -0.20412E-01 28560   0.279E-01 0.428E-03
CGA:   4    -0.605220209057E+03   -0.43521E-02   -0.43670E-02 28560   0.613E-02 0.333E-03
CGA:   5    -0.605221244525E+03   -0.10355E-02   -0.10358E-02 28560   0.158E-02 0.979E-05
CGA:   6    -0.605221538339E+03   -0.29381E-03   -0.29348E-03 28560   0.488E-03-0.298E-04
CGA:   7    -0.605221625702E+03   -0.87363E-04   -0.87443E-04 28560   0.137E-03 0.577E-05
CGA:   8    -0.605221655023E+03   -0.29321E-04   -0.29195E-04 28560   0.469E-04 0.826E-05
CGA:   9    -0.605221668953E+03   -0.13930E-04   -0.13994E-04 28560   0.238E-04-0.777E-06
CGA:  10    -0.605221676259E+03   -0.73060E-05   -0.75387E-05 28560   0.133E-04-0.193E-05
  26 F= -.60522168E+03 E0= -.60522168E+03  d E =-.481286E-03  mag=    54.0000
       N       E                     dE             d eps       ncg     rms          ort
SDA:   1    -0.605177379713E+03    0.44289E-01    0.00000E+00 28560   0.122E+00 0.000E+00
CGA:   2    -0.605206423019E+03   -0.29043E-01   -0.29045E-01 28560   0.735E-01-0.119E-03
CGA:   3    -0.605218803538E+03   -0.12381E-01   -0.12386E-01 28560   0.166E-01 0.105E-03
CGA:   4    -0.605221392866E+03   -0.25893E-02   -0.25933E-02 28560   0.373E-02 0.758E-04
CGA:   5    -0.605222012265E+03   -0.61940E-03   -0.61965E-03 28560   0.936E-03 0.571E-05
CGA:   6    -0.605222189944E+03   -0.17768E-03   -0.17750E-03 28560   0.279E-03-0.139E-04
CGA:   7    -0.605222244293E+03   -0.54349E-04   -0.54310E-04 28560   0.845E-04-0.856E-05
CGA:   8    -0.605222263837E+03   -0.19545E-04   -0.19813E-04 28560   0.362E-04-0.671E-05
CGA:   9    -0.605222273330E+03   -0.94923E-05   -0.10259E-04 28560   0.221E-04-0.737E-05
  27 F= -.60522227E+03 E0= -.60522227E+03  d E =-.597071E-03  mag=    54.0000
       N       E                     dE             d eps       ncg     rms          ort
SDA:   1    -0.605212211931E+03    0.10052E-01    0.00000E+00 28560   0.280E-01 0.000E+00
CGA:   2    -0.605218858063E+03   -0.66461E-02   -0.66476E-02 28560   0.169E-01-0.777E-04
CGA:   3    -0.605221675552E+03   -0.28175E-02   -0.28201E-02 28560   0.388E-02 0.467E-04
CGA:   4    -0.605222265348E+03   -0.58980E-03   -0.59215E-03 28560   0.900E-03 0.373E-04
CGA:   5    -0.605222406525E+03   -0.14118E-03   -0.14134E-03 28560   0.237E-03 0.280E-05
CGA:   6    -0.605222450941E+03   -0.44416E-04   -0.44236E-04 28560   0.767E-04-0.800E-05
CGA:   7    -0.605222465525E+03   -0.14584E-04   -0.14526E-04 28560   0.246E-04-0.514E-05
CGA:   8    -0.605222471058E+03   -0.55331E-05   -0.56896E-05 28560   0.117E-04-0.376E-05
  28 F= -.60522247E+03 E0= -.60522247E+03  d E =-.794800E-03  mag=    54.0000
       N       E                     dE             d eps       ncg     rms          ort
SDA:   1    -0.605181659322E+03    0.40806E-01    0.00000E+00 28560   0.112E+00 0.000E+00
CGA:   2    -0.605208165062E+03   -0.26506E-01   -0.26507E-01 28560   0.671E-01-0.100E-03
CGA:   3    -0.605219481156E+03   -0.11316E-01   -0.11321E-01 28560   0.151E-01 0.827E-04
CGA:   4    -0.605221846695E+03   -0.23655E-02   -0.23695E-02 28560   0.331E-02 0.652E-04
CGA:   5    -0.605222403886E+03   -0.55719E-03   -0.55742E-03 28560   0.860E-03 0.440E-05
CGA:   6    -0.605222563127E+03   -0.15924E-03   -0.15893E-03 28560   0.267E-03-0.124E-04
CGA:   7    -0.605222612681E+03   -0.49554E-04   -0.49395E-04 28560   0.817E-04-0.767E-05
CGA:   8    -0.605222630995E+03   -0.18315E-04   -0.18463E-04 28560   0.337E-04-0.600E-05
CGA:   9    -0.605222639914E+03   -0.89186E-05   -0.95247E-05 28560   0.196E-04-0.635E-05
  29 F= -.60522264E+03 E0= -.60522264E+03  d E =-.963655E-03  mag=    54.0000
       N       E                     dE             d eps       ncg     rms          ort
SDA:   1    -0.605169279367E+03    0.53352E-01    0.00000E+00 28560   0.150E+00 0.000E+00
CGA:   2    -0.605203768187E+03   -0.34489E-01   -0.34489E-01 28560   0.875E-01-0.848E-04
CGA:   3    -0.605218760480E+03   -0.14992E-01   -0.15004E-01 28560   0.213E-01 0.206E-03
CGA:   4    -0.605222072493E+03   -0.33120E-02   -0.33169E-02 28560   0.494E-02 0.768E-04
CGA:   5    -0.605222883545E+03   -0.81105E-03   -0.80958E-03 28560   0.129E-02-0.294E-04
CGA:   6    -0.605223122009E+03   -0.23846E-03   -0.23769E-03 28560   0.396E-03-0.287E-04
CGA:   7    -0.605223193421E+03   -0.71412E-04   -0.71664E-04 28560   0.113E-03 0.955E-05
CGA:   8    -0.605223216163E+03   -0.22742E-04   -0.22921E-04 28560   0.367E-04 0.157E-04
CGA:   9    -0.605223227124E+03   -0.10962E-04   -0.10778E-04 28560   0.175E-04 0.378E-05
CGA:  10    -0.605223233826E+03   -0.67018E-05   -0.82851E-05 28560   0.196E-04-0.732E-05
  30 F= -.60522323E+03 E0= -.60522323E+03  d E =-.593912E-03  mag=    54.0000
       N       E                     dE             d eps       ncg     rms          ort
SDA:   1    -0.605222559599E+03    0.66752E-03    0.00000E+00 28560   0.197E-02 0.000E+00
CGA:   2    -0.605223015371E+03   -0.45577E-03   -0.45595E-03 28560   0.117E-02-0.165E-04
CGA:   3    -0.605223208072E+03   -0.19270E-03   -0.19396E-03 28560   0.282E-03 0.230E-04
CGA:   4    -0.605223250837E+03   -0.42765E-04   -0.43414E-04 28560   0.663E-04 0.956E-05
CGA:   5    -0.605223261893E+03   -0.11056E-04   -0.10873E-04 28560   0.177E-04-0.325E-05
CGA:   6    -0.605223265934E+03   -0.40415E-05   -0.42933E-05 28560   0.110E-04-0.587E-05
  31 F= -.60522327E+03 E0= -.60522327E+03  d E =-.626020E-03  mag=    54.0000
       N       E                     dE             d eps       ncg     rms          ort
SDA:   1    -0.605220500298E+03    0.27616E-02    0.00000E+00 28560   0.783E-02 0.000E+00
CGA:   2    -0.605222302129E+03   -0.18018E-02   -0.18024E-02 28560   0.458E-02-0.342E-04
CGA:   3    -0.605223064696E+03   -0.76257E-03   -0.76462E-03 28560   0.107E-02 0.452E-04
CGA:   4    -0.605223235451E+03   -0.17076E-03   -0.17178E-03 28560   0.250E-03 0.201E-04
CGA:   5    -0.605223279333E+03   -0.43882E-04   -0.43623E-04 28560   0.695E-04-0.721E-05
CGA:   6    -0.605223292617E+03   -0.13284E-04   -0.13212E-04 28560   0.252E-04-0.732E-05
CGA:   7    -0.605223296152E+03   -0.35355E-05   -0.36246E-05 28560   0.648E-05 0.200E-05
  32 F= -.60522330E+03 E0= -.60522330E+03  d E =-.656238E-03  mag=    54.0000
       N       E                     dE             d eps       ncg     rms          ort
SDA:   1    -0.605212055871E+03    0.11237E-01    0.00000E+00 28560   0.313E-01 0.000E+00
CGA:   2    -0.605219227817E+03   -0.71719E-02   -0.71735E-02 28560   0.182E-01-0.640E-04
CGA:   3    -0.605222325446E+03   -0.30976E-02   -0.31007E-02 28560   0.439E-02 0.944E-04
CGA:   4    -0.605223008076E+03   -0.68263E-03   -0.68441E-03 28560   0.104E-02 0.397E-04
CGA:   5    -0.605223182488E+03   -0.17441E-03   -0.17400E-03 28560   0.276E-03-0.132E-04
CGA:   6    -0.605223234154E+03   -0.51667E-04   -0.51576E-04 28560   0.889E-04-0.147E-04
CGA:   7    -0.605223248966E+03   -0.14811E-04   -0.14891E-04 28560   0.240E-04 0.430E-05
CGA:   8    -0.605223253145E+03   -0.41790E-05   -0.43286E-05 28560   0.757E-05 0.668E-05
  33 F= -.60522325E+03 E0= -.60522325E+03  d E =-.613231E-03  mag=    54.0000
       N       E                     dE             d eps       ncg     rms          ort
SDA:   1    -0.605191539655E+03    0.31709E-01    0.00000E+00 28560   0.847E-01 0.000E+00
CGA:   2    -0.605213550562E+03   -0.22011E-01   -0.22040E-01 28560   0.481E-01-0.469E-03
CGA:   3    -0.605221306679E+03   -0.77561E-02   -0.77673E-02 28560   0.107E-01 0.306E-03
CGA:   4    -0.605222993838E+03   -0.16872E-02   -0.16925E-02 28560   0.239E-02 0.138E-03
CGA:   5    -0.605223410791E+03   -0.41695E-03   -0.41597E-03 28560   0.642E-03-0.453E-04
CGA:   6    -0.605223532040E+03   -0.12125E-03   -0.12123E-03 28560   0.197E-03-0.401E-04
CGA:   7    -0.605223563424E+03   -0.31383E-04   -0.31653E-04 28560   0.505E-04 0.127E-04
CGA:   8    -0.605223572004E+03   -0.85808E-05   -0.89644E-05 28560   0.160E-04 0.154E-04
  34 F= -.60522357E+03 E0= -.60522357E+03  d E =-.318860E-03  mag=    54.0000
       N       E                     dE             d eps       ncg     rms          ort
SDA:   1    -0.604938674798E+03    0.28489E+00    0.00000E+00 28560   0.754E+00 0.000E+00
CGA:   2    -0.605133998997E+03   -0.19532E+00   -0.19539E+00 28560   0.424E+00-0.109E-02
CGA:   3    -0.605203346140E+03   -0.69347E-01   -0.69378E-01 28560   0.957E-01 0.909E-03
CGA:   4    -0.605218500349E+03   -0.15154E-01   -0.15167E-01 28560   0.215E-01 0.358E-03
CGA:   5    -0.605222137723E+03   -0.36374E-02   -0.36342E-02 28560   0.559E-02-0.143E-03
CGA:   6    -0.605223170636E+03   -0.10329E-02   -0.10325E-02 28560   0.160E-02-0.113E-03
CGA:   7    -0.605223459149E+03   -0.28851E-03   -0.28875E-03 28560   0.445E-03 0.433E-04
CGA:   8    -0.605223552190E+03   -0.93041E-04   -0.92328E-04 28560   0.146E-03 0.559E-04
CGA:   9    -0.605223596554E+03   -0.44364E-04   -0.43322E-04 28560   0.724E-04 0.141E-04
CGA:  10    -0.605223623559E+03   -0.27005E-04   -0.28840E-04 28560   0.534E-04-0.109E-04
CGA:  11    -0.605223634535E+03   -0.10976E-04   -0.10824E-04 28560   0.216E-04 0.415E-05
CGA:  12    -0.605223639004E+03   -0.44690E-05   -0.45292E-05 28560   0.887E-05 0.655E-05
  35 F= -.60522364E+03 E0= -.60522364E+03  d E =-.385859E-03  mag=    54.0000
       N       E                     dE             d eps       ncg     rms          ort
SDA:   1    -0.605163065400E+03    0.60569E-01    0.00000E+00 28560   0.161E+00 0.000E+00
CGA:   2    -0.605204502328E+03   -0.41437E-01   -0.41396E-01 28560   0.895E-01 0.757E-03
CGA:   3    -0.605219431543E+03   -0.14929E-01   -0.14913E-01 28560   0.206E-01-0.389E-03
CGA:   4    -0.605222717080E+03   -0.32855E-02   -0.32770E-02 28560   0.471E-02-0.184E-03
CGA:   5    -0.605223471738E+03   -0.75466E-03   -0.75711E-03 28560   0.115E-02 0.578E-04
CGA:   6    -0.605223677374E+03   -0.20564E-03   -0.20698E-03 28560   0.297E-03 0.552E-04
CGA:   7    -0.605223741655E+03   -0.64280E-04   -0.64358E-04 28560   0.982E-04-0.126E-04
CGA:   8    -0.605223765500E+03   -0.23845E-04   -0.25656E-04 28560   0.568E-04-0.253E-04
CGA:   9    -0.605223774490E+03   -0.89899E-05   -0.89996E-05 28560   0.207E-04-0.114E-05
  36 F= -.60522377E+03 E0= -.60522377E+03  d E =-.521345E-03  mag=    54.0000
       N       E                     dE             d eps       ncg     rms          ort
SDA:   1    -0.605195301785E+03    0.28464E-01    0.00000E+00 28560   0.769E-01 0.000E+00
CGA:   2    -0.605215370080E+03   -0.20068E-01   -0.20110E-01 28560   0.431E-01-0.746E-03
CGA:   3    -0.605222327684E+03   -0.69576E-02   -0.69691E-02 28560   0.978E-02 0.252E-03
CGA:   4    -0.605223830657E+03   -0.15030E-02   -0.15105E-02 28560   0.223E-02 0.146E-03
CGA:   5    -0.605224214467E+03   -0.38381E-03   -0.38271E-03 28560   0.598E-03-0.337E-04
CGA:   6    -0.605224326540E+03   -0.11207E-03   -0.11159E-03 28560   0.189E-03-0.438E-04
CGA:   7    -0.605224358542E+03   -0.32002E-04   -0.31942E-04 28560   0.522E-04-0.352E-05
CGA:   8    -0.605224367537E+03   -0.89954E-05   -0.91715E-05 28560   0.146E-04 0.871E-05
  37 F= -.60522437E+03 E0= -.60522437E+03  d E =-.593047E-03  mag=    54.0000
       N       E                     dE             d eps       ncg     rms          ort
SDA:   1    -0.605040937863E+03    0.18342E+00    0.00000E+00 28560   0.487E+00 0.000E+00
CGA:   2    -0.605167426062E+03   -0.12649E+00   -0.12659E+00 28560   0.269E+00-0.170E-02
CGA:   3    -0.605211636545E+03   -0.44210E-01   -0.44233E-01 28560   0.617E-01 0.542E-03
CGA:   4    -0.605221179498E+03   -0.95430E-02   -0.95573E-02 28560   0.141E-01 0.321E-03
CGA:   5    -0.605223563921E+03   -0.23844E-02   -0.23820E-02 28560   0.367E-02-0.882E-04
CGA:   6    -0.605224242971E+03   -0.67905E-03   -0.67806E-03 28560   0.107E-02-0.105E-03
CGA:   7    -0.605224440948E+03   -0.19798E-03   -0.19795E-03 28560   0.311E-03-0.642E-05
CGA:   8    -0.605224504971E+03   -0.64023E-04   -0.63743E-04 28560   0.103E-03 0.246E-04
CGA:   9    -0.605224532537E+03   -0.27566E-04   -0.26932E-04 28560   0.434E-04 0.131E-04
CGA:  10    -0.605224548966E+03   -0.16429E-04   -0.16971E-04 28560   0.290E-04-0.365E-05
CGA:  11    -0.605224556976E+03   -0.80096E-05   -0.83363E-05 28560   0.145E-04-0.302E-05
  38 F= -.60522456E+03 E0= -.60522456E+03  d E =-.782486E-03  mag=    54.0000
       N       E                     dE             d eps       ncg     rms          ort
SDA:   1    -0.605186867215E+03    0.37682E-01    0.00000E+00 28560   0.101E+00 0.000E+00
CGA:   2    -0.605212772964E+03   -0.25906E-01   -0.25864E-01 28560   0.544E-01 0.915E-03
CGA:   3    -0.605222020049E+03   -0.92471E-02   -0.92353E-02 28560   0.129E-01-0.264E-03
CGA:   4    -0.605224035719E+03   -0.20157E-02   -0.20069E-02 28560   0.303E-02-0.154E-03
CGA:   5    -0.605224517260E+03   -0.48154E-03   -0.48322E-03 28560   0.751E-03 0.342E-04
CGA:   6    -0.605224647442E+03   -0.13018E-03   -0.13171E-03 28560   0.188E-03 0.451E-04
CGA:   7    -0.605224686562E+03   -0.39121E-04   -0.39179E-04 28560   0.544E-04 0.692E-05
CGA:   8    -0.605224701310E+03   -0.14748E-04   -0.15403E-04 28560   0.288E-04-0.969E-05
CGA:   9    -0.605224707291E+03   -0.59804E-05   -0.61796E-05 28560   0.130E-04-0.378E-05
  39 F= -.60522471E+03 E0= -.60522471E+03  d E =-.932801E-03  mag=    54.0000
       N       E                     dE             d eps       ncg     rms          ort
SDA:   1    -0.605184747608E+03    0.39954E-01    0.00000E+00 28560   0.106E+00 0.000E+00
CGA:   2    -0.605212787797E+03   -0.28040E-01   -0.28050E-01 28560   0.579E-01-0.184E-03
CGA:   3    -0.605222314136E+03   -0.95263E-02   -0.95240E-02 28560   0.137E-01-0.447E-04
CGA:   4    -0.605224384139E+03   -0.20700E-02   -0.20686E-02 28560   0.326E-02-0.215E-04
CGA:   5    -0.605224928003E+03   -0.54386E-03   -0.54224E-03 28560   0.839E-03-0.389E-04
CGA:   6    -0.605225083596E+03   -0.15559E-03   -0.15492E-03 28560   0.251E-03-0.344E-04
CGA:   7    -0.605225131138E+03   -0.47541E-04   -0.47402E-04 28560   0.779E-04-0.159E-04
CGA:   8    -0.605225147018E+03   -0.15880E-04   -0.15899E-04 28560   0.269E-04-0.148E-05
CGA:   9    -0.605225153484E+03   -0.64659E-05   -0.64271E-05 28560   0.105E-04 0.102E-05
  40 F= -.60522515E+03 E0= -.60522515E+03  d E =-.446193E-03  mag=    54.0000
       N       E                     dE             d eps       ncg     rms          ort
SDA:   1    -0.605223017109E+03    0.21299E-02    0.00000E+00 28560   0.565E-02 0.000E+00
CGA:   2    -0.605224518055E+03   -0.15009E-02   -0.15033E-02 28560   0.319E-02-0.490E-04
CGA:   3    -0.605225027160E+03   -0.50910E-03   -0.50848E-03 28560   0.818E-03-0.103E-04
CGA:   4    -0.605225142408E+03   -0.11525E-03   -0.11498E-03 28560   0.210E-03-0.346E-05
CGA:   5    -0.605225175343E+03   -0.32935E-04   -0.32456E-04 28560   0.532E-04-0.816E-05
CGA:   6    -0.605225186756E+03   -0.11413E-04   -0.11571E-04 28560   0.223E-04-0.105E-04
CGA:   7    -0.605225190579E+03   -0.38231E-05   -0.38388E-05 28560   0.982E-05-0.526E-05
  41 F= -.60522519E+03 E0= -.60522519E+03  d E =-.483288E-03  mag=    54.0000
       N       E                     dE             d eps       ncg     rms          ort
SDA:   1    -0.605216555264E+03    0.86315E-02    0.00000E+00 28560   0.225E-01 0.000E+00
CGA:   2    -0.605222544254E+03   -0.59890E-02   -0.59941E-02 28560   0.124E-01-0.954E-04
CGA:   3    -0.605224567997E+03   -0.20237E-02   -0.20229E-02 28560   0.291E-02-0.167E-04
CGA:   4    -0.605224999522E+03   -0.43153E-03   -0.43102E-03 28560   0.728E-03-0.770E-05
CGA:   5    -0.605225119689E+03   -0.12017E-03   -0.11942E-03 28560   0.196E-03-0.170E-04
CGA:   6    -0.605225156156E+03   -0.36467E-04   -0.36168E-04 28560   0.658E-04-0.170E-04
CGA:   7    -0.605225168280E+03   -0.12124E-04   -0.12083E-04 28560   0.232E-04-0.901E-05
CGA:   8    -0.605225172570E+03   -0.42904E-05   -0.43018E-05 28560   0.806E-05-0.113E-05
  42 F= -.60522517E+03 E0= -.60522517E+03  d E =-.465280E-03  mag=    54.0000
       N       E                     dE             d eps       ncg     rms          ort
SDA:   1    -0.605222890730E+03    0.22775E-02    0.00000E+00 28560   0.608E-02 0.000E+00
CGA:   2    -0.605224496728E+03   -0.16060E-02   -0.16027E-02 28560   0.327E-02 0.573E-04
CGA:   3    -0.605225043973E+03   -0.54725E-03   -0.54759E-03 28560   0.793E-03 0.795E-05
CGA:   4    -0.605225161948E+03   -0.11797E-03   -0.11821E-03 28560   0.197E-03 0.402E-05
CGA:   5    -0.605225191456E+03   -0.29509E-04   -0.29939E-04 28560   0.450E-04 0.800E-05
CGA:   6    -0.605225198687E+03   -0.72305E-05   -0.75265E-05 28560   0.109E-04 0.715E-05
  43 F= -.60522520E+03 E0= -.60522520E+03  d E =-.491396E-03  mag=    54.0000
       N       E                     dE             d eps       ncg     rms          ort
SDA:   1    -0.605188828536E+03    0.36363E-01    0.00000E+00 28560   0.942E-01 0.000E+00
CGA:   2    -0.605215318782E+03   -0.26490E-01   -0.26443E-01 28560   0.477E-01 0.559E-03
CGA:   3    -0.605223247144E+03   -0.79284E-02   -0.79237E-02 28560   0.111E-01-0.130E-03
CGA:   4    -0.605224938186E+03   -0.16910E-02   -0.16879E-02 28560   0.257E-02-0.677E-04
CGA:   5    -0.605225361019E+03   -0.42283E-03   -0.42247E-03 28560   0.670E-03-0.117E-04
CGA:   6    -0.605225483475E+03   -0.12246E-03   -0.12220E-03 28560   0.191E-03-0.204E-04
CGA:   7    -0.605225520646E+03   -0.37171E-04   -0.37276E-04 28560   0.625E-04-0.164E-04
CGA:   8    -0.605225533339E+03   -0.12693E-04   -0.12793E-04 28560   0.231E-04-0.357E-05
CGA:   9    -0.605225538898E+03   -0.55591E-05   -0.55369E-05 28560   0.986E-05 0.382E-06
  44 F= -.60522554E+03 E0= -.60522554E+03  d E =-.340212E-03  mag=    54.0000
       N       E                     dE             d eps       ncg     rms          ort
SDA:   1    -0.605129902059E+03    0.95631E-01    0.00000E+00 28560   0.246E+00 0.000E+00
CGA:   2    -0.605199091970E+03   -0.69190E-01   -0.69121E-01 28560   0.125E+00 0.917E-03
CGA:   3    -0.605219715248E+03   -0.20623E-01   -0.20613E-01 28560   0.289E-01-0.220E-03
CGA:   4    -0.605224134487E+03   -0.44192E-02   -0.44129E-02 28560   0.676E-02-0.112E-03
CGA:   5    -0.605225230762E+03   -0.10963E-02   -0.10955E-02 28560   0.178E-02-0.178E-04
CGA:   6    -0.605225554576E+03   -0.32381E-03   -0.32316E-03 28560   0.485E-03-0.289E-04
CGA:   7    -0.605225651679E+03   -0.97103E-04   -0.97085E-04 28560   0.152E-03-0.248E-04
CGA:   8    -0.605225685046E+03   -0.33367E-04   -0.33501E-04 28560   0.583E-04-0.464E-05
CGA:   9    -0.605225700367E+03   -0.15320E-04   -0.15229E-04 28560   0.273E-04 0.141E-05
CGA:  10    -0.605225709910E+03   -0.95430E-05   -0.10153E-04 28560   0.186E-04-0.397E-05
  45 F= -.60522571E+03 E0= -.60522571E+03  d E =-.511223E-03  mag=    54.0000
       N       E                     dE             d eps       ncg     rms          ort
SDA:   1    -0.605187574568E+03    0.38126E-01    0.00000E+00 28560   0.975E-01 0.000E+00
CGA:   2    -0.605215758431E+03   -0.28184E-01   -0.28224E-01 28560   0.515E-01-0.624E-03
CGA:   3    -0.605223786239E+03   -0.80278E-02   -0.80577E-02 28560   0.111E-01 0.423E-03
CGA:   4    -0.605225486918E+03   -0.17007E-02   -0.17116E-02 28560   0.250E-02 0.156E-03
CGA:   5    -0.605225918666E+03   -0.43175E-03   -0.42955E-03 28560   0.717E-03-0.436E-04
CGA:   6    -0.605226047871E+03   -0.12921E-03   -0.12772E-03 28560   0.217E-03-0.413E-04
CGA:   7    -0.605226083180E+03   -0.35309E-04   -0.35447E-04 28560   0.586E-04 0.323E-05
CGA:   8    -0.605226093608E+03   -0.10428E-04   -0.10803E-04 28560   0.178E-04 0.117E-04
CGA:   9    -0.605226098016E+03   -0.44075E-05   -0.44343E-05 28560   0.871E-05 0.634E-05
  46 F= -.60522610E+03 E0= -.60522610E+03  d E =-.388106E-03  mag=    54.0000
       N       E                     dE             d eps       ncg     rms          ort
SDA:   1    -0.604880228792E+03    0.34586E+00    0.00000E+00 28560   0.877E+00 0.000E+00
CGA:   2    -0.605132955897E+03   -0.25273E+00   -0.25285E+00 28560   0.458E+00-0.177E-02
CGA:   3    -0.605205708281E+03   -0.72752E-01   -0.72832E-01 28560   0.993E-01 0.129E-02
CGA:   4    -0.605221110443E+03   -0.15402E-01   -0.15429E-01 28560   0.223E-01 0.444E-03
CGA:   5    -0.605224891593E+03   -0.37812E-02   -0.37751E-02 28560   0.624E-02-0.144E-03
CGA:   6    -0.605225995115E+03   -0.11035E-02   -0.10999E-02 28560   0.171E-02-0.115E-03
CGA:   7    -0.605226301437E+03   -0.30632E-03   -0.30683E-03 28560   0.483E-03 0.201E-04
CGA:   8    -0.605226402523E+03   -0.10109E-03   -0.10105E-03 28560   0.164E-03 0.428E-04
CGA:   9    -0.605226449222E+03   -0.46699E-04   -0.45537E-04 28560   0.789E-04 0.236E-04
CGA:  10    -0.605226476561E+03   -0.27339E-04   -0.26273E-04 28560   0.431E-04 0.129E-04
CGA:  11    -0.605226490151E+03   -0.13590E-04   -0.13044E-04 28560   0.188E-04 0.115E-04
CGA:  12    -0.605226496032E+03   -0.58803E-05   -0.57008E-05 28560   0.785E-05 0.738E-05
  47 F= -.60522650E+03 E0= -.60522650E+03  d E =-.786122E-03  mag=    54.0000
       N       E                     dE             d eps       ncg     rms          ort
SDA:   1    -0.605208119591E+03    0.18371E-01    0.00000E+00 28560   0.467E-01 0.000E+00
CGA:   2    -0.605221428454E+03   -0.13309E-01   -0.13278E-01 28560   0.239E-01 0.471E-03
CGA:   3    -0.605225393336E+03   -0.39649E-02   -0.39475E-02 28560   0.544E-02-0.301E-03
CGA:   4    -0.605226238947E+03   -0.84561E-03   -0.83930E-03 28560   0.123E-02-0.100E-03
CGA:   5    -0.605226431658E+03   -0.19271E-03   -0.19457E-03 28560   0.296E-03 0.337E-04
CGA:   6    -0.605226482563E+03   -0.50905E-04   -0.52104E-04 28560   0.664E-04 0.285E-04
CGA:   7    -0.605226497853E+03   -0.15290E-04   -0.15290E-04 28560   0.210E-04-0.321E-06
CGA:   8    -0.605226503512E+03   -0.56590E-05   -0.62693E-05 28560   0.139E-04-0.690E-05
  48 F= -.60522650E+03 E0= -.60522650E+03  d E =-.793602E-03  mag=    54.0000
       N       E                     dE             d eps       ncg     rms          ort
SDA:   1    -0.605222513822E+03    0.39840E-02    0.00000E+00 28560   0.101E-01 0.000E+00
CGA:   2    -0.605225458326E+03   -0.29445E-02   -0.29601E-02 28560   0.552E-02-0.210E-03
CGA:   3    -0.605226274042E+03   -0.81572E-03   -0.82491E-03 28560   0.114E-02 0.133E-03
CGA:   4    -0.605226446761E+03   -0.17272E-03   -0.17640E-03 28560   0.262E-03 0.549E-04
CGA:   5    -0.605226495194E+03   -0.48432E-04   -0.47879E-04 28560   0.786E-04-0.137E-04
CGA:   6    -0.605226510726E+03   -0.15532E-04   -0.15442E-04 28560   0.323E-04-0.170E-04
CGA:   7    -0.605226514489E+03   -0.37630E-05   -0.37819E-05 28560   0.818E-05 0.294E-06
  49 F= -.60522651E+03 E0= -.60522651E+03  d E =-.804579E-03  mag=    54.0000
       N       E                     dE             d eps       ncg     rms          ort
SDA:   1    -0.605206922589E+03    0.19588E-01    0.00000E+00 28560   0.508E-01 0.000E+00
CGA:   2    -0.605221193391E+03   -0.14271E-01   -0.14333E-01 28560   0.287E-01-0.810E-03
CGA:   3    -0.605225579617E+03   -0.43862E-02   -0.44048E-02 28560   0.599E-02 0.351E-03
CGA:   4    -0.605226481908E+03   -0.90229E-03   -0.91286E-03 28560   0.136E-02 0.192E-03
CGA:   5    -0.605226722864E+03   -0.24096E-03   -0.24029E-03 28560   0.390E-03-0.212E-04
CGA:   6    -0.605226798699E+03   -0.75835E-04   -0.75607E-04 28560   0.132E-03-0.474E-04
CGA:   7    -0.605226819008E+03   -0.20309E-04   -0.20266E-04 28560   0.359E-04-0.165E-05
CGA:   8    -0.605226824308E+03   -0.53002E-05   -0.56796E-05 28560   0.105E-04 0.955E-05
  50 F= -.60522682E+03 E0= -.60522682E+03  d E =-.309819E-03  mag=    54.0000
       N       E                     dE             d eps       ncg     rms          ort
SDA:   1    -0.605048637523E+03    0.17818E+00    0.00000E+00 28560   0.457E+00 0.000E+00
CGA:   2    -0.605176076481E+03   -0.12744E+00   -0.12764E+00 28560   0.253E+00-0.242E-02
CGA:   3    -0.605216141654E+03   -0.40065E-01   -0.40112E-01 28560   0.544E-01 0.110E-02
CGA:   4    -0.605224458791E+03   -0.83171E-02   -0.83424E-02 28560   0.123E-01 0.560E-03
CGA:   5    -0.605226572840E+03   -0.21140E-02   -0.21120E-02 28560   0.337E-02-0.785E-04
CGA:   6    -0.605227194606E+03   -0.62177E-03   -0.62056E-03 28560   0.969E-03-0.131E-03
CGA:   7    -0.605227366523E+03   -0.17192E-03   -0.17191E-03 28560   0.277E-03-0.132E-05
CGA:   8    -0.605227421499E+03   -0.54976E-04   -0.54821E-04 28560   0.887E-04 0.309E-04
CGA:   9    -0.605227445723E+03   -0.24224E-04   -0.23470E-04 28560   0.396E-04 0.170E-04
CGA:  10    -0.605227459867E+03   -0.14144E-04   -0.13533E-04 28560   0.222E-04 0.672E-05
CGA:  11    -0.605227466549E+03   -0.66825E-05   -0.63730E-05 28560   0.991E-05 0.683E-05
  51 F= -.60522747E+03 E0= -.60522747E+03  d E =-.952061E-03  mag=    54.0000
       N       E                     dE             d eps       ncg     rms          ort
SDA:   1    -0.605223874250E+03    0.35856E-02    0.00000E+00 28560   0.920E-02 0.000E+00
CGA:   2    -0.605226505902E+03   -0.26317E-02   -0.26622E-02 28560   0.547E-02-0.357E-03
CGA:   3    -0.605227288624E+03   -0.78272E-03   -0.79133E-03 28560   0.108E-02 0.150E-03
CGA:   4    -0.605227444924E+03   -0.15630E-03   -0.16162E-03 28560   0.225E-03 0.894E-04
CGA:   5    -0.605227490631E+03   -0.45707E-04   -0.45604E-04 28560   0.655E-04-0.695E-05
CGA:   6    -0.605227505747E+03   -0.15116E-04   -0.16619E-04 28560   0.413E-04-0.248E-04
CGA:   7    -0.605227509639E+03   -0.38920E-05   -0.38404E-05 28560   0.152E-04-0.953E-06
  52 F= -.60522751E+03 E0= -.60522751E+03  d E =-.995150E-03  mag=    54.0000
       N       E                     dE             d eps       ncg     rms          ort
SDA:   1    -0.605213137457E+03    0.14368E-01    0.00000E+00 28560   0.367E-01 0.000E+00
CGA:   2    -0.605223489764E+03   -0.10352E-01   -0.10413E-01 28560   0.209E-01-0.710E-03
CGA:   3    -0.605226628236E+03   -0.31385E-02   -0.31532E-02 28560   0.438E-02 0.308E-03
CGA:   4    -0.605227273853E+03   -0.64562E-03   -0.65442E-03 28560   0.104E-02 0.171E-03
CGA:   5    -0.605227453212E+03   -0.17936E-03   -0.17896E-03 28560   0.307E-03-0.134E-04
CGA:   6    -0.605227512454E+03   -0.59241E-04   -0.59289E-04 28560   0.113E-03-0.452E-04
CGA:   7    -0.605227529291E+03   -0.16837E-04   -0.16742E-04 28560   0.318E-04-0.438E-05
CGA:   8    -0.605227533616E+03   -0.43247E-05   -0.46923E-05 28560   0.961E-05 0.911E-05
  53 F= -.60522753E+03 E0= -.60522753E+03  d E =-.101913E-02  mag=    54.0000
       N       E                     dE             d eps       ncg     rms          ort
SDA:   1    -0.605186887930E+03    0.40641E-01    0.00000E+00 28560   0.104E+00 0.000E+00
CGA:   2    -0.605216414922E+03   -0.29527E-01   -0.29591E-01 28560   0.577E-01-0.695E-03
CGA:   3    -0.605225413704E+03   -0.89988E-02   -0.90085E-02 28560   0.124E-01 0.257E-03
CGA:   4    -0.605227299802E+03   -0.18861E-02   -0.18938E-02 28560   0.279E-02 0.194E-03
CGA:   5    -0.605227782883E+03   -0.48308E-03   -0.48308E-03 28560   0.746E-03-0.554E-06
CGA:   6    -0.605227925804E+03   -0.14292E-03   -0.14305E-03 28560   0.224E-03-0.497E-04
CGA:   7    -0.605227967412E+03   -0.41609E-04   -0.41796E-04 28560   0.705E-04-0.175E-04
CGA:   8    -0.605227981316E+03   -0.13904E-04   -0.13896E-04 28560   0.236E-04 0.311E-06
CGA:   9    -0.605227987263E+03   -0.59472E-05   -0.58207E-05 28560   0.976E-05 0.234E-05
  54 F= -.60522799E+03 E0= -.60522799E+03  d E =-.453648E-03  mag=    54.0000
       N       E                     dE             d eps       ncg     rms          ort
SDA:   1    -0.605088579246E+03    0.13940E+00    0.00000E+00 28560   0.355E+00 0.000E+00
CGA:   2    -0.605188873552E+03   -0.10029E+00   -0.10039E+00 28560   0.195E+00-0.116E-02
CGA:   3    -0.605219615960E+03   -0.30742E-01   -0.30762E-01 28560   0.425E-01 0.425E-03
CGA:   4    -0.605226103903E+03   -0.64879E-02   -0.65033E-02 28560   0.964E-02 0.329E-03
CGA:   5    -0.605227721130E+03   -0.16172E-02   -0.16172E-02 28560   0.262E-02-0.191E-05
CGA:   6    -0.605228198672E+03   -0.47754E-03   -0.47642E-03 28560   0.736E-03-0.828E-04
CGA:   7    -0.605228337676E+03   -0.13900E-03   -0.13900E-03 28560   0.219E-03-0.314E-04
CGA:   8    -0.605228383422E+03   -0.45747E-04   -0.45758E-04 28560   0.760E-04-0.549E-06
CGA:   9    -0.605228403045E+03   -0.19623E-04   -0.19429E-04 28560   0.334E-04 0.322E-05
CGA:  10    -0.605228413435E+03   -0.10390E-04   -0.10194E-04 28560   0.161E-04 0.209E-05
CGA:  11    -0.605228418855E+03   -0.54200E-05   -0.53354E-05 28560   0.757E-05 0.782E-06
  55 F= -.60522842E+03 E0= -.60522842E+03  d E =-.885240E-03  mag=    54.0000
       N       E                     dE             d eps       ncg     rms          ort
SDA:   1    -0.605210342585E+03    0.18071E-01    0.00000E+00 28560   0.500E-01 0.000E+00
CGA:   2    -0.605222367658E+03   -0.12025E-01   -0.12015E-01 28560   0.290E-01 0.486E-03
CGA:   3    -0.605227453850E+03   -0.50862E-02   -0.50796E-02 28560   0.668E-02-0.142E-03
CGA:   4    -0.605228502590E+03   -0.10487E-02   -0.10430E-02 28560   0.162E-02-0.913E-04
CGA:   5    -0.605228754392E+03   -0.25180E-03   -0.25241E-03 28560   0.411E-03 0.102E-04
CGA:   6    -0.605228824702E+03   -0.70310E-04   -0.71044E-04 28560   0.113E-03 0.175E-04
CGA:   7    -0.605228850146E+03   -0.25445E-04   -0.25508E-04 28560   0.420E-04-0.117E-04
CGA:   8    -0.605228859425E+03   -0.92788E-05   -0.13982E-04 28560   0.550E-04-0.295E-04
  56 F= -.60522886E+03 E0= -.60522886E+03  d E =-.440570E-03  mag=    54.0000
       N       E                     dE             d eps       ncg     rms          ort
SDA:   1    -0.605171477085E+03    0.57373E-01    0.00000E+00 28560   0.155E+00 0.000E+00
CGA:   2    -0.605208938883E+03   -0.37462E-01   -0.37435E-01 28560   0.906E-01 0.961E-03
CGA:   3    -0.605224666393E+03   -0.15728E-01   -0.15716E-01 28560   0.204E-01-0.279E-03
CGA:   4    -0.605227860386E+03   -0.31940E-02   -0.31836E-02 28560   0.491E-02-0.180E-03
CGA:   5    -0.605228637175E+03   -0.77679E-03   -0.77773E-03 28560   0.129E-02 0.177E-04
CGA:   6    -0.605228859674E+03   -0.22250E-03   -0.22365E-03 28560   0.367E-03 0.325E-04
CGA:   7    -0.605228935434E+03   -0.75760E-04   -0.75649E-04 28560   0.122E-03-0.199E-04
CGA:   8    -0.605228965329E+03   -0.29895E-04   -0.33420E-04 28560   0.814E-04-0.419E-04
CGA:   9    -0.605228977477E+03   -0.12148E-04   -0.12340E-04 28560   0.326E-04-0.943E-05
CGA:  10    -0.605228983028E+03   -0.55514E-05   -0.56506E-05 28560   0.126E-04 0.626E-05
  57 F= -.60522898E+03 E0= -.60522898E+03  d E =-.564173E-03  mag=    54.0000
       N       E                     dE             d eps       ncg     rms          ort
SDA:   1    -0.605223089345E+03    0.58881E-02    0.00000E+00 28560   0.159E-01 0.000E+00
CGA:   2    -0.605227010833E+03   -0.39215E-02   -0.39311E-02 28560   0.973E-02-0.274E-03
CGA:   3    -0.605228603320E+03   -0.15925E-02   -0.15966E-02 28560   0.212E-02 0.877E-04
CGA:   4    -0.605228922366E+03   -0.31905E-03   -0.32256E-03 28560   0.498E-03 0.584E-04
CGA:   5    -0.605229005999E+03   -0.83633E-04   -0.83348E-04 28560   0.150E-03-0.642E-05
CGA:   6    -0.605229032279E+03   -0.26280E-04   -0.25933E-04 28560   0.495E-04-0.116E-04
CGA:   7    -0.605229039310E+03   -0.70303E-05   -0.72421E-05 28560   0.113E-04 0.468E-05
  58 F= -.60522904E+03 E0= -.60522904E+03  d E =-.620454E-03  mag=    54.0000
       N       E                     dE             d eps       ncg     rms          ort
SDA:   1    -0.605224613954E+03    0.44183E-02    0.00000E+00 28560   0.118E-01 0.000E+00
CGA:   2    -0.605227526435E+03   -0.29125E-02   -0.29245E-02 28560   0.724E-02-0.246E-03
CGA:   3    -0.605228695369E+03   -0.11689E-02   -0.11717E-02 28560   0.155E-02 0.792E-04
CGA:   4    -0.605228931128E+03   -0.23576E-03   -0.23821E-03 28560   0.375E-03 0.534E-04
CGA:   5    -0.605228994474E+03   -0.63346E-04   -0.63169E-04 28560   0.108E-03-0.540E-05
CGA:   6    -0.605229014531E+03   -0.20056E-04   -0.19991E-04 28560   0.385E-04-0.114E-04
CGA:   7    -0.605229019372E+03   -0.48411E-05   -0.50778E-05 28560   0.918E-05 0.507E-05
  59 F= -.60522902E+03 E0= -.60522902E+03  d E =-.600516E-03  mag=    54.0000
       N       E                     dE             d eps       ncg     rms          ort
SDA:   1    -0.605228346184E+03    0.66835E-03    0.00000E+00 28560   0.187E-02 0.000E+00
CGA:   2    -0.605228781215E+03   -0.43503E-03   -0.43067E-03 28560   0.102E-02 0.101E-03
CGA:   3    -0.605228980625E+03   -0.19941E-03   -0.19932E-03 28560   0.272E-03-0.304E-04
CGA:   4    -0.605229021349E+03   -0.40723E-04   -0.40163E-04 28560   0.622E-04-0.151E-04
CGA:   5    -0.605229029993E+03   -0.86445E-05   -0.87204E-05 28560   0.155E-04 0.194E-05
CGA:   6    -0.605229032314E+03   -0.23204E-05   -0.24005E-05 28560   0.415E-05 0.229E-05
  60 F= -.60522903E+03 E0= -.60522903E+03  d E =-.613458E-03  mag=    54.0000
       N       E                     dE             d eps       ncg     rms          ort
SDA:   1    -0.605228650611E+03    0.37938E-03    0.00000E+00 28560   0.107E-02 0.000E+00
CGA:   2    -0.605228894513E+03   -0.24390E-03   -0.24128E-03 28560   0.558E-03 0.731E-04
CGA:   3    -0.605229009493E+03   -0.11498E-03   -0.11503E-03 28560   0.136E-03-0.229E-04
CGA:   4    -0.605229032052E+03   -0.22559E-04   -0.22368E-04 28560   0.398E-04-0.991E-05
CGA:   5    -0.605229036809E+03   -0.47567E-05   -0.48286E-05 28560   0.106E-04 0.121E-05
CGA:   6    -0.605229038209E+03   -0.14003E-05   -0.14974E-05 28560   0.251E-05 0.192E-05
  61 F= -.60522904E+03 E0= -.60522904E+03  d E =-.619353E-03  mag=    54.0000
       N       E                     dE             d eps       ncg     rms          ort
SDA:   1    -0.605228945609E+03    0.91199E-04    0.00000E+00 28560   0.268E-03 0.000E+00
CGA:   2    -0.605229002341E+03   -0.56732E-04   -0.56085E-04 28560   0.134E-03 0.329E-04
CGA:   3    -0.605229031305E+03   -0.28964E-04   -0.28983E-04 28560   0.526E-04-0.820E-05
CGA:   4    -0.605229037821E+03   -0.65164E-05   -0.61947E-05 28560   0.159E-04-0.494E-05
CGA:   5    -0.605229039917E+03   -0.20953E-05   -0.21009E-05 28560   0.305E-05 0.132E-06
CGA:   6    -0.605229040417E+03   -0.50064E-06   -0.51069E-06 28560   0.859E-06 0.515E-06
  62 F= -.60522904E+03 E0= -.60522904E+03  d E =-.621562E-03  mag=    54.0000
       N       E                     dE             d eps       ncg     rms          ort
SDA:   1    -0.605215391181E+03    0.13649E-01    0.00000E+00 28560   0.366E-01 0.000E+00
CGA:   2    -0.605224984107E+03   -0.95929E-02   -0.95972E-02 28560   0.206E-01-0.728E-04
CGA:   3    -0.605228318856E+03   -0.33347E-02   -0.33366E-02 28560   0.481E-02 0.455E-04
CGA:   4    -0.605229059127E+03   -0.74027E-03   -0.74194E-03 28560   0.114E-02 0.376E-04
CGA:   5    -0.605229236652E+03   -0.17752E-03   -0.17800E-03 28560   0.301E-03 0.114E-04
CGA:   6    -0.605229288260E+03   -0.51608E-04   -0.51798E-04 28560   0.865E-04 0.802E-05
CGA:   7    -0.605229304229E+03   -0.15969E-04   -0.16023E-04 28560   0.231E-04 0.439E-05
CGA:   8    -0.605229310157E+03   -0.59286E-05   -0.60228E-05 28560   0.101E-04-0.168E-05
  63 F= -.60522931E+03 E0= -.60522931E+03  d E =-.269740E-03  mag=    54.0000
