       N       E                     dE             d eps       ncg     rms          rms(c)
DAV:   1     0.614482250780E+04    0.61448E+04   -0.31247E+05 36560   0.177E+03
DAV:   2     0.372663558557E+03   -0.57722E+04   -0.54871E+04 35248   0.531E+02
DAV:   3    -0.213955489636E+03   -0.58662E+03   -0.56010E+03 36080   0.187E+02
DAV:   4    -0.231849822301E+03   -0.17894E+02   -0.17787E+02 36536   0.353E+01
DAV:   5    -0.232346018107E+03   -0.49620E+00   -0.49369E+00 48536   0.474E+00    0.604E+00
DAV:   6    -0.236527916942E+03   -0.41819E+01   -0.21609E+01 41472   0.154E+01    0.500E+01
DAV:   7    -0.230869552185E+03    0.56584E+01   -0.12678E+01 38424   0.125E+01    0.744E+00
DAV:   8    -0.231089868538E+03   -0.22032E+00   -0.25494E+00 38504   0.843E+00    0.155E+01
DAV:   9    -0.230780021342E+03    0.30985E+00   -0.64640E-01 38536   0.573E+00    0.524E+00
DAV:  10    -0.230816017282E+03   -0.35996E-01   -0.11337E-01 40896   0.183E+00    0.514E+00
DAV:  11    -0.230817674570E+03   -0.16573E-02   -0.33075E-02 39104   0.106E+00    0.495E+00
DAV:  12    -0.230822508213E+03   -0.48336E-02   -0.48828E-03 41576   0.397E-01    0.605E+00
DAV:  13    -0.230820194112E+03    0.23141E-02   -0.11790E-03 37712   0.159E-01    0.605E+00
DAV:  14    -0.230807601805E+03    0.12592E-01   -0.10182E-02 39736   0.687E-01    0.449E+00
DAV:  15    -0.230814478090E+03   -0.68763E-02   -0.42430E-02 37416   0.155E+00    0.277E+00
DAV:  16    -0.230826043778E+03   -0.11566E-01   -0.57963E-02 39032   0.142E+00    0.302E+00
DAV:  17    -0.230825604280E+03    0.43950E-03   -0.20249E-02 41680   0.883E-01    0.270E+00
DAV:  18    -0.230824962801E+03    0.64148E-03   -0.50111E-03 44568   0.421E-01    0.249E+00
DAV:  19    -0.230824765493E+03    0.19731E-03   -0.36103E-03 43904   0.382E-01    0.216E+00
DAV:  20    -0.230827116630E+03   -0.23511E-02   -0.86618E-03 42200   0.503E-01    0.172E+00
DAV:  21    -0.230827071631E+03    0.44999E-04   -0.45898E-03 40472   0.357E-01    0.123E+00
DAV:  22    -0.230828188173E+03   -0.11165E-02   -0.27070E-03 41920   0.350E-01    0.102E+00
DAV:  23    -0.230828125283E+03    0.62889E-04   -0.24077E-03 43256   0.287E-01    0.955E-01
DAV:  24    -0.230828177701E+03   -0.52418E-04   -0.53993E-04 41608   0.151E-01    0.773E-01
DAV:  25    -0.230828343273E+03   -0.16557E-03   -0.25190E-04 40960   0.119E-01    0.746E-01
DAV:  26    -0.230828423034E+03   -0.79761E-04   -0.27442E-04 40536   0.122E-01    0.747E-01
DAV:  27    -0.230829043090E+03   -0.62006E-03   -0.84081E-04 43640   0.215E-01    0.941E-01
DAV:  28    -0.230829193098E+03   -0.15001E-03   -0.15394E-03 42848   0.227E-01    0.808E-01
DAV:  29    -0.230829185394E+03    0.77039E-05   -0.36460E-04 41840   0.879E-02    0.693E-01
DAV:  30    -0.230829218386E+03   -0.32992E-04   -0.67056E-05 31424   0.388E-02    0.661E-01
DAV:  31    -0.230829268902E+03   -0.50516E-04   -0.17520E-05 22512   0.286E-02    0.676E-01
DAV:  32    -0.230829337545E+03   -0.68643E-04   -0.81906E-05 34952   0.664E-02    0.640E-01
DAV:  33    -0.230829474730E+03   -0.13718E-03   -0.23882E-04 38944   0.746E-02    0.520E-01
DAV:  34    -0.230829549277E+03   -0.74547E-04   -0.39890E-04 42224   0.951E-02    0.209E-01
DAV:  35    -0.230829685288E+03   -0.13601E-03   -0.15225E-04 39000   0.512E-02    0.129E-01
DAV:  36    -0.230829701528E+03   -0.16240E-04   -0.31796E-05 27016   0.331E-02    0.647E-02
DAV:  37    -0.230829714490E+03   -0.12963E-04   -0.16273E-05 20576   0.168E-02    0.566E-02
DAV:  38    -0.230829717302E+03   -0.28117E-05   -0.38679E-06 17688   0.117E-02
   1 F= -.23082972E+03 E0= -.23081159E+03  d E =-.230830E+03  mag=    -5.0925
       N       E                     dE             d eps       ncg     rms          rms(c)
DAV:   1    -0.231115528472E+03   -0.28581E+00   -0.42834E+00 37016   0.988E+00    0.645E+00
DAV:   2    -0.232535269801E+03   -0.14197E+01   -0.10113E+01 38328   0.162E+01    0.294E+01
DAV:   3    -0.231325478646E+03    0.12098E+01   -0.92241E+00 37032   0.115E+01    0.134E+01
DAV:   4    -0.231130036967E+03    0.19544E+00   -0.28699E+00 40224   0.963E+00    0.162E+01
DAV:   5    -0.230826899789E+03    0.30314E+00   -0.10346E+00 40616   0.543E+00    0.691E+00
DAV:   6    -0.230907918081E+03   -0.81018E-01   -0.31173E-01 42336   0.322E+00    0.744E+00
DAV:   7    -0.230861277344E+03    0.46641E-01   -0.82856E-01 41104   0.316E+00    0.520E+00
DAV:   8    -0.230839778511E+03    0.21499E-01   -0.14580E-01 40336   0.245E+00    0.288E+00
DAV:   9    -0.230843837172E+03   -0.40587E-02   -0.57940E-02 41072   0.182E+00    0.262E+00
DAV:  10    -0.230835748821E+03    0.80884E-02   -0.34093E-02 41608   0.127E+00    0.219E+00
DAV:  11    -0.230838298194E+03   -0.25494E-02   -0.22152E-02 38984   0.112E+00    0.219E+00
DAV:  12    -0.230835055576E+03    0.32426E-02   -0.91404E-03 40792   0.709E-01    0.145E+00
DAV:  13    -0.230834760053E+03    0.29552E-03   -0.19730E-03 39720   0.280E-01    0.147E+00
DAV:  14    -0.230833868258E+03    0.89179E-03   -0.34317E-04 34128   0.635E-02    0.150E+00
DAV:  15    -0.230834614003E+03   -0.74574E-03   -0.13607E-03 41072   0.272E-01    0.147E+00
DAV:  16    -0.230834467673E+03    0.14633E-03   -0.72488E-03 40976   0.601E-01    0.120E+00
DAV:  17    -0.230835247666E+03   -0.77999E-03   -0.85984E-03 41088   0.587E-01    0.106E+00
DAV:  18    -0.230834005358E+03    0.12423E-02   -0.56948E-03 40536   0.527E-01    0.566E-01
DAV:  19    -0.230834319561E+03   -0.31420E-03   -0.17154E-03 41472   0.223E-01    0.571E-01
DAV:  20    -0.230834246763E+03    0.72798E-04   -0.19524E-04 39272   0.656E-02    0.619E-01
DAV:  21    -0.230834163032E+03    0.83731E-04   -0.30434E-04 41440   0.114E-01    0.558E-01
DAV:  22    -0.230834246962E+03   -0.83929E-04   -0.20867E-03 42784   0.323E-01    0.471E-01
DAV:  23    -0.230834131920E+03    0.11504E-03   -0.22611E-03 40456   0.389E-01    0.440E-01
DAV:  24    -0.230834407811E+03   -0.27589E-03   -0.15016E-03 41456   0.182E-01    0.526E-01
DAV:  25    -0.230834184628E+03    0.22318E-03   -0.16846E-04 36208   0.592E-02    0.537E-01
DAV:  26    -0.230833992956E+03    0.19167E-03   -0.33442E-05 24376   0.308E-02    0.585E-01
DAV:  27    -0.230834130707E+03   -0.13775E-03   -0.51957E-04 42024   0.121E-01    0.390E-01
DAV:  28    -0.230834461920E+03   -0.33121E-03   -0.66674E-04 42384   0.169E-01    0.486E-01
DAV:  29    -0.230834223916E+03    0.23800E-03   -0.28524E-04 41160   0.103E-01    0.256E-01
DAV:  30    -0.230834304129E+03   -0.80213E-04   -0.13690E-04 35680   0.620E-02    0.132E-01
DAV:  31    -0.230834368998E+03   -0.64869E-04   -0.85172E-05 31160   0.505E-02    0.908E-02
DAV:  32    -0.230834367544E+03    0.14544E-05   -0.26273E-05 23112   0.314E-02
   2 F= -.23083437E+03 E0= -.23081592E+03  d E =-.465024E-02  mag=    -5.1334
       N       E                     dE             d eps       ncg     rms          rms(c)
DAV:   1    -0.230842605797E+03   -0.82368E-02   -0.12526E-01 36920   0.169E+00    0.101E+00
DAV:   2    -0.230914261361E+03   -0.71656E-01   -0.93774E-02 37488   0.245E+00    0.970E+00
DAV:   3    -0.230821568665E+03    0.92693E-01   -0.89431E-02 35000   0.197E+00    0.240E+00
DAV:   4    -0.230834846802E+03   -0.13278E-01   -0.23014E-02 38216   0.133E+00    0.868E-01
DAV:   5    -0.230836135273E+03   -0.12885E-02   -0.21103E-02 43264   0.625E-01    0.139E+00
DAV:   6    -0.230834115450E+03    0.20198E-02   -0.14164E-02 38816   0.480E-01    0.621E-01
DAV:   7    -0.230834262880E+03   -0.14743E-03   -0.27921E-03 37192   0.420E-01    0.506E-01
DAV:   8    -0.230834439559E+03   -0.17668E-03   -0.17486E-03 39848   0.301E-01    0.603E-01
DAV:   9    -0.230834557906E+03   -0.11835E-03   -0.23960E-03 37704   0.362E-01    0.539E-01
DAV:  10    -0.230834436518E+03    0.12139E-03   -0.10251E-03 39624   0.234E-01    0.445E-01
DAV:  11    -0.230834548424E+03   -0.11191E-03   -0.74110E-04 40168   0.180E-01    0.668E-01
DAV:  12    -0.230834460445E+03    0.87980E-04   -0.69337E-04 41320   0.133E-01    0.786E-01
DAV:  13    -0.230834065750E+03    0.39469E-03   -0.54185E-04 39400   0.132E-01    0.521E-01
DAV:  14    -0.230834157792E+03   -0.92043E-04   -0.29676E-04 36352   0.109E-01    0.276E-01
DAV:  15    -0.230834434124E+03   -0.27633E-03   -0.45833E-04 38232   0.147E-01    0.338E-01
DAV:  16    -0.230834462894E+03   -0.28770E-04   -0.35757E-04 36152   0.151E-01    0.471E-01
DAV:  17    -0.230834271748E+03    0.19115E-03   -0.17285E-04 34728   0.955E-02    0.354E-01
DAV:  18    -0.230834323849E+03   -0.52101E-04   -0.16066E-04 32696   0.879E-02    0.274E-01
DAV:  19    -0.230834454837E+03   -0.13099E-03   -0.20657E-04 38960   0.690E-02    0.222E-01
DAV:  20    -0.230834507874E+03   -0.53037E-04   -0.75653E-05 31048   0.441E-02    0.224E-01
DAV:  21    -0.230834506427E+03    0.14471E-05   -0.12550E-05 20768   0.226E-02
   3 F= -.23083451E+03 E0= -.23081615E+03  d E =-.478912E-02  mag=    -5.1194
       N       E                     dE             d eps       ncg     rms          rms(c)
DAV:   1    -0.230844956594E+03   -0.10449E-01   -0.13582E+00 32464   0.466E+00    0.162E+00
DAV:   2    -0.231021228444E+03   -0.17627E+00   -0.97119E-01 42528   0.397E+00    0.986E+00
DAV:   3    -0.230838101142E+03    0.18313E+00   -0.69637E-01 35992   0.338E+00    0.400E+00
DAV:   4    -0.230847779579E+03   -0.96784E-02   -0.16751E-01 39200   0.229E+00    0.397E+00
DAV:   5    -0.230836785787E+03    0.10994E-01   -0.50791E-02 38880   0.155E+00    0.201E+00
DAV:   6    -0.230839207625E+03   -0.24218E-02   -0.16373E-02 40904   0.763E-01    0.175E+00
DAV:   7    -0.230835766148E+03    0.34415E-02   -0.84915E-03 39968   0.599E-01    0.120E+00
DAV:   8    -0.230835057624E+03    0.70852E-03   -0.39890E-03 41792   0.477E-01    0.579E-01
DAV:   9    -0.230836264685E+03   -0.12071E-02   -0.36328E-03 41536   0.459E-01    0.638E-01
DAV:  10    -0.230836417443E+03   -0.15276E-03   -0.41398E-03 39992   0.406E-01    0.589E-01
DAV:  11    -0.230836609563E+03   -0.19212E-03   -0.29186E-03 39008   0.392E-01    0.578E-01
DAV:  12    -0.230836670138E+03   -0.60575E-04   -0.19151E-03 40824   0.240E-01    0.671E-01
DAV:  13    -0.230836409484E+03    0.26065E-03   -0.14996E-03 40664   0.236E-01    0.569E-01
DAV:  14    -0.230836545159E+03   -0.13567E-03   -0.14021E-03 41736   0.209E-01    0.609E-01
DAV:  15    -0.230836759230E+03   -0.21407E-03   -0.62940E-04 39448   0.174E-01    0.575E-01
DAV:  16    -0.230836536601E+03    0.22263E-03   -0.44703E-04 40776   0.138E-01    0.385E-01
DAV:  17    -0.230836592775E+03   -0.56174E-04   -0.42213E-04 43048   0.143E-01    0.584E-01
DAV:  18    -0.230836317666E+03    0.27511E-03   -0.21365E-04 40920   0.105E-01    0.589E-01
DAV:  19    -0.230836253791E+03    0.63875E-04   -0.42180E-04 42920   0.120E-01    0.399E-01
DAV:  20    -0.230836417367E+03   -0.16358E-03   -0.28349E-04 38664   0.941E-02    0.411E-01
DAV:  21    -0.230836512662E+03   -0.95295E-04   -0.87253E-05 32592   0.493E-02    0.459E-01
DAV:  22    -0.230836536206E+03   -0.23544E-04   -0.22520E-04 39544   0.897E-02    0.207E-01
DAV:  23    -0.230836752111E+03   -0.21591E-03   -0.30092E-04 40264   0.107E-01    0.283E-01
DAV:  24    -0.230836699909E+03    0.52202E-04   -0.15914E-04 35088   0.962E-02    0.177E-01
DAV:  25    -0.230836686475E+03    0.13435E-04   -0.72580E-05 26568   0.468E-02    0.874E-02
DAV:  26    -0.230836711721E+03   -0.25247E-04   -0.30814E-05 23144   0.258E-02    0.733E-02
DAV:  27    -0.230836709881E+03    0.18401E-05   -0.10917E-05 20112   0.228E-02
   4 F= -.23083671E+03 E0= -.23081828E+03  d E =-.220345E-02  mag=    -5.1256
       N       E                     dE             d eps       ncg     rms          rms(c)
DAV:   1    -0.230839196704E+03   -0.24850E-02   -0.35662E-01 32464   0.239E+00    0.849E-01
DAV:   2    -0.230908694200E+03   -0.69497E-01   -0.20290E-01 42528   0.210E+00    0.736E+00
DAV:   3    -0.230822806052E+03    0.85888E-01   -0.14978E-01 35872   0.192E+00    0.173E+00
DAV:   4    -0.230839063721E+03   -0.16258E-01   -0.47330E-02 38288   0.114E+00    0.178E+00
DAV:   5    -0.230836982058E+03    0.20817E-02   -0.18759E-02 39512   0.798E-01    0.893E-01
DAV:   6    -0.230837137352E+03   -0.15529E-03   -0.31299E-03 40664   0.375E-01    0.693E-01
DAV:   7    -0.230836687144E+03    0.45021E-03   -0.24875E-03 38384   0.332E-01    0.469E-01
DAV:   8    -0.230836946040E+03   -0.25890E-03   -0.12598E-03 40072   0.275E-01    0.393E-01
DAV:   9    -0.230837071539E+03   -0.12550E-03   -0.84064E-04 37648   0.244E-01    0.418E-01
DAV:  10    -0.230836907083E+03    0.16446E-03   -0.23358E-04 39688   0.963E-02    0.377E-01
DAV:  11    -0.230836758458E+03    0.14863E-03   -0.40151E-05 27952   0.313E-02    0.372E-01
DAV:  12    -0.230836641907E+03    0.11655E-03   -0.17106E-05 21392   0.250E-02    0.393E-01
DAV:  13    -0.230836692271E+03   -0.50363E-04   -0.42177E-05 24120   0.470E-02    0.343E-01
DAV:  14    -0.230836766565E+03   -0.74294E-04   -0.15061E-04 35360   0.764E-02    0.184E-01
DAV:  15    -0.230836944090E+03   -0.17753E-03   -0.23305E-04 37776   0.109E-01    0.174E-01
DAV:  16    -0.230836978902E+03   -0.34811E-04   -0.21556E-04 37312   0.105E-01    0.152E-01
DAV:  17    -0.230836979046E+03   -0.14466E-06   -0.12408E-04 32304   0.880E-02    0.120E-01
DAV:  18    -0.230836973926E+03    0.51197E-05   -0.65191E-05 25864   0.609E-02
   5 F= -.23083697E+03 E0= -.23081841E+03  d E =-.246750E-02  mag=    -5.1284
       N       E                     dE             d eps       ncg     rms          rms(c)
DAV:   1    -0.230827887289E+03    0.90918E-02   -0.83032E-01 32888   0.546E+00    0.105E+00
DAV:   2    -0.230944296737E+03   -0.11641E+00   -0.59227E-01 44664   0.271E+00    0.789E+00
DAV:   3    -0.230826759885E+03    0.11754E+00   -0.23892E-01 38200   0.241E+00    0.244E+00
DAV:   4    -0.230838105739E+03   -0.11346E-01   -0.61316E-02 38624   0.131E+00    0.164E+00
DAV:   5    -0.230839702511E+03   -0.15968E-02   -0.19668E-02 39712   0.914E-01    0.131E+00
DAV:   6    -0.230838437748E+03    0.12648E-02   -0.59887E-03 40560   0.519E-01    0.911E-01
DAV:   7    -0.230837538068E+03    0.89968E-03   -0.39367E-03 38864   0.408E-01    0.493E-01
DAV:   8    -0.230838241977E+03   -0.70391E-03   -0.22711E-03 41664   0.387E-01    0.558E-01
DAV:   9    -0.230838179716E+03    0.62261E-04   -0.21554E-03 39280   0.349E-01    0.488E-01
DAV:  10    -0.230838175698E+03    0.40180E-05   -0.12796E-03 40312   0.222E-01    0.454E-01
DAV:  11    -0.230838109080E+03    0.66618E-04   -0.84248E-04 39888   0.198E-01    0.438E-01
DAV:  12    -0.230838164693E+03   -0.55613E-04   -0.68925E-04 39688   0.141E-01    0.499E-01
DAV:  13    -0.230838055537E+03    0.10916E-03   -0.84691E-04 39856   0.196E-01    0.403E-01
DAV:  14    -0.230837984033E+03    0.71504E-04   -0.79714E-04 38912   0.165E-01    0.279E-01
DAV:  15    -0.230838119571E+03   -0.13554E-03   -0.32067E-04 38264   0.130E-01    0.297E-01
DAV:  16    -0.230838161003E+03   -0.41433E-04   -0.27555E-04 39664   0.111E-01    0.463E-01
DAV:  17    -0.230838056540E+03    0.10446E-03   -0.12436E-04 35992   0.758E-02    0.544E-01
DAV:  18    -0.230837927014E+03    0.12953E-03   -0.33028E-05 26448   0.300E-02    0.511E-01
DAV:  19    -0.230837961339E+03   -0.34325E-04   -0.16674E-04 37608   0.775E-02    0.384E-01
DAV:  20    -0.230838098328E+03   -0.13699E-03   -0.15305E-04 35008   0.825E-02    0.395E-01
DAV:  21    -0.230838287411E+03   -0.18908E-03   -0.12757E-04 35704   0.698E-02    0.502E-01
DAV:  22    -0.230838166460E+03    0.12095E-03   -0.13757E-04 37432   0.927E-02    0.274E-01
DAV:  23    -0.230838271208E+03   -0.10475E-03   -0.20206E-04 39128   0.998E-02    0.182E-01
DAV:  24    -0.230838305785E+03   -0.34577E-04   -0.93509E-05 33624   0.563E-02    0.139E-01
DAV:  25    -0.230838288031E+03    0.17754E-04   -0.35777E-05 23240   0.400E-02    0.547E-02
DAV:  26    -0.230838303113E+03   -0.15083E-04   -0.20067E-05 21768   0.376E-02    0.490E-02
DAV:  27    -0.230838303179E+03   -0.65294E-07   -0.65451E-06 18904   0.200E-02
   6 F= -.23083830E+03 E0= -.23081980E+03  d E =-.132925E-02  mag=    -5.1335
       N       E                     dE             d eps       ncg     rms          rms(c)
DAV:   1    -0.230833474893E+03    0.48282E-02   -0.40515E-01 32888   0.381E+00    0.706E-01
DAV:   2    -0.230890362961E+03   -0.56888E-01   -0.20086E-01 44176   0.180E+00    0.670E+00
DAV:   3    -0.230824234614E+03    0.66128E-01   -0.96158E-02 37848   0.161E+00    0.133E+00
DAV:   4    -0.230839109518E+03   -0.14875E-01   -0.29904E-02 37392   0.892E-01    0.129E+00
DAV:   5    -0.230838831829E+03    0.27769E-03   -0.12103E-02 40080   0.629E-01    0.763E-01
DAV:   6    -0.230838637629E+03    0.19420E-03   -0.30708E-03 40976   0.347E-01    0.596E-01
DAV:   7    -0.230838212559E+03    0.42507E-03   -0.17444E-03 38680   0.259E-01    0.414E-01
DAV:   8    -0.230838363214E+03   -0.15066E-03   -0.75623E-04 41496   0.223E-01    0.357E-01
DAV:   9    -0.230838410853E+03   -0.47639E-04   -0.10103E-03 38824   0.243E-01    0.324E-01
DAV:  10    -0.230838589564E+03   -0.17871E-03   -0.11920E-03 39824   0.203E-01    0.392E-01
DAV:  11    -0.230838505330E+03    0.84234E-04   -0.11308E-03 38944   0.229E-01    0.311E-01
DAV:  12    -0.230838559396E+03   -0.54066E-04   -0.86929E-04 39120   0.146E-01    0.303E-01
DAV:  13    -0.230838493188E+03    0.66209E-04   -0.39903E-04 36344   0.127E-01    0.277E-01
DAV:  14    -0.230838470208E+03    0.22980E-04   -0.18758E-04 36792   0.871E-02    0.343E-01
DAV:  15    -0.230838395885E+03    0.74322E-04   -0.98992E-05 31048   0.688E-02    0.378E-01
DAV:  16    -0.230838342793E+03    0.53092E-04   -0.43032E-05 26232   0.431E-02    0.357E-01
DAV:  17    -0.230838346335E+03   -0.35423E-05   -0.53599E-05 29176   0.482E-02
   7 F= -.23083835E+03 E0= -.23081988E+03  d E =-.137241E-02  mag=    -5.1359
       N       E                     dE             d eps       ncg     rms          rms(c)
DAV:   1    -0.230817762940E+03    0.20580E-01   -0.16216E+00 32880   0.762E+00    0.162E+00
DAV:   2    -0.231058157088E+03   -0.24039E+00   -0.16211E+00 44808   0.415E+00    0.107E+01
DAV:   3    -0.230841846224E+03    0.21631E+00   -0.87746E-01 38160   0.365E+00    0.512E+00
DAV:   4    -0.230835913018E+03    0.59332E-02   -0.23472E-01 39624   0.231E+00    0.289E+00
DAV:   5    -0.230839397922E+03   -0.34849E-02   -0.40899E-02 40168   0.146E+00    0.171E+00
DAV:   6    -0.230840188728E+03   -0.79081E-03   -0.17000E-02 41064   0.807E-01    0.146E+00
DAV:   7    -0.230837624035E+03    0.25647E-02   -0.91779E-03 38864   0.610E-01    0.978E-01
DAV:   8    -0.230837494711E+03    0.12932E-03   -0.39084E-03 41464   0.506E-01    0.615E-01
DAV:   9    -0.230837647412E+03   -0.15270E-03   -0.35744E-03 41432   0.431E-01    0.573E-01
DAV:  10    -0.230837540141E+03    0.10727E-03   -0.28969E-03 38976   0.360E-01    0.489E-01
DAV:  11    -0.230837394456E+03    0.14569E-03   -0.21166E-03 38440   0.288E-01    0.426E-01
DAV:  12    -0.230837443189E+03   -0.48733E-04   -0.81136E-04 39024   0.124E-01    0.484E-01
DAV:  13    -0.230837202662E+03    0.24053E-03   -0.19827E-04 35568   0.763E-02    0.489E-01
DAV:  14    -0.230837094452E+03    0.10821E-03   -0.51930E-05 28464   0.444E-02    0.465E-01
DAV:  15    -0.230837085128E+03    0.93238E-05   -0.12976E-05 20352   0.200E-02
   8 F= -.23083709E+03 E0= -.23081901E+03  d E =-.111202E-03  mag=    -5.1553
       N       E                     dE             d eps       ncg     rms          rms(c)
DAV:   1    -0.230833436435E+03    0.36580E-02   -0.31066E-01 32904   0.333E+00    0.690E-01
DAV:   2    -0.230867123110E+03   -0.33687E-01   -0.10083E-01 41560   0.136E+00    0.590E+00
DAV:   3    -0.230829924224E+03    0.37199E-01   -0.29326E-02 38376   0.108E+00    0.105E+00
DAV:   4    -0.230837698110E+03   -0.77739E-02   -0.31919E-03 34128   0.311E-01    0.979E-01
DAV:   5    -0.230838068605E+03   -0.37049E-03   -0.46287E-04 35728   0.779E-02    0.928E-01
DAV:   6    -0.230839786163E+03   -0.17176E-02   -0.90420E-03 38232   0.420E-01    0.140E+00
DAV:   7    -0.230837796277E+03    0.19899E-02   -0.13469E-02 39024   0.571E-01    0.131E+00
DAV:   8    -0.230836883497E+03    0.91278E-03   -0.34465E-03 40248   0.371E-01    0.108E+00
DAV:   9    -0.230837491256E+03   -0.60776E-03   -0.25575E-04 35264   0.627E-02    0.109E+00
DAV:  10    -0.230837624151E+03   -0.13289E-03   -0.21637E-04 33640   0.855E-02    0.101E+00
DAV:  11    -0.230837947557E+03   -0.32341E-03   -0.59067E-04 41320   0.161E-01    0.995E-01
DAV:  12    -0.230838086772E+03   -0.13922E-03   -0.30381E-03 42496   0.347E-01    0.876E-01
DAV:  13    -0.230838610151E+03   -0.52338E-03   -0.59018E-03 42072   0.545E-01    0.107E+00
DAV:  14    -0.230837370876E+03    0.12393E-02   -0.70944E-03 39888   0.488E-01    0.708E-01
DAV:  15    -0.230838008295E+03   -0.63742E-03   -0.27305E-03 37912   0.379E-01    0.541E-01
DAV:  16    -0.230838200703E+03   -0.19241E-03   -0.13492E-03 41904   0.267E-01    0.374E-01
DAV:  17    -0.230838306030E+03   -0.10533E-03   -0.59487E-04 42344   0.165E-01    0.338E-01
DAV:  18    -0.230838256252E+03    0.49777E-04   -0.42902E-04 41928   0.143E-01    0.168E-01
DAV:  19    -0.230838269715E+03   -0.13463E-04   -0.20318E-04 38496   0.113E-01    0.143E-01
DAV:  20    -0.230838271724E+03   -0.20089E-05   -0.93550E-05 33520   0.841E-02
   9 F= -.23083827E+03 E0= -.23081966E+03  d E =-.129780E-02  mag=    -5.1436
       N       E                     dE             d eps       ncg     rms          rms(c)
DAV:   1    -0.230836370471E+03    0.18992E-02   -0.17585E-01 32904   0.251E+00    0.507E-01
DAV:   2    -0.230877199086E+03   -0.40829E-01   -0.68946E-02 44680   0.135E+00    0.707E+00
DAV:   3    -0.230825781203E+03    0.51418E-01   -0.34271E-02 37728   0.122E+00    0.591E-01
DAV:   4    -0.230838388516E+03   -0.12607E-01   -0.93080E-03 37312   0.610E-01    0.726E-01
DAV:   5    -0.230838797258E+03   -0.40874E-03   -0.60179E-03 41584   0.345E-01    0.555E-01
DAV:   6    -0.230838463429E+03    0.33383E-03   -0.16471E-03 39048   0.210E-01    0.380E-01
DAV:   7    -0.230838366504E+03    0.96925E-04   -0.13781E-04 33776   0.629E-02    0.331E-01
DAV:   8    -0.230838360928E+03    0.55764E-05   -0.72234E-05 27704   0.602E-02
  10 F= -.23083836E+03 E0= -.23081958E+03  d E =-.138700E-02  mag=    -5.1399
       N       E                     dE             d eps       ncg     rms          rms(c)
DAV:   1    -0.230838123343E+03    0.24316E-03   -0.43185E-02 32896   0.125E+00    0.528E-01
DAV:   2    -0.230880727658E+03   -0.42604E-01   -0.49319E-02 44328   0.122E+00    0.739E+00
DAV:   3    -0.230824828649E+03    0.55899E-01   -0.30841E-02 37400   0.117E+00    0.108E+00
DAV:   4    -0.230836430977E+03   -0.11602E-01   -0.53723E-03 35288   0.385E-01    0.621E-01
DAV:   5    -0.230837856911E+03   -0.14259E-02   -0.80966E-04 37168   0.123E-01    0.542E-01
DAV:   6    -0.230837964763E+03   -0.10785E-03   -0.72554E-05 32424   0.427E-02    0.562E-01
DAV:   7    -0.230838339134E+03   -0.37437E-03   -0.10061E-03 38488   0.176E-01    0.886E-01
DAV:   8    -0.230837832253E+03    0.50688E-03   -0.39104E-03 41416   0.266E-01    0.514E-01
DAV:   9    -0.230838713923E+03   -0.88167E-03   -0.55842E-03 40208   0.398E-01    0.599E-01
DAV:  10    -0.230838507033E+03    0.20689E-03   -0.33029E-03 40408   0.348E-01    0.449E-01
DAV:  11    -0.230838576114E+03   -0.69081E-04   -0.14169E-03 42120   0.202E-01    0.461E-01
DAV:  12    -0.230838433513E+03    0.14260E-03   -0.53416E-04 39264   0.153E-01    0.408E-01
DAV:  13    -0.230838390397E+03    0.43116E-04   -0.98246E-05 34528   0.643E-02    0.421E-01
DAV:  14    -0.230838338494E+03    0.51904E-04   -0.19460E-05 21872   0.309E-02    0.420E-01
DAV:  15    -0.230838312188E+03    0.26306E-04   -0.29249E-05 24072   0.333E-02    0.396E-01
DAV:  16    -0.230838328348E+03   -0.16160E-04   -0.11947E-04 35264   0.642E-02    0.336E-01
DAV:  17    -0.230838399915E+03   -0.71567E-04   -0.17905E-04 37832   0.766E-02    0.274E-01
DAV:  18    -0.230838475771E+03   -0.75857E-04   -0.15327E-04 37352   0.926E-02    0.210E-01
DAV:  19    -0.230838574283E+03   -0.98511E-04   -0.17259E-04 39232   0.108E-01    0.266E-01
DAV:  20    -0.230838549041E+03    0.25242E-04   -0.15166E-04 36112   0.855E-02    0.129E-01
DAV:  21    -0.230838578283E+03   -0.29242E-04   -0.13751E-04 29472   0.846E-02    0.103E-01
DAV:  22    -0.230838593691E+03   -0.15408E-04   -0.73856E-05 27192   0.602E-02    0.132E-01
DAV:  23    -0.230838586869E+03    0.68215E-05   -0.32612E-05 23600   0.484E-02
  11 F= -.23083859E+03 E0= -.23082010E+03  d E =-.161294E-02  mag=    -5.1356
       N       E                     dE             d eps       ncg     rms          rms(c)
DAV:   1    -0.230838576308E+03    0.17382E-04   -0.69464E-04 33784   0.164E-01    0.771E-02
DAV:   2    -0.230840054818E+03   -0.14785E-02   -0.12811E-03 41240   0.218E-01    0.136E+00
DAV:   3    -0.230837833971E+03    0.22208E-02   -0.11696E-03 37328   0.222E-01    0.162E-01
DAV:   4    -0.230838526656E+03   -0.69269E-03   -0.19884E-04 33200   0.995E-02    0.974E-02
DAV:   5    -0.230838589696E+03   -0.63040E-04   -0.76290E-05 27184   0.433E-02    0.575E-02
DAV:   6    -0.230838594230E+03   -0.45337E-05   -0.32750E-05 20696   0.290E-02
  12 F= -.23083859E+03 E0= -.23082008E+03  d E =-.162030E-02  mag=    -5.1355
       N       E                     dE             d eps       ncg     rms          rms(c)
DAV:   1    -0.230838584529E+03    0.51671E-05   -0.92580E-04 32928   0.182E-01    0.637E-02
DAV:   2    -0.230839287074E+03   -0.70254E-03   -0.77106E-04 43368   0.159E-01    0.936E-01
DAV:   3    -0.230838213622E+03    0.10735E-02   -0.59260E-04 36712   0.157E-01    0.116E-01
DAV:   4    -0.230838561536E+03   -0.34791E-03   -0.14578E-04 30432   0.692E-02    0.878E-02
DAV:   5    -0.230838584203E+03   -0.22668E-04   -0.36441E-05 23072   0.294E-02    0.490E-02
DAV:   6    -0.230838586986E+03   -0.27830E-05   -0.91254E-06 19312   0.159E-02
  13 F= -.23083859E+03 E0= -.23082007E+03  d E =-.161306E-02  mag=    -5.1355
       N       E                     dE             d eps       ncg     rms          rms(c)
DAV:   1    -0.230836357046E+03    0.22272E-02   -0.28976E-01 32448   0.304E+00    0.501E-01
DAV:   2    -0.230860164312E+03   -0.23807E-01   -0.73758E-02 44696   0.119E+00    0.478E+00
DAV:   3    -0.230830255179E+03    0.29909E-01   -0.35929E-02 38696   0.108E+00    0.100E+00
DAV:   4    -0.230840040473E+03   -0.97853E-02   -0.13595E-02 36560   0.642E-01    0.841E-01
DAV:   5    -0.230839532852E+03    0.50762E-03   -0.67522E-03 40952   0.406E-01    0.525E-01
DAV:   6    -0.230839350960E+03    0.18189E-03   -0.15965E-03 39528   0.245E-01    0.397E-01
DAV:   7    -0.230839188083E+03    0.16288E-03   -0.31202E-04 37872   0.106E-01    0.346E-01
DAV:   8    -0.230839152744E+03    0.35338E-04   -0.34274E-05 25552   0.349E-02    0.366E-01
DAV:   9    -0.230839227373E+03   -0.74629E-04   -0.12088E-04 29712   0.831E-02    0.392E-01
DAV:  10    -0.230839381878E+03   -0.15450E-03   -0.19984E-03 39960   0.240E-01    0.473E-01
DAV:  11    -0.230839276677E+03    0.10520E-03   -0.21928E-03 39160   0.299E-01    0.400E-01
DAV:  12    -0.230839356930E+03   -0.80253E-04   -0.99313E-04 37848   0.199E-01    0.341E-01
DAV:  13    -0.230839243564E+03    0.11337E-03   -0.46154E-04 38424   0.159E-01    0.273E-01
DAV:  14    -0.230839226318E+03    0.17247E-04   -0.14258E-04 33976   0.786E-02    0.245E-01
DAV:  15    -0.230839212145E+03    0.14172E-04   -0.71086E-05 29528   0.610E-02    0.233E-01
DAV:  16    -0.230839242560E+03   -0.30415E-04   -0.13273E-04 35632   0.677E-02    0.208E-01
DAV:  17    -0.230839235719E+03    0.68411E-05   -0.70869E-05 29120   0.467E-02
  14 F= -.23083924E+03 E0= -.23082084E+03  d E =-.648732E-03  mag=    -5.1356
