       N       E                     dE             d eps       ncg     rms          rms(c)
DAV:   1     0.387437888878E+03    0.38744E+03   -0.21360E+04102756   0.152E+03
DAV:   2    -0.540723452316E+02   -0.44151E+03   -0.43412E+03102726   0.493E+02
DAV:   3    -0.723143384894E+02   -0.18242E+02   -0.17121E+02136458   0.101E+02
DAV:   4    -0.728761359636E+02   -0.56180E+00   -0.55266E+00121836   0.184E+01
DAV:   5    -0.728917582809E+02   -0.15622E-01   -0.15588E-01137259   0.301E+00    0.301E+01
DAV:   6    -0.627938053649E+02    0.10098E+02   -0.20635E+01109530   0.383E+01    0.578E+00
DAV:   7    -0.638302137640E+02   -0.10364E+01   -0.33091E+00114534   0.142E+01    0.550E+00
DAV:   8    -0.639070388472E+02   -0.76825E-01   -0.28311E-01116910   0.419E+00    0.181E+00
DAV:   9    -0.639436437953E+02   -0.36605E-01   -0.91246E-02113853   0.257E+00    0.971E-01
DAV:  10    -0.639490209036E+02   -0.53771E-02   -0.61717E-02114240   0.186E+00    0.257E-01
DAV:  11    -0.639554034834E+02   -0.63826E-02   -0.12027E-02116508   0.932E-01    0.176E-01
DAV:  12    -0.639559438111E+02   -0.54033E-03   -0.23374E-03154959   0.505E-01    0.135E-01
DAV:  13    -0.639559698135E+02   -0.26002E-04   -0.14995E-03148965   0.410E-01    0.465E-02
DAV:  14    -0.639560215501E+02   -0.51737E-04   -0.31690E-04134433   0.169E-01    0.348E-02
DAV:  15    -0.639560539479E+02   -0.32398E-04   -0.10256E-04124056   0.108E-01    0.240E-02
DAV:  16    -0.639560920440E+02   -0.38096E-04   -0.67697E-05 93981   0.623E-02    0.891E-03
DAV:  17    -0.639560886190E+02    0.34250E-05   -0.91563E-06 60420   0.362E-02
   1 F= -.63956089E+02 E0= -.63954006E+02  d E =-.639561E+02  mag=    -0.0007
       N       E                     dE             d eps       ncg     rms          rms(c)
DAV:   1    -0.655070519957E+02   -0.15510E+01   -0.40130E+01102720   0.609E+01    0.118E+01
DAV:   2    -0.640304837659E+02    0.14766E+01   -0.49858E+00102720   0.195E+01    0.254E+00
DAV:   3    -0.639408579449E+02    0.89626E-01   -0.78773E-01122277   0.586E+00    0.182E+00
DAV:   4    -0.639545373886E+02   -0.13679E-01   -0.79260E-02103374   0.250E+00    0.618E-01
DAV:   5    -0.639508877992E+02    0.36496E-02   -0.28058E-02119454   0.140E+00    0.137E-01
DAV:   6    -0.639507216117E+02    0.16619E-03   -0.20426E-03137805   0.503E-01    0.594E-02
DAV:   7    -0.639505033558E+02    0.21826E-03   -0.14058E-04128856   0.118E-01    0.612E-02
DAV:   8    -0.639505254433E+02   -0.22088E-04   -0.67606E-05119310   0.870E-02    0.447E-02
DAV:   9    -0.639506551849E+02   -0.12974E-03   -0.72736E-05 96060   0.776E-02    0.517E-03
DAV:  10    -0.639506593918E+02   -0.42069E-05   -0.32462E-06 57285   0.212E-02
   2 F= -.63950659E+02 E0= -.63948793E+02  d E =0.542923E-02  mag=    -0.0000
       N       E                     dE             d eps       ncg     rms          rms(c)
DAV:   1    -0.644347534701E+02   -0.48410E+00   -0.11878E+01102720   0.341E+01    0.604E+00
DAV:   2    -0.640075680539E+02    0.42719E+00   -0.17011E+00102720   0.110E+01    0.121E+00
DAV:   3    -0.639918618980E+02    0.15706E-01   -0.19763E-01123771   0.284E+00    0.783E-01
DAV:   4    -0.639862941667E+02    0.55677E-02   -0.33277E-02102942   0.156E+00    0.488E-01
DAV:   5    -0.639855986974E+02    0.69547E-03   -0.10815E-02116181   0.937E-01    0.123E-01
DAV:   6    -0.639857528622E+02   -0.15416E-03   -0.18917E-03135921   0.451E-01    0.666E-02
DAV:   7    -0.639855498902E+02    0.20297E-03   -0.16232E-04133776   0.126E-01    0.451E-02
DAV:   8    -0.639854386387E+02    0.11125E-03   -0.63089E-05121998   0.844E-02    0.189E-02
DAV:   9    -0.639853835836E+02    0.55055E-04   -0.19592E-05 89412   0.392E-02    0.265E-03
DAV:  10    -0.639853869158E+02   -0.33322E-05   -0.97325E-07 56583   0.102E-02
   3 F= -.63985387E+02 E0= -.63983404E+02  d E =-.292983E-01  mag=    -0.0000
       N       E                     dE             d eps       ncg     rms          rms(c)
DAV:   1    -0.639977499150E+02   -0.12366E-01   -0.29252E-01102723   0.529E+00    0.970E-01
DAV:   2    -0.639847408291E+02    0.13009E-01   -0.40229E-02102756   0.170E+00    0.200E-01
DAV:   3    -0.639842263312E+02    0.51450E-03   -0.52969E-03124263   0.466E-01    0.136E-01
DAV:   4    -0.639852733693E+02   -0.10470E-02   -0.80320E-04122862   0.264E-01    0.698E-02
DAV:   5    -0.639852922392E+02   -0.18870E-04   -0.26287E-04136977   0.183E-01    0.513E-02
DAV:   6    -0.639851763857E+02    0.11585E-03   -0.19608E-04128973   0.114E-01    0.789E-03
DAV:   7    -0.639851843259E+02   -0.79401E-05   -0.50914E-06 56253   0.226E-02
   4 F= -.63985184E+02 E0= -.63983220E+02  d E =-.290957E-01  mag=     0.0000
