       N       E                     dE             d eps       ncg     rms          rms(c)
DAV:   1     0.640100273256E+04    0.64010E+04   -0.30079E+05 37408   0.170E+03
DAV:   2     0.354438766953E+03   -0.60466E+04   -0.56588E+04 35568   0.512E+02
DAV:   3    -0.295924174799E+03   -0.65036E+03   -0.63021E+03 37448   0.189E+02
DAV:   4    -0.315486908981E+03   -0.19563E+02   -0.19404E+02 38704   0.353E+01
DAV:   5    -0.315943677717E+03   -0.45677E+00   -0.45488E+00 45512   0.521E+00    0.879E+01
DAV:   6    -0.250569971603E+03    0.65374E+02   -0.68244E+02 42952   0.113E+02    0.212E+02
DAV:   7    -0.208574582854E+03    0.41995E+02   -0.12785E+02 41408   0.482E+01    0.892E+01
DAV:   8    -0.221905994946E+03   -0.13331E+02   -0.10388E+02 49680   0.766E+01    0.125E+02
DAV:   9    -0.173205587053E+03    0.48700E+02   -0.58005E+01 43248   0.573E+01    0.769E+01
DAV:  10    -0.201943231696E+03   -0.28738E+02   -0.14024E+02 42544   0.521E+01    0.111E+02
DAV:  11    -0.186967232388E+03    0.14976E+02   -0.60606E+01 44344   0.237E+01    0.794E+01
DAV:  12    -0.192189408319E+03   -0.52222E+01   -0.49973E+01 43592   0.235E+01    0.808E+01
DAV:  13    -0.189462474157E+03    0.27269E+01   -0.11358E+01 40064   0.222E+01    0.763E+01
DAV:  14    -0.200372087515E+03   -0.10910E+02   -0.34973E+01 42712   0.247E+01    0.879E+01
DAV:  15    -0.199979730477E+03    0.39236E+00   -0.59807E+01 42744   0.280E+01    0.746E+01
DAV:  16    -0.205070093200E+03   -0.50904E+01   -0.39824E+01 44728   0.234E+01    0.711E+01
DAV:  17    -0.207305075437E+03   -0.22350E+01   -0.42345E+01 42760   0.250E+01    0.583E+01
DAV:  18    -0.203831810552E+03    0.34733E+01   -0.10522E+01 44208   0.140E+01    0.429E+01
DAV:  19    -0.208821641627E+03   -0.49898E+01   -0.11427E+01 42896   0.117E+01    0.339E+01
DAV:  20    -0.211248926605E+03   -0.24273E+01   -0.89771E+00 42568   0.116E+01    0.288E+01
DAV:  21    -0.213595150846E+03   -0.23462E+01   -0.79346E+00 42432   0.709E+00    0.302E+01
DAV:  22    -0.214294113695E+03   -0.69896E+00   -0.12574E+00 40416   0.382E+00    0.257E+01
DAV:  23    -0.214824630584E+03   -0.53052E+00   -0.12946E+00 44376   0.315E+00    0.249E+01
DAV:  24    -0.218013636492E+03   -0.31890E+01   -0.15711E+00 42320   0.534E+00    0.223E+01
DAV:  25    -0.220809867362E+03   -0.27962E+01   -0.41997E+00 40656   0.786E+00    0.233E+01
DAV:  26    -0.221737589671E+03   -0.92772E+00   -0.26976E+00 43312   0.730E+00    0.205E+01
DAV:  27    -0.222136514569E+03   -0.39892E+00   -0.15666E+00 41688   0.456E+00    0.176E+01
DAV:  28    -0.223531499907E+03   -0.13950E+01   -0.95271E-01 40840   0.493E+00    0.172E+01
DAV:  29    -0.224191837026E+03   -0.66034E+00   -0.52166E-01 40448   0.336E+00    0.159E+01
DAV:  30    -0.224327487063E+03   -0.13565E+00   -0.10628E-01 41072   0.163E+00    0.151E+01
DAV:  31    -0.224482583410E+03   -0.15510E+00   -0.35966E-02 40952   0.847E-01    0.148E+01
DAV:  32    -0.224768497448E+03   -0.28591E+00   -0.13011E-01 43640   0.204E+00    0.133E+01
DAV:  33    -0.225487118694E+03   -0.71862E+00   -0.22979E-01 41896   0.220E+00    0.116E+01
DAV:  34    -0.226196092711E+03   -0.70897E+00   -0.23690E-01 41528   0.179E+00    0.108E+01
DAV:  35    -0.227203931709E+03   -0.10078E+01   -0.66228E-01 40896   0.319E+00    0.112E+01
DAV:  36    -0.227620824252E+03   -0.41689E+00   -0.31091E-01 40408   0.276E+00    0.107E+01
DAV:  37    -0.227728253876E+03   -0.10743E+00   -0.80157E-02 41832   0.152E+00    0.988E+00
DAV:  38    -0.228071683996E+03   -0.34343E+00   -0.56485E-01 43136   0.257E+00    0.746E+00
DAV:  39    -0.228246286236E+03   -0.17460E+00   -0.14648E-01 40352   0.196E+00    0.699E+00
DAV:  40    -0.228310091523E+03   -0.63805E-01   -0.75489E-02 41688   0.135E+00    0.608E+00
DAV:  41    -0.228438106530E+03   -0.12802E+00   -0.10654E-01 41184   0.911E-01    0.613E+00
DAV:  42    -0.228512947405E+03   -0.74841E-01   -0.59792E-02 40216   0.102E+00    0.577E+00
DAV:  43    -0.228549376273E+03   -0.36429E-01   -0.29619E-02 41680   0.804E-01    0.557E+00
DAV:  44    -0.228563617907E+03   -0.14242E-01   -0.84512E-02 42608   0.102E+00    0.457E+00
DAV:  45    -0.228593060205E+03   -0.29442E-01   -0.57913E-02 40760   0.103E+00    0.412E+00
DAV:  46    -0.228612833767E+03   -0.19774E-01   -0.35232E-02 42872   0.677E-01    0.394E+00
DAV:  47    -0.228612629611E+03    0.20416E-03   -0.12576E-02 42272   0.592E-01    0.342E+00
DAV:  48    -0.228607122036E+03    0.55076E-02   -0.19393E-02 43872   0.625E-01    0.268E+00
DAV:  49    -0.228610916473E+03   -0.37944E-02   -0.12594E-02 44264   0.439E-01    0.237E+00
DAV:  50    -0.228613906598E+03   -0.29901E-02   -0.61289E-03 41880   0.283E-01    0.205E+00
DAV:  51    -0.228621807528E+03   -0.79009E-02   -0.10418E-01 42824   0.124E+00    0.289E+00
DAV:  52    -0.228620090806E+03    0.17167E-02   -0.50988E-02 42792   0.975E-01    0.185E+00
DAV:  53    -0.228620476794E+03   -0.38599E-03   -0.14533E-02 45368   0.446E-01    0.180E+00
DAV:  54    -0.228620504390E+03   -0.27596E-04   -0.12198E-02 46400   0.291E-01    0.186E+00
DAV:  55    -0.228619220196E+03    0.12842E-02   -0.24798E-03 35944   0.153E-01    0.180E+00
DAV:  56    -0.228620036048E+03   -0.81585E-03   -0.11813E-02 44080   0.507E-01    0.192E+00
DAV:  57    -0.228620879436E+03   -0.84339E-03   -0.13432E-03 35432   0.126E-01    0.197E+00
DAV:  58    -0.228619699381E+03    0.11801E-02   -0.29036E-03 44048   0.157E-01    0.199E+00
DAV:  59    -0.228616918744E+03    0.27806E-02   -0.14138E-02 46376   0.336E-01    0.211E+00
DAV:  60    -0.228617261449E+03   -0.34271E-03   -0.79096E-03 44384   0.395E-01    0.198E+00
DAV:  61    -0.228629075528E+03   -0.11814E-01   -0.52921E-02 45352   0.790E-01    0.391E+00
DAV:  62    -0.228629846561E+03   -0.77103E-03   -0.83020E-03 36576   0.363E-01    0.467E+00
DAV:  63    -0.228626700666E+03    0.31459E-02   -0.22918E-03 39688   0.227E-01    0.526E+00
DAV:  64    -0.228618736756E+03    0.79639E-02   -0.12068E-03 42056   0.196E-01    0.482E+00
DAV:  65    -0.228606751028E+03    0.11986E-01   -0.13062E-02 47192   0.455E-01    0.217E+00
DAV:  66    -0.228626290892E+03   -0.19540E-01   -0.50534E-02 40992   0.926E-01    0.282E+00
DAV:  67    -0.228628159759E+03   -0.18689E-02   -0.11422E-02 40520   0.672E-01    0.306E+00
DAV:  68    -0.228639615911E+03   -0.11456E-01   -0.33597E-03 43088   0.260E-01    0.497E+00
DAV:  69    -0.228630167196E+03    0.94487E-02   -0.26414E-03 33456   0.223E-01    0.510E+00
DAV:  70    -0.228628192682E+03    0.19745E-02   -0.28404E-04 38200   0.541E-02    0.528E+00
DAV:  71    -0.228612210076E+03    0.15983E-01   -0.10496E-02 48048   0.383E-01    0.370E+00
DAV:  72    -0.228625251362E+03   -0.13041E-01   -0.91106E-03 39480   0.423E-01    0.409E+00
DAV:  73    -0.228621375080E+03    0.38763E-02   -0.61409E-03 45000   0.185E-01    0.362E+00
DAV:  74    -0.228622131725E+03   -0.75665E-03   -0.81239E-04 34448   0.858E-02    0.336E+00
DAV:  75    -0.228622030443E+03    0.10128E-03   -0.12405E-03 43576   0.137E-01    0.323E+00
DAV:  76    -0.228626593161E+03   -0.45627E-02   -0.57012E-03 45328   0.247E-01    0.353E+00
DAV:  77    -0.228617111264E+03    0.94819E-02   -0.47818E-03 42872   0.268E-01    0.237E+00
DAV:  78    -0.228618967973E+03   -0.18567E-02   -0.18303E-02 43528   0.291E-01    0.183E+00
DAV:  79    -0.228622448387E+03   -0.34804E-02   -0.30782E-03 40800   0.224E-01    0.179E+00
DAV:  80    -0.228623160628E+03   -0.71224E-03   -0.15369E-03 43728   0.135E-01    0.181E+00
DAV:  81    -0.228621979889E+03    0.11807E-02   -0.65007E-03 45640   0.365E-01    0.181E+00
DAV:  82    -0.228620900777E+03    0.10791E-02   -0.72770E-03 43336   0.267E-01    0.152E+00
DAV:  83    -0.228622769583E+03   -0.18688E-02   -0.19605E-03 42848   0.225E-01    0.173E+00
DAV:  84    -0.228622804888E+03   -0.35305E-04   -0.36655E-04 35336   0.754E-02    0.181E+00
DAV:  85    -0.228622687210E+03    0.11768E-03   -0.72630E-04 39216   0.826E-02    0.211E+00
DAV:  86    -0.228622422427E+03    0.26478E-03   -0.23936E-03 43080   0.173E-01    0.239E+00
DAV:  87    -0.228622010169E+03    0.41226E-03   -0.31125E-04 35312   0.594E-02    0.250E+00
DAV:  88    -0.228621832577E+03    0.17759E-03   -0.37102E-05 28288   0.254E-02    0.261E+00
DAV:  89    -0.228620833351E+03    0.99923E-03   -0.29985E-04 34136   0.495E-02    0.258E+00
DAV:  90    -0.228620082954E+03    0.75040E-03   -0.49514E-04 41368   0.589E-02    0.246E+00
DAV:  91    -0.228620728872E+03   -0.64592E-03   -0.66802E-03 43512   0.278E-01    0.276E+00
DAV:  92    -0.228620711336E+03    0.17536E-04   -0.16271E-03 41912   0.171E-01    0.270E+00
DAV:  93    -0.228620837615E+03   -0.12628E-03   -0.12925E-04 33768   0.341E-02    0.275E+00
DAV:  94    -0.228621091404E+03   -0.25379E-03   -0.99644E-05 27288   0.412E-02    0.280E+00
DAV:  95    -0.228620558457E+03    0.53295E-03   -0.34380E-04 43928   0.731E-02    0.278E+00
DAV:  96    -0.228620949946E+03   -0.39149E-03   -0.13046E-03 44096   0.136E-01    0.285E+00
DAV:  97    -0.228619010237E+03    0.19397E-02   -0.28635E-03 46176   0.157E-01    0.247E+00
DAV:  98    -0.228619887813E+03   -0.87758E-03   -0.35489E-03 43088   0.112E-01    0.213E+00
DAV:  99    -0.228621010915E+03   -0.11231E-02   -0.19561E-03 41032   0.117E-01    0.193E+00
DAV: 100    -0.228622926020E+03   -0.19151E-02   -0.50646E-03 44096   0.153E-01    0.221E+00
DAV: 101    -0.228621530546E+03    0.13955E-02   -0.23761E-03 42152   0.161E-01    0.207E+00
DAV: 102    -0.228621932208E+03   -0.40166E-03   -0.12626E-03 39232   0.815E-02    0.208E+00
DAV: 103    -0.228621087583E+03    0.84463E-03   -0.13031E-03 41808   0.675E-02    0.206E+00
DAV: 104    -0.228620969355E+03    0.11823E-03   -0.29455E-03 41440   0.105E-01    0.197E+00
DAV: 105    -0.228620046066E+03    0.92329E-03   -0.52098E-03 45016   0.116E-01    0.187E+00
DAV: 106    -0.228619757365E+03    0.28870E-03   -0.54906E-03 44296   0.145E-01    0.197E+00
DAV: 107    -0.228620849612E+03   -0.10922E-02   -0.60799E-04 35096   0.843E-02    0.205E+00
DAV: 108    -0.228621874495E+03   -0.10249E-02   -0.38558E-04 37336   0.589E-02    0.234E+00
DAV: 109    -0.228621547880E+03    0.32661E-03   -0.87847E-05 30592   0.371E-02    0.246E+00
DAV: 110    -0.228621479760E+03    0.68120E-04   -0.66104E-05 25952   0.225E-02    0.258E+00
DAV: 111    -0.228623596678E+03   -0.21169E-02   -0.20031E-03 42184   0.127E-01    0.307E+00
DAV: 112    -0.228621142845E+03    0.24538E-02   -0.58436E-04 38888   0.108E-01    0.294E+00
DAV: 113    -0.228620829476E+03    0.31337E-03   -0.70697E-04 42480   0.633E-02    0.275E+00
DAV: 114    -0.228621119927E+03   -0.29045E-03   -0.60425E-04 41280   0.570E-02    0.260E+00
DAV: 115    -0.228620825317E+03    0.29461E-03   -0.24476E-04 38880   0.614E-02    0.254E+00
DAV: 116    -0.228621340993E+03   -0.51568E-03   -0.96517E-04 41088   0.626E-02    0.277E+00
DAV: 117    -0.228620841074E+03    0.49992E-03   -0.36152E-04 33920   0.608E-02    0.284E+00
DAV: 118    -0.228619994029E+03    0.84704E-03   -0.76965E-05 31096   0.279E-02    0.279E+00
DAV: 119    -0.228619477474E+03    0.51655E-03   -0.37568E-05 25824   0.253E-02    0.273E+00
DAV: 120    -0.228618620313E+03    0.85716E-03   -0.91960E-05 34088   0.363E-02    0.261E+00
DAV: 121    -0.228617360215E+03    0.12601E-02   -0.46053E-04 42608   0.751E-02    0.243E+00
DAV: 122    -0.228618143256E+03   -0.78304E-03   -0.17160E-04 35280   0.528E-02    0.242E+00
DAV: 123    -0.228617411487E+03    0.73177E-03   -0.16672E-04 35008   0.488E-02    0.229E+00
DAV: 124    -0.228617825404E+03   -0.41392E-03   -0.34255E-05 27960   0.226E-02    0.224E+00
DAV: 125    -0.228618008531E+03   -0.18313E-03   -0.31003E-05 22528   0.125E-02    0.219E+00
DAV: 126    -0.228617565084E+03    0.44345E-03   -0.64458E-04 41112   0.923E-02    0.210E+00
DAV: 127    -0.228617606816E+03   -0.41732E-04   -0.38240E-04 38096   0.716E-02    0.209E+00
DAV: 128    -0.228617443160E+03    0.16366E-03   -0.94562E-05 27856   0.300E-02    0.209E+00
DAV: 129    -0.228617264960E+03    0.17820E-03   -0.95344E-05 26464   0.234E-02    0.208E+00
DAV: 130    -0.228617235991E+03    0.28969E-04   -0.33771E-05 22760   0.144E-02    0.209E+00
DAV: 131    -0.228617308640E+03   -0.72649E-04   -0.22082E-02 43856   0.230E-01    0.249E+00
DAV: 132    -0.228617464162E+03   -0.15552E-03   -0.21984E-03 34184   0.175E-01    0.264E+00
DAV: 133    -0.228616229101E+03    0.12351E-02   -0.81672E-04 36832   0.823E-02    0.276E+00
DAV: 134    -0.228615276143E+03    0.95296E-03   -0.27160E-04 34472   0.472E-02    0.285E+00
DAV: 135    -0.228615057720E+03    0.21842E-03   -0.18129E-04 31824   0.365E-02    0.283E+00
DAV: 136    -0.228614911461E+03    0.14626E-03   -0.18414E-03 43992   0.110E-01    0.260E+00
DAV: 137    -0.228616635949E+03   -0.17245E-02   -0.20197E-03 43232   0.848E-02    0.260E+00
DAV: 138    -0.228617131654E+03   -0.49570E-03   -0.14968E-03 36472   0.903E-02    0.270E+00
DAV: 139    -0.228616926707E+03    0.20495E-03   -0.34448E-04 31488   0.421E-02    0.270E+00
DAV: 140    -0.228617013006E+03   -0.86299E-04   -0.25626E-04 32680   0.365E-02    0.267E+00
DAV: 141    -0.228616171678E+03    0.84133E-03   -0.61389E-03 43600   0.117E-01    0.243E+00
DAV: 142    -0.228617604547E+03   -0.14329E-02   -0.40722E-03 41096   0.136E-01    0.235E+00
DAV: 143    -0.228618753646E+03   -0.11491E-02   -0.83364E-03 44752   0.127E-01    0.215E+00
DAV: 144    -0.228620463370E+03   -0.17097E-02   -0.81926E-04 34416   0.929E-02    0.207E+00
DAV: 145    -0.228620728291E+03   -0.26492E-03   -0.11245E-04 33512   0.375E-02    0.206E+00
DAV: 146    -0.228623284205E+03   -0.25559E-02   -0.14365E-02 41496   0.155E-01    0.202E+00
DAV: 147    -0.228624266495E+03   -0.98229E-03   -0.10889E-03 35064   0.114E-01    0.202E+00
DAV: 148    -0.228623202669E+03    0.10638E-02   -0.11004E-03 34872   0.612E-02    0.190E+00
DAV: 149    -0.228623079238E+03    0.12343E-03   -0.21261E-04 30704   0.301E-02    0.186E+00
DAV: 150    -0.228622684810E+03    0.39443E-03   -0.33890E-04 38120   0.530E-02    0.178E+00
DAV: 151    -0.228619092542E+03    0.35923E-02   -0.93019E-03 42800   0.171E-01    0.159E+00
DAV: 152    -0.228619050963E+03    0.41579E-04   -0.98667E-04 41840   0.145E-01    0.135E+00
DAV: 153    -0.228618891604E+03    0.15936E-03   -0.70755E-04 43720   0.943E-02    0.107E+00
DAV: 154    -0.228618805585E+03    0.86019E-04   -0.57415E-04 42088   0.791E-02    0.880E-01
DAV: 155    -0.228619303014E+03   -0.49743E-03   -0.30090E-04 33512   0.540E-02    0.828E-01
DAV: 156    -0.228619553802E+03   -0.25079E-03   -0.14669E-04 26576   0.328E-02    0.897E-01
DAV: 157    -0.228619453302E+03    0.10050E-03   -0.29590E-04 35096   0.486E-02    0.840E-01
DAV: 158    -0.228619496144E+03   -0.42842E-04   -0.46609E-04 37648   0.406E-02    0.757E-01
DAV: 159    -0.228619526512E+03   -0.30368E-04   -0.11931E-03 40512   0.600E-02    0.685E-01
DAV: 160    -0.228619638170E+03   -0.11166E-03   -0.10883E-03 40848   0.563E-02    0.662E-01
DAV: 161    -0.228619737735E+03   -0.99566E-04   -0.27162E-03 42256   0.728E-02    0.653E-01
DAV: 162    -0.228619943611E+03   -0.20588E-03   -0.41491E-04 35176   0.465E-02    0.700E-01
DAV: 163    -0.228619855404E+03    0.88207E-04   -0.35264E-05 25536   0.214E-02    0.706E-01
DAV: 164    -0.228620010579E+03   -0.15518E-03   -0.45291E-04 33952   0.428E-02    0.755E-01
DAV: 165    -0.228620218777E+03   -0.20820E-03   -0.11348E-04 26040   0.218E-02    0.819E-01
DAV: 166    -0.228621419408E+03   -0.12006E-02   -0.30115E-03 42624   0.131E-01    0.138E+00
DAV: 167    -0.228622014451E+03   -0.59504E-03   -0.11616E-03 40136   0.778E-02    0.179E+00
DAV: 168    -0.228621192297E+03    0.82215E-03   -0.12379E-04 32104   0.503E-02    0.188E+00
DAV: 169    -0.228620832372E+03    0.35993E-03   -0.22096E-05 26744   0.170E-02    0.194E+00
DAV: 170    -0.228620623755E+03    0.20862E-03   -0.48691E-06 20984   0.861E-03    0.196E+00
DAV: 171    -0.228621847319E+03   -0.12236E-02   -0.10255E-03 38168   0.571E-02    0.232E+00
DAV: 172    -0.228621286571E+03    0.56075E-03   -0.16861E-04 32464   0.432E-02    0.243E+00
DAV: 173    -0.228620657545E+03    0.62903E-03   -0.45677E-04 34896   0.431E-02    0.246E+00
DAV: 174    -0.228620108060E+03    0.54949E-03   -0.79621E-05 27288   0.253E-02    0.239E+00
DAV: 175    -0.228620070886E+03    0.37173E-04   -0.23310E-05 21384   0.113E-02    0.235E+00
DAV: 176    -0.228619896965E+03    0.17392E-03   -0.59955E-04 38168   0.569E-02    0.228E+00
DAV: 177    -0.228620114934E+03   -0.21797E-03   -0.97519E-05 29768   0.364E-02    0.226E+00
DAV: 178    -0.228620264144E+03   -0.14921E-03   -0.50623E-05 24928   0.167E-02    0.225E+00
DAV: 179    -0.228620228536E+03    0.35608E-04   -0.15159E-05 20288   0.956E-03    0.224E+00
DAV: 180    -0.228620232141E+03   -0.36055E-05   -0.24639E-06 18648   0.557E-03
   1 F= -.22862023E+03 E0= -.22860129E+03  d E =-.228620E+03  mag=     8.0713
       N       E                     dE             d eps       ncg     rms          rms(c)
DAV:   1    -0.228641192122E+03   -0.20964E-01   -0.10435E-02 35592   0.246E-01    0.253E+00
DAV:   2    -0.229122733974E+03   -0.48154E+00   -0.39189E+00 42392   0.611E+00    0.103E+01
DAV:   3    -0.228718398887E+03    0.40434E+00   -0.40330E-01 38320   0.542E+00    0.426E+00
DAV:   4    -0.228663252156E+03    0.55147E-01   -0.87877E-02 47744   0.192E+00    0.351E+00
DAV:   5    -0.228650813556E+03    0.12439E-01   -0.58185E-02 42296   0.121E+00    0.244E+00
DAV:   6    -0.228655323517E+03   -0.45100E-02   -0.81819E-03 42144   0.465E-01    0.279E+00
DAV:   7    -0.228647276586E+03    0.80469E-02   -0.18836E-02 41184   0.110E+00    0.254E+00
DAV:   8    -0.228641652046E+03    0.56245E-02   -0.12365E-01 43496   0.110E+00    0.249E+00
DAV:   9    -0.228638843037E+03    0.28090E-02   -0.25558E-02 41728   0.989E-01    0.181E+00
DAV:  10    -0.228639775060E+03   -0.93202E-03   -0.30100E-02 42208   0.646E-01    0.128E+00
DAV:  11    -0.228643824865E+03   -0.40498E-02   -0.18901E-02 39824   0.277E-01    0.242E+00
DAV:  12    -0.228647183773E+03   -0.33589E-02   -0.26680E-02 41584   0.610E-01    0.385E+00
DAV:  13    -0.228632170631E+03    0.15013E-01   -0.27654E-02 42032   0.533E-01    0.257E+00
DAV:  14    -0.228636501300E+03   -0.43307E-02   -0.11236E-02 41800   0.293E-01    0.176E+00
DAV:  15    -0.228642618317E+03   -0.61170E-02   -0.21253E-03 35856   0.156E-01    0.187E+00
DAV:  16    -0.228643577552E+03   -0.95923E-03   -0.20704E-03 41000   0.234E-01    0.197E+00
DAV:  17    -0.228643935567E+03   -0.35802E-03   -0.28617E-04 37720   0.655E-02    0.205E+00
DAV:  18    -0.228644131095E+03   -0.19553E-03   -0.56476E-03 42752   0.248E-01    0.205E+00
DAV:  19    -0.228643997208E+03    0.13389E-03   -0.80176E-03 41896   0.363E-01    0.240E+00
DAV:  20    -0.228643863805E+03    0.13340E-03   -0.31415E-03 41520   0.203E-01    0.318E+00
DAV:  21    -0.228639156900E+03    0.47069E-02   -0.19304E-03 40368   0.155E-01    0.301E+00
DAV:  22    -0.228638738568E+03    0.41833E-03   -0.45891E-03 43752   0.250E-01    0.271E+00
DAV:  23    -0.228641060169E+03   -0.23216E-02   -0.68813E-03 44952   0.252E-01    0.262E+00
DAV:  24    -0.228639808410E+03    0.12518E-02   -0.10623E-03 42000   0.112E-01    0.230E+00
DAV:  25    -0.228639041108E+03    0.76730E-03   -0.12901E-03 43552   0.168E-01    0.135E+00
DAV:  26    -0.228642392940E+03   -0.33518E-02   -0.40040E-03 41768   0.252E-01    0.647E-01
DAV:  27    -0.228643926353E+03   -0.15334E-02   -0.46712E-03 43536   0.173E-01    0.615E-01
DAV:  28    -0.228644006551E+03   -0.80198E-04   -0.33914E-03 43608   0.931E-02    0.745E-01
DAV:  29    -0.228643819776E+03    0.18677E-03   -0.45825E-03 40416   0.109E-01    0.672E-01
DAV:  30    -0.228643952336E+03   -0.13256E-03   -0.17901E-03 42096   0.104E-01    0.647E-01
DAV:  31    -0.228643909457E+03    0.42879E-04   -0.14852E-03 43712   0.885E-02    0.458E-01
DAV:  32    -0.228643243906E+03    0.66555E-03   -0.24067E-03 43000   0.100E-01    0.352E-01
DAV:  33    -0.228642730018E+03    0.51389E-03   -0.85347E-04 41040   0.681E-02    0.322E-01
DAV:  34    -0.228642683083E+03    0.46935E-04   -0.13110E-04 32992   0.253E-02    0.323E-01
DAV:  35    -0.228642583587E+03    0.99496E-04   -0.22098E-04 31664   0.276E-02    0.322E-01
DAV:  36    -0.228641667972E+03    0.91562E-03   -0.25254E-03 42256   0.888E-02    0.317E-01
DAV:  37    -0.228641505833E+03    0.16214E-03   -0.43515E-04 40288   0.462E-02    0.311E-01
DAV:  38    -0.228641239759E+03    0.26607E-03   -0.12552E-04 30664   0.290E-02    0.307E-01
DAV:  39    -0.228641427943E+03   -0.18818E-03   -0.42343E-05 28368   0.211E-02    0.291E-01
DAV:  40    -0.228642041873E+03   -0.61393E-03   -0.26072E-03 41144   0.120E-01    0.312E-01
DAV:  41    -0.228641739327E+03    0.30255E-03   -0.32604E-03 43944   0.931E-02    0.377E-01
DAV:  42    -0.228642054810E+03   -0.31548E-03   -0.73488E-04 40312   0.547E-02    0.521E-01
DAV:  43    -0.228641959359E+03    0.95451E-04   -0.88064E-04 37176   0.469E-02    0.611E-01
DAV:  44    -0.228641844947E+03    0.11441E-03   -0.14972E-03 40448   0.487E-02    0.786E-01
DAV:  45    -0.228641950740E+03   -0.10579E-03   -0.23940E-04 31208   0.413E-02    0.771E-01
DAV:  46    -0.228641880088E+03    0.70652E-04   -0.40118E-03 39752   0.736E-02    0.622E-01
DAV:  47    -0.228642870195E+03   -0.99011E-03   -0.61981E-04 38208   0.790E-02    0.632E-01
DAV:  48    -0.228642194931E+03    0.67526E-03   -0.11507E-02 40448   0.138E-01    0.852E-01
DAV:  49    -0.228642535080E+03   -0.34015E-03   -0.24165E-03 41472   0.855E-02    0.985E-01
DAV:  50    -0.228642400814E+03    0.13427E-03   -0.39961E-04 37192   0.477E-02    0.997E-01
DAV:  51    -0.228642141593E+03    0.25922E-03   -0.48298E-05 29096   0.248E-02    0.902E-01
DAV:  52    -0.228641518785E+03    0.62281E-03   -0.61490E-04 39960   0.652E-02    0.105E+00
DAV:  53    -0.228640745671E+03    0.77311E-03   -0.12698E-03 41672   0.620E-02    0.975E-01
DAV:  54    -0.228641225791E+03   -0.48012E-03   -0.10090E-04 31040   0.360E-02    0.943E-01
DAV:  55    -0.228641308563E+03   -0.82772E-04   -0.80270E-06 23192   0.765E-03    0.943E-01
DAV:  56    -0.228641204208E+03    0.10436E-03   -0.92410E-06 19488   0.667E-03    0.899E-01
DAV:  57    -0.228641641487E+03   -0.43728E-03   -0.82732E-05 27328   0.297E-02    0.102E+00
DAV:  58    -0.228641368200E+03    0.27329E-03   -0.13726E-05 22752   0.163E-02    0.990E-01
DAV:  59    -0.228641351782E+03    0.16418E-04   -0.17135E-06 17000   0.433E-03    0.986E-01
DAV:  60    -0.228641279517E+03    0.72265E-04   -0.98078E-06 17904   0.594E-03    0.968E-01
DAV:  61    -0.228641307328E+03   -0.27811E-04   -0.12763E-06 17696   0.378E-03    0.963E-01
DAV:  62    -0.228641497238E+03   -0.18991E-03   -0.65957E-05 23464   0.262E-02    0.107E+00
DAV:  63    -0.228641159234E+03    0.33800E-03   -0.13375E-05 21896   0.217E-02    0.103E+00
DAV:  64    -0.228641194106E+03   -0.34872E-04   -0.32101E-06 18576   0.609E-03    0.102E+00
DAV:  65    -0.228641209761E+03   -0.15655E-04   -0.78585E-07 16736   0.241E-03    0.102E+00
DAV:  66    -0.228641323522E+03   -0.11376E-03   -0.14682E-05 18256   0.737E-03    0.103E+00
DAV:  67    -0.228641412689E+03   -0.89167E-04   -0.40436E-05 21160   0.163E-02    0.112E+00
DAV:  68    -0.228641197555E+03    0.21513E-03   -0.19620E-05 21736   0.133E-02    0.111E+00
DAV:  69    -0.228641454271E+03   -0.25672E-03   -0.72267E-05 25488   0.276E-02    0.112E+00
DAV:  70    -0.228641499986E+03   -0.45714E-04   -0.47188E-05 26624   0.185E-02    0.112E+00
DAV:  71    -0.228641577795E+03   -0.77810E-04   -0.42837E-05 22424   0.162E-02    0.113E+00
DAV:  72    -0.228641509547E+03    0.68248E-04   -0.14778E-04 31152   0.390E-02    0.123E+00
DAV:  73    -0.228640807569E+03    0.70198E-03   -0.13453E-04 36488   0.324E-02    0.117E+00
DAV:  74    -0.228640663559E+03    0.14401E-03   -0.26962E-05 28984   0.213E-02    0.110E+00
DAV:  75    -0.228640691945E+03   -0.28386E-04   -0.15201E-05 23432   0.137E-02    0.104E+00
DAV:  76    -0.228640389807E+03    0.30214E-03   -0.71848E-05 28984   0.221E-02    0.930E-01
DAV:  77    -0.228638990477E+03    0.13993E-02   -0.10710E-03 42808   0.949E-02    0.673E-01
DAV:  78    -0.228639234833E+03   -0.24436E-03   -0.36432E-04 40720   0.606E-02    0.555E-01
DAV:  79    -0.228639483233E+03   -0.24840E-03   -0.47806E-05 30784   0.268E-02    0.496E-01
DAV:  80    -0.228639609241E+03   -0.12601E-03   -0.86234E-06 22200   0.115E-02    0.480E-01
DAV:  81    -0.228639587528E+03    0.21713E-04   -0.53113E-06 19056   0.694E-03    0.474E-01
DAV:  82    -0.228639914044E+03   -0.32652E-03   -0.15977E-04 28344   0.310E-02    0.538E-01
DAV:  83    -0.228639711570E+03    0.20247E-03   -0.36082E-05 24336   0.226E-02    0.536E-01
DAV:  84    -0.228639749466E+03   -0.37896E-04   -0.32357E-06 18016   0.830E-03    0.542E-01
DAV:  85    -0.228639748023E+03    0.14436E-05   -0.83690E-07 17128   0.305E-03
   2 F= -.22863975E+03 E0= -.22862410E+03  d E =-.195159E-01  mag=     8.0516
       N       E                     dE             d eps       ncg     rms          rms(c)
DAV:   1    -0.229070689077E+03   -0.43094E+00   -0.29110E+00 33512   0.443E+00    0.770E-01
DAV:   2    -0.229139001861E+03   -0.68313E-01   -0.65899E-01 38800   0.178E+00    0.429E+00
DAV:   3    -0.229093231508E+03    0.45770E-01   -0.53646E-02 41872   0.118E+00    0.260E+00
DAV:   4    -0.229090905231E+03    0.23263E-02   -0.22464E-02 44760   0.549E-01    0.254E+00
DAV:   5    -0.229084811725E+03    0.60935E-02   -0.27889E-02 43464   0.376E-01    0.174E+00
DAV:   6    -0.229086310519E+03   -0.14988E-02   -0.13580E-03 38008   0.129E-01    0.171E+00
DAV:   7    -0.229086818322E+03   -0.50780E-03   -0.15385E-04 34944   0.564E-02    0.168E+00
DAV:   8    -0.229087025423E+03   -0.20710E-03   -0.17272E-05 23696   0.158E-02    0.167E+00
DAV:   9    -0.229084763433E+03    0.22620E-02   -0.54286E-03 40192   0.375E-01    0.153E+00
DAV:  10    -0.229082872806E+03    0.18906E-02   -0.79745E-03 44216   0.385E-01    0.108E+00
DAV:  11    -0.229084153161E+03   -0.12804E-02   -0.16271E-02 43752   0.378E-01    0.105E+00
DAV:  12    -0.229085588047E+03   -0.14349E-02   -0.25796E-03 42240   0.229E-01    0.102E+00
DAV:  13    -0.229085469233E+03    0.11881E-03   -0.33235E-04 40832   0.659E-02    0.108E+00
DAV:  14    -0.229086630840E+03   -0.11616E-02   -0.33751E-03 40488   0.394E-01    0.127E+00
DAV:  15    -0.229084637823E+03    0.19930E-02   -0.73775E-03 42328   0.527E-01    0.678E-01
DAV:  16    -0.229084851979E+03   -0.21416E-03   -0.52797E-03 43552   0.422E-01    0.514E-01
DAV:  17    -0.229085002855E+03   -0.15088E-03   -0.35215E-03 44248   0.332E-01    0.442E-01
DAV:  18    -0.229085500176E+03   -0.49732E-03   -0.47216E-03 44648   0.305E-01    0.574E-01
DAV:  19    -0.229085811969E+03   -0.31179E-03   -0.17739E-03 43352   0.208E-01    0.726E-01
DAV:  20    -0.229085180795E+03    0.63117E-03   -0.14430E-03 40952   0.136E-01    0.588E-01
DAV:  21    -0.229084962089E+03    0.21871E-03   -0.20239E-03 43440   0.111E-01    0.481E-01
DAV:  22    -0.229085169164E+03   -0.20707E-03   -0.76581E-04 42672   0.824E-02    0.494E-01
DAV:  23    -0.229085224690E+03   -0.55526E-04   -0.99554E-05 31520   0.382E-02    0.513E-01
DAV:  24    -0.229085146819E+03    0.77871E-04   -0.18678E-05 22040   0.152E-02    0.536E-01
DAV:  25    -0.229085152824E+03   -0.60048E-05   -0.12696E-05 20896   0.123E-02
   3 F= -.22908515E+03 E0= -.22906869E+03  d E =-.445405E+00  mag=     8.1306
       N       E                     dE             d eps       ncg     rms          rms(c)
DAV:   1    -0.229901190432E+03   -0.81604E+00   -0.22157E+01 34080   0.132E+01    0.151E+00
DAV:   2    -0.230041504043E+03   -0.14031E+00   -0.15415E+00 36368   0.277E+00    0.283E+00
DAV:   3    -0.230044047415E+03   -0.25434E-02   -0.21297E-01 45520   0.175E+00    0.375E+00
DAV:   4    -0.230034954004E+03    0.90934E-02   -0.13199E-01 39112   0.986E-01    0.277E+00
DAV:   5    -0.230032054478E+03    0.28995E-02   -0.11989E-02 37816   0.438E-01    0.231E+00
DAV:   6    -0.230032420338E+03   -0.36586E-03   -0.14090E-02 41312   0.730E-01    0.250E+00
DAV:   7    -0.230023382914E+03    0.90374E-02   -0.36619E-02 40888   0.100E+00    0.154E+00
DAV:   8    -0.230027034427E+03   -0.36515E-02   -0.29882E-02 41768   0.969E-01    0.173E+00
DAV:   9    -0.230027380242E+03   -0.34582E-03   -0.26993E-02 42144   0.842E-01    0.151E+00
DAV:  10    -0.230027319821E+03    0.60421E-04   -0.52777E-03 43264   0.283E-01    0.153E+00
DAV:  11    -0.230026167585E+03    0.11522E-02   -0.75143E-04 42464   0.149E-01    0.163E+00
DAV:  12    -0.230025752926E+03    0.41466E-03   -0.13562E-04 33280   0.380E-02    0.166E+00
DAV:  13    -0.230024629291E+03    0.11236E-02   -0.81190E-03 42704   0.296E-01    0.158E+00
DAV:  14    -0.230027152290E+03   -0.25230E-02   -0.36614E-02 44568   0.550E-01    0.208E+00
DAV:  15    -0.230047472636E+03   -0.20320E-01   -0.18087E-02 41800   0.653E-01    0.558E+00
DAV:  16    -0.230033448900E+03    0.14024E-01   -0.69900E-03 36416   0.496E-01    0.618E+00
DAV:  17    -0.230025156275E+03    0.82926E-02   -0.13142E-03 43144   0.132E-01    0.644E+00
DAV:  18    -0.230026040357E+03   -0.88408E-03   -0.15080E-03 41064   0.232E-01    0.678E+00
DAV:  19    -0.230020560954E+03    0.54794E-02   -0.21854E-03 41448   0.289E-01    0.660E+00
DAV:  20    -0.230010640618E+03    0.99203E-02   -0.12592E-02 44448   0.461E-01    0.560E+00
DAV:  21    -0.230014699016E+03   -0.40584E-02   -0.21958E-03 37776   0.142E-01    0.529E+00
DAV:  22    -0.230024112483E+03   -0.94135E-02   -0.40567E-03 42864   0.197E-01    0.592E+00
DAV:  23    -0.230015748996E+03    0.83635E-02   -0.13230E-03 39144   0.135E-01    0.553E+00
DAV:  24    -0.230013606870E+03    0.21421E-02   -0.46994E-03 45144   0.450E-01    0.493E+00
DAV:  25    -0.230028260656E+03   -0.14654E-01   -0.33891E-02 45680   0.618E-01    0.402E+00
DAV:  26    -0.230047785597E+03   -0.19525E-01   -0.17772E-02 34448   0.366E-01    0.422E+00
DAV:  27    -0.230054305786E+03   -0.65202E-02   -0.70307E-03 35384   0.212E-01    0.485E+00
DAV:  28    -0.230051308500E+03    0.29973E-02   -0.11313E-03 35008   0.137E-01    0.505E+00
DAV:  29    -0.230050258966E+03    0.10495E-02   -0.30030E-04 38208   0.587E-02    0.516E+00
DAV:  30    -0.230054701532E+03   -0.44426E-02   -0.18388E-03 43680   0.126E-01    0.550E+00
DAV:  31    -0.230046657482E+03    0.80441E-02   -0.88551E-04 38120   0.981E-02    0.530E+00
DAV:  32    -0.230027538388E+03    0.19119E-01   -0.90661E-02 44688   0.390E-01    0.405E+00
DAV:  33    -0.230046554373E+03   -0.19016E-01   -0.15081E-02 36840   0.540E-01    0.410E+00
DAV:  34    -0.230051758312E+03   -0.52039E-02   -0.12651E-02 43240   0.183E-01    0.459E+00
DAV:  35    -0.230054844546E+03   -0.30862E-02   -0.92187E-03 42728   0.269E-01    0.530E+00
DAV:  36    -0.230032899576E+03    0.21945E-01   -0.69597E-03 44296   0.316E-01    0.458E+00
DAV:  37    -0.230024098041E+03    0.88015E-02   -0.41102E-03 45744   0.191E-01    0.387E+00
DAV:  38    -0.230016291272E+03    0.78068E-02   -0.83165E-03 44744   0.257E-01    0.279E+00
DAV:  39    -0.230010902639E+03    0.53886E-02   -0.23708E-02 45432   0.310E-01    0.131E+00
DAV:  40    -0.230017090241E+03   -0.61876E-02   -0.37286E-03 41600   0.232E-01    0.109E+00
DAV:  41    -0.230018789560E+03   -0.16993E-02   -0.78103E-04 41968   0.914E-02    0.106E+00
DAV:  42    -0.230018648401E+03    0.14116E-03   -0.93009E-04 41400   0.833E-02    0.863E-01
DAV:  43    -0.230017585046E+03    0.10634E-02   -0.21138E-03 41968   0.104E-01    0.904E-01
DAV:  44    -0.230017623840E+03   -0.38794E-04   -0.77754E-04 42640   0.592E-02    0.968E-01
DAV:  45    -0.230017877740E+03   -0.25390E-03   -0.24978E-04 36808   0.441E-02    0.873E-01
DAV:  46    -0.230018982731E+03   -0.11050E-02   -0.45886E-04 42432   0.630E-02    0.777E-01
DAV:  47    -0.230018661155E+03    0.32158E-03   -0.70120E-04 42368   0.834E-02    0.599E-01
DAV:  48    -0.230018444944E+03    0.21621E-03   -0.43938E-04 40072   0.431E-02    0.534E-01
DAV:  49    -0.230018563009E+03   -0.11807E-03   -0.37290E-04 32544   0.361E-02    0.541E-01
DAV:  50    -0.230018474554E+03    0.88455E-04   -0.25681E-04 36184   0.405E-02    0.550E-01
DAV:  51    -0.230018990191E+03   -0.51564E-03   -0.40067E-04 36920   0.355E-02    0.565E-01
DAV:  52    -0.230019109209E+03   -0.11902E-03   -0.12615E-04 30384   0.325E-02    0.497E-01
DAV:  53    -0.230020065172E+03   -0.95596E-03   -0.11892E-03 38792   0.466E-02    0.537E-01
DAV:  54    -0.230020415786E+03   -0.35061E-03   -0.27627E-04 34912   0.338E-02    0.531E-01
DAV:  55    -0.230020361814E+03    0.53971E-04   -0.31278E-05 23792   0.164E-02    0.536E-01
DAV:  56    -0.230020494124E+03   -0.13231E-03   -0.35006E-05 22912   0.128E-02    0.532E-01
DAV:  57    -0.230021878488E+03   -0.13844E-02   -0.26320E-03 39944   0.744E-02    0.525E-01
DAV:  58    -0.230021928931E+03   -0.50443E-04   -0.35889E-04 34136   0.384E-02    0.532E-01
DAV:  59    -0.230021857992E+03    0.70939E-04   -0.36069E-05 23784   0.164E-02    0.536E-01
DAV:  60    -0.230021570571E+03    0.28742E-03   -0.40567E-05 23224   0.202E-02    0.513E-01
DAV:  61    -0.230021519315E+03    0.51256E-04   -0.24077E-05 24648   0.166E-02    0.525E-01
DAV:  62    -0.230021800154E+03   -0.28084E-03   -0.65213E-05 22216   0.203E-02    0.561E-01
DAV:  63    -0.230021688571E+03    0.11158E-03   -0.24922E-05 21592   0.147E-02    0.574E-01
DAV:  64    -0.230021668629E+03    0.19941E-04   -0.23736E-05 18856   0.102E-02    0.585E-01
DAV:  65    -0.230021709234E+03   -0.40605E-04   -0.22160E-05 20704   0.967E-03    0.596E-01
DAV:  66    -0.230021692969E+03    0.16265E-04   -0.15963E-05 18384   0.693E-03    0.601E-01
DAV:  67    -0.230021709259E+03   -0.16290E-04   -0.10191E-03 38256   0.603E-02    0.505E-01
DAV:  68    -0.230021875412E+03   -0.16615E-03   -0.65648E-05 31352   0.353E-02    0.494E-01
DAV:  69    -0.230021677747E+03    0.19766E-03   -0.20538E-05 21800   0.141E-02    0.491E-01
DAV:  70    -0.230021733048E+03   -0.55301E-04   -0.62041E-06 19272   0.770E-03    0.494E-01
DAV:  71    -0.230021739822E+03   -0.67736E-05   -0.16614E-06 17256   0.520E-03
   4 F= -.23002174E+03 E0= -.23000541E+03  d E =-.936587E+00  mag=     8.2757
       N       E                     dE             d eps       ncg     rms          rms(c)
DAV:   1    -0.230410976324E+03   -0.38924E+00   -0.31235E+01 35008   0.203E+01    0.185E+00
DAV:   2    -0.230703173220E+03   -0.29220E+00   -0.30840E+00 36240   0.405E+00    0.366E+00
DAV:   3    -0.230708601231E+03   -0.54280E-02   -0.61914E-01 44864   0.218E+00    0.406E+00
DAV:   4    -0.230687299417E+03    0.21302E-01   -0.19009E-01 39896   0.139E+00    0.235E+00
DAV:   5    -0.230687116170E+03    0.18325E-03   -0.32623E-02 39232   0.120E+00    0.255E+00
DAV:   6    -0.230686662733E+03    0.45344E-03   -0.41171E-03 36520   0.234E-01    0.304E+00
DAV:   7    -0.230685926451E+03    0.73628E-03   -0.20899E-02 45048   0.657E-01    0.439E+00
DAV:   8    -0.230693894382E+03   -0.79679E-02   -0.24544E-02 44440   0.949E-01    0.580E+00
DAV:   9    -0.230680342449E+03    0.13552E-01   -0.16333E-02 40960   0.753E-01    0.591E+00
DAV:  10    -0.230664977733E+03    0.15365E-01   -0.22011E-02 42616   0.672E-01    0.484E+00
DAV:  11    -0.230662693460E+03    0.22843E-02   -0.34320E-02 43184   0.747E-01    0.310E+00
DAV:  12    -0.230674446433E+03   -0.11753E-01   -0.28169E-02 40584   0.859E-01    0.247E+00
DAV:  13    -0.230682684305E+03   -0.82379E-02   -0.18886E-02 39984   0.893E-01    0.277E+00
DAV:  14    -0.230682915202E+03   -0.23090E-03   -0.95025E-03 41920   0.501E-01    0.299E+00
DAV:  15    -0.230684024087E+03   -0.11089E-02   -0.33292E-03 43680   0.289E-01    0.353E+00
DAV:  16    -0.230683392440E+03    0.63165E-03   -0.61937E-04 33904   0.106E-01    0.387E+00
DAV:  17    -0.230686900959E+03   -0.35085E-02   -0.32191E-03 43472   0.252E-01    0.463E+00
DAV:  18    -0.230685017052E+03    0.18839E-02   -0.25065E-03 41752   0.211E-01    0.497E+00
DAV:  19    -0.230681554357E+03    0.34627E-02   -0.28028E-03 44864   0.153E-01    0.498E+00
DAV:  20    -0.230678840724E+03    0.27136E-02   -0.10768E-03 42416   0.153E-01    0.476E+00
DAV:  21    -0.230679672402E+03   -0.83168E-03   -0.32627E-04 40048   0.124E-01    0.466E+00
DAV:  22    -0.230681381652E+03   -0.17093E-02   -0.84395E-04 42416   0.122E-01    0.467E+00
DAV:  23    -0.230682860468E+03   -0.14788E-02   -0.26052E-03 44504   0.218E-01    0.469E+00
DAV:  24    -0.230684657608E+03   -0.17971E-02   -0.50232E-03 44464   0.201E-01    0.481E+00
DAV:  25    -0.230686028973E+03   -0.13714E-02   -0.12213E-03 41408   0.896E-02    0.490E+00
DAV:  26    -0.230684648818E+03    0.13802E-02   -0.39842E-04 39648   0.104E-01    0.480E+00
DAV:  27    -0.230679616900E+03    0.50319E-02   -0.67102E-04 43152   0.104E-01    0.432E+00
DAV:  28    -0.230678987436E+03    0.62946E-03   -0.84269E-04 43616   0.111E-01    0.395E+00
DAV:  29    -0.230679714542E+03   -0.72711E-03   -0.51618E-04 42368   0.881E-02    0.376E+00
DAV:  30    -0.230679200708E+03    0.51383E-03   -0.82205E-04 44080   0.108E-01    0.361E+00
DAV:  31    -0.230679190733E+03    0.99742E-05   -0.43195E-04 41536   0.544E-02    0.348E+00
DAV:  32    -0.230678553117E+03    0.63762E-03   -0.62833E-04 40272   0.605E-02    0.327E+00
DAV:  33    -0.230677980280E+03    0.57284E-03   -0.11876E-03 43736   0.764E-02    0.307E+00
DAV:  34    -0.230674640636E+03    0.33396E-02   -0.69594E-03 42848   0.212E-01    0.257E+00
DAV:  35    -0.230678279235E+03   -0.36386E-02   -0.11054E-03 35456   0.118E-01    0.252E+00
DAV:  36    -0.230678372830E+03   -0.93595E-04   -0.94424E-04 41824   0.622E-02    0.239E+00
DAV:  37    -0.230679396409E+03   -0.10236E-02   -0.25205E-03 39088   0.114E-01    0.256E+00
DAV:  38    -0.230680133594E+03   -0.73719E-03   -0.56073E-03 42552   0.141E-01    0.300E+00
DAV:  39    -0.230680083620E+03    0.49975E-04   -0.71220E-04 35848   0.875E-02    0.323E+00
DAV:  40    -0.230679794469E+03    0.28915E-03   -0.35988E-04 38176   0.525E-02    0.342E+00
DAV:  41    -0.230679615278E+03    0.17919E-03   -0.35285E-03 42968   0.134E-01    0.366E+00
DAV:  42    -0.230680504222E+03   -0.88894E-03   -0.24735E-03 44960   0.144E-01    0.381E+00
DAV:  43    -0.230680651924E+03   -0.14770E-03   -0.18615E-03 40928   0.925E-02    0.378E+00
DAV:  44    -0.230680166348E+03    0.48558E-03   -0.48342E-04 38248   0.716E-02    0.374E+00
DAV:  45    -0.230676307648E+03    0.38587E-02   -0.90901E-03 42560   0.146E-01    0.317E+00
DAV:  46    -0.230678115461E+03   -0.18078E-02   -0.10350E-03 38160   0.103E-01    0.288E+00
DAV:  47    -0.230661296536E+03    0.16819E-01   -0.22922E-01 42184   0.847E-01    0.316E+00
DAV:  48    -0.230679756222E+03   -0.18460E-01   -0.16233E-02 33792   0.495E-01    0.318E+00
DAV:  49    -0.230678850813E+03    0.90541E-03   -0.17066E-03 38512   0.125E-01    0.335E+00
DAV:  50    -0.230674564230E+03    0.42866E-02   -0.19567E-03 36240   0.738E-02    0.295E+00
DAV:  51    -0.230673779887E+03    0.78434E-03   -0.21603E-03 41736   0.988E-02    0.265E+00
DAV:  52    -0.230676706100E+03   -0.29262E-02   -0.21015E-03 40064   0.112E-01    0.296E+00
DAV:  53    -0.230674156427E+03    0.25497E-02   -0.16446E-03 39088   0.781E-02    0.272E+00
DAV:  54    -0.230675285592E+03   -0.11292E-02   -0.37385E-04 33496   0.588E-02    0.269E+00
DAV:  55    -0.230675895275E+03   -0.60968E-03   -0.59693E-05 31864   0.300E-02    0.273E+00
DAV:  56    -0.230676192030E+03   -0.29675E-03   -0.41138E-05 25392   0.159E-02    0.279E+00
DAV:  57    -0.230677898481E+03   -0.17065E-02   -0.61702E-04 42264   0.103E-01    0.314E+00
DAV:  58    -0.230678544577E+03   -0.64610E-03   -0.11969E-03 38920   0.929E-02    0.342E+00
DAV:  59    -0.230678187342E+03    0.35724E-03   -0.26562E-04 37200   0.427E-02    0.363E+00
DAV:  60    -0.230676335719E+03    0.18516E-02   -0.23130E-03 38552   0.727E-02    0.348E+00
DAV:  61    -0.230677466678E+03   -0.11310E-02   -0.34926E-04 38848   0.785E-02    0.329E+00
DAV:  62    -0.230680393346E+03   -0.29267E-02   -0.40770E-03 44384   0.127E-01    0.323E+00
DAV:  63    -0.230678778634E+03    0.16147E-02   -0.13514E-03 33336   0.130E-01    0.294E+00
DAV:  64    -0.230679488589E+03   -0.70996E-03   -0.17176E-04 37344   0.503E-02    0.292E+00
DAV:  65    -0.230679125683E+03    0.36291E-03   -0.35315E-04 35896   0.420E-02    0.275E+00
DAV:  66    -0.230678414777E+03    0.71091E-03   -0.24017E-03 43008   0.828E-02    0.238E+00
DAV:  67    -0.230679320598E+03   -0.90582E-03   -0.13968E-03 38768   0.805E-02    0.226E+00
DAV:  68    -0.230680542131E+03   -0.12215E-02   -0.42175E-04 35320   0.823E-02    0.226E+00
DAV:  69    -0.230680718051E+03   -0.17592E-03   -0.12735E-04 36432   0.354E-02    0.219E+00
DAV:  70    -0.230680091149E+03    0.62690E-03   -0.50114E-04 36616   0.419E-02    0.196E+00
DAV:  71    -0.230680431685E+03   -0.34054E-03   -0.16076E-04 30720   0.360E-02    0.190E+00
DAV:  72    -0.230679050421E+03    0.13813E-02   -0.45097E-03 43920   0.117E-01    0.163E+00
DAV:  73    -0.230679441071E+03   -0.39065E-03   -0.27668E-03 40504   0.128E-01    0.167E+00
DAV:  74    -0.230679645404E+03   -0.20433E-03   -0.26926E-03 44320   0.888E-02    0.178E+00
DAV:  75    -0.230680395218E+03   -0.74981E-03   -0.16475E-03 39592   0.711E-02    0.204E+00
DAV:  76    -0.230680768083E+03   -0.37286E-03   -0.71476E-04 34856   0.543E-02    0.227E+00
DAV:  77    -0.230681690071E+03   -0.92199E-03   -0.11386E-03 37232   0.544E-02    0.263E+00
DAV:  78    -0.230680322135E+03    0.13679E-02   -0.18982E-04 32168   0.491E-02    0.264E+00
DAV:  79    -0.230680271113E+03    0.51023E-04   -0.16367E-04 31984   0.268E-02    0.273E+00
DAV:  80    -0.230679038286E+03    0.12328E-02   -0.26467E-04 28200   0.267E-02    0.258E+00
DAV:  81    -0.230679462617E+03   -0.42433E-03   -0.15011E-05 23320   0.150E-02    0.256E+00
DAV:  82    -0.230674919378E+03    0.45432E-02   -0.14964E-02 43472   0.233E-01    0.189E+00
DAV:  83    -0.230677678774E+03   -0.27594E-02   -0.16213E-03 38256   0.128E-01    0.178E+00
DAV:  84    -0.230678228373E+03   -0.54960E-03   -0.24330E-03 42624   0.929E-02    0.172E+00
DAV:  85    -0.230678556092E+03   -0.32772E-03   -0.18783E-03 36144   0.946E-02    0.154E+00
DAV:  86    -0.230678856087E+03   -0.30000E-03   -0.66124E-04 39360   0.463E-02    0.155E+00
DAV:  87    -0.230678147583E+03    0.70850E-03   -0.21429E-02 42120   0.218E-01    0.207E+00
DAV:  88    -0.230679101647E+03   -0.95406E-03   -0.61102E-03 38272   0.143E-01    0.255E+00
DAV:  89    -0.230677555673E+03    0.15460E-02   -0.10691E-02 36096   0.146E-01    0.238E+00
DAV:  90    -0.230677230019E+03    0.32565E-03   -0.27360E-03 42256   0.997E-02    0.207E+00
DAV:  91    -0.230678264472E+03   -0.10345E-02   -0.34365E-03 41976   0.832E-02    0.199E+00
DAV:  92    -0.230679005168E+03   -0.74070E-03   -0.34619E-04 37000   0.648E-02    0.198E+00
DAV:  93    -0.230679015332E+03   -0.10164E-04   -0.10175E-04 30800   0.235E-02    0.199E+00
DAV:  94    -0.230679071913E+03   -0.56581E-04   -0.31191E-05 20600   0.138E-02    0.202E+00
DAV:  95    -0.230679093857E+03   -0.21944E-04   -0.16768E-04 24560   0.197E-02    0.204E+00
DAV:  96    -0.230678911794E+03    0.18206E-03   -0.35985E-04 34560   0.292E-02    0.198E+00
DAV:  97    -0.230678831819E+03    0.79975E-04   -0.28340E-03 40760   0.673E-02    0.187E+00
DAV:  98    -0.230679254289E+03   -0.42247E-03   -0.15717E-03 39568   0.588E-02    0.179E+00
DAV:  99    -0.230679737183E+03   -0.48289E-03   -0.36385E-04 33936   0.380E-02    0.172E+00
DAV: 100    -0.230680053350E+03   -0.31617E-03   -0.62014E-05 25272   0.201E-02    0.171E+00
DAV: 101    -0.230680075442E+03   -0.22092E-04   -0.98596E-06 21184   0.103E-02    0.166E+00
DAV: 102    -0.230680432889E+03   -0.35745E-03   -0.20013E-04 24624   0.194E-02    0.174E+00
DAV: 103    -0.230680378393E+03    0.54497E-04   -0.18802E-04 27360   0.191E-02    0.177E+00
DAV: 104    -0.230680339383E+03    0.39009E-04   -0.21523E-04 28224   0.248E-02    0.180E+00
DAV: 105    -0.230680215098E+03    0.12429E-03   -0.70630E-04 32672   0.366E-02    0.182E+00
DAV: 106    -0.230680284581E+03   -0.69483E-04   -0.18106E-05 24472   0.175E-02    0.182E+00
DAV: 107    -0.230680850136E+03   -0.56556E-03   -0.22725E-03 42328   0.131E-01    0.222E+00
DAV: 108    -0.230678710848E+03    0.21393E-02   -0.63723E-04 39760   0.990E-02    0.168E+00
DAV: 109    -0.230679230750E+03   -0.51990E-03   -0.84519E-04 36816   0.611E-02    0.145E+00
DAV: 110    -0.230679666492E+03   -0.43574E-03   -0.70286E-04 39216   0.498E-02    0.128E+00
DAV: 111    -0.230680147395E+03   -0.48090E-03   -0.82876E-05 31608   0.335E-02    0.122E+00
DAV: 112    -0.230679980649E+03    0.16675E-03   -0.89088E-04 39680   0.573E-02    0.124E+00
DAV: 113    -0.230679831570E+03    0.14908E-03   -0.15548E-03 40584   0.626E-02    0.104E+00
DAV: 114    -0.230680324424E+03   -0.49285E-03   -0.31338E-04 34648   0.431E-02    0.979E-01
DAV: 115    -0.230680411187E+03   -0.86762E-04   -0.69653E-04 36424   0.422E-02    0.968E-01
DAV: 116    -0.230680178272E+03    0.23292E-03   -0.67875E-04 39760   0.507E-02    0.107E+00
DAV: 117    -0.230680246722E+03   -0.68450E-04   -0.15384E-04 31144   0.405E-02    0.107E+00
DAV: 118    -0.230680199249E+03    0.47473E-04   -0.20030E-04 27496   0.350E-02    0.116E+00
DAV: 119    -0.230680147379E+03    0.51870E-04   -0.89894E-05 25256   0.188E-02    0.120E+00
DAV: 120    -0.230680074451E+03    0.72928E-04   -0.11306E-04 26912   0.174E-02    0.122E+00
DAV: 121    -0.230680095387E+03   -0.20936E-04   -0.57416E-05 25048   0.182E-02    0.121E+00
DAV: 122    -0.230680342453E+03   -0.24707E-03   -0.47850E-03 40776   0.971E-02    0.140E+00
DAV: 123    -0.230680570324E+03   -0.22787E-03   -0.53514E-04 37072   0.616E-02    0.149E+00
DAV: 124    -0.230680543054E+03    0.27270E-04   -0.78567E-04 36184   0.376E-02    0.161E+00
DAV: 125    -0.230680304075E+03    0.23898E-03   -0.40410E-03 40784   0.738E-02    0.180E+00
DAV: 126    -0.230680228516E+03    0.75560E-04   -0.12072E-03 33336   0.718E-02    0.175E+00
DAV: 127    -0.230680585233E+03   -0.35672E-03   -0.17834E-02 40664   0.162E-01    0.247E+00
DAV: 128    -0.230681155721E+03   -0.57049E-03   -0.10195E-03 35488   0.112E-01    0.276E+00
DAV: 129    -0.230679762206E+03    0.13935E-02   -0.13930E-03 36568   0.729E-02    0.274E+00
DAV: 130    -0.230679475204E+03    0.28700E-03   -0.10693E-04 33944   0.312E-02    0.275E+00
DAV: 131    -0.230679000967E+03    0.47424E-03   -0.40929E-04 30456   0.258E-02    0.266E+00
DAV: 132    -0.230681414680E+03   -0.24137E-02   -0.11931E-02 40344   0.140E-01    0.341E+00
DAV: 133    -0.230681012510E+03    0.40217E-03   -0.51670E-04 33248   0.104E-01    0.367E+00
DAV: 134    -0.230680024112E+03    0.98840E-03   -0.10366E-04 34432   0.350E-02    0.380E+00
DAV: 135    -0.230679299194E+03    0.72492E-03   -0.33138E-05 25232   0.183E-02    0.385E+00
DAV: 136    -0.230678609224E+03    0.68997E-03   -0.97019E-05 24920   0.179E-02    0.379E+00
DAV: 137    -0.230678821505E+03   -0.21228E-03   -0.10669E-04 25144   0.234E-02    0.380E+00
DAV: 138    -0.230678451441E+03    0.37006E-03   -0.23486E-04 27808   0.294E-02    0.375E+00
DAV: 139    -0.230678154793E+03    0.29665E-03   -0.20084E-04 30216   0.233E-02    0.365E+00
DAV: 140    -0.230678114479E+03    0.40314E-04   -0.39900E-04 35432   0.316E-02    0.355E+00
DAV: 141    -0.230678017706E+03    0.96772E-04   -0.58556E-04 37608   0.364E-02    0.342E+00
DAV: 142    -0.230677809445E+03    0.20826E-03   -0.35536E-03 41728   0.101E-01    0.329E+00
DAV: 143    -0.230676097442E+03    0.17120E-02   -0.14316E-02 43232   0.160E-01    0.290E+00
DAV: 144    -0.230677509802E+03   -0.14124E-02   -0.12667E-02 41392   0.161E-01    0.260E+00
DAV: 145    -0.230680108762E+03   -0.25990E-02   -0.18649E-03 35248   0.114E-01    0.243E+00
DAV: 146    -0.230680922177E+03   -0.81341E-03   -0.29739E-04 36856   0.521E-02    0.235E+00
DAV: 147    -0.230681523102E+03   -0.60093E-03   -0.13861E-03 37712   0.487E-02    0.242E+00
DAV: 148    -0.230681284248E+03    0.23885E-03   -0.11803E-04 31352   0.382E-02    0.241E+00
DAV: 149    -0.230681163903E+03    0.12035E-03   -0.16579E-05 25736   0.153E-02    0.239E+00
DAV: 150    -0.230680731282E+03    0.43262E-03   -0.64381E-05 23568   0.149E-02    0.231E+00
DAV: 151    -0.230680884561E+03   -0.15328E-03   -0.22567E-05 22336   0.133E-02    0.229E+00
DAV: 152    -0.230686656969E+03   -0.57724E-02   -0.57077E-02 41488   0.308E-01    0.401E+00
DAV: 153    -0.230684406376E+03    0.22506E-02   -0.65843E-03 36536   0.242E-01    0.440E+00
DAV: 154    -0.230682441046E+03    0.19653E-02   -0.82172E-04 37200   0.966E-02    0.454E+00
DAV: 155    -0.230681059356E+03    0.13817E-02   -0.14795E-04 36704   0.363E-02    0.454E+00
DAV: 156    -0.230681743076E+03   -0.68372E-03   -0.25744E-04 30944   0.258E-02    0.468E+00
DAV: 157    -0.230678144072E+03    0.35990E-02   -0.14921E-03 39352   0.841E-02    0.442E+00
DAV: 158    -0.230677515900E+03    0.62817E-03   -0.41511E-04 39392   0.500E-02    0.430E+00
DAV: 159    -0.230674864580E+03    0.26513E-02   -0.11854E-03 40760   0.496E-02    0.396E+00
DAV: 160    -0.230674912419E+03   -0.47839E-04   -0.62634E-04 35976   0.411E-02    0.372E+00
DAV: 161    -0.230676315631E+03   -0.14032E-02   -0.65834E-05 30184   0.315E-02    0.369E+00
DAV: 162    -0.230681320852E+03   -0.50052E-02   -0.69556E-03 41456   0.116E-01    0.448E+00
DAV: 163    -0.230680289288E+03    0.10316E-02   -0.87108E-04 37608   0.878E-02    0.467E+00
DAV: 164    -0.230679066520E+03    0.12228E-02   -0.28401E-04 35456   0.507E-02    0.464E+00
DAV: 165    -0.230679031675E+03    0.34846E-04   -0.32102E-05 28872   0.159E-02    0.465E+00
DAV: 166    -0.230679180964E+03   -0.14929E-03   -0.34349E-05 22680   0.130E-02    0.469E+00
DAV: 167    -0.230671981632E+03    0.71993E-02   -0.85196E-03 40672   0.119E-01    0.382E+00
DAV: 168    -0.230677910150E+03   -0.59285E-02   -0.14241E-03 33832   0.101E-01    0.408E+00
DAV: 169    -0.230677945057E+03   -0.34908E-04   -0.29714E-04 37984   0.395E-02    0.410E+00
DAV: 170    -0.230677723390E+03    0.22167E-03   -0.74340E-05 28560   0.242E-02    0.411E+00
DAV: 171    -0.230678496706E+03   -0.77332E-03   -0.45483E-04 37872   0.412E-02    0.421E+00
DAV: 172    -0.230691000873E+03   -0.12504E-01   -0.16954E-02 43024   0.234E-01    0.533E+00
DAV: 173    -0.230689791797E+03    0.12091E-02   -0.15728E-03 35816   0.146E-01    0.553E+00
DAV: 174    -0.230688444948E+03    0.13468E-02   -0.19284E-04 37976   0.527E-02    0.561E+00
DAV: 175    -0.230689422246E+03   -0.97730E-03   -0.32693E-04 35568   0.372E-02    0.578E+00
DAV: 176    -0.230689491098E+03   -0.68853E-04   -0.18458E-04 33552   0.316E-02    0.589E+00
DAV: 177    -0.230702171646E+03   -0.12681E-01   -0.13186E-02 41872   0.166E-01    0.670E+00
DAV: 178    -0.230699746555E+03    0.24251E-02   -0.59953E-04 36760   0.923E-02    0.683E+00
DAV: 179    -0.230698714660E+03    0.10319E-02   -0.84126E-05 35800   0.317E-02    0.688E+00
DAV: 180    -0.230699662744E+03   -0.94808E-03   -0.78232E-05 27552   0.202E-02    0.697E+00
DAV: 181    -0.230698873374E+03    0.78937E-03   -0.36518E-05 26896   0.231E-02    0.697E+00
DAV: 182    -0.230688343901E+03    0.10529E-01   -0.80236E-03 42256   0.183E-01    0.661E+00
DAV: 183    -0.230692382841E+03   -0.40389E-02   -0.55221E-04 35336   0.833E-02    0.663E+00
DAV: 184    -0.230693725810E+03   -0.13430E-02   -0.67353E-05 33752   0.280E-02    0.667E+00
DAV: 185    -0.230693612923E+03    0.11289E-03   -0.12931E-05 23864   0.119E-02    0.668E+00
DAV: 186    -0.230693868319E+03   -0.25540E-03   -0.57322E-06 21704   0.874E-03    0.671E+00
DAV: 187    -0.230639894971E+03    0.53973E-01   -0.32250E-01 42472   0.685E-01    0.360E+00
DAV: 188    -0.230668553174E+03   -0.28658E-01   -0.26684E-02 37376   0.477E-01    0.340E+00
DAV: 189    -0.230669564572E+03   -0.10114E-02   -0.31619E-02 44760   0.264E-01    0.353E+00
DAV: 190    -0.230664121064E+03    0.54435E-02   -0.22266E-01 40408   0.591E-01    0.385E+00
DAV: 191    -0.230671963571E+03   -0.78425E-02   -0.28820E-02 40632   0.335E-01    0.468E+00
DAV: 192    -0.230677799670E+03   -0.58361E-02   -0.32029E-02 44208   0.418E-01    0.563E+00
DAV: 193    -0.230678439017E+03   -0.63935E-03   -0.88599E-03 37560   0.295E-01    0.599E+00
DAV: 194    -0.230678749004E+03   -0.30999E-03   -0.56171E-03 45144   0.210E-01    0.658E+00
DAV: 195    -0.230673382842E+03    0.53662E-02   -0.86840E-03 42576   0.212E-01    0.676E+00
DAV: 196    -0.230684419587E+03   -0.11037E-01   -0.23509E-02 44512   0.237E-01    0.768E+00
DAV: 197    -0.230658258668E+03    0.26161E-01   -0.47595E-02 38232   0.365E-01    0.620E+00
DAV: 198    -0.230678011447E+03   -0.19753E-01   -0.63198E-03 39400   0.238E-01    0.678E+00
DAV: 199    -0.230671512799E+03    0.64986E-02   -0.38363E-03 38776   0.111E-01    0.657E+00
DAV: 200    -0.230672820779E+03   -0.13080E-02   -0.29341E-04 34208   0.690E-02
   5 F= -.23067282E+03 E0= -.23065764E+03  d E =-.651081E+00  mag=     8.4012
       N       E                     dE             d eps       ncg     rms          rms(c)
DAV:   1    -0.230249459207E+03    0.42205E+00   -0.42875E+01 36640   0.359E+01    0.693E+00
DAV:   2    -0.233312449304E+03   -0.30630E+01   -0.23363E+01 38920   0.161E+01    0.339E+01
DAV:   3    -0.231289910992E+03    0.20225E+01   -0.11632E+01 40176   0.131E+01    0.104E+01
DAV:   4    -0.231342055487E+03   -0.52144E-01   -0.13768E+00 40576   0.878E+00    0.155E+01
DAV:   5    -0.231009608090E+03    0.33245E+00   -0.10035E+00 42288   0.416E+00    0.458E+00
DAV:   6    -0.231083011259E+03   -0.73403E-01   -0.35055E-01 43280   0.285E+00    0.503E+00
DAV:   7    -0.231088361894E+03   -0.53506E-02   -0.97425E-02 42872   0.200E+00    0.467E+00
DAV:   8    -0.231080731533E+03    0.76304E-02   -0.27205E-02 41112   0.700E-01    0.399E+00
DAV:   9    -0.231079356216E+03    0.13753E-02   -0.33688E-03 38752   0.299E-01    0.396E+00
DAV:  10    -0.231079681629E+03   -0.32541E-03   -0.17501E-02 41976   0.865E-01    0.427E+00
DAV:  11    -0.231074209291E+03    0.54723E-02   -0.59953E-02 44528   0.153E+00    0.410E+00
DAV:  12    -0.231090670324E+03   -0.16461E-01   -0.45409E-02 42528   0.155E+00    0.494E+00
DAV:  13    -0.231068634635E+03    0.22036E-01   -0.27492E-02 40608   0.118E+00    0.378E+00
DAV:  14    -0.231062019832E+03    0.66148E-02   -0.13632E-02 43936   0.800E-01    0.307E+00
DAV:  15    -0.231059391972E+03    0.26279E-02   -0.70402E-03 40704   0.567E-01    0.280E+00
DAV:  16    -0.231057536822E+03    0.18552E-02   -0.31477E-03 40544   0.407E-01    0.296E+00
DAV:  17    -0.231055098640E+03    0.24382E-02   -0.17379E-03 43296   0.236E-01    0.309E+00
DAV:  18    -0.231054278476E+03    0.82016E-03   -0.27164E-04 35128   0.587E-02    0.311E+00
DAV:  19    -0.231053452069E+03    0.82641E-03   -0.14996E-03 42232   0.232E-01    0.320E+00
DAV:  20    -0.231050601441E+03    0.28506E-02   -0.14498E-03 42528   0.277E-01    0.333E+00
DAV:  21    -0.231046409752E+03    0.41917E-02   -0.20723E-03 43816   0.238E-01    0.350E+00
DAV:  22    -0.231043097404E+03    0.33123E-02   -0.78796E-04 43008   0.142E-01    0.361E+00
DAV:  23    -0.231046802692E+03   -0.37053E-02   -0.47527E-04 42944   0.112E-01    0.347E+00
DAV:  24    -0.231045423956E+03    0.13787E-02   -0.11197E-04 33896   0.374E-02    0.349E+00
DAV:  25    -0.231042331015E+03    0.30929E-02   -0.24838E-04 38160   0.650E-02    0.357E+00
DAV:  26    -0.231040827277E+03    0.15037E-02   -0.47128E-05 32168   0.251E-02    0.361E+00
DAV:  27    -0.231045223015E+03   -0.43957E-02   -0.69088E-04 43136   0.134E-01    0.355E+00
DAV:  28    -0.231044977699E+03    0.24532E-03   -0.89577E-04 43488   0.143E-01    0.364E+00
DAV:  29    -0.231041447791E+03    0.35299E-02   -0.38400E-04 42552   0.953E-02    0.372E+00
DAV:  30    -0.231040483792E+03    0.96400E-03   -0.82406E-05 32952   0.412E-02    0.375E+00
DAV:  31    -0.231041554307E+03   -0.10705E-02   -0.11638E-04 35032   0.454E-02    0.371E+00
DAV:  32    -0.231060060237E+03   -0.18506E-01   -0.88741E-03 41888   0.372E-01    0.289E+00
DAV:  33    -0.231068518468E+03   -0.84582E-02   -0.12324E-02 42400   0.374E-01    0.187E+00
DAV:  34    -0.231074287406E+03   -0.57689E-02   -0.90423E-03 40408   0.347E-01    0.103E+00
DAV:  35    -0.231074617729E+03   -0.33032E-03   -0.18364E-03 41432   0.214E-01    0.837E-01
DAV:  36    -0.231076020620E+03   -0.14029E-02   -0.14800E-03 43800   0.164E-01    0.702E-01
DAV:  37    -0.231076128094E+03   -0.10747E-03   -0.10539E-03 44256   0.136E-01    0.390E-01
DAV:  38    -0.231076091818E+03    0.36276E-04   -0.21668E-04 36088   0.572E-02    0.444E-01
DAV:  39    -0.231076313474E+03   -0.22166E-03   -0.15424E-04 38392   0.569E-02    0.409E-01
DAV:  40    -0.231076397064E+03   -0.83591E-04   -0.20329E-04 39352   0.579E-02    0.144E-01
DAV:  41    -0.231076551539E+03   -0.15447E-03   -0.78994E-05 33136   0.316E-02    0.451E-02
DAV:  42    -0.231076591245E+03   -0.39706E-04   -0.17763E-05 24992   0.179E-02    0.486E-02
DAV:  43    -0.231076592031E+03   -0.78550E-06   -0.92687E-06 22088   0.153E-02
   6 F= -.23107659E+03 E0= -.23106000E+03  d E =-.403771E+00  mag=     9.2464
       N       E                     dE             d eps       ncg     rms          rms(c)
DAV:   1    -0.229742884395E+03    0.13337E+01   -0.65234E+01 36992   0.513E+01    0.405E+00
DAV:   2    -0.231404105999E+03   -0.16612E+01   -0.16571E+01 35040   0.107E+01    0.886E+00
DAV:   3    -0.231464330648E+03   -0.60225E-01   -0.26521E+00 44168   0.650E+00    0.774E+00
DAV:   4    -0.231345734108E+03    0.11860E+00   -0.31723E-01 40424   0.426E+00    0.371E+00
DAV:   5    -0.231331610605E+03    0.14124E-01   -0.14106E-01 37592   0.285E+00    0.437E+00
DAV:   6    -0.231319633905E+03    0.11977E-01   -0.11947E-01 42216   0.119E+00    0.283E+00
DAV:   7    -0.231314590313E+03    0.50436E-02   -0.23924E-02 41704   0.117E+00    0.154E+00
DAV:   8    -0.231324347251E+03   -0.97569E-02   -0.25653E-02 42664   0.118E+00    0.279E+00
DAV:   9    -0.231323166740E+03    0.11805E-02   -0.30432E-02 42600   0.105E+00    0.273E+00
DAV:  10    -0.231318046585E+03    0.51202E-02   -0.39707E-02 41680   0.856E-01    0.152E+00
DAV:  11    -0.231321129616E+03   -0.30830E-02   -0.27545E-03 41288   0.320E-01    0.198E+00
DAV:  12    -0.231318927624E+03    0.22020E-02   -0.45479E-03 41360   0.375E-01    0.212E+00
DAV:  13    -0.231317147138E+03    0.17805E-02   -0.80966E-03 44664   0.556E-01    0.261E+00
DAV:  14    -0.231316189827E+03    0.95731E-03   -0.51734E-03 43736   0.376E-01    0.309E+00
DAV:  15    -0.231314627395E+03    0.15624E-02   -0.95539E-04 36112   0.109E-01    0.327E+00
DAV:  16    -0.231312729531E+03    0.18979E-02   -0.15139E-03 44680   0.256E-01    0.272E+00
DAV:  17    -0.231316676465E+03   -0.39469E-02   -0.79130E-03 44096   0.501E-01    0.195E+00
DAV:  18    -0.231319939401E+03   -0.32629E-02   -0.10300E-02 43504   0.562E-01    0.172E+00
DAV:  19    -0.231319774997E+03    0.16440E-03   -0.56692E-03 40568   0.575E-01    0.123E+00
DAV:  20    -0.231320708314E+03   -0.93332E-03   -0.27012E-03 40160   0.335E-01    0.108E+00
DAV:  21    -0.231321098609E+03   -0.39030E-03   -0.10252E-03 44280   0.182E-01    0.107E+00
DAV:  22    -0.231321422466E+03   -0.32386E-03   -0.85779E-04 44968   0.185E-01    0.115E+00
DAV:  23    -0.231320629448E+03    0.79302E-03   -0.12825E-03 44552   0.257E-01    0.777E-01
DAV:  24    -0.231321136434E+03   -0.50699E-03   -0.83270E-04 41968   0.221E-01    0.658E-01
DAV:  25    -0.231321700932E+03   -0.56450E-03   -0.36695E-04 40144   0.153E-01    0.804E-01
DAV:  26    -0.231321822003E+03   -0.12107E-03   -0.20888E-04 44448   0.813E-02    0.834E-01
DAV:  27    -0.231321543984E+03    0.27802E-03   -0.19264E-04 43568   0.892E-02    0.497E-01
DAV:  28    -0.231321901487E+03   -0.35750E-03   -0.17535E-04 40744   0.894E-02    0.253E-01
DAV:  29    -0.231322218461E+03   -0.31697E-03   -0.11059E-04 34464   0.824E-02    0.181E-01
DAV:  30    -0.231322316963E+03   -0.98502E-04   -0.52742E-05 29192   0.394E-02    0.186E-01
DAV:  31    -0.231322348404E+03   -0.31441E-04   -0.27551E-05 26920   0.274E-02    0.156E-01
DAV:  32    -0.231322357315E+03   -0.89109E-05   -0.15173E-05 23696   0.174E-02
   7 F= -.23132236E+03 E0= -.23130633E+03  d E =-.245765E+00  mag=     9.2173
       N       E                     dE             d eps       ncg     rms          rms(c)
DAV:   1    -0.230432580833E+03    0.88977E+00   -0.11972E+02 33744   0.423E+01    0.355E+00
DAV:   2    -0.231551568260E+03   -0.11190E+01   -0.11439E+01 35120   0.867E+00    0.574E+00
DAV:   3    -0.231602228881E+03   -0.50661E-01   -0.17715E+00 43456   0.500E+00    0.531E+00
DAV:   4    -0.231544712382E+03    0.57516E-01   -0.23927E-01 40552   0.365E+00    0.445E+00
DAV:   5    -0.231540533598E+03    0.41788E-02   -0.73631E-02 38752   0.247E+00    0.531E+00
DAV:   6    -0.231512259009E+03    0.28275E-01   -0.78354E-02 41200   0.170E+00    0.231E+00
DAV:   7    -0.231518802485E+03   -0.65435E-02   -0.42879E-02 41168   0.151E+00    0.203E+00
DAV:   8    -0.231533552185E+03   -0.14750E-01   -0.12842E-01 43312   0.161E+00    0.498E+00
DAV:   9    -0.231507935461E+03    0.25617E-01   -0.37897E-02 39432   0.122E+00    0.309E+00
DAV:  10    -0.231508725707E+03   -0.79025E-03   -0.17254E-02 42312   0.918E-01    0.276E+00
DAV:  11    -0.231504251875E+03    0.44738E-02   -0.25773E-02 44080   0.689E-01    0.661E-01
DAV:  12    -0.231515334424E+03   -0.11083E-01   -0.15075E-02 42928   0.524E-01    0.190E+00
DAV:  13    -0.231516494894E+03   -0.11605E-02   -0.42357E-03 39304   0.388E-01    0.250E+00
DAV:  14    -0.231514213570E+03    0.22813E-02   -0.12596E-03 35256   0.141E-01    0.287E+00
DAV:  15    -0.231512579828E+03    0.16337E-02   -0.95102E-04 40208   0.156E-01    0.302E+00
DAV:  16    -0.231511100154E+03    0.14797E-02   -0.10471E-03 39784   0.197E-01    0.299E+00
DAV:  17    -0.231509872484E+03    0.12277E-02   -0.95132E-04 42864   0.165E-01    0.288E+00
DAV:  18    -0.231510055385E+03   -0.18290E-03   -0.58662E-04 44464   0.124E-01    0.283E+00
DAV:  19    -0.231510342339E+03   -0.28695E-03   -0.13242E-04 31744   0.304E-02    0.281E+00
DAV:  20    -0.231510273342E+03    0.68997E-04   -0.39635E-04 43072   0.117E-01    0.282E+00
DAV:  21    -0.231510422637E+03   -0.14929E-03   -0.35572E-04 45832   0.826E-02    0.285E+00
DAV:  22    -0.231510322846E+03    0.99791E-04   -0.13762E-04 35880   0.677E-02    0.285E+00
DAV:  23    -0.231510279772E+03    0.43074E-04   -0.70722E-05 29592   0.481E-02    0.288E+00
DAV:  24    -0.231510487279E+03   -0.20751E-03   -0.96435E-05 35504   0.605E-02    0.300E+00
DAV:  25    -0.231510240903E+03    0.24638E-03   -0.13018E-04 39920   0.646E-02    0.312E+00
DAV:  26    -0.231509804811E+03    0.43609E-03   -0.62483E-05 33128   0.348E-02    0.323E+00
DAV:  27    -0.231509243200E+03    0.56161E-03   -0.16523E-05 25096   0.236E-02    0.321E+00
DAV:  28    -0.231509169845E+03    0.73354E-04   -0.28110E-06 19480   0.671E-03    0.323E+00
DAV:  29    -0.231508813982E+03    0.35586E-03   -0.85179E-06 20792   0.229E-02    0.314E+00
DAV:  30    -0.231508883367E+03   -0.69385E-04   -0.11175E-05 21496   0.164E-02    0.306E+00
DAV:  31    -0.231508478070E+03    0.40530E-03   -0.11264E-04 37912   0.590E-02    0.273E+00
DAV:  32    -0.231507905311E+03    0.57276E-03   -0.63612E-04 42760   0.133E-01    0.191E+00
DAV:  33    -0.231509401884E+03   -0.14966E-02   -0.82985E-04 37080   0.104E-01    0.125E+00
DAV:  34    -0.231510985555E+03   -0.15837E-02   -0.38275E-04 35048   0.772E-02    0.917E-01
DAV:  35    -0.231511836356E+03   -0.85080E-03   -0.16453E-04 34304   0.509E-02    0.666E-01
DAV:  36    -0.231512427949E+03   -0.59159E-03   -0.14860E-04 35944   0.575E-02    0.361E-01
DAV:  37    -0.231512889633E+03   -0.46168E-03   -0.95087E-05 34960   0.447E-02    0.217E-01
DAV:  38    -0.231513096044E+03   -0.20641E-03   -0.62616E-05 31112   0.339E-02    0.115E-01
DAV:  39    -0.231513189037E+03   -0.92993E-04   -0.52064E-05 29664   0.327E-02    0.218E-01
DAV:  40    -0.231513135429E+03    0.53608E-04   -0.24992E-05 26168   0.231E-02    0.219E-01
DAV:  41    -0.231513102426E+03    0.33003E-04   -0.73628E-06 21440   0.116E-02    0.196E-01
DAV:  42    -0.231513111233E+03   -0.88067E-05   -0.32232E-06 19168   0.859E-03
   8 F= -.23151311E+03 E0= -.23149739E+03  d E =-.190754E+00  mag=     9.2168
       N       E                     dE             d eps       ncg     rms          rms(c)
DAV:   1    -0.223875876066E+03    0.76372E+01   -0.29681E+02 35632   0.105E+02    0.220E+01
DAV:   2    -0.273641423065E+03   -0.49766E+02   -0.34825E+02 40576   0.786E+01    0.113E+02
DAV:   3    -0.257900171956E+03    0.15741E+02   -0.60224E+01 43912   0.272E+01    0.719E+01
DAV:   4    -0.253928396902E+03    0.39718E+01   -0.37191E+01 39992   0.273E+01    0.701E+01
DAV:   5    -0.241409298486E+03    0.12519E+02   -0.27478E+01 42112   0.280E+01    0.595E+01
DAV:   6    -0.233202264691E+03    0.82070E+01   -0.27464E+01 43816   0.223E+01    0.342E+01
DAV:   7    -0.232003104935E+03    0.11992E+01   -0.20268E+01 44544   0.161E+01    0.133E+01
DAV:   8    -0.232043393220E+03   -0.40288E-01   -0.38033E+00 45552   0.981E+00    0.191E+01
DAV:   9    -0.231703199447E+03    0.34019E+00   -0.11156E+00 43504   0.622E+00    0.131E+01
DAV:  10    -0.231727641126E+03   -0.24442E-01   -0.25319E-01 42032   0.275E+00    0.121E+01
DAV:  11    -0.231715738441E+03    0.11903E-01   -0.59220E-02 40696   0.180E+00    0.109E+01
DAV:  12    -0.231676737112E+03    0.39001E-01   -0.63841E-02 41728   0.196E+00    0.910E+00
DAV:  13    -0.231655184856E+03    0.21552E-01   -0.42853E-02 43432   0.134E+00    0.836E+00
DAV:  14    -0.231633411504E+03    0.21773E-01   -0.45145E-02 43232   0.164E+00    0.807E+00
DAV:  15    -0.231570735503E+03    0.62676E-01   -0.12240E-01 44592   0.254E+00    0.722E+00
DAV:  16    -0.231522268869E+03    0.48467E-01   -0.29166E-01 43680   0.333E+00    0.588E+00
DAV:  17    -0.231516530314E+03    0.57386E-02   -0.38540E-01 43896   0.235E+00    0.741E+00
DAV:  18    -0.231500984334E+03    0.15546E-01   -0.12950E-01 39568   0.124E+00    0.577E+00
DAV:  19    -0.231530696932E+03   -0.29713E-01   -0.40422E-02 46256   0.833E-01    0.750E+00
DAV:  20    -0.231521604261E+03    0.90927E-02   -0.77343E-03 36584   0.299E-01    0.793E+00
DAV:  21    -0.231499860917E+03    0.21743E-01   -0.46097E-03 43080   0.333E-01    0.717E+00
DAV:  22    -0.231513796004E+03   -0.13935E-01   -0.11582E-02 43808   0.574E-01    0.679E+00
DAV:  23    -0.231513006751E+03    0.78925E-03   -0.24610E-02 45256   0.579E-01    0.605E+00
DAV:  24    -0.231514597364E+03   -0.15906E-02   -0.10227E-02 41128   0.307E-01    0.545E+00
DAV:  25    -0.231510525768E+03    0.40716E-02   -0.11973E-02 42120   0.276E-01    0.497E+00
DAV:  26    -0.231506224219E+03    0.43015E-02   -0.22265E-03 36232   0.201E-01    0.515E+00
DAV:  27    -0.231505083826E+03    0.11404E-02   -0.37002E-02 43952   0.986E-01    0.419E+00
DAV:  28    -0.231491202913E+03    0.13881E-01   -0.27009E-02 45312   0.805E-01    0.356E+00
DAV:  29    -0.231485945553E+03    0.52574E-02   -0.34230E-02 45144   0.109E+00    0.300E+00
DAV:  30    -0.231487726691E+03   -0.17811E-02   -0.95790E-02 44336   0.791E-01    0.430E+00
DAV:  31    -0.231489733424E+03   -0.20067E-02   -0.85527E-03 34512   0.354E-01    0.515E+00
DAV:  32    -0.231504920438E+03   -0.15187E-01   -0.69023E-02 44144   0.880E-01    0.781E+00
DAV:  33    -0.231492291253E+03    0.12629E-01   -0.92625E-03 35904   0.380E-01    0.796E+00
DAV:  34    -0.231486949465E+03    0.53418E-02   -0.10571E-03 42784   0.144E-01    0.790E+00
DAV:  35    -0.231477774440E+03    0.91750E-02   -0.14113E-03 44456   0.101E-01    0.760E+00
DAV:  36    -0.231441392669E+03    0.36382E-01   -0.55368E-02 44768   0.772E-01    0.617E+00
DAV:  37    -0.231442580715E+03   -0.11880E-02   -0.18418E-02 43080   0.379E-01    0.536E+00
DAV:  38    -0.231444330141E+03   -0.17494E-02   -0.18218E-02 44976   0.444E-01    0.531E+00
DAV:  39    -0.231423966322E+03    0.20364E-01   -0.21113E-02 47096   0.379E-01    0.368E+00
DAV:  40    -0.231421720241E+03    0.22461E-02   -0.13116E-02 44240   0.388E-01    0.174E+00
DAV:  41    -0.231430657127E+03   -0.89369E-02   -0.59881E-03 39600   0.360E-01    0.167E+00
DAV:  42    -0.231436249024E+03   -0.55919E-02   -0.21597E-03 41704   0.216E-01    0.191E+00
DAV:  43    -0.231438860651E+03   -0.26116E-02   -0.83113E-04 42752   0.115E-01    0.201E+00
DAV:  44    -0.231443324673E+03   -0.44640E-02   -0.25666E-03 44016   0.263E-01    0.148E+00
DAV:  45    -0.231449466983E+03   -0.61423E-02   -0.21475E-03 43976   0.170E-01    0.120E+00
DAV:  46    -0.231454166042E+03   -0.46991E-02   -0.12451E-03 39952   0.119E-01    0.125E+00
DAV:  47    -0.231458900908E+03   -0.47349E-02   -0.14114E-02 44200   0.436E-01    0.186E+00
DAV:  48    -0.231458388602E+03    0.51231E-03   -0.12056E-03 40744   0.180E-01    0.185E+00
DAV:  49    -0.231458188609E+03    0.19999E-03   -0.13429E-04 34584   0.413E-02    0.190E+00
DAV:  50    -0.231458482899E+03   -0.29429E-03   -0.67515E-04 43120   0.111E-01    0.179E+00
DAV:  51    -0.231461321910E+03   -0.28390E-02   -0.30157E-03 43072   0.196E-01    0.188E+00
DAV:  52    -0.231462306206E+03   -0.98430E-03   -0.33816E-03 44416   0.216E-01    0.226E+00
DAV:  53    -0.231462670985E+03   -0.36478E-03   -0.10307E-03 41912   0.113E-01    0.260E+00
DAV:  54    -0.231463177197E+03   -0.50621E-03   -0.50077E-04 39936   0.979E-02    0.299E+00
DAV:  55    -0.231465990451E+03   -0.28133E-02   -0.16409E-03 43536   0.163E-01    0.350E+00
DAV:  56    -0.231466482953E+03   -0.49250E-03   -0.13431E-03 43160   0.153E-01    0.395E+00
DAV:  57    -0.231461764562E+03    0.47184E-02   -0.95424E-04 37784   0.140E-01    0.418E+00
DAV:  58    -0.231462082450E+03   -0.31789E-03   -0.25438E-04 38568   0.918E-02    0.442E+00
DAV:  59    -0.231461485177E+03    0.59727E-03   -0.28279E-04 40168   0.839E-02    0.461E+00
DAV:  60    -0.231459785888E+03    0.16993E-02   -0.16911E-04 39880   0.756E-02    0.451E+00
DAV:  61    -0.231459360786E+03    0.42510E-03   -0.24844E-05 27288   0.198E-02    0.448E+00
DAV:  62    -0.231451415900E+03    0.79449E-02   -0.16076E-03 43824   0.193E-01    0.458E+00
DAV:  63    -0.231452585045E+03   -0.11691E-02   -0.29721E-04 40432   0.555E-02    0.468E+00
DAV:  64    -0.231451847728E+03    0.73732E-03   -0.20674E-04 37992   0.592E-02    0.484E+00
DAV:  65    -0.231451834173E+03    0.13555E-04   -0.14609E-03 43280   0.189E-01    0.440E+00
DAV:  66    -0.231453260578E+03   -0.14264E-02   -0.48941E-04 43824   0.726E-02    0.412E+00
DAV:  67    -0.231458379974E+03   -0.51194E-02   -0.13883E-03 43128   0.173E-01    0.404E+00
DAV:  68    -0.231459832834E+03   -0.14529E-02   -0.43653E-04 40112   0.109E-01    0.388E+00
DAV:  69    -0.231460605902E+03   -0.77307E-03   -0.75273E-05 34472   0.292E-02    0.384E+00
DAV:  70    -0.231461342818E+03   -0.73692E-03   -0.31232E-04 42088   0.912E-02    0.360E+00
DAV:  71    -0.231462389086E+03   -0.10463E-02   -0.22643E-03 43840   0.223E-01    0.289E+00
DAV:  72    -0.231464368776E+03   -0.19797E-02   -0.88386E-03 44592   0.439E-01    0.176E+00
DAV:  73    -0.231469056402E+03   -0.46876E-02   -0.29740E-03 37640   0.233E-01    0.129E+00
DAV:  74    -0.231471105094E+03   -0.20487E-02   -0.62334E-04 35688   0.116E-01    0.123E+00
DAV:  75    -0.231471476985E+03   -0.37189E-03   -0.13895E-04 37504   0.510E-02    0.122E+00
DAV:  76    -0.231471144099E+03    0.33289E-03   -0.57696E-05 31672   0.429E-02    0.119E+00
DAV:  77    -0.231471051504E+03    0.92595E-04   -0.68100E-04 43872   0.142E-01    0.117E+00
DAV:  78    -0.231470343252E+03    0.70825E-03   -0.44140E-04 43688   0.942E-02    0.129E+00
DAV:  79    -0.231469825596E+03    0.51766E-03   -0.16137E-04 38528   0.629E-02    0.127E+00
DAV:  80    -0.231469559780E+03    0.26582E-03   -0.36935E-05 29816   0.301E-02    0.122E+00
DAV:  81    -0.231469486324E+03    0.73456E-04   -0.13269E-05 21952   0.150E-02    0.120E+00
DAV:  82    -0.231470100741E+03   -0.61442E-03   -0.36761E-04 43440   0.118E-01    0.154E+00
DAV:  83    -0.231470902565E+03   -0.80182E-03   -0.59505E-04 43480   0.119E-01    0.177E+00
DAV:  84    -0.231470987875E+03   -0.85310E-04   -0.24575E-04 42080   0.605E-02    0.196E+00
DAV:  85    -0.231470953579E+03    0.34296E-04   -0.11811E-04 33592   0.541E-02    0.216E+00
DAV:  86    -0.231471140129E+03   -0.18655E-03   -0.20175E-04 42696   0.776E-02    0.248E+00
DAV:  87    -0.231474035837E+03   -0.28957E-02   -0.86065E-03 44968   0.586E-01    0.460E+00
DAV:  88    -0.231467640605E+03    0.63952E-02   -0.54533E-03 39984   0.309E-01    0.498E+00
DAV:  89    -0.231461560982E+03    0.60796E-02   -0.10388E-03 41976   0.123E-01    0.518E+00
DAV:  90    -0.231458319237E+03    0.32417E-02   -0.19913E-04 35856   0.618E-02    0.526E+00
DAV:  91    -0.231456679440E+03    0.16398E-02   -0.55324E-05 33544   0.428E-02    0.525E+00
DAV:  92    -0.231451322055E+03    0.53574E-02   -0.22143E-02 46080   0.697E-01    0.431E+00
DAV:  93    -0.231456982739E+03   -0.56607E-02   -0.29889E-03 34928   0.166E-01    0.407E+00
DAV:  94    -0.231459587857E+03   -0.26051E-02   -0.16151E-04 38336   0.487E-02    0.400E+00
DAV:  95    -0.231460683850E+03   -0.10960E-02   -0.33041E-05 28480   0.271E-02    0.394E+00
DAV:  96    -0.231461239110E+03   -0.55526E-03   -0.49560E-05 24816   0.380E-02    0.392E+00
DAV:  97    -0.231460918455E+03    0.32066E-03   -0.10675E-03 44744   0.154E-01    0.388E+00
DAV:  98    -0.231460838478E+03    0.79976E-04   -0.25560E-04 43760   0.897E-02    0.380E+00
DAV:  99    -0.231458460017E+03    0.23785E-02   -0.64062E-04 45936   0.140E-01    0.324E+00
DAV: 100    -0.231459689538E+03   -0.12295E-02   -0.84472E-04 42104   0.114E-01    0.264E+00
DAV: 101    -0.231459720736E+03   -0.31198E-04   -0.32445E-03 41736   0.199E-01    0.167E+00
DAV: 102    -0.231461760321E+03   -0.20396E-02   -0.18755E-03 39704   0.159E-01    0.805E-01
DAV: 103    -0.231463966404E+03   -0.22061E-02   -0.81970E-04 35008   0.128E-01    0.578E-01
DAV: 104    -0.231465027640E+03   -0.10612E-02   -0.30633E-04 39376   0.646E-02    0.448E-01
DAV: 105    -0.231465451146E+03   -0.42351E-03   -0.16866E-04 34808   0.395E-02    0.400E-01
DAV: 106    -0.231465630054E+03   -0.17891E-03   -0.25271E-05 25792   0.209E-02    0.375E-01
DAV: 107    -0.231465665622E+03   -0.35568E-04   -0.35165E-05 22472   0.268E-02    0.316E-01
DAV: 108    -0.231465819150E+03   -0.15353E-03   -0.99952E-05 28480   0.302E-02    0.273E-01
DAV: 109    -0.231465897494E+03   -0.78345E-04   -0.33109E-05 24272   0.293E-02    0.233E-01
DAV: 110    -0.231465982160E+03   -0.84665E-04   -0.39336E-05 29352   0.267E-02    0.214E-01
DAV: 111    -0.231466044124E+03   -0.61964E-04   -0.36010E-05 27376   0.246E-02    0.188E-01
DAV: 112    -0.231466034471E+03    0.96526E-05   -0.15491E-04 41208   0.454E-02    0.142E-01
DAV: 113    -0.231466052522E+03   -0.18050E-04   -0.35178E-05 26504   0.217E-02    0.147E-01
DAV: 114    -0.231466029890E+03    0.22632E-04   -0.29590E-05 22904   0.211E-02    0.164E-01
DAV: 115    -0.231465974528E+03    0.55362E-04   -0.56863E-05 26944   0.282E-02    0.236E-01
DAV: 116    -0.231465925139E+03    0.49389E-04   -0.60447E-05 31672   0.273E-02    0.357E-01
DAV: 117    -0.231465777779E+03    0.14736E-03   -0.32777E-05 25432   0.221E-02    0.383E-01
DAV: 118    -0.231465702609E+03    0.75170E-04   -0.11216E-05 21152   0.143E-02    0.401E-01
DAV: 119    -0.231465661590E+03    0.41019E-04   -0.49898E-06 19952   0.133E-02    0.360E-01
DAV: 120    -0.231465687878E+03   -0.26288E-04   -0.26317E-06 18760   0.700E-03    0.323E-01
DAV: 121    -0.231465735015E+03   -0.47137E-04   -0.17206E-06 18696   0.530E-03    0.309E-01
DAV: 122    -0.231465759506E+03   -0.24491E-04   -0.10368E-06 17712   0.400E-03    0.314E-01
DAV: 123    -0.231465765132E+03   -0.56255E-05   -0.35998E-07 17568   0.280E-03
   9 F= -.23146577E+03 E0= -.23145065E+03  d E =0.473461E-01  mag=     9.0582
       N       E                     dE             d eps       ncg     rms          rms(c)
DAV:   1    -0.227915360065E+03    0.35504E+01   -0.16426E+02 34752   0.747E+01    0.755E+00
DAV:   2    -0.232084436262E+03   -0.41691E+01   -0.40294E+01 35768   0.182E+01    0.175E+01
DAV:   3    -0.232148589180E+03   -0.64153E-01   -0.11900E+01 42688   0.129E+01    0.120E+01
DAV:   4    -0.231754712496E+03    0.39388E+00   -0.14820E+00 40528   0.761E+00    0.753E+00
DAV:   5    -0.231704468868E+03    0.50244E-01   -0.64353E-01 40872   0.421E+00    0.614E+00
DAV:   6    -0.231675497423E+03    0.28971E-01   -0.34586E-01 42016   0.237E+00    0.357E+00
DAV:   7    -0.231678858598E+03   -0.33612E-02   -0.50678E-02 44608   0.132E+00    0.324E+00
DAV:   8    -0.231675136984E+03    0.37216E-02   -0.43267E-02 43184   0.138E+00    0.291E+00
DAV:   9    -0.231672836698E+03    0.23003E-02   -0.50019E-02 43512   0.143E+00    0.280E+00
DAV:  10    -0.231668045448E+03    0.47913E-02   -0.59491E-02 43600   0.199E+00    0.283E+00
DAV:  11    -0.231660035916E+03    0.80095E-02   -0.54647E-02 43304   0.145E+00    0.203E+00
DAV:  12    -0.231661651149E+03   -0.16152E-02   -0.41628E-02 41984   0.113E+00    0.230E+00
DAV:  13    -0.231661827249E+03   -0.17610E-03   -0.15612E-02 41896   0.420E-01    0.249E+00
DAV:  14    -0.231660486312E+03    0.13409E-02   -0.39353E-03 36296   0.162E-01    0.279E+00
DAV:  15    -0.231657483207E+03    0.30031E-02   -0.37261E-03 43224   0.238E-01    0.290E+00
DAV:  16    -0.231656551347E+03    0.93186E-03   -0.13147E-02 42584   0.696E-01    0.362E+00
DAV:  17    -0.231650044508E+03    0.65068E-02   -0.48832E-03 41408   0.287E-01    0.410E+00
DAV:  18    -0.231653045816E+03   -0.30013E-02   -0.20308E-02 43528   0.913E-01    0.315E+00
DAV:  19    -0.231658926281E+03   -0.58805E-02   -0.36343E-02 43032   0.105E+00    0.255E+00
DAV:  20    -0.231661335462E+03   -0.24092E-02   -0.14071E-02 41376   0.554E-01    0.274E+00
DAV:  21    -0.231657953218E+03    0.33822E-02   -0.49822E-03 43168   0.383E-01    0.287E+00
DAV:  22    -0.231654516842E+03    0.34364E-02   -0.48080E-03 45040   0.370E-01    0.326E+00
DAV:  23    -0.231646379985E+03    0.81369E-02   -0.83477E-03 43960   0.513E-01    0.396E+00
DAV:  24    -0.231637903909E+03    0.84761E-02   -0.35853E-03 42792   0.370E-01    0.419E+00
DAV:  25    -0.231634445667E+03    0.34582E-02   -0.21970E-03 44064   0.282E-01    0.349E+00
DAV:  26    -0.231642962389E+03   -0.85167E-02   -0.13230E-03 43016   0.200E-01    0.313E+00
DAV:  27    -0.231649924408E+03   -0.69620E-02   -0.67359E-04 42104   0.169E-01    0.304E+00
DAV:  28    -0.231652252433E+03   -0.23280E-02   -0.63237E-04 43784   0.149E-01    0.308E+00
DAV:  29    -0.231653671194E+03   -0.14188E-02   -0.21390E-04 42896   0.707E-02    0.309E+00
DAV:  30    -0.231653872860E+03   -0.20167E-03   -0.12884E-04 39136   0.745E-02    0.293E+00
DAV:  31    -0.231657513833E+03   -0.36410E-02   -0.39926E-04 40768   0.907E-02    0.260E+00
DAV:  32    -0.231663641220E+03   -0.61274E-02   -0.10471E-03 40408   0.130E-01    0.224E+00
DAV:  33    -0.231666564495E+03   -0.29233E-02   -0.79356E-04 40936   0.103E-01    0.192E+00
DAV:  34    -0.231669098478E+03   -0.25340E-02   -0.14613E-03 40208   0.149E-01    0.151E+00
DAV:  35    -0.231670325514E+03   -0.12270E-02   -0.17874E-03 41704   0.151E-01    0.946E-01
DAV:  36    -0.231671470570E+03   -0.11451E-02   -0.89835E-04 39064   0.983E-02    0.539E-01
DAV:  37    -0.231672372799E+03   -0.90223E-03   -0.39934E-04 38792   0.717E-02    0.328E-01
DAV:  38    -0.231672845604E+03   -0.47281E-03   -0.25621E-04 38760   0.554E-02    0.130E-01
DAV:  39    -0.231673015407E+03   -0.16980E-03   -0.14781E-04 37568   0.419E-02    0.295E-02
DAV:  40    -0.231673029166E+03   -0.13759E-04   -0.20971E-05 28048   0.152E-02    0.544E-02
DAV:  41    -0.231673029226E+03   -0.59590E-07   -0.45089E-06 20520   0.113E-02
  10 F= -.23167303E+03 E0= -.23165796E+03  d E =-.207264E+00  mag=     9.1906
       N       E                     dE             d eps       ncg     rms          rms(c)
[...]
DAV:  49    -0.231677976593E+03   -0.16788E-03   -0.64628E-06 21920   0.987E-03    0.406E+00
DAV:  50    -0.231677747543E+03    0.22905E-03   -0.49017E-06 19688   0.124E-02    0.400E+00
DAV:  51    -0.231676077652E+03    0.16699E-02   -0.26229E-04 39832   0.669E-02    0.364E+00
DAV:  52    -0.231678776102E+03   -0.26985E-02   -0.59483E-04 40312   0.114E-01    0.387E+00
DAV:  53    -0.231677799235E+03    0.97687E-03   -0.88959E-05 34016   0.345E-02    0.381E+00
DAV:  54    -0.231674964774E+03    0.28345E-02   -0.68932E-04 44280   0.105E-01    0.307E+00
DAV:  55    -0.231676704090E+03   -0.17393E-02   -0.67443E-04 38872   0.100E-01    0.232E+00
DAV:  56    -0.231680338706E+03   -0.36346E-02   -0.58436E-04 38808   0.109E-01    0.181E+00
DAV:  57    -0.231684711724E+03   -0.43730E-02   -0.36878E-04 36560   0.992E-02    0.214E+00
DAV:  58    -0.231684252954E+03    0.45877E-03   -0.12625E-04 38320   0.552E-02    0.221E+00
DAV:  59    -0.231683048464E+03    0.12045E-02   -0.29767E-04 40880   0.765E-02    0.183E+00
DAV:  60    -0.231683865396E+03   -0.81693E-03   -0.22490E-04 38240   0.559E-02    0.150E+00
DAV:  61    -0.231685070624E+03   -0.12052E-02   -0.12319E-04 35712   0.467E-02    0.122E+00
DAV:  62    -0.231686238730E+03   -0.11681E-02   -0.83613E-05 31664   0.399E-02    0.985E-01
DAV:  63    -0.231687163309E+03   -0.92458E-03   -0.75629E-05 29968   0.344E-02    0.727E-01
DAV:  64    -0.231688031709E+03   -0.86840E-03   -0.56788E-05 29616   0.371E-02    0.606E-01
DAV:  65    -0.231688489730E+03   -0.45802E-03   -0.41118E-05 28960   0.276E-02    0.467E-01
DAV:  66    -0.231688816888E+03   -0.32716E-03   -0.58848E-05 28408   0.259E-02    0.230E-01
DAV:  67    -0.231689198360E+03   -0.38147E-03   -0.13295E-04 29848   0.312E-02    0.828E-02
DAV:  68    -0.231689400515E+03   -0.20215E-03   -0.81664E-05 29184   0.384E-02    0.204E-01
DAV:  69    -0.231689362583E+03    0.37932E-04   -0.37028E-05 26792   0.241E-02    0.273E-01
DAV:  70    -0.231689281817E+03    0.80766E-04   -0.19032E-05 21248   0.143E-02    0.337E-01
DAV:  71    -0.231689190530E+03    0.91287E-04   -0.10870E-05 20224   0.107E-02    0.382E-01
DAV:  72    -0.231689111518E+03    0.79012E-04   -0.10303E-05 19880   0.758E-03    0.437E-01
DAV:  73    -0.231689020624E+03    0.90893E-04   -0.67471E-06 19680   0.699E-03    0.480E-01
DAV:  74    -0.231688934134E+03    0.86490E-04   -0.57694E-06 19080   0.616E-03    0.519E-01
DAV:  75    -0.231688851745E+03    0.82388E-04   -0.35542E-06 18752   0.524E-03    0.549E-01
DAV:  76    -0.231688780437E+03    0.71308E-04   -0.28706E-06 18576   0.424E-03    0.576E-01
DAV:  77    -0.231688719264E+03    0.61173E-04   -0.56687E-06 18440   0.457E-03    0.623E-01
DAV:  78    -0.231688623511E+03    0.95754E-04   -0.42314E-06 18792   0.569E-03    0.657E-01
DAV:  79    -0.231688533957E+03    0.89553E-04   -0.34240E-06 18576   0.501E-03    0.687E-01
DAV:  80    -0.231688450666E+03    0.83291E-04   -0.25366E-06 18504   0.416E-03    0.713E-01
DAV:  81    -0.231688376097E+03    0.74570E-04   -0.18189E-06 18304   0.351E-03    0.735E-01
DAV:  82    -0.231688314504E+03    0.61593E-04   -0.15231E-06 18024   0.313E-03    0.757E-01
DAV:  83    -0.231688251984E+03    0.62520E-04   -0.12028E-06 17944   0.291E-03    0.775E-01
DAV:  84    -0.231688197372E+03    0.54612E-04   -0.11844E-06 17664   0.263E-03    0.794E-01
DAV:  85    -0.231688141230E+03    0.56142E-04   -0.10148E-06 17552   0.256E-03    0.812E-01
DAV:  86    -0.231688088654E+03    0.52576E-04   -0.76481E-07 17248   0.235E-03    0.826E-01
DAV:  87    -0.231688039663E+03    0.48992E-04   -0.48085E-07 17072   0.222E-03    0.836E-01
DAV:  88    -0.231688002350E+03    0.37312E-04   -0.15153E-07 16896   0.202E-03    0.838E-01
DAV:  89    -0.231687986292E+03    0.16058E-04   -0.13325E-07 16864   0.104E-03    0.842E-01
DAV:  90    -0.231687972961E+03    0.13331E-04   -0.47880E-08 16856   0.637E-04    0.845E-01
DAV:  91    -0.231687959803E+03    0.13158E-04   -0.20435E-08 16856   0.617E-04    0.847E-01
DAV:  92    -0.231687967700E+03   -0.78962E-05   -0.15018E-06 16872   0.591E-03
 195 F= -.23168797E+03 E0= -.23166759E+03  d E =0.851850E-02  mag=     9.8265
       N       E                     dE             d eps       ncg     rms          rms(c)
DAV:   1    -0.231537158208E+03    0.15080E+00   -0.59117E+00 35288   0.171E+01    0.202E+00
DAV:   2    -0.232092195665E+03   -0.55504E+00   -0.41773E+00 46288   0.593E+00    0.162E+01
DAV:   3    -0.231665073161E+03    0.42712E+00   -0.42154E-01 41512   0.441E+00    0.566E+00
DAV:   4    -0.231662512932E+03    0.25602E-02   -0.95909E-02 40640   0.266E+00    0.153E+00
DAV:   5    -0.231683495878E+03   -0.20983E-01   -0.34346E-02 41944   0.101E+00    0.222E+00
DAV:   6    -0.231680102248E+03    0.33936E-02   -0.52427E-03 38288   0.372E-01    0.206E+00
DAV:   7    -0.231679983849E+03    0.11840E-03   -0.76971E-03 42096   0.425E-01    0.244E+00
DAV:   8    -0.231678806492E+03    0.11774E-02   -0.92417E-03 43856   0.519E-01    0.251E+00
DAV:   9    -0.231679292501E+03   -0.48601E-03   -0.49698E-03 42192   0.460E-01    0.275E+00
DAV:  10    -0.231680620469E+03   -0.13280E-02   -0.31485E-03 39408   0.280E-01    0.269E+00
DAV:  11    -0.231681120653E+03   -0.50018E-03   -0.16848E-03 40456   0.151E-01    0.258E+00
DAV:  12    -0.231681044112E+03    0.76540E-04   -0.33372E-04 38192   0.660E-02    0.266E+00
DAV:  13    -0.231678035863E+03    0.30082E-02   -0.65445E-03 44704   0.529E-01    0.189E+00
DAV:  14    -0.231680498544E+03   -0.24627E-02   -0.13943E-02 43024   0.752E-01    0.144E+00
DAV:  15    -0.231683389074E+03   -0.28905E-02   -0.10278E-02 41432   0.584E-01    0.169E+00
DAV:  16    -0.231683423385E+03   -0.34310E-04   -0.47052E-03 42480   0.306E-01    0.146E+00
DAV:  17    -0.231684392629E+03   -0.96924E-03   -0.18453E-03 42976   0.198E-01    0.128E+00
DAV:  18    -0.231684573271E+03   -0.18064E-03   -0.56911E-04 35928   0.678E-02    0.130E+00
DAV:  19    -0.231684135093E+03    0.43818E-03   -0.53423E-04 43112   0.101E-01    0.102E+00
DAV:  20    -0.231684507798E+03   -0.37271E-03   -0.21746E-03 45000   0.222E-01    0.110E+00
DAV:  21    -0.231684515879E+03   -0.80817E-05   -0.14224E-03 42384   0.257E-01    0.999E-01
DAV:  22    -0.231684464357E+03    0.51522E-04   -0.43442E-03 45880   0.221E-01    0.150E+00
DAV:  23    -0.231684691742E+03   -0.22738E-03   -0.19404E-03 38480   0.194E-01    0.242E+00
DAV:  24    -0.231682560248E+03    0.21315E-02   -0.96818E-04 34696   0.139E-01    0.305E+00
DAV:  25    -0.231680001364E+03    0.25589E-02   -0.75159E-04 35240   0.112E-01    0.370E+00
DAV:  26    -0.231675922716E+03    0.40786E-02   -0.68936E-04 39920   0.140E-01    0.366E+00
DAV:  27    -0.231672518680E+03    0.34040E-02   -0.27915E-03 45408   0.247E-01    0.256E+00
DAV:  28    -0.231676335959E+03   -0.38173E-02   -0.18537E-03 40952   0.202E-01    0.141E+00
DAV:  29    -0.231682250230E+03   -0.59143E-02   -0.13450E-03 35712   0.194E-01    0.132E+00
DAV:  30    -0.231683478655E+03   -0.12284E-02   -0.46432E-04 42640   0.130E-01    0.106E+00
DAV:  31    -0.231684431760E+03   -0.95310E-03   -0.39594E-04 40904   0.137E-01    0.876E-01
DAV:  32    -0.231685180497E+03   -0.74874E-03   -0.47832E-04 42744   0.152E-01    0.646E-01
DAV:  33    -0.231685987946E+03   -0.80745E-03   -0.92463E-04 43192   0.133E-01    0.223E-01
DAV:  34    -0.231687050026E+03   -0.10621E-02   -0.93828E-04 33384   0.905E-02    0.671E-01
DAV:  35    -0.231686625106E+03    0.42492E-03   -0.28355E-04 34096   0.812E-02    0.776E-01
DAV:  36    -0.231686072308E+03    0.55280E-03   -0.15091E-04 33848   0.388E-02    0.933E-01
DAV:  37    -0.231685552833E+03    0.51948E-03   -0.10475E-04 26744   0.262E-02    0.111E+00
DAV:  38    -0.231685029517E+03    0.52332E-03   -0.13193E-04 32088   0.377E-02    0.130E+00
DAV:  39    -0.231684211340E+03    0.81818E-03   -0.41421E-05 28880   0.334E-02    0.123E+00
DAV:  40    -0.231684117073E+03    0.94268E-04   -0.12668E-05 22880   0.119E-02    0.117E+00
DAV:  41    -0.231684190920E+03   -0.73847E-04   -0.26962E-05 20928   0.129E-02    0.108E+00
DAV:  42    -0.231684446852E+03   -0.25593E-03   -0.93043E-05 23304   0.173E-02    0.885E-01
DAV:  43    -0.231684997206E+03   -0.55035E-03   -0.12255E-04 25912   0.235E-02    0.684E-01
DAV:  44    -0.231685611387E+03   -0.61418E-03   -0.81586E-05 26392   0.265E-02    0.545E-01
DAV:  45    -0.231686057210E+03   -0.44582E-03   -0.40726E-05 25752   0.234E-02    0.462E-01
DAV:  46    -0.231686329909E+03   -0.27270E-03   -0.40666E-05 24832   0.219E-02    0.363E-01
DAV:  47    -0.231686513082E+03   -0.18317E-03   -0.61111E-05 24256   0.166E-02    0.222E-01
DAV:  48    -0.231686702102E+03   -0.18902E-03   -0.35580E-05 23104   0.192E-02    0.137E-01
DAV:  49    -0.231686803148E+03   -0.10105E-03   -0.19638E-05 21848   0.168E-02    0.982E-02
DAV:  50    -0.231686845815E+03   -0.42667E-04   -0.12057E-05 21472   0.143E-02    0.771E-02
DAV:  51    -0.231686857532E+03   -0.11717E-04   -0.81274E-06 21560   0.979E-03    0.651E-02
DAV:  52    -0.231686860317E+03   -0.27847E-05   -0.34603E-06 18440   0.553E-03
 196 F= -.23168686E+03 E0= -.23166669E+03  d E =0.110738E-02  mag=     9.8260
       N       E                     dE             d eps       ncg     rms          rms(c)
DAV:   1    -0.231652432137E+03    0.34425E-01   -0.34409E+00 34152   0.936E+00    0.925E-01
DAV:   2    -0.231862158643E+03   -0.20973E+00   -0.15297E+00 44456   0.293E+00    0.138E+01
DAV:   3    -0.231631648936E+03    0.23051E+00   -0.10077E-01 38552   0.237E+00    0.623E+00
DAV:   4    -0.231659168100E+03   -0.27519E-01   -0.64172E-02 41064   0.845E-01    0.295E+00
DAV:   5    -0.231680604842E+03   -0.21437E-01   -0.97556E-03 39416   0.597E-01    0.218E+00
DAV:   6    -0.231685156484E+03   -0.45516E-02   -0.41179E-03 40280   0.383E-01    0.161E+00
DAV:   7    -0.231689117252E+03   -0.39608E-02   -0.25282E-03 40760   0.334E-01    0.170E+00
DAV:   8    -0.231689988150E+03   -0.87090E-03   -0.11098E-03 42304   0.242E-01    0.174E+00
DAV:   9    -0.231688752967E+03    0.12352E-02   -0.94891E-04 44432   0.182E-01    0.123E+00
DAV:  10    -0.231690113754E+03   -0.13608E-02   -0.90494E-03 42184   0.321E-01    0.667E-01
DAV:  11    -0.231692953445E+03   -0.28397E-02   -0.27754E-03 38160   0.356E-01    0.853E-01
DAV:  12    -0.231692162913E+03    0.79053E-03   -0.96987E-04 41960   0.188E-01    0.107E+00
DAV:  13    -0.231691367329E+03    0.79558E-03   -0.26632E-04 38496   0.811E-02    0.135E+00
DAV:  14    -0.231690060202E+03    0.13071E-02   -0.18297E-04 34544   0.703E-02    0.156E+00
DAV:  15    -0.231689048665E+03    0.10115E-02   -0.13951E-04 34728   0.582E-02    0.180E+00
DAV:  16    -0.231688127952E+03    0.92071E-03   -0.12081E-04 35064   0.706E-02    0.168E+00
DAV:  17    -0.231687934672E+03    0.19328E-03   -0.32218E-04 39928   0.147E-01    0.125E+00
DAV:  18    -0.231689631244E+03   -0.16966E-02   -0.15085E-03 42640   0.197E-01    0.335E-01
DAV:  19    -0.231693424372E+03   -0.37931E-02   -0.63897E-03 41976   0.277E-01    0.134E+00
DAV:  20    -0.231692693241E+03    0.73113E-03   -0.25486E-03 36536   0.239E-01    0.180E+00
DAV:  21    -0.231689552667E+03    0.31406E-02   -0.12122E-03 41784   0.175E-01    0.147E+00
DAV:  22    -0.231689397863E+03    0.15480E-03   -0.54373E-04 44432   0.917E-02    0.122E+00
DAV:  23    -0.231689960402E+03   -0.56254E-03   -0.18120E-04 30120   0.346E-02    0.106E+00
DAV:  24    -0.231690792868E+03   -0.83247E-03   -0.19581E-03 41424   0.107E-01    0.297E-01
DAV:  25    -0.231692997308E+03   -0.22044E-02   -0.16369E-03 37496   0.122E-01    0.900E-01
DAV:  26    -0.231692941739E+03    0.55569E-04   -0.72939E-04 34384   0.126E-01    0.161E+00
DAV:  27    -0.231691040105E+03    0.19016E-02   -0.59073E-04 33304   0.108E-01    0.226E+00
DAV:  28    -0.231688457901E+03    0.25822E-02   -0.40365E-04 33216   0.879E-02    0.262E+00
DAV:  29    -0.231686022474E+03    0.24354E-02   -0.18185E-04 35200   0.637E-02    0.274E+00
DAV:  30    -0.231684316462E+03    0.17060E-02   -0.74479E-05 35912   0.513E-02    0.260E+00
DAV:  31    -0.231683665308E+03    0.65115E-03   -0.21740E-04 41392   0.793E-02    0.199E+00
DAV:  32    -0.231685675767E+03   -0.20105E-02   -0.84804E-04 38448   0.112E-01    0.783E-01
DAV:  33    -0.231690803517E+03   -0.51278E-02   -0.23617E-03 34136   0.138E-01    0.569E-01
DAV:  34    -0.231693191528E+03   -0.23880E-02   -0.16213E-03 33704   0.160E-01    0.102E+00
DAV:  35    -0.231691901839E+03    0.12897E-02   -0.44785E-04 39744   0.105E-01    0.101E+00
DAV:  36    -0.231691228763E+03    0.67308E-03   -0.96408E-05 38960   0.409E-02    0.931E-01
DAV:  37    -0.231691164398E+03    0.64365E-04   -0.59534E-05 25576   0.213E-02    0.765E-01
DAV:  38    -0.231691501786E+03   -0.33739E-03   -0.29410E-04 30232   0.273E-02    0.415E-01
DAV:  39    -0.231692274044E+03   -0.77226E-03   -0.29483E-04 29928   0.404E-02    0.919E-02
DAV:  40    -0.231692814862E+03   -0.54082E-03   -0.21129E-04 30376   0.431E-02    0.259E-01
DAV:  41    -0.231692881869E+03   -0.67007E-04   -0.93934E-05 30080   0.442E-02    0.414E-01
DAV:  42    -0.231692681147E+03    0.20072E-03   -0.34863E-05 28872   0.312E-02    0.408E-01
DAV:  43    -0.231692584087E+03    0.97059E-04   -0.24804E-05 23864   0.201E-02    0.245E-01
DAV:  44    -0.231692710884E+03   -0.12680E-03   -0.68439E-05 25328   0.186E-02    0.199E-02
DAV:  45    -0.231692858306E+03   -0.14742E-03   -0.66084E-05 25888   0.266E-02    0.165E-01
DAV:  46    -0.231692851696E+03    0.66109E-05   -0.29025E-05 24296   0.242E-02
 197 F= -.23169285E+03 E0= -.23167262E+03  d E =-.599138E-02  mag=     9.8138
       N       E                     dE             d eps       ncg     rms          rms(c)
DAV:   1    -0.231604945540E+03    0.87913E-01   -0.46374E+00 34576   0.138E+01    0.849E-01
DAV:   2    -0.231699643773E+03   -0.94698E-01   -0.90378E-01 34032   0.270E+00    0.369E+00
DAV:   3    -0.231686449072E+03    0.13195E-01   -0.15863E-01 38024   0.126E+00    0.288E+00
DAV:   4    -0.231693026035E+03   -0.65770E-02   -0.31001E-02 36744   0.110E+00    0.196E+00
DAV:   5    -0.231689074445E+03    0.39516E-02   -0.57296E-03 36784   0.653E-01    0.593E-01
DAV:   6    -0.231691305173E+03   -0.22307E-02   -0.27433E-03 36776   0.411E-01    0.701E-01
DAV:   7    -0.231691231402E+03    0.73772E-04   -0.16725E-03 41760   0.304E-01    0.515E-01
DAV:   8    -0.231691562882E+03   -0.33148E-03   -0.18288E-03 40184   0.264E-01    0.567E-01
DAV:   9    -0.231691545778E+03    0.17104E-04   -0.72664E-04 41192   0.177E-01    0.599E-01
DAV:  10    -0.231691273057E+03    0.27272E-03   -0.26334E-04 41240   0.963E-02    0.516E-01
DAV:  11    -0.231691222865E+03    0.50192E-04   -0.77395E-05 30632   0.376E-02    0.506E-01
DAV:  12    -0.231691179028E+03    0.43837E-04   -0.56367E-05 25056   0.263E-02    0.547E-01
DAV:  13    -0.231691142043E+03    0.36985E-04   -0.29373E-04 30544   0.560E-02    0.787E-01
DAV:  14    -0.231690838088E+03    0.30395E-03   -0.15175E-04 30312   0.447E-02    0.914E-01
DAV:  15    -0.231690285394E+03    0.55269E-03   -0.76220E-04 42624   0.104E-01    0.335E-01
DAV:  16    -0.231691660871E+03   -0.13755E-02   -0.18087E-03 43360   0.201E-01    0.786E-01
DAV:  17    -0.231691573088E+03    0.87783E-04   -0.10783E-03 39640   0.198E-01    0.123E+00
DAV:  18    -0.231689851091E+03    0.17220E-02   -0.46082E-04 37632   0.119E-01    0.118E+00
DAV:  19    -0.231689324295E+03    0.52680E-03   -0.10350E-04 37240   0.416E-02    0.117E+00
DAV:  20    -0.231688995278E+03    0.32902E-03   -0.30926E-05 24120   0.361E-02    0.110E+00
DAV:  21    -0.231689101651E+03   -0.10637E-03   -0.40352E-05 22592   0.299E-02    0.860E-01
DAV:  22    -0.231689884071E+03   -0.78242E-03   -0.54409E-04 42736   0.112E-01    0.226E-01
DAV:  23    -0.231691777899E+03   -0.18938E-02   -0.25024E-03 38192   0.135E-01    0.914E-01
DAV:  24    -0.231691399629E+03    0.37827E-03   -0.15954E-03 34776   0.127E-01    0.150E+00
DAV:  25    -0.231689260674E+03    0.21390E-02   -0.55606E-04 34304   0.939E-02    0.184E+00
DAV:  26    -0.231687405693E+03    0.18550E-02   -0.27929E-04 33912   0.585E-02    0.212E+00
DAV:  27    -0.231686127003E+03    0.12787E-02   -0.22116E-04 31656   0.528E-02    0.247E+00
DAV:  28    -0.231684772428E+03    0.13546E-02   -0.25379E-04 33456   0.525E-02    0.283E+00
DAV:  29    -0.231683020400E+03    0.17520E-02   -0.13507E-04 31616   0.475E-02    0.306E+00
DAV:  30    -0.231681487810E+03    0.15326E-02   -0.69551E-05 30376   0.354E-02    0.320E+00
DAV:  31    -0.231680828927E+03    0.65888E-03   -0.55229E-05 30208   0.289E-02    0.343E+00
DAV:  32    -0.231681457439E+03   -0.62851E-03   -0.20898E-04 37760   0.605E-02    0.411E+00
DAV:  33    -0.231680080036E+03    0.13774E-02   -0.40486E-04 34960   0.808E-02    0.478E+00
DAV:  34    -0.231676937232E+03    0.31428E-02   -0.32254E-04 33744   0.784E-02    0.524E+00
DAV:  35    -0.231673838016E+03    0.30992E-02   -0.18768E-04 32704   0.602E-02    0.557E+00
DAV:  36    -0.231671116618E+03    0.27214E-02   -0.10513E-04 32736   0.446E-02    0.582E+00
DAV:  37    -0.231668301181E+03    0.28154E-02   -0.47830E-05 29952   0.345E-02    0.593E+00
DAV:  38    -0.231665217870E+03    0.30833E-02   -0.41484E-05 29360   0.410E-02    0.574E+00
DAV:  39    -0.231662675952E+03    0.25419E-02   -0.26150E-04 42440   0.807E-02    0.503E+00
DAV:  40    -0.231662830412E+03   -0.15446E-03   -0.11224E-03 41016   0.131E-01    0.352E+00
DAV:  41    -0.231670962114E+03   -0.81317E-02   -0.22859E-03 33832   0.159E-01    0.217E+00
DAV:  42    -0.231680192165E+03   -0.92301E-02   -0.28851E-03 34128   0.167E-01    0.119E+00
DAV:  43    -0.231686609947E+03   -0.64178E-02   -0.27128E-03 33520   0.140E-01    0.443E-01
DAV:  44    -0.231690299350E+03   -0.36894E-02   -0.16374E-03 33616   0.108E-01    0.305E-01
DAV:  45    -0.231691835972E+03   -0.15366E-02   -0.62660E-04 32712   0.997E-02    0.879E-01
DAV:  46    -0.231691211552E+03    0.62442E-03   -0.32629E-04 32768   0.816E-02    0.130E+00
DAV:  47    -0.231689857794E+03    0.13538E-02   -0.16889E-04 32624   0.631E-02    0.150E+00
DAV:  48    -0.231688808772E+03    0.10490E-02   -0.80375E-05 31016   0.367E-02    0.169E+00
DAV:  49    -0.231687861830E+03    0.94694E-03   -0.35233E-05 27472   0.288E-02    0.172E+00
DAV:  50    -0.231687439883E+03    0.42195E-03   -0.10588E-05 22968   0.127E-02    0.174E+00
DAV:  51    -0.231687298470E+03    0.14141E-03   -0.42745E-06 20272   0.107E-02    0.179E+00
DAV:  52    -0.231687188058E+03    0.11041E-03   -0.17760E-05 22104   0.232E-02    0.196E+00
DAV:  53    -0.231686501381E+03    0.68668E-03   -0.19607E-05 24200   0.277E-02    0.190E+00
DAV:  54    -0.231686447982E+03    0.53399E-04   -0.41684E-06 20248   0.946E-03    0.191E+00
DAV:  55    -0.231686395547E+03    0.52435E-04   -0.14901E-06 18088   0.534E-03    0.191E+00
DAV:  56    -0.231686296299E+03    0.99248E-04   -0.24719E-06 18680   0.781E-03    0.184E+00
DAV:  57    -0.231686148511E+03    0.14779E-03   -0.68236E-05 29200   0.380E-02    0.141E+00
DAV:  58    -0.231687490131E+03   -0.13416E-02   -0.18221E-04 33088   0.484E-02    0.956E-01
DAV:  59    -0.231689134398E+03   -0.16443E-02   -0.19702E-04 32344   0.539E-02    0.527E-01
DAV:  60    -0.231690502707E+03   -0.13683E-02   -0.21938E-04 32296   0.537E-02    0.158E-01
DAV:  61    -0.231691280104E+03   -0.77740E-03   -0.14534E-04 31376   0.522E-02    0.106E-01
DAV:  62    -0.231691482422E+03   -0.20232E-03   -0.76572E-05 30968   0.347E-02    0.197E-01
DAV:  63    -0.231691451880E+03    0.30542E-04   -0.19548E-05 24368   0.268E-02    0.147E-01
DAV:  64    -0.231691464983E+03   -0.13104E-04   -0.10430E-04 25600   0.255E-02    0.155E-01
DAV:  65    -0.231691492010E+03   -0.27026E-04   -0.46155E-05 28072   0.314E-02    0.251E-01
DAV:  66    -0.231691411635E+03    0.80375E-04   -0.12313E-05 21912   0.211E-02    0.201E-01
DAV:  67    -0.231691404828E+03    0.68067E-05   -0.36342E-06 18032   0.726E-03
 198 F= -.23169140E+03 E0= -.23167147E+03  d E =0.144687E-02  mag=     9.8161
