       N       E                     dE             d eps       ncg     rms          rms(c)
DAV:   1     0.715574480029E+04    0.71557E+04   -0.28867E+05 39088   0.160E+03
DAV:   2     0.505586962171E+03   -0.66502E+04   -0.61911E+04 38392   0.485E+02
DAV:   3    -0.383287318633E+03   -0.88887E+03   -0.87453E+03 40168   0.189E+02
DAV:   4    -0.426488619539E+03   -0.43201E+02   -0.42747E+02 48496   0.374E+01
DAV:   5    -0.429145682525E+03   -0.26571E+01   -0.26408E+01 64184   0.701E+00    0.527E+01
DAV:   6    -0.387517047852E+03    0.41629E+02   -0.21601E+02 46216   0.312E+01    0.385E+01
DAV:   7    -0.388820393325E+03   -0.13033E+01   -0.17321E+01 42168   0.967E+00    0.285E+01
DAV:   8    -0.388496264710E+03    0.32413E+00   -0.22000E+00 46976   0.370E+00    0.142E+01
DAV:   9    -0.388660986679E+03   -0.16472E+00   -0.72514E-01 43272   0.265E+00    0.259E+00
DAV:  10    -0.388719072733E+03   -0.58086E-01   -0.20167E-01 44680   0.920E-01    0.980E-01
DAV:  11    -0.388735761787E+03   -0.16689E-01   -0.22705E-02 52728   0.316E-01    0.564E-01
DAV:  12    -0.388749024175E+03   -0.13262E-01   -0.62316E-03 40584   0.175E-01    0.374E-01
DAV:  13    -0.388754892875E+03   -0.58687E-02   -0.38199E-03 42096   0.172E-01    0.221E-01
DAV:  14    -0.388756299785E+03   -0.14069E-02   -0.28029E-03 42072   0.127E-01    0.137E-01
DAV:  15    -0.388756328051E+03   -0.28266E-04   -0.43644E-04 42344   0.544E-02    0.937E-02
DAV:  16    -0.388756399497E+03   -0.71446E-04   -0.40272E-04 41952   0.464E-02    0.586E-02
DAV:  17    -0.388756436460E+03   -0.36963E-04   -0.97564E-05 40760   0.222E-02    0.270E-02
DAV:  18    -0.388756445007E+03   -0.85475E-05   -0.72452E-05 39032   0.203E-02
   1 F= -.38875645E+03 E0= -.38875645E+03  d E =-.388756E+03  mag=    60.0048
