       N       E                     dE             d eps       ncg     rms          ort
DAV:   1     0.674468697061E+04    0.67447E+04   -0.30693E+05 19264   0.162E+03
DAV:   2     0.418732270052E+03   -0.63260E+04   -0.60123E+04 19264   0.464E+02
DAV:   3    -0.437480946187E+03   -0.85621E+03   -0.83348E+03 19264   0.181E+02
DAV:   4    -0.474429721326E+03   -0.36949E+02   -0.36107E+02 19264   0.421E+01
DAV:   5    -0.475723145819E+03   -0.12934E+01   -0.12797E+01 19264   0.735E+00
SDA:   6    -0.233959372820E+03    0.24176E+03   -0.12797E+01 19264   0.274E+04 0.000E+00
CGA:   7    -0.132202749488E+03    0.10176E+03   -0.17183E+03 19264   0.779E+04-0.232E+04
CGA:   8     0.144284594087E+03    0.27649E+03   -0.37282E+03 19264   0.265E+05-0.177E+05
CGA:   9     0.908961610106E+03    0.76468E+03   -0.15632E+04 19264   0.475E+04-0.279E+04
CGA:  10     0.648215521883E+03   -0.26075E+03   -0.24771E+02 19264   0.594E+05 0.649E+05
CGA:  11     0.577879944238E+03   -0.70336E+02   -0.28346E+04 19264   0.109E+05-0.984E+04
CGA:  12    -0.135208679568E+03   -0.71309E+03   -0.16721E+03 19264   0.195E+04 0.400E+04
CGA:  13    -0.344981677681E+03   -0.20977E+03   -0.45484E+02 19264   0.233E+04 0.529E+04
CGA:  14    -0.392781185237E+03   -0.47800E+02   -0.54187E+02 19264   0.503E+03-0.585E+03
CGA:  15    -0.400688289164E+03   -0.79071E+01   -0.91159E+01 19264   0.116E+03-0.447E+02
CGA:  16    -0.402841657618E+03   -0.21534E+01   -0.26263E+01 19264   0.966E+02-0.264E+02
CGA:  17    -0.404855556395E+03   -0.20139E+01   -0.12406E+01 19264   0.640E+02 0.458E+02
CGA:  18    -0.405376891436E+03   -0.52134E+00   -0.19831E+01 19264   0.188E+03-0.108E+03
CGA:  19    -0.404628746451E+03    0.74814E+00   -0.59295E+01 19264   0.261E+03-0.136E+03
CGA:  20    -0.407500808662E+03   -0.28721E+01   -0.52345E+01 19264   0.105E+03-0.144E+03
CGA:  21    -0.408879729693E+03   -0.13789E+01   -0.17704E+01 19264   0.271E+02-0.269E+02
CGA:  22    -0.410406255321E+03   -0.15265E+01   -0.14563E+01 19264   0.550E+02 0.401E+00
CGA:  23    -0.411446484659E+03   -0.10402E+01   -0.18708E+01 19264   0.126E+03-0.639E+02
CGA:  24    -0.411871668012E+03   -0.42518E+00   -0.22535E+01 19264   0.107E+03-0.103E+03
CGA:  25    -0.411755751144E+03    0.11592E+00   -0.21994E+01 19264   0.140E+03-0.107E+03
CGA:  26    -0.412412762026E+03   -0.65701E+00   -0.23968E+01 19264   0.933E+02-0.102E+03
CGA:  27    -0.412789363652E+03   -0.37660E+00   -0.16782E+01 19264   0.735E+02-0.710E+02
CGA:  28    -0.413405482715E+03   -0.61612E+00   -0.10873E+01 19264   0.250E+02-0.316E+02
CGA:  29    -0.414060252210E+03   -0.65477E+00   -0.66270E+00 19264   0.177E+02 0.502E-01
CGA:  30    -0.414541668567E+03   -0.48142E+00   -0.49106E+00 19264   0.133E+02 0.501E+00
CGA:  31    -0.415375032500E+03   -0.83336E+00   -0.72923E+00 19264   0.192E+02 0.808E+00
CGA:  32    -0.415938715208E+03   -0.56368E+00   -0.36957E+00 19264   0.328E+01 0.106E+02
CGA:  33    -0.416070998360E+03   -0.13228E+00   -0.14835E+00 19264   0.953E+01-0.451E-01
CGA:  34    -0.416752788442E+03   -0.68179E+00   -0.68540E+00 19264   0.129E+02-0.646E+01
CGA:  35    -0.416913299689E+03   -0.16051E+00   -0.21852E+00 19264   0.408E+01-0.299E+01
CGA:  36    -0.417137984455E+03   -0.22468E+00   -0.22538E+00 19264   0.634E+01-0.173E+00
CGA:  37    -0.417435728389E+03   -0.29774E+00   -0.32926E+00 19264   0.401E+01 0.618E+00
CGA:  38    -0.417556432238E+03   -0.12070E+00   -0.12292E+00 19264   0.180E+01-0.373E-01
CGA:  39    -0.417680221460E+03   -0.12379E+00   -0.12383E+00 19264   0.316E+01-0.694E-02
CGA:  40    -0.417854868012E+03   -0.17465E+00   -0.16877E+00 19264   0.240E+01-0.194E-01
CGA:  41    -0.417933050379E+03   -0.78182E-01   -0.71491E-01 19264   0.514E+00 0.169E+00
CGA:  42    -0.417957231340E+03   -0.24181E-01   -0.24727E-01 19264   0.691E+00 0.146E-02
CGA:  43    -0.418013437845E+03   -0.56207E-01   -0.54324E-01 19264   0.557E+00 0.834E-01
CGA:  44    -0.418031151439E+03   -0.17714E-01   -0.18383E-01 19264   0.202E+00-0.117E-01
CGA:  45    -0.418040225107E+03   -0.90737E-02   -0.91802E-02 19264   0.152E+00 0.125E-02
CGA:  46    -0.418049041481E+03   -0.88164E-02   -0.88404E-02 19264   0.164E+00 0.285E-02
CGA:  47    -0.418057820551E+03   -0.87791E-02   -0.88185E-02 19264   0.123E+00 0.180E-02
CGA:  48    -0.418063482853E+03   -0.56623E-02   -0.57210E-02 19264   0.717E-01 0.918E-03
CGA:  49    -0.418066647492E+03   -0.31646E-02   -0.31828E-02 19264   0.425E-01 0.253E-03
CGA:  50    -0.418068949831E+03   -0.23023E-02   -0.23062E-02 19264   0.378E-01 0.311E-03
CGA:  51    -0.418071160405E+03   -0.22106E-02   -0.22112E-02 19264   0.340E-01 0.217E-03
CGA:  52    -0.418072921950E+03   -0.17615E-02   -0.17648E-02 19264   0.214E-01 0.111E-03
CGA:  53    -0.418073875895E+03   -0.95395E-03   -0.95472E-03 19264   0.119E-01-0.420E-04
CGA:  54    -0.418074494932E+03   -0.61904E-03   -0.61892E-03 19264   0.941E-02-0.474E-04
CGA:  55    -0.418075050699E+03   -0.55577E-03   -0.55591E-03 19264   0.929E-02-0.942E-04
CGA:  56    -0.418075590597E+03   -0.53990E-03   -0.53994E-03 19264   0.719E-02-0.733E-04
CGA:  57    -0.418075919600E+03   -0.32900E-03   -0.32790E-03 19264   0.401E-02-0.718E-04
CGA:  58    -0.418076126778E+03   -0.20718E-03   -0.20688E-03 19264   0.325E-02-0.482E-04
CGA:  59    -0.418076334334E+03   -0.20756E-03   -0.20806E-03 19264   0.383E-02-0.568E-04
CGA:  60    -0.418076565959E+03   -0.23162E-03   -0.23196E-03 19264   0.327E-02-0.629E-04
CGA:  61    -0.418076716947E+03   -0.15099E-03   -0.15064E-03 19264   0.177E-02-0.238E-04
CGA:  62    -0.418076800852E+03   -0.83905E-04   -0.83750E-04 19264   0.127E-02-0.563E-05
CGA:  63    -0.418076885866E+03   -0.85014E-04   -0.85022E-04 19264   0.163E-02 0.369E-05
CGA:  64    -0.418076982831E+03   -0.96965E-04   -0.96961E-04 19264   0.125E-02 0.120E-04
SDA:  65    -0.418077036775E+03   -0.53944E-04   -0.54061E-04 19264   0.599E-03 0.148E-04
CGA:  66    -0.418077047822E+03   -0.11047E-04   -0.11065E-04 19264   0.136E-03 0.275E-05
CGA:  67    -0.418077108721E+03   -0.60899E-04   -0.12850E-04 19264   0.540E-03 0.390E-04
CGA:  68    -0.418077146402E+03   -0.37681E-04   -0.38216E-04 19264   0.387E-03 0.148E-04
CGA:  69    -0.418077159294E+03   -0.12893E-04   -0.13229E-04 19264   0.191E-03 0.105E-04
CGA:  70    -0.418077168731E+03   -0.94366E-05   -0.97079E-05 19264   0.108E-03 0.652E-05
   1 F= -.41807717E+03 E0= -.41804475E+03  d E =-.418077E+03  mag=    34.0000
       N       E                     dE             d eps       ncg     rms          ort
SDA:   1    -0.417946291972E+03    0.13087E+00    0.00000E+00 19264   0.950E+01 0.000E+00
CGA:   2    -0.418080492154E+03   -0.13420E+00   -0.14440E+00 19264   0.839E-01-0.704E+00
CGA:   3    -0.418081759775E+03   -0.12676E-02   -0.12682E-02 19264   0.518E-02-0.192E-04
CGA:   4    -0.418082002783E+03   -0.24301E-03   -0.24289E-03 19264   0.650E-02 0.167E-05
CGA:   5    -0.418082426923E+03   -0.42414E-03   -0.42410E-03 19264   0.689E-02-0.319E-05
CGA:   6    -0.418082635042E+03   -0.20812E-03   -0.20796E-03 19264   0.108E-02 0.248E-05
CGA:   7    -0.418082727830E+03   -0.92789E-04   -0.92772E-04 19264   0.223E-02 0.341E-05
CGA:   8    -0.418082817003E+03   -0.89173E-04   -0.89282E-04 19264   0.114E-02 0.363E-05
CGA:   9    -0.418082852691E+03   -0.35687E-04   -0.35712E-04 19264   0.261E-03 0.120E-05
CGA:  10    -0.418082862567E+03   -0.98757E-05   -0.98564E-05 19264   0.248E-03-0.428E-06
CGA:  11    -0.418082875836E+03   -0.13269E-04   -0.13233E-04 19264   0.169E-03-0.185E-05
CGA:  12    -0.418082886504E+03   -0.10668E-04   -0.10652E-04 19264   0.878E-04-0.195E-05
CGA:  13    -0.418082888675E+03   -0.21714E-05   -0.21548E-05 19264   0.246E-04-0.338E-06
   2 F= -.41808289E+03 E0= -.41805040E+03  d E =-.571994E-02  mag=    34.0000
       N       E                     dE             d eps       ncg     rms          ort
SDA:   1    -0.412165102776E+03    0.59178E+01    0.00000E+00 19264   0.704E+02 0.000E+00
CGA:   2    -0.413636971608E+03   -0.14719E+01   -0.15071E+01 19264   0.212E+02-0.316E+01
CGA:   3    -0.415251589662E+03   -0.16146E+01   -0.16130E+01 19264   0.348E+02 0.116E+00
CGA:   4    -0.417165516347E+03   -0.19139E+01   -0.19032E+01 19264   0.662E+01-0.150E+00
CGA:   5    -0.417465050951E+03   -0.29953E+00   -0.29910E+00 19264   0.110E+02-0.241E-02
CGA:   6    -0.418075330746E+03   -0.61028E+00   -0.60890E+00 19264   0.522E+01-0.422E-01
CGA:   7    -0.418248941384E+03   -0.17361E+00   -0.17406E+00 19264   0.739E+00-0.106E-01
CGA:   8    -0.418329285755E+03   -0.80344E-01   -0.80211E-01 19264   0.159E+01 0.289E-02
CGA:   9    -0.418372309552E+03   -0.43024E-01   -0.43467E-01 19264   0.456E+00-0.105E-01
CGA:  10    -0.418386421390E+03   -0.14112E-01   -0.14138E-01 19264   0.124E+00-0.562E-03
CGA:  11    -0.418396297426E+03   -0.98760E-02   -0.98660E-02 19264   0.241E+00 0.460E-03
CGA:  12    -0.418404672303E+03   -0.83749E-02   -0.84400E-02 19264   0.100E+00-0.529E-03
CGA:  13    -0.418409043880E+03   -0.43716E-02   -0.43632E-02 19264   0.289E-01-0.531E-04
CGA:  14    -0.418410358392E+03   -0.13145E-02   -0.13153E-02 19264   0.320E-01 0.153E-04
CGA:  15    -0.418411840708E+03   -0.14823E-02   -0.14838E-02 19264   0.317E-01 0.392E-04
CGA:  16    -0.418413744689E+03   -0.19040E-02   -0.19040E-02 19264   0.943E-02 0.228E-04
CGA:  17    -0.418414026876E+03   -0.28219E-03   -0.28257E-03 19264   0.557E-02-0.573E-05
CGA:  18    -0.418414385982E+03   -0.35911E-03   -0.35909E-03 19264   0.819E-02 0.375E-05
CGA:  19    -0.418414989729E+03   -0.60375E-03   -0.60350E-03 19264   0.453E-02 0.105E-04
CGA:  20    -0.418415088548E+03   -0.98819E-04   -0.98834E-04 19264   0.131E-02-0.371E-05
CGA:  21    -0.418415193940E+03   -0.10539E-03   -0.10534E-03 19264   0.212E-02 0.143E-05
CGA:  22    -0.418415346346E+03   -0.15241E-03   -0.15235E-03 19264   0.184E-02 0.310E-05
CGA:  23    -0.418415392152E+03   -0.45806E-04   -0.45876E-04 19264   0.481E-03-0.457E-06
CGA:  24    -0.418415417826E+03   -0.25675E-04   -0.25684E-04 19264   0.350E-03 0.163E-05
CGA:  25    -0.418415437035E+03   -0.19209E-04   -0.19216E-04 19264   0.563E-03 0.259E-05
CGA:  26    -0.418415465173E+03   -0.28138E-04   -0.28174E-04 19264   0.250E-03 0.409E-05
CGA:  27    -0.418415474930E+03   -0.97563E-05   -0.97867E-05 19264   0.741E-04 0.865E-06
   3 F= -.41841547E+03 E0= -.41838334E+03  d E =-.332586E+00  mag=    34.0000
       N       E                     dE             d eps       ncg     rms          ort
SDA:   1    -0.389053908651E+03    0.29362E+02    0.00000E+00 19264   0.492E+03 0.000E+00
CGA:   2    -0.398202426674E+03   -0.91485E+01   -0.95842E+01 19264   0.897E+02-0.501E+02
CGA:   3    -0.404752968098E+03   -0.65505E+01   -0.68016E+01 19264   0.201E+03-0.769E+01
CGA:   4    -0.412249497868E+03   -0.74965E+01   -0.68978E+01 19264   0.112E+03 0.413E+01
CGA:   5    -0.414384046401E+03   -0.21345E+01   -0.20293E+01 19264   0.285E+02 0.274E+01
CGA:   6    -0.415112173961E+03   -0.72813E+00   -0.71588E+00 19264   0.312E+02 0.186E+00
CGA:   7    -0.416937831209E+03   -0.18257E+01   -0.18285E+01 19264   0.531E+02-0.261E+00
CGA:   8    -0.417907748374E+03   -0.96992E+00   -0.99947E+00 19264   0.154E+02-0.160E+01
CGA:   9    -0.418170097330E+03   -0.26235E+00   -0.27061E+00 19264   0.513E+01-0.335E+00
CGA:  10    -0.418282138002E+03   -0.11204E+00   -0.11207E+00 19264   0.383E+01-0.543E-02
CGA:  11    -0.418463192089E+03   -0.18105E+00   -0.18097E+00 19264   0.759E+01 0.865E-01
CGA:  12    -0.418657409942E+03   -0.19422E+00   -0.20644E+00 19264   0.178E+01-0.136E+00
CGA:  13    -0.418692915716E+03   -0.35506E-01   -0.35765E-01 19264   0.575E+00-0.817E-02
CGA:  14    -0.418713606521E+03   -0.20691E-01   -0.20901E-01 19264   0.637E+00 0.762E-02
CGA:  15    -0.418750422931E+03   -0.36816E-01   -0.36255E-01 19264   0.933E+00 0.324E-01
CGA:  16    -0.418776820578E+03   -0.26398E-01   -0.26261E-01 19264   0.208E+00 0.160E-02
CGA:  17    -0.418783246689E+03   -0.64261E-02   -0.65428E-02 19264   0.115E+00 0.121E-02
CGA:  18    -0.418789065868E+03   -0.58192E-02   -0.58240E-02 19264   0.123E+00-0.402E-03
CGA:  19    -0.418794728909E+03   -0.56630E-02   -0.56559E-02 19264   0.147E+00 0.157E-02
CGA:  20    -0.418800433350E+03   -0.57044E-02   -0.57342E-02 19264   0.662E-01 0.212E-02
CGA:  21    -0.418802451015E+03   -0.20177E-02   -0.20172E-02 19264   0.233E-01 0.399E-05
CGA:  22    -0.418803772833E+03   -0.13218E-02   -0.13175E-02 19264   0.302E-01 0.248E-03
CGA:  23    -0.418806002706E+03   -0.22299E-02   -0.22251E-02 19264   0.338E-01 0.163E-03
CGA:  24    -0.418806931646E+03   -0.92894E-03   -0.93135E-03 19264   0.886E-02-0.148E-04
CGA:  25    -0.418807212661E+03   -0.28101E-03   -0.28133E-03 19264   0.643E-02 0.631E-05
CGA:  26    -0.418807673299E+03   -0.46064E-03   -0.45999E-03 19264   0.101E-01 0.215E-04
CGA:  27    -0.418808177990E+03   -0.50469E-03   -0.50447E-03 19264   0.443E-02 0.337E-04
CGA:  28    -0.418808319567E+03   -0.14158E-03   -0.14174E-03 19264   0.178E-02 0.812E-05
CGA:  29    -0.418808426924E+03   -0.10736E-03   -0.10719E-03 19264   0.260E-02 0.104E-04
CGA:  30    -0.418808547468E+03   -0.12054E-03   -0.12053E-03 19264   0.251E-02 0.115E-04
CGA:  31    -0.418808646817E+03   -0.99349E-04   -0.99408E-04 19264   0.123E-02 0.892E-05
SDA:  32    -0.418808690051E+03   -0.43234E-04   -0.43279E-04 19264   0.551E-03 0.357E-05
CGA:  33    -0.418808702239E+03   -0.12188E-04   -0.12194E-04 19264   0.241E-03-0.121E-05
CGA:  34    -0.418808756142E+03   -0.53904E-04   -0.30569E-06 19264   0.149E-02-0.495E-04
CGA:  35    -0.418808790032E+03   -0.33889E-04   -0.33899E-04 19264   0.489E-03 0.624E-06
CGA:  36    -0.418808801649E+03   -0.11617E-04   -0.11639E-04 19264   0.185E-03 0.257E-08
CGA:  37    -0.418808814880E+03   -0.13231E-04   -0.13235E-04 19264   0.390E-03 0.788E-06
CGA:  38    -0.418808829524E+03   -0.14644E-04   -0.14707E-04 19264   0.346E-03 0.113E-05
CGA:  39    -0.418808844918E+03   -0.15393E-04   -0.15445E-04 19264   0.259E-03 0.126E-05
CGA:  40    -0.418808852828E+03   -0.79099E-05   -0.79495E-05 19264   0.822E-04 0.414E-06
   4 F= -.41880885E+03 E0= -.41877722E+03  d E =-.393378E+00  mag=    34.0000
       N       E                     dE             d eps       ncg     rms          ort
SDA:   1    -0.416468016237E+03    0.23408E+01    0.00000E+00 19264   0.106E+02 0.000E+00
CGA:   2    -0.416782003687E+03   -0.31399E+00   -0.32047E+00 19264   0.124E+02-0.171E+00
CGA:   3    -0.418316114109E+03   -0.15341E+01   -0.15386E+01 19264   0.674E+01-0.106E+00
CGA:   4    -0.418458980247E+03   -0.14287E+00   -0.14348E+00 19264   0.213E+01-0.318E-01
CGA:   5    -0.418673967022E+03   -0.21499E+00   -0.21510E+00 19264   0.309E+01-0.249E-02
CGA:   6    -0.418806704594E+03   -0.13274E+00   -0.13253E+00 19264   0.526E+00 0.117E-03
CGA:   7    -0.418836176374E+03   -0.29472E-01   -0.29529E-01 19264   0.356E+00 0.200E-02
CGA:   8    -0.418848022330E+03   -0.11846E-01   -0.11845E-01 19264   0.267E+00-0.692E-04
CGA:   9    -0.418868060629E+03   -0.20038E-01   -0.20016E-01 19264   0.111E+00 0.133E-02
CGA:  10    -0.418870426764E+03   -0.23661E-02   -0.23701E-02 19264   0.416E-01-0.160E-03
CGA:  11    -0.418872988244E+03   -0.25615E-02   -0.25618E-02 19264   0.430E-01 0.174E-03
CGA:  12    -0.418876753806E+03   -0.37656E-02   -0.37639E-02 19264   0.183E-01 0.454E-04
CGA:  13    -0.418877259745E+03   -0.50594E-03   -0.50740E-03 19264   0.765E-02-0.345E-04
CGA:  14    -0.418877612898E+03   -0.35315E-03   -0.35328E-03 19264   0.872E-02 0.140E-05
CGA:  15    -0.418878268247E+03   -0.65535E-03   -0.65464E-03 19264   0.972E-02 0.363E-04
CGA:  16    -0.418878532849E+03   -0.26460E-03   -0.26445E-03 19264   0.361E-02 0.634E-05
CGA:  17    -0.418878714141E+03   -0.18129E-03   -0.18132E-03 19264   0.112E-02-0.174E-05
CGA:  18    -0.418878836816E+03   -0.12268E-03   -0.12279E-03 19264   0.370E-02-0.448E-05
CGA:  19    -0.418878974378E+03   -0.13756E-03   -0.13770E-03 19264   0.184E-02-0.394E-05
CGA:  20    -0.418879035984E+03   -0.61606E-04   -0.61605E-04 19264   0.432E-03-0.615E-06
CGA:  21    -0.418879058850E+03   -0.22866E-04   -0.22878E-04 19264   0.725E-03 0.881E-06
CGA:  22    -0.418879109802E+03   -0.50952E-04   -0.50891E-04 19264   0.611E-03 0.483E-05
CGA:  23    -0.418879137590E+03   -0.27788E-04   -0.27849E-04 19264   0.225E-03 0.314E-05
CGA:  24    -0.418879144239E+03   -0.66495E-05   -0.66830E-05 19264   0.159E-03 0.513E-06
   5 F= -.41887914E+03 E0= -.41884748E+03  d E =-.702914E-01  mag=    34.0000
       N       E                     dE             d eps       ncg     rms          ort
SDA:   1    -0.406515012229E+03    0.12364E+02    0.00000E+00 19264   0.477E+02 0.000E+00
CGA:   2    -0.408690434871E+03   -0.21754E+01   -0.21856E+01 19264   0.730E+02 0.500E-01
CGA:   3    -0.414586502451E+03   -0.58961E+01   -0.59846E+01 19264   0.811E+02-0.424E+01
CGA:   4    -0.416637421545E+03   -0.20509E+01   -0.18282E+01 19264   0.221E+02 0.365E+01
CGA:   5    -0.417010876787E+03   -0.37346E+00   -0.40399E+00 19264   0.117E+02-0.158E+01
CGA:   6    -0.418230508156E+03   -0.12196E+01   -0.12112E+01 19264   0.166E+02 0.143E+00
CGA:   7    -0.418502294394E+03   -0.27179E+00   -0.26483E+00 19264   0.436E+01 0.336E+00
CGA:   8    -0.418647821758E+03   -0.14553E+00   -0.14446E+00 19264   0.231E+01 0.120E-01
CGA:   9    -0.418713783042E+03   -0.65961E-01   -0.66417E-01 19264   0.193E+01-0.662E-02
CGA:  10    -0.418793113852E+03   -0.79331E-01   -0.79461E-01 19264   0.190E+01 0.301E-02
CGA:  11    -0.418859698491E+03   -0.66585E-01   -0.68255E-01 19264   0.133E+01 0.816E-02
CGA:  12    -0.418886051572E+03   -0.26353E-01   -0.26371E-01 19264   0.202E+00-0.376E-03
CGA:  13    -0.418896327653E+03   -0.10276E-01   -0.10279E-01 19264   0.386E+00-0.141E-02
CGA:  14    -0.418914208808E+03   -0.17881E-01   -0.18074E-01 19264   0.300E+00 0.300E-01
CGA:  15    -0.418925070511E+03   -0.10862E-01   -0.10895E-01 19264   0.106E+00 0.170E-03
CGA:  16    -0.418927329581E+03   -0.22591E-02   -0.22568E-02 19264   0.310E-01 0.238E-04
CGA:  17    -0.418930399817E+03   -0.30702E-02   -0.29587E-02 19264   0.443E-01 0.220E-02
CGA:  18    -0.418933229451E+03   -0.28296E-02   -0.28327E-02 19264   0.376E-01-0.219E-03
CGA:  19    -0.418934186078E+03   -0.95663E-03   -0.96317E-03 19264   0.176E-01-0.130E-03
CGA:  20    -0.418934868840E+03   -0.68276E-03   -0.68389E-03 19264   0.648E-02 0.210E-04
CGA:  21    -0.418935454619E+03   -0.58578E-03   -0.58668E-03 19264   0.138E-01-0.304E-04
CGA:  22    -0.418935949092E+03   -0.49447E-03   -0.49677E-03 19264   0.850E-02 0.131E-04
CGA:  23    -0.418936275328E+03   -0.32624E-03   -0.32650E-03 19264   0.291E-02 0.350E-05
CGA:  24    -0.418936365836E+03   -0.90507E-04   -0.90591E-04 19264   0.249E-02 0.202E-06
CGA:  25    -0.418936535827E+03   -0.16999E-03   -0.16969E-03 19264   0.198E-02 0.123E-04
CGA:  26    -0.418936691274E+03   -0.15545E-03   -0.15496E-03 19264   0.159E-02 0.152E-04
CGA:  27    -0.418936736611E+03   -0.45337E-04   -0.45473E-04 19264   0.839E-03 0.370E-05
CGA:  28    -0.418936763971E+03   -0.27359E-04   -0.27438E-04 19264   0.405E-03 0.233E-05
CGA:  29    -0.418936813582E+03   -0.49612E-04   -0.48994E-04 19264   0.550E-03 0.744E-05
CGA:  30    -0.418936838403E+03   -0.24821E-04   -0.24860E-04 19264   0.434E-03 0.374E-05
CGA:  31    -0.418936851363E+03   -0.12960E-04   -0.13011E-04 19264   0.169E-03 0.134E-05
SDA:  32    -0.418936861472E+03   -0.10108E-04   -0.10092E-04 19264   0.225E-03 0.917E-06
CGA:  33    -0.418936865622E+03   -0.41502E-05   -0.41508E-05 19264   0.628E-04-0.102E-05
   6 F= -.41893687E+03 E0= -.41890506E+03  d E =-.577214E-01  mag=    34.0000
       N       E                     dE             d eps       ncg     rms          ort
SDA:   1    -0.416127355791E+03    0.28095E+01    0.00000E+00 19264   0.897E+01 0.000E+00
CGA:   2    -0.416619954813E+03   -0.49260E+00   -0.49182E+00 19264   0.212E+02 0.174E+00
CGA:   3    -0.418201051605E+03   -0.15811E+01   -0.15896E+01 19264   0.998E+01-0.360E+00
CGA:   4    -0.418440172303E+03   -0.23912E+00   -0.23933E+00 19264   0.335E+01-0.230E-01
CGA:   5    -0.418592531238E+03   -0.15236E+00   -0.15197E+00 19264   0.328E+01-0.200E-01
CGA:   6    -0.418842434286E+03   -0.24990E+00   -0.24974E+00 19264   0.128E+01 0.520E-02
CGA:   7    -0.418871488660E+03   -0.29054E-01   -0.29015E-01 19264   0.479E+00 0.104E-02
CGA:   8    -0.418890605028E+03   -0.19116E-01   -0.19057E-01 19264   0.306E+00-0.835E-03
CGA:   9    -0.418914060691E+03   -0.23456E-01   -0.23457E-01 19264   0.250E+00-0.476E-04
CGA:  10    -0.418921832951E+03   -0.77723E-02   -0.77860E-02 19264   0.120E+00-0.709E-05
CGA:  11    -0.418925678031E+03   -0.38451E-02   -0.38545E-02 19264   0.380E-01-0.152E-04
CGA:  12    -0.418928001812E+03   -0.23238E-02   -0.23220E-02 19264   0.674E-01 0.109E-03
CGA:  13    -0.418930807858E+03   -0.28060E-02   -0.28059E-02 19264   0.335E-01-0.392E-05
CGA:  14    -0.418932224168E+03   -0.14163E-02   -0.14169E-02 19264   0.630E-02 0.214E-04
CGA:  15    -0.418932448340E+03   -0.22417E-03   -0.22419E-03 19264   0.730E-02-0.204E-05
CGA:  16    -0.418933052131E+03   -0.60379E-03   -0.60198E-03 19264   0.954E-02 0.483E-04
CGA:  17    -0.418933414001E+03   -0.36187E-03   -0.36186E-03 19264   0.229E-02-0.324E-05
CGA:  18    -0.418933474967E+03   -0.60966E-04   -0.61018E-04 19264   0.119E-02-0.235E-05
CGA:  19    -0.418933603205E+03   -0.12824E-03   -0.12831E-03 19264   0.243E-02-0.228E-05
CGA:  20    -0.418933697415E+03   -0.94210E-04   -0.94312E-04 19264   0.167E-02 0.990E-06
CGA:  21    -0.418933752731E+03   -0.55316E-04   -0.55326E-04 19264   0.477E-03-0.543E-06
CGA:  22    -0.418933777160E+03   -0.24429E-04   -0.24427E-04 19264   0.360E-03 0.757E-06
CGA:  23    -0.418933798407E+03   -0.21247E-04   -0.21230E-04 19264   0.719E-03 0.128E-05
CGA:  24    -0.418933836800E+03   -0.38393E-04   -0.38377E-04 19264   0.186E-03 0.535E-05
CGA:  25    -0.418933842128E+03   -0.53283E-05   -0.53475E-05 19264   0.917E-04 0.289E-06
   7 F= -.41893384E+03 E0= -.41890191E+03  d E =0.302349E-02  mag=    34.0000
       N       E                     dE             d eps       ncg     rms          ort
SDA:   1    -0.396478182834E+03    0.22456E+02    0.00000E+00 19264   0.805E+02 0.000E+00
CGA:   2    -0.400041613159E+03   -0.35634E+01   -0.35690E+01 19264   0.134E+03 0.973E-01
CGA:   3    -0.411917879539E+03   -0.11876E+02   -0.13786E+02 19264   0.186E+03-0.477E+02
CGA:   4    -0.414009591398E+03   -0.20917E+01   -0.21541E+01 19264   0.295E+02-0.479E+01
CGA:   5    -0.414811018460E+03   -0.80143E+00   -0.83880E+00 19264   0.493E+02-0.315E+00
CGA:   6    -0.416883890908E+03   -0.20729E+01   -0.20620E+01 19264   0.418E+02-0.520E+00
CGA:   7    -0.417936522414E+03   -0.10526E+01   -0.99236E+00 19264   0.747E+01 0.121E+01
CGA:   8    -0.418084861078E+03   -0.14834E+00   -0.16190E+00 19264   0.534E+01-0.385E+00
CGA:   9    -0.418259815034E+03   -0.17495E+00   -0.17303E+00 19264   0.594E+01-0.216E-01
CGA:  10    -0.418522966519E+03   -0.26315E+00   -0.26344E+00 19264   0.483E+01 0.109E+00
CGA:  11    -0.418641537301E+03   -0.11857E+00   -0.12322E+00 19264   0.129E+01-0.676E-01
CGA:  12    -0.418673647737E+03   -0.32110E-01   -0.31863E-01 19264   0.108E+01 0.341E-02
CGA:  13    -0.418736477987E+03   -0.62830E-01   -0.62241E-01 19264   0.194E+01 0.358E-01
CGA:  14    -0.418797530842E+03   -0.61053E-01   -0.60360E-01 19264   0.855E+00 0.609E-03
CGA:  15    -0.418828253875E+03   -0.30723E-01   -0.30793E-01 19264   0.373E+00 0.288E-02
CGA:  16    -0.418838664733E+03   -0.10411E-01   -0.10867E-01 19264   0.235E+00 0.872E-03
CGA:  17    -0.418850573389E+03   -0.11909E-01   -0.12032E-01 19264   0.386E+00-0.970E-02
CGA:  18    -0.418866387141E+03   -0.15814E-01   -0.15823E-01 19264   0.233E+00 0.196E-01
CGA:  19    -0.418872623721E+03   -0.62366E-02   -0.65266E-02 19264   0.799E-01-0.132E-02
CGA:  20    -0.418875514843E+03   -0.28911E-02   -0.28847E-02 19264   0.524E-01-0.383E-03
CGA:  21    -0.418880528118E+03   -0.50133E-02   -0.47565E-02 19264   0.633E-01 0.512E-02
CGA:  22    -0.418883154866E+03   -0.26267E-02   -0.26222E-02 19264   0.296E-01-0.366E-03
CGA:  23    -0.418883988954E+03   -0.83409E-03   -0.83939E-03 19264   0.147E-01-0.133E-04
CGA:  24    -0.418884862488E+03   -0.87353E-03   -0.87163E-03 19264   0.170E-01 0.936E-04
CGA:  25    -0.418885562379E+03   -0.69989E-03   -0.69976E-03 19264   0.144E-01-0.164E-04
CGA:  26    -0.418886151564E+03   -0.58919E-03   -0.58964E-03 19264   0.500E-02 0.742E-04
CGA:  27    -0.418886428514E+03   -0.27695E-03   -0.27684E-03 19264   0.295E-02 0.651E-05
CGA:  28    -0.418886663275E+03   -0.23476E-03   -0.23360E-03 19264   0.423E-02 0.299E-04
CGA:  29    -0.418886815422E+03   -0.15215E-03   -0.15218E-03 19264   0.229E-02 0.361E-05
CGA:  30    -0.418886905294E+03   -0.89872E-04   -0.89923E-04 19264   0.979E-03 0.395E-05
CGA:  31    -0.418886949824E+03   -0.44530E-04   -0.44529E-04 19264   0.137E-02 0.251E-05
SDA:  32    -0.418887014470E+03   -0.64646E-04   -0.64637E-04 19264   0.850E-03 0.352E-05
CGA:  33    -0.418887038458E+03   -0.23989E-04   -0.24008E-04 19264   0.330E-03-0.867E-06
CGA:  34    -0.418887052550E+03   -0.14091E-04   -0.14092E-04 19264   0.459E-03-0.658E-06
CGA:  35    -0.418887098495E+03   -0.45946E-04   -0.45730E-04 19264   0.713E-03 0.278E-05
CGA:  36    -0.418887121551E+03   -0.23055E-04   -0.23087E-04 19264   0.332E-03 0.901E-06
CGA:  37    -0.418887132345E+03   -0.10795E-04   -0.10809E-04 19264   0.907E-04-0.944E-07
CGA:  38    -0.418887142116E+03   -0.97712E-05   -0.96943E-05 19264   0.173E-03 0.399E-06
CGA:  39    -0.418887163942E+03   -0.21826E-04   -0.21663E-04 19264   0.155E-03 0.138E-05
CGA:  40    -0.418887167812E+03   -0.38695E-05   -0.38817E-05 19264   0.646E-04-0.244E-06
   8 F= -.41888717E+03 E0= -.41885474E+03  d E =0.466743E-01  mag=    34.0000
       N       E                     dE             d eps       ncg     rms          ort
SDA:   1    -0.412173248336E+03    0.67139E+01    0.00000E+00 19264   0.393E+02 0.000E+00
CGA:   2    -0.413146136565E+03   -0.97289E+00   -0.96663E+00 19264   0.292E+02-0.785E+00
CGA:   3    -0.415788967290E+03   -0.26428E+01   -0.26901E+01 19264   0.451E+02-0.111E+01
CGA:   4    -0.417408934129E+03   -0.16200E+01   -0.15700E+01 19264   0.831E+01-0.308E+00
CGA:   5    -0.417733145140E+03   -0.32421E+00   -0.32500E+00 19264   0.137E+02 0.125E-01
CGA:   6    -0.418541215587E+03   -0.80807E+00   -0.81146E+00 19264   0.816E+01-0.244E+00
CGA:   7    -0.418679355111E+03   -0.13814E+00   -0.13800E+00 19264   0.105E+01-0.131E-02
CGA:   8    -0.418763452621E+03   -0.84098E-01   -0.83604E-01 19264   0.125E+01 0.143E-01
CGA:   9    -0.418838629981E+03   -0.75177E-01   -0.74831E-01 19264   0.841E+00 0.265E-01
CGA:  10    -0.418853791268E+03   -0.15161E-01   -0.15096E-01 19264   0.188E+00 0.261E-02
CGA:  11    -0.418865379187E+03   -0.11588E-01   -0.11541E-01 19264   0.176E+00 0.272E-02
CGA:  12    -0.418880044020E+03   -0.14665E-01   -0.14800E-01 19264   0.158E+00-0.372E-02
CGA:  13    -0.418884660468E+03   -0.46164E-02   -0.47240E-02 19264   0.805E-01-0.723E-03
CGA:  14    -0.418887016793E+03   -0.23563E-02   -0.23538E-02 19264   0.212E-01 0.363E-05
CGA:  15    -0.418888159590E+03   -0.11428E-02   -0.11414E-02 19264   0.389E-01 0.193E-03
CGA:  16    -0.418890417438E+03   -0.22578E-02   -0.22591E-02 19264   0.248E-01-0.887E-04
CGA:  17    -0.418891295467E+03   -0.87803E-03   -0.88111E-03 19264   0.517E-02 0.296E-04
CGA:  18    -0.418891458445E+03   -0.16298E-03   -0.16304E-03 19264   0.536E-02 0.171E-05
CGA:  19    -0.418892134411E+03   -0.67597E-03   -0.66442E-03 19264   0.696E-02 0.159E-03
CGA:  20    -0.418892340699E+03   -0.20629E-03   -0.20638E-03 19264   0.204E-02 0.467E-05
CGA:  21    -0.418892408849E+03   -0.68150E-04   -0.68235E-04 19264   0.145E-02 0.346E-06
CGA:  22    -0.418892574161E+03   -0.16531E-03   -0.16514E-03 19264   0.340E-02 0.184E-05
CGA:  23    -0.418892668617E+03   -0.94455E-04   -0.94663E-04 19264   0.100E-02-0.279E-05
CGA:  24    -0.418892706805E+03   -0.38189E-04   -0.38202E-04 19264   0.332E-03-0.181E-06
CGA:  25    -0.418892730373E+03   -0.23567E-04   -0.23554E-04 19264   0.723E-03-0.178E-06
CGA:  26    -0.418892762181E+03   -0.31808E-04   -0.31815E-04 19264   0.457E-03 0.195E-06
CGA:  27    -0.418892781548E+03   -0.19368E-04   -0.19375E-04 19264   0.192E-03 0.797E-07
CGA:  28    -0.418892787132E+03   -0.55837E-05   -0.55930E-05 19264   0.909E-04-0.254E-06
   9 F= -.41889279E+03 E0= -.41886037E+03  d E =-.561932E-02  mag=    34.0000
       N       E                     dE             d eps       ncg     rms          ort
SDA:   1    -0.417065060194E+03    0.18277E+01    0.00000E+00 19264   0.586E+01 0.000E+00
CGA:   2    -0.417399527328E+03   -0.33447E+00   -0.33432E+00 19264   0.162E+02 0.190E-01
CGA:   3    -0.418455015037E+03   -0.10555E+01   -0.10571E+01 19264   0.310E+01-0.895E-01
CGA:   4    -0.418613340975E+03   -0.15833E+00   -0.15827E+00 19264   0.230E+01-0.588E-01
CGA:   5    -0.418773369106E+03   -0.16003E+00   -0.16048E+00 19264   0.289E+01-0.170E-01
CGA:   6    -0.418840930492E+03   -0.67561E-01   -0.67685E-01 19264   0.850E+00-0.399E-02
CGA:   7    -0.418876990587E+03   -0.36060E-01   -0.36027E-01 19264   0.242E+00-0.939E-03
CGA:   8    -0.418888810091E+03   -0.11820E-01   -0.11822E-01 19264   0.291E+00 0.573E-03
CGA:   9    -0.418901337464E+03   -0.12527E-01   -0.12525E-01 19264   0.176E+00-0.124E-04
CGA:  10    -0.418908621255E+03   -0.72838E-02   -0.72926E-02 19264   0.555E-01 0.363E-03
CGA:  11    -0.418909931280E+03   -0.13100E-02   -0.13117E-02 19264   0.274E-01 0.106E-04
CGA:  12    -0.418912759838E+03   -0.28286E-02   -0.28244E-02 19264   0.391E-01 0.843E-04
CGA:  13    -0.418914416004E+03   -0.16562E-02   -0.16557E-02 19264   0.103E-01-0.216E-04
CGA:  14    -0.418914654735E+03   -0.23873E-03   -0.23880E-03 19264   0.470E-02-0.288E-05
CGA:  15    -0.418915023814E+03   -0.36908E-03   -0.36911E-03 19264   0.662E-02-0.201E-05
CGA:  16    -0.418915374040E+03   -0.35023E-03   -0.35021E-03 19264   0.524E-02 0.435E-05
CGA:  17    -0.418915523500E+03   -0.14946E-03   -0.14946E-03 19264   0.162E-02 0.582E-06
CGA:  18    -0.418915602166E+03   -0.78666E-04   -0.78671E-04 19264   0.942E-03 0.208E-05
CGA:  19    -0.418915642655E+03   -0.40489E-04   -0.40506E-04 19264   0.148E-02 0.173E-05
CGA:  20    -0.418915767695E+03   -0.12504E-03   -0.12462E-03 19264   0.431E-03 0.114E-04
CGA:  21    -0.418915782630E+03   -0.14935E-04   -0.14942E-04 19264   0.301E-03-0.156E-06
CGA:  22    -0.418915797895E+03   -0.15265E-04   -0.15265E-04 19264   0.424E-03-0.108E-05
CGA:  23    -0.418915826658E+03   -0.28763E-04   -0.28807E-04 19264   0.309E-03-0.298E-05
CGA:  24    -0.418915835785E+03   -0.91274E-05   -0.91089E-05 19264   0.136E-03-0.146E-05
  10 F= -.41891584E+03 E0= -.41888363E+03  d E =-.230487E-01  mag=    34.0000
       N       E                     dE             d eps       ncg     rms          ort
SDA:   1    -0.418300214473E+03    0.61561E+00    0.00000E+00 19264   0.293E+01 0.000E+00
CGA:   2    -0.418383452257E+03   -0.83238E-01   -0.83089E-01 19264   0.308E+01-0.294E-03
CGA:   3    -0.418734534676E+03   -0.35108E+00   -0.35119E+00 19264   0.215E+01-0.274E-02
CGA:   4    -0.418791286555E+03   -0.56752E-01   -0.56315E-01 19264   0.873E+00 0.743E-02
CGA:   5    -0.418842192771E+03   -0.50906E-01   -0.50852E-01 19264   0.100E+01 0.479E-02
CGA:   6    -0.418903341772E+03   -0.61149E-01   -0.61216E-01 19264   0.215E+00-0.449E-02
CGA:   7    -0.418911038496E+03   -0.76967E-02   -0.76660E-02 19264   0.133E+00-0.899E-04
CGA:   8    -0.418915660141E+03   -0.46216E-02   -0.46265E-02 19264   0.117E+00 0.399E-04
CGA:   9    -0.418923391804E+03   -0.77317E-02   -0.77345E-02 19264   0.351E-01-0.125E-03
CGA:  10    -0.418924270891E+03   -0.87909E-03   -0.87887E-03 19264   0.140E-01 0.676E-05
CGA:  11    -0.418925198656E+03   -0.92777E-03   -0.92728E-03 19264   0.171E-01 0.225E-04
CGA:  12    -0.418926223781E+03   -0.10251E-02   -0.10247E-02 19264   0.109E-01 0.341E-04
CGA:  13    -0.418926511810E+03   -0.28803E-03   -0.28808E-03 19264   0.511E-02 0.142E-05
CGA:  14    -0.418926701887E+03   -0.19008E-03   -0.19015E-03 19264   0.152E-02-0.776E-06
CGA:  15    -0.418926869379E+03   -0.16749E-03   -0.16743E-03 19264   0.398E-02-0.328E-06
CGA:  16    -0.418927000973E+03   -0.13159E-03   -0.13166E-03 19264   0.124E-02-0.913E-06
CGA:  17    -0.418927043947E+03   -0.42975E-04   -0.42981E-04 19264   0.413E-03-0.594E-07
CGA:  18    -0.418927061583E+03   -0.17636E-04   -0.17642E-04 19264   0.629E-03 0.215E-06
CGA:  19    -0.418927112626E+03   -0.51043E-04   -0.50937E-04 19264   0.491E-03 0.271E-05
CGA:  20    -0.418927132347E+03   -0.19721E-04   -0.19737E-04 19264   0.138E-03 0.610E-06
CGA:  21    -0.418927137171E+03   -0.48233E-05   -0.48281E-05 19264   0.143E-03-0.356E-06
CGA:  22    -0.418927149805E+03   -0.12634E-04   -0.12614E-04 19264   0.202E-03 0.725E-07
CGA:  23    -0.418927156937E+03   -0.71323E-05   -0.71359E-05 19264   0.112E-03-0.232E-06
  11 F= -.41892716E+03 E0= -.41889496E+03  d E =-.113212E-01  mag=    34.0000
       N       E                     dE             d eps       ncg     rms          ort
SDA:   1    -0.418288297753E+03    0.63885E+00    0.00000E+00 19264   0.167E+01 0.000E+00
CGA:   2    -0.418565124642E+03   -0.27683E+00   -0.27695E+00 19264   0.862E+01 0.339E-03
CGA:   3    -0.418790036273E+03   -0.22491E+00   -0.22463E+00 19264   0.148E+01-0.561E-02
CGA:   4    -0.418841167218E+03   -0.51131E-01   -0.51174E-01 19264   0.502E+00-0.201E-03
CGA:   5    -0.418903185967E+03   -0.62019E-01   -0.62028E-01 19264   0.497E+00-0.777E-04
CGA:   6    -0.418919676340E+03   -0.16490E-01   -0.16480E-01 19264   0.191E+00 0.184E-03
CGA:   7    -0.418924555175E+03   -0.48788E-02   -0.48890E-02 19264   0.664E-01-0.197E-03
CGA:   8    -0.418928598068E+03   -0.40429E-02   -0.40437E-02 19264   0.748E-01-0.438E-04
CGA:   9    -0.418931381233E+03   -0.27832E-02   -0.27834E-02 19264   0.576E-01 0.187E-04
CGA:  10    -0.418933815519E+03   -0.24343E-02   -0.24360E-02 19264   0.906E-02 0.437E-04
CGA:  11    -0.418934303078E+03   -0.48756E-03   -0.48756E-03 19264   0.734E-02 0.506E-05
CGA:  12    -0.418934779969E+03   -0.47689E-03   -0.47691E-03 19264   0.142E-01 0.248E-05
CGA:  13    -0.418935212057E+03   -0.43209E-03   -0.43193E-03 19264   0.206E-02 0.303E-05
CGA:  14    -0.418935294794E+03   -0.82737E-04   -0.82738E-04 19264   0.870E-03 0.409E-06
CGA:  15    -0.418935381932E+03   -0.87138E-04   -0.87080E-04 19264   0.274E-02 0.161E-05
CGA:  16    -0.418935476521E+03   -0.94589E-04   -0.94630E-04 19264   0.470E-03 0.162E-05
CGA:  17    -0.418935494448E+03   -0.17927E-04   -0.17935E-04 19264   0.386E-03 0.580E-06
CGA:  18    -0.418935508312E+03   -0.13864E-04   -0.13874E-04 19264   0.238E-03 0.532E-06
CGA:  19    -0.418935532671E+03   -0.24359E-04   -0.24281E-04 19264   0.379E-03 0.158E-05
CGA:  20    -0.418935552516E+03   -0.19845E-04   -0.19848E-04 19264   0.138E-03 0.120E-05
CGA:  21    -0.418935555607E+03   -0.30907E-05   -0.30961E-05 19264   0.600E-04 0.132E-06
  12 F= -.41893556E+03 E0= -.41890333E+03  d E =-.839867E-02  mag=    34.0000
       N       E                     dE             d eps       ncg     rms          ort
SDA:   1    -0.411970113090E+03    0.69654E+01    0.00000E+00 19264   0.206E+02 0.000E+00
CGA:   2    -0.413524302577E+03   -0.15542E+01   -0.15356E+01 19264   0.655E+02 0.783E+00
CGA:   3    -0.416851409623E+03   -0.33271E+01   -0.32868E+01 19264   0.280E+02-0.161E+01
CGA:   4    -0.417818576268E+03   -0.96717E+00   -0.98054E+00 19264   0.727E+01-0.808E-02
CGA:   5    -0.418137602778E+03   -0.31903E+00   -0.31566E+00 19264   0.116E+02-0.786E-01
CGA:   6    -0.418621338224E+03   -0.48374E+00   -0.48729E+00 19264   0.574E+01 0.759E-01
CGA:   7    -0.418818280031E+03   -0.19694E+00   -0.19744E+00 19264   0.132E+01-0.560E-02
CGA:   8    -0.418857293450E+03   -0.39013E-01   -0.39168E-01 19264   0.865E+00-0.147E-02
CGA:   9    -0.418905261335E+03   -0.47968E-01   -0.48008E-01 19264   0.689E+00-0.511E-02
CGA:  10    -0.418934057367E+03   -0.28796E-01   -0.28991E-01 19264   0.733E+00 0.676E-02
CGA:  11    -0.418954518184E+03   -0.20461E-01   -0.20456E-01 19264   0.116E+00 0.732E-04
CGA:  12    -0.418960375577E+03   -0.58574E-02   -0.58557E-02 19264   0.902E-01 0.924E-03
CGA:  13    -0.418966502020E+03   -0.61264E-02   -0.61426E-02 19264   0.185E+00-0.746E-03
CGA:  14    -0.418971957227E+03   -0.54552E-02   -0.55269E-02 19264   0.226E-01-0.484E-03
CGA:  15    -0.418972739996E+03   -0.78277E-03   -0.78289E-03 19264   0.134E-01 0.238E-06
CGA:  16    -0.418973618972E+03   -0.87898E-03   -0.87612E-03 19264   0.266E-01 0.135E-03
CGA:  17    -0.418975122894E+03   -0.15039E-02   -0.15045E-02 19264   0.694E-02-0.558E-04
CGA:  18    -0.418975345548E+03   -0.22265E-03   -0.22312E-03 19264   0.510E-02 0.531E-05
CGA:  19    -0.418975540532E+03   -0.19498E-03   -0.19500E-03 19264   0.340E-02 0.530E-05
CGA:  20    -0.418975874461E+03   -0.33393E-03   -0.33216E-03 19264   0.549E-02 0.345E-04
CGA:  21    -0.418976091939E+03   -0.21748E-03   -0.21754E-03 19264   0.308E-02 0.540E-05
CGA:  22    -0.418976189295E+03   -0.97356E-04   -0.97518E-04 19264   0.851E-03 0.264E-06
CGA:  23    -0.418976247291E+03   -0.57996E-04   -0.58001E-04 19264   0.180E-02-0.112E-05
CGA:  24    -0.418976334257E+03   -0.86966E-04   -0.86974E-04 19264   0.181E-02 0.142E-05
CGA:  25    -0.418976405729E+03   -0.71472E-04   -0.71474E-04 19264   0.244E-03-0.377E-06
CGA:  26    -0.418976416738E+03   -0.11009E-04   -0.11014E-04 19264   0.324E-03 0.439E-06
CGA:  27    -0.418976438622E+03   -0.21884E-04   -0.21822E-04 19264   0.366E-03 0.305E-05
CGA:  28    -0.418976455972E+03   -0.17350E-04   -0.17362E-04 19264   0.198E-03 0.298E-05
CGA:  29    -0.418976461096E+03   -0.51239E-05   -0.51540E-05 19264   0.867E-04 0.832E-06
  13 F= -.41897646E+03 E0= -.41894430E+03  d E =-.409055E-01  mag=    34.0000
       N       E                     dE             d eps       ncg     rms          ort
SDA:   1    -0.406537782855E+03    0.12439E+02    0.00000E+00 19264   0.476E+02 0.000E+00
CGA:   2    -0.408729151332E+03   -0.21914E+01   -0.21953E+01 19264   0.796E+02 0.488E+00
CGA:   3    -0.414768985320E+03   -0.60398E+01   -0.61986E+01 19264   0.706E+02-0.724E+01
CGA:   4    -0.416413374745E+03   -0.16444E+01   -0.15258E+01 19264   0.187E+02 0.202E+01
CGA:   5    -0.416897731091E+03   -0.48436E+00   -0.50611E+00 19264   0.197E+02-0.411E+00
CGA:   6    -0.418122820172E+03   -0.12251E+01   -0.12377E+01 19264   0.296E+02-0.591E+00
CGA:   7    -0.418681645696E+03   -0.55883E+00   -0.53722E+00 19264   0.344E+01 0.698E+00
CGA:   8    -0.418778964739E+03   -0.97319E-01   -0.10309E+00 19264   0.299E+01-0.314E-01
CGA:   9    -0.418856906536E+03   -0.77942E-01   -0.76867E-01 19264   0.215E+01 0.155E-01
CGA:  10    -0.418998678457E+03   -0.14177E+00   -0.14178E+00 19264   0.157E+01-0.111E-02
CGA:  11    -0.419033721366E+03   -0.35043E-01   -0.37745E-01 19264   0.783E+00-0.481E-01
CGA:  12    -0.419055004086E+03   -0.21283E-01   -0.20947E-01 19264   0.255E+00 0.276E-02
CGA:  13    -0.419070474462E+03   -0.15470E-01   -0.15393E-01 19264   0.489E+00 0.371E-02
CGA:  14    -0.419088749128E+03   -0.18275E-01   -0.18378E-01 19264   0.290E+00 0.385E-02
CGA:  15    -0.419100756799E+03   -0.12008E-01   -0.12010E-01 19264   0.419E-01 0.181E-03
CGA:  16    -0.419102802039E+03   -0.20452E-02   -0.20393E-02 19264   0.625E-01 0.868E-03
CGA:  17    -0.419106765762E+03   -0.39637E-02   -0.40058E-02 19264   0.846E-01-0.183E-02
CGA:  18    -0.419110301130E+03   -0.35354E-02   -0.35465E-02 19264   0.139E-01 0.198E-02
CGA:  19    -0.419110840744E+03   -0.53961E-03   -0.53992E-03 19264   0.144E-01 0.170E-04
CGA:  20    -0.419111564375E+03   -0.72363E-03   -0.72348E-03 19264   0.212E-01 0.231E-04
CGA:  21    -0.419113298269E+03   -0.17339E-02   -0.17247E-02 19264   0.605E-02 0.222E-03
CGA:  22    -0.419113575559E+03   -0.27729E-03   -0.27735E-03 19264   0.419E-02 0.126E-04
CGA:  23    -0.419113805783E+03   -0.23022E-03   -0.23027E-03 19264   0.739E-02-0.790E-05
CGA:  24    -0.419114305047E+03   -0.49926E-03   -0.49889E-03 19264   0.612E-02 0.842E-05
CGA:  25    -0.419114552087E+03   -0.24704E-03   -0.24711E-03 19264   0.315E-02-0.140E-05
CGA:  26    -0.419114624333E+03   -0.72245E-04   -0.72267E-04 19264   0.100E-02-0.298E-06
CGA:  27    -0.419114723836E+03   -0.99504E-04   -0.98957E-04 19264   0.178E-02 0.947E-05
CGA:  28    -0.419114889972E+03   -0.16614E-03   -0.16517E-03 19264   0.742E-03 0.218E-04
CGA:  29    -0.419114914695E+03   -0.24724E-04   -0.24770E-04 19264   0.394E-03 0.139E-05
CGA:  30    -0.419114934408E+03   -0.19713E-04   -0.19713E-04 19264   0.550E-03 0.177E-06
CGA:  31    -0.419114993777E+03   -0.59369E-04   -0.59282E-04 19264   0.454E-03 0.987E-06
SDA:  32    -0.419115005212E+03   -0.11434E-04   -0.11435E-04 19264   0.192E-03-0.586E-06
CGA:  33    -0.419115009094E+03   -0.38827E-05   -0.38849E-05 19264   0.823E-04-0.676E-06
  14 F= -.41911501E+03 E0= -.41908266E+03  d E =-.138548E+00  mag=    34.0000
       N       E                     dE             d eps       ncg     rms          ort
SDA:   1    -0.318694582459E+03    0.10042E+03    0.00000E+00 19264   0.122E+04 0.000E+00
CGA:   2    -0.358980466372E+03   -0.40286E+02   -0.35965E+02 19264   0.669E+03-0.499E+03
CGA:   3    -0.371702671773E+03   -0.12722E+02   -0.11462E+02 19264   0.405E+03 0.206E+02
CGA:   4    -0.378944720381E+03   -0.72420E+01   -0.81996E+01 19264   0.624E+03-0.123E+03
CGA:   5    -0.385867181840E+03   -0.69225E+01   -0.86804E+01 19264   0.594E+03-0.800E+02
CGA:   6    -0.391066148363E+03   -0.51990E+01   -0.59230E+01 19264   0.603E+03-0.117E+03
CGA:   7    -0.393712207898E+03   -0.26461E+01   -0.68291E+01 19264   0.131E+04-0.418E+03
CGA:   8    -0.403222285947E+03   -0.95101E+01   -0.18809E+02 19264   0.437E+03-0.665E+03
CGA:   9    -0.407687733511E+03   -0.44654E+01   -0.47689E+01 19264   0.454E+02-0.718E+02
CGA:  10    -0.409133929818E+03   -0.14462E+01   -0.14385E+01 19264   0.687E+02-0.112E+01
CGA:  11    -0.411698753736E+03   -0.25648E+01   -0.25642E+01 19264   0.799E+02-0.192E+00
CGA:  12    -0.414347669475E+03   -0.26489E+01   -0.26313E+01 19264   0.722E+02-0.875E+00
CGA:  13    -0.415968925524E+03   -0.16213E+01   -0.17454E+01 19264   0.260E+02-0.147E+01
CGA:  14    -0.416404156798E+03   -0.43523E+00   -0.43153E+00 19264   0.134E+02-0.920E-03
CGA:  15    -0.416989377338E+03   -0.58522E+00   -0.58205E+00 19264   0.211E+02 0.394E+00
CGA:  16    -0.417692049780E+03   -0.70267E+00   -0.71088E+00 19264   0.149E+02 0.467E+00
CGA:  17    -0.418034626294E+03   -0.34258E+00   -0.36423E+00 19264   0.545E+01-0.146E+00
CGA:  18    -0.418139769338E+03   -0.10514E+00   -0.10692E+00 19264   0.185E+01-0.409E-01
CGA:  19    -0.418198112280E+03   -0.58343E-01   -0.58641E-01 19264   0.165E+01 0.222E-01
CGA:  20    -0.418286683015E+03   -0.88571E-01   -0.87833E-01 19264   0.253E+01 0.365E-01
CGA:  21    -0.418366022980E+03   -0.79340E-01   -0.80469E-01 19264   0.115E+01 0.588E-01
CGA:  22    -0.418394121412E+03   -0.28098E-01   -0.28469E-01 19264   0.455E+00-0.830E-03
CGA:  23    -0.418413270964E+03   -0.19150E-01   -0.19042E-01 19264   0.568E+00 0.124E-01
CGA:  24    -0.418445015057E+03   -0.31744E-01   -0.31529E-01 19264   0.683E+00 0.937E-02
CGA:  25    -0.418469080264E+03   -0.24065E-01   -0.24253E-01 19264   0.292E+00 0.321E-01
CGA:  26    -0.418477013606E+03   -0.79333E-02   -0.79457E-02 19264   0.123E+00 0.153E-03
CGA:  27    -0.418483137501E+03   -0.61239E-02   -0.60352E-02 19264   0.132E+00 0.546E-02
CGA:  28    -0.418489962564E+03   -0.68251E-02   -0.68499E-02 19264   0.156E+00-0.147E-02
CGA:  29    -0.418496579272E+03   -0.66167E-02   -0.65706E-02 19264   0.514E-01 0.609E-02
CGA:  30    -0.418498218507E+03   -0.16392E-02   -0.16399E-02 19264   0.278E-01 0.447E-04
CGA:  31    -0.418499721247E+03   -0.15027E-02   -0.14871E-02 19264   0.331E-01 0.799E-03
CGA:  32    -0.418501720382E+03   -0.19991E-02   -0.20039E-02 19264   0.347E-01-0.186E-03
CGA:  33    -0.418503076179E+03   -0.13558E-02   -0.13561E-02 19264   0.163E-01 0.471E-03
CGA:  34    -0.418503598059E+03   -0.52188E-03   -0.52220E-03 19264   0.650E-02 0.184E-04
CGA:  35    -0.418504044119E+03   -0.44606E-03   -0.44338E-03 19264   0.115E-01 0.859E-04
CGA:  36    -0.418504603279E+03   -0.55916E-03   -0.55925E-03 19264   0.869E-02-0.506E-05
CGA:  37    -0.418505010652E+03   -0.40737E-03   -0.40689E-03 19264   0.467E-02 0.530E-04
CGA:  38    -0.418505158860E+03   -0.14821E-03   -0.14825E-03 19264   0.243E-02 0.155E-05
SDA:  39    -0.418505324022E+03   -0.16516E-03   -0.16491E-03 19264   0.364E-02 0.759E-05
CGA:  40    -0.418505388071E+03   -0.64049E-04   -0.64109E-04 19264   0.841E-03-0.236E-05
CGA:  41    -0.418505444648E+03   -0.56577E-04   -0.56475E-04 19264   0.154E-02 0.231E-05
CGA:  42    -0.418505661916E+03   -0.21727E-03   -0.21663E-03 19264   0.182E-02 0.504E-05
CGA:  43    -0.418505728643E+03   -0.66727E-04   -0.66760E-04 19264   0.744E-03 0.972E-06
CGA:  44    -0.418505754584E+03   -0.25941E-04   -0.25928E-04 19264   0.646E-03-0.158E-05
CGA:  45    -0.418505809160E+03   -0.54576E-04   -0.54667E-04 19264   0.815E-03-0.311E-05
CGA:  46    -0.418505864818E+03   -0.55658E-04   -0.55661E-04 19264   0.389E-03-0.115E-05
CGA:  47    -0.418505881227E+03   -0.16409E-04   -0.16415E-04 19264   0.352E-03 0.350E-06
CGA:  48    -0.418505897264E+03   -0.16037E-04   -0.16044E-04 19264   0.470E-03 0.140E-05
CGA:  49    -0.418505934003E+03   -0.36740E-04   -0.36585E-04 19264   0.187E-03 0.484E-05
CGA:  50    -0.418505940393E+03   -0.63894E-05   -0.64137E-05 19264   0.906E-04 0.864E-06
  15 F= -.41850594E+03 E0= -.41847360E+03  d E =0.609069E+00  mag=    34.0000
       N       E                     dE             d eps       ncg     rms          ort
SDA:   1    -0.388394329908E+03    0.30112E+02    0.00000E+00 19264   0.650E+03 0.000E+00
CGA:   2    -0.398465111831E+03   -0.10071E+02   -0.14400E+02 19264   0.175E+03-0.136E+03
CGA:   3    -0.403430868199E+03   -0.49658E+01   -0.49334E+01 19264   0.930E+02-0.560E-01
CGA:   4    -0.409666215711E+03   -0.62353E+01   -0.65519E+01 19264   0.109E+03-0.118E+02
CGA:   5    -0.414215943492E+03   -0.45497E+01   -0.45496E+01 19264   0.823E+02-0.107E+02
CGA:   6    -0.415919882547E+03   -0.17039E+01   -0.15159E+01 19264   0.221E+02 0.534E+01
CGA:   7    -0.416578576777E+03   -0.65869E+00   -0.66904E+00 19264   0.312E+02-0.153E+00
CGA:   8    -0.417826909922E+03   -0.12483E+01   -0.12508E+01 19264   0.266E+02 0.204E+00
CGA:   9    -0.418626730923E+03   -0.79982E+00   -0.79083E+00 19264   0.160E+02-0.361E-01
CGA:  10    -0.418851429999E+03   -0.22470E+00   -0.23322E+00 19264   0.283E+01-0.482E+00
CGA:  11    -0.418962442402E+03   -0.11101E+00   -0.11100E+00 19264   0.266E+01-0.116E-02
CGA:  12    -0.419038508325E+03   -0.76066E-01   -0.76253E-01 19264   0.315E+01-0.201E-02
CGA:  13    -0.419164983886E+03   -0.12648E+00   -0.12721E+00 19264   0.195E+01 0.184E+00
CGA:  14    -0.419205861302E+03   -0.40877E-01   -0.41921E-01 19264   0.798E+00-0.274E-01
CGA:  15    -0.419228337530E+03   -0.22476E-01   -0.22579E-01 19264   0.332E+00 0.509E-03
CGA:  16    -0.419243628556E+03   -0.15291E-01   -0.15176E-01 19264   0.583E+00 0.138E-01
CGA:  17    -0.419268936548E+03   -0.25308E-01   -0.25265E-01 19264   0.325E+00 0.253E-01
CGA:  18    -0.419281281205E+03   -0.12345E-01   -0.12344E-01 19264   0.119E+00-0.207E-03
CGA:  19    -0.419284303300E+03   -0.30221E-02   -0.30403E-02 19264   0.692E-01-0.477E-04
CGA:  20    -0.419289854061E+03   -0.55508E-02   -0.53712E-02 19264   0.750E-01 0.453E-02
CGA:  21    -0.419294033123E+03   -0.41791E-02   -0.41794E-02 19264   0.552E-01-0.662E-04
CGA:  22    -0.419295564916E+03   -0.15318E-02   -0.15401E-02 19264   0.277E-01 0.344E-04
CGA:  23    -0.419296955493E+03   -0.13906E-02   -0.13883E-02 19264   0.196E-01 0.182E-03
CGA:  24    -0.419297850074E+03   -0.89458E-03   -0.89416E-03 19264   0.239E-01 0.854E-04
CGA:  25    -0.419298872237E+03   -0.10222E-02   -0.10221E-02 19264   0.114E-01 0.882E-04
CGA:  26    -0.419299520113E+03   -0.64788E-03   -0.64652E-03 19264   0.539E-02 0.705E-04
CGA:  27    -0.419299807543E+03   -0.28743E-03   -0.28718E-03 19264   0.691E-02 0.156E-04
CGA:  28    -0.419300074040E+03   -0.26650E-03   -0.26655E-03 19264   0.483E-02 0.430E-05
CGA:  29    -0.419300342674E+03   -0.26863E-03   -0.26853E-03 19264   0.347E-02 0.498E-05
CGA:  30    -0.419300449061E+03   -0.10639E-03   -0.10647E-03 19264   0.203E-02-0.162E-05
CGA:  31    -0.419300545474E+03   -0.96413E-04   -0.96412E-04 19264   0.111E-02-0.239E-05
SDA:  32    -0.419300640178E+03   -0.94704E-04   -0.94707E-04 19264   0.124E-02-0.136E-05
CGA:  33    -0.419300666145E+03   -0.25967E-04   -0.25973E-04 19264   0.281E-03-0.191E-05
CGA:  34    -0.419300681015E+03   -0.14870E-04   -0.14872E-04 19264   0.499E-03-0.176E-05
CGA:  35    -0.419300772364E+03   -0.91349E-04   -0.91623E-04 19264   0.857E-03-0.298E-05
CGA:  36    -0.419300789084E+03   -0.16720E-04   -0.16704E-04 19264   0.209E-03-0.133E-05
CGA:  37    -0.419300801510E+03   -0.12427E-04   -0.12434E-04 19264   0.140E-03-0.148E-05
CGA:  38    -0.419300832786E+03   -0.31275E-04   -0.31865E-04 19264   0.351E-03-0.377E-05
CGA:  39    -0.419300851293E+03   -0.18507E-04   -0.18496E-04 19264   0.615E-04-0.255E-05
CGA:  40    -0.419300854737E+03   -0.34442E-05   -0.34430E-05 19264   0.650E-04-0.879E-06
  16 F= -.41930085E+03 E0= -.41926819E+03  d E =-.794914E+00  mag=    34.0000
       N       E                     dE             d eps       ncg     rms          ort
SDA:   1    -0.415897979534E+03    0.34029E+01    0.00000E+00 19264   0.191E+02 0.000E+00
CGA:   2    -0.416554100593E+03   -0.65612E+00   -0.66905E+00 19264   0.169E+02-0.163E+00
CGA:   3    -0.417694925661E+03   -0.11408E+01   -0.11402E+01 19264   0.222E+02 0.635E-01
CGA:   4    -0.418514593064E+03   -0.81967E+00   -0.82037E+00 19264   0.455E+01-0.600E-01
CGA:   5    -0.418750828417E+03   -0.23624E+00   -0.23624E+00 19264   0.905E+01 0.231E-02
CGA:   6    -0.419155573157E+03   -0.40474E+00   -0.40284E+00 19264   0.285E+01-0.195E-01
CGA:   7    -0.419285390415E+03   -0.12982E+00   -0.13018E+00 19264   0.732E+00 0.789E-02
CGA:   8    -0.419319229488E+03   -0.33839E-01   -0.33873E-01 19264   0.610E+00 0.109E-02
CGA:   9    -0.419344937231E+03   -0.25708E-01   -0.25780E-01 19264   0.514E+00 0.828E-03
CGA:  10    -0.419368765448E+03   -0.23828E-01   -0.23776E-01 19264   0.101E+00-0.149E-02
CGA:  11    -0.419373215817E+03   -0.44504E-02   -0.44573E-02 19264   0.655E-01 0.159E-03
CGA:  12    -0.419377018835E+03   -0.38030E-02   -0.38024E-02 19264   0.123E+00 0.139E-03
CGA:  13    -0.419382397517E+03   -0.53787E-02   -0.53844E-02 19264   0.243E-01 0.135E-03
CGA:  14    -0.419383066551E+03   -0.66903E-03   -0.67037E-03 19264   0.145E-01-0.127E-04
CGA:  15    -0.419383902273E+03   -0.83572E-03   -0.83573E-03 19264   0.165E-01 0.674E-05
CGA:  16    -0.419385017223E+03   -0.11149E-02   -0.11143E-02 19264   0.864E-02 0.411E-04
CGA:  17    -0.419385380218E+03   -0.36300E-03   -0.36304E-03 19264   0.468E-02 0.675E-05
CGA:  18    -0.419385520456E+03   -0.14024E-03   -0.14060E-03 19264   0.228E-02-0.948E-06
CGA:  19    -0.419385765004E+03   -0.24455E-03   -0.24406E-03 19264   0.421E-02 0.868E-05
CGA:  20    -0.419385908221E+03   -0.14322E-03   -0.14340E-03 19264   0.248E-02 0.167E-05
CGA:  21    -0.419385981812E+03   -0.73591E-04   -0.73641E-04 19264   0.530E-03-0.924E-06
CGA:  22    -0.419386026135E+03   -0.44323E-04   -0.44314E-04 19264   0.123E-02-0.134E-05
CGA:  23    -0.419386091097E+03   -0.64962E-04   -0.64964E-04 19264   0.987E-03-0.490E-06
CGA:  24    -0.419386125594E+03   -0.34497E-04   -0.34505E-04 19264   0.202E-03-0.781E-06
CGA:  25    -0.419386136662E+03   -0.11068E-04   -0.11068E-04 19264   0.221E-03-0.996E-06
CGA:  26    -0.419386144776E+03   -0.81135E-05   -0.81092E-05 19264   0.199E-03-0.969E-06
CGA:  27    -0.419386160624E+03   -0.15848E-04   -0.15869E-04 19264   0.187E-03-0.140E-05
CGA:  28    -0.419386165740E+03   -0.51157E-05   -0.51130E-05 19264   0.577E-04-0.755E-06
  17 F= -.41938617E+03 E0= -.41935334E+03  d E =-.853110E-01  mag=    34.0000
       N       E                     dE             d eps       ncg     rms          ort
SDA:   1    -0.419218862705E+03    0.16730E+00    0.00000E+00 19264   0.604E+00 0.000E+00
CGA:   2    -0.419277797301E+03   -0.58935E-01   -0.58957E-01 19264   0.129E+01-0.122E-03
CGA:   3    -0.419324773125E+03   -0.46976E-01   -0.46978E-01 19264   0.754E+00 0.102E-03
CGA:   4    -0.419345623691E+03   -0.20851E-01   -0.20954E-01 19264   0.230E+00-0.167E-02
CGA:   5    -0.419365981131E+03   -0.20357E-01   -0.20360E-01 19264   0.391E+00 0.702E-04
CGA:   6    -0.419379137146E+03   -0.13156E-01   -0.13163E-01 19264   0.168E+00-0.305E-04
CGA:   7    -0.419384471469E+03   -0.53343E-02   -0.53360E-02 19264   0.263E-01-0.164E-04
CGA:   8    -0.419387217522E+03   -0.27461E-02   -0.27455E-02 19264   0.375E-01 0.170E-04
CGA:   9    -0.419388442412E+03   -0.12249E-02   -0.12258E-02 19264   0.167E-01-0.109E-05
CGA:  10    -0.419388850913E+03   -0.40850E-03   -0.40905E-03 19264   0.428E-02-0.816E-05
CGA:  11    -0.419389167840E+03   -0.31693E-03   -0.31669E-03 19264   0.449E-02 0.996E-05
CGA:  12    -0.419389378924E+03   -0.21108E-03   -0.21112E-03 19264   0.519E-02 0.485E-05
CGA:  13    -0.419389584855E+03   -0.20593E-03   -0.20607E-03 19264   0.700E-03 0.590E-05
CGA:  14    -0.419389626840E+03   -0.41985E-04   -0.41976E-04 19264   0.903E-03 0.137E-05
CGA:  15    -0.419389674581E+03   -0.47741E-04   -0.47740E-04 19264   0.135E-02 0.647E-06
CGA:  16    -0.419389723208E+03   -0.48627E-04   -0.48638E-04 19264   0.217E-03 0.781E-06
CGA:  17    -0.419389732979E+03   -0.97712E-05   -0.97715E-05 19264   0.148E-03 0.869E-07
  18 F= -.41938973E+03 E0= -.41935692E+03  d E =-.356724E-02  mag=    34.0000
       N       E                     dE             d eps       ncg     rms          ort
SDA:   1    -0.418559683201E+03    0.83004E+00    0.00000E+00 19264   0.645E+01 0.000E+00
CGA:   2    -0.418715019186E+03   -0.15534E+00   -0.15729E+00 19264   0.339E+01-0.503E-01
CGA:   3    -0.418943982677E+03   -0.22896E+00   -0.22938E+00 19264   0.509E+01-0.149E-01
CGA:   4    -0.419162365345E+03   -0.21838E+00   -0.21851E+00 19264   0.220E+01 0.456E-02
CGA:   5    -0.419221555988E+03   -0.59191E-01   -0.59356E-01 19264   0.108E+01-0.354E-02
CGA:   6    -0.419295740005E+03   -0.74184E-01   -0.74158E-01 19264   0.825E+00 0.115E-02
CGA:   7    -0.419349810782E+03   -0.54071E-01   -0.53974E-01 19264   0.570E+00 0.476E-02
CGA:   8    -0.419363302772E+03   -0.13492E-01   -0.13487E-01 19264   0.144E+00 0.150E-03
CGA:   9    -0.419369665290E+03   -0.63625E-02   -0.63614E-02 19264   0.966E-01-0.403E-04
CGA:  10    -0.419374107303E+03   -0.44420E-02   -0.44423E-02 19264   0.118E+00 0.733E-04
CGA:  11    -0.419378768484E+03   -0.46612E-02   -0.46636E-02 19264   0.237E-01 0.846E-04
CGA:  12    -0.419379687197E+03   -0.91871E-03   -0.91901E-03 19264   0.105E-01 0.160E-04
CGA:  13    -0.419380353136E+03   -0.66594E-03   -0.66585E-03 19264   0.220E-01 0.977E-05
CGA:  14    -0.419381425209E+03   -0.10721E-02   -0.10721E-02 19264   0.560E-02 0.190E-04
CGA:  15    -0.419381578831E+03   -0.15362E-03   -0.15373E-03 19264   0.309E-02 0.129E-05
CGA:  16    -0.419381725762E+03   -0.14693E-03   -0.14693E-03 19264   0.218E-02 0.404E-06
CGA:  17    -0.419381903060E+03   -0.17730E-03   -0.17726E-03 19264   0.276E-02 0.958E-06
CGA:  18    -0.419382012900E+03   -0.10984E-03   -0.10986E-03 19264   0.151E-02 0.115E-05
CGA:  19    -0.419382055178E+03   -0.42278E-04   -0.42277E-04 19264   0.423E-03 0.146E-06
CGA:  20    -0.419382081374E+03   -0.26196E-04   -0.26185E-04 19264   0.811E-03 0.613E-06
CGA:  21    -0.419382126764E+03   -0.45391E-04   -0.45386E-04 19264   0.776E-03 0.928E-06
CGA:  22    -0.419382158154E+03   -0.31390E-04   -0.31397E-04 19264   0.150E-03 0.495E-06
CGA:  23    -0.419382165243E+03   -0.70889E-05   -0.70886E-05 19264   0.204E-03-0.368E-06
CGA:  24    -0.419382176291E+03   -0.11048E-04   -0.11050E-04 19264   0.215E-03-0.509E-06
CGA:  25    -0.419382188192E+03   -0.11901E-04   -0.11906E-04 19264   0.169E-03-0.962E-06
CGA:  26    -0.419382192762E+03   -0.45699E-05   -0.45645E-05 19264   0.514E-04-0.421E-06
  19 F= -.41938219E+03 E0= -.41934947E+03  d E =0.754022E-02  mag=    34.0000
       N       E                     dE             d eps       ncg     rms          ort
SDA:   1    -0.419278655496E+03    0.10353E+00    0.00000E+00 19264   0.344E+00 0.000E+00
CGA:   2    -0.419318770404E+03   -0.40115E-01   -0.40036E-01 19264   0.104E+01 0.136E-02
CGA:   3    -0.419350619117E+03   -0.31849E-01   -0.31822E-01 19264   0.242E+00 0.261E-03
CGA:   4    -0.419363380505E+03   -0.12761E-01   -0.12763E-01 19264   0.207E+00-0.441E-03
CGA:   5    -0.419374880157E+03   -0.11500E-01   -0.11506E-01 19264   0.260E+00-0.734E-03
CGA:   6    -0.419382037034E+03   -0.71569E-02   -0.71530E-02 19264   0.706E-01 0.110E-03
CGA:   7    -0.419385383755E+03   -0.33467E-02   -0.33460E-02 19264   0.151E-01-0.120E-03
CGA:   8    -0.419386463735E+03   -0.10800E-02   -0.10798E-02 19264   0.224E-01 0.125E-04
CGA:   9    -0.419387252669E+03   -0.78893E-03   -0.78880E-03 19264   0.112E-01 0.337E-05
CGA:  10    -0.419387616730E+03   -0.36406E-03   -0.36414E-03 19264   0.251E-02 0.199E-05
CGA:  11    -0.419387713046E+03   -0.96316E-04   -0.96308E-04 19264   0.297E-02 0.108E-05
CGA:  12    -0.419387912679E+03   -0.19963E-03   -0.19965E-03 19264   0.269E-02 0.328E-06
CGA:  13    -0.419388017996E+03   -0.10532E-03   -0.10531E-03 19264   0.395E-03-0.737E-06
CGA:  14    -0.419388040868E+03   -0.22871E-04   -0.22870E-04 19264   0.706E-03 0.719E-06
CGA:  15    -0.419388069102E+03   -0.28235E-04   -0.28238E-04 19264   0.408E-03 0.613E-06
CGA:  16    -0.419388093243E+03   -0.24140E-04   -0.24135E-04 19264   0.296E-03 0.580E-06
CGA:  17    -0.419388100721E+03   -0.74783E-05   -0.74833E-05 19264   0.815E-04 0.274E-06
  20 F= -.41938810E+03 E0= -.41935538E+03  d E =-.590796E-02  mag=    34.0000
       N       E                     dE             d eps       ncg     rms          ort
SDA:   1    -0.414554405804E+03    0.48337E+01    0.00000E+00 19264   0.201E+02 0.000E+00
CGA:   2    -0.415416218888E+03   -0.86181E+00   -0.86140E+00 19264   0.303E+02-0.506E-01
CGA:   3    -0.417143309242E+03   -0.17271E+01   -0.17367E+01 19264   0.322E+02-0.649E+00
CGA:   4    -0.418205961366E+03   -0.10627E+01   -0.10678E+01 19264   0.586E+01 0.513E-01
CGA:   5    -0.418545821174E+03   -0.33986E+00   -0.34176E+00 19264   0.127E+02-0.123E+00
CGA:   6    -0.419164883112E+03   -0.61906E+00   -0.61912E+00 19264   0.209E+01-0.206E-01
CGA:   7    -0.419239509434E+03   -0.74626E-01   -0.74436E-01 19264   0.101E+01-0.148E-02
CGA:   8    -0.419275778837E+03   -0.36269E-01   -0.36356E-01 19264   0.124E+01 0.201E-02
CGA:   9    -0.419335625479E+03   -0.59847E-01   -0.59820E-01 19264   0.397E+00 0.152E-01
CGA:  10    -0.419351459543E+03   -0.15834E-01   -0.15862E-01 19264   0.161E+00 0.113E-02
CGA:  11    -0.419356828669E+03   -0.53691E-02   -0.53802E-02 19264   0.134E+00 0.107E-03
CGA:  12    -0.419365706125E+03   -0.88775E-02   -0.88337E-02 19264   0.111E+00 0.171E-02
CGA:  13    -0.419371745739E+03   -0.60396E-02   -0.60459E-02 19264   0.555E-01-0.611E-03
CGA:  14    -0.419372859828E+03   -0.11141E-02   -0.11268E-02 19264   0.171E-01-0.347E-03
CGA:  15    -0.419374121559E+03   -0.12617E-02   -0.12604E-02 19264   0.205E-01 0.451E-04
CGA:  16    -0.419375844982E+03   -0.17234E-02   -0.17194E-02 19264   0.118E-01 0.957E-04
CGA:  17    -0.419376166552E+03   -0.32157E-03   -0.32187E-03 19264   0.475E-02 0.270E-07
CGA:  18    -0.419376356664E+03   -0.19011E-03   -0.19025E-03 19264   0.401E-02 0.732E-05
CGA:  19    -0.419376758046E+03   -0.40138E-03   -0.40118E-03 19264   0.569E-02-0.144E-05
CGA:  20    -0.419376903602E+03   -0.14556E-03   -0.14613E-03 19264   0.235E-02-0.478E-05
CGA:  21    -0.419377009395E+03   -0.10579E-03   -0.10582E-03 19264   0.797E-03 0.390E-05
CGA:  22    -0.419377080592E+03   -0.71198E-04   -0.71088E-04 19264   0.132E-02 0.158E-05
CGA:  23    -0.419377175070E+03   -0.94478E-04   -0.94464E-04 19264   0.144E-02-0.801E-06
CGA:  24    -0.419377204289E+03   -0.29219E-04   -0.29280E-04 19264   0.213E-03-0.271E-05
CGA:  25    -0.419377220718E+03   -0.16429E-04   -0.16434E-04 19264   0.255E-03-0.964E-06
CGA:  26    -0.419377244240E+03   -0.23522E-04   -0.23506E-04 19264   0.353E-03-0.229E-06
CGA:  27    -0.419377253279E+03   -0.90395E-05   -0.90375E-05 19264   0.115E-03-0.598E-06
  21 F= -.41937725E+03 E0= -.41934454E+03  d E =0.108474E-01  mag=    34.0000
       N       E                     dE             d eps       ncg     rms          ort
SDA:   1    -0.416818718141E+03    0.25585E+01    0.00000E+00 19264   0.155E+02 0.000E+00
CGA:   2    -0.417211939711E+03   -0.39322E+00   -0.38617E+00 19264   0.112E+02 0.814E-01
CGA:   3    -0.418140770070E+03   -0.92883E+00   -0.93502E+00 19264   0.167E+02-0.166E+00
CGA:   4    -0.418779900569E+03   -0.63913E+00   -0.63709E+00 19264   0.347E+01-0.179E-01
CGA:   5    -0.418944133866E+03   -0.16423E+00   -0.16410E+00 19264   0.562E+01-0.122E-01
CGA:   6    -0.419278469324E+03   -0.33434E+00   -0.33449E+00 19264   0.140E+01-0.123E-01
CGA:   7    -0.419351135442E+03   -0.72666E-01   -0.72667E-01 19264   0.451E+00-0.220E-02
CGA:   8    -0.419367810515E+03   -0.16675E-01   -0.16648E-01 19264   0.467E+00-0.163E-03
CGA:   9    -0.419389880001E+03   -0.22069E-01   -0.22078E-01 19264   0.327E+00 0.103E-02
CGA:  10    -0.419401634411E+03   -0.11754E-01   -0.11765E-01 19264   0.109E+00-0.228E-04
CGA:  11    -0.419404298412E+03   -0.26640E-02   -0.26699E-02 19264   0.430E-01-0.111E-03
CGA:  12    -0.419408645745E+03   -0.43473E-02   -0.43469E-02 19264   0.603E-01-0.325E-05
CGA:  13    -0.419411826885E+03   -0.31811E-02   -0.31806E-02 19264   0.178E-01 0.238E-03
CGA:  14    -0.419412269472E+03   -0.44259E-03   -0.44290E-03 19264   0.772E-02-0.215E-05
CGA:  15    -0.419413006733E+03   -0.73726E-03   -0.73545E-03 19264   0.135E-01 0.385E-04
CGA:  16    -0.419413550066E+03   -0.54333E-03   -0.54346E-03 19264   0.863E-02 0.727E-05
CGA:  17    -0.419413778810E+03   -0.22874E-03   -0.22910E-03 19264   0.251E-02-0.298E-05
CGA:  18    -0.419413908219E+03   -0.12941E-03   -0.12941E-03 19264   0.156E-02-0.368E-06
CGA:  19    -0.419414022336E+03   -0.11412E-03   -0.11404E-03 19264   0.335E-02 0.162E-05
CGA:  20    -0.419414174186E+03   -0.15185E-03   -0.15188E-03 19264   0.982E-03 0.666E-06
CGA:  21    -0.419414211676E+03   -0.37490E-04   -0.37492E-04 19264   0.404E-03-0.102E-05
CGA:  22    -0.419414233841E+03   -0.22166E-04   -0.22165E-04 19264   0.875E-03-0.101E-05
CGA:  23    -0.419414292581E+03   -0.58740E-04   -0.58722E-04 19264   0.432E-03-0.111E-06
CGA:  24    -0.419414305149E+03   -0.12568E-04   -0.12572E-04 19264   0.184E-03-0.537E-06
CGA:  25    -0.419414312575E+03   -0.74259E-05   -0.74276E-05 19264   0.106E-03-0.591E-06
  22 F= -.41941431E+03 E0= -.41938158E+03  d E =-.370593E-01  mag=    34.0000
       N       E                     dE             d eps       ncg     rms          ort
SDA:   1    -0.419364690490E+03    0.49615E-01    0.00000E+00 19264   0.572E+00 0.000E+00
CGA:   2    -0.419377159041E+03   -0.12469E-01   -0.12477E-01 19264   0.200E+00-0.153E-03
CGA:   3    -0.419388830800E+03   -0.11672E-01   -0.11667E-01 19264   0.263E+00 0.570E-03
CGA:   4    -0.419403528576E+03   -0.14698E-01   -0.14698E-01 19264   0.217E+00-0.475E-04
CGA:   5    -0.419409313541E+03   -0.57850E-02   -0.57683E-02 19264   0.864E-01 0.372E-03
CGA:   6    -0.419413561734E+03   -0.42482E-02   -0.42481E-02 19264   0.366E-01-0.537E-04
CGA:   7    -0.419417423377E+03   -0.38616E-02   -0.38641E-02 19264   0.367E-01-0.362E-04
CGA:   8    -0.419418620168E+03   -0.11968E-02   -0.11966E-02 19264   0.101E-01 0.105E-04
CGA:   9    -0.419418870125E+03   -0.24996E-03   -0.24989E-03 19264   0.346E-02 0.146E-05
CGA:  10    -0.419419203545E+03   -0.33342E-03   -0.33368E-03 19264   0.655E-02-0.445E-05
CGA:  11    -0.419419374397E+03   -0.17085E-03   -0.17064E-03 19264   0.179E-02-0.360E-07
CGA:  12    -0.419419431173E+03   -0.56776E-04   -0.56753E-04 19264   0.484E-03-0.125E-05
CGA:  13    -0.419419494213E+03   -0.63040E-04   -0.63242E-04 19264   0.844E-03-0.250E-05
CGA:  14    -0.419419523786E+03   -0.29573E-04   -0.29562E-04 19264   0.496E-03-0.545E-06
CGA:  15    -0.419419540769E+03   -0.16983E-04   -0.16975E-04 19264   0.114E-03-0.359E-07
CGA:  16    -0.419419546749E+03   -0.59801E-05   -0.59801E-05 19264   0.164E-03 0.474E-06
  23 F= -.41941955E+03 E0= -.41938680E+03  d E =-.523417E-02  mag=    34.0000
       N       E                     dE             d eps       ncg     rms          ort
SDA:   1    -0.419204636261E+03    0.21490E+00    0.00000E+00 19264   0.124E+02 0.000E+00
CGA:   2    -0.419366702757E+03   -0.16207E+00   -0.16778E+00 19264   0.248E+00-0.468E+00
CGA:   3    -0.419382706378E+03   -0.16004E-01   -0.15937E-01 19264   0.415E+00 0.312E-02
CGA:   4    -0.419399566517E+03   -0.16860E-01   -0.16860E-01 19264   0.323E+00 0.215E-03
CGA:   5    -0.419413590694E+03   -0.14024E-01   -0.14053E-01 19264   0.104E+00 0.161E-02
CGA:   6    -0.419418197176E+03   -0.46065E-02   -0.46097E-02 19264   0.107E+00 0.260E-03
CGA:   7    -0.419422557474E+03   -0.43603E-02   -0.43573E-02 19264   0.764E-01-0.377E-04
CGA:   8    -0.419426746457E+03   -0.41890E-02   -0.41871E-02 19264   0.311E-01 0.217E-03
CGA:   9    -0.419427571855E+03   -0.82540E-03   -0.82554E-03 19264   0.119E-01 0.541E-05
CGA:  10    -0.419428005731E+03   -0.43388E-03   -0.43389E-03 19264   0.603E-02 0.377E-05
CGA:  11    -0.419428520469E+03   -0.51474E-03   -0.51469E-03 19264   0.876E-02 0.633E-05
CGA:  12    -0.419428727904E+03   -0.20743E-03   -0.20743E-03 19264   0.141E-02 0.109E-05
CGA:  13    -0.419428787747E+03   -0.59843E-04   -0.59837E-04 19264   0.100E-02-0.161E-06
CGA:  14    -0.419428853998E+03   -0.66251E-04   -0.66275E-04 19264   0.190E-02-0.705E-06
CGA:  15    -0.419428928021E+03   -0.74023E-04   -0.74006E-04 19264   0.443E-03-0.119E-05
CGA:  16    -0.419428944357E+03   -0.16336E-04   -0.16340E-04 19264   0.257E-03 0.422E-06
CGA:  17    -0.419428954810E+03   -0.10453E-04   -0.10458E-04 19264   0.252E-03 0.831E-06
CGA:  18    -0.419428972182E+03   -0.17372E-04   -0.17321E-04 19264   0.249E-03 0.248E-05
CGA:  19    -0.419428983849E+03   -0.11667E-04   -0.11671E-04 19264   0.179E-03 0.189E-05
CGA:  20    -0.419428988571E+03   -0.47226E-05   -0.47413E-05 19264   0.450E-04 0.849E-06
  24 F= -.41942899E+03 E0= -.41939621E+03  d E =-.944182E-02  mag=    34.0000
       N       E                     dE             d eps       ncg     rms          ort
SDA:   1    -0.419316176689E+03    0.11281E+00    0.00000E+00 19264   0.165E+01 0.000E+00
CGA:   2    -0.419342450454E+03   -0.26274E-01   -0.26327E-01 19264   0.372E+00-0.383E-02
CGA:   3    -0.419401821506E+03   -0.59371E-01   -0.59489E-01 19264   0.590E+00-0.121E-02
CGA:   4    -0.419423661591E+03   -0.21840E-01   -0.21826E-01 19264   0.165E+00-0.579E-04
CGA:   5    -0.419429492812E+03   -0.58312E-02   -0.58239E-02 19264   0.149E+00 0.415E-04
CGA:   6    -0.419439686245E+03   -0.10193E-01   -0.10203E-01 19264   0.119E+00-0.414E-03
CGA:   7    -0.419444297505E+03   -0.46113E-02   -0.46143E-02 19264   0.618E-01 0.116E-03
CGA:   8    -0.419445692908E+03   -0.13954E-02   -0.13916E-02 19264   0.135E-01 0.125E-03
CGA:   9    -0.419446513849E+03   -0.82094E-03   -0.82093E-03 19264   0.984E-02 0.908E-06
CGA:  10    -0.419447395496E+03   -0.88165E-03   -0.88264E-03 19264   0.101E-01-0.200E-04
CGA:  11    -0.419447643053E+03   -0.24756E-03   -0.24745E-03 19264   0.265E-02-0.779E-05
CGA:  12    -0.419447731041E+03   -0.87988E-04   -0.87947E-04 19264   0.149E-02-0.328E-05
CGA:  13    -0.419447877902E+03   -0.14686E-03   -0.14704E-03 19264   0.387E-02-0.373E-05
CGA:  14    -0.419447985817E+03   -0.10792E-03   -0.10789E-03 19264   0.397E-03-0.275E-05
CGA:  15    -0.419448012831E+03   -0.27013E-04   -0.26976E-04 19264   0.461E-03 0.219E-05
CGA:  16    -0.419448049046E+03   -0.36215E-04   -0.36079E-04 19264   0.103E-02 0.575E-05
CGA:  17    -0.419448083195E+03   -0.34148E-04   -0.34261E-04 19264   0.352E-03 0.571E-05
CGA:  18    -0.419448098863E+03   -0.15668E-04   -0.15685E-04 19264   0.162E-03 0.202E-05
CGA:  19    -0.419448107003E+03   -0.81408E-05   -0.81420E-05 19264   0.247E-03 0.334E-06
CGA:  20    -0.419448124323E+03   -0.17320E-04   -0.17322E-04 19264   0.281E-03-0.944E-07
CGA:  21    -0.419448140325E+03   -0.16002E-04   -0.16005E-04 19264   0.127E-03-0.871E-06
CGA:  22    -0.419448142967E+03   -0.26414E-05   -0.26303E-05 19264   0.430E-04-0.499E-06
  25 F= -.41944814E+03 E0= -.41941536E+03  d E =-.191544E-01  mag=    34.0000
       N       E                     dE             d eps       ncg     rms          ort
SDA:   1    -0.419308737042E+03    0.13940E+00    0.00000E+00 19264   0.121E+01 0.000E+00
CGA:   2    -0.419341724161E+03   -0.32987E-01   -0.33128E-01 19264   0.651E+00-0.309E-02
CGA:   3    -0.419379759092E+03   -0.38035E-01   -0.38037E-01 19264   0.107E+01-0.514E-03
CGA:   4    -0.419430783621E+03   -0.51025E-01   -0.51053E-01 19264   0.289E+00 0.990E-03
CGA:   5    -0.419438133649E+03   -0.73500E-02   -0.73402E-02 19264   0.172E+00 0.327E-03
CGA:   6    -0.419457466676E+03   -0.19333E-01   -0.19323E-01 19264   0.138E+00 0.186E-03
CGA:   7    -0.419463226520E+03   -0.57598E-02   -0.57633E-02 19264   0.299E-01 0.667E-04
CGA:   8    -0.419464307898E+03   -0.10814E-02   -0.10822E-02 19264   0.298E-01 0.494E-05
CGA:   9    -0.419466017480E+03   -0.17096E-02   -0.17096E-02 19264   0.215E-01 0.142E-05
CGA:  10    -0.419466757578E+03   -0.74010E-03   -0.73969E-03 19264   0.891E-02-0.418E-05
CGA:  11    -0.419466999145E+03   -0.24157E-03   -0.24157E-03 19264   0.341E-02-0.729E-05
CGA:  12    -0.419467237437E+03   -0.23829E-03   -0.23841E-03 19264   0.319E-02-0.641E-05
CGA:  13    -0.419467490765E+03   -0.25333E-03   -0.25361E-03 19264   0.323E-02-0.109E-04
CGA:  14    -0.419467564842E+03   -0.74077E-04   -0.74040E-04 19264   0.683E-03-0.327E-05
CGA:  15    -0.419467599383E+03   -0.34541E-04   -0.34543E-04 19264   0.798E-03 0.963E-06
CGA:  16    -0.419467651615E+03   -0.52232E-04   -0.52185E-04 19264   0.147E-02 0.422E-05
CGA:  17    -0.419467710359E+03   -0.58744E-04   -0.58823E-04 19264   0.276E-03 0.508E-05
CGA:  18    -0.419467723913E+03   -0.13555E-04   -0.13562E-04 19264   0.221E-03 0.143E-05
CGA:  19    -0.419467741610E+03   -0.17697E-04   -0.17651E-04 19264   0.594E-03 0.232E-05
CGA:  20    -0.419467768161E+03   -0.26551E-04   -0.26576E-04 19264   0.185E-03 0.265E-05
CGA:  21    -0.419467774773E+03   -0.66126E-05   -0.66164E-05 19264   0.137E-03 0.703E-07
  26 F= -.41946777E+03 E0= -.41943499E+03  d E =-.196318E-01  mag=    34.0000
       N       E                     dE             d eps       ncg     rms          ort
SDA:   1    -0.419402840145E+03    0.64928E-01    0.00000E+00 19264   0.482E+00 0.000E+00
CGA:   2    -0.419412525746E+03   -0.96856E-02   -0.96946E-02 19264   0.215E+00-0.193E-03
CGA:   3    -0.419434801635E+03   -0.22276E-01   -0.22305E-01 19264   0.359E+00-0.484E-03
CGA:   4    -0.419448540364E+03   -0.13739E-01   -0.13736E-01 19264   0.235E+00 0.755E-04
CGA:   5    -0.419455991228E+03   -0.74509E-02   -0.73892E-02 19264   0.595E-01 0.556E-03
CGA:   6    -0.419459781204E+03   -0.37900E-02   -0.37915E-02 19264   0.424E-01-0.685E-04
CGA:   7    -0.419463581292E+03   -0.38001E-02   -0.37999E-02 19264   0.231E-01 0.747E-05
CGA:   8    -0.419464174154E+03   -0.59286E-03   -0.59284E-03 19264   0.662E-02-0.279E-05
CGA:   9    -0.419464391854E+03   -0.21770E-03   -0.21771E-03 19264   0.429E-02 0.328E-05
CGA:  10    -0.419464774627E+03   -0.38277E-03   -0.38246E-03 19264   0.640E-02 0.926E-05
CGA:  11    -0.419464906632E+03   -0.13201E-03   -0.13219E-03 19264   0.592E-03 0.599E-06
CGA:  12    -0.419464952982E+03   -0.46350E-04   -0.46308E-04 19264   0.845E-03 0.176E-05
CGA:  13    -0.419465017988E+03   -0.65005E-04   -0.64955E-04 19264   0.592E-03 0.221E-05
CGA:  14    -0.419465034359E+03   -0.16372E-04   -0.16382E-04 19264   0.228E-03 0.227E-06
CGA:  15    -0.419465042935E+03   -0.85753E-05   -0.85741E-05 19264   0.102E-03-0.115E-06
  27 F= -.41946504E+03 E0= -.41943224E+03  d E =0.273184E-02  mag=    34.0000
       N       E                     dE             d eps       ncg     rms          ort
SDA:   1    -0.419223439254E+03    0.24160E+00    0.00000E+00 19264   0.179E+01 0.000E+00
CGA:   2    -0.419256770064E+03   -0.33331E-01   -0.33473E-01 19264   0.728E+00-0.588E-02
CGA:   3    -0.419373407494E+03   -0.11664E+00   -0.11666E+00 19264   0.918E+00-0.541E-03
CGA:   4    -0.419398503167E+03   -0.25096E-01   -0.25122E-01 19264   0.365E+00-0.700E-03
CGA:   5    -0.419413794625E+03   -0.15291E-01   -0.15277E-01 19264   0.230E+00-0.160E-03
CGA:   6    -0.419431780665E+03   -0.17986E-01   -0.17964E-01 19264   0.174E+00 0.736E-03
CGA:   7    -0.419439243540E+03   -0.74629E-02   -0.74620E-02 19264   0.790E-01-0.343E-04
CGA:   8    -0.419440965499E+03   -0.17220E-02   -0.17236E-02 19264   0.230E-01-0.504E-04
CGA:   9    -0.419442341938E+03   -0.13764E-02   -0.13761E-02 19264   0.206E-01 0.379E-04
CGA:  10    -0.419443570866E+03   -0.12289E-02   -0.12289E-02 19264   0.209E-01 0.168E-04
CGA:  11    -0.419444130399E+03   -0.55953E-03   -0.56011E-03 19264   0.325E-02 0.731E-05
CGA:  12    -0.419444304815E+03   -0.17442E-03   -0.17441E-03 19264   0.308E-02 0.669E-05
CGA:  13    -0.419444547122E+03   -0.24231E-03   -0.24217E-03 19264   0.604E-02 0.503E-05
CGA:  14    -0.419444698148E+03   -0.15103E-03   -0.15132E-03 19264   0.695E-03-0.144E-05
CGA:  15    -0.419444740619E+03   -0.42470E-04   -0.42483E-04 19264   0.699E-03-0.174E-05
CGA:  16    -0.419444780364E+03   -0.39746E-04   -0.39757E-04 19264   0.112E-02-0.318E-05
CGA:  17    -0.419444837583E+03   -0.57218E-04   -0.57207E-04 19264   0.515E-03-0.683E-05
CGA:  18    -0.419444860498E+03   -0.22915E-04   -0.22899E-04 19264   0.296E-03-0.230E-05
CGA:  19    -0.419444868652E+03   -0.81543E-05   -0.81359E-05 19264   0.187E-03-0.879E-06
CGA:  20    -0.419444893106E+03   -0.24454E-04   -0.24469E-04 19264   0.399E-03-0.390E-06
CGA:  21    -0.419444911691E+03   -0.18585E-04   -0.18586E-04 19264   0.142E-03-0.652E-07
CGA:  22    -0.419444915405E+03   -0.37136E-05   -0.37242E-05 19264   0.687E-04 0.176E-06
  28 F= -.41944492E+03 E0= -.41941209E+03  d E =0.201275E-01  mag=    34.0000
       N       E                     dE             d eps       ncg     rms          ort
SDA:   1    -0.419378815913E+03    0.66096E-01    0.00000E+00 19264   0.651E+00 0.000E+00
CGA:   2    -0.419391506574E+03   -0.12691E-01   -0.12703E-01 19264   0.245E+00-0.459E-03
CGA:   3    -0.419406891952E+03   -0.15385E-01   -0.15386E-01 19264   0.302E+00-0.664E-06
CGA:   4    -0.419432644207E+03   -0.25752E-01   -0.25784E-01 19264   0.118E+00-0.868E-03
CGA:   5    -0.419438066848E+03   -0.54226E-02   -0.54216E-02 19264   0.554E-01-0.257E-04
CGA:   6    -0.419441544213E+03   -0.34774E-02   -0.34770E-02 19264   0.827E-01 0.498E-04
CGA:   7    -0.419443991875E+03   -0.24477E-02   -0.24465E-02 19264   0.312E-01 0.289E-04
CGA:   8    -0.419445309411E+03   -0.13175E-02   -0.13184E-02 19264   0.708E-02 0.204E-04
CGA:   9    -0.419445549884E+03   -0.24047E-03   -0.24051E-03 19264   0.569E-02 0.265E-05
CGA:  10    -0.419445880396E+03   -0.33051E-03   -0.33051E-03 19264   0.465E-02 0.169E-05
CGA:  11    -0.419446124325E+03   -0.24393E-03   -0.24393E-03 19264   0.978E-03-0.602E-06
CGA:  12    -0.419446153040E+03   -0.28714E-04   -0.28703E-04 19264   0.790E-03 0.183E-06
CGA:  13    -0.419446203432E+03   -0.50392E-04   -0.50401E-04 19264   0.987E-03-0.426E-06
CGA:  14    -0.419446261499E+03   -0.58067E-04   -0.58074E-04 19264   0.262E-03-0.105E-05
CGA:  15    -0.419446268355E+03   -0.68568E-05   -0.68563E-05 19264   0.135E-03-0.111E-06
  29 F= -.41944627E+03 E0= -.41941346E+03  d E =-.135295E-02  mag=    34.0000
