       N       E                     dE             d eps       ncg     rms          rms(c)
DAV:   1     0.710818263523E+04    0.71082E+04   -0.28812E+05 39856   0.157E+03
DAV:   2     0.488056164626E+03   -0.66201E+04   -0.61584E+04 39160   0.476E+02
DAV:   3    -0.374705657227E+03   -0.86276E+03   -0.84724E+03 40864   0.184E+02
DAV:   4    -0.418390784761E+03   -0.43685E+02   -0.43203E+02 49024   0.362E+01
DAV:   5    -0.420924937347E+03   -0.25342E+01   -0.25102E+01 64480   0.666E+00    0.590E+01
DAV:   6    -0.370354663436E+03    0.50570E+02   -0.22931E+02 43056   0.321E+01    0.408E+01
DAV:   7    -0.375204888565E+03   -0.48502E+01   -0.22023E+01 41952   0.114E+01    0.304E+01
DAV:   8    -0.376772652660E+03   -0.15678E+01   -0.22051E+00 47920   0.341E+00    0.173E+01
DAV:   9    -0.380456888259E+03   -0.36842E+01   -0.23590E+00 41464   0.335E+00    0.432E+00
DAV:  10    -0.381771097208E+03   -0.13142E+01   -0.52306E-01 43456   0.126E+00    0.291E+00
DAV:  11    -0.383614877044E+03   -0.18438E+01   -0.77183E-01 43208   0.119E+00    0.220E+00
DAV:  12    -0.385676733742E+03   -0.20619E+01   -0.18402E+00 41880   0.162E+00    0.106E+00
DAV:  13    -0.385989788514E+03   -0.31305E+00   -0.28441E-01 43112   0.774E-01    0.486E-01
DAV:  14    -0.386011945934E+03   -0.22157E-01   -0.21517E-02 41312   0.291E-01    0.265E-01
DAV:  15    -0.386010406782E+03    0.15392E-02   -0.54689E-03 41888   0.173E-01    0.156E-01
DAV:  16    -0.386009522201E+03    0.88458E-03   -0.22720E-03 41368   0.113E-01    0.682E-02
DAV:  17    -0.386009358566E+03    0.16363E-03   -0.33118E-04 42568   0.429E-02    0.369E-02
DAV:  18    -0.386009329672E+03    0.28894E-04   -0.18648E-04 38888   0.310E-02    0.196E-02
DAV:  19    -0.386009308883E+03    0.20789E-04   -0.39433E-05 35352   0.170E-02    0.133E-02
DAV:  20    -0.386009304530E+03    0.43528E-05   -0.13870E-05 29248   0.112E-02
   1 F= -.38600930E+03 E0= -.38600930E+03  d E =-.386009E+03  mag=    59.9999
       N       E                     dE             d eps       ncg     rms          rms(c)
DAV:   1    -0.386019169089E+03   -0.98602E-02   -0.11225E-02 42944   0.238E-01    0.321E-02
DAV:   2    -0.386019222984E+03   -0.53895E-04   -0.55159E-04 41488   0.415E-02    0.166E-02
DAV:   3    -0.386019223262E+03   -0.27838E-06   -0.15064E-05 31888   0.753E-03    0.892E-03
DAV:   4    -0.386019222618E+03    0.64464E-06   -0.18804E-06 20440   0.319E-03
   2 F= -.38601922E+03 E0= -.38601922E+03  d E =-.991809E-02  mag=    60.0000
       N       E                     dE             d eps       ncg     rms          rms(c)
DAV:   1    -0.386300970047E+03   -0.28175E+00   -0.25708E+01 42120   0.114E+01    0.151E+00
DAV:   2    -0.386430780667E+03   -0.12981E+00   -0.13045E+00 41872   0.199E+00    0.777E-01
DAV:   3    -0.386432127159E+03   -0.13465E-02   -0.37604E-02 53384   0.337E-01    0.420E-01
DAV:   4    -0.386430754891E+03    0.13723E-02   -0.28775E-03 51488   0.117E-01    0.279E-01
DAV:   5    -0.386429575692E+03    0.11792E-02   -0.14989E-03 50440   0.170E-01    0.706E-02
DAV:   6    -0.386429654119E+03   -0.78428E-04   -0.13202E-03 45496   0.736E-02    0.368E-02
DAV:   7    -0.386429656194E+03   -0.20744E-05   -0.12126E-04 47552   0.214E-02    0.249E-02
DAV:   8    -0.386429648971E+03    0.72226E-05   -0.12450E-05 29128   0.134E-02
   3 F= -.38642965E+03 E0= -.38642965E+03  d E =-.410426E+00  mag=    60.0000
       N       E                     dE             d eps       ncg     rms          rms(c)
DAV:   1    -0.386082571629E+03    0.34708E+00   -0.14469E+02 41936   0.297E+01    0.430E+00
DAV:   2    -0.387072205866E+03   -0.98963E+00   -0.96953E+00 41488   0.533E+00    0.226E+00
DAV:   3    -0.387083834631E+03   -0.11629E-01   -0.24939E-01 53088   0.925E-01    0.109E+00
DAV:   4    -0.387076633950E+03    0.72007E-02   -0.26275E-02 49552   0.325E-01    0.728E-01
DAV:   5    -0.387070485783E+03    0.61482E-02   -0.53715E-03 50744   0.312E-01    0.269E-01
DAV:   6    -0.387070256354E+03    0.22943E-03   -0.62576E-03 48120   0.181E-01    0.889E-02
DAV:   7    -0.387070336053E+03   -0.79699E-04   -0.11286E-03 45464   0.647E-02    0.636E-02
DAV:   8    -0.387070321471E+03    0.14582E-04   -0.13673E-04 48720   0.256E-02    0.384E-02
DAV:   9    -0.387070305603E+03    0.15868E-04   -0.23517E-05 36552   0.327E-02    0.155E-02
DAV:  10    -0.387070301846E+03    0.37569E-05   -0.27162E-05 40600   0.249E-02
   4 F= -.38707030E+03 E0= -.38707030E+03  d E =-.640653E+00  mag=    60.0000
       N       E                     dE             d eps       ncg     rms          rms(c)
DAV:   1    -0.386217795846E+03    0.85251E+00   -0.11637E+02 41952   0.324E+01    0.524E+00
DAV:   2    -0.387351211810E+03   -0.11334E+01   -0.10607E+01 39528   0.588E+00    0.280E+00
DAV:   3    -0.387387058721E+03   -0.35847E-01   -0.31259E-01 51616   0.102E+00    0.107E+00
DAV:   4    -0.387383579701E+03    0.34790E-02   -0.23740E-02 50176   0.283E-01    0.759E-01
DAV:   5    -0.387379456488E+03    0.41232E-02   -0.35360E-03 48656   0.249E-01    0.354E-01
DAV:   6    -0.387378958178E+03    0.49831E-03   -0.41133E-03 47944   0.180E-01    0.792E-02
DAV:   7    -0.387379061474E+03   -0.10330E-03   -0.13530E-03 43880   0.790E-02    0.616E-02
DAV:   8    -0.387379061542E+03   -0.67877E-07   -0.98115E-05 48448   0.212E-02
   5 F= -.38737906E+03 E0= -.38737906E+03  d E =-.308760E+00  mag=    60.0000
       N       E                     dE             d eps       ncg     rms          rms(c)
DAV:   1    -0.386027123154E+03    0.13519E+01   -0.14221E+02 42136   0.384E+01    0.621E+00
DAV:   2    -0.387511149016E+03   -0.14840E+01   -0.13907E+01 38872   0.695E+00    0.346E+00
DAV:   3    -0.387558321200E+03   -0.47172E-01   -0.36073E-01 49384   0.114E+00    0.127E+00
DAV:   4    -0.387554833572E+03    0.34876E-02   -0.25888E-02 51824   0.308E-01    0.898E-01
DAV:   5    -0.387550780346E+03    0.40532E-02   -0.33244E-03 49312   0.235E-01    0.470E-01
DAV:   6    -0.387549863456E+03    0.91689E-03   -0.38854E-03 47976   0.216E-01    0.898E-02
DAV:   7    -0.387550030521E+03   -0.16707E-03   -0.18813E-03 44088   0.932E-02    0.595E-02
DAV:   8    -0.387550027095E+03    0.34263E-05   -0.10424E-04 49832   0.244E-02    0.367E-02
DAV:   9    -0.387550023411E+03    0.36837E-05   -0.22964E-05 35792   0.164E-02
   6 F= -.38755002E+03 E0= -.38755002E+03  d E =-.170962E+00  mag=    60.0000
       N       E                     dE             d eps       ncg     rms          rms(c)
DAV:   1    -0.386525950561E+03    0.10241E+01   -0.21388E+02 42224   0.395E+01    0.478E+00
DAV:   2    -0.387697099665E+03   -0.11711E+01   -0.11433E+01 39464   0.694E+00    0.251E+00
DAV:   3    -0.387709081251E+03   -0.11982E-01   -0.26088E-01 46496   0.112E+00    0.119E+00
DAV:   4    -0.387701893948E+03    0.71873E-02   -0.33144E-02 50488   0.381E-01    0.813E-01
DAV:   5    -0.387694690723E+03    0.72032E-02   -0.54347E-03 49584   0.313E-01    0.380E-01
DAV:   6    -0.387693381627E+03    0.13091E-02   -0.70965E-03 47000   0.241E-01    0.108E-01
DAV:   7    -0.387693542391E+03   -0.16076E-03   -0.21221E-03 44760   0.942E-02    0.752E-02
DAV:   8    -0.387693527627E+03    0.14765E-04   -0.16581E-04 53512   0.259E-02    0.468E-02
DAV:   9    -0.387693503917E+03    0.23710E-04   -0.30972E-05 42976   0.321E-02    0.195E-02
DAV:  10    -0.387693499409E+03    0.45085E-05   -0.26450E-05 40624   0.227E-02
   7 F= -.38769350E+03 E0= -.38769350E+03  d E =-.143476E+00  mag=    60.0000
       N       E                     dE             d eps       ncg     rms          rms(c)
DAV:   1    -0.387505036556E+03    0.18847E+00   -0.26867E+01 41584   0.161E+01    0.237E+00
DAV:   2    -0.387739839785E+03   -0.23480E+00   -0.22219E+00 39280   0.292E+00    0.111E+00
DAV:   3    -0.387746582283E+03   -0.67425E-02   -0.56945E-02 50488   0.449E-01    0.502E-01
DAV:   4    -0.387745802587E+03    0.77970E-03   -0.37441E-03 53496   0.119E-01    0.370E-01
DAV:   5    -0.387744670787E+03    0.11318E-02   -0.87326E-04 48120   0.147E-01    0.171E-01
DAV:   6    -0.387744545555E+03    0.12523E-03   -0.10422E-03 47912   0.105E-01    0.342E-02
DAV:   7    -0.387744572380E+03   -0.26825E-04   -0.38578E-04 43736   0.455E-02    0.333E-02
DAV:   8    -0.387744568938E+03    0.34416E-05   -0.17205E-05 29584   0.110E-02
   8 F= -.38774457E+03 E0= -.38774457E+03  d E =-.510695E-01  mag=    60.0000
       N       E                     dE             d eps       ncg     rms          rms(c)
DAV:   1    -0.387679864535E+03    0.64708E-01   -0.10971E+01 41584   0.998E+00    0.139E+00
DAV:   2    -0.387765669781E+03   -0.85805E-01   -0.80939E-01 38800   0.179E+00    0.611E-01
DAV:   3    -0.387768209303E+03   -0.25395E-02   -0.20623E-02 49368   0.270E-01    0.267E-01
DAV:   4    -0.387767985898E+03    0.22340E-03   -0.13936E-03 54480   0.679E-02    0.207E-01
DAV:   5    -0.387767624715E+03    0.36118E-03   -0.25234E-04 47808   0.770E-02    0.106E-01
DAV:   6    -0.387767576050E+03    0.48665E-04   -0.34718E-04 47824   0.584E-02    0.173E-02
DAV:   7    -0.387767584859E+03   -0.88093E-05   -0.10703E-04 42928   0.243E-02    0.138E-02
DAV:   8    -0.387767584421E+03    0.43803E-06   -0.44590E-06 21368   0.594E-03
   9 F= -.38776758E+03 E0= -.38776758E+03  d E =-.230155E-01  mag=    60.0000
       N       E                     dE             d eps       ncg     rms          rms(c)
DAV:   1    -0.386464622186E+03    0.13030E+01   -0.16988E+02 41600   0.394E+01    0.557E+00
DAV:   2    -0.387802577943E+03   -0.13380E+01   -0.12668E+01 39440   0.711E+00    0.287E+00
DAV:   3    -0.387836450440E+03   -0.33872E-01   -0.30608E-01 46632   0.112E+00    0.117E+00
DAV:   4    -0.387831888475E+03    0.45620E-02   -0.24494E-02 53800   0.319E-01    0.863E-01
DAV:   5    -0.387826493527E+03    0.53949E-02   -0.29426E-03 48832   0.285E-01    0.483E-01
DAV:   6    -0.387824584306E+03    0.19092E-02   -0.51975E-03 48240   0.321E-01    0.987E-02
DAV:   7    -0.387824801979E+03   -0.21767E-03   -0.34322E-03 44704   0.135E-01    0.811E-02
DAV:   8    -0.387824784483E+03    0.17496E-04   -0.24606E-04 50384   0.310E-02    0.548E-02
DAV:   9    -0.387824744057E+03    0.40425E-04   -0.37018E-05 39264   0.324E-02    0.362E-02
DAV:  10    -0.387824708659E+03    0.35398E-04   -0.29771E-05 40520   0.533E-02    0.139E-02
DAV:  11    -0.387824699589E+03    0.90704E-05   -0.40883E-05 42384   0.322E-02
  10 F= -.38782470E+03 E0= -.38782470E+03  d E =-.571152E-01  mag=    60.0000
       N       E                     dE             d eps       ncg     rms          rms(c)
DAV:   1    -0.387773717787E+03    0.50991E-01   -0.68513E+00 41608   0.912E+00    0.135E+00
DAV:   2    -0.387843519199E+03   -0.69801E-01   -0.66982E-01 39056   0.169E+00    0.627E-01
DAV:   3    -0.387845746780E+03   -0.22276E-02   -0.20635E-02 46336   0.305E-01    0.305E-01
DAV:   4    -0.387845467556E+03    0.27922E-03   -0.15725E-03 57056   0.921E-02    0.221E-01
DAV:   5    -0.387844951703E+03    0.51585E-03   -0.30951E-04 48904   0.135E-01    0.974E-02
DAV:   6    -0.387844833845E+03    0.11786E-03   -0.43650E-04 48800   0.116E-01    0.268E-02
DAV:   7    -0.387844854898E+03   -0.21053E-04   -0.44804E-04 44616   0.514E-02    0.301E-02
DAV:   8    -0.387844848592E+03    0.63051E-05   -0.29367E-05 35296   0.130E-02
  11 F= -.38784485E+03 E0= -.38784485E+03  d E =-.201490E-01  mag=    60.0000
       N       E                     dE             d eps       ncg     rms          rms(c)
DAV:   1    -0.387847057716E+03   -0.22028E-02   -0.26991E-01 41600   0.164E+00    0.231E-01
DAV:   2    -0.387849344851E+03   -0.22871E-02   -0.22010E-02 39224   0.300E-01    0.101E-01
DAV:   3    -0.387849409108E+03   -0.64256E-04   -0.58450E-04 50096   0.483E-02    0.467E-02
DAV:   4    -0.387849398622E+03    0.10486E-04   -0.39097E-05 38864   0.149E-02    0.342E-02
DAV:   5    -0.387849385063E+03    0.13558E-04   -0.10078E-05 27688   0.210E-02    0.140E-02
DAV:   6    -0.387849384080E+03    0.98304E-06   -0.16004E-05 28848   0.136E-02
  12 F= -.38784938E+03 E0= -.38784938E+03  d E =-.453549E-02  mag=    60.0000
       N       E                     dE             d eps       ncg     rms          rms(c)
DAV:   1    -0.387840955386E+03    0.84297E-02   -0.27450E+00 41576   0.496E+00    0.673E-01
DAV:   2    -0.387861480755E+03   -0.20525E-01   -0.19516E-01 38776   0.888E-01    0.295E-01
DAV:   3    -0.387862045203E+03   -0.56445E-03   -0.48053E-03 48464   0.133E-01    0.133E-01
DAV:   4    -0.387861979699E+03    0.65504E-04   -0.33746E-04 54672   0.347E-02    0.101E-01
DAV:   5    -0.387861884215E+03    0.95484E-04   -0.76426E-05 42496   0.428E-02    0.455E-02
DAV:   6    -0.387861877770E+03    0.64456E-05   -0.89997E-05 47648   0.278E-02
  13 F= -.38786188E+03 E0= -.38786188E+03  d E =-.124937E-01  mag=    60.0000
       N       E                     dE             d eps       ncg     rms          rms(c)
DAV:   1    -0.387828298617E+03    0.33586E-01   -0.64230E+00 41600   0.758E+00    0.102E+00
DAV:   2    -0.387875759399E+03   -0.47461E-01   -0.44765E-01 38512   0.134E+00    0.442E-01
DAV:   3    -0.387877113270E+03   -0.13539E-02   -0.10884E-02 47104   0.199E-01    0.194E-01
DAV:   4    -0.387876994586E+03    0.11868E-03   -0.70642E-04 55168   0.473E-02    0.152E-01
DAV:   5    -0.387876798753E+03    0.19583E-03   -0.14243E-04 45176   0.554E-02    0.785E-02
DAV:   6    -0.387876774210E+03    0.24543E-04   -0.19203E-04 48048   0.408E-02    0.134E-02
DAV:   7    -0.387876777831E+03   -0.36210E-05   -0.50966E-05 36912   0.172E-02
  14 F= -.38787678E+03 E0= -.38787678E+03  d E =-.149001E-01  mag=    60.0000
       N       E                     dE             d eps       ncg     rms          rms(c)
DAV:   1    -0.386865498258E+03    0.10113E+01   -0.13984E+02 41600   0.352E+01    0.470E+00
DAV:   2    -0.387877861657E+03   -0.10124E+01   -0.96507E+00 39040   0.638E+00    0.228E+00
DAV:   3    -0.387902796452E+03   -0.24935E-01   -0.23165E-01 46168   0.986E-01    0.976E-01
DAV:   4    -0.387899250502E+03    0.35460E-02   -0.17669E-02 52296   0.283E-01    0.722E-01
DAV:   5    -0.387895050755E+03    0.41997E-02   -0.24577E-03 49496   0.263E-01    0.395E-01
DAV:   6    -0.387893822553E+03    0.12282E-02   -0.39866E-03 48912   0.270E-01    0.793E-02
DAV:   7    -0.387893981662E+03   -0.15911E-03   -0.26299E-03 43984   0.119E-01    0.693E-02
DAV:   8    -0.387893965043E+03    0.16619E-04   -0.16673E-04 49784   0.292E-02    0.424E-02
DAV:   9    -0.387893930891E+03    0.34151E-04   -0.15419E-05 32104   0.334E-02    0.271E-02
DAV:  10    -0.387893905219E+03    0.25672E-04   -0.29465E-05 40032   0.470E-02    0.943E-03
DAV:  11    -0.387893901905E+03    0.33144E-05   -0.40465E-05 40448   0.239E-02
  15 F= -.38789390E+03 E0= -.38789390E+03  d E =-.171241E-01  mag=    60.0000
       N       E                     dE             d eps       ncg     rms          rms(c)
DAV:   1    -0.387800868688E+03    0.93037E-01   -0.13880E+01 41928   0.122E+01    0.171E+00
DAV:   2    -0.387917424797E+03   -0.11656E+00   -0.11706E+00 39464   0.226E+00    0.835E-01
DAV:   3    -0.387920175002E+03   -0.27502E-02   -0.38729E-02 49632   0.442E-01    0.433E-01
DAV:   4    -0.387919105490E+03    0.10695E-02   -0.29815E-03 54616   0.163E-01    0.280E-01
DAV:   5    -0.387917671969E+03    0.14335E-02   -0.79774E-04 50160   0.252E-01    0.968E-02
DAV:   6    -0.387917416343E+03    0.25563E-03   -0.12870E-03 47744   0.167E-01    0.402E-02
DAV:   7    -0.387917444121E+03   -0.27778E-04   -0.95748E-04 45040   0.732E-02    0.435E-02
DAV:   8    -0.387917416189E+03    0.27931E-04   -0.66036E-05 47248   0.223E-02    0.257E-02
DAV:   9    -0.387917362581E+03    0.53609E-04   -0.16591E-05 33200   0.515E-02    0.143E-02
DAV:  10    -0.387917335652E+03    0.26929E-04   -0.40696E-05 42656   0.548E-02    0.873E-03
DAV:  11    -0.387917336115E+03   -0.46344E-06   -0.59130E-05 41568   0.256E-02
  16 F= -.38791734E+03 E0= -.38791734E+03  d E =-.234342E-01  mag=    60.0000
       N       E                     dE             d eps       ncg     rms          rms(c)
DAV:   1    -0.387914104798E+03    0.32309E-02   -0.49544E-01 42416   0.279E+00    0.432E-01
DAV:   2    -0.387920918374E+03   -0.68136E-02   -0.63371E-02 39400   0.508E-01    0.193E-01
DAV:   3    -0.387921179151E+03   -0.26078E-03   -0.22076E-03 45592   0.106E-01    0.834E-02
DAV:   4    -0.387921148909E+03    0.30242E-04   -0.16701E-04 51816   0.349E-02    0.589E-02
DAV:   5    -0.387921090514E+03    0.58395E-04   -0.19601E-05 36304   0.482E-02    0.283E-02
DAV:   6    -0.387921064370E+03    0.26144E-04   -0.46885E-05 42160   0.514E-02    0.918E-03
DAV:   7    -0.387921066570E+03   -0.22004E-05   -0.74284E-05 41208   0.219E-02
  17 F= -.38792107E+03 E0= -.38792107E+03  d E =-.373046E-02  mag=    60.0000
       N       E                     dE             d eps       ncg     rms          rms(c)
DAV:   1    -0.387911379992E+03    0.96844E-02   -0.15817E+00 42048   0.430E+00    0.603E-01
DAV:   2    -0.387926387769E+03   -0.15008E-01   -0.14001E-01 39288   0.769E-01    0.266E-01
DAV:   3    -0.387926887868E+03   -0.50010E-03   -0.41573E-03 45648   0.140E-01    0.113E-01
DAV:   4    -0.387926838956E+03    0.48912E-04   -0.31874E-04 53928   0.432E-02    0.833E-02
DAV:   5    -0.387926744076E+03    0.94880E-04   -0.36018E-05 41576   0.554E-02    0.426E-02
DAV:   6    -0.387926701853E+03    0.42223E-04   -0.74567E-05 45816   0.649E-02    0.118E-02
DAV:   7    -0.387926705528E+03   -0.36756E-05   -0.11704E-04 43736   0.280E-02    0.120E-02
DAV:   8    -0.387926704401E+03    0.11277E-05   -0.12765E-05 24736   0.853E-03
  18 F= -.38792670E+03 E0= -.38792670E+03  d E =-.563783E-02  mag=    60.0000
       N       E                     dE             d eps       ncg     rms          rms(c)
DAV:   1    -0.387890723421E+03    0.35982E-01   -0.73840E+00 41600   0.787E+00    0.967E-01
DAV:   2    -0.387936750826E+03   -0.46027E-01   -0.43871E-01 38872   0.138E+00    0.425E-01
DAV:   3    -0.387937858608E+03   -0.11078E-02   -0.10124E-02 46456   0.207E-01    0.191E-01
DAV:   4    -0.387937719125E+03    0.13948E-03   -0.72134E-04 54904   0.536E-02    0.147E-01
DAV:   5    -0.387937497995E+03    0.22113E-03   -0.15185E-04 43744   0.670E-02    0.722E-02
DAV:   6    -0.387937466137E+03    0.31858E-04   -0.21600E-04 48472   0.539E-02    0.148E-02
DAV:   7    -0.387937472240E+03   -0.61033E-05   -0.10202E-04 42992   0.248E-02    0.138E-02
DAV:   8    -0.387937471175E+03    0.10648E-05   -0.46799E-06 21552   0.627E-03
  19 F= -.38793747E+03 E0= -.38793747E+03  d E =-.107668E-01  mag=    60.0000
       N       E                     dE             d eps       ncg     rms          rms(c)
DAV:   1    -0.387436201455E+03    0.50127E+00   -0.89144E+01 42016   0.266E+01    0.317E+00
DAV:   2    -0.387953922243E+03   -0.51772E+00   -0.49421E+00 38616   0.463E+00    0.146E+00
DAV:   3    -0.387964344353E+03   -0.10422E-01   -0.10720E-01 45504   0.682E-01    0.644E-01
DAV:   4    -0.387962597361E+03    0.17470E-02   -0.85661E-03 51904   0.188E-01    0.477E-01
DAV:   5    -0.387960508870E+03    0.20885E-02   -0.13849E-03 48208   0.175E-01    0.250E-01
DAV:   6    -0.387960094306E+03    0.41456E-03   -0.20751E-03 48360   0.148E-01    0.506E-02
DAV:   7    -0.387960153956E+03   -0.59650E-04   -0.76701E-04 44560   0.621E-02    0.368E-02
DAV:   8    -0.387960151299E+03    0.26565E-05   -0.43201E-05 40000   0.174E-02
  20 F= -.38796015E+03 E0= -.38796015E+03  d E =-.226801E-01  mag=    60.0000
       N       E                     dE             d eps       ncg     rms          rms(c)
DAV:   1    -0.387025796904E+03    0.93436E+00   -0.57801E+01 42456   0.315E+01    0.488E+00
DAV:   2    -0.387868488987E+03   -0.84269E+00   -0.78634E+00 39464   0.574E+00    0.241E+00
DAV:   3    -0.387901977881E+03   -0.33489E-01   -0.28596E-01 44112   0.126E+00    0.974E-01
DAV:   4    -0.387897869743E+03    0.41081E-02   -0.20586E-02 52920   0.407E-01    0.686E-01
DAV:   5    -0.387890609999E+03    0.72597E-02   -0.24084E-03 55752   0.495E-01    0.361E-01
DAV:   6    -0.387885915022E+03    0.46950E-02   -0.54721E-03 50640   0.643E-01    0.100E-01
DAV:   7    -0.387886033735E+03   -0.11871E-03   -0.10486E-02 45528   0.271E-01    0.102E-01
DAV:   8    -0.387885997111E+03    0.36624E-04   -0.17571E-03 47392   0.830E-02    0.813E-02
DAV:   9    -0.387885798308E+03    0.19880E-03   -0.21613E-04 47616   0.581E-02    0.546E-02
DAV:  10    -0.387885493635E+03    0.30467E-03   -0.20499E-04 54904   0.169E-01    0.302E-02
DAV:  11    -0.387885465448E+03    0.28187E-04   -0.32218E-04 45960   0.803E-02    0.313E-02
DAV:  12    -0.387885487147E+03   -0.21699E-04   -0.29676E-04 43048   0.335E-02    0.138E-02
DAV:  13    -0.387885487322E+03   -0.17490E-06   -0.12958E-05 29000   0.116E-02
  21 F= -.38788549E+03 E0= -.38788549E+03  d E =0.746640E-01  mag=    60.0000
       N       E                     dE             d eps       ncg     rms          rms(c)
DAV:   1    -0.387725649374E+03    0.15984E+00   -0.11061E+01 43864   0.150E+01    0.256E+00
DAV:   2    -0.387946741444E+03   -0.22109E+00   -0.20316E+00 39824   0.271E+00    0.114E+00
DAV:   3    -0.387956428813E+03   -0.96874E-02   -0.78328E-02 44592   0.643E-01    0.465E-01
DAV:   4    -0.387955392871E+03    0.10359E-02   -0.55017E-03 51216   0.204E-01    0.345E-01
DAV:   5    -0.387953446835E+03    0.19460E-02   -0.55950E-04 54528   0.236E-01    0.202E-01
DAV:   6    -0.387951758539E+03    0.16883E-02   -0.16468E-03 52024   0.399E-01    0.618E-02
DAV:   7    -0.387951810051E+03   -0.51512E-04   -0.33340E-03 44928   0.147E-01    0.555E-02
DAV:   8    -0.387951809747E+03    0.30450E-06   -0.58420E-04 44392   0.485E-02    0.432E-02
DAV:   9    -0.387951740292E+03    0.69455E-04   -0.59150E-05 40816   0.420E-02    0.285E-02
DAV:  10    -0.387951655291E+03    0.85001E-04   -0.57288E-05 46224   0.974E-02    0.133E-02
DAV:  11    -0.387951651144E+03    0.41468E-05   -0.11036E-04 44720   0.456E-02    0.156E-02
DAV:  12    -0.387951659148E+03   -0.80041E-05   -0.94961E-05 44104   0.184E-02
  22 F= -.38795166E+03 E0= -.38795166E+03  d E =-.661718E-01  mag=    60.0000
       N       E                     dE             d eps       ncg     rms          rms(c)
DAV:   1    -0.387885542538E+03    0.66109E-01   -0.39443E+00 43752   0.905E+00    0.149E+00
DAV:   2    -0.387962847639E+03   -0.77305E-01   -0.71190E-01 40128   0.164E+00    0.657E-01
DAV:   3    -0.387966059593E+03   -0.32120E-02   -0.26604E-02 44904   0.386E-01    0.276E-01
DAV:   4    -0.387965714643E+03    0.34495E-03   -0.19741E-03 50952   0.123E-01    0.204E-01
DAV:   5    -0.387965011059E+03    0.70358E-03   -0.21972E-04 52632   0.157E-01    0.116E-01
DAV:   6    -0.387964477075E+03    0.53398E-03   -0.55755E-04 50648   0.243E-01    0.383E-02
DAV:   7    -0.387964494936E+03   -0.17861E-04   -0.11567E-03 45520   0.914E-02    0.336E-02
DAV:   8    -0.387964498166E+03   -0.32303E-05   -0.21766E-04 43576   0.289E-02    0.278E-02
DAV:   9    -0.387964475034E+03    0.23132E-04   -0.17114E-05 32344   0.256E-02    0.182E-02
DAV:  10    -0.387964444352E+03    0.30682E-04   -0.18199E-05 34352   0.593E-02    0.796E-03
DAV:  11    -0.387964441716E+03    0.26354E-05   -0.43029E-05 41456   0.321E-02
  23 F= -.38796444E+03 E0= -.38796444E+03  d E =-.127826E-01  mag=    60.0000
       N       E                     dE             d eps       ncg     rms          rms(c)
DAV:   1    -0.387961838356E+03    0.26060E-02   -0.36874E-01 42576   0.219E+00    0.317E-01
DAV:   2    -0.387965825872E+03   -0.39875E-02   -0.37134E-02 39280   0.392E-01    0.140E-01
DAV:   3    -0.387965971663E+03   -0.14579E-03   -0.11887E-03 46672   0.732E-02    0.609E-02
DAV:   4    -0.387965958542E+03    0.13121E-04   -0.83891E-05 47704   0.218E-02    0.438E-02
DAV:   5    -0.387965933747E+03    0.24795E-04   -0.10897E-05 29504   0.295E-02    0.213E-02
DAV:   6    -0.387965925254E+03    0.84929E-05   -0.21610E-05 37416   0.293E-02
  24 F= -.38796593E+03 E0= -.38796593E+03  d E =-.148354E-02  mag=    60.0000
       N       E                     dE             d eps       ncg     rms          rms(c)
DAV:   1    -0.387938553501E+03    0.27380E-01   -0.47863E+00 42016   0.666E+00    0.819E-01
DAV:   2    -0.387970368418E+03   -0.31815E-01   -0.30295E-01 39272   0.117E+00    0.365E-01
DAV:   3    -0.387971171711E+03   -0.80329E-03   -0.74856E-03 47688   0.180E-01    0.163E-01
DAV:   4    -0.387971065960E+03    0.10575E-03   -0.57897E-04 54376   0.503E-02    0.120E-01
DAV:   5    -0.387970905457E+03    0.16050E-03   -0.12236E-04 43352   0.659E-02    0.521E-02
DAV:   6    -0.387970889776E+03    0.15681E-04   -0.15590E-04 48184   0.463E-02    0.128E-02
DAV:   7    -0.387970893594E+03   -0.38184E-05   -0.76609E-05 42136   0.218E-02
  25 F= -.38797089E+03 E0= -.38797089E+03  d E =-.496834E-02  mag=    60.0000
       N       E                     dE             d eps       ncg     rms          rms(c)
DAV:   1    -0.387944980160E+03    0.25910E-01   -0.50830E+00 41616   0.653E+00    0.747E-01
DAV:   2    -0.387973811710E+03   -0.28832E-01   -0.27734E-01 38896   0.114E+00    0.330E-01
DAV:   3    -0.387974426868E+03   -0.61516E-03   -0.60009E-03 46064   0.163E-01    0.151E-01
DAV:   4    -0.387974337301E+03    0.89567E-04   -0.46487E-04 54592   0.422E-02    0.115E-01
DAV:   5    -0.387974208230E+03    0.12907E-03   -0.11545E-04 42152   0.522E-02    0.513E-02
DAV:   6    -0.387974205211E+03    0.30188E-05   -0.12835E-04 47464   0.303E-02    0.105E-02
DAV:   7    -0.387974206775E+03   -0.15637E-05   -0.24343E-05 29376   0.132E-02
  26 F= -.38797421E+03 E0= -.38797421E+03  d E =-.331318E-02  mag=    60.0000
       N       E                     dE             d eps       ncg     rms          rms(c)
DAV:   1    -0.386965801985E+03    0.10084E+01   -0.10459E+02 41808   0.357E+01    0.470E+00
DAV:   2    -0.387906350816E+03   -0.94055E+00   -0.90850E+00 39008   0.659E+00    0.223E+00
DAV:   3    -0.387932914783E+03   -0.26564E-01   -0.24714E-01 46096   0.115E+00    0.100E+00
DAV:   4    -0.387928894922E+03    0.40199E-02   -0.18242E-02 55640   0.350E-01    0.719E-01
DAV:   5    -0.387923179237E+03    0.57157E-02   -0.28761E-03 50160   0.453E-01    0.324E-01
DAV:   6    -0.387921715579E+03    0.14637E-02   -0.49185E-03 49992   0.385E-01    0.831E-02
DAV:   7    -0.387921876632E+03   -0.16105E-03   -0.48953E-03 45016   0.178E-01    0.872E-02
DAV:   8    -0.387921804209E+03    0.72422E-04   -0.45155E-04 50920   0.448E-02    0.583E-02
DAV:   9    -0.387921649843E+03    0.15437E-03   -0.61356E-05 46688   0.682E-02    0.356E-02
DAV:  10    -0.387921522008E+03    0.12784E-03   -0.12043E-04 49800   0.113E-01    0.227E-02
DAV:  11    -0.387921513253E+03    0.87547E-05   -0.18313E-04 45152   0.509E-02    0.221E-02
DAV:  12    -0.387921522000E+03   -0.87469E-05   -0.11853E-04 42104   0.211E-02    0.117E-02
DAV:  13    -0.387921519245E+03    0.27550E-05   -0.56161E-06 25920   0.148E-02
  27 F= -.38792152E+03 E0= -.38792152E+03  d E =0.526875E-01  mag=    60.0000
       N       E                     dE             d eps       ncg     rms          rms(c)
DAV:   1    -0.387351241995E+03    0.57028E+00   -0.31958E+01 42864   0.254E+01    0.419E+00
DAV:   2    -0.387951547470E+03   -0.60031E+00   -0.55260E+00 40152   0.463E+00    0.198E+00
DAV:   3    -0.387974243519E+03   -0.22696E-01   -0.17405E-01 44880   0.102E+00    0.772E-01
DAV:   4    -0.387971308838E+03    0.29347E-02   -0.14023E-02 52496   0.354E-01    0.559E-01
DAV:   5    -0.387966133228E+03    0.51756E-02   -0.17042E-03 56696   0.466E-01    0.289E-01
DAV:   6    -0.387963100405E+03    0.30328E-02   -0.38987E-03 50896   0.568E-01    0.839E-02
DAV:   7    -0.387963221793E+03   -0.12139E-03   -0.73914E-03 45256   0.237E-01    0.832E-02
DAV:   8    -0.387963195738E+03    0.26055E-04   -0.12125E-03 46432   0.699E-02    0.721E-02
DAV:   9    -0.387963047408E+03    0.14833E-03   -0.10297E-04 47632   0.622E-02    0.468E-02
DAV:  10    -0.387962823867E+03    0.22354E-03   -0.13437E-04 55416   0.153E-01    0.234E-02
DAV:  11    -0.387962781921E+03    0.41946E-04   -0.19327E-04 46696   0.944E-02    0.284E-02
DAV:  12    -0.387962801473E+03   -0.19552E-04   -0.27801E-04 44048   0.359E-02    0.136E-02
DAV:  13    -0.387962803491E+03   -0.20178E-05   -0.19505E-05 30008   0.825E-03
  28 F= -.38796280E+03 E0= -.38796280E+03  d E =-.412842E-01  mag=    60.0000
       N       E                     dE             d eps       ncg     rms          rms(c)
DAV:   1    -0.387950186014E+03    0.12615E-01   -0.10060E+00 43352   0.432E+00    0.714E-01
DAV:   2    -0.387967891815E+03   -0.17706E-01   -0.16376E-01 39688   0.794E-01    0.312E-01
DAV:   3    -0.387968633974E+03   -0.74216E-03   -0.64263E-03 45008   0.193E-01    0.137E-01
DAV:   4    -0.387968556248E+03    0.77727E-04   -0.47391E-04 50424   0.602E-02    0.100E-01
DAV:   5    -0.387968393349E+03    0.16290E-03   -0.46776E-05 45472   0.702E-02    0.624E-02
DAV:   6    -0.387968235020E+03    0.15833E-03   -0.14774E-04 47656   0.137E-01    0.210E-02
DAV:   7    -0.387968241645E+03   -0.66250E-05   -0.31289E-04 44704   0.452E-02    0.173E-02
DAV:   8    -0.387968242640E+03   -0.99568E-06   -0.59821E-05 41136   0.153E-02
  29 F= -.38796824E+03 E0= -.38796824E+03  d E =-.543915E-02  mag=    60.0000
       N       E                     dE             d eps       ncg     rms          rms(c)
DAV:   1    -0.387944989408E+03    0.23252E-01   -0.25638E+00 41808   0.572E+00    0.793E-01
DAV:   2    -0.387969947107E+03   -0.24958E-01   -0.23611E-01 39632   0.103E+00    0.350E-01
DAV:   3    -0.387970756077E+03   -0.80897E-03   -0.79322E-03 47552   0.215E-01    0.161E-01
DAV:   4    -0.387970631802E+03    0.12427E-03   -0.60404E-04 52752   0.671E-02    0.117E-01
DAV:   5    -0.387970392279E+03    0.23952E-03   -0.78200E-05 47152   0.858E-02    0.671E-02
DAV:   6    -0.387970222578E+03    0.16970E-03   -0.19775E-04 49144   0.134E-01    0.227E-02
DAV:   7    -0.387970232425E+03   -0.98472E-05   -0.38468E-04 44720   0.504E-02    0.194E-02
DAV:   8    -0.387970232133E+03    0.29206E-06   -0.64783E-05 41448   0.167E-02
  30 F= -.38797023E+03 E0= -.38797023E+03  d E =-.198949E-02  mag=    60.0000
       N       E                     dE             d eps       ncg     rms          rms(c)
DAV:   1    -0.387965393789E+03    0.48386E-02   -0.13904E+00 41600   0.345E+00    0.395E-01
DAV:   2    -0.387973405703E+03   -0.80119E-02   -0.77491E-02 39288   0.605E-01    0.175E-01
DAV:   3    -0.387973582195E+03   -0.17649E-03   -0.18169E-03 48936   0.896E-02    0.826E-02
DAV:   4    -0.387973552133E+03    0.30061E-04   -0.13662E-04 49800   0.235E-02    0.600E-02
DAV:   5    -0.387973516453E+03    0.35681E-04   -0.37360E-05 37728   0.283E-02    0.240E-02
DAV:   6    -0.387973516902E+03   -0.44965E-06   -0.35066E-05 38704   0.143E-02
  31 F= -.38797352E+03 E0= -.38797352E+03  d E =-.328477E-02  mag=    60.0000
       N       E                     dE             d eps       ncg     rms          rms(c)
DAV:   1    -0.387938300317E+03    0.35216E-01   -0.64037E+00 42016   0.756E+00    0.895E-01
DAV:   2    -0.387977976234E+03   -0.39676E-01   -0.38022E-01 38360   0.133E+00    0.397E-01
DAV:   3    -0.387978966781E+03   -0.99055E-03   -0.92950E-03 47008   0.203E-01    0.181E-01
DAV:   4    -0.387978830927E+03    0.13585E-03   -0.66726E-04 54904   0.545E-02    0.132E-01
DAV:   5    -0.387978648772E+03    0.18216E-03   -0.13940E-04 44152   0.661E-02    0.602E-02
DAV:   6    -0.387978632413E+03    0.16358E-04   -0.17768E-04 48128   0.478E-02    0.140E-02
DAV:   7    -0.387978637011E+03   -0.45981E-05   -0.82360E-05 43072   0.228E-02
  32 F= -.38797864E+03 E0= -.38797864E+03  d E =-.512011E-02  mag=    60.0000
       N       E                     dE             d eps       ncg     rms          rms(c)
DAV:   1    -0.386847402094E+03    0.11312E+01   -0.21728E+02 42176   0.406E+01    0.445E+00
DAV:   2    -0.387978990867E+03   -0.11316E+01   -0.11107E+01 38656   0.721E+00    0.215E+00
DAV:   3    -0.387991113114E+03   -0.12122E-01   -0.21453E-01 46176   0.104E+00    0.102E+00
DAV:   4    -0.387985937350E+03    0.51758E-02   -0.25968E-02 50016   0.341E-01    0.701E-01
DAV:   5    -0.387981571070E+03    0.43663E-02   -0.39719E-03 47624   0.266E-01    0.318E-01
DAV:   6    -0.387981222857E+03    0.34821E-03   -0.42919E-03 47264   0.161E-01    0.814E-02
DAV:   7    -0.387981289221E+03   -0.66364E-04   -0.66255E-04 44352   0.578E-02    0.471E-02
DAV:   8    -0.387981294012E+03   -0.47903E-05   -0.10277E-04 42512   0.251E-02    0.298E-02
DAV:   9    -0.387981292355E+03    0.16564E-05   -0.14275E-05 27432   0.156E-02
  33 F= -.38798129E+03 E0= -.38798129E+03  d E =-.265534E-02  mag=    60.0000
       N       E                     dE             d eps       ncg     rms          rms(c)
DAV:   1    -0.387090603333E+03    0.89069E+00   -0.60663E+01 41648   0.305E+01    0.476E+00
DAV:   2    -0.387926594173E+03   -0.83599E+00   -0.77408E+00 40016   0.554E+00    0.232E+00
DAV:   3    -0.387956604382E+03   -0.30010E-01   -0.21606E-01 46144   0.102E+00    0.937E-01
DAV:   4    -0.387954385397E+03    0.22190E-02   -0.14633E-02 54352   0.293E-01    0.683E-01
DAV:   5    -0.387950613144E+03    0.37723E-02   -0.18090E-03 52304   0.312E-01    0.385E-01
DAV:   6    -0.387948689977E+03    0.19232E-02   -0.31046E-03 50000   0.419E-01    0.796E-02
DAV:   7    -0.387948868762E+03   -0.17879E-03   -0.45110E-03 44432   0.177E-01    0.747E-02
DAV:   8    -0.387948849358E+03    0.19404E-04   -0.56717E-04 47424   0.494E-02    0.576E-02
DAV:   9    -0.387948800546E+03    0.48812E-04   -0.51487E-05 42456   0.303E-02    0.392E-02
DAV:  10    -0.387948721904E+03    0.78642E-04   -0.33148E-05 39808   0.713E-02    0.174E-02
DAV:  11    -0.387948685989E+03    0.35916E-04   -0.62882E-05 44824   0.693E-02    0.183E-02
DAV:  12    -0.387948689906E+03   -0.39171E-05   -0.12051E-04 43640   0.295E-02    0.104E-02
DAV:  13    -0.387948691672E+03   -0.17659E-05   -0.22439E-05 29704   0.916E-03
  34 F= -.38794869E+03 E0= -.38794869E+03  d E =0.326007E-01  mag=    60.0000
       N       E                     dE             d eps       ncg     rms          rms(c)
DAV:   1    -0.387590505693E+03    0.35818E+00   -0.27988E+01 42104   0.208E+01    0.320E+00
DAV:   2    -0.387964993487E+03   -0.37449E+00   -0.34933E+00 39976   0.377E+00    0.146E+00
DAV:   3    -0.387977687360E+03   -0.12694E-01   -0.10542E-01 45768   0.771E-01    0.619E-01
DAV:   4    -0.387976111563E+03    0.15758E-02   -0.78609E-03 53624   0.242E-01    0.463E-01
DAV:   5    -0.387973160753E+03    0.29508E-02   -0.11503E-03 52904   0.319E-01    0.252E-01
DAV:   6    -0.387971500046E+03    0.16607E-02   -0.23072E-03 49992   0.421E-01    0.679E-02
DAV:   7    -0.387971593790E+03   -0.93744E-04   -0.40145E-03 44912   0.176E-01    0.644E-02
DAV:   8    -0.387971593892E+03   -0.10194E-06   -0.67115E-04 45216   0.510E-02    0.548E-02
DAV:   9    -0.387971539350E+03    0.54543E-04   -0.59597E-05 41928   0.345E-02    0.361E-02
DAV:  10    -0.387971447462E+03    0.91888E-04   -0.52710E-05 45136   0.910E-02    0.158E-02
DAV:  11    -0.387971422524E+03    0.24938E-04   -0.77973E-05 45456   0.676E-02    0.201E-02
DAV:  12    -0.387971430884E+03   -0.83599E-05   -0.13721E-04 44984   0.264E-02    0.899E-03
DAV:  13    -0.387971431549E+03   -0.66554E-06   -0.84858E-06 22840   0.743E-03
  35 F= -.38797143E+03 E0= -.38797143E+03  d E =-.227399E-01  mag=    60.0000
       N       E                     dE             d eps       ncg     rms          rms(c)
DAV:   1    -0.387953443570E+03    0.17987E-01   -0.25098E+00 42080   0.525E+00    0.667E-01
DAV:   2    -0.387972893592E+03   -0.19450E-01   -0.18541E-01 39248   0.935E-01    0.301E-01
DAV:   3    -0.387973435011E+03   -0.54142E-03   -0.53752E-03 49776   0.165E-01    0.146E-01
DAV:   4    -0.387973350228E+03    0.84783E-04   -0.37830E-04 53168   0.472E-02    0.107E-01
DAV:   5    -0.387973204907E+03    0.14532E-03   -0.80829E-05 41928   0.681E-02    0.501E-02
DAV:   6    -0.387973167755E+03    0.37152E-04   -0.13072E-04 48768   0.633E-02    0.145E-02
DAV:   7    -0.387973174385E+03   -0.66301E-05   -0.13289E-04 43232   0.277E-02    0.157E-02
DAV:   8    -0.387973172862E+03    0.15231E-05   -0.74240E-06 22016   0.722E-03
  36 F= -.38797317E+03 E0= -.38797317E+03  d E =-.174131E-02  mag=    60.0000
       N       E                     dE             d eps       ncg     rms          rms(c)
DAV:   1    -0.387956287181E+03    0.16887E-01   -0.29931E+00 41744   0.587E+00    0.768E-01
DAV:   2    -0.387981733654E+03   -0.25446E-01   -0.24542E-01 39256   0.107E+00    0.342E-01
DAV:   3    -0.387982430001E+03   -0.69635E-03   -0.65546E-03 48440   0.180E-01    0.162E-01
DAV:   4    -0.387982314169E+03    0.11583E-03   -0.47571E-04 54040   0.552E-02    0.115E-01
DAV:   5    -0.387982167128E+03    0.14704E-03   -0.10514E-04 45792   0.724E-02    0.456E-02
DAV:   6    -0.387982152220E+03    0.14908E-04   -0.12976E-04 47824   0.485E-02    0.141E-02
DAV:   7    -0.387982156027E+03   -0.38063E-05   -0.92025E-05 43552   0.245E-02
  37 F= -.38798216E+03 E0= -.38798216E+03  d E =-.898317E-02  mag=    60.0000
       N       E                     dE             d eps       ncg     rms          rms(c)
DAV:   1    -0.387971994630E+03    0.10158E-01   -0.17991E+00 42016   0.452E+00    0.592E-01
DAV:   2    -0.387987062254E+03   -0.15068E-01   -0.14330E-01 39168   0.808E-01    0.265E-01
DAV:   3    -0.387987513567E+03   -0.45131E-03   -0.40378E-03 46232   0.139E-01    0.118E-01
DAV:   4    -0.387987453134E+03    0.60433E-04   -0.29898E-04 55944   0.429E-02    0.857E-02
DAV:   5    -0.387987360122E+03    0.93012E-04   -0.49423E-05 39920   0.552E-02    0.393E-02
DAV:   6    -0.387987337445E+03    0.22677E-04   -0.80425E-05 46832   0.494E-02    0.117E-02
DAV:   7    -0.387987341375E+03   -0.39301E-05   -0.84631E-05 43448   0.229E-02
  38 F= -.38798734E+03 E0= -.38798734E+03  d E =-.518535E-02  mag=    60.0000
       N       E                     dE             d eps       ncg     rms          rms(c)
DAV:   1    -0.387922491408E+03    0.64846E-01   -0.96967E+00 42304   0.994E+00    0.121E+00
DAV:   2    -0.387991442091E+03   -0.68951E-01   -0.65801E-01 38432   0.176E+00    0.544E-01
DAV:   3    -0.387993284130E+03   -0.18420E-02   -0.16273E-02 46080   0.264E-01    0.243E-01
DAV:   4    -0.387993063937E+03    0.22019E-03   -0.11964E-03 56472   0.707E-02    0.175E-01
DAV:   5    -0.387992776574E+03    0.28736E-03   -0.29003E-04 46432   0.846E-02    0.693E-02
DAV:   6    -0.387992774403E+03    0.21710E-05   -0.26450E-04 47984   0.448E-02    0.175E-02
DAV:   7    -0.387992777183E+03   -0.27800E-05   -0.59303E-05 41144   0.197E-02
  39 F= -.38799278E+03 E0= -.38799278E+03  d E =-.543581E-02  mag=    60.0000
       N       E                     dE             d eps       ncg     rms          rms(c)
DAV:   1    -0.387041313338E+03    0.95146E+00   -0.13019E+02 41600   0.354E+01    0.448E+00
DAV:   2    -0.387967085165E+03   -0.92577E+00   -0.89047E+00 39152   0.640E+00    0.216E+00
DAV:   3    -0.387987424992E+03   -0.20340E-01   -0.19558E-01 46168   0.100E+00    0.937E-01
DAV:   4    -0.387983762011E+03    0.36630E-02   -0.17188E-02 53840   0.313E-01    0.672E-01
DAV:   5    -0.387979296178E+03    0.44658E-02   -0.27494E-03 51112   0.347E-01    0.307E-01
DAV:   6    -0.387978425928E+03    0.87025E-03   -0.39684E-03 49456   0.297E-01    0.757E-02
DAV:   7    -0.387978597642E+03   -0.17171E-03   -0.31396E-03 45032   0.137E-01    0.798E-02
DAV:   8    -0.387978566139E+03    0.31504E-04   -0.25663E-04 51656   0.336E-02    0.507E-02
DAV:   9    -0.387978504774E+03    0.61365E-04   -0.29824E-05 39568   0.427E-02    0.323E-02
DAV:  10    -0.387978453084E+03    0.51690E-04   -0.59896E-05 44320   0.742E-02    0.150E-02
DAV:  11    -0.387978448816E+03    0.42688E-05   -0.75297E-05 43504   0.346E-02
  40 F= -.38797845E+03 E0= -.38797845E+03  d E =0.143284E-01  mag=    60.0000
       N       E                     dE             d eps       ncg     rms          rms(c)
DAV:   1    -0.377372898440E+03    0.10606E+02   -0.53164E+02 42672   0.988E+01    0.169E+01
DAV:   2    -0.386754245787E+03   -0.93813E+01   -0.87905E+01 39992   0.188E+01    0.119E+01
DAV:   3    -0.387102585514E+03   -0.34834E+00   -0.30825E+00 45848   0.433E+00    0.405E+00
DAV:   4    -0.387038455141E+03    0.64130E-01   -0.19520E-01 53792   0.147E+00    0.283E+00
DAV:   5    -0.386953553198E+03    0.84902E-01   -0.35652E-02 52664   0.151E+00    0.159E+00
DAV:   6    -0.386880551030E+03    0.73002E-01   -0.77304E-02 53200   0.231E+00    0.328E-01
DAV:   7    -0.386883827162E+03   -0.32761E-02   -0.14620E-01 45296   0.877E-01    0.385E-01
DAV:   8    -0.386882857631E+03    0.96953E-03   -0.16418E-02 50648   0.225E-01    0.298E-01
DAV:   9    -0.386880167663E+03    0.26900E-02   -0.27123E-03 51064   0.184E-01    0.185E-01
DAV:  10    -0.386877036195E+03    0.31315E-02   -0.33132E-03 50904   0.446E-01    0.130E-01
DAV:  11    -0.386876823751E+03    0.21244E-03   -0.37935E-03 46184   0.197E-01    0.108E-01
DAV:  12    -0.386876928945E+03   -0.10519E-03   -0.21532E-03 43728   0.865E-02    0.492E-02
DAV:  13    -0.386876910201E+03    0.18744E-04   -0.14668E-04 48328   0.505E-02    0.368E-02
DAV:  14    -0.386876907209E+03    0.29916E-05   -0.86673E-05 46568   0.361E-02
  41 F= -.38687691E+03 E0= -.38687691E+03  d E =0.110154E+01  mag=    60.0000
       N       E                     dE             d eps       ncg     rms          rms(c)
DAV:   1    -0.384698632407E+03    0.21783E+01   -0.18682E+02 42592   0.572E+01    0.974E+00
DAV:   2    -0.387851328545E+03   -0.31527E+01   -0.29564E+01 40304   0.105E+01    0.575E+00
DAV:   3    -0.387957281960E+03   -0.10595E+00   -0.98319E-01 47800   0.231E+00    0.202E+00
DAV:   4    -0.387932502054E+03    0.24780E-01   -0.72229E-02 54136   0.866E-01    0.134E+00
DAV:   5    -0.387898287766E+03    0.34214E-01   -0.11368E-02 56784   0.107E+00    0.624E-01
DAV:   6    -0.387880243111E+03    0.18045E-01   -0.27917E-02 50448   0.116E+00    0.187E-01
DAV:   7    -0.387881396360E+03   -0.11532E-02   -0.42361E-02 45048   0.501E-01    0.227E-01
DAV:   8    -0.387880705877E+03    0.69048E-03   -0.43770E-03 53376   0.147E-01    0.162E-01
DAV:   9    -0.387879336490E+03    0.13694E-02   -0.61319E-04 55952   0.218E-01    0.917E-02
DAV:  10    -0.387878570576E+03    0.76591E-03   -0.12349E-03 49024   0.302E-01    0.605E-02
DAV:  11    -0.387878658651E+03   -0.88075E-04   -0.16925E-03 45216   0.104E-01    0.485E-02
DAV:  12    -0.387878690287E+03   -0.31636E-04   -0.41671E-04 43120   0.350E-02    0.280E-02
DAV:  13    -0.387878687421E+03    0.28664E-05   -0.29226E-05 37480   0.297E-02
  42 F= -.38787869E+03 E0= -.38787869E+03  d E =-.100178E+01  mag=    60.0000
       N       E                     dE             d eps       ncg     rms          rms(c)
DAV:   1    -0.387125310007E+03    0.75338E+00   -0.48237E+01 42696   0.313E+01    0.504E+00
DAV:   2    -0.387981033462E+03   -0.85572E+00   -0.79297E+00 39984   0.566E+00    0.245E+00
DAV:   3    -0.388014741696E+03   -0.33708E-01   -0.29463E-01 45352   0.136E+00    0.952E-01
DAV:   4    -0.388009183433E+03    0.55583E-02   -0.22780E-02 53672   0.482E-01    0.661E-01
DAV:   5    -0.387999730083E+03    0.94534E-02   -0.28658E-03 55928   0.644E-01    0.342E-01
DAV:   6    -0.387993679172E+03    0.60509E-02   -0.72893E-03 50680   0.838E-01    0.116E-01
DAV:   7    -0.387993981824E+03   -0.30265E-03   -0.14326E-02 44912   0.327E-01    0.119E-01
DAV:   8    -0.387993960117E+03    0.21707E-04   -0.24254E-03 47312   0.103E-01    0.103E-01
DAV:   9    -0.387993716235E+03    0.24388E-03   -0.21358E-04 50296   0.809E-02    0.694E-02
DAV:  10    -0.387993373904E+03    0.34233E-03   -0.23626E-04 54808   0.203E-01    0.305E-02
DAV:  11    -0.387993341942E+03    0.31963E-04   -0.38194E-04 46352   0.102E-01    0.367E-02
DAV:  12    -0.387993372360E+03   -0.30419E-04   -0.37828E-04 44920   0.389E-02    0.160E-02
DAV:  13    -0.387993374192E+03   -0.18314E-05   -0.15450E-05 30168   0.108E-02
  43 F= -.38799337E+03 E0= -.38799337E+03  d E =-.114687E+00  mag=    60.0000
       N       E                     dE             d eps       ncg     rms          rms(c)
DAV:   1    -0.387983601252E+03    0.97711E-02   -0.10841E+00 42632   0.366E+00    0.508E-01
DAV:   2    -0.387994106862E+03   -0.10506E-01   -0.98744E-02 39736   0.656E-01    0.228E-01
DAV:   3    -0.387994436265E+03   -0.32940E-03   -0.29495E-03 48008   0.119E-01    0.107E-01
DAV:   4    -0.387994394557E+03    0.41708E-04   -0.21510E-04 54072   0.351E-02    0.778E-02
DAV:   5    -0.387994323403E+03    0.71155E-04   -0.42653E-05 39368   0.495E-02    0.343E-02
DAV:   6    -0.387994308259E+03    0.15144E-04   -0.62687E-05 46080   0.407E-02    0.988E-03
DAV:   7    -0.387994310762E+03   -0.25033E-05   -0.56970E-05 42224   0.184E-02
  44 F= -.38799431E+03 E0= -.38799431E+03  d E =-.936570E-03  mag=    60.0000
       N       E                     dE             d eps       ncg     rms          rms(c)
DAV:   1    -0.387925583916E+03    0.68724E-01   -0.94124E+00 42152   0.932E+00    0.118E+00
DAV:   2    -0.387988841702E+03   -0.63258E-01   -0.61068E-01 39552   0.165E+00    0.564E-01
DAV:   3    -0.387990154941E+03   -0.13132E-02   -0.16216E-02 48304   0.273E-01    0.278E-01
DAV:   4    -0.387989758464E+03    0.39648E-03   -0.14245E-03 55488   0.934E-02    0.191E-01
DAV:   5    -0.387989243106E+03    0.51536E-03   -0.39202E-04 49928   0.137E-01    0.621E-02
DAV:   6    -0.387989208799E+03    0.34308E-04   -0.51038E-04 47512   0.789E-02    0.239E-02
DAV:   7    -0.387989216059E+03   -0.72605E-05   -0.22152E-04 44432   0.339E-02    0.274E-02
DAV:   8    -0.387989210504E+03    0.55550E-05   -0.12406E-05 27160   0.958E-03
  45 F= -.38798921E+03 E0= -.38798921E+03  d E =0.510026E-02  mag=    60.0000
       N       E                     dE             d eps       ncg     rms          rms(c)
DAV:   1    -0.387975852360E+03    0.13364E-01   -0.18527E+00 41328   0.389E+00    0.426E-01
DAV:   2    -0.387985520291E+03   -0.96679E-02   -0.97070E-02 39088   0.695E-01    0.197E-01
DAV:   3    -0.387985646007E+03   -0.12572E-03   -0.19957E-03 48080   0.996E-02    0.104E-01
DAV:   4    -0.387985582244E+03    0.63763E-04   -0.17298E-04 53776   0.341E-02    0.699E-02
DAV:   5    -0.387985529519E+03    0.52725E-04   -0.58034E-05 40192   0.434E-02    0.199E-02
DAV:   6    -0.387985533099E+03   -0.35797E-05   -0.63635E-05 43608   0.196E-02
  46 F= -.38798553E+03 E0= -.38798553E+03  d E =0.367741E-02  mag=    60.0000
       N       E                     dE             d eps       ncg     rms          rms(c)
DAV:   1    -0.387853328274E+03    0.13220E+00   -0.18532E+01 41496   0.134E+01    0.160E+00
DAV:   2    -0.387975976421E+03   -0.12265E+00   -0.11978E+00 38320   0.242E+00    0.718E-01
DAV:   3    -0.387978800595E+03   -0.28242E-02   -0.27560E-02 45744   0.358E-01    0.344E-01
DAV:   4    -0.387978284967E+03    0.51563E-03   -0.22168E-03 56520   0.108E-01    0.242E-01
DAV:   5    -0.387977778635E+03    0.50633E-03   -0.52833E-04 47912   0.130E-01    0.837E-02
DAV:   6    -0.387977803562E+03   -0.24927E-04   -0.52733E-04 46680   0.615E-02    0.260E-02
DAV:   7    -0.387977802011E+03    0.15518E-05   -0.89835E-05 44032   0.260E-02
  47 F= -.38797780E+03 E0= -.38797780E+03  d E =0.773109E-02  mag=    60.0000
       N       E                     dE             d eps       ncg     rms          rms(c)
DAV:   1    -0.383399608204E+03    0.45782E+01   -0.31911E+02 43000   0.660E+01    0.111E+01
DAV:   2    -0.387589286158E+03   -0.41897E+01   -0.38899E+01 39944   0.124E+01    0.781E+00
DAV:   3    -0.387734973005E+03   -0.14569E+00   -0.12068E+00 45160   0.241E+00    0.230E+00
DAV:   4    -0.387718024493E+03    0.16949E-01   -0.89100E-02 56168   0.814E-01    0.147E+00
DAV:   5    -0.387695106600E+03    0.22918E-01   -0.12216E-02 50712   0.739E-01    0.788E-01
DAV:   6    -0.387680116360E+03    0.14990E-01   -0.19664E-02 50816   0.101E+00    0.173E-01
DAV:   7    -0.387681228728E+03   -0.11124E-02   -0.29571E-02 44864   0.397E-01    0.202E-01
DAV:   8    -0.387680961735E+03    0.26699E-03   -0.29661E-03 54112   0.101E-01    0.153E-01
DAV:   9    -0.387680316403E+03    0.64533E-03   -0.43190E-04 52984   0.114E-01    0.946E-02
DAV:  10    -0.387679801365E+03    0.51504E-03   -0.68232E-04 48904   0.185E-01    0.630E-02
DAV:  11    -0.387679721522E+03    0.79844E-04   -0.64083E-04 47024   0.106E-01    0.643E-02
DAV:  12    -0.387679747136E+03   -0.25614E-04   -0.67044E-04 42816   0.529E-02    0.261E-02
DAV:  13    -0.387679742745E+03    0.43912E-05   -0.40436E-05 40896   0.259E-02
  48 F= -.38767974E+03 E0= -.38767974E+03  d E =0.298059E+00  mag=    60.0000
       N       E                     dE             d eps       ncg     rms          rms(c)
DAV:   1    -0.382572873692E+03    0.51069E+01   -0.24063E+02 44432   0.664E+01    0.129E+01
DAV:   2    -0.387791718428E+03   -0.52188E+01   -0.47541E+01 39936   0.124E+01    0.936E+00
DAV:   3    -0.388024688735E+03   -0.23297E+00   -0.17268E+00 45768   0.291E+00    0.271E+00
DAV:   4    -0.388003559478E+03    0.21129E-01   -0.99399E-02 53072   0.986E-01    0.182E+00
DAV:   5    -0.387972002890E+03    0.31557E-01   -0.15464E-02 51816   0.102E+00    0.105E+00
DAV:   6    -0.387941478176E+03    0.30525E-01   -0.26721E-02 53576   0.180E+00    0.211E-01
DAV:   7    -0.387943288825E+03   -0.18106E-02   -0.63108E-02 45136   0.670E-01    0.230E-01
DAV:   8    -0.387943078335E+03    0.21049E-03   -0.91866E-03 49008   0.190E-01    0.217E-01
DAV:   9    -0.387942407098E+03    0.67124E-03   -0.69335E-04 50360   0.101E-01    0.150E-01
DAV:  10    -0.387941117383E+03    0.12897E-02   -0.12881E-03 53120   0.300E-01    0.790E-02
DAV:  11    -0.387940764992E+03    0.35239E-03   -0.99063E-04 47464   0.238E-01    0.949E-02
DAV:  12    -0.387940818132E+03   -0.53139E-04   -0.17297E-03 45184   0.997E-02    0.396E-02
DAV:  13    -0.387940840889E+03   -0.22757E-04   -0.22308E-04 46336   0.293E-02    0.258E-02
DAV:  14    -0.387940834954E+03    0.59344E-05   -0.15443E-05 32080   0.265E-02
  49 F= -.38794083E+03 E0= -.38794083E+03  d E =-.261092E+00  mag=    60.0000
       N       E                     dE             d eps       ncg     rms          rms(c)
DAV:   1    -0.387743260953E+03    0.19758E+00   -0.11660E+01 45040   0.157E+01    0.267E+00
DAV:   2    -0.387979609811E+03   -0.23635E+00   -0.21444E+00 39712   0.278E+00    0.122E+00
DAV:   3    -0.387990389456E+03   -0.10780E-01   -0.85740E-02 44016   0.695E-01    0.480E-01
DAV:   4    -0.387989270251E+03    0.11192E-02   -0.63721E-03 52704   0.229E-01    0.335E-01
DAV:   5    -0.387987147161E+03    0.21231E-02   -0.67172E-04 55592   0.278E-01    0.186E-01
DAV:   6    -0.387985495657E+03    0.16515E-02   -0.16537E-03 52344   0.425E-01    0.595E-02
DAV:   7    -0.387985523132E+03   -0.27474E-04   -0.34639E-03 45176   0.173E-01    0.573E-02
DAV:   8    -0.387985550933E+03   -0.27801E-04   -0.81192E-04 45024   0.561E-02    0.569E-02
DAV:   9    -0.387985504223E+03    0.46710E-04   -0.59914E-05 40768   0.330E-02    0.378E-02
DAV:  10    -0.387985425914E+03    0.78309E-04   -0.49141E-05 45008   0.854E-02    0.149E-02
DAV:  11    -0.387985406933E+03    0.18981E-04   -0.71740E-05 45640   0.654E-02    0.192E-02
DAV:  12    -0.387985415799E+03   -0.88659E-05   -0.11643E-04 46264   0.224E-02    0.977E-03
DAV:  13    -0.387985416639E+03   -0.84025E-06   -0.81412E-06 22280   0.519E-03
  50 F= -.38798542E+03 E0= -.38798542E+03  d E =-.445817E-01  mag=    60.0000
       N       E                     dE             d eps       ncg     rms          rms(c)
DAV:   1    -0.387920685787E+03    0.64730E-01   -0.42350E+00 41888   0.865E+00    0.133E+00
DAV:   2    -0.387985224430E+03   -0.64539E-01   -0.59922E-01 39576   0.156E+00    0.581E-01
DAV:   3    -0.387987821097E+03   -0.25967E-02   -0.19833E-02 46608   0.329E-01    0.251E-01
DAV:   4    -0.387987609488E+03    0.21161E-03   -0.13917E-03 54096   0.979E-02    0.186E-01
DAV:   5    -0.387987171960E+03    0.43753E-03   -0.18344E-04 49832   0.128E-01    0.101E-01
DAV:   6    -0.387986938492E+03    0.23347E-03   -0.34143E-04 50304   0.165E-01    0.293E-02
DAV:   7    -0.387986957248E+03   -0.18756E-04   -0.60700E-04 45184   0.640E-02    0.257E-02
DAV:   8    -0.387986954814E+03    0.24341E-05   -0.81220E-05 43680   0.194E-02
  51 F= -.38798695E+03 E0= -.38798695E+03  d E =-.153817E-02  mag=    60.0000
       N       E                     dE             d eps       ncg     rms          rms(c)
DAV:   1    -0.387886227027E+03    0.10073E+00   -0.83995E+00 41632   0.105E+01    0.150E+00
DAV:   2    -0.387975650498E+03   -0.89423E-01   -0.84937E-01 39192   0.192E+00    0.667E-01
DAV:   3    -0.387978697483E+03   -0.30470E-02   -0.24825E-02 49264   0.339E-01    0.308E-01
DAV:   4    -0.387978370795E+03    0.32669E-03   -0.16890E-03 53856   0.101E-01    0.222E-01
DAV:   5    -0.387977911340E+03    0.45946E-03   -0.32529E-04 48608   0.132E-01    0.929E-02
DAV:   6    -0.387977860212E+03    0.51128E-04   -0.40274E-04 48480   0.893E-02    0.248E-02
DAV:   7    -0.387977871431E+03   -0.11219E-04   -0.28199E-04 45168   0.426E-02    0.256E-02
DAV:   8    -0.387977867175E+03    0.42560E-05   -0.17947E-05 28392   0.113E-02
  52 F= -.38797787E+03 E0= -.38797787E+03  d E =0.908764E-02  mag=    60.0000
       N       E                     dE             d eps       ncg     rms          rms(c)
DAV:   1    -0.387957405487E+03    0.20466E-01   -0.20192E+00 41264   0.476E+00    0.620E-01
DAV:   2    -0.387974025875E+03   -0.16620E-01   -0.16293E-01 39104   0.879E-01    0.282E-01
DAV:   3    -0.387974447664E+03   -0.42179E-03   -0.41209E-03 47672   0.138E-01    0.140E-01
DAV:   4    -0.387974366399E+03    0.81265E-04   -0.31511E-04 54872   0.434E-02    0.963E-02
DAV:   5    -0.387974282569E+03    0.83830E-04   -0.79909E-05 43064   0.543E-02    0.312E-02
DAV:   6    -0.387974284130E+03   -0.15610E-05   -0.86765E-05 45232   0.276E-02
  53 F= -.38797428E+03 E0= -.38797428E+03  d E =0.358305E-02  mag=    60.0000
       N       E                     dE             d eps       ncg     rms          rms(c)
DAV:   1    -0.387941507061E+03    0.32776E-01   -0.31324E+00 41512   0.606E+00    0.793E-01
DAV:   2    -0.387968423786E+03   -0.26917E-01   -0.26213E-01 38792   0.112E+00    0.354E-01
DAV:   3    -0.387969160973E+03   -0.73719E-03   -0.68145E-03 46200   0.184E-01    0.175E-01
DAV:   4    -0.387969035570E+03    0.12540E-03   -0.46358E-04 56168   0.589E-02    0.122E-01
DAV:   5    -0.387968882250E+03    0.15332E-03   -0.93432E-05 46568   0.818E-02    0.444E-02
DAV:   6    -0.387968870488E+03    0.11762E-04   -0.14684E-04 48280   0.502E-02    0.144E-02
DAV:   7    -0.387968874065E+03   -0.35771E-05   -0.93021E-05 43952   0.238E-02
  54 F= -.38796887E+03 E0= -.38796887E+03  d E =0.541006E-02  mag=    60.0000
       N       E                     dE             d eps       ncg     rms          rms(c)
DAV:   1    -0.387369636572E+03    0.59923E+00   -0.95170E+01 41544   0.282E+01    0.326E+00
DAV:   2    -0.387920313395E+03   -0.55068E+00   -0.54974E+00 38328   0.512E+00    0.155E+00
DAV:   3    -0.387928289437E+03   -0.79760E-02   -0.11198E-01 46808   0.727E-01    0.784E-01
DAV:   4    -0.387925131408E+03    0.31580E-02   -0.99442E-03 52896   0.240E-01    0.526E-01
DAV:   5    -0.387922728846E+03    0.24026E-02   -0.27153E-03 47944   0.261E-01    0.165E-01
DAV:   6    -0.387922850019E+03   -0.12117E-03   -0.24926E-03 46640   0.125E-01    0.586E-02
DAV:   7    -0.387922847279E+03    0.27395E-05   -0.29741E-04 47240   0.425E-02    0.384E-02
DAV:   8    -0.387922830799E+03    0.16481E-04   -0.33040E-05 38720   0.218E-02    0.217E-02
DAV:   9    -0.387922818822E+03    0.11977E-04   -0.71159E-06 29288   0.284E-02    0.883E-03
DAV:  10    -0.387922815747E+03    0.30747E-05   -0.20371E-05 31864   0.202E-02
  55 F= -.38792282E+03 E0= -.38792282E+03  d E =0.460583E-01  mag=    60.0000
       N       E                     dE             d eps       ncg     rms          rms(c)
DAV:   1    -0.383898499035E+03    0.40243E+01   -0.27320E+02 42272   0.651E+01    0.983E+00
DAV:   2    -0.387469589872E+03   -0.35711E+01   -0.33965E+01 39456   0.123E+01    0.569E+00
DAV:   3    -0.387585789420E+03   -0.11620E+00   -0.11417E+00 47504   0.260E+00    0.221E+00
DAV:   4    -0.387563433114E+03    0.22356E-01   -0.87617E-02 53600   0.895E-01    0.150E+00
DAV:   5    -0.387531786194E+03    0.31647E-01   -0.11637E-02 52600   0.102E+00    0.778E-01
DAV:   6    -0.387513163246E+03    0.18623E-01   -0.27498E-02 49448   0.123E+00    0.191E-01
DAV:   7    -0.387514543226E+03   -0.13800E-02   -0.42933E-02 44704   0.495E-01    0.222E-01
DAV:   8    -0.387514157657E+03    0.38557E-03   -0.44601E-03 51752   0.127E-01    0.161E-01
DAV:   9    -0.387513185544E+03    0.97211E-03   -0.69027E-04 52912   0.138E-01    0.973E-02
DAV:  10    -0.387512219249E+03    0.96629E-03   -0.90777E-04 50368   0.280E-01    0.657E-02
DAV:  11    -0.387512188301E+03    0.30947E-04   -0.13035E-03 45632   0.112E-01    0.597E-02
DAV:  12    -0.387512224989E+03   -0.36688E-04   -0.65104E-04 42920   0.490E-02    0.265E-02
DAV:  13    -0.387512212896E+03    0.12093E-04   -0.43427E-05 39920   0.351E-02    0.202E-02
DAV:  14    -0.387512210818E+03    0.20778E-05   -0.30349E-05 39392   0.254E-02
  56 F= -.38751221E+03 E0= -.38751221E+03  d E =0.410605E+00  mag=    60.0000
       N       E                     dE             d eps       ncg     rms          rms(c)
DAV:   1    -0.386901942855E+03    0.61027E+00   -0.65686E+01 43328   0.345E+01    0.530E+00
DAV:   2    -0.387878347822E+03   -0.97640E+00   -0.91617E+00 39568   0.619E+00    0.268E+00
DAV:   3    -0.387913052249E+03   -0.34704E-01   -0.33325E-01 47496   0.140E+00    0.102E+00
DAV:   4    -0.387905282055E+03    0.77702E-02   -0.27186E-02 55832   0.523E-01    0.673E-01
DAV:   5    -0.387893297464E+03    0.11985E-01   -0.39870E-03 54248   0.695E-01    0.300E-01
DAV:   6    -0.387887781604E+03    0.55159E-02   -0.97463E-03 48936   0.703E-01    0.109E-01
DAV:   7    -0.387888175250E+03   -0.39365E-03   -0.14621E-02 44912   0.310E-01    0.128E-01
DAV:   8    -0.387888018983E+03    0.15627E-03   -0.17673E-03 51528   0.855E-02    0.101E-01
DAV:   9    -0.387887598524E+03    0.42046E-03   -0.18407E-04 54496   0.123E-01    0.621E-02
DAV:  10    -0.387887262410E+03    0.33611E-03   -0.39056E-04 50272   0.205E-01    0.330E-02
DAV:  11    -0.387887279424E+03   -0.17014E-04   -0.57382E-04 44584   0.730E-02    0.330E-02
DAV:  12    -0.387887298213E+03   -0.18789E-04   -0.21693E-04 43072   0.276E-02    0.143E-02
DAV:  13    -0.387887297456E+03    0.75680E-06   -0.11011E-05 28984   0.212E-02
  57 F= -.38788730E+03 E0= -.38788730E+03  d E =-.375087E+00  mag=    60.0000
       N       E                     dE             d eps       ncg     rms          rms(c)
DAV:   1    -0.387704823776E+03    0.18247E+00   -0.17169E+01 42792   0.172E+01    0.255E+00
DAV:   2    -0.387938502625E+03   -0.23368E+00   -0.22108E+00 39624   0.313E+00    0.120E+00
DAV:   3    -0.387946790434E+03   -0.82878E-02   -0.82038E-02 47216   0.707E-01    0.524E-01
DAV:   4    -0.387945146689E+03    0.16437E-02   -0.64066E-03 55552   0.253E-01    0.348E-01
DAV:   5    -0.387942357759E+03    0.27889E-02   -0.10045E-03 55048   0.368E-01    0.161E-01
DAV:   6    -0.387941103397E+03    0.12544E-02   -0.21677E-03 50936   0.373E-01    0.594E-02
DAV:   7    -0.387941224297E+03   -0.12090E-03   -0.36390E-03 44984   0.156E-01    0.650E-02
DAV:   8    -0.387941200350E+03    0.23947E-04   -0.43961E-04 47776   0.410E-02    0.520E-02
DAV:   9    -0.387941114645E+03    0.85705E-04   -0.31101E-05 39576   0.536E-02    0.337E-02
DAV:  10    -0.387941020209E+03    0.94436E-04   -0.10500E-04 49224   0.112E-01    0.168E-02
DAV:  11    -0.387941018711E+03    0.14979E-05   -0.12977E-04 44936   0.469E-02    0.204E-02
DAV:  12    -0.387941025685E+03   -0.69738E-05   -0.88196E-05 42624   0.191E-02
  58 F= -.38794103E+03 E0= -.38794103E+03  d E =-.537282E-01  mag=    60.0000
       N       E                     dE             d eps       ncg     rms          rms(c)
DAV:   1    -0.387932285966E+03    0.87327E-02   -0.13738E+00 42616   0.376E+00    0.496E-01
DAV:   2    -0.387942914234E+03   -0.10628E-01   -0.10160E-01 39160   0.669E-01    0.234E-01
DAV:   3    -0.387943183202E+03   -0.26897E-03   -0.28505E-03 49296   0.108E-01    0.115E-01
DAV:   4    -0.387943132451E+03    0.50750E-04   -0.23348E-04 52576   0.314E-02    0.784E-02
DAV:   5    -0.387943069960E+03    0.62491E-04   -0.76610E-05 41864   0.415E-02    0.242E-02
DAV:   6    -0.387943071343E+03   -0.13830E-05   -0.59701E-05 43904   0.198E-02
  59 F= -.38794307E+03 E0= -.38794307E+03  d E =-.204566E-02  mag=    60.0000
       N       E                     dE             d eps       ncg     rms          rms(c)
DAV:   1    -0.387864683999E+03    0.78386E-01   -0.11283E+01 41600   0.982E+00    0.124E+00
DAV:   2    -0.387937092590E+03   -0.72409E-01   -0.70594E-01 39416   0.175E+00    0.586E-01
DAV:   3    -0.387938178568E+03   -0.10860E-02   -0.14589E-02 50536   0.259E-01    0.285E-01
DAV:   4    -0.387937729085E+03    0.44948E-03   -0.13531E-03 52712   0.833E-02    0.191E-01
DAV:   5    -0.387937315582E+03    0.41350E-03   -0.53444E-04 48424   0.103E-01    0.532E-02
DAV:   6    -0.387937333472E+03   -0.17890E-04   -0.37270E-04 47304   0.467E-02    0.227E-02
DAV:   7    -0.387937334099E+03   -0.62660E-06   -0.60952E-05 42120   0.183E-02
  60 F= -.38793733E+03 E0= -.38793733E+03  d E =0.573724E-02  mag=    60.0000
       N       E                     dE             d eps       ncg     rms          rms(c)
DAV:   1    -0.387922654402E+03    0.14679E-01   -0.19089E+00 41496   0.420E+00    0.503E-01
DAV:   2    -0.387934787089E+03   -0.12133E-01   -0.11852E-01 39424   0.750E-01    0.225E-01
DAV:   3    -0.387935035821E+03   -0.24873E-03   -0.28977E-03 50088   0.117E-01    0.112E-01
DAV:   4    -0.387934962349E+03    0.73473E-04   -0.22701E-04 51536   0.385E-02    0.765E-02
DAV:   5    -0.387934892063E+03    0.70286E-04   -0.61051E-05 40496   0.492E-02    0.281E-02
DAV:   6    -0.387934891123E+03    0.93959E-06   -0.75320E-05 44968   0.267E-02
  61 F= -.38793489E+03 E0= -.38793489E+03  d E =0.244298E-02  mag=    60.0000
       N       E                     dE             d eps       ncg     rms          rms(c)
DAV:   1    -0.387914237908E+03    0.20654E-01   -0.20008E+00 41600   0.483E+00    0.639E-01
DAV:   2    -0.387931690185E+03   -0.17452E-01   -0.16601E-01 38952   0.879E-01    0.279E-01
DAV:   3    -0.387932261798E+03   -0.57161E-03   -0.45912E-03 46216   0.141E-01    0.130E-01
DAV:   4    -0.387932211102E+03    0.50695E-04   -0.29553E-04 55896   0.363E-02    0.947E-02
DAV:   5    -0.387932136003E+03    0.75100E-04   -0.59801E-05 39928   0.458E-02    0.417E-02
DAV:   6    -0.387932130730E+03    0.52721E-05   -0.71915E-05 47008   0.312E-02
  62 F= -.38793213E+03 E0= -.38793213E+03  d E =0.276039E-02  mag=    60.0000
       N       E                     dE             d eps       ncg     rms          rms(c)
DAV:   1    -0.387756416249E+03    0.17572E+00   -0.22474E+01 41600   0.152E+01    0.186E+00
DAV:   2    -0.387916825800E+03   -0.16041E+00   -0.15369E+00 38496   0.273E+00    0.824E-01
DAV:   3    -0.387921121678E+03   -0.42959E-02   -0.37207E-02 45720   0.412E-01    0.375E-01
DAV:   4    -0.387920618414E+03    0.50326E-03   -0.26840E-03 56336   0.108E-01    0.276E-01
DAV:   5    -0.387919978362E+03    0.64005E-03   -0.65707E-04 48576   0.126E-01    0.117E-01
DAV:   6    -0.387919970780E+03    0.75817E-05   -0.57332E-04 48456   0.675E-02    0.268E-02
DAV:   7    -0.387919975425E+03   -0.46447E-05   -0.13651E-04 44864   0.315E-02    0.180E-02
DAV:   8    -0.387919973396E+03    0.20289E-05   -0.79349E-06 22112   0.965E-03
  63 F= -.38791997E+03 E0= -.38791997E+03  d E =0.121573E-01  mag=    60.0000
       N       E                     dE             d eps       ncg     rms          rms(c)
DAV:   1    -0.383820155673E+03    0.40998E+01   -0.27756E+02 42048   0.640E+01    0.992E+00
DAV:   2    -0.387435570569E+03   -0.36154E+01   -0.34424E+01 39712   0.121E+01    0.559E+00
DAV:   3    -0.387547954648E+03   -0.11238E+00   -0.97490E-01 48960   0.230E+00    0.217E+00
DAV:   4    -0.387528338163E+03    0.19616E-01   -0.70123E-02 53864   0.750E-01    0.150E+00
DAV:   5    -0.387504417307E+03    0.23921E-01   -0.11671E-02 51936   0.894E-01    0.722E-01
DAV:   6    -0.387494677861E+03    0.97394E-02   -0.20888E-02 49480   0.923E-01    0.159E-01
DAV:   7    -0.387495636623E+03   -0.95876E-03   -0.25543E-02 45496   0.394E-01    0.195E-01
DAV:   8    -0.387495400991E+03    0.23563E-03   -0.25663E-03 53120   0.912E-02    0.140E-01
DAV:   9    -0.387494840554E+03    0.56044E-03   -0.38254E-04 54056   0.105E-01    0.853E-02
DAV:  10    -0.387494295916E+03    0.54464E-03   -0.55680E-04 51160   0.202E-01    0.464E-02
DAV:  11    -0.387494220983E+03    0.74933E-04   -0.58136E-04 46672   0.990E-02    0.463E-02
DAV:  12    -0.387494239762E+03   -0.18779E-04   -0.48160E-04 43120   0.473E-02    0.195E-02
DAV:  13    -0.387494230068E+03    0.96935E-05   -0.22555E-05 37456   0.278E-02
  64 F= -.38749423E+03 E0= -.38749423E+03  d E =0.425743E+00  mag=    60.0000
       N       E                     dE             d eps       ncg     rms          rms(c)
DAV:   1    -0.386355922062E+03    0.11383E+01   -0.86668E+01 42896   0.400E+01    0.664E+00
DAV:   2    -0.387851733633E+03   -0.14958E+01   -0.13933E+01 39312   0.736E+00    0.353E+00
DAV:   3    -0.387913100431E+03   -0.61367E-01   -0.49022E-01 48200   0.158E+00    0.129E+00
DAV:   4    -0.387905885239E+03    0.72152E-02   -0.34163E-02 55432   0.547E-01    0.871E-01
DAV:   5    -0.387894490793E+03    0.11394E-01   -0.46033E-03 52576   0.679E-01    0.404E-01
DAV:   6    -0.387889245091E+03    0.52457E-02   -0.93033E-03 50760   0.716E-01    0.112E-01
DAV:   7    -0.387889703298E+03   -0.45821E-03   -0.14063E-02 44648   0.305E-01    0.134E-01
DAV:   8    -0.387889553928E+03    0.14937E-03   -0.16602E-03 51744   0.877E-02    0.100E-01
DAV:   9    -0.387889229294E+03    0.32463E-03   -0.15828E-04 54440   0.963E-02    0.643E-02
DAV:  10    -0.387888904028E+03    0.32527E-03   -0.30364E-04 51456   0.191E-01    0.328E-02
DAV:  11    -0.387888889844E+03    0.14185E-04   -0.43590E-04 45544   0.815E-02    0.353E-02
DAV:  12    -0.387888910430E+03   -0.20586E-04   -0.27048E-04 43040   0.325E-02    0.161E-02
DAV:  13    -0.387888907600E+03    0.28299E-05   -0.97729E-06 29176   0.228E-02
  65 F= -.38788891E+03 E0= -.38788891E+03  d E =-.394678E+00  mag=    60.0000
       N       E                     dE             d eps       ncg     rms          rms(c)
DAV:   1    -0.387758266669E+03    0.13064E+00   -0.10322E+01 42336   0.139E+01    0.217E+00
DAV:   2    -0.387926762804E+03   -0.16850E+00   -0.15604E+00 39280   0.251E+00    0.982E-01
DAV:   3    -0.387933900751E+03   -0.71379E-02   -0.54332E-02 47448   0.507E-01    0.427E-01
DAV:   4    -0.387933365519E+03    0.53523E-03   -0.36373E-03 55968   0.143E-01    0.300E-01
DAV:   5    -0.387932390997E+03    0.97452E-03   -0.59181E-04 50464   0.184E-01    0.140E-01
DAV:   6    -0.387932069582E+03    0.32141E-03   -0.75039E-04 49504   0.172E-01    0.352E-02
DAV:   7    -0.387932099968E+03   -0.30386E-04   -0.91685E-04 44832   0.763E-02    0.411E-02
DAV:   8    -0.387932091480E+03    0.84883E-05   -0.88478E-05 46104   0.188E-02
  66 F= -.38793209E+03 E0= -.38793209E+03  d E =-.431839E-01  mag=    60.0000
       N       E                     dE             d eps       ncg     rms          rms(c)
DAV:   1    -0.387889144541E+03    0.42955E-01   -0.43395E+00 41888   0.747E+00    0.115E+00
DAV:   2    -0.387939610843E+03   -0.50466E-01   -0.46513E-01 39224   0.133E+00    0.525E-01
DAV:   3    -0.387941536453E+03   -0.19256E-02   -0.15209E-02 47896   0.245E-01    0.232E-01
DAV:   4    -0.387941384216E+03    0.15224E-03   -0.12085E-03 54512   0.704E-02    0.166E-01
DAV:   5    -0.387941124348E+03    0.25987E-03   -0.21336E-04 46568   0.891E-02    0.690E-02
DAV:   6    -0.387941084218E+03    0.40130E-04   -0.22056E-04 48520   0.628E-02    0.178E-02
DAV:   7    -0.387941089381E+03   -0.51629E-05   -0.13876E-04 44288   0.284E-02    0.188E-02
DAV:   8    -0.387941086782E+03    0.25986E-05   -0.78774E-06 22872   0.721E-03
  67 F= -.38794109E+03 E0= -.38794109E+03  d E =-.899530E-02  mag=    60.0000
       N       E                     dE             d eps       ncg     rms          rms(c)
DAV:   1    -0.387878961799E+03    0.62128E-01   -0.78544E+00 41792   0.874E+00    0.117E+00
DAV:   2    -0.387938992590E+03   -0.60031E-01   -0.56783E-01 39424   0.154E+00    0.544E-01
DAV:   3    -0.387940612757E+03   -0.16202E-02   -0.15968E-02 50888   0.253E-01    0.256E-01
DAV:   4    -0.387940335911E+03    0.27685E-03   -0.13673E-03 51592   0.785E-02    0.182E-01
DAV:   5    -0.387939998752E+03    0.33716E-03   -0.31589E-04 48240   0.967E-02    0.656E-02
DAV:   6    -0.387939988956E+03    0.97958E-05   -0.30334E-04 47728   0.531E-02    0.196E-02
DAV:   7    -0.387939992629E+03   -0.36724E-05   -0.96350E-05 43968   0.231E-02
  68 F= -.38793999E+03 E0= -.38793999E+03  d E =0.109415E-02  mag=    60.0000
       N       E                     dE             d eps       ncg     rms          rms(c)
DAV:   1    -0.387909103876E+03    0.30885E-01   -0.39041E+00 41264   0.611E+00    0.763E-01
DAV:   2    -0.387936094969E+03   -0.26991E-01   -0.26475E-01 39112   0.111E+00    0.344E-01
DAV:   3    -0.387936672302E+03   -0.57733E-03   -0.64491E-03 50784   0.165E-01    0.173E-01
DAV:   4    -0.387936515737E+03    0.15656E-03   -0.48450E-04 51392   0.494E-02    0.118E-01
DAV:   5    -0.387936383825E+03    0.13191E-03   -0.17320E-04 45848   0.549E-02    0.392E-02
DAV:   6    -0.387936389799E+03   -0.59737E-05   -0.10703E-04 45144   0.227E-02    0.128E-02
DAV:   7    -0.387936389605E+03    0.19398E-06   -0.10593E-05 21664   0.881E-03
  69 F= -.38793639E+03 E0= -.38793639E+03  d E =0.360302E-02  mag=    60.0000
       N       E                     dE             d eps       ncg     rms          rms(c)
DAV:   1    -0.387913034736E+03    0.23355E-01   -0.24727E+00 41472   0.489E+00    0.609E-01
DAV:   2    -0.387930233482E+03   -0.17199E-01   -0.17003E-01 38696   0.891E-01    0.275E-01
DAV:   3    -0.387930598238E+03   -0.36476E-03   -0.39684E-03 48480   0.132E-01    0.138E-01
DAV:   4    -0.387930498809E+03    0.99428E-04   -0.32074E-04 53968   0.422E-02    0.936E-02
DAV:   5    -0.387930412340E+03    0.86469E-04   -0.96792E-05 44184   0.504E-02    0.295E-02
DAV:   6    -0.387930415822E+03   -0.34820E-05   -0.84042E-05 45512   0.236E-02
  70 F= -.38793042E+03 E0= -.38793042E+03  d E =0.597378E-02  mag=    60.0000
       N       E                     dE             d eps       ncg     rms          rms(c)
DAV:   1    -0.387895455904E+03    0.34956E-01   -0.40082E+00 42320   0.638E+00    0.764E-01
DAV:   2    -0.387923137427E+03   -0.27682E-01   -0.26656E-01 38440   0.114E+00    0.342E-01
DAV:   3    -0.387923808599E+03   -0.67117E-03   -0.64010E-03 46384   0.174E-01    0.161E-01
DAV:   4    -0.387923699281E+03    0.10932E-03   -0.51197E-04 55440   0.501E-02    0.114E-01
DAV:   5    -0.387923568353E+03    0.13093E-03   -0.12579E-04 45040   0.626E-02    0.414E-02
DAV:   6    -0.387923567983E+03    0.37014E-06   -0.12499E-04 46840   0.336E-02    0.136E-02
DAV:   7    -0.387923569092E+03   -0.11086E-05   -0.38541E-05 38872   0.158E-02
  71 F= -.38792357E+03 E0= -.38792357E+03  d E =0.684673E-02  mag=    60.0000
       N       E                     dE             d eps       ncg     rms          rms(c)
DAV:   1    -0.387599584953E+03    0.32398E+00   -0.57994E+01 42016   0.218E+01    0.235E+00
DAV:   2    -0.387902947864E+03   -0.30336E+00   -0.29663E+00 38280   0.384E+00    0.108E+00
DAV:   3    -0.387907910461E+03   -0.49626E-02   -0.62161E-02 45208   0.553E-01    0.519E-01
DAV:   4    -0.387906548004E+03    0.13625E-02   -0.53267E-03 55984   0.158E-01    0.367E-01
DAV:   5    -0.387905095820E+03    0.14522E-02   -0.14501E-03 48056   0.190E-01    0.140E-01
DAV:   6    -0.387905097339E+03   -0.15195E-05   -0.14364E-03 48424   0.105E-01    0.399E-02
DAV:   7    -0.387905110153E+03   -0.12814E-04   -0.28971E-04 45800   0.423E-02    0.300E-02
DAV:   8    -0.387905104088E+03    0.60652E-05   -0.23535E-05 31488   0.141E-02
  72 F= -.38790510E+03 E0= -.38790510E+03  d E =0.184650E-01  mag=    60.0000
       N       E                     dE             d eps       ncg     rms          rms(c)
DAV:   1    -0.386857052518E+03    0.10481E+01   -0.17579E+02 42208   0.395E+01    0.445E+00
DAV:   2    -0.387890976238E+03   -0.10339E+01   -0.10028E+01 39240   0.695E+00    0.215E+00
DAV:   3    -0.387905939333E+03   -0.14963E-01   -0.19462E-01 45072   0.102E+00    0.973E-01
DAV:   4    -0.387901442114E+03    0.44972E-02   -0.20908E-02 52120   0.329E-01    0.671E-01
DAV:   5    -0.387896730999E+03    0.47111E-02   -0.40018E-03 49768   0.334E-01    0.279E-01
DAV:   6    -0.387896291549E+03    0.43945E-03   -0.46242E-03 48864   0.228E-01    0.789E-02
DAV:   7    -0.387896398975E+03   -0.10743E-03   -0.17455E-03 45000   0.973E-02    0.706E-02
DAV:   8    -0.387896372523E+03    0.26453E-04   -0.12820E-04 49440   0.264E-02    0.418E-02
DAV:   9    -0.387896336137E+03    0.36385E-04   -0.19547E-05 33560   0.379E-02    0.223E-02
DAV:  10    -0.387896314908E+03    0.21229E-04   -0.33134E-05 42096   0.448E-02    0.928E-03
DAV:  11    -0.387896313037E+03    0.18712E-05   -0.45291E-05 40256   0.242E-02
  73 F= -.38789631E+03 E0= -.38789631E+03  d E =0.879105E-02  mag=    60.0000
       N       E                     dE             d eps       ncg     rms          rms(c)
DAV:   1    -0.386713720609E+03    0.11826E+01   -0.19732E+02 42144   0.420E+01    0.481E+00
DAV:   2    -0.387903897814E+03   -0.11902E+01   -0.11564E+01 38528   0.746E+00    0.235E+00
DAV:   3    -0.387925056258E+03   -0.21158E-01   -0.25528E-01 45848   0.111E+00    0.106E+00
DAV:   4    -0.387919864155E+03    0.51921E-02   -0.23489E-02 51992   0.326E-01    0.727E-01
DAV:   5    -0.387914998404E+03    0.48658E-02   -0.51566E-03 47560   0.310E-01    0.293E-01
DAV:   6    -0.387914798431E+03    0.19997E-03   -0.44687E-03 47912   0.175E-01    0.796E-02
DAV:   7    -0.387914845788E+03   -0.47357E-04   -0.80053E-04 45680   0.673E-02    0.528E-02
DAV:   8    -0.387914836139E+03    0.96488E-05   -0.86487E-05 45088   0.246E-02
  74 F= -.38791484E+03 E0= -.38791484E+03  d E =-.185231E-01  mag=    60.0000
       N       E                     dE             d eps       ncg     rms          rms(c)
DAV:   1    -0.387260808859E+03    0.65404E+00   -0.85697E+01 42432   0.290E+01    0.373E+00
DAV:   2    -0.387871318562E+03   -0.61051E+00   -0.58118E+00 39904   0.512E+00    0.192E+00
DAV:   3    -0.387885740084E+03   -0.14422E-01   -0.16012E-01 47424   0.870E-01    0.854E-01
DAV:   4    -0.387882951335E+03    0.27887E-02   -0.14231E-02 53240   0.276E-01    0.573E-01
DAV:   5    -0.387878945148E+03    0.40062E-02   -0.30354E-03 49760   0.323E-01    0.239E-01
DAV:   6    -0.387878211609E+03    0.73354E-03   -0.36099E-03 48536   0.257E-01    0.707E-02
DAV:   7    -0.387878346359E+03   -0.13475E-03   -0.24122E-03 44920   0.112E-01    0.741E-02
DAV:   8    -0.387878316392E+03    0.29967E-04   -0.16724E-04 50600   0.269E-02    0.449E-02
DAV:   9    -0.387878260870E+03    0.55522E-04   -0.24460E-05 37344   0.411E-02    0.270E-02
DAV:  10    -0.387878217999E+03    0.42871E-04   -0.49016E-05 43840   0.634E-02    0.120E-02
DAV:  11    -0.387878215064E+03    0.29343E-05   -0.67572E-05 42784   0.309E-02
  75 F= -.38787822E+03 E0= -.38787822E+03  d E =0.366211E-01  mag=    60.0000
       N       E                     dE             d eps       ncg     rms          rms(c)
DAV:   1    -0.387312524838E+03    0.56569E+00   -0.61313E+01 42040   0.264E+01    0.381E+00
DAV:   2    -0.387897595572E+03   -0.58507E+00   -0.54019E+00 39320   0.470E+00    0.200E+00
DAV:   3    -0.387915063451E+03   -0.17468E-01   -0.12976E-01 45912   0.795E-01    0.778E-01
DAV:   4    -0.387913178621E+03    0.18848E-02   -0.94989E-03 55480   0.214E-01    0.544E-01
DAV:   5    -0.387910536133E+03    0.26425E-02   -0.25172E-03 50248   0.269E-01    0.219E-01
DAV:   6    -0.387910219361E+03    0.31677E-03   -0.23083E-03 48768   0.201E-01    0.616E-02
DAV:   7    -0.387910292683E+03   -0.73322E-04   -0.14725E-03 44768   0.938E-02    0.621E-02
DAV:   8    -0.387910274049E+03    0.18633E-04   -0.10391E-04 49768   0.233E-02    0.371E-02
DAV:   9    -0.387910247047E+03    0.27002E-04   -0.18310E-05 33568   0.260E-02    0.244E-02
DAV:  10    -0.387910224041E+03    0.23007E-04   -0.34873E-05 41080   0.478E-02    0.112E-02
DAV:  11    -0.387910222563E+03    0.14772E-05   -0.43559E-05 41592   0.240E-02
  76 F= -.38791022E+03 E0= -.38791022E+03  d E =-.320075E-01  mag=    60.0000
       N       E                     dE             d eps       ncg     rms          rms(c)
DAV:   1    -0.387828544445E+03    0.81680E-01   -0.98021E+00 42144   0.100E+01    0.133E+00
DAV:   2    -0.387906193012E+03   -0.77649E-01   -0.73318E-01 39432   0.177E+00    0.631E-01
DAV:   3    -0.387907839947E+03   -0.16469E-02   -0.15052E-02 46336   0.272E-01    0.295E-01
DAV:   4    -0.387907451162E+03    0.38879E-03   -0.12754E-03 54400   0.831E-02    0.201E-01
DAV:   5    -0.387907025902E+03    0.42526E-03   -0.51416E-04 48336   0.118E-01    0.576E-02
DAV:   6    -0.387907038050E+03   -0.12149E-04   -0.40764E-04 46456   0.550E-02    0.268E-02
DAV:   7    -0.387907039259E+03   -0.12087E-05   -0.86678E-05 43448   0.211E-02
  77 F= -.38790704E+03 E0= -.38790704E+03  d E =0.318330E-02  mag=    60.0000
       N       E                     dE             d eps       ncg     rms          rms(c)
DAV:   1    -0.387865741196E+03    0.41297E-01   -0.75948E+00 42016   0.803E+00    0.899E-01
DAV:   2    -0.387907564088E+03   -0.41823E-01   -0.40678E-01 38992   0.140E+00    0.413E-01
DAV:   3    -0.387908248654E+03   -0.68457E-03   -0.92520E-03 46840   0.220E-01    0.200E-01
DAV:   4    -0.387908011382E+03    0.23727E-03   -0.86008E-04 56096   0.744E-02    0.139E-01
DAV:   5    -0.387907706582E+03    0.30480E-03   -0.21153E-04 47960   0.108E-01    0.499E-02
DAV:   6    -0.387907681239E+03    0.25343E-04   -0.31760E-04 48840   0.675E-02    0.185E-02
DAV:   7    -0.387907687374E+03   -0.61354E-05   -0.16667E-04 44096   0.303E-02    0.212E-02
DAV:   8    -0.387907683855E+03    0.35191E-05   -0.88252E-06 23568   0.830E-03
  78 F= -.38790768E+03 E0= -.38790768E+03  d E =-.644596E-03  mag=    60.0000
       N       E                     dE             d eps       ncg     rms          rms(c)
DAV:   1    -0.387853417871E+03    0.54270E-01   -0.69914E+00 41600   0.852E+00    0.111E+00
DAV:   2    -0.387908577471E+03   -0.55160E-01   -0.52194E-01 38560   0.152E+00    0.488E-01
DAV:   3    -0.387910245076E+03   -0.16676E-02   -0.13379E-02 46320   0.241E-01    0.216E-01
DAV:   4    -0.387910088332E+03    0.15674E-03   -0.87394E-04 56328   0.589E-02    0.161E-01
DAV:   5    -0.387909850347E+03    0.23799E-03   -0.18606E-04 44376   0.716E-02    0.769E-02
DAV:   6    -0.387909819673E+03    0.30673E-04   -0.21402E-04 49056   0.560E-02    0.168E-02
DAV:   7    -0.387909826146E+03   -0.64722E-05   -0.11297E-04 44256   0.268E-02    0.153E-02
DAV:   8    -0.387909825190E+03    0.95543E-06   -0.61458E-06 21744   0.643E-03
  79 F= -.38790983E+03 E0= -.38790983E+03  d E =-.214134E-02  mag=    60.0000
       N       E                     dE             d eps       ncg     rms          rms(c)
DAV:   1    -0.387643780918E+03    0.26605E+00   -0.43337E+01 41600   0.190E+01    0.227E+00
DAV:   2    -0.387902930405E+03   -0.25915E+00   -0.24824E+00 38776   0.334E+00    0.104E+00
DAV:   3    -0.387907737148E+03   -0.48067E-02   -0.48722E-02 46312   0.495E-01    0.468E-01
DAV:   4    -0.387906755267E+03    0.98188E-03   -0.42235E-03 53808   0.147E-01    0.348E-01
DAV:   5    -0.387905414076E+03    0.13412E-02   -0.98650E-04 48672   0.184E-01    0.154E-01
DAV:   6    -0.387905247513E+03    0.16656E-03   -0.13141E-03 48592   0.136E-01    0.365E-02
DAV:   7    -0.387905285190E+03   -0.37677E-04   -0.64195E-04 45152   0.604E-02    0.348E-02
DAV:   8    -0.387905276246E+03    0.89445E-05   -0.33881E-05 36968   0.161E-02
  80 F= -.38790528E+03 E0= -.38790528E+03  d E =0.454894E-02  mag=    60.0000
       N       E                     dE             d eps       ncg     rms          rms(c)
DAV:   1    -0.386586588293E+03    0.13187E+01   -0.18678E+02 41808   0.408E+01    0.525E+00
DAV:   2    -0.387866051041E+03   -0.12795E+01   -0.12176E+01 38328   0.723E+00    0.264E+00
DAV:   3    -0.387898523333E+03   -0.32472E-01   -0.29848E-01 45624   0.112E+00    0.110E+00
DAV:   4    -0.387894546251E+03    0.39771E-02   -0.23734E-02 53008   0.301E-01    0.805E-01
DAV:   5    -0.387890244103E+03    0.43021E-02   -0.28107E-03 47056   0.226E-01    0.462E-01
DAV:   6    -0.387888858397E+03    0.13857E-02   -0.43833E-03 48872   0.234E-01    0.912E-02
DAV:   7    -0.387889030279E+03   -0.17188E-03   -0.18443E-03 44008   0.903E-02    0.625E-02
DAV:   8    -0.387889027517E+03    0.27625E-05   -0.10688E-04 48280   0.241E-02    0.396E-02
DAV:   9    -0.387889024756E+03    0.27603E-05   -0.18894E-05 31496   0.205E-02
  81 F= -.38788902E+03 E0= -.38788902E+03  d E =0.162515E-01  mag=    60.0000
       N       E                     dE             d eps       ncg     rms          rms(c)
DAV:   1    -0.383023778163E+03    0.48652E+01   -0.23824E+02 42712   0.683E+01    0.115E+01
DAV:   2    -0.387383870761E+03   -0.43601E+01   -0.39952E+01 39848   0.127E+01    0.741E+00
DAV:   3    -0.387557274598E+03   -0.17340E+00   -0.12136E+00 45576   0.247E+00    0.248E+00
DAV:   4    -0.387547244845E+03    0.10030E-01   -0.76382E-02 56224   0.705E-01    0.171E+00
DAV:   5    -0.387530482149E+03    0.16763E-01   -0.12117E-02 50488   0.706E-01    0.886E-01
DAV:   6    -0.387522710459E+03    0.77717E-02   -0.15470E-02 48648   0.834E-01    0.174E-01
DAV:   7    -0.387523795558E+03   -0.10851E-02   -0.20128E-02 44696   0.338E-01    0.194E-01
DAV:   8    -0.387523628066E+03    0.16749E-03   -0.16067E-03 55984   0.762E-02    0.130E-01
DAV:   9    -0.387523302986E+03    0.32508E-03   -0.21468E-04 52384   0.778E-02    0.866E-02
DAV:  10    -0.387522953573E+03    0.34941E-03   -0.29164E-04 49864   0.155E-01    0.364E-02
DAV:  11    -0.387522844855E+03    0.10872E-03   -0.29867E-04 47760   0.109E-01    0.404E-02
DAV:  12    -0.387522859762E+03   -0.14907E-04   -0.45560E-04 43560   0.520E-02    0.206E-02
DAV:  13    -0.387522858103E+03    0.16593E-05   -0.40651E-05 40744   0.179E-02
  82 F= -.38752286E+03 E0= -.38752286E+03  d E =0.366167E+00  mag=    60.0000
       N       E                     dE             d eps       ncg     rms          rms(c)
DAV:   1    -0.386784745304E+03    0.73811E+00   -0.55222E+01 43928   0.332E+01    0.553E+00
DAV:   2    -0.387801150680E+03   -0.10164E+01   -0.92360E+00 39176   0.596E+00    0.293E+00
DAV:   3    -0.387846251113E+03   -0.45100E-01   -0.32766E-01 46552   0.124E+00    0.110E+00
DAV:   4    -0.387843601376E+03    0.26497E-02   -0.22547E-02 57192   0.376E-01    0.740E-01
DAV:   5    -0.387838256722E+03    0.53447E-02   -0.29297E-03 52608   0.450E-01    0.347E-01
DAV:   6    -0.387836033033E+03    0.22237E-02   -0.43860E-03 48744   0.474E-01    0.834E-02
DAV:   7    -0.387836295515E+03   -0.26248E-03   -0.64505E-03 44640   0.201E-01    0.101E-01
DAV:   8    -0.387836233303E+03    0.62211E-04   -0.63773E-04 53856   0.506E-02    0.710E-02
DAV:   9    -0.387836114559E+03    0.11874E-03   -0.50823E-05 44680   0.499E-02    0.478E-02
DAV:  10    -0.387835972981E+03    0.14158E-03   -0.11244E-04 49904   0.106E-01    0.196E-02
DAV:  11    -0.387835933479E+03    0.39502E-04   -0.11785E-04 45456   0.772E-02    0.240E-02
DAV:  12    -0.387835943981E+03   -0.10502E-04   -0.19423E-04 43240   0.322E-02    0.124E-02
DAV:  13    -0.387835942870E+03    0.11111E-05   -0.71367E-06 24544   0.137E-02
  83 F= -.38783594E+03 E0= -.38783594E+03  d E =-.313085E+00  mag=    60.0000
       N       E                     dE             d eps       ncg     rms          rms(c)
DAV:   1    -0.387443137885E+03    0.39281E+00   -0.21829E+01 42600   0.213E+01    0.362E+00
DAV:   2    -0.387885911403E+03   -0.44277E+00   -0.40863E+00 39968   0.388E+00    0.172E+00
DAV:   3    -0.387903555730E+03   -0.17644E-01   -0.11857E-01 46152   0.756E-01    0.717E-01
DAV:   4    -0.387902550868E+03    0.10049E-02   -0.82427E-03 56192   0.209E-01    0.523E-01
DAV:   5    -0.387900416475E+03    0.21344E-02   -0.12630E-03 51696   0.266E-01    0.271E-01
DAV:   6    -0.387899596357E+03    0.82012E-03   -0.16720E-03 48792   0.284E-01    0.587E-02
DAV:   7    -0.387899676713E+03   -0.80357E-04   -0.22769E-03 44872   0.125E-01    0.601E-02
DAV:   8    -0.387899664081E+03    0.12633E-04   -0.26678E-04 48752   0.326E-02    0.405E-02
DAV:   9    -0.387899628699E+03    0.35381E-04   -0.24001E-05 36640   0.272E-02    0.270E-02
DAV:  10    -0.387899587301E+03    0.41398E-04   -0.35953E-05 42432   0.582E-02    0.121E-02
DAV:  11    -0.387899576124E+03    0.11178E-04   -0.37593E-05 41912   0.408E-02    0.141E-02
DAV:  12    -0.387899579909E+03   -0.37854E-05   -0.64944E-05 40936   0.182E-02
  84 F= -.38789958E+03 E0= -.38789958E+03  d E =-.636370E-01  mag=    60.0000
       N       E                     dE             d eps       ncg     rms          rms(c)
DAV:   1    -0.387883632772E+03    0.15943E-01   -0.12717E+00 42136   0.459E+00    0.687E-01
DAV:   2    -0.387901150142E+03   -0.17517E-01   -0.16135E-01 39176   0.826E-01    0.309E-01
DAV:   3    -0.387901866908E+03   -0.71677E-03   -0.51715E-03 46504   0.150E-01    0.141E-01
DAV:   4    -0.387901835851E+03    0.31057E-04   -0.35285E-04 56416   0.354E-02    0.103E-01
DAV:   5    -0.387901765729E+03    0.70122E-04   -0.81455E-05 41344   0.438E-02    0.451E-02
DAV:   6    -0.387901759980E+03    0.57486E-05   -0.65034E-05 45080   0.280E-02
  85 F= -.38790176E+03 E0= -.38790176E+03  d E =-.218007E-02  mag=    60.0000
       N       E                     dE             d eps       ncg     rms          rms(c)
DAV:   1    -0.387878898078E+03    0.22868E-01   -0.21047E+00 42176   0.538E+00    0.736E-01
DAV:   2    -0.387900527514E+03   -0.21629E-01   -0.20309E-01 39176   0.968E-01    0.334E-01
DAV:   3    -0.387901262546E+03   -0.73503E-03   -0.60150E-03 47216   0.171E-01    0.156E-01
DAV:   4    -0.387901200733E+03    0.61813E-04   -0.46526E-04 56232   0.485E-02    0.112E-01
DAV:   5    -0.387901081305E+03    0.11943E-03   -0.92804E-05 43344   0.663E-02    0.461E-02
DAV:   6    -0.387901065636E+03    0.15669E-04   -0.11172E-04 47496   0.484E-02    0.129E-02
DAV:   7    -0.387901069562E+03   -0.39263E-05   -0.82774E-05 43080   0.226E-02
  86 F= -.38790107E+03 E0= -.38790107E+03  d E =0.690418E-03  mag=    60.0000
       N       E                     dE             d eps       ncg     rms          rms(c)
DAV:   1    -0.387895663481E+03    0.54022E-02   -0.53836E-01 42016   0.254E+00    0.340E-01
DAV:   2    -0.387900512225E+03   -0.48487E-02   -0.45841E-02 39088   0.455E-01    0.150E-01
DAV:   3    -0.387900669256E+03   -0.15703E-03   -0.12833E-03 47520   0.763E-02    0.694E-02
DAV:   4    -0.387900655422E+03    0.13835E-04   -0.91196E-05 46560   0.208E-02    0.515E-02
DAV:   5    -0.387900631861E+03    0.23561E-04   -0.15920E-05 30248   0.269E-02    0.229E-02
DAV:   6    -0.387900628709E+03    0.31518E-05   -0.23736E-05 36784   0.205E-02
  87 F= -.38790063E+03 E0= -.38790063E+03  d E =0.440853E-03  mag=    60.0000
