       N       E                     dE             d eps       ncg     rms          ort
DAV:   1     0.846255989199E+04    0.84626E+04   -0.38378E+05  7296   0.188E+03
DAV:   2     0.562340072764E+03   -0.79002E+04   -0.73782E+04  7296   0.552E+02
DAV:   3    -0.334660302956E+03   -0.89700E+03   -0.86256E+03  7296   0.209E+02
DAV:   4    -0.365537305177E+03   -0.30877E+02   -0.30564E+02  7296   0.409E+01
DAV:   5    -0.366269690055E+03   -0.73238E+00   -0.72831E+00  7296   0.619E+00
SDA:   6    -0.157186234299E+01    0.36470E+03   -0.72831E+00  7296   0.253E+04 0.000E+00
CGA:   7    -0.139256392895E+03   -0.13768E+03   -0.11595E+03  7296   0.130E+04 0.518E+03
CGA:   8    -0.220217528658E+03   -0.80961E+02   -0.72935E+02  7296   0.372E+03 0.265E+03
CGA:   9    -0.233678041491E+03   -0.13461E+02   -0.14499E+02  7296   0.599E+03-0.301E+03
CGA:  10    -0.229299159348E+03    0.43789E+01   -0.21327E+02  7296   0.128E+04-0.444E+03
CGA:  11    -0.229048197674E+03    0.25096E+00   -0.42075E+02  7296   0.985E+03-0.615E+03
CGA:  12    -0.241441678846E+03   -0.12393E+02   -0.69153E+01  7296   0.869E+03 0.556E+03
CGA:  13    -0.228618300630E+03    0.12823E+02   -0.22977E+02  7296   0.275E+04-0.134E+04
CGA:  14    -0.211154869415E+03    0.17463E+02   -0.13235E+03  7296   0.144E+04-0.612E+03
CGA:  15    -0.231039467381E+03   -0.19885E+02   -0.15441E+02  7296   0.879E+03 0.363E+03
CGA:  16    -0.237396436731E+03   -0.63570E+01   -0.15420E+02  7296   0.391E+04-0.754E+03
CGA:  17    -0.213448819465E+03    0.23948E+02   -0.20152E+03  7296   0.336E+04-0.109E+04
CGA:  18    -0.219671668926E+03   -0.62228E+01   -0.78107E+02  7296   0.417E+04-0.226E+03
CGA:  19    -0.191793246228E+03    0.27878E+02   -0.13187E+03  7296   0.453E+04-0.203E+04
CGA:  20    -0.181123603921E+03    0.10670E+02   -0.67205E+02  7296   0.471E+04-0.180E+04
CGA:  21    -0.188858068436E+03   -0.77345E+01   -0.10585E+03  7296   0.488E+04-0.158E+03
CGA:  22    -0.174535751368E+03    0.14322E+02   -0.15982E+03  7296   0.516E+04-0.102E+04
CGA:  23    -0.132489533873E+03    0.42046E+02   -0.12207E+03  7296   0.312E+04-0.183E+04
CGA:  24    -0.196440829016E+03   -0.63951E+02   -0.59012E+02  7296   0.465E+04-0.368E+04
CGA:  25    -0.221399179244E+03   -0.24958E+02   -0.12988E+03  7296   0.239E+04-0.294E+04
CGA:  26    -0.253651434775E+03   -0.32252E+02   -0.53282E+02  7296   0.105E+04-0.171E+04
CGA:  27    -0.262870350054E+03   -0.92189E+01   -0.17364E+02  7296   0.785E+03-0.874E+03
CGA:  28    -0.239290263648E+03    0.23580E+02   -0.16646E+02  7296   0.331E+04-0.140E+04
CGA:  29    -0.231060978487E+03    0.82293E+01   -0.10295E+03  7296   0.163E+04-0.101E+04
CGA:  30    -0.254116312366E+03   -0.23055E+02   -0.22983E+02  7296   0.106E+04 0.596E+03
CGA:  31    -0.203995998750E+03    0.50120E+02   -0.29571E+02  7296   0.333E+04-0.196E+04
CGA:  32    -0.221945544571E+03   -0.17950E+02   -0.82256E+02  7296   0.279E+04-0.193E+04
CGA:  33    -0.241279843883E+03   -0.19334E+02   -0.68795E+02  7296   0.190E+04-0.235E+04
CGA:  34    -0.258428483951E+03   -0.17149E+02   -0.32638E+02  7296   0.173E+04-0.179E+04
CGA:  35    -0.258186980825E+03    0.24150E+00   -0.32476E+02  7296   0.147E+04-0.142E+04
CGA:  36    -0.258825849402E+03   -0.63887E+00   -0.26510E+02  7296   0.194E+04-0.193E+04
CGA:  37    -0.255559913883E+03    0.32659E+01   -0.37388E+02  7296   0.173E+04-0.150E+04
CGA:  38    -0.258729818997E+03   -0.31699E+01   -0.31011E+02  7296   0.192E+04-0.205E+04
CGA:  39    -0.260930515767E+03   -0.22007E+01   -0.34105E+02  7296   0.132E+04-0.141E+04
CGA:  40    -0.269773420587E+03   -0.88429E+01   -0.20160E+02  7296   0.750E+03-0.115E+04
CGA:  41    -0.273886859971E+03   -0.41134E+01   -0.10436E+02  7296   0.282E+03-0.440E+03
CGA:  42    -0.276431470872E+03   -0.25446E+01   -0.27257E+01  7296   0.128E+02-0.252E+02
CGA:  43    -0.276619609771E+03   -0.18814E+00   -0.15846E+00  7296   0.964E+01 0.175E+01
CGA:  44    -0.277487147804E+03   -0.86754E+00   -0.81196E+00  7296   0.551E+02 0.184E+01
CGA:  45    -0.279123493216E+03   -0.16363E+01   -0.10644E+01  7296   0.191E+02-0.146E+02
CGA:  46    -0.279288145107E+03   -0.16465E+00   -0.15405E+00  7296   0.282E+02 0.268E+00
CGA:  47    -0.279587576815E+03   -0.29943E+00   -0.33697E+00  7296   0.237E+02-0.353E+01
CGA:  48    -0.279728662989E+03   -0.14109E+00   -0.15391E+00  7296   0.133E+02-0.189E+01
CGA:  49    -0.279837080016E+03   -0.10842E+00   -0.14179E+00  7296   0.189E+02-0.247E+01
CGA:  50    -0.280001074189E+03   -0.16399E+00   -0.13791E+00  7296   0.169E+02 0.241E+01
CGA:  51    -0.280127162553E+03   -0.12609E+00   -0.17984E+00  7296   0.173E+02-0.658E+01
CGA:  52    -0.280178073171E+03   -0.50911E-01   -0.75360E-01  7296   0.217E+02-0.345E+01
CGA:  53    -0.280256371850E+03   -0.78299E-01   -0.13368E+00  7296   0.206E+02-0.681E+01
CGA:  54    -0.280319580610E+03   -0.63209E-01   -0.10303E+00  7296   0.173E+02-0.460E+01
CGA:  55    -0.280394516824E+03   -0.74936E-01   -0.81574E-01  7296   0.112E+02-0.108E+01
CGA:  56    -0.280464716298E+03   -0.70199E-01   -0.90431E-01  7296   0.103E+02-0.192E+01
CGA:  57    -0.280537507595E+03   -0.72791E-01   -0.73812E-01  7296   0.867E+01-0.838E-01
CGA:  58    -0.280614848691E+03   -0.77341E-01   -0.94732E-01  7296   0.943E+01-0.118E+01
CGA:  59    -0.280738309548E+03   -0.12346E+00   -0.12373E+00  7296   0.116E+02 0.232E+00
CGA:  60    -0.280842860342E+03   -0.10455E+00   -0.78281E-01  7296   0.888E+01 0.334E+01
CGA:  61    -0.280941421404E+03   -0.98561E-01   -0.98948E-01  7296   0.888E+01-0.175E+00
CGA:  62    -0.281012410993E+03   -0.70990E-01   -0.69672E-01  7296   0.952E+01 0.191E+00
CGA:  63    -0.281079609760E+03   -0.67199E-01   -0.73325E-01  7296   0.901E+01-0.780E+00
CGA:  64    -0.281146142358E+03   -0.66533E-01   -0.87396E-01  7296   0.101E+02-0.107E+01
CGA:  65    -0.281228775239E+03   -0.82633E-01   -0.78962E-01  7296   0.695E+01 0.470E+00
CGA:  66    -0.281297359979E+03   -0.68585E-01   -0.72962E-01  7296   0.523E+01-0.230E+00
CGA:  67    -0.281371283889E+03   -0.73924E-01   -0.77222E-01  7296   0.489E+01 0.608E-01
CGA:  68    -0.281435935747E+03   -0.64652E-01   -0.65307E-01  7296   0.370E+01-0.104E-01
CGA:  69    -0.281504512390E+03   -0.68577E-01   -0.70338E-01  7296   0.386E+01 0.244E+00
CGA:  70    -0.281598288814E+03   -0.93776E-01   -0.92941E-01  7296   0.246E+01 0.423E+00
CGA:  71    -0.281681062834E+03   -0.82774E-01   -0.78267E-01  7296   0.119E+01 0.438E+00
SDA:  72    -0.281739234046E+03   -0.58171E-01   -0.54385E-01  7296   0.760E+00 0.199E+00
CGA:  73    -0.281794201817E+03   -0.54968E-01   -0.48990E-01  7296   0.442E+00 0.150E+00
CGA:  74    -0.281900729397E+03   -0.10653E+00   -0.30086E-01  7296   0.154E+00 0.169E+00
CGA:  75    -0.281936756160E+03   -0.36027E-01   -0.33914E-01  7296   0.284E+00 0.203E-01
CGA:  76    -0.281989627468E+03   -0.52871E-01   -0.49873E-01  7296   0.912E-01 0.316E-01
CGA:  77    -0.282005940458E+03   -0.16313E-01   -0.15866E-01  7296   0.151E+00 0.472E-02
CGA:  78    -0.282036782334E+03   -0.30842E-01   -0.32852E-01  7296   0.101E+00-0.153E-01
CGA:  79    -0.282061413631E+03   -0.24631E-01   -0.15461E-01  7296   0.353E+00 0.514E-01
CGA:  80    -0.282090063725E+03   -0.28650E-01   -0.28643E-01  7296   0.262E+00 0.546E-03
CGA:  81    -0.282129296727E+03   -0.39233E-01    0.93254E+00  7296   0.243E+00 0.264E+00
CGA:  82    -0.282156873424E+03   -0.27577E-01   -0.27641E-01  7296   0.314E+00-0.182E-02
CGA:  83    -0.282209002743E+03   -0.52129E-01   -0.72339E-01  7296   0.476E+00-0.827E-01
CGA:  84    -0.282230384361E+03   -0.21382E-01   -0.21647E-01  7296   0.755E-01 0.231E-02
CGA:  85    -0.282234043632E+03   -0.36593E-02   -0.36624E-02  7296   0.187E-01-0.213E-04
CGA:  86    -0.282235704753E+03   -0.16611E-02   -0.16614E-02  7296   0.115E-01-0.177E-04
CGA:  87    -0.282236766314E+03   -0.10616E-02   -0.10619E-02  7296   0.103E-01-0.254E-04
CGA:  88    -0.282237750389E+03   -0.98407E-03   -0.98418E-03  7296   0.594E-02-0.839E-05
CGA:  89    -0.282238337958E+03   -0.58757E-03   -0.58714E-03  7296   0.698E-02 0.158E-04
CGA:  90    -0.282239218973E+03   -0.88102E-03   -0.88060E-03  7296   0.652E-02 0.742E-05
CGA:  91    -0.282239818879E+03   -0.59991E-03   -0.60102E-03  7296   0.524E-02-0.958E-04
CGA:  92    -0.282240267447E+03   -0.44857E-03   -0.44861E-03  7296   0.356E-02-0.159E-04
CGA:  93    -0.282240587455E+03   -0.32001E-03   -0.31992E-03  7296   0.260E-02 0.125E-04
CGA:  94    -0.282240793988E+03   -0.20653E-03   -0.20646E-03  7296   0.152E-02-0.732E-05
CGA:  95    -0.282240938306E+03   -0.14432E-03   -0.14442E-03  7296   0.125E-02-0.108E-04
CGA:  96    -0.282241061142E+03   -0.12284E-03   -0.12294E-03  7296   0.125E-02-0.891E-05
CGA:  97    -0.282241197065E+03   -0.13592E-03   -0.13616E-03  7296   0.113E-02-0.107E-04
CGA:  98    -0.282241294218E+03   -0.97153E-04   -0.97145E-04  7296   0.804E-03-0.588E-05
CGA:  99    -0.282241360268E+03   -0.66051E-04   -0.66059E-04  7296   0.424E-03 0.475E-06
CGA: 100    -0.282241396285E+03   -0.36017E-04   -0.36021E-04  7296   0.326E-03 0.110E-05
CGA: 101    -0.282241428389E+03   -0.32104E-04   -0.32105E-04  7296   0.218E-03 0.655E-08
CGA: 102    -0.282241445728E+03   -0.17339E-04   -0.17339E-04  7296   0.125E-03-0.215E-07
CGA: 103    -0.282241457725E+03   -0.11997E-04   -0.11991E-04  7296   0.102E-03 0.653E-06
CGA: 104    -0.282241468455E+03   -0.10729E-04   -0.10716E-04  7296   0.889E-04 0.761E-06
CGA: 105    -0.282241476475E+03   -0.80203E-05   -0.80201E-05  7296   0.570E-04 0.446E-06
   1 F= -.28224148E+03 E0= -.28223295E+03  d E =-.282241E+03  mag=    18.0000
       N       E                     dE             d eps       ncg     rms          ort
SDA:   1    -0.282258327015E+03   -0.16859E-01    0.00000E+00  7296   0.124E-01 0.000E+00
CGA:   2    -0.282259011773E+03   -0.68476E-03   -0.68311E-03  7296   0.259E-02 0.248E-05
CGA:   3    -0.282259535053E+03   -0.52328E-03   -0.52292E-03  7296   0.231E-02 0.319E-05
CGA:   4    -0.282259741873E+03   -0.20682E-03   -0.20683E-03  7296   0.465E-03 0.271E-05
CGA:   5    -0.282259810783E+03   -0.68911E-04   -0.68846E-04  7296   0.247E-03 0.120E-05
CGA:   6    -0.282259831094E+03   -0.20311E-04   -0.20301E-04  7296   0.671E-04-0.712E-06
CGA:   7    -0.282259839513E+03   -0.84186E-05   -0.84521E-05  7296   0.434E-04-0.106E-05
   2 F= -.28225984E+03 E0= -.28225131E+03  d E =-.183630E-01  mag=    18.0000
       N       E                     dE             d eps       ncg     rms          ort
SDA:   1    -0.278573227531E+03    0.36866E+01    0.00000E+00  7296   0.121E+02 0.000E+00
CGA:   2    -0.281809251996E+03   -0.32360E+01   -0.32256E+01  7296   0.104E+02 0.741E-01
CGA:   3    -0.282712302216E+03   -0.90305E+00   -0.89691E+00  7296   0.299E+01-0.921E-01
CGA:   4    -0.283121475955E+03   -0.40917E+00   -0.40867E+00  7296   0.110E+01 0.103E-01
CGA:   5    -0.283221359289E+03   -0.99883E-01   -0.99719E-01  7296   0.460E+00-0.386E-02
CGA:   6    -0.283271678346E+03   -0.50319E-01   -0.50314E-01  7296   0.140E+00 0.587E-03
CGA:   7    -0.283287474890E+03   -0.15797E-01   -0.15798E-01  7296   0.725E-01-0.883E-04
CGA:   8    -0.283296615411E+03   -0.91405E-02   -0.91386E-02  7296   0.277E-01 0.743E-04
CGA:   9    -0.283299867490E+03   -0.32521E-02   -0.32521E-02  7296   0.199E-01 0.720E-05
CGA:  10    -0.283302301010E+03   -0.24335E-02   -0.24332E-02  7296   0.890E-02 0.233E-04
CGA:  11    -0.283303268211E+03   -0.96720E-03   -0.96718E-03  7296   0.620E-02 0.177E-04
CGA:  12    -0.283304294052E+03   -0.10258E-02   -0.10252E-02  7296   0.263E-02 0.109E-04
CGA:  13    -0.283304618285E+03   -0.32423E-03   -0.32413E-03  7296   0.191E-02 0.710E-05
CGA:  14    -0.283304882859E+03   -0.26457E-03   -0.26443E-03  7296   0.817E-03 0.583E-05
CGA:  15    -0.283304966073E+03   -0.83214E-04   -0.83280E-04  7296   0.440E-03 0.585E-05
CGA:  16    -0.283305028375E+03   -0.62302E-04   -0.62099E-04  7296   0.231E-03 0.721E-05
CGA:  17    -0.283305052020E+03   -0.23645E-04   -0.23682E-04  7296   0.102E-03 0.294E-05
CGA:  18    -0.283305070797E+03   -0.18777E-04   -0.18685E-04  7296   0.792E-04 0.135E-05
CGA:  19    -0.283305078646E+03   -0.78490E-05   -0.78514E-05  7296   0.414E-04 0.117E-06
   3 F= -.28330508E+03 E0= -.28329695E+03  d E =-.104524E+01  mag=    18.0000
       N       E                     dE             d eps       ncg     rms          ort
SDA:   1    -0.261447603756E+03    0.21857E+02    0.00000E+00  7296   0.668E+02 0.000E+00
CGA:   2    -0.276464894161E+03   -0.15017E+02   -0.14851E+02  7296   0.586E+02 0.156E+01
CGA:   3    -0.281703903613E+03   -0.52390E+01   -0.50637E+01  7296   0.147E+02 0.178E+00
CGA:   4    -0.283805485601E+03   -0.21016E+01   -0.21009E+01  7296   0.716E+01 0.108E-01
CGA:   5    -0.284383880336E+03   -0.57839E+00   -0.57604E+00  7296   0.234E+01 0.120E-02
CGA:   6    -0.284671367702E+03   -0.28749E+00   -0.28750E+00  7296   0.857E+00-0.396E-03
CGA:   7    -0.284758822461E+03   -0.87455E-01   -0.87526E-01  7296   0.385E+00 0.202E-02
CGA:   8    -0.284808841970E+03   -0.50020E-01   -0.50009E-01  7296   0.194E+00 0.836E-03
CGA:   9    -0.284828085188E+03   -0.19243E-01   -0.19275E-01  7296   0.946E-01 0.591E-03
CGA:  10    -0.284842435002E+03   -0.14350E-01   -0.14353E-01  7296   0.563E-01-0.762E-04
CGA:  11    -0.284848056300E+03   -0.56213E-02   -0.56271E-02  7296   0.264E-01 0.993E-04
CGA:  12    -0.284853055999E+03   -0.49997E-02   -0.49961E-02  7296   0.163E-01 0.494E-04
CGA:  13    -0.284854771034E+03   -0.17150E-02   -0.17163E-02  7296   0.814E-02 0.360E-04
CGA:  14    -0.284855967595E+03   -0.11966E-02   -0.11963E-02  7296   0.483E-02 0.141E-04
CGA:  15    -0.284856449343E+03   -0.48175E-03   -0.48223E-03  7296   0.210E-02 0.157E-04
CGA:  16    -0.284856708821E+03   -0.25948E-03   -0.25946E-03  7296   0.117E-02 0.123E-04
CGA:  17    -0.284856840104E+03   -0.13128E-03   -0.13136E-03  7296   0.454E-03 0.660E-05
CGA:  18    -0.284856905836E+03   -0.65732E-04   -0.65677E-04  7296   0.296E-03 0.239E-05
CGA:  19    -0.284856938351E+03   -0.32515E-04   -0.32528E-04  7296   0.154E-03 0.974E-06
CGA:  20    -0.284856960743E+03   -0.22392E-04   -0.22355E-04  7296   0.929E-04 0.152E-05
CGA:  21    -0.284856972500E+03   -0.11757E-04   -0.11757E-04  7296   0.584E-04 0.400E-06
CGA:  22    -0.284856982385E+03   -0.98847E-05   -0.98841E-05  7296   0.372E-04-0.278E-08
   4 F= -.28485698E+03 E0= -.28484953E+03  d E =-.155190E+01  mag=    18.0000
       N       E                     dE             d eps       ncg     rms          ort
SDA:   1    -0.280703645192E+03    0.41533E+01    0.00000E+00  7296   0.126E+02 0.000E+00
CGA:   2    -0.283788595194E+03   -0.30850E+01   -0.30793E+01  7296   0.796E+01 0.491E-01
CGA:   3    -0.284725412700E+03   -0.93682E+00   -0.93497E+00  7296   0.386E+01-0.532E-01
CGA:   4    -0.285122264520E+03   -0.39685E+00   -0.39801E+00  7296   0.102E+01 0.987E-02
CGA:   5    -0.285244898565E+03   -0.12263E+00   -0.12258E+00  7296   0.475E+00-0.266E-02
CGA:   6    -0.285284832122E+03   -0.39934E-01   -0.40066E-01  7296   0.153E+00-0.181E-03
CGA:   7    -0.285304154095E+03   -0.19322E-01   -0.19322E-01  7296   0.665E-01-0.205E-03
CGA:   8    -0.285311299555E+03   -0.71455E-02   -0.71477E-02  7296   0.267E-01 0.568E-04
CGA:   9    -0.285315001254E+03   -0.37017E-02   -0.37016E-02  7296   0.179E-01 0.101E-04
CGA:  10    -0.285316603385E+03   -0.16021E-02   -0.16023E-02  7296   0.616E-02 0.696E-05
CGA:  11    -0.285317667916E+03   -0.10645E-02   -0.10639E-02  7296   0.509E-02 0.111E-04
CGA:  12    -0.285318198107E+03   -0.53019E-03   -0.53024E-03  7296   0.191E-02 0.400E-05
CGA:  13    -0.285318566565E+03   -0.36846E-03   -0.36804E-03  7296   0.135E-02 0.614E-05
CGA:  14    -0.285318698088E+03   -0.13152E-03   -0.13161E-03  7296   0.572E-03 0.288E-05
CGA:  15    -0.285318775510E+03   -0.77422E-04   -0.77388E-04  7296   0.401E-03 0.436E-05
CGA:  16    -0.285318815682E+03   -0.40171E-04   -0.40259E-04  7296   0.116E-03 0.314E-05
CGA:  17    -0.285318832650E+03   -0.16968E-04   -0.16926E-04  7296   0.900E-04 0.221E-05
CGA:  18    -0.285318842985E+03   -0.10335E-04   -0.10359E-04  7296   0.312E-04 0.163E-05
CGA:  19    -0.285318847119E+03   -0.41342E-05   -0.41322E-05  7296   0.272E-04 0.524E-06
   5 F= -.28531885E+03 E0= -.28531152E+03  d E =-.461865E+00  mag=    18.0000
       N       E                     dE             d eps       ncg     rms          ort
SDA:   1    -0.248554499586E+03    0.36764E+02    0.00000E+00  7296   0.126E+03 0.000E+00
CGA:   2    -0.269471880300E+03   -0.20917E+02   -0.20203E+02  7296   0.787E+02 0.135E+02
CGA:   3    -0.279119664345E+03   -0.96478E+01   -0.93925E+01  7296   0.388E+02-0.298E+01
CGA:   4    -0.283873932851E+03   -0.47543E+01   -0.47543E+01  7296   0.126E+02 0.324E-01
CGA:   5    -0.284999997802E+03   -0.11261E+01   -0.11156E+01  7296   0.521E+01 0.401E-02
CGA:   6    -0.285574390106E+03   -0.57439E+00   -0.57507E+00  7296   0.167E+01 0.167E-01
CGA:   7    -0.285754445805E+03   -0.18006E+00   -0.17986E+00  7296   0.748E+00-0.174E-02
CGA:   8    -0.285850367821E+03   -0.95922E-01   -0.95900E-01  7296   0.330E+00 0.364E-02
CGA:   9    -0.285882416481E+03   -0.32049E-01   -0.32133E-01  7296   0.185E+00 0.104E-02
CGA:  10    -0.285908122398E+03   -0.25706E-01   -0.25699E-01  7296   0.792E-01 0.329E-03
CGA:  11    -0.285916643825E+03   -0.85214E-02   -0.85301E-02  7296   0.464E-01 0.220E-03
CGA:  12    -0.285924410195E+03   -0.77664E-02   -0.77582E-02  7296   0.249E-01 0.148E-03
CGA:  13    -0.285927233015E+03   -0.28228E-02   -0.28242E-02  7296   0.140E-01 0.605E-04
CGA:  14    -0.285929212656E+03   -0.19796E-02   -0.19795E-02  7296   0.887E-02 0.151E-04
CGA:  15    -0.285930079448E+03   -0.86679E-03   -0.86797E-03  7296   0.300E-02 0.237E-04
CGA:  16    -0.285930553224E+03   -0.47378E-03   -0.47322E-03  7296   0.222E-02 0.159E-04
CGA:  17    -0.285930773303E+03   -0.22008E-03   -0.22027E-03  7296   0.720E-03 0.706E-05
CGA:  18    -0.285930866596E+03   -0.93294E-04   -0.93275E-04  7296   0.528E-03 0.370E-05
CGA:  19    -0.285930930927E+03   -0.64330E-04   -0.64338E-04  7296   0.225E-03 0.232E-05
CGA:  20    -0.285930960616E+03   -0.29689E-04   -0.29676E-04  7296   0.136E-03 0.183E-05
CGA:  21    -0.285930984158E+03   -0.23542E-04   -0.23496E-04  7296   0.102E-03 0.952E-06
CGA:  22    -0.285930997460E+03   -0.13303E-04   -0.13302E-04  7296   0.765E-04 0.132E-06
CGA:  23    -0.285931008368E+03   -0.10908E-04   -0.10916E-04  7296   0.550E-04-0.559E-06
CGA:  24    -0.285931016318E+03   -0.79503E-05   -0.79472E-05  7296   0.395E-04 0.152E-06
   6 F= -.28593102E+03 E0= -.28592359E+03  d E =-.612169E+00  mag=    18.0000
       N       E                     dE             d eps       ncg     rms          ort
SDA:   1    -0.272660926341E+03    0.13270E+02    0.00000E+00  7296   0.371E+02 0.000E+00
CGA:   2    -0.281047730319E+03   -0.83868E+01   -0.83689E+01  7296   0.253E+02 0.166E+00
CGA:   3    -0.284124959879E+03   -0.30772E+01   -0.30745E+01  7296   0.129E+02-0.714E-01
CGA:   4    -0.285466790091E+03   -0.13418E+01   -0.13452E+01  7296   0.333E+01 0.271E-01
CGA:   5    -0.285838309458E+03   -0.37152E+00   -0.37132E+00  7296   0.140E+01-0.382E-02
CGA:   6    -0.285963041594E+03   -0.12473E+00   -0.12479E+00  7296   0.457E+00-0.672E-03
CGA:   7    -0.286018207126E+03   -0.55166E-01   -0.55164E-01  7296   0.224E+00 0.410E-04
CGA:   8    -0.286041228245E+03   -0.23021E-01   -0.23010E-01  7296   0.754E-01-0.291E-04
CGA:   9    -0.286051726688E+03   -0.10498E-01   -0.10495E-01  7296   0.485E-01 0.209E-03
CGA:  10    -0.286056246247E+03   -0.45196E-02   -0.45170E-02  7296   0.161E-01 0.739E-05
CGA:  11    -0.286058803125E+03   -0.25569E-02   -0.25559E-02  7296   0.141E-01 0.265E-04
CGA:  12    -0.286060307508E+03   -0.15044E-02   -0.15046E-02  7296   0.522E-02 0.121E-04
CGA:  13    -0.286061258428E+03   -0.95092E-03   -0.94984E-03  7296   0.430E-02 0.191E-04
CGA:  14    -0.286061726322E+03   -0.46789E-03   -0.46810E-03  7296   0.166E-02 0.999E-05
CGA:  15    -0.286061956307E+03   -0.22998E-03   -0.22990E-03  7296   0.137E-02 0.876E-05
CGA:  16    -0.286062096979E+03   -0.14067E-03   -0.14080E-03  7296   0.427E-03 0.544E-05
CGA:  17    -0.286062154522E+03   -0.57543E-04   -0.57523E-04  7296   0.328E-03 0.293E-05
CGA:  18    -0.286062200126E+03   -0.45605E-04   -0.45578E-04  7296   0.136E-03 0.263E-05
CGA:  19    -0.286062219748E+03   -0.19622E-04   -0.19610E-04  7296   0.132E-03 0.792E-06
CGA:  20    -0.286062241026E+03   -0.21278E-04   -0.21262E-04  7296   0.933E-04 0.499E-06
CGA:  21    -0.286062252936E+03   -0.11910E-04   -0.11909E-04  7296   0.786E-04-0.275E-06
CGA:  22    -0.286062268663E+03   -0.15727E-04   -0.15796E-04  7296   0.681E-04-0.976E-06
CGA:  23    -0.286062276373E+03   -0.77102E-05   -0.77029E-05  7296   0.409E-04-0.378E-06
   7 F= -.28606228E+03 E0= -.28605457E+03  d E =-.131260E+00  mag=    18.0000
       N       E                     dE             d eps       ncg     rms          ort
SDA:   1    -0.254768519337E+03    0.31294E+02    0.00000E+00  7296   0.848E+02 0.000E+00
CGA:   2    -0.273888471830E+03   -0.19120E+02   -0.19119E+02  7296   0.712E+02-0.810E-01
CGA:   3    -0.281303643017E+03   -0.74152E+01   -0.74202E+01  7296   0.289E+02 0.454E+00
CGA:   4    -0.284862724999E+03   -0.35591E+01   -0.35569E+01  7296   0.690E+01-0.432E-01
CGA:   5    -0.285682055527E+03   -0.81933E+00   -0.82067E+00  7296   0.267E+01 0.269E-01
CGA:   6    -0.285949713360E+03   -0.26766E+00   -0.26660E+00  7296   0.888E+00-0.333E-02
CGA:   7    -0.286064938124E+03   -0.11522E+00   -0.11524E+00  7296   0.476E+00 0.242E-02
CGA:   8    -0.286106909160E+03   -0.41971E-01   -0.41886E-01  7296   0.173E+00 0.138E-03
CGA:   9    -0.286130350305E+03   -0.23441E-01   -0.23437E-01  7296   0.101E+00 0.635E-03
CGA:  10    -0.286140170578E+03   -0.98203E-02   -0.98203E-02  7296   0.342E-01 0.487E-04
CGA:  11    -0.286146786321E+03   -0.66157E-02   -0.66055E-02  7296   0.255E-01 0.144E-03
CGA:  12    -0.286149548574E+03   -0.27623E-02   -0.27629E-02  7296   0.130E-01 0.315E-04
CGA:  13    -0.286151692151E+03   -0.21436E-02   -0.21420E-02  7296   0.975E-02 0.450E-04
CGA:  14    -0.286152627392E+03   -0.93524E-03   -0.93606E-03  7296   0.389E-02 0.204E-04
CGA:  15    -0.286153207421E+03   -0.58003E-03   -0.57970E-03  7296   0.288E-02 0.185E-04
CGA:  16    -0.286153500763E+03   -0.29334E-03   -0.29360E-03  7296   0.896E-03 0.889E-05
CGA:  17    -0.286153653234E+03   -0.15247E-03   -0.15220E-03  7296   0.828E-03 0.686E-05
CGA:  18    -0.286153744222E+03   -0.90989E-04   -0.91048E-04  7296   0.365E-03 0.279E-05
CGA:  19    -0.286153801966E+03   -0.57744E-04   -0.57690E-04  7296   0.402E-03 0.196E-05
CGA:  20    -0.286153865527E+03   -0.63562E-04   -0.63562E-04  7296   0.253E-03 0.118E-06
CGA:  21    -0.286153906848E+03   -0.41320E-04   -0.41327E-04  7296   0.283E-03-0.315E-06
CGA:  22    -0.286153955368E+03   -0.48521E-04   -0.48610E-04  7296   0.186E-03-0.239E-05
CGA:  23    -0.286153976213E+03   -0.20844E-04   -0.20805E-04  7296   0.138E-03-0.166E-05
CGA:  24    -0.286153997263E+03   -0.21051E-04   -0.21097E-04  7296   0.883E-04-0.252E-05
CGA:  25    -0.286154006791E+03   -0.95281E-05   -0.95038E-05  7296   0.373E-04-0.901E-06
   8 F= -.28615401E+03 E0= -.28614588E+03  d E =-.917304E-01  mag=    18.0000
       N       E                     dE             d eps       ncg     rms          ort
SDA:   1    -0.244680859870E+03    0.41473E+02    0.00000E+00  7296   0.121E+03 0.000E+00
CGA:   2    -0.267103199347E+03   -0.22422E+02   -0.21939E+02  7296   0.954E+02 0.780E+01
CGA:   3    -0.275766374942E+03   -0.86632E+01   -0.55265E+01  7296   0.346E+02 0.567E+02
CGA:   4    -0.280053871338E+03   -0.42875E+01   -0.42195E+01  7296   0.328E+02-0.189E+01
CGA:   5    -0.283428938003E+03   -0.33751E+01   -0.34360E+01  7296   0.134E+02 0.800E+00
CGA:   6    -0.285330976748E+03   -0.19020E+01   -0.19053E+01  7296   0.835E+01-0.326E+00
CGA:   7    -0.285924720680E+03   -0.59374E+00   -0.60966E+00  7296   0.137E+01-0.590E-01
CGA:   8    -0.286068853640E+03   -0.14413E+00   -0.14414E+00  7296   0.672E+00-0.838E-04
CGA:   9    -0.286131832070E+03   -0.62978E-01   -0.63057E-01  7296   0.176E+00 0.193E-03
CGA:  10    -0.286164379002E+03   -0.32547E-01   -0.32484E-01  7296   0.181E+00 0.904E-03
CGA:  11    -0.286181382762E+03   -0.17004E-01   -0.17040E-01  7296   0.531E-01 0.157E-03
CGA:  12    -0.286190137654E+03   -0.87549E-02   -0.87507E-02  7296   0.528E-01 0.101E-03
CGA:  13    -0.286195396051E+03   -0.52584E-02   -0.52653E-02  7296   0.150E-01 0.842E-04
CGA:  14    -0.286197882286E+03   -0.24862E-02   -0.24851E-02  7296   0.154E-01 0.327E-04
CGA:  15    -0.286199569568E+03   -0.16873E-02   -0.16884E-02  7296   0.441E-02 0.364E-04
CGA:  16    -0.286200126296E+03   -0.55673E-03   -0.55678E-03  7296   0.356E-02 0.127E-04
CGA:  17    -0.286200541198E+03   -0.41490E-03   -0.41511E-03  7296   0.119E-02 0.128E-04
CGA:  18    -0.286200706889E+03   -0.16569E-03   -0.16568E-03  7296   0.787E-03 0.963E-06
CGA:  19    -0.286200801922E+03   -0.95033E-04   -0.95057E-04  7296   0.434E-03 0.211E-05
CGA:  20    -0.286200877165E+03   -0.75243E-04   -0.75113E-04  7296   0.343E-03 0.303E-05
CGA:  21    -0.286200915840E+03   -0.38675E-04   -0.38706E-04  7296   0.235E-03 0.148E-05
CGA:  22    -0.286200970419E+03   -0.54579E-04   -0.54800E-04  7296   0.261E-03-0.218E-05
CGA:  23    -0.286200998044E+03   -0.27624E-04   -0.27608E-04  7296   0.147E-03-0.709E-06
CGA:  24    -0.286201028156E+03   -0.30112E-04   -0.30103E-04  7296   0.160E-03 0.129E-06
CGA:  25    -0.286201045684E+03   -0.17528E-04   -0.17521E-04  7296   0.681E-04-0.315E-06
CGA:  26    -0.286201058148E+03   -0.12465E-04   -0.12553E-04  7296   0.683E-04-0.182E-05
CGA:  27    -0.286201064622E+03   -0.64734E-05   -0.64348E-05  7296   0.237E-04-0.944E-06
   9 F= -.28620106E+03 E0= -.28619259E+03  d E =-.470578E-01  mag=    18.0000
       N       E                     dE             d eps       ncg     rms          ort
SDA:   1    -0.245414106268E+03    0.40787E+02    0.00000E+00  7296   0.111E+03 0.000E+00
CGA:   2    -0.271159651047E+03   -0.25746E+02   -0.25656E+02  7296   0.825E+02 0.859E+00
CGA:   3    -0.280346942973E+03   -0.91873E+01   -0.90403E+01  7296   0.378E+02-0.111E+00
CGA:   4    -0.284503709752E+03   -0.41568E+01   -0.41735E+01  7296   0.940E+01 0.141E+00
CGA:   5    -0.285539311952E+03   -0.10356E+01   -0.10328E+01  7296   0.408E+01-0.259E-01
CGA:   6    -0.285935186975E+03   -0.39588E+00   -0.39489E+00  7296   0.132E+01-0.332E-02
CGA:   7    -0.286101503668E+03   -0.16632E+00   -0.16652E+00  7296   0.678E+00 0.805E-02
CGA:   8    -0.286166096520E+03   -0.64593E-01   -0.64462E-01  7296   0.229E+00-0.955E-04
CGA:   9    -0.286197835242E+03   -0.31739E-01   -0.31732E-01  7296   0.147E+00 0.964E-03
CGA:  10    -0.286212452023E+03   -0.14617E-01   -0.14602E-01  7296   0.486E-01 0.158E-04
CGA:  11    -0.286220672567E+03   -0.82205E-02   -0.82111E-02  7296   0.430E-01 0.203E-03
CGA:  12    -0.286224995288E+03   -0.43227E-02   -0.43214E-02  7296   0.173E-01 0.311E-04
CGA:  13    -0.286227770208E+03   -0.27749E-02   -0.27724E-02  7296   0.145E-01 0.769E-04
CGA:  14    -0.286229292346E+03   -0.15221E-02   -0.15229E-02  7296   0.466E-02 0.264E-04
CGA:  15    -0.286230019783E+03   -0.72744E-03   -0.72682E-03  7296   0.350E-02 0.234E-04
CGA:  16    -0.286230401671E+03   -0.38189E-03   -0.38210E-03  7296   0.107E-02 0.846E-05
CGA:  17    -0.286230549711E+03   -0.14804E-03   -0.14801E-03  7296   0.916E-03 0.539E-05
CGA:  18    -0.286230655983E+03   -0.10627E-03   -0.10633E-03  7296   0.349E-03 0.346E-05
CGA:  19    -0.286230706155E+03   -0.50173E-04   -0.50137E-04  7296   0.329E-03 0.307E-05
CGA:  20    -0.286230760766E+03   -0.54611E-04   -0.54540E-04  7296   0.225E-03 0.231E-05
CGA:  21    -0.286230793349E+03   -0.32583E-04   -0.32569E-04  7296   0.217E-03 0.128E-05
CGA:  22    -0.286230834308E+03   -0.40959E-04   -0.40990E-04  7296   0.184E-03-0.569E-06
CGA:  23    -0.286230855311E+03   -0.21003E-04   -0.20977E-04  7296   0.118E-03-0.121E-05
CGA:  24    -0.286230877020E+03   -0.21709E-04   -0.21839E-04  7296   0.941E-04-0.256E-05
CGA:  25    -0.286230886785E+03   -0.97655E-05   -0.97313E-05  7296   0.418E-04-0.106E-05
  10 F= -.28623089E+03 E0= -.28622238E+03  d E =-.298222E-01  mag=    18.0000
       N       E                     dE             d eps       ncg     rms          ort
SDA:   1    -0.278471957359E+03    0.77589E+01    0.00000E+00  7296   0.245E+02 0.000E+00
CGA:   2    -0.282743184183E+03   -0.42712E+01   -0.42598E+01  7296   0.174E+02 0.237E+00
CGA:   3    -0.284662122952E+03   -0.19189E+01   -0.18958E+01  7296   0.988E+01-0.140E+00
CGA:   4    -0.285806984098E+03   -0.11449E+01   -0.11449E+01  7296   0.305E+01-0.129E-03
CGA:   5    -0.286097316369E+03   -0.29033E+00   -0.28929E+00  7296   0.127E+01-0.969E-03
CGA:   6    -0.286218727884E+03   -0.12141E+00   -0.12170E+00  7296   0.344E+00 0.563E-03
CGA:   7    -0.286260932209E+03   -0.42204E-01   -0.42185E-01  7296   0.166E+00-0.670E-03
CGA:   8    -0.286279015844E+03   -0.18084E-01   -0.18105E-01  7296   0.560E-01 0.266E-03
CGA:   9    -0.286285442998E+03   -0.64272E-02   -0.64250E-02  7296   0.374E-01-0.295E-04
CGA:  10    -0.286289525290E+03   -0.40823E-02   -0.40842E-02  7296   0.105E-01 0.392E-04
CGA:  11    -0.286290964291E+03   -0.14390E-02   -0.14389E-02  7296   0.824E-02 0.138E-04
CGA:  12    -0.286291988439E+03   -0.10241E-02   -0.10243E-02  7296   0.285E-02 0.205E-04
CGA:  13    -0.286292432117E+03   -0.44368E-03   -0.44357E-03  7296   0.271E-02 0.533E-05
CGA:  14    -0.286292721310E+03   -0.28919E-03   -0.28945E-03  7296   0.100E-02 0.743E-05
CGA:  15    -0.286292837941E+03   -0.11663E-03   -0.11666E-03  7296   0.657E-03 0.180E-05
CGA:  16    -0.286292931661E+03   -0.93719E-04   -0.93692E-04  7296   0.236E-03 0.200E-05
CGA:  17    -0.286292958237E+03   -0.26577E-04   -0.26586E-04  7296   0.151E-03 0.504E-06
CGA:  18    -0.286292980405E+03   -0.22167E-04   -0.22148E-04  7296   0.673E-04 0.108E-05
CGA:  19    -0.286292987632E+03   -0.72271E-05   -0.72427E-05  7296   0.417E-04 0.658E-06
  11 F= -.28629299E+03 E0= -.28628443E+03  d E =-.621008E-01  mag=    18.0000
       N       E                     dE             d eps       ncg     rms          ort
SDA:   1    -0.283760487575E+03    0.25325E+01    0.00000E+00  7296   0.761E+01 0.000E+00
CGA:   2    -0.285065326517E+03   -0.13048E+01   -0.13004E+01  7296   0.752E+01 0.815E-01
CGA:   3    -0.285806944322E+03   -0.74162E+00   -0.73564E+00  7296   0.285E+01-0.225E-01
CGA:   4    -0.286167237379E+03   -0.36029E+00   -0.36035E+00  7296   0.117E+01 0.671E-02
CGA:   5    -0.286262308981E+03   -0.95072E-01   -0.94516E-01  7296   0.348E+00 0.916E-03
CGA:   6    -0.286303535450E+03   -0.41226E-01   -0.41239E-01  7296   0.108E+00 0.535E-03
CGA:   7    -0.286315416054E+03   -0.11881E-01   -0.11874E-01  7296   0.476E-01-0.124E-03
CGA:   8    -0.286321376788E+03   -0.59607E-02   -0.59610E-02  7296   0.175E-01 0.783E-04
CGA:   9    -0.286323154109E+03   -0.17773E-02   -0.17766E-02  7296   0.103E-01-0.312E-05
CGA:  10    -0.286324428214E+03   -0.12741E-02   -0.12742E-02  7296   0.372E-02 0.159E-04
CGA:  11    -0.286324831777E+03   -0.40356E-03   -0.40362E-03  7296   0.225E-02 0.370E-05
CGA:  12    -0.286325204728E+03   -0.37295E-03   -0.37259E-03  7296   0.105E-02 0.853E-05
CGA:  13    -0.286325335259E+03   -0.13053E-03   -0.13054E-03  7296   0.835E-03 0.242E-05
CGA:  14    -0.286325448021E+03   -0.11276E-03   -0.11272E-03  7296   0.416E-03 0.435E-05
CGA:  15    -0.286325490465E+03   -0.42444E-04   -0.42478E-04  7296   0.208E-03 0.136E-05
CGA:  16    -0.286325524099E+03   -0.33634E-04   -0.33570E-04  7296   0.112E-03 0.177E-05
CGA:  17    -0.286325535193E+03   -0.11094E-04   -0.11109E-04  7296   0.504E-04 0.535E-06
CGA:  18    -0.286325544439E+03   -0.92460E-05   -0.92169E-05  7296   0.395E-04 0.513E-06
  12 F= -.28632554E+03 E0= -.28631702E+03  d E =-.325568E-01  mag=    18.0000
       N       E                     dE             d eps       ncg     rms          ort
SDA:   1    -0.285225873100E+03    0.10997E+01    0.00000E+00  7296   0.281E+01 0.000E+00
CGA:   2    -0.285963373699E+03   -0.73750E+00   -0.73582E+00  7296   0.255E+01 0.125E-01
CGA:   3    -0.286192936862E+03   -0.22956E+00   -0.22721E+00  7296   0.813E+00 0.176E-02
CGA:   4    -0.286296560873E+03   -0.10362E+00   -0.10363E+00  7296   0.228E+00 0.380E-03
CGA:   5    -0.286321255493E+03   -0.24695E-01   -0.24695E-01  7296   0.958E-01 0.248E-04
CGA:   6    -0.286330633240E+03   -0.93777E-02   -0.93808E-02  7296   0.337E-01 0.235E-04
CGA:   7    -0.286333942677E+03   -0.33094E-02   -0.33065E-02  7296   0.155E-01-0.201E-04
CGA:   8    -0.286335766995E+03   -0.18243E-02   -0.18245E-02  7296   0.429E-02 0.396E-05
CGA:   9    -0.286336346292E+03   -0.57930E-03   -0.57931E-03  7296   0.305E-02-0.124E-06
CGA:  10    -0.286336642510E+03   -0.29622E-03   -0.29636E-03  7296   0.919E-03 0.348E-05
CGA:  11    -0.286336775419E+03   -0.13291E-03   -0.13287E-03  7296   0.853E-03 0.195E-05
CGA:  12    -0.286336877684E+03   -0.10227E-03   -0.10229E-03  7296   0.320E-03 0.339E-05
CGA:  13    -0.286336927285E+03   -0.49600E-04   -0.49574E-04  7296   0.273E-03 0.982E-06
CGA:  14    -0.286336962931E+03   -0.35646E-04   -0.35643E-04  7296   0.102E-03 0.131E-05
CGA:  15    -0.286336975442E+03   -0.12511E-04   -0.12512E-04  7296   0.815E-04 0.200E-06
CGA:  16    -0.286336984822E+03   -0.93804E-05   -0.93864E-05  7296   0.248E-04 0.468E-06
  13 F= -.28633698E+03 E0= -.28632844E+03  d E =-.114404E-01  mag=    18.0000
       N       E                     dE             d eps       ncg     rms          ort
SDA:   1    -0.282307863922E+03    0.40291E+01    0.00000E+00  7296   0.102E+02 0.000E+00
CGA:   2    -0.285029602070E+03   -0.27217E+01   -0.27148E+01  7296   0.837E+01 0.489E-01
CGA:   3    -0.285832314766E+03   -0.80271E+00   -0.79264E+00  7296   0.323E+01-0.142E-01
CGA:   4    -0.286192728324E+03   -0.36041E+00   -0.36078E+00  7296   0.920E+00 0.608E-02
CGA:   5    -0.286281738003E+03   -0.89010E-01   -0.89045E-01  7296   0.395E+00-0.515E-04
CGA:   6    -0.286321002700E+03   -0.39265E-01   -0.39246E-01  7296   0.120E+00-0.127E-03
CGA:   7    -0.286334541857E+03   -0.13539E-01   -0.13536E-01  7296   0.594E-01-0.948E-04
CGA:   8    -0.286340954263E+03   -0.64124E-02   -0.64147E-02  7296   0.176E-01 0.397E-04
CGA:   9    -0.286343070896E+03   -0.21166E-02   -0.21166E-02  7296   0.124E-01-0.567E-05
CGA:  10    -0.286344313577E+03   -0.12427E-02   -0.12431E-02  7296   0.346E-02 0.111E-04
CGA:  11    -0.286344821008E+03   -0.50743E-03   -0.50730E-03  7296   0.301E-02 0.609E-05
CGA:  12    -0.286345213063E+03   -0.39206E-03   -0.39201E-03  7296   0.112E-02 0.960E-05
CGA:  13    -0.286345398305E+03   -0.18524E-03   -0.18511E-03  7296   0.113E-02 0.362E-05
CGA:  14    -0.286345521211E+03   -0.12291E-03   -0.12299E-03  7296   0.419E-03 0.403E-05
CGA:  15    -0.286345570684E+03   -0.49474E-04   -0.49484E-04  7296   0.303E-03 0.125E-05
CGA:  16    -0.286345609318E+03   -0.38633E-04   -0.38631E-04  7296   0.940E-04 0.189E-05
CGA:  17    -0.286345620177E+03   -0.10859E-04   -0.10866E-04  7296   0.648E-04 0.598E-06
CGA:  18    -0.286345629940E+03   -0.97637E-05   -0.97418E-05  7296   0.297E-04 0.905E-06
  14 F= -.28634563E+03 E0= -.28633704E+03  d E =-.864512E-02  mag=    18.0000
       N       E                     dE             d eps       ncg     rms          ort
SDA:   1    -0.272703414212E+03    0.13642E+02    0.00000E+00  7296   0.349E+02 0.000E+00
CGA:   2    -0.281602878761E+03   -0.88995E+01   -0.88673E+01  7296   0.310E+02 0.246E+00
CGA:   3    -0.284486926429E+03   -0.28840E+01   -0.28482E+01  7296   0.112E+02 0.263E-01
CGA:   4    -0.285823257387E+03   -0.13363E+01   -0.13363E+01  7296   0.298E+01-0.162E-02
CGA:   5    -0.286120949893E+03   -0.29769E+00   -0.29725E+00  7296   0.142E+01-0.641E-02
CGA:   6    -0.286251505253E+03   -0.13056E+00   -0.13062E+00  7296   0.425E+00-0.624E-03
CGA:   7    -0.286300158168E+03   -0.48653E-01   -0.48631E-01  7296   0.211E+00-0.703E-03
CGA:   8    -0.286323285903E+03   -0.23128E-01   -0.23145E-01  7296   0.595E-01 0.403E-03
CGA:   9    -0.286331049829E+03   -0.77639E-02   -0.77641E-02  7296   0.440E-01-0.743E-05
CGA:  10    -0.286335300419E+03   -0.42506E-02   -0.42532E-02  7296   0.127E-01 0.388E-04
CGA:  11    -0.286337103566E+03   -0.18031E-02   -0.18028E-02  7296   0.118E-01 0.192E-04
CGA:  12    -0.286338577080E+03   -0.14735E-02   -0.14735E-02  7296   0.421E-02 0.370E-04
CGA:  13    -0.286339252658E+03   -0.67558E-03   -0.67503E-03  7296   0.428E-02 0.157E-04
CGA:  14    -0.286339727828E+03   -0.47517E-03   -0.47552E-03  7296   0.152E-02 0.165E-04
CGA:  15    -0.286339902462E+03   -0.17463E-03   -0.17470E-03  7296   0.110E-02 0.600E-05
CGA:  16    -0.286340046532E+03   -0.14407E-03   -0.14403E-03  7296   0.344E-03 0.740E-05
CGA:  17    -0.286340084744E+03   -0.38212E-04   -0.38241E-04  7296   0.226E-03 0.184E-05
CGA:  18    -0.286340121249E+03   -0.36504E-04   -0.36412E-04  7296   0.101E-03 0.258E-05
CGA:  19    -0.286340133396E+03   -0.12148E-04   -0.12155E-04  7296   0.900E-04 0.925E-06
CGA:  20    -0.286340150733E+03   -0.17337E-04   -0.17255E-04  7296   0.797E-04 0.127E-05
CGA:  21    -0.286340160591E+03   -0.98577E-05   -0.98579E-05  7296   0.621E-04 0.305E-07
CGA:  22    -0.286340174246E+03   -0.13655E-04   -0.13714E-04  7296   0.722E-04-0.647E-06
CGA:  23    -0.286340182014E+03   -0.77680E-05   -0.77545E-05  7296   0.337E-04-0.531E-06
  15 F= -.28634018E+03 E0= -.28633134E+03  d E =0.544793E-02  mag=    18.0000
       N       E                     dE             d eps       ncg     rms          ort
SDA:   1    -0.284254837657E+03    0.20853E+01    0.00000E+00  7296   0.614E+01 0.000E+00
CGA:   2    -0.285478483403E+03   -0.12236E+01   -0.12225E+01  7296   0.420E+01 0.148E-01
CGA:   3    -0.286003351022E+03   -0.52487E+00   -0.52436E+00  7296   0.240E+01-0.152E-01
CGA:   4    -0.286254781814E+03   -0.25143E+00   -0.25181E+00  7296   0.572E+00 0.264E-02
CGA:   5    -0.286324858359E+03   -0.70077E-01   -0.70048E-01  7296   0.185E+00-0.847E-03
CGA:   6    -0.286344182317E+03   -0.19324E-01   -0.19350E-01  7296   0.749E-01 0.186E-03
CGA:   7    -0.286352560938E+03   -0.83786E-02   -0.83759E-02  7296   0.356E-01-0.350E-04
CGA:   8    -0.286355705264E+03   -0.31443E-02   -0.31473E-02  7296   0.126E-01 0.104E-04
CGA:   9    -0.286357500490E+03   -0.17952E-02   -0.17952E-02  7296   0.651E-02 0.462E-05
CGA:  10    -0.286358137332E+03   -0.63684E-03   -0.63704E-03  7296   0.233E-02 0.387E-05
CGA:  11    -0.286358545004E+03   -0.40767E-03   -0.40751E-03  7296   0.139E-02 0.361E-05
CGA:  12    -0.286358698928E+03   -0.15392E-03   -0.15399E-03  7296   0.765E-03 0.250E-05
CGA:  13    -0.286358815413E+03   -0.11649E-03   -0.11643E-03  7296   0.556E-03 0.239E-05
CGA:  14    -0.286358867847E+03   -0.52434E-04   -0.52514E-04  7296   0.219E-03 0.204E-05
CGA:  15    -0.286358900749E+03   -0.32902E-04   -0.32875E-04  7296   0.157E-03 0.133E-05
CGA:  16    -0.286358916945E+03   -0.16196E-04   -0.16225E-04  7296   0.489E-04 0.100E-05
CGA:  17    -0.286358924694E+03   -0.77489E-05   -0.77379E-05  7296   0.358E-04 0.394E-06
  16 F= -.28635892E+03 E0= -.28635028E+03  d E =-.187427E-01  mag=    18.0000
       N       E                     dE             d eps       ncg     rms          ort
SDA:   1    -0.285761934983E+03    0.59698E+00    0.00000E+00  7296   0.168E+01 0.000E+00
CGA:   2    -0.286134708169E+03   -0.37277E+00   -0.37278E+00  7296   0.113E+01-0.688E-04
CGA:   3    -0.286278127973E+03   -0.14342E+00   -0.14346E+00  7296   0.609E+00 0.276E-02
CGA:   4    -0.286337340694E+03   -0.59213E-01   -0.59129E-01  7296   0.150E+00-0.242E-03
CGA:   5    -0.286355969023E+03   -0.18628E-01   -0.18627E-01  7296   0.503E-01-0.799E-04
CGA:   6    -0.286360901317E+03   -0.49323E-02   -0.49373E-02  7296   0.219E-01 0.251E-04
CGA:   7    -0.286363366377E+03   -0.24651E-02   -0.24647E-02  7296   0.815E-02-0.689E-05
CGA:   8    -0.286364158351E+03   -0.79197E-03   -0.79222E-03  7296   0.347E-02 0.511E-05
CGA:   9    -0.286364642800E+03   -0.48445E-03   -0.48443E-03  7296   0.146E-02 0.159E-05
CGA:  10    -0.286364784079E+03   -0.14128E-03   -0.14135E-03  7296   0.709E-03 0.157E-05
CGA:  11    -0.286364890185E+03   -0.10611E-03   -0.10609E-03  7296   0.419E-03 0.778E-06
CGA:  12    -0.286364930600E+03   -0.40415E-04   -0.40437E-04  7296   0.227E-03 0.627E-06
CGA:  13    -0.286364968807E+03   -0.38207E-04   -0.38164E-04  7296   0.131E-03 0.101E-05
CGA:  14    -0.286364983620E+03   -0.14813E-04   -0.14824E-04  7296   0.646E-04 0.645E-06
CGA:  15    -0.286364994057E+03   -0.10437E-04   -0.10414E-04  7296   0.379E-04 0.681E-06
CGA:  16    -0.286364997714E+03   -0.36570E-05   -0.36654E-05  7296   0.153E-04 0.249E-06
  17 F= -.28636500E+03 E0= -.28635639E+03  d E =-.607302E-02  mag=    18.0000
       N       E                     dE             d eps       ncg     rms          ort
SDA:   1    -0.286211004852E+03    0.15399E+00    0.00000E+00  7296   0.419E+00 0.000E+00
CGA:   2    -0.286304882378E+03   -0.93878E-01   -0.93907E-01  7296   0.378E+00-0.282E-03
CGA:   3    -0.286340443806E+03   -0.35561E-01   -0.35646E-01  7296   0.188E+00 0.160E-03
CGA:   4    -0.286360176348E+03   -0.19733E-01   -0.19725E-01  7296   0.466E-01-0.763E-04
CGA:   5    -0.286364710582E+03   -0.45342E-02   -0.45356E-02  7296   0.193E-01 0.564E-05
CGA:   6    -0.286366616581E+03   -0.19060E-02   -0.19055E-02  7296   0.505E-02-0.680E-05
CGA:   7    -0.286367297484E+03   -0.68090E-03   -0.68088E-03  7296   0.284E-02 0.156E-05
CGA:   8    -0.286367552484E+03   -0.25500E-03   -0.25495E-03  7296   0.851E-03 0.223E-06
CGA:   9    -0.286367666713E+03   -0.11423E-03   -0.11422E-03  7296   0.546E-03 0.870E-06
CGA:  10    -0.286367717569E+03   -0.50856E-04   -0.50872E-04  7296   0.156E-03 0.501E-06
CGA:  11    -0.286367742199E+03   -0.24630E-04   -0.24607E-04  7296   0.128E-03 0.709E-06
CGA:  12    -0.286367756540E+03   -0.14341E-04   -0.14345E-04  7296   0.516E-04 0.322E-06
CGA:  13    -0.286367764259E+03   -0.77191E-05   -0.77082E-05  7296   0.503E-04 0.458E-06
  18 F= -.28636776E+03 E0= -.28635918E+03  d E =-.276655E-02  mag=    18.0000
       N       E                     dE             d eps       ncg     rms          ort
SDA:   1    -0.284954627061E+03    0.14131E+01    0.00000E+00  7296   0.376E+01 0.000E+00
CGA:   2    -0.285815357096E+03   -0.86073E+00   -0.86148E+00  7296   0.340E+01-0.657E-02
CGA:   3    -0.286139092653E+03   -0.32374E+00   -0.32587E+00  7296   0.148E+01 0.766E-02
CGA:   4    -0.286303675144E+03   -0.16458E+00   -0.16440E+00  7296   0.405E+00-0.327E-02
CGA:   5    -0.286343088744E+03   -0.39414E-01   -0.39478E-01  7296   0.159E+00 0.369E-03
CGA:   6    -0.286359752401E+03   -0.16664E-01   -0.16655E-01  7296   0.421E-01-0.124E-03
CGA:   7    -0.286365426802E+03   -0.56744E-02   -0.56736E-02  7296   0.219E-01 0.520E-04
CGA:   8    -0.286367515001E+03   -0.20882E-02   -0.20874E-02  7296   0.691E-02-0.127E-05
CGA:   9    -0.286368473496E+03   -0.95850E-03   -0.95836E-03  7296   0.439E-02 0.855E-05
CGA:  10    -0.286368859996E+03   -0.38650E-03   -0.38651E-03  7296   0.138E-02 0.176E-05
CGA:  11    -0.286369062849E+03   -0.20285E-03   -0.20278E-03  7296   0.114E-02 0.310E-05
CGA:  12    -0.286369188917E+03   -0.12607E-03   -0.12610E-03  7296   0.430E-03 0.224E-05
CGA:  13    -0.286369259551E+03   -0.70634E-04   -0.70535E-04  7296   0.413E-03 0.249E-05
CGA:  14    -0.286369302425E+03   -0.42874E-04   -0.42929E-04  7296   0.137E-03 0.244E-05
CGA:  15    -0.286369322583E+03   -0.20158E-04   -0.20123E-04  7296   0.107E-03 0.162E-05
CGA:  16    -0.286369334541E+03   -0.11958E-04   -0.11976E-04  7296   0.300E-04 0.114E-05
CGA:  17    -0.286369338875E+03   -0.43338E-05   -0.43273E-05  7296   0.230E-04 0.356E-06
  19 F= -.28636934E+03 E0= -.28636085E+03  d E =-.157462E-02  mag=    18.0000
       N       E                     dE             d eps       ncg     rms          ort
SDA:   1    -0.285663007575E+03    0.70633E+00    0.00000E+00  7296   0.198E+01 0.000E+00
CGA:   2    -0.286079543197E+03   -0.41654E+00   -0.41663E+00  7296   0.131E+01-0.946E-03
CGA:   3    -0.286256776475E+03   -0.17723E+00   -0.17718E+00  7296   0.816E+00 0.547E-02
CGA:   4    -0.286327302068E+03   -0.70526E-01   -0.70200E-01  7296   0.227E+00-0.362E-03
CGA:   5    -0.286350208523E+03   -0.22906E-01   -0.22914E-01  7296   0.813E-01 0.509E-04
CGA:   6    -0.286357834166E+03   -0.76256E-02   -0.76202E-02  7296   0.256E-01-0.331E-04
CGA:   7    -0.286361259395E+03   -0.34252E-02   -0.34249E-02  7296   0.112E-01 0.223E-04
CGA:   8    -0.286362354620E+03   -0.10952E-02   -0.10949E-02  7296   0.419E-02-0.584E-06
CGA:   9    -0.286362934241E+03   -0.57962E-03   -0.57954E-03  7296   0.225E-02 0.508E-05
CGA:  10    -0.286363129816E+03   -0.19557E-03   -0.19557E-03  7296   0.846E-03 0.485E-06
CGA:  11    -0.286363259054E+03   -0.12924E-03   -0.12920E-03  7296   0.565E-03 0.122E-05
CGA:  12    -0.286363318884E+03   -0.59830E-04   -0.59838E-04  7296   0.240E-03 0.496E-06
CGA:  13    -0.286363361983E+03   -0.43100E-04   -0.43022E-04  7296   0.186E-03 0.138E-05
CGA:  14    -0.286363379897E+03   -0.17914E-04   -0.17935E-04  7296   0.803E-04 0.721E-06
CGA:  15    -0.286363391169E+03   -0.11271E-04   -0.11256E-04  7296   0.552E-04 0.987E-06
CGA:  16    -0.286363397014E+03   -0.58453E-05   -0.58558E-05  7296   0.167E-04 0.510E-06
  20 F= -.28636340E+03 E0= -.28635494E+03  d E =0.594186E-02  mag=    18.0000
       N       E                     dE             d eps       ncg     rms          ort
SDA:   1    -0.286128275075E+03    0.23512E+00    0.00000E+00  7296   0.644E+00 0.000E+00
CGA:   2    -0.286266148075E+03   -0.13787E+00   -0.13775E+00  7296   0.612E+00 0.133E-02
CGA:   3    -0.286320762670E+03   -0.54615E-01   -0.54442E-01  7296   0.273E+00-0.377E-03
CGA:   4    -0.286351121024E+03   -0.30358E-01   -0.30364E-01  7296   0.803E-01 0.120E-03
CGA:   5    -0.286358691431E+03   -0.75704E-02   -0.75682E-02  7296   0.293E-01-0.324E-05
CGA:   6    -0.286361875030E+03   -0.31836E-02   -0.31839E-02  7296   0.835E-02 0.147E-04
CGA:   7    -0.286362859618E+03   -0.98459E-03   -0.98455E-03  7296   0.441E-02-0.295E-05
CGA:   8    -0.286363306115E+03   -0.44650E-03   -0.44651E-03  7296   0.142E-02-0.841E-06
CGA:   9    -0.286363465882E+03   -0.15977E-03   -0.15976E-03  7296   0.870E-03-0.901E-06
CGA:  10    -0.286363565295E+03   -0.99413E-04   -0.99412E-04  7296   0.252E-03-0.124E-06
CGA:  11    -0.286363598847E+03   -0.33552E-04   -0.33549E-04  7296   0.209E-03 0.241E-06
CGA:  12    -0.286363624770E+03   -0.25923E-04   -0.25922E-04  7296   0.848E-04 0.505E-06
CGA:  13    -0.286363635799E+03   -0.11029E-04   -0.11030E-04  7296   0.734E-04-0.111E-06
CGA:  14    -0.286363645101E+03   -0.93019E-05   -0.93016E-05  7296   0.284E-04 0.963E-07
  21 F= -.28636365E+03 E0= -.28635514E+03  d E =-.248087E-03  mag=    18.0000
