       N       E                     dE             d eps       ncg     rms          ort
DAV:   1     0.654254432682E+04    0.65425E+04   -0.29198E+05  8736   0.161E+03
DAV:   2     0.415066601884E+03   -0.61275E+04   -0.58789E+04  8736   0.477E+02
DAV:   3    -0.368104144529E+03   -0.78317E+03   -0.76572E+03  8736   0.179E+02
DAV:   4    -0.410131688979E+03   -0.42028E+02   -0.40905E+02  8736   0.430E+01
DAV:   5    -0.413561724934E+03   -0.34300E+01   -0.33861E+01  8736   0.880E+00
SDA:   6    -0.265015572785E+03    0.14855E+03   -0.33861E+01  8736   0.110E+04 0.000E+00
CGA:   7    -0.336286935548E+03   -0.71271E+02   -0.10378E+03  8736   0.115E+04-0.120E+02
CGA:   8    -0.364735833026E+03   -0.28449E+02   -0.22828E+02  8736   0.280E+03 0.278E+02
CGA:   9    -0.361520205784E+03    0.32156E+01   -0.19694E+02  8736   0.512E+03-0.111E+03
CGA:  10    -0.367102599940E+03   -0.55824E+01   -0.52092E+01  8736   0.238E+03-0.267E+02
CGA:  11    -0.359299323058E+03    0.78033E+01   -0.82133E+01  8736   0.623E+03-0.245E+03
CGA:  12    -0.361814178859E+03   -0.25149E+01   -0.10486E+02  8736   0.173E+04-0.105E+04
CGA:  13    -0.364090553063E+03   -0.22764E+01   -0.60221E+02  8736   0.378E+03-0.117E+03
CGA:  14    -0.369698731285E+03   -0.56082E+01   -0.37156E+01  8736   0.222E+03 0.181E+03
CGA:  15    -0.376627748225E+03   -0.69290E+01   -0.39349E+01  8736   0.137E+03-0.270E+03
CGA:  16    -0.374110709588E+03    0.25170E+01   -0.67606E+01  8736   0.662E+03-0.307E+02
CGA:  17    -0.335963942602E+03    0.38147E+02   -0.17739E+02  8736   0.129E+04-0.506E+03
CGA:  18    -0.361882838724E+03   -0.25919E+02   -0.22001E+02  8736   0.659E+03-0.656E+03
CGA:  19    -0.377557572023E+03   -0.15675E+02   -0.15741E+02  8736   0.286E+03 0.838E+02
CGA:  20    -0.371464066122E+03    0.60935E+01   -0.14720E+02  8736   0.115E+04-0.821E+02
CGA:  21    -0.356309517060E+03    0.15155E+02   -0.31393E+02  8736   0.328E+03-0.865E+02
CGA:  22    -0.360853119568E+03   -0.45436E+01   -0.19475E+01  8736   0.412E+03 0.430E+03
CGA:  23    -0.371109611245E+03   -0.10256E+02   -0.38841E+01  8736   0.410E+03 0.631E+03
CGA:  24    -0.375663452232E+03   -0.45538E+01   -0.82052E+01  8736   0.501E+03-0.502E+03
CGA:  25    -0.367407464174E+03    0.82560E+01   -0.20110E+02  8736   0.368E+03-0.161E+03
CGA:  26    -0.371305928785E+03   -0.38985E+01   -0.18970E+01  8736   0.350E+03 0.273E+03
CGA:  27    -0.381735696772E+03   -0.10430E+02   -0.40558E+01  8736   0.302E+02 0.177E+03
CGA:  28    -0.382059884349E+03   -0.32419E+00   -0.32989E+00  8736   0.597E+01-0.140E+01
CGA:  29    -0.382500702070E+03   -0.44082E+00   -0.43716E+00  8736   0.150E+02-0.303E+00
CGA:  30    -0.383176861682E+03   -0.67616E+00   -0.72648E+00  8736   0.232E+02 0.310E+00
CGA:  31    -0.383349741037E+03   -0.17288E+00   -0.41573E+00  8736   0.354E+02-0.187E+02
CGA:  32    -0.383601369143E+03   -0.25163E+00   -0.46638E+00  8736   0.212E+02-0.165E+02
CGA:  33    -0.383809238875E+03   -0.20787E+00   -0.17761E+00  8736   0.287E+01 0.163E+01
CGA:  34    -0.383850088873E+03   -0.40850E-01   -0.45916E-01  8736   0.363E+01-0.306E+00
CGA:  35    -0.383958906332E+03   -0.10882E+00   -0.10070E+00  8736   0.555E+01 0.159E+00
CGA:  36    -0.384040788678E+03   -0.81882E-01   -0.82936E-01  8736   0.489E+01-0.131E+00
CGA:  37    -0.384145571813E+03   -0.10478E+00   -0.85080E-01  8736   0.401E+01 0.123E+01
CGA:  38    -0.384203749085E+03   -0.58177E-01   -0.42798E-01  8736   0.169E+01 0.175E+01
CGA:  39    -0.384249947903E+03   -0.46199E-01   -0.42150E-01  8736   0.212E+01 0.200E+00
CGA:  40    -0.384284063299E+03   -0.34115E-01   -0.35760E-01  8736   0.245E+01-0.528E-01
CGA:  41    -0.384331378093E+03   -0.47315E-01   -0.56444E-01  8736   0.452E+01-0.142E+00
CGA:  42    -0.384365791351E+03   -0.34413E-01   -0.21188E-01  8736   0.267E+01 0.262E+01
CGA:  43    -0.384398942368E+03   -0.33151E-01   -0.30820E-01  8736   0.803E+00 0.174E+00
CGA:  44    -0.384422785743E+03   -0.23843E-01   -0.25077E-01  8736   0.729E+00-0.950E-02
CGA:  45    -0.384447069570E+03   -0.24284E-01   -0.24062E-01  8736   0.597E+00-0.273E-04
CGA:  46    -0.384474405392E+03   -0.27336E-01   -0.27395E-01  8736   0.441E+00 0.262E-01
CGA:  47    -0.384493569324E+03   -0.19164E-01   -0.19250E-01  8736   0.962E+00 0.592E-02
CGA:  48    -0.384521565383E+03   -0.27996E-01   -0.25696E-01  8736   0.453E+00 0.467E-01
CGA:  49    -0.384535405826E+03   -0.13840E-01   -0.13876E-01  8736   0.266E+00-0.879E-04
CGA:  50    -0.384548830318E+03   -0.13424E-01   -0.13292E-01  8736   0.488E+00 0.146E-01
CGA:  51    -0.384569779306E+03   -0.20949E-01   -0.20919E-01  8736   0.372E+00-0.191E-02
CGA:  52    -0.384577287107E+03   -0.75078E-02   -0.76504E-02  8736   0.181E+00-0.473E-02
CGA:  53    -0.384585815746E+03   -0.85286E-02   -0.85060E-02  8736   0.993E-01 0.236E-02
CGA:  54    -0.384591455483E+03   -0.56397E-02   -0.55727E-02  8736   0.103E+00 0.343E-02
CGA:  55    -0.384593726227E+03   -0.22707E-02   -0.23277E-02  8736   0.545E-01-0.172E-02
CGA:  56    -0.384597164031E+03   -0.34378E-02   -0.33701E-02  8736   0.506E-01 0.259E-02
CGA:  57    -0.384600822978E+03   -0.36589E-02   -0.36217E-02  8736   0.434E-01 0.125E-02
CGA:  58    -0.384602007224E+03   -0.11842E-02   -0.11956E-02  8736   0.330E-01-0.207E-03
CGA:  59    -0.384604147094E+03   -0.21399E-02   -0.21151E-02  8736   0.436E-01 0.934E-03
CGA:  60    -0.384607194809E+03   -0.30477E-02   -0.30273E-02  8736   0.520E-01 0.686E-03
CGA:  61    -0.384608620850E+03   -0.14260E-02   -0.14250E-02  8736   0.167E-01-0.249E-03
CGA:  62    -0.384609260984E+03   -0.64013E-03   -0.64133E-03  8736   0.167E-01-0.144E-04
CGA:  63    -0.384610251456E+03   -0.99047E-03   -0.98727E-03  8736   0.183E-01 0.127E-03
CGA:  64    -0.384611354193E+03   -0.11027E-02   -0.11007E-02  8736   0.161E-01 0.638E-04
CGA:  65    -0.384611791843E+03   -0.43765E-03   -0.43475E-03  8736   0.913E-02-0.391E-04
CGA:  66    -0.384612381750E+03   -0.58991E-03   -0.58712E-03  8736   0.728E-02 0.106E-03
CGA:  67    -0.384612707028E+03   -0.32528E-03   -0.32501E-03  8736   0.720E-02-0.647E-04
CGA:  68    -0.384613028448E+03   -0.32142E-03   -0.32150E-03  8736   0.651E-02 0.184E-04
CGA:  69    -0.384613331801E+03   -0.30335E-03   -0.30335E-03  8736   0.743E-02 0.117E-04
CGA:  70    -0.384613761711E+03   -0.42991E-03   -0.43029E-03  8736   0.412E-02-0.225E-04
CGA:  71    -0.384613905367E+03   -0.14366E-03   -0.14320E-03  8736   0.314E-02 0.594E-06
CGA:  72    -0.384614018112E+03   -0.11275E-03   -0.11317E-03  8736   0.200E-02 0.224E-04
SDA:  73    -0.384614208431E+03   -0.19032E-03   -0.19336E-03  8736   0.468E-02-0.671E-04
CGA:  74    -0.384614282271E+03   -0.73840E-04   -0.73983E-04  8736   0.755E-03 0.883E-05
CGA:  75    -0.384614322026E+03   -0.39754E-04   -0.39685E-04  8736   0.144E-02 0.114E-04
CGA:  76    -0.384614427638E+03   -0.10561E-03   -0.10479E-03  8736   0.148E-02 0.334E-04
CGA:  77    -0.384614636664E+03   -0.20903E-03   -0.20004E-03  8736   0.112E-02 0.108E-03
CGA:  78    -0.384614724854E+03   -0.88189E-04   -0.87687E-04  8736   0.293E-02 0.274E-04
CGA:  79    -0.384614811719E+03   -0.86865E-04   -0.87777E-04  8736   0.108E-02 0.434E-04
CGA:  80    -0.384614869028E+03   -0.57309E-04   -0.57310E-04  8736   0.641E-03 0.215E-04
CGA:  81    -0.384614921829E+03   -0.52801E-04   -0.52538E-04  8736   0.221E-02 0.105E-04
CGA:  82    -0.384614990818E+03   -0.68989E-04   -0.69526E-04  8736   0.454E-03 0.319E-04
CGA:  83    -0.384615009241E+03   -0.18423E-04   -0.18505E-04  8736   0.465E-03 0.818E-05
CGA:  84    -0.384615028681E+03   -0.19440E-04   -0.19530E-04  8736   0.545E-03 0.840E-05
CGA:  85    -0.384615051441E+03   -0.22760E-04   -0.22953E-04  8736   0.583E-03 0.107E-04
CGA:  86    -0.384615074227E+03   -0.22786E-04   -0.22407E-04  8736   0.252E-03-0.372E-05
CGA:  87    -0.384615095904E+03   -0.21677E-04   -0.22726E-04  8736   0.998E-03-0.265E-04
CGA:  88    -0.384615115857E+03   -0.19953E-04   -0.20038E-04  8736   0.261E-03-0.131E-04
CGA:  89    -0.384615120882E+03   -0.50256E-05   -0.50568E-05  8736   0.230E-03-0.560E-05
CGA:  90    -0.384615133510E+03   -0.12628E-04   -0.12680E-04  8736   0.362E-03-0.873E-05
CGA:  91    -0.384615142576E+03   -0.90653E-05   -0.84328E-05  8736   0.341E-03-0.430E-06
CGA:  92    -0.384615155922E+03   -0.13346E-04   -0.13146E-04  8736   0.542E-03-0.161E-04
CGA:  93    -0.384615170407E+03   -0.14485E-04   -0.13341E-04  8736   0.320E-03 0.119E-04
CGA:  94    -0.384615176350E+03   -0.59433E-05   -0.51162E-05  8736   0.186E-03 0.326E-04
   1 F= -.38461518E+03 E0= -.38459399E+03  d E =-.384615E+03  mag=    34.0000
       N       E                     dE             d eps       ncg     rms          ort
SDA:   1    -0.384605659438E+03    0.95110E-02    0.00000E+00  8736   0.533E+00 0.000E+00
CGA:   2    -0.384612936822E+03   -0.72774E-02   -0.74143E-02  8736   0.406E-01-0.769E-02
CGA:   3    -0.384613940951E+03   -0.10041E-02   -0.10067E-02  8736   0.220E-01-0.266E-04
CGA:   4    -0.384615033694E+03   -0.10927E-02   -0.10951E-02  8736   0.140E-01-0.198E-03
CGA:   5    -0.384616173758E+03   -0.11401E-02   -0.11424E-02  8736   0.124E-01-0.555E-04
CGA:   6    -0.384616733731E+03   -0.55997E-03   -0.55995E-03  8736   0.102E-01 0.172E-04
CGA:   7    -0.384616968886E+03   -0.23515E-03   -0.23560E-03  8736   0.375E-02-0.150E-04
CGA:   8    -0.384617171557E+03   -0.20267E-03   -0.20271E-03  8736   0.518E-02-0.315E-05
CGA:   9    -0.384617359550E+03   -0.18799E-03   -0.18784E-03  8736   0.605E-03-0.154E-04
CGA:  10    -0.384617391414E+03   -0.31864E-04   -0.31850E-04  8736   0.735E-03 0.178E-05
CGA:  11    -0.384617412571E+03   -0.21157E-04   -0.21124E-04  8736   0.460E-03-0.226E-05
CGA:  12    -0.384617433700E+03   -0.21129E-04   -0.21140E-04  8736   0.250E-03-0.394E-05
CGA:  13    -0.384617441824E+03   -0.81248E-05   -0.81087E-05  8736   0.138E-03-0.153E-05
   2 F= -.38461744E+03 E0= -.38459605E+03  d E =-.226547E-02  mag=    34.0000
       N       E                     dE             d eps       ncg     rms          ort
SDA:   1    -0.339858401613E+03    0.44759E+02    0.00000E+00  8736   0.970E+03 0.000E+00
CGA:   2    -0.352316680296E+03   -0.12458E+02   -0.23769E+02  8736   0.441E+03-0.270E+03
CGA:   3    -0.359868847744E+03   -0.75522E+01   -0.86991E+01  8736   0.219E+03-0.593E+01
CGA:   4    -0.365103400739E+03   -0.52346E+01   -0.53043E+01  8736   0.162E+03-0.556E+01
CGA:   5    -0.369881027034E+03   -0.47776E+01   -0.35248E+01  8736   0.116E+03 0.171E+02
CGA:   6    -0.375358815010E+03   -0.54778E+01   -0.54708E+01  8736   0.903E+02 0.710E+00
CGA:   7    -0.380030703134E+03   -0.46719E+01   -0.45853E+01  8736   0.120E+03 0.551E+01
CGA:   8    -0.381578341752E+03   -0.15476E+01   -0.17948E+01  8736   0.674E+02-0.218E+02
CGA:   9    -0.382369464730E+03   -0.79112E+00   -0.63544E+00  8736   0.299E+02 0.992E+01
CGA:  10    -0.382792322334E+03   -0.42286E+00   -0.53220E+00  8736   0.267E+02-0.526E+01
CGA:  11    -0.383168180561E+03   -0.37586E+00   -0.36240E+00  8736   0.364E+02 0.389E+00
CGA:  12    -0.383752169465E+03   -0.58399E+00   -0.46557E+00  8736   0.146E+02 0.672E+01
CGA:  13    -0.383936756397E+03   -0.18459E+00   -0.18877E+00  8736   0.120E+02-0.410E+00
CGA:  14    -0.384119978783E+03   -0.18322E+00   -0.17425E+00  8736   0.137E+02 0.309E+00
CGA:  15    -0.384276710827E+03   -0.15673E+00   -0.19681E+00  8736   0.861E+01-0.170E+01
CGA:  16    -0.384371218473E+03   -0.94508E-01   -0.10116E+00  8736   0.650E+01-0.320E+00
CGA:  17    -0.384459686008E+03   -0.88468E-01   -0.78634E-01  8736   0.378E+01 0.498E+00
CGA:  18    -0.384513286673E+03   -0.53601E-01   -0.53294E-01  8736   0.286E+01 0.946E-02
CGA:  19    -0.384547633856E+03   -0.34347E-01   -0.36055E-01  8736   0.150E+01-0.883E-01
CGA:  20    -0.384570372492E+03   -0.22739E-01   -0.22784E-01  8736   0.213E+01-0.158E-02
CGA:  21    -0.384623470284E+03   -0.53098E-01   -0.53013E-01  8736   0.249E+01-0.128E-01
CGA:  22    -0.384654573391E+03   -0.31103E-01   -0.33035E-01  8736   0.180E+01-0.836E-01
CGA:  23    -0.384683842139E+03   -0.29269E-01   -0.30278E-01  8736   0.132E+01-0.465E-02
CGA:  24    -0.384701582352E+03   -0.17740E-01   -0.18002E-01  8736   0.608E+00-0.851E-02
CGA:  25    -0.384711513889E+03   -0.99315E-02   -0.10117E-01  8736   0.286E+00-0.479E-03
CGA:  26    -0.384716212116E+03   -0.46982E-02   -0.47466E-02  8736   0.290E+00-0.863E-04
CGA:  27    -0.384728472008E+03   -0.12260E-01   -0.11937E-01  8736   0.490E+00 0.175E-01
CGA:  28    -0.384737872739E+03   -0.94007E-02   -0.95219E-02  8736   0.299E+00 0.192E-02
CGA:  29    -0.384747099161E+03   -0.92264E-02   -0.91784E-02  8736   0.202E+00 0.622E-02
CGA:  30    -0.384751657697E+03   -0.45585E-02   -0.45845E-02  8736   0.134E+00 0.284E-02
CGA:  31    -0.384754558809E+03   -0.29011E-02   -0.29201E-02  8736   0.690E-01 0.157E-02
SDA:  32    -0.384758312699E+03   -0.37539E-02   -0.36878E-02  8736   0.119E+00 0.240E-02
CGA:  33    -0.384759833077E+03   -0.15204E-02   -0.15318E-02  8736   0.220E-01-0.428E-03
CGA:  34    -0.384761583236E+03   -0.17502E-02   -0.17188E-02  8736   0.514E-01 0.692E-03
CGA:  35    -0.384764518776E+03   -0.29355E-02   -0.29238E-02  8736   0.580E-01 0.437E-03
CGA:  36    -0.384767631556E+03   -0.31128E-02   -0.30929E-02  8736   0.174E-01 0.793E-03
CGA:  37    -0.384768611810E+03   -0.98025E-03   -0.97842E-03  8736   0.209E-01 0.735E-04
CGA:  38    -0.384769156077E+03   -0.54427E-03   -0.54566E-03  8736   0.167E-01 0.640E-04
CGA:  39    -0.384770620658E+03   -0.14646E-02   -0.14505E-02  8736   0.159E-01 0.284E-03
CGA:  40    -0.384771163739E+03   -0.54308E-03   -0.54319E-03  8736   0.112E-01 0.606E-04
CGA:  41    -0.384771964509E+03   -0.80077E-03   -0.79662E-03  8736   0.109E-01 0.114E-03
CGA:  42    -0.384772212906E+03   -0.24840E-03   -0.24915E-03  8736   0.624E-02 0.819E-06
CGA:  43    -0.384772629354E+03   -0.41645E-03   -0.41533E-03  8736   0.435E-02 0.359E-04
CGA:  44    -0.384772891297E+03   -0.26194E-03   -0.26074E-03  8736   0.543E-02 0.484E-04
CGA:  45    -0.384773048333E+03   -0.15704E-03   -0.15734E-03  8736   0.303E-02 0.208E-04
CGA:  46    -0.384773161246E+03   -0.11291E-03   -0.11292E-03  8736   0.197E-02 0.619E-05
CGA:  47    -0.384773246413E+03   -0.85167E-04   -0.85143E-04  8736   0.192E-02 0.473E-05
CGA:  48    -0.384773430878E+03   -0.18447E-03   -0.18422E-03  8736   0.228E-02 0.427E-05
CGA:  49    -0.384773469755E+03   -0.38877E-04   -0.39054E-04  8736   0.463E-03-0.558E-07
CGA:  50    -0.384773524923E+03   -0.55168E-04   -0.55549E-04  8736   0.117E-02-0.464E-05
CGA:  51    -0.384773565869E+03   -0.40946E-04   -0.40949E-04  8736   0.822E-03 0.964E-06
CGA:  52    -0.384773605294E+03   -0.39426E-04   -0.39445E-04  8736   0.946E-03-0.418E-05
CGA:  53    -0.384773630666E+03   -0.25371E-04   -0.25343E-04  8736   0.251E-03-0.145E-05
CGA:  54    -0.384773659071E+03   -0.28406E-04   -0.28734E-04  8736   0.673E-03-0.471E-05
CGA:  55    -0.384773680412E+03   -0.21341E-04   -0.21330E-04  8736   0.552E-03-0.453E-06
CGA:  56    -0.384773702339E+03   -0.21927E-04   -0.21911E-04  8736   0.254E-03-0.271E-05
CGA:  57    -0.384773716345E+03   -0.14006E-04   -0.13992E-04  8736   0.332E-03 0.144E-05
CGA:  58    -0.384773729677E+03   -0.13333E-04   -0.13323E-04  8736   0.196E-03-0.169E-05
CGA:  59    -0.384773736490E+03   -0.68125E-05   -0.68125E-05  8736   0.225E-03 0.352E-07
CGA:  60    -0.384773748510E+03   -0.12020E-04   -0.12036E-04  8736   0.133E-03-0.179E-05
CGA:  61    -0.384773759807E+03   -0.11296E-04   -0.11349E-04  8736   0.212E-03-0.133E-05
CGA:  62    -0.384773764052E+03   -0.42454E-05   -0.42112E-05  8736   0.536E-04-0.109E-05
   3 F= -.38477376E+03 E0= -.38475225E+03  d E =-.156322E+00  mag=    34.0000
       N       E                     dE             d eps       ncg     rms          ort
SDA:   1    -0.356348194363E+03    0.28426E+02    0.00000E+00  8736   0.202E+03 0.000E+00
CGA:   2    -0.361842261041E+03   -0.54941E+01   -0.65039E+01  8736   0.205E+03-0.372E+02
CGA:   3    -0.368386165461E+03   -0.65439E+01   -0.66600E+01  8736   0.176E+03 0.567E+01
CGA:   4    -0.372762509350E+03   -0.43763E+01   -0.50334E+01  8736   0.194E+03-0.330E+01
CGA:   5    -0.376514502807E+03   -0.37520E+01   -0.44119E+01  8736   0.133E+03-0.547E+02
CGA:   6    -0.379209211343E+03   -0.26947E+01   -0.22538E+01  8736   0.625E+02 0.127E+02
CGA:   7    -0.380606296538E+03   -0.13971E+01   -0.14944E+01  8736   0.570E+02-0.250E+01
CGA:   8    -0.382418595922E+03   -0.18123E+01   -0.16880E+01  8736   0.413E+02-0.116E+01
CGA:   9    -0.382929515791E+03   -0.51092E+00   -0.49152E+00  8736   0.240E+02 0.505E+00
CGA:  10    -0.383421665478E+03   -0.49215E+00   -0.40777E+00  8736   0.281E+02 0.373E+01
CGA:  11    -0.383925373607E+03   -0.50371E+00   -0.51864E+00  8736   0.214E+02-0.981E+00
CGA:  12    -0.384102971414E+03   -0.17760E+00   -0.16228E+00  8736   0.666E+01 0.154E+01
CGA:  13    -0.384189413084E+03   -0.86442E-01   -0.86467E-01  8736   0.893E+01-0.176E-01
CGA:  14    -0.384371194912E+03   -0.18178E+00   -0.17967E+00  8736   0.110E+02-0.312E-01
CGA:  15    -0.384447988910E+03   -0.76794E-01   -0.80394E-01  8736   0.424E+01-0.579E+00
CGA:  16    -0.384491580456E+03   -0.43592E-01   -0.39505E-01  8736   0.479E+01 0.322E+00
CGA:  17    -0.384555657969E+03   -0.64078E-01   -0.50859E-01  8736   0.628E+01 0.104E+01
CGA:  18    -0.384622063044E+03   -0.66405E-01   -0.65982E-01  8736   0.455E+01-0.266E-01
CGA:  19    -0.384648815221E+03   -0.26752E-01   -0.26484E-01  8736   0.251E+01 0.205E-01
CGA:  20    -0.384668258418E+03   -0.19443E-01   -0.20072E-01  8736   0.313E+01-0.718E-01
CGA:  21    -0.384703724018E+03   -0.35466E-01   -0.39750E-01  8736   0.552E+01-0.188E+00
CGA:  22    -0.384746419721E+03   -0.42696E-01   -0.42058E-01  8736   0.361E+01 0.302E-01
CGA:  23    -0.384770797379E+03   -0.24378E-01   -0.22694E-01  8736   0.220E+01 0.204E+00
CGA:  24    -0.384788403443E+03   -0.17606E-01   -0.18009E-01  8736   0.197E+01-0.425E-01
CGA:  25    -0.384803988975E+03   -0.15586E-01   -0.16277E-01  8736   0.181E+01-0.595E-01
CGA:  26    -0.384817161888E+03   -0.13173E-01   -0.14515E-01  8736   0.152E+01-0.119E+00
CGA:  27    -0.384829188510E+03   -0.12027E-01   -0.13994E-01  8736   0.104E+01-0.117E+00
CGA:  28    -0.384836790567E+03   -0.76021E-02   -0.77950E-02  8736   0.581E+00-0.172E-01
CGA:  29    -0.384844052017E+03   -0.72614E-02   -0.74026E-02  8736   0.791E+00-0.237E-02
CGA:  30    -0.384855478759E+03   -0.11427E-01   -0.11499E-01  8736   0.773E+00 0.918E-03
CGA:  31    -0.384862882364E+03   -0.74036E-02   -0.78711E-02  8736   0.385E+00-0.218E-01
SDA:  32    -0.384868528601E+03   -0.56462E-02   -0.56875E-02  8736   0.509E+00 0.174E-02
CGA:  33    -0.384875937995E+03   -0.74094E-02   -0.74086E-02  8736   0.135E+00 0.669E-04
CGA:  34    -0.384879937364E+03   -0.39994E-02   -0.39684E-02  8736   0.885E-01 0.262E-02
CGA:  35    -0.384886609711E+03   -0.66723E-02   -0.66658E-02  8736   0.252E+00 0.132E-03
CGA:  36    -0.384899617652E+03   -0.13008E-01   -0.12322E-01  8736   0.420E-01 0.257E-01
CGA:  37    -0.384902095099E+03   -0.24774E-02   -0.24391E-02  8736   0.667E-01 0.138E-02
CGA:  38    -0.384904259525E+03   -0.21644E-02   -0.21782E-02  8736   0.254E-01-0.152E-02
CGA:  39    -0.384905136805E+03   -0.87728E-03   -0.87443E-03  8736   0.388E-01 0.243E-03
CGA:  40    -0.384907117548E+03   -0.19807E-02   -0.19670E-02  8736   0.272E-01 0.551E-03
CGA:  41    -0.384909337374E+03   -0.22198E-02   -0.21164E-02  8736   0.361E-01 0.231E-02
CGA:  42    -0.384910452344E+03   -0.11150E-02   -0.11153E-02  8736   0.875E-02 0.143E-03
CGA:  43    -0.384910985687E+03   -0.53334E-03   -0.53106E-03  8736   0.786E-02 0.738E-04
CGA:  44    -0.384911847648E+03   -0.86196E-03   -0.86626E-03  8736   0.169E-01-0.744E-04
CGA:  45    -0.384912186418E+03   -0.33877E-03   -0.34241E-03  8736   0.522E-02-0.574E-04
CGA:  46    -0.384912487643E+03   -0.30123E-03   -0.30030E-03  8736   0.816E-02 0.378E-04
CGA:  47    -0.384912882456E+03   -0.39481E-03   -0.39425E-03  8736   0.368E-02 0.414E-04
CGA:  48    -0.384913183795E+03   -0.30134E-03   -0.29939E-03  8736   0.232E-02 0.447E-04
CGA:  49    -0.384913315203E+03   -0.13141E-03   -0.13116E-03  8736   0.312E-02 0.134E-04
CGA:  50    -0.384913481703E+03   -0.16650E-03   -0.16636E-03  8736   0.263E-02 0.102E-04
CGA:  51    -0.384913554404E+03   -0.72701E-04   -0.72779E-04  8736   0.161E-02 0.231E-05
CGA:  52    -0.384913611636E+03   -0.57233E-04   -0.57271E-04  8736   0.832E-03 0.983E-05
CGA:  53    -0.384913725123E+03   -0.11349E-03   -0.11319E-03  8736   0.137E-02 0.339E-05
CGA:  54    -0.384913785738E+03   -0.60615E-04   -0.60615E-04  8736   0.108E-02 0.478E-05
CGA:  55    -0.384913839141E+03   -0.53402E-04   -0.53405E-04  8736   0.525E-03-0.378E-06
CGA:  56    -0.384913858656E+03   -0.19516E-04   -0.19520E-04  8736   0.824E-03 0.135E-05
CGA:  57    -0.384913908468E+03   -0.49811E-04   -0.49891E-04  8736   0.526E-03-0.443E-05
CGA:  58    -0.384913935336E+03   -0.26869E-04   -0.26897E-04  8736   0.478E-03-0.391E-05
CGA:  59    -0.384913960110E+03   -0.24774E-04   -0.24778E-04  8736   0.388E-03-0.483E-06
CGA:  60    -0.384913982503E+03   -0.22392E-04   -0.22386E-04  8736   0.323E-03 0.570E-06
CGA:  61    -0.384913990875E+03   -0.83721E-05   -0.83343E-05  8736   0.243E-03-0.159E-05
CGA:  62    -0.384914005771E+03   -0.14897E-04   -0.14921E-04  8736   0.188E-03-0.143E-05
SDA:  63    -0.384914017688E+03   -0.11916E-04   -0.11962E-04  8736   0.286E-03-0.254E-05
CGA:  64    -0.384914023341E+03   -0.56536E-05   -0.56994E-05  8736   0.616E-04 0.150E-05
   4 F= -.38491402E+03 E0= -.38489272E+03  d E =-.140259E+00  mag=    34.0000
       N       E                     dE             d eps       ncg     rms          ort
SDA:   1    -0.367944325956E+03    0.16970E+02    0.00000E+00  8736   0.905E+02 0.000E+00
CGA:   2    -0.370828455723E+03   -0.28841E+01   -0.30849E+01  8736   0.106E+03-0.471E+01
CGA:   3    -0.375664470961E+03   -0.48360E+01   -0.48239E+01  8736   0.105E+03 0.269E+01
CGA:   4    -0.379028947268E+03   -0.33645E+01   -0.35314E+01  8736   0.849E+02 0.213E+01
CGA:   5    -0.381068893577E+03   -0.20399E+01   -0.22391E+01  8736   0.400E+02-0.670E+01
CGA:   6    -0.381914090889E+03   -0.84520E+00   -0.73303E+00  8736   0.330E+02 0.383E+01
CGA:   7    -0.382830459354E+03   -0.91637E+00   -0.99617E+00  8736   0.498E+02-0.550E+00
CGA:   8    -0.383924227204E+03   -0.10938E+01   -0.10047E+01  8736   0.138E+02 0.216E+01
CGA:   9    -0.384266755781E+03   -0.34253E+00   -0.29621E+00  8736   0.118E+02 0.998E+00
CGA:  10    -0.384498853376E+03   -0.23210E+00   -0.23751E+00  8736   0.710E+01-0.253E+00
CGA:  11    -0.384584481863E+03   -0.85628E-01   -0.95563E-01  8736   0.362E+01-0.553E+00
CGA:  12    -0.384696843858E+03   -0.11236E+00   -0.11228E+00  8736   0.536E+01-0.740E-02
CGA:  13    -0.384798587741E+03   -0.10174E+00   -0.91232E-01  8736   0.247E+01 0.357E+00
CGA:  14    -0.384838119431E+03   -0.39532E-01   -0.42168E-01  8736   0.146E+01-0.979E-01
CGA:  15    -0.384884733672E+03   -0.46614E-01   -0.46750E-01  8736   0.213E+01 0.313E-01
CGA:  16    -0.384919037265E+03   -0.34304E-01   -0.35037E-01  8736   0.779E+00-0.278E-01
CGA:  17    -0.384945800619E+03   -0.26763E-01   -0.26752E-01  8736   0.910E+00 0.123E-01
CGA:  18    -0.384963957134E+03   -0.18157E-01   -0.18963E-01  8736   0.277E+00-0.876E-02
CGA:  19    -0.384972353746E+03   -0.83966E-02   -0.83935E-02  8736   0.308E+00-0.347E-03
CGA:  20    -0.384984268702E+03   -0.11915E-01   -0.11846E-01  8736   0.186E+00 0.863E-02
CGA:  21    -0.384991197929E+03   -0.69292E-02   -0.68973E-02  8736   0.207E+00 0.770E-02
CGA:  22    -0.384997411876E+03   -0.62139E-02   -0.61853E-02  8736   0.858E-01-0.185E-02
CGA:  23    -0.384999980450E+03   -0.25686E-02   -0.25764E-02  8736   0.875E-01 0.948E-03
CGA:  24    -0.385004237836E+03   -0.42574E-02   -0.42121E-02  8736   0.419E-01 0.253E-02
CGA:  25    -0.385006457273E+03   -0.22194E-02   -0.22019E-02  8736   0.472E-01 0.854E-03
CGA:  26    -0.385008101691E+03   -0.16444E-02   -0.16447E-02  8736   0.292E-01 0.154E-03
CGA:  27    -0.385009822364E+03   -0.17207E-02   -0.17136E-02  8736   0.482E-01 0.271E-03
CGA:  28    -0.385011058499E+03   -0.12361E-02   -0.12480E-02  8736   0.176E-01 0.135E-03
CGA:  29    -0.385012088118E+03   -0.10296E-02   -0.10284E-02  8736   0.146E-01 0.525E-04
CGA:  30    -0.385012681767E+03   -0.59365E-03   -0.59332E-03  8736   0.154E-01 0.609E-04
CGA:  31    -0.385013759454E+03   -0.10777E-02   -0.10680E-02  8736   0.970E-02 0.285E-03
SDA:  32    -0.385014184707E+03   -0.42525E-03   -0.42505E-03  8736   0.977E-02 0.318E-04
CGA:  33    -0.385014347798E+03   -0.16309E-03   -0.16322E-03  8736   0.248E-02 0.123E-04
CGA:  34    -0.385014508037E+03   -0.16024E-03   -0.16022E-03  8736   0.705E-02 0.637E-06
CGA:  35    -0.385014979235E+03   -0.47120E-03   -0.47077E-03  8736   0.367E-02 0.142E-04
CGA:  36    -0.385015181440E+03   -0.20220E-03   -0.20203E-03  8736   0.197E-02 0.106E-04
CGA:  37    -0.385015391754E+03   -0.21031E-03   -0.21072E-03  8736   0.125E-02-0.624E-05
CGA:  38    -0.385015464455E+03   -0.72701E-04   -0.72742E-04  8736   0.176E-02-0.345E-05
CGA:  39    -0.385015554679E+03   -0.90224E-04   -0.90173E-04  8736   0.138E-02 0.563E-05
CGA:  40    -0.385015679853E+03   -0.12517E-03   -0.12490E-03  8736   0.260E-02 0.584E-05
CGA:  41    -0.385015731590E+03   -0.51738E-04   -0.51875E-04  8736   0.717E-03-0.606E-05
CGA:  42    -0.385015818813E+03   -0.87223E-04   -0.86915E-04  8736   0.849E-03 0.421E-05
CGA:  43    -0.385015863980E+03   -0.45167E-04   -0.45159E-04  8736   0.515E-03 0.295E-05
CGA:  44    -0.385015878478E+03   -0.14498E-04   -0.14531E-04  8736   0.467E-03 0.181E-05
CGA:  45    -0.385015917049E+03   -0.38571E-04   -0.38563E-04  8736   0.753E-03 0.356E-08
CGA:  46    -0.385015938820E+03   -0.21771E-04   -0.21789E-04  8736   0.219E-03 0.213E-05
CGA:  47    -0.385015958678E+03   -0.19858E-04   -0.19857E-04  8736   0.241E-03-0.460E-07
CGA:  48    -0.385015968862E+03   -0.10184E-04   -0.10207E-04  8736   0.375E-03 0.259E-05
CGA:  49    -0.385015983575E+03   -0.14714E-04   -0.14747E-04  8736   0.166E-03 0.227E-05
CGA:  50    -0.385015993444E+03   -0.98685E-05   -0.98539E-05  8736   0.853E-04 0.173E-05
   5 F= -.38501599E+03 E0= -.38499504E+03  d E =-.101970E+00  mag=    34.0000
       N       E                     dE             d eps       ncg     rms          ort
SDA:   1    -0.382242642551E+03    0.27733E+01    0.00000E+00  8736   0.122E+02 0.000E+00
CGA:   2    -0.382719478617E+03   -0.47684E+00   -0.48589E+00  8736   0.186E+02 0.744E-01
CGA:   3    -0.383726439133E+03   -0.10070E+01   -0.10062E+01  8736   0.190E+02 0.140E+00
CGA:   4    -0.384262360905E+03   -0.53592E+00   -0.54963E+00  8736   0.720E+01-0.120E+00
CGA:   5    -0.384559748067E+03   -0.29739E+00   -0.30029E+00  8736   0.337E+01 0.112E+00
CGA:   6    -0.384954801791E+03   -0.39505E+00   -0.39213E+00  8736   0.227E+01 0.479E-01
CGA:   7    -0.384992637001E+03   -0.37835E-01   -0.38859E-01  8736   0.620E+00-0.489E-01
CGA:   8    -0.385025651645E+03   -0.33015E-01   -0.32962E-01  8736   0.511E+00 0.838E-02
CGA:   9    -0.385050700820E+03   -0.25049E-01   -0.25032E-01  8736   0.487E+00-0.284E-02
CGA:  10    -0.385067501774E+03   -0.16801E-01   -0.16707E-01  8736   0.148E+00-0.103E-03
CGA:  11    -0.385071255481E+03   -0.37537E-02   -0.37930E-02  8736   0.100E+00-0.650E-03
CGA:  12    -0.385075975511E+03   -0.47200E-02   -0.47228E-02  8736   0.493E-01 0.939E-03
CGA:  13    -0.385079637517E+03   -0.36620E-02   -0.36643E-02  8736   0.468E-01-0.829E-04
CGA:  14    -0.385080712415E+03   -0.10749E-02   -0.10732E-02  8736   0.259E-01 0.252E-04
CGA:  15    -0.385082158340E+03   -0.14459E-02   -0.14433E-02  8736   0.124E-01 0.237E-03
CGA:  16    -0.385082996637E+03   -0.83830E-03   -0.83898E-03  8736   0.107E-01-0.264E-04
CGA:  17    -0.385083242673E+03   -0.24604E-03   -0.24638E-03  8736   0.664E-02 0.106E-04
CGA:  18    -0.385083838097E+03   -0.59542E-03   -0.59492E-03  8736   0.595E-02 0.873E-05
CGA:  19    -0.385084109281E+03   -0.27118E-03   -0.27126E-03  8736   0.552E-02 0.116E-04
CGA:  20    -0.385084309479E+03   -0.20020E-03   -0.20019E-03  8736   0.335E-02 0.768E-05
CGA:  21    -0.385084446749E+03   -0.13727E-03   -0.13739E-03  8736   0.459E-02 0.101E-04
CGA:  22    -0.385084693223E+03   -0.24647E-03   -0.24644E-03  8736   0.271E-02 0.235E-05
CGA:  23    -0.385084905829E+03   -0.21261E-03   -0.21249E-03  8736   0.234E-02 0.408E-05
CGA:  24    -0.385084958588E+03   -0.52759E-04   -0.52671E-04  8736   0.141E-02-0.116E-05
CGA:  25    -0.385085084190E+03   -0.12560E-03   -0.12531E-03  8736   0.124E-02 0.698E-05
CGA:  26    -0.385085160546E+03   -0.76356E-04   -0.76377E-04  8736   0.111E-02-0.122E-05
CGA:  27    -0.385085185000E+03   -0.24454E-04   -0.24534E-04  8736   0.558E-03 0.275E-05
CGA:  28    -0.385085234402E+03   -0.49402E-04   -0.49411E-04  8736   0.494E-03-0.511E-06
CGA:  29    -0.385085263654E+03   -0.29252E-04   -0.29246E-04  8736   0.478E-03 0.713E-06
CGA:  30    -0.385085275053E+03   -0.11399E-04   -0.11353E-04  8736   0.219E-03-0.153E-05
CGA:  31    -0.385085288910E+03   -0.13857E-04   -0.13840E-04  8736   0.337E-03 0.126E-05
SDA:  32    -0.385085303989E+03   -0.15079E-04   -0.15083E-04  8736   0.224E-03 0.296E-06
CGA:  33    -0.385085309733E+03   -0.57439E-05   -0.57149E-05  8736   0.100E-03-0.127E-05
   6 F= -.38508531E+03 E0= -.38506448E+03  d E =-.693163E-01  mag=    34.0000
       N       E                     dE             d eps       ncg     rms          ort
SDA:   1    -0.370763973831E+03    0.14321E+02    0.00000E+00  8736   0.578E+02 0.000E+00
CGA:   2    -0.373709321264E+03   -0.29453E+01   -0.29327E+01  8736   0.814E+02 0.525E+01
CGA:   3    -0.378424916091E+03   -0.47156E+01   -0.47686E+01  8736   0.917E+02-0.729E+01
CGA:   4    -0.381418984009E+03   -0.29941E+01   -0.28057E+01  8736   0.399E+02 0.228E+00
CGA:   5    -0.382481631808E+03   -0.10626E+01   -0.99711E+00  8736   0.171E+02 0.110E+01
CGA:   6    -0.383838980815E+03   -0.13573E+01   -0.13627E+01  8736   0.396E+02-0.129E+00
CGA:   7    -0.384661018026E+03   -0.82204E+00   -0.80069E+00  8736   0.537E+01 0.428E+00
CGA:   8    -0.384792084088E+03   -0.13107E+00   -0.13277E+00  8736   0.262E+01-0.304E-01
CGA:   9    -0.384909395062E+03   -0.11731E+00   -0.11749E+00  8736   0.292E+01 0.571E-01
CGA:  10    -0.385021692707E+03   -0.11230E+00   -0.11267E+00  8736   0.288E+01 0.120E-01
CGA:  11    -0.385099067518E+03   -0.77375E-01   -0.75984E-01  8736   0.610E+00 0.120E-01
CGA:  12    -0.385128030257E+03   -0.28963E-01   -0.28953E-01  8736   0.556E+00 0.255E-02
CGA:  13    -0.385140184748E+03   -0.12154E-01   -0.12480E-01  8736   0.283E+00-0.723E-02
CGA:  14    -0.385159194818E+03   -0.19010E-01   -0.18505E-01  8736   0.329E+00 0.185E-01
CGA:  15    -0.385168878600E+03   -0.96838E-02   -0.96696E-02  8736   0.960E-01 0.180E-03
CGA:  16    -0.385175485247E+03   -0.66066E-02   -0.65326E-02  8736   0.181E+00 0.259E-02
CGA:  17    -0.385179601522E+03   -0.41163E-02   -0.41222E-02  8736   0.422E-01-0.473E-06
CGA:  18    -0.385182205066E+03   -0.26035E-02   -0.25945E-02  8736   0.445E-01 0.418E-03
CGA:  19    -0.385184106560E+03   -0.19015E-02   -0.19019E-02  8736   0.463E-01 0.763E-04
CGA:  20    -0.385185779050E+03   -0.16725E-02   -0.16769E-02  8736   0.321E-01 0.133E-03
CGA:  21    -0.385187062252E+03   -0.12832E-02   -0.12832E-02  8736   0.263E-01 0.209E-04
CGA:  22    -0.385188432638E+03   -0.13704E-02   -0.13680E-02  8736   0.139E-01 0.206E-03
CGA:  23    -0.385189011769E+03   -0.57913E-03   -0.57936E-03  8736   0.222E-01 0.434E-04
CGA:  24    -0.385190187561E+03   -0.11758E-02   -0.11757E-02  8736   0.133E-01 0.118E-04
CGA:  25    -0.385190851639E+03   -0.66408E-03   -0.66350E-03  8736   0.106E-01 0.743E-04
CGA:  26    -0.385191244374E+03   -0.39273E-03   -0.39277E-03  8736   0.910E-02 0.374E-05
CGA:  27    -0.385191668018E+03   -0.42364E-03   -0.42359E-03  8736   0.100E-01 0.271E-04
CGA:  28    -0.385192032917E+03   -0.36490E-03   -0.36530E-03  8736   0.422E-02 0.139E-04
CGA:  29    -0.385192282605E+03   -0.24969E-03   -0.24931E-03  8736   0.323E-02 0.211E-04
CGA:  30    -0.385192385154E+03   -0.10255E-03   -0.10253E-03  8736   0.352E-02-0.372E-05
CGA:  31    -0.385192666756E+03   -0.28160E-03   -0.28128E-03  8736   0.269E-02 0.909E-05
SDA:  32    -0.385192735899E+03   -0.69143E-04   -0.69200E-04  8736   0.830E-03 0.917E-06
CGA:  33    -0.385192763783E+03   -0.27884E-04   -0.27875E-04  8736   0.111E-02-0.933E-06
CGA:  34    -0.385192843187E+03   -0.79404E-04   -0.79671E-04  8736   0.174E-02-0.985E-05
CGA:  35    -0.385192905238E+03   -0.62050E-04   -0.62060E-04  8736   0.108E-02 0.111E-05
CGA:  36    -0.385192971032E+03   -0.65795E-04   -0.65813E-04  8736   0.477E-03-0.164E-05
CGA:  37    -0.385193013916E+03   -0.42884E-04   -0.43171E-04  8736   0.464E-03-0.656E-05
CGA:  38    -0.385193069054E+03   -0.55138E-04   -0.55314E-04  8736   0.272E-03-0.257E-05
CGA:  39    -0.385193092147E+03   -0.23093E-04   -0.23255E-04  8736   0.392E-03-0.483E-05
CGA:  40    -0.385193101636E+03   -0.94883E-05   -0.94913E-05  8736   0.269E-03 0.185E-06
CGA:  41    -0.385193125560E+03   -0.23925E-04   -0.23974E-04  8736   0.262E-03-0.144E-05
CGA:  42    -0.385193132602E+03   -0.70419E-05   -0.70134E-05  8736   0.939E-04-0.114E-05
CGA:  43    -0.385193145501E+03   -0.12899E-04   -0.12849E-04  8736   0.961E-04 0.556E-06
CGA:  44    -0.385193149320E+03   -0.38192E-05   -0.38215E-05  8736   0.139E-03 0.506E-07
   7 F= -.38519315E+03 E0= -.38517266E+03  d E =-.107840E+00  mag=    34.0000
       N       E                     dE             d eps       ncg     rms          ort
SDA:   1    -0.370607175876E+03    0.14586E+02    0.00000E+00  8736   0.561E+02 0.000E+00
CGA:   2    -0.373304293547E+03   -0.26971E+01   -0.27681E+01  8736   0.102E+03 0.361E+01
CGA:   3    -0.378544890748E+03   -0.52406E+01   -0.52621E+01  8736   0.820E+02 0.120E+01
CGA:   4    -0.381225713622E+03   -0.26808E+01   -0.27282E+01  8736   0.413E+02 0.534E+00
CGA:   5    -0.382569311772E+03   -0.13436E+01   -0.14740E+01  8736   0.208E+02-0.213E+00
CGA:   6    -0.383751529093E+03   -0.11822E+01   -0.11801E+01  8736   0.339E+02 0.305E+00
CGA:   7    -0.384622267695E+03   -0.87074E+00   -0.72132E+00  8736   0.574E+01 0.484E+01
CGA:   8    -0.384784281100E+03   -0.16201E+00   -0.16945E+00  8736   0.439E+01-0.133E+00
CGA:   9    -0.384954168367E+03   -0.16989E+00   -0.17203E+00  8736   0.303E+01 0.516E-01
CGA:  10    -0.385068080846E+03   -0.11391E+00   -0.11443E+00  8736   0.306E+01 0.801E-02
CGA:  11    -0.385150796623E+03   -0.82716E-01   -0.79392E-01  8736   0.757E+00 0.519E-01
CGA:  12    -0.385180127652E+03   -0.29331E-01   -0.29586E-01  8736   0.839E+00 0.737E-02
CGA:  13    -0.385206377037E+03   -0.26249E-01   -0.26786E-01  8736   0.457E+00 0.578E-03
CGA:  14    -0.385225380791E+03   -0.19004E-01   -0.19132E-01  8736   0.534E+00 0.109E-01
CGA:  15    -0.385241532942E+03   -0.16152E-01   -0.15844E-01  8736   0.120E+00 0.154E-02
CGA:  16    -0.385247234328E+03   -0.57014E-02   -0.56990E-02  8736   0.152E+00 0.666E-03
CGA:  17    -0.385252089176E+03   -0.48548E-02   -0.48935E-02  8736   0.951E-01 0.281E-03
CGA:  18    -0.385257134391E+03   -0.50452E-02   -0.50212E-02  8736   0.853E-01 0.196E-02
CGA:  19    -0.385259427682E+03   -0.22933E-02   -0.22927E-02  8736   0.333E-01 0.543E-04
CGA:  20    -0.385261896796E+03   -0.24691E-02   -0.24514E-02  8736   0.423E-01 0.523E-03
CGA:  21    -0.385263071560E+03   -0.11748E-02   -0.11803E-02  8736   0.265E-01-0.169E-04
CGA:  22    -0.385264648538E+03   -0.15770E-02   -0.15756E-02  8736   0.255E-01 0.692E-04
CGA:  23    -0.385265537839E+03   -0.88930E-03   -0.88991E-03  8736   0.210E-01 0.429E-04
CGA:  24    -0.385266740114E+03   -0.12023E-02   -0.11997E-02  8736   0.155E-01 0.157E-03
CGA:  25    -0.385267338921E+03   -0.59881E-03   -0.59894E-03  8736   0.173E-01 0.130E-04
CGA:  26    -0.385268072787E+03   -0.73387E-03   -0.73368E-03  8736   0.848E-02-0.272E-04
CGA:  27    -0.385268561767E+03   -0.48898E-03   -0.48837E-03  8736   0.143E-01 0.403E-04
CGA:  28    -0.385269128453E+03   -0.56669E-03   -0.56742E-03  8736   0.594E-02 0.427E-04
CGA:  29    -0.385269365582E+03   -0.23713E-03   -0.23714E-03  8736   0.584E-02 0.350E-05
CGA:  30    -0.385269570859E+03   -0.20528E-03   -0.20515E-03  8736   0.321E-02-0.193E-05
CGA:  31    -0.385269823389E+03   -0.25253E-03   -0.25167E-03  8736   0.446E-02 0.246E-04
SDA:  32    -0.385269950949E+03   -0.12756E-03   -0.12763E-03  8736   0.216E-02-0.299E-05
CGA:  33    -0.385270004370E+03   -0.53422E-04   -0.53460E-04  8736   0.134E-02 0.145E-05
CGA:  34    -0.385270057744E+03   -0.53374E-04   -0.53329E-04  8736   0.129E-02-0.728E-05
CGA:  35    -0.385270198984E+03   -0.14124E-03   -0.14174E-03  8736   0.231E-02-0.731E-05
CGA:  36    -0.385270276330E+03   -0.77346E-04   -0.77332E-04  8736   0.875E-03-0.159E-05
CGA:  37    -0.385270334967E+03   -0.58637E-04   -0.58772E-04  8736   0.516E-03-0.686E-05
CGA:  38    -0.385270368209E+03   -0.33242E-04   -0.33187E-04  8736   0.138E-02 0.302E-05
CGA:  39    -0.385270415241E+03   -0.47032E-04   -0.47053E-04  8736   0.284E-03 0.537E-06
CGA:  40    -0.385270465523E+03   -0.50281E-04   -0.50815E-04  8736   0.413E-03-0.407E-05
CGA:  41    -0.385270476303E+03   -0.10780E-04   -0.10731E-04  8736   0.290E-03-0.138E-05
CGA:  42    -0.385270492630E+03   -0.16327E-04   -0.16328E-04  8736   0.378E-03-0.365E-06
CGA:  43    -0.385270512181E+03   -0.19551E-04   -0.19545E-04  8736   0.304E-03-0.410E-05
CGA:  44    -0.385270523032E+03   -0.10851E-04   -0.10836E-04  8736   0.907E-04-0.902E-06
CGA:  45    -0.385270533847E+03   -0.10815E-04   -0.10924E-04  8736   0.345E-03-0.164E-05
CGA:  46    -0.385270542098E+03   -0.82511E-05   -0.82696E-05  8736   0.993E-04 0.100E-05
   8 F= -.38527054E+03 E0= -.38525035E+03  d E =-.773928E-01  mag=    34.0000
       N       E                     dE             d eps       ncg     rms          ort
SDA:   1    -0.375081559040E+03    0.10189E+02    0.00000E+00  8736   0.326E+02 0.000E+00
CGA:   2    -0.377812729892E+03   -0.27312E+01   -0.28753E+01  8736   0.113E+03-0.375E+01
CGA:   3    -0.381587713983E+03   -0.37750E+01   -0.38275E+01  8736   0.306E+02 0.353E+00
CGA:   4    -0.382903164565E+03   -0.13155E+01   -0.11920E+01  8736   0.245E+02-0.297E+01
CGA:   5    -0.383666793590E+03   -0.76363E+00   -0.84210E+00  8736   0.215E+02 0.108E+00
CGA:   6    -0.384474275975E+03   -0.80748E+00   -0.78015E+00  8736   0.180E+02 0.790E-01
CGA:   7    -0.384981031439E+03   -0.50676E+00   -0.44022E+00  8736   0.245E+01 0.160E+01
CGA:   8    -0.385049204461E+03   -0.68173E-01   -0.66818E-01  8736   0.195E+01 0.303E-01
CGA:   9    -0.385163132115E+03   -0.11393E+00   -0.11360E+00  8736   0.229E+01 0.287E-01
CGA:  10    -0.385231188122E+03   -0.68056E-01   -0.67414E-01  8736   0.132E+01 0.867E-02
CGA:  11    -0.385281088813E+03   -0.49901E-01   -0.49938E-01  8736   0.434E+00 0.167E-02
CGA:  12    -0.385291412396E+03   -0.10324E-01   -0.10228E-01  8736   0.223E+00 0.234E-02
CGA:  13    -0.385301613293E+03   -0.10201E-01   -0.10205E-01  8736   0.230E+00 0.762E-03
CGA:  14    -0.385312110802E+03   -0.10498E-01   -0.10508E-01  8736   0.280E+00 0.240E-02
CGA:  15    -0.385321681906E+03   -0.95711E-02   -0.95972E-02  8736   0.771E-01 0.245E-03
CGA:  16    -0.385323836338E+03   -0.21544E-02   -0.21387E-02  8736   0.570E-01 0.177E-03
CGA:  17    -0.385326257614E+03   -0.24213E-02   -0.24193E-02  8736   0.409E-01-0.249E-03
CGA:  18    -0.385327754105E+03   -0.14965E-02   -0.15004E-02  8736   0.368E-01 0.125E-03
CGA:  19    -0.385329185143E+03   -0.14310E-02   -0.14324E-02  8736   0.223E-01 0.938E-04
CGA:  20    -0.385330321603E+03   -0.11365E-02   -0.11359E-02  8736   0.365E-01 0.588E-04
CGA:  21    -0.385331543396E+03   -0.12218E-02   -0.12218E-02  8736   0.154E-01-0.131E-04
CGA:  22    -0.385332132735E+03   -0.58934E-03   -0.59057E-03  8736   0.150E-01 0.728E-04
CGA:  23    -0.385332700480E+03   -0.56775E-03   -0.56820E-03  8736   0.734E-02 0.438E-04
CGA:  24    -0.385333218343E+03   -0.51786E-03   -0.51663E-03  8736   0.194E-01 0.435E-04
CGA:  25    -0.385334019912E+03   -0.80157E-03   -0.80158E-03  8736   0.113E-01-0.847E-05
CGA:  26    -0.385334394108E+03   -0.37420E-03   -0.37414E-03  8736   0.713E-02 0.919E-06
CGA:  27    -0.385334625774E+03   -0.23167E-03   -0.23160E-03  8736   0.360E-02 0.877E-05
CGA:  28    -0.385334884435E+03   -0.25866E-03   -0.25815E-03  8736   0.581E-02 0.170E-04
CGA:  29    -0.385335076744E+03   -0.19231E-03   -0.19236E-03  8736   0.376E-02 0.172E-05
CGA:  30    -0.385335253580E+03   -0.17684E-03   -0.17686E-03  8736   0.328E-02-0.935E-05
CGA:  31    -0.385335338498E+03   -0.84917E-04   -0.85011E-04  8736   0.148E-02 0.484E-05
SDA:  32    -0.385335432840E+03   -0.94343E-04   -0.94129E-04  8736   0.184E-02 0.100E-04
CGA:  33    -0.385335487353E+03   -0.54513E-04   -0.54408E-04  8736   0.752E-03-0.595E-05
CGA:  34    -0.385335530750E+03   -0.43397E-04   -0.43390E-04  8736   0.833E-03 0.247E-06
CGA:  35    -0.385335610725E+03   -0.79974E-04   -0.79927E-04  8736   0.117E-02 0.763E-06
CGA:  36    -0.385335640250E+03   -0.29526E-04   -0.29539E-04  8736   0.772E-03 0.757E-06
CGA:  37    -0.385335684930E+03   -0.44679E-04   -0.44767E-04  8736   0.303E-03-0.756E-05
CGA:  38    -0.385335730829E+03   -0.45900E-04   -0.45991E-04  8736   0.403E-03-0.752E-06
CGA:  39    -0.385335755760E+03   -0.24931E-04   -0.24978E-04  8736   0.407E-03-0.463E-05
CGA:  40    -0.385335766438E+03   -0.10678E-04   -0.10666E-04  8736   0.270E-03-0.107E-06
CGA:  41    -0.385335782318E+03   -0.15881E-04   -0.15899E-04  8736   0.222E-03-0.256E-05
CGA:  42    -0.385335794933E+03   -0.12614E-04   -0.12625E-04  8736   0.254E-03-0.181E-05
CGA:  43    -0.385335805322E+03   -0.10389E-04   -0.10392E-04  8736   0.630E-04 0.275E-06
CGA:  44    -0.385335815313E+03   -0.99909E-05   -0.99260E-05  8736   0.161E-03 0.588E-06
   9 F= -.38533582E+03 E0= -.38531583E+03  d E =-.652732E-01  mag=    34.0000
       N       E                     dE             d eps       ncg     rms          ort
SDA:   1    -0.372812346542E+03    0.12523E+02    0.00000E+00  8736   0.428E+03 0.000E+00
CGA:   2    -0.374612010165E+03   -0.17997E+01   -0.10546E+02  8736   0.265E+03-0.246E+03
CGA:   3    -0.378952369629E+03   -0.43404E+01   -0.42531E+01  8736   0.260E+02-0.411E+02
CGA:   4    -0.380865733216E+03   -0.19134E+01   -0.19417E+01  8736   0.634E+02-0.718E+00
CGA:   5    -0.383044214627E+03   -0.21785E+01   -0.20610E+01  8736   0.280E+02 0.829E+00
CGA:   6    -0.383981478832E+03   -0.93726E+00   -0.10318E+01  8736   0.147E+02 0.315E+00
CGA:   7    -0.384409860729E+03   -0.42838E+00   -0.42872E+00  8736   0.853E+01-0.369E-01
CGA:   8    -0.384928393189E+03   -0.51853E+00   -0.51568E+00  8736   0.839E+01 0.200E+00
CGA:   9    -0.385141791295E+03   -0.21340E+00   -0.20610E+00  8736   0.261E+01 0.168E+00
CGA:  10    -0.385250058771E+03   -0.10827E+00   -0.11020E+00  8736   0.131E+01 0.730E-01
CGA:  11    -0.385287720521E+03   -0.37662E-01   -0.37355E-01  8736   0.884E+00 0.304E-02
CGA:  12    -0.385344676020E+03   -0.56955E-01   -0.56695E-01  8736   0.697E+00 0.125E-01
CGA:  13    -0.385364558512E+03   -0.19882E-01   -0.19948E-01  8736   0.406E+00-0.758E-03
CGA:  14    -0.385379025147E+03   -0.14467E-01   -0.14619E-01  8736   0.128E+00 0.227E-02
CGA:  15    -0.385384599219E+03   -0.55741E-02   -0.55718E-02  8736   0.177E+00-0.270E-03
CGA:  16    -0.385392074861E+03   -0.74756E-02   -0.74837E-02  8736   0.783E-01 0.698E-03
CGA:  17    -0.385395638778E+03   -0.35639E-02   -0.35644E-02  8736   0.723E-01 0.164E-03
CGA:  18    -0.385397611716E+03   -0.19729E-02   -0.19894E-02  8736   0.273E-01-0.118E-03
CGA:  19    -0.385399586156E+03   -0.19744E-02   -0.19798E-02  8736   0.400E-01-0.175E-03
CGA:  20    -0.385400751873E+03   -0.11657E-02   -0.11705E-02  8736   0.229E-01 0.629E-07
CGA:  21    -0.385402144798E+03   -0.13929E-02   -0.13920E-02  8736   0.175E-01 0.513E-04
CGA:  22    -0.385402713017E+03   -0.56822E-03   -0.56971E-03  8736   0.153E-01 0.244E-04
CGA:  23    -0.385403648640E+03   -0.93562E-03   -0.93664E-03  8736   0.125E-01-0.516E-04
CGA:  24    -0.385404127683E+03   -0.47904E-03   -0.47967E-03  8736   0.118E-01 0.318E-04
CGA:  25    -0.385404647592E+03   -0.51991E-03   -0.52000E-03  8736   0.686E-02 0.193E-04
CGA:  26    -0.385404956726E+03   -0.30913E-03   -0.30915E-03  8736   0.834E-02 0.107E-04
CGA:  27    -0.385405313685E+03   -0.35696E-03   -0.35684E-03  8736   0.359E-02-0.204E-04
CGA:  28    -0.385405454812E+03   -0.14113E-03   -0.14124E-03  8736   0.370E-02 0.118E-04
CGA:  29    -0.385405612858E+03   -0.15805E-03   -0.15808E-03  8736   0.216E-02 0.856E-05
CGA:  30    -0.385405737729E+03   -0.12487E-03   -0.12479E-03  8736   0.280E-02 0.618E-05
CGA:  31    -0.385405817677E+03   -0.79948E-04   -0.79833E-04  8736   0.963E-03-0.527E-05
CGA:  32    -0.385405881812E+03   -0.64135E-04   -0.64037E-04  8736   0.128E-02 0.429E-05
SDA:  33    -0.385405922803E+03   -0.40991E-04   -0.40946E-04  8736   0.901E-03-0.361E-05
CGA:  34    -0.385405940206E+03   -0.17403E-04   -0.17423E-04  8736   0.397E-03 0.765E-06
CGA:  35    -0.385405961214E+03   -0.21008E-04   -0.21044E-04  8736   0.462E-03-0.406E-05
CGA:  36    -0.385406038820E+03   -0.77605E-04   -0.77718E-04  8736   0.551E-03-0.107E-05
CGA:  37    -0.385406062580E+03   -0.23760E-04   -0.23738E-04  8736   0.539E-03-0.290E-05
CGA:  38    -0.385406084425E+03   -0.21846E-04   -0.21806E-04  8736   0.353E-03-0.382E-05
CGA:  39    -0.385406095887E+03   -0.11462E-04   -0.11474E-04  8736   0.338E-03 0.802E-06
CGA:  40    -0.385406117460E+03   -0.21573E-04   -0.21582E-04  8736   0.108E-03-0.881E-06
CGA:  41    -0.385406131004E+03   -0.13544E-04   -0.13480E-04  8736   0.151E-03 0.771E-06
CGA:  42    -0.385406137472E+03   -0.64683E-05   -0.64519E-05  8736   0.670E-04-0.150E-05
  10 F= -.38540614E+03 E0= -.38538628E+03  d E =-.703222E-01  mag=    34.0000
       N       E                     dE             d eps       ncg     rms          ort
SDA:   1    -0.375758644188E+03    0.96475E+01    0.00000E+00  8736   0.287E+02 0.000E+00
CGA:   2    -0.379262354203E+03   -0.35037E+01   -0.36244E+01  8736   0.106E+03-0.158E+01
CGA:   3    -0.382021674182E+03   -0.27593E+01   -0.27667E+01  8736   0.300E+02 0.133E+01
CGA:   4    -0.383356392634E+03   -0.13347E+01   -0.13063E+01  8736   0.165E+02-0.206E+01
CGA:   5    -0.384246647887E+03   -0.89026E+00   -0.88597E+00  8736   0.173E+02 0.689E+00
CGA:   6    -0.385002875000E+03   -0.75623E+00   -0.73413E+00  8736   0.958E+01-0.313E+00
CGA:   7    -0.385165505078E+03   -0.16263E+00   -0.16183E+00  8736   0.149E+01 0.736E-01
CGA:   8    -0.385261409781E+03   -0.95905E-01   -0.95376E-01  8736   0.322E+01 0.313E-01
CGA:   9    -0.385342901237E+03   -0.81491E-01   -0.81864E-01  8736   0.146E+01-0.577E-02
CGA:  10    -0.385393160704E+03   -0.50259E-01   -0.50283E-01  8736   0.767E+00 0.127E-02
CGA:  11    -0.385417491751E+03   -0.24331E-01   -0.24260E-01  8736   0.340E+00 0.154E-03
CGA:  12    -0.385424884426E+03   -0.73927E-02   -0.74699E-02  8736   0.208E+00-0.196E-02
CGA:  13    -0.385439536298E+03   -0.14652E-01   -0.14567E-01  8736   0.205E+00 0.312E-02
CGA:  14    -0.385446342933E+03   -0.68066E-02   -0.67879E-02  8736   0.185E+00-0.852E-04
CGA:  15    -0.385451189987E+03   -0.48471E-02   -0.48312E-02  8736   0.563E-01 0.269E-03
CGA:  16    -0.385453283756E+03   -0.20938E-02   -0.20918E-02  8736   0.473E-01-0.152E-04
CGA:  17    -0.385455384339E+03   -0.21006E-02   -0.21018E-02  8736   0.563E-01 0.253E-03
CGA:  18    -0.385456796853E+03   -0.14125E-02   -0.14156E-02  8736   0.224E-01-0.951E-05
CGA:  19    -0.385458426242E+03   -0.16294E-02   -0.16285E-02  8736   0.264E-01 0.302E-04
CGA:  20    -0.385459110620E+03   -0.68438E-03   -0.68425E-03  8736   0.190E-01-0.831E-05
CGA:  21    -0.385459950536E+03   -0.83992E-03   -0.84022E-03  8736   0.143E-01 0.112E-03
CGA:  22    -0.385460576256E+03   -0.62572E-03   -0.62580E-03  8736   0.123E-01 0.319E-04
CGA:  23    -0.385461122354E+03   -0.54610E-03   -0.54604E-03  8736   0.162E-01-0.271E-04
CGA:  24    -0.385461640125E+03   -0.51777E-03   -0.51770E-03  8736   0.109E-01-0.112E-07
CGA:  25    -0.385462369439E+03   -0.72931E-03   -0.72842E-03  8736   0.815E-02 0.384E-04
CGA:  26    -0.385462570681E+03   -0.20124E-03   -0.20103E-03  8736   0.547E-02-0.418E-05
CGA:  27    -0.385462820053E+03   -0.24937E-03   -0.24937E-03  8736   0.509E-02 0.616E-06
CGA:  28    -0.385463064424E+03   -0.24437E-03   -0.24435E-03  8736   0.483E-02 0.844E-05
CGA:  29    -0.385463270058E+03   -0.20563E-03   -0.20565E-03  8736   0.494E-02 0.133E-05
CGA:  30    -0.385463387261E+03   -0.11720E-03   -0.11737E-03  8736   0.161E-02 0.415E-05
CGA:  31    -0.385463490567E+03   -0.10331E-03   -0.10320E-03  8736   0.175E-02 0.494E-05
SDA:  32    -0.385463551530E+03   -0.60964E-04   -0.60925E-04  8736   0.207E-02-0.423E-05
CGA:  33    -0.385463586673E+03   -0.35143E-04   -0.35313E-04  8736   0.667E-03-0.505E-06
CGA:  34    -0.385463626365E+03   -0.39692E-04   -0.39713E-04  8736   0.709E-03-0.135E-05
CGA:  35    -0.385463730025E+03   -0.10366E-03   -0.10416E-03  8736   0.797E-03-0.506E-05
CGA:  36    -0.385463774923E+03   -0.44897E-04   -0.44922E-04  8736   0.611E-03-0.343E-05
CGA:  37    -0.385463796439E+03   -0.21516E-04   -0.21505E-04  8736   0.333E-03-0.682E-06
CGA:  38    -0.385463823753E+03   -0.27314E-04   -0.27361E-04  8736   0.754E-03-0.145E-05
CGA:  39    -0.385463843070E+03   -0.19318E-04   -0.19246E-04  8736   0.266E-03-0.407E-05
CGA:  40    -0.385463867343E+03   -0.24273E-04   -0.24256E-04  8736   0.279E-03 0.263E-06
CGA:  41    -0.385463888526E+03   -0.21183E-04   -0.21320E-04  8736   0.134E-03-0.549E-05
CGA:  42    -0.385463894493E+03   -0.59666E-05   -0.59714E-05  8736   0.186E-03 0.675E-06
  11 F= -.38546389E+03 E0= -.38544419E+03  d E =-.577570E-01  mag=    34.0000
       N       E                     dE             d eps       ncg     rms          ort
SDA:   1    -0.379320194187E+03    0.61437E+01    0.00000E+00  8736   0.176E+02 0.000E+00
CGA:   2    -0.382469663111E+03   -0.31495E+01   -0.31411E+01  8736   0.351E+02 0.363E+00
CGA:   3    -0.383677929315E+03   -0.12083E+01   -0.12295E+01  8736   0.171E+02-0.104E+01
CGA:   4    -0.384345683820E+03   -0.66775E+00   -0.71492E+00  8736   0.872E+01 0.535E+00
CGA:   5    -0.385059944509E+03   -0.71426E+00   -0.72451E+00  8736   0.116E+02-0.335E+00
CGA:   6    -0.385269643200E+03   -0.20970E+00   -0.21348E+00  8736   0.212E+01-0.821E-01
CGA:   7    -0.385353462258E+03   -0.83819E-01   -0.84172E-01  8736   0.129E+01-0.216E-02
CGA:   8    -0.385400725254E+03   -0.47263E-01   -0.46816E-01  8736   0.106E+01 0.152E-02
CGA:   9    -0.385455621502E+03   -0.54896E-01   -0.54854E-01  8736   0.111E+01-0.105E-01
CGA:  10    -0.385478089865E+03   -0.22468E-01   -0.21978E-01  8736   0.232E+00 0.171E-01
CGA:  11    -0.385489422258E+03   -0.11332E-01   -0.11338E-01  8736   0.167E+00 0.592E-03
CGA:  12    -0.385494004949E+03   -0.45827E-02   -0.46067E-02  8736   0.144E+00-0.394E-03
CGA:  13    -0.385501773045E+03   -0.77681E-02   -0.77652E-02  8736   0.123E+00 0.456E-03
CGA:  14    -0.385505382034E+03   -0.36090E-02   -0.36122E-02  8736   0.599E-01 0.832E-05
CGA:  15    -0.385507679775E+03   -0.22977E-02   -0.22963E-02  8736   0.427E-01-0.284E-04
CGA:  16    -0.385508642963E+03   -0.96319E-03   -0.95896E-03  8736   0.178E-01 0.135E-03
CGA:  17    -0.385510118197E+03   -0.14752E-02   -0.14793E-02  8736   0.244E-01-0.109E-03
CGA:  18    -0.385510796683E+03   -0.67849E-03   -0.68013E-03  8736   0.203E-01-0.112E-04
CGA:  19    -0.385511611909E+03   -0.81523E-03   -0.81645E-03  8736   0.105E-01 0.604E-04
CGA:  20    -0.385511971234E+03   -0.35932E-03   -0.35950E-03  8736   0.921E-02 0.536E-06
CGA:  21    -0.385512505632E+03   -0.53440E-03   -0.53452E-03  8736   0.130E-01-0.782E-05
CGA:  22    -0.385512831210E+03   -0.32558E-03   -0.32583E-03  8736   0.654E-02 0.158E-04
CGA:  23    -0.385513290606E+03   -0.45940E-03   -0.45931E-03  8736   0.721E-02 0.522E-05
CGA:  24    -0.385513546255E+03   -0.25565E-03   -0.25546E-03  8736   0.912E-02-0.100E-04
CGA:  25    -0.385513910025E+03   -0.36377E-03   -0.36350E-03  8736   0.387E-02-0.133E-04
CGA:  26    -0.385514029647E+03   -0.11962E-03   -0.11977E-03  8736   0.282E-02 0.791E-05
CGA:  27    -0.385514185774E+03   -0.15613E-03   -0.15604E-03  8736   0.421E-02 0.678E-05
CGA:  28    -0.385514314060E+03   -0.12829E-03   -0.12826E-03  8736   0.315E-02 0.392E-05
CGA:  29    -0.385514469423E+03   -0.15536E-03   -0.15538E-03  8736   0.125E-02-0.408E-05
CGA:  30    -0.385514504879E+03   -0.35457E-04   -0.35487E-04  8736   0.127E-02 0.620E-06
CGA:  31    -0.385514568980E+03   -0.64101E-04   -0.64063E-04  8736   0.114E-02 0.720E-05
SDA:  32    -0.385514615168E+03   -0.46188E-04   -0.46176E-04  8736   0.109E-02-0.224E-05
CGA:  33    -0.385514639571E+03   -0.24403E-04   -0.24374E-04  8736   0.342E-03-0.950E-06
CGA:  34    -0.385514656954E+03   -0.17384E-04   -0.17392E-04  8736   0.569E-03-0.136E-05
CGA:  35    -0.385514686300E+03   -0.29346E-04   -0.29382E-04  8736   0.754E-03-0.511E-05
CGA:  36    -0.385514726756E+03   -0.40456E-04   -0.40441E-04  8736   0.331E-03 0.170E-05
CGA:  37    -0.385514759973E+03   -0.33217E-04   -0.33478E-04  8736   0.162E-03-0.474E-05
CGA:  38    -0.385514772616E+03   -0.12643E-04   -0.12726E-04  8736   0.428E-03-0.270E-05
CGA:  39    -0.385514784090E+03   -0.11474E-04   -0.11466E-04  8736   0.152E-03 0.784E-07
CGA:  40    -0.385514798837E+03   -0.14748E-04   -0.14835E-04  8736   0.178E-03-0.181E-05
CGA:  41    -0.385514809817E+03   -0.10980E-04   -0.11013E-04  8736   0.154E-03-0.299E-05
CGA:  42    -0.385514813939E+03   -0.41223E-05   -0.41340E-05  8736   0.645E-04 0.612E-06
  12 F= -.38551481E+03 E0= -.38549517E+03  d E =-.509194E-01  mag=    34.0000
       N       E                     dE             d eps       ncg     rms          ort
SDA:   1    -0.382670584542E+03    0.28442E+01    0.00000E+00  8736   0.969E+01 0.000E+00
CGA:   2    -0.383277681527E+03   -0.60710E+00   -0.61139E+00  8736   0.288E+02-0.172E+00
CGA:   3    -0.384479692838E+03   -0.12020E+01   -0.12038E+01  8736   0.111E+02 0.516E-01
CGA:   4    -0.384915674659E+03   -0.43598E+00   -0.43704E+00  8736   0.458E+01-0.419E-01
CGA:   5    -0.385130351347E+03   -0.21468E+00   -0.21521E+00  8736   0.501E+01 0.950E-01
CGA:   6    -0.385396494503E+03   -0.26614E+00   -0.26637E+00  8736   0.486E+01-0.465E-01
CGA:   7    -0.385485591499E+03   -0.89097E-01   -0.90354E-01  8736   0.461E+00-0.369E-01
CGA:   8    -0.385513337289E+03   -0.27746E-01   -0.27672E-01  8736   0.659E+00 0.433E-02
CGA:   9    -0.385535747797E+03   -0.22411E-01   -0.22506E-01  8736   0.586E+00 0.360E-03
CGA:  10    -0.385556341184E+03   -0.20593E-01   -0.20488E-01  8736   0.183E+00-0.985E-03
CGA:  11    -0.385561435860E+03   -0.50947E-02   -0.50767E-02  8736   0.603E-01 0.119E-03
CGA:  12    -0.385564840598E+03   -0.34047E-02   -0.33959E-02  8736   0.100E+00 0.609E-03
CGA:  13    -0.385567621984E+03   -0.27814E-02   -0.27877E-02  8736   0.462E-01-0.570E-04
CGA:  14    -0.385570858760E+03   -0.32368E-02   -0.32382E-02  8736   0.244E-01-0.455E-04
CGA:  15    -0.385571544819E+03   -0.68606E-03   -0.68659E-03  8736   0.140E-01 0.190E-04
CGA:  16    -0.385572087310E+03   -0.54249E-03   -0.54239E-03  8736   0.142E-01-0.309E-05
CGA:  17    -0.385572656511E+03   -0.56920E-03   -0.56929E-03  8736   0.926E-02 0.127E-04
CGA:  18    -0.385573252479E+03   -0.59597E-03   -0.59636E-03  8736   0.652E-02-0.144E-04
CGA:  19    -0.385573495383E+03   -0.24290E-03   -0.24291E-03  8736   0.886E-02-0.154E-05
CGA:  20    -0.385573867397E+03   -0.37201E-03   -0.37222E-03  8736   0.383E-02 0.301E-04
CGA:  21    -0.385574048302E+03   -0.18091E-03   -0.18090E-03  8736   0.428E-02 0.725E-05
CGA:  22    -0.385574335802E+03   -0.28750E-03   -0.28791E-03  8736   0.508E-02-0.167E-04
CGA:  23    -0.385574486574E+03   -0.15077E-03   -0.15087E-03  8736   0.449E-02 0.599E-05
CGA:  24    -0.385574718506E+03   -0.23193E-03   -0.23190E-03  8736   0.219E-02 0.560E-05
CGA:  25    -0.385574833863E+03   -0.11536E-03   -0.11543E-03  8736   0.187E-02-0.105E-04
CGA:  26    -0.385574891147E+03   -0.57284E-04   -0.57321E-04  8736   0.164E-02 0.350E-05
CGA:  27    -0.385574981021E+03   -0.89873E-04   -0.89832E-04  8736   0.208E-02 0.420E-05
CGA:  28    -0.385575058916E+03   -0.77895E-04   -0.77896E-04  8736   0.560E-03 0.732E-06
CGA:  29    -0.385575091314E+03   -0.32398E-04   -0.32412E-04  8736   0.887E-03-0.894E-06
CGA:  30    -0.385575116385E+03   -0.25071E-04   -0.25015E-04  8736   0.524E-03-0.300E-05
CGA:  31    -0.385575148902E+03   -0.32517E-04   -0.32469E-04  8736   0.362E-03 0.272E-05
SDA:  32    -0.385575163019E+03   -0.14117E-04   -0.14139E-04  8736   0.302E-03 0.283E-05
CGA:  33    -0.385575169884E+03   -0.68645E-05   -0.68041E-05  8736   0.160E-03-0.256E-05
  13 F= -.38557517E+03 E0= -.38555562E+03  d E =-.603559E-01  mag=    34.0000
       N       E                     dE             d eps       ncg     rms          ort
SDA:   1    -0.383756230440E+03    0.18189E+01    0.00000E+00  8736   0.691E+01 0.000E+00
CGA:   2    -0.384151481924E+03   -0.39525E+00   -0.40253E+00  8736   0.138E+02-0.422E+00
CGA:   3    -0.384870817411E+03   -0.71934E+00   -0.71882E+00  8736   0.110E+02 0.330E-01
CGA:   4    -0.385162880654E+03   -0.29206E+00   -0.29653E+00  8736   0.479E+01-0.262E+00
CGA:   5    -0.385304500416E+03   -0.14162E+00   -0.14791E+00  8736   0.199E+01 0.129E-01
CGA:   6    -0.385513269225E+03   -0.20877E+00   -0.20967E+00  8736   0.264E+01-0.157E-01
CGA:   7    -0.385569997384E+03   -0.56728E-01   -0.58085E-01  8736   0.377E+00-0.297E-01
CGA:   8    -0.385585838892E+03   -0.15842E-01   -0.15873E-01  8736   0.348E+00 0.319E-02
CGA:   9    -0.385598617694E+03   -0.12779E-01   -0.12794E-01  8736   0.313E+00 0.318E-03
CGA:  10    -0.385614964804E+03   -0.16347E-01   -0.16349E-01  8736   0.104E+00-0.211E-03
CGA:  11    -0.385617712212E+03   -0.27474E-02   -0.27633E-02  8736   0.484E-01-0.174E-03
CGA:  12    -0.385620226831E+03   -0.25146E-02   -0.25116E-02  8736   0.368E-01 0.289E-03
CGA:  13    -0.385621672789E+03   -0.14460E-02   -0.14461E-02  8736   0.401E-01-0.822E-05
CGA:  14    -0.385623363764E+03   -0.16910E-02   -0.16921E-02  8736   0.162E-01 0.157E-03
CGA:  15    -0.385624170641E+03   -0.80688E-03   -0.80680E-03  8736   0.144E-01 0.115E-04
CGA:  16    -0.385624605802E+03   -0.43516E-03   -0.43531E-03  8736   0.547E-02 0.492E-05
CGA:  17    -0.385624918695E+03   -0.31289E-03   -0.31324E-03  8736   0.851E-02-0.199E-04
CGA:  18    -0.385625203809E+03   -0.28511E-03   -0.28536E-03  8736   0.442E-02 0.174E-04
CGA:  19    -0.385625568935E+03   -0.36513E-03   -0.36407E-03  8736   0.492E-02 0.263E-04
CGA:  20    -0.385625731679E+03   -0.16274E-03   -0.16282E-03  8736   0.332E-02 0.384E-05
CGA:  21    -0.385625912791E+03   -0.18111E-03   -0.18116E-03  8736   0.305E-02-0.341E-05
CGA:  22    -0.385626015133E+03   -0.10234E-03   -0.10251E-03  8736   0.276E-02 0.802E-05
CGA:  23    -0.385626230655E+03   -0.21552E-03   -0.21591E-03  8736   0.251E-02-0.115E-04
CGA:  24    -0.385626360577E+03   -0.12992E-03   -0.12993E-03  8736   0.266E-02-0.235E-05
CGA:  25    -0.385626436968E+03   -0.76392E-04   -0.76363E-04  8736   0.838E-03-0.116E-05
CGA:  26    -0.385626477163E+03   -0.40195E-04   -0.40185E-04  8736   0.132E-02 0.659E-05
CGA:  27    -0.385626553318E+03   -0.76155E-04   -0.76133E-04  8736   0.926E-03 0.179E-05
CGA:  28    -0.385626599889E+03   -0.46571E-04   -0.46572E-04  8736   0.503E-03-0.695E-06
CGA:  29    -0.385626612897E+03   -0.13008E-04   -0.12993E-04  8736   0.295E-03-0.629E-06
CGA:  30    -0.385626636330E+03   -0.23433E-04   -0.23328E-04  8736   0.483E-03 0.305E-05
CGA:  31    -0.385626654501E+03   -0.18171E-04   -0.18143E-04  8736   0.283E-03-0.267E-05
SDA:  32    -0.385626667254E+03   -0.12753E-04   -0.12751E-04  8736   0.122E-03-0.593E-06
CGA:  33    -0.385626670520E+03   -0.32664E-05   -0.32677E-05  8736   0.103E-03-0.570E-08
  14 F= -.38562667E+03 E0= -.38560724E+03  d E =-.515006E-01  mag=    34.0000
       N       E                     dE             d eps       ncg     rms          ort
SDA:   1    -0.384396249182E+03    0.12304E+01    0.00000E+00  8736   0.357E+01 0.000E+00
CGA:   2    -0.385111511677E+03   -0.71526E+00   -0.71313E+00  8736   0.103E+02 0.173E-01
CGA:   3    -0.385309551016E+03   -0.19804E+00   -0.19502E+00  8736   0.209E+01 0.143E+00
CGA:   4    -0.385423162835E+03   -0.11361E+00   -0.11363E+00  8736   0.275E+01-0.106E-01
CGA:   5    -0.385563076197E+03   -0.13991E+00   -0.13986E+00  8736   0.164E+01-0.139E-01
CGA:   6    -0.385624412593E+03   -0.61336E-01   -0.61755E-01  8736   0.217E+00 0.271E-02
CGA:   7    -0.385645441227E+03   -0.21029E-01   -0.21237E-01  8736   0.247E+00-0.441E-02
CGA:   8    -0.385652574306E+03   -0.71331E-02   -0.71219E-02  8736   0.210E+00 0.194E-03
CGA:   9    -0.385661045524E+03   -0.84712E-02   -0.84678E-02  8736   0.412E-01-0.700E-04
CGA:  10    -0.385662995431E+03   -0.19499E-02   -0.19524E-02  8736   0.370E-01 0.193E-03
CGA:  11    -0.385664714235E+03   -0.17188E-02   -0.17183E-02  8736   0.197E-01-0.485E-04
CGA:  12    -0.385666467817E+03   -0.17536E-02   -0.17488E-02  8736   0.105E-01 0.119E-03
CGA:  13    -0.385667043605E+03   -0.57579E-03   -0.57583E-03  8736   0.612E-02-0.353E-04
CGA:  14    -0.385667226349E+03   -0.18274E-03   -0.18277E-03  8736   0.603E-02 0.813E-05
CGA:  15    -0.385667576007E+03   -0.34966E-03   -0.34950E-03  8736   0.236E-02 0.205E-04
CGA:  16    -0.385667846340E+03   -0.27033E-03   -0.26985E-03  8736   0.374E-02 0.780E-05
CGA:  17    -0.385668001042E+03   -0.15470E-03   -0.15483E-03  8736   0.232E-02 0.923E-05
CGA:  18    -0.385668131325E+03   -0.13028E-03   -0.13028E-03  8736   0.132E-02 0.377E-07
CGA:  19    -0.385668253346E+03   -0.12202E-03   -0.12211E-03  8736   0.261E-02-0.267E-05
CGA:  20    -0.385668340673E+03   -0.87328E-04   -0.87160E-04  8736   0.272E-02-0.437E-05
CGA:  21    -0.385668495095E+03   -0.15442E-03   -0.15442E-03  8736   0.439E-03 0.376E-05
CGA:  22    -0.385668566206E+03   -0.71111E-04   -0.71127E-04  8736   0.104E-02-0.236E-06
CGA:  23    -0.385668616910E+03   -0.50704E-04   -0.50706E-04  8736   0.803E-03-0.507E-06
CGA:  24    -0.385668640811E+03   -0.23902E-04   -0.24012E-04  8736   0.350E-03 0.242E-05
CGA:  25    -0.385668652867E+03   -0.12056E-04   -0.12040E-04  8736   0.311E-03-0.530E-06
CGA:  26    -0.385668670926E+03   -0.18059E-04   -0.18060E-04  8736   0.245E-03-0.124E-05
CGA:  27    -0.385668693028E+03   -0.22102E-04   -0.22012E-04  8736   0.682E-04 0.276E-05
CGA:  28    -0.385668703365E+03   -0.10337E-04   -0.10497E-04  8736   0.110E-03-0.176E-05
CGA:  29    -0.385668709679E+03   -0.63137E-05   -0.63195E-05  8736   0.977E-04 0.112E-05
  15 F= -.38566871E+03 E0= -.38564935E+03  d E =-.420392E-01  mag=    34.0000
       N       E                     dE             d eps       ncg     rms          ort
SDA:   1    -0.384927776182E+03    0.74093E+00    0.00000E+00  8736   0.253E+01 0.000E+00
CGA:   2    -0.385071458799E+03   -0.14368E+00   -0.14330E+00  8736   0.738E+01-0.283E-01
CGA:   3    -0.385481205237E+03   -0.40975E+00   -0.40998E+00  8736   0.157E+01 0.165E-01
CGA:   4    -0.385535572864E+03   -0.54368E-01   -0.55290E-01  8736   0.124E+01-0.711E-02
CGA:   5    -0.385627820149E+03   -0.92247E-01   -0.92691E-01  8736   0.126E+01-0.210E-01
CGA:   6    -0.385660715032E+03   -0.32895E-01   -0.34230E-01  8736   0.672E+00-0.280E-01
CGA:   7    -0.385677439828E+03   -0.16725E-01   -0.16632E-01  8736   0.105E+00 0.202E-02
CGA:   8    -0.385688300919E+03   -0.10861E-01   -0.10925E-01  8736   0.833E-01-0.133E-02
CGA:   9    -0.385694139311E+03   -0.58384E-02   -0.58318E-02  8736   0.569E-01 0.396E-03
CGA:  10    -0.385695776867E+03   -0.16376E-02   -0.16340E-02  8736   0.133E-01 0.338E-04
CGA:  11    -0.385696733260E+03   -0.95639E-03   -0.95686E-03  8736   0.131E-01-0.275E-04
CGA:  12    -0.385697873510E+03   -0.11403E-02   -0.11400E-02  8736   0.111E-01 0.805E-05
CGA:  13    -0.385698123977E+03   -0.25047E-03   -0.25155E-03  8736   0.522E-02-0.160E-04
CGA:  14    -0.385698355224E+03   -0.23125E-03   -0.23150E-03  8736   0.208E-02 0.203E-05
CGA:  15    -0.385698455378E+03   -0.10015E-03   -0.10011E-03  8736   0.269E-02-0.181E-05
CGA:  16    -0.385698736421E+03   -0.28104E-03   -0.28003E-03  8736   0.123E-02 0.213E-04
CGA:  17    -0.385698808170E+03   -0.71749E-04   -0.71750E-04  8736   0.141E-02 0.880E-06
CGA:  18    -0.385698849045E+03   -0.40875E-04   -0.40816E-04  8736   0.112E-02-0.158E-05
CGA:  19    -0.385698981738E+03   -0.13269E-03   -0.13235E-03  8736   0.156E-02 0.571E-05
CGA:  20    -0.385699036248E+03   -0.54509E-04   -0.54359E-04  8736   0.706E-03-0.483E-05
CGA:  21    -0.385699083278E+03   -0.47031E-04   -0.47081E-04  8736   0.595E-03-0.546E-05
CGA:  22    -0.385699132501E+03   -0.49223E-04   -0.49200E-04  8736   0.553E-03 0.704E-06
CGA:  23    -0.385699147354E+03   -0.14853E-04   -0.14925E-04  8736   0.429E-03 0.188E-05
CGA:  24    -0.385699175195E+03   -0.27841E-04   -0.27843E-04  8736   0.314E-03-0.284E-06
CGA:  25    -0.385699190408E+03   -0.15212E-04   -0.15211E-04  8736   0.257E-03-0.343E-06
CGA:  26    -0.385699202186E+03   -0.11778E-04   -0.11794E-04  8736   0.907E-04 0.116E-05
CGA:  27    -0.385699210127E+03   -0.79418E-05   -0.79501E-05  8736   0.134E-03-0.325E-06
  16 F= -.38569921E+03 E0= -.38567990E+03  d E =-.305004E-01  mag=    34.0000
       N       E                     dE             d eps       ncg     rms          ort
SDA:   1    -0.384025659576E+03    0.16735E+01    0.00000E+00  8736   0.602E+01 0.000E+00
CGA:   2    -0.384305847162E+03   -0.28019E+00   -0.27456E+00  8736   0.137E+02-0.927E-01
CGA:   3    -0.385177633556E+03   -0.87179E+00   -0.87237E+00  8736   0.525E+01-0.579E-01
CGA:   4    -0.385369861657E+03   -0.19223E+00   -0.19867E+00  8736   0.263E+01-0.499E-01
CGA:   5    -0.385492885955E+03   -0.12302E+00   -0.12421E+00  8736   0.336E+01 0.322E-01
CGA:   6    -0.385635021359E+03   -0.14214E+00   -0.14203E+00  8736   0.232E+01-0.146E-02
CGA:   7    -0.385686454998E+03   -0.51434E-01   -0.50707E-01  8736   0.219E+00 0.240E-01
CGA:   8    -0.385709283796E+03   -0.22829E-01   -0.22857E-01  8736   0.464E+00-0.553E-03
CGA:   9    -0.385719954998E+03   -0.10671E-01   -0.10705E-01  8736   0.189E+00-0.898E-03
CGA:  10    -0.385727890007E+03   -0.79350E-02   -0.79292E-02  8736   0.696E-01-0.796E-04
CGA:  11    -0.385730226747E+03   -0.23367E-02   -0.23487E-02  8736   0.385E-01-0.929E-04
CGA:  12    -0.385732250868E+03   -0.20241E-02   -0.20247E-02  8736   0.471E-01 0.213E-03
CGA:  13    -0.385733653546E+03   -0.14027E-02   -0.14019E-02  8736   0.297E-01-0.162E-05
CGA:  14    -0.385735122362E+03   -0.14688E-02   -0.14686E-02  8736   0.907E-02-0.462E-04
CGA:  15    -0.385735706796E+03   -0.58443E-03   -0.58434E-03  8736   0.128E-01 0.101E-04
CGA:  16    -0.385736023764E+03   -0.31697E-03   -0.31728E-03  8736   0.499E-02-0.110E-04
CGA:  17    -0.385736271401E+03   -0.24764E-03   -0.24762E-03  8736   0.543E-02-0.339E-05
CGA:  18    -0.385736559696E+03   -0.28829E-03   -0.28828E-03  8736   0.418E-02 0.102E-04
CGA:  19    -0.385736849883E+03   -0.29019E-03   -0.28987E-03  8736   0.487E-02 0.145E-04
CGA:  20    -0.385736954348E+03   -0.10446E-03   -0.10472E-03  8736   0.181E-02 0.259E-05
CGA:  21    -0.385737110653E+03   -0.15630E-03   -0.15652E-03  8736   0.249E-02-0.620E-05
CGA:  22    -0.385737286839E+03   -0.17619E-03   -0.17627E-03  8736   0.350E-02-0.431E-05
CGA:  23    -0.385737408070E+03   -0.12123E-03   -0.12141E-03  8736   0.188E-02 0.614E-05
CGA:  24    -0.385737466386E+03   -0.58316E-04   -0.58361E-04  8736   0.140E-02-0.296E-05
CGA:  25    -0.385737533160E+03   -0.66774E-04   -0.66750E-04  8736   0.658E-03-0.519E-05
CGA:  26    -0.385737619055E+03   -0.85895E-04   -0.85325E-04  8736   0.109E-02 0.704E-05
CGA:  27    -0.385737644143E+03   -0.25088E-04   -0.25011E-04  8736   0.419E-03-0.202E-05
CGA:  28    -0.385737661370E+03   -0.17227E-04   -0.17210E-04  8736   0.356E-03-0.116E-05
CGA:  29    -0.385737681877E+03   -0.20507E-04   -0.20507E-04  8736   0.365E-03 0.181E-06
CGA:  30    -0.385737703026E+03   -0.21149E-04   -0.21146E-04  8736   0.143E-03 0.602E-06
CGA:  31    -0.385737710515E+03   -0.74884E-05   -0.74901E-05  8736   0.239E-03 0.129E-05
  17 F= -.38573771E+03 E0= -.38571849E+03  d E =-.385004E-01  mag=    34.0000
       N       E                     dE             d eps       ncg     rms          ort
SDA:   1    -0.383729943062E+03    0.20078E+01    0.00000E+00  8736   0.571E+01 0.000E+00
CGA:   2    -0.384816012488E+03   -0.10861E+01   -0.11140E+01  8736   0.130E+02-0.217E+00
CGA:   3    -0.385178576311E+03   -0.36256E+00   -0.36829E+00  8736   0.610E+01-0.833E-01
CGA:   4    -0.385352975947E+03   -0.17440E+00   -0.18146E+00  8736   0.314E+01-0.138E+00
CGA:   5    -0.385575550743E+03   -0.22257E+00   -0.22271E+00  8736   0.367E+01-0.774E-02
CGA:   6    -0.385689608708E+03   -0.11406E+00   -0.10756E+00  8736   0.629E+00 0.849E-01
CGA:   7    -0.385711517231E+03   -0.21909E-01   -0.21998E-01  8736   0.551E+00-0.524E-03
CGA:   8    -0.385733245267E+03   -0.21728E-01   -0.21804E-01  8736   0.265E+00 0.651E-03
CGA:   9    -0.385753434592E+03   -0.20189E-01   -0.20194E-01  8736   0.188E+00-0.149E-03
CGA:  10    -0.385758215059E+03   -0.47805E-02   -0.47504E-02  8736   0.861E-01 0.595E-03
CGA:  11    -0.385761100174E+03   -0.28851E-02   -0.28604E-02  8736   0.311E-01 0.135E-03
CGA:  12    -0.385763851141E+03   -0.27510E-02   -0.27426E-02  8736   0.609E-01 0.215E-03
CGA:  13    -0.385766050001E+03   -0.21989E-02   -0.22062E-02  8736   0.169E-01 0.170E-04
CGA:  14    -0.385766517160E+03   -0.46716E-03   -0.46466E-03  8736   0.102E-01 0.311E-04
CGA:  15    -0.385767000260E+03   -0.48310E-03   -0.48294E-03  8736   0.781E-02-0.142E-04
CGA:  16    -0.385767554758E+03   -0.55450E-03   -0.55468E-03  8736   0.537E-02-0.493E-05
CGA:  17    -0.385767778645E+03   -0.22389E-03   -0.22408E-03  8736   0.649E-02 0.112E-04
CGA:  18    -0.385768035631E+03   -0.25699E-03   -0.25708E-03  8736   0.321E-02 0.255E-05
CGA:  19    -0.385768189624E+03   -0.15399E-03   -0.15401E-03  8736   0.333E-02 0.674E-05
CGA:  20    -0.385768381720E+03   -0.19210E-03   -0.19210E-03  8736   0.220E-02-0.240E-05
CGA:  21    -0.385768497132E+03   -0.11541E-03   -0.11541E-03  8736   0.426E-02 0.656E-05
CGA:  22    -0.385768702005E+03   -0.20487E-03   -0.20490E-03  8736   0.212E-02 0.330E-05
CGA:  23    -0.385768807914E+03   -0.10591E-03   -0.10589E-03  8736   0.116E-02-0.587E-05
CGA:  24    -0.385768859084E+03   -0.51170E-04   -0.51157E-04  8736   0.149E-02-0.157E-05
CGA:  25    -0.385768935918E+03   -0.76834E-04   -0.76832E-04  8736   0.152E-02 0.453E-05
CGA:  26    -0.385768997132E+03   -0.61214E-04   -0.61176E-04  8736   0.887E-03-0.392E-05
CGA:  27    -0.385769036936E+03   -0.39804E-04   -0.39810E-04  8736   0.350E-03 0.827E-06
CGA:  28    -0.385769054856E+03   -0.17920E-04   -0.17921E-04  8736   0.611E-03-0.867E-06
CGA:  29    -0.385769080690E+03   -0.25833E-04   -0.25864E-04  8736   0.369E-03 0.366E-05
CGA:  30    -0.385769103844E+03   -0.23154E-04   -0.23128E-04  8736   0.214E-03 0.220E-05
CGA:  31    -0.385769111631E+03   -0.77873E-05   -0.77827E-05  8736   0.163E-03-0.266E-06
  18 F= -.38576911E+03 E0= -.38574991E+03  d E =-.314011E-01  mag=    34.0000
       N       E                     dE             d eps       ncg     rms          ort
SDA:   1    -0.383876400978E+03    0.18927E+01    0.00000E+00  8736   0.597E+01 0.000E+00
CGA:   2    -0.384299369579E+03   -0.42297E+00   -0.43611E+00  8736   0.214E+02-0.418E+00
CGA:   3    -0.385119167934E+03   -0.81980E+00   -0.81989E+00  8736   0.809E+01 0.168E-02
CGA:   4    -0.385330974065E+03   -0.21181E+00   -0.22535E+00  8736   0.387E+01-0.256E+00
CGA:   5    -0.385473327305E+03   -0.14235E+00   -0.14466E+00  8736   0.405E+01 0.439E-01
CGA:   6    -0.385615227608E+03   -0.14190E+00   -0.14072E+00  8736   0.282E+01-0.160E-02
CGA:   7    -0.385730118991E+03   -0.11489E+00   -0.11358E+00  8736   0.436E+00-0.493E-01
CGA:   8    -0.385746152603E+03   -0.16034E-01   -0.15978E-01  8736   0.510E+00-0.120E-02
CGA:   9    -0.385763007176E+03   -0.16855E-01   -0.16869E-01  8736   0.231E+00 0.180E-03
CGA:  10    -0.385779669498E+03   -0.16662E-01   -0.16751E-01  8736   0.152E+00-0.295E-02
CGA:  11    -0.385784016782E+03   -0.43473E-02   -0.43344E-02  8736   0.658E-01 0.628E-04
CGA:  12    -0.385786213294E+03   -0.21965E-02   -0.22048E-02  8736   0.457E-01 0.821E-04
CGA:  13    -0.385787801089E+03   -0.15878E-02   -0.15961E-02  8736   0.314E-01 0.133E-03
CGA:  14    -0.385790235279E+03   -0.24342E-02   -0.24311E-02  8736   0.151E-01 0.837E-04
CGA:  15    -0.385791047935E+03   -0.81266E-03   -0.81224E-03  8736   0.142E-01 0.483E-04
CGA:  16    -0.385791354057E+03   -0.30612E-03   -0.30593E-03  8736   0.483E-02-0.106E-05
CGA:  17    -0.385791831771E+03   -0.47771E-03   -0.47806E-03  8736   0.542E-02-0.671E-05
CGA:  18    -0.385792099567E+03   -0.26780E-03   -0.26778E-03  8736   0.503E-02 0.246E-04
CGA:  19    -0.385792315538E+03   -0.21597E-03   -0.21601E-03  8736   0.315E-02 0.258E-05
CGA:  20    -0.385792421797E+03   -0.10626E-03   -0.10626E-03  8736   0.313E-02 0.242E-05
CGA:  21    -0.385792586999E+03   -0.16520E-03   -0.16523E-03  8736   0.215E-02-0.394E-05
CGA:  22    -0.385792785568E+03   -0.19857E-03   -0.19827E-03  8736   0.168E-02 0.656E-05
CGA:  23    -0.385792885599E+03   -0.10003E-03   -0.10005E-03  8736   0.351E-02-0.995E-06
CGA:  24    -0.385792997669E+03   -0.11207E-03   -0.11186E-03  8736   0.975E-03-0.669E-05
CGA:  25    -0.385793047215E+03   -0.49546E-04   -0.49543E-04  8736   0.100E-02 0.157E-05
CGA:  26    -0.385793106971E+03   -0.59756E-04   -0.59693E-04  8736   0.104E-02 0.626E-05
CGA:  27    -0.385793164273E+03   -0.57302E-04   -0.57320E-04  8736   0.876E-03-0.436E-05
CGA:  28    -0.385793182183E+03   -0.17910E-04   -0.17919E-04  8736   0.272E-03 0.553E-06
CGA:  29    -0.385793208980E+03   -0.26797E-04   -0.26630E-04  8736   0.275E-03 0.331E-05
CGA:  30    -0.385793229523E+03   -0.20544E-04   -0.20584E-04  8736   0.480E-03-0.182E-05
CGA:  31    -0.385793240531E+03   -0.11008E-04   -0.11055E-04  8736   0.134E-03 0.165E-05
SDA:  32    -0.385793247002E+03   -0.64705E-05   -0.64753E-05  8736   0.132E-03 0.150E-05
  19 F= -.38579325E+03 E0= -.38577406E+03  d E =-.241354E-01  mag=    34.0000
       N       E                     dE             d eps       ncg     rms          ort
SDA:   1    -0.383506211560E+03    0.22870E+01    0.00000E+00  8736   0.660E+01 0.000E+00
CGA:   2    -0.384528710954E+03   -0.10225E+01   -0.10599E+01  8736   0.239E+02-0.401E+00
CGA:   3    -0.385160319763E+03   -0.63161E+00   -0.65880E+00  8736   0.394E+01-0.288E+00
CGA:   4    -0.385414713597E+03   -0.25439E+00   -0.25113E+00  8736   0.399E+01 0.213E+00
CGA:   5    -0.385632417938E+03   -0.21770E+00   -0.21673E+00  8736   0.430E+01-0.138E+00
CGA:   6    -0.385741279954E+03   -0.10886E+00   -0.10464E+00  8736   0.754E+00 0.907E-01
CGA:   7    -0.385760765390E+03   -0.19485E-01   -0.19891E-01  8736   0.384E+00-0.734E-02
CGA:   8    -0.385795302852E+03   -0.34537E-01   -0.34102E-01  8736   0.377E+00 0.105E-01
CGA:   9    -0.385806062731E+03   -0.10760E-01   -0.10732E-01  8736   0.250E+00 0.467E-03
CGA:  10    -0.385813694704E+03   -0.76320E-02   -0.75183E-02  8736   0.475E-01 0.115E-02
CGA:  11    -0.385816825710E+03   -0.31310E-02   -0.31344E-02  8736   0.625E-01-0.167E-03
CGA:  12    -0.385819047384E+03   -0.22217E-02   -0.22250E-02  8736   0.605E-01 0.210E-04
CGA:  13    -0.385821607407E+03   -0.25600E-02   -0.25563E-02  8736   0.305E-01-0.142E-03
CGA:  14    -0.385822371101E+03   -0.76369E-03   -0.76334E-03  8736   0.706E-02 0.285E-04
CGA:  15    -0.385822961621E+03   -0.59052E-03   -0.59009E-03  8736   0.113E-01 0.132E-04
CGA:  16    -0.385823307101E+03   -0.34548E-03   -0.34474E-03  8736   0.101E-01 0.463E-06
CGA:  17    -0.385823846265E+03   -0.53916E-03   -0.53915E-03  8736   0.312E-02 0.376E-05
CGA:  18    -0.385824018912E+03   -0.17265E-03   -0.17253E-03  8736   0.475E-02 0.190E-04
CGA:  19    -0.385824220782E+03   -0.20187E-03   -0.20214E-03  8736   0.409E-02 0.104E-04
CGA:  20    -0.385824368937E+03   -0.14815E-03   -0.14807E-03  8736   0.338E-02-0.730E-06
CGA:  21    -0.385824540949E+03   -0.17201E-03   -0.17203E-03  8736   0.273E-02-0.536E-05
CGA:  22    -0.385824792478E+03   -0.25153E-03   -0.25140E-03  8736   0.270E-02 0.267E-05
CGA:  23    -0.385824847308E+03   -0.54830E-04   -0.54888E-04  8736   0.115E-02 0.112E-05
CGA:  24    -0.385824941017E+03   -0.93709E-04   -0.93988E-04  8736   0.139E-02-0.848E-05
CGA:  25    -0.385825020320E+03   -0.79303E-04   -0.79277E-04  8736   0.165E-02 0.426E-05
CGA:  26    -0.385825081649E+03   -0.61329E-04   -0.61375E-04  8736   0.808E-03 0.221E-05
CGA:  27    -0.385825105553E+03   -0.23904E-04   -0.23825E-04  8736   0.567E-03-0.313E-05
CGA:  28    -0.385825130089E+03   -0.24536E-04   -0.24530E-04  8736   0.320E-03-0.125E-06
CGA:  29    -0.385825170796E+03   -0.40707E-04   -0.40121E-04  8736   0.399E-03 0.771E-05
CGA:  30    -0.385825179317E+03   -0.85208E-05   -0.84883E-05  8736   0.161E-03-0.685E-06
CGA:  31    -0.385825190134E+03   -0.10818E-04   -0.10839E-04  8736   0.214E-03-0.135E-05
SDA:  32    -0.385825200223E+03   -0.10088E-04   -0.10090E-04  8736   0.180E-03 0.323E-06
CGA:  33    -0.385825205438E+03   -0.52152E-05   -0.52107E-05  8736   0.712E-04-0.143E-06
  20 F= -.38582521E+03 E0= -.38580603E+03  d E =-.319584E-01  mag=    34.0000
       N       E                     dE             d eps       ncg     rms          ort
SDA:   1    -0.383629959405E+03    0.21952E+01    0.00000E+00  8736   0.605E+01 0.000E+00
CGA:   2    -0.384947094020E+03   -0.13171E+01   -0.13214E+01  8736   0.158E+02-0.300E-01
CGA:   3    -0.385213032093E+03   -0.26594E+00   -0.29560E+00  8736   0.415E+01-0.125E+01
CGA:   4    -0.385532064827E+03   -0.31903E+00   -0.31876E+00  8736   0.437E+01 0.610E-02
CGA:   5    -0.385682024396E+03   -0.14996E+00   -0.15177E+00  8736   0.284E+01-0.153E-01
CGA:   6    -0.385768172179E+03   -0.86148E-01   -0.84384E-01  8736   0.609E+00 0.247E-01
CGA:   7    -0.385792808631E+03   -0.24636E-01   -0.24347E-01  8736   0.535E+00-0.686E-03
CGA:   8    -0.385819370535E+03   -0.26562E-01   -0.26533E-01  8736   0.376E+00-0.173E-02
CGA:   9    -0.385832591687E+03   -0.13221E-01   -0.13240E-01  8736   0.233E+00-0.204E-04
CGA:  10    -0.385839850318E+03   -0.72586E-02   -0.71604E-02  8736   0.506E-01 0.989E-03
CGA:  11    -0.385842985196E+03   -0.31349E-02   -0.31326E-02  8736   0.956E-01 0.188E-03
CGA:  12    -0.385846461625E+03   -0.34764E-02   -0.34740E-02  8736   0.334E-01-0.181E-04
CGA:  13    -0.385848199474E+03   -0.17378E-02   -0.17378E-02  8736   0.278E-01-0.355E-04
CGA:  14    -0.385848923124E+03   -0.72365E-03   -0.72267E-03  8736   0.878E-02 0.796E-05
CGA:  15    -0.385849485393E+03   -0.56227E-03   -0.56163E-03  8736   0.145E-01 0.410E-04
CGA:  16    -0.385850089981E+03   -0.60459E-03   -0.60436E-03  8736   0.683E-02-0.880E-05
CGA:  17    -0.385850367554E+03   -0.27757E-03   -0.27761E-03  8736   0.580E-02 0.527E-05
CGA:  18    -0.385850576787E+03   -0.20923E-03   -0.20950E-03  8736   0.291E-02 0.236E-05
CGA:  19    -0.385850763628E+03   -0.18684E-03   -0.18661E-03  8736   0.405E-02 0.162E-04
CGA:  20    -0.385850943328E+03   -0.17970E-03   -0.17970E-03  8736   0.469E-02 0.556E-06
CGA:  21    -0.385851192381E+03   -0.24905E-03   -0.24907E-03  8736   0.189E-02-0.235E-05
CGA:  22    -0.385851257469E+03   -0.65088E-04   -0.64952E-04  8736   0.187E-02-0.541E-05
CGA:  23    -0.385851413535E+03   -0.15607E-03   -0.15597E-03  8736   0.309E-02 0.275E-05
CGA:  24    -0.385851528686E+03   -0.11515E-03   -0.11511E-03  8736   0.162E-02-0.338E-05
CGA:  25    -0.385851589194E+03   -0.60508E-04   -0.60519E-04  8736   0.865E-03 0.351E-07
CGA:  26    -0.385851628137E+03   -0.38943E-04   -0.38923E-04  8736   0.114E-02-0.361E-05
[...]
       N       E                     dE             d eps       ncg     rms          ort
SDA:   1    -0.385144537220E+03    0.19144E+01    0.00000E+00  8736   0.934E+01 0.000E+00
CGA:   2    -0.385509834224E+03   -0.36530E+00   -0.35739E+00  8736   0.136E+02-0.290E-01
CGA:   3    -0.386226753622E+03   -0.71692E+00   -0.71730E+00  8736   0.904E+01 0.354E+00
CGA:   4    -0.386490827554E+03   -0.26407E+00   -0.26377E+00  8736   0.330E+01-0.690E-01
CGA:   5    -0.386734953207E+03   -0.24413E+00   -0.24256E+00  8736   0.305E+01 0.565E-01
CGA:   6    -0.386988741211E+03   -0.25379E+00   -0.25085E+00  8736   0.140E+01 0.901E-01
CGA:   7    -0.387020655632E+03   -0.31914E-01   -0.32603E-01  8736   0.505E+00-0.183E-01
CGA:   8    -0.387047002240E+03   -0.26347E-01   -0.26345E-01  8736   0.443E+00-0.496E-02
CGA:   9    -0.387060657538E+03   -0.13655E-01   -0.13816E-01  8736   0.236E+00-0.158E-02
CGA:  10    -0.387075603783E+03   -0.14946E-01   -0.14985E-01  8736   0.650E-01-0.226E-02
CGA:  11    -0.387078412401E+03   -0.28086E-02   -0.28230E-02  8736   0.788E-01 0.505E-03
CGA:  12    -0.387081252754E+03   -0.28404E-02   -0.28316E-02  8736   0.287E-01-0.120E-04
CGA:  13    -0.387083548583E+03   -0.22958E-02   -0.23012E-02  8736   0.305E-01-0.159E-03
CGA:  14    -0.387084439665E+03   -0.89108E-03   -0.89322E-03  8736   0.143E-01-0.130E-04
CGA:  15    -0.387085198874E+03   -0.75921E-03   -0.75913E-03  8736   0.114E-01 0.303E-04
CGA:  16    -0.387085543271E+03   -0.34440E-03   -0.34361E-03  8736   0.496E-02 0.142E-04
CGA:  17    -0.387085936151E+03   -0.39288E-03   -0.39214E-03  8736   0.480E-02 0.231E-04
CGA:  18    -0.387086138899E+03   -0.20275E-03   -0.20266E-03  8736   0.574E-02 0.650E-06
CGA:  19    -0.387086383367E+03   -0.24447E-03   -0.24459E-03  8736   0.107E-02 0.826E-05
CGA:  20    -0.387086469329E+03   -0.85962E-04   -0.85855E-04  8736   0.309E-02 0.325E-05
CGA:  21    -0.387086625994E+03   -0.15667E-03   -0.15668E-03  8736   0.165E-02 0.388E-05
CGA:  22    -0.387086688291E+03   -0.62298E-04   -0.62287E-04  8736   0.108E-02 0.325E-06
CGA:  23    -0.387086733384E+03   -0.45092E-04   -0.45103E-04  8736   0.542E-03 0.529E-06
CGA:  24    -0.387086777464E+03   -0.44080E-04   -0.44100E-04  8736   0.115E-02-0.694E-06
CGA:  25    -0.387086813826E+03   -0.36361E-04   -0.36395E-04  8736   0.420E-03-0.122E-05
CGA:  26    -0.387086846030E+03   -0.32205E-04   -0.32171E-04  8736   0.292E-03 0.107E-05
CGA:  27    -0.387086855008E+03   -0.89781E-05   -0.89854E-05  8736   0.224E-03-0.181E-06
CGA:  28    -0.387086872019E+03   -0.17011E-04   -0.17015E-04  8736   0.213E-03-0.257E-06
CGA:  29    -0.387086879889E+03   -0.78701E-05   -0.78749E-05  8736   0.159E-03 0.166E-06
CGA:  30    -0.387086890468E+03   -0.10579E-04   -0.10573E-04  8736   0.127E-03 0.351E-06
CGA:  31    -0.387086894805E+03   -0.43368E-05   -0.43384E-05  8736   0.106E-03-0.457E-07
 290 F= -.38708689E+03 E0= -.38707038E+03  d E =-.279357E-01  mag=    34.0000
       N       E                     dE             d eps       ncg     rms          ort
SDA:   1    -0.387044193823E+03    0.42697E-01    0.00000E+00  8736   0.400E+00 0.000E+00
CGA:   2    -0.387052172559E+03   -0.79787E-02   -0.72682E-02  8736   0.151E+00 0.287E-01
CGA:   3    -0.387068913558E+03   -0.16741E-01   -0.16706E-01  8736   0.167E+00 0.701E-03
CGA:   4    -0.387076263528E+03   -0.73500E-02   -0.73728E-02  8736   0.156E+00 0.711E-03
CGA:   5    -0.387080052974E+03   -0.37894E-02   -0.37013E-02  8736   0.446E-01 0.223E-02
CGA:   6    -0.387085692832E+03   -0.56399E-02   -0.56322E-02  8736   0.803E-01 0.114E-03
CGA:   7    -0.387087286279E+03   -0.15934E-02   -0.16251E-02  8736   0.146E-01-0.112E-02
CGA:   8    -0.387087800576E+03   -0.51430E-03   -0.51342E-03  8736   0.117E-01-0.128E-06
CGA:   9    -0.387088297788E+03   -0.49721E-03   -0.49703E-03  8736   0.396E-02-0.462E-05
CGA:  10    -0.387088545703E+03   -0.24791E-03   -0.24774E-03  8736   0.653E-02 0.119E-04
CGA:  11    -0.387088706348E+03   -0.16065E-03   -0.16039E-03  8736   0.129E-02 0.815E-05
CGA:  12    -0.387088809146E+03   -0.10280E-03   -0.10270E-03  8736   0.972E-03 0.299E-05
CGA:  13    -0.387088835421E+03   -0.26276E-04   -0.26314E-04  8736   0.600E-03-0.454E-07
CGA:  14    -0.387088870433E+03   -0.35011E-04   -0.35004E-04  8736   0.689E-03 0.946E-06
CGA:  15    -0.387088893426E+03   -0.22993E-04   -0.23002E-04  8736   0.288E-03 0.278E-06
CGA:  16    -0.387088914541E+03   -0.21115E-04   -0.21121E-04  8736   0.166E-03-0.216E-06
CGA:  17    -0.387088918038E+03   -0.34970E-05   -0.34923E-05  8736   0.738E-04 0.133E-06
 291 F= -.38708892E+03 E0= -.38707240E+03  d E =-.202323E-02  mag=    34.0000
       N       E                     dE             d eps       ncg     rms          ort
SDA:   1    -0.386978810874E+03    0.11010E+00    0.00000E+00  8736   0.682E+00 0.000E+00
CGA:   2    -0.386997293456E+03   -0.18483E-01   -0.18120E-01  8736   0.476E+00 0.600E-02
CGA:   3    -0.387035808970E+03   -0.38516E-01   -0.38389E-01  8736   0.782E+00 0.385E-02
CGA:   4    -0.387058983270E+03   -0.23174E-01   -0.23160E-01  8736   0.247E+00 0.235E-03
CGA:   5    -0.387073429663E+03   -0.14446E-01   -0.14426E-01  8736   0.109E+00 0.188E-02
CGA:   6    -0.387084813042E+03   -0.11383E-01   -0.11332E-01  8736   0.679E-01 0.999E-03
CGA:   7    -0.387086927826E+03   -0.21148E-02   -0.20881E-02  8736   0.540E-01 0.314E-03
CGA:   8    -0.387089089024E+03   -0.21612E-02   -0.21570E-02  8736   0.113E-01-0.508E-04
CGA:   9    -0.387089675496E+03   -0.58647E-03   -0.58645E-03  8736   0.131E-01-0.113E-04
CGA:  10    -0.387090307828E+03   -0.63233E-03   -0.63228E-03  8736   0.357E-02-0.644E-05
CGA:  11    -0.387090613222E+03   -0.30539E-03   -0.30548E-03  8736   0.271E-02-0.244E-05
CGA:  12    -0.387090683627E+03   -0.70405E-04   -0.70123E-04  8736   0.160E-02 0.597E-05
CGA:  13    -0.387090773987E+03   -0.90361E-04   -0.90331E-04  8736   0.751E-03 0.525E-05
CGA:  14    -0.387090815956E+03   -0.41969E-04   -0.41965E-04  8736   0.102E-02 0.128E-05
CGA:  15    -0.387090873199E+03   -0.57243E-04   -0.57236E-04  8736   0.181E-03 0.141E-05
CGA:  16    -0.387090885261E+03   -0.12061E-04   -0.12056E-04  8736   0.203E-03 0.381E-06
CGA:  17    -0.387090893114E+03   -0.78533E-05   -0.78502E-05  8736   0.242E-03-0.262E-07
CGA:  18    -0.387090909004E+03   -0.15890E-04   -0.15891E-04  8736   0.971E-04-0.113E-06
CGA:  19    -0.387090912582E+03   -0.35784E-05   -0.35792E-05  8736   0.729E-04 0.461E-07
 292 F= -.38709091E+03 E0= -.38707443E+03  d E =-.199454E-02  mag=    34.0000
       N       E                     dE             d eps       ncg     rms          ort
SDA:   1    -0.387053692317E+03    0.37217E-01    0.00000E+00  8736   0.192E+00 0.000E+00
CGA:   2    -0.387058887575E+03   -0.51953E-02   -0.49633E-02  8736   0.160E+00 0.489E-02
CGA:   3    -0.387077573570E+03   -0.18686E-01   -0.18565E-01  8736   0.170E+00 0.202E-02
CGA:   4    -0.387082501493E+03   -0.49279E-02   -0.49089E-02  8736   0.670E-01 0.316E-03
CGA:   5    -0.387087291999E+03   -0.47905E-02   -0.47889E-02  8736   0.349E-01 0.636E-04
CGA:   6    -0.387088615954E+03   -0.13240E-02   -0.13408E-02  8736   0.402E-01 0.601E-04
CGA:   7    -0.387090279287E+03   -0.16633E-02   -0.16584E-02  8736   0.851E-02-0.649E-04
CGA:   8    -0.387090991536E+03   -0.71225E-03   -0.71059E-03  8736   0.296E-02 0.479E-04
CGA:   9    -0.387091127197E+03   -0.13566E-03   -0.13571E-03  8736   0.323E-02 0.445E-06
CGA:  10    -0.387091258378E+03   -0.13118E-03   -0.13113E-03  8736   0.159E-02-0.241E-05
CGA:  11    -0.387091324633E+03   -0.66255E-04   -0.66211E-04  8736   0.146E-02-0.158E-05
CGA:  12    -0.387091385592E+03   -0.60959E-04   -0.60990E-04  8736   0.321E-03 0.489E-06
CGA:  13    -0.387091409331E+03   -0.23739E-04   -0.23732E-04  8736   0.214E-03 0.301E-06
CGA:  14    -0.387091426992E+03   -0.17661E-04   -0.17628E-04  8736   0.506E-03 0.109E-05
CGA:  15    -0.387091441306E+03   -0.14315E-04   -0.14310E-04  8736   0.508E-04 0.961E-06
CGA:  16    -0.387091444554E+03   -0.32472E-05   -0.32476E-05  8736   0.988E-04-0.188E-07
 293 F= -.38709144E+03 E0= -.38707503E+03  d E =-.531971E-03  mag=    34.0000
       N       E                     dE             d eps       ncg     rms          ort
SDA:   1    -0.387012519761E+03    0.78922E-01    0.00000E+00  8736   0.461E+00 0.000E+00
CGA:   2    -0.387023493454E+03   -0.10974E-01   -0.10230E-01  8736   0.289E+00 0.221E-01
CGA:   3    -0.387059737170E+03   -0.36244E-01   -0.36243E-01  8736   0.345E+00 0.330E-04
CGA:   4    -0.387074513491E+03   -0.14776E-01   -0.14645E-01  8736   0.178E+00-0.152E-02
CGA:   5    -0.387080063974E+03   -0.55505E-02   -0.54986E-02  8736   0.792E-01 0.623E-03
CGA:   6    -0.387084640580E+03   -0.45766E-02   -0.45750E-02  8736   0.131E+00 0.315E-03
CGA:   7    -0.387089137945E+03   -0.44974E-02   -0.45190E-02  8736   0.128E-01-0.876E-04
CGA:   8    -0.387090399613E+03   -0.12617E-02   -0.12609E-02  8736   0.181E-01 0.167E-04
CGA:   9    -0.387090756740E+03   -0.35713E-03   -0.36345E-03  8736   0.395E-02-0.232E-03
CGA:  10    -0.387091146879E+03   -0.39014E-03   -0.39038E-03  8736   0.276E-02-0.531E-05
CGA:  11    -0.387091318123E+03   -0.17124E-03   -0.17128E-03  8736   0.191E-02-0.395E-05
CGA:  12    -0.387091366946E+03   -0.48823E-04   -0.48922E-04  8736   0.580E-03-0.193E-05
CGA:  13    -0.387091408092E+03   -0.41146E-04   -0.41147E-04  8736   0.130E-02 0.924E-07
CGA:  14    -0.387091462257E+03   -0.54165E-04   -0.54181E-04  8736   0.350E-03 0.117E-05
CGA:  15    -0.387091480574E+03   -0.18317E-04   -0.18320E-04  8736   0.897E-04 0.674E-06
CGA:  16    -0.387091494529E+03   -0.13955E-04   -0.13980E-04  8736   0.288E-03-0.243E-06
CGA:  17    -0.387091501568E+03   -0.70385E-05   -0.70467E-05  8736   0.722E-04-0.353E-06
 294 F= -.38709150E+03 E0= -.38707520E+03  d E =-.570142E-04  mag=    34.0000
       N       E                     dE             d eps       ncg     rms          ort
SDA:   1    -0.387038148715E+03    0.53346E-01    0.00000E+00  8736   0.932E+00 0.000E+00
CGA:   2    -0.387054547205E+03   -0.16398E-01   -0.15763E-01  8736   0.115E+00 0.276E-01
CGA:   3    -0.387065025580E+03   -0.10478E-01   -0.10458E-01  8736   0.381E+00 0.553E-03
CGA:   4    -0.387082226038E+03   -0.17200E-01   -0.17200E-01  8736   0.482E-01 0.247E-05
CGA:   5    -0.387086052575E+03   -0.38265E-02   -0.38200E-02  8736   0.825E-01 0.234E-03
CGA:   6    -0.387088712308E+03   -0.26597E-02   -0.26492E-02  8736   0.247E-01 0.130E-03
CGA:   7    -0.387090144796E+03   -0.14325E-02   -0.14325E-02  8736   0.240E-01-0.381E-04
CGA:   8    -0.387090702446E+03   -0.55765E-03   -0.56113E-03  8736   0.398E-02-0.986E-04
CGA:   9    -0.387091046144E+03   -0.34370E-03   -0.34363E-03  8736   0.430E-02 0.256E-05
CGA:  10    -0.387091217122E+03   -0.17098E-03   -0.17098E-03  8736   0.277E-02 0.139E-05
CGA:  11    -0.387091335515E+03   -0.11839E-03   -0.11847E-03  8736   0.676E-03 0.161E-05
CGA:  12    -0.387091397122E+03   -0.61607E-04   -0.61568E-04  8736   0.549E-03 0.108E-05
CGA:  13    -0.387091413247E+03   -0.16125E-04   -0.16129E-04  8736   0.316E-03-0.886E-07
CGA:  14    -0.387091445643E+03   -0.32396E-04   -0.32393E-04  8736   0.402E-03 0.489E-07
CGA:  15    -0.387091454262E+03   -0.86186E-05   -0.85973E-05  8736   0.767E-04 0.219E-06
 295 F= -.38709145E+03 E0= -.38707523E+03  d E =0.473060E-04  mag=    34.0000
       N       E                     dE             d eps       ncg     rms          ort
SDA:   1    -0.386362915590E+03    0.72853E+00    0.00000E+00  8736   0.245E+01 0.000E+00
CGA:   2    -0.386518280183E+03   -0.15536E+00   -0.15732E+00  8736   0.790E+01-0.191E+00
CGA:   3    -0.386822826303E+03   -0.30455E+00   -0.30561E+00  8736   0.213E+01 0.165E-02
CGA:   4    -0.386912812300E+03   -0.89986E-01   -0.90764E-01  8736   0.198E+01 0.794E-02
CGA:   5    -0.386973776841E+03   -0.60965E-01   -0.58606E-01  8736   0.906E+00 0.303E-01
CGA:   6    -0.387039612243E+03   -0.65835E-01   -0.66001E-01  8736   0.124E+01-0.732E-02
CGA:   7    -0.387064089026E+03   -0.24477E-01   -0.26975E-01  8736   0.276E+00-0.790E-01
CGA:   8    -0.387072238587E+03   -0.81496E-02   -0.81722E-02  8736   0.161E+00-0.224E-03
CGA:   9    -0.387077763948E+03   -0.55254E-02   -0.55066E-02  8736   0.902E-01 0.483E-04
CGA:  10    -0.387081750928E+03   -0.39870E-02   -0.39976E-02  8736   0.127E+00 0.413E-03
CGA:  11    -0.387086704083E+03   -0.49532E-02   -0.49533E-02  8736   0.211E-01 0.130E-04
CGA:  12    -0.387087286091E+03   -0.58201E-03   -0.57441E-03  8736   0.171E-01 0.119E-03
CGA:  13    -0.387088188767E+03   -0.90268E-03   -0.90259E-03  8736   0.963E-02 0.173E-04
CGA:  14    -0.387088596064E+03   -0.40730E-03   -0.40755E-03  8736   0.122E-01 0.879E-05
CGA:  15    -0.387089119047E+03   -0.52298E-03   -0.52267E-03  8736   0.601E-02-0.155E-04
CGA:  16    -0.387089281475E+03   -0.16243E-03   -0.16258E-03  8736   0.270E-02-0.397E-05
CGA:  17    -0.387089442071E+03   -0.16060E-03   -0.16062E-03  8736   0.251E-02-0.262E-05
CGA:  18    -0.387089498674E+03   -0.56603E-04   -0.56317E-04  8736   0.915E-03 0.625E-05
CGA:  19    -0.387089602102E+03   -0.10343E-03   -0.10332E-03  8736   0.200E-02 0.173E-05
CGA:  20    -0.387089649703E+03   -0.47600E-04   -0.47841E-04  8736   0.732E-03-0.492E-05
CGA:  21    -0.387089686350E+03   -0.36648E-04   -0.36648E-04  8736   0.503E-03-0.484E-06
CGA:  22    -0.387089700971E+03   -0.14621E-04   -0.14627E-04  8736   0.274E-03 0.428E-07
CGA:  23    -0.387089720181E+03   -0.19210E-04   -0.19180E-04  8736   0.715E-03 0.136E-05
CGA:  24    -0.387089754316E+03   -0.34135E-04   -0.34141E-04  8736   0.249E-03 0.259E-05
CGA:  25    -0.387089763242E+03   -0.89260E-05   -0.89246E-05  8736   0.200E-03 0.355E-07
 296 F= -.38708976E+03 E0= -.38707386E+03  d E =0.169102E-02  mag=    34.0000
       N       E                     dE             d eps       ncg     rms          ort
SDA:   1    -0.386766789297E+03    0.32297E+00    0.00000E+00  8736   0.142E+01 0.000E+00
CGA:   2    -0.386844523222E+03   -0.77734E-01   -0.77392E-01  8736   0.195E+01 0.318E-01
CGA:   3    -0.386969971397E+03   -0.12545E+00   -0.12545E+00  8736   0.888E+00 0.584E-04
CGA:   4    -0.387022041160E+03   -0.52070E-01   -0.52614E-01  8736   0.513E+00-0.356E-01
CGA:   5    -0.387041958365E+03   -0.19917E-01   -0.19491E-01  8736   0.593E+00-0.105E-01
CGA:   6    -0.387073728993E+03   -0.31771E-01   -0.31669E-01  8736   0.177E+00 0.110E-01
CGA:   7    -0.387079682268E+03   -0.59533E-02   -0.59530E-02  8736   0.991E-01 0.133E-04
CGA:   8    -0.387085510621E+03   -0.58284E-02   -0.58228E-02  8736   0.363E-01 0.373E-03
CGA:   9    -0.387087115316E+03   -0.16047E-02   -0.16077E-02  8736   0.461E-01 0.244E-03
CGA:  10    -0.387088925286E+03   -0.18100E-02   -0.18064E-02  8736   0.119E-01-0.917E-04
CGA:  11    -0.387089723856E+03   -0.79857E-03   -0.79862E-03  8736   0.755E-02-0.312E-06
CGA:  12    -0.387090009567E+03   -0.28571E-03   -0.28570E-03  8736   0.481E-02 0.932E-06
CGA:  13    -0.387090312399E+03   -0.30283E-03   -0.30267E-03  8736   0.333E-02 0.844E-05
CGA:  14    -0.387090436689E+03   -0.12429E-03   -0.12466E-03  8736   0.363E-02 0.699E-05
CGA:  15    -0.387090635346E+03   -0.19866E-03   -0.19871E-03  8736   0.686E-03-0.442E-05
CGA:  16    -0.387090693537E+03   -0.58191E-04   -0.58139E-04  8736   0.138E-02 0.134E-05
CGA:  17    -0.387090768887E+03   -0.75350E-04   -0.75340E-04  8736   0.908E-03 0.199E-05
CGA:  18    -0.387090824136E+03   -0.55249E-04   -0.55238E-04  8736   0.467E-03 0.132E-05
CGA:  19    -0.387090839963E+03   -0.15827E-04   -0.15848E-04  8736   0.508E-03-0.203E-06
CGA:  20    -0.387090891966E+03   -0.52002E-04   -0.52153E-04  8736   0.383E-03-0.291E-05
CGA:  21    -0.387090910449E+03   -0.18483E-04   -0.18479E-04  8736   0.350E-03-0.901E-06
CGA:  22    -0.387090928569E+03   -0.18120E-04   -0.18119E-04  8736   0.156E-03-0.741E-06
CGA:  23    -0.387090943438E+03   -0.14869E-04   -0.14872E-04  8736   0.146E-03-0.102E-06
CGA:  24    -0.387090948772E+03   -0.53342E-05   -0.53420E-05  8736   0.145E-03 0.253E-06
 297 F= -.38709095E+03 E0= -.38707487E+03  d E =-.118553E-02  mag=    34.0000
       N       E                     dE             d eps       ncg     rms          ort
SDA:   1    -0.386934448784E+03    0.15649E+00    0.00000E+00  8736   0.692E+00 0.000E+00
CGA:   2    -0.386966625081E+03   -0.32176E-01   -0.32475E-01  8736   0.111E+01 0.144E-01
CGA:   3    -0.387033493917E+03   -0.66869E-01   -0.67082E-01  8736   0.418E+00-0.231E-01
CGA:   4    -0.387048672458E+03   -0.15179E-01   -0.15329E-01  8736   0.330E+00 0.408E-03
CGA:   5    -0.387069106064E+03   -0.20434E-01   -0.20541E-01  8736   0.264E+00-0.783E-02
CGA:   6    -0.387081473656E+03   -0.12368E-01   -0.12402E-01  8736   0.194E+00 0.235E-02
CGA:   7    -0.387086601084E+03   -0.51274E-02   -0.49852E-02  8736   0.279E-01 0.304E-02
CGA:   8    -0.387088680386E+03   -0.20793E-02   -0.20785E-02  8736   0.353E-01 0.304E-04
CGA:   9    -0.387089891272E+03   -0.12109E-02   -0.12058E-02  8736   0.194E-01 0.153E-04
CGA:  10    -0.387090878723E+03   -0.98745E-03   -0.98752E-03  8736   0.930E-02 0.253E-04
CGA:  11    -0.387091132474E+03   -0.25375E-03   -0.25259E-03  8736   0.283E-02 0.197E-04
CGA:  12    -0.387091371646E+03   -0.23917E-03   -0.23886E-03  8736   0.378E-02 0.841E-05
CGA:  13    -0.387091490618E+03   -0.11897E-03   -0.11850E-03  8736   0.221E-02 0.384E-05
CGA:  14    -0.387091633770E+03   -0.14315E-03   -0.14314E-03  8736   0.840E-03 0.533E-06
CGA:  15    -0.387091660754E+03   -0.26984E-04   -0.26951E-04  8736   0.587E-03 0.869E-07
CGA:  16    -0.387091707947E+03   -0.47193E-04   -0.47099E-04  8736   0.681E-03 0.276E-05
CGA:  17    -0.387091728937E+03   -0.20990E-04   -0.20962E-04  8736   0.339E-03-0.788E-07
CGA:  18    -0.387091760617E+03   -0.31680E-04   -0.31648E-04  8736   0.286E-03 0.712E-06
CGA:  19    -0.387091769078E+03   -0.84613E-05   -0.84437E-05  8736   0.168E-03 0.211E-06
CGA:  20    -0.387091780468E+03   -0.11390E-04   -0.11383E-04  8736   0.205E-03 0.411E-06
CGA:  21    -0.387091795168E+03   -0.14700E-04   -0.14694E-04  8736   0.292E-03 0.314E-06
CGA:  22    -0.387091805568E+03   -0.10400E-04   -0.10410E-04  8736   0.649E-04 0.260E-06
CGA:  23    -0.387091808413E+03   -0.28448E-05   -0.28458E-05  8736   0.948E-04 0.119E-06
 298 F= -.38709181E+03 E0= -.38707561E+03  d E =-.859641E-03  mag=    34.0000
       N       E                     dE             d eps       ncg     rms          ort
SDA:   1    -0.387056061674E+03    0.35744E-01    0.00000E+00  8736   0.213E+00 0.000E+00
CGA:   2    -0.387061618905E+03   -0.55572E-02   -0.58308E-02  8736   0.178E+00-0.501E-02
CGA:   3    -0.387077651838E+03   -0.16033E-01   -0.16006E-01  8736   0.124E+00 0.621E-03
CGA:   4    -0.387082146964E+03   -0.44951E-02   -0.44962E-02  8736   0.834E-01-0.173E-05
CGA:   5    -0.387086988815E+03   -0.48419E-02   -0.48432E-02  8736   0.393E-01-0.196E-03
CGA:   6    -0.387089150623E+03   -0.21618E-02   -0.21613E-02  8736   0.526E-01 0.358E-03
CGA:   7    -0.387090780583E+03   -0.16300E-02   -0.16194E-02  8736   0.104E-01 0.133E-03
CGA:   8    -0.387091350688E+03   -0.57010E-03   -0.57016E-03  8736   0.345E-02-0.196E-04
CGA:   9    -0.387091516965E+03   -0.16628E-03   -0.16616E-03  8736   0.545E-02-0.883E-05
CGA:  10    -0.387091786842E+03   -0.26988E-03   -0.26988E-03  8736   0.125E-02 0.161E-05
CGA:  11    -0.387091837176E+03   -0.50334E-04   -0.50333E-04  8736   0.103E-02 0.994E-07
CGA:  12    -0.387091886486E+03   -0.49310E-04   -0.49318E-04  8736   0.413E-03 0.573E-06
CGA:  13    -0.387091907416E+03   -0.20930E-04   -0.20928E-04  8736   0.563E-03-0.794E-06
CGA:  14    -0.387091929652E+03   -0.22236E-04   -0.22233E-04  8736   0.194E-03-0.543E-06
CGA:  15    -0.387091946739E+03   -0.17087E-04   -0.17110E-04  8736   0.130E-03-0.609E-06
CGA:  16    -0.387091950004E+03   -0.32656E-05   -0.32697E-05  8736   0.674E-04-0.571E-07
 299 F= -.38709195E+03 E0= -.38707576E+03  d E =-.141592E-03  mag=    34.0000
