       N       E                     dE             d eps       ncg     rms          rms(c)
DAV:   1     0.650512827561E+04    0.65051E+04   -0.27562E+05 36080   0.159E+03
DAV:   2     0.457912045786E+03   -0.60472E+04   -0.57459E+04 35760   0.480E+02
DAV:   3    -0.346157860324E+03   -0.80407E+03   -0.78325E+03 41040   0.177E+02
DAV:   4    -0.388929186345E+03   -0.42771E+02   -0.41843E+02 48400   0.426E+01
DAV:   5    -0.391955131857E+03   -0.30259E+01   -0.30210E+01 65520   0.870E+00    0.431E-01
DAV:   6    -0.392126084654E+03   -0.17095E+00   -0.72755E-01 51792   0.143E+00    0.380E-01
DAV:   7    -0.392130037844E+03   -0.39532E-02   -0.39481E-02 63584   0.302E-01    0.143E-01
DAV:   8    -0.392130263956E+03   -0.22611E-03   -0.28176E-03 52480   0.732E-02    0.126E-01
DAV:   9    -0.392130271018E+03   -0.70619E-05   -0.20762E-04 40944   0.212E-02    0.102E-01
DAV:  10    -0.392130264227E+03    0.67903E-05   -0.36180E-05 34800   0.140E-02
   1 F= -.39213026E+03 E0= -.39213026E+03  d E =-.392130E+03  mag=    36.0000
