       N       E                     dE             d eps       ncg     rms          rms(c)
DAV:   1     0.532875751017E+04    0.53288E+04   -0.22187E+05 28744   0.160E+03
DAV:   2     0.430747677570E+03   -0.48980E+04   -0.45439E+04 30152   0.467E+02
DAV:   3    -0.318226652814E+03   -0.74897E+03   -0.69725E+03 31344   0.186E+02
DAV:   4    -0.353953002275E+03   -0.35726E+02   -0.34932E+02 32848   0.421E+01
DAV:   5    -0.355233460277E+03   -0.12805E+01   -0.12661E+01 42976   0.756E+00    0.287E-01
DAV:   6    -0.355307461068E+03   -0.74001E-01   -0.37948E-01 44872   0.109E+00    0.732E-01
DAV:   7    -0.355308321591E+03   -0.86052E-03   -0.17510E-02 43888   0.305E-01    0.626E-01
DAV:   8    -0.355308102786E+03    0.21880E-03   -0.38165E-03 39768   0.153E-01    0.435E-01
DAV:   9    -0.355307869627E+03    0.23316E-03   -0.13132E-03 38896   0.976E-02    0.228E-01
DAV:  10    -0.355307858765E+03    0.10862E-04   -0.40055E-04 34408   0.589E-02    0.161E-01
DAV:  11    -0.355307864985E+03   -0.62192E-05   -0.32390E-04 24624   0.399E-02    0.154E-01
DAV:  12    -0.355307839786E+03    0.25199E-04   -0.16941E-04 22296   0.293E-02    0.924E-02
DAV:  13    -0.355307850361E+03   -0.10575E-04   -0.55569E-05 20976   0.196E-02    0.106E-01
DAV:  14    -0.355307845909E+03    0.44523E-05   -0.28689E-05 19840   0.180E-02
   1 F= -.35530785E+03 E0= -.35529101E+03  d E =-.355308E+03  mag=     8.0000
