       N       E                     dE             d eps       ncg     rms          rms(c)
DAV:   1     0.174686648457E+04    0.17469E+04   -0.73484E+04111136   0.170E+03
DAV:   2     0.677859926906E+02   -0.16791E+04   -0.15692E+04118932   0.501E+02
DAV:   3    -0.195632043642E+03   -0.26342E+03   -0.25159E+03123976   0.195E+02
DAV:   4    -0.206992871885E+03   -0.11361E+02   -0.11267E+02124968   0.447E+01
DAV:   5    -0.207362823047E+03   -0.36995E+00   -0.36898E+00133720   0.851E+00    0.559E+00
DAV:   6    -0.167353845189E+03    0.40009E+02   -0.16108E+01115064   0.159E+01    0.432E+00
DAV:   7    -0.167150262637E+03    0.20358E+00   -0.69307E-01158408   0.477E+00    0.261E+00
DAV:   8    -0.167107651800E+03    0.42611E-01   -0.71386E-02126064   0.116E+00    0.176E+00
DAV:   9    -0.167094064685E+03    0.13587E-01   -0.12196E-02125476   0.438E-01    0.136E+00
DAV:  10    -0.167086543086E+03    0.75216E-02   -0.48634E-03120172   0.265E-01    0.108E+00
DAV:  11    -0.167081153529E+03    0.53896E-02   -0.36528E-03117916   0.227E-01    0.841E-01
DAV:  12    -0.167076597089E+03    0.45564E-02   -0.51148E-03118636   0.271E-01    0.550E-01
DAV:  13    -0.167074863002E+03    0.17341E-02   -0.17352E-03118988   0.157E-01    0.380E-01
DAV:  14    -0.167073717905E+03    0.11451E-02   -0.19447E-03118496   0.166E-01    0.204E-01
DAV:  15    -0.167073379472E+03    0.33843E-03   -0.12899E-03118464   0.137E-01    0.540E-02
DAV:  16    -0.167073374024E+03    0.54483E-05   -0.28381E-04121164   0.631E-02    0.134E-02
DAV:  17    -0.167073388140E+03   -0.14116E-04   -0.94549E-06 62304   0.142E-02    0.243E-02
DAV:  18    -0.167073390077E+03   -0.19367E-05   -0.22601E-06 62000   0.927E-03
   1 F= -.16707339E+03 E0= -.16707339E+03  d E =-.167073E+03  mag=     2.0000
