       N       E                     dE             d eps       ncg     rms          rms(c)
DAV:   1     0.653882600789E+04    0.65388E+04   -0.28681E+05 37112   0.160E+03
DAV:   2     0.406303882536E+03   -0.61325E+04   -0.57459E+04 37608   0.481E+02
DAV:   3    -0.352516949693E+03   -0.75882E+03   -0.74270E+03 40464   0.174E+02
DAV:   4    -0.386464867462E+03   -0.33948E+02   -0.33721E+02 47416   0.346E+01
DAV:   5    -0.389214671295E+03   -0.27498E+01   -0.27466E+01 64272   0.695E+00    0.853E-01
DAV:   6    -0.389555983443E+03   -0.34131E+00   -0.97614E-01 55648   0.129E+00    0.886E-01
DAV:   7    -0.389558063046E+03   -0.20796E-02   -0.31925E-02 52960   0.405E-01    0.335E-01
DAV:   8    -0.389558270203E+03   -0.20716E-03   -0.27546E-03 54560   0.103E-01    0.239E-01
DAV:   9    -0.389558262994E+03    0.72090E-05   -0.23582E-04 48712   0.335E-02    0.207E-01
DAV:  10    -0.389558208532E+03    0.54462E-04   -0.67284E-05 37480   0.314E-02    0.148E-01
DAV:  11    -0.389558204679E+03    0.38530E-05   -0.17302E-04 47240   0.341E-02    0.559E-02
DAV:  12    -0.389558214460E+03   -0.97808E-05   -0.49069E-05 35696   0.218E-02
   1 F= -.38955821E+03 E0= -.38955648E+03  d E =-.389558E+03  mag=    48.0000
