       N       E                     dE             d eps       ncg     rms          rms(c)
DAV:   1     0.566319222852E+03    0.56632E+03   -0.27820E+04166689   0.172E+03
DAV:   2    -0.505118181795E+02   -0.61683E+03   -0.59751E+03171171   0.520E+02
DAV:   3    -0.771945916689E+02   -0.26683E+02   -0.25856E+02182574   0.129E+02
DAV:   4    -0.777082920406E+02   -0.51370E+00   -0.51197E+00197811   0.168E+01
DAV:   5    -0.777244646011E+02   -0.16173E-01   -0.16166E-01213336   0.272E+00    0.366E+01
DAV:   6    -0.685223384347E+02    0.92021E+01   -0.38595E+01168408   0.510E+01    0.134E+01
DAV:   7    -0.720645947337E+02   -0.35423E+01   -0.17106E+00228249   0.100E+01    0.118E+01
DAV:   8    -0.729486932490E+02   -0.88410E+00   -0.43185E-01216954   0.382E+00    0.643E+00
DAV:   9    -0.734374618575E+02   -0.48877E+00   -0.99583E-01194328   0.723E+00    0.351E+00
DAV:  10    -0.734113578554E+02    0.26104E-01   -0.23616E-01230391   0.365E+00    0.312E+00
DAV:  11    -0.734842805381E+02   -0.72923E-01   -0.40417E-01235755   0.712E+00    0.405E+00
DAV:  12    -0.734420064424E+02    0.42274E-01   -0.37549E-01212544   0.562E+00    0.223E+00
DAV:  13    -0.734319874791E+02    0.10019E-01   -0.11962E-01230679   0.385E+00    0.187E+00
DAV:  14    -0.734229996878E+02    0.89878E-02   -0.11451E-01190683   0.302E+00    0.539E-01
DAV:  15    -0.734241487319E+02   -0.11490E-02   -0.87782E-03213948   0.848E-01    0.535E-01
DAV:  16    -0.734229517458E+02    0.11970E-02   -0.60206E-03201060   0.640E-01    0.357E-01
DAV:  17    -0.734228632664E+02    0.88479E-04   -0.27030E-03237393   0.626E-01    0.307E-01
DAV:  18    -0.734230974868E+02   -0.23422E-03   -0.12114E-03198756   0.317E-01    0.251E-01
DAV:  19    -0.734219056495E+02    0.11918E-02   -0.49870E-03242046   0.499E-01    0.304E-01
DAV:  20    -0.734219224692E+02   -0.16820E-04   -0.73589E-04194562   0.158E-01    0.238E-01
DAV:  21    -0.734219712772E+02   -0.48808E-04   -0.58610E-04221778   0.151E-01    0.991E-02
DAV:  22    -0.734219445358E+02    0.26741E-04   -0.25929E-04184023   0.989E-02    0.435E-02
DAV:  23    -0.734219974500E+02   -0.52914E-04   -0.35713E-05180189   0.400E-02    0.288E-02
DAV:  24    -0.734220124806E+02   -0.15031E-04   -0.60561E-06116748   0.209E-02    0.212E-02
DAV:  25    -0.734220067847E+02    0.56958E-05   -0.10863E-05136278   0.294E-02
   1 F= -.73422007E+02 E0= -.73419995E+02  d E =-.734220E+02  mag=     0.0004
       N       E                     dE             d eps       ncg     rms          rms(c)
DAV:   1    -0.915598423272E+02   -0.18138E+02   -0.41552E+02189360   0.188E+02    0.476E+01
DAV:   2    -0.738011395776E+02    0.17759E+02   -0.68946E+01172485   0.743E+01    0.108E+01
DAV:   3    -0.733412878360E+02    0.45985E+00   -0.38413E+00213876   0.133E+01    0.790E+00
DAV:   4    -0.731431178305E+02    0.19817E+00   -0.71625E-01199071   0.629E+00    0.176E+00
DAV:   5    -0.731318113381E+02    0.11306E-01   -0.11062E-01227952   0.281E+00    0.185E+00
DAV:   6    -0.731283439924E+02    0.34673E-02   -0.44182E-02201267   0.246E+00    0.162E+00
DAV:   7    -0.731522306570E+02   -0.23887E-01   -0.51814E-02224874   0.303E+00    0.189E+00
DAV:   8    -0.731422544155E+02    0.99762E-02   -0.62980E-02205515   0.362E+00    0.197E+00
DAV:   9    -0.731312849715E+02    0.10969E-01   -0.15249E-02201402   0.134E+00    0.724E-02
DAV:  10    -0.731311982742E+02    0.86697E-04   -0.11546E-03209880   0.321E-01    0.972E-02
DAV:  11    -0.731312505023E+02   -0.52228E-04   -0.55401E-05205812   0.815E-02    0.661E-02
DAV:  12    -0.731312659687E+02   -0.15466E-04   -0.11604E-05121239   0.509E-02    0.523E-02
DAV:  13    -0.731313105424E+02   -0.44574E-04   -0.19360E-05158616   0.348E-02    0.239E-02
DAV:  14    -0.731313307113E+02   -0.20169E-04   -0.90201E-06119808   0.239E-02    0.774E-03
DAV:  15    -0.731313357277E+02   -0.50163E-05   -0.44373E-06122976   0.118E-02
   2 F= -.73131336E+02 E0= -.73129930E+02  d E =0.290671E+00  mag=     0.0000
       N       E                     dE             d eps       ncg     rms          rms(c)
DAV:   1    -0.810594253467E+02   -0.79281E+01   -0.17937E+02181008   0.137E+02    0.280E+01
DAV:   2    -0.737532863032E+02    0.73061E+01   -0.42797E+01182241   0.473E+01    0.330E+00
DAV:   3    -0.736366675080E+02    0.11662E+00   -0.78879E-01195849   0.590E+00    0.339E+00
DAV:   4    -0.736183236026E+02    0.18344E-01   -0.28533E-01228159   0.557E+00    0.380E+00
DAV:   5    -0.735767454854E+02    0.41578E-01   -0.27525E-01203805   0.515E+00    0.281E+00
DAV:   6    -0.735906071604E+02   -0.13862E-01   -0.13927E-01245916   0.464E+00    0.245E+00
DAV:   7    -0.735796072349E+02    0.11000E-01   -0.20132E-01218979   0.592E+00    0.179E+00
DAV:   8    -0.735726133658E+02    0.69939E-02   -0.52197E-02238104   0.266E+00    0.607E-01
DAV:   9    -0.735718256785E+02    0.78769E-03   -0.10696E-02189945   0.897E-01    0.390E-01
DAV:  10    -0.735719492992E+02   -0.12362E-03   -0.97031E-04237924   0.286E-01    0.419E-01
DAV:  11    -0.735713132011E+02    0.63610E-03   -0.10465E-03211095   0.266E-01    0.473E-01
DAV:  12    -0.735706955498E+02    0.61765E-03   -0.19573E-03198378   0.314E-01    0.444E-01
DAV:  13    -0.735702386412E+02    0.45691E-03   -0.34396E-03200277   0.388E-01    0.340E-01
DAV:  14    -0.735702715287E+02   -0.32887E-04   -0.99287E-04199089   0.202E-01    0.127E-01
DAV:  15    -0.735703449118E+02   -0.73383E-04   -0.27388E-04202509   0.113E-01    0.166E-02
DAV:  16    -0.735703655134E+02   -0.20602E-04   -0.25335E-05145395   0.339E-02    0.163E-02
DAV:  17    -0.735703679847E+02   -0.24713E-05   -0.45784E-06127080   0.229E-02
   3 F= -.73570368E+02 E0= -.73568732E+02  d E =-.148361E+00  mag=     0.0000
