       N       E                     dE             d eps       ncg     rms          rms(c)
DAV:   1     0.539353568870E+04    0.53935E+04   -0.23788E+05 30888   0.153E+03
DAV:   2     0.282337054391E+03   -0.51112E+04   -0.48592E+04 30488   0.451E+02
DAV:   3    -0.375087562238E+03   -0.65742E+03   -0.64200E+03 32576   0.173E+02
DAV:   4    -0.401331735091E+03   -0.26244E+02   -0.25765E+02 38640   0.396E+01
DAV:   5    -0.402244425631E+03   -0.91269E+00   -0.90358E+00 41352   0.661E+00    0.921E+01
DAV:   6    -0.299192645630E+03    0.10305E+03   -0.34109E+02 39000   0.637E+01    0.882E+01
DAV:   7    -0.326491119538E+03   -0.27298E+02   -0.32132E+02 37736   0.879E+01    0.847E+01
DAV:   8    -0.343970197052E+03   -0.17479E+02   -0.25683E+02 38600   0.564E+01    0.982E+01
DAV:   9    -0.304181042858E+03    0.39789E+02   -0.14500E+02 38760   0.349E+01    0.632E+01
DAV:  10    -0.289247090275E+03    0.14934E+02   -0.59592E+01 39936   0.230E+01    0.635E+01
DAV:  11    -0.282415152760E+03    0.68319E+01   -0.11777E+02 40904   0.204E+01    0.622E+01
DAV:  12    -0.276031515444E+03    0.63836E+01   -0.24367E+01 39904   0.166E+01    0.509E+01
DAV:  13    -0.276743951943E+03   -0.71244E+00   -0.24251E+01 39664   0.125E+01    0.465E+01
DAV:  14    -0.281320167705E+03   -0.45762E+01   -0.58274E+01 39928   0.111E+01    0.424E+01
DAV:  15    -0.290827008386E+03   -0.95068E+01   -0.22837E+01 38096   0.899E+00    0.411E+01
DAV:  16    -0.293233767847E+03   -0.24068E+01   -0.10010E+01 38984   0.782E+00    0.320E+01
DAV:  17    -0.295869169516E+03   -0.26354E+01   -0.55010E+00 37616   0.434E+00    0.305E+01
DAV:  18    -0.303850121955E+03   -0.79810E+01   -0.47486E+00 37528   0.491E+00    0.257E+01
DAV:  19    -0.310210288426E+03   -0.63602E+01   -0.50005E+00 37536   0.445E+00    0.221E+01
DAV:  20    -0.318439649207E+03   -0.82294E+01   -0.46923E+00 37496   0.505E+00    0.186E+01
DAV:  21    -0.323481467651E+03   -0.50418E+01   -0.51379E+00 40096   0.557E+00    0.269E+01
DAV:  22    -0.324229743715E+03   -0.74828E+00   -0.19853E+00 36128   0.341E+00    0.182E+01
DAV:  23    -0.325171947711E+03   -0.94220E+00   -0.23972E-01 35728   0.152E+00    0.182E+01
DAV:  24    -0.325576559433E+03   -0.40461E+00   -0.10095E-01 37192   0.936E-01    0.175E+01
DAV:  25    -0.328634373349E+03   -0.30578E+01   -0.10939E+00 37408   0.269E+00    0.169E+01
DAV:  26    -0.336456129232E+03   -0.78218E+01   -0.53515E+00 36792   0.491E+00    0.140E+01
DAV:  27    -0.337559505186E+03   -0.11034E+01   -0.57231E-01 35264   0.198E+00    0.126E+01
DAV:  28    -0.338060185404E+03   -0.50068E+00   -0.20413E-01 37864   0.133E+00    0.116E+01
DAV:  29    -0.338338467569E+03   -0.27828E+00   -0.20493E-01 37976   0.121E+00    0.995E+00
DAV:  30    -0.338525008399E+03   -0.18654E+00   -0.16670E-01 37520   0.901E-01    0.106E+01
DAV:  31    -0.338648348338E+03   -0.12334E+00   -0.55775E-02 36088   0.798E-01    0.104E+01
DAV:  32    -0.338737642718E+03   -0.89294E-01   -0.33511E-02 38896   0.635E-01    0.931E+00
DAV:  33    -0.338971159845E+03   -0.23352E+00   -0.92924E-02 37184   0.981E-01    0.799E+00
DAV:  34    -0.339676226916E+03   -0.70507E+00   -0.37271E-01 37096   0.137E+00    0.893E+00
DAV:  35    -0.339915266312E+03   -0.23904E+00   -0.12315E-01 37192   0.107E+00    0.792E+00
DAV:  36    -0.340027892013E+03   -0.11263E+00   -0.56859E-02 36856   0.729E-01    0.699E+00
DAV:  37    -0.340050485579E+03   -0.22594E-01   -0.26125E-02 38776   0.576E-01    0.544E+00
DAV:  38    -0.340099296132E+03   -0.48811E-01   -0.95974E-03 34040   0.273E-01    0.464E+00
DAV:  39    -0.340085476041E+03    0.13820E-01   -0.75505E-03 34232   0.256E-01    0.508E+00
DAV:  40    -0.340133551520E+03   -0.48075E-01   -0.10231E-02 34488   0.251E-01    0.561E+00
DAV:  41    -0.340123210991E+03    0.10341E-01   -0.18967E-03 31248   0.124E-01    0.583E+00
DAV:  42    -0.340245853688E+03   -0.12264E+00   -0.17534E-02 37352   0.358E-01    0.597E+00
DAV:  43    -0.340339059122E+03   -0.93205E-01   -0.35039E-02 37448   0.318E-01    0.618E+00
DAV:  44    -0.340365793679E+03   -0.26735E-01   -0.59775E-03 36176   0.263E-01    0.583E+00
DAV:  45    -0.340370521124E+03   -0.47274E-02   -0.17025E-03 32968   0.109E-01    0.613E+00
DAV:  46    -0.340364985538E+03    0.55356E-02   -0.58108E-04 31000   0.493E-02    0.622E+00
DAV:  47    -0.340382044943E+03   -0.17059E-01   -0.42413E-03 38864   0.127E-01    0.639E+00
DAV:  48    -0.340451463095E+03   -0.69418E-01   -0.21094E-02 36912   0.362E-01    0.685E+00
DAV:  49    -0.340476054995E+03   -0.24592E-01   -0.10893E-02 37232   0.289E-01    0.572E+00
DAV:  50    -0.340542625763E+03   -0.66571E-01   -0.30686E-02 37168   0.390E-01    0.546E+00
DAV:  51    -0.340558688393E+03   -0.16063E-01   -0.12131E-02 36648   0.244E-01    0.606E+00
DAV:  52    -0.340568302680E+03   -0.96143E-02   -0.16489E-03 31592   0.122E-01    0.663E+00
DAV:  53    -0.340566518172E+03    0.17845E-02   -0.38376E-04 32088   0.636E-02    0.657E+00
DAV:  54    -0.340567162877E+03   -0.64470E-03   -0.26895E-04 32520   0.364E-02    0.675E+00
DAV:  55    -0.340550460653E+03    0.16702E-01   -0.48526E-03 39824   0.162E-01    0.619E+00
DAV:  56    -0.340553378522E+03   -0.29179E-02   -0.15702E-02 36304   0.361E-01    0.558E+00
DAV:  57    -0.340566825726E+03   -0.13447E-01   -0.10494E-02 38720   0.329E-01    0.640E+00
DAV:  58    -0.340601329927E+03   -0.34504E-01   -0.13935E-02 35328   0.283E-01    0.652E+00
DAV:  59    -0.340613075512E+03   -0.11746E-01   -0.74457E-03 35552   0.190E-01    0.581E+00
DAV:  60    -0.340606639689E+03    0.64358E-02   -0.21480E-03 33512   0.144E-01    0.615E+00
DAV:  61    -0.340747494249E+03   -0.14085E+00   -0.10538E-01 37112   0.807E-01    0.989E+00
DAV:  62    -0.340715997159E+03    0.31497E-01   -0.41433E-02 35392   0.576E-01    0.901E+00
DAV:  63    -0.340689553802E+03    0.26443E-01   -0.38393E-02 37992   0.480E-01    0.418E+00
DAV:  64    -0.340731093672E+03   -0.41540E-01   -0.23486E-02 32888   0.357E-01    0.298E+00
DAV:  65    -0.340740323832E+03   -0.92302E-02   -0.52077E-03 32416   0.188E-01    0.247E+00
DAV:  66    -0.340742286970E+03   -0.19631E-02   -0.32541E-03 36648   0.185E-01    0.242E+00
DAV:  67    -0.340740222866E+03    0.20641E-02   -0.61236E-04 30776   0.838E-02    0.233E+00
DAV:  68    -0.340740576324E+03   -0.35346E-03   -0.87315E-04 37712   0.977E-02    0.255E+00
DAV:  69    -0.340740993987E+03   -0.41766E-03   -0.11833E-04 32640   0.394E-02    0.250E+00
DAV:  70    -0.340746094462E+03   -0.51005E-02   -0.43749E-03 39600   0.182E-01    0.204E+00
DAV:  71    -0.340757336222E+03   -0.11242E-01   -0.21479E-02 40104   0.324E-01    0.224E+00
DAV:  72    -0.340754871710E+03    0.24645E-02   -0.23120E-02 39000   0.271E-01    0.181E+00
DAV:  73    -0.340760271583E+03   -0.53999E-02   -0.80142E-03 35464   0.222E-01    0.174E+00
DAV:  74    -0.340764453178E+03   -0.41816E-02   -0.37093E-03 36632   0.167E-01    0.177E+00
DAV:  75    -0.340764201130E+03    0.25205E-03   -0.14266E-03 37800   0.101E-01    0.172E+00
DAV:  76    -0.340761816094E+03    0.23850E-02   -0.20990E-03 40808   0.148E-01    0.156E+00
DAV:  77    -0.340762523542E+03   -0.70745E-03   -0.22811E-03 35736   0.128E-01    0.152E+00
DAV:  78    -0.340762554515E+03   -0.30973E-04   -0.18561E-03 37520   0.116E-01    0.128E+00
DAV:  79    -0.340762933929E+03   -0.37941E-03   -0.18018E-03 37616   0.106E-01    0.118E+00
DAV:  80    -0.340762732043E+03    0.20189E-03   -0.24601E-03 38664   0.143E-01    0.979E-01
DAV:  81    -0.340762211322E+03    0.52072E-03   -0.19207E-03 39696   0.132E-01    0.806E-01
DAV:  82    -0.340761652346E+03    0.55898E-03   -0.68898E-04 38176   0.717E-02    0.720E-01
DAV:  83    -0.340761089024E+03    0.56332E-03   -0.67691E-04 39960   0.705E-02    0.667E-01
DAV:  84    -0.340760963086E+03    0.12594E-03   -0.82897E-04 38672   0.784E-02    0.574E-01
DAV:  85    -0.340760810156E+03    0.15293E-03   -0.32627E-04 40448   0.585E-02    0.521E-01
DAV:  86    -0.340761106983E+03   -0.29683E-03   -0.93463E-04 36144   0.815E-02    0.411E-01
DAV:  87    -0.340760876151E+03    0.23083E-03   -0.59165E-04 39184   0.682E-02    0.328E-01
DAV:  88    -0.340760843498E+03    0.32653E-04   -0.25744E-04 33576   0.380E-02    0.313E-01
DAV:  89    -0.340760813590E+03    0.29908E-04   -0.97977E-05 24512   0.235E-02    0.303E-01
DAV:  90    -0.340760855837E+03   -0.42247E-04   -0.41286E-05 21648   0.166E-02    0.312E-01
DAV:  91    -0.340761371405E+03   -0.51557E-03   -0.16023E-03 35400   0.104E-01    0.334E-01
DAV:  92    -0.340761350430E+03    0.20975E-04   -0.18525E-04 32600   0.356E-02    0.325E-01
DAV:  93    -0.340761323689E+03    0.26740E-04   -0.43502E-05 27240   0.208E-02    0.327E-01
DAV:  94    -0.340761326205E+03   -0.25158E-05   -0.17683E-05 22200   0.102E-02
   1 F= -.34076133E+03 E0= -.34074393E+03  d E =-.340761E+03  mag=    16.1018
       N       E                     dE             d eps       ncg     rms          rms(c)
DAV:   1    -0.340778769501E+03   -0.17446E-01   -0.60208E-03 31032   0.167E-01    0.343E-01
DAV:   2    -0.340785874380E+03   -0.71049E-02   -0.32931E-02 40752   0.369E-01    0.210E+00
DAV:   3    -0.340777147141E+03    0.87272E-02   -0.21466E-02 37768   0.299E-01    0.672E-01
DAV:   4    -0.340778653602E+03   -0.15065E-02   -0.52504E-04 30432   0.697E-02    0.568E-01
DAV:   5    -0.340778835602E+03   -0.18200E-03   -0.53569E-04 34000   0.462E-02    0.630E-01
DAV:   6    -0.340778394919E+03    0.44068E-03   -0.22459E-03 39984   0.989E-02    0.632E-01
DAV:   7    -0.340778362228E+03    0.32691E-04   -0.55048E-04 37440   0.690E-02    0.482E-01
DAV:   8    -0.340778587171E+03   -0.22494E-03   -0.67026E-04 38816   0.707E-02    0.603E-01
DAV:   9    -0.340778273260E+03    0.31391E-03   -0.66989E-04 37912   0.663E-02    0.528E-01
DAV:  10    -0.340778489868E+03   -0.21661E-03   -0.61692E-05 27048   0.260E-02    0.536E-01
DAV:  11    -0.340778562989E+03   -0.73122E-04   -0.55131E-05 24912   0.249E-02    0.525E-01
DAV:  12    -0.340778722409E+03   -0.15942E-03   -0.29772E-04 34000   0.544E-02    0.566E-01
DAV:  13    -0.340778744456E+03   -0.22047E-04   -0.64640E-04 38992   0.758E-02    0.537E-01
DAV:  14    -0.340778709158E+03    0.35299E-04   -0.44057E-04 38872   0.599E-02    0.539E-01
DAV:  15    -0.340778591505E+03    0.11765E-03   -0.93256E-04 39808   0.833E-02    0.564E-01
DAV:  16    -0.340778697751E+03   -0.10625E-03   -0.92061E-04 40048   0.780E-02    0.606E-01
DAV:  17    -0.340778562086E+03    0.13567E-03   -0.10569E-03 39608   0.874E-02    0.458E-01
DAV:  18    -0.340778625495E+03   -0.63409E-04   -0.46036E-04 36952   0.606E-02    0.405E-01
DAV:  19    -0.340778636856E+03   -0.11361E-04   -0.36545E-05 24368   0.175E-02    0.417E-01
DAV:  20    -0.340778520708E+03    0.11615E-03   -0.55955E-04 37712   0.454E-02    0.318E-01
DAV:  21    -0.340778783294E+03   -0.26259E-03   -0.85946E-04 35128   0.694E-02    0.448E-01
DAV:  22    -0.340778522033E+03    0.26126E-03   -0.95167E-04 34792   0.625E-02    0.183E-01
DAV:  23    -0.340778644719E+03   -0.12269E-03   -0.94271E-05 31272   0.292E-02    0.149E-01
DAV:  24    -0.340778670996E+03   -0.26278E-04   -0.34339E-05 24040   0.175E-02    0.142E-01
DAV:  25    -0.340778676555E+03   -0.55594E-05   -0.53117E-05 25856   0.171E-02
   2 F= -.34077868E+03 E0= -.34076103E+03  d E =-.173504E-01  mag=    16.0122
       N       E                     dE             d eps       ncg     rms          rms(c)
DAV:   1    -0.341182167315E+03   -0.40350E+00   -0.41823E+00 31984   0.440E+00    0.956E-01
DAV:   2    -0.341271292327E+03   -0.89125E-01   -0.58282E-01 37576   0.120E+00    0.101E+01
DAV:   3    -0.341157639343E+03    0.11365E+00   -0.20294E-01 39160   0.904E-01    0.134E+00
DAV:   4    -0.341200730717E+03   -0.43091E-01   -0.33093E-02 33776   0.384E-01    0.193E+00
DAV:   5    -0.341197164760E+03    0.35660E-02   -0.19315E-02 36664   0.245E-01    0.103E+00
DAV:   6    -0.341197463797E+03   -0.29904E-03   -0.37674E-03 40176   0.180E-01    0.863E-01
DAV:   7    -0.341197967055E+03   -0.50326E-03   -0.32561E-03 40464   0.198E-01    0.111E+00
DAV:   8    -0.341197100618E+03    0.86644E-03   -0.57203E-03 39624   0.241E-01    0.896E-01
DAV:   9    -0.341197695945E+03   -0.59533E-03   -0.55622E-03 39216   0.184E-01    0.803E-01
DAV:  10    -0.341197497974E+03    0.19797E-03   -0.37138E-03 39552   0.155E-01    0.562E-01
DAV:  11    -0.341197818408E+03   -0.32043E-03   -0.25648E-03 40032   0.120E-01    0.547E-01
DAV:  12    -0.341197757763E+03    0.60645E-04   -0.10982E-03 39256   0.854E-02    0.491E-01
DAV:  13    -0.341197740997E+03    0.16766E-04   -0.21699E-04 31176   0.443E-02    0.495E-01
DAV:  14    -0.341197677900E+03    0.63097E-04   -0.52600E-05 23384   0.239E-02    0.486E-01
DAV:  15    -0.341197722022E+03   -0.44122E-04   -0.22865E-04 28888   0.504E-02    0.594E-01
DAV:  16    -0.341197397532E+03    0.32449E-03   -0.67094E-04 36744   0.695E-02    0.502E-01
DAV:  17    -0.341197429640E+03   -0.32108E-04   -0.34596E-04 31712   0.505E-02    0.453E-01
DAV:  18    -0.341197462639E+03   -0.32999E-04   -0.10418E-04 27680   0.303E-02    0.449E-01
DAV:  19    -0.341197492411E+03   -0.29772E-04   -0.60101E-05 30048   0.271E-02    0.445E-01
DAV:  20    -0.341197150409E+03    0.34200E-03   -0.18459E-03 37736   0.113E-01    0.466E-01
DAV:  21    -0.341197123961E+03    0.26448E-04   -0.16497E-03 40560   0.106E-01    0.523E-01
DAV:  22    -0.341197326873E+03   -0.20291E-03   -0.84391E-04 39536   0.745E-02    0.459E-01
DAV:  23    -0.341197750855E+03   -0.42398E-03   -0.54721E-04 36248   0.779E-02    0.281E-01
DAV:  24    -0.341197817360E+03   -0.66505E-04   -0.47947E-04 36848   0.595E-02    0.219E-01
DAV:  25    -0.341197871011E+03   -0.53651E-04   -0.14981E-04 31352   0.281E-02    0.200E-01
DAV:  26    -0.341197879269E+03   -0.82578E-05   -0.58584E-05 25056   0.163E-02
   3 F= -.34119788E+03 E0= -.34118028E+03  d E =-.419203E+00  mag=    15.9837
       N       E                     dE             d eps       ncg     rms          rms(c)
DAV:   1    -0.341852521884E+03   -0.65465E+00   -0.25482E+01 32056   0.115E+01    0.221E+00
DAV:   2    -0.342316693155E+03   -0.46417E+00   -0.31298E+00 36544   0.293E+00    0.168E+01
DAV:   3    -0.341883787034E+03    0.43291E+00   -0.45693E-01 39648   0.194E+00    0.372E+00
DAV:   4    -0.341992847809E+03   -0.10906E+00   -0.20603E-01 37592   0.825E-01    0.459E+00
DAV:   5    -0.341964938280E+03    0.27910E-01   -0.15837E-01 38416   0.618E-01    0.209E+00
DAV:   6    -0.341967569137E+03   -0.26309E-02   -0.17551E-02 38880   0.449E-01    0.189E+00
DAV:   7    -0.341969411078E+03   -0.18419E-02   -0.22690E-02 41480   0.483E-01    0.238E+00
DAV:   8    -0.341962714426E+03    0.66967E-02   -0.20065E-02 39472   0.442E-01    0.150E+00
DAV:   9    -0.341964878589E+03   -0.21642E-02   -0.10224E-02 39536   0.301E-01    0.152E+00
DAV:  10    -0.341964389675E+03    0.48891E-03   -0.57778E-03 39384   0.231E-01    0.123E+00
DAV:  11    -0.341965524481E+03   -0.11348E-02   -0.61691E-03 39928   0.231E-01    0.127E+00
DAV:  12    -0.341966991333E+03   -0.14669E-02   -0.13527E-02 40912   0.284E-01    0.135E+00
DAV:  13    -0.341969555986E+03   -0.25647E-02   -0.16553E-02 40376   0.376E-01    0.176E+00
DAV:  14    -0.341969100397E+03    0.45559E-03   -0.21105E-02 40272   0.413E-01    0.167E+00
DAV:  15    -0.341965713883E+03    0.33865E-02   -0.18592E-02 39536   0.325E-01    0.957E-01
DAV:  16    -0.341966758344E+03   -0.10445E-02   -0.46274E-03 38064   0.184E-01    0.955E-01
DAV:  17    -0.341966291892E+03    0.46645E-03   -0.16501E-03 38368   0.114E-01    0.739E-01
DAV:  18    -0.341966352320E+03   -0.60428E-04   -0.18868E-04 33656   0.461E-02    0.739E-01
DAV:  19    -0.341966337992E+03    0.14328E-04   -0.12846E-04 28144   0.238E-02    0.750E-01
DAV:  20    -0.341966128779E+03    0.20921E-03   -0.29140E-05 26168   0.179E-02    0.762E-01
DAV:  21    -0.341966482310E+03   -0.35353E-03   -0.16229E-04 36968   0.441E-02    0.730E-01
DAV:  22    -0.341967286067E+03   -0.80376E-03   -0.20973E-03 39000   0.163E-01    0.776E-01
DAV:  23    -0.341965710886E+03    0.15752E-02   -0.46338E-03 37632   0.188E-01    0.509E-01
DAV:  24    -0.341967093580E+03   -0.13827E-02   -0.19601E-03 35064   0.131E-01    0.322E-01
DAV:  25    -0.341967335386E+03   -0.24181E-03   -0.11165E-03 38368   0.811E-02    0.386E-01
DAV:  26    -0.341967409644E+03   -0.74258E-04   -0.47266E-04 37056   0.548E-02    0.315E-01
DAV:  27    -0.341967395161E+03    0.14483E-04   -0.33842E-04 36392   0.419E-02    0.227E-01
DAV:  28    -0.341967428444E+03   -0.33283E-04   -0.34443E-04 38424   0.473E-02    0.162E-01
DAV:  29    -0.341967437941E+03   -0.94969E-05   -0.31645E-04 34672   0.426E-02    0.140E-01
DAV:  30    -0.341967517292E+03   -0.79351E-04   -0.21563E-04 30952   0.311E-02    0.122E-01
DAV:  31    -0.341967555432E+03   -0.38141E-04   -0.21148E-04 30688   0.318E-02    0.813E-02
DAV:  32    -0.341967569669E+03   -0.14237E-04   -0.15092E-04 31920   0.272E-02    0.812E-02
DAV:  33    -0.341967595673E+03   -0.26004E-04   -0.47152E-05 23312   0.153E-02    0.729E-02
DAV:  34    -0.341967603249E+03   -0.75763E-05   -0.29800E-05 20080   0.109E-02
   4 F= -.34196760E+03 E0= -.34195036E+03  d E =-.769724E+00  mag=    15.9626
       N       E                     dE             d eps       ncg     rms          rms(c)
DAV:   1    -0.342295977511E+03   -0.32838E+00   -0.36048E+01 32360   0.160E+01    0.257E+00
DAV:   2    -0.342900967220E+03   -0.60499E+00   -0.38098E+00 35080   0.369E+00    0.182E+01
DAV:   3    -0.342408724536E+03    0.49224E+00   -0.64652E-01 39224   0.213E+00    0.448E+00
DAV:   4    -0.342534933634E+03   -0.12621E+00   -0.34073E-01 38296   0.107E+00    0.599E+00
DAV:   5    -0.342493440806E+03    0.41493E-01   -0.30652E-01 38624   0.824E-01    0.315E+00
DAV:   6    -0.342489388698E+03    0.40521E-02   -0.45250E-02 38912   0.616E-01    0.158E+00
DAV:   7    -0.342510683828E+03   -0.21295E-01   -0.47692E-02 40312   0.697E-01    0.397E+00
DAV:   8    -0.342489545552E+03    0.21138E-01   -0.57234E-02 39712   0.640E-01    0.247E+00
DAV:   9    -0.342491273205E+03   -0.17277E-02   -0.21632E-02 39144   0.429E-01    0.200E+00
DAV:  10    -0.342493085501E+03   -0.18123E-02   -0.13276E-02 39472   0.297E-01    0.156E+00
DAV:  11    -0.342492188270E+03    0.89723E-03   -0.51145E-03 38824   0.198E-01    0.116E+00
DAV:  12    -0.342493105419E+03   -0.91715E-03   -0.12492E-03 39704   0.111E-01    0.117E+00
DAV:  13    -0.342493208912E+03   -0.10349E-03   -0.97625E-04 40008   0.104E-01    0.117E+00
DAV:  14    -0.342494089922E+03   -0.88101E-03   -0.23993E-03 40312   0.134E-01    0.133E+00
DAV:  15    -0.342493619434E+03    0.47049E-03   -0.37200E-03 40032   0.170E-01    0.117E+00
DAV:  16    -0.342495451161E+03   -0.18317E-02   -0.78280E-03 41200   0.211E-01    0.149E+00
DAV:  17    -0.342493564169E+03    0.18870E-02   -0.10853E-02 40728   0.260E-01    0.977E-01
DAV:  18    -0.342493923604E+03   -0.35944E-03   -0.26997E-03 38624   0.196E-01    0.901E-01
DAV:  19    -0.342493818777E+03    0.10483E-03   -0.21905E-03 40024   0.186E-01    0.851E-01
DAV:  20    -0.342494511843E+03   -0.69307E-03   -0.81015E-03 40408   0.200E-01    0.689E-01
DAV:  21    -0.342494812179E+03   -0.30034E-03   -0.29540E-03 40120   0.124E-01    0.499E-01
DAV:  22    -0.342494900664E+03   -0.88485E-04   -0.42954E-04 31984   0.499E-02    0.520E-01
DAV:  23    -0.342494055636E+03    0.84503E-03   -0.64801E-04 34408   0.636E-02    0.534E-01
DAV:  24    -0.342493975203E+03    0.80433E-04   -0.12543E-04 28752   0.218E-02    0.537E-01
DAV:  25    -0.342493839103E+03    0.13610E-03   -0.14919E-04 26416   0.241E-02    0.550E-01
DAV:  26    -0.342494798646E+03   -0.95954E-03   -0.13362E-03 34488   0.941E-02    0.440E-01
DAV:  27    -0.342494374674E+03    0.42397E-03   -0.76173E-03 36576   0.187E-01    0.298E-01
DAV:  28    -0.342494255338E+03    0.11934E-03   -0.50326E-03 40432   0.117E-01    0.291E-01
DAV:  29    -0.342495582648E+03   -0.13273E-02   -0.15746E-03 33080   0.120E-01    0.260E-01
DAV:  30    -0.342495546637E+03    0.36011E-04   -0.45993E-04 34464   0.508E-02    0.205E-01
DAV:  31    -0.342495464063E+03    0.82574E-04   -0.16562E-04 31288   0.265E-02    0.215E-01
DAV:  32    -0.342495452747E+03    0.11316E-04   -0.11903E-04 32136   0.318E-02    0.216E-01
DAV:  33    -0.342495414486E+03    0.38261E-04   -0.20901E-05 19704   0.959E-03    0.217E-01
DAV:  34    -0.342495602642E+03   -0.18816E-03   -0.14373E-04 29136   0.293E-02    0.189E-01
DAV:  35    -0.342495515703E+03    0.86939E-04   -0.10382E-03 35368   0.711E-02    0.155E-01
DAV:  36    -0.342495656733E+03   -0.14103E-03   -0.22164E-04 32472   0.289E-02    0.157E-01
DAV:  37    -0.342495664994E+03   -0.82602E-05   -0.30081E-04 28640   0.252E-02    0.103E-01
DAV:  38    -0.342495713903E+03   -0.48909E-04   -0.23774E-04 32728   0.310E-02    0.471E-02
DAV:  39    -0.342495773921E+03   -0.60018E-04   -0.49532E-05 27912   0.223E-02    0.419E-02
DAV:  40    -0.342495777151E+03   -0.32302E-05   -0.99954E-06 18512   0.691E-03
   5 F= -.34249578E+03 E0= -.34247890E+03  d E =-.528174E+00  mag=    15.9689
       N       E                     dE             d eps       ncg     rms          rms(c)
DAV:   1    -0.342425080342E+03    0.70694E-01   -0.58308E+01 32728   0.243E+01    0.320E+00
DAV:   2    -0.343370953078E+03   -0.94587E+00   -0.62262E+00 33584   0.528E+00    0.192E+01
DAV:   3    -0.342755544833E+03    0.61541E+00   -0.77897E-01 39552   0.264E+00    0.535E+00
DAV:   4    -0.342908141764E+03   -0.15260E+00   -0.55010E-01 39288   0.150E+00    0.847E+00
DAV:   5    -0.342853114073E+03    0.55028E-01   -0.84525E-01 39432   0.118E+00    0.540E+00
DAV:   6    -0.342827143855E+03    0.25970E-01   -0.13059E-01 39200   0.933E-01    0.199E+00
DAV:   7    -0.342853519782E+03   -0.26376E-01   -0.58033E-02 40136   0.741E-01    0.371E+00
DAV:   8    -0.342842455071E+03    0.11065E-01   -0.47510E-02 39584   0.639E-01    0.258E+00
DAV:   9    -0.342841095334E+03    0.13597E-02   -0.22125E-02 39160   0.437E-01    0.177E+00
DAV:  10    -0.342842369329E+03   -0.12740E-02   -0.72764E-03 39256   0.264E-01    0.145E+00
DAV:  11    -0.342841713170E+03    0.65616E-03   -0.51149E-03 39520   0.197E-01    0.112E+00
DAV:  12    -0.342843090513E+03   -0.13773E-02   -0.49745E-03 40456   0.216E-01    0.123E+00
DAV:  13    -0.342841968184E+03    0.11223E-02   -0.67710E-03 40608   0.239E-01    0.800E-01
DAV:  14    -0.342843908695E+03   -0.19405E-02   -0.65603E-03 40264   0.236E-01    0.128E+00
DAV:  15    -0.342841567557E+03    0.23411E-02   -0.69444E-03 39072   0.220E-01    0.689E-01
DAV:  16    -0.342841752470E+03   -0.18491E-03   -0.33876E-03 37760   0.128E-01    0.736E-01
DAV:  17    -0.342841295586E+03    0.45688E-03   -0.78259E-04 34856   0.690E-02    0.635E-01
DAV:  18    -0.342840631263E+03    0.66432E-03   -0.11745E-03 36456   0.895E-02    0.696E-01
DAV:  19    -0.342839873547E+03    0.75772E-03   -0.25672E-03 39752   0.103E-01    0.699E-01
DAV:  20    -0.342840008735E+03   -0.13519E-03   -0.15730E-03 39920   0.662E-02    0.661E-01
DAV:  21    -0.342839394115E+03    0.61462E-03   -0.46182E-03 38544   0.976E-02    0.691E-01
DAV:  22    -0.342838447280E+03    0.94684E-03   -0.43621E-03 40808   0.922E-02    0.579E-01
DAV:  23    -0.342838658125E+03   -0.21085E-03   -0.25352E-03 38352   0.643E-02    0.632E-01
DAV:  24    -0.342840556983E+03   -0.18989E-02   -0.14067E-03 31480   0.910E-02    0.553E-01
DAV:  25    -0.342840506039E+03    0.50945E-04   -0.10035E-02 36160   0.217E-01    0.310E-01
DAV:  26    -0.342839217574E+03    0.12885E-02   -0.10379E-02 37840   0.144E-01    0.225E-01
DAV:  27    -0.342840933223E+03   -0.17156E-02   -0.40625E-03 36016   0.781E-02    0.163E-01
DAV:  28    -0.342841822479E+03   -0.88926E-03   -0.15440E-03 33096   0.675E-02    0.102E-01
DAV:  29    -0.342842474839E+03   -0.65236E-03   -0.40980E-04 30768   0.682E-02    0.776E-02
DAV:  30    -0.342842228706E+03    0.24613E-03   -0.41983E-04 33344   0.443E-02    0.799E-02
DAV:  31    -0.342842370753E+03   -0.14205E-03   -0.55129E-05 26960   0.202E-02    0.650E-02
DAV:  32    -0.342842453601E+03   -0.82849E-04   -0.40012E-05 24488   0.187E-02    0.547E-02
DAV:  33    -0.342842469888E+03   -0.16286E-04   -0.14598E-04 27448   0.211E-02    0.539E-02
DAV:  34    -0.342842444253E+03    0.25635E-04   -0.29384E-04 27632   0.216E-02    0.441E-02
DAV:  35    -0.342842484247E+03   -0.39995E-04   -0.20588E-04 22928   0.136E-02    0.435E-02
DAV:  36    -0.342842513312E+03   -0.29065E-04   -0.46552E-05 25248   0.234E-02    0.567E-02
DAV:  37    -0.342842532579E+03   -0.19267E-04   -0.11114E-05 18152   0.829E-03    0.471E-02
DAV:  38    -0.342842552836E+03   -0.20257E-04   -0.11942E-04 23488   0.167E-02    0.377E-02
DAV:  39    -0.342842567731E+03   -0.14895E-04   -0.94860E-05 20696   0.943E-03    0.396E-02
DAV:  40    -0.342842588535E+03   -0.20804E-04   -0.87409E-05 20560   0.784E-03    0.413E-02
DAV:  41    -0.342842610229E+03   -0.21694E-04   -0.58972E-05 19152   0.747E-03    0.449E-02
DAV:  42    -0.342842621300E+03   -0.11071E-04   -0.27327E-05 18256   0.627E-03    0.489E-02
DAV:  43    -0.342842572412E+03    0.48889E-04   -0.16882E-05 20848   0.123E-02    0.568E-02
DAV:  44    -0.342842636166E+03   -0.63755E-04   -0.10482E-04 23968   0.183E-02    0.457E-02
DAV:  45    -0.342842613540E+03    0.22627E-04   -0.39085E-04 30216   0.253E-02    0.409E-02
DAV:  46    -0.342842694549E+03   -0.81009E-04   -0.10800E-04 22264   0.140E-02    0.530E-02
DAV:  47    -0.342842458245E+03    0.23630E-03   -0.31962E-04 29848   0.399E-02    0.771E-02
DAV:  48    -0.342842501616E+03   -0.43371E-04   -0.49457E-05 18888   0.809E-03    0.660E-02
DAV:  49    -0.342842548903E+03   -0.47287E-04   -0.15054E-05 17664   0.658E-03    0.609E-02
DAV:  50    -0.342842560902E+03   -0.11999E-04   -0.80469E-06 16520   0.354E-03    0.592E-02
DAV:  51    -0.342842553738E+03    0.71636E-05   -0.10050E-05 16768   0.264E-03
   6 F= -.34284255E+03 E0= -.34282626E+03  d E =-.346777E+00  mag=    15.9863
       N       E                     dE             d eps       ncg     rms          rms(c)
DAV:   1    -0.342479046504E+03    0.36351E+00   -0.11698E+02 31896   0.319E+01    0.321E+00
DAV:   2    -0.343297630602E+03   -0.81858E+00   -0.74644E+00 31576   0.617E+00    0.121E+01
DAV:   3    -0.343090729851E+03    0.20690E+00   -0.11824E+00 40688   0.246E+00    0.407E+00
DAV:   4    -0.343177104044E+03   -0.86374E-01   -0.17506E-01 39912   0.126E+00    0.626E+00
DAV:   5    -0.343119618222E+03    0.57486E-01   -0.13948E-01 39576   0.102E+00    0.225E+00
DAV:   6    -0.343146616922E+03   -0.26999E-01   -0.91354E-02 38952   0.580E-01    0.378E+00
DAV:   7    -0.343133416086E+03    0.13201E-01   -0.86153E-02 40496   0.550E-01    0.233E+00
DAV:   8    -0.343134938594E+03   -0.15225E-02   -0.33697E-02 40016   0.454E-01    0.241E+00
DAV:   9    -0.343138674722E+03   -0.37361E-02   -0.50444E-02 41064   0.470E-01    0.286E+00
DAV:  10    -0.343129689896E+03    0.89848E-02   -0.31387E-02 39344   0.411E-01    0.153E+00
DAV:  11    -0.343131616946E+03   -0.19271E-02   -0.50561E-03 32384   0.159E-01    0.161E+00
DAV:  12    -0.343130350795E+03    0.12662E-02   -0.12365E-03 34064   0.102E-01    0.184E+00
DAV:  13    -0.343128637407E+03    0.17134E-02   -0.14152E-02 40168   0.261E-01    0.223E+00
DAV:  14    -0.343125930476E+03    0.27069E-02   -0.17895E-02 39960   0.286E-01    0.216E+00
DAV:  15    -0.343123706498E+03    0.22240E-02   -0.17676E-02 40512   0.333E-01    0.213E+00
DAV:  16    -0.343116432620E+03    0.72739E-02   -0.44022E-02 40376   0.405E-01    0.186E+00
DAV:  17    -0.343117455592E+03   -0.10230E-02   -0.29444E-02 40376   0.331E-01    0.165E+00
DAV:  18    -0.343122085682E+03   -0.46301E-02   -0.10233E-02 36680   0.214E-01    0.157E+00
DAV:  19    -0.343124096333E+03   -0.20107E-02   -0.24144E-03 35128   0.107E-01    0.154E+00
DAV:  20    -0.343124495910E+03   -0.39958E-03   -0.70875E-04 34800   0.741E-02    0.161E+00
DAV:  21    -0.343113700910E+03    0.10795E-01   -0.38456E-02 36944   0.361E-01    0.193E+00
DAV:  22    -0.343060580071E+03    0.53121E-01   -0.13421E-01 37488   0.536E-01    0.243E+00
DAV:  23    -0.343114728197E+03   -0.54148E-01   -0.33291E-02 34544   0.439E-01    0.143E+00
DAV:  24    -0.343122660733E+03   -0.79325E-02   -0.35199E-02 38272   0.435E-01    0.647E-01
DAV:  25    -0.343125821527E+03   -0.31608E-02   -0.14098E-02 35728   0.182E-01    0.439E-01
DAV:  26    -0.343128254266E+03   -0.24327E-02   -0.56841E-03 34928   0.130E-01    0.435E-01
DAV:  27    -0.343128939252E+03   -0.68499E-03   -0.20749E-03 39080   0.742E-02    0.433E-01
DAV:  28    -0.343128808246E+03    0.13101E-03   -0.69486E-03 36288   0.115E-01    0.375E-01
DAV:  29    -0.343128326296E+03    0.48195E-03   -0.10182E-02 37296   0.118E-01    0.331E-01
DAV:  30    -0.343128598804E+03   -0.27251E-03   -0.10319E-02 38976   0.103E-01    0.220E-01
DAV:  31    -0.343130031623E+03   -0.14328E-02   -0.57563E-03 36208   0.789E-02    0.180E-01
DAV:  32    -0.343131240095E+03   -0.12085E-02   -0.29326E-03 35240   0.622E-02    0.197E-01
DAV:  33    -0.343131809916E+03   -0.56982E-03   -0.11427E-03 32040   0.418E-02    0.219E-01
DAV:  34    -0.343130784134E+03    0.10258E-02   -0.19320E-03 31680   0.922E-02    0.258E-01
DAV:  35    -0.343131193853E+03   -0.40972E-03   -0.10833E-04 26832   0.251E-02    0.227E-01
DAV:  36    -0.343131308734E+03   -0.11488E-03   -0.40656E-05 19920   0.127E-02    0.209E-01
DAV:  37    -0.343131430725E+03   -0.12199E-03   -0.74907E-05 29808   0.272E-02    0.169E-01
DAV:  38    -0.343131670272E+03   -0.23955E-03   -0.13327E-04 31296   0.286E-02    0.153E-01
DAV:  39    -0.343131589338E+03    0.80934E-04   -0.25178E-05 20824   0.155E-02    0.159E-01
DAV:  40    -0.343131808922E+03   -0.21958E-03   -0.19922E-04 25384   0.217E-02    0.150E-01
DAV:  41    -0.343131885503E+03   -0.76581E-04   -0.16290E-04 22720   0.142E-02    0.155E-01
DAV:  42    -0.343132031903E+03   -0.14640E-03   -0.26356E-04 24064   0.149E-02    0.157E-01
DAV:  43    -0.343132096976E+03   -0.65073E-04   -0.18368E-04 22144   0.112E-02    0.165E-01
DAV:  44    -0.343132165213E+03   -0.68238E-04   -0.15431E-04 21312   0.102E-02    0.170E-01
DAV:  45    -0.343132226887E+03   -0.61673E-04   -0.13008E-04 21024   0.917E-03    0.175E-01
DAV:  46    -0.343132271603E+03   -0.44716E-04   -0.96356E-05 19800   0.806E-03    0.181E-01
DAV:  47    -0.343132306608E+03   -0.35005E-04   -0.69608E-05 19848   0.715E-03    0.186E-01
DAV:  48    -0.343132303474E+03    0.31337E-05   -0.30110E-05 18504   0.656E-03
   7 F= -.34313230E+03 E0= -.34311629E+03  d E =-.289750E+00  mag=    15.9993
       N       E                     dE             d eps       ncg     rms          rms(c)
DAV:   1    -0.342646251578E+03    0.48606E+00   -0.12456E+02 31992   0.320E+01    0.311E+00
DAV:   2    -0.343704608068E+03   -0.10584E+01   -0.84122E+00 31216   0.633E+00    0.172E+01
DAV:   3    -0.343203258364E+03    0.50135E+00   -0.61432E-01 39280   0.241E+00    0.362E+00
DAV:   4    -0.343372856678E+03   -0.16960E+00   -0.61895E-01 39608   0.157E+00    0.728E+00
DAV:   5    -0.343293946489E+03    0.78910E-01   -0.26085E-01 39240   0.127E+00    0.341E+00
DAV:   6    -0.343295174761E+03   -0.12283E-02   -0.30402E-02 38720   0.557E-01    0.180E+00
DAV:   7    -0.343303929465E+03   -0.87547E-02   -0.20727E-02 38208   0.343E-01    0.234E+00
DAV:   8    -0.343299709930E+03    0.42195E-02   -0.14857E-02 40432   0.281E-01    0.185E+00
DAV:   9    -0.343299719485E+03   -0.95551E-05   -0.34926E-03 38880   0.145E-01    0.186E+00
DAV:  10    -0.343298629361E+03    0.10901E-02   -0.57768E-04 32064   0.643E-02    0.184E+00
DAV:  11    -0.343301100291E+03   -0.24709E-02   -0.18746E-02 41224   0.348E-01    0.264E+00
DAV:  12    -0.343291951968E+03    0.91483E-02   -0.43166E-02 40408   0.487E-01    0.225E+00
DAV:  13    -0.343294245198E+03   -0.22932E-02   -0.27694E-02 40376   0.434E-01    0.201E+00
DAV:  14    -0.343293435726E+03    0.80947E-03   -0.49646E-02 40784   0.390E-01    0.225E+00
DAV:  15    -0.343292854953E+03    0.58077E-03   -0.11893E-02 38192   0.330E-01    0.194E+00
DAV:  16    -0.343293480965E+03   -0.62601E-03   -0.17943E-02 40976   0.321E-01    0.201E+00
DAV:  17    -0.343291166881E+03    0.23141E-02   -0.17392E-02 39760   0.287E-01    0.130E+00
DAV:  18    -0.343291427621E+03   -0.26074E-03   -0.50181E-03 37672   0.180E-01    0.109E+00
DAV:  19    -0.343291706199E+03   -0.27858E-03   -0.18562E-03 38352   0.118E-01    0.103E+00
DAV:  20    -0.343290731038E+03    0.97516E-03   -0.74273E-03 38704   0.179E-01    0.918E-01
DAV:  21    -0.343281244767E+03    0.94863E-02   -0.29932E-02 36672   0.310E-01    0.975E-01
DAV:  22    -0.343282301345E+03   -0.10566E-02   -0.15309E-02 39264   0.198E-01    0.963E-01
DAV:  23    -0.343285474565E+03   -0.31732E-02   -0.10426E-03 30144   0.938E-02    0.948E-01
DAV:  24    -0.343282433607E+03    0.30410E-02   -0.12345E-03 36912   0.687E-02    0.113E+00
DAV:  25    -0.343288186426E+03   -0.57528E-02   -0.13758E-02 35872   0.223E-01    0.644E-01
DAV:  26    -0.343288911337E+03   -0.72491E-03   -0.19393E-02 37928   0.182E-01    0.428E-01
DAV:  27    -0.343291361455E+03   -0.24501E-02   -0.77702E-03 36608   0.108E-01    0.363E-01
DAV:  28    -0.343292743651E+03   -0.13822E-02   -0.27686E-03 35032   0.711E-02    0.378E-01
DAV:  29    -0.343293215705E+03   -0.47205E-03   -0.21061E-03 36288   0.450E-02    0.354E-01
DAV:  30    -0.343291086119E+03    0.21296E-02   -0.27389E-02 35392   0.203E-01    0.337E-01
DAV:  31    -0.343293734997E+03   -0.26489E-02   -0.97304E-03 35664   0.102E-01    0.327E-01
DAV:  32    -0.343295451245E+03   -0.17162E-02   -0.65333E-03 36152   0.710E-02    0.344E-01
DAV:  33    -0.343295327528E+03    0.12372E-03   -0.14738E-03 30424   0.109E-01    0.400E-01
DAV:  34    -0.343295705045E+03   -0.37752E-03   -0.81723E-05 26368   0.224E-02    0.372E-01
DAV:  35    -0.343296489407E+03   -0.78436E-03   -0.13040E-03 35008   0.607E-02    0.321E-01
DAV:  36    -0.343296696348E+03   -0.20694E-03   -0.10841E-02 35088   0.125E-01    0.304E-01
DAV:  37    -0.343298063718E+03   -0.13674E-02   -0.40175E-03 33800   0.637E-02    0.340E-01
DAV:  38    -0.343298860374E+03   -0.79666E-03   -0.22878E-03 33896   0.436E-02    0.365E-01
DAV:  39    -0.343298228434E+03    0.63194E-03   -0.55828E-04 29064   0.701E-02    0.407E-01
DAV:  40    -0.343299559435E+03   -0.13310E-02   -0.50620E-03 34160   0.103E-01    0.369E-01
DAV:  41    -0.343300204862E+03   -0.64543E-03   -0.20993E-03 34288   0.413E-02    0.394E-01
DAV:  42    -0.343300078808E+03    0.12605E-03   -0.26814E-04 28288   0.439E-02    0.423E-01
DAV:  43    -0.343300396129E+03   -0.31732E-03   -0.27675E-04 23288   0.171E-02    0.423E-01
DAV:  44    -0.343300988133E+03   -0.59200E-03   -0.10964E-03 33760   0.382E-02    0.409E-01
DAV:  45    -0.343301627395E+03   -0.63926E-03   -0.18168E-03 34568   0.406E-02    0.397E-01
DAV:  46    -0.343301598596E+03    0.28799E-04   -0.23701E-04 28976   0.396E-02    0.407E-01
DAV:  47    -0.343301701660E+03   -0.10306E-03   -0.14447E-04 22384   0.159E-02    0.390E-01
DAV:  48    -0.343301065538E+03    0.63612E-03   -0.30187E-04 30008   0.369E-02    0.395E-01
DAV:  49    -0.343301400812E+03   -0.33527E-03   -0.47030E-05 24584   0.170E-02    0.371E-01
DAV:  50    -0.343301240787E+03    0.16003E-03   -0.44406E-05 21224   0.126E-02    0.371E-01
DAV:  51    -0.343300739816E+03    0.50097E-03   -0.33481E-04 30936   0.275E-02    0.366E-01
DAV:  52    -0.343300866340E+03   -0.12652E-03   -0.97147E-05 24512   0.173E-02    0.346E-01
DAV:  53    -0.343301073932E+03   -0.20759E-03   -0.32916E-05 23576   0.146E-02    0.332E-01
DAV:  54    -0.343301087497E+03   -0.13565E-04   -0.56806E-06 17896   0.591E-03    0.330E-01
DAV:  55    -0.343301361222E+03   -0.27373E-03   -0.88087E-05 23152   0.143E-02    0.321E-01
DAV:  56    -0.343301316436E+03    0.44786E-04   -0.15092E-05 19304   0.925E-03    0.327E-01
DAV:  57    -0.343301356752E+03   -0.40316E-04   -0.10561E-05 17240   0.458E-03    0.326E-01
DAV:  58    -0.343301436639E+03   -0.79888E-04   -0.20124E-05 18168   0.485E-03    0.325E-01
DAV:  59    -0.343301443463E+03   -0.68237E-05   -0.68428E-06 16872   0.293E-03
   8 F= -.34330144E+03 E0= -.34328539E+03  d E =-.169140E+00  mag=    16.0000
       N       E                     dE             d eps       ncg     rms          rms(c)
DAV:   1    -0.342670008680E+03    0.63143E+00   -0.16153E+02 31712   0.362E+01    0.301E+00
DAV:   2    -0.343411730144E+03   -0.74172E+00   -0.75462E+00 30336   0.638E+00    0.508E+00
DAV:   3    -0.343447186590E+03   -0.35456E-01   -0.40938E-01 41712   0.224E+00    0.719E+00
DAV:   4    -0.343404450363E+03    0.42736E-01   -0.41135E-01 39640   0.133E+00    0.491E+00
DAV:   5    -0.343374131878E+03    0.30318E-01   -0.13586E-01 39816   0.783E-01    0.186E+00
DAV:   6    -0.343386058336E+03   -0.11926E-01   -0.37047E-02 39072   0.504E-01    0.235E+00
DAV:   7    -0.343379980340E+03    0.60780E-02   -0.32995E-02 40064   0.469E-01    0.171E+00
DAV:   8    -0.343382924909E+03   -0.29446E-02   -0.22988E-02 40648   0.397E-01    0.227E+00
DAV:   9    -0.343380857220E+03    0.20677E-02   -0.32424E-02 40648   0.430E-01    0.204E+00
DAV:  10    -0.343377732910E+03    0.31243E-02   -0.26729E-02 40208   0.376E-01    0.162E+00
DAV:  11    -0.343380040020E+03   -0.23071E-02   -0.16778E-02 40624   0.357E-01    0.199E+00
DAV:  12    -0.343377786483E+03    0.22535E-02   -0.25127E-02 40384   0.391E-01    0.171E+00
DAV:  13    -0.343376962995E+03    0.82349E-03   -0.17991E-02 40576   0.426E-01    0.157E+00
DAV:  14    -0.343379186257E+03   -0.22233E-02   -0.19327E-02 40216   0.414E-01    0.170E+00
DAV:  15    -0.343376932021E+03    0.22542E-02   -0.19262E-02 39848   0.411E-01    0.132E+00
DAV:  16    -0.343376845933E+03    0.86088E-04   -0.10213E-02 40112   0.344E-01    0.103E+00
DAV:  17    -0.343380091347E+03   -0.32454E-02   -0.18636E-02 40912   0.299E-01    0.170E+00
DAV:  18    -0.343375917195E+03    0.41742E-02   -0.12209E-02 39848   0.289E-01    0.715E-01
DAV:  19    -0.343376707552E+03   -0.79036E-03   -0.55505E-03 39568   0.208E-01    0.459E-01
DAV:  20    -0.343377927263E+03   -0.12197E-02   -0.20219E-03 34488   0.139E-01    0.249E-01
DAV:  21    -0.343378515768E+03   -0.58850E-03   -0.19743E-03 36368   0.968E-02    0.251E-01
DAV:  22    -0.343378585806E+03   -0.70039E-04   -0.84406E-04 39224   0.575E-02    0.215E-01
DAV:  23    -0.343378611902E+03   -0.26096E-04   -0.19927E-04 31760   0.274E-02    0.206E-01
DAV:  24    -0.343378687505E+03   -0.75603E-04   -0.12191E-04 22920   0.199E-02    0.191E-01
DAV:  25    -0.343378843418E+03   -0.15591E-03   -0.58383E-04 35320   0.540E-02    0.141E-01
DAV:  26    -0.343378801447E+03    0.41972E-04   -0.49976E-04 37088   0.478E-02    0.877E-02
DAV:  27    -0.343378822903E+03   -0.21456E-04   -0.28765E-04 31824   0.327E-02    0.754E-02
DAV:  28    -0.343378916330E+03   -0.93428E-04   -0.57590E-05 26152   0.228E-02    0.399E-02
DAV:  29    -0.343378924390E+03   -0.80597E-05   -0.11734E-05 17936   0.983E-03
   9 F= -.34337892E+03 E0= -.34336263E+03  d E =-.774809E-01  mag=    16.0000
       N       E                     dE             d eps       ncg     rms          rms(c)
DAV:   1    -0.343126899359E+03    0.25202E+00   -0.59616E+01 32256   0.256E+01    0.232E+00
DAV:   2    -0.343567964796E+03   -0.44107E+00   -0.41313E+00 31976   0.478E+00    0.871E+00
DAV:   3    -0.343454767077E+03    0.11320E+00   -0.10638E+00 38576   0.209E+00    0.494E+00
DAV:   4    -0.343466699451E+03   -0.11932E-01   -0.17959E-01 40440   0.119E+00    0.448E+00
DAV:   5    -0.343447640332E+03    0.19059E-01   -0.67812E-02 38832   0.788E-01    0.246E+00
DAV:   6    -0.343445508028E+03    0.21323E-02   -0.30514E-02 39712   0.487E-01    0.138E+00
DAV:   7    -0.343452336574E+03   -0.68285E-02   -0.33827E-02 39648   0.456E-01    0.220E+00
DAV:   8    -0.343443473362E+03    0.88632E-02   -0.28542E-02 40528   0.450E-01    0.895E-01
DAV:   9    -0.343448645471E+03   -0.51721E-02   -0.13766E-02 39664   0.337E-01    0.177E+00
DAV:  10    -0.343444862488E+03    0.37830E-02   -0.13731E-02 39240   0.292E-01    0.950E-01
DAV:  11    -0.343444576244E+03    0.28624E-03   -0.75135E-03 39616   0.232E-01    0.666E-01
DAV:  12    -0.343445222903E+03   -0.64666E-03   -0.28960E-03 40776   0.174E-01    0.759E-01
DAV:  13    -0.343444788466E+03    0.43444E-03   -0.25074E-03 39520   0.155E-01    0.516E-01
DAV:  14    -0.343444656115E+03    0.13235E-03   -0.13451E-03 39448   0.125E-01    0.332E-01
DAV:  15    -0.343444809256E+03   -0.15314E-03   -0.51909E-04 39728   0.917E-02    0.311E-01
DAV:  16    -0.343444882256E+03   -0.73000E-04   -0.60923E-04 39600   0.928E-02    0.392E-01
DAV:  17    -0.343444838603E+03    0.43653E-04   -0.10363E-03 39280   0.980E-02    0.293E-01
DAV:  18    -0.343444843619E+03   -0.50155E-05   -0.70013E-04 37408   0.757E-02    0.101E-01
DAV:  19    -0.343444950721E+03   -0.10710E-03   -0.26444E-04 29056   0.321E-02    0.106E-01
DAV:  20    -0.343444962536E+03   -0.11815E-04   -0.99137E-05 24320   0.205E-02    0.971E-02
DAV:  21    -0.343444936470E+03    0.26066E-04   -0.21857E-05 19632   0.116E-02    0.965E-02
DAV:  22    -0.343444898488E+03    0.37982E-04   -0.39985E-06 17064   0.719E-03    0.989E-02
DAV:  23    -0.343444919074E+03   -0.20586E-04   -0.66819E-06 16968   0.102E-02    0.870E-02
DAV:  24    -0.343444966136E+03   -0.47062E-04   -0.37609E-05 25936   0.200E-02    0.682E-02
DAV:  25    -0.343444982148E+03   -0.16013E-04   -0.24746E-05 20672   0.141E-02    0.664E-02
DAV:  26    -0.343444978134E+03    0.40141E-05   -0.58305E-06 17640   0.809E-03
  10 F= -.34344498E+03 E0= -.34342832E+03  d E =-.660537E-01  mag=    16.0000
       N       E                     dE             d eps       ncg     rms          rms(c)
DAV:   1    -0.342738046728E+03    0.70694E+00   -0.16567E+02 31952   0.394E+01    0.329E+00
DAV:   2    -0.343631837727E+03   -0.89379E+00   -0.84261E+00 30912   0.706E+00    0.826E+00
DAV:   3    -0.343562424214E+03    0.69414E-01   -0.58076E-01 41320   0.240E+00    0.655E+00
DAV:   4    -0.343576046550E+03   -0.13622E-01   -0.19337E-01 40144   0.143E+00    0.855E+00
DAV:   5    -0.343500340147E+03    0.75706E-01   -0.43254E-01 39416   0.968E-01    0.254E+00
DAV:   6    -0.343533009522E+03   -0.32669E-01   -0.11341E-01 38256   0.685E-01    0.377E+00
DAV:   7    -0.343514353781E+03    0.18656E-01   -0.70777E-02 39216   0.671E-01    0.203E+00
DAV:   8    -0.343522346386E+03   -0.79926E-02   -0.39005E-02 41224   0.634E-01    0.274E+00
DAV:   9    -0.343517363735E+03    0.49827E-02   -0.50530E-02 39672   0.528E-01    0.221E+00
DAV:  10    -0.343512203961E+03    0.51598E-02   -0.29875E-02 39680   0.422E-01    0.106E+00
DAV:  11    -0.343516443240E+03   -0.42393E-02   -0.13096E-02 40224   0.351E-01    0.163E+00
DAV:  12    -0.343512306908E+03    0.41363E-02   -0.13969E-02 39888   0.298E-01    0.976E-01
DAV:  13    -0.343513928209E+03   -0.16213E-02   -0.60435E-03 40648   0.271E-01    0.128E+00
DAV:  14    -0.343513866414E+03    0.61794E-04   -0.69797E-03 40936   0.306E-01    0.112E+00
DAV:  15    -0.343513302151E+03    0.56426E-03   -0.95987E-03 40488   0.289E-01    0.836E-01
DAV:  16    -0.343513854708E+03   -0.55256E-03   -0.71461E-03 40104   0.256E-01    0.719E-01
DAV:  17    -0.343514260216E+03   -0.40551E-03   -0.67292E-03 40560   0.207E-01    0.710E-01
DAV:  18    -0.343513994185E+03    0.26603E-03   -0.28662E-03 39960   0.159E-01    0.354E-01
DAV:  19    -0.343514404575E+03   -0.41039E-03   -0.97664E-04 37144   0.692E-02    0.313E-01
DAV:  20    -0.343514531523E+03   -0.12695E-03   -0.82192E-04 39488   0.476E-02    0.271E-01
DAV:  21    -0.343514669129E+03   -0.13761E-03   -0.99987E-04 38432   0.543E-02    0.232E-01
DAV:  22    -0.343514763023E+03   -0.93894E-04   -0.51525E-04 36648   0.411E-02    0.222E-01
DAV:  23    -0.343514757605E+03    0.54182E-05   -0.25738E-04 31856   0.340E-02    0.151E-01
DAV:  24    -0.343514749886E+03    0.77188E-05   -0.45504E-04 36584   0.497E-02    0.118E-01
DAV:  25    -0.343514798636E+03   -0.48749E-04   -0.12846E-04 34264   0.330E-02    0.867E-02
DAV:  26    -0.343514812344E+03   -0.13708E-04   -0.66680E-05 26312   0.221E-02    0.538E-02
DAV:  27    -0.343514829114E+03   -0.16770E-04   -0.22431E-05 21568   0.128E-02    0.420E-02
DAV:  28    -0.343514831330E+03   -0.22152E-05   -0.98102E-06 17576   0.809E-03
  11 F= -.34351483E+03 E0= -.34349810E+03  d E =-.698532E-01  mag=    16.0000
       N       E                     dE             d eps       ncg     rms          rms(c)
DAV:   1    -0.343382386631E+03    0.13244E+00   -0.28985E+01 32560   0.182E+01    0.166E+00
DAV:   2    -0.343577599691E+03   -0.19521E+00   -0.16828E+00 31608   0.323E+00    0.819E+00
DAV:   3    -0.343512237238E+03    0.65362E-01   -0.74142E-01 35368   0.144E+00    0.282E+00
DAV:   4    -0.343534987194E+03   -0.22750E-01   -0.61670E-02 35496   0.678E-01    0.272E+00
DAV:   5    -0.343522039830E+03    0.12947E-01   -0.35708E-02 39624   0.444E-01    0.133E+00
DAV:   6    -0.343533103488E+03   -0.11064E-01   -0.33114E-02 39776   0.449E-01    0.245E+00
DAV:   7    -0.343525296604E+03    0.78069E-02   -0.37402E-02 39536   0.434E-01    0.136E+00
DAV:   8    -0.343527030853E+03   -0.17342E-02   -0.67339E-03 38064   0.221E-01    0.143E+00
DAV:   9    -0.343526449032E+03    0.58182E-03   -0.48206E-03 37760   0.134E-01    0.132E+00
DAV:  10    -0.343525511260E+03    0.93777E-03   -0.22664E-03 39360   0.101E-01    0.116E+00
DAV:  11    -0.343526395786E+03   -0.88453E-03   -0.35192E-03 41000   0.187E-01    0.118E+00
DAV:  12    -0.343526514554E+03   -0.11877E-03   -0.14558E-02 41112   0.281E-01    0.117E+00
DAV:  13    -0.343526127767E+03    0.38679E-03   -0.55043E-03 39368   0.264E-01    0.932E-01
DAV:  14    -0.343526816508E+03   -0.68874E-03   -0.64628E-03 39800   0.233E-01    0.917E-01
DAV:  15    -0.343525777843E+03    0.10387E-02   -0.37618E-03 38680   0.186E-01    0.422E-01
DAV:  16    -0.343526203161E+03   -0.42532E-03   -0.71572E-04 37232   0.107E-01    0.447E-01
DAV:  17    -0.343526025972E+03    0.17719E-03   -0.38197E-04 35488   0.672E-02    0.335E-01
DAV:  18    -0.343525998812E+03    0.27160E-04   -0.22876E-04 31368   0.491E-02    0.241E-01
DAV:  19    -0.343526045710E+03   -0.46897E-04   -0.10979E-04 22736   0.225E-02    0.238E-01
DAV:  20    -0.343526128190E+03   -0.82480E-04   -0.27589E-04 29184   0.312E-02    0.283E-01
DAV:  21    -0.343526107818E+03    0.20372E-04   -0.60357E-05 25696   0.185E-02    0.280E-01
DAV:  22    -0.343526088398E+03    0.19420E-04   -0.16666E-04 30160   0.285E-02    0.235E-01
DAV:  23    -0.343526018215E+03    0.70183E-04   -0.18401E-04 34120   0.373E-02    0.106E-01
DAV:  24    -0.343526102659E+03   -0.84445E-04   -0.95063E-05 31104   0.280E-02    0.692E-02
DAV:  25    -0.343526114692E+03   -0.12032E-04   -0.44884E-05 20912   0.167E-02    0.485E-02
DAV:  26    -0.343526122335E+03   -0.76432E-05   -0.23356E-05 20296   0.118E-02
  12 F= -.34352612E+03 E0= -.34350974E+03  d E =-.112910E-01  mag=    16.0000
       N       E                     dE             d eps       ncg     rms          rms(c)
DAV:   1    -0.343514674217E+03    0.11440E-01   -0.73066E+00 32248   0.864E+00    0.984E-01
DAV:   2    -0.343580560961E+03   -0.65887E-01   -0.58342E-01 33048   0.177E+00    0.390E+00
DAV:   3    -0.343554494193E+03    0.26067E-01   -0.13703E-01 38600   0.957E-01    0.159E+00
DAV:   4    -0.343561611480E+03   -0.71173E-02   -0.30447E-02 38024   0.405E-01    0.203E+00
DAV:   5    -0.343558145736E+03    0.34657E-02   -0.24460E-02 38720   0.271E-01    0.118E+00
DAV:   6    -0.343557547826E+03    0.59791E-03   -0.54710E-03 38480   0.192E-01    0.635E-01
DAV:   7    -0.343559299326E+03   -0.17515E-02   -0.84445E-03 39712   0.210E-01    0.110E+00
DAV:   8    -0.343557981264E+03    0.13181E-02   -0.11800E-02 40888   0.253E-01    0.102E+00
DAV:   9    -0.343557278390E+03    0.70287E-03   -0.40244E-03 39336   0.195E-01    0.706E-01
DAV:  10    -0.343557368462E+03   -0.90072E-04   -0.33701E-03 39704   0.165E-01    0.589E-01
DAV:  11    -0.343557092041E+03    0.27642E-03   -0.14943E-03 40488   0.128E-01    0.418E-01
DAV:  12    -0.343557144201E+03   -0.52160E-04   -0.75283E-04 39208   0.871E-02    0.409E-01
DAV:  13    -0.343557038177E+03    0.10602E-03   -0.68471E-04 37608   0.755E-02    0.254E-01
DAV:  14    -0.343557137964E+03   -0.99787E-04   -0.75120E-04 36624   0.687E-02    0.347E-01
DAV:  15    -0.343557099433E+03    0.38531E-04   -0.50929E-04 36144   0.674E-02    0.229E-01
DAV:  16    -0.343557127898E+03   -0.28465E-04   -0.29786E-04 34024   0.593E-02    0.212E-01
DAV:  17    -0.343557134759E+03   -0.68612E-05   -0.31115E-04 31464   0.560E-02    0.177E-01
DAV:  18    -0.343557147933E+03   -0.13174E-04   -0.24404E-04 31056   0.415E-02    0.166E-01
DAV:  19    -0.343557158483E+03   -0.10550E-04   -0.27933E-04 30184   0.325E-02    0.728E-02
DAV:  20    -0.343557213540E+03   -0.55056E-04   -0.19683E-04 26992   0.241E-02    0.658E-02
DAV:  21    -0.343557254155E+03   -0.40615E-04   -0.13584E-04 22296   0.196E-02    0.904E-02
DAV:  22    -0.343557259004E+03   -0.48484E-05   -0.31654E-05 21000   0.133E-02
  13 F= -.34355726E+03 E0= -.34354078E+03  d E =-.311367E-01  mag=    16.0000
       N       E                     dE             d eps       ncg     rms          rms(c)
DAV:   1    -0.343524741958E+03    0.32512E-01   -0.12420E+01 31824   0.107E+01    0.702E-01
DAV:   2    -0.343572939783E+03   -0.48198E-01   -0.48576E-01 30080   0.177E+00    0.141E+00
DAV:   3    -0.343576933751E+03   -0.39940E-02   -0.81576E-02 40984   0.519E-01    0.212E+00
DAV:   4    -0.343573202771E+03    0.37310E-02   -0.30804E-02 39264   0.372E-01    0.177E+00
DAV:   5    -0.343570417225E+03    0.27855E-02   -0.96702E-03 38840   0.240E-01    0.557E-01
DAV:   6    -0.343571479878E+03   -0.10627E-02   -0.16589E-03 36920   0.129E-01    0.500E-01
DAV:   7    -0.343571462382E+03    0.17496E-04   -0.25034E-03 40136   0.125E-01    0.500E-01
DAV:   8    -0.343571043856E+03    0.41853E-03   -0.22095E-03 40696   0.116E-01    0.294E-01
DAV:   9    -0.343571384285E+03   -0.34043E-03   -0.13928E-03 40328   0.976E-02    0.510E-01
DAV:  10    -0.343571023129E+03    0.36116E-03   -0.89885E-04 39944   0.889E-02    0.277E-01
DAV:  11    -0.343571084458E+03   -0.61330E-04   -0.59723E-04 38328   0.727E-02    0.250E-01
DAV:  12    -0.343571297627E+03   -0.21317E-03   -0.71213E-04 37544   0.881E-02    0.406E-01
DAV:  13    -0.343571073139E+03    0.22449E-03   -0.66635E-04 37088   0.826E-02    0.199E-01
DAV:  14    -0.343571202729E+03   -0.12959E-03   -0.35443E-04 33824   0.629E-02    0.252E-01
DAV:  15    -0.343571157722E+03    0.45006E-04   -0.24080E-04 29672   0.496E-02    0.159E-01
DAV:  16    -0.343571176048E+03   -0.18326E-04   -0.11052E-04 26544   0.368E-02    0.108E-01
DAV:  17    -0.343571190259E+03   -0.14211E-04   -0.55404E-05 22408   0.201E-02    0.118E-01
DAV:  18    -0.343571178868E+03    0.11391E-04   -0.27358E-05 19328   0.162E-02    0.941E-02
DAV:  19    -0.343571164132E+03    0.14736E-04   -0.47631E-06 16840   0.670E-03    0.947E-02
DAV:  20    -0.343571152857E+03    0.11275E-04   -0.10595E-06 16608   0.361E-03    0.957E-02
DAV:  21    -0.343571176902E+03   -0.24044E-04   -0.71261E-06 17272   0.107E-02    0.814E-02
DAV:  22    -0.343571222526E+03   -0.45625E-04   -0.62078E-05 26856   0.234E-02    0.724E-02
DAV:  23    -0.343571217137E+03    0.53893E-05   -0.66722E-05 22064   0.199E-02
  14 F= -.34357122E+03 E0= -.34355472E+03  d E =-.139581E-01  mag=    16.0000
       N       E                     dE             d eps       ncg     rms          rms(c)
DAV:   1    -0.343449980146E+03    0.12124E+00   -0.36829E+01 31728   0.184E+01    0.122E+00
DAV:   2    -0.343588734978E+03   -0.13875E+00   -0.14166E+00 29968   0.302E+00    0.121E+00
DAV:   3    -0.343619192004E+03   -0.30457E-01   -0.11129E-01 41736   0.770E-01    0.456E+00
DAV:   4    -0.343585407278E+03    0.33785E-01   -0.84957E-02 38432   0.605E-01    0.893E-01
DAV:   5    -0.343590626101E+03   -0.52188E-02   -0.10356E-02 34896   0.261E-01    0.700E-01
DAV:   6    -0.343591666196E+03   -0.10401E-02   -0.50103E-03 38448   0.230E-01    0.121E+00
DAV:   7    -0.343589731032E+03    0.19352E-02   -0.42132E-03 39808   0.203E-01    0.499E-01
DAV:   8    -0.343591655076E+03   -0.19240E-02   -0.65497E-03 40104   0.199E-01    0.998E-01
DAV:   9    -0.343590197369E+03    0.14577E-02   -0.77702E-03 39360   0.177E-01    0.463E-01
DAV:  10    -0.343590378050E+03   -0.18068E-03   -0.19347E-03 39152   0.120E-01    0.387E-01
DAV:  11    -0.343590347543E+03    0.30507E-04   -0.93674E-04 39544   0.962E-02    0.283E-01
DAV:  12    -0.343590374834E+03   -0.27291E-04   -0.71628E-04 36912   0.774E-02    0.288E-01
DAV:  13    -0.343590315170E+03    0.59664E-04   -0.33190E-04 34208   0.635E-02    0.189E-01
DAV:  14    -0.343590367606E+03   -0.52436E-04   -0.37812E-04 31088   0.506E-02    0.205E-01
DAV:  15    -0.343590338009E+03    0.29598E-04   -0.27277E-04 26984   0.444E-02    0.120E-01
DAV:  16    -0.343590374255E+03   -0.36246E-04   -0.10590E-04 25424   0.335E-02    0.167E-01
DAV:  17    -0.343590357500E+03    0.16754E-04   -0.11759E-04 24520   0.307E-02    0.118E-01
DAV:  18    -0.343590348957E+03    0.85437E-05   -0.34340E-05 19896   0.195E-02
  15 F= -.34359035E+03 E0= -.34357389E+03  d E =-.191318E-01  mag=    16.0000
       N       E                     dE             d eps       ncg     rms          rms(c)
DAV:   1    -0.342221441013E+03    0.13689E+01   -0.14082E+02 33104   0.443E+01    0.640E+00
DAV:   2    -0.345151313855E+03   -0.29299E+01   -0.13852E+01 34472   0.997E+00    0.311E+01
DAV:   3    -0.343255571145E+03    0.18957E+01   -0.11422E+01 38616   0.543E+00    0.613E+00
DAV:   4    -0.343760242893E+03   -0.50467E+00   -0.22751E+00 40224   0.334E+00    0.157E+01
DAV:   5    -0.343233974291E+03    0.52627E+00   -0.92947E-01 39472   0.281E+00    0.418E+00
DAV:   6    -0.343359575517E+03   -0.12560E+00   -0.18885E-01 39616   0.144E+00    0.617E+00
DAV:   7    -0.343345791933E+03    0.13784E-01   -0.16669E-01 39632   0.124E+00    0.554E+00
DAV:   8    -0.343358810626E+03   -0.13019E-01   -0.10349E-01 37528   0.555E-01    0.538E+00
DAV:   9    -0.343349636813E+03    0.91738E-02   -0.75082E-03 31568   0.237E-01    0.577E+00
DAV:  10    -0.343335724656E+03    0.13912E-01   -0.51545E-03 39568   0.224E-01    0.573E+00
DAV:  11    -0.343353535406E+03   -0.17811E-01   -0.36863E-02 40624   0.398E-01    0.599E+00
DAV:  12    -0.343350501820E+03    0.30336E-02   -0.39006E-02 40560   0.477E-01    0.523E+00
DAV:  13    -0.343347909343E+03    0.25925E-02   -0.12869E-02 40992   0.451E-01    0.469E+00
DAV:  14    -0.343357406024E+03   -0.94967E-02   -0.25394E-02 41272   0.528E-01    0.480E+00
DAV:  15    -0.343343885957E+03    0.13520E-01   -0.28476E-02 40992   0.643E-01    0.364E+00
DAV:  16    -0.343343374358E+03    0.51160E-03   -0.48331E-02 41216   0.702E-01    0.339E+00
DAV:  17    -0.343331324628E+03    0.12050E-01   -0.52364E-02 40568   0.648E-01    0.252E+00
DAV:  18    -0.343338920065E+03   -0.75954E-02   -0.18039E-02 37928   0.331E-01    0.301E+00
DAV:  19    -0.343335081474E+03    0.38386E-02   -0.54225E-03 38016   0.234E-01    0.246E+00
DAV:  20    -0.343338240374E+03   -0.31589E-02   -0.60533E-03 39888   0.266E-01    0.138E+00
DAV:  21    -0.343343321316E+03   -0.50809E-02   -0.10390E-02 38048   0.275E-01    0.634E-01
DAV:  22    -0.343345130773E+03   -0.18095E-02   -0.31347E-03 37304   0.166E-01    0.507E-01
DAV:  23    -0.343345118188E+03    0.12585E-04   -0.14880E-03 39680   0.101E-01    0.338E-01
DAV:  24    -0.343345269186E+03   -0.15100E-03   -0.86518E-04 39496   0.768E-02    0.299E-01
DAV:  25    -0.343345348736E+03   -0.79550E-04   -0.31909E-04 38768   0.539E-02    0.291E-01
DAV:  26    -0.343345413969E+03   -0.65232E-04   -0.43690E-04 38328   0.581E-02    0.207E-01
DAV:  27    -0.343345464653E+03   -0.50684E-04   -0.44991E-04 33032   0.418E-02    0.143E-01
DAV:  28    -0.343345492762E+03   -0.28110E-04   -0.18283E-04 30024   0.278E-02    0.133E-01
DAV:  29    -0.343345488473E+03    0.42898E-05   -0.61360E-05 21968   0.159E-02
  16 F= -.34334549E+03 E0= -.34332979E+03  d E =0.244860E+00  mag=    16.0058
       N       E                     dE             d eps       ncg     rms          rms(c)
DAV:   1    -0.343286040239E+03    0.59453E-01   -0.35915E+01 33312   0.195E+01    0.315E+00
DAV:   2    -0.343706326626E+03   -0.42029E+00   -0.42132E+00 32992   0.448E+00    0.865E+00
DAV:   3    -0.343646570086E+03    0.59757E-01   -0.11950E+00 38736   0.240E+00    0.676E+00
DAV:   4    -0.343617384236E+03    0.29186E-01   -0.21340E-01 38104   0.113E+00    0.445E+00
DAV:   5    -0.343600226964E+03    0.17157E-01   -0.61616E-02 38976   0.630E-01    0.259E+00
DAV:   6    -0.343614643586E+03   -0.14417E-01   -0.76971E-02 40184   0.553E-01    0.379E+00
DAV:   7    -0.343616060370E+03   -0.14168E-02   -0.18566E-01 40360   0.771E-01    0.369E+00
DAV:   8    -0.343602044342E+03    0.14016E-01   -0.13836E-01 40352   0.855E-01    0.270E+00
DAV:   9    -0.343633521846E+03   -0.31478E-01   -0.63661E-02 39360   0.777E-01    0.539E+00
DAV:  10    -0.343592198830E+03    0.41323E-01   -0.74656E-02 39144   0.737E-01    0.176E+00
DAV:  11    -0.343602336397E+03   -0.10138E-01   -0.32230E-02 38760   0.525E-01    0.199E+00
DAV:  12    -0.343598955636E+03    0.33808E-02   -0.21804E-02 39920   0.447E-01    0.130E+00
DAV:  13    -0.343598935721E+03    0.19916E-04   -0.82489E-03 40192   0.297E-01    0.940E-01
DAV:  14    -0.343599393821E+03   -0.45810E-03   -0.44537E-03 38920   0.231E-01    0.728E-01
DAV:  15    -0.343599498532E+03   -0.10471E-03   -0.41177E-03 40536   0.183E-01    0.714E-01
DAV:  16    -0.343599159332E+03    0.33920E-03   -0.14161E-03 39792   0.132E-01    0.456E-01
DAV:  17    -0.343599591732E+03   -0.43240E-03   -0.13811E-03 40496   0.113E-01    0.584E-01
DAV:  18    -0.343599151779E+03    0.43995E-03   -0.79711E-04 38968   0.899E-02    0.314E-01
DAV:  19    -0.343599341524E+03   -0.18975E-03   -0.61279E-04 34728   0.457E-02    0.259E-01
DAV:  20    -0.343599234502E+03    0.10702E-03   -0.70147E-05 28376   0.257E-02    0.269E-01
DAV:  21    -0.343599221542E+03    0.12960E-04   -0.36383E-04 39160   0.525E-02    0.254E-01
DAV:  22    -0.343599312701E+03   -0.91159E-04   -0.25665E-04 35376   0.420E-02    0.330E-01
DAV:  23    -0.343599213324E+03    0.99377E-04   -0.31146E-04 34424   0.385E-02    0.205E-01
DAV:  24    -0.343599199910E+03    0.13414E-04   -0.12690E-04 30712   0.252E-02    0.182E-01
DAV:  25    -0.343599267519E+03   -0.67609E-04   -0.48508E-05 21224   0.146E-02    0.187E-01
DAV:  26    -0.343599263972E+03    0.35471E-05   -0.21584E-05 18952   0.117E-02
  17 F= -.34359926E+03 E0= -.34358291E+03  d E =-.253775E+00  mag=    16.0005
       N       E                     dE             d eps       ncg     rms          rms(c)
DAV:   1    -0.343595072214E+03    0.41953E-02   -0.14258E+00 33176   0.462E+00    0.595E-01
DAV:   2    -0.343617081325E+03   -0.22009E-01   -0.21043E-01 32816   0.975E-01    0.230E+00
DAV:   3    -0.343610072827E+03    0.70085E-02   -0.66770E-02 38808   0.500E-01    0.120E+00
DAV:   4    -0.343612538864E+03   -0.24660E-02   -0.13608E-02 38360   0.260E-01    0.138E+00
DAV:   5    -0.343610628348E+03    0.19105E-02   -0.70979E-03 38584   0.188E-01    0.707E-01
DAV:   6    -0.343610564723E+03    0.63625E-04   -0.22896E-03 37416   0.114E-01    0.406E-01
DAV:   7    -0.343610788574E+03   -0.22385E-03   -0.13458E-03 38000   0.794E-02    0.460E-01
DAV:   8    -0.343610526108E+03    0.26247E-03   -0.71975E-04 36768   0.610E-02    0.340E-01
DAV:   9    -0.343610582877E+03   -0.56769E-04   -0.44840E-04 33408   0.579E-02    0.476E-01
DAV:  10    -0.343610542638E+03    0.40240E-04   -0.77249E-04 38504   0.726E-02    0.387E-01
DAV:  11    -0.343610838254E+03   -0.29562E-03   -0.66517E-04 40304   0.943E-02    0.617E-01
DAV:  12    -0.343610358947E+03    0.47931E-03   -0.13673E-03 39184   0.125E-01    0.331E-01
DAV:  13    -0.343610805759E+03   -0.44681E-03   -0.15290E-03 39776   0.132E-01    0.560E-01
DAV:  14    -0.343610505835E+03    0.29992E-03   -0.10134E-03 39328   0.118E-01    0.305E-01
DAV:  15    -0.343610618905E+03   -0.11307E-03   -0.59529E-04 38192   0.886E-02    0.196E-01
DAV:  16    -0.343610697753E+03   -0.78848E-04   -0.42363E-04 36800   0.575E-02    0.255E-01
DAV:  17    -0.343610658610E+03    0.39143E-04   -0.34507E-04 34296   0.508E-02    0.156E-01
DAV:  18    -0.343610713573E+03   -0.54963E-04   -0.17257E-04 29968   0.320E-02    0.141E-01
DAV:  19    -0.343610725623E+03   -0.12050E-04   -0.15136E-04 25824   0.293E-02    0.106E-01
DAV:  20    -0.343610694642E+03    0.30980E-04   -0.32491E-04 34416   0.385E-02    0.108E-01
DAV:  21    -0.343610765211E+03   -0.70569E-04   -0.10168E-04 27720   0.235E-02    0.100E-01
DAV:  22    -0.343610755286E+03    0.99256E-05   -0.68888E-05 21704   0.181E-02
  18 F= -.34361076E+03 E0= -.34359420E+03  d E =-.114913E-01  mag=    16.0001
       N       E                     dE             d eps       ncg     rms          rms(c)
DAV:   1    -0.343607479465E+03    0.32857E-02   -0.83508E-01 32944   0.372E+00    0.391E-01
DAV:   2    -0.343619050748E+03   -0.11571E-01   -0.10484E-01 31904   0.747E-01    0.167E+00
DAV:   3    -0.343614689151E+03    0.43616E-02   -0.24163E-02 39464   0.333E-01    0.636E-01
DAV:   4    -0.343617050454E+03   -0.23613E-02   -0.75319E-03 38720   0.180E-01    0.112E+00
DAV:   5    -0.343615634459E+03    0.14160E-02   -0.53634E-03 38720   0.145E-01    0.528E-01
DAV:   6    -0.343615628223E+03    0.62357E-05   -0.14496E-03 37256   0.894E-02    0.227E-01
DAV:   7    -0.343615844923E+03   -0.21670E-03   -0.91424E-04 36952   0.688E-02    0.320E-01
DAV:   8    -0.343615675848E+03    0.16907E-03   -0.60547E-04 37208   0.615E-02    0.193E-01
DAV:   9    -0.343615749655E+03   -0.73807E-04   -0.38894E-04 32200   0.538E-02    0.304E-01
DAV:  10    -0.343615685434E+03    0.64222E-04   -0.43352E-04 34504   0.547E-02    0.203E-01
DAV:  11    -0.343615717945E+03   -0.32511E-04   -0.20144E-04 27640   0.507E-02    0.281E-01
DAV:  12    -0.343615654915E+03    0.63030E-04   -0.22249E-04 31760   0.484E-02    0.162E-01
DAV:  13    -0.343615694417E+03   -0.39502E-04   -0.21876E-04 28896   0.465E-02    0.159E-01
DAV:  14    -0.343615764755E+03   -0.70338E-04   -0.24755E-04 29240   0.508E-02    0.235E-01
DAV:  15    -0.343615682367E+03    0.82388E-04   -0.22841E-04 30808   0.485E-02    0.579E-02
DAV:  16    -0.343615736264E+03   -0.53897E-04   -0.80138E-05 23672   0.262E-02    0.980E-02
DAV:  17    -0.343615722974E+03    0.13290E-04   -0.44721E-05 20784   0.231E-02    0.726E-02
DAV:  18    -0.343615724601E+03   -0.16274E-05   -0.19710E-05 17704   0.132E-02
  19 F= -.34361572E+03 E0= -.34359914E+03  d E =-.496932E-02  mag=    16.0000
       N       E                     dE             d eps       ncg     rms          rms(c)
DAV:   1    -0.343617363538E+03   -0.16406E-02   -0.68232E-01 32136   0.285E+00    0.263E-01
DAV:   2    -0.343621460146E+03   -0.40966E-02   -0.38035E-02 31384   0.506E-01    0.786E-01
DAV:   3    -0.343621181758E+03    0.27839E-03   -0.42788E-03 39840   0.211E-01    0.698E-01
DAV:   4    -0.343621124780E+03    0.56978E-04   -0.33824E-03 37672   0.105E-01    0.552E-01
DAV:   5    -0.343620768042E+03    0.35674E-03   -0.15871E-03 35080   0.710E-02    0.249E-01
DAV:   6    -0.343620882603E+03   -0.11456E-03   -0.18689E-04 27216   0.406E-02    0.243E-01
DAV:   7    -0.343620949723E+03   -0.67120E-04   -0.35686E-04 31400   0.482E-02    0.298E-01
DAV:   8    -0.343620836886E+03    0.11284E-03   -0.35835E-04 31320   0.518E-02    0.177E-01
DAV:   9    -0.343620924139E+03   -0.87252E-04   -0.22157E-04 27816   0.460E-02    0.289E-01
DAV:  10    -0.343620814931E+03    0.10921E-03   -0.20897E-04 29960   0.495E-02    0.140E-01
DAV:  11    -0.343620900388E+03   -0.85457E-04   -0.13546E-04 27592   0.470E-02    0.234E-01
DAV:  12    -0.343620852628E+03    0.47760E-04   -0.18773E-04 32080   0.512E-02    0.161E-01
DAV:  13    -0.343620857276E+03   -0.46479E-05   -0.20988E-04 29392   0.504E-02    0.133E-01
DAV:  14    -0.343620905514E+03   -0.48238E-04   -0.29886E-04 25296   0.423E-02    0.191E-01
DAV:  15    -0.343620867613E+03    0.37901E-04   -0.24321E-04 25568   0.393E-02    0.128E-01
DAV:  16    -0.343620870615E+03   -0.30016E-05   -0.69971E-05 23096   0.258E-02
  20 F= -.34362087E+03 E0= -.34360426E+03  d E =-.514601E-02  mag=    16.0000
       N       E                     dE             d eps       ncg     rms          rms(c)
DAV:   1    -0.343621021276E+03   -0.15366E-03   -0.11687E+00 31464   0.335E+00    0.343E-01
DAV:   2    -0.343627497095E+03   -0.64758E-02   -0.58407E-02 31616   0.609E-01    0.119E+00
DAV:   3    -0.343626093218E+03    0.14039E-02   -0.10043E-02 38632   0.292E-01    0.783E-01
DAV:   4    -0.343626478820E+03   -0.38560E-03   -0.41293E-03 36912   0.125E-01    0.656E-01
DAV:   5    -0.343625920207E+03    0.55861E-03   -0.23373E-03 36976   0.846E-02    0.336E-01
DAV:   6    -0.343626087690E+03   -0.16748E-03   -0.48401E-04 33128   0.580E-02    0.344E-01
DAV:   7    -0.343626292926E+03   -0.20524E-03   -0.98610E-04 39448   0.795E-02    0.476E-01
DAV:   8    -0.343625973880E+03    0.31905E-03   -0.12229E-03 40088   0.919E-02    0.242E-01
DAV:   9    -0.343626067455E+03   -0.93575E-04   -0.44527E-04 36160   0.651E-02    0.296E-01
DAV:  10    -0.343626009585E+03    0.57870E-04   -0.35045E-04 32488   0.590E-02    0.214E-01
DAV:  11    -0.343625998353E+03    0.11232E-04   -0.24643E-04 29080   0.527E-02    0.164E-01
DAV:  12    -0.343626050149E+03   -0.51796E-04   -0.19271E-04 28976   0.474E-02    0.197E-01
DAV:  13    -0.343626046042E+03    0.41068E-05   -0.19386E-04 27944   0.452E-02    0.154E-01
DAV:  14    -0.343626052875E+03   -0.68328E-05   -0.11156E-04 25856   0.394E-02    0.125E-01
DAV:  15    -0.343626086528E+03   -0.33653E-04   -0.22095E-04 24184   0.337E-02    0.180E-01
DAV:  16    -0.343626044194E+03    0.42334E-04   -0.19195E-04 24696   0.345E-02    0.105E-01
DAV:  17    -0.343626072416E+03   -0.28222E-04   -0.65361E-05 22944   0.201E-02    0.128E-01
DAV:  18    -0.343626060553E+03    0.11863E-04   -0.35783E-05 19088   0.193E-02    0.948E-02
DAV:  19    -0.343626061350E+03   -0.79623E-06   -0.54330E-05 19656   0.147E-02
  21 F= -.34362606E+03 E0= -.34360955E+03  d E =-.519073E-02  mag=    16.0000
       N       E                     dE             d eps       ncg     rms          rms(c)
DAV:   1    -0.343624521214E+03    0.15393E-02   -0.10704E+00 31888   0.324E+00    0.240E-01
DAV:   2    -0.343629458198E+03   -0.49370E-02   -0.48555E-02 30032   0.559E-01    0.626E-01
DAV:   3    -0.343629520879E+03   -0.62681E-04   -0.82465E-03 39664   0.157E-01    0.680E-01
DAV:   4    -0.343629125457E+03    0.39542E-03   -0.14846E-03 38192   0.965E-02    0.338E-01
DAV:   5    -0.343629099991E+03    0.25466E-04   -0.62503E-04 35864   0.669E-02    0.185E-01
DAV:   6    -0.343629213264E+03   -0.11327E-03   -0.27400E-04 34432   0.501E-02    0.267E-01
DAV:   7    -0.343629159861E+03    0.53403E-04   -0.57575E-04 37920   0.600E-02    0.223E-01
DAV:   8    -0.343629178318E+03   -0.18457E-04   -0.86730E-04 38760   0.735E-02    0.224E-01
DAV:   9    -0.343629169504E+03    0.88133E-05   -0.57133E-04 33280   0.622E-02    0.228E-01
DAV:  10    -0.343629104449E+03    0.65055E-04   -0.19613E-04 25064   0.414E-02    0.102E-01
DAV:  11    -0.343629116048E+03   -0.11599E-04   -0.38790E-05 21800   0.263E-02    0.589E-02
DAV:  12    -0.343629116705E+03   -0.65686E-06   -0.13232E-05 18408   0.141E-02
  22 F= -.34362912E+03 E0= -.34361263E+03  d E =-.305536E-02  mag=    16.0000
       N       E                     dE             d eps       ncg     rms          rms(c)
DAV:   1    -0.343603946592E+03    0.25169E-01   -0.74737E+00 31648   0.855E+00    0.574E-01
DAV:   2    -0.343634091081E+03   -0.30144E-01   -0.30515E-01 29952   0.142E+00    0.870E-01
DAV:   3    -0.343641306658E+03   -0.72156E-02   -0.46249E-02 40816   0.403E-01    0.230E+00
DAV:   4    -0.343632821300E+03    0.84854E-02   -0.23457E-02 38704   0.310E-01    0.685E-01
DAV:   5    -0.343633706442E+03   -0.88514E-03   -0.39760E-03 37144   0.154E-01    0.284E-01
DAV:   6    -0.343634363748E+03   -0.65731E-03   -0.14148E-03 39792   0.112E-01    0.572E-01
DAV:   7    -0.343633939035E+03    0.42471E-03   -0.12986E-03 40528   0.106E-01    0.350E-01
DAV:   8    -0.343633923801E+03    0.15234E-04   -0.12923E-03 39312   0.954E-02    0.272E-01
DAV:   9    -0.343634039457E+03   -0.11566E-03   -0.75795E-04 39840   0.804E-02    0.321E-01
DAV:  10    -0.343633866637E+03    0.17282E-03   -0.52829E-04 35088   0.625E-02    0.158E-01
DAV:  11    -0.343633908811E+03   -0.42174E-04   -0.17832E-04 27448   0.411E-02    0.163E-01
DAV:  12    -0.343633898748E+03    0.10063E-04   -0.15555E-04 24592   0.387E-02    0.137E-01
DAV:  13    -0.343633904885E+03   -0.61363E-05   -0.12188E-04 24320   0.400E-02    0.151E-01
DAV:  14    -0.343633913341E+03   -0.84562E-05   -0.17870E-04 24944   0.452E-02    0.156E-01
DAV:  15    -0.343633964099E+03   -0.50758E-04   -0.21020E-04 25224   0.452E-02    0.220E-01
DAV:  16    -0.343633897923E+03    0.66176E-04   -0.13974E-04 24992   0.419E-02    0.630E-02
DAV:  17    -0.343633934283E+03   -0.36360E-04   -0.48129E-05 21408   0.186E-02    0.715E-02
DAV:  18    -0.343633922074E+03    0.12210E-04   -0.15836E-05 18072   0.142E-02    0.557E-02
DAV:  19    -0.343633919241E+03    0.28323E-05   -0.33120E-06 16536   0.630E-03
  23 F= -.34363392E+03 E0= -.34361739E+03  d E =-.480254E-02  mag=    16.0000
       N       E                     dE             d eps       ncg     rms          rms(c)
DAV:   1    -0.343469831636E+03    0.16409E+00   -0.39741E+01 32008   0.197E+01    0.137E+00
DAV:   2    -0.343639980665E+03   -0.17015E+00   -0.17131E+00 29952   0.332E+00    0.252E+00
DAV:   3    -0.343652183599E+03   -0.12203E-01   -0.22330E-01 40488   0.102E+00    0.356E+00
DAV:   4    -0.343648458307E+03    0.37253E-02   -0.17865E-01 39464   0.717E-01    0.337E+00
DAV:   5    -0.343632952054E+03    0.15506E-01   -0.32221E-02 38928   0.457E-01    0.699E-01
DAV:   6    -0.343638659934E+03   -0.57079E-02   -0.94825E-03 37328   0.257E-01    0.127E+00
DAV:   7    -0.343637455051E+03    0.12049E-02   -0.10271E-02 38848   0.265E-01    0.107E+00
DAV:   8    -0.343636332746E+03    0.11223E-02   -0.55121E-03 39656   0.229E-01    0.489E-01
DAV:   9    -0.343638039825E+03   -0.17071E-02   -0.42880E-03 39800   0.190E-01    0.940E-01
DAV:  10    -0.343636697396E+03    0.13424E-02   -0.33945E-03 39280   0.152E-01    0.414E-01
DAV:  11    -0.343636797969E+03   -0.10057E-03   -0.83710E-04 38424   0.793E-02    0.306E-01
DAV:  12    -0.343636838058E+03   -0.40089E-04   -0.33833E-04 34080   0.589E-02    0.286E-01
DAV:  13    -0.343636773177E+03    0.64881E-04   -0.13325E-04 27872   0.439E-02    0.210E-01
DAV:  14    -0.343636829594E+03   -0.56417E-04   -0.16997E-04 29576   0.481E-02    0.237E-01
DAV:  15    -0.343636913874E+03   -0.84280E-04   -0.50916E-04 34264   0.600E-02    0.330E-01
DAV:  16    -0.343636824889E+03    0.88985E-04   -0.64495E-04 37280   0.747E-02    0.231E-01
DAV:  17    -0.343636940857E+03   -0.11597E-03   -0.48324E-04 36224   0.660E-02    0.290E-01
DAV:  18    -0.343636806317E+03    0.13454E-03   -0.31966E-04 32832   0.560E-02    0.890E-02
DAV:  19    -0.343636872137E+03   -0.65820E-04   -0.23559E-04 28968   0.310E-02    0.961E-02
DAV:  20    -0.343636902063E+03   -0.29925E-04   -0.24236E-04 22056   0.233E-02    0.714E-02
DAV:  21    -0.343636905057E+03   -0.29944E-05   -0.31690E-05 21960   0.161E-02
  24 F= -.34363691E+03 E0= -.34362033E+03  d E =-.298582E-02  mag=    16.0000
       N       E                     dE             d eps       ncg     rms          rms(c)
DAV:   1    -0.343596192819E+03    0.40709E-01   -0.11220E+01 32208   0.108E+01    0.768E-01
DAV:   2    -0.343645367579E+03   -0.49175E-01   -0.46135E-01 30328   0.181E+00    0.225E+00
DAV:   3    -0.343642166915E+03    0.32007E-02   -0.32916E-02 38968   0.623E-01    0.208E+00
DAV:   4    -0.343644819256E+03   -0.26523E-02   -0.63171E-02 39296   0.366E-01    0.208E+00
DAV:   5    -0.343639050671E+03    0.57686E-02   -0.29420E-02 37816   0.307E-01    0.740E-01
DAV:   6    -0.343640010313E+03   -0.95964E-03   -0.20337E-03 37592   0.140E-01    0.370E-01
DAV:   7    -0.343640709779E+03   -0.69947E-03   -0.18530E-03 38384   0.122E-01    0.646E-01
DAV:   8    -0.343640050282E+03    0.65950E-03   -0.18565E-03 40360   0.129E-01    0.319E-01
DAV:   9    -0.343640883961E+03   -0.83368E-03   -0.14620E-03 39712   0.135E-01    0.780E-01
DAV:  10    -0.343639974728E+03    0.90923E-03   -0.14212E-03 39280   0.124E-01    0.318E-01
DAV:  11    -0.343640167766E+03   -0.19304E-03   -0.49186E-04 37832   0.848E-02    0.301E-01
DAV:  12    -0.343640180682E+03   -0.12915E-04   -0.59513E-04 36072   0.740E-02    0.256E-01
DAV:  13    -0.343640197134E+03   -0.16452E-04   -0.62525E-04 34456   0.636E-02    0.216E-01
DAV:  14    -0.343640233669E+03   -0.36535E-04   -0.53426E-04 29872   0.547E-02    0.239E-01
DAV:  15    -0.343640275262E+03   -0.41593E-04   -0.48179E-04 32152   0.530E-02    0.241E-01
DAV:  16    -0.343640230992E+03    0.44270E-04   -0.29658E-04 31616   0.494E-02    0.124E-01
DAV:  17    -0.343640294881E+03   -0.63889E-04   -0.22439E-04 25520   0.382E-02    0.188E-01
DAV:  18    -0.343640250626E+03    0.44255E-04   -0.15093E-04 24496   0.332E-02    0.125E-01
DAV:  19    -0.343640267197E+03   -0.16571E-04   -0.61047E-05 21744   0.163E-02    0.103E-01
DAV:  20    -0.343640258278E+03    0.89195E-05   -0.13653E-04 26256   0.210E-02    0.719E-02
DAV:  21    -0.343640281560E+03   -0.23282E-04   -0.16869E-04 25024   0.243E-02    0.949E-02
DAV:  22    -0.343640306185E+03   -0.24625E-04   -0.87660E-05 25376   0.246E-02    0.500E-02
DAV:  23    -0.343640308898E+03   -0.27132E-05   -0.23500E-05 19264   0.137E-02
  25 F= -.34364031E+03 E0= -.34362368E+03  d E =-.340384E-02  mag=    16.0000
       N       E                     dE             d eps       ncg     rms          rms(c)
DAV:   1    -0.343575526263E+03    0.64780E-01   -0.17458E+01 32040   0.129E+01    0.912E-01
DAV:   2    -0.343646405608E+03   -0.70879E-01   -0.68738E-01 30104   0.218E+00    0.241E+00
DAV:   3    -0.343642858960E+03    0.35466E-02   -0.69571E-02 39784   0.745E-01    0.192E+00
DAV:   4    -0.343642517858E+03    0.34110E-03   -0.13130E-02 38088   0.395E-01    0.142E+00
DAV:   5    -0.343640378273E+03    0.21396E-02   -0.13899E-02 39048   0.217E-01    0.602E-01
DAV:   6    -0.343641403874E+03   -0.10256E-02   -0.33062E-03 37808   0.128E-01    0.630E-01
DAV:   7    -0.343641711781E+03   -0.30791E-03   -0.43611E-03 39408   0.168E-01    0.776E-01
DAV:   8    -0.343640848496E+03    0.86329E-03   -0.56037E-03 40144   0.178E-01    0.451E-01
DAV:   9    -0.343641961047E+03   -0.11126E-02   -0.28789E-03 39152   0.154E-01    0.826E-01
DAV:  10    -0.343640743469E+03    0.12176E-02   -0.13786E-03 38576   0.131E-01    0.251E-01
DAV:  11    -0.343641031561E+03   -0.28809E-03   -0.22046E-04 31320   0.507E-02    0.240E-01
DAV:  12    -0.343641002670E+03    0.28891E-04   -0.63080E-05 24152   0.270E-02    0.213E-01
DAV:  13    -0.343641009707E+03   -0.70375E-05   -0.44793E-05 21592   0.234E-02
  26 F= -.34364101E+03 E0= -.34362442E+03  d E =-.700809E-03  mag=    16.0000
       N       E                     dE             d eps       ncg     rms          rms(c)
DAV:   1    -0.343569056368E+03    0.71946E-01   -0.17137E+01 32416   0.136E+01    0.960E-01
DAV:   2    -0.343653943332E+03   -0.84887E-01   -0.78137E-01 30096   0.231E+00    0.331E+00
DAV:   3    -0.343640909011E+03    0.13034E-01   -0.66017E-02 39176   0.791E-01    0.178E+00
DAV:   4    -0.343651658638E+03   -0.10750E-01   -0.62068E-02 40144   0.492E-01    0.273E+00
DAV:   5    -0.343641445083E+03    0.10214E-01   -0.54349E-02 38464   0.401E-01    0.108E+00
DAV:   6    -0.343642675532E+03   -0.12304E-02   -0.63631E-03 37840   0.202E-01    0.595E-01
DAV:   7    -0.343643330889E+03   -0.65536E-03   -0.30516E-03 38968   0.176E-01    0.608E-01
DAV:   8    -0.343643132789E+03    0.19810E-03   -0.25409E-03 39728   0.170E-01    0.565E-01
DAV:   9    -0.343643050533E+03    0.82256E-04   -0.23116E-03 39392   0.151E-01    0.535E-01
DAV:  10    -0.343642867183E+03    0.18335E-03   -0.21290E-03 39624   0.127E-01    0.389E-01
DAV:  11    -0.343642881226E+03   -0.14043E-04   -0.63443E-04 38968   0.912E-02    0.242E-01
DAV:  12    -0.343642873523E+03    0.77028E-05   -0.45697E-04 36808   0.636E-02    0.203E-01
DAV:  13    -0.343642919960E+03   -0.46437E-04   -0.18644E-04 27392   0.428E-02    0.203E-01
DAV:  14    -0.343642897039E+03    0.22921E-04   -0.11499E-04 23768   0.358E-02    0.150E-01
DAV:  15    -0.343642942088E+03   -0.45049E-04   -0.17756E-04 24080   0.318E-02    0.211E-01
DAV:  16    -0.343642906186E+03    0.35902E-04   -0.13690E-04 26216   0.345E-02    0.157E-01
DAV:  17    -0.343642928245E+03   -0.22059E-04   -0.14511E-04 23696   0.287E-02    0.172E-01
DAV:  18    -0.343642897149E+03    0.31096E-04   -0.57547E-05 22344   0.281E-02    0.703E-02
DAV:  19    -0.343642912854E+03   -0.15706E-04   -0.28047E-05 18384   0.125E-02    0.536E-02
DAV:  20    -0.343642909047E+03    0.38072E-05   -0.75275E-06 16960   0.805E-03
  27 F= -.34364291E+03 E0= -.34362621E+03  d E =-.189934E-02  mag=    16.0000
       N       E                     dE             d eps       ncg     rms          rms(c)
DAV:   1    -0.343450272572E+03    0.19264E+00   -0.47409E+01 32464   0.220E+01    0.149E+00
DAV:   2    -0.343654268500E+03   -0.20400E+00   -0.20037E+00 29952   0.369E+00    0.329E+00
DAV:   3    -0.343660945806E+03   -0.66773E-02   -0.26208E-01 39560   0.117E+00    0.402E+00
DAV:   4    -0.343666341779E+03   -0.53960E-02   -0.28861E-01 39776   0.779E-01    0.418E+00
DAV:   5    -0.343638720074E+03    0.27622E-01   -0.47382E-02 39728   0.572E-01    0.812E-01
DAV:   6    -0.343645799717E+03   -0.70796E-02   -0.77473E-03 37112   0.266E-01    0.116E+00
DAV:   7    -0.343645546553E+03    0.25316E-03   -0.93904E-03 39184   0.261E-01    0.103E+00
DAV:   8    -0.343644623944E+03    0.92261E-03   -0.66115E-03 39544   0.240E-01    0.596E-01
DAV:   9    -0.343646823549E+03   -0.21996E-02   -0.74441E-03 39840   0.219E-01    0.120E+00
DAV:  10    -0.343644689021E+03    0.21345E-02   -0.58806E-03 39272   0.184E-01    0.475E-01
DAV:  11    -0.343645048762E+03   -0.35974E-03   -0.13664E-03 39264   0.118E-01    0.387E-01
DAV:  12    -0.343645117446E+03   -0.68684E-04   -0.92195E-04 39728   0.941E-02    0.380E-01
DAV:  13    -0.343645028666E+03    0.88780E-04   -0.76912E-04 38504   0.803E-02    0.244E-01
DAV:  14    -0.343645066890E+03   -0.38223E-04   -0.46591E-04 33896   0.662E-02    0.185E-01
DAV:  15    -0.343645190495E+03   -0.12361E-03   -0.59960E-04 32384   0.646E-02    0.332E-01
DAV:  16    -0.343645069764E+03    0.12073E-03   -0.38971E-04 34144   0.616E-02    0.149E-01
DAV:  17    -0.343645159535E+03   -0.89771E-04   -0.19291E-04 26440   0.395E-02    0.228E-01
DAV:  18    -0.343645079353E+03    0.80182E-04   -0.10708E-04 26504   0.350E-02    0.122E-01
DAV:  19    -0.343645077375E+03    0.19785E-05   -0.16021E-05 18952   0.129E-02
  28 F= -.34364508E+03 E0= -.34362837E+03  d E =-.216833E-02  mag=    16.0000
       N       E                     dE             d eps       ncg     rms          rms(c)
DAV:   1    -0.343558340334E+03    0.86739E-01   -0.19722E+01 32592   0.147E+01    0.109E+00
DAV:   2    -0.343661142767E+03   -0.10280E+00   -0.97062E-01 30048   0.253E+00    0.328E+00
DAV:   3    -0.343648050052E+03    0.13093E-01   -0.12160E-01 38560   0.894E-01    0.189E+00
DAV:   4    -0.343654880879E+03   -0.68308E-02   -0.34514E-02 38592   0.492E-01    0.222E+00
DAV:   5    -0.343647990267E+03    0.68906E-02   -0.21796E-02 38656   0.318E-01    0.975E-01
DAV:   6    -0.343648797863E+03   -0.80760E-03   -0.67000E-03 38048   0.164E-01    0.618E-01
[...]
DAV:   9    -0.343728849307E+03   -0.16294E-02   -0.35616E-03 38696   0.166E-01    0.640E-01
DAV:  10    -0.343728221734E+03    0.62757E-03   -0.23241E-03 39208   0.131E-01    0.424E-01
DAV:  11    -0.343728359990E+03   -0.13826E-03   -0.39870E-04 37024   0.670E-02    0.412E-01
DAV:  12    -0.343728257845E+03    0.10215E-03   -0.18532E-04 29680   0.439E-02    0.347E-01
DAV:  13    -0.343728272822E+03   -0.14978E-04   -0.15365E-04 25040   0.415E-02    0.353E-01
DAV:  14    -0.343728326957E+03   -0.54135E-04   -0.48025E-04 32712   0.646E-02    0.329E-01
DAV:  15    -0.343728361985E+03   -0.35028E-04   -0.57377E-04 36720   0.756E-02    0.328E-01
DAV:  16    -0.343728273613E+03    0.88372E-04   -0.41730E-04 35664   0.695E-02    0.209E-01
DAV:  17    -0.343728378244E+03   -0.10463E-03   -0.34396E-04 29992   0.555E-02    0.292E-01
DAV:  18    -0.343728265864E+03    0.11238E-03   -0.18476E-04 30560   0.523E-02    0.165E-01
DAV:  19    -0.343728260921E+03    0.49437E-05   -0.23777E-04 28352   0.354E-02    0.938E-02
DAV:  20    -0.343728294473E+03   -0.33552E-04   -0.11070E-04 28208   0.255E-02    0.661E-02
DAV:  21    -0.343728318570E+03   -0.24097E-04   -0.11713E-04 21800   0.211E-02    0.762E-02
DAV:  22    -0.343728320657E+03   -0.20868E-05   -0.35020E-05 21280   0.152E-02
  45 F= -.34372832E+03 E0= -.34371161E+03  d E =-.135049E-01  mag=    16.0000
       N       E                     dE             d eps       ncg     rms          rms(c)
DAV:   1    -0.343661196329E+03    0.67122E-01   -0.14508E+01 31960   0.122E+01    0.928E-01
DAV:   2    -0.343733459628E+03   -0.72263E-01   -0.69567E-01 30432   0.210E+00    0.348E+00
DAV:   3    -0.343719137401E+03    0.14322E-01   -0.16285E-01 39040   0.779E-01    0.207E+00
DAV:   4    -0.343726059108E+03   -0.69217E-02   -0.61077E-02 39720   0.457E-01    0.232E+00
DAV:   5    -0.343719109886E+03    0.69492E-02   -0.14571E-02 38056   0.350E-01    0.105E+00
DAV:   6    -0.343719401683E+03   -0.29180E-03   -0.72421E-03 38656   0.202E-01    0.559E-01
DAV:   7    -0.343720888768E+03   -0.14871E-02   -0.82617E-03 39712   0.195E-01    0.942E-01
DAV:   8    -0.343719042355E+03    0.18464E-02   -0.53960E-03 40224   0.189E-01    0.275E-01
DAV:   9    -0.343720417844E+03   -0.13755E-02   -0.23068E-03 39368   0.137E-01    0.900E-01
DAV:  10    -0.343719117231E+03    0.13006E-02   -0.13370E-03 39560   0.120E-01    0.277E-01
DAV:  11    -0.343719481213E+03   -0.36398E-03   -0.47156E-04 37608   0.685E-02    0.367E-01
DAV:  12    -0.343719383576E+03    0.97637E-04   -0.44146E-04 36416   0.674E-02    0.221E-01
DAV:  13    -0.343719540408E+03   -0.15683E-03   -0.40334E-04 34664   0.644E-02    0.323E-01
DAV:  14    -0.343719459906E+03    0.80502E-04   -0.47286E-04 33688   0.637E-02    0.192E-01
DAV:  15    -0.343719522323E+03   -0.62417E-04   -0.35843E-04 32136   0.579E-02    0.178E-01
DAV:  16    -0.343719557260E+03   -0.34937E-04   -0.20084E-04 25672   0.428E-02    0.190E-01
DAV:  17    -0.343719519116E+03    0.38143E-04   -0.98560E-05 23864   0.335E-02    0.144E-01
DAV:  18    -0.343719517225E+03    0.18910E-05   -0.19068E-05 18480   0.149E-02
  46 F= -.34371952E+03 E0= -.34370290E+03  d E =0.880343E-02  mag=    16.0000
       N       E                     dE             d eps       ncg     rms          rms(c)
DAV:   1    -0.343682388248E+03    0.37131E-01   -0.51059E+00 32560   0.794E+00    0.607E-01
DAV:   2    -0.343712071607E+03   -0.29683E-01   -0.30396E-01 30168   0.140E+00    0.121E+00
DAV:   3    -0.343716761988E+03   -0.46904E-02   -0.35080E-02 40072   0.433E-01    0.249E+00
DAV:   4    -0.343711350320E+03    0.54117E-02   -0.34280E-02 39704   0.318E-01    0.127E+00
DAV:   5    -0.343710858605E+03    0.49172E-03   -0.66456E-03 38744   0.206E-01    0.512E-01
DAV:   6    -0.343711272348E+03   -0.41374E-03   -0.19258E-03 38272   0.118E-01    0.359E-01
DAV:   7    -0.343711131942E+03    0.14041E-03   -0.12214E-03 40472   0.103E-01    0.284E-01
DAV:   8    -0.343711580015E+03   -0.44807E-03   -0.19981E-03 41608   0.122E-01    0.650E-01
DAV:   9    -0.343711079136E+03    0.50088E-03   -0.19707E-03 39248   0.118E-01    0.355E-01
DAV:  10    -0.343711122494E+03   -0.43358E-04   -0.16779E-03 37640   0.836E-02    0.219E-01
DAV:  11    -0.343711204473E+03   -0.81979E-04   -0.44660E-04 33776   0.537E-02    0.174E-01
DAV:  12    -0.343711207516E+03   -0.30428E-05   -0.14695E-04 25808   0.380E-02    0.194E-01
DAV:  13    -0.343711186120E+03    0.21396E-04   -0.89598E-05 25136   0.318E-02    0.173E-01
DAV:  14    -0.343711221490E+03   -0.35370E-04   -0.16735E-04 24088   0.328E-02    0.191E-01
DAV:  15    -0.343711209251E+03    0.12239E-04   -0.11887E-04 24168   0.354E-02    0.140E-01
DAV:  16    -0.343711241807E+03   -0.32556E-04   -0.11718E-04 25040   0.309E-02    0.176E-01
DAV:  17    -0.343711214082E+03    0.27725E-04   -0.64929E-05 22608   0.280E-02    0.116E-01
DAV:  18    -0.343711223270E+03   -0.91880E-05   -0.18984E-05 18600   0.138E-02
  47 F= -.34371122E+03 E0= -.34369461E+03  d E =0.829396E-02  mag=    16.0000
       N       E                     dE             d eps       ncg     rms          rms(c)
DAV:   1    -0.343702993080E+03    0.82210E-02   -0.23059E+00 32360   0.540E+00    0.461E-01
DAV:   2    -0.343719209494E+03   -0.16216E-01   -0.15649E-01 30400   0.985E-01    0.139E+00
DAV:   3    -0.343717715493E+03    0.14940E-02   -0.22175E-02 38720   0.363E-01    0.105E+00
DAV:   4    -0.343718732937E+03   -0.10174E-02   -0.10962E-02 40016   0.222E-01    0.128E+00
DAV:   5    -0.343716740220E+03    0.19927E-02   -0.51602E-03 38656   0.168E-01    0.463E-01
DAV:   6    -0.343717000623E+03   -0.26040E-03   -0.13439E-03 38152   0.886E-02    0.302E-01
DAV:   7    -0.343717276022E+03   -0.27540E-03   -0.15368E-03 39296   0.914E-02    0.474E-01
DAV:   8    -0.343716915160E+03    0.36086E-03   -0.11726E-03 40376   0.105E-01    0.237E-01
DAV:   9    -0.343717554024E+03   -0.63886E-03   -0.23121E-03 40056   0.106E-01    0.609E-01
DAV:  10    -0.343716988978E+03    0.56505E-03   -0.17764E-03 38984   0.960E-02    0.231E-01
DAV:  11    -0.343717122999E+03   -0.13402E-03   -0.25479E-04 30152   0.517E-02    0.245E-01
DAV:  12    -0.343717105611E+03    0.17388E-04   -0.14869E-04 28648   0.414E-02    0.165E-01
DAV:  13    -0.343717170934E+03   -0.65322E-04   -0.15668E-04 25256   0.383E-02    0.235E-01
DAV:  14    -0.343717150400E+03    0.20533E-04   -0.24906E-04 30064   0.511E-02    0.172E-01
DAV:  15    -0.343717182943E+03   -0.32543E-04   -0.19038E-04 29960   0.458E-02    0.160E-01
DAV:  16    -0.343717167970E+03    0.14973E-04   -0.89058E-05 23312   0.336E-02    0.112E-01
DAV:  17    -0.343717167687E+03    0.28258E-06   -0.29634E-05 20128   0.193E-02
  48 F= -.34371717E+03 E0= -.34370058E+03  d E =-.594442E-02  mag=    16.0000
       N       E                     dE             d eps       ncg     rms          rms(c)
DAV:   1    -0.343716775841E+03    0.39213E-03   -0.62855E-01 32048   0.255E+00    0.209E-01
DAV:   2    -0.343719689068E+03   -0.29132E-02   -0.27579E-02 30008   0.430E-01    0.633E-01
DAV:   3    -0.343719270385E+03    0.41868E-03   -0.27947E-03 39312   0.156E-01    0.410E-01
DAV:   4    -0.343719628095E+03   -0.35771E-03   -0.24863E-03 38168   0.917E-02    0.566E-01
DAV:   5    -0.343719126513E+03    0.50158E-03   -0.16407E-03 35496   0.769E-02    0.181E-01
DAV:   6    -0.343719229982E+03   -0.10347E-03   -0.81237E-05 25000   0.325E-02    0.153E-01
DAV:   7    -0.343719257906E+03   -0.27924E-04   -0.90894E-05 24144   0.311E-02    0.177E-01
DAV:   8    -0.343719225990E+03    0.31916E-04   -0.11418E-04 25480   0.363E-02    0.148E-01
DAV:   9    -0.343719328219E+03   -0.10223E-03   -0.31765E-04 26736   0.513E-02    0.287E-01
DAV:  10    -0.343719187681E+03    0.14054E-03   -0.39758E-04 31608   0.554E-02    0.921E-02
DAV:  11    -0.343719333305E+03   -0.14562E-03   -0.37051E-04 26760   0.450E-02    0.261E-01
DAV:  12    -0.343719245225E+03    0.88079E-04   -0.27979E-04 27960   0.427E-02    0.991E-02
DAV:  13    -0.343719284753E+03   -0.39528E-04   -0.86710E-05 22464   0.299E-02    0.113E-01
DAV:  14    -0.343719278827E+03    0.59256E-05   -0.92239E-05 21904   0.288E-02
  49 F= -.34371928E+03 E0= -.34370265E+03  d E =-.211114E-02  mag=    16.0000
       N       E                     dE             d eps       ncg     rms          rms(c)
DAV:   1    -0.343718048642E+03    0.12361E-02   -0.60612E-01 32392   0.251E+00    0.189E-01
DAV:   2    -0.343721090950E+03   -0.30423E-02   -0.26574E-02 30264   0.429E-01    0.782E-01
DAV:   3    -0.343720078602E+03    0.10123E-02   -0.36933E-03 38528   0.161E-01    0.248E-01
DAV:   4    -0.343720695875E+03   -0.61727E-03   -0.12906E-03 37888   0.855E-02    0.548E-01
DAV:   5    -0.343720286017E+03    0.40986E-03   -0.93750E-04 34072   0.641E-02    0.209E-01
DAV:   6    -0.343720321969E+03   -0.35952E-04   -0.14175E-04 24792   0.282E-02    0.123E-01
DAV:   7    -0.343720341952E+03   -0.19983E-04   -0.16394E-05 19440   0.134E-02    0.120E-01
DAV:   8    -0.343720349250E+03   -0.72982E-05   -0.30549E-05 19760   0.174E-02
  50 F= -.34372035E+03 E0= -.34370373E+03  d E =-.107042E-02  mag=    16.0000
       N       E                     dE             d eps       ncg     rms          rms(c)
DAV:   1    -0.343718286309E+03    0.20556E-02   -0.38304E-01 32496   0.212E+00    0.197E-01
DAV:   2    -0.343720984792E+03   -0.26985E-02   -0.18831E-02 32568   0.384E-01    0.948E-01
DAV:   3    -0.343719526413E+03    0.14584E-02   -0.31175E-03 37432   0.177E-01    0.292E-01
DAV:   4    -0.343720111042E+03   -0.58463E-03   -0.18608E-03 38656   0.889E-02    0.447E-01
DAV:   5    -0.343719843263E+03    0.26778E-03   -0.12705E-03 35008   0.761E-02    0.240E-01
DAV:   6    -0.343719861246E+03   -0.17983E-04   -0.22504E-04 27888   0.506E-02    0.172E-01
DAV:   7    -0.343719939159E+03   -0.77913E-04   -0.31830E-04 34800   0.604E-02    0.223E-01
DAV:   8    -0.343719918197E+03    0.20962E-04   -0.67105E-04 34744   0.638E-02    0.189E-01
DAV:   9    -0.343719887852E+03    0.30344E-04   -0.33561E-04 28616   0.490E-02    0.124E-01
DAV:  10    -0.343719906067E+03   -0.18215E-04   -0.10114E-04 23592   0.285E-02    0.113E-01
DAV:  11    -0.343719903763E+03    0.23041E-05   -0.45581E-05 20032   0.191E-02
  51 F= -.34371990E+03 E0= -.34370331E+03  d E =0.445487E-03  mag=    16.0000
       N       E                     dE             d eps       ncg     rms          rms(c)
DAV:   1    -0.343717716996E+03    0.21891E-02   -0.20681E-01 32192   0.153E+00    0.135E-01
DAV:   2    -0.343718840060E+03   -0.11231E-02   -0.11027E-02 29968   0.267E-01    0.300E-01
DAV:   3    -0.343718752594E+03    0.87466E-04   -0.98390E-04 39536   0.835E-02    0.237E-01
DAV:   4    -0.343718757582E+03   -0.49874E-05   -0.25697E-04 29400   0.443E-02    0.220E-01
DAV:   5    -0.343718697108E+03    0.60474E-04   -0.66485E-05 21064   0.232E-02    0.156E-01
DAV:   6    -0.343718699955E+03   -0.28472E-05   -0.60600E-05 20320   0.185E-02
  52 F= -.34371870E+03 E0= -.34370203E+03  d E =0.120381E-02  mag=    16.0000
       N       E                     dE             d eps       ncg     rms          rms(c)
DAV:   1    -0.343711800131E+03    0.68970E-02   -0.89290E-01 32160   0.313E+00    0.304E-01
DAV:   2    -0.343717935830E+03   -0.61357E-02   -0.51851E-02 30768   0.582E-01    0.109E+00
DAV:   3    -0.343716115583E+03    0.18202E-02   -0.65927E-03 39112   0.243E-01    0.522E-01
DAV:   4    -0.343716558829E+03   -0.44325E-03   -0.18048E-03 37592   0.119E-01    0.501E-01
DAV:   5    -0.343716359816E+03    0.19901E-03   -0.11961E-03 37216   0.835E-02    0.362E-01
DAV:   6    -0.343716231930E+03    0.12789E-03   -0.46913E-04 29656   0.476E-02    0.226E-01
DAV:   7    -0.343716315590E+03   -0.83659E-04   -0.37652E-04 35040   0.545E-02    0.282E-01
DAV:   8    -0.343716266430E+03    0.49160E-04   -0.75647E-04 39136   0.704E-02    0.309E-01
DAV:   9    -0.343716429879E+03   -0.16345E-03   -0.14442E-03 40552   0.951E-02    0.395E-01
DAV:  10    -0.343716339198E+03    0.90681E-04   -0.21525E-03 38816   0.940E-02    0.288E-01
DAV:  11    -0.343716357059E+03   -0.17862E-04   -0.89864E-04 35024   0.711E-02    0.203E-01
DAV:  12    -0.343716363965E+03   -0.69055E-05   -0.22376E-04 29144   0.402E-02    0.149E-01
DAV:  13    -0.343716380739E+03   -0.16774E-04   -0.87733E-05 22856   0.285E-02    0.142E-01
DAV:  14    -0.343716366204E+03    0.14535E-04   -0.46252E-05 21120   0.219E-02    0.133E-01
DAV:  15    -0.343716419820E+03   -0.53616E-04   -0.87400E-05 24232   0.264E-02    0.139E-01
DAV:  16    -0.343716410452E+03    0.93680E-05   -0.47028E-05 22512   0.225E-02
  53 F= -.34371641E+03 E0= -.34369981E+03  d E =0.228950E-02  mag=    16.0000
       N       E                     dE             d eps       ncg     rms          rms(c)
DAV:   1    -0.343703836560E+03    0.12583E-01   -0.31510E+00 32216   0.587E+00    0.400E-01
DAV:   2    -0.343718448560E+03   -0.14612E-01   -0.13901E-01 30224   0.992E-01    0.139E+00
DAV:   3    -0.343716012664E+03    0.24359E-02   -0.24274E-02 37568   0.348E-01    0.776E-01
DAV:   4    -0.343717833151E+03   -0.18205E-02   -0.95230E-03 38944   0.202E-01    0.124E+00
DAV:   5    -0.343715930019E+03    0.19031E-02   -0.38633E-03 38048   0.157E-01    0.379E-01
DAV:   6    -0.343716241847E+03   -0.31183E-03   -0.69939E-04 37888   0.898E-02    0.222E-01
DAV:   7    -0.343716612091E+03   -0.37024E-03   -0.10267E-03 39056   0.897E-02    0.505E-01
DAV:   8    -0.343716116330E+03    0.49576E-03   -0.88917E-04 39248   0.946E-02    0.122E-01
DAV:   9    -0.343716393078E+03   -0.27675E-03   -0.47361E-04 37672   0.620E-02    0.297E-01
DAV:  10    -0.343716254420E+03    0.13866E-03   -0.33572E-04 29824   0.483E-02    0.125E-01
DAV:  11    -0.343716283183E+03   -0.28763E-04   -0.46523E-05 21992   0.242E-02    0.105E-01
DAV:  12    -0.343716281379E+03    0.18038E-05   -0.14030E-05 17856   0.138E-02
  54 F= -.34371628E+03 E0= -.34369976E+03  d E =0.129073E-03  mag=    16.0000
       N       E                     dE             d eps       ncg     rms          rms(c)
DAV:   1    -0.343706433005E+03    0.98502E-02   -0.21231E+00 32728   0.496E+00    0.392E-01
DAV:   2    -0.343719713037E+03   -0.13280E-01   -0.11045E-01 30576   0.872E-01    0.180E+00
DAV:   3    -0.343716102066E+03    0.36110E-02   -0.20252E-02 37992   0.330E-01    0.900E-01
DAV:   4    -0.343717471533E+03   -0.13695E-02   -0.11201E-02 38184   0.191E-01    0.848E-01
DAV:   5    -0.343716382658E+03    0.10889E-02   -0.42572E-03 38464   0.150E-01    0.374E-01
DAV:   6    -0.343716614200E+03   -0.23154E-03   -0.70594E-04 37112   0.735E-02    0.290E-01
DAV:   7    -0.343716816984E+03   -0.20278E-03   -0.12356E-03 39624   0.895E-02    0.434E-01
DAV:   8    -0.343716549597E+03    0.26739E-03   -0.94295E-04 39824   0.886E-02    0.212E-01
DAV:   9    -0.343716846955E+03   -0.29736E-03   -0.64018E-04 36688   0.716E-02    0.410E-01
DAV:  10    -0.343716598213E+03    0.24874E-03   -0.48132E-04 32776   0.609E-02    0.158E-01
DAV:  11    -0.343716679243E+03   -0.81030E-04   -0.13157E-04 26928   0.388E-02    0.187E-01
DAV:  12    -0.343716656050E+03    0.23193E-04   -0.10205E-04 24936   0.356E-02    0.131E-01
DAV:  13    -0.343716714516E+03   -0.58466E-04   -0.11405E-04 27984   0.431E-02    0.200E-01
DAV:  14    -0.343716746269E+03   -0.31753E-04   -0.50481E-04 27896   0.567E-02    0.227E-01
DAV:  15    -0.343716699871E+03    0.46398E-04   -0.46364E-04 32576   0.583E-02    0.172E-01
DAV:  16    -0.343716679726E+03    0.20145E-04   -0.12126E-04 25720   0.343E-02    0.105E-01
DAV:  17    -0.343716687818E+03   -0.80920E-05   -0.62372E-05 21376   0.246E-02
  55 F= -.34371669E+03 E0= -.34370016E+03  d E =-.406439E-03  mag=    16.0000
       N       E                     dE             d eps       ncg     rms          rms(c)
DAV:   1    -0.343715860341E+03    0.81938E-03   -0.60409E-01 32336   0.266E+00    0.216E-01
DAV:   2    -0.343719400349E+03   -0.35400E-02   -0.31179E-02 30416   0.467E-01    0.826E-01
DAV:   3    -0.343718466058E+03    0.93429E-03   -0.26981E-03 38552   0.167E-01    0.329E-01
DAV:   4    -0.343718925477E+03   -0.45942E-03   -0.17192E-03 37616   0.854E-02    0.460E-01
DAV:   5    -0.343718585342E+03    0.34013E-03   -0.85799E-04 33216   0.574E-02    0.199E-01
DAV:   6    -0.343718612967E+03   -0.27626E-04   -0.21515E-05 20696   0.152E-02    0.201E-01
DAV:   7    -0.343718607625E+03    0.53422E-05   -0.12783E-04 24392   0.243E-02    0.256E-01
DAV:   8    -0.343718550157E+03    0.57468E-04   -0.16819E-04 25504   0.335E-02    0.217E-01
DAV:   9    -0.343718597616E+03   -0.47459E-04   -0.13259E-04 24008   0.283E-02    0.250E-01
DAV:  10    -0.343718542878E+03    0.54738E-04   -0.15725E-04 22600   0.289E-02    0.222E-01
DAV:  11    -0.343718570857E+03   -0.27979E-04   -0.11628E-04 24864   0.300E-02    0.276E-01
DAV:  12    -0.343718499080E+03    0.71777E-04   -0.39602E-04 34816   0.534E-02    0.413E-01
DAV:  13    -0.343718475126E+03    0.23954E-04   -0.23982E-04 31232   0.452E-02    0.478E-01
DAV:  14    -0.343718475159E+03   -0.33557E-07   -0.31002E-04 29560   0.416E-02    0.597E-01
DAV:  15    -0.343718445036E+03    0.30124E-04   -0.16009E-04 25608   0.338E-02    0.643E-01
DAV:  16    -0.343718334789E+03    0.11025E-03   -0.74588E-05 24848   0.241E-02    0.683E-01
DAV:  17    -0.343718300061E+03    0.34728E-04   -0.16964E-05 19104   0.131E-02    0.690E-01
DAV:  18    -0.343718292329E+03    0.77321E-05   -0.37068E-06 16672   0.599E-03
  56 F= -.34371829E+03 E0= -.34370172E+03  d E =-.160451E-02  mag=    16.0000
       N       E                     dE             d eps       ncg     rms          rms(c)
DAV:   1    -0.343717248342E+03    0.10517E-02   -0.20054E-01 32936   0.177E+00    0.776E-01
DAV:   2    -0.343790066170E+03   -0.72818E-01   -0.38561E-01 41064   0.102E+00    0.642E+00
DAV:   3    -0.343704276378E+03    0.85790E-01   -0.17692E-01 39096   0.938E-01    0.985E-01
DAV:   4    -0.343718032216E+03   -0.13756E-01   -0.99353E-03 33648   0.245E-01    0.646E-01
DAV:   5    -0.343718776286E+03   -0.74407E-03   -0.10996E-03 32112   0.114E-01    0.540E-01
DAV:   6    -0.343718522181E+03    0.25411E-03   -0.10445E-04 30112   0.360E-02    0.522E-01
DAV:   7    -0.343718442139E+03    0.80042E-04   -0.97748E-05 26536   0.298E-02    0.578E-01
DAV:   8    -0.343718592018E+03   -0.14988E-03   -0.78908E-05 25992   0.259E-02    0.627E-01
DAV:   9    -0.343719592828E+03   -0.10008E-02   -0.41513E-03 41440   0.157E-01    0.919E-01
DAV:  10    -0.343718450864E+03    0.11420E-02   -0.46768E-03 40920   0.187E-01    0.576E-01
DAV:  11    -0.343719201015E+03   -0.75015E-03   -0.31564E-03 39736   0.136E-01    0.599E-01
DAV:  12    -0.343718873574E+03    0.32744E-03   -0.18887E-03 38728   0.115E-01    0.282E-01
DAV:  13    -0.343719099634E+03   -0.22606E-03   -0.62119E-04 37848   0.792E-02    0.399E-01
DAV:  14    -0.343718929888E+03    0.16975E-03   -0.75869E-04 37552   0.700E-02    0.218E-01
DAV:  15    -0.343718934351E+03   -0.44627E-05   -0.17206E-04 28368   0.338E-02    0.220E-01
DAV:  16    -0.343718924628E+03    0.97230E-05   -0.38108E-05 20824   0.191E-02
  57 F= -.34371892E+03 E0= -.34370243E+03  d E =-.632298E-03  mag=    16.0000
       N       E                     dE             d eps       ncg     rms          rms(c)
DAV:   1    -0.343717831838E+03    0.11025E-02   -0.37283E-01 32560   0.205E+00    0.257E-01
DAV:   2    -0.343722973262E+03   -0.51414E-02   -0.33152E-02 34688   0.421E-01    0.164E+00
DAV:   3    -0.343718422096E+03    0.45512E-02   -0.16432E-02 37304   0.256E-01    0.592E-01
DAV:   4    -0.343719212292E+03   -0.79020E-03   -0.82364E-04 32688   0.802E-02    0.307E-01
DAV:   5    -0.343719280026E+03   -0.67734E-04   -0.94981E-05 28792   0.313E-02    0.317E-01
DAV:   6    -0.343719248305E+03    0.31721E-04   -0.77943E-06 18656   0.108E-02    0.316E-01
DAV:   7    -0.343719241444E+03    0.68615E-05   -0.66727E-06 17016   0.769E-03
  58 F= -.34371924E+03 E0= -.34370276E+03  d E =-.316816E-03  mag=    16.0000
