       N       E                     dE             d eps       ncg     rms          ort
DAV:   1     0.567824662716E+04    0.56782E+04   -0.26809E+05  7488   0.168E+03
DAV:   2     0.254045686327E+03   -0.54242E+04   -0.50087E+04  7488   0.472E+02
DAV:   3    -0.385279457997E+03   -0.63933E+03   -0.62918E+03  7488   0.178E+02
DAV:   4    -0.402292590736E+03   -0.17013E+02   -0.16907E+02  7488   0.304E+01
DAV:   5    -0.402832454775E+03   -0.53986E+00   -0.53888E+00  7488   0.457E+00
SDA:   6    -0.163566697410E+03    0.23927E+03   -0.53888E+00  7488   0.108E+04 0.000E+00
CGA:   7    -0.252179779064E+03   -0.88613E+02   -0.11561E+03  7488   0.132E+04-0.206E+02
CGA:   8    -0.281905211317E+03   -0.29725E+02   -0.30620E+02  7488   0.879E+03 0.211E+03
CGA:   9    -0.289345072205E+03   -0.74399E+01   -0.29985E+02  7488   0.738E+03 0.353E+02
CGA:  10    -0.261266883348E+03    0.28078E+02   -0.24661E+02  7488   0.198E+04-0.491E+03
CGA:  11    -0.279572816660E+03   -0.18306E+02   -0.57722E+02  7488   0.202E+04-0.508E+03
CGA:  12    -0.294914291337E+03   -0.15341E+02   -0.54413E+02  7488   0.809E+03 0.230E+02
CGA:  13    -0.291966159330E+03    0.29481E+01   -0.22457E+02  7488   0.219E+04-0.606E+03
CGA:  14    -0.288385678563E+03    0.35805E+01   -0.76407E+02  7488   0.141E+04-0.459E+03
CGA:  15    -0.310967555898E+03   -0.22582E+02   -0.24594E+02  7488   0.279E+03-0.270E+03
CGA:  16    -0.312958917444E+03   -0.19914E+01   -0.64890E+01  7488   0.113E+04-0.629E+03
CGA:  17    -0.293189229966E+03    0.19770E+02   -0.42742E+02  7488   0.218E+04-0.518E+03
CGA:  18    -0.300318240701E+03   -0.71290E+01   -0.32502E+02  7488   0.147E+04 0.279E+03
CGA:  19    -0.294028501096E+03    0.62897E+01   -0.57385E+02  7488   0.702E+03 0.326E+01
CGA:  20    -0.312664011993E+03   -0.18636E+02   -0.89882E+01  7488   0.102E+04-0.736E+01
CGA:  21    -0.264783221301E+03    0.47881E+02   -0.37954E+02  7488   0.166E+04-0.209E+03
CGA:  22    -0.293179942941E+03   -0.28397E+02   -0.18039E+02  7488   0.966E+03 0.267E+03
CGA:  23    -0.308482874079E+03   -0.15303E+02   -0.52240E+02  7488   0.529E+03-0.481E+00
CGA:  24    -0.315955177098E+03   -0.74723E+01   -0.23446E+02  7488   0.652E+03-0.446E+03
CGA:  25    -0.318623959011E+03   -0.26688E+01   -0.27702E+02  7488   0.252E+03-0.163E+03
CGA:  26    -0.330171623859E+03   -0.11548E+02   -0.57618E+01  7488   0.110E+03 0.211E+03
CGA:  27    -0.330315917756E+03   -0.14429E+00   -0.25039E+01  7488   0.151E+03-0.106E+03
CGA:  28    -0.327634191010E+03    0.26817E+01   -0.46811E+01  7488   0.188E+03-0.998E+02
CGA:  29    -0.327308633852E+03    0.32556E+00   -0.43882E+01  7488   0.389E+03-0.364E+03
CGA:  30    -0.324958059225E+03    0.23506E+01   -0.13278E+02  7488   0.198E+03-0.152E+03
CGA:  31    -0.332317044514E+03   -0.73590E+01   -0.22711E+01  7488   0.306E+02 0.137E+03
CGA:  32    -0.332566974684E+03   -0.24993E+00   -0.45698E+00  7488   0.124E+02-0.140E+02
CGA:  33    -0.332820392917E+03   -0.25342E+00   -0.22104E+00  7488   0.512E+01 0.653E+00
CGA:  34    -0.333040806400E+03   -0.22041E+00   -0.22813E+00  7488   0.727E+01-0.335E-01
CGA:  35    -0.333436989680E+03   -0.39618E+00   -0.24512E+00  7488   0.661E+01 0.337E+01
CGA:  36    -0.333595065925E+03   -0.15808E+00   -0.10500E+00  7488   0.213E+01 0.461E+01
CGA:  37    -0.333641038559E+03   -0.45973E-01   -0.47533E-01  7488   0.215E+01-0.501E-01
CGA:  38    -0.333747896935E+03   -0.10686E+00   -0.10329E+00  7488   0.678E+01-0.237E-01
CGA:  39    -0.333829758679E+03   -0.81862E-01   -0.42968E-01  7488   0.562E+01 0.604E+01
CGA:  40    -0.333894451153E+03   -0.64692E-01   -0.72637E-01  7488   0.175E+01-0.550E+00
CGA:  41    -0.333930226430E+03   -0.35775E-01   -0.34446E-01  7488   0.142E+01 0.415E-01
CGA:  42    -0.334031797456E+03   -0.10157E+00   -0.12520E+00  7488   0.667E+01-0.747E+00
CGA:  43    -0.334110556290E+03   -0.78759E-01   -0.14850E+00  7488   0.509E+01-0.173E+01
CGA:  44    -0.334155114171E+03   -0.44558E-01   -0.40752E-01  7488   0.808E+00 0.297E+00
CGA:  45    -0.334176292480E+03   -0.21178E-01   -0.20112E-01  7488   0.123E+01 0.279E-01
CGA:  46    -0.334210143773E+03   -0.33851E-01   -0.32832E-01  7488   0.260E+01 0.216E-01
CGA:  47    -0.334254275972E+03   -0.44132E-01   -0.24301E-01  7488   0.253E+01 0.213E+01
CGA:  48    -0.334283912074E+03   -0.29636E-01   -0.32539E-01  7488   0.835E+00-0.195E+00
CGA:  49    -0.334296672591E+03   -0.12761E-01   -0.13260E-01  7488   0.652E+00-0.207E-01
CGA:  50    -0.334374235582E+03   -0.77563E-01   -0.80442E-01  7488   0.311E+01-0.506E-01
CGA:  51    -0.334391495306E+03   -0.17260E-01   -0.90700E-02  7488   0.250E+01 0.258E+01
CGA:  52    -0.334426070911E+03   -0.34576E-01   -0.38339E-01  7488   0.138E+01-0.183E+00
CGA:  53    -0.334442122054E+03   -0.16051E-01   -0.12605E-01  7488   0.406E+00 0.314E+00
CGA:  54    -0.334451234430E+03   -0.91124E-02   -0.81572E-02  7488   0.494E+00 0.424E-01
CGA:  55    -0.334458446337E+03   -0.72119E-02   -0.66650E-02  7488   0.426E+00 0.358E-01
CGA:  56    -0.334470253433E+03   -0.11807E-01   -0.11756E-01  7488   0.193E+01-0.543E-03
CGA:  57    -0.334486653158E+03   -0.16400E-01   -0.88338E-02  7488   0.233E+01 0.164E+01
CGA:  58    -0.334504572250E+03   -0.17919E-01   -0.17221E-01  7488   0.344E+00 0.788E-01
CGA:  59    -0.334514479190E+03   -0.99069E-02   -0.10190E-01  7488   0.233E+00 0.720E-02
CGA:  60    -0.334527456563E+03   -0.12977E-01   -0.13014E-01  7488   0.865E+00-0.204E-02
CGA:  61    -0.334543987304E+03   -0.16531E-01   -0.15327E-01  7488   0.961E+00 0.374E-01
CGA:  62    -0.334577966516E+03   -0.33979E-01   -0.28636E-01  7488   0.110E+01-0.559E-01
CGA:  63    -0.334582896228E+03   -0.49297E-02   -0.31975E-02  7488   0.787E+00 0.546E+00
CGA:  64    -0.334590801052E+03   -0.79048E-02   -0.72001E-02  7488   0.752E+00 0.106E+00
CGA:  65    -0.334598565952E+03   -0.77649E-02   -0.77275E-02  7488   0.149E+01 0.499E-02
CGA:  66    -0.334607584838E+03   -0.90189E-02   -0.76002E-02  7488   0.134E+01 0.300E+00
CGA:  67    -0.334615561696E+03   -0.79769E-02   -0.73001E-02  7488   0.516E+00 0.151E+00
CGA:  68    -0.334618867938E+03   -0.33062E-02   -0.32958E-02  7488   0.402E+00-0.344E-03
CGA:  69    -0.334622071257E+03   -0.32033E-02   -0.33714E-02  7488   0.546E+00-0.171E-01
CGA:  70    -0.334625978532E+03   -0.39073E-02   -0.42700E-02  7488   0.639E+00-0.349E-01
CGA:  71    -0.334631697744E+03   -0.57192E-02   -0.60007E-02  7488   0.108E+01-0.181E-01
CGA:  72    -0.334642645702E+03   -0.10948E-01   -0.84291E-02  7488   0.117E+01 0.301E+00
CGA:  73    -0.334651358417E+03   -0.87127E-02   -0.60445E-02  7488   0.552E+00 0.647E+00
CGA:  74    -0.334657372467E+03   -0.60140E-02   -0.62648E-02  7488   0.174E+00-0.133E-01
CGA:  75    -0.334661689324E+03   -0.43169E-02   -0.43083E-02  7488   0.129E+00 0.671E-03
CGA:  76    -0.334665583684E+03   -0.38944E-02   -0.37982E-02  7488   0.209E+00 0.934E-02
CGA:  77    -0.334671919006E+03   -0.63353E-02   -0.61819E-02  7488   0.113E+00 0.219E-01
CGA:  78    -0.334674696590E+03   -0.27776E-02   -0.27814E-02  7488   0.972E-01 0.126E-02
CGA:  79    -0.334677473577E+03   -0.27770E-02   -0.27613E-02  7488   0.931E-01 0.207E-02
CGA:  80    -0.334679823769E+03   -0.23502E-02   -0.23486E-02  7488   0.970E-01 0.730E-03
CGA:  81    -0.334682823991E+03   -0.30002E-02   -0.29927E-02  7488   0.824E-01 0.694E-03
CGA:  82    -0.334685248677E+03   -0.24247E-02   -0.24223E-02  7488   0.111E+00 0.275E-03
CGA:  83    -0.334690032091E+03   -0.47834E-02   -0.47469E-02  7488   0.173E+00 0.179E-02
CGA:  84    -0.334693268852E+03   -0.32368E-02   -0.32426E-02  7488   0.767E-01 0.320E-04
CGA:  85    -0.334695237771E+03   -0.19689E-02   -0.19692E-02  7488   0.670E-01-0.243E-03
CGA:  86    -0.334696934788E+03   -0.16970E-02   -0.16971E-02  7488   0.438E-01-0.129E-03
CGA:  87    -0.334698178048E+03   -0.12433E-02   -0.12431E-02  7488   0.555E-01 0.129E-04
CGA:  88    -0.334699669012E+03   -0.14910E-02   -0.14917E-02  7488   0.378E-01-0.263E-03
CGA:  89    -0.334700479885E+03   -0.81087E-03   -0.81212E-03  7488   0.289E-01 0.100E-03
CGA:  90    -0.334701736757E+03   -0.12569E-02   -0.12608E-02  7488   0.469E-01-0.202E-03
CGA:  91    -0.334702927417E+03   -0.11907E-02   -0.11909E-02  7488   0.415E-01 0.323E-03
CGA:  92    -0.334704143109E+03   -0.12157E-02   -0.12180E-02  7488   0.392E-01-0.452E-03
CGA:  93    -0.334704871062E+03   -0.72795E-03   -0.72852E-03  7488   0.141E-01 0.340E-05
CGA:  94    -0.334705311921E+03   -0.44086E-03   -0.44148E-03  7488   0.172E-01-0.762E-04
CGA:  95    -0.334705787607E+03   -0.47569E-03   -0.47532E-03  7488   0.156E-01 0.116E-03
CGA:  96    -0.334706328022E+03   -0.54042E-03   -0.54468E-03  7488   0.270E-01-0.376E-03
CGA:  97    -0.334707030906E+03   -0.70288E-03   -0.70286E-03  7488   0.166E-01 0.637E-04
CGA:  98    -0.334707671076E+03   -0.64017E-03   -0.63852E-03  7488   0.230E-01 0.111E-03
CGA:  99    -0.334708196008E+03   -0.52493E-03   -0.52875E-03  7488   0.130E-01 0.288E-03
CGA: 100    -0.334708623673E+03   -0.42766E-03   -0.43266E-03  7488   0.174E-01-0.563E-03
CGA: 101    -0.334708940196E+03   -0.31652E-03   -0.31822E-03  7488   0.900E-02 0.232E-04
CGA: 102    -0.334709380744E+03   -0.44055E-03   -0.44279E-03  7488   0.153E-01-0.117E-03
CGA: 103    -0.334709795044E+03   -0.41430E-03   -0.41485E-03  7488   0.133E-01 0.584E-03
SDA: 104    -0.334710299325E+03   -0.50428E-03   -0.53377E-03  7488   0.144E-01-0.218E-02
CGA: 105    -0.334710447182E+03   -0.14786E-03   -0.14812E-03  7488   0.330E-02-0.204E-04
CGA: 106    -0.334710548953E+03   -0.10177E-03   -0.10183E-03  7488   0.474E-02-0.127E-04
CGA: 107    -0.334710837946E+03   -0.28899E-03   -0.28911E-03  7488   0.208E-01-0.329E-05
CGA: 108    -0.334711719971E+03   -0.88203E-03   -0.88135E-03  7488   0.105E-01-0.248E-04
CGA: 109    -0.334712173224E+03   -0.45325E-03   -0.45181E-03  7488   0.217E-01 0.801E-04
CGA: 110    -0.334712599817E+03   -0.42659E-03   -0.39567E-03  7488   0.197E-01 0.523E-03
CGA: 111    -0.334713500265E+03   -0.90045E-03   -0.93666E-03  7488   0.428E-01-0.225E-02
CGA: 112    -0.334713894409E+03   -0.39414E-03   -0.46657E-03  7488   0.646E-02-0.341E-02
CGA: 113    -0.334713988494E+03   -0.94085E-04   -0.95693E-04  7488   0.746E-02-0.454E-04
CGA: 114    -0.334714261436E+03   -0.27294E-03   -0.27692E-03  7488   0.138E-01-0.360E-03
CGA: 115    -0.334714516504E+03   -0.25507E-03   -0.24850E-03  7488   0.111E-01 0.778E-04
CGA: 116    -0.334714670290E+03   -0.15379E-03   -0.15380E-03  7488   0.519E-02 0.199E-04
CGA: 117    -0.334714774409E+03   -0.10412E-03   -0.10292E-03  7488   0.948E-02 0.149E-05
CGA: 118    -0.334715152563E+03   -0.37815E-03   -0.43513E-03  7488   0.429E-01-0.288E-02
CGA: 119    -0.334715310155E+03   -0.15759E-03   -0.17231E-03  7488   0.338E-01-0.239E-02
CGA: 120    -0.334715443676E+03   -0.13352E-03   -0.13712E-03  7488   0.107E-01-0.271E-03
CGA: 121    -0.334715495159E+03   -0.51483E-04   -0.53121E-04  7488   0.651E-02-0.240E-03
CGA: 122    -0.334715552559E+03   -0.57400E-04   -0.58508E-04  7488   0.101E-01-0.623E-04
CGA: 123    -0.334715632333E+03   -0.79775E-04   -0.79002E-04  7488   0.877E-02 0.108E-03
CGA: 124    -0.334715686184E+03   -0.53851E-04   -0.51916E-04  7488   0.689E-02 0.297E-03
CGA: 125    -0.334715752957E+03   -0.66773E-04   -0.64903E-04  7488   0.126E-01 0.151E-03
CGA: 126    -0.334715870751E+03   -0.11779E-03   -0.11618E-03  7488   0.182E-01 0.129E-03
CGA: 127    -0.334715969053E+03   -0.98302E-04   -0.10306E-03  7488   0.985E-02-0.617E-03
CGA: 128    -0.334716016227E+03   -0.47175E-04   -0.48699E-04  7488   0.649E-02-0.214E-03
CGA: 129    -0.334716063990E+03   -0.47763E-04   -0.48345E-04  7488   0.811E-02-0.348E-04
CGA: 130    -0.334716124163E+03   -0.60173E-04   -0.59071E-04  7488   0.831E-02 0.122E-03
CGA: 131    -0.334716182675E+03   -0.58511E-04   -0.56538E-04  7488   0.101E-01 0.225E-03
CGA: 132    -0.334716279725E+03   -0.97051E-04   -0.93980E-04  7488   0.211E-01 0.171E-03
CGA: 133    -0.334716437382E+03   -0.15766E-03   -0.15800E-03  7488   0.275E-01-0.899E-04
CGA: 134    -0.334716554143E+03   -0.11676E-03   -0.12222E-03  7488   0.113E-01-0.866E-03
SDA: 135    -0.334716591785E+03   -0.37642E-04   -0.38217E-04  7488   0.410E-02-0.117E-03
CGA: 136    -0.334716742505E+03   -0.15072E-03   -0.15109E-03  7488   0.125E-01-0.184E-04
CGA: 137    -0.334717077292E+03   -0.33479E-03   -0.33238E-03  7488   0.120E-01 0.212E-03
CGA: 138    -0.334718643560E+03   -0.15663E-02   -0.11320E-03  7488   0.302E-01 0.282E-03
CGA: 139    -0.334719111310E+03   -0.46775E-03   -0.48015E-03  7488   0.108E-01-0.396E-03
CGA: 140    -0.334719398049E+03   -0.28674E-03   -0.28554E-03  7488   0.131E-01-0.107E-03
CGA: 141    -0.334719924550E+03   -0.52650E-03   -0.51818E-03  7488   0.160E-01 0.642E-03
CGA: 142    -0.334720162955E+03   -0.23840E-03   -0.23758E-03  7488   0.708E-02 0.141E-04
CGA: 143    -0.334720314997E+03   -0.15204E-03   -0.15104E-03  7488   0.237E-02-0.943E-05
CGA: 144    -0.334720362265E+03   -0.47269E-04   -0.47341E-04  7488   0.212E-02-0.762E-06
CGA: 145    -0.334720433363E+03   -0.71098E-04   -0.71242E-04  7488   0.453E-02-0.234E-04
CGA: 146    -0.334720582105E+03   -0.14874E-03   -0.14824E-03  7488   0.195E-02 0.865E-04
CGA: 147    -0.334720616226E+03   -0.34122E-04   -0.33783E-04  7488   0.170E-02 0.586E-05
CGA: 148    -0.334720696845E+03   -0.80619E-04   -0.79339E-04  7488   0.388E-02 0.636E-04
CGA: 149    -0.334720807399E+03   -0.11055E-03   -0.10928E-03  7488   0.543E-02-0.170E-03
CGA: 150    -0.334720936125E+03   -0.12873E-03   -0.13152E-03  7488   0.477E-02 0.207E-03
CGA: 151    -0.334721127832E+03   -0.19171E-03   -0.20616E-03  7488   0.558E-02-0.117E-02
CGA: 152    -0.334721203642E+03   -0.75809E-04   -0.71654E-04  7488   0.432E-02 0.141E-03
CGA: 153    -0.334721291251E+03   -0.87609E-04   -0.84971E-04  7488   0.268E-02-0.864E-05
CGA: 154    -0.334721336407E+03   -0.45156E-04   -0.45287E-04  7488   0.298E-02-0.753E-05
CGA: 155    -0.334721395326E+03   -0.58919E-04   -0.59439E-04  7488   0.243E-02 0.604E-05
CGA: 156    -0.334721442448E+03   -0.47122E-04   -0.47397E-04  7488   0.209E-02 0.455E-05
CGA: 157    -0.334721476402E+03   -0.33954E-04   -0.34228E-04  7488   0.162E-02-0.190E-05
CGA: 158    -0.334721505134E+03   -0.28732E-04   -0.28846E-04  7488   0.133E-02 0.144E-05
CGA: 159    -0.334721538059E+03   -0.32925E-04   -0.32934E-04  7488   0.169E-02 0.172E-05
CGA: 160    -0.334721570483E+03   -0.32424E-04   -0.32302E-04  7488   0.145E-02-0.148E-05
CGA: 161    -0.334721591599E+03   -0.21115E-04   -0.21345E-04  7488   0.992E-03-0.660E-05
CGA: 162    -0.334721622620E+03   -0.31021E-04   -0.30923E-04  7488   0.151E-02 0.952E-05
CGA: 163    -0.334721654491E+03   -0.31871E-04   -0.31607E-04  7488   0.204E-02-0.166E-04
CGA: 164    -0.334721694885E+03   -0.40394E-04   -0.41401E-04  7488   0.153E-02 0.522E-04
CGA: 165    -0.334721745963E+03   -0.51078E-04   -0.53605E-04  7488   0.195E-02-0.270E-03
SDA: 166    -0.334721763187E+03   -0.17225E-04   -0.12960E-04  7488   0.221E-02 0.410E-03
CGA: 167    -0.334721864767E+03   -0.10158E-03   -0.10163E-03  7488   0.613E-02-0.398E-05
CGA: 168    -0.334721972449E+03   -0.10768E-03   -0.10770E-03  7488   0.576E-02-0.173E-05
CGA: 169    -0.334722333980E+03   -0.36153E-03   -0.36727E-03  7488   0.126E-01-0.169E-03
CGA: 170    -0.334722546558E+03   -0.21258E-03   -0.21197E-03  7488   0.495E-02 0.987E-05
CGA: 171    -0.334722629370E+03   -0.82812E-04   -0.82722E-04  7488   0.206E-02 0.198E-06
CGA: 172    -0.334722866588E+03   -0.23722E-03   -0.23364E-03  7488   0.327E-02 0.567E-04
CGA: 173    -0.334722924495E+03   -0.57908E-04   -0.56960E-04  7488   0.319E-02 0.224E-04
CGA: 174    -0.334722985690E+03   -0.61194E-04   -0.59699E-04  7488   0.197E-02 0.181E-04
CGA: 175    -0.334723051091E+03   -0.65402E-04   -0.65621E-04  7488   0.444E-02-0.376E-04
CGA: 176    -0.334723153954E+03   -0.10286E-03   -0.10199E-03  7488   0.337E-02-0.231E-04
CGA: 177    -0.334723203173E+03   -0.49219E-04   -0.50399E-04  7488   0.167E-02-0.344E-04
CGA: 178    -0.334723221927E+03   -0.18755E-04   -0.18824E-04  7488   0.621E-03-0.385E-05
CGA: 179    -0.334723258614E+03   -0.36686E-04   -0.36363E-04  7488   0.177E-02 0.998E-05
CGA: 180    -0.334723284496E+03   -0.25882E-04   -0.25947E-04  7488   0.960E-03-0.197E-05
CGA: 181    -0.334723302627E+03   -0.18131E-04   -0.17675E-04  7488   0.415E-03 0.107E-05
CGA: 182    -0.334723308290E+03   -0.56629E-05   -0.56187E-05  7488   0.309E-03 0.303E-06
CGA: 183    -0.334723344052E+03   -0.35762E-04   -0.41980E-04  7488   0.263E-02-0.880E-04
CGA: 184    -0.334723352240E+03   -0.81884E-05   -0.47600E-05  7488   0.249E-02 0.133E-02
CGA: 185    -0.334723393033E+03   -0.40793E-04   -0.40928E-04  7488   0.838E-03-0.329E-05
CGA: 186    -0.334723402762E+03   -0.97289E-05   -0.97549E-05  7488   0.339E-03-0.767E-06
CGA: 187    -0.334723414349E+03   -0.11587E-04   -0.11583E-04  7488   0.828E-03 0.518E-06
CGA: 188    -0.334723443013E+03   -0.28664E-04   -0.28624E-04  7488   0.156E-02 0.592E-05
CGA: 189    -0.334723493755E+03   -0.50742E-04   -0.51071E-04  7488   0.641E-03-0.760E-04
CGA: 190    -0.334723550699E+03   -0.56944E-04   -0.51580E-04  7488   0.214E-02 0.910E-04
CGA: 191    -0.334723582691E+03   -0.31993E-04   -0.23539E-04  7488   0.992E-03 0.766E-03
CGA: 192    -0.334723612573E+03   -0.29882E-04   -0.27184E-04  7488   0.113E-02 0.279E-04
CGA: 193    -0.334723621398E+03   -0.88242E-05   -0.79320E-05  7488   0.632E-03 0.118E-03
   1 F= -.33472362E+03 E0= -.33468831E+03  d E =-.334724E+03  mag=    32.0000
       N       E                     dE             d eps       ncg     rms          ort
SDA:   1    -0.203281419673E+03    0.13144E+03    0.00000E+00  7488   0.136E+04 0.000E+00
CGA:   2    -0.236965663835E+03   -0.33684E+02   -0.35888E+02  7488   0.322E+03 0.391E+03
CGA:   3    -0.264833190306E+03   -0.27868E+02    0.36179E+02  7488   0.386E+03 0.173E+03
CGA:   4    -0.276561413797E+03   -0.11728E+02   -0.67536E+01  7488   0.459E+03-0.126E+03
CGA:   5    -0.279220703130E+03   -0.26593E+01   -0.60734E+01  7488   0.241E+03 0.154E+03
CGA:   6    -0.289764964322E+03   -0.10544E+02   -0.10789E+02  7488   0.367E+03 0.896E+02
CGA:   7    -0.305477351266E+03   -0.15712E+02   -0.15394E+02  7488   0.683E+03 0.998E+02
CGA:   8    -0.314200898330E+03   -0.87235E+01   -0.93044E+01  7488   0.142E+03 0.572E+02
CGA:   9    -0.312954426352E+03    0.12465E+01   -0.93559E+01  7488   0.232E+03-0.152E+03
CGA:  10    -0.315283847022E+03   -0.23294E+01   -0.12325E+02  7488   0.208E+03-0.982E+02
CGA:  11    -0.297662842228E+03    0.17621E+02   -0.58901E+01  7488   0.132E+04-0.738E+03
CGA:  12    -0.321169028740E+03   -0.23506E+02   -0.25829E+02  7488   0.195E+03-0.241E+02
CGA:  13    -0.329671084543E+03   -0.85021E+01   -0.29435E+01  7488   0.111E+03 0.201E+03
CGA:  14    -0.330866044300E+03   -0.11950E+01   -0.65880E+00  7488   0.597E+02 0.891E+02
CGA:  15    -0.331652568919E+03   -0.78652E+00   -0.40227E+00  7488   0.297E+02 0.506E+02
CGA:  16    -0.332049622808E+03   -0.39705E+00   -0.27182E+00  7488   0.551E+01 0.102E+02
CGA:  17    -0.332148642212E+03   -0.99019E-01   -0.88330E-01  7488   0.568E+01 0.525E+00
CGA:  18    -0.332289965282E+03   -0.14132E+00   -0.14065E+00  7488   0.184E+02-0.755E-01
CGA:  19    -0.332492956626E+03   -0.20299E+00   -0.16453E+00  7488   0.225E+02 0.351E+01
CGA:  20    -0.332720861948E+03   -0.22791E+00   -0.19263E+00  7488   0.261E+02 0.407E+01
CGA:  21    -0.333027691300E+03   -0.30683E+00   -0.26424E+00  7488   0.389E+02 0.396E+01
CGA:  22    -0.333239358987E+03   -0.21167E+00   -0.14617E+00  7488   0.315E+02 0.185E+02
CGA:  23    -0.333406907193E+03   -0.16755E+00   -0.12152E+00  7488   0.169E+02 0.166E+02
CGA:  24    -0.333551904691E+03   -0.14500E+00   -0.15184E+00  7488   0.302E+01-0.533E+00
CGA:  25    -0.333585086343E+03   -0.33182E-01   -0.32503E-01  7488   0.168E+01 0.240E-01
CGA:  26    -0.333649821940E+03   -0.64736E-01   -0.65189E-01  7488   0.490E+01-0.234E-01
CGA:  27    -0.333831753564E+03   -0.18193E+00   -0.18275E+00  7488   0.402E+01-0.348E-01
CGA:  28    -0.333868013539E+03   -0.36260E-01   -0.34915E-01  7488   0.189E+01 0.101E+00
CGA:  29    -0.333905106013E+03   -0.37092E-01   -0.37048E-01  7488   0.967E+00-0.611E-02
CGA:  30    -0.333927753035E+03   -0.22647E-01   -0.22571E-01  7488   0.244E+01 0.200E-01
CGA:  31    -0.333995657385E+03   -0.67904E-01   -0.70318E-01  7488   0.463E+01-0.264E+00
CGA:  32    -0.334037406539E+03   -0.41749E-01   -0.41280E-01  7488   0.156E+01 0.459E-01
CGA:  33    -0.334047874088E+03   -0.10468E-01   -0.11316E-01  7488   0.649E+00-0.872E-01
CGA:  34    -0.334064617167E+03   -0.16743E-01   -0.16391E-01  7488   0.875E+00 0.404E-01
CGA:  35    -0.334075878159E+03   -0.11261E-01   -0.10923E-01  7488   0.915E+00 0.985E-02
CGA:  36    -0.334098473897E+03   -0.22596E-01   -0.22642E-01  7488   0.722E+00-0.836E-02
CGA:  37    -0.334103283403E+03   -0.48095E-02   -0.50412E-02  7488   0.207E+00-0.241E-01
CGA:  38    -0.334108543316E+03   -0.52599E-02   -0.51962E-02  7488   0.216E+00 0.757E-02
CGA:  39    -0.334111233361E+03   -0.26900E-02   -0.26732E-02  7488   0.230E+00 0.905E-04
CGA:  40    -0.334119516013E+03   -0.82827E-02   -0.82677E-02  7488   0.240E+00 0.348E-03
CGA:  41    -0.334121650919E+03   -0.21349E-02   -0.22115E-02  7488   0.107E+00-0.506E-02
CGA:  42    -0.334123349209E+03   -0.16983E-02   -0.16982E-02  7488   0.400E-01-0.913E-04
CGA:  43    -0.334124599244E+03   -0.12500E-02   -0.12554E-02  7488   0.125E+00-0.472E-03
CGA:  44    -0.334126732932E+03   -0.21337E-02   -0.21488E-02  7488   0.850E-01 0.167E-02
CGA:  45    -0.334129432316E+03   -0.26994E-02   -0.26511E-02  7488   0.738E-01 0.373E-02
CGA:  46    -0.334130040758E+03   -0.60844E-03   -0.59318E-03  7488   0.190E-01 0.134E-02
CGA:  47    -0.334130979810E+03   -0.93905E-03   -0.96168E-03  7488   0.797E-01-0.885E-03
CGA:  48    -0.334132694021E+03   -0.17142E-02   -0.17095E-02  7488   0.730E-01 0.267E-02
CGA:  49    -0.334133464524E+03   -0.77050E-03   -0.77387E-03  7488   0.219E-01-0.162E-03
CGA:  50    -0.334133964264E+03   -0.49974E-03   -0.49908E-03  7488   0.112E-01 0.189E-03
CGA:  51    -0.334134241450E+03   -0.27719E-03   -0.27723E-03  7488   0.216E-01-0.276E-04
CGA:  52    -0.334134969600E+03   -0.72815E-03   -0.73866E-03  7488   0.308E-01-0.732E-03
CGA:  53    -0.334135251073E+03   -0.28147E-03   -0.28739E-03  7488   0.588E-02-0.392E-03
SDA:  54    -0.334135425925E+03   -0.17485E-03   -0.17435E-03  7488   0.941E-02 0.379E-04
CGA:  55    -0.334135538505E+03   -0.11258E-03   -0.11222E-03  7488   0.467E-02 0.787E-05
CGA:  56    -0.334135646191E+03   -0.10769E-03   -0.10764E-03  7488   0.727E-02 0.147E-04
CGA:  57    -0.334135840038E+03   -0.19385E-03   -0.19401E-03  7488   0.675E-02-0.179E-04
CGA:  58    -0.334135977172E+03   -0.13713E-03   -0.13717E-03  7488   0.189E-02 0.229E-04
CGA:  59    -0.334136161753E+03   -0.18458E-03   -0.18104E-03  7488   0.750E-02 0.481E-04
CGA:  60    -0.334136434498E+03   -0.27274E-03   -0.27000E-03  7488   0.138E-01 0.227E-03
CGA:  61    -0.334136572239E+03   -0.13774E-03   -0.13413E-03  7488   0.879E-03 0.330E-03
CGA:  62    -0.334136723868E+03   -0.15163E-03   -0.10937E-04  7488   0.464E-02 0.456E-04
CGA:  63    -0.334136784354E+03   -0.60486E-04   -0.58543E-04  7488   0.207E-02 0.138E-03
CGA:  64    -0.334136817920E+03   -0.33566E-04   -0.33619E-04  7488   0.986E-03-0.114E-05
CGA:  65    -0.334136851235E+03   -0.33315E-04   -0.33306E-04  7488   0.214E-02-0.103E-05
CGA:  66    -0.334136967402E+03   -0.11617E-03   -0.11671E-03  7488   0.274E-02-0.326E-04
CGA:  67    -0.334137009401E+03   -0.41999E-04   -0.41534E-04  7488   0.159E-02 0.163E-04
CGA:  68    -0.334137026786E+03   -0.17385E-04   -0.17457E-04  7488   0.393E-03-0.930E-05
CGA:  69    -0.334137089609E+03   -0.62823E-04   -0.64793E-04  7488   0.184E-02-0.159E-04
CGA:  70    -0.334137114512E+03   -0.24903E-04   -0.24857E-04  7488   0.127E-02-0.112E-04
CGA:  71    -0.334137133417E+03   -0.18905E-04   -0.18779E-04  7488   0.360E-03-0.401E-05
CGA:  72    -0.334137161895E+03   -0.28478E-04   -0.28634E-04  7488   0.156E-02-0.431E-05
CGA:  73    -0.334137191646E+03   -0.29751E-04   -0.29510E-04  7488   0.733E-03-0.113E-05
CGA:  74    -0.334137200614E+03   -0.89682E-05   -0.89611E-05  7488   0.345E-03-0.220E-05
   2 F= -.33413720E+03 E0= -.33410132E+03  d E =0.586421E+00  mag=    32.0000
       N       E                     dE             d eps       ncg     rms          ort
SDA:   1    -0.292386299689E+03    0.41751E+02    0.00000E+00  7488   0.166E+04 0.000E+00
CGA:   2    -0.315457207209E+03   -0.23071E+02   -0.38924E+02  7488   0.112E+03-0.988E+02
CGA:   3    -0.317765156044E+03   -0.23079E+01   -0.13115E+01  7488   0.115E+03 0.120E+03
CGA:   4    -0.320556790473E+03   -0.27916E+01   -0.87945E+00  7488   0.140E+03 0.215E+03
CGA:   5    -0.322427356380E+03   -0.18706E+01   -0.10612E+01  7488   0.632E+02 0.895E+02
CGA:   6    -0.323191140739E+03   -0.76378E+00   -0.38360E+00  7488   0.499E+02 0.619E+02
CGA:   7    -0.323921727320E+03   -0.73059E+00   -0.33773E+00  7488   0.477E+02 0.576E+02
CGA:   8    -0.324800857339E+03   -0.87913E+00   -0.43464E+00  7488   0.315E+02 0.424E+02
CGA:   9    -0.325730183247E+03   -0.92933E+00   -0.85462E+00  7488   0.639E+02-0.553E+01
CGA:  10    -0.327046207947E+03   -0.13160E+01   -0.12680E+01  7488   0.153E+03-0.225E+01
CGA:  11    -0.328850925046E+03   -0.18047E+01   -0.17832E+01  7488   0.193E+03-0.260E+01
CGA:  12    -0.331910671505E+03   -0.30597E+01   -0.31090E+01  7488   0.155E+03-0.486E+01
CGA:  13    -0.332838855813E+03   -0.92818E+00   -0.14249E+01  7488   0.211E+02-0.391E+02
CGA:  14    -0.333013522751E+03   -0.17467E+00   -0.17948E+00  7488   0.146E+02-0.339E+00
CGA:  15    -0.333333621094E+03   -0.32010E+00   -0.28753E+00  7488   0.923E+01-0.428E+00
CGA:  16    -0.333595639913E+03   -0.26202E+00   -0.26281E+00  7488   0.282E+02-0.207E+00
CGA:  17    -0.334021695743E+03   -0.42606E+00   -0.44888E+00  7488   0.953E+01-0.349E+00
CGA:  18    -0.334121382114E+03   -0.99686E-01   -0.11062E+00  7488   0.408E+01-0.569E+00
CGA:  19    -0.334167695942E+03   -0.46314E-01   -0.44887E-01  7488   0.244E+01 0.716E-01
CGA:  20    -0.334219875478E+03   -0.52180E-01   -0.51357E-01  7488   0.385E+01-0.505E-01
CGA:  21    -0.334317182876E+03   -0.97307E-01   -0.97280E-01  7488   0.563E+01 0.181E-01
CGA:  22    -0.334366121104E+03   -0.48938E-01   -0.45997E-01  7488   0.130E+01 0.269E+00
CGA:  23    -0.334385074242E+03   -0.18953E-01   -0.19677E-01  7488   0.119E+01-0.122E-01
CGA:  24    -0.334397273271E+03   -0.12199E-01   -0.12991E-01  7488   0.573E+00-0.394E-01
CGA:  25    -0.334437727923E+03   -0.40455E-01   -0.39963E-01  7488   0.294E+01 0.116E-01
CGA:  26    -0.334470842667E+03   -0.33115E-01   -0.32741E-01  7488   0.375E+00 0.238E-01
CGA:  27    -0.334474615747E+03   -0.37731E-02   -0.38858E-02  7488   0.142E+00-0.701E-02
CGA:  28    -0.334487107301E+03   -0.12492E-01   -0.12224E-01  7488   0.565E+00 0.509E-02
CGA:  29    -0.334496436999E+03   -0.93297E-02   -0.92814E-02  7488   0.465E+00 0.893E-03
CGA:  30    -0.334502520043E+03   -0.60830E-02   -0.62128E-02  7488   0.769E-01-0.491E-02
CGA:  31    -0.334505420126E+03   -0.29001E-02   -0.29304E-02  7488   0.104E+00-0.201E-02
CGA:  32    -0.334507900700E+03   -0.24806E-02   -0.24791E-02  7488   0.245E+00-0.304E-03
CGA:  33    -0.334514200515E+03   -0.62998E-02   -0.63034E-02  7488   0.505E-01 0.230E-02
CGA:  34    -0.334514878401E+03   -0.67789E-03   -0.67826E-03  7488   0.283E-01-0.221E-04
CGA:  35    -0.334516593680E+03   -0.17153E-02   -0.17273E-02  7488   0.886E-01-0.367E-03
CGA:  36    -0.334518077858E+03   -0.14842E-02   -0.14911E-02  7488   0.943E-01-0.686E-04
CGA:  37    -0.334519836641E+03   -0.17588E-02   -0.17633E-02  7488   0.111E-01 0.507E-04
CGA:  38    -0.334520199104E+03   -0.36246E-03   -0.36259E-03  7488   0.158E-01-0.138E-04
SDA:  39    -0.334520686387E+03   -0.48728E-03   -0.48707E-03  7488   0.442E-01 0.378E-04
CGA:  40    -0.334521019742E+03   -0.33336E-03   -0.33069E-03  7488   0.858E-02 0.285E-03
CGA:  41    -0.334521188574E+03   -0.16883E-03   -0.16898E-03  7488   0.600E-02 0.474E-05
CGA:  42    -0.334521569007E+03   -0.38043E-03   -0.38088E-03  7488   0.222E-01-0.140E-04
CGA:  43    -0.334522098068E+03   -0.52906E-03   -0.52906E-03  7488   0.105E-01 0.482E-05
CGA:  44    -0.334522304608E+03   -0.20654E-03   -0.20718E-03  7488   0.495E-02 0.142E-04
CGA:  45    -0.334522355528E+03   -0.50921E-04   -0.50945E-04  7488   0.257E-02 0.149E-05
CGA:  46    -0.334522723591E+03   -0.36806E-03   -0.42305E-05  7488   0.370E-02-0.416E-03
CGA:  47    -0.334522782676E+03   -0.59085E-04   -0.59588E-04  7488   0.208E-02-0.122E-04
CGA:  48    -0.334522820342E+03   -0.37667E-04   -0.37823E-04  7488   0.236E-02-0.304E-05
CGA:  49    -0.334522914073E+03   -0.93731E-04   -0.93720E-04  7488   0.652E-02 0.335E-06
CGA:  50    -0.334523028546E+03   -0.11447E-03   -0.11481E-03  7488   0.103E-02-0.873E-05
CGA:  51    -0.334523054026E+03   -0.25481E-04   -0.25401E-04  7488   0.737E-03 0.423E-06
CGA:  52    -0.334523090132E+03   -0.36106E-04   -0.36109E-04  7488   0.370E-02-0.816E-06
CGA:  53    -0.334523169248E+03   -0.79116E-04   -0.78884E-04  7488   0.966E-03 0.105E-05
CGA:  54    -0.334523187699E+03   -0.18450E-04   -0.18501E-04  7488   0.341E-03-0.230E-05
CGA:  55    -0.334523199608E+03   -0.11910E-04   -0.11910E-04  7488   0.914E-03-0.213E-06
CGA:  56    -0.334523238327E+03   -0.38718E-04   -0.38715E-04  7488   0.145E-02 0.651E-06
CGA:  57    -0.334523253691E+03   -0.15365E-04   -0.15294E-04  7488   0.384E-03 0.475E-05
CGA:  58    -0.334523261932E+03   -0.82411E-05   -0.82354E-05  7488   0.227E-03 0.416E-06
CGA:  59    -0.334523288021E+03   -0.26088E-04   -0.25820E-04  7488   0.529E-03 0.346E-05
CGA:  60    -0.334523295922E+03   -0.79017E-05   -0.79529E-05  7488   0.297E-03 0.474E-06
   3 F= -.33452330E+03 E0= -.33448762E+03  d E =0.200325E+00  mag=    32.0000
       N       E                     dE             d eps       ncg     rms          ort
SDA:   1    -0.302530842534E+03    0.31992E+02    0.00000E+00  7488   0.202E+04 0.000E+00
CGA:   2    -0.323470141403E+03   -0.20939E+02   -0.43402E+02  7488   0.230E+03-0.326E+03
CGA:   3    -0.328049157490E+03   -0.45790E+01   -0.25331E+01  7488   0.118E+03-0.802E+02
CGA:   4    -0.328571435710E+03   -0.52228E+00   -0.21450E+00  7488   0.154E+03 0.115E+03
CGA:   5    -0.330875014350E+03   -0.23036E+01   -0.14893E+01  7488   0.687E+02 0.845E+02
CGA:   6    -0.331510019466E+03   -0.63501E+00   -0.38345E+00  7488   0.253E+02 0.401E+02
CGA:   7    -0.331896773614E+03   -0.38675E+00   -0.25998E+00  7488   0.107E+02 0.997E+01
CGA:   8    -0.332154255346E+03   -0.25748E+00   -0.17468E+00  7488   0.108E+02 0.555E+01
CGA:   9    -0.332319500551E+03   -0.16525E+00   -0.17241E+00  7488   0.986E+01-0.220E+00
CGA:  10    -0.332883171437E+03   -0.56367E+00   -0.61644E+00  7488   0.621E+02-0.160E+01
CGA:  11    -0.333560714971E+03   -0.67754E+00   -0.66902E+00  7488   0.465E+02 0.191E+00
CGA:  12    -0.334003522750E+03   -0.44281E+00   -0.51477E+00  7488   0.291E+02-0.491E+01
CGA:  13    -0.334212818766E+03   -0.20930E+00   -0.26169E+00  7488   0.264E+01-0.369E+01
CGA:  14    -0.334259265309E+03   -0.46447E-01   -0.45603E-01  7488   0.486E+01-0.697E-02
CGA:  15    -0.334372765496E+03   -0.11350E+00   -0.11387E+00  7488   0.514E+01 0.237E-01
CGA:  16    -0.334509997492E+03   -0.13723E+00   -0.13720E+00  7488   0.206E+01-0.106E-01
CGA:  17    -0.334532100717E+03   -0.22103E-01   -0.21601E-01  7488   0.848E+00 0.322E-01
CGA:  18    -0.334548065118E+03   -0.15964E-01   -0.16237E-01  7488   0.902E+00 0.252E-02
CGA:  19    -0.334570668721E+03   -0.22604E-01   -0.22625E-01  7488   0.857E+00 0.623E-02
CGA:  20    -0.334602380570E+03   -0.31712E-01   -0.32204E-01  7488   0.464E+00-0.360E-01
CGA:  21    -0.334605999106E+03   -0.36185E-02   -0.36604E-02  7488   0.139E+00-0.395E-02
CGA:  22    -0.334612104212E+03   -0.61051E-02   -0.60714E-02  7488   0.342E+00 0.171E-02
CGA:  23    -0.334620063143E+03   -0.79589E-02   -0.79728E-02  7488   0.275E+00 0.129E-02
CGA:  24    -0.334625273593E+03   -0.52104E-02   -0.52016E-02  7488   0.228E+00 0.305E-04
CGA:  25    -0.334627674146E+03   -0.24006E-02   -0.23602E-02  7488   0.464E-01 0.278E-02
CGA:  26    -0.334629543224E+03   -0.18691E-02   -0.18683E-02  7488   0.111E+00 0.526E-04
CGA:  27    -0.334631986589E+03   -0.24434E-02   -0.24513E-02  7488   0.162E+00 0.619E-03
CGA:  28    -0.334634589881E+03   -0.26033E-02   -0.26005E-02  7488   0.441E-01 0.110E-03
CGA:  29    -0.334635174158E+03   -0.58428E-03   -0.58342E-03  7488   0.190E-01 0.416E-04
CGA:  30    -0.334636067244E+03   -0.89309E-03   -0.89590E-03  7488   0.722E-01-0.126E-03
CGA:  31    -0.334637170585E+03   -0.11033E-02   -0.10981E-02  7488   0.421E-01 0.700E-04
CGA:  32    -0.334638333580E+03   -0.11630E-02   -0.11619E-02  7488   0.204E-01 0.292E-03
CGA:  33    -0.334638530659E+03   -0.19708E-03   -0.19767E-03  7488   0.772E-02-0.538E-04
CGA:  34    -0.334638743103E+03   -0.21244E-03   -0.21251E-03  7488   0.189E-01-0.177E-04
CGA:  35    -0.334639521609E+03   -0.77851E-03   -0.77999E-03  7488   0.144E-01-0.847E-04
CGA:  36    -0.334639716005E+03   -0.19440E-03   -0.19480E-03  7488   0.109E-01-0.198E-04
CGA:  37    -0.334639868489E+03   -0.15248E-03   -0.15297E-03  7488   0.305E-02-0.162E-04
CGA:  38    -0.334639964153E+03   -0.95664E-04   -0.95666E-04  7488   0.747E-02-0.139E-06
SDA:  39    -0.334640241478E+03   -0.27733E-03   -0.27704E-03  7488   0.107E-01 0.202E-04
CGA:  40    -0.334640309429E+03   -0.67951E-04   -0.67859E-04  7488   0.757E-03 0.109E-04
CGA:  41    -0.334640341251E+03   -0.31822E-04   -0.31765E-04  7488   0.235E-02 0.302E-05
CGA:  42    -0.334640425975E+03   -0.84724E-04   -0.84637E-04  7488   0.264E-02 0.715E-05
CGA:  43    -0.334640519600E+03   -0.93626E-04   -0.93649E-04  7488   0.403E-03-0.111E-05
CGA:  44    -0.334640544685E+03   -0.25085E-04   -0.25019E-04  7488   0.112E-02 0.179E-05
CGA:  45    -0.334640579909E+03   -0.35224E-04   -0.35212E-04  7488   0.148E-02 0.299E-05
CGA:  46    -0.334640600842E+03   -0.20933E-04   -0.20920E-04  7488   0.504E-03 0.159E-05
CGA:  47    -0.334640608131E+03   -0.72890E-05   -0.72951E-05  7488   0.374E-03 0.381E-06
CGA:  48    -0.334640620407E+03   -0.12276E-04   -0.12275E-04  7488   0.507E-03 0.225E-06
CGA:  49    -0.334640665363E+03   -0.44956E-04   -0.44853E-04  7488   0.123E-03 0.161E-05
CGA:  50    -0.334640669044E+03   -0.36816E-05   -0.36810E-05  7488   0.437E-03-0.974E-06
CGA:  51    -0.334640692341E+03   -0.23297E-04   -0.23492E-04  7488   0.492E-03-0.826E-05
CGA:  52    -0.334640697129E+03   -0.47882E-05   -0.47570E-05  7488   0.705E-04-0.163E-05
   4 F= -.33464070E+03 E0= -.33460513E+03  d E =0.829243E-01  mag=    32.0000
       N       E                     dE             d eps       ncg     rms          ort
SDA:   1    -0.325760343324E+03    0.88803E+01    0.00000E+00  7488   0.230E+03 0.000E+00
CGA:   2    -0.334150253149E+03   -0.83899E+01   -0.25179E+01  7488   0.367E+02-0.825E+02
CGA:   3    -0.334250201623E+03   -0.99948E-01   -0.70947E-01  7488   0.329E+02 0.856E+01
CGA:   4    -0.334403285492E+03   -0.15308E+00   -0.17784E+00  7488   0.173E+02-0.818E+01
CGA:   5    -0.334410107419E+03   -0.68219E-02   -0.71237E-01  7488   0.133E+02-0.110E+02
CGA:   6    -0.334505362416E+03   -0.95255E-01   -0.13699E+00  7488   0.191E+01-0.356E+01
CGA:   7    -0.334522596266E+03   -0.17234E-01   -0.16322E-01  7488   0.643E+00 0.632E-01
CGA:   8    -0.334533262847E+03   -0.10667E-01   -0.10996E-01  7488   0.764E+00-0.137E-01
CGA:   9    -0.334612508425E+03   -0.79246E-01   -0.80750E-01  7488   0.192E+01-0.254E-01
CGA:  10    -0.334631773415E+03   -0.19265E-01   -0.18280E-01  7488   0.313E+00 0.844E-01
CGA:  11    -0.334635267997E+03   -0.34946E-02   -0.36354E-02  7488   0.138E+00-0.105E-01
CGA:  12    -0.334639144580E+03   -0.38766E-02   -0.38726E-02  7488   0.204E+00-0.532E-05
CGA:  13    -0.334650880976E+03   -0.11736E-01   -0.11714E-01  7488   0.134E+00 0.109E-02
CGA:  14    -0.334652524323E+03   -0.16433E-02   -0.16548E-02  7488   0.683E-01-0.698E-03
CGA:  15    -0.334653558966E+03   -0.10346E-02   -0.10159E-02  7488   0.322E-01 0.894E-03
CGA:  16    -0.334654380871E+03   -0.82191E-03   -0.82292E-03  7488   0.496E-01-0.490E-05
CGA:  17    -0.334656421426E+03   -0.20406E-02   -0.20417E-02  7488   0.252E-01-0.222E-03
CGA:  18    -0.334656808459E+03   -0.38703E-03   -0.38411E-03  7488   0.140E-01 0.123E-03
CGA:  19    -0.334656982158E+03   -0.17370E-03   -0.17403E-03  7488   0.749E-02-0.215E-04
CGA:  20    -0.334657401194E+03   -0.41904E-03   -0.41939E-03  7488   0.212E-01-0.154E-04
CGA:  21    -0.334657787106E+03   -0.38591E-03   -0.38768E-03  7488   0.535E-02-0.497E-04
CGA:  22    -0.334657893024E+03   -0.10592E-03   -0.10627E-03  7488   0.309E-02-0.506E-05
CGA:  23    -0.334657933692E+03   -0.40668E-04   -0.40676E-04  7488   0.274E-02 0.800E-06
CGA:  24    -0.334658133366E+03   -0.19967E-03   -0.19934E-03  7488   0.662E-02 0.888E-05
CGA:  25    -0.334658236301E+03   -0.10293E-03   -0.10275E-03  7488   0.171E-02 0.111E-04
CGA:  26    -0.334658265832E+03   -0.29531E-04   -0.29499E-04  7488   0.847E-03 0.591E-06
CGA:  27    -0.334658287109E+03   -0.21277E-04   -0.21271E-04  7488   0.222E-02-0.767E-06
CGA:  28    -0.334658389688E+03   -0.10258E-03   -0.10264E-03  7488   0.143E-02-0.523E-05
CGA:  29    -0.334658413253E+03   -0.23564E-04   -0.23542E-04  7488   0.660E-03-0.159E-05
CGA:  30    -0.334658427012E+03   -0.13759E-04   -0.13755E-04  7488   0.516E-03-0.627E-06
CGA:  31    -0.334658442401E+03   -0.15389E-04   -0.15388E-04  7488   0.130E-02-0.295E-06
CGA:  32    -0.334658469294E+03   -0.26893E-04   -0.26902E-04  7488   0.556E-03 0.407E-06
CGA:  33    -0.334658481752E+03   -0.12458E-04   -0.12466E-04  7488   0.195E-03 0.566E-06
CGA:  34    -0.334658486222E+03   -0.44699E-05   -0.44743E-05  7488   0.305E-03 0.512E-06
CGA:  35    -0.334658500641E+03   -0.14419E-04   -0.14378E-04  7488   0.754E-03 0.258E-05
SDA:  36    -0.334658508909E+03   -0.82676E-05   -0.82874E-05  7488   0.128E-03 0.173E-05
   5 F= -.33465851E+03 E0= -.33462296E+03  d E =0.651125E-01  mag=    32.0000
       N       E                     dE             d eps       ncg     rms          ort
SDA:   1    -0.330451428807E+03    0.42071E+01    0.00000E+00  7488   0.306E+03 0.000E+00
CGA:   2    -0.331075451392E+03   -0.62402E+00   -0.34735E+01  7488   0.179E+03-0.197E+03
CGA:   3    -0.332418871439E+03   -0.13434E+01   -0.13027E+01  7488   0.910E+01-0.225E+02
CGA:   4    -0.332670370806E+03   -0.25150E+00   -0.25036E+00  7488   0.214E+02 0.206E+00
CGA:   5    -0.333566251294E+03   -0.89588E+00   -0.91100E+00  7488   0.392E+02-0.837E+00
CGA:   6    -0.334078028834E+03   -0.51178E+00   -0.53658E+00  7488   0.743E+01-0.103E+01
CGA:   7    -0.334178298173E+03   -0.10027E+00   -0.96208E-01  7488   0.350E+01 0.157E+00
CGA:   8    -0.334329425183E+03   -0.15113E+00   -0.14987E+00  7488   0.890E+01 0.742E-01
CGA:   9    -0.334507862253E+03   -0.17844E+00   -0.17642E+00  7488   0.416E+01-0.229E-01
CGA:  10    -0.334569844674E+03   -0.61982E-01   -0.61591E-01  7488   0.169E+01 0.894E-02
CGA:  11    -0.334599570688E+03   -0.29726E-01   -0.29204E-01  7488   0.101E+01 0.414E-02
CGA:  12    -0.334623196232E+03   -0.23626E-01   -0.23659E-01  7488   0.143E+01 0.387E-02
CGA:  13    -0.334663672850E+03   -0.40477E-01   -0.40450E-01  7488   0.833E+00 0.896E-02
CGA:  14    -0.334672883874E+03   -0.92110E-02   -0.93977E-02  7488   0.192E+00-0.106E-01
CGA:  15    -0.334677483304E+03   -0.45994E-02   -0.45980E-02  7488   0.324E+00-0.440E-03
CGA:  16    -0.334689183335E+03   -0.11700E-01   -0.11733E-01  7488   0.384E+00-0.244E-02
CGA:  17    -0.334694869993E+03   -0.56867E-02   -0.56677E-02  7488   0.138E+00 0.466E-03
CGA:  18    -0.334697016139E+03   -0.21461E-02   -0.21574E-02  7488   0.671E-01-0.132E-03
CGA:  19    -0.334698260629E+03   -0.12445E-02   -0.12442E-02  7488   0.569E-01 0.676E-05
CGA:  20    -0.334700619400E+03   -0.23588E-02   -0.23501E-02  7488   0.137E+00 0.477E-03
CGA:  21    -0.334703273708E+03   -0.26543E-02   -0.26548E-02  7488   0.521E-01 0.464E-04
CGA:  22    -0.334703891877E+03   -0.61817E-03   -0.61970E-03  7488   0.151E-01-0.560E-04
CGA:  23    -0.334704370096E+03   -0.47822E-03   -0.47844E-03  7488   0.339E-01-0.221E-04
CGA:  24    -0.334705575019E+03   -0.12049E-02   -0.12048E-02  7488   0.469E-01 0.112E-04
CGA:  25    -0.334706233694E+03   -0.65867E-03   -0.65690E-03  7488   0.124E-01 0.460E-04
CGA:  26    -0.334706448820E+03   -0.21513E-03   -0.21512E-03  7488   0.885E-02-0.815E-06
CGA:  27    -0.334706694625E+03   -0.24580E-03   -0.24586E-03  7488   0.142E-01-0.118E-04
CGA:  28    -0.334707112967E+03   -0.41834E-03   -0.41817E-03  7488   0.189E-01 0.249E-04
CGA:  29    -0.334707460077E+03   -0.34711E-03   -0.34726E-03  7488   0.613E-02 0.534E-05
CGA:  30    -0.334707537834E+03   -0.77757E-04   -0.77848E-04  7488   0.259E-02 0.417E-07
CGA:  31    -0.334707627796E+03   -0.89961E-04   -0.89941E-04  7488   0.676E-02 0.251E-05
CGA:  32    -0.334707870521E+03   -0.24273E-03   -0.24249E-03  7488   0.606E-02 0.203E-04
SDA:  33    -0.334707942300E+03   -0.71779E-04   -0.71761E-04  7488   0.146E-02 0.722E-05
CGA:  34    -0.334707954906E+03   -0.12606E-04   -0.12610E-04  7488   0.648E-03-0.853E-06
CGA:  35    -0.334708001574E+03   -0.46668E-04   -0.46794E-04  7488   0.129E-02-0.221E-05
CGA:  36    -0.334708060021E+03   -0.58447E-04   -0.58625E-04  7488   0.143E-02-0.895E-05
CGA:  37    -0.334708076849E+03   -0.16828E-04   -0.16828E-04  7488   0.553E-03-0.167E-05
CGA:  38    -0.334708099296E+03   -0.22447E-04   -0.22429E-04  7488   0.182E-02 0.128E-05
CGA:  39    -0.334708132462E+03   -0.33166E-04   -0.33209E-04  7488   0.578E-03 0.328E-05
CGA:  40    -0.334708145320E+03   -0.12858E-04   -0.12864E-04  7488   0.171E-03 0.156E-05
CGA:  41    -0.334708154377E+03   -0.90575E-05   -0.90380E-05  7488   0.328E-03 0.702E-06
CGA:  42    -0.334708165210E+03   -0.10833E-04   -0.10825E-04  7488   0.883E-03 0.148E-05
CGA:  43    -0.334708179281E+03   -0.14071E-04   -0.14094E-04  7488   0.749E-04 0.149E-05
CGA:  44    -0.334708182745E+03   -0.34645E-05   -0.34645E-05  7488   0.322E-03-0.118E-07
CGA:  45    -0.334708198793E+03   -0.16047E-04   -0.16054E-04  7488   0.742E-04-0.324E-06
CGA:  46    -0.334708200453E+03   -0.16607E-05   -0.16594E-05  7488   0.129E-03-0.218E-06
   6 F= -.33470820E+03 E0= -.33467277E+03  d E =0.154209E-01  mag=    32.0000
       N       E                     dE             d eps       ncg     rms          ort
SDA:   1    -0.333528199074E+03    0.11800E+01    0.00000E+00  7488   0.981E+02 0.000E+00
CGA:   2    -0.334045674602E+03   -0.51748E+00   -0.78475E+00  7488   0.140E+02-0.318E+02
CGA:   3    -0.334157529187E+03   -0.11185E+00   -0.10758E+00  7488   0.177E+01 0.213E+00
CGA:   4    -0.334271052754E+03   -0.11352E+00   -0.11186E+00  7488   0.104E+02 0.509E-01
CGA:   5    -0.334549082654E+03   -0.27803E+00   -0.27757E+00  7488   0.251E+01-0.650E-01
CGA:   6    -0.334577644376E+03   -0.28562E-01   -0.28617E-01  7488   0.112E+01-0.451E-02
CGA:   7    -0.334616874379E+03   -0.39230E-01   -0.39771E-01  7488   0.152E+01-0.501E-01
CGA:   8    -0.334644939939E+03   -0.28066E-01   -0.28133E-01  7488   0.164E+01 0.207E-03
CGA:   9    -0.334687689155E+03   -0.42749E-01   -0.42774E-01  7488   0.443E+00 0.670E-02
CGA:  10    -0.334692372633E+03   -0.46835E-02   -0.47199E-02  7488   0.194E+00-0.239E-02
CGA:  11    -0.334702396362E+03   -0.10024E-01   -0.10044E-01  7488   0.469E+00-0.798E-03
CGA:  12    -0.334709137583E+03   -0.67412E-02   -0.67447E-02  7488   0.138E+00-0.659E-04
CGA:  13    -0.334711313058E+03   -0.21755E-02   -0.21687E-02  7488   0.592E-01 0.137E-03
CGA:  14    -0.334712573804E+03   -0.12607E-02   -0.12626E-02  7488   0.795E-01 0.869E-04
CGA:  15    -0.334715478632E+03   -0.29048E-02   -0.29076E-02  7488   0.833E-01-0.210E-03
CGA:  16    -0.334716783829E+03   -0.13052E-02   -0.13019E-02  7488   0.442E-01 0.719E-04
CGA:  17    -0.334717423981E+03   -0.64015E-03   -0.63656E-03  7488   0.106E-01 0.107E-03
CGA:  18    -0.334717715778E+03   -0.29180E-03   -0.29176E-03  7488   0.244E-01 0.158E-04
CGA:  19    -0.334718718661E+03   -0.10029E-02   -0.10016E-02  7488   0.213E-01 0.795E-04
CGA:  20    -0.334718972598E+03   -0.25394E-03   -0.25488E-03  7488   0.795E-02-0.333E-04
CGA:  21    -0.334719155823E+03   -0.18322E-03   -0.18319E-03  7488   0.455E-02-0.208E-05
CGA:  22    -0.334719249953E+03   -0.94130E-04   -0.94129E-04  7488   0.709E-02 0.786E-06
CGA:  23    -0.334719603810E+03   -0.35386E-03   -0.35399E-03  7488   0.736E-02-0.539E-05
CGA:  24    -0.334719680463E+03   -0.76654E-04   -0.76640E-04  7488   0.175E-02 0.145E-06
CGA:  25    -0.334719738724E+03   -0.58260E-04   -0.58286E-04  7488   0.382E-02-0.321E-05
CGA:  26    -0.334719848366E+03   -0.10964E-03   -0.10965E-03  7488   0.485E-02-0.264E-05
CGA:  27    -0.334719939913E+03   -0.91547E-04   -0.91498E-04  7488   0.146E-02-0.381E-05
CGA:  28    -0.334719960446E+03   -0.20533E-04   -0.20535E-04  7488   0.101E-02 0.112E-06
CGA:  29    -0.334719996058E+03   -0.35612E-04   -0.35616E-04  7488   0.144E-02 0.131E-06
CGA:  30    -0.334720034416E+03   -0.38357E-04   -0.38355E-04  7488   0.221E-02 0.370E-05
CGA:  31    -0.334720077902E+03   -0.43486E-04   -0.43517E-04  7488   0.582E-03 0.457E-05
SDA:  32    -0.334720085921E+03   -0.80198E-05   -0.80300E-05  7488   0.425E-03 0.588E-06
   7 F= -.33472009E+03 E0= -.33468471E+03  d E =0.353548E-02  mag=    32.0000
       N       E                     dE             d eps       ncg     rms          ort
SDA:   1    -0.300402653033E+03    0.34317E+02    0.00000E+00  7488   0.123E+04 0.000E+00
CGA:   2    -0.328151759048E+03   -0.27749E+02   -0.25315E+02  7488   0.179E+03-0.318E+03
CGA:   3    -0.289001656805E+03    0.39150E+02   -0.12307E+02  7488   0.356E+03-0.103E+03
CGA:   4    -0.322054377486E+03   -0.33053E+02    0.71651E+01  7488   0.201E+03-0.261E+03
CGA:   5    -0.328063861516E+03   -0.60095E+01   -0.14266E+01  7488   0.462E+03 0.696E+03
CGA:   6    -0.333764612920E+03   -0.57008E+01   -0.33974E+01  7488   0.566E+02 0.113E+03
CGA:   7    -0.334203882882E+03   -0.43927E+00   -0.29305E+00  7488   0.262E+02 0.309E+02
CGA:   8    -0.334522890063E+03   -0.31901E+00   -0.28682E+00  7488   0.592E+01 0.163E+01
CGA:   9    -0.334590329464E+03   -0.67439E-01   -0.54712E-01  7488   0.928E+00 0.109E+01
CGA:  10    -0.334603676236E+03   -0.13347E-01   -0.12622E-01  7488   0.613E+00 0.322E-01
CGA:  11    -0.334612981144E+03   -0.93049E-02   -0.92785E-02  7488   0.628E+00 0.163E-03
CGA:  12    -0.334628306712E+03   -0.15326E-01   -0.15316E-01  7488   0.178E+01 0.264E-02
CGA:  13    -0.334660903931E+03   -0.32597E-01   -0.32759E-01  7488   0.984E+00 0.125E-01
CGA:  14    -0.334669638637E+03   -0.87347E-02   -0.84867E-02  7488   0.434E+00 0.196E-01
CGA:  15    -0.334676112315E+03   -0.64737E-02   -0.65137E-02  7488   0.362E+00 0.186E-03
CGA:  16    -0.334682427054E+03   -0.63147E-02   -0.63173E-02  7488   0.675E+00 0.175E-03
CGA:  17    -0.334697068790E+03   -0.14642E-01   -0.14653E-01  7488   0.547E+00-0.730E-02
CGA:  18    -0.334701496526E+03   -0.44277E-02   -0.46006E-02  7488   0.196E+00-0.131E-01
CGA:  19    -0.334704811849E+03   -0.33153E-02   -0.33417E-02  7488   0.187E+00 0.315E-02
CGA:  20    -0.334707197915E+03   -0.23861E-02   -0.24351E-02  7488   0.120E+00-0.471E-03
CGA:  21    -0.334712391033E+03   -0.51931E-02   -0.50764E-02  7488   0.256E+00 0.517E-02
CGA:  22    -0.334715178206E+03   -0.27872E-02   -0.27772E-02  7488   0.437E-01 0.533E-03
CGA:  23    -0.334716250492E+03   -0.10723E-02   -0.10702E-02  7488   0.544E-01 0.335E-03
CGA:  24    -0.334717753085E+03   -0.15026E-02   -0.15000E-02  7488   0.100E+00 0.272E-03
CGA:  25    -0.334720281503E+03   -0.25284E-02   -0.25177E-02  7488   0.273E-01 0.172E-02
CGA:  26    -0.334720739972E+03   -0.45847E-03   -0.45762E-03  7488   0.159E-01-0.491E-04
CGA:  27    -0.334720978100E+03   -0.23813E-03   -0.23817E-03  7488   0.886E-02-0.359E-05
CGA:  28    -0.334721701562E+03   -0.72346E-03   -0.71878E-03  7488   0.248E-01 0.930E-04
CGA:  29    -0.334721958911E+03   -0.25735E-03   -0.25927E-03  7488   0.446E-02-0.113E-03
CGA:  30    -0.334722149573E+03   -0.19066E-03   -0.19007E-03  7488   0.805E-02 0.275E-04
CGA:  31    -0.334722304173E+03   -0.15460E-03   -0.15481E-03  7488   0.933E-02 0.974E-05
CGA:  32    -0.334722561808E+03   -0.25763E-03   -0.25787E-03  7488   0.489E-02-0.405E-04
CGA:  33    -0.334722622664E+03   -0.60856E-04   -0.61195E-04  7488   0.228E-02-0.139E-04
CGA:  34    -0.334722673590E+03   -0.50926E-04   -0.50934E-04  7488   0.202E-02 0.263E-05
CGA:  35    -0.334722781757E+03   -0.10817E-03   -0.10821E-03  7488   0.327E-02-0.174E-05
CGA:  36    -0.334722818961E+03   -0.37204E-04   -0.37130E-04  7488   0.955E-03 0.106E-06
CGA:  37    -0.334722847756E+03   -0.28795E-04   -0.28807E-04  7488   0.111E-02-0.244E-05
SDA:  38    -0.334722868591E+03   -0.20835E-04   -0.20827E-04  7488   0.141E-02-0.160E-05
CGA:  39    -0.334722884642E+03   -0.16051E-04   -0.16085E-04  7488   0.641E-03-0.145E-05
CGA:  40    -0.334722895971E+03   -0.11329E-04   -0.11335E-04  7488   0.368E-03-0.170E-06
CGA:  41    -0.334722905523E+03   -0.95521E-05   -0.95503E-05  7488   0.667E-03 0.119E-06
CGA:  42    -0.334722925710E+03   -0.20187E-04   -0.20181E-04  7488   0.194E-03 0.341E-06
CGA:  43    -0.334722932618E+03   -0.69082E-05   -0.69112E-05  7488   0.255E-03-0.570E-06
CGA:  44    -0.334722951936E+03   -0.19317E-04   -0.19359E-04  7488   0.597E-03-0.116E-05
CGA:  45    -0.334722956919E+03   -0.49832E-05   -0.49898E-05  7488   0.824E-04-0.685E-06
   8 F= -.33472296E+03 E0= -.33468757E+03  d E =0.664479E-03  mag=    32.0000
       N       E                     dE             d eps       ncg     rms          ort
SDA:   1    -0.334711621747E+03    0.11330E-01    0.00000E+00  7488   0.129E+01 0.000E+00
CGA:   2    -0.334721520392E+03   -0.98986E-02   -0.10264E-01  7488   0.404E-01-0.366E-01
CGA:   3    -0.334722259850E+03   -0.73946E-03   -0.73715E-03  7488   0.104E-01-0.461E-04
CGA:   4    -0.334722353694E+03   -0.93844E-04   -0.93933E-04  7488   0.321E-02-0.924E-05
CGA:   5    -0.334722525499E+03   -0.17181E-03   -0.17198E-03  7488   0.110E-01-0.609E-05
CGA:   6    -0.334722738089E+03   -0.21259E-03   -0.21241E-03  7488   0.269E-02-0.116E-04
CGA:   7    -0.334722832403E+03   -0.94314E-04   -0.94372E-04  7488   0.301E-02-0.487E-05
CGA:   8    -0.334722951788E+03   -0.11938E-03   -0.11933E-03  7488   0.406E-02 0.417E-05
CGA:   9    -0.334723014753E+03   -0.62965E-04   -0.63084E-04  7488   0.116E-02 0.260E-05
CGA:  10    -0.334723035587E+03   -0.20834E-04   -0.20873E-04  7488   0.602E-03 0.282E-05
CGA:  11    -0.334723043683E+03   -0.80957E-05   -0.81257E-05  7488   0.486E-03 0.199E-05
CGA:  12    -0.334723084560E+03   -0.40877E-04   -0.40079E-04  7488   0.510E-03 0.140E-04
CGA:  13    -0.334723089945E+03   -0.53853E-05   -0.54094E-05  7488   0.695E-04 0.142E-05
   9 F= -.33472309E+03 E0= -.33468773E+03  d E =0.531453E-03  mag=    32.0000
       N       E                     dE             d eps       ncg     rms          ort
SDA:   1    -0.334705078533E+03    0.18006E-01    0.00000E+00  7488   0.188E+01 0.000E+00
CGA:   2    -0.334718822930E+03   -0.13744E-01   -0.12994E-01  7488   0.851E-01 0.901E-01
CGA:   3    -0.334719895495E+03   -0.10726E-02   -0.10822E-02  7488   0.364E-01-0.469E-03
CGA:   4    -0.334720427873E+03   -0.53238E-03   -0.53236E-03  7488   0.102E-01-0.108E-05
CGA:   5    -0.334721128566E+03   -0.70069E-03   -0.70547E-03  7488   0.436E-01-0.122E-03
CGA:   6    -0.334721955187E+03   -0.82662E-03   -0.82706E-03  7488   0.382E-01-0.581E-05
CGA:   7    -0.334722536261E+03   -0.58107E-03   -0.58103E-03  7488   0.880E-02-0.848E-05
CGA:   8    -0.334722654656E+03   -0.11840E-03   -0.11844E-03  7488   0.593E-02-0.477E-05
CGA:   9    -0.334722908934E+03   -0.25428E-03   -0.25368E-03  7488   0.588E-02 0.310E-04
CGA:  10    -0.334723052589E+03   -0.14366E-03   -0.14361E-03  7488   0.724E-02-0.901E-05
CGA:  11    -0.334723133026E+03   -0.80437E-04   -0.80141E-04  7488   0.119E-02 0.126E-04
CGA:  12    -0.334723174625E+03   -0.41599E-04   -0.41607E-04  7488   0.323E-02-0.109E-05
CGA:  13    -0.334723250325E+03   -0.75699E-04   -0.75689E-04  7488   0.765E-03-0.233E-05
CGA:  14    -0.334723265050E+03   -0.14726E-04   -0.14722E-04  7488   0.742E-03 0.211E-06
CGA:  15    -0.334723273971E+03   -0.89208E-05   -0.89118E-05  7488   0.206E-03 0.108E-05
CGA:  16    -0.334723285820E+03   -0.11849E-04   -0.11768E-04  7488   0.724E-03 0.256E-05
CGA:  17    -0.334723299300E+03   -0.13480E-04   -0.13510E-04  7488   0.281E-03 0.332E-05
CGA:  18    -0.334723303669E+03   -0.43691E-05   -0.43829E-05  7488   0.102E-03 0.125E-05
  10 F= -.33472330E+03 E0= -.33468795E+03  d E =0.317729E-03  mag=    32.0000
       N       E                     dE             d eps       ncg     rms          ort
SDA:   1    -0.334651513992E+03    0.71785E-01    0.00000E+00  7488   0.808E+01 0.000E+00
CGA:   2    -0.334699498807E+03   -0.47985E-01   -0.51186E-01  7488   0.176E+00-0.446E+00
CGA:   3    -0.334702052262E+03   -0.25535E-02   -0.25441E-02  7488   0.109E+00 0.836E-04
CGA:   4    -0.334705203785E+03   -0.31515E-02   -0.31463E-02  7488   0.227E+00 0.711E-03
CGA:   5    -0.334715459490E+03   -0.10256E-01   -0.10296E-01  7488   0.243E+00-0.184E-02
CGA:   6    -0.334717810365E+03   -0.23509E-02   -0.23743E-02  7488   0.414E-01-0.166E-02
CGA:   7    -0.334719110706E+03   -0.13003E-02   -0.13065E-02  7488   0.580E-01-0.620E-03
CGA:   8    -0.334720099423E+03   -0.98872E-03   -0.98877E-03  7488   0.533E-01 0.968E-05
CGA:   9    -0.334722262414E+03   -0.21630E-02   -0.21618E-02  7488   0.348E-01 0.673E-04
CGA:  10    -0.334722624024E+03   -0.36161E-03   -0.36297E-03  7488   0.860E-02-0.765E-04
CGA:  11    -0.334722789648E+03   -0.16562E-03   -0.16539E-03  7488   0.699E-02-0.102E-04
CGA:  12    -0.334723080886E+03   -0.29124E-03   -0.29122E-03  7488   0.174E-01 0.364E-06
CGA:  13    -0.334723365194E+03   -0.28431E-03   -0.28392E-03  7488   0.290E-02-0.280E-05
CGA:  14    -0.334723407322E+03   -0.42129E-04   -0.42161E-04  7488   0.198E-02-0.360E-06
CGA:  15    -0.334723451039E+03   -0.43716E-04   -0.43726E-04  7488   0.139E-02 0.200E-05
CGA:  16    -0.334723515789E+03   -0.64750E-04   -0.64674E-04  7488   0.408E-02 0.335E-05
CGA:  17    -0.334723573864E+03   -0.58075E-04   -0.58072E-04  7488   0.541E-03 0.237E-05
CGA:  18    -0.334723584601E+03   -0.10737E-04   -0.10744E-04  7488   0.592E-03 0.125E-05
CGA:  19    -0.334723599210E+03   -0.14609E-04   -0.14608E-04  7488   0.595E-03 0.208E-05
CGA:  20    -0.334723616414E+03   -0.17204E-04   -0.17192E-04  7488   0.740E-03 0.280E-05
CGA:  21    -0.334723627975E+03   -0.11562E-04   -0.11573E-04  7488   0.287E-03 0.151E-05
CGA:  22    -0.334723633859E+03   -0.58840E-05   -0.58863E-05  7488   0.190E-03 0.590E-06
  11 F= -.33472363E+03 E0= -.33468829E+03  d E =-.124618E-04  mag=    32.0000
       N       E                     dE             d eps       ncg     rms          ort
SDA:   1    -0.334501227587E+03    0.22240E+00    0.00000E+00  7488   0.333E+02 0.000E+00
CGA:   2    -0.334709323387E+03   -0.20810E+00   -0.24450E+00  7488   0.124E+01-0.415E+01
CGA:   3    -0.334717311517E+03   -0.79881E-02   -0.78159E-02  7488   0.687E-01 0.181E-01
CGA:   4    -0.334718324130E+03   -0.10126E-02   -0.10085E-02  7488   0.309E-01 0.243E-04
CGA:   5    -0.334718931036E+03   -0.60691E-03   -0.60679E-03  7488   0.328E-01-0.200E-04
CGA:   6    -0.334719794574E+03   -0.86354E-03   -0.86421E-03  7488   0.686E-01-0.105E-03
CGA:   7    -0.334721474082E+03   -0.16795E-02   -0.16793E-02  7488   0.481E-01 0.322E-04
CGA:   8    -0.334722350304E+03   -0.87622E-03   -0.87699E-03  7488   0.186E-01 0.493E-04
CGA:   9    -0.334722529037E+03   -0.17873E-03   -0.17846E-03  7488   0.794E-02 0.148E-04
CGA:  10    -0.334722903097E+03   -0.37406E-03   -0.37442E-03  7488   0.212E-01-0.146E-04
CGA:  11    -0.334723245973E+03   -0.34288E-03   -0.34344E-03  7488   0.591E-02 0.106E-04
CGA:  12    -0.334723331460E+03   -0.85486E-04   -0.85523E-04  7488   0.520E-02-0.506E-06
CGA:  13    -0.334723425733E+03   -0.94274E-04   -0.94374E-04  7488   0.273E-02 0.756E-05
CGA:  14    -0.334723548809E+03   -0.12308E-03   -0.12307E-03  7488   0.609E-02 0.300E-06
CGA:  15    -0.334723618182E+03   -0.69373E-04   -0.69292E-04  7488   0.106E-02 0.173E-05
CGA:  16    -0.334723629410E+03   -0.11228E-04   -0.11236E-04  7488   0.466E-03-0.470E-06
CGA:  17    -0.334723657201E+03   -0.27791E-04   -0.27788E-04  7488   0.129E-02 0.531E-07
CGA:  18    -0.334723680636E+03   -0.23435E-04   -0.23438E-04  7488   0.887E-03 0.379E-06
CGA:  19    -0.334723689752E+03   -0.91151E-05   -0.91305E-05  7488   0.154E-03 0.315E-06
  12 F= -.33472369E+03 E0= -.33468835E+03  d E =-.683539E-04  mag=    32.0000
       N       E                     dE             d eps       ncg     rms          ort
SDA:   1    -0.334665529037E+03    0.58152E-01    0.00000E+00  7488   0.775E+01 0.000E+00
CGA:   2    -0.334720510497E+03   -0.54981E-01   -0.59584E-01  7488   0.197E+00-0.459E+00
CGA:   3    -0.334721919943E+03   -0.14094E-02   -0.13985E-02  7488   0.229E-01 0.106E-02
CGA:   4    -0.334722227114E+03   -0.30717E-03   -0.30689E-03  7488   0.816E-02 0.163E-05
CGA:   5    -0.334722538101E+03   -0.31099E-03   -0.31125E-03  7488   0.195E-01-0.145E-04
CGA:   6    -0.334722914756E+03   -0.37666E-03   -0.37649E-03  7488   0.973E-02-0.282E-04
CGA:   7    -0.334723016776E+03   -0.10202E-03   -0.10225E-03  7488   0.399E-02-0.133E-04
CGA:   8    -0.334723248487E+03   -0.23171E-03   -0.23075E-03  7488   0.948E-02 0.294E-04
CGA:   9    -0.334723426954E+03   -0.17847E-03   -0.17839E-03  7488   0.768E-02-0.301E-05
CGA:  10    -0.334723536037E+03   -0.10908E-03   -0.10894E-03  7488   0.294E-02 0.436E-05
CGA:  11    -0.334723572120E+03   -0.36083E-04   -0.36058E-04  7488   0.980E-03 0.173E-05
CGA:  12    -0.334723612414E+03   -0.40294E-04   -0.40293E-04  7488   0.216E-02 0.434E-07
CGA:  13    -0.334723659145E+03   -0.46731E-04   -0.46736E-04  7488   0.213E-02 0.270E-05
CGA:  14    -0.334723683502E+03   -0.24357E-04   -0.24364E-04  7488   0.334E-03 0.598E-06
CGA:  15    -0.334723689541E+03   -0.60385E-05   -0.60369E-05  7488   0.326E-03-0.145E-06
CGA:  16    -0.334723704598E+03   -0.15057E-04   -0.15068E-04  7488   0.530E-03-0.469E-06
CGA:  17    -0.334723710587E+03   -0.59896E-05   -0.59836E-05  7488   0.223E-03-0.197E-06
  13 F= -.33472371E+03 E0= -.33468837E+03  d E =-.891896E-04  mag=    32.0000
       N       E                     dE             d eps       ncg     rms          ort
SDA:   1    -0.334713425243E+03    0.10279E-01    0.00000E+00  7488   0.127E+01 0.000E+00
CGA:   2    -0.334723202345E+03   -0.97771E-02   -0.96167E-02  7488   0.132E-01 0.154E-01
CGA:   3    -0.334723388554E+03   -0.18621E-03   -0.18580E-03  7488   0.198E-02 0.492E-05
CGA:   4    -0.334723419697E+03   -0.31143E-04   -0.31142E-04  7488   0.259E-02 0.113E-05
CGA:   5    -0.334723551176E+03   -0.13148E-03   -0.13095E-03  7488   0.241E-02 0.186E-04
CGA:   6    -0.334723584161E+03   -0.32984E-04   -0.32987E-04  7488   0.133E-02 0.205E-05
CGA:   7    -0.334723629236E+03   -0.45075E-04   -0.44997E-04  7488   0.936E-03 0.575E-05
CGA:   8    -0.334723695273E+03   -0.66038E-04   -0.66275E-04  7488   0.743E-03-0.512E-05
CGA:   9    -0.334723704086E+03   -0.88126E-05   -0.87929E-05  7488   0.252E-03-0.118E-05
  14 F= -.33472370E+03 E0= -.33468837E+03  d E =-.826885E-04  mag=    32.0000
       N       E                     dE             d eps       ncg     rms          ort
SDA:   1    -0.334705603652E+03    0.18092E-01    0.00000E+00  7488   0.209E+01 0.000E+00
CGA:   2    -0.334722041004E+03   -0.16437E-01   -0.15762E-01  7488   0.113E+00 0.678E-01
CGA:   3    -0.334723293682E+03   -0.12527E-02   -0.12545E-02  7488   0.183E-01-0.100E-03
CGA:   4    -0.334723462424E+03   -0.16874E-03   -0.16857E-03  7488   0.297E-02 0.105E-04
CGA:   5    -0.334723575357E+03   -0.11293E-03   -0.11314E-03  7488   0.235E-02-0.121E-04
CGA:   6    -0.334723616653E+03   -0.41295E-04   -0.41273E-04  7488   0.181E-02-0.193E-05
CGA:   7    -0.334723650953E+03   -0.34300E-04   -0.34292E-04  7488   0.320E-03-0.183E-05
CGA:   8    -0.334723669013E+03   -0.18060E-04   -0.18141E-04  7488   0.120E-02-0.237E-05
CGA:   9    -0.334723697336E+03   -0.28323E-04   -0.28322E-04  7488   0.943E-03-0.445E-05
CGA:  10    -0.334723713239E+03   -0.15903E-04   -0.15871E-04  7488   0.137E-03-0.291E-05
CGA:  11    -0.334723714793E+03   -0.15537E-05   -0.15482E-05  7488   0.906E-04-0.462E-06
  15 F= -.33472371E+03 E0= -.33468837E+03  d E =-.933954E-04  mag=    32.0000
       N       E                     dE             d eps       ncg     rms          ort
SDA:   1    -0.334703599156E+03    0.20114E-01    0.00000E+00  7488   0.209E+01 0.000E+00
CGA:   2    -0.334720579424E+03   -0.16980E-01   -0.15496E-01  7488   0.198E+00 0.157E+00
CGA:   3    -0.334723212011E+03   -0.26326E-02   -0.26063E-02  7488   0.438E-01 0.104E-02
CGA:   4    -0.334723621504E+03   -0.40949E-03   -0.40301E-03  7488   0.308E-02 0.480E-03
CGA:   5    -0.334723660410E+03   -0.38906E-04   -0.38794E-04  7488   0.874E-03 0.379E-05
CGA:   6    -0.334723669024E+03   -0.86131E-05   -0.86236E-05  7488   0.327E-03 0.200E-06
CGA:   7    -0.334723691773E+03   -0.22749E-04   -0.22606E-04  7488   0.114E-02 0.308E-05
CGA:   8    -0.334723707295E+03   -0.15522E-04   -0.15530E-04  7488   0.421E-03 0.178E-05
CGA:   9    -0.334723715649E+03   -0.83534E-05   -0.83527E-05  7488   0.259E-03 0.406E-06
  16 F= -.33472372E+03 E0= -.33468838E+03  d E =-.942510E-04  mag=    32.0000
       N       E                     dE             d eps       ncg     rms          ort
SDA:   1    -0.334721848543E+03    0.18588E-02    0.00000E+00  7488   0.151E+00 0.000E+00
CGA:   2    -0.334723254200E+03   -0.14057E-02   -0.13900E-02  7488   0.336E-01 0.110E-02
CGA:   3    -0.334723654993E+03   -0.40079E-03   -0.39732E-03  7488   0.349E-02 0.124E-03
CGA:   4    -0.334723690477E+03   -0.35484E-04   -0.35379E-04  7488   0.715E-03 0.443E-05
CGA:   5    -0.334723707089E+03   -0.16612E-04   -0.16612E-04  7488   0.432E-03-0.507E-06
CGA:   6    -0.334723723085E+03   -0.15996E-04   -0.16003E-04  7488   0.488E-04-0.471E-06
CGA:   7    -0.334723723985E+03   -0.90004E-06   -0.90017E-06  7488   0.775E-04 0.405E-07
  17 F= -.33472372E+03 E0= -.33468839E+03  d E =-.102588E-03  mag=    32.0000
       N       E                     dE             d eps       ncg     rms          ort
SDA:   1    -0.334717299723E+03    0.64234E-02    0.00000E+00  7488   0.690E+00 0.000E+00
CGA:   2    -0.334722398738E+03   -0.50990E-02   -0.51969E-02  7488   0.782E-01-0.976E-02
CGA:   3    -0.334723518953E+03   -0.11202E-02   -0.11061E-02  7488   0.216E-01-0.197E-04
CGA:   4    -0.334723709872E+03   -0.19092E-03   -0.18945E-03  7488   0.180E-03 0.109E-03
CGA:   5    -0.334723715670E+03   -0.57985E-05   -0.57865E-05  7488   0.176E-03 0.983E-06
CGA:   6    -0.334723719237E+03   -0.35673E-05   -0.35677E-05  7488   0.267E-03 0.536E-06
  18 F= -.33472372E+03 E0= -.33468840E+03  d E =-.978398E-04  mag=    32.0000
       N       E                     dE             d eps       ncg     rms          ort
SDA:   1    -0.334717059828E+03    0.66558E-02    0.00000E+00  7488   0.556E+00 0.000E+00
CGA:   2    -0.334722891380E+03   -0.58316E-02   -0.59956E-02  7488   0.980E-01-0.731E-02
CGA:   3    -0.334723632736E+03   -0.74136E-03   -0.73937E-03  7488   0.297E-02 0.179E-03
CGA:   4    -0.334723687299E+03   -0.54562E-04   -0.54594E-04  7488   0.957E-03 0.936E-05
CGA:   5    -0.334723701046E+03   -0.13747E-04   -0.13750E-04  7488   0.491E-03 0.283E-06
CGA:   6    -0.334723721101E+03   -0.20056E-04   -0.19992E-04  7488   0.119E-03 0.304E-05
CGA:   7    -0.334723722198E+03   -0.10961E-05   -0.10984E-05  7488   0.546E-04 0.210E-06
  19 F= -.33472372E+03 E0= -.33468840E+03  d E =-.100800E-03  mag=    32.0000
