       N       E                     dE             d eps       ncg     rms          rms(c)
DAV:   1     0.834703868823E+04    0.83470E+04   -0.33064E+05 32856   0.163E+03
DAV:   2     0.634615959647E+03   -0.77124E+04   -0.71429E+04 32008   0.488E+02
DAV:   3    -0.416450380341E+03   -0.10511E+04   -0.10250E+04 32856   0.195E+02
DAV:   4    -0.467558652330E+03   -0.51108E+02   -0.50344E+02 38544   0.392E+01
DAV:   5    -0.469974216746E+03   -0.24156E+01   -0.23569E+01 50088   0.658E+00    0.774E+01
DAV:   6    -0.434765882901E+03    0.35208E+02   -0.35001E+02 37528   0.402E+01    0.645E+01
DAV:   7    -0.435488206962E+03   -0.72232E+00   -0.35469E+01 33480   0.181E+01    0.428E+01
DAV:   8    -0.435196421778E+03    0.29179E+00   -0.50792E+00 39928   0.664E+00    0.274E+01
DAV:   9    -0.435362814707E+03   -0.16639E+00   -0.39604E+00 35568   0.609E+00    0.183E+01
DAV:  10    -0.435189122752E+03    0.17369E+00   -0.24864E+00 36304   0.528E+00    0.822E+00
DAV:  11    -0.435196870860E+03   -0.77481E-02   -0.39669E-01 36664   0.257E+00    0.387E+00
DAV:  12    -0.435200737342E+03   -0.38665E-02   -0.14677E-01 35320   0.122E+00    0.131E+00
DAV:  13    -0.435207527744E+03   -0.67904E-02   -0.39209E-02 39328   0.616E-01    0.131E+00
DAV:  14    -0.435209200037E+03   -0.16723E-02   -0.14028E-02 34368   0.428E-01    0.593E-01
DAV:  15    -0.435211928339E+03   -0.27283E-02   -0.36886E-03 36216   0.194E-01    0.436E-01
DAV:  16    -0.435213781642E+03   -0.18533E-02   -0.25726E-03 33696   0.182E-01    0.330E-01
DAV:  17    -0.435214357932E+03   -0.57629E-03   -0.12089E-03 34152   0.122E-01    0.137E-01
DAV:  18    -0.435214481571E+03   -0.12364E-03   -0.41927E-04 36200   0.586E-02    0.784E-02
DAV:  19    -0.435214505308E+03   -0.23738E-04   -0.12831E-04 33936   0.323E-02    0.522E-02
DAV:  20    -0.435214510735E+03   -0.54263E-05   -0.44849E-05 28512   0.211E-02
   1 F= -.43521451E+03 E0= -.43520526E+03  d E =-.435215E+03  mag=    77.9994
       N       E                     dE             d eps       ncg     rms          rms(c)
DAV:   1    -0.435264772111E+03   -0.50267E-01   -0.39027E-02 34224   0.315E-01    0.508E-02
DAV:   2    -0.435264905899E+03   -0.13379E-03   -0.14434E-03 32720   0.589E-02    0.547E-02
DAV:   3    -0.435264905534E+03    0.36495E-06   -0.55167E-05 30280   0.210E-02    0.354E-02
DAV:   4    -0.435264902710E+03    0.28234E-05   -0.60417E-06 19704   0.910E-03
   2 F= -.43526490E+03 E0= -.43525565E+03  d E =-.503920E-01  mag=    77.9998
       N       E                     dE             d eps       ncg     rms          rms(c)
DAV:   1    -0.437029978322E+03   -0.17651E+01   -0.13267E+02 34728   0.184E+01    0.282E+00
DAV:   2    -0.437623558450E+03   -0.59358E+00   -0.62914E+00 33776   0.334E+00    0.224E+00
DAV:   3    -0.437613145730E+03    0.10413E-01   -0.15617E-01 40232   0.782E-01    0.143E+00
DAV:   4    -0.437604665458E+03    0.84803E-02   -0.24780E-02 38800   0.355E-01    0.102E+00
DAV:   5    -0.437595847174E+03    0.88183E-02   -0.18325E-02 37512   0.382E-01    0.673E-01
DAV:   6    -0.437596002052E+03   -0.15488E-03   -0.10030E-02 37344   0.251E-01    0.416E-01
DAV:   7    -0.437595669151E+03    0.33290E-03   -0.21036E-03 38360   0.149E-01    0.239E-01
DAV:   8    -0.437595618370E+03    0.50781E-04   -0.70154E-04 36392   0.802E-02    0.945E-02
DAV:   9    -0.437595620483E+03   -0.21124E-05   -0.10974E-04 33352   0.331E-02    0.727E-02
DAV:  10    -0.437595615333E+03    0.51500E-05   -0.35585E-05 26944   0.229E-02
   3 F= -.43759562E+03 E0= -.43758656E+03  d E =-.233071E+01  mag=    78.0000
       N       E                     dE             d eps       ncg     rms          rms(c)
DAV:   1    -0.437077228654E+03    0.51839E+00   -0.37536E+02 35152   0.374E+01    0.665E+00
DAV:   2    -0.439812235478E+03   -0.27350E+01   -0.27922E+01 33624   0.740E+00    0.638E+00
DAV:   3    -0.439781867271E+03    0.30368E-01   -0.84210E-01 40016   0.229E+00    0.337E+00
DAV:   4    -0.439752436818E+03    0.29430E-01   -0.13066E-01 38584   0.910E-01    0.182E+00
DAV:   5    -0.439732154305E+03    0.20283E-01   -0.32596E-02 37728   0.541E-01    0.157E+00
DAV:   6    -0.439721744889E+03    0.10409E-01   -0.24578E-02 37984   0.519E-01    0.922E-01
DAV:   7    -0.439719791765E+03    0.19531E-02   -0.11552E-02 42320   0.336E-01    0.437E-01
DAV:   8    -0.439719530066E+03    0.26170E-03   -0.32183E-03 39960   0.158E-01    0.156E-01
DAV:   9    -0.439719556074E+03   -0.26008E-04   -0.64827E-04 40344   0.621E-02    0.126E-01
DAV:  10    -0.439719542006E+03    0.14068E-04   -0.22357E-04 36544   0.437E-02    0.531E-02
DAV:  11    -0.439719538865E+03    0.31403E-05   -0.42010E-05 29872   0.207E-02
   4 F= -.43971954E+03 E0= -.43971083E+03  d E =-.212392E+01  mag=    78.0000
       N       E                     dE             d eps       ncg     rms          rms(c)
DAV:   1    -0.438201981319E+03    0.15176E+01   -0.22096E+02 35736   0.398E+01    0.742E+00
DAV:   2    -0.440444121823E+03   -0.22421E+01   -0.21403E+01 33200   0.741E+00    0.683E+00
DAV:   3    -0.440483875024E+03   -0.39753E-01   -0.87722E-01 40648   0.250E+00    0.367E+00
DAV:   4    -0.440474555178E+03    0.93198E-02   -0.12565E-01 38512   0.953E-01    0.152E+00
DAV:   5    -0.440468145156E+03    0.64100E-02   -0.18331E-02 36656   0.373E-01    0.117E+00
DAV:   6    -0.440462750864E+03    0.53943E-02   -0.71475E-03 37376   0.289E-01    0.675E-01
DAV:   7    -0.440460862034E+03    0.18888E-02   -0.54796E-03 39624   0.240E-01    0.401E-01
DAV:   8    -0.440460839709E+03    0.22325E-04   -0.24755E-03 39768   0.150E-01    0.240E-01
DAV:   9    -0.440460836778E+03    0.29308E-05   -0.39699E-04 38008   0.653E-02    0.106E-01
DAV:  10    -0.440460839830E+03   -0.30513E-05   -0.10751E-04 36520   0.275E-02    0.614E-02
DAV:  11    -0.440460837476E+03    0.23540E-05   -0.29246E-05 27648   0.182E-02
   5 F= -.44046084E+03 E0= -.44045200E+03  d E =-.741299E+00  mag=    78.0000
       N       E                     dE             d eps       ncg     rms          rms(c)
DAV:   1    -0.438000790296E+03    0.24600E+01   -0.19753E+02 35264   0.464E+01    0.879E+00
DAV:   2    -0.440735880027E+03   -0.27351E+01   -0.25402E+01 32048   0.862E+00    0.780E+00
DAV:   3    -0.440812797008E+03   -0.76917E-01   -0.10629E+00 40848   0.282E+00    0.421E+00
DAV:   4    -0.440807678174E+03    0.51188E-02   -0.15757E-01 38312   0.111E+00    0.183E+00
DAV:   5    -0.440803303374E+03    0.43748E-02   -0.22995E-02 36352   0.431E-01    0.141E+00
DAV:   6    -0.440799205159E+03    0.40982E-02   -0.66724E-03 36416   0.281E-01    0.854E-01
DAV:   7    -0.440796689659E+03    0.25155E-02   -0.54899E-03 39848   0.272E-01    0.386E-01
DAV:   8    -0.440796718825E+03   -0.29166E-04   -0.34509E-03 38600   0.159E-01    0.184E-01
DAV:   9    -0.440796759488E+03   -0.40664E-04   -0.48290E-04 36672   0.599E-02    0.111E-01
DAV:  10    -0.440796758783E+03    0.70562E-06   -0.71017E-05 35816   0.246E-02
   6 F= -.44079676E+03 E0= -.44078733E+03  d E =-.335921E+00  mag=    78.0000
       N       E                     dE             d eps       ncg     rms          rms(c)
DAV:   1    -0.439548089064E+03    0.12487E+01   -0.11437E+02 34200   0.371E+01    0.588E+00
DAV:   2    -0.440907398197E+03   -0.13593E+01   -0.12767E+01 31896   0.677E+00    0.370E+00
DAV:   3    -0.440950826089E+03   -0.43428E-01   -0.38263E-01 40400   0.158E+00    0.237E+00
DAV:   4    -0.440946935653E+03    0.38904E-02   -0.47455E-02 38584   0.652E-01    0.117E+00
DAV:   5    -0.440943990666E+03    0.29450E-02   -0.74587E-03 37000   0.254E-01    0.858E-01
DAV:   6    -0.440941689674E+03    0.23010E-02   -0.47763E-03 36808   0.257E-01    0.647E-01
DAV:   7    -0.440940676186E+03    0.10135E-02   -0.48754E-03 39480   0.244E-01    0.228E-01
DAV:   8    -0.440940758153E+03   -0.81967E-04   -0.17894E-03 34440   0.113E-01    0.131E-01
DAV:   9    -0.440940777775E+03   -0.19621E-04   -0.18707E-04 37600   0.385E-02    0.985E-02
DAV:  10    -0.440940766730E+03    0.11045E-04   -0.60187E-05 26456   0.257E-02    0.327E-02
DAV:  11    -0.440940765784E+03    0.94657E-06   -0.15487E-05 23360   0.153E-02
   7 F= -.44094077E+03 E0= -.44093096E+03  d E =-.144007E+00  mag=    78.0000
       N       E                     dE             d eps       ncg     rms          rms(c)
DAV:   1    -0.438894376333E+03    0.20464E+01   -0.26386E+02 34600   0.510E+01    0.682E+00
DAV:   2    -0.441050550244E+03   -0.21562E+01   -0.20788E+01 31856   0.919E+00    0.445E+00
DAV:   3    -0.441099114315E+03   -0.48564E-01   -0.63252E-01 40080   0.210E+00    0.352E+00
DAV:   4    -0.441088224756E+03    0.10890E-01   -0.10034E-01 40832   0.925E-01    0.135E+00
DAV:   5    -0.441080684497E+03    0.75403E-02   -0.15923E-02 36464   0.382E-01    0.895E-01
DAV:   6    -0.441076475785E+03    0.42087E-02   -0.11508E-02 37048   0.378E-01    0.696E-01
DAV:   7    -0.441076010137E+03    0.46565E-03   -0.65134E-03 38584   0.233E-01    0.187E-01
DAV:   8    -0.441076136035E+03   -0.12590E-03   -0.11498E-03 36104   0.925E-02    0.177E-01
DAV:   9    -0.441076126505E+03    0.95298E-05   -0.18720E-04 34280   0.472E-02    0.671E-02
DAV:  10    -0.441076128489E+03   -0.19845E-05   -0.78555E-05 31576   0.231E-02
   8 F= -.44107613E+03 E0= -.44106609E+03  d E =-.135363E+00  mag=    78.0000
       N       E                     dE             d eps       ncg     rms          rms(c)
DAV:   1    -0.439134871449E+03    0.19413E+01   -0.36462E+02 34344   0.471E+01    0.585E+00
DAV:   2    -0.441158064358E+03   -0.20232E+01   -0.20144E+01 32656   0.842E+00    0.404E+00
DAV:   3    -0.441157584389E+03    0.47997E-03   -0.47198E-01 39856   0.188E+00    0.314E+00
DAV:   4    -0.441142379278E+03    0.15205E-01   -0.78682E-02 37744   0.787E-01    0.133E+00
DAV:   5    -0.441126218425E+03    0.16161E-01   -0.24669E-02 36608   0.457E-01    0.826E-01
DAV:   6    -0.441121169117E+03    0.50493E-02   -0.16054E-02 37336   0.381E-01    0.635E-01
DAV:   7    -0.441120504198E+03    0.66492E-03   -0.57425E-03 39120   0.214E-01    0.156E-01
DAV:   8    -0.441120510099E+03   -0.59010E-05   -0.11360E-03 37360   0.790E-02    0.150E-01
DAV:   9    -0.441120493337E+03    0.16762E-04   -0.31398E-04 38136   0.553E-02    0.656E-02
DAV:  10    -0.441120493167E+03    0.17005E-06   -0.74041E-05 35216   0.223E-02
   9 F= -.44112049E+03 E0= -.44111158E+03  d E =-.443647E-01  mag=    78.0000
       N       E                     dE             d eps       ncg     rms          rms(c)
DAV:   1    -0.440621352372E+03    0.49914E+00   -0.62003E+01 34752   0.229E+01    0.368E+00
DAV:   2    -0.441179319886E+03   -0.55797E+00   -0.52214E+00 33408   0.397E+00    0.234E+00
DAV:   3    -0.441198553180E+03   -0.19233E-01   -0.17655E-01 40776   0.101E+00    0.159E+00
DAV:   4    -0.441196548035E+03    0.20051E-02   -0.20320E-02 37880   0.430E-01    0.678E-01
DAV:   5    -0.441194831586E+03    0.17164E-02   -0.30028E-03 39440   0.152E-01    0.519E-01
DAV:   6    -0.441193456909E+03    0.13747E-02   -0.24276E-03 37496   0.185E-01    0.416E-01
DAV:   7    -0.441192956080E+03    0.50083E-03   -0.22703E-03 39088   0.156E-01    0.157E-01
DAV:   8    -0.441192978707E+03   -0.22627E-04   -0.80990E-04 37976   0.760E-02    0.914E-02
DAV:   9    -0.441192980312E+03   -0.16053E-05   -0.10901E-04 35880   0.293E-02    0.468E-02
DAV:  10    -0.441192977666E+03    0.26462E-05   -0.22762E-05 26376   0.134E-02
  10 F= -.44119298E+03 E0= -.44118354E+03  d E =-.724845E-01  mag=    78.0000
       N       E                     dE             d eps       ncg     rms          rms(c)
DAV:   1    -0.441169528769E+03    0.23452E-01   -0.74349E+00 33776   0.678E+00    0.825E-01
DAV:   2    -0.441207546128E+03   -0.38017E-01   -0.36990E-01 32768   0.116E+00    0.437E-01
DAV:   3    -0.441208267039E+03   -0.72091E-03   -0.90328E-03 40232   0.214E-01    0.342E-01
DAV:   4    -0.441208121819E+03    0.14522E-03   -0.10814E-03 38648   0.858E-02    0.167E-01
DAV:   5    -0.441207943309E+03    0.17851E-03   -0.18251E-04 36256   0.455E-02    0.126E-01
DAV:   6    -0.441207819941E+03    0.12337E-03   -0.24048E-04 37072   0.566E-02    0.841E-02
DAV:   7    -0.441207816263E+03    0.36779E-05   -0.14405E-04 37368   0.339E-02    0.301E-02
DAV:   8    -0.441207817910E+03   -0.16468E-05   -0.25814E-05 26928   0.142E-02
  11 F= -.44120782E+03 E0= -.44119833E+03  d E =-.148402E-01  mag=    78.0000
       N       E                     dE             d eps       ncg     rms          rms(c)
DAV:   1    -0.440495461543E+03    0.71235E+00   -0.17040E+02 33024   0.301E+01    0.345E+00
DAV:   2    -0.441273589847E+03   -0.77813E+00   -0.77524E+00 31912   0.534E+00    0.229E+00
DAV:   3    -0.441276078901E+03   -0.24891E-02   -0.16542E-01 38464   0.110E+00    0.187E+00
DAV:   4    -0.441271584470E+03    0.44944E-02   -0.34996E-02 37352   0.473E-01    0.799E-01
DAV:   5    -0.441267979369E+03    0.36051E-02   -0.55549E-03 35096   0.235E-01    0.634E-01
DAV:   6    -0.441265426993E+03    0.25524E-02   -0.44405E-03 36496   0.222E-01    0.336E-01
DAV:   7    -0.441265049819E+03    0.37717E-03   -0.22575E-03 38248   0.143E-01    0.198E-01
DAV:   8    -0.441265076823E+03   -0.27003E-04   -0.78229E-04 38880   0.858E-02    0.938E-02
DAV:   9    -0.441265092530E+03   -0.15707E-04   -0.11879E-04 34080   0.310E-02    0.539E-02
DAV:  10    -0.441265094309E+03   -0.17797E-05   -0.33949E-05 29976   0.187E-02
  12 F= -.44126509E+03 E0= -.44125584E+03  d E =-.572764E-01  mag=    78.0000
       N       E                     dE             d eps       ncg     rms          rms(c)
DAV:   1    -0.438228970969E+03    0.30361E+01   -0.40763E+02 34304   0.541E+01    0.774E+00
DAV:   2    -0.441175571273E+03   -0.29466E+01   -0.28683E+01 32432   0.979E+00    0.437E+00
DAV:   3    -0.441200602950E+03   -0.25032E-01   -0.62271E-01 37968   0.185E+00    0.238E+00
DAV:   4    -0.441189006355E+03    0.11597E-01   -0.89563E-02 36352   0.745E-01    0.160E+00
DAV:   5    -0.441176218378E+03    0.12788E-01   -0.14995E-02 37032   0.391E-01    0.110E+00
DAV:   6    -0.441169144590E+03    0.70738E-02   -0.11822E-02 37560   0.378E-01    0.762E-01
DAV:   7    -0.441167613398E+03    0.15312E-02   -0.82436E-03 37888   0.280E-01    0.401E-01
DAV:   8    -0.441167423103E+03    0.19029E-03   -0.26819E-03 40048   0.150E-01    0.187E-01
DAV:   9    -0.441167423795E+03   -0.69177E-06   -0.57835E-04 35344   0.683E-02    0.756E-02
DAV:  10    -0.441167419559E+03    0.42359E-05   -0.16126E-04 36520   0.329E-02    0.596E-02
DAV:  11    -0.441167407820E+03    0.11739E-04   -0.37430E-05 28240   0.260E-02    0.241E-02
DAV:  12    -0.441167406776E+03    0.10445E-05   -0.22569E-05 27072   0.143E-02
  13 F= -.44116741E+03 E0= -.44115882E+03  d E =0.976875E-01  mag=    78.0000
       N       E                     dE             d eps       ncg     rms          rms(c)
DAV:   1    -0.438995872707E+03    0.21715E+01   -0.11443E+02 35896   0.400E+01    0.930E+00
DAV:   2    -0.441290538346E+03   -0.22947E+01   -0.21685E+01 32616   0.801E+00    0.104E+01
DAV:   3    -0.441343357514E+03   -0.52819E-01   -0.11974E+00 36448   0.292E+00    0.322E+00
DAV:   4    -0.441342253018E+03    0.11045E-02   -0.13752E-01 42648   0.106E+00    0.210E+00
DAV:   5    -0.441342767972E+03   -0.51495E-03   -0.53150E-02 34320   0.710E-01    0.163E+00
DAV:   6    -0.441338520598E+03    0.42474E-02   -0.67316E-03 36256   0.283E-01    0.103E+00
DAV:   7    -0.441336112457E+03    0.24081E-02   -0.76851E-03 39416   0.329E-01    0.606E-01
DAV:   8    -0.441336058865E+03    0.53591E-04   -0.48671E-03 40224   0.218E-01    0.325E-01
DAV:   9    -0.441336082065E+03   -0.23200E-04   -0.13622E-03 37936   0.970E-02    0.845E-02
DAV:  10    -0.441336067689E+03    0.14376E-04   -0.24717E-04 36152   0.484E-02    0.975E-02
DAV:  11    -0.441336062167E+03    0.55226E-05   -0.58811E-05 32544   0.242E-02
  14 F= -.44133606E+03 E0= -.44132729E+03  d E =-.168655E+00  mag=    78.0000
       N       E                     dE             d eps       ncg     rms          rms(c)
DAV:   1    -0.441280077992E+03    0.55990E-01   -0.38901E+00 35224   0.731E+00    0.141E+00
DAV:   2    -0.441350200238E+03   -0.70122E-01   -0.64579E-01 32344   0.130E+00    0.702E-01
DAV:   3    -0.441353102658E+03   -0.29024E-02   -0.20211E-02 38608   0.282E-01    0.404E-01
DAV:   4    -0.441352990497E+03    0.11216E-03   -0.18516E-03 39296   0.106E-01    0.266E-01
DAV:   5    -0.441352813863E+03    0.17663E-03   -0.20299E-04 35296   0.449E-02    0.189E-01
DAV:   6    -0.441352613512E+03    0.20035E-03   -0.35369E-04 37256   0.777E-02    0.108E-01
DAV:   7    -0.441352611408E+03    0.21046E-05   -0.18949E-04 38312   0.404E-02    0.383E-02
DAV:   8    -0.441352613599E+03   -0.21914E-05   -0.49803E-05 29720   0.193E-02
  15 F= -.44135261E+03 E0= -.44134376E+03  d E =-.165514E-01  mag=    78.0000
       N       E                     dE             d eps       ncg     rms          rms(c)
DAV:   1    -0.441272671674E+03    0.79940E-01   -0.11539E+01 34216   0.992E+00    0.140E+00
DAV:   2    -0.441361008449E+03   -0.88337E-01   -0.84135E-01 32056   0.174E+00    0.691E-01
DAV:   3    -0.441363604057E+03   -0.25956E-02   -0.23941E-02 40496   0.331E-01    0.412E-01
DAV:   4    -0.441363376572E+03    0.22749E-03   -0.21369E-03 40072   0.117E-01    0.279E-01
DAV:   5    -0.441363022185E+03    0.35439E-03   -0.33451E-04 36296   0.625E-02    0.188E-01
DAV:   6    -0.441362723251E+03    0.29893E-03   -0.53520E-04 37624   0.921E-02    0.124E-01
DAV:   7    -0.441362723815E+03   -0.56360E-06   -0.32923E-04 40640   0.510E-02    0.434E-02
DAV:   8    -0.441362725856E+03   -0.20414E-05   -0.71498E-05 32976   0.234E-02
  16 F= -.44136273E+03 E0= -.44135380E+03  d E =-.101123E-01  mag=    78.0000
       N       E                     dE             d eps       ncg     rms          rms(c)
DAV:   1    -0.441334203504E+03    0.28520E-01   -0.11680E+01 32312   0.757E+00    0.770E-01
DAV:   2    -0.441375669516E+03   -0.41466E-01   -0.41444E-01 31536   0.127E+00    0.469E-01
DAV:   3    -0.441375963595E+03   -0.29408E-03   -0.77491E-03 37504   0.242E-01    0.359E-01
DAV:   4    -0.441375757864E+03    0.20573E-03   -0.10953E-03 39872   0.986E-02    0.180E-01
DAV:   5    -0.441375475382E+03    0.28248E-03   -0.34889E-04 35656   0.602E-02    0.122E-01
DAV:   6    -0.441375403271E+03    0.72111E-04   -0.33659E-04 36352   0.583E-02    0.776E-02
DAV:   7    -0.441375410600E+03   -0.73284E-05   -0.13086E-04 35872   0.310E-02    0.315E-02
DAV:   8    -0.441375410932E+03   -0.33206E-06   -0.21446E-05 21872   0.137E-02
  17 F= -.44137541E+03 E0= -.44136647E+03  d E =-.126851E-01  mag=    78.0000
       N       E                     dE             d eps       ncg     rms          rms(c)
DAV:   1    -0.431888988576E+03    0.94864E+01   -0.42147E+02 37072   0.735E+01    0.220E+01
DAV:   2    -0.440897806169E+03   -0.90088E+01   -0.91159E+01 33632   0.169E+01    0.251E+01
DAV:   3    -0.441242472506E+03   -0.34467E+00   -0.58126E+00 33272   0.584E+00    0.803E+00
DAV:   4    -0.441113313873E+03    0.12916E+00   -0.46501E-01 42312   0.208E+00    0.526E+00
DAV:   5    -0.441055799269E+03    0.57515E-01   -0.13588E-01 39704   0.120E+00    0.388E+00
DAV:   6    -0.441041701443E+03    0.14098E-01   -0.67052E-02 37184   0.881E-01    0.252E+00
DAV:   7    -0.441052220692E+03   -0.10519E-01   -0.85469E-02 36368   0.870E-01    0.319E+00
DAV:   8    -0.441035386770E+03    0.16834E-01   -0.24593E-02 36952   0.676E-01    0.126E+00
DAV:   9    -0.441035559554E+03   -0.17278E-03   -0.19035E-02 36984   0.378E-01    0.584E-01
DAV:  10    -0.441035031736E+03    0.52782E-03   -0.10501E-02 36888   0.266E-01    0.490E-01
DAV:  11    -0.441035018003E+03    0.13733E-04   -0.29575E-03 36776   0.173E-01    0.245E-01
DAV:  12    -0.441034850765E+03    0.16724E-03   -0.49906E-04 37224   0.698E-02    0.102E-01
DAV:  13    -0.441034827129E+03    0.23636E-04   -0.23914E-04 36168   0.397E-02    0.479E-02
DAV:  14    -0.441034834467E+03   -0.73379E-05   -0.85664E-05 33608   0.224E-02
  18 F= -.44103483E+03 E0= -.44102606E+03  d E =0.340576E+00  mag=    78.0000
       N       E                     dE             d eps       ncg     rms          rms(c)
DAV:   1    -0.427889736963E+03    0.13145E+02   -0.30842E+02 39768   0.699E+01    0.251E+01
DAV:   2    -0.444157149777E+03   -0.16267E+02   -0.12245E+02 33496   0.193E+01    0.507E+01
DAV:   3    -0.442170029582E+03    0.19871E+01   -0.28832E+01 33888   0.193E+01    0.231E+01
DAV:   4    -0.439726047768E+03    0.24440E+01   -0.24042E+00 36000   0.455E+00    0.146E+01
DAV:   5    -0.440816864388E+03   -0.10908E+01   -0.90294E-01 33904   0.212E+00    0.925E+00
DAV:   6    -0.441241243882E+03   -0.42438E+00   -0.46453E-01 35760   0.118E+00    0.753E+00
DAV:   7    -0.441353578859E+03   -0.11233E+00   -0.47894E-02 33872   0.738E-01    0.593E+00
DAV:   8    -0.441440216298E+03   -0.86637E-01   -0.61519E-02 38288   0.858E-01    0.350E+00
DAV:   9    -0.441455692548E+03   -0.15476E-01   -0.24258E-02 36144   0.530E-01    0.235E+00
DAV:  10    -0.441447129117E+03    0.85634E-02   -0.37571E-02 38736   0.526E-01    0.143E+00
DAV:  11    -0.441447184298E+03   -0.55181E-04   -0.18256E-02 39664   0.523E-01    0.107E+00
DAV:  12    -0.441448324806E+03   -0.11405E-02   -0.66955E-03 38744   0.277E-01    0.761E-01
DAV:  13    -0.441448189561E+03    0.13524E-03   -0.27000E-03 40120   0.175E-01    0.607E-01
DAV:  14    -0.441447425380E+03    0.76418E-03   -0.11735E-03 37808   0.122E-01    0.442E-01
DAV:  15    -0.441446877909E+03    0.54747E-03   -0.67770E-04 41144   0.865E-02    0.274E-01
DAV:  16    -0.441446470168E+03    0.40774E-03   -0.46474E-04 38760   0.791E-02    0.188E-01
DAV:  17    -0.441446399662E+03    0.70506E-04   -0.15276E-04 33872   0.392E-02    0.144E-01
DAV:  18    -0.441446361435E+03    0.38227E-04   -0.74673E-05 27824   0.274E-02    0.116E-01
DAV:  19    -0.441446357243E+03    0.41921E-05   -0.83985E-05 31560   0.422E-02
  19 F= -.44144636E+03 E0= -.44143731E+03  d E =-.411523E+00  mag=    78.0013
       N       E                     dE             d eps       ncg     rms          rms(c)
DAV:   1    -0.440990403219E+03    0.45596E+00   -0.11353E+01 40856   0.147E+01    0.407E+00
DAV:   2    -0.441475429253E+03   -0.48503E+00   -0.44207E+00 32072   0.271E+00    0.308E+00
DAV:   3    -0.441495148061E+03   -0.19719E-01   -0.19078E-01 34568   0.105E+00    0.176E+00
DAV:   4    -0.441495123862E+03    0.24199E-04   -0.24494E-02 36008   0.424E-01    0.763E-01
DAV:   5    -0.441494665616E+03    0.45825E-03   -0.22644E-03 36696   0.109E-01    0.598E-01
DAV:   6    -0.441493814783E+03    0.85083E-03   -0.12175E-03 39632   0.134E-01    0.386E-01
DAV:   7    -0.441493512640E+03    0.30214E-03   -0.10877E-03 37768   0.131E-01    0.202E-01
DAV:   8    -0.441493521943E+03   -0.93023E-05   -0.51932E-04 37992   0.724E-02    0.127E-01
DAV:   9    -0.441493515668E+03    0.62751E-05   -0.13258E-04 33240   0.369E-02    0.381E-02
DAV:  10    -0.441493513117E+03    0.25509E-05   -0.20101E-05 24648   0.155E-02
  20 F= -.44149351E+03 E0= -.44148454E+03  d E =-.471559E-01  mag=    78.0000
       N       E                     dE             d eps       ncg     rms          rms(c)
DAV:   1    -0.441221311768E+03    0.27220E+00   -0.74476E+00 38064   0.110E+01    0.291E+00
DAV:   2    -0.441480454905E+03   -0.25914E+00   -0.23663E+00 31864   0.201E+00    0.214E+00
DAV:   3    -0.441491794619E+03   -0.11340E-01   -0.10777E-01 35424   0.753E-01    0.130E+00
DAV:   4    -0.441491478650E+03    0.31597E-03   -0.13080E-02 36160   0.321E-01    0.554E-01
DAV:   5    -0.441491226974E+03    0.25168E-03   -0.13019E-03 36000   0.789E-02    0.437E-01
DAV:   6    -0.441490713646E+03    0.51333E-03   -0.86246E-04 38984   0.108E-01    0.268E-01
DAV:   7    -0.441490589382E+03    0.12426E-03   -0.60110E-04 36952   0.929E-02    0.134E-01
DAV:   8    -0.441490600685E+03   -0.11302E-04   -0.24963E-04 36744   0.476E-02    0.851E-02
DAV:   9    -0.441490597565E+03    0.31198E-05   -0.55977E-05 28424   0.234E-02
  21 F= -.44149060E+03 E0= -.44148163E+03  d E =0.291555E-02  mag=    78.0000
       N       E                     dE             d eps       ncg     rms          rms(c)
DAV:   1    -0.441447827964E+03    0.42773E-01   -0.34744E+00 34976   0.576E+00    0.903E-01
DAV:   2    -0.441481006142E+03   -0.33178E-01   -0.31027E-01 32152   0.999E-01    0.519E-01
DAV:   3    -0.441482213640E+03   -0.12075E-02   -0.10545E-02 39880   0.237E-01    0.362E-01
DAV:   4    -0.441482127737E+03    0.85903E-04   -0.11832E-03 37952   0.928E-02    0.164E-01
DAV:   5    -0.441482046752E+03    0.80985E-04   -0.12745E-04 35680   0.312E-02    0.123E-01
DAV:   6    -0.441481954874E+03    0.91878E-04   -0.16155E-04 36576   0.513E-02    0.814E-02
DAV:   7    -0.441481948386E+03    0.64878E-05   -0.99915E-05 35616   0.333E-02
  22 F= -.44148195E+03 E0= -.44147298E+03  d E =0.864918E-02  mag=    78.0000
       N       E                     dE             d eps       ncg     rms          rms(c)
DAV:   1    -0.441446259403E+03    0.35695E-01   -0.58801E+00 34304   0.637E+00    0.721E-01
DAV:   2    -0.441475490959E+03   -0.29232E-01   -0.28486E-01 31440   0.109E+00    0.351E-01
DAV:   3    -0.441476014196E+03   -0.52324E-03   -0.67058E-03 40192   0.186E-01    0.214E-01
DAV:   4    -0.441475903001E+03    0.11119E-03   -0.54695E-04 40872   0.636E-02    0.145E-01
DAV:   5    -0.441475736722E+03    0.16628E-03   -0.14247E-04 36712   0.453E-02    0.926E-02
DAV:   6    -0.441475657797E+03    0.78925E-04   -0.22979E-04 37336   0.560E-02    0.582E-02
DAV:   7    -0.441475664571E+03   -0.67743E-05   -0.10566E-04 36000   0.270E-02    0.210E-02
DAV:   8    -0.441475664197E+03    0.37480E-06   -0.10983E-05 19344   0.115E-02
  23 F= -.44147566E+03 E0= -.44146672E+03  d E =0.628419E-02  mag=    78.0000
       N       E                     dE             d eps       ncg     rms          rms(c)
DAV:   1    -0.441366017194E+03    0.10965E+00   -0.23955E+01 33616   0.115E+01    0.124E+00
DAV:   2    -0.441465048648E+03   -0.99031E-01   -0.97345E-01 31056   0.197E+00    0.636E-01
DAV:   3    -0.441466153157E+03   -0.11045E-02   -0.19066E-02 37432   0.328E-01    0.427E-01
DAV:   4    -0.441465803931E+03    0.34923E-03   -0.19540E-03 40152   0.121E-01    0.258E-01
DAV:   5    -0.441465269249E+03    0.53468E-03   -0.50196E-04 36848   0.779E-02    0.165E-01
DAV:   6    -0.441465054668E+03    0.21458E-03   -0.72949E-04 37368   0.908E-02    0.118E-01
DAV:   7    -0.441465069928E+03   -0.15260E-04   -0.30308E-04 36176   0.484E-02    0.382E-02
DAV:   8    -0.441465071501E+03   -0.15722E-05   -0.33089E-05 27016   0.174E-02
  24 F= -.44146507E+03 E0= -.44145615E+03  d E =0.105927E-01  mag=    78.0000
       N       E                     dE             d eps       ncg     rms          rms(c)
DAV:   1    -0.436080433178E+03    0.53846E+01   -0.48921E+02 35136   0.599E+01    0.135E+01
DAV:   2    -0.441316027112E+03   -0.52356E+01   -0.50190E+01 32696   0.121E+01    0.109E+01
DAV:   3    -0.441389211842E+03   -0.73185E-01   -0.16420E+00 35280   0.296E+00    0.471E+00
DAV:   4    -0.441367147064E+03    0.22065E-01   -0.21108E-01 37752   0.126E+00    0.330E+00
DAV:   5    -0.441357320988E+03    0.98261E-02   -0.40334E-02 37280   0.578E-01    0.251E+00
DAV:   6    -0.441346769072E+03    0.10552E-01   -0.29038E-02 35936   0.523E-01    0.204E+00
DAV:   7    -0.441339131535E+03    0.76375E-02   -0.22805E-02 35960   0.491E-01    0.121E+00
DAV:   8    -0.441336514432E+03    0.26171E-02   -0.13460E-02 36240   0.391E-01    0.442E-01
DAV:   9    -0.441336806364E+03   -0.29193E-03   -0.38514E-03 35288   0.163E-01    0.160E-01
DAV:  10    -0.441336807538E+03   -0.11739E-05   -0.35758E-04 39472   0.526E-02    0.107E-01
DAV:  11    -0.441336791449E+03    0.16089E-04   -0.12375E-04 34520   0.352E-02    0.636E-02
DAV:  12    -0.441336786314E+03    0.51344E-05   -0.44254E-05 29368   0.225E-02
  25 F= -.44133679E+03 E0= -.44132756E+03  d E =0.128285E+00  mag=    78.0000
       N       E                     dE             d eps       ncg     rms          rms(c)
DAV:   1    -0.437903938382E+03    0.34329E+01   -0.19346E+02 36000   0.434E+01    0.122E+01
DAV:   2    -0.441465941505E+03   -0.35620E+01   -0.32613E+01 32176   0.883E+00    0.107E+01
DAV:   3    -0.441565314543E+03   -0.99373E-01   -0.14229E+00 34560   0.284E+00    0.420E+00
DAV:   4    -0.441556765507E+03    0.85490E-02   -0.14356E-01 40176   0.105E+00    0.285E+00
DAV:   5    -0.441553669679E+03    0.30958E-02   -0.34348E-02 34944   0.543E-01    0.230E+00
DAV:   6    -0.441548875970E+03    0.47937E-02   -0.13831E-02 35120   0.402E-01    0.179E+00
DAV:   7    -0.441544568640E+03    0.43073E-02   -0.97790E-03 36528   0.363E-01    0.900E-01
DAV:   8    -0.441544313000E+03    0.25564E-03   -0.63407E-03 37648   0.248E-01    0.371E-01
DAV:   9    -0.441544396390E+03   -0.83390E-04   -0.18258E-03 34696   0.136E-01    0.204E-01
DAV:  10    -0.441544379214E+03    0.17176E-04   -0.21842E-04 37224   0.499E-02    0.108E-01
DAV:  11    -0.441544357673E+03    0.21541E-04   -0.79019E-05 32200   0.315E-02    0.603E-02
DAV:  12    -0.441544354367E+03    0.33065E-05   -0.37891E-05 30768   0.213E-02
  26 F= -.44154435E+03 E0= -.44153514E+03  d E =-.207568E+00  mag=    78.0000
       N       E                     dE             d eps       ncg     rms          rms(c)
DAV:   1    -0.441434944246E+03    0.10941E+00   -0.63274E+00 35040   0.904E+00    0.168E+00
DAV:   2    -0.441538946182E+03   -0.10400E+00   -0.96189E-01 31736   0.162E+00    0.922E-01
DAV:   3    -0.441542968262E+03   -0.40221E-02   -0.30860E-02 38352   0.388E-01    0.562E-01
DAV:   4    -0.441542846388E+03    0.12187E-03   -0.29452E-03 37864   0.143E-01    0.304E-01
DAV:   5    -0.441542624774E+03    0.22161E-03   -0.31036E-04 36800   0.517E-02    0.229E-01
DAV:   6    -0.441542376575E+03    0.24820E-03   -0.42205E-04 37352   0.863E-02    0.146E-01
DAV:   7    -0.441542364332E+03    0.12243E-04   -0.32664E-04 38088   0.626E-02    0.808E-02
DAV:   8    -0.441542364970E+03   -0.63858E-06   -0.88564E-05 33168   0.317E-02
  27 F= -.44154236E+03 E0= -.44153317E+03  d E =0.198940E-02  mag=    78.0000
       N       E                     dE             d eps       ncg     rms          rms(c)
DAV:   1    -0.441269368915E+03    0.27300E+00   -0.24532E+01 34224   0.152E+01    0.241E+00
DAV:   2    -0.441509752847E+03   -0.24038E+00   -0.22718E+00 32224   0.272E+00    0.143E+00
DAV:   3    -0.441515577669E+03   -0.58248E-02   -0.56728E-02 39912   0.598E-01    0.909E-01
DAV:   4    -0.441514831295E+03    0.74637E-03   -0.61524E-03 37832   0.230E-01    0.492E-01
DAV:   5    -0.441513959184E+03    0.87211E-03   -0.11087E-03 40224   0.106E-01    0.345E-01
DAV:   6    -0.441513406254E+03    0.55293E-03   -0.16422E-03 37184   0.158E-01    0.260E-01
DAV:   7    -0.441513389978E+03    0.16277E-04   -0.10689E-03 40032   0.102E-01    0.113E-01
DAV:   8    -0.441513390582E+03   -0.60415E-06   -0.19525E-04 36808   0.474E-02    0.422E-02
DAV:   9    -0.441513389584E+03    0.99721E-06   -0.30225E-05 27408   0.176E-02
  28 F= -.44151339E+03 E0= -.44150432E+03  d E =0.289754E-01  mag=    78.0000
       N       E                     dE             d eps       ncg     rms          rms(c)
DAV:   1    -0.441504645008E+03    0.87456E-02   -0.68680E-01 34496   0.232E+00    0.318E-01
DAV:   2    -0.441509354700E+03   -0.47097E-02   -0.44955E-02 32104   0.406E-01    0.169E-01
DAV:   3    -0.441509465221E+03   -0.11052E-03   -0.12026E-03 38216   0.820E-02    0.120E-01
DAV:   4    -0.441509450763E+03    0.14459E-04   -0.12435E-04 34328   0.320E-02    0.755E-02
DAV:   5    -0.441509428571E+03    0.22192E-04   -0.25672E-05 27688   0.209E-02    0.548E-02
DAV:   6    -0.441509415013E+03    0.13558E-04   -0.54618E-05 33080   0.279E-02    0.452E-02
DAV:   7    -0.441509414444E+03    0.56934E-06   -0.22851E-05 25200   0.169E-02
  29 F= -.44150941E+03 E0= -.44150037E+03  d E =0.397514E-02  mag=    78.0000
       N       E                     dE             d eps       ncg     rms          rms(c)
DAV:   1    -0.441490180539E+03    0.19234E-01   -0.28853E+00 33128   0.417E+00    0.421E-01
DAV:   2    -0.441501650765E+03   -0.11470E-01   -0.11376E-01 31776   0.703E-01    0.211E-01
DAV:   3    -0.441501773464E+03   -0.12270E-03   -0.20869E-03 38400   0.113E-01    0.140E-01
DAV:   4    -0.441501726930E+03    0.46534E-04   -0.23632E-04 39248   0.466E-02    0.952E-02
DAV:   5    -0.441501662170E+03    0.64760E-04   -0.85669E-05 33808   0.355E-02    0.663E-02
DAV:   6    -0.441501634858E+03    0.27312E-04   -0.10318E-04 35288   0.362E-02    0.422E-02
DAV:   7    -0.441501636814E+03   -0.19564E-05   -0.39857E-05 30144   0.190E-02
  30 F= -.44150164E+03 E0= -.44149266E+03  d E =0.777763E-02  mag=    78.0000
       N       E                     dE             d eps       ncg     rms          rms(c)
DAV:   1    -0.441433988241E+03    0.67647E-01   -0.10748E+01 33696   0.826E+00    0.979E-01
DAV:   2    -0.441487363029E+03   -0.53375E-01   -0.51772E-01 31216   0.143E+00    0.477E-01
DAV:   3    -0.441488282708E+03   -0.91968E-03   -0.10517E-02 36456   0.220E-01    0.289E-01
DAV:   4    -0.441488118402E+03    0.16431E-03   -0.99021E-04 40576   0.854E-02    0.223E-01
DAV:   5    -0.441487902866E+03    0.21554E-03   -0.31192E-04 35568   0.633E-02    0.151E-01
DAV:   6    -0.441487780341E+03    0.12252E-03   -0.44522E-04 35400   0.774E-02    0.105E-01
DAV:   7    -0.441487789573E+03   -0.92317E-05   -0.19719E-04 36136   0.408E-02    0.360E-02
DAV:   8    -0.441487790537E+03   -0.96402E-06   -0.22074E-05 22376   0.142E-02
  31 F= -.44148779E+03 E0= -.44147888E+03  d E =0.138463E-01  mag=    78.0000
       N       E                     dE             d eps       ncg     rms          rms(c)
DAV:   1    -0.439994190132E+03    0.14936E+01   -0.32147E+02 33184   0.423E+01    0.466E+00
DAV:   2    -0.441459284230E+03   -0.14651E+01   -0.14666E+01 31432   0.746E+00    0.258E+00
DAV:   3    -0.441453321495E+03    0.59627E-02   -0.22165E-01 34968   0.128E+00    0.154E+00
DAV:   4    -0.441446911661E+03    0.64098E-02   -0.42745E-02 35968   0.469E-01    0.996E-01
DAV:   5    -0.441439561483E+03    0.73502E-02   -0.95746E-03 36160   0.332E-01    0.714E-01
DAV:   6    -0.441437537755E+03    0.20237E-02   -0.10323E-02 36872   0.297E-01    0.644E-01
DAV:   7    -0.441436786869E+03    0.75089E-03   -0.47898E-03 36680   0.214E-01    0.230E-01
DAV:   8    -0.441436868757E+03   -0.81889E-04   -0.12643E-03 35560   0.986E-02    0.107E-01
DAV:   9    -0.441436894316E+03   -0.25558E-04   -0.22790E-04 35968   0.407E-02    0.606E-02
DAV:  10    -0.441436894866E+03   -0.55011E-06   -0.41224E-05 27632   0.214E-02
  32 F= -.44143689E+03 E0= -.44142857E+03  d E =0.508957E-01  mag=    78.0000
       N       E                     dE             d eps       ncg     rms          rms(c)
DAV:   1    -0.440746303792E+03    0.69059E+00   -0.50928E+01 34744   0.264E+01    0.425E+00
DAV:   2    -0.441438910055E+03   -0.69261E+00   -0.63859E+00 31920   0.466E+00    0.216E+00
DAV:   3    -0.441465911564E+03   -0.27002E-01   -0.18928E-01 35704   0.919E-01    0.108E+00
DAV:   4    -0.441465062442E+03    0.84912E-03   -0.14299E-02 41952   0.306E-01    0.749E-01
DAV:   5    -0.441463322230E+03    0.17402E-02   -0.26750E-03 36808   0.182E-01    0.547E-01
DAV:   6    -0.441461926946E+03    0.13953E-02   -0.35919E-03 37336   0.228E-01    0.444E-01
DAV:   7    -0.441461673878E+03    0.25307E-03   -0.27210E-03 38288   0.175E-01    0.201E-01
DAV:   8    -0.441461701739E+03   -0.27861E-04   -0.77847E-04 36768   0.845E-02    0.761E-02
DAV:   9    -0.441461697787E+03    0.39515E-05   -0.11143E-04 35280   0.306E-02    0.450E-02
DAV:  10    -0.441461689787E+03    0.80003E-05   -0.19298E-05 24888   0.158E-02
  33 F= -.44146169E+03 E0= -.44145311E+03  d E =-.247949E-01  mag=    78.0000
       N       E                     dE             d eps       ncg     rms          rms(c)
DAV:   1    -0.440737491136E+03    0.72421E+00   -0.11036E+02 34320   0.296E+01    0.388E+00
DAV:   2    -0.441476980497E+03   -0.73949E+00   -0.70419E+00 31392   0.521E+00    0.222E+00
DAV:   3    -0.441493053401E+03   -0.16073E-01   -0.17629E-01 35576   0.102E+00    0.130E+00
DAV:   4    -0.441491330278E+03    0.17231E-02   -0.18451E-02 38616   0.365E-01    0.722E-01
DAV:   5    -0.441488762586E+03    0.25677E-02   -0.28353E-03 36688   0.176E-01    0.520E-01
DAV:   6    -0.441487288118E+03    0.14745E-02   -0.33841E-03 35920   0.213E-01    0.425E-01
DAV:   7    -0.441487068655E+03    0.21946E-03   -0.27573E-03 38160   0.165E-01    0.202E-01
DAV:   8    -0.441487099407E+03   -0.30752E-04   -0.71059E-04 34752   0.790E-02    0.803E-02
DAV:   9    -0.441487105879E+03   -0.64724E-05   -0.10771E-04 33472   0.318E-02    0.481E-02
DAV:  10    -0.441487103830E+03    0.20492E-05   -0.23070E-05 24648   0.166E-02
  34 F= -.44148710E+03 E0= -.44147833E+03  d E =-.254140E-01  mag=    78.0000
       N       E                     dE             d eps       ncg     rms          rms(c)
DAV:   1    -0.441430932038E+03    0.56174E-01   -0.58953E+00 34176   0.770E+00    0.996E-01
DAV:   2    -0.441475921036E+03   -0.44989E-01   -0.42626E-01 31584   0.135E+00    0.501E-01
DAV:   3    -0.441477270388E+03   -0.13494E-02   -0.12314E-02 36888   0.273E-01    0.357E-01
DAV:   4    -0.441477149960E+03    0.12043E-03   -0.14515E-03 41416   0.103E-01    0.200E-01
DAV:   5    -0.441476984376E+03    0.16558E-03   -0.26680E-04 35776   0.582E-02    0.150E-01
DAV:   6    -0.441476828955E+03    0.15542E-03   -0.29844E-04 35456   0.696E-02    0.103E-01
DAV:   7    -0.441476810026E+03    0.18929E-04   -0.18360E-04 37368   0.495E-02    0.386E-02
DAV:   8    -0.441476813433E+03   -0.34065E-05   -0.72416E-05 34648   0.226E-02
  35 F= -.44147681E+03 E0= -.44146815E+03  d E =0.102904E-01  mag=    78.0000
       N       E                     dE             d eps       ncg     rms          rms(c)
DAV:   1    -0.441462059329E+03    0.14751E-01   -0.10568E+00 35800   0.423E+00    0.735E-01
DAV:   2    -0.441481717553E+03   -0.19658E-01   -0.17804E-01 32024   0.733E-01    0.366E-01
DAV:   3    -0.441482529027E+03   -0.81147E-03   -0.58448E-03 35824   0.164E-01    0.229E-01
DAV:   4    -0.441482505013E+03    0.24014E-04   -0.68866E-04 40880   0.723E-02    0.136E-01
DAV:   5    -0.441482461986E+03    0.43027E-04   -0.11931E-04 33832   0.366E-02    0.921E-02
DAV:   6    -0.441482417490E+03    0.44496E-04   -0.89059E-05 34104   0.382E-02    0.652E-02
DAV:   7    -0.441482410862E+03    0.66288E-05   -0.52685E-05 33736   0.290E-02
  36 F= -.44148241E+03 E0= -.44147372E+03  d E =-.559743E-02  mag=    78.0000
