       N       E                     dE             d eps       ncg     rms          rms(c)
DAV:   1     0.638328256771E+04    0.63833E+04   -0.28315E+05 36536   0.160E+03
DAV:   2     0.385385284225E+03   -0.59979E+04   -0.56109E+04 37040   0.478E+02
DAV:   3    -0.351896139994E+03   -0.73728E+03   -0.72168E+03 39472   0.174E+02
DAV:   4    -0.381988913588E+03   -0.30093E+02   -0.29909E+02 45392   0.337E+01
DAV:   5    -0.384322706188E+03   -0.23338E+01   -0.23311E+01 63024   0.629E+00    0.578E-01
DAV:   6    -0.384658727283E+03   -0.33602E+00   -0.54363E-01 53824   0.117E+00    0.819E-01
DAV:   7    -0.384661153648E+03   -0.24264E-02   -0.32832E-02 54376   0.356E-01    0.562E-01
DAV:   8    -0.384661152368E+03    0.12806E-05   -0.48231E-03 50512   0.142E-01    0.303E-01
DAV:   9    -0.384661211479E+03   -0.59111E-04   -0.60888E-04 48176   0.701E-02    0.250E-01
DAV:  10    -0.384661169370E+03    0.42109E-04   -0.14130E-04 37920   0.459E-02    0.169E-01
DAV:  11    -0.384661169190E+03    0.17977E-06   -0.47751E-05 34000   0.210E-02
   1 F= -.38466117E+03 E0= -.38465703E+03  d E =-.384661E+03  mag=    46.0000
       N       E                     dE             d eps       ncg     rms          rms(c)
DAV:   1    -0.384688509340E+03   -0.27340E-01   -0.88990E-01 36928   0.277E+00    0.131E+00
DAV:   2    -0.384664875064E+03    0.23634E-01   -0.98313E-02 37864   0.759E-01    0.595E-01
DAV:   3    -0.384663611069E+03    0.12640E-02   -0.96434E-03 44968   0.270E-01    0.464E-01
DAV:   4    -0.384664133115E+03   -0.52205E-03   -0.53606E-03 44216   0.214E-01    0.852E-01
DAV:   5    -0.384663067813E+03    0.10653E-02   -0.25792E-03 45008   0.173E-01    0.408E-01
DAV:   6    -0.384662925058E+03    0.14275E-03   -0.13107E-03 48800   0.917E-02    0.222E-01
DAV:   7    -0.384662892236E+03    0.32822E-04   -0.90315E-04 47152   0.656E-02    0.200E-01
DAV:   8    -0.384662829096E+03    0.63140E-04   -0.28007E-04 46704   0.443E-02    0.565E-02
DAV:   9    -0.384662825474E+03    0.36223E-05   -0.25743E-05 31576   0.149E-02
   2 F= -.38466283E+03 E0= -.38465870E+03  d E =-.165628E-02  mag=    46.0000
       N       E                     dE             d eps       ncg     rms          rms(c)
DAV:   1    -0.384662839680E+03   -0.10583E-04   -0.70692E-04 37592   0.776E-02    0.397E-02
DAV:   2    -0.384662818981E+03    0.20699E-04   -0.90219E-05 37296   0.238E-02    0.259E-02
DAV:   3    -0.384662817542E+03    0.14386E-05   -0.17842E-05 24688   0.125E-02    0.298E-02
DAV:   4    -0.384662816466E+03    0.10762E-05   -0.13748E-05 22840   0.969E-03    0.263E-02
DAV:   5    -0.384662815421E+03    0.10446E-05   -0.50714E-06 20896   0.687E-03    0.170E-02
DAV:   6    -0.384662814854E+03    0.56748E-06   -0.13288E-06 20200   0.450E-03
   3 F= -.38466281E+03 E0= -.38465868E+03  d E =-.164566E-02  mag=    46.0000
       N       E                     dE             d eps       ncg     rms          rms(c)
DAV:   1    -0.384662029005E+03    0.78642E-03   -0.32894E-01 39208   0.177E+00    0.222E-01
DAV:   2    -0.384663614707E+03   -0.15857E-02   -0.18221E-02 36200   0.319E-01    0.161E-01
DAV:   3    -0.384663675162E+03   -0.60455E-04   -0.89743E-04 47664   0.855E-02    0.232E-01
DAV:   4    -0.384663581477E+03    0.93685E-04   -0.23540E-04 39960   0.534E-02    0.967E-02
DAV:   5    -0.384663592761E+03   -0.11283E-04   -0.16241E-04 32384   0.342E-02    0.158E-01
DAV:   6    -0.384663546294E+03    0.46467E-04   -0.15098E-04 31640   0.317E-02    0.439E-02
DAV:   7    -0.384663543868E+03    0.24260E-05   -0.28837E-05 28416   0.173E-02
   4 F= -.38466354E+03 E0= -.38465943E+03  d E =-.729014E-03  mag=    46.0000
