       N       E                     dE             d eps       ncg     rms          ort
DAV:   1     0.541068693048E+04    0.54107E+04   -0.27071E+05  7904   0.160E+03
DAV:   2     0.165527154555E+03   -0.52452E+04   -0.48842E+04  7904   0.450E+02
DAV:   3    -0.384292087522E+03   -0.54982E+03   -0.54114E+03  7904   0.161E+02
DAV:   4    -0.396301613871E+03   -0.12010E+02   -0.11948E+02  7904   0.252E+01
DAV:   5    -0.396650550089E+03   -0.34894E+00   -0.34845E+00  7904   0.345E+00
SDA:   6    -0.163093943867E+03    0.23356E+03   -0.34845E+00  7904   0.104E+04 0.000E+00
CGA:   7    -0.243799330661E+03   -0.80705E+02   -0.11495E+03  7904   0.124E+04 0.746E+02
CGA:   8    -0.281326347334E+03   -0.37527E+02   -0.30686E+02  7904   0.860E+03 0.407E+02
CGA:   9    -0.291077934535E+03   -0.97516E+01   -0.24626E+02  7904   0.458E+03 0.127E+02
CGA:  10    -0.295697673652E+03   -0.46197E+01   -0.12394E+02  7904   0.122E+04-0.344E+03
CGA:  11    -0.298794986825E+03   -0.30973E+01   -0.73600E+02  7904   0.260E+03-0.641E+01
CGA:  12    -0.304168670160E+03   -0.53737E+01   -0.36918E+01  7904   0.103E+03 0.127E+03
CGA:  13    -0.308619950990E+03   -0.44513E+01   -0.17968E+01  7904   0.254E+03 0.350E+03
CGA:  14    -0.303631983290E+03    0.49880E+01   -0.61954E+01  7904   0.217E+04-0.113E+04
CGA:  15    -0.292560022862E+03    0.11072E+02   -0.98351E+02  7904   0.114E+04-0.303E+03
CGA:  16    -0.306962367657E+03   -0.14402E+02   -0.21238E+02  7904   0.604E+03-0.381E+03
CGA:  17    -0.316937753638E+03   -0.99754E+01   -0.15368E+02  7904   0.269E+03-0.486E+02
CGA:  18    -0.316068397523E+03    0.86936E+00   -0.89503E+01  7904   0.749E+03-0.250E+03
CGA:  19    -0.293634413019E+03    0.22434E+02   -0.36519E+02  7904   0.103E+04-0.418E+03
CGA:  20    -0.316824355628E+03   -0.23190E+02   -0.22653E+02  7904   0.151E+04-0.121E+04
CGA:  21    -0.308512684253E+03    0.83117E+01   -0.73683E+02  7904   0.855E+03-0.188E+03
CGA:  22    -0.314563109071E+03   -0.60504E+01   -0.26160E+02  7904   0.104E+04-0.104E+04
CGA:  23    -0.309236771460E+03    0.53263E+01   -0.47180E+02  7904   0.568E+03-0.686E+02
CGA:  24    -0.293207381764E+03    0.16029E+02   -0.14811E+02  7904   0.248E+04-0.116E+04
CGA:  25    -0.310251419543E+03   -0.17044E+02   -0.66441E+02  7904   0.846E+03-0.223E+03
CGA:  26    -0.299898726023E+03    0.10353E+02   -0.24828E+02  7904   0.204E+04-0.104E+04
CGA:  27    -0.313756768608E+03   -0.13858E+02   -0.69559E+02  7904   0.389E+03-0.234E+03
CGA:  28    -0.297812304900E+03    0.15944E+02   -0.96076E+01  7904   0.205E+04-0.364E+03
CGA:  29    -0.313286231235E+03   -0.15474E+02   -0.71155E+02  7904   0.439E+03-0.210E+03
CGA:  30    -0.304850571417E+03    0.84357E+01   -0.10603E+02  7904   0.202E+03-0.577E+02
CGA:  31    -0.324587010213E+03   -0.19736E+02   -0.28910E+01  7904   0.589E+03-0.492E+03
CGA:  32    -0.305459139173E+03    0.19128E+02   -0.15783E+02  7904   0.241E+04-0.101E+04
CGA:  33    -0.309964330610E+03   -0.45052E+01   -0.78962E+02  7904   0.716E+03-0.405E+03
CGA:  34    -0.307943062923E+03    0.20213E+01   -0.18243E+02  7904   0.685E+03-0.156E+03
CGA:  35    -0.317679938682E+03   -0.97369E+01   -0.18498E+02  7904   0.262E+03-0.116E+03
CGA:  36    -0.317952574740E+03   -0.27264E+00   -0.35430E+01  7904   0.847E+03-0.313E+03
CGA:  37    -0.306490457836E+03    0.11462E+02   -0.20343E+02  7904   0.195E+04-0.124E+04
CGA:  38    -0.297291921771E+03    0.91985E+01   -0.57484E+02  7904   0.140E+04-0.542E+03
CGA:  39    -0.314115916576E+03   -0.16824E+02   -0.25970E+02  7904   0.797E+03-0.120E+03
CGA:  40    -0.305523893961E+03    0.85920E+01   -0.18249E+02  7904   0.230E+04-0.739E+03
CGA:  41    -0.310528928502E+03   -0.50050E+01   -0.68586E+02  7904   0.295E+03-0.119E+03
CGA:  42    -0.326994517403E+03   -0.16466E+02   -0.44768E+01  7904   0.792E+03 0.700E+03
CGA:  43    -0.316372978980E+03    0.10622E+02   -0.17185E+02  7904   0.105E+04-0.518E+03
CGA:  44    -0.317208547987E+03   -0.83557E+00   -0.23679E+02  7904   0.563E+03-0.448E+03
CGA:  45    -0.329930365550E+03   -0.12722E+02   -0.51750E+01  7904   0.330E+03 0.515E+03
CGA:  46    -0.332694084972E+03   -0.27637E+01   -0.37908E+01  7904   0.287E+03-0.294E+03
CGA:  47    -0.331676419213E+03    0.10177E+01   -0.38392E+01  7904   0.472E+03-0.343E+03
CGA:  48    -0.328416670733E+03    0.32597E+01   -0.63210E+01  7904   0.102E+04-0.643E+03
CGA:  49    -0.320921438134E+03    0.74952E+01   -0.18620E+02  7904   0.858E+03-0.495E+03
CGA:  50    -0.332172381868E+03   -0.11251E+02   -0.90785E+01  7904   0.409E+03-0.391E+03
CGA:  51    -0.333580984750E+03   -0.14086E+01   -0.37988E+01  7904   0.117E+03-0.748E+02
CGA:  52    -0.334636291996E+03   -0.10553E+01   -0.94866E+00  7904   0.192E+02 0.125E+02
CGA:  53    -0.334783392627E+03   -0.14710E+00   -0.11791E+00  7904   0.318E+01 0.481E+01
CGA:  54    -0.334822077594E+03   -0.38685E-01   -0.41625E-01  7904   0.230E+01-0.239E+00
CGA:  55    -0.334845482610E+03   -0.23405E-01   -0.24672E-01  7904   0.236E+01-0.882E-01
CGA:  56    -0.334910916238E+03   -0.65434E-01   -0.64750E-01  7904   0.110E+02-0.244E-01
CGA:  57    -0.334960395830E+03   -0.49480E-01   -0.26357E-01  7904   0.103E+02 0.949E+01
CGA:  58    -0.335028704989E+03   -0.68309E-01   -0.64587E-01  7904   0.994E+00 0.496E+00
CGA:  59    -0.335053051508E+03   -0.24347E-01   -0.24126E-01  7904   0.123E+01-0.197E-02
CGA:  60    -0.335102093563E+03   -0.49042E-01   -0.49169E-01  7904   0.609E+01-0.107E-01
CGA:  61    -0.335260765912E+03   -0.15867E+00   -0.10095E+00  7904   0.437E+01 0.328E+01
CGA:  62    -0.335295256498E+03   -0.34491E-01   -0.33202E-01  7904   0.548E+00 0.133E+00
CGA:  63    -0.335307025892E+03   -0.11769E-01   -0.11800E-01  7904   0.737E+00 0.259E-03
CGA:  64    -0.335323454775E+03   -0.16429E-01   -0.16174E-01  7904   0.110E+01-0.283E-02
CGA:  65    -0.335356677104E+03   -0.33222E-01   -0.33289E-01  7904   0.122E+01-0.456E-01
CGA:  66    -0.335380711223E+03   -0.24034E-01   -0.23831E-01  7904   0.150E+01 0.602E-02
CGA:  67    -0.335403702489E+03   -0.22991E-01   -0.22092E-01  7904   0.126E+01 0.451E-01
CGA:  68    -0.335441447717E+03   -0.37745E-01   -0.37771E-01  7904   0.180E+01-0.737E-02
CGA:  69    -0.335464647752E+03   -0.23200E-01   -0.23353E-01  7904   0.687E+00-0.330E-02
CGA:  70    -0.335472679458E+03   -0.80317E-02   -0.76215E-02  7904   0.238E+00 0.264E-01
CGA:  71    -0.335475340383E+03   -0.26609E-02   -0.26985E-02  7904   0.147E+00-0.213E-02
CGA:  72    -0.335481116126E+03   -0.57757E-02   -0.55123E-02  7904   0.363E+00 0.168E-01
CGA:  73    -0.335491065367E+03   -0.99492E-02   -0.99933E-02  7904   0.434E+00 0.925E-02
CGA:  74    -0.335495495357E+03   -0.44300E-02   -0.47563E-02  7904   0.628E-01-0.193E-01
CGA:  75    -0.335497169242E+03   -0.16739E-02   -0.16719E-02  7904   0.145E+00 0.189E-03
CGA:  76    -0.335500910696E+03   -0.37415E-02   -0.37416E-02  7904   0.792E-01 0.356E-02
CGA:  77    -0.335502500291E+03   -0.15896E-02   -0.15932E-02  7904   0.938E-01-0.166E-03
CGA:  78    -0.335504003652E+03   -0.15034E-02   -0.15289E-02  7904   0.333E-01-0.465E-03
CGA:  79    -0.335505350805E+03   -0.13472E-02   -0.13489E-02  7904   0.955E-01-0.202E-03
CGA:  80    -0.335507215517E+03   -0.18647E-02   -0.18724E-02  7904   0.616E-01-0.165E-03
CGA:  81    -0.335508334970E+03   -0.11195E-02   -0.11178E-02  7904   0.342E-01-0.325E-03
CGA:  82    -0.335508877364E+03   -0.54239E-03   -0.54595E-03  7904   0.175E-01-0.208E-03
CGA:  83    -0.335509208110E+03   -0.33075E-03   -0.33061E-03  7904   0.125E-01-0.106E-03
CGA:  84    -0.335509495966E+03   -0.28786E-03   -0.28783E-03  7904   0.208E-01-0.790E-04
CGA:  85    -0.335510397642E+03   -0.90168E-03   -0.90578E-03  7904   0.207E-01-0.229E-03
CGA:  86    -0.335510661933E+03   -0.26429E-03   -0.26510E-03  7904   0.119E-01-0.176E-03
CGA:  87    -0.335510970118E+03   -0.30818E-03   -0.30819E-03  7904   0.775E-02-0.556E-04
CGA:  88    -0.335511105434E+03   -0.13532E-03   -0.13534E-03  7904   0.728E-02-0.434E-04
CGA:  89    -0.335511366190E+03   -0.26076E-03   -0.26190E-03  7904   0.138E-01-0.981E-04
CGA:  90    -0.335511658381E+03   -0.29219E-03   -0.29232E-03  7904   0.109E-01-0.459E-04
CGA:  91    -0.335511860086E+03   -0.20170E-03   -0.20150E-03  7904   0.631E-02-0.489E-04
SDA:  92    -0.335512030095E+03   -0.17001E-03   -0.16990E-03  7904   0.899E-02 0.160E-04
CGA:  93    -0.335512091508E+03   -0.61413E-04   -0.61308E-04  7904   0.133E-02 0.182E-04
CGA:  94    -0.335512176474E+03   -0.84965E-04   -0.82984E-04  7904   0.307E-02 0.519E-04
CGA:  95    -0.335512292691E+03   -0.11622E-03   -0.11524E-03  7904   0.377E-02 0.910E-04
CGA:  96    -0.335512384238E+03   -0.91546E-04   -0.91745E-04  7904   0.388E-02 0.766E-04
CGA:  97    -0.335512507123E+03   -0.12289E-03   -0.12222E-03  7904   0.496E-02 0.129E-03
CGA:  98    -0.335512669446E+03   -0.16232E-03   -0.16154E-03  7904   0.143E-01 0.147E-03
CGA:  99    -0.335513036428E+03   -0.36698E-03   -0.36768E-03  7904   0.212E-02 0.366E-03
CGA: 100    -0.335513147197E+03   -0.11077E-03   -0.10922E-03  7904   0.467E-02 0.645E-04
CGA: 101    -0.335513236562E+03   -0.89365E-04   -0.89524E-04  7904   0.596E-02 0.213E-04
CGA: 102    -0.335513419342E+03   -0.18278E-03   -0.18245E-03  7904   0.566E-02 0.708E-04
CGA: 103    -0.335513536464E+03   -0.11712E-03   -0.11720E-03  7904   0.279E-02 0.179E-05
CGA: 104    -0.335513588772E+03   -0.52308E-04   -0.52144E-04  7904   0.274E-02-0.104E-04
CGA: 105    -0.335513844444E+03   -0.25567E-03   -0.25321E-03  7904   0.210E-01 0.609E-04
CGA: 106    -0.335514184331E+03   -0.33989E-03   -0.34295E-03  7904   0.263E-02-0.218E-03
CGA: 107    -0.335514274215E+03   -0.89884E-04   -0.90020E-04  7904   0.475E-02-0.303E-04
CGA: 108    -0.335514394489E+03   -0.12027E-03   -0.11972E-03  7904   0.673E-02-0.877E-04
CGA: 109    -0.335514616350E+03   -0.22186E-03   -0.22136E-03  7904   0.549E-02 0.325E-04
CGA: 110    -0.335514740974E+03   -0.12462E-03   -0.12525E-03  7904   0.261E-02-0.302E-04
CGA: 111    -0.335514791121E+03   -0.50146E-04   -0.50044E-04  7904   0.257E-02-0.244E-04
CGA: 112    -0.335515029873E+03   -0.23875E-03   -0.24661E-03  7904   0.514E-02-0.114E-03
CGA: 113    -0.335515086171E+03   -0.56298E-04   -0.57049E-04  7904   0.173E-02-0.930E-04
CGA: 114    -0.335515166758E+03   -0.80587E-04   -0.80595E-04  7904   0.369E-02-0.151E-05
CGA: 115    -0.335515342420E+03   -0.17566E-03   -0.17501E-03  7904   0.129E-02 0.361E-04
CGA: 116    -0.335515384606E+03   -0.42186E-04   -0.42189E-04  7904   0.168E-02 0.170E-04
CGA: 117    -0.335515425636E+03   -0.41029E-04   -0.41223E-04  7904   0.183E-02 0.260E-04
CGA: 118    -0.335515545720E+03   -0.12008E-03   -0.11552E-03  7904   0.492E-02 0.151E-03
CGA: 119    -0.335515646044E+03   -0.10032E-03   -0.10457E-03  7904   0.152E-02 0.447E-04
CGA: 120    -0.335515675061E+03   -0.29017E-04   -0.29507E-04  7904   0.786E-03 0.292E-04
CGA: 121    -0.335515755458E+03   -0.80397E-04   -0.75357E-04  7904   0.332E-02 0.818E-04
CGA: 122    -0.335515823220E+03   -0.67762E-04   -0.69458E-04  7904   0.160E-02 0.521E-04
SDA: 123    -0.335515871452E+03   -0.48232E-04   -0.48506E-04  7904   0.106E-02 0.531E-04
CGA: 124    -0.335515886369E+03   -0.14917E-04   -0.14918E-04  7904   0.679E-03-0.109E-05
CGA: 125    -0.335515923112E+03   -0.36743E-04   -0.36883E-04  7904   0.178E-02-0.672E-05
CGA: 126    -0.335515980640E+03   -0.57528E-04   -0.57505E-04  7904   0.671E-03-0.135E-04
CGA: 127    -0.335516010343E+03   -0.29703E-04   -0.29863E-04  7904   0.151E-02-0.153E-04
CGA: 128    -0.335516063627E+03   -0.53284E-04   -0.53326E-04  7904   0.159E-02-0.299E-04
CGA: 129    -0.335516142854E+03   -0.79227E-04   -0.80019E-04  7904   0.127E-02-0.481E-04
CGA: 130    -0.335516157318E+03   -0.14464E-04   -0.14184E-04  7904   0.489E-03-0.223E-05
CGA: 131    -0.335516233024E+03   -0.75706E-04   -0.78324E-04  7904   0.178E-02-0.199E-04
CGA: 132    -0.335516270042E+03   -0.37018E-04   -0.36692E-04  7904   0.117E-02-0.332E-05
CGA: 133    -0.335516292340E+03   -0.22298E-04   -0.22096E-04  7904   0.694E-03 0.125E-05
CGA: 134    -0.335516311628E+03   -0.19288E-04   -0.19300E-04  7904   0.880E-03 0.267E-05
CGA: 135    -0.335516362659E+03   -0.51031E-04   -0.50658E-04  7904   0.187E-02 0.199E-04
CGA: 136    -0.335516396692E+03   -0.34033E-04   -0.34345E-04  7904   0.214E-03 0.183E-04
CGA: 137    -0.335516402152E+03   -0.54605E-05   -0.55345E-05  7904   0.484E-03 0.582E-05
CGA: 138    -0.335516450287E+03   -0.48135E-04   -0.45271E-04  7904   0.173E-03 0.536E-04
CGA: 139    -0.335516455484E+03   -0.51974E-05   -0.52386E-05  7904   0.235E-03 0.333E-05
   1 F= -.33551646E+03 E0= -.33548694E+03  d E =-.335516E+03  mag=    32.0000
       N       E                     dE             d eps       ncg     rms          ort
SDA:   1    -0.335483274645E+03    0.33176E-01    0.00000E+00  7904   0.346E+01 0.000E+00
CGA:   2    -0.335512617980E+03   -0.29343E-01   -0.29750E-01  7904   0.219E+00-0.582E-01
CGA:   3    -0.335515613280E+03   -0.29953E-02   -0.28986E-02  7904   0.240E-01 0.522E-02
CGA:   4    -0.335516131993E+03   -0.51871E-03   -0.50645E-03  7904   0.627E-03 0.203E-03
CGA:   5    -0.335516162371E+03   -0.30378E-04   -0.30430E-04  7904   0.187E-02-0.398E-05
CGA:   6    -0.335516216900E+03   -0.54529E-04   -0.54494E-04  7904   0.724E-03-0.679E-05
CGA:   7    -0.335516226997E+03   -0.10097E-04   -0.10078E-04  7904   0.293E-03-0.155E-05
CGA:   8    -0.335516237609E+03   -0.10612E-04   -0.10616E-04  7904   0.490E-03-0.256E-05
CGA:   9    -0.335516255442E+03   -0.17833E-04   -0.17841E-04  7904   0.341E-03-0.421E-05
CGA:  10    -0.335516266854E+03   -0.11412E-04   -0.11406E-04  7904   0.753E-04-0.510E-05
CGA:  11    -0.335516273586E+03   -0.67318E-05   -0.67458E-05  7904   0.402E-03-0.239E-06
   2 F= -.33551627E+03 E0= -.33548695E+03  d E =0.181898E-03  mag=    32.0000
       N       E                     dE             d eps       ncg     rms          ort
SDA:   1    -0.335481124463E+03    0.35142E-01    0.00000E+00  7904   0.375E+01 0.000E+00
CGA:   2    -0.335513620047E+03   -0.32496E-01   -0.28566E-01  7904   0.173E+00 0.447E+00
CGA:   3    -0.335515705538E+03   -0.20855E-02   -0.20707E-02  7904   0.192E-01 0.107E-02
CGA:   4    -0.335515897342E+03   -0.19180E-03   -0.19549E-03  7904   0.418E-02-0.271E-03
CGA:   5    -0.335515972221E+03   -0.74879E-04   -0.75347E-04  7904   0.157E-02-0.201E-05
CGA:   6    -0.335515997100E+03   -0.24879E-04   -0.24894E-04  7904   0.958E-03 0.174E-05
CGA:   7    -0.335516026749E+03   -0.29649E-04   -0.29650E-04  7904   0.144E-02 0.320E-05
CGA:   8    -0.335516048833E+03   -0.22085E-04   -0.22139E-04  7904   0.254E-03 0.227E-05
CGA:   9    -0.335516055085E+03   -0.62518E-05   -0.62545E-05  7904   0.398E-03 0.449E-06
CGA:  10    -0.335516067257E+03   -0.12172E-04   -0.12172E-04  7904   0.658E-03 0.677E-06
CGA:  11    -0.335516085496E+03   -0.18239E-04   -0.18238E-04  7904   0.204E-03-0.899E-06
CGA:  12    -0.335516088019E+03   -0.25229E-05   -0.25047E-05  7904   0.110E-03-0.834E-06
   3 F= -.33551609E+03 E0= -.33548682E+03  d E =0.185567E-03  mag=    32.0000
       N       E                     dE             d eps       ncg     rms          ort
SDA:   1    -0.335359299147E+03    0.15679E+00    0.00000E+00  7904   0.189E+01 0.000E+00
CGA:   2    -0.335379595121E+03   -0.20296E-01   -0.20952E-01  7904   0.554E+00-0.392E-01
CGA:   3    -0.335411065900E+03   -0.31471E-01   -0.32047E-01  7904   0.176E+01-0.192E-01
CGA:   4    -0.335446547000E+03   -0.35481E-01   -0.35258E-01  7904   0.886E+00-0.178E-02
CGA:   5    -0.335468933125E+03   -0.22386E-01   -0.22700E-01  7904   0.127E+00 0.310E-01
CGA:   6    -0.335472666711E+03   -0.37336E-02   -0.37344E-02  7904   0.224E+00 0.641E-03
CGA:   7    -0.335481742182E+03   -0.90755E-02   -0.90495E-02  7904   0.456E+00 0.180E-02
CGA:   8    -0.335491892254E+03   -0.10150E-01   -0.10149E-01  7904   0.291E-01-0.612E-04
CGA:   9    -0.335493008115E+03   -0.11159E-02   -0.11225E-02  7904   0.621E-01-0.537E-03
CGA:  10    -0.335494214334E+03   -0.12062E-02   -0.12056E-02  7904   0.394E-01-0.643E-05
CGA:  11    -0.335495578971E+03   -0.13646E-02   -0.13642E-02  7904   0.281E-01 0.509E-04
CGA:  12    -0.335496023947E+03   -0.44498E-03   -0.44736E-03  7904   0.927E-02-0.465E-04
CGA:  13    -0.335496203461E+03   -0.17951E-03   -0.17975E-03  7904   0.895E-02 0.620E-05
CGA:  14    -0.335496606584E+03   -0.40312E-03   -0.40305E-03  7904   0.164E-01 0.580E-05
CGA:  15    -0.335496900596E+03   -0.29401E-03   -0.29474E-03  7904   0.290E-02 0.553E-05
CGA:  16    -0.335496983751E+03   -0.83155E-04   -0.83154E-04  7904   0.435E-02 0.137E-04
CGA:  17    -0.335497074145E+03   -0.90394E-04   -0.90485E-04  7904   0.328E-02 0.311E-05
CGA:  18    -0.335497251257E+03   -0.17711E-03   -0.17738E-03  7904   0.249E-02-0.101E-04
CGA:  19    -0.335497292219E+03   -0.40962E-04   -0.40946E-04  7904   0.103E-02-0.560E-06
CGA:  20    -0.335497312419E+03   -0.20200E-04   -0.20192E-04  7904   0.115E-02-0.342E-06
CGA:  21    -0.335497414570E+03   -0.10215E-03   -0.10180E-03  7904   0.142E-02 0.595E-05
CGA:  22    -0.335497442950E+03   -0.28380E-04   -0.28403E-04  7904   0.105E-02 0.126E-05
CGA:  23    -0.335497463005E+03   -0.20055E-04   -0.20070E-04  7904   0.481E-03 0.245E-06
CGA:  24    -0.335497475855E+03   -0.12850E-04   -0.12851E-04  7904   0.694E-03 0.470E-07
CGA:  25    -0.335497514592E+03   -0.38737E-04   -0.38875E-04  7904   0.976E-03-0.533E-05
CGA:  26    -0.335497531685E+03   -0.17093E-04   -0.17088E-04  7904   0.225E-03-0.138E-05
CGA:  27    -0.335497535424E+03   -0.37388E-05   -0.37492E-05  7904   0.227E-03 0.534E-06
CGA:  28    -0.335497556413E+03   -0.20989E-04   -0.20810E-04  7904   0.271E-03 0.297E-05
CGA:  29    -0.335497563231E+03   -0.68182E-05   -0.68156E-05  7904   0.233E-03-0.161E-06
   4 F= -.33549756E+03 E0= -.33546841E+03  d E =0.185248E-01  mag=    32.0000
       N       E                     dE             d eps       ncg     rms          ort
SDA:   1    -0.335335811200E+03    0.16175E+00    0.00000E+00  7904   0.180E+02 0.000E+00
CGA:   2    -0.335482729157E+03   -0.14692E+00   -0.11374E+00  7904   0.106E+01 0.441E+01
CGA:   3    -0.335491311241E+03   -0.85821E-02   -0.78762E-02  7904   0.593E-01 0.103E+00
CGA:   4    -0.335492109812E+03   -0.79857E-03   -0.80270E-03  7904   0.202E-01-0.222E-03
CGA:   5    -0.335492424656E+03   -0.31484E-03   -0.31455E-03  7904   0.227E-01 0.154E-04
CGA:   6    -0.335493562596E+03   -0.11379E-02   -0.11375E-02  7904   0.486E-01 0.213E-04
CGA:   7    -0.335494096043E+03   -0.53345E-03   -0.53230E-03  7904   0.159E-01 0.978E-04
CGA:   8    -0.335494426722E+03   -0.33068E-03   -0.33176E-03  7904   0.130E-01 0.295E-04
CGA:   9    -0.335494619077E+03   -0.19236E-03   -0.19340E-03  7904   0.935E-02-0.295E-04
CGA:  10    -0.335494852993E+03   -0.23392E-03   -0.23384E-03  7904   0.109E-01-0.249E-04
CGA:  11    -0.335495063311E+03   -0.21032E-03   -0.21005E-03  7904   0.871E-02-0.189E-04
CGA:  12    -0.335495186284E+03   -0.12297E-03   -0.12278E-03  7904   0.313E-02-0.110E-04
CGA:  13    -0.335495231311E+03   -0.45028E-04   -0.44912E-04  7904   0.178E-02-0.465E-05
CGA:  14    -0.335495285995E+03   -0.54684E-04   -0.54712E-04  7904   0.467E-02-0.484E-05
CGA:  15    -0.335495407953E+03   -0.12196E-03   -0.12196E-03  7904   0.224E-02 0.988E-07
CGA:  16    -0.335495432464E+03   -0.24511E-04   -0.24509E-04  7904   0.730E-03-0.466E-06
CGA:  17    -0.335495442437E+03   -0.99734E-05   -0.99542E-05  7904   0.243E-03-0.855E-06
   5 F= -.33549544E+03 E0= -.33546629E+03  d E =0.212079E-02  mag=    32.0000
       N       E                     dE             d eps       ncg     rms          ort
SDA:   1    -0.335412907755E+03    0.82525E-01    0.00000E+00  7904   0.961E+01 0.000E+00
CGA:   2    -0.335490066461E+03   -0.77159E-01   -0.66940E-01  7904   0.180E+00 0.115E+01
CGA:   3    -0.335491741899E+03   -0.16754E-02   -0.16384E-02  7904   0.316E-01 0.332E-02
CGA:   4    -0.335492377982E+03   -0.63608E-03   -0.63280E-03  7904   0.194E-01-0.366E-03
CGA:   5    -0.335492783667E+03   -0.40569E-03   -0.40565E-03  7904   0.217E-01-0.885E-05
CGA:   6    -0.335493421603E+03   -0.63794E-03   -0.63743E-03  7904   0.397E-01 0.573E-04
CGA:   7    -0.335494381105E+03   -0.95950E-03   -0.95940E-03  7904   0.216E-01 0.542E-04
CGA:   8    -0.335494662992E+03   -0.28189E-03   -0.28219E-03  7904   0.783E-02-0.200E-05
CGA:   9    -0.335494818939E+03   -0.15595E-03   -0.15594E-03  7904   0.956E-02-0.430E-05
CGA:  10    -0.335495180095E+03   -0.36116E-03   -0.36221E-03  7904   0.703E-02-0.631E-04
CGA:  11    -0.335495252409E+03   -0.72314E-04   -0.72468E-04  7904   0.238E-02-0.750E-05
CGA:  12    -0.335495320509E+03   -0.68100E-04   -0.67921E-04  7904   0.149E-02 0.232E-04
CGA:  13    -0.335495345717E+03   -0.25208E-04   -0.25211E-04  7904   0.185E-02 0.991E-06
CGA:  14    -0.335495452480E+03   -0.10676E-03   -0.10667E-03  7904   0.123E-02 0.214E-05
CGA:  15    -0.335495462646E+03   -0.10167E-04   -0.10200E-04  7904   0.187E-03 0.408E-06
CGA:  16    -0.335495469554E+03   -0.69071E-05   -0.68746E-05  7904   0.250E-03 0.237E-05
   6 F= -.33549547E+03 E0= -.33546635E+03  d E =-.271162E-04  mag=    32.0000
       N       E                     dE             d eps       ncg     rms          ort
SDA:   1    -0.329893978604E+03    0.56015E+01    0.00000E+00  7904   0.157E+03 0.000E+00
CGA:   2    -0.331641689366E+03   -0.17477E+01   -0.20816E+01  7904   0.295E+02-0.345E+02
CGA:   3    -0.332180124034E+03   -0.53843E+00   -0.53886E+00  7904   0.223E+02-0.137E+01
CGA:   4    -0.332988914251E+03   -0.80879E+00   -0.78299E+00  7904   0.313E+02 0.175E+01
CGA:   5    -0.333884477483E+03   -0.89556E+00   -0.89541E+00  7904   0.287E+02 0.932E-01
CGA:   6    -0.334605385217E+03   -0.72091E+00   -0.72654E+00  7904   0.119E+02-0.272E+01
CGA:   7    -0.334917476108E+03   -0.31209E+00   -0.30992E+00  7904   0.398E+01 0.321E+00
CGA:   8    -0.335042452347E+03   -0.12498E+00   -0.12688E+00  7904   0.520E+01-0.202E+00
CGA:   9    -0.335187571686E+03   -0.14512E+00   -0.14604E+00  7904   0.641E+01-0.124E+00
CGA:  10    -0.335321922425E+03   -0.13435E+00   -0.13535E+00  7904   0.235E+01 0.103E+00
CGA:  11    -0.335358510801E+03   -0.36588E-01   -0.35786E-01  7904   0.597E+00 0.135E-01
CGA:  12    -0.335376911570E+03   -0.18401E-01   -0.18302E-01  7904   0.464E+00 0.114E-01
CGA:  13    -0.335402177655E+03   -0.25266E-01   -0.25437E-01  7904   0.841E+00-0.581E-02
CGA:  14    -0.335419629536E+03   -0.17452E-01   -0.17378E-01  7904   0.576E+00-0.366E-02
CGA:  15    -0.335428708800E+03   -0.90793E-02   -0.91565E-02  7904   0.933E-01-0.831E-03
CGA:  16    -0.335431245221E+03   -0.25364E-02   -0.25391E-02  7904   0.929E-01-0.775E-03
CGA:  17    -0.335435377126E+03   -0.41319E-02   -0.41213E-02  7904   0.167E+00 0.519E-03
CGA:  18    -0.335440461364E+03   -0.50842E-02   -0.50914E-02  7904   0.866E-01-0.114E-02
CGA:  19    -0.335441929318E+03   -0.14680E-02   -0.14676E-02  7904   0.497E-01 0.137E-04
CGA:  20    -0.335442927581E+03   -0.99826E-03   -0.10012E-02  7904   0.261E-01 0.114E-03
CGA:  21    -0.335444275230E+03   -0.13476E-02   -0.13488E-02  7904   0.383E-01-0.449E-04
CGA:  22    -0.335445695820E+03   -0.14206E-02   -0.14188E-02  7904   0.289E-01 0.133E-03
CGA:  23    -0.335446205929E+03   -0.51011E-03   -0.50995E-03  7904   0.141E-01-0.486E-06
CGA:  24    -0.335446636743E+03   -0.43081E-03   -0.43097E-03  7904   0.208E-01-0.262E-04
CGA:  25    -0.335447275472E+03   -0.63873E-03   -0.63833E-03  7904   0.228E-01 0.795E-04
CGA:  26    -0.335447816640E+03   -0.54117E-03   -0.54085E-03  7904   0.617E-02-0.172E-04
CGA:  27    -0.335448019673E+03   -0.20303E-03   -0.20291E-03  7904   0.493E-02 0.157E-04
CGA:  28    -0.335448235104E+03   -0.21543E-03   -0.21538E-03  7904   0.958E-02 0.356E-05
CGA:  29    -0.335448452978E+03   -0.21787E-03   -0.21793E-03  7904   0.713E-02 0.699E-05
CGA:  30    -0.335448608508E+03   -0.15553E-03   -0.15569E-03  7904   0.284E-02 0.100E-04
CGA:  31    -0.335448664257E+03   -0.55749E-04   -0.55724E-04  7904   0.163E-02-0.717E-06
SDA:  32    -0.335448742128E+03   -0.77871E-04   -0.77773E-04  7904   0.245E-02 0.456E-05
CGA:  33    -0.335448773200E+03   -0.31073E-04   -0.31016E-04  7904   0.391E-03 0.546E-06
CGA:  34    -0.335448791776E+03   -0.18576E-04   -0.18586E-04  7904   0.135E-02-0.616E-06
CGA:  35    -0.335448862642E+03   -0.70866E-04   -0.70890E-04  7904   0.169E-02-0.113E-05
CGA:  36    -0.335448887785E+03   -0.25144E-04   -0.25090E-04  7904   0.725E-03-0.219E-05
CGA:  37    -0.335448913046E+03   -0.25261E-04   -0.25292E-04  7904   0.332E-03-0.458E-05
CGA:  38    -0.335448947318E+03   -0.34271E-04   -0.34464E-04  7904   0.118E-03-0.257E-05
CGA:  39    -0.335448953808E+03   -0.64908E-05   -0.64731E-05  7904   0.382E-03 0.758E-06
CGA:  40    -0.335448978237E+03   -0.24428E-04   -0.24303E-04  7904   0.359E-03 0.425E-05
CGA:  41    -0.335448983322E+03   -0.50851E-05   -0.50898E-05  7904   0.761E-04 0.385E-06
CGA:  42    -0.335448994121E+03   -0.10799E-04   -0.10822E-04  7904   0.385E-03-0.234E-06
CGA:  43    -0.335448999315E+03   -0.51947E-05   -0.51967E-05  7904   0.129E-03-0.194E-06
   7 F= -.33544900E+03 E0= -.33541982E+03  d E =0.464702E-01  mag=    32.0000
       N       E                     dE             d eps       ncg     rms          ort
SDA:   1    -0.334363156697E+03    0.10858E+01    0.00000E+00  7904   0.655E+02 0.000E+00
CGA:   2    -0.334662285109E+03   -0.29913E+00   -0.92121E+00  7904   0.342E+02-0.342E+02
CGA:   3    -0.334952746402E+03   -0.29046E+00   -0.22756E+00  7904   0.231E+01 0.749E+01
CGA:   4    -0.334980863217E+03   -0.28117E-01   -0.26389E-01  7904   0.175E+01 0.147E+00
CGA:   5    -0.335085896326E+03   -0.10503E+00   -0.10373E+00  7904   0.111E+02 0.528E-01
CGA:   6    -0.335243684274E+03   -0.15779E+00   -0.16175E+00  7904   0.396E+01-0.175E+00
CGA:   7    -0.335283914008E+03   -0.40230E-01   -0.38505E-01  7904   0.174E+01 0.123E+00
CGA:   8    -0.335308775075E+03   -0.24861E-01   -0.21770E-01  7904   0.142E+01 0.192E+00
CGA:   9    -0.335330188342E+03   -0.21413E-01   -0.17086E-01  7904   0.120E+01 0.319E+00
CGA:  10    -0.335345322862E+03   -0.15135E-01   -0.13568E-01  7904   0.905E+00 0.139E+00
CGA:  11    -0.335357702755E+03   -0.12380E-01   -0.12490E-01  7904   0.145E+01-0.589E-02
CGA:  12    -0.335380217824E+03   -0.22515E-01   -0.22660E-01  7904   0.291E+01-0.379E-02
CGA:  13    -0.335406968585E+03   -0.26751E-01   -0.27429E-01  7904   0.172E+01-0.522E-01
CGA:  14    -0.335417472029E+03   -0.10503E-01   -0.10824E-01  7904   0.550E+00-0.430E-01
CGA:  15    -0.335421030197E+03   -0.35582E-02   -0.35872E-02  7904   0.224E+00-0.373E-02
CGA:  16    -0.335422946994E+03   -0.19168E-02   -0.19299E-02  7904   0.192E+00-0.111E-02
CGA:  17    -0.335426038368E+03   -0.30914E-02   -0.30817E-02  7904   0.403E+00-0.864E-05
CGA:  18    -0.335431191819E+03   -0.51535E-02   -0.50197E-02  7904   0.424E+00 0.489E-02
CGA:  19    -0.335434821175E+03   -0.36294E-02   -0.35827E-02  7904   0.311E+00 0.389E-02
CGA:  20    -0.335438240553E+03   -0.34194E-02   -0.34276E-02  7904   0.350E+00-0.429E-03
CGA:  21    -0.335441344036E+03   -0.31035E-02   -0.32939E-02  7904   0.190E+00-0.125E-01
CGA:  22    -0.335442652149E+03   -0.13081E-02   -0.13588E-02  7904   0.849E-01-0.498E-02
CGA:  23    -0.335443521647E+03   -0.86950E-03   -0.87238E-03  7904   0.859E-01-0.137E-03
CGA:  24    -0.335444800029E+03   -0.12784E-02   -0.12804E-02  7904   0.138E+00 0.820E-05
CGA:  25    -0.335446735570E+03   -0.19355E-02   -0.19344E-02  7904   0.138E+00-0.415E-04
CGA:  26    -0.335447808617E+03   -0.10730E-02   -0.10639E-02  7904   0.427E-01 0.801E-03
CGA:  27    -0.335448141928E+03   -0.33331E-03   -0.33395E-03  7904   0.251E-01-0.507E-04
CGA:  28    -0.335448529355E+03   -0.38743E-03   -0.38826E-03  7904   0.443E-01 0.786E-04
CGA:  29    -0.335449229973E+03   -0.70062E-03   -0.70247E-03  7904   0.628E-01 0.244E-03
CGA:  30    -0.335450054044E+03   -0.82407E-03   -0.82503E-03  7904   0.637E-01 0.333E-04
CGA:  31    -0.335450828233E+03   -0.77419E-03   -0.77331E-03  7904   0.620E-01-0.716E-05
CGA:  32    -0.335451603966E+03   -0.77573E-03   -0.77354E-03  7904   0.500E-01-0.533E-04
SDA:  33    -0.335451998249E+03   -0.39428E-03   -0.39161E-03  7904   0.135E-01 0.169E-03
CGA:  34    -0.335452199973E+03   -0.20172E-03   -0.20167E-03  7904   0.775E-02-0.119E-04
CGA:  35    -0.335452483057E+03   -0.28308E-03   -0.28323E-03  7904   0.160E-01-0.799E-05
CGA:  36    -0.335453073975E+03   -0.59092E-03   -0.59084E-03  7904   0.486E-02 0.418E-05
CGA:  37    -0.335453236437E+03   -0.16246E-03   -0.16349E-03  7904   0.193E-02-0.665E-04
CGA:  38    -0.335453318896E+03   -0.82459E-04   -0.82608E-04  7904   0.660E-02-0.685E-05
CGA:  39    -0.335453573421E+03   -0.25452E-03   -0.25451E-03  7904   0.292E-02 0.682E-06
CGA:  40    -0.335453610980E+03   -0.37559E-04   -0.37604E-04  7904   0.785E-03 0.144E-05
CGA:  41    -0.335453664289E+03   -0.53309E-04   -0.52916E-04  7904   0.216E-02 0.870E-05
CGA:  42    -0.335453726259E+03   -0.61970E-04   -0.61908E-04  7904   0.305E-03 0.120E-04
CGA:  43    -0.335453739039E+03   -0.12780E-04   -0.12785E-04  7904   0.107E-02-0.563E-06
CGA:  44    -0.335453780894E+03   -0.41855E-04   -0.41965E-04  7904   0.707E-03-0.767E-05
CGA:  45    -0.335453806074E+03   -0.25181E-04   -0.25227E-04  7904   0.297E-03-0.449E-05
CGA:  46    -0.335453813913E+03   -0.78387E-05   -0.78401E-05  7904   0.241E-03-0.239E-05
CGA:  47    -0.335453829184E+03   -0.15271E-04   -0.15446E-04  7904   0.812E-03-0.464E-05
CGA:  48    -0.335453841357E+03   -0.12173E-04   -0.12133E-04  7904   0.706E-04-0.396E-05
CGA:  49    -0.335453843435E+03   -0.20775E-05   -0.20774E-05  7904   0.138E-03-0.475E-07
CGA:  50    -0.335453857234E+03   -0.13799E-04   -0.13829E-04  7904   0.293E-03-0.547E-06
CGA:  51    -0.335453865681E+03   -0.84465E-05   -0.84518E-05  7904   0.157E-03 0.239E-05
   8 F= -.33545387E+03 E0= -.33542468E+03  d E =-.486637E-02  mag=    32.0000
       N       E                     dE             d eps       ncg     rms          ort
SDA:   1    -0.335390078631E+03    0.63779E-01    0.00000E+00  7904   0.193E+01 0.000E+00
CGA:   2    -0.335410914684E+03   -0.20836E-01   -0.21899E-01  7904   0.235E+00-0.713E-01
CGA:   3    -0.335416739007E+03   -0.58243E-02   -0.58024E-02  7904   0.309E+00-0.217E-02
CGA:   4    -0.335428601681E+03   -0.11863E-01   -0.11934E-01  7904   0.474E+00-0.546E-02
CGA:   5    -0.335438855315E+03   -0.10254E-01   -0.10290E-01  7904   0.246E+00 0.857E-03
CGA:   6    -0.335444689745E+03   -0.58344E-02   -0.58553E-02  7904   0.486E-01 0.108E-02
CGA:   7    -0.335449693884E+03   -0.50041E-02   -0.49940E-02  7904   0.213E+00 0.177E-03
CGA:   8    -0.335453898197E+03   -0.42043E-02   -0.41905E-02  7904   0.413E-01 0.127E-03
CGA:   9    -0.335454441407E+03   -0.54321E-03   -0.53970E-03  7904   0.132E-01 0.163E-03
CGA:  10    -0.335454888490E+03   -0.44708E-03   -0.44666E-03  7904   0.226E-01 0.906E-04
CGA:  11    -0.335455827750E+03   -0.93926E-03   -0.93964E-03  7904   0.170E-01-0.271E-04
CGA:  12    -0.335456399966E+03   -0.57222E-03   -0.57236E-03  7904   0.398E-02-0.419E-04
CGA:  13    -0.335456466123E+03   -0.66157E-04   -0.65967E-04  7904   0.194E-02 0.218E-05
CGA:  14    -0.335456596562E+03   -0.13044E-03   -0.13016E-03  7904   0.688E-02 0.779E-05
CGA:  15    -0.335456756734E+03   -0.16017E-03   -0.16009E-03  7904   0.284E-02 0.455E-06
CGA:  16    -0.335456794505E+03   -0.37771E-04   -0.37701E-04  7904   0.554E-03 0.206E-05
CGA:  17    -0.335456837261E+03   -0.42756E-04   -0.42964E-04  7904   0.124E-02-0.452E-05
CGA:  18    -0.335456878248E+03   -0.40986E-04   -0.40985E-04  7904   0.113E-02-0.322E-05
CGA:  19    -0.335456902376E+03   -0.24128E-04   -0.24159E-04  7904   0.320E-03 0.391E-06
CGA:  20    -0.335456908878E+03   -0.65025E-05   -0.65159E-05  7904   0.283E-03 0.823E-06
CGA:  21    -0.335456921047E+03   -0.12169E-04   -0.12164E-04  7904   0.685E-03 0.485E-06
CGA:  22    -0.335456942319E+03   -0.21272E-04   -0.21276E-04  7904   0.986E-04 0.191E-05
CGA:  23    -0.335456945249E+03   -0.29295E-05   -0.29298E-05  7904   0.117E-03 0.112E-06
   9 F= -.33545695E+03 E0= -.33542783E+03  d E =-.307957E-02  mag=    32.0000
       N       E                     dE             d eps       ncg     rms          ort
SDA:   1    -0.335424448582E+03    0.32494E-01    0.00000E+00  7904   0.179E+01 0.000E+00
CGA:   2    -0.335440269152E+03   -0.15821E-01   -0.16793E-01  7904   0.130E+00-0.812E-01
CGA:   3    -0.335442638046E+03   -0.23689E-02   -0.23735E-02  7904   0.929E-01-0.381E-04
CGA:   4    -0.335445142701E+03   -0.25047E-02   -0.25049E-02  7904   0.866E-01 0.246E-04
CGA:   5    -0.335451420707E+03   -0.62780E-02   -0.62660E-02  7904   0.164E+00 0.316E-03
CGA:   6    -0.335454354671E+03   -0.29340E-02   -0.29077E-02  7904   0.209E-01 0.643E-03
CGA:   7    -0.335454781626E+03   -0.42696E-03   -0.42747E-03  7904   0.224E-01-0.366E-05
CGA:   8    -0.335455901672E+03   -0.11200E-02   -0.11148E-02  7904   0.396E-01 0.247E-03
CGA:   9    -0.335456636440E+03   -0.73477E-03   -0.73379E-03  7904   0.930E-02 0.664E-05
CGA:  10    -0.335456881731E+03   -0.24529E-03   -0.24511E-03  7904   0.344E-02-0.124E-04
CGA:  11    -0.335456963363E+03   -0.81632E-04   -0.81506E-04  7904   0.411E-02-0.653E-05
CGA:  12    -0.335457171608E+03   -0.20824E-03   -0.20834E-03  7904   0.694E-02-0.503E-05
CGA:  13    -0.335457268785E+03   -0.97178E-04   -0.97115E-04  7904   0.629E-03-0.313E-06
CGA:  14    -0.335457289584E+03   -0.20799E-04   -0.20797E-04  7904   0.963E-03 0.894E-06
CGA:  15    -0.335457335721E+03   -0.46137E-04   -0.46084E-04  7904   0.995E-03 0.310E-05
CGA:  16    -0.335457351503E+03   -0.15783E-04   -0.15777E-04  7904   0.387E-03 0.114E-06
CGA:  17    -0.335457360717E+03   -0.92132E-05   -0.91947E-05  7904   0.280E-03-0.184E-05
  10 F= -.33545736E+03 E0= -.33542823E+03  d E =-.415468E-03  mag=    32.0000
       N       E                     dE             d eps       ncg     rms          ort
SDA:   1    -0.335378804550E+03    0.78547E-01    0.00000E+00  7904   0.536E+01 0.000E+00
CGA:   2    -0.335427051317E+03   -0.48247E-01   -0.51656E-01  7904   0.252E+00-0.248E+00
CGA:   3    -0.335430973452E+03   -0.39221E-02   -0.38348E-02  7904   0.146E+00 0.241E-02
CGA:   4    -0.335435026643E+03   -0.40532E-02   -0.40448E-02  7904   0.154E+00-0.191E-02
CGA:   5    -0.335443294585E+03   -0.82679E-02   -0.82220E-02  7904   0.324E+00 0.179E-02
CGA:   6    -0.335452731136E+03   -0.94366E-02   -0.94354E-02  7904   0.631E-01-0.268E-03
CGA:   7    -0.335453457631E+03   -0.72649E-03   -0.73817E-03  7904   0.206E-01-0.668E-03
CGA:   8    -0.335454399797E+03   -0.94217E-03   -0.94118E-03  7904   0.513E-01 0.501E-04
CGA:   9    -0.335455786175E+03   -0.13864E-02   -0.13856E-02  7904   0.157E-01-0.106E-03
CGA:  10    -0.335456261662E+03   -0.47549E-03   -0.47551E-03  7904   0.752E-02-0.527E-04
CGA:  11    -0.335456422637E+03   -0.16097E-03   -0.16079E-03  7904   0.570E-02-0.646E-05
CGA:  12    -0.335456701565E+03   -0.27893E-03   -0.27845E-03  7904   0.806E-02 0.226E-04
CGA:  13    -0.335456796708E+03   -0.95143E-04   -0.95049E-04  7904   0.837E-03 0.537E-05
CGA:  14    -0.335456822641E+03   -0.25934E-04   -0.25937E-04  7904   0.128E-02-0.198E-05
CGA:  15    -0.335456904034E+03   -0.81393E-04   -0.81595E-04  7904   0.103E-02-0.596E-05
CGA:  16    -0.335456920981E+03   -0.16947E-04   -0.16922E-04  7904   0.257E-03-0.864E-06
CGA:  17    -0.335456931560E+03   -0.10579E-04   -0.10550E-04  7904   0.298E-03 0.257E-05
CGA:  18    -0.335456942573E+03   -0.11013E-04   -0.11011E-04  7904   0.559E-03 0.340E-06
CGA:  19    -0.335456954980E+03   -0.12407E-04   -0.12414E-04  7904   0.159E-03 0.888E-06
CGA:  20    -0.335456957095E+03   -0.21159E-05   -0.21197E-05  7904   0.452E-04 0.182E-06
  11 F= -.33545696E+03 E0= -.33542783E+03  d E =0.403621E-03  mag=    32.0000
       N       E                     dE             d eps       ncg     rms          ort
SDA:   1    -0.335354968149E+03    0.10199E+00    0.00000E+00  7904   0.360E+01 0.000E+00
CGA:   2    -0.335391648490E+03   -0.36680E-01   -0.33942E-01  7904   0.215E+00 0.245E+00
CGA:   3    -0.335401242022E+03   -0.95935E-02   -0.97824E-02  7904   0.557E+00-0.156E-01
CGA:   4    -0.335412526822E+03   -0.11285E-01   -0.11174E-01  7904   0.582E+00 0.900E-03
CGA:   5    -0.335426562139E+03   -0.14035E-01   -0.14145E-01  7904   0.750E+00 0.128E-02
CGA:   6    -0.335437594138E+03   -0.11032E-01   -0.11251E-01  7904   0.165E+00-0.820E-02
CGA:   7    -0.335439722270E+03   -0.21281E-02   -0.21049E-02  7904   0.860E-01 0.119E-02
CGA:   8    -0.335442668259E+03   -0.29460E-02   -0.29452E-02  7904   0.183E+00 0.162E-03
CGA:   9    -0.335447723497E+03   -0.50552E-02   -0.50547E-02  7904   0.175E+00-0.489E-04
CGA:  10    -0.335450019714E+03   -0.22962E-02   -0.22757E-02  7904   0.483E-01 0.100E-02
CGA:  11    -0.335450958331E+03   -0.93862E-03   -0.94247E-03  7904   0.319E-01-0.151E-04
CGA:  12    -0.335451398587E+03   -0.44026E-03   -0.44656E-03  7904   0.136E-01-0.242E-03
CGA:  13    -0.335452046531E+03   -0.64794E-03   -0.64819E-03  7904   0.447E-01-0.132E-04
CGA:  14    -0.335452946291E+03   -0.89976E-03   -0.89669E-03  7904   0.901E-02-0.346E-04
CGA:  15    -0.335453063728E+03   -0.11744E-03   -0.11729E-03  7904   0.547E-02 0.548E-05
CGA:  16    -0.335453267296E+03   -0.20357E-03   -0.20306E-03  7904   0.560E-02 0.472E-04
CGA:  17    -0.335453373600E+03   -0.10630E-03   -0.10640E-03  7904   0.561E-02 0.308E-05
CGA:  18    -0.335453535064E+03   -0.16146E-03   -0.16147E-03  7904   0.291E-02-0.189E-04
CGA:  19    -0.335453570501E+03   -0.35437E-04   -0.35343E-04  7904   0.120E-02 0.230E-05
CGA:  20    -0.335453642018E+03   -0.71517E-04   -0.71364E-04  7904   0.408E-02 0.489E-05
CGA:  21    -0.335453716577E+03   -0.74559E-04   -0.74696E-04  7904   0.200E-02 0.777E-06
CGA:  22    -0.335453758735E+03   -0.42158E-04   -0.42119E-04  7904   0.106E-02-0.342E-05
CGA:  23    -0.335453775471E+03   -0.16736E-04   -0.16668E-04  7904   0.408E-03-0.117E-05
CGA:  24    -0.335453783407E+03   -0.79356E-05   -0.79404E-05  7904   0.382E-03 0.524E-06
CGA:  25    -0.335453804019E+03   -0.20612E-04   -0.20507E-04  7904   0.130E-02 0.393E-05
CGA:  26    -0.335453831670E+03   -0.27652E-04   -0.27674E-04  7904   0.330E-03 0.318E-05
CGA:  27    -0.335453837900E+03   -0.62299E-05   -0.62256E-05  7904   0.291E-03-0.587E-07
  12 F= -.33545384E+03 E0= -.33542469E+03  d E =0.311920E-02  mag=    32.0000
       N       E                     dE             d eps       ncg     rms          ort
SDA:   1    -0.335310901905E+03    0.14293E+00    0.00000E+00  7904   0.281E+01 0.000E+00
CGA:   2    -0.335340084453E+03   -0.29183E-01   -0.31023E-01  7904   0.624E+00-0.114E+00
CGA:   3    -0.335352565918E+03   -0.12481E-01   -0.12545E-01  7904   0.586E+00 0.256E-02
CGA:   4    -0.335397022161E+03   -0.44456E-01   -0.43969E-01  7904   0.676E+00 0.115E-01
CGA:   5    -0.335419059836E+03   -0.22038E-01   -0.22161E-01  7904   0.290E+00-0.221E-01
CGA:   6    -0.335424382474E+03   -0.53226E-02   -0.53213E-02  7904   0.172E+00-0.747E-05
CGA:   7    -0.335429621089E+03   -0.52386E-02   -0.52430E-02  7904   0.292E+00-0.123E-02
CGA:   8    -0.335440388239E+03   -0.10767E-01   -0.10754E-01  7904   0.141E+00 0.110E-02
CGA:   9    -0.335442313531E+03   -0.19253E-02   -0.19375E-02  7904   0.307E-01-0.497E-03
CGA:  10    -0.335443682836E+03   -0.13693E-02   -0.13941E-02  7904   0.306E-01-0.126E-02
CGA:  11    -0.335444916900E+03   -0.12341E-02   -0.12336E-02  7904   0.629E-01 0.341E-04
CGA:  12    -0.335446020473E+03   -0.11036E-02   -0.11089E-02  7904   0.123E-01-0.627E-04
CGA:  13    -0.335446247629E+03   -0.22716E-03   -0.22684E-03  7904   0.531E-02-0.145E-05
CGA:  14    -0.335446556726E+03   -0.30910E-03   -0.30957E-03  7904   0.122E-01-0.162E-04
CGA:  15    -0.335446797194E+03   -0.24047E-03   -0.24028E-03  7904   0.435E-02-0.716E-05
CGA:  16    -0.335446899509E+03   -0.10232E-03   -0.10238E-03  7904   0.347E-02 0.452E-05
CGA:  17    -0.335446971282E+03   -0.71773E-04   -0.71893E-04  7904   0.205E-02 0.402E-05
CGA:  18    -0.335447143392E+03   -0.17211E-03   -0.17182E-03  7904   0.329E-02 0.494E-05
CGA:  19    -0.335447191769E+03   -0.48377E-04   -0.48351E-04  7904   0.852E-03 0.367E-05
CGA:  20    -0.335447207887E+03   -0.16118E-04   -0.16136E-04  7904   0.629E-03 0.152E-05
CGA:  21    -0.335447247613E+03   -0.39726E-04   -0.39602E-04  7904   0.119E-02 0.376E-05
CGA:  22    -0.335447282183E+03   -0.34570E-04   -0.34576E-04  7904   0.113E-02 0.176E-05
CGA:  23    -0.335447306120E+03   -0.23937E-04   -0.23894E-04  7904   0.275E-03-0.173E-05
CGA:  24    -0.335447311173E+03   -0.50525E-05   -0.50566E-05  7904   0.264E-03 0.198E-06
CGA:  25    -0.335447330144E+03   -0.18971E-04   -0.18889E-04  7904   0.453E-03 0.205E-05
CGA:  26    -0.335447340639E+03   -0.10495E-04   -0.10489E-04  7904   0.182E-03-0.432E-06
CGA:  27    -0.335447344470E+03   -0.38307E-05   -0.38183E-05  7904   0.139E-03-0.104E-05
  13 F= -.33544734E+03 E0= -.33541811E+03  d E =0.649343E-02  mag=    32.0000
       N       E                     dE             d eps       ncg     rms          ort
SDA:   1    -0.335346770451E+03    0.10057E+00    0.00000E+00  7904   0.192E+01 0.000E+00
CGA:   2    -0.335366500876E+03   -0.19730E-01   -0.20290E-01  7904   0.403E+00-0.394E-01
CGA:   3    -0.335378060151E+03   -0.11559E-01   -0.11535E-01  7904   0.470E+00-0.128E-01
CGA:   4    -0.335392622476E+03   -0.14562E-01   -0.14593E-01  7904   0.710E+00-0.862E-02
CGA:   5    -0.335416773848E+03   -0.24151E-01   -0.24071E-01  7904   0.397E+00 0.115E-01
CGA:   6    -0.335423766772E+03   -0.69929E-02   -0.70014E-02  7904   0.690E-01-0.146E-03
CGA:   7    -0.335427654657E+03   -0.38879E-02   -0.38843E-02  7904   0.298E+00 0.133E-03
CGA:   8    -0.335435134511E+03   -0.74799E-02   -0.74785E-02  7904   0.585E-01-0.692E-04
CGA:   9    -0.335436305564E+03   -0.11711E-02   -0.11810E-02  7904   0.330E-01-0.105E-04
CGA:  10    -0.335437073602E+03   -0.76804E-03   -0.76773E-03  7904   0.180E-01-0.725E-05
CGA:  11    -0.335438139456E+03   -0.10659E-02   -0.10646E-02  7904   0.310E-01 0.413E-04
CGA:  12    -0.335438727390E+03   -0.58793E-03   -0.58721E-03  7904   0.106E-01 0.117E-04
CGA:  13    -0.335438872238E+03   -0.14485E-03   -0.14434E-03  7904   0.436E-02 0.197E-04
CGA:  14    -0.335439207497E+03   -0.33526E-03   -0.33310E-03  7904   0.450E-02 0.506E-04
CGA:  15    -0.335439372565E+03   -0.16507E-03   -0.16513E-03  7904   0.264E-02-0.113E-04
CGA:  16    -0.335439414240E+03   -0.41675E-04   -0.41574E-04  7904   0.145E-02 0.152E-05
CGA:  17    -0.335439476376E+03   -0.62136E-04   -0.62059E-04  7904   0.357E-02 0.650E-05
CGA:  18    -0.335439597316E+03   -0.12094E-03   -0.12091E-03  7904   0.189E-02 0.147E-04
CGA:  19    -0.335439624583E+03   -0.27266E-04   -0.27244E-04  7904   0.347E-03 0.181E-05
CGA:  20    -0.335439644424E+03   -0.19841E-04   -0.19955E-04  7904   0.518E-03-0.435E-05
CGA:  21    -0.335439669520E+03   -0.25096E-04   -0.25166E-04  7904   0.168E-02-0.416E-05
CGA:  22    -0.335439704051E+03   -0.34531E-04   -0.34508E-04  7904   0.292E-03-0.342E-05
CGA:  23    -0.335439710401E+03   -0.63502E-05   -0.63501E-05  7904   0.151E-03-0.949E-08
CGA:  24    -0.335439721895E+03   -0.11494E-04   -0.11460E-04  7904   0.283E-03 0.735E-06
CGA:  25    -0.335439729018E+03   -0.71226E-05   -0.71348E-05  7904   0.300E-03 0.130E-05
  14 F= -.33543973E+03 E0= -.33541055E+03  d E =0.761545E-02  mag=    32.0000
       N       E                     dE             d eps       ncg     rms          ort
SDA:   1    -0.335055190975E+03    0.38453E+00    0.00000E+00  7904   0.149E+01 0.000E+00
CGA:   2    -0.335089437601E+03   -0.34247E-01   -0.33655E-01  7904   0.255E+01-0.208E-02
CGA:   3    -0.335248381677E+03   -0.15894E+00   -0.15976E+00  7904   0.434E+01-0.244E-01
CGA:   4    -0.335326446427E+03   -0.78065E-01   -0.76477E-01  7904   0.399E+00 0.295E-01
CGA:   5    -0.335350446658E+03   -0.24000E-01   -0.22914E-01  7904   0.938E+00 0.413E-01
CGA:   6    -0.335375642904E+03   -0.25196E-01   -0.24987E-01  7904   0.766E+00-0.124E-02
CGA:   7    -0.335395938356E+03   -0.20295E-01   -0.20272E-01  7904   0.492E+00-0.732E-03
CGA:   8    -0.335402831187E+03   -0.68928E-02   -0.66406E-02  7904   0.577E-01 0.127E-01
CGA:   9    -0.335405595404E+03   -0.27642E-02   -0.27702E-02  7904   0.142E+00-0.332E-03
CGA:  10    -0.335411132594E+03   -0.55372E-02   -0.55336E-02  7904   0.545E-01 0.429E-03
CGA:  11    -0.335412118316E+03   -0.98572E-03   -0.97815E-03  7904   0.287E-01 0.197E-03
CGA:  12    -0.335412686979E+03   -0.56866E-03   -0.56486E-03  7904   0.157E-01 0.478E-04
CGA:  13    -0.335413232974E+03   -0.54599E-03   -0.54600E-03  7904   0.263E-01-0.100E-07
CGA:  14    -0.335414226542E+03   -0.99357E-03   -0.99361E-03  7904   0.648E-02-0.557E-05
CGA:  15    -0.335414377203E+03   -0.15066E-03   -0.15090E-03  7904   0.648E-02 0.550E-05
CGA:  16    -0.335414864658E+03   -0.48745E-03   -0.48547E-03  7904   0.695E-02 0.492E-04
CGA:  17    -0.335414945408E+03   -0.80750E-04   -0.81141E-04  7904   0.129E-02-0.147E-04
CGA:  18    -0.335414988563E+03   -0.43155E-04   -0.43154E-04  7904   0.290E-02 0.229E-05
CGA:  19    -0.335415190968E+03   -0.20240E-03   -0.20243E-03  7904   0.292E-02-0.649E-06
CGA:  20    -0.335415253693E+03   -0.62725E-04   -0.62696E-04  7904   0.133E-02-0.246E-05
CGA:  21    -0.335415282839E+03   -0.29146E-04   -0.29070E-04  7904   0.592E-03-0.220E-05
CGA:  22    -0.335415305346E+03   -0.22507E-04   -0.22510E-04  7904   0.167E-02-0.586E-06
CGA:  23    -0.335415376105E+03   -0.70758E-04   -0.70731E-04  7904   0.959E-03 0.279E-05
CGA:  24    -0.335415391829E+03   -0.15725E-04   -0.15693E-04  7904   0.350E-03-0.572E-06
CGA:  25    -0.335415413196E+03   -0.21367E-04   -0.21413E-04  7904   0.690E-03-0.171E-05
CGA:  26    -0.335415433477E+03   -0.20281E-04   -0.20269E-04  7904   0.728E-03-0.190E-05
CGA:  27    -0.335415449331E+03   -0.15854E-04   -0.15865E-04  7904   0.299E-03-0.832E-07
CGA:  28    -0.335415453820E+03   -0.44895E-05   -0.44924E-05  7904   0.121E-03 0.349E-07
CGA:  29    -0.335415467457E+03   -0.13637E-04   -0.13532E-04  7904   0.429E-03 0.136E-05
CGA:  30    -0.335415474829E+03   -0.73723E-05   -0.73932E-05  7904   0.569E-04 0.991E-06
  15 F= -.33541547E+03 E0= -.33538619E+03  d E =0.242542E-01  mag=    32.0000
       N       E                     dE             d eps       ncg     rms          ort
SDA:   1    -0.333935892753E+03    0.14796E+01    0.00000E+00  7904   0.192E+02 0.000E+00
CGA:   2    -0.334147687940E+03   -0.21180E+00   -0.22229E+00  7904   0.592E+01-0.103E+01
CGA:   3    -0.334339589561E+03   -0.19190E+00   -0.19182E+00  7904   0.107E+02-0.838E-01
CGA:   4    -0.334955501031E+03   -0.61591E+00   -0.61063E+00  7904   0.534E+01 0.205E+00
CGA:   5    -0.335057338687E+03   -0.10184E+00   -0.95367E-01  7904   0.332E+01 0.195E+00
CGA:   6    -0.335129905283E+03   -0.72567E-01   -0.59188E-01  7904   0.116E+01 0.446E+00
CGA:   7    -0.335180954894E+03   -0.51050E-01   -0.51379E-01  7904   0.317E+01-0.417E-01
CGA:   8    -0.335266354530E+03   -0.85400E-01   -0.85846E-01  7904   0.394E+01 0.192E-01
CGA:   9    -0.335322334640E+03   -0.55980E-01   -0.58187E-01  7904   0.754E+00-0.994E-01
CGA:  10    -0.335329431457E+03   -0.70968E-02   -0.68559E-02  7904   0.189E+00 0.202E-01
CGA:  11    -0.335335059864E+03   -0.56284E-02   -0.56193E-02  7904   0.494E+00-0.123E-02
CGA:  12    -0.335350431776E+03   -0.15372E-01   -0.15366E-01  7904   0.585E+00-0.748E-02
CGA:  13    -0.335356258433E+03   -0.58267E-02   -0.58827E-02  7904   0.187E+00-0.403E-02
CGA:  14    -0.335359497721E+03   -0.32393E-02   -0.33982E-02  7904   0.118E+00-0.201E-02
CGA:  15    -0.335360719251E+03   -0.12215E-02   -0.12183E-02  7904   0.356E-01 0.267E-03
CGA:  16    -0.335361906495E+03   -0.11872E-02   -0.11880E-02  7904   0.986E-01-0.106E-03
CGA:  17    -0.335364775676E+03   -0.28692E-02   -0.28692E-02  7904   0.140E+00 0.928E-04
CGA:  18    -0.335366840276E+03   -0.20646E-02   -0.20756E-02  7904   0.406E-01-0.347E-03
CGA:  19    -0.335367280135E+03   -0.43986E-03   -0.43742E-03  7904   0.149E-01 0.145E-03
CGA:  20    -0.335367726407E+03   -0.44627E-03   -0.44640E-03  7904   0.372E-01-0.391E-04
CGA:  21    -0.335368700129E+03   -0.97372E-03   -0.97299E-03  7904   0.233E-01-0.227E-03
CGA:  22    -0.335368933556E+03   -0.23343E-03   -0.23418E-03  7904   0.817E-02-0.528E-04
CGA:  23    -0.335369148219E+03   -0.21466E-03   -0.21470E-03  7904   0.114E-01 0.435E-04
CGA:  24    -0.335369364460E+03   -0.21624E-03   -0.21640E-03  7904   0.137E-01 0.785E-05
CGA:  25    -0.335369831168E+03   -0.46671E-03   -0.46679E-03  7904   0.213E-01-0.477E-05
CGA:  26    -0.335370122692E+03   -0.29152E-03   -0.29139E-03  7904   0.777E-02 0.955E-05
CGA:  27    -0.335370217925E+03   -0.95233E-04   -0.95145E-04  7904   0.243E-02 0.243E-05
CGA:  28    -0.335370265630E+03   -0.47706E-04   -0.47678E-04  7904   0.362E-02-0.264E-05
CGA:  29    -0.335370438224E+03   -0.17259E-03   -0.17279E-03  7904   0.111E-01-0.869E-05
CGA:  30    -0.335370596036E+03   -0.15781E-03   -0.15793E-03  7904   0.245E-02-0.450E-05
CGA:  31    -0.335370629328E+03   -0.33293E-04   -0.33311E-04  7904   0.199E-02-0.178E-05
SDA:  32    -0.335370685087E+03   -0.55759E-04   -0.55812E-04  7904   0.225E-02-0.127E-04
CGA:  33    -0.335370723416E+03   -0.38329E-04   -0.38336E-04  7904   0.116E-02 0.151E-05
CGA:  34    -0.335370755288E+03   -0.31872E-04   -0.31840E-04  7904   0.127E-02 0.862E-05
CGA:  35    -0.335370789437E+03   -0.34149E-04   -0.34145E-04  7904   0.114E-02 0.159E-05
CGA:  36    -0.335370826418E+03   -0.36981E-04   -0.36995E-04  7904   0.836E-03-0.151E-05
CGA:  37    -0.335370841577E+03   -0.15159E-04   -0.15162E-04  7904   0.376E-03 0.227E-06
CGA:  38    -0.335370911784E+03   -0.70208E-04   -0.85070E-05  7904   0.324E-03 0.552E-04
CGA:  39    -0.335370917359E+03   -0.55746E-05   -0.55561E-05  7904   0.247E-03-0.364E-06
CGA:  40    -0.335370931950E+03   -0.14591E-04   -0.14605E-04  7904   0.388E-03-0.933E-06
CGA:  41    -0.335370946595E+03   -0.14645E-04   -0.14653E-04  7904   0.495E-03 0.699E-06
CGA:  42    -0.335370955649E+03   -0.90545E-05   -0.90687E-05  7904   0.119E-03 0.117E-06
  16 F= -.33537096E+03 E0= -.33534161E+03  d E =0.445192E-01  mag=    32.0000
       N       E                     dE             d eps       ncg     rms          ort
SDA:   1    -0.327510303810E+03    0.78606E+01    0.00000E+00  7904   0.173E+03 0.000E+00
CGA:   2    -0.329555159205E+03   -0.20449E+01   -0.18822E+01  7904   0.296E+02-0.580E+01
CGA:   3    -0.330253863509E+03   -0.69870E+00   -0.71076E+00  7904   0.335E+02-0.422E+00
CGA:   4    -0.332981050199E+03   -0.27272E+01   -0.25984E+01  7904   0.318E+02 0.340E+01
CGA:   5    -0.333567525203E+03   -0.58648E+00   -0.61863E+00  7904   0.218E+02-0.253E+01
CGA:   6    -0.334058705200E+03   -0.49118E+00   -0.31480E+00  7904   0.852E+01 0.968E+01
CGA:   7    -0.334221290624E+03   -0.16259E+00   -0.12213E+00  7904   0.610E+01 0.364E+01
CGA:   8    -0.334375274280E+03   -0.15398E+00   -0.11483E+00  7904   0.631E+01 0.236E+01
CGA:   9    -0.334481692917E+03   -0.10642E+00   -0.10238E+00  7904   0.972E+01 0.285E+00
CGA:  10    -0.334645962014E+03   -0.16427E+00   -0.17671E+00  7904   0.254E+02-0.314E+00
CGA:  11    -0.334869696922E+03   -0.22373E+00   -0.22974E+00  7904   0.159E+02-0.499E+00
CGA:  12    -0.334954228601E+03   -0.84532E-01   -0.81802E-01  7904   0.473E+01 0.531E+00
CGA:  13    -0.334984790780E+03   -0.30562E-01   -0.27649E-01  7904   0.261E+01 0.488E+00
CGA:  14    -0.335011246047E+03   -0.26455E-01   -0.22224E-01  7904   0.273E+01 0.491E+00
CGA:  15    -0.335039549128E+03   -0.28303E-01   -0.21259E-01  7904   0.275E+01 0.983E+00
CGA:  16    -0.335067466683E+03   -0.27918E-01   -0.22283E-01  7904   0.232E+01 0.852E+00
CGA:  17    -0.335088961468E+03   -0.21495E-01   -0.19659E-01  7904   0.239E+01 0.251E+00
CGA:  18    -0.335107705562E+03   -0.18744E-01   -0.18023E-01  7904   0.342E+01 0.903E-01
CGA:  19    -0.335131104149E+03   -0.23399E-01   -0.21748E-01  7904   0.458E+01 0.233E+00
CGA:  20    -0.335156475060E+03   -0.25371E-01   -0.22848E-01  7904   0.400E+01 0.489E+00
CGA:  21    -0.335174762818E+03   -0.18288E-01   -0.18196E-01  7904   0.220E+01 0.231E-01
CGA:  22    -0.335183005080E+03   -0.82423E-02   -0.83556E-02  7904   0.122E+01-0.243E-01
CGA:  23    -0.335188110317E+03   -0.51052E-02   -0.51713E-02  7904   0.973E+00-0.122E-01
CGA:  24    -0.335193120045E+03   -0.50097E-02   -0.53156E-02  7904   0.109E+01-0.445E-01
CGA:  25    -0.335198779921E+03   -0.56599E-02   -0.66955E-02  7904   0.115E+01-0.122E+00
CGA:  26    -0.335204090991E+03   -0.53111E-02   -0.62328E-02  7904   0.912E+00-0.115E+00
CGA:  27    -0.335209166184E+03   -0.50752E-02   -0.52832E-02  7904   0.903E+00-0.237E-01
CGA:  28    -0.335216959206E+03   -0.77930E-02   -0.79339E-02  7904   0.125E+01-0.743E-02
CGA:  29    -0.335226906478E+03   -0.99473E-02   -0.94820E-02  7904   0.100E+01 0.418E-01
CGA:  30    -0.335232553089E+03   -0.56466E-02   -0.50712E-02  7904   0.498E+00 0.969E-01
CGA:  31    -0.335235426134E+03   -0.28730E-02   -0.26889E-02  7904   0.314E+00 0.298E-01
SDA:  32    -0.335237545303E+03   -0.21192E-02   -0.20586E-02  7904   0.354E+00 0.658E-02
CGA:  33    -0.335244650669E+03   -0.71054E-02   -0.70682E-02  7904   0.317E+00 0.637E-02
CGA:  34    -0.335257445443E+03   -0.12795E-01   -0.12592E-01  7904   0.263E+00 0.932E-02
CGA:  35    -0.335264246859E+03   -0.68014E-02   -0.68431E-02  7904   0.291E+00-0.429E-02
CGA:  36    -0.335269279909E+03   -0.50331E-02   -0.50330E-02  7904   0.649E-01-0.196E-02
CGA:  37    -0.335274186402E+03   -0.49065E-02   -0.49065E-02  7904   0.201E+00-0.113E-04
CGA:  38    -0.335278543985E+03   -0.43576E-02   -0.43558E-02  7904   0.139E+00 0.888E-03
CGA:  39    -0.335281100628E+03   -0.25566E-02   -0.25619E-02  7904   0.521E-01 0.889E-03
CGA:  40    -0.335282075159E+03   -0.97453E-03   -0.97278E-03  7904   0.213E-01-0.364E-03
CGA:  41    -0.335283051975E+03   -0.97682E-03   -0.97485E-03  7904   0.535E-01 0.817E-04
CGA:  42    -0.335285162347E+03   -0.21104E-02   -0.21119E-02  7904   0.218E-01-0.867E-04
CGA:  43    -0.335285404228E+03   -0.24188E-03   -0.24195E-03  7904   0.653E-02-0.245E-05
CGA:  44    -0.335285631902E+03   -0.22767E-03   -0.22634E-03  7904   0.586E-02 0.924E-04
CGA:  45    -0.335286219464E+03   -0.58756E-03   -0.58856E-03  7904   0.281E-01-0.154E-04
CGA:  46    -0.335286781570E+03   -0.56211E-03   -0.56191E-03  7904   0.111E-01-0.132E-04
CGA:  47    -0.335286954950E+03   -0.17338E-03   -0.17325E-03  7904   0.419E-02-0.319E-06
CGA:  48    -0.335287071686E+03   -0.11674E-03   -0.11681E-03  7904   0.404E-02-0.198E-04
CGA:  49    -0.335287231187E+03   -0.15950E-03   -0.15911E-03  7904   0.722E-02 0.256E-04
CGA:  50    -0.335287606277E+03   -0.37509E-03   -0.37401E-03  7904   0.721E-02 0.429E-04
CGA:  51    -0.335287687423E+03   -0.81146E-04   -0.80982E-04  7904   0.195E-02 0.122E-04
CGA:  52    -0.335287859420E+03   -0.17200E-03   -0.17265E-03  7904   0.420E-02-0.120E-04
CGA:  53    -0.335288002339E+03   -0.14292E-03   -0.14291E-03  7904   0.367E-02 0.130E-05
CGA:  54    -0.335288062128E+03   -0.59789E-04   -0.60002E-04  7904   0.151E-02-0.135E-05
CGA:  55    -0.335288098341E+03   -0.36213E-04   -0.36252E-04  7904   0.167E-02 0.426E-05
CGA:  56    -0.335288188080E+03   -0.89739E-04   -0.89731E-04  7904   0.269E-02 0.317E-06
CGA:  57    -0.335288237971E+03   -0.49891E-04   -0.49948E-04  7904   0.678E-03 0.480E-06
CGA:  58    -0.335288260050E+03   -0.22078E-04   -0.22087E-04  7904   0.405E-03-0.202E-05
CGA:  59    -0.335288271649E+03   -0.11600E-04   -0.11598E-04  7904   0.953E-03-0.946E-06
CGA:  60    -0.335288334643E+03   -0.62994E-04   -0.63048E-04  7904   0.710E-03-0.152E-05
CGA:  61    -0.335288348413E+03   -0.13770E-04   -0.13750E-04  7904   0.219E-03-0.762E-06
CGA:  62    -0.335288354534E+03   -0.61209E-05   -0.61191E-05  7904   0.281E-03-0.530E-06
  17 F= -.33528835E+03 E0= -.33525895E+03  d E =0.826011E-01  mag=    32.0000
       N       E                     dE             d eps       ncg     rms          ort
SDA:   1    -0.333842216131E+03    0.14461E+01    0.00000E+00  7904   0.270E+02 0.000E+00
CGA:   2    -0.334178288575E+03   -0.33607E+00   -0.29011E+00  7904   0.442E+01 0.332E+01
CGA:   3    -0.334354415877E+03   -0.17613E+00   -0.18056E+00  7904   0.110E+02-0.467E+00
CGA:   4    -0.334609259552E+03   -0.25484E+00   -0.25573E+00  7904   0.159E+02 0.826E-01
CGA:   5    -0.334839552056E+03   -0.23029E+00   -0.24028E+00  7904   0.884E+01-0.335E+00
CGA:   6    -0.334963459715E+03   -0.12391E+00   -0.12545E+00  7904   0.369E+01-0.138E-01
CGA:   7    -0.335028606292E+03   -0.65147E-01   -0.59351E-01  7904   0.277E+01 0.163E+00
CGA:   8    -0.335075267894E+03   -0.46662E-01   -0.43596E-01  7904   0.244E+01 0.990E-01
CGA:   9    -0.335122601843E+03   -0.47334E-01   -0.47116E-01  7904   0.357E+01 0.275E-02
CGA:  10    -0.335185661689E+03   -0.63060E-01   -0.61612E-01  7904   0.397E+01 0.896E-02
CGA:  11    -0.335236629048E+03   -0.50967E-01   -0.51370E-01  7904   0.314E+01-0.114E-01
CGA:  12    -0.335271663953E+03   -0.35035E-01   -0.37702E-01  7904   0.122E+01-0.105E+00
CGA:  13    -0.335282405586E+03   -0.10742E-01   -0.11821E-01  7904   0.389E+00-0.701E-01
CGA:  14    -0.335290338654E+03   -0.79331E-02   -0.80158E-02  7904   0.492E+00 0.142E-01
CGA:  15    -0.335302710954E+03   -0.12372E-01   -0.12378E-01  7904   0.545E+00-0.142E-01
CGA:  16    -0.335317597622E+03   -0.14887E-01   -0.14967E-01  7904   0.586E+00-0.125E-01
CGA:  17    -0.335325682646E+03   -0.80850E-02   -0.80414E-02  7904   0.242E+00 0.995E-03
CGA:  18    -0.335329818818E+03   -0.41362E-02   -0.42074E-02  7904   0.157E+00 0.158E-02
CGA:  19    -0.335332250199E+03   -0.24314E-02   -0.24593E-02  7904   0.704E-01 0.349E-04
CGA:  20    -0.335334490045E+03   -0.22398E-02   -0.22308E-02  7904   0.111E+00 0.821E-03
CGA:  21    -0.335336805624E+03   -0.23156E-02   -0.23184E-02  7904   0.954E-01 0.380E-03
CGA:  22    -0.335339596338E+03   -0.27907E-02   -0.28054E-02  7904   0.528E-01-0.175E-02
CGA:  23    -0.335340440280E+03   -0.84394E-03   -0.83710E-03  7904   0.436E-01-0.567E-04
CGA:  24    -0.335341991553E+03   -0.15513E-02   -0.15538E-02  7904   0.654E-01-0.201E-03
CGA:  25    -0.335343230602E+03   -0.12390E-02   -0.12411E-02  7904   0.416E-01 0.101E-03
CGA:  26    -0.335344044614E+03   -0.81401E-03   -0.81734E-03  7904   0.196E-01 0.240E-03
CGA:  27    -0.335344345533E+03   -0.30092E-03   -0.29841E-03  7904   0.114E-01 0.207E-05
CGA:  28    -0.335344642304E+03   -0.29677E-03   -0.29751E-03  7904   0.920E-02-0.155E-03
CGA:  29    -0.335344889204E+03   -0.24690E-03   -0.24694E-03  7904   0.170E-01-0.774E-05
CGA:  30    -0.335345396322E+03   -0.50712E-03   -0.50745E-03  7904   0.179E-01-0.363E-04
CGA:  31    -0.335345776746E+03   -0.38042E-03   -0.38058E-03  7904   0.902E-02 0.326E-04
SDA:  32    -0.335345893642E+03   -0.11690E-03   -0.11752E-03  7904   0.323E-02-0.746E-05
CGA:  33    -0.335345970633E+03   -0.76991E-04   -0.77004E-04  7904   0.372E-02-0.994E-05
CGA:  34    -0.335346067435E+03   -0.96802E-04   -0.96835E-04  7904   0.357E-02-0.748E-05
CGA:  35    -0.335346192073E+03   -0.12464E-03   -0.12472E-03  7904   0.393E-02-0.629E-05
CGA:  36    -0.335346330220E+03   -0.13815E-03   -0.13787E-03  7904   0.709E-03 0.206E-04
CGA:  37    -0.335346360303E+03   -0.30083E-04   -0.30042E-04  7904   0.254E-02 0.222E-05
CGA:  38    -0.335346482834E+03   -0.12253E-03   -0.12233E-03  7904   0.237E-02 0.873E-05
CGA:  39    -0.335346529651E+03   -0.46817E-04   -0.46810E-04  7904   0.106E-02-0.105E-05
CGA:  40    -0.335346549885E+03   -0.20234E-04   -0.20177E-04  7904   0.290E-03-0.388E-05
CGA:  41    -0.335346578156E+03   -0.28271E-04   -0.28413E-04  7904   0.153E-02-0.196E-05
CGA:  42    -0.335346617622E+03   -0.39465E-04   -0.39453E-04  7904   0.795E-03-0.291E-05
CGA:  43    -0.335346627664E+03   -0.10043E-04   -0.10014E-04  7904   0.213E-03-0.695E-06
CGA:  44    -0.335346671304E+03   -0.43640E-04   -0.45036E-05  7904   0.340E-03 0.243E-04
CGA:  45    -0.335346677120E+03   -0.58159E-05   -0.58209E-05  7904   0.216E-03-0.288E-06
  18 F= -.33534668E+03 E0= -.33531754E+03  d E =-.583226E-01  mag=    32.0000
       N       E                     dE             d eps       ncg     rms          ort
SDA:   1    -0.331208380405E+03    0.41383E+01    0.00000E+00  7904   0.193E+03 0.000E+00
CGA:   2    -0.332583746360E+03   -0.13754E+01   -0.39425E+01  7904   0.200E+03-0.150E+03
CGA:   3    -0.334802695935E+03   -0.22189E+01   -0.18551E+01  7904   0.769E+01 0.128E+02
CGA:   4    -0.334892257200E+03   -0.89561E-01   -0.75468E-01  7904   0.153E+01 0.116E+01
CGA:   5    -0.334935551792E+03   -0.43295E-01   -0.42061E-01  7904   0.292E+01 0.244E-01
CGA:   6    -0.334991161908E+03   -0.55610E-01   -0.44129E-01  7904   0.363E+01 0.600E+00
CGA:   7    -0.335057910782E+03   -0.66749E-01   -0.63038E-01  7904   0.514E+01 0.190E+00
CGA:   8    -0.335134190806E+03   -0.76280E-01   -0.78360E-01  7904   0.609E+01-0.120E+00
CGA:   9    -0.335198882973E+03   -0.64692E-01   -0.74906E-01  7904   0.573E+01-0.564E+00
CGA:  10    -0.335243881770E+03   -0.44999E-01   -0.46158E-01  7904   0.166E+01-0.100E+00
CGA:  11    -0.335254608363E+03   -0.10727E-01   -0.12139E-01  7904   0.450E+00-0.171E+00
CGA:  12    -0.335261128126E+03   -0.65198E-02   -0.66054E-02  7904   0.710E+00-0.282E-02
CGA:  13    -0.335281096417E+03   -0.19968E-01   -0.19782E-01  7904   0.128E+01-0.954E-02
CGA:  14    -0.335295768483E+03   -0.14672E-01   -0.13954E-01  7904   0.703E+00 0.491E-01
CGA:  15    -0.335305397006E+03   -0.96285E-02   -0.94775E-02  7904   0.669E+00 0.812E-02
CGA:  16    -0.335314276884E+03   -0.88799E-02   -0.98619E-02  7904   0.357E+00-0.356E-01
CGA:  17    -0.335317046735E+03   -0.27699E-02   -0.29597E-02  7904   0.901E-01-0.170E-01
CGA:  18    -0.335318598829E+03   -0.15521E-02   -0.15555E-02  7904   0.129E+00-0.374E-04
CGA:  19    -0.335321588211E+03   -0.29894E-02   -0.29656E-02  7904   0.170E+00-0.100E-02
CGA:  20    -0.335324415072E+03   -0.28269E-02   -0.27909E-02  7904   0.151E+00 0.673E-03
CGA:  21    -0.335326555386E+03   -0.21403E-02   -0.21434E-02  7904   0.110E+00-0.873E-04
CGA:  22    -0.335328210669E+03   -0.16553E-02   -0.17025E-02  7904   0.706E-01-0.961E-03
CGA:  23    -0.335329022316E+03   -0.81165E-03   -0.81433E-03  7904   0.311E-01-0.116E-03
CGA:  24    -0.335329630711E+03   -0.60839E-03   -0.60702E-03  7904   0.454E-01-0.412E-04
CGA:  25    -0.335330580144E+03   -0.94943E-03   -0.94506E-03  7904   0.459E-01-0.259E-03
CGA:  26    -0.335331212278E+03   -0.63213E-03   -0.63528E-03  7904   0.379E-01-0.948E-04
CGA:  27    -0.335332082416E+03   -0.87014E-03   -0.87038E-03  7904   0.470E-01 0.604E-04
CGA:  28    -0.335332574634E+03   -0.49222E-03   -0.49144E-03  7904   0.982E-02 0.551E-04
CGA:  29    -0.335332701535E+03   -0.12690E-03   -0.12681E-03  7904   0.924E-02 0.766E-05
CGA:  30    -0.335332976675E+03   -0.27514E-03   -0.27472E-03  7904   0.171E-01 0.503E-04
CGA:  31    -0.335333231587E+03   -0.25491E-03   -0.25560E-03  7904   0.114E-01 0.245E-05
CGA:  32    -0.335333420479E+03   -0.18889E-03   -0.18888E-03  7904   0.104E-01 0.352E-05
SDA:  33    -0.335333612855E+03   -0.19238E-03   -0.19206E-03  7904   0.945E-02-0.161E-04
CGA:  34    -0.335333731555E+03   -0.11870E-03   -0.11889E-03  7904   0.181E-02-0.531E-05
CGA:  35    -0.335333780333E+03   -0.48778E-04   -0.48779E-04  7904   0.329E-02-0.121E-05
CGA:  36    -0.335333956121E+03   -0.17579E-03   -0.17682E-03  7904   0.224E-02-0.345E-04
CGA:  37    -0.335334010816E+03   -0.54695E-04   -0.54690E-04  7904   0.212E-02 0.548E-05
CGA:  38    -0.335334070207E+03   -0.59391E-04   -0.59349E-04  7904   0.958E-03 0.774E-05
CGA:  39    -0.335334154765E+03   -0.84558E-04   -0.83894E-04  7904   0.553E-03 0.109E-04
CGA:  40    -0.335334160703E+03   -0.59388E-05   -0.59380E-05  7904   0.160E-03 0.302E-06
CGA:  41    -0.335334174757E+03   -0.14054E-04   -0.14023E-04  7904   0.611E-03 0.407E-06
CGA:  42    -0.335334192119E+03   -0.17362E-04   -0.17361E-04  7904   0.239E-03-0.503E-06
CGA:  43    -0.335334197054E+03   -0.49350E-05   -0.49241E-05  7904   0.118E-03-0.105E-05
  19 F= -.33533420E+03 E0= -.33530496E+03  d E =0.124801E-01  mag=    32.0000
       N       E                     dE             d eps       ncg     rms          ort
SDA:   1    -0.335026742466E+03    0.30745E+00    0.00000E+00  7904   0.116E+02 0.000E+00
CGA:   2    -0.335132162229E+03   -0.10542E+00   -0.10465E+00  7904   0.125E+01-0.235E-01
CGA:   3    -0.335157464825E+03   -0.25303E-01   -0.25340E-01  7904   0.113E+01 0.528E-04
CGA:   4    -0.335250079357E+03   -0.92615E-01   -0.89746E-01  7904   0.184E+01 0.625E-01
CGA:   5    -0.335283703525E+03   -0.33624E-01   -0.32930E-01  7904   0.660E+00 0.154E-01
CGA:   6    -0.335304208540E+03   -0.20505E-01   -0.20568E-01  7904   0.377E+00-0.252E-01
CGA:   7    -0.335310827484E+03   -0.66189E-02   -0.65429E-02  7904   0.425E+00 0.965E-03
CGA:   8    -0.335335999600E+03   -0.25172E-01   -0.24736E-01  7904   0.224E+00 0.148E-01
CGA:   9    -0.335342379134E+03   -0.63795E-02   -0.63610E-02  7904   0.200E+00-0.233E-02
CGA:  10    -0.335344815400E+03   -0.24363E-02   -0.23592E-02  7904   0.466E-01 0.438E-02
CGA:  11    -0.335346815523E+03   -0.20001E-02   -0.20076E-02  7904   0.111E+00-0.473E-03
CGA:  12    -0.335349118974E+03   -0.23035E-02   -0.23155E-02  7904   0.882E-01 0.838E-04
CGA:  13    -0.335350642005E+03   -0.15230E-02   -0.15305E-02  7904   0.407E-01-0.123E-03
CGA:  14    -0.335351556288E+03   -0.91428E-03   -0.91227E-03  7904   0.277E-01-0.740E-04
CGA:  15    -0.335351905906E+03   -0.34962E-03   -0.35058E-03  7904   0.812E-02-0.508E-04
CGA:  16    -0.335352126416E+03   -0.22051E-03   -0.22052E-03  7904   0.144E-01 0.826E-05
CGA:  17    -0.335352644365E+03   -0.51795E-03   -0.51897E-03  7904   0.133E-01-0.936E-04
CGA:  18    -0.335352825371E+03   -0.18101E-03   -0.18116E-03  7904   0.842E-02-0.112E-04
CGA:  19    -0.335353116243E+03   -0.29087E-03   -0.29014E-03  7904   0.440E-02 0.699E-04
CGA:  20    -0.335353178513E+03   -0.62270E-04   -0.62168E-04  7904   0.383E-02-0.678E-06
CGA:  21    -0.335353377735E+03   -0.19922E-03   -0.19954E-03  7904   0.302E-02-0.127E-04
CGA:  22    -0.335353417777E+03   -0.40042E-04   -0.40053E-04  7904   0.213E-02-0.184E-05
CGA:  23    -0.335353486251E+03   -0.68475E-04   -0.68516E-04  7904   0.119E-02-0.633E-05
CGA:  24    -0.335353515040E+03   -0.28789E-04   -0.28800E-04  7904   0.235E-02 0.300E-05
CGA:  25    -0.335353598722E+03   -0.83682E-04   -0.83507E-04  7904   0.187E-02 0.197E-04
CGA:  26    -0.335353637885E+03   -0.39163E-04   -0.39167E-04  7904   0.134E-02 0.282E-05
CGA:  27    -0.335353658941E+03   -0.21057E-04   -0.21021E-04  7904   0.686E-03 0.682E-06
CGA:  28    -0.335353672558E+03   -0.13617E-04   -0.13620E-04  7904   0.321E-03 0.625E-06
CGA:  29    -0.335353684924E+03   -0.12366E-04   -0.12341E-04  7904   0.985E-03 0.198E-05
CGA:  30    -0.335353709769E+03   -0.24845E-04   -0.24853E-04  7904   0.495E-03 0.274E-05
CGA:  31    -0.335353724129E+03   -0.14360E-04   -0.14362E-04  7904   0.661E-03-0.703E-06
SDA:  32    -0.335353734491E+03   -0.10362E-04   -0.10343E-04  7904   0.168E-03-0.880E-06
CGA:  33    -0.335353736968E+03   -0.24770E-05   -0.24801E-05  7904   0.103E-03 0.253E-06
  20 F= -.33535374E+03 E0= -.33532425E+03  d E =-.195399E-01  mag=    32.0000
       N       E                     dE             d eps       ncg     rms          ort
SDA:   1    -0.335245645452E+03    0.10809E+00    0.00000E+00  7904   0.202E+01 0.000E+00
CGA:   2    -0.335271957723E+03   -0.26312E-01   -0.25874E-01  7904   0.471E+00 0.172E-01
CGA:   3    -0.335283252519E+03   -0.11295E-01   -0.11293E-01  7904   0.598E+00-0.294E-03
CGA:   4    -0.335308304881E+03   -0.25052E-01   -0.24452E-01  7904   0.624E+00 0.342E-01
CGA:   5    -0.335332684203E+03   -0.24379E-01   -0.24784E-01  7904   0.699E+00-0.295E-01
CGA:   6    -0.335342725387E+03   -0.10041E-01   -0.10080E-01  7904   0.945E-01-0.852E-03
CGA:   7    -0.335347328608E+03   -0.46032E-02   -0.45224E-02  7904   0.211E+00 0.357E-02
CGA:   8    -0.335352576198E+03   -0.52476E-02   -0.52459E-02  7904   0.131E+00-0.125E-03
CGA:   9    -0.335357214916E+03   -0.46387E-02   -0.46738E-02  7904   0.470E-01-0.313E-02
CGA:  10    -0.335358089715E+03   -0.87480E-03   -0.87520E-03  7904   0.177E-01 0.178E-05
CGA:  11    -0.335359048671E+03   -0.95896E-03   -0.96159E-03  7904   0.364E-01-0.979E-04
CGA:  12    -0.335359729636E+03   -0.68097E-03   -0.68253E-03  7904   0.130E-01-0.147E-04
CGA:  13    -0.335360158034E+03   -0.42840E-03   -0.42791E-03  7904   0.100E-01 0.659E-04
CGA:  14    -0.335360292272E+03   -0.13424E-03   -0.13392E-03  7904   0.391E-02 0.745E-05
CGA:  15    -0.335360656840E+03   -0.36457E-03   -0.36372E-03  7904   0.380E-02 0.153E-04
CGA:  16    -0.335360718135E+03   -0.61295E-04   -0.61378E-04  7904   0.195E-02-0.849E-06
CGA:  17    -0.335360789746E+03   -0.71611E-04   -0.71658E-04  7904   0.119E-02-0.532E-05
CGA:  18    -0.335360883625E+03   -0.93879E-04   -0.93807E-04  7904   0.390E-02 0.169E-05
CGA:  19    -0.335360938964E+03   -0.55340E-04   -0.55432E-04  7904   0.767E-03-0.361E-05
CGA:  20    -0.335360958916E+03   -0.19952E-04   -0.19930E-04  7904   0.509E-03-0.265E-05
CGA:  21    -0.335360970330E+03   -0.11413E-04   -0.11396E-04  7904   0.413E-03-0.946E-06
CGA:  22    -0.335360996324E+03   -0.25994E-04   -0.25886E-04  7904   0.103E-02 0.348E-05
CGA:  23    -0.335361024546E+03   -0.28222E-04   -0.28236E-04  7904   0.267E-03 0.246E-05
CGA:  24    -0.335361030717E+03   -0.61715E-05   -0.61605E-05  7904   0.288E-03-0.716E-06
  21 F= -.33536103E+03 E0= -.33533155E+03  d E =-.729375E-02  mag=    32.0000
       N       E                     dE             d eps       ncg     rms          ort
SDA:   1    -0.334023446717E+03    0.13376E+01    0.00000E+00  7904   0.100E+03 0.000E+00
CGA:   2    -0.334938121409E+03   -0.91467E+00   -0.56697E+00  7904   0.229E+02 0.535E+02
CGA:   3    -0.335134061946E+03   -0.19594E+00   -0.15190E+00  7904   0.175E+01 0.565E+01
CGA:   4    -0.335152646339E+03   -0.18584E-01   -0.17258E-01  7904   0.678E+00 0.137E+00
CGA:   5    -0.335174604186E+03   -0.21958E-01   -0.22001E-01  7904   0.215E+01-0.120E-01
CGA:   6    -0.335225127628E+03   -0.50523E-01   -0.50420E-01  7904   0.517E+01-0.776E-02
CGA:   7    -0.335296683425E+03   -0.71556E-01   -0.71925E-01  7904   0.288E+01-0.114E-01
CGA:   8    -0.335318378136E+03   -0.21695E-01   -0.22353E-01  7904   0.629E+00-0.725E-01
CGA:   9    -0.335324257050E+03   -0.58789E-02   -0.58002E-02  7904   0.320E+00 0.599E-02
CGA:  10    -0.335328972479E+03   -0.47154E-02   -0.47560E-02  7904   0.369E+00-0.800E-03
CGA:  11    -0.335336012723E+03   -0.70402E-02   -0.71158E-02  7904   0.475E+00 0.297E-02
CGA:  12    -0.335343591472E+03   -0.75787E-02   -0.75931E-02  7904   0.509E+00-0.174E-03
CGA:  13    -0.335353428751E+03   -0.98373E-02   -0.97823E-02  7904   0.358E+00-0.274E-02
CGA:  14    -0.335356095571E+03   -0.26668E-02   -0.25999E-02  7904   0.507E-01 0.715E-02
CGA:  15    -0.335356673905E+03   -0.57833E-03   -0.57658E-03  7904   0.495E-01 0.858E-04
CGA:  16    -0.335358185652E+03   -0.15117E-02   -0.15117E-02  7904   0.126E+00 0.791E-05
CGA:  17    -0.335360030349E+03   -0.18447E-02   -0.18466E-02  7904   0.105E+00 0.331E-04
CGA:  18    -0.335361294957E+03   -0.12646E-02   -0.12648E-02  7904   0.370E-01 0.481E-04
CGA:  19    -0.335361596140E+03   -0.30118E-03   -0.30300E-03  7904   0.136E-01-0.136E-03
CGA:  20    -0.335361976958E+03   -0.38082E-03   -0.38078E-03  7904   0.439E-01 0.278E-05
CGA:  21    -0.335362823981E+03   -0.84702E-03   -0.84668E-03  7904   0.280E-01-0.682E-04
CGA:  22    -0.335363076608E+03   -0.25263E-03   -0.25251E-03  7904   0.117E-01-0.363E-05
CGA:  23    -0.335363249310E+03   -0.17270E-03   -0.17282E-03  7904   0.878E-02-0.658E-06
CGA:  24    -0.335363359951E+03   -0.11064E-03   -0.11063E-03  7904   0.711E-02-0.293E-05
CGA:  25    -0.335363510243E+03   -0.15029E-03   -0.15031E-03  7904   0.116E-01-0.113E-04
CGA:  26    -0.335363711238E+03   -0.20100E-03   -0.20097E-03  7904   0.135E-01-0.355E-05
CGA:  27    -0.335363910936E+03   -0.19970E-03   -0.19991E-03  7904   0.809E-02 0.110E-04
CGA:  28    -0.335363985544E+03   -0.74609E-04   -0.74721E-04  7904   0.224E-02-0.278E-05
CGA:  29    -0.335364010426E+03   -0.24881E-04   -0.24841E-04  7904   0.141E-02-0.424E-06
CGA:  30    -0.335364042444E+03   -0.32018E-04   -0.32045E-04  7904   0.321E-02-0.576E-05
CGA:  31    -0.335364117296E+03   -0.74853E-04   -0.74864E-04  7904   0.408E-02-0.182E-05
CGA:  32    -0.335364165946E+03   -0.48649E-04   -0.48711E-04  7904   0.282E-02 0.533E-05
SDA:  33    -0.335364211868E+03   -0.45922E-04   -0.45966E-04  7904   0.180E-02 0.116E-04
CGA:  34    -0.335364228659E+03   -0.16791E-04   -0.16773E-04  7904   0.334E-03 0.209E-06
CGA:  35    -0.335364244524E+03   -0.15865E-04   -0.15743E-04  7904   0.592E-03 0.418E-05
CGA:  36    -0.335364264015E+03   -0.19491E-04   -0.19431E-04  7904   0.628E-03 0.451E-05
CGA:  37    -0.335364283009E+03   -0.18994E-04   -0.19017E-04  7904   0.302E-03-0.233E-05
CGA:  38    -0.335364289786E+03   -0.67775E-05   -0.67790E-05  7904   0.183E-03-0.106E-05
  22 F= -.33536429E+03 E0= -.33533479E+03  d E =-.325907E-02  mag=    32.0000
       N       E                     dE             d eps       ncg     rms          ort
SDA:   1    -0.333096572386E+03    0.22677E+01    0.00000E+00  7904   0.180E+02 0.000E+00
CGA:   2    -0.333333082479E+03   -0.23651E+00   -0.29411E+00  7904   0.109E+02-0.218E+01
CGA:   3    -0.334022761391E+03   -0.68968E+00   -0.75473E+00  7904   0.341E+02-0.169E+01
CGA:   4    -0.334707557775E+03   -0.68480E+00   -0.72048E+00  7904   0.138E+02-0.125E+00
CGA:   5    -0.334909149083E+03   -0.20159E+00   -0.18529E+00  7904   0.490E+01 0.765E+00
CGA:   6    -0.335060195002E+03   -0.15105E+00   -0.11277E+00  7904   0.215E+01 0.909E+00
CGA:   7    -0.335109468127E+03   -0.49273E-01   -0.45176E-01  7904   0.203E+01 0.133E+00
CGA:   8    -0.335166318341E+03   -0.56850E-01   -0.56935E-01  7904   0.424E+01 0.208E-02
CGA:   9    -0.335270211144E+03   -0.10389E+00   -0.10279E+00  7904   0.392E+01-0.242E-02
CGA:  10    -0.335306685324E+03   -0.36474E-01   -0.36639E-01  7904   0.944E+00-0.209E-01
CGA:  11    -0.335320242910E+03   -0.13558E-01   -0.14513E-01  7904   0.650E+00-0.335E-01
CGA:  12    -0.335329878535E+03   -0.96356E-02   -0.98923E-02  7904   0.536E+00-0.787E-02
CGA:  13    -0.335344095609E+03   -0.14217E-01   -0.14237E-01  7904   0.496E+00 0.147E-02
CGA:  14    -0.335353238817E+03   -0.91432E-02   -0.90497E-02  7904   0.479E+00 0.151E-02
CGA:  15    -0.335361862550E+03   -0.86237E-02   -0.82220E-02  7904   0.194E+00 0.957E-02
CGA:  16    -0.335364918150E+03   -0.30556E-02   -0.29911E-02  7904   0.162E+00 0.223E-02
CGA:  17    -0.335367705907E+03   -0.27878E-02   -0.28267E-02  7904   0.113E+00-0.577E-03
CGA:  18    -0.335370556178E+03   -0.28503E-02   -0.28529E-02  7904   0.198E+00 0.327E-03
CGA:  19    -0.335374067339E+03   -0.35112E-02   -0.35333E-02  7904   0.832E-01-0.123E-03
CGA:  20    -0.335375108843E+03   -0.10415E-02   -0.10441E-02  7904   0.314E-01-0.103E-03
CGA:  21    -0.335375640118E+03   -0.53128E-03   -0.52740E-03  7904   0.266E-01 0.358E-04
CGA:  22    -0.335376214580E+03   -0.57446E-03   -0.57236E-03  7904   0.337E-01-0.126E-03
CGA:  23    -0.335377284490E+03   -0.10699E-02   -0.10723E-02  7904   0.651E-01-0.303E-03
CGA:  24    -0.335378103811E+03   -0.81932E-03   -0.82626E-03  7904   0.176E-01-0.297E-03
CGA:  25    -0.335378405690E+03   -0.30188E-03   -0.30446E-03  7904   0.157E-01 0.117E-04
CGA:  26    -0.335378622198E+03   -0.21651E-03   -0.21784E-03  7904   0.602E-02-0.296E-04
CGA:  27    -0.335378807419E+03   -0.18522E-03   -0.18537E-03  7904   0.132E-01-0.182E-04
CGA:  28    -0.335379066216E+03   -0.25880E-03   -0.25842E-03  7904   0.118E-01-0.615E-05
CGA:  29    -0.335379388353E+03   -0.32214E-03   -0.32215E-03  7904   0.117E-01 0.301E-05
CGA:  30    -0.335379515716E+03   -0.12736E-03   -0.12710E-03  7904   0.334E-02 0.274E-04
CGA:  31    -0.335379578464E+03   -0.62748E-04   -0.62839E-04  7904   0.252E-02 0.649E-05
SDA:  32    -0.335379630971E+03   -0.52507E-04   -0.52540E-04  7904   0.412E-02 0.542E-05
CGA:  33    -0.335379685546E+03   -0.54576E-04   -0.54564E-04  7904   0.177E-02-0.341E-05
CGA:  34    -0.335379729525E+03   -0.43979E-04   -0.43988E-04  7904   0.162E-02-0.511E-05
CGA:  35    -0.335379803476E+03   -0.73951E-04   -0.74042E-04  7904   0.221E-02-0.451E-05
CGA:  36    -0.335379884624E+03   -0.81148E-04   -0.80989E-04  7904   0.624E-03 0.112E-04
CGA:  37    -0.335379941903E+03   -0.57279E-04   -0.56868E-04  7904   0.297E-02 0.627E-05
CGA:  38    -0.335380011601E+03   -0.69698E-04   -0.69715E-04  7904   0.810E-03 0.357E-05
CGA:  39    -0.335380035732E+03   -0.24131E-04   -0.24118E-04  7904   0.880E-03 0.548E-05
CGA:  40    -0.335380049804E+03   -0.14071E-04   -0.14094E-04  7904   0.392E-03 0.625E-06
CGA:  41    -0.335380098046E+03   -0.48242E-04   -0.48555E-04  7904   0.116E-02-0.354E-05
CGA:  42    -0.335380119295E+03   -0.21250E-04   -0.21223E-04  7904   0.230E-03-0.214E-05
CGA:  43    -0.335380128146E+03   -0.88505E-05   -0.88533E-05  7904   0.693E-03-0.507E-06
CGA:  44    -0.335380160486E+03   -0.32340E-04   -0.32341E-04  7904   0.628E-03-0.260E-06
CGA:  45    -0.335380171834E+03   -0.11348E-04   -0.11394E-04  7904   0.257E-03 0.192E-05
CGA:  46    -0.335380177617E+03   -0.57827E-05   -0.57992E-05  7904   0.105E-03 0.138E-05
  23 F= -.33538018E+03 E0= -.33535093E+03  d E =-.158878E-01  mag=    32.0000
       N       E                     dE             d eps       ncg     rms          ort
SDA:   1    -0.313390291019E+03    0.21990E+02    0.00000E+00  7904   0.772E+03 0.000E+00
CGA:   2    -0.316699244750E+03   -0.33090E+01   -0.20973E+02  7904   0.461E+03-0.260E+03
CGA:   3    -0.324685892949E+03   -0.79866E+01   -0.70183E+01  7904   0.110E+03 0.183E+03
CGA:   4    -0.326013721961E+03   -0.13278E+01   -0.16823E+01  7904   0.696E+02-0.675E+02
CGA:   5    -0.326933172973E+03   -0.91945E+00   -0.92707E+00  7904   0.351E+02-0.131E+00
CGA:   6    -0.328201325320E+03   -0.12682E+01   -0.96909E+00  7904   0.482E+02 0.273E+01
CGA:   7    -0.329166301263E+03   -0.96498E+00   -0.85976E+00  7904   0.897E+02 0.428E+01
CGA:   8    -0.331803490896E+03   -0.26372E+01   -0.26535E+01  7904   0.232E+03 0.638E+00
CGA:   9    -0.333785140532E+03   -0.19816E+01   -0.27823E+01  7904   0.575E+02-0.618E+02
CGA:  10    -0.334022537882E+03   -0.23740E+00   -0.41641E+00  7904   0.958E+01-0.151E+02
CGA:  11    -0.334229398901E+03   -0.20686E+00   -0.17854E+00  7904   0.141E+02 0.663E+00
CGA:  12    -0.334350787453E+03   -0.12139E+00   -0.74559E-01  7904   0.761E+01 0.880E+01
CGA:  13    -0.334457345543E+03   -0.10656E+00   -0.11546E+00  7904   0.826E+01-0.475E+00
CGA:  14    -0.334881105991E+03   -0.42376E+00   -0.43737E+00  7904   0.136E+02-0.674E+00
CGA:  15    -0.335182047494E+03   -0.30094E+00   -0.29904E+00  7904   0.382E+01 0.227E-01
CGA:  16    -0.335240840363E+03   -0.58793E-01   -0.72634E-01  7904   0.121E+01-0.348E+00
CGA:  17    -0.335262910243E+03   -0.22070E-01   -0.20719E-01  7904   0.900E+00 0.383E-01
CGA:  18    -0.335303991452E+03   -0.41081E-01   -0.41600E-01  7904   0.186E+01-0.455E-01
CGA:  19    -0.335331448356E+03   -0.27457E-01   -0.28921E-01  7904   0.836E+00-0.541E-01
CGA:  20    -0.335350590308E+03   -0.19142E-01   -0.19550E-01  7904   0.183E+00 0.643E-03
CGA:  21    -0.335355825341E+03   -0.52350E-02   -0.52534E-02  7904   0.229E+00 0.682E-03
CGA:  22    -0.335363161899E+03   -0.73366E-02   -0.73664E-02  7904   0.404E+00 0.347E-02
CGA:  23    -0.335371049913E+03   -0.78880E-02   -0.78022E-02  7904   0.121E+00 0.181E-02
CGA:  24    -0.335375011471E+03   -0.39616E-02   -0.39592E-02  7904   0.803E-01-0.501E-03
CGA:  25    -0.335377670747E+03   -0.26593E-02   -0.26582E-02  7904   0.151E+00-0.394E-03
[...]
CGA:  19    -0.335528510430E+03   -0.92240E-05   -0.92673E-05  7904   0.565E-04 0.166E-05
 178 F= -.33552851E+03 E0= -.33549870E+03  d E =0.134365E-02  mag=    32.0000
       N       E                     dE             d eps       ncg     rms          ort
SDA:   1    -0.335248988603E+03    0.27951E+00    0.00000E+00  7904   0.694E+01 0.000E+00
CGA:   2    -0.335318188078E+03   -0.69199E-01   -0.79046E-01  7904   0.102E+01-0.699E+00
CGA:   3    -0.335351476564E+03   -0.33288E-01   -0.33636E-01  7904   0.145E+01-0.498E-01
CGA:   4    -0.335415350566E+03   -0.63874E-01   -0.63706E-01  7904   0.207E+01 0.974E-02
CGA:   5    -0.335473381755E+03   -0.58031E-01   -0.58521E-01  7904   0.119E+01 0.294E-01
CGA:   6    -0.335487886054E+03   -0.14504E-01   -0.13939E-01  7904   0.171E+00 0.355E-01
CGA:   7    -0.335495859572E+03   -0.79735E-02   -0.79654E-02  7904   0.461E+00 0.478E-03
CGA:   8    -0.335512778884E+03   -0.16919E-01   -0.16937E-01  7904   0.157E+00-0.281E-02
CGA:   9    -0.335515906089E+03   -0.31272E-02   -0.31545E-02  7904   0.737E-01-0.270E-03
CGA:  10    -0.335517982120E+03   -0.20760E-02   -0.20826E-02  7904   0.730E-01 0.629E-03
CGA:  11    -0.335519600330E+03   -0.16182E-02   -0.16207E-02  7904   0.556E-01 0.479E-04
CGA:  12    -0.335521125908E+03   -0.15256E-02   -0.15258E-02  7904   0.205E-01 0.464E-04
CGA:  13    -0.335521434462E+03   -0.30855E-03   -0.30757E-03  7904   0.678E-02 0.490E-04
CGA:  14    -0.335522141719E+03   -0.70726E-03   -0.70284E-03  7904   0.185E-01 0.616E-04
CGA:  15    -0.335522498515E+03   -0.35680E-03   -0.35682E-03  7904   0.349E-02 0.234E-04
CGA:  16    -0.335522572723E+03   -0.74207E-04   -0.74234E-04  7904   0.228E-02 0.177E-05
CGA:  17    -0.335522646468E+03   -0.73745E-04   -0.73744E-04  7904   0.256E-02 0.124E-06
CGA:  18    -0.335522728893E+03   -0.82425E-04   -0.82426E-04  7904   0.411E-02 0.129E-05
CGA:  19    -0.335522822264E+03   -0.93372E-04   -0.93561E-04  7904   0.599E-03 0.627E-05
CGA:  20    -0.335522836492E+03   -0.14228E-04   -0.14218E-04  7904   0.586E-03-0.809E-06
CGA:  21    -0.335522876950E+03   -0.40458E-04   -0.40602E-04  7904   0.133E-02-0.392E-05
CGA:  22    -0.335522907487E+03   -0.30537E-04   -0.30495E-04  7904   0.398E-03-0.284E-05
CGA:  23    -0.335522919666E+03   -0.12179E-04   -0.12184E-04  7904   0.248E-03 0.170E-05
CGA:  24    -0.335522926182E+03   -0.65159E-05   -0.65186E-05  7904   0.342E-03 0.324E-06
CGA:  25    -0.335522943458E+03   -0.17276E-04   -0.17291E-04  7904   0.538E-03-0.901E-06
CGA:  26    -0.335522951523E+03   -0.80656E-05   -0.80675E-05  7904   0.117E-03 0.248E-06
 179 F= -.33552295E+03 E0= -.33549322E+03  d E =0.555891E-02  mag=    32.0000
       N       E                     dE             d eps       ncg     rms          ort
SDA:   1    -0.335459017581E+03    0.63926E-01    0.00000E+00  7904   0.508E+01 0.000E+00
CGA:   2    -0.335507705314E+03   -0.48688E-01   -0.44138E-01  7904   0.166E+00 0.403E+00
CGA:   3    -0.335509896500E+03   -0.21912E-02   -0.21763E-02  7904   0.505E-01 0.815E-03
CGA:   4    -0.335512105647E+03   -0.22091E-02   -0.22027E-02  7904   0.150E+00 0.400E-03
CGA:   5    -0.335518735195E+03   -0.66295E-02   -0.66258E-02  7904   0.763E-01 0.233E-03
CGA:   6    -0.335519877399E+03   -0.11422E-02   -0.11266E-02  7904   0.414E-01 0.591E-03
CGA:   7    -0.335520811932E+03   -0.93453E-03   -0.92764E-03  7904   0.182E-01-0.104E-03
CGA:   8    -0.335521552622E+03   -0.74069E-03   -0.74055E-03  7904   0.462E-01 0.661E-05
CGA:   9    -0.335522626853E+03   -0.10742E-02   -0.10740E-02  7904   0.101E-01-0.258E-04
CGA:  10    -0.335522769490E+03   -0.14264E-03   -0.14236E-03  7904   0.487E-02 0.561E-05
CGA:  11    -0.335522944264E+03   -0.17477E-03   -0.17474E-03  7904   0.895E-02 0.342E-05
CGA:  12    -0.335523208994E+03   -0.26473E-03   -0.26473E-03  7904   0.243E-02-0.183E-05
CGA:  13    -0.335523246772E+03   -0.37778E-04   -0.37753E-04  7904   0.155E-02-0.672E-07
CGA:  14    -0.335523285679E+03   -0.38906E-04   -0.38953E-04  7904   0.927E-03 0.482E-05
CGA:  15    -0.335523325097E+03   -0.39419E-04   -0.39473E-04  7904   0.220E-02-0.412E-05
CGA:  16    -0.335523371815E+03   -0.46718E-04   -0.46619E-04  7904   0.342E-03-0.849E-05
CGA:  17    -0.335523377262E+03   -0.54470E-05   -0.54439E-05  7904   0.202E-03-0.219E-06
 180 F= -.33552338E+03 E0= -.33549358E+03  d E =-.425739E-03  mag=    32.0000
       N       E                     dE             d eps       ncg     rms          ort
SDA:   1    -0.335311945531E+03    0.21143E+00    0.00000E+00  7904   0.112E+02 0.000E+00
CGA:   2    -0.335410722978E+03   -0.98777E-01   -0.98245E-01  7904   0.848E+00-0.349E-01
CGA:   3    -0.335424472230E+03   -0.13749E-01   -0.13952E-01  7904   0.434E+00-0.368E-02
CGA:   4    -0.335453870996E+03   -0.29399E-01   -0.28022E-01  7904   0.842E+00 0.391E-01
CGA:   5    -0.335483155867E+03   -0.29285E-01   -0.29324E-01  7904   0.104E+01-0.913E-02
CGA:   6    -0.335505271675E+03   -0.22116E-01   -0.22059E-01  7904   0.101E+00-0.575E-03
CGA:   7    -0.335510983468E+03   -0.57118E-02   -0.56850E-02  7904   0.310E+00 0.953E-03
CGA:   8    -0.335516873510E+03   -0.58900E-02   -0.59328E-02  7904   0.904E-01-0.407E-03
CGA:   9    -0.335519727679E+03   -0.28542E-02   -0.28608E-02  7904   0.648E-01-0.217E-02
CGA:  10    -0.335520685148E+03   -0.95747E-03   -0.95964E-03  7904   0.277E-01-0.984E-04
CGA:  11    -0.335522473307E+03   -0.17882E-02   -0.17872E-02  7904   0.402E-01 0.262E-04
CGA:  12    -0.335523205622E+03   -0.73231E-03   -0.73159E-03  7904   0.817E-02-0.761E-05
CGA:  13    -0.335523389744E+03   -0.18412E-03   -0.18393E-03  7904   0.742E-02-0.125E-04
CGA:  14    -0.335523570697E+03   -0.18095E-03   -0.18063E-03  7904   0.463E-02-0.236E-04
CGA:  15    -0.335523829285E+03   -0.25859E-03   -0.25845E-03  7904   0.998E-02 0.466E-05
CGA:  16    -0.335523971598E+03   -0.14231E-03   -0.14280E-03  7904   0.950E-03-0.177E-04
CGA:  17    -0.335524020724E+03   -0.49126E-04   -0.49389E-04  7904   0.124E-02-0.117E-04
CGA:  18    -0.335524049894E+03   -0.29170E-04   -0.29152E-04  7904   0.170E-02-0.250E-05
CGA:  19    -0.335524121232E+03   -0.71338E-04   -0.71304E-04  7904   0.461E-03 0.175E-05
CGA:  20    -0.335524127954E+03   -0.67220E-05   -0.67280E-05  7904   0.226E-03 0.114E-07
 181 F= -.33552413E+03 E0= -.33549426E+03  d E =-.750692E-03  mag=    32.0000
       N       E                     dE             d eps       ncg     rms          ort
SDA:   1    -0.335486478550E+03    0.37643E-01    0.00000E+00  7904   0.190E+01 0.000E+00
CGA:   2    -0.335508406337E+03   -0.21928E-01   -0.22577E-01  7904   0.224E+00-0.425E-01
CGA:   3    -0.335512104537E+03   -0.36982E-02   -0.35483E-02  7904   0.768E-01 0.395E-02
CGA:   4    -0.335513814286E+03   -0.17097E-02   -0.17028E-02  7904   0.591E-01-0.139E-03
CGA:   5    -0.335516840760E+03   -0.30265E-02   -0.30211E-02  7904   0.191E+00 0.227E-03
CGA:   6    -0.335521972589E+03   -0.51318E-02   -0.51314E-02  7904   0.121E-01-0.190E-04
CGA:   7    -0.335522782346E+03   -0.80976E-03   -0.81244E-03  7904   0.472E-01-0.770E-04
CGA:   8    -0.335523713661E+03   -0.93131E-03   -0.93251E-03  7904   0.175E-01 0.597E-05
CGA:   9    -0.335524098386E+03   -0.38473E-03   -0.38477E-03  7904   0.748E-02 0.515E-05
CGA:  10    -0.335524228324E+03   -0.12994E-03   -0.12974E-03  7904   0.293E-02 0.102E-04
CGA:  11    -0.335524343997E+03   -0.11567E-03   -0.11553E-03  7904   0.544E-02 0.142E-04
CGA:  12    -0.335524554761E+03   -0.21076E-03   -0.21057E-03  7904   0.109E-02 0.234E-04
CGA:  13    -0.335524568917E+03   -0.14156E-04   -0.14193E-04  7904   0.655E-03 0.118E-05
CGA:  14    -0.335524623299E+03   -0.54382E-04   -0.54167E-04  7904   0.693E-03 0.394E-05
CGA:  15    -0.335524637835E+03   -0.14536E-04   -0.14578E-04  7904   0.289E-03 0.275E-05
CGA:  16    -0.335524644983E+03   -0.71476E-05   -0.71663E-05  7904   0.215E-03 0.239E-05
 182 F= -.33552464E+03 E0= -.33549488E+03  d E =-.517029E-03  mag=    32.0000
       N       E                     dE             d eps       ncg     rms          ort
SDA:   1    -0.335328295859E+03    0.19634E+00    0.00000E+00  7904   0.112E+02 0.000E+00
CGA:   2    -0.335428631708E+03   -0.10034E+00   -0.11031E+00  7904   0.407E+00-0.742E+00
CGA:   3    -0.335440246638E+03   -0.11615E-01   -0.11613E-01  7904   0.594E+00-0.402E-02
CGA:   4    -0.335484210292E+03   -0.43964E-01   -0.43116E-01  7904   0.818E+00 0.212E-01
CGA:   5    -0.335500920095E+03   -0.16710E-01   -0.16467E-01  7904   0.388E+00 0.369E-02
CGA:   6    -0.335508753874E+03   -0.78338E-02   -0.77320E-02  7904   0.138E+00 0.113E-02
CGA:   7    -0.335511298866E+03   -0.25450E-02   -0.25597E-02  7904   0.119E+00-0.214E-03
CGA:   8    -0.335519959685E+03   -0.86608E-02   -0.86869E-02  7904   0.151E+00-0.675E-03
CGA:   9    -0.335522234097E+03   -0.22744E-02   -0.22873E-02  7904   0.215E-01-0.432E-03
CGA:  10    -0.335522874188E+03   -0.64009E-03   -0.63946E-03  7904   0.207E-01-0.108E-03
CGA:  11    -0.335523548774E+03   -0.67459E-03   -0.67455E-03  7904   0.194E-01 0.317E-04
CGA:  12    -0.335524372482E+03   -0.82371E-03   -0.82304E-03  7904   0.234E-01 0.565E-04
CGA:  13    -0.335524673062E+03   -0.30058E-03   -0.30041E-03  7904   0.269E-02 0.316E-04
CGA:  14    -0.335524730239E+03   -0.57177E-04   -0.57257E-04  7904   0.268E-02 0.506E-05
CGA:  15    -0.335524881664E+03   -0.15143E-03   -0.15155E-03  7904   0.360E-02-0.409E-05
CGA:  16    -0.335524998452E+03   -0.11679E-03   -0.11679E-03  7904   0.278E-02 0.171E-04
CGA:  17    -0.335525054772E+03   -0.56320E-04   -0.56366E-04  7904   0.437E-03 0.560E-05
CGA:  18    -0.335525064615E+03   -0.98434E-05   -0.98462E-05  7904   0.391E-03 0.108E-06
CGA:  19    -0.335525093818E+03   -0.29203E-04   -0.29366E-04  7904   0.946E-03-0.377E-05
CGA:  20    -0.335525109797E+03   -0.15979E-04   -0.15947E-04  7904   0.428E-03-0.141E-05
CGA:  21    -0.335525119819E+03   -0.10022E-04   -0.10029E-04  7904   0.188E-03 0.226E-06
CGA:  22    -0.335525123237E+03   -0.34180E-05   -0.34103E-05  7904   0.927E-04-0.468E-06
 183 F= -.33552512E+03 E0= -.33549533E+03  d E =-.478254E-03  mag=    32.0000
       N       E                     dE             d eps       ncg     rms          ort
SDA:   1    -0.335482054224E+03    0.43066E-01    0.00000E+00  7904   0.116E+01 0.000E+00
CGA:   2    -0.335493990010E+03   -0.11936E-01   -0.12511E-01  7904   0.163E+00-0.432E-01
CGA:   3    -0.335497040779E+03   -0.30508E-02   -0.30799E-02  7904   0.169E+00-0.378E-03
CGA:   4    -0.335514913136E+03   -0.17872E-01   -0.17872E-01  7904   0.252E+00-0.126E-05
CGA:   5    -0.335518672641E+03   -0.37595E-02   -0.37869E-02  7904   0.753E-01-0.113E-02
CGA:   6    -0.335520640541E+03   -0.19679E-02   -0.19464E-02  7904   0.456E-01-0.403E-03
CGA:   7    -0.335522373008E+03   -0.17325E-02   -0.17331E-02  7904   0.678E-01-0.100E-03
CGA:   8    -0.335524149033E+03   -0.17760E-02   -0.17775E-02  7904   0.493E-01 0.309E-04
CGA:   9    -0.335524838226E+03   -0.68919E-03   -0.69347E-03  7904   0.658E-02-0.195E-03
CGA:  10    -0.335525464633E+03   -0.62641E-03   -0.62963E-03  7904   0.162E-01-0.542E-04
CGA:  11    -0.335525746078E+03   -0.28144E-03   -0.28143E-03  7904   0.439E-02-0.166E-04
CGA:  12    -0.335525813680E+03   -0.67602E-04   -0.67659E-04  7904   0.203E-02-0.654E-05
CGA:  13    -0.335525894376E+03   -0.80696E-04   -0.80640E-04  7904   0.221E-02 0.559E-05
CGA:  14    -0.335525974268E+03   -0.79892E-04   -0.79902E-04  7904   0.308E-02-0.756E-05
CGA:  15    -0.335526034090E+03   -0.59822E-04   -0.59729E-04  7904   0.331E-03-0.572E-05
CGA:  16    -0.335526044080E+03   -0.99900E-05   -0.99810E-05  7904   0.571E-03-0.232E-05
CGA:  17    -0.335526069240E+03   -0.25160E-04   -0.25205E-04  7904   0.106E-02-0.423E-05
CGA:  18    -0.335526088817E+03   -0.19577E-04   -0.19535E-04  7904   0.955E-04-0.333E-05
CGA:  19    -0.335526092553E+03   -0.37357E-05   -0.37385E-05  7904   0.906E-04-0.431E-06
 184 F= -.33552609E+03 E0= -.33549626E+03  d E =-.969316E-03  mag=    32.0000
       N       E                     dE             d eps       ncg     rms          ort
SDA:   1    -0.335409654397E+03    0.11643E+00    0.00000E+00  7904   0.689E+01 0.000E+00
CGA:   2    -0.335466047619E+03   -0.56393E-01   -0.48915E-01  7904   0.261E+00 0.911E+00
CGA:   3    -0.335470069562E+03   -0.40219E-02   -0.39348E-02  7904   0.266E+00 0.425E-02
CGA:   4    -0.335482850385E+03   -0.12781E-01   -0.12965E-01  7904   0.961E+00-0.943E-02
CGA:   5    -0.335497018706E+03   -0.14168E-01   -0.14321E-01  7904   0.673E+00-0.511E-02
CGA:   6    -0.335506884871E+03   -0.98662E-02   -0.10059E-01  7904   0.516E+00-0.685E-02
CGA:   7    -0.335513343798E+03   -0.64589E-02   -0.64652E-02  7904   0.145E+00 0.842E-04
CGA:   8    -0.335514692517E+03   -0.13487E-02   -0.13322E-02  7904   0.567E-01 0.138E-02
CGA:   9    -0.335516880777E+03   -0.21883E-02   -0.21914E-02  7904   0.223E+00-0.251E-03
CGA:  10    -0.335521037222E+03   -0.41564E-02   -0.41544E-02  7904   0.922E-01-0.383E-04
CGA:  11    -0.335521929945E+03   -0.89272E-03   -0.89741E-03  7904   0.402E-01-0.378E-03
CGA:  12    -0.335522589119E+03   -0.65917E-03   -0.66597E-03  7904   0.239E-01-0.931E-04
CGA:  13    -0.335522914079E+03   -0.32496E-03   -0.32680E-03  7904   0.201E-01-0.672E-04
CGA:  14    -0.335523433404E+03   -0.51932E-03   -0.51933E-03  7904   0.281E-01-0.780E-05
CGA:  15    -0.335523910953E+03   -0.47755E-03   -0.47654E-03  7904   0.216E-01-0.211E-04
CGA:  16    -0.335524159815E+03   -0.24886E-03   -0.24802E-03  7904   0.441E-02 0.232E-04
CGA:  17    -0.335524221246E+03   -0.61431E-04   -0.61526E-04  7904   0.501E-02-0.273E-05
CGA:  18    -0.335524440480E+03   -0.21923E-03   -0.21913E-03  7904   0.107E-01 0.501E-05
CGA:  19    -0.335524560204E+03   -0.11972E-03   -0.11978E-03  7904   0.402E-02-0.470E-05
CGA:  20    -0.335524632282E+03   -0.72078E-04   -0.72126E-04  7904   0.298E-02 0.142E-05
CGA:  21    -0.335524667385E+03   -0.35103E-04   -0.35321E-04  7904   0.103E-02-0.759E-05
CGA:  22    -0.335524686536E+03   -0.19151E-04   -0.19148E-04  7904   0.152E-02-0.105E-05
CGA:  23    -0.335524753676E+03   -0.67140E-04   -0.67410E-04  7904   0.403E-02-0.130E-04
CGA:  24    -0.335524798228E+03   -0.44553E-04   -0.44466E-04  7904   0.650E-03-0.465E-05
CGA:  25    -0.335524806213E+03   -0.79845E-05   -0.80153E-05  7904   0.415E-03 0.147E-05
 185 F= -.33552481E+03 E0= -.33549502E+03  d E =0.128634E-02  mag=    32.0000
       N       E                     dE             d eps       ncg     rms          ort
SDA:   1    -0.335500516110E+03    0.24282E-01    0.00000E+00  7904   0.223E+01 0.000E+00
CGA:   2    -0.335519163550E+03   -0.18647E-01   -0.19843E-01  7904   0.118E+00-0.918E-01
CGA:   3    -0.335520568052E+03   -0.14045E-02   -0.14159E-02  7904   0.232E-01-0.316E-03
CGA:   4    -0.335521359491E+03   -0.79144E-03   -0.78879E-03  7904   0.302E-01 0.186E-03
CGA:   5    -0.335522448691E+03   -0.10892E-02   -0.10865E-02  7904   0.453E-01 0.176E-03
CGA:   6    -0.335524237141E+03   -0.17885E-02   -0.17947E-02  7904   0.109E-01-0.353E-03
CGA:   7    -0.335524414254E+03   -0.17711E-03   -0.17690E-03  7904   0.898E-02 0.230E-05
CGA:   8    -0.335524910531E+03   -0.49628E-03   -0.49387E-03  7904   0.110E-01 0.794E-04
CGA:   9    -0.335525101363E+03   -0.19083E-03   -0.19089E-03  7904   0.270E-02 0.140E-04
CGA:  10    -0.335525169308E+03   -0.67944E-04   -0.67940E-04  7904   0.215E-02 0.924E-05
CGA:  11    -0.335525240918E+03   -0.71610E-04   -0.71640E-04  7904   0.235E-02-0.235E-05
CGA:  12    -0.335525319216E+03   -0.78299E-04   -0.78239E-04  7904   0.223E-02 0.669E-05
CGA:  13    -0.335525347823E+03   -0.28607E-04   -0.28636E-04  7904   0.180E-03 0.156E-05
CGA:  14    -0.335525357346E+03   -0.95229E-05   -0.94852E-05  7904   0.532E-03 0.137E-05
CGA:  15    -0.335525376536E+03   -0.19190E-04   -0.19159E-04  7904   0.312E-03 0.322E-05
CGA:  16    -0.335525381519E+03   -0.49835E-05   -0.49898E-05  7904   0.857E-04 0.531E-06
 186 F= -.33552538E+03 E0= -.33549563E+03  d E =-.575306E-03  mag=    32.0000
       N       E                     dE             d eps       ncg     rms          ort
SDA:   1    -0.335403114001E+03    0.12226E+00    0.00000E+00  7904   0.329E+01 0.000E+00
CGA:   2    -0.335435350739E+03   -0.32237E-01   -0.33420E-01  7904   0.329E+00-0.743E-01
CGA:   3    -0.335454866206E+03   -0.19515E-01   -0.21184E-01  7904   0.789E+00-0.464E-01
CGA:   4    -0.335485223628E+03   -0.30357E-01   -0.30222E-01  7904   0.101E+01 0.713E-02
CGA:   5    -0.335508843787E+03   -0.23620E-01   -0.23692E-01  7904   0.141E+00 0.453E-02
CGA:   6    -0.335511677196E+03   -0.28334E-02   -0.28497E-02  7904   0.124E+00 0.277E-03
CGA:   7    -0.335519000608E+03   -0.73234E-02   -0.73382E-02  7904   0.233E+00-0.493E-03
CGA:   8    -0.335522100990E+03   -0.31004E-02   -0.30900E-02  7904   0.377E-01 0.433E-03
CGA:   9    -0.335523280580E+03   -0.11796E-02   -0.11809E-02  7904   0.363E-01-0.263E-03
CGA:  10    -0.335524352702E+03   -0.10721E-02   -0.10723E-02  7904   0.361E-01-0.646E-04
CGA:  11    -0.335525621973E+03   -0.12693E-02   -0.12666E-02  7904   0.858E-02 0.294E-03
CGA:  12    -0.335525766722E+03   -0.14475E-03   -0.14469E-03  7904   0.381E-02 0.922E-05
CGA:  13    -0.335526073874E+03   -0.30715E-03   -0.30659E-03  7904   0.126E-01 0.966E-05
CGA:  14    -0.335526279592E+03   -0.20572E-03   -0.20602E-03  7904   0.271E-02 0.823E-05
CGA:  15    -0.335526331604E+03   -0.52011E-04   -0.51849E-04  7904   0.154E-02 0.270E-05
CGA:  16    -0.335526367918E+03   -0.36314E-04   -0.36333E-04  7904   0.961E-03 0.307E-05
CGA:  17    -0.335526456616E+03   -0.88698E-04   -0.88021E-04  7904   0.133E-02 0.112E-04
CGA:  18    -0.335526474871E+03   -0.18255E-04   -0.18304E-04  7904   0.194E-03 0.137E-05
CGA:  19    -0.335526486107E+03   -0.11237E-04   -0.11330E-04  7904   0.469E-03-0.347E-05
CGA:  20    -0.335526501600E+03   -0.15492E-04   -0.15496E-04  7904   0.326E-03-0.436E-05
CGA:  21    -0.335526510736E+03   -0.91360E-05   -0.91296E-05  7904   0.113E-03-0.161E-05
 187 F= -.33552651E+03 E0= -.33549677E+03  d E =-.112922E-02  mag=    32.0000
       N       E                     dE             d eps       ncg     rms          ort
SDA:   1    -0.335479494666E+03    0.47007E-01    0.00000E+00  7904   0.931E+00 0.000E+00
CGA:   2    -0.335490053284E+03   -0.10559E-01   -0.10319E-01  7904   0.189E+00 0.163E-01
CGA:   3    -0.335496064481E+03   -0.60112E-02   -0.60073E-02  7904   0.180E+00 0.778E-02
CGA:   4    -0.335502276379E+03   -0.62119E-02   -0.62107E-02  7904   0.385E+00 0.321E-03
CGA:   5    -0.335517625299E+03   -0.15349E-01   -0.15379E-01  7904   0.964E-01-0.248E-02
CGA:   6    -0.335519426317E+03   -0.18010E-02   -0.18024E-02  7904   0.497E-01-0.335E-04
CGA:   7    -0.335522469093E+03   -0.30428E-02   -0.30335E-02  7904   0.114E+00 0.301E-03
CGA:   8    -0.335524037941E+03   -0.15688E-02   -0.15652E-02  7904   0.143E-01 0.147E-03
CGA:   9    -0.335524608443E+03   -0.57050E-03   -0.56920E-03  7904   0.183E-01 0.107E-03
CGA:  10    -0.335525061485E+03   -0.45304E-03   -0.45328E-03  7904   0.189E-01-0.339E-05
CGA:  11    -0.335525743249E+03   -0.68176E-03   -0.68247E-03  7904   0.488E-02-0.109E-03
CGA:  12    -0.335525799245E+03   -0.55996E-04   -0.55863E-04  7904   0.139E-02-0.266E-06
CGA:  13    -0.335525889352E+03   -0.90107E-04   -0.90036E-04  7904   0.379E-02 0.218E-05
CGA:  14    -0.335526005887E+03   -0.11653E-03   -0.11653E-03  7904   0.148E-02-0.651E-05
CGA:  15    -0.335526032949E+03   -0.27062E-04   -0.27025E-04  7904   0.786E-03-0.259E-05
CGA:  16    -0.335526046777E+03   -0.13828E-04   -0.13756E-04  7904   0.278E-03-0.196E-05
CGA:  17    -0.335526078112E+03   -0.31335E-04   -0.31826E-04  7904   0.109E-02-0.597E-05
CGA:  18    -0.335526092066E+03   -0.13954E-04   -0.13916E-04  7904   0.762E-04-0.173E-05
CGA:  19    -0.335526094232E+03   -0.21662E-05   -0.21732E-05  7904   0.125E-03 0.125E-05
 188 F= -.33552609E+03 E0= -.33549630E+03  d E =0.416504E-03  mag=    32.0000
