       N       E                     dE             d eps       ncg     rms          ort
DAV:   1     0.581923197804E+04    0.58192E+04   -0.23461E+05  7072   0.164E+03
DAV:   2     0.577941214140E+03   -0.52413E+04   -0.49165E+04  7072   0.474E+02
DAV:   3    -0.366670457204E+03   -0.94461E+03   -0.91842E+03  7072   0.205E+02
DAV:   4    -0.411171336933E+03   -0.44501E+02   -0.43179E+02  7072   0.490E+01
DAV:   5    -0.413148622324E+03   -0.19773E+01   -0.19331E+01  7072   0.956E+00
SDA:   6    -0.142365358696E+03    0.27078E+03   -0.19331E+01  7072   0.414E+04 0.000E+00
CGA:   7    -0.176070897581E+03   -0.33706E+02   -0.38669E+03  7072   0.266E+04-0.264E+03
CGA:   8    -0.252223727521E+03   -0.76153E+02   -0.20266E+03  7072   0.665E+03-0.395E+03
CGA:   9    -0.283874507164E+03   -0.31651E+02   -0.32831E+02  7072   0.449E+03 0.246E+03
CGA:  10    -0.299997207811E+03   -0.16123E+02   -0.27564E+02  7072   0.127E+04-0.100E+04
CGA:  11    -0.253060615808E+03    0.46937E+02   -0.87018E+02  7072   0.237E+04-0.668E+03
CGA:  12    -0.233379952854E+03    0.19681E+02   -0.17088E+03  7072   0.544E+03-0.301E+03
CGA:  13    -0.300736994036E+03   -0.67357E+02   -0.27389E+02  7072   0.852E+03-0.111E+04
CGA:  14    -0.313119186296E+03   -0.12382E+02   -0.41877E+02  7072   0.933E+03-0.116E+04
CGA:  15    -0.293641969967E+03    0.19477E+02   -0.54053E+02  7072   0.822E+03-0.562E+03
CGA:  16    -0.303741153904E+03   -0.10099E+02   -0.34593E+02  7072   0.247E+04-0.231E+04
CGA:  17    -0.288772519415E+03    0.14969E+02   -0.15953E+03  7072   0.857E+03-0.606E+03
CGA:  18    -0.322804259177E+03   -0.34032E+02   -0.23911E+02  7072   0.787E+03-0.118E+03
CGA:  19    -0.281733412296E+03    0.41071E+02   -0.23841E+02  7072   0.244E+04-0.805E+03
CGA:  20    -0.221780064890E+03    0.59953E+02   -0.13742E+03  7072   0.933E+03-0.347E+03
CGA:  21    -0.255459076393E+03   -0.33679E+02   -0.53803E+02  7072   0.563E+03-0.154E+03
CGA:  22    -0.307301257209E+03   -0.51842E+02   -0.20904E+02  7072   0.711E+03-0.528E+03
CGA:  23    -0.307450992870E+03   -0.14974E+00   -0.27786E+02  7072   0.226E+04-0.185E+04
CGA:  24    -0.267439880566E+03    0.40011E+02   -0.10289E+03  7072   0.281E+04-0.995E+03
CGA:  25    -0.239327480535E+03    0.28112E+02   -0.76140E+02  7072   0.107E+04-0.608E+03
CGA:  26    -0.254429836934E+03   -0.15102E+02   -0.41768E+02  7072   0.379E+03-0.131E+03
CGA:  27    -0.323369458339E+03   -0.68940E+02   -0.85398E+01  7072   0.332E+03-0.646E+03
CGA:  28    -0.329509633337E+03   -0.61402E+01   -0.82978E+01  7072   0.815E+03-0.554E+03
CGA:  29    -0.295008043544E+03    0.34502E+02   -0.29085E+02  7072   0.140E+04-0.566E+03
CGA:  30    -0.264773172163E+03    0.30235E+02   -0.47046E+02  7072   0.199E+04-0.130E+04
CGA:  31    -0.261566181200E+03    0.32070E+01   -0.77149E+02  7072   0.309E+04-0.192E+04
CGA:  32    -0.276282380883E+03   -0.14716E+02   -0.12998E+03  7072   0.125E+04-0.122E+03
CGA:  33    -0.296514160640E+03   -0.20232E+02   -0.40687E+02  7072   0.853E+03-0.472E+03
CGA:  34    -0.299712659161E+03   -0.31985E+01   -0.13735E+02  7072   0.134E+04-0.185E+03
CGA:  35    -0.269259342074E+03    0.30453E+02   -0.34583E+02  7072   0.116E+04-0.115E+03
CGA:  36    -0.302108350870E+03   -0.32849E+02   -0.32831E+02  7072   0.182E+04-0.197E+04
CGA:  37    -0.295986208690E+03    0.61221E+01   -0.56556E+02  7072   0.164E+04-0.132E+04
CGA:  38    -0.310215695253E+03   -0.14229E+02   -0.45867E+02  7072   0.226E+04-0.259E+04
CGA:  39    -0.303977060227E+03    0.62386E+01   -0.68808E+02  7072   0.164E+04-0.150E+04
CGA:  40    -0.324890325619E+03   -0.20913E+02   -0.41877E+02  7072   0.141E+04-0.231E+04
CGA:  41    -0.326543329519E+03   -0.16530E+01   -0.36185E+02  7072   0.748E+03-0.865E+03
CGA:  42    -0.331755267431E+03   -0.52119E+01   -0.15884E+02  7072   0.132E+04-0.164E+04
CGA:  43    -0.326737672686E+03    0.50176E+01   -0.31697E+02  7072   0.924E+03-0.781E+03
CGA:  44    -0.330404451942E+03   -0.36668E+01   -0.18192E+02  7072   0.162E+04-0.179E+04
CGA:  45    -0.325956376109E+03    0.44481E+01   -0.37514E+02  7072   0.110E+04-0.901E+03
CGA:  46    -0.337633650583E+03   -0.11677E+02   -0.19580E+02  7072   0.694E+03-0.127E+04
CGA:  47    -0.338230971809E+03   -0.59732E+00   -0.12288E+02  7072   0.307E+03-0.332E+03
CGA:  48    -0.341628389700E+03   -0.33974E+01   -0.15205E+01  7072   0.162E+03 0.172E+03
CGA:  49    -0.343072533432E+03   -0.14441E+01   -0.13859E+01  7072   0.554E+01-0.185E+02
CGA:  50    -0.343140787888E+03   -0.68254E-01   -0.71987E-01  7072   0.227E+01-0.205E+00
CGA:  51    -0.343308991984E+03   -0.16820E+00   -0.16609E+00  7072   0.140E+02 0.718E-01
CGA:  52    -0.343831133087E+03   -0.52214E+00   -0.51198E+00  7072   0.648E+01-0.314E+00
CGA:  53    -0.344063903741E+03   -0.23277E+00   -0.24799E+00  7072   0.472E+01 0.538E+00
CGA:  54    -0.344220159479E+03   -0.15626E+00   -0.16450E+00  7072   0.333E+01 0.192E-01
CGA:  55    -0.344329496732E+03   -0.10934E+00   -0.11547E+00  7072   0.113E+01 0.802E-01
CGA:  56    -0.344407152298E+03   -0.77656E-01   -0.76980E-01  7072   0.128E+01 0.256E-01
CGA:  57    -0.344468395709E+03   -0.61243E-01   -0.61301E-01  7072   0.118E+01 0.531E-01
CGA:  58    -0.344542968544E+03   -0.74573E-01   -0.73277E-01  7072   0.842E+00 0.738E-01
CGA:  59    -0.344592266037E+03   -0.49297E-01   -0.49281E-01  7072   0.650E+00 0.161E-02
CGA:  60    -0.344620688472E+03   -0.28422E-01   -0.28344E-01  7072   0.343E+00-0.620E-02
CGA:  61    -0.344635226234E+03   -0.14538E-01   -0.14591E-01  7072   0.183E+00 0.430E-02
CGA:  62    -0.344663192594E+03   -0.27966E-01   -0.32575E-01  7072   0.741E+00-0.461E-01
CGA:  63    -0.344682886057E+03   -0.19693E-01   -0.19719E-01  7072   0.272E+00 0.482E-02
CGA:  64    -0.344689814226E+03   -0.69282E-02   -0.66789E-02  7072   0.127E+00 0.564E-02
CGA:  65    -0.344694581710E+03   -0.47675E-02   -0.47534E-02  7072   0.133E+00-0.224E-03
CGA:  66    -0.344701543096E+03   -0.69614E-02   -0.69648E-02  7072   0.174E+00-0.171E-02
CGA:  67    -0.344706596631E+03   -0.50535E-02   -0.51198E-02  7072   0.120E+00-0.947E-03
CGA:  68    -0.344711202457E+03   -0.46058E-02   -0.46126E-02  7072   0.872E-01-0.175E-03
CGA:  69    -0.344713870197E+03   -0.26677E-02   -0.26592E-02  7072   0.698E-01-0.185E-03
CGA:  70    -0.344716661215E+03   -0.27910E-02   -0.27707E-02  7072   0.420E-01-0.746E-03
CGA:  71    -0.344717853624E+03   -0.11924E-02   -0.11881E-02  7072   0.429E-01-0.182E-04
CGA:  72    -0.344721192980E+03   -0.33394E-02   -0.33397E-02  7072   0.804E-01-0.425E-04
CGA:  73    -0.344723072798E+03   -0.18798E-02   -0.18245E-02  7072   0.382E-01 0.141E-02
CGA:  74    -0.344724722021E+03   -0.16492E-02   -0.16448E-02  7072   0.466E-01-0.305E-03
CGA:  75    -0.344725919210E+03   -0.11972E-02   -0.12110E-02  7072   0.249E-01-0.150E-03
CGA:  76    -0.344726631275E+03   -0.71207E-03   -0.71817E-03  7072   0.175E-01 0.568E-05
CGA:  77    -0.344727234827E+03   -0.60355E-03   -0.60422E-03  7072   0.201E-01 0.392E-04
CGA:  78    -0.344728046629E+03   -0.81180E-03   -0.80936E-03  7072   0.211E-01-0.176E-03
SDA:  79    -0.344728774291E+03   -0.72766E-03   -0.72668E-03  7072   0.270E-01 0.190E-04
CGA:  80    -0.344729450426E+03   -0.67613E-03   -0.67860E-03  7072   0.101E-01-0.227E-04
CGA:  81    -0.344729973703E+03   -0.52328E-03   -0.52327E-03  7072   0.700E-02 0.598E-05
CGA:  82    -0.344730311372E+03   -0.33767E-03   -0.33777E-03  7072   0.765E-02-0.570E-05
CGA:  83    -0.344731052906E+03   -0.74153E-03   -0.74138E-03  7072   0.828E-02-0.233E-05
CGA:  84    -0.344732036722E+03   -0.98382E-03   -0.97953E-03  7072   0.428E-02 0.524E-04
CGA:  85    -0.344732337114E+03   -0.30039E-03   -0.29996E-03  7072   0.269E-02 0.249E-04
CGA:  86    -0.344732454399E+03   -0.11729E-03   -0.11751E-03  7072   0.281E-02 0.224E-04
CGA:  87    -0.344732606718E+03   -0.15232E-03   -0.15232E-03  7072   0.218E-02 0.108E-04
CGA:  88    -0.344732739121E+03   -0.13240E-03   -0.13254E-03  7072   0.175E-02-0.412E-05
CGA:  89    -0.344732831361E+03   -0.92240E-04   -0.92238E-04  7072   0.124E-02 0.456E-05
CGA:  90    -0.344732890709E+03   -0.59348E-04   -0.59362E-04  7072   0.423E-03 0.309E-05
CGA:  91    -0.344733028726E+03   -0.13802E-03   -0.53496E-05  7072   0.528E-03-0.279E-04
CGA:  92    -0.344733044997E+03   -0.16271E-04   -0.15930E-04  7072   0.325E-03 0.120E-05
CGA:  93    -0.344733071601E+03   -0.26605E-04   -0.26567E-04  7072   0.557E-03-0.538E-05
CGA:  94    -0.344733100799E+03   -0.29198E-04   -0.27811E-04  7072   0.714E-03 0.305E-05
CGA:  95    -0.344733138926E+03   -0.38127E-04   -0.37051E-04  7072   0.385E-03-0.753E-06
CGA:  96    -0.344733162120E+03   -0.23193E-04   -0.23055E-04  7072   0.523E-03-0.393E-05
CGA:  97    -0.344733175593E+03   -0.13473E-04   -0.12241E-04  7072   0.156E-03 0.396E-04
CGA:  98    -0.344733184362E+03   -0.87693E-05   -0.87462E-05  7072   0.306E-03 0.752E-06
CGA:  99    -0.344733196748E+03   -0.12386E-04   -0.12384E-04  7072   0.318E-03 0.346E-05
CGA: 100    -0.344733208802E+03   -0.12055E-04   -0.11807E-04  7072   0.329E-03 0.766E-05
CGA: 101    -0.344733218693E+03   -0.98906E-05   -0.94725E-05  7072   0.210E-03 0.146E-04
   1 F= -.34473322E+03 E0= -.34471551E+03  d E =-.344733E+03  mag=     8.0000
       N       E                     dE             d eps       ncg     rms          ort
SDA:   1    -0.344899906154E+03   -0.16670E+00    0.00000E+00  7072   0.223E+00 0.000E+00
CGA:   2    -0.344904469154E+03   -0.45630E-02   -0.45526E-02  7072   0.437E-01 0.263E-03
CGA:   3    -0.344906624903E+03   -0.21557E-02   -0.21537E-02  7072   0.453E-01-0.418E-05
CGA:   4    -0.344909144339E+03   -0.25194E-02   -0.25229E-02  7072   0.408E-01 0.101E-03
CGA:   5    -0.344910777531E+03   -0.16332E-02   -0.16330E-02  7072   0.103E-01 0.159E-04
CGA:   6    -0.344911540467E+03   -0.76294E-03   -0.76311E-03  7072   0.692E-02-0.149E-04
CGA:   7    -0.344912086613E+03   -0.54615E-03   -0.54622E-03  7072   0.369E-02-0.684E-05
CGA:   8    -0.344912298357E+03   -0.21174E-03   -0.21167E-03  7072   0.490E-02-0.720E-05
CGA:   9    -0.344912444411E+03   -0.14605E-03   -0.14594E-03  7072   0.983E-03-0.753E-05
CGA:  10    -0.344912509577E+03   -0.65167E-04   -0.65168E-04  7072   0.470E-03-0.687E-06
CGA:  11    -0.344912541769E+03   -0.32192E-04   -0.32200E-04  7072   0.657E-03-0.211E-05
CGA:  12    -0.344912571979E+03   -0.30210E-04   -0.30143E-04  7072   0.253E-03-0.317E-05
CGA:  13    -0.344912584752E+03   -0.12773E-04   -0.12758E-04  7072   0.196E-03-0.110E-05
CGA:  14    -0.344912591800E+03   -0.70483E-05   -0.70433E-05  7072   0.149E-03-0.209E-06
CGA:  15    -0.344912601845E+03   -0.10045E-04   -0.10045E-04  7072   0.102E-03 0.716E-07
CGA:  16    -0.344912614930E+03   -0.13085E-04   -0.13037E-04  7072   0.629E-04 0.733E-06
CGA:  17    -0.344912618377E+03   -0.34461E-05   -0.34480E-05  7072   0.707E-04 0.197E-06
   2 F= -.34491262E+03 E0= -.34489507E+03  d E =-.179400E+00  mag=     8.0000
       N       E                     dE             d eps       ncg     rms          ort
SDA:   1    -0.342906469856E+03    0.20061E+01    0.00000E+00  7072   0.174E+02 0.000E+00
CGA:   2    -0.345635840571E+03   -0.27294E+01   -0.26651E+01  7072   0.311E+02 0.702E+00
CGA:   3    -0.346691139384E+03   -0.10553E+01   -0.11686E+01  7072   0.166E+02-0.166E+01
CGA:   4    -0.347107170656E+03   -0.41603E+00   -0.44194E+00  7072   0.646E+01-0.551E+00
CGA:   5    -0.347596705288E+03   -0.48953E+00   -0.50000E+00  7072   0.514E+01-0.529E+00
CGA:   6    -0.347800414082E+03   -0.20371E+00   -0.19974E+00  7072   0.544E+01-0.818E-02
CGA:   7    -0.347994856502E+03   -0.19444E+00   -0.20654E+00  7072   0.220E+01-0.842E-01
CGA:   8    -0.348046877736E+03   -0.52021E-01   -0.56861E-01  7072   0.830E+00-0.121E+00
CGA:   9    -0.348088857873E+03   -0.41980E-01   -0.41612E-01  7072   0.618E+00-0.156E-01
CGA:  10    -0.348113497158E+03   -0.24639E-01   -0.24819E-01  7072   0.649E+00-0.872E-04
CGA:  11    -0.348137298625E+03   -0.23801E-01   -0.24083E-01  7072   0.255E+00-0.175E-02
CGA:  12    -0.348151862476E+03   -0.14564E-01   -0.14566E-01  7072   0.129E+00 0.712E-03
CGA:  13    -0.348155780225E+03   -0.39177E-02   -0.39277E-02  7072   0.113E+00-0.188E-03
CGA:  14    -0.348163463406E+03   -0.76832E-02   -0.76540E-02  7072   0.834E-01 0.176E-02
CGA:  15    -0.348169587123E+03   -0.61237E-02   -0.61205E-02  7072   0.931E-01 0.154E-03
CGA:  16    -0.348172150747E+03   -0.25636E-02   -0.25682E-02  7072   0.456E-01-0.950E-04
CGA:  17    -0.348174476965E+03   -0.23262E-02   -0.23316E-02  7072   0.243E-01 0.365E-03
CGA:  18    -0.348176661222E+03   -0.21843E-02   -0.21733E-02  7072   0.544E-01 0.305E-03
CGA:  19    -0.348178828766E+03   -0.21675E-02   -0.21647E-02  7072   0.230E-01 0.135E-04
CGA:  20    -0.348179695475E+03   -0.86671E-03   -0.86913E-03  7072   0.172E-01 0.147E-04
CGA:  21    -0.348180408160E+03   -0.71268E-03   -0.71355E-03  7072   0.970E-02 0.248E-04
CGA:  22    -0.348181200296E+03   -0.79214E-03   -0.79080E-03  7072   0.915E-02 0.455E-04
CGA:  23    -0.348181651933E+03   -0.45164E-03   -0.45195E-03  7072   0.135E-01 0.229E-04
CGA:  24    -0.348182177664E+03   -0.52573E-03   -0.52661E-03  7072   0.270E-02 0.227E-04
CGA:  25    -0.348182409012E+03   -0.23135E-03   -0.23089E-03  7072   0.353E-02 0.148E-04
CGA:  26    -0.348182556219E+03   -0.14721E-03   -0.14744E-03  7072   0.349E-02 0.115E-04
CGA:  27    -0.348182700998E+03   -0.14478E-03   -0.14501E-03  7072   0.160E-02 0.127E-04
CGA:  28    -0.348182802333E+03   -0.10134E-03   -0.10130E-03  7072   0.155E-02 0.615E-05
CGA:  29    -0.348182856183E+03   -0.53850E-04   -0.54002E-04  7072   0.580E-03 0.373E-05
CGA:  30    -0.348182907141E+03   -0.50958E-04   -0.50799E-04  7072   0.131E-02 0.489E-05
CGA:  31    -0.348182950860E+03   -0.43719E-04   -0.43785E-04  7072   0.521E-03 0.229E-05
SDA:  32    -0.348182982605E+03   -0.31745E-04   -0.31758E-04  7072   0.220E-03-0.220E-05
CGA:  33    -0.348182992116E+03   -0.95108E-05   -0.95048E-05  7072   0.132E-03-0.539E-06
CGA:  34    -0.348183003484E+03   -0.11368E-04   -0.11442E-04  7072   0.361E-03-0.235E-05
CGA:  35    -0.348183023634E+03   -0.20150E-04   -0.20151E-04  7072   0.231E-03-0.575E-05
CGA:  36    -0.348183032728E+03   -0.90943E-05   -0.90533E-05  7072   0.180E-03-0.244E-05
   3 F= -.34818303E+03 E0= -.34816538E+03  d E =-.327041E+01  mag=     8.0000
       N       E                     dE             d eps       ncg     rms          ort
SDA:   1    -0.337729401958E+03    0.10454E+02    0.00000E+00  7072   0.641E+02 0.000E+00
CGA:   2    -0.340487882366E+03   -0.27585E+01   -0.28851E+01  7072   0.802E+02 0.240E+01
CGA:   3    -0.344789531687E+03   -0.43016E+01   -0.42156E+01  7072   0.647E+02-0.852E+01
CGA:   4    -0.347538459929E+03   -0.27489E+01   -0.26695E+01  7072   0.429E+02-0.209E+01
CGA:   5    -0.348656668605E+03   -0.11182E+01   -0.84032E+00  7072   0.611E+01 0.871E+01
CGA:   6    -0.349189898894E+03   -0.53323E+00   -0.53868E+00  7072   0.113E+02-0.163E+00
CGA:   7    -0.349981734776E+03   -0.79184E+00   -0.79209E+00  7072   0.904E+01-0.162E-01
CGA:   8    -0.350216496041E+03   -0.23476E+00   -0.22321E+00  7072   0.197E+01 0.298E+00
CGA:   9    -0.350304521813E+03   -0.88026E-01   -0.88878E-01  7072   0.165E+01 0.271E-01
CGA:  10    -0.350396482520E+03   -0.91961E-01   -0.92016E-01  7072   0.129E+01-0.129E-01
CGA:  11    -0.350455419212E+03   -0.58937E-01   -0.58607E-01  7072   0.136E+01-0.183E-01
CGA:  12    -0.350509059634E+03   -0.53640E-01   -0.54489E-01  7072   0.667E+00 0.174E-01
CGA:  13    -0.350529365336E+03   -0.20306E-01   -0.20607E-01  7072   0.226E+00-0.296E-02
CGA:  14    -0.350542784471E+03   -0.13419E-01   -0.13329E-01  7072   0.426E+00 0.660E-02
CGA:  15    -0.350573796377E+03   -0.31012E-01   -0.30887E-01  7072   0.366E+00 0.366E-02
CGA:  16    -0.350583201428E+03   -0.94051E-02   -0.96958E-02  7072   0.975E-01-0.501E-02
CGA:  17    -0.350587770460E+03   -0.45690E-02   -0.45676E-02  7072   0.826E-01-0.202E-03
CGA:  18    -0.350595270973E+03   -0.75005E-02   -0.74296E-02  7072   0.105E+00 0.163E-02
CGA:  19    -0.350599433103E+03   -0.41621E-02   -0.41801E-02  7072   0.630E-01 0.272E-03
CGA:  20    -0.350601999890E+03   -0.25668E-02   -0.25788E-02  7072   0.343E-01 0.301E-03
CGA:  21    -0.350603669982E+03   -0.16701E-02   -0.16699E-02  7072   0.226E-01-0.508E-05
CGA:  22    -0.350604853646E+03   -0.11837E-02   -0.11834E-02  7072   0.227E-01 0.102E-03
CGA:  23    -0.350606600484E+03   -0.17468E-02   -0.17445E-02  7072   0.249E-01 0.828E-04
CGA:  24    -0.350607503054E+03   -0.90257E-03   -0.90546E-03  7072   0.123E-01 0.360E-04
CGA:  25    -0.350608024053E+03   -0.52100E-03   -0.52138E-03  7072   0.693E-02 0.266E-04
CGA:  26    -0.350608609276E+03   -0.58522E-03   -0.58422E-03  7072   0.106E-01 0.300E-04
CGA:  27    -0.350609144742E+03   -0.53547E-03   -0.53545E-03  7072   0.822E-02 0.264E-05
CGA:  28    -0.350609512228E+03   -0.36749E-03   -0.36773E-03  7072   0.511E-02 0.151E-04
CGA:  29    -0.350609766647E+03   -0.25442E-03   -0.25448E-03  7072   0.390E-02 0.171E-04
CGA:  30    -0.350609943939E+03   -0.17729E-03   -0.17740E-03  7072   0.204E-02 0.115E-04
CGA:  31    -0.350610117636E+03   -0.17370E-03   -0.17337E-03  7072   0.396E-02 0.927E-05
SDA:  32    -0.350610311686E+03   -0.19405E-03   -0.19403E-03  7072   0.257E-02-0.158E-05
CGA:  33    -0.350610375206E+03   -0.63520E-04   -0.63395E-04  7072   0.106E-02-0.262E-05
CGA:  34    -0.350610421041E+03   -0.45835E-04   -0.45782E-04  7072   0.454E-03-0.608E-05
CGA:  35    -0.350610503375E+03   -0.82334E-04   -0.84004E-04  7072   0.139E-02-0.123E-04
CGA:  36    -0.350610553522E+03   -0.50147E-04   -0.49946E-04  7072   0.519E-03-0.663E-05
CGA:  37    -0.350610578381E+03   -0.24859E-04   -0.24836E-04  7072   0.211E-03-0.263E-05
CGA:  38    -0.350610600839E+03   -0.22458E-04   -0.22571E-04  7072   0.513E-03-0.225E-05
CGA:  39    -0.350610618135E+03   -0.17296E-04   -0.17275E-04  7072   0.287E-03-0.122E-05
CGA:  40    -0.350610647290E+03   -0.29155E-04   -0.29136E-04  7072   0.253E-03 0.370E-06
CGA:  41    -0.350610660580E+03   -0.13290E-04   -0.13285E-04  7072   0.212E-03-0.794E-06
CGA:  42    -0.350610670988E+03   -0.10408E-04   -0.10388E-04  7072   0.172E-03-0.174E-05
CGA:  43    -0.350610692060E+03   -0.21072E-04   -0.21238E-04  7072   0.227E-03-0.257E-05
CGA:  44    -0.350610713710E+03   -0.21649E-04   -0.21602E-04  7072   0.316E-03 0.114E-05
CGA:  45    -0.350610721236E+03   -0.75268E-05   -0.75182E-05  7072   0.707E-04 0.501E-06
CGA:  46    -0.350610732096E+03   -0.10860E-04   -0.10711E-04  7072   0.198E-03 0.164E-05
CGA:  47    -0.350610740588E+03   -0.84919E-05   -0.85431E-05  7072   0.128E-03 0.189E-05
CGA:  48    -0.350610750781E+03   -0.10193E-04   -0.10152E-04  7072   0.630E-04 0.310E-05
CGA:  49    -0.350610754141E+03   -0.33593E-05   -0.33728E-05  7072   0.315E-04 0.935E-06
   4 F= -.35061075E+03 E0= -.35059326E+03  d E =-.242772E+01  mag=     8.0000
       N       E                     dE             d eps       ncg     rms          ort
SDA:   1    -0.338391468701E+03    0.12219E+02    0.00000E+00  7072   0.694E+02 0.000E+00
CGA:   2    -0.341236385416E+03   -0.28449E+01   -0.28809E+01  7072   0.775E+02-0.525E+01
CGA:   3    -0.345118011066E+03   -0.38816E+01   -0.35622E+01  7072   0.540E+02-0.253E+01
CGA:   4    -0.348611459314E+03   -0.34934E+01   -0.36017E+01  7072   0.801E+02-0.130E+02
CGA:   5    -0.349028315064E+03   -0.41686E+00   -0.11740E+01  7072   0.706E+02-0.348E+02
CGA:   6    -0.349515574224E+03   -0.48726E+00   -0.49799E+00  7072   0.431E+02-0.748E+00
CGA:   7    -0.349972224364E+03   -0.45665E+00   -0.46780E+00  7072   0.221E+02-0.260E+01
CGA:   8    -0.350345377962E+03   -0.37315E+00   -0.34584E+00  7072   0.202E+02 0.148E+01
CGA:   9    -0.350571926114E+03   -0.22655E+00   -0.22419E+00  7072   0.109E+02-0.427E+00
CGA:  10    -0.350750522781E+03   -0.17860E+00   -0.20447E+00  7072   0.174E+02-0.949E+00
CGA:  11    -0.350971651121E+03   -0.22113E+00   -0.23123E+00  7072   0.111E+02-0.559E+00
CGA:  12    -0.351129368066E+03   -0.15772E+00   -0.16749E+00  7072   0.137E+02-0.507E+00
CGA:  13    -0.351378995562E+03   -0.24963E+00   -0.24385E+00  7072   0.928E+01 0.134E+00
CGA:  14    -0.351461000810E+03   -0.82005E-01   -0.90125E-01  7072   0.264E+01-0.776E+00
CGA:  15    -0.351502186468E+03   -0.41186E-01   -0.39643E-01  7072   0.249E+01 0.734E-01
CGA:  16    -0.351543603920E+03   -0.41417E-01   -0.41746E-01  7072   0.199E+01-0.260E-01
CGA:  17    -0.351578701762E+03   -0.35098E-01   -0.38171E-01  7072   0.186E+01-0.980E-01
CGA:  18    -0.351614537641E+03   -0.35836E-01   -0.38102E-01  7072   0.229E+01-0.387E-01
CGA:  19    -0.351676021950E+03   -0.61484E-01   -0.58014E-01  7072   0.245E+01-0.441E-03
CGA:  20    -0.351713157954E+03   -0.37136E-01   -0.41890E-01  7072   0.150E+01-0.159E+00
CGA:  21    -0.351738338093E+03   -0.25180E-01   -0.28841E-01  7072   0.791E+00-0.562E-01
CGA:  22    -0.351753848681E+03   -0.15511E-01   -0.16630E-01  7072   0.397E+00-0.111E-01
CGA:  23    -0.351768074382E+03   -0.14226E-01   -0.14220E-01  7072   0.232E+00 0.109E-01
CGA:  24    -0.351776021359E+03   -0.79470E-02   -0.79645E-02  7072   0.279E+00 0.275E-02
CGA:  25    -0.351791024379E+03   -0.15003E-01   -0.15038E-01  7072   0.224E+00-0.149E-02
CGA:  26    -0.351799430492E+03   -0.84061E-02   -0.83976E-02  7072   0.139E+00 0.490E-02
CGA:  27    -0.351803453765E+03   -0.40233E-02   -0.40558E-02  7072   0.616E-01 0.885E-03
CGA:  28    -0.351806234104E+03   -0.27803E-02   -0.27721E-02  7072   0.352E-01 0.682E-03
CGA:  29    -0.351808160778E+03   -0.19267E-02   -0.19178E-02  7072   0.522E-01 0.428E-03
CGA:  30    -0.351811138374E+03   -0.29776E-02   -0.29554E-02  7072   0.389E-01 0.991E-03
CGA:  31    -0.351812426647E+03   -0.12883E-02   -0.12889E-02  7072   0.183E-01 0.558E-04
SDA:  32    -0.351813257076E+03   -0.83043E-03   -0.82791E-03  7072   0.113E-01 0.255E-03
CGA:  33    -0.351813754463E+03   -0.49739E-03   -0.49739E-03  7072   0.589E-02 0.166E-06
CGA:  34    -0.351814398592E+03   -0.64413E-03   -0.63956E-03  7072   0.183E-01 0.715E-04
CGA:  35    -0.351815286751E+03   -0.88816E-03   -0.88774E-03  7072   0.388E-02 0.565E-04
CGA:  36    -0.351815425864E+03   -0.13911E-03   -0.13917E-03  7072   0.415E-02 0.676E-05
CGA:  37    -0.351816190486E+03   -0.76462E-03   -0.75760E-03  7072   0.376E-02 0.520E-04
CGA:  38    -0.351816526757E+03   -0.33627E-03   -0.33579E-03  7072   0.318E-02 0.126E-04
CGA:  39    -0.351816676748E+03   -0.14999E-03   -0.15002E-03  7072   0.321E-02 0.654E-05
CGA:  40    -0.351816898811E+03   -0.22206E-03   -0.22174E-03  7072   0.413E-02 0.147E-04
CGA:  41    -0.351817151739E+03   -0.25293E-03   -0.25303E-03  7072   0.359E-02-0.732E-05
CGA:  42    -0.351817273641E+03   -0.12190E-03   -0.12222E-03  7072   0.101E-02-0.147E-05
CGA:  43    -0.351817348204E+03   -0.74563E-04   -0.74513E-04  7072   0.554E-03 0.197E-05
CGA:  44    -0.351817429474E+03   -0.81271E-04   -0.80284E-04  7072   0.787E-03 0.109E-04
CGA:  45    -0.351817463441E+03   -0.33967E-04   -0.33981E-04  7072   0.766E-03 0.129E-05
CGA:  46    -0.351817502483E+03   -0.39042E-04   -0.39039E-04  7072   0.296E-03-0.837E-06
CGA:  47    -0.351817518492E+03   -0.16009E-04   -0.16007E-04  7072   0.330E-03-0.115E-05
CGA:  48    -0.351817538280E+03   -0.19788E-04   -0.19800E-04  7072   0.224E-03-0.287E-05
CGA:  49    -0.351817556903E+03   -0.18623E-04   -0.18720E-04  7072   0.164E-03-0.358E-05
CGA:  50    -0.351817570484E+03   -0.13581E-04   -0.13673E-04  7072   0.119E-03-0.350E-05
CGA:  51    -0.351817575002E+03   -0.45178E-05   -0.45061E-05  7072   0.129E-03-0.531E-06
CGA:  52    -0.351817591342E+03   -0.16340E-04   -0.16275E-04  7072   0.158E-03 0.924E-06
CGA:  53    -0.351817596706E+03   -0.53643E-05   -0.53712E-05  7072   0.688E-04 0.465E-06
   5 F= -.35181760E+03 E0= -.35180068E+03  d E =-.120684E+01  mag=     8.0000
       N       E                     dE             d eps       ncg     rms          ort
SDA:   1    -0.324387584159E+03    0.27430E+02    0.00000E+00  7072   0.131E+03 0.000E+00
CGA:   2    -0.331248449210E+03   -0.68609E+01   -0.55973E+01  7072   0.127E+03-0.800E+01
CGA:   3    -0.337954601117E+03   -0.67062E+01   -0.67342E+01  7072   0.197E+03 0.291E+01
CGA:   4    -0.339820779994E+03   -0.18662E+01   -0.35908E+01  7072   0.281E+03-0.115E+03
CGA:   5    -0.343959553346E+03   -0.41388E+01   -0.53129E+01  7072   0.171E+03-0.928E+02
CGA:   6    -0.346634676535E+03   -0.26751E+01   -0.33436E+01  7072   0.495E+02-0.295E+02
CGA:   7    -0.347847370079E+03   -0.12127E+01   -0.13100E+01  7072   0.428E+02-0.144E+01
CGA:   8    -0.348895519044E+03   -0.10481E+01   -0.11801E+01  7072   0.524E+02-0.280E+01
CGA:   9    -0.350587018584E+03   -0.16915E+01   -0.17075E+01  7072   0.198E+02 0.198E-01
CGA:  10    -0.351380833023E+03   -0.79381E+00   -0.80800E+00  7072   0.305E+02 0.364E+00
CGA:  11    -0.352142360359E+03   -0.76153E+00   -0.87222E+00  7072   0.829E+01-0.132E+01
CGA:  12    -0.352363842339E+03   -0.22148E+00   -0.20706E+00  7072   0.338E+01 0.281E+00
CGA:  13    -0.352560190034E+03   -0.19635E+00   -0.19480E+00  7072   0.130E+01 0.137E+00
CGA:  14    -0.352611497505E+03   -0.51307E-01   -0.51993E-01  7072   0.131E+01 0.155E-01
CGA:  15    -0.352690550201E+03   -0.79053E-01   -0.78296E-01  7072   0.108E+01 0.466E-01
CGA:  16    -0.352730128265E+03   -0.39578E-01   -0.39961E-01  7072   0.614E+00 0.336E-02
CGA:  17    -0.352756604403E+03   -0.26476E-01   -0.26665E-01  7072   0.427E+00 0.151E-01
CGA:  18    -0.352778171130E+03   -0.21567E-01   -0.21559E-01  7072   0.158E+00 0.302E-02
CGA:  19    -0.352795184213E+03   -0.17013E-01   -0.16619E-01  7072   0.220E+00 0.699E-02
CGA:  20    -0.352803102239E+03   -0.79180E-02   -0.79934E-02  7072   0.135E+00 0.135E-03
CGA:  21    -0.352810008404E+03   -0.69062E-02   -0.69048E-02  7072   0.735E-01 0.647E-03
CGA:  22    -0.352815219825E+03   -0.52114E-02   -0.52001E-02  7072   0.630E-01 0.456E-03
CGA:  23    -0.352818206009E+03   -0.29862E-02   -0.29899E-02  7072   0.497E-01 0.418E-03
CGA:  24    -0.352822172381E+03   -0.39664E-02   -0.39531E-02  7072   0.326E-01 0.403E-03
CGA:  25    -0.352823469609E+03   -0.12972E-02   -0.12978E-02  7072   0.235E-01 0.256E-04
CGA:  26    -0.352824705511E+03   -0.12359E-02   -0.12357E-02  7072   0.129E-01 0.133E-03
CGA:  27    -0.352825642919E+03   -0.93741E-03   -0.93517E-03  7072   0.945E-02 0.930E-04
CGA:  28    -0.352826522368E+03   -0.87945E-03   -0.87677E-03  7072   0.128E-01 0.644E-04
CGA:  29    -0.352826948875E+03   -0.42651E-03   -0.42662E-03  7072   0.588E-02 0.142E-04
CGA:  30    -0.352827476881E+03   -0.52801E-03   -0.52865E-03  7072   0.415E-02-0.148E-04
CGA:  31    -0.352827816221E+03   -0.33934E-03   -0.33922E-03  7072   0.494E-02 0.573E-05
CGA:  32    -0.352828071308E+03   -0.25509E-03   -0.25526E-03  7072   0.468E-02 0.158E-04
CGA:  33    -0.352828286079E+03   -0.21477E-03   -0.21484E-03  7072   0.184E-02 0.415E-05
CGA:  34    -0.352828467731E+03   -0.18165E-03   -0.18194E-03  7072   0.159E-02-0.605E-05
SDA:  35    -0.352828543645E+03   -0.75914E-04   -0.75844E-04  7072   0.168E-02-0.120E-05
CGA:  36    -0.352828581648E+03   -0.38003E-04   -0.37926E-04  7072   0.468E-03-0.163E-05
CGA:  37    -0.352828614725E+03   -0.33076E-04   -0.33154E-04  7072   0.475E-03-0.526E-05
CGA:  38    -0.352828696402E+03   -0.81677E-04   -0.82570E-04  7072   0.169E-02-0.754E-05
CGA:  39    -0.352828777016E+03   -0.80615E-04   -0.80399E-04  7072   0.478E-03-0.807E-05
CGA:  40    -0.352828803651E+03   -0.26635E-04   -0.26628E-04  7072   0.257E-03-0.157E-05
CGA:  41    -0.352828833395E+03   -0.29744E-04   -0.29854E-04  7072   0.532E-03-0.208E-05
CGA:  42    -0.352828853011E+03   -0.19616E-04   -0.19595E-04  7072   0.308E-03-0.169E-05
CGA:  43    -0.352828873886E+03   -0.20876E-04   -0.20887E-04  7072   0.915E-04-0.187E-05
CGA:  44    -0.352828880666E+03   -0.67793E-05   -0.67731E-05  7072   0.111E-03 0.424E-06
   6 F= -.35282888E+03 E0= -.35281292E+03  d E =-.101128E+01  mag=     8.0000
       N       E                     dE             d eps       ncg     rms          ort
SDA:   1    -0.327982192826E+03    0.24847E+02    0.00000E+00  7072   0.120E+03 0.000E+00
CGA:   2    -0.333736882925E+03   -0.57547E+01   -0.47900E+01  7072   0.997E+02 0.684E+00
CGA:   3    -0.340832852533E+03   -0.70960E+01   -0.73838E+01  7072   0.155E+03-0.187E+02
CGA:   4    -0.345494565340E+03   -0.46617E+01   -0.52263E+01  7072   0.259E+03-0.101E+02
CGA:   5    -0.347299850084E+03   -0.18053E+01   -0.35332E+01  7072   0.142E+03-0.172E+03
CGA:   6    -0.349220949003E+03   -0.19211E+01   -0.23573E+01  7072   0.845E+02-0.318E+02
CGA:   7    -0.350182724778E+03   -0.96178E+00   -0.10361E+01  7072   0.398E+02-0.118E+02
CGA:   8    -0.350767717212E+03   -0.58499E+00   -0.62609E+00  7072   0.393E+02-0.245E+01
CGA:   9    -0.351416828081E+03   -0.64911E+00   -0.70046E+00  7072   0.339E+02-0.279E+01
CGA:  10    -0.351978371715E+03   -0.56154E+00   -0.55609E+00  7072   0.201E+02-0.142E+00
CGA:  11    -0.352253126286E+03   -0.27475E+00   -0.29419E+00  7072   0.152E+02-0.149E+01
CGA:  12    -0.352541537793E+03   -0.28841E+00   -0.32255E+00  7072   0.888E+01-0.943E+00
CGA:  13    -0.352639371503E+03   -0.97834E-01   -0.10612E+00  7072   0.492E+01-0.544E+00
CGA:  14    -0.352784667638E+03   -0.14530E+00   -0.14354E+00  7072   0.516E+01-0.925E-02
CGA:  15    -0.352856030063E+03   -0.71362E-01   -0.80291E-01  7072   0.364E+01-0.451E+00
CGA:  16    -0.353016798593E+03   -0.16077E+00   -0.15894E+00  7072   0.458E+01 0.255E+00
CGA:  17    -0.353105241471E+03   -0.88443E-01   -0.96168E-01  7072   0.254E+01-0.220E+00
CGA:  18    -0.353175201322E+03   -0.69960E-01   -0.72895E-01  7072   0.113E+01 0.255E-01
CGA:  19    -0.353207508552E+03   -0.32307E-01   -0.33668E-01  7072   0.675E+00 0.989E-02
CGA:  20    -0.353231473808E+03   -0.23965E-01   -0.24058E-01  7072   0.620E+00 0.505E-02
CGA:  21    -0.353256337816E+03   -0.24864E-01   -0.24971E-01  7072   0.298E+00 0.456E-01
CGA:  22    -0.353269829363E+03   -0.13492E-01   -0.13465E-01  7072   0.232E+00 0.128E-01
CGA:  23    -0.353277723886E+03   -0.78945E-02   -0.79037E-02  7072   0.108E+00 0.250E-03
CGA:  24    -0.353283193001E+03   -0.54691E-02   -0.54099E-02  7072   0.737E-01 0.419E-02
CGA:  25    -0.353287360042E+03   -0.41670E-02   -0.41180E-02  7072   0.668E-01 0.282E-02
CGA:  26    -0.353291064154E+03   -0.37041E-02   -0.36986E-02  7072   0.617E-01 0.338E-03
CGA:  27    -0.353293596136E+03   -0.25320E-02   -0.25351E-02  7072   0.348E-01 0.975E-03
CGA:  28    -0.353295968815E+03   -0.23727E-02   -0.23529E-02  7072   0.243E-01 0.703E-03
CGA:  29    -0.353297484158E+03   -0.15153E-02   -0.15126E-02  7072   0.281E-01 0.130E-03
CGA:  30    -0.353298999591E+03   -0.15154E-02   -0.15119E-02  7072   0.221E-01 0.269E-03
CGA:  31    -0.353299953581E+03   -0.95399E-03   -0.95441E-03  7072   0.104E-01 0.101E-03
CGA:  32    -0.353300591389E+03   -0.63781E-03   -0.63646E-03  7072   0.696E-02 0.708E-04
CGA:  33    -0.353301155224E+03   -0.56384E-03   -0.56144E-03  7072   0.761E-02 0.664E-04
CGA:  34    -0.353301522630E+03   -0.36741E-03   -0.36740E-03  7072   0.608E-02 0.169E-04
CGA:  35    -0.353301830040E+03   -0.30741E-03   -0.30729E-03  7072   0.382E-02 0.280E-04
SDA:  36    -0.353302059531E+03   -0.22949E-03   -0.22913E-03  7072   0.304E-02 0.240E-04
CGA:  37    -0.353302149906E+03   -0.90375E-04   -0.90268E-04  7072   0.102E-02-0.318E-06
CGA:  38    -0.353302336057E+03   -0.18615E-03   -0.18699E-03  7072   0.305E-02-0.683E-05
CGA:  39    -0.353302586145E+03   -0.25009E-03   -0.25030E-03  7072   0.290E-02-0.686E-05
CGA:  40    -0.353302689092E+03   -0.10295E-03   -0.10274E-03  7072   0.153E-02-0.121E-05
CGA:  41    -0.353302784834E+03   -0.95741E-04   -0.95732E-04  7072   0.938E-03 0.156E-05
CGA:  42    -0.353302942697E+03   -0.15786E-03   -0.15680E-03  7072   0.139E-02 0.838E-05
CGA:  43    -0.353303073128E+03   -0.13043E-03   -0.13019E-03  7072   0.507E-03 0.746E-05
CGA:  44    -0.353303107038E+03   -0.33910E-04   -0.33913E-04  7072   0.462E-03-0.646E-06
CGA:  45    -0.353303144332E+03   -0.37295E-04   -0.37342E-04  7072   0.100E-02-0.221E-05
CGA:  46    -0.353303193917E+03   -0.49585E-04   -0.49550E-04  7072   0.275E-03-0.284E-05
CGA:  47    -0.353303215840E+03   -0.21923E-04   -0.21972E-04  7072   0.323E-03-0.290E-05
CGA:  48    -0.353303230642E+03   -0.14802E-04   -0.14773E-04  7072   0.155E-03-0.188E-05
CGA:  49    -0.353303262801E+03   -0.32159E-04   -0.31967E-04  7072   0.150E-03 0.131E-05
CGA:  50    -0.353303268567E+03   -0.57657E-05   -0.57746E-05  7072   0.112E-03 0.265E-06
   7 F= -.35330327E+03 E0= -.35328747E+03  d E =-.474388E+00  mag=     8.0000
       N       E                     dE             d eps       ncg     rms          ort
SDA:   1    -0.329988187098E+03    0.23315E+02    0.00000E+00  7072   0.720E+02 0.000E+00
CGA:   2    -0.338180335431E+03   -0.81921E+01   -0.82197E+01  7072   0.158E+03-0.149E+01
CGA:   3    -0.346921441024E+03   -0.87411E+01   -0.76432E+01  7072   0.834E+02 0.611E+01
CGA:   4    -0.349603760287E+03   -0.26823E+01   -0.22055E+01  7072   0.184E+02 0.101E+02
CGA:   5    -0.350988284969E+03   -0.13845E+01   -0.13886E+01  7072   0.360E+02-0.277E+01
CGA:   6    -0.352101218178E+03   -0.11129E+01   -0.11038E+01  7072   0.364E+02 0.560E+00
CGA:   7    -0.352621542071E+03   -0.52032E+00   -0.42582E+00  7072   0.135E+02 0.823E+01
CGA:   8    -0.352953315657E+03   -0.33177E+00   -0.39926E+00  7072   0.134E+02-0.183E+01
CGA:   9    -0.353172605055E+03   -0.21929E+00   -0.25226E+00  7072   0.467E+01-0.965E+00
CGA:  10    -0.353242818191E+03   -0.70213E-01   -0.69857E-01  7072   0.273E+01 0.302E-01
CGA:  11    -0.353345735247E+03   -0.10292E+00   -0.10317E+00  7072   0.370E+01 0.291E-02
CGA:  12    -0.353420792259E+03   -0.75057E-01   -0.79158E-01  7072   0.208E+01-0.136E+00
CGA:  13    -0.353481027957E+03   -0.60236E-01   -0.61510E-01  7072   0.174E+01-0.132E-01
CGA:  14    -0.353516789190E+03   -0.35761E-01   -0.36231E-01  7072   0.744E+00-0.155E-01
CGA:  15    -0.353538811880E+03   -0.22023E-01   -0.22341E-01  7072   0.645E+00-0.247E-02
CGA:  16    -0.353554692350E+03   -0.15880E-01   -0.16365E-01  7072   0.310E+00-0.854E-02
CGA:  17    -0.353565184739E+03   -0.10492E-01   -0.10564E-01  7072   0.314E+00 0.530E-03
CGA:  18    -0.353576354265E+03   -0.11170E-01   -0.11239E-01  7072   0.260E+00 0.949E-03
CGA:  19    -0.353584963786E+03   -0.86095E-02   -0.87694E-02  7072   0.191E+00 0.126E-02
CGA:  20    -0.353591690744E+03   -0.67270E-02   -0.67722E-02  7072   0.987E-01 0.729E-03
CGA:  21    -0.353594390512E+03   -0.26998E-02   -0.26897E-02  7072   0.537E-01 0.114E-03
CGA:  22    -0.353597266507E+03   -0.28760E-02   -0.28738E-02  7072   0.504E-01 0.167E-03
CGA:  23    -0.353598777308E+03   -0.15108E-02   -0.15297E-02  7072   0.348E-01 0.317E-04
CGA:  24    -0.353600949516E+03   -0.21722E-02   -0.21580E-02  7072   0.333E-01 0.647E-03
CGA:  25    -0.353602165173E+03   -0.12157E-02   -0.12148E-02  7072   0.239E-01-0.180E-04
CGA:  26    -0.353603063172E+03   -0.89800E-03   -0.89934E-03  7072   0.121E-01 0.462E-04
CGA:  27    -0.353603679998E+03   -0.61683E-03   -0.61590E-03  7072   0.155E-01 0.994E-04
CGA:  28    -0.353604395065E+03   -0.71507E-03   -0.71508E-03  7072   0.104E-01-0.410E-05
CGA:  29    -0.353604779582E+03   -0.38452E-03   -0.38480E-03  7072   0.785E-02 0.141E-04
CGA:  30    -0.353605218686E+03   -0.43910E-03   -0.43806E-03  7072   0.673E-02 0.659E-04
CGA:  31    -0.353605471047E+03   -0.25236E-03   -0.25249E-03  7072   0.511E-02 0.331E-05
SDA:  32    -0.353605701678E+03   -0.23063E-03   -0.23063E-03  7072   0.356E-02 0.112E-04
CGA:  33    -0.353605888702E+03   -0.18702E-03   -0.18698E-03  7072   0.143E-02 0.545E-05
CGA:  34    -0.353606009020E+03   -0.12032E-03   -0.12013E-03  7072   0.331E-02 0.453E-05
CGA:  35    -0.353606197724E+03   -0.18870E-03   -0.18866E-03  7072   0.272E-02 0.589E-05
CGA:  36    -0.353606413099E+03   -0.21537E-03   -0.21516E-03  7072   0.179E-02 0.675E-05
CGA:  37    -0.353606492734E+03   -0.79635E-04   -0.79670E-04  7072   0.120E-02 0.518E-05
CGA:  38    -0.353606644271E+03   -0.15154E-03   -0.15082E-03  7072   0.136E-02 0.960E-05
CGA:  39    -0.353606756589E+03   -0.11232E-03   -0.11242E-03  7072   0.623E-03-0.326E-05
CGA:  40    -0.353606804704E+03   -0.48115E-04   -0.48086E-04  7072   0.755E-03 0.117E-05
CGA:  41    -0.353606838147E+03   -0.33443E-04   -0.33454E-04  7072   0.673E-03 0.816E-06
CGA:  42    -0.353606889694E+03   -0.51547E-04   -0.51492E-04  7072   0.471E-03 0.257E-05
CGA:  43    -0.353606915193E+03   -0.25498E-04   -0.25498E-04  7072   0.269E-03 0.328E-07
CGA:  44    -0.353606928118E+03   -0.12926E-04   -0.12922E-04  7072   0.138E-03-0.678E-06
CGA:  45    -0.353606947224E+03   -0.19106E-04   -0.19363E-04  7072   0.143E-03-0.306E-05
CGA:  46    -0.353606955504E+03   -0.82800E-05   -0.82797E-05  7072   0.192E-03-0.953E-06
   8 F= -.35360696E+03 E0= -.35359079E+03  d E =-.303687E+00  mag=     8.0000
       N       E                     dE             d eps       ncg     rms          ort
SDA:   1    -0.290523570637E+03    0.63083E+02    0.00000E+00  7072   0.212E+03 0.000E+00
CGA:   2    -0.312082167494E+03   -0.21559E+02   -0.19901E+02  7072   0.417E+03 0.247E+02
CGA:   3    -0.332114129553E+03   -0.20032E+02   -0.13740E+02  7072   0.721E+02 0.191E+03
CGA:   4    -0.335994446628E+03   -0.38803E+01   -0.37343E+01  7072   0.191E+03-0.566E+01
CGA:   5    -0.339232314374E+03   -0.32379E+01   -0.54721E+01  7072   0.460E+03-0.224E+02
CGA:   6    -0.341286108872E+03   -0.20538E+01   -0.47224E+01  7072   0.531E+03-0.381E+03
CGA:   7    -0.346111006260E+03   -0.48249E+01   -0.90978E+01  7072   0.267E+03-0.182E+03
CGA:   8    -0.349506664087E+03   -0.33957E+01   -0.29901E+01  7072   0.746E+02-0.831E-01
CGA:   9    -0.350291935476E+03   -0.78527E+00   -0.94816E+00  7072   0.381E+02-0.108E+02
CGA:  10    -0.350859762188E+03   -0.56783E+00   -0.51355E+00  7072   0.138E+02 0.277E+01
CGA:  11    -0.351276003234E+03   -0.41624E+00   -0.41695E+00  7072   0.268E+02-0.432E-01
CGA:  12    -0.351761172798E+03   -0.48517E+00   -0.44279E+00  7072   0.218E+02 0.198E+01
CGA:  13    -0.352321378480E+03   -0.56021E+00   -0.65725E+00  7072   0.269E+02-0.180E+00
CGA:  14    -0.352659800284E+03   -0.33842E+00   -0.43218E+00  7072   0.171E+02-0.491E+01
CGA:  15    -0.352987000659E+03   -0.32720E+00   -0.29485E+00  7072   0.518E+01 0.743E+00
CGA:  16    -0.353057410258E+03   -0.70410E-01   -0.71556E-01  7072   0.262E+01-0.935E-01
CGA:  17    -0.353131000170E+03   -0.73590E-01   -0.76775E-01  7072   0.319E+01 0.546E-01
CGA:  18    -0.353343005651E+03   -0.21201E+00   -0.19773E+00  7072   0.546E+01 0.540E+00
CGA:  19    -0.353453704904E+03   -0.11070E+00   -0.12046E+00  7072   0.151E+01-0.305E+00
CGA:  20    -0.353509452427E+03   -0.55748E-01   -0.55793E-01  7072   0.667E+00 0.822E-01
CGA:  21    -0.353535651470E+03   -0.26199E-01   -0.26251E-01  7072   0.397E+00 0.110E-01
CGA:  22    -0.353554810989E+03   -0.19160E-01   -0.19042E-01  7072   0.488E+00 0.989E-02
CGA:  23    -0.353575709409E+03   -0.20898E-01   -0.20837E-01  7072   0.239E+00 0.176E-01
CGA:  24    -0.353587491561E+03   -0.11782E-01   -0.11796E-01  7072   0.153E+00-0.119E-02
CGA:  25    -0.353595170621E+03   -0.76791E-02   -0.76106E-02  7072   0.987E-01 0.488E-02
CGA:  26    -0.353604395501E+03   -0.92249E-02   -0.91522E-02  7072   0.210E+00 0.155E-02
CGA:  27    -0.353613543332E+03   -0.91478E-02   -0.91501E-02  7072   0.901E-01 0.484E-02
CGA:  28    -0.353617094807E+03   -0.35515E-02   -0.35586E-02  7072   0.413E-01 0.644E-03
CGA:  29    -0.353620339936E+03   -0.32451E-02   -0.32500E-02  7072   0.644E-01-0.117E-03
CGA:  30    -0.353625247462E+03   -0.49075E-02   -0.48552E-02  7072   0.364E-01 0.154E-02
CGA:  31    -0.353627026651E+03   -0.17792E-02   -0.17790E-02  7072   0.298E-01 0.630E-04
CGA:  32    -0.353628492005E+03   -0.14654E-02   -0.14643E-02  7072   0.190E-01 0.218E-03
CGA:  33    -0.353629533789E+03   -0.10418E-02   -0.10422E-02  7072   0.142E-01-0.307E-04
CGA:  34    -0.353630340417E+03   -0.80663E-03   -0.80683E-03  7072   0.113E-01-0.134E-04
CGA:  35    -0.353631325985E+03   -0.98557E-03   -0.98391E-03  7072   0.932E-02 0.409E-04
CGA:  36    -0.353631778279E+03   -0.45229E-03   -0.45222E-03  7072   0.531E-02-0.321E-04
SDA:  37    -0.353632053308E+03   -0.27503E-03   -0.27504E-03  7072   0.524E-02-0.194E-05
CGA:  38    -0.353632195962E+03   -0.14265E-03   -0.14262E-03  7072   0.240E-02 0.112E-05
CGA:  39    -0.353632385532E+03   -0.18957E-03   -0.18950E-03  7072   0.314E-02 0.243E-05
CGA:  40    -0.353632732329E+03   -0.34680E-03   -0.34780E-03  7072   0.188E-02-0.175E-04
CGA:  41    -0.353632921771E+03   -0.18944E-03   -0.18998E-03  7072   0.231E-02-0.108E-04
CGA:  42    -0.353633022177E+03   -0.10041E-03   -0.10031E-03  7072   0.168E-02-0.123E-05
CGA:  43    -0.353633130504E+03   -0.10833E-03   -0.10834E-03  7072   0.133E-02 0.261E-06
CGA:  44    -0.353633233435E+03   -0.10293E-03   -0.10301E-03  7072   0.234E-02-0.236E-05
CGA:  45    -0.353633336309E+03   -0.10287E-03   -0.10283E-03  7072   0.613E-03-0.668E-06
CGA:  46    -0.353633384204E+03   -0.47895E-04   -0.48077E-04  7072   0.361E-03-0.705E-05
CGA:  47    -0.353633443805E+03   -0.59601E-04   -0.59766E-04  7072   0.686E-03-0.175E-05
CGA:  48    -0.353633482009E+03   -0.38203E-04   -0.38200E-04  7072   0.357E-03 0.214E-06
CGA:  49    -0.353633494210E+03   -0.12201E-04   -0.12233E-04  7072   0.197E-03 0.104E-05
CGA:  50    -0.353633513452E+03   -0.19243E-04   -0.19131E-04  7072   0.253E-03 0.310E-05
CGA:  51    -0.353633527029E+03   -0.13576E-04   -0.13616E-04  7072   0.291E-03 0.415E-05
CGA:  52    -0.353633546398E+03   -0.19370E-04   -0.19347E-04  7072   0.728E-04 0.668E-05
CGA:  53    -0.353633555813E+03   -0.94150E-05   -0.93792E-05  7072   0.877E-04 0.519E-06
   9 F= -.35363356E+03 E0= -.35361692E+03  d E =-.266003E-01  mag=     8.0000
       N       E                     dE             d eps       ncg     rms          ort
SDA:   1    -0.327916089586E+03    0.25717E+02    0.00000E+00  7072   0.130E+03 0.000E+00
CGA:   2    -0.333669178606E+03   -0.57531E+01   -0.60758E+01  7072   0.156E+03-0.727E-01
CGA:   3    -0.343063991016E+03   -0.93948E+01   -0.75956E+01  7072   0.950E+02-0.107E+02
CGA:   4    -0.348268091399E+03   -0.52041E+01   -0.50948E+01  7072   0.664E+02-0.516E+01
CGA:   5    -0.349529252232E+03   -0.12612E+01   -0.90829E+00  7072   0.281E+02 0.226E+02
CGA:   6    -0.350182062582E+03   -0.65281E+00   -0.51411E+00  7072   0.176E+02 0.866E+01
CGA:   7    -0.350706635508E+03   -0.52457E+00   -0.50461E+00  7072   0.338E+02 0.963E-01
CGA:   8    -0.351324175651E+03   -0.61754E+00   -0.67059E+00  7072   0.632E+02-0.215E+01
CGA:   9    -0.351979221964E+03   -0.65505E+00   -0.75865E+00  7072   0.402E+02-0.341E+01
CGA:  10    -0.352341676259E+03   -0.36245E+00   -0.33810E+00  7072   0.276E+02 0.199E+01
CGA:  11    -0.352743297978E+03   -0.40162E+00   -0.35957E+00  7072   0.293E+02 0.233E+01
CGA:  12    -0.352966486976E+03   -0.22319E+00   -0.26740E+00  7072   0.992E+01-0.842E+01
CGA:  13    -0.353003104772E+03   -0.36618E-01   -0.38608E-01  7072   0.659E+01-0.386E+00
CGA:  14    -0.353056743771E+03   -0.53639E-01   -0.53020E-01  7072   0.790E+01 0.774E-01
CGA:  15    -0.353141675237E+03   -0.84931E-01   -0.82859E-01  7072   0.997E+01 0.155E+00
CGA:  16    -0.353219820060E+03   -0.78145E-01   -0.92840E-01  7072   0.788E+01-0.148E+01
CGA:  17    -0.353270133811E+03   -0.50314E-01   -0.66957E-01  7072   0.867E+01-0.143E+01
CGA:  18    -0.353345644862E+03   -0.75511E-01   -0.86772E-01  7072   0.108E+02-0.653E+00
CGA:  19    -0.353450229069E+03   -0.10458E+00   -0.11091E+00  7072   0.789E+01-0.346E+00
CGA:  20    -0.353522878484E+03   -0.72649E-01   -0.74618E-01  7072   0.377E+01-0.131E+00
CGA:  21    -0.353556634992E+03   -0.33757E-01   -0.38181E-01  7072   0.196E+01-0.343E+00
CGA:  22    -0.353580776961E+03   -0.24142E-01   -0.27789E-01  7072   0.196E+01-0.125E+00
CGA:  23    -0.353620782018E+03   -0.40005E-01   -0.41342E-01  7072   0.196E+01 0.894E-02
CGA:  24    -0.353658132526E+03   -0.37351E-01   -0.37300E-01  7072   0.152E+01 0.126E-02
CGA:  25    -0.353699258902E+03   -0.41126E-01   -0.41007E-01  7072   0.224E+01-0.819E-02
CGA:  26    -0.353746950725E+03   -0.47692E-01   -0.48695E-01  7072   0.155E+01 0.105E-01
CGA:  27    -0.353771581855E+03   -0.24631E-01   -0.26029E-01  7072   0.669E+00-0.318E-01
CGA:  28    -0.353789626965E+03   -0.18045E-01   -0.18142E-01  7072   0.627E+00 0.154E-01
CGA:  29    -0.353805999843E+03   -0.16373E-01   -0.16320E-01  7072   0.384E+00-0.362E-02
CGA:  30    -0.353820234660E+03   -0.14235E-01   -0.14265E-01  7072   0.570E+00-0.291E-02
CGA:  31    -0.353837841096E+03   -0.17606E-01   -0.17586E-01  7072   0.385E+00 0.136E-01
SDA:  32    -0.353848352358E+03   -0.10511E-01   -0.10554E-01  7072   0.276E+00 0.442E-02
CGA:  33    -0.353856860151E+03   -0.85078E-02   -0.85119E-02  7072   0.116E+00-0.311E-02
CGA:  34    -0.353862736634E+03   -0.58765E-02   -0.58149E-02  7072   0.104E+00 0.271E-02
CGA:  35    -0.353871333415E+03   -0.85968E-02   -0.85643E-02  7072   0.800E-01 0.719E-03
CGA:  36    -0.353877175320E+03   -0.58419E-02   -0.58038E-02  7072   0.124E+00 0.103E-02
CGA:  37    -0.353884659888E+03   -0.74846E-02   -0.75071E-02  7072   0.230E-01-0.843E-03
CGA:  38    -0.353886655012E+03   -0.19951E-02   -0.19830E-02  7072   0.267E-01 0.258E-03
CGA:  39    -0.353888592377E+03   -0.19374E-02   -0.19421E-02  7072   0.441E-01-0.136E-03
CGA:  40    -0.353890590880E+03   -0.19985E-02   -0.19966E-02  7072   0.203E-01 0.255E-03
CGA:  41    -0.353892031421E+03   -0.14405E-02   -0.14387E-02  7072   0.661E-02 0.588E-04
CGA:  42    -0.353893101455E+03   -0.10700E-02   -0.10675E-02  7072   0.131E-01 0.207E-04
CGA:  43    -0.353894029950E+03   -0.92850E-03   -0.92664E-03  7072   0.145E-01 0.713E-04
CGA:  44    -0.353894505462E+03   -0.47551E-03   -0.47489E-03  7072   0.460E-02 0.420E-05
CGA:  45    -0.353894828114E+03   -0.32265E-03   -0.32205E-03  7072   0.330E-02 0.234E-04
CGA:  46    -0.353895236737E+03   -0.40862E-03   -0.40930E-03  7072   0.778E-02-0.948E-05
CGA:  47    -0.353895589956E+03   -0.35322E-03   -0.35317E-03  7072   0.201E-02-0.596E-05
CGA:  48    -0.353895713024E+03   -0.12307E-03   -0.12310E-03  7072   0.108E-02-0.425E-05
CGA:  49    -0.353895845561E+03   -0.13254E-03   -0.13241E-03  7072   0.258E-02 0.171E-05
CGA:  50    -0.353895941841E+03   -0.96281E-04   -0.96446E-04  7072   0.128E-02 0.594E-05
CGA:  51    -0.353896028313E+03   -0.86472E-04   -0.86414E-04  7072   0.608E-03 0.489E-05
CGA:  52    -0.353896076614E+03   -0.48301E-04   -0.48244E-04  7072   0.325E-03 0.233E-05
CGA:  53    -0.353896108213E+03   -0.31599E-04   -0.31539E-04  7072   0.670E-03 0.151E-05
CGA:  54    -0.353896143453E+03   -0.35240E-04   -0.35256E-04  7072   0.200E-03 0.211E-05
CGA:  55    -0.353896156933E+03   -0.13480E-04   -0.13469E-04  7072   0.166E-03 0.131E-05
CGA:  56    -0.353896166026E+03   -0.90931E-05   -0.90993E-05  7072   0.183E-03 0.100E-05
  10 F= -.35389617E+03 E0= -.35388005E+03  d E =-.262610E+00  mag=     8.0000
       N       E                     dE             d eps       ncg     rms          ort
SDA:   1    -0.353325318254E+03    0.57084E+00    0.00000E+00  7072   0.206E+01 0.000E+00
CGA:   2    -0.353642926814E+03   -0.31761E+00   -0.31903E+00  7072   0.384E+01-0.165E-01
CGA:   3    -0.353762302923E+03   -0.11938E+00   -0.12067E+00  7072   0.137E+01-0.285E-01
CGA:   4    -0.353819579596E+03   -0.57277E-01   -0.56851E-01  7072   0.689E+00-0.213E-03
CGA:   5    -0.353901222021E+03   -0.81642E-01   -0.81403E-01  7072   0.486E+00 0.403E-02
CGA:   6    -0.353916797684E+03   -0.15576E-01   -0.15503E-01  7072   0.166E+00 0.112E-02
CGA:   7    -0.353929776328E+03   -0.12979E-01   -0.12983E-01  7072   0.978E-01-0.201E-03
CGA:   8    -0.353937062506E+03   -0.72862E-02   -0.72901E-02  7072   0.679E-01-0.204E-03
CGA:   9    -0.353939160996E+03   -0.20985E-02   -0.21045E-02  7072   0.304E-01-0.836E-04
CGA:  10    -0.353941200964E+03   -0.20400E-02   -0.20406E-02  7072   0.128E-01-0.722E-04
CGA:  11    -0.353942109743E+03   -0.90878E-03   -0.90793E-03  7072   0.185E-01 0.653E-04
CGA:  12    -0.353943169681E+03   -0.10599E-02   -0.10600E-02  7072   0.729E-02 0.142E-04
CGA:  13    -0.353943517142E+03   -0.34746E-03   -0.34804E-03  7072   0.451E-02 0.142E-04
CGA:  14    -0.353943809900E+03   -0.29276E-03   -0.29276E-03  7072   0.741E-02 0.136E-05
CGA:  15    -0.353944273621E+03   -0.46372E-03   -0.46370E-03  7072   0.268E-02 0.192E-04
CGA:  16    -0.353944557281E+03   -0.28366E-03   -0.28315E-03  7072   0.275E-02 0.118E-04
CGA:  17    -0.353944668768E+03   -0.11149E-03   -0.11171E-03  7072   0.176E-02 0.121E-05
CGA:  18    -0.353944813327E+03   -0.14456E-03   -0.14468E-03  7072   0.220E-02-0.566E-05
CGA:  19    -0.353944921902E+03   -0.10857E-03   -0.10860E-03  7072   0.160E-02-0.787E-07
CGA:  20    -0.353944996279E+03   -0.74377E-04   -0.74344E-04  7072   0.656E-03-0.107E-05
CGA:  21    -0.353945047135E+03   -0.50856E-04   -0.50878E-04  7072   0.381E-03-0.150E-05
CGA:  22    -0.353945074800E+03   -0.27665E-04   -0.27700E-04  7072   0.562E-03-0.336E-05
CGA:  23    -0.353945099603E+03   -0.24802E-04   -0.24758E-04  7072   0.266E-03-0.232E-05
CGA:  24    -0.353945114385E+03   -0.14782E-04   -0.14773E-04  7072   0.139E-03-0.128E-05
CGA:  25    -0.353945119679E+03   -0.52940E-05   -0.52853E-05  7072   0.713E-04-0.399E-06
  11 F= -.35394512E+03 E0= -.35392869E+03  d E =-.489537E-01  mag=     8.0000
       N       E                     dE             d eps       ncg     rms          ort
SDA:   1    -0.352706595363E+03    0.12385E+01    0.00000E+00  7072   0.483E+01 0.000E+00
CGA:   2    -0.353110173424E+03   -0.40358E+00   -0.40545E+00  7072   0.794E+01-0.747E-01
CGA:   3    -0.353532378787E+03   -0.42221E+00   -0.42667E+00  7072   0.559E+01 0.114E+00
CGA:   4    -0.353721139348E+03   -0.18876E+00   -0.18627E+00  7072   0.130E+01 0.294E-01
CGA:   5    -0.353804434614E+03   -0.83295E-01   -0.83281E-01  7072   0.194E+01 0.222E-01
CGA:   6    -0.353920056633E+03   -0.11562E+00   -0.11542E+00  7072   0.529E+00-0.162E-01
CGA:   7    -0.353948787839E+03   -0.28731E-01   -0.28793E-01  7072   0.165E+00 0.262E-02
CGA:   8    -0.353959992971E+03   -0.11205E-01   -0.11213E-01  7072   0.224E+00-0.924E-03
CGA:   9    -0.353971648196E+03   -0.11655E-01   -0.11681E-01  7072   0.634E-01 0.740E-03
CGA:  10    -0.353974455118E+03   -0.28069E-02   -0.28016E-02  7072   0.407E-01-0.216E-04
CGA:  11    -0.353976189316E+03   -0.17342E-02   -0.17374E-02  7072   0.291E-01 0.141E-04
CGA:  12    -0.353978481159E+03   -0.22918E-02   -0.22931E-02  7072   0.212E-01-0.491E-04
CGA:  13    -0.353979825424E+03   -0.13443E-02   -0.13441E-02  7072   0.103E-01 0.500E-04
CGA:  14    -0.353980317111E+03   -0.49169E-03   -0.49209E-03  7072   0.901E-02 0.113E-04
CGA:  15    -0.353981388818E+03   -0.10717E-02   -0.10709E-02  7072   0.915E-02 0.140E-04
CGA:  16    -0.353981982204E+03   -0.59339E-03   -0.59336E-03  7072   0.727E-02 0.188E-04
CGA:  17    -0.353982233620E+03   -0.25142E-03   -0.25188E-03  7072   0.372E-02 0.371E-05
CGA:  18    -0.353982569215E+03   -0.33559E-03   -0.33555E-03  7072   0.581E-02 0.120E-05
CGA:  19    -0.353982941232E+03   -0.37202E-03   -0.37201E-03  7072   0.450E-02 0.148E-04
CGA:  20    -0.353983129957E+03   -0.18872E-03   -0.18857E-03  7072   0.990E-03-0.245E-05
CGA:  21    -0.353983263126E+03   -0.13317E-03   -0.13287E-03  7072   0.190E-02 0.425E-05
CGA:  22    -0.353983349710E+03   -0.86584E-04   -0.86508E-04  7072   0.107E-02-0.137E-05
CGA:  23    -0.353983395231E+03   -0.45521E-04   -0.45518E-04  7072   0.472E-03-0.107E-05
CGA:  24    -0.353983418514E+03   -0.23283E-04   -0.23265E-04  7072   0.398E-03-0.938E-06
CGA:  25    -0.353983444125E+03   -0.25611E-04   -0.25612E-04  7072   0.314E-03-0.285E-06
CGA:  26    -0.353983468078E+03   -0.23953E-04   -0.23962E-04  7072   0.169E-03-0.672E-06
CGA:  27    -0.353983478321E+03   -0.10243E-04   -0.10241E-04  7072   0.144E-03-0.630E-06
CGA:  28    -0.353983485194E+03   -0.68727E-05   -0.68681E-05  7072   0.119E-03-0.232E-06
CGA:  29    -0.353983496365E+03   -0.11171E-04   -0.11138E-04  7072   0.186E-03 0.105E-05
CGA:  30    -0.353983502883E+03   -0.65187E-05   -0.65207E-05  7072   0.525E-04 0.228E-06
  12 F= -.35398350E+03 E0= -.35396668E+03  d E =-.383832E-01  mag=     8.0000
       N       E                     dE             d eps       ncg     rms          ort
SDA:   1    -0.349645332941E+03    0.43382E+01    0.00000E+00  7072   0.144E+02 0.000E+00
CGA:   2    -0.351022225256E+03   -0.13769E+01   -0.13050E+01  7072   0.244E+02 0.215E+01
CGA:   3    -0.352614727452E+03   -0.15925E+01   -0.15295E+01  7072   0.172E+02-0.125E+01
CGA:   4    -0.353191487599E+03   -0.57676E+00   -0.58805E+00  7072   0.618E+01-0.174E+00
CGA:   5    -0.353460572257E+03   -0.26908E+00   -0.26093E+00  7072   0.491E+01-0.194E-01
CGA:   6    -0.353777571319E+03   -0.31700E+00   -0.31721E+00  7072   0.459E+01-0.146E+00
CGA:   7    -0.353898754768E+03   -0.12118E+00   -0.12215E+00  7072   0.134E+01-0.348E-01
CGA:   8    -0.353947038154E+03   -0.48283E-01   -0.47791E-01  7072   0.495E+00 0.331E-02
CGA:   9    -0.353974997275E+03   -0.27959E-01   -0.27915E-01  7072   0.649E+00-0.393E-02
CGA:  10    -0.354003472236E+03   -0.28475E-01   -0.28799E-01  7072   0.320E+00 0.324E-02
CGA:  11    -0.354013023116E+03   -0.95509E-02   -0.94105E-02  7072   0.110E+00 0.249E-02
CGA:  12    -0.354019592803E+03   -0.65697E-02   -0.65701E-02  7072   0.769E-01-0.166E-03
CGA:  13    -0.354023390705E+03   -0.37979E-02   -0.38161E-02  7072   0.785E-01 0.723E-03
CGA:  14    -0.354027028200E+03   -0.36375E-02   -0.36431E-02  7072   0.498E-01 0.138E-03
CGA:  15    -0.354029252199E+03   -0.22240E-02   -0.22317E-02  7072   0.287E-01 0.141E-03
CGA:  16    -0.354030710745E+03   -0.14585E-02   -0.14615E-02  7072   0.176E-01 0.193E-03
CGA:  17    -0.354032036311E+03   -0.13256E-02   -0.13251E-02  7072   0.263E-01 0.243E-04
CGA:  18    -0.354033121132E+03   -0.10848E-02   -0.10887E-02  7072   0.164E-01 0.446E-04
CGA:  19    -0.354034114065E+03   -0.99293E-03   -0.99281E-03  7072   0.142E-01 0.245E-04
CGA:  20    -0.354034818420E+03   -0.70436E-03   -0.70464E-03  7072   0.824E-02 0.165E-04
CGA:  21    -0.354035389506E+03   -0.57109E-03   -0.56951E-03  7072   0.915E-02 0.877E-04
CGA:  22    -0.354035863216E+03   -0.47371E-03   -0.47367E-03  7072   0.102E-01-0.234E-05
CGA:  23    -0.354036396777E+03   -0.53356E-03   -0.53372E-03  7072   0.400E-02 0.176E-04
CGA:  24    -0.354036568609E+03   -0.17183E-03   -0.17188E-03  7072   0.242E-02 0.325E-05
CGA:  25    -0.354036770472E+03   -0.20186E-03   -0.20187E-03  7072   0.331E-02 0.381E-06
CGA:  26    -0.354036931568E+03   -0.16110E-03   -0.16114E-03  7072   0.224E-02 0.366E-05
CGA:  27    -0.354037006968E+03   -0.75400E-04   -0.75314E-04  7072   0.721E-03 0.113E-05
CGA:  28    -0.354037066581E+03   -0.59613E-04   -0.59610E-04  7072   0.996E-03 0.205E-06
CGA:  29    -0.354037120802E+03   -0.54221E-04   -0.54228E-04  7072   0.657E-03 0.275E-05
CGA:  30    -0.354037158938E+03   -0.38136E-04   -0.38136E-04  7072   0.640E-03 0.104E-06
CGA:  31    -0.354037183189E+03   -0.24252E-04   -0.24269E-04  7072   0.301E-03 0.831E-06
SDA:  32    -0.354037202971E+03   -0.19782E-04   -0.19776E-04  7072   0.288E-03 0.649E-06
CGA:  33    -0.354037211983E+03   -0.90121E-05   -0.89951E-05  7072   0.134E-03-0.550E-06
CGA:  34    -0.354037228189E+03   -0.16206E-04   -0.16284E-04  7072   0.238E-03-0.121E-05
CGA:  35    -0.354037249294E+03   -0.21105E-04   -0.21178E-04  7072   0.190E-03-0.233E-05
CGA:  36    -0.354037266955E+03   -0.17661E-04   -0.17692E-04  7072   0.978E-04-0.809E-06
CGA:  37    -0.354037270654E+03   -0.36989E-05   -0.37051E-05  7072   0.105E-03 0.261E-06
CGA:  38    -0.354037285113E+03   -0.14459E-04   -0.14434E-04  7072   0.841E-04 0.284E-06
CGA:  39    -0.354037290500E+03   -0.53876E-05   -0.53874E-05  7072   0.671E-04-0.377E-06
  13 F= -.35403729E+03 E0= -.35402025E+03  d E =-.537876E-01  mag=     8.0000
       N       E                     dE             d eps       ncg     rms          ort
SDA:   1    -0.302084494419E+03    0.51953E+02    0.00000E+00  7072   0.282E+03 0.000E+00
CGA:   2    -0.313924809843E+03   -0.11840E+02   -0.96679E+01  7072   0.193E+03 0.243E+02
CGA:   3    -0.329772924185E+03   -0.15848E+02   -0.18505E+02  7072   0.406E+03-0.119E+03
CGA:   4    -0.333004861220E+03   -0.32319E+01   -0.10311E+02  7072   0.379E+03-0.220E+03
CGA:   5    -0.338321086456E+03   -0.53162E+01   -0.41281E+01  7072   0.533E+02 0.962E+02
CGA:   6    -0.339648413283E+03   -0.13273E+01   -0.98294E+00  7072   0.572E+02 0.185E+02
CGA:   7    -0.341774863196E+03   -0.21264E+01   -0.21071E+01  7072   0.158E+03-0.599E+01
CGA:   8    -0.343496626243E+03   -0.17218E+01   -0.25640E+01  7072   0.148E+03-0.269E+02
CGA:   9    -0.344258359625E+03   -0.76173E+00   -0.21348E+01  7072   0.142E+03-0.443E+02
CGA:  10    -0.345344594762E+03   -0.10862E+01   -0.90449E+00  7072   0.830E+02-0.219E+01
CGA:  11    -0.346114769902E+03   -0.77018E+00   -0.14426E+01  7072   0.249E+03-0.306E+02
CGA:  12    -0.347480891441E+03   -0.13661E+01   -0.13880E+01  7072   0.270E+03-0.677E+02
CGA:  13    -0.347045776587E+03    0.43511E+00   -0.15245E+01  7072   0.135E+03-0.199E+03
CGA:  14    -0.349425437082E+03   -0.23797E+01   -0.21363E+01  7072   0.192E+02-0.195E+01
CGA:  15    -0.350442631308E+03   -0.10172E+01   -0.12774E+01  7072   0.455E+02-0.114E+02
CGA:  16    -0.351098516185E+03   -0.65588E+00   -0.65243E+00  7072   0.806E+01-0.844E-01
CGA:  17    -0.351486435455E+03   -0.38792E+00   -0.38683E+00  7072   0.864E+01 0.120E+00
CGA:  18    -0.352055760321E+03   -0.56932E+00   -0.55935E+00  7072   0.149E+02 0.384E+00
CGA:  19    -0.352578490456E+03   -0.52273E+00   -0.50469E+00  7072   0.626E+01-0.230E+00
CGA:  20    -0.352831494992E+03   -0.25300E+00   -0.25095E+00  7072   0.198E+01-0.367E+00
CGA:  21    -0.352880351357E+03   -0.48856E-01   -0.50516E-01  7072   0.175E+01-0.128E-01
CGA:  22    -0.352980724005E+03   -0.10037E+00   -0.10035E+00  7072   0.170E+01 0.473E-02
CGA:  23    -0.353047732736E+03   -0.67009E-01   -0.67403E-01  7072   0.101E+01 0.472E-01
CGA:  24    -0.353082918222E+03   -0.35185E-01   -0.35965E-01  7072   0.338E+00 0.249E-01
CGA:  25    -0.353102673180E+03   -0.19755E-01   -0.19667E-01  7072   0.476E+00 0.463E-02
CGA:  26    -0.353126957026E+03   -0.24284E-01   -0.23872E-01  7072   0.247E+00 0.404E-01
CGA:  27    -0.353141015142E+03   -0.14058E-01   -0.13952E-01  7072   0.132E+00 0.818E-02
CGA:  28    -0.353147554856E+03   -0.65397E-02   -0.65073E-02  7072   0.806E-01 0.498E-02
CGA:  29    -0.353152743947E+03   -0.51891E-02   -0.51834E-02  7072   0.875E-01 0.219E-03
CGA:  30    -0.353160728575E+03   -0.79846E-02   -0.77880E-02  7072   0.555E-01 0.447E-02
CGA:  31    -0.353163864254E+03   -0.31357E-02   -0.31324E-02  7072   0.605E-01 0.326E-03
CGA:  32    -0.353166878687E+03   -0.30144E-02   -0.30115E-02  7072   0.187E-01 0.836E-03
CGA:  33    -0.353168572723E+03   -0.16940E-02   -0.16937E-02  7072   0.286E-01-0.741E-05
CGA:  34    -0.353170001984E+03   -0.14293E-02   -0.14292E-02  7072   0.136E-01 0.593E-04
CGA:  35    -0.353171061177E+03   -0.10592E-02   -0.10533E-02  7072   0.108E-01 0.183E-03
CGA:  36    -0.353171813759E+03   -0.75258E-03   -0.75204E-03  7072   0.776E-02 0.243E-04
CGA:  37    -0.353172204471E+03   -0.39071E-03   -0.39085E-03  7072   0.705E-02 0.349E-04
CGA:  38    -0.353172571376E+03   -0.36691E-03   -0.36689E-03  7072   0.372E-02-0.124E-03
CGA:  39    -0.353172930915E+03   -0.35954E-03   -0.35818E-03  7072   0.328E-02 0.278E-04
CGA:  40    -0.353173111116E+03   -0.18020E-03   -0.18019E-03  7072   0.280E-02 0.968E-05
CGA:  41    -0.353173360589E+03   -0.24947E-03   -0.25051E-03  7072   0.253E-02-0.274E-04
CGA:  42    -0.353173547567E+03   -0.18698E-03   -0.18717E-03  7072   0.134E-02-0.717E-05
CGA:  43    -0.353173632587E+03   -0.85020E-04   -0.84943E-04  7072   0.116E-02 0.959E-05
CGA:  44    -0.353173686764E+03   -0.54177E-04   -0.54161E-04  7072   0.105E-02 0.223E-05
CGA:  45    -0.353173772982E+03   -0.86218E-04   -0.86150E-04  7072   0.902E-03 0.294E-05
SDA:  46    -0.353173835046E+03   -0.62064E-04   -0.62046E-04  7072   0.530E-03 0.227E-05
CGA:  47    -0.353173854928E+03   -0.19882E-04   -0.19901E-04  7072   0.254E-03 0.187E-06
CGA:  48    -0.353173873710E+03   -0.18782E-04   -0.18793E-04  7072   0.334E-03-0.896E-06
CGA:  49    -0.353173906544E+03   -0.32835E-04   -0.32799E-04  7072   0.514E-03 0.306E-06
CGA:  50    -0.353173925021E+03   -0.18476E-04   -0.18454E-04  7072   0.211E-03 0.385E-06
CGA:  51    -0.353173943489E+03   -0.18468E-04   -0.18365E-04  7072   0.159E-03 0.347E-05
CGA:  52    -0.353173963775E+03   -0.20286E-04   -0.19899E-04  7072   0.110E-03 0.592E-05
CGA:  53    -0.353173975619E+03   -0.11844E-04   -0.11735E-04  7072   0.871E-04 0.258E-05
CGA:  54    -0.353173981879E+03   -0.62607E-05   -0.62462E-05  7072   0.112E-03 0.298E-05
  14 F= -.35317398E+03 E0= -.35315870E+03  d E =0.863309E+00  mag=     8.0000
       N       E                     dE             d eps       ncg     rms          ort
SDA:   1    -0.327710946227E+03    0.25463E+02    0.00000E+00  7072   0.115E+03 0.000E+00
CGA:   2    -0.334157394605E+03   -0.64464E+01   -0.55339E+01  7072   0.157E+03-0.142E+02
CGA:   3    -0.342300015977E+03   -0.81426E+01   -0.81945E+01  7072   0.856E+02 0.997E+01
CGA:   4    -0.344191112625E+03   -0.18911E+01   -0.14410E+01  7072   0.812E+02 0.198E+02
CGA:   5    -0.347042877531E+03   -0.28518E+01   -0.32756E+01  7072   0.137E+03-0.540E+01
CGA:   6    -0.348006090069E+03   -0.96321E+00   -0.19825E+01  7072   0.101E+03-0.561E+02
CGA:   7    -0.348881678725E+03   -0.87559E+00   -0.93373E+00  7072   0.127E+03-0.753E+01
CGA:   8    -0.350253718706E+03   -0.13720E+01   -0.14398E+01  7072   0.583E+02-0.186E+02
CGA:   9    -0.350507453232E+03   -0.25373E+00   -0.39745E+00  7072   0.435E+02-0.209E+02
CGA:  10    -0.350772193862E+03   -0.26474E+00   -0.27683E+00  7072   0.776E+02-0.141E+01
CGA:  11    -0.351431537966E+03   -0.65934E+00   -0.12377E+01  7072   0.751E+02-0.270E+02
CGA:  12    -0.351648892198E+03   -0.21735E+00   -0.28260E+00  7072   0.217E+02-0.125E+02
CGA:  13    -0.351767520608E+03   -0.11863E+00   -0.13127E+00  7072   0.197E+02-0.177E+01
CGA:  14    -0.352095092048E+03   -0.32757E+00   -0.26423E+00  7072   0.441E+02 0.344E+01
CGA:  15    -0.352389567911E+03   -0.29448E+00   -0.50098E+00  7072   0.287E+02-0.263E+02
CGA:  16    -0.352722784254E+03   -0.33322E+00   -0.36029E+00  7072   0.939E+01-0.206E+01
CGA:  17    -0.352950208605E+03   -0.22742E+00   -0.23781E+00  7072   0.676E+01 0.137E-01
CGA:  18    -0.353087881453E+03   -0.13767E+00   -0.13600E+00  7072   0.643E+01 0.142E-01
CGA:  19    -0.353381975306E+03   -0.29409E+00   -0.29161E+00  7072   0.536E+01 0.224E+00
CGA:  20    -0.353623731806E+03   -0.24176E+00   -0.24285E+00  7072   0.415E+01-0.104E+00
CGA:  21    -0.353748651704E+03   -0.12492E+00   -0.12843E+00  7072   0.372E+01 0.161E+00
CGA:  22    -0.353851465330E+03   -0.10281E+00   -0.10662E+00  7072   0.225E+01 0.533E-01
CGA:  23    -0.353920473342E+03   -0.69008E-01   -0.70387E-01  7072   0.462E+00 0.647E-01
CGA:  24    -0.353934954624E+03   -0.14481E-01   -0.14576E-01  7072   0.531E+00 0.453E-02
CGA:  25    -0.353979727739E+03   -0.44773E-01   -0.41755E-01  7072   0.301E+00 0.742E-01
CGA:  26    -0.353996036637E+03   -0.16309E-01   -0.16378E-01  7072   0.233E+00-0.537E-02
CGA:  27    -0.354004653662E+03   -0.86170E-02   -0.86634E-02  7072   0.157E+00 0.170E-01
CGA:  28    -0.354013980806E+03   -0.93271E-02   -0.93759E-02  7072   0.121E+00-0.242E-02
CGA:  29    -0.354022765036E+03   -0.87842E-02   -0.82309E-02  7072   0.760E-01 0.167E-01
CGA:  30    -0.354025604934E+03   -0.28399E-02   -0.28405E-02  7072   0.315E-01-0.159E-05
CGA:  31    -0.354028354557E+03   -0.27496E-02   -0.26576E-02  7072   0.461E-01 0.208E-02
CGA:  32    -0.354031460140E+03   -0.31056E-02   -0.31382E-02  7072   0.391E-01-0.131E-02
CGA:  33    -0.354033529302E+03   -0.20692E-02   -0.20461E-02  7072   0.242E-01 0.159E-02
CGA:  34    -0.354034776009E+03   -0.12467E-02   -0.12518E-02  7072   0.114E-01-0.609E-03
CGA:  35    -0.354035402952E+03   -0.62694E-03   -0.62490E-03  7072   0.108E-01 0.129E-03
CGA:  36    -0.354036113486E+03   -0.71053E-03   -0.71263E-03  7072   0.836E-02-0.821E-04
CGA:  37    -0.354036667373E+03   -0.55389E-03   -0.55140E-03  7072   0.749E-02 0.104E-03
CGA:  38    -0.354037004635E+03   -0.33726E-03   -0.33680E-03  7072   0.393E-02-0.580E-04
CGA:  39    -0.354037299800E+03   -0.29516E-03   -0.29451E-03  7072   0.340E-02 0.219E-04
CGA:  40    -0.354037442690E+03   -0.14289E-03   -0.14264E-03  7072   0.188E-02-0.111E-04
CGA:  41    -0.354037592656E+03   -0.14997E-03   -0.14973E-03  7072   0.217E-02 0.629E-05
CGA:  42    -0.354037709594E+03   -0.11694E-03   -0.11704E-03  7072   0.144E-02-0.160E-04
CGA:  43    -0.354037776434E+03   -0.66840E-04   -0.66837E-04  7072   0.810E-03 0.135E-05
CGA:  44    -0.354037852217E+03   -0.75783E-04   -0.75980E-04  7072   0.157E-02-0.455E-05
CGA:  45    -0.354037935584E+03   -0.83368E-04   -0.83363E-04  7072   0.794E-03 0.420E-05
SDA:  46    -0.354037973879E+03   -0.38295E-04   -0.38273E-04  7072   0.432E-03-0.201E-05
CGA:  47    -0.354037985252E+03   -0.11373E-04   -0.11396E-04  7072   0.254E-03 0.486E-06
CGA:  48    -0.354038028320E+03   -0.43067E-04   -0.42771E-04  7072   0.442E-03 0.198E-05
CGA:  49    -0.354038056463E+03   -0.28143E-04   -0.28135E-04  7072   0.240E-03 0.118E-05
CGA:  50    -0.354038078684E+03   -0.22221E-04   -0.22186E-04  7072   0.424E-03 0.744E-06
CGA:  51    -0.354038092826E+03   -0.14142E-04   -0.14109E-04  7072   0.150E-03 0.429E-07
CGA:  52    -0.354038108507E+03   -0.15681E-04   -0.15736E-04  7072   0.301E-03-0.138E-05
CGA:  53    -0.354038124520E+03   -0.16013E-04   -0.15986E-04  7072   0.170E-03-0.338E-05
CGA:  54    -0.354038134831E+03   -0.10310E-04   -0.10311E-04  7072   0.693E-04-0.598E-06
CGA:  55    -0.354038141674E+03   -0.68431E-05   -0.68024E-05  7072   0.163E-03 0.848E-06
  15 F= -.35403814E+03 E0= -.35402108E+03  d E =-.864160E+00  mag=     8.0000
       N       E                     dE             d eps       ncg     rms          ort
SDA:   1    -0.353770440252E+03    0.26769E+00    0.00000E+00  7072   0.133E+01 0.000E+00
CGA:   2    -0.353856061732E+03   -0.85621E-01   -0.85729E-01  7072   0.235E+01-0.161E-01
CGA:   3    -0.353965082958E+03   -0.10902E+00   -0.10904E+00  7072   0.121E+01-0.267E-03
CGA:   4    -0.354026731652E+03   -0.61649E-01   -0.61736E-01  7072   0.340E+00 0.332E-02
CGA:   5    -0.354062526103E+03   -0.35794E-01   -0.35747E-01  7072   0.353E+00 0.966E-03
CGA:   6    -0.354078473001E+03   -0.15947E-01   -0.15954E-01  7072   0.270E+00-0.249E-04
CGA:   7    -0.354087232039E+03   -0.87590E-02   -0.86402E-02  7072   0.597E-01 0.158E-02
CGA:   8    -0.354092026889E+03   -0.47949E-02   -0.47930E-02  7072   0.311E-01 0.731E-04
CGA:   9    -0.354094889194E+03   -0.28623E-02   -0.28635E-02  7072   0.247E-01-0.299E-04
CGA:  10    -0.354095723299E+03   -0.83411E-03   -0.83144E-03  7072   0.119E-01 0.299E-04
CGA:  11    -0.354096277156E+03   -0.55386E-03   -0.55365E-03  7072   0.663E-02-0.563E-05
CGA:  12    -0.354096701930E+03   -0.42477E-03   -0.42495E-03  7072   0.847E-02-0.269E-04
CGA:  13    -0.354097166246E+03   -0.46432E-03   -0.46441E-03  7072   0.307E-02 0.783E-05
CGA:  14    -0.354097373975E+03   -0.20773E-03   -0.20768E-03  7072   0.162E-02 0.471E-05
CGA:  15    -0.354097567235E+03   -0.19326E-03   -0.19348E-03  7072   0.369E-02-0.365E-05
CGA:  16    -0.354097701757E+03   -0.13452E-03   -0.13461E-03  7072   0.194E-02-0.142E-05
CGA:  17    -0.354097804432E+03   -0.10267E-03   -0.10267E-03  7072   0.838E-03-0.718E-06
CGA:  18    -0.354097905704E+03   -0.10127E-03   -0.10125E-03  7072   0.766E-03 0.362E-06
CGA:  19    -0.354097949810E+03   -0.44106E-04   -0.44127E-04  7072   0.971E-03 0.238E-05
CGA:  20    -0.354098017336E+03   -0.67526E-04   -0.67521E-04  7072   0.360E-03 0.896E-06
CGA:  21    -0.354098031645E+03   -0.14309E-04   -0.14330E-04  7072   0.330E-03 0.765E-06
CGA:  22    -0.354098051563E+03   -0.19919E-04   -0.19923E-04  7072   0.209E-03 0.144E-05
CGA:  23    -0.354098067336E+03   -0.15773E-04   -0.15749E-04  7072   0.119E-03 0.196E-05
CGA:  24    -0.354098078573E+03   -0.11237E-04   -0.11225E-04  7072   0.524E-04 0.366E-06
CGA:  25    -0.354098082871E+03   -0.42977E-05   -0.42970E-05  7072   0.381E-04 0.252E-07
  16 F= -.35409808E+03 E0= -.35408087E+03  d E =-.599412E-01  mag=     8.0000
       N       E                     dE             d eps       ncg     rms          ort
SDA:   1    -0.350778430197E+03    0.33196E+01    0.00000E+00  7072   0.152E+02 0.000E+00
CGA:   2    -0.351582138664E+03   -0.80371E+00   -0.83238E+00  7072   0.199E+02 0.461E+00
CGA:   3    -0.352837487419E+03   -0.12553E+01   -0.12452E+01  7072   0.165E+02-0.495E+00
CGA:   4    -0.353416104914E+03   -0.57862E+00   -0.58721E+00  7072   0.451E+01-0.141E+00
CGA:   5    -0.353639680583E+03   -0.22358E+00   -0.21937E+00  7072   0.424E+01-0.432E-01
CGA:   6    -0.353999446554E+03   -0.35977E+00   -0.36341E+00  7072   0.197E+01-0.131E+00
CGA:   7    -0.354061153042E+03   -0.61706E-01   -0.65990E-01  7072   0.112E+01-0.550E-01
CGA:   8    -0.354102971572E+03   -0.41819E-01   -0.40907E-01  7072   0.497E+00 0.719E-02
CGA:   9    -0.354134578611E+03   -0.31607E-01   -0.31609E-01  7072   0.487E+00 0.827E-02
CGA:  10    -0.354155733367E+03   -0.21155E-01   -0.21007E-01  7072   0.152E+00 0.121E-04
CGA:  11    -0.354164595483E+03   -0.88621E-02   -0.88700E-02  7072   0.813E-01 0.874E-03
CGA:  12    -0.354168423836E+03   -0.38284E-02   -0.38215E-02  7072   0.937E-01-0.744E-04
CGA:  13    -0.354175461553E+03   -0.70377E-02   -0.70040E-02  7072   0.567E-01 0.168E-02
CGA:  14    -0.354177398663E+03   -0.19371E-02   -0.19281E-02  7072   0.225E-01 0.112E-03
CGA:  15    -0.354179472955E+03   -0.20743E-02   -0.20614E-02  7072   0.291E-01 0.347E-03
CGA:  16    -0.354181658774E+03   -0.21858E-02   -0.21863E-02  7072   0.275E-01-0.245E-04
CGA:  17    -0.354182848789E+03   -0.11900E-02   -0.11952E-02  7072   0.188E-01 0.237E-04
CGA:  18    -0.354183841201E+03   -0.99241E-03   -0.99222E-03  7072   0.115E-01-0.859E-05
CGA:  19    -0.354184529687E+03   -0.68849E-03   -0.68858E-03  7072   0.125E-01 0.349E-04
CGA:  20    -0.354185362309E+03   -0.83262E-03   -0.83232E-03  7072   0.756E-02 0.381E-04
CGA:  21    -0.354185958437E+03   -0.59613E-03   -0.59557E-03  7072   0.823E-02 0.255E-04
CGA:  22    -0.354186242422E+03   -0.28398E-03   -0.28384E-03  7072   0.310E-02 0.222E-05
CGA:  23    -0.354186452480E+03   -0.21006E-03   -0.20996E-03  7072   0.345E-02 0.107E-04
CGA:  24    -0.354186643846E+03   -0.19137E-03   -0.19135E-03  7072   0.224E-02 0.699E-06
CGA:  25    -0.354186771250E+03   -0.12740E-03   -0.12744E-03  7072   0.110E-02 0.773E-05
CGA:  26    -0.354186836058E+03   -0.64809E-04   -0.64806E-04  7072   0.913E-03-0.120E-06
CGA:  27    -0.354186873442E+03   -0.37384E-04   -0.37412E-04  7072   0.579E-03 0.138E-05
CGA:  28    -0.354186925052E+03   -0.51610E-04   -0.51625E-04  7072   0.701E-03-0.390E-06
CGA:  29    -0.354186952495E+03   -0.27443E-04   -0.27447E-04  7072   0.219E-03-0.910E-07
CGA:  30    -0.354186969180E+03   -0.16685E-04   -0.16687E-04  7072   0.275E-03-0.925E-07
CGA:  31    -0.354186991923E+03   -0.22743E-04   -0.22756E-04  7072   0.455E-03-0.560E-06
SDA:  32    -0.354187009771E+03   -0.17847E-04   -0.17800E-04  7072   0.117E-03-0.153E-05
CGA:  33    -0.354187013690E+03   -0.39189E-05   -0.39232E-05  7072   0.904E-04 0.600E-07
  17 F= -.35418701E+03 E0= -.35416973E+03  d E =-.889308E-01  mag=     8.0000
       N       E                     dE             d eps       ncg     rms          ort
SDA:   1    -0.353998716164E+03    0.18829E+00    0.00000E+00  7072   0.933E+00 0.000E+00
CGA:   2    -0.354039363124E+03   -0.40647E-01   -0.40040E-01  7072   0.101E+01-0.277E-02
CGA:   3    -0.354117023220E+03   -0.77660E-01   -0.77599E-01  7072   0.930E+00 0.266E-02
CGA:   4    -0.354156351426E+03   -0.39328E-01   -0.38764E-01  7072   0.328E+00-0.777E-03
CGA:   5    -0.354169104914E+03   -0.12753E-01   -0.12911E-01  7072   0.194E+00-0.239E-03
CGA:   6    -0.354187113022E+03   -0.18008E-01   -0.18069E-01  7072   0.105E+00-0.154E-02
CGA:   7    -0.354192590102E+03   -0.54771E-02   -0.54822E-02  7072   0.562E-01 0.221E-03
CGA:   8    -0.354194378992E+03   -0.17889E-02   -0.17818E-02  7072   0.257E-01 0.983E-04
CGA:   9    -0.354196043235E+03   -0.16642E-02   -0.16634E-02  7072   0.103E-01 0.858E-04
CGA:  10    -0.354196962740E+03   -0.91951E-03   -0.91972E-03  7072   0.105E-01-0.571E-05
CGA:  11    -0.354197316827E+03   -0.35409E-03   -0.35496E-03  7072   0.409E-02-0.100E-04
CGA:  12    -0.354197543706E+03   -0.22688E-03   -0.22689E-03  7072   0.267E-02 0.118E-05
CGA:  13    -0.354197690732E+03   -0.14703E-03   -0.14706E-03  7072   0.286E-02 0.500E-05
CGA:  14    -0.354197853469E+03   -0.16274E-03   -0.16273E-03  7072   0.144E-02-0.203E-05
CGA:  15    -0.354197972096E+03   -0.11863E-03   -0.11858E-03  7072   0.100E-02 0.166E-05
CGA:  16    -0.354198022264E+03   -0.50168E-04   -0.50178E-04  7072   0.117E-02 0.667E-06
CGA:  17    -0.354198093317E+03   -0.71053E-04   -0.71050E-04  7072   0.923E-03 0.288E-05
CGA:  18    -0.354198167756E+03   -0.74439E-04   -0.74433E-04  7072   0.619E-03 0.223E-06
CGA:  19    -0.354198208614E+03   -0.40858E-04   -0.40868E-04  7072   0.557E-03-0.216E-05
CGA:  20    -0.354198230751E+03   -0.22137E-04   -0.22113E-04  7072   0.352E-03-0.952E-06
CGA:  21    -0.354198264578E+03   -0.33827E-04   -0.33763E-04  7072   0.425E-03 0.173E-05
CGA:  22    -0.354198279969E+03   -0.15390E-04   -0.15370E-04  7072   0.189E-03-0.643E-06
CGA:  23    -0.354198292888E+03   -0.12919E-04   -0.12924E-04  7072   0.693E-04-0.761E-06
CGA:  24    -0.354198299568E+03   -0.66797E-05   -0.66866E-05  7072   0.165E-03-0.213E-06
  18 F= -.35419830E+03 E0= -.35418105E+03  d E =-.112859E-01  mag=     8.0000
       N       E                     dE             d eps       ncg     rms          ort
SDA:   1    -0.347600252832E+03    0.65980E+01    0.00000E+00  7072   0.226E+02 0.000E+00
CGA:   2    -0.349187531414E+03   -0.15873E+01   -0.15435E+01  7072   0.323E+02 0.384E+01
CGA:   3    -0.351804807819E+03   -0.26173E+01   -0.27353E+01  7072   0.485E+02-0.788E+01
CGA:   4    -0.352726225320E+03   -0.92142E+00   -0.82802E+00  7072   0.280E+02 0.325E+01
CGA:   5    -0.353133440496E+03   -0.40722E+00   -0.46473E+00  7072   0.965E+01-0.331E+01
CGA:   6    -0.353442459651E+03   -0.30902E+00   -0.29783E+00  7072   0.873E+01 0.588E-01
CGA:   7    -0.353756332784E+03   -0.31387E+00   -0.28853E+00  7072   0.869E+01 0.266E+00
CGA:   8    -0.353967275111E+03   -0.21094E+00   -0.22533E+00  7072   0.433E+01-0.339E+00
CGA:   9    -0.354054585513E+03   -0.87310E-01   -0.10141E+00  7072   0.289E+01-0.335E+00
CGA:  10    -0.354112635917E+03   -0.58050E-01   -0.56438E-01  7072   0.101E+01 0.469E-01
CGA:  11    -0.354140825613E+03   -0.28190E-01   -0.27138E-01  7072   0.813E+00 0.180E-01
CGA:  12    -0.354166210468E+03   -0.25385E-01   -0.26251E-01  7072   0.761E+00-0.251E-02
CGA:  13    -0.354195715971E+03   -0.29506E-01   -0.30237E-01  7072   0.580E+00 0.227E-01
CGA:  14    -0.354209825184E+03   -0.14109E-01   -0.14167E-01  7072   0.257E+00-0.131E-02
CGA:  15    -0.354218425657E+03   -0.86005E-02   -0.86281E-02  7072   0.161E+00 0.177E-03
CGA:  16    -0.354223518507E+03   -0.50928E-02   -0.52294E-02  7072   0.125E+00 0.883E-03
CGA:  17    -0.354228252234E+03   -0.47337E-02   -0.47396E-02  7072   0.888E-01 0.211E-03
CGA:  18    -0.354232298863E+03   -0.40466E-02   -0.40466E-02  7072   0.801E-01-0.947E-03
CGA:  19    -0.354234988702E+03   -0.26898E-02   -0.27235E-02  7072   0.503E-01 0.577E-03
CGA:  20    -0.354236826347E+03   -0.18376E-02   -0.18468E-02  7072   0.220E-01 0.298E-03
CGA:  21    -0.354237789733E+03   -0.96339E-03   -0.96319E-03  7072   0.220E-01-0.918E-04
CGA:  22    -0.354238875301E+03   -0.10856E-02   -0.10835E-02  7072   0.247E-01 0.252E-03
CGA:  23    -0.354240108982E+03   -0.12337E-02   -0.12305E-02  7072   0.141E-01 0.414E-03
CGA:  24    -0.354240671781E+03   -0.56280E-03   -0.56224E-03  7072   0.100E-01-0.357E-04
CGA:  25    -0.354241113751E+03   -0.44197E-03   -0.44201E-03  7072   0.886E-02 0.398E-04
CGA:  26    -0.354241610817E+03   -0.49707E-03   -0.49521E-03  7072   0.746E-02 0.120E-03
CGA:  27    -0.354242010024E+03   -0.39921E-03   -0.39938E-03  7072   0.847E-02-0.127E-04
CGA:  28    -0.354242362090E+03   -0.35207E-03   -0.35229E-03  7072   0.499E-02 0.284E-04
CGA:  29    -0.354242560573E+03   -0.19848E-03   -0.19862E-03  7072   0.243E-02 0.127E-04
CGA:  30    -0.354242693879E+03   -0.13331E-03   -0.13333E-03  7072   0.323E-02-0.156E-05
CGA:  31    -0.354242850674E+03   -0.15680E-03   -0.15676E-03  7072   0.271E-02 0.879E-05
SDA:  32    -0.354242978220E+03   -0.12755E-03   -0.12753E-03  7072   0.145E-02 0.109E-04
CGA:  33    -0.354243014335E+03   -0.36115E-04   -0.36016E-04  7072   0.452E-03 0.456E-06
CGA:  34    -0.354243076673E+03   -0.62338E-04   -0.61830E-04  7072   0.116E-02 0.543E-05
CGA:  35    -0.354243131327E+03   -0.54655E-04   -0.54657E-04  7072   0.926E-03 0.155E-05
CGA:  36    -0.354243184729E+03   -0.53402E-04   -0.53419E-04  7072   0.281E-03-0.180E-05
CGA:  37    -0.354243213793E+03   -0.29064E-04   -0.29163E-04  7072   0.375E-03-0.191E-05
CGA:  38    -0.354243251418E+03   -0.37625E-04   -0.37688E-04  7072   0.246E-03-0.134E-05
CGA:  39    -0.354243272509E+03   -0.21091E-04   -0.21206E-04  7072   0.242E-03-0.364E-05
CGA:  40    -0.354243281066E+03   -0.85573E-05   -0.85412E-05  7072   0.174E-03-0.718E-06
CGA:  41    -0.354243297913E+03   -0.16847E-04   -0.16909E-04  7072   0.144E-03-0.150E-05
CGA:  42    -0.354243310839E+03   -0.12925E-04   -0.12937E-04  7072   0.154E-03-0.387E-06
CGA:  43    -0.354243316458E+03   -0.56195E-05   -0.56243E-05  7072   0.614E-04 0.225E-06
  19 F= -.35424332E+03 E0= -.35422625E+03  d E =-.450169E-01  mag=     8.0000
       N       E                     dE             d eps       ncg     rms          ort
SDA:   1    -0.282106853055E+03    0.72136E+02    0.00000E+00  7072   0.359E+03 0.000E+00
CGA:   2    -0.297488677970E+03   -0.15382E+02   -0.12638E+02  7072   0.243E+03 0.397E+02
CGA:   3    -0.322883355634E+03   -0.25395E+02   -0.27646E+02  7072   0.587E+03-0.142E+03
CGA:   4    -0.322743146443E+03    0.14021E+00   -0.15089E+02  7072   0.103E+04-0.394E+03
CGA:   5    -0.328965342063E+03   -0.62222E+01   -0.15768E+02  7072   0.101E+04-0.112E+04
CGA:   6    -0.321370437162E+03    0.75949E+01   -0.23097E+02  7072   0.116E+04-0.671E+03
CGA:   7    -0.330902831578E+03   -0.95324E+01   -0.17686E+02  7072   0.112E+04-0.153E+04
CGA:   8    -0.324639850001E+03    0.62630E+01   -0.24110E+02  7072   0.110E+04-0.742E+03
CGA:   9    -0.336911112055E+03   -0.12271E+02   -0.15295E+02  7072   0.556E+03-0.102E+04
CGA:  10    -0.337171223311E+03   -0.26011E+00   -0.95279E+01  7072   0.487E+03-0.415E+03
CGA:  11    -0.342048158629E+03   -0.48769E+01   -0.47725E+01  7072   0.292E+02-0.482E+02
CGA:  12    -0.344265866161E+03   -0.22177E+01   -0.21305E+01  7072   0.132E+03 0.243E+01
CGA:  13    -0.349643450385E+03   -0.53776E+01   -0.53547E+01  7072   0.102E+03-0.650E+00
CGA:  14    -0.351557958028E+03   -0.19145E+01   -0.23449E+01  7072   0.359E+02-0.105E+02
CGA:  15    -0.352220200043E+03   -0.66224E+00   -0.66315E+00  7072   0.800E+01-0.123E+00
CGA:  16    -0.352438955271E+03   -0.21876E+00   -0.22967E+00  7072   0.669E+01-0.465E-01
CGA:  17    -0.352722209143E+03   -0.28325E+00   -0.28364E+00  7072   0.633E+01 0.110E+00
CGA:  18    -0.352953655015E+03   -0.23145E+00   -0.23829E+00  7072   0.437E+01 0.300E+00
CGA:  19    -0.353094210738E+03   -0.14056E+00   -0.14152E+00  7072   0.228E+01 0.108E-02
CGA:  20    -0.353182235643E+03   -0.88025E-01   -0.89278E-01  7072   0.147E+01 0.127E+00
[...]
CGA:   9    -0.354729429992E+03   -0.79983E-03   -0.79983E-03  7072   0.156E-01 0.425E-05
CGA:  10    -0.354730055418E+03   -0.62543E-03   -0.62508E-03  7072   0.389E-02 0.654E-06
CGA:  11    -0.354730322556E+03   -0.26714E-03   -0.26716E-03  7072   0.269E-02-0.394E-05
CGA:  12    -0.354730522730E+03   -0.20017E-03   -0.20020E-03  7072   0.237E-02-0.180E-05
CGA:  13    -0.354730632691E+03   -0.10996E-03   -0.10994E-03  7072   0.109E-02-0.235E-05
CGA:  14    -0.354730701870E+03   -0.69179E-04   -0.69184E-04  7072   0.512E-03-0.233E-05
CGA:  15    -0.354730727384E+03   -0.25514E-04   -0.25518E-04  7072   0.506E-03 0.251E-06
CGA:  16    -0.354730756955E+03   -0.29571E-04   -0.29570E-04  7072   0.414E-03-0.744E-06
CGA:  17    -0.354730786642E+03   -0.29686E-04   -0.29697E-04  7072   0.127E-03-0.111E-05
CGA:  18    -0.354730795715E+03   -0.90735E-05   -0.90759E-05  7072   0.119E-03-0.290E-06
  69 F= -.35473080E+03 E0= -.35471457E+03  d E =0.386112E-03  mag=     8.0000
       N       E                     dE             d eps       ncg     rms          ort
SDA:   1    -0.354669690740E+03    0.61096E-01    0.00000E+00  7072   0.692E+00 0.000E+00
CGA:   2    -0.354684334494E+03   -0.14644E-01   -0.14657E-01  7072   0.155E+00-0.109E-02
CGA:   3    -0.354705439617E+03   -0.21105E-01   -0.21039E-01  7072   0.213E+00 0.935E-03
CGA:   4    -0.354715055377E+03   -0.96158E-02   -0.96242E-02  7072   0.122E+00 0.474E-04
CGA:   5    -0.354721462382E+03   -0.64070E-02   -0.63927E-02  7072   0.307E-01-0.380E-03
CGA:   6    -0.354724363431E+03   -0.29010E-02   -0.29001E-02  7072   0.394E-01 0.281E-04
CGA:   7    -0.354726079127E+03   -0.17157E-02   -0.17151E-02  7072   0.196E-01-0.288E-05
CGA:   8    -0.354726730027E+03   -0.65090E-03   -0.65071E-03  7072   0.392E-02 0.345E-05
CGA:   9    -0.354727035086E+03   -0.30506E-03   -0.30490E-03  7072   0.258E-02 0.774E-05
CGA:  10    -0.354727263094E+03   -0.22801E-03   -0.22805E-03  7072   0.180E-02-0.106E-05
CGA:  11    -0.354727334837E+03   -0.71743E-04   -0.71744E-04  7072   0.104E-02 0.408E-06
CGA:  12    -0.354727379327E+03   -0.44490E-04   -0.44538E-04  7072   0.388E-03 0.213E-05
CGA:  13    -0.354727416262E+03   -0.36935E-04   -0.36897E-04  7072   0.528E-03 0.114E-05
CGA:  14    -0.354727441416E+03   -0.25154E-04   -0.25162E-04  7072   0.219E-03 0.396E-06
CGA:  15    -0.354727452375E+03   -0.10959E-04   -0.10968E-04  7072   0.109E-03 0.745E-06
CGA:  16    -0.354727464967E+03   -0.12593E-04   -0.12529E-04  7072   0.203E-03 0.122E-05
CGA:  17    -0.354727472198E+03   -0.72307E-05   -0.72330E-05  7072   0.840E-04 0.608E-07
  70 F= -.35472747E+03 E0= -.35471121E+03  d E =0.332352E-02  mag=     8.0000
       N       E                     dE             d eps       ncg     rms          ort
SDA:   1    -0.354573279159E+03    0.15419E+00    0.00000E+00  7072   0.510E+00 0.000E+00
CGA:   2    -0.354624041028E+03   -0.50762E-01   -0.50566E-01  7072   0.934E+00 0.497E-02
CGA:   3    -0.354668497500E+03   -0.44456E-01   -0.44506E-01  7072   0.617E+00 0.136E-03
CGA:   4    -0.354691951248E+03   -0.23454E-01   -0.23594E-01  7072   0.126E+00-0.110E-02
CGA:   5    -0.354707831462E+03   -0.15880E-01   -0.15953E-01  7072   0.123E+00-0.115E-02
CGA:   6    -0.354713762465E+03   -0.59310E-02   -0.59277E-02  7072   0.629E-01-0.773E-05
CGA:   7    -0.354716505271E+03   -0.27428E-02   -0.27460E-02  7072   0.188E-01-0.120E-04
CGA:   8    -0.354717636957E+03   -0.11317E-02   -0.11318E-02  7072   0.908E-02 0.166E-04
CGA:   9    -0.354718453396E+03   -0.81644E-03   -0.81629E-03  7072   0.126E-01 0.657E-05
CGA:  10    -0.354718819785E+03   -0.36639E-03   -0.36619E-03  7072   0.216E-02 0.577E-05
CGA:  11    -0.354718962612E+03   -0.14283E-03   -0.14282E-03  7072   0.180E-02 0.428E-05
CGA:  12    -0.354719117302E+03   -0.15469E-03   -0.15468E-03  7072   0.973E-03 0.721E-06
CGA:  13    -0.354719177425E+03   -0.60124E-04   -0.60136E-04  7072   0.997E-03 0.346E-05
CGA:  14    -0.354719229667E+03   -0.52241E-04   -0.52270E-04  7072   0.282E-03 0.250E-05
CGA:  15    -0.354719260249E+03   -0.30582E-04   -0.30569E-04  7072   0.491E-03 0.324E-06
CGA:  16    -0.354719288058E+03   -0.27809E-04   -0.27806E-04  7072   0.498E-03-0.338E-06
CGA:  17    -0.354719308551E+03   -0.20493E-04   -0.20502E-04  7072   0.135E-03 0.228E-06
CGA:  18    -0.354719326328E+03   -0.17777E-04   -0.17789E-04  7072   0.214E-03-0.173E-06
CGA:  19    -0.354719341075E+03   -0.14747E-04   -0.14748E-04  7072   0.198E-03-0.124E-05
CGA:  20    -0.354719351419E+03   -0.10345E-04   -0.10330E-04  7072   0.962E-04-0.919E-06
CGA:  21    -0.354719358153E+03   -0.67335E-05   -0.67360E-05  7072   0.476E-04-0.894E-06
  71 F= -.35471936E+03 E0= -.35470308E+03  d E =0.811404E-02  mag=     8.0000
       N       E                     dE             d eps       ncg     rms          ort
SDA:   1    -0.354371338671E+03    0.34801E+00    0.00000E+00  7072   0.133E+01 0.000E+00
CGA:   2    -0.354445085389E+03   -0.73747E-01   -0.73854E-01  7072   0.230E+01 0.941E-03
CGA:   3    -0.354608514302E+03   -0.16343E+00   -0.16343E+00  7072   0.646E+00 0.237E-02
CGA:   4    -0.354643525694E+03   -0.35011E-01   -0.34591E-01  7072   0.354E+00-0.475E-02
CGA:   5    -0.354679989759E+03   -0.36464E-01   -0.36455E-01  7072   0.309E+00 0.266E-03
CGA:   6    -0.354691662347E+03   -0.11673E-01   -0.11640E-01  7072   0.138E+00 0.342E-03
CGA:   7    -0.354697543604E+03   -0.58813E-02   -0.58855E-02  7072   0.494E-01-0.287E-04
CGA:   8    -0.354700127120E+03   -0.25835E-02   -0.25866E-02  7072   0.342E-01 0.412E-04
CGA:   9    -0.354701847460E+03   -0.17203E-02   -0.17224E-02  7072   0.226E-01 0.217E-04
CGA:  10    -0.354703398721E+03   -0.15513E-02   -0.15512E-02  7072   0.481E-02 0.263E-04
CGA:  11    -0.354703721992E+03   -0.32327E-03   -0.32327E-03  7072   0.667E-02 0.513E-05
CGA:  12    -0.354704009305E+03   -0.28731E-03   -0.28751E-03  7072   0.304E-02-0.802E-06
CGA:  13    -0.354704229378E+03   -0.22007E-03   -0.22004E-03  7072   0.181E-02 0.361E-05
CGA:  14    -0.354704361701E+03   -0.13232E-03   -0.13232E-03  7072   0.113E-02 0.132E-05
CGA:  15    -0.354704408314E+03   -0.46613E-04   -0.46676E-04  7072   0.851E-03 0.195E-05
CGA:  16    -0.354704489486E+03   -0.81173E-04   -0.81146E-04  7072   0.105E-02 0.696E-06
CGA:  17    -0.354704541914E+03   -0.52428E-04   -0.52419E-04  7072   0.739E-03-0.356E-06
CGA:  18    -0.354704578090E+03   -0.36176E-04   -0.36172E-04  7072   0.311E-03-0.697E-06
CGA:  19    -0.354704619483E+03   -0.41394E-04   -0.41501E-04  7072   0.502E-03-0.173E-05
CGA:  20    -0.354704647768E+03   -0.28285E-04   -0.28272E-04  7072   0.517E-03-0.126E-05
CGA:  21    -0.354704668855E+03   -0.21087E-04   -0.21081E-04  7072   0.131E-03-0.389E-06
CGA:  22    -0.354704681073E+03   -0.12217E-04   -0.12229E-04  7072   0.189E-03-0.514E-06
CGA:  23    -0.354704695118E+03   -0.14045E-04   -0.14034E-04  7072   0.118E-03 0.166E-05
CGA:  24    -0.354704699304E+03   -0.41864E-05   -0.42071E-05  7072   0.579E-04 0.534E-06
  72 F= -.35470470E+03 E0= -.35468838E+03  d E =0.146588E-01  mag=     8.0000
       N       E                     dE             d eps       ncg     rms          ort
SDA:   1    -0.354406636902E+03    0.29806E+00    0.00000E+00  7072   0.102E+01 0.000E+00
CGA:   2    -0.354474190402E+03   -0.67554E-01   -0.67563E-01  7072   0.185E+01 0.571E-02
CGA:   3    -0.354611032876E+03   -0.13684E+00   -0.13689E+00  7072   0.830E+00-0.397E-02
CGA:   4    -0.354639979796E+03   -0.28947E-01   -0.28996E-01  7072   0.392E+00-0.911E-03
CGA:   5    -0.354661726590E+03   -0.21747E-01   -0.21726E-01  7072   0.315E+00-0.644E-03
CGA:   6    -0.354685278654E+03   -0.23552E-01   -0.23555E-01  7072   0.765E-01-0.205E-03
CGA:   7    -0.354689682740E+03   -0.44041E-02   -0.44056E-02  7072   0.403E-01 0.756E-04
CGA:   8    -0.354692036980E+03   -0.23542E-02   -0.23537E-02  7072   0.241E-01-0.258E-04
CGA:   9    -0.354693209960E+03   -0.11730E-02   -0.11724E-02  7072   0.156E-01-0.930E-05
CGA:  10    -0.354694218716E+03   -0.10088E-02   -0.10087E-02  7072   0.780E-02 0.448E-04
CGA:  11    -0.354694470888E+03   -0.25217E-03   -0.25191E-03  7072   0.359E-02 0.461E-05
CGA:  12    -0.354694732904E+03   -0.26202E-03   -0.26193E-03  7072   0.251E-02 0.606E-05
CGA:  13    -0.354694903482E+03   -0.17058E-03   -0.17055E-03  7072   0.130E-02 0.553E-05
CGA:  14    -0.354694999178E+03   -0.95695E-04   -0.95690E-04  7072   0.110E-02 0.360E-06
CGA:  15    -0.354695039799E+03   -0.40621E-04   -0.40623E-04  7072   0.393E-03-0.350E-07
CGA:  16    -0.354695083413E+03   -0.43614E-04   -0.43542E-04  7072   0.903E-03 0.126E-05
CGA:  17    -0.354695119111E+03   -0.35699E-04   -0.35705E-04  7072   0.295E-03-0.163E-06
CGA:  18    -0.354695138682E+03   -0.19571E-04   -0.19569E-04  7072   0.181E-03 0.542E-06
CGA:  19    -0.354695163206E+03   -0.24524E-04   -0.24623E-04  7072   0.345E-03-0.144E-05
CGA:  20    -0.354695178264E+03   -0.15058E-04   -0.15047E-04  7072   0.181E-03-0.625E-06
CGA:  21    -0.354695189036E+03   -0.10771E-04   -0.10766E-04  7072   0.121E-03-0.877E-06
CGA:  22    -0.354695194762E+03   -0.57260E-05   -0.57310E-05  7072   0.106E-03 0.206E-06
  73 F= -.35469519E+03 E0= -.35467885E+03  d E =0.950454E-02  mag=     8.0000
       N       E                     dE             d eps       ncg     rms          ort
SDA:   1    -0.354117881319E+03    0.57731E+00    0.00000E+00  7072   0.157E+01 0.000E+00
CGA:   2    -0.354316274017E+03   -0.19839E+00   -0.19676E+00  7072   0.512E+01 0.285E-01
CGA:   3    -0.354544501746E+03   -0.22823E+00   -0.22715E+00  7072   0.138E+01-0.185E-02
CGA:   4    -0.354601041183E+03   -0.56539E-01   -0.56071E-01  7072   0.538E+00 0.195E-02
CGA:   5    -0.354646555279E+03   -0.45514E-01   -0.45486E-01  7072   0.639E+00 0.119E-02
CGA:   6    -0.354671881727E+03   -0.25326E-01   -0.25217E-01  7072   0.128E+00 0.658E-03
CGA:   7    -0.354678991172E+03   -0.71094E-02   -0.71089E-02  7072   0.578E-01-0.200E-05
CGA:   8    -0.354682004004E+03   -0.30128E-02   -0.30130E-02  7072   0.568E-01 0.979E-05
CGA:   9    -0.354684714352E+03   -0.27103E-02   -0.27098E-02  7072   0.273E-01 0.733E-05
CGA:  10    -0.354686473991E+03   -0.17596E-02   -0.17597E-02  7072   0.819E-02-0.175E-04
CGA:  11    -0.354686871935E+03   -0.39794E-03   -0.39837E-03  7072   0.566E-02 0.108E-04
CGA:  12    -0.354687239832E+03   -0.36790E-03   -0.36788E-03  7072   0.573E-02 0.625E-05
CGA:  13    -0.354687572873E+03   -0.33304E-03   -0.33307E-03  7072   0.206E-02 0.516E-05
CGA:  14    -0.354687634498E+03   -0.61625E-04   -0.61650E-04  7072   0.840E-03-0.155E-06
CGA:  15    -0.354687745563E+03   -0.11106E-03   -0.11096E-03  7072   0.792E-03 0.150E-05
CGA:  16    -0.354687791930E+03   -0.46367E-04   -0.46368E-04  7072   0.654E-03-0.244E-07
CGA:  17    -0.354687826687E+03   -0.34757E-04   -0.34765E-04  7072   0.447E-03 0.709E-06
CGA:  18    -0.354687847335E+03   -0.20648E-04   -0.20658E-04  7072   0.247E-03 0.312E-06
CGA:  19    -0.354687870096E+03   -0.22761E-04   -0.22765E-04  7072   0.480E-03-0.217E-06
CGA:  20    -0.354687896242E+03   -0.26147E-04   -0.26126E-04  7072   0.167E-03-0.212E-05
CGA:  21    -0.354687908746E+03   -0.12503E-04   -0.12498E-04  7072   0.125E-03 0.352E-06
CGA:  22    -0.354687915686E+03   -0.69397E-05   -0.69405E-05  7072   0.144E-03 0.515E-07
  74 F= -.35468792E+03 E0= -.35467156E+03  d E =0.727908E-02  mag=     8.0000
       N       E                     dE             d eps       ncg     rms          ort
SDA:   1    -0.352897241938E+03    0.17907E+01    0.00000E+00  7072   0.498E+01 0.000E+00
CGA:   2    -0.353460512245E+03   -0.56327E+00   -0.55715E+00  7072   0.134E+02 0.112E+00
CGA:   3    -0.354273757177E+03   -0.81324E+00   -0.80865E+00  7072   0.343E+01-0.235E+00
CGA:   4    -0.354455876037E+03   -0.18212E+00   -0.18236E+00  7072   0.164E+01 0.488E-02
CGA:   5    -0.354578466153E+03   -0.12259E+00   -0.12282E+00  7072   0.119E+01-0.143E-01
CGA:   6    -0.354632810180E+03   -0.54344E-01   -0.54711E-01  7072   0.507E+00 0.169E-02
CGA:   7    -0.354655986192E+03   -0.23176E-01   -0.23230E-01  7072   0.167E+00 0.244E-03
CGA:   8    -0.354666392932E+03   -0.10407E-01   -0.10404E-01  7072   0.957E-01-0.860E-03
CGA:   9    -0.354674202756E+03   -0.78098E-02   -0.78058E-02  7072   0.859E-01 0.170E-03
CGA:  10    -0.354677629212E+03   -0.34265E-02   -0.34454E-02  7072   0.259E-01-0.780E-04
CGA:  11    -0.354679059316E+03   -0.14301E-02   -0.14307E-02  7072   0.151E-01 0.285E-04
CGA:  12    -0.354680039346E+03   -0.98003E-03   -0.98000E-03  7072   0.158E-01 0.733E-05
CGA:  13    -0.354680631770E+03   -0.59242E-03   -0.59322E-03  7072   0.591E-02-0.203E-05
CGA:  14    -0.354681095460E+03   -0.46369E-03   -0.46367E-03  7072   0.382E-02-0.157E-05
CGA:  15    -0.354681237700E+03   -0.14224E-03   -0.14259E-03  7072   0.155E-02-0.363E-05
CGA:  16    -0.354681399391E+03   -0.16169E-03   -0.16164E-03  7072   0.181E-02 0.937E-06
CGA:  17    -0.354681517259E+03   -0.11787E-03   -0.11785E-03  7072   0.999E-03 0.481E-05
CGA:  18    -0.354681559153E+03   -0.41894E-04   -0.41909E-04  7072   0.588E-03 0.735E-06
CGA:  19    -0.354681597996E+03   -0.38843E-04   -0.38834E-04  7072   0.623E-03 0.164E-05
CGA:  20    -0.354681637603E+03   -0.39607E-04   -0.39607E-04  7072   0.651E-03-0.631E-06
CGA:  21    -0.354681675114E+03   -0.37512E-04   -0.37512E-04  7072   0.262E-03-0.270E-06
CGA:  22    -0.354681690194E+03   -0.15080E-04   -0.15082E-04  7072   0.159E-03-0.821E-07
CGA:  23    -0.354681704820E+03   -0.14626E-04   -0.14630E-04  7072   0.212E-03-0.310E-06
CGA:  24    -0.354681715611E+03   -0.10790E-04   -0.10780E-04  7072   0.120E-03-0.101E-05
CGA:  25    -0.354681722989E+03   -0.73786E-05   -0.73789E-05  7072   0.820E-04 0.112E-06
  75 F= -.35468172E+03 E0= -.35466543E+03  d E =0.619270E-02  mag=     8.0000
       N       E                     dE             d eps       ncg     rms          ort
SDA:   1    -0.352916294584E+03    0.17654E+01    0.00000E+00  7072   0.469E+01 0.000E+00
CGA:   2    -0.353506291870E+03   -0.59000E+00   -0.58034E+00  7072   0.164E+02 0.172E+00
CGA:   3    -0.354305685647E+03   -0.79939E+00   -0.79072E+00  7072   0.241E+01-0.609E-01
CGA:   4    -0.354448896166E+03   -0.14321E+00   -0.14328E+00  7072   0.262E+01 0.741E-02
CGA:   5    -0.354573411415E+03   -0.12452E+00   -0.12364E+00  7072   0.932E+00-0.919E-02
CGA:   6    -0.354633210135E+03   -0.59799E-01   -0.59790E-01  7072   0.516E+00 0.325E-02
CGA:   7    -0.354650557980E+03   -0.17348E-01   -0.17351E-01  7072   0.191E+00-0.200E-03
CGA:   8    -0.354661311722E+03   -0.10754E-01   -0.10751E-01  7072   0.116E+00-0.221E-03
CGA:   9    -0.354669334316E+03   -0.80226E-02   -0.80240E-02  7072   0.106E+00-0.994E-04
CGA:  10    -0.354673530019E+03   -0.41957E-02   -0.41949E-02  7072   0.277E-01 0.239E-05
CGA:  11    -0.354675077080E+03   -0.15471E-02   -0.15475E-02  7072   0.211E-01 0.435E-04
CGA:  12    -0.354676132048E+03   -0.10550E-02   -0.10552E-02  7072   0.141E-01 0.422E-05
CGA:  13    -0.354676933577E+03   -0.80153E-03   -0.80155E-03  7072   0.818E-02-0.151E-05
CGA:  14    -0.354677385928E+03   -0.45235E-03   -0.45236E-03  7072   0.378E-02-0.173E-06
CGA:  15    -0.354677549956E+03   -0.16403E-03   -0.16403E-03  7072   0.236E-02-0.518E-06
CGA:  16    -0.354677713798E+03   -0.16384E-03   -0.16384E-03  7072   0.199E-02-0.176E-05
CGA:  17    -0.354677824393E+03   -0.11060E-03   -0.11060E-03  7072   0.154E-02 0.177E-06
CGA:  18    -0.354677903092E+03   -0.78699E-04   -0.78739E-04  7072   0.684E-03 0.124E-05
CGA:  19    -0.354677945766E+03   -0.42674E-04   -0.42668E-04  7072   0.514E-03 0.112E-05
CGA:  20    -0.354677974777E+03   -0.29011E-04   -0.29013E-04  7072   0.594E-03 0.162E-06
CGA:  21    -0.354678024800E+03   -0.50023E-04   -0.50009E-04  7072   0.368E-03 0.465E-06
CGA:  22    -0.354678038745E+03   -0.13945E-04   -0.13948E-04  7072   0.160E-03-0.320E-06
CGA:  23    -0.354678050527E+03   -0.11782E-04   -0.11782E-04  7072   0.187E-03-0.222E-06
CGA:  24    -0.354678064494E+03   -0.13966E-04   -0.13966E-04  7072   0.155E-03-0.165E-06
CGA:  25    -0.354678070614E+03   -0.61209E-05   -0.61249E-05  7072   0.779E-04 0.587E-07
  76 F= -.35467807E+03 E0= -.35466183E+03  d E =0.365237E-02  mag=     8.0000
       N       E                     dE             d eps       ncg     rms          ort
SDA:   1    -0.354412868865E+03    0.26520E+00    0.00000E+00  7072   0.936E+00 0.000E+00
CGA:   2    -0.354467035750E+03   -0.54167E-01   -0.54182E-01  7072   0.165E+01 0.340E-02
CGA:   3    -0.354587663340E+03   -0.12063E+00   -0.12068E+00  7072   0.799E+00-0.252E-02
CGA:   4    -0.354628332152E+03   -0.40669E-01   -0.40747E-01  7072   0.324E+00 0.259E-02
CGA:   5    -0.354649684549E+03   -0.21352E-01   -0.21372E-01  7072   0.253E+00-0.204E-02
CGA:   6    -0.354661781249E+03   -0.12097E-01   -0.12082E-01  7072   0.144E+00-0.314E-03
CGA:   7    -0.354669653097E+03   -0.78718E-02   -0.78716E-02  7072   0.370E-01-0.414E-04
CGA:   8    -0.354671462233E+03   -0.18091E-02   -0.18106E-02  7072   0.303E-01 0.391E-04
CGA:   9    -0.354672797905E+03   -0.13357E-02   -0.13356E-02  7072   0.159E-01 0.790E-05
CGA:  10    -0.354674051838E+03   -0.12539E-02   -0.12532E-02  7072   0.459E-02 0.311E-04
CGA:  11    -0.354674387174E+03   -0.33534E-03   -0.33531E-03  7072   0.431E-02 0.119E-05
CGA:  12    -0.354674554351E+03   -0.16718E-03   -0.16711E-03  7072   0.243E-02-0.468E-05
CGA:  13    -0.354674739563E+03   -0.18521E-03   -0.18522E-03  7072   0.170E-02-0.144E-05
CGA:  14    -0.354674819723E+03   -0.80159E-04   -0.80101E-04  7072   0.866E-03-0.459E-05
CGA:  15    -0.354674860021E+03   -0.40299E-04   -0.40269E-04  7072   0.469E-03-0.303E-05
CGA:  16    -0.354674902098E+03   -0.42077E-04   -0.42133E-04  7072   0.433E-03-0.196E-05
CGA:  17    -0.354674927252E+03   -0.25153E-04   -0.25150E-04  7072   0.394E-03-0.197E-05
CGA:  18    -0.354674944133E+03   -0.16881E-04   -0.16848E-04  7072   0.185E-03-0.217E-05
CGA:  19    -0.354674955452E+03   -0.11319E-04   -0.11320E-04  7072   0.913E-04-0.309E-06
CGA:  20    -0.354674970051E+03   -0.14599E-04   -0.14520E-04  7072   0.219E-03 0.761E-06
CGA:  21    -0.354674977364E+03   -0.73131E-05   -0.73396E-05  7072   0.568E-04 0.785E-06
  77 F= -.35467498E+03 E0= -.35465868E+03  d E =0.309325E-02  mag=     8.0000
       N       E                     dE             d eps       ncg     rms          ort
SDA:   1    -0.354571932373E+03    0.10304E+00    0.00000E+00  7072   0.463E+00 0.000E+00
CGA:   2    -0.354587637810E+03   -0.15705E-01   -0.15755E-01  7072   0.412E+00-0.803E-03
CGA:   3    -0.354645614444E+03   -0.57977E-01   -0.57943E-01  7072   0.258E+00 0.451E-03
CGA:   4    -0.354655235163E+03   -0.96207E-02   -0.96136E-02  7072   0.111E+00 0.712E-04
CGA:   5    -0.354662784769E+03   -0.75496E-02   -0.75507E-02  7072   0.106E+00-0.149E-03
CGA:   6    -0.354668612083E+03   -0.58273E-02   -0.58322E-02  7072   0.226E-01 0.177E-03
CGA:   7    -0.354670196803E+03   -0.15847E-02   -0.15855E-02  7072   0.856E-02-0.773E-04
CGA:   8    -0.354670833291E+03   -0.63649E-03   -0.63642E-03  7072   0.849E-02 0.364E-05
CGA:   9    -0.354671223955E+03   -0.39066E-03   -0.39072E-03  7072   0.464E-02-0.605E-06
CGA:  10    -0.354671423713E+03   -0.19976E-03   -0.19973E-03  7072   0.168E-02-0.832E-06
CGA:  11    -0.354671522254E+03   -0.98541E-04   -0.98549E-04  7072   0.167E-02 0.108E-05
CGA:  12    -0.354671596137E+03   -0.73883E-04   -0.73975E-04  7072   0.535E-03 0.355E-05
CGA:  13    -0.354671657162E+03   -0.61025E-04   -0.60872E-04  7072   0.292E-03 0.273E-05
CGA:  14    -0.354671674111E+03   -0.16949E-04   -0.16964E-04  7072   0.158E-03 0.184E-05
CGA:  15    -0.354671684458E+03   -0.10347E-04   -0.10347E-04  7072   0.207E-03 0.445E-06
CGA:  16    -0.354671698036E+03   -0.13577E-04   -0.13576E-04  7072   0.112E-03 0.126E-05
CGA:  17    -0.354671703158E+03   -0.51224E-05   -0.51301E-05  7072   0.706E-04 0.233E-06
  78 F= -.35467170E+03 E0= -.35465541E+03  d E =0.327421E-02  mag=     8.0000
