       N       E                     dE             d eps       ncg     rms          rms(c)
DAV:   1     0.580259922063E+04    0.58026E+04   -0.21674E+05 28640   0.158E+03
DAV:   2     0.567591454655E+03   -0.52350E+04   -0.48989E+04 28960   0.474E+02
DAV:   3    -0.374737796554E+03   -0.94233E+03   -0.92475E+03 30408   0.205E+02
DAV:   4    -0.417074465302E+03   -0.42337E+02   -0.41262E+02 34808   0.484E+01
DAV:   5    -0.419025255662E+03   -0.19508E+01   -0.18611E+01 40872   0.962E+00    0.864E+01
DAV:   6    -0.311166386930E+03    0.10786E+03   -0.44927E+02 38376   0.710E+01    0.400E+01
DAV:   7    -0.342530552195E+03   -0.31364E+02   -0.34015E+02 39960   0.476E+01    0.418E+01
DAV:   8    -0.341743678195E+03    0.78687E+00   -0.63549E+01 37096   0.253E+01    0.410E+01
DAV:   9    -0.336459511264E+03    0.52842E+01   -0.47240E+01 36752   0.131E+01    0.404E+01
DAV:  10    -0.335810544415E+03    0.64897E+00   -0.89606E+01 36800   0.970E+00    0.380E+01
DAV:  11    -0.335062274240E+03    0.74827E+00   -0.12345E+02 36400   0.970E+00    0.339E+01
DAV:  12    -0.331246877717E+03    0.38154E+01   -0.41676E+01 38864   0.114E+01    0.253E+01
DAV:  13    -0.337243462379E+03   -0.59966E+01   -0.15232E+01 38944   0.103E+01    0.370E+01
DAV:  14    -0.342185508040E+03   -0.49420E+01   -0.12659E+02 37816   0.112E+01    0.310E+01
DAV:  15    -0.343858548917E+03   -0.16730E+01   -0.12980E+01 36352   0.969E+00    0.241E+01
DAV:  16    -0.343586534287E+03    0.27201E+00   -0.43643E+00 36600   0.487E+00    0.145E+01
DAV:  17    -0.345791949346E+03   -0.22054E+01   -0.35531E+00 35736   0.422E+00    0.184E+01
DAV:  18    -0.347848957360E+03   -0.20570E+01   -0.61202E+00 35800   0.461E+00    0.138E+01
DAV:  19    -0.348612130142E+03   -0.76317E+00   -0.81905E-01 34472   0.254E+00    0.114E+01
DAV:  20    -0.349299087920E+03   -0.68696E+00   -0.27855E-01 34208   0.165E+00    0.738E+00
DAV:  21    -0.350088756066E+03   -0.78967E+00   -0.20890E-01 34696   0.119E+00    0.691E+00
DAV:  22    -0.351253704793E+03   -0.11649E+01   -0.48933E-01 35400   0.214E+00    0.696E+00
DAV:  23    -0.352771331860E+03   -0.15176E+01   -0.12150E+00 35264   0.273E+00    0.659E+00
DAV:  24    -0.353348422625E+03   -0.57709E+00   -0.42041E-01 34808   0.205E+00    0.635E+00
DAV:  25    -0.353839582289E+03   -0.49116E+00   -0.38442E-01 34032   0.159E+00    0.459E+00
DAV:  26    -0.354136785338E+03   -0.29720E+00   -0.15493E-01 34800   0.109E+00    0.353E+00
DAV:  27    -0.354292527423E+03   -0.15574E+00   -0.77665E-02 36776   0.921E-01    0.354E+00
DAV:  28    -0.354351052855E+03   -0.58525E-01   -0.22942E-02 32336   0.466E-01    0.341E+00
DAV:  29    -0.354441220033E+03   -0.90167E-01   -0.49728E-02 36312   0.698E-01    0.281E+00
DAV:  30    -0.354489333394E+03   -0.48113E-01   -0.71982E-02 36944   0.720E-01    0.210E+00
DAV:  31    -0.354560451508E+03   -0.71118E-01   -0.10011E-01 34360   0.778E-01    0.232E+00
DAV:  32    -0.354605557087E+03   -0.45106E-01   -0.40786E-02 31840   0.512E-01    0.118E+00
DAV:  33    -0.354649317680E+03   -0.43761E-01   -0.28666E-02 33904   0.414E-01    0.221E+00
DAV:  34    -0.354655390356E+03   -0.60727E-02   -0.81231E-02 34048   0.613E-01    0.131E+00
DAV:  35    -0.354664346022E+03   -0.89557E-02   -0.97562E-03 30320   0.239E-01    0.196E+00
DAV:  36    -0.354663904146E+03    0.44188E-03   -0.88321E-04 32352   0.102E-01    0.192E+00
DAV:  37    -0.354664065398E+03   -0.16125E-03   -0.62985E-04 38520   0.837E-02    0.187E+00
DAV:  38    -0.354661430359E+03    0.26350E-02   -0.41095E-03 37544   0.144E-01    0.115E+00
DAV:  39    -0.354660275777E+03    0.11546E-02   -0.74747E-03 35704   0.203E-01    0.400E-01
DAV:  40    -0.354661352950E+03   -0.10772E-02   -0.39114E-03 32200   0.172E-01    0.775E-01
DAV:  41    -0.354660336885E+03    0.10161E-02   -0.16026E-03 35328   0.121E-01    0.465E-01
DAV:  42    -0.354660237266E+03    0.99620E-04   -0.17444E-03 37736   0.998E-02    0.280E-01
DAV:  43    -0.354660275718E+03   -0.38452E-04   -0.19230E-04 30720   0.507E-02    0.231E-01
DAV:  44    -0.354660152834E+03    0.12288E-03   -0.37151E-04 36240   0.547E-02    0.183E-01
DAV:  45    -0.354660068290E+03    0.84543E-04   -0.19507E-04 32864   0.417E-02    0.161E-01
DAV:  46    -0.354660028781E+03    0.39509E-04   -0.78094E-05 28552   0.277E-02    0.940E-02
DAV:  47    -0.354660045820E+03   -0.17039E-04   -0.34727E-05 22096   0.196E-02    0.115E-01
DAV:  48    -0.354660024246E+03    0.21574E-04   -0.25452E-05 20544   0.166E-02    0.794E-02
DAV:  49    -0.354660019251E+03    0.49949E-05   -0.17434E-05 17672   0.126E-02
   1 F= -.35466002E+03 E0= -.35464450E+03  d E =-.354660E+03  mag=     8.0103
       N       E                     dE             d eps       ncg     rms          rms(c)
DAV:   1    -0.354661682445E+03   -0.16582E-02   -0.88534E-04 30560   0.817E-02    0.364E-02
DAV:   2    -0.354661789932E+03   -0.10749E-03   -0.38788E-04 30208   0.521E-02    0.219E-01
DAV:   3    -0.354661683058E+03    0.10687E-03   -0.34025E-04 22264   0.431E-02    0.652E-02
DAV:   4    -0.354661688220E+03   -0.51617E-05   -0.16218E-05 18000   0.129E-02
   2 F= -.35466169E+03 E0= -.35464616E+03  d E =-.166897E-02  mag=     8.0077
       N       E                     dE             d eps       ncg     rms          rms(c)
DAV:   1    -0.354736038704E+03   -0.74356E-01   -0.28908E+00 31608   0.455E+00    0.399E-01
DAV:   2    -0.354752814078E+03   -0.16775E-01   -0.17372E-01 28512   0.861E-01    0.739E-01
DAV:   3    -0.354752781615E+03    0.32463E-04   -0.10603E-02 42832   0.270E-01    0.672E-01
DAV:   4    -0.354752395819E+03    0.38580E-03   -0.62184E-03 39536   0.186E-01    0.527E-01
DAV:   5    -0.354752142464E+03    0.25336E-03   -0.31748E-03 39024   0.150E-01    0.474E-01
DAV:   6    -0.354751877974E+03    0.26449E-03   -0.12827E-03 38408   0.105E-01    0.294E-01
DAV:   7    -0.354751887692E+03   -0.97189E-05   -0.92542E-04 37224   0.117E-01    0.340E-01
DAV:   8    -0.354751774640E+03    0.11305E-03   -0.93713E-04 38800   0.106E-01    0.299E-01
DAV:   9    -0.354751670095E+03    0.10455E-03   -0.32661E-04 35960   0.681E-02    0.157E-01
DAV:  10    -0.354751648683E+03    0.21412E-04   -0.13213E-04 30328   0.483E-02    0.739E-02
DAV:  11    -0.354751646412E+03    0.22711E-05   -0.61855E-05 23848   0.248E-02
   3 F= -.35475165E+03 E0= -.35473615E+03  d E =-.899582E-01  mag=     8.0021
       N       E                     dE             d eps       ncg     rms          rms(c)
DAV:   1    -0.354839875919E+03   -0.88227E-01   -0.18976E+01 31384   0.114E+01    0.971E-01
DAV:   2    -0.354942027287E+03   -0.10215E+00   -0.10571E+00 28672   0.215E+00    0.174E+00
DAV:   3    -0.354943079111E+03   -0.10518E-02   -0.50984E-02 42952   0.658E-01    0.173E+00
DAV:   4    -0.354939421443E+03    0.36577E-02   -0.22890E-02 39816   0.453E-01    0.119E+00
DAV:   5    -0.354938691432E+03    0.73001E-03   -0.21900E-02 40168   0.364E-01    0.113E+00
DAV:   6    -0.354936877934E+03    0.18135E-02   -0.14464E-02 38480   0.254E-01    0.657E-01
DAV:   7    -0.354936428990E+03    0.44894E-03   -0.40123E-03 36360   0.242E-01    0.669E-01
DAV:   8    -0.354936227023E+03    0.20197E-03   -0.40386E-03 39112   0.223E-01    0.671E-01
DAV:   9    -0.354935633145E+03    0.59388E-03   -0.15540E-03 39384   0.158E-01    0.326E-01
DAV:  10    -0.354935594591E+03    0.38554E-04   -0.81481E-04 38448   0.999E-02    0.204E-01
DAV:  11    -0.354935524610E+03    0.69981E-04   -0.37747E-04 32792   0.589E-02    0.767E-02
DAV:  12    -0.354935530403E+03   -0.57933E-05   -0.60056E-05 27448   0.300E-02
   4 F= -.35493553E+03 E0= -.35492010E+03  d E =-.183884E+00  mag=     8.0005
       N       E                     dE             d eps       ncg     rms          rms(c)
DAV:   1    -0.354976511686E+03   -0.40987E-01   -0.24836E+01 30832   0.127E+01    0.104E+00
DAV:   2    -0.355088177746E+03   -0.11167E+00   -0.11694E+00 28688   0.234E+00    0.168E+00
DAV:   3    -0.355094421424E+03   -0.62437E-02   -0.63830E-02 43584   0.746E-01    0.231E+00
DAV:   4    -0.355084300893E+03    0.10121E-01   -0.24708E-02 41400   0.501E-01    0.992E-01
DAV:   5    -0.355085181397E+03   -0.88050E-03   -0.21236E-02 39888   0.334E-01    0.114E+00
DAV:   6    -0.355082928200E+03    0.22532E-02   -0.14238E-02 39024   0.258E-01    0.556E-01
DAV:   7    -0.355082397751E+03    0.53045E-03   -0.40260E-03 35288   0.230E-01    0.554E-01
DAV:   8    -0.355082046072E+03    0.35168E-03   -0.41807E-03 38456   0.192E-01    0.402E-01
DAV:   9    -0.355081952510E+03    0.93562E-04   -0.14736E-03 39008   0.126E-01    0.308E-01
DAV:  10    -0.355081871125E+03    0.81386E-04   -0.72713E-04 36536   0.845E-02    0.195E-01
DAV:  11    -0.355081814555E+03    0.56569E-04   -0.27317E-04 29840   0.558E-02    0.608E-02
DAV:  12    -0.355081826779E+03   -0.12224E-04   -0.49151E-05 26992   0.281E-02    0.582E-02
DAV:  13    -0.355081825614E+03    0.11650E-05   -0.31468E-05 21088   0.233E-02
   5 F= -.35508183E+03 E0= -.35506646E+03  d E =-.146295E+00  mag=     8.0001
       N       E                     dE             d eps       ncg     rms          rms(c)
DAV:   1    -0.355026589924E+03    0.55237E-01   -0.50542E+01 30928   0.175E+01    0.139E+00
DAV:   2    -0.355210068310E+03   -0.18348E+00   -0.19452E+00 28744   0.306E+00    0.199E+00
DAV:   3    -0.355224508139E+03   -0.14440E-01   -0.13824E-01 43536   0.102E+00    0.333E+00
DAV:   4    -0.355203707327E+03    0.20801E-01   -0.58017E-02 40016   0.680E-01    0.134E+00
DAV:   5    -0.355204046552E+03   -0.33923E-03   -0.26549E-02 39536   0.412E-01    0.120E+00
DAV:   6    -0.355202881712E+03    0.11648E-02   -0.19259E-02 38696   0.337E-01    0.101E+00
DAV:   7    -0.355200749797E+03    0.21319E-02   -0.80181E-03 36344   0.349E-01    0.697E-01
DAV:   8    -0.355199945590E+03    0.80421E-03   -0.41329E-03 37328   0.231E-01    0.345E-01
DAV:   9    -0.355200410291E+03   -0.46470E-03   -0.33803E-03 40464   0.167E-01    0.429E-01
DAV:  10    -0.355199937885E+03    0.47241E-03   -0.14603E-03 38712   0.117E-01    0.153E-01
DAV:  11    -0.355200028621E+03   -0.90736E-04   -0.34419E-04 36432   0.606E-02    0.219E-01
DAV:  12    -0.355199943944E+03    0.84677E-04   -0.16548E-04 29048   0.476E-02    0.662E-02
DAV:  13    -0.355199955375E+03   -0.11431E-04   -0.38428E-05 22312   0.279E-02    0.608E-02
DAV:  14    -0.355199949420E+03    0.59551E-05   -0.30593E-05 20392   0.242E-02
   6 F= -.35519995E+03 E0= -.35518459E+03  d E =-.118124E+00  mag=     8.0000
       N       E                     dE             d eps       ncg     rms          rms(c)
DAV:   1    -0.355046013404E+03    0.15394E+00   -0.68337E+01 30816   0.198E+01    0.152E+00
DAV:   2    -0.355271347173E+03   -0.22533E+00   -0.23614E+00 28640   0.347E+00    0.235E+00
DAV:   3    -0.355280650865E+03   -0.93037E-02   -0.20047E-01 43120   0.107E+00    0.321E+00
DAV:   4    -0.355263455876E+03    0.17195E-01   -0.91762E-02 37600   0.698E-01    0.165E+00
DAV:   5    -0.355261586157E+03    0.18697E-02   -0.26385E-02 39504   0.507E-01    0.124E+00
DAV:   6    -0.355262747394E+03   -0.11612E-02   -0.23200E-02 38584   0.396E-01    0.150E+00
DAV:   7    -0.355262490508E+03    0.25689E-03   -0.20341E-02 38008   0.481E-01    0.168E+00
DAV:   8    -0.355257230505E+03    0.52600E-02   -0.13817E-02 37584   0.368E-01    0.619E-01
DAV:   9    -0.355257834454E+03   -0.60395E-03   -0.54923E-03 38232   0.252E-01    0.642E-01
DAV:  10    -0.355257516478E+03    0.31798E-03   -0.33055E-03 37600   0.185E-01    0.521E-01
DAV:  11    -0.355257215795E+03    0.30068E-03   -0.14623E-03 37072   0.126E-01    0.238E-01
DAV:  12    -0.355257256424E+03   -0.40629E-04   -0.37383E-04 37400   0.786E-02    0.172E-01
DAV:  13    -0.355257226589E+03    0.29835E-04   -0.11035E-04 26736   0.426E-02    0.116E-01
DAV:  14    -0.355257244279E+03   -0.17690E-04   -0.44237E-05 22888   0.237E-02    0.139E-01
DAV:  15    -0.355257228513E+03    0.15766E-04   -0.36211E-05 22112   0.254E-02    0.102E-01
DAV:  16    -0.355257216456E+03    0.12057E-04   -0.39958E-05 23496   0.273E-02    0.846E-02
DAV:  17    -0.355257202847E+03    0.13609E-04   -0.48991E-05 24104   0.313E-02    0.608E-02
DAV:  18    -0.355257196537E+03    0.63095E-05   -0.32173E-05 21528   0.240E-02
   7 F= -.35525720E+03 E0= -.35524189E+03  d E =-.572471E-01  mag=     8.0000
       N       E                     dE             d eps       ncg     rms          rms(c)
DAV:   1    -0.355115760134E+03    0.14144E+00   -0.47318E+01 29728   0.169E+01    0.120E+00
DAV:   2    -0.355271915686E+03   -0.15616E+00   -0.16244E+00 28696   0.294E+00    0.174E+00
DAV:   3    -0.355281634524E+03   -0.97188E-02   -0.12660E-01 41496   0.908E-01    0.283E+00
DAV:   4    -0.355267365144E+03    0.14269E-01   -0.57697E-02 38776   0.576E-01    0.125E+00
DAV:   5    -0.355267037860E+03    0.32728E-03   -0.15494E-02 40344   0.372E-01    0.910E-01
DAV:   6    -0.355267275136E+03   -0.23728E-03   -0.11624E-02 39144   0.300E-01    0.102E+00
DAV:   7    -0.355266760005E+03    0.51513E-03   -0.94409E-03 36696   0.331E-01    0.107E+00
DAV:   8    -0.355264426496E+03    0.23335E-02   -0.65451E-03 38176   0.262E-01    0.438E-01
DAV:   9    -0.355264823174E+03   -0.39668E-03   -0.35962E-03 38376   0.197E-01    0.471E-01
DAV:  10    -0.355264633831E+03    0.18934E-03   -0.21749E-03 38120   0.153E-01    0.389E-01
DAV:  11    -0.355264537372E+03    0.96460E-04   -0.89029E-04 36832   0.948E-02    0.204E-01
DAV:  12    -0.355264577618E+03   -0.40247E-04   -0.20815E-04 30640   0.571E-02    0.143E-01
DAV:  13    -0.355264569061E+03    0.85572E-05   -0.43792E-05 22176   0.278E-02
   8 F= -.35526457E+03 E0= -.35524930E+03  d E =-.737252E-02  mag=     8.0000
       N       E                     dE             d eps       ncg     rms          rms(c)
DAV:   1    -0.355102980240E+03    0.16160E+00   -0.52700E+01 31136   0.186E+01    0.112E+00
DAV:   2    -0.355275503042E+03   -0.17252E+00   -0.17973E+00 28320   0.318E+00    0.113E+00
DAV:   3    -0.355282672531E+03   -0.71695E-02   -0.65992E-02 39544   0.772E-01    0.225E+00
DAV:   4    -0.355274172309E+03    0.85002E-02   -0.44896E-02 39416   0.530E-01    0.115E+00
DAV:   5    -0.355272963838E+03    0.12085E-02   -0.12053E-02 39952   0.302E-01    0.755E-01
DAV:   6    -0.355274367230E+03   -0.14034E-02   -0.11302E-02 38800   0.281E-01    0.125E+00
DAV:   7    -0.355271132517E+03    0.32347E-02   -0.90364E-03 36120   0.323E-01    0.570E-01
DAV:   8    -0.355270816738E+03    0.31578E-03   -0.42878E-03 38328   0.226E-01    0.312E-01
DAV:   9    -0.355271118767E+03   -0.30203E-03   -0.24917E-03 38752   0.156E-01    0.458E-01
DAV:  10    -0.355270704106E+03    0.41466E-03   -0.12137E-03 39128   0.119E-01    0.151E-01
DAV:  11    -0.355270823166E+03   -0.11906E-03   -0.36935E-04 36336   0.646E-02    0.219E-01
DAV:  12    -0.355270749655E+03    0.73511E-04   -0.22788E-04 29920   0.514E-02    0.997E-02
DAV:  13    -0.355270750887E+03   -0.12321E-05   -0.63361E-05 23512   0.361E-02
   9 F= -.35527075E+03 E0= -.35525568E+03  d E =-.618183E-02  mag=     8.0000
       N       E                     dE             d eps       ncg     rms          rms(c)
DAV:   1    -0.354929081833E+03    0.34167E+00   -0.48431E+01 32112   0.198E+01    0.170E+00
DAV:   2    -0.355259579957E+03   -0.33050E+00   -0.33770E+00 28536   0.411E+00    0.382E+00
DAV:   3    -0.355238397164E+03    0.21183E-01   -0.19483E-01 37712   0.123E+00    0.274E+00
DAV:   4    -0.355234142543E+03    0.42546E-02   -0.96849E-02 38616   0.645E-01    0.228E+00
DAV:   5    -0.355232269874E+03    0.18727E-02   -0.38872E-02 39200   0.491E-01    0.221E+00
DAV:   6    -0.355227819053E+03    0.44508E-02   -0.24174E-02 38464   0.425E-01    0.172E+00
DAV:   7    -0.355231335314E+03   -0.35163E-02   -0.20786E-02 38808   0.503E-01    0.218E+00
DAV:   8    -0.355224980660E+03    0.63547E-02   -0.45897E-02 37528   0.617E-01    0.166E+00
DAV:   9    -0.355220432795E+03    0.45479E-02   -0.28172E-02 39800   0.523E-01    0.656E-01
DAV:  10    -0.355221109197E+03   -0.67640E-03   -0.59884E-03 38752   0.288E-01    0.810E-01
DAV:  11    -0.355220142005E+03    0.96719E-03   -0.20194E-03 37424   0.169E-01    0.342E-01
DAV:  12    -0.355220131423E+03    0.10583E-04   -0.46246E-04 37320   0.104E-01    0.228E-01
DAV:  13    -0.355220068827E+03    0.62596E-04   -0.18453E-04 38824   0.543E-02    0.161E-01
DAV:  14    -0.355220252615E+03   -0.18379E-03   -0.56835E-04 38288   0.789E-02    0.353E-01
DAV:  15    -0.355220052304E+03    0.20031E-03   -0.51462E-04 36600   0.711E-02    0.164E-01
DAV:  16    -0.355220038569E+03    0.13735E-04   -0.15984E-04 27232   0.468E-02    0.118E-01
DAV:  17    -0.355220012209E+03    0.26360E-04   -0.90891E-05 32088   0.379E-02    0.841E-02
DAV:  18    -0.355220012533E+03   -0.32358E-06   -0.81893E-05 32648   0.331E-02
  10 F= -.35522001E+03 E0= -.35520464E+03  d E =0.507384E-01  mag=     8.0000
       N       E                     dE             d eps       ncg     rms          rms(c)
DAV:   1    -0.355249456701E+03   -0.29444E-01   -0.34302E+00 31616   0.527E+00    0.586E-01
DAV:   2    -0.355283188036E+03   -0.33731E-01   -0.37903E-01 28328   0.112E+00    0.751E-01
DAV:   3    -0.355284365761E+03   -0.11777E-02   -0.19317E-02 36560   0.378E-01    0.932E-01
DAV:   4    -0.355284030977E+03    0.33478E-03   -0.16602E-02 37776   0.254E-01    0.957E-01
DAV:   5    -0.355282559702E+03    0.14713E-02   -0.68665E-03 38720   0.203E-01    0.441E-01
DAV:   6    -0.355283324481E+03   -0.76478E-03   -0.48946E-03 39344   0.199E-01    0.742E-01
DAV:   7    -0.355282638079E+03    0.68640E-03   -0.43173E-03 37232   0.210E-01    0.611E-01
DAV:   8    -0.355282364569E+03    0.27351E-03   -0.36926E-03 38344   0.191E-01    0.512E-01
DAV:   9    -0.355282042978E+03    0.32159E-03   -0.16018E-03 38720   0.138E-01    0.272E-01
DAV:  10    -0.355281909671E+03    0.13331E-03   -0.50831E-04 38840   0.861E-02    0.574E-02
DAV:  11    -0.355281950192E+03   -0.40521E-04   -0.15345E-04 33520   0.411E-02    0.111E-01
DAV:  12    -0.355281940931E+03    0.92614E-05   -0.75298E-05 26712   0.310E-02
  11 F= -.35528194E+03 E0= -.35526670E+03  d E =-.619284E-01  mag=     8.0000
       N       E                     dE             d eps       ncg     rms          rms(c)
DAV:   1    -0.355290660302E+03   -0.87101E-02   -0.10774E+00 31936   0.296E+00    0.340E-01
DAV:   2    -0.355300940846E+03   -0.10281E-01   -0.11334E-01 28376   0.635E-01    0.551E-01
DAV:   3    -0.355300683673E+03    0.25717E-03   -0.46602E-03 36552   0.193E-01    0.386E-01
DAV:   4    -0.355301151318E+03   -0.46764E-03   -0.34498E-03 37792   0.136E-01    0.636E-01
DAV:   5    -0.355300457957E+03    0.69336E-03   -0.21327E-03 38616   0.118E-01    0.285E-01
DAV:   6    -0.355300972155E+03   -0.51420E-03   -0.19478E-03 38776   0.115E-01    0.544E-01
DAV:   7    -0.355300537611E+03    0.43454E-03   -0.19410E-03 37392   0.131E-01    0.376E-01
DAV:   8    -0.355300325163E+03    0.21245E-03   -0.10013E-03 39192   0.118E-01    0.211E-01
DAV:   9    -0.355300350089E+03   -0.24927E-04   -0.57865E-04 37480   0.777E-02    0.216E-01
DAV:  10    -0.355300259271E+03    0.90819E-04   -0.25408E-04 29656   0.507E-02    0.607E-02
DAV:  11    -0.355300273071E+03   -0.13800E-04   -0.56884E-05 22544   0.258E-02    0.577E-02
DAV:  12    -0.355300270220E+03    0.28510E-05   -0.24456E-05 19384   0.201E-02
  12 F= -.35530027E+03 E0= -.35528506E+03  d E =-.183293E-01  mag=     8.0000
       N       E                     dE             d eps       ncg     rms          rms(c)
DAV:   1    -0.355300309497E+03   -0.36426E-04   -0.84206E-01 31840   0.270E+00    0.293E-01
DAV:   2    -0.355308067242E+03   -0.77577E-02   -0.82083E-02 28312   0.582E-01    0.590E-01
DAV:   3    -0.355307662249E+03    0.40499E-03   -0.41421E-03 36136   0.175E-01    0.393E-01
DAV:   4    -0.355307734682E+03   -0.72433E-04   -0.19982E-03 38328   0.102E-01    0.411E-01
DAV:   5    -0.355307569220E+03    0.16546E-03   -0.98175E-04 37904   0.852E-02    0.303E-01
DAV:   6    -0.355307702856E+03   -0.13364E-03   -0.11435E-03 37664   0.885E-02    0.396E-01
DAV:   7    -0.355307691686E+03    0.11170E-04   -0.11432E-03 37008   0.118E-01    0.388E-01
DAV:   8    -0.355307453317E+03    0.23837E-03   -0.15731E-03 37856   0.119E-01    0.256E-01
DAV:   9    -0.355307373140E+03    0.80178E-04   -0.45846E-04 38360   0.734E-02    0.147E-01
DAV:  10    -0.355307350286E+03    0.22854E-04   -0.15876E-04 30424   0.472E-02    0.817E-02
DAV:  11    -0.355307352879E+03   -0.25935E-05   -0.49349E-05 22232   0.245E-02
  13 F= -.35530735E+03 E0= -.35529220E+03  d E =-.708266E-02  mag=     8.0000
       N       E                     dE             d eps       ncg     rms          rms(c)
DAV:   1    -0.355307224191E+03    0.12610E-03   -0.43605E-01 31232   0.196E+00    0.161E-01
DAV:   2    -0.355309844230E+03   -0.26200E-02   -0.26624E-02 28296   0.384E-01    0.335E-01
DAV:   3    -0.355309638530E+03    0.20570E-03   -0.10171E-03 37392   0.102E-01    0.147E-01
DAV:   4    -0.355309725999E+03   -0.87469E-04   -0.30665E-04 34416   0.531E-02    0.229E-01
DAV:   5    -0.355309644155E+03    0.81844E-04   -0.18104E-04 26840   0.452E-02    0.140E-01
DAV:   6    -0.355309722217E+03   -0.78062E-04   -0.36187E-04 26960   0.492E-02    0.225E-01
DAV:   7    -0.355309694623E+03    0.27594E-04   -0.75616E-04 35488   0.621E-02    0.223E-01
DAV:   8    -0.355309645947E+03    0.48676E-04   -0.44221E-04 29728   0.543E-02    0.159E-01
DAV:   9    -0.355309610679E+03    0.35267E-04   -0.14431E-04 23512   0.402E-02    0.790E-02
DAV:  10    -0.355309605183E+03    0.54966E-05   -0.46522E-05 23096   0.268E-02
  14 F= -.35530961E+03 E0= -.35529446E+03  d E =-.225230E-02  mag=     8.0000
       N       E                     dE             d eps       ncg     rms          rms(c)
DAV:   1    -0.355299151193E+03    0.10459E-01   -0.54659E+00 31384   0.621E+00    0.369E-01
DAV:   2    -0.355317089813E+03   -0.17939E-01   -0.18454E-01 28576   0.106E+00    0.527E-01
DAV:   3    -0.355317564739E+03   -0.47493E-03   -0.77282E-03 39544   0.267E-01    0.721E-01
DAV:   4    -0.355316777995E+03    0.78674E-03   -0.45648E-03 38656   0.178E-01    0.431E-01
DAV:   5    -0.355316650638E+03    0.12736E-03   -0.18812E-03 38784   0.120E-01    0.320E-01
DAV:   6    -0.355316604349E+03    0.46289E-04   -0.13513E-03 36752   0.856E-02    0.292E-01
DAV:   7    -0.355316606940E+03   -0.25913E-05   -0.10460E-03 34128   0.107E-01    0.329E-01
DAV:   8    -0.355316387618E+03    0.21932E-03   -0.11629E-03 37960   0.989E-02    0.172E-01
DAV:   9    -0.355316361561E+03    0.26057E-04   -0.25818E-04 39024   0.599E-02    0.994E-02
DAV:  10    -0.355316354894E+03    0.66678E-05   -0.98139E-05 30640   0.363E-02
  15 F= -.35531635E+03 E0= -.35530127E+03  d E =-.674971E-02  mag=     8.0000
       N       E                     dE             d eps       ncg     rms          rms(c)
DAV:   1    -0.355199409084E+03    0.11695E+00   -0.43015E+01 30464   0.168E+01    0.973E-01
DAV:   2    -0.355328430450E+03   -0.12902E+00   -0.13373E+00 28368   0.280E+00    0.105E+00
DAV:   3    -0.355331952773E+03   -0.35223E-02   -0.38872E-02 39760   0.646E-01    0.171E+00
DAV:   4    -0.355327271029E+03    0.46817E-02   -0.20426E-02 39936   0.452E-01    0.113E+00
DAV:   5    -0.355325751455E+03    0.15196E-02   -0.94665E-03 39952   0.285E-01    0.629E-01
DAV:   6    -0.355327123432E+03   -0.13720E-02   -0.11666E-02 39056   0.240E-01    0.105E+00
DAV:   7    -0.355325110816E+03    0.20126E-02   -0.10381E-02 36640   0.265E-01    0.693E-01
DAV:   8    -0.355324333446E+03    0.77737E-03   -0.34703E-03 39056   0.224E-01    0.354E-01
DAV:   9    -0.355324470108E+03   -0.13666E-03   -0.11195E-03 39048   0.135E-01    0.405E-01
DAV:  10    -0.355324229502E+03    0.24061E-03   -0.54075E-04 38248   0.890E-02    0.110E-01
DAV:  11    -0.355324275493E+03   -0.45991E-04   -0.15433E-04 34960   0.492E-02    0.821E-02
DAV:  12    -0.355324277123E+03   -0.16300E-05   -0.62963E-05 25112   0.291E-02
  16 F= -.35532428E+03 E0= -.35530922E+03  d E =-.792223E-02  mag=     8.0000
       N       E                     dE             d eps       ncg     rms          rms(c)
DAV:   1    -0.354144466153E+03    0.11798E+01   -0.10370E+02 32296   0.281E+01    0.315E+00
DAV:   2    -0.355215862533E+03   -0.10714E+01   -0.97479E+00 28808   0.652E+00    0.993E+00
DAV:   3    -0.355038428271E+03    0.17743E+00   -0.17697E+00 37680   0.264E+00    0.575E+00
DAV:   4    -0.355010198760E+03    0.28230E-01   -0.33429E-01 37232   0.129E+00    0.376E+00
DAV:   5    -0.355002867285E+03    0.73315E-02   -0.76929E-02 36256   0.745E-01    0.295E+00
DAV:   6    -0.355006237128E+03   -0.33698E-02   -0.34959E-02 38336   0.587E-01    0.323E+00
DAV:   7    -0.354997306028E+03    0.89311E-02   -0.53799E-02 38600   0.705E-01    0.311E+00
DAV:   8    -0.354981754766E+03    0.15551E-01   -0.72348E-02 38616   0.775E-01    0.221E+00
DAV:   9    -0.354977834738E+03    0.39200E-02   -0.49864E-02 37744   0.793E-01    0.193E+00
DAV:  10    -0.354975712559E+03    0.21222E-02   -0.23939E-02 38768   0.644E-01    0.157E+00
DAV:  11    -0.354974260233E+03    0.14523E-02   -0.86532E-03 38384   0.376E-01    0.987E-01
DAV:  12    -0.354974423235E+03   -0.16300E-03   -0.45373E-03 36872   0.215E-01    0.685E-01
DAV:  13    -0.354974273601E+03    0.14963E-03   -0.39475E-03 38008   0.202E-01    0.555E-01
DAV:  14    -0.354974992251E+03   -0.71865E-03   -0.51080E-03 38112   0.225E-01    0.923E-01
DAV:  15    -0.354973770090E+03    0.12222E-02   -0.35822E-03 37344   0.180E-01    0.532E-01
DAV:  16    -0.354973387379E+03    0.38271E-03   -0.10193E-03 38104   0.138E-01    0.319E-01
DAV:  17    -0.354973312788E+03    0.74591E-04   -0.59728E-04 39488   0.859E-02    0.199E-01
DAV:  18    -0.354973387897E+03   -0.75110E-04   -0.21267E-04 33160   0.451E-02    0.156E-01
DAV:  19    -0.354973397706E+03   -0.98086E-05   -0.92379E-05 29528   0.417E-02
  17 F= -.35497340E+03 E0= -.35495803E+03  d E =0.350879E+00  mag=     8.0000
       N       E                     dE             d eps       ncg     rms          rms(c)
DAV:   1    -0.355074600615E+03   -0.10121E+00   -0.14402E+01 31592   0.106E+01    0.125E+00
DAV:   2    -0.355232017002E+03   -0.15742E+00   -0.17347E+00 28328   0.234E+00    0.169E+00
DAV:   3    -0.355237354210E+03   -0.53372E-02   -0.87582E-02 37768   0.828E-01    0.202E+00
DAV:   4    -0.355235810656E+03    0.15436E-02   -0.71864E-02 38760   0.538E-01    0.199E+00
DAV:   5    -0.355228592503E+03    0.72182E-02   -0.25478E-02 38016   0.391E-01    0.771E-01
DAV:   6    -0.355230165695E+03   -0.15732E-02   -0.96642E-03 38368   0.334E-01    0.121E+00
DAV:   7    -0.355230570305E+03   -0.40461E-03   -0.15774E-02 37472   0.416E-01    0.148E+00
DAV:   8    -0.355227314045E+03    0.32563E-02   -0.11280E-02 38968   0.357E-01    0.808E-01
DAV:   9    -0.355227216568E+03    0.97477E-04   -0.65518E-03 38896   0.245E-01    0.584E-01
DAV:  10    -0.355226358672E+03    0.85790E-03   -0.35617E-03 37816   0.169E-01    0.174E-01
DAV:  11    -0.355226496302E+03   -0.13763E-03   -0.57481E-04 36680   0.789E-02    0.265E-01
DAV:  12    -0.355226380810E+03    0.11549E-03   -0.36327E-04 35640   0.652E-02    0.121E-01
DAV:  13    -0.355226361275E+03    0.19535E-04   -0.11784E-04 30712   0.465E-02    0.653E-02
DAV:  14    -0.355226354632E+03    0.66435E-05   -0.77810E-05 25328   0.337E-02
  18 F= -.35522635E+03 E0= -.35521109E+03  d E =-.252957E+00  mag=     8.0000
       N       E                     dE             d eps       ncg     rms          rms(c)
DAV:   1    -0.355229364375E+03   -0.30031E-02   -0.10648E+01 31784   0.856E+00    0.107E+00
DAV:   2    -0.355330405570E+03   -0.10104E+00   -0.11401E+00 28376   0.180E+00    0.119E+00
DAV:   3    -0.355337607616E+03   -0.72020E-02   -0.59472E-02 36792   0.667E-01    0.199E+00
DAV:   4    -0.355332165677E+03    0.54419E-02   -0.46659E-02 37760   0.502E-01    0.144E+00
DAV:   5    -0.355329778955E+03    0.23867E-02   -0.17849E-02 39736   0.345E-01    0.864E-01
DAV:   6    -0.355331644570E+03   -0.18656E-02   -0.19641E-02 38784   0.326E-01    0.129E+00
DAV:   7    -0.355329445793E+03    0.21988E-02   -0.11514E-02 36688   0.339E-01    0.956E-01
DAV:   8    -0.355328094818E+03    0.13510E-02   -0.11330E-02 39208   0.308E-01    0.632E-01
DAV:   9    -0.355327711745E+03    0.38307E-03   -0.39892E-03 39088   0.209E-01    0.459E-01
DAV:  10    -0.355327316970E+03    0.39478E-03   -0.13557E-03 38648   0.139E-01    0.164E-01
DAV:  11    -0.355327383109E+03   -0.66139E-04   -0.39661E-04 35016   0.635E-02    0.184E-01
DAV:  12    -0.355327339061E+03    0.44048E-04   -0.22246E-04 31336   0.534E-02    0.103E-01
DAV:  13    -0.355327319285E+03    0.19776E-04   -0.12364E-04 31408   0.423E-02    0.539E-02
DAV:  14    -0.355327323195E+03   -0.39101E-05   -0.41953E-05 24560   0.244E-02
  19 F= -.35532732E+03 E0= -.35531217E+03  d E =-.100969E+00  mag=     8.0000
       N       E                     dE             d eps       ncg     rms          rms(c)
DAV:   1    -0.355323458413E+03    0.38609E-02   -0.17238E+00 32352   0.329E+00    0.459E-01
DAV:   2    -0.355338636984E+03   -0.15179E-01   -0.15768E-01 28464   0.747E-01    0.103E+00
DAV:   3    -0.355337152303E+03    0.14847E-02   -0.89292E-03 36040   0.266E-01    0.590E-01
DAV:   4    -0.355337339630E+03   -0.18733E-03   -0.31464E-03 37208   0.150E-01    0.600E-01
DAV:   5    -0.355337262891E+03    0.76739E-04   -0.32094E-03 37856   0.125E-01    0.574E-01
DAV:   6    -0.355337121088E+03    0.14180E-03   -0.35764E-03 38512   0.143E-01    0.515E-01
DAV:   7    -0.355337837705E+03   -0.71662E-03   -0.36555E-03 37328   0.195E-01    0.788E-01
DAV:   8    -0.355336629651E+03    0.12081E-02   -0.30953E-03 37848   0.182E-01    0.294E-01
DAV:   9    -0.355336683146E+03   -0.53495E-04   -0.99183E-04 37024   0.109E-01    0.249E-01
DAV:  10    -0.355336595444E+03    0.87702E-04   -0.30381E-04 34760   0.676E-02    0.142E-01
DAV:  11    -0.355336588450E+03    0.69941E-05   -0.11979E-04 28152   0.418E-02    0.898E-02
DAV:  12    -0.355336582086E+03    0.63641E-05   -0.45783E-05 23632   0.285E-02
  20 F= -.35533658E+03 E0= -.35532137E+03  d E =-.925889E-02  mag=     8.0000
       N       E                     dE             d eps       ncg     rms          rms(c)
DAV:   1    -0.355335371390E+03    0.12171E-02   -0.36523E-01 31536   0.168E+00    0.182E-01
DAV:   2    -0.355337963419E+03   -0.25920E-02   -0.22229E-02 29552   0.368E-01    0.596E-01
DAV:   3    -0.355337289279E+03    0.67414E-03   -0.19303E-03 35848   0.131E-01    0.308E-01
DAV:   4    -0.355337298041E+03   -0.87618E-05   -0.33198E-04 33272   0.497E-02    0.244E-01
DAV:   5    -0.355337320537E+03   -0.22496E-04   -0.27885E-04 27048   0.376E-02    0.255E-01
DAV:   6    -0.355337288406E+03    0.32132E-04   -0.32799E-04 29456   0.463E-02    0.205E-01
DAV:   7    -0.355337405501E+03   -0.11709E-03   -0.38828E-04 33408   0.641E-02    0.312E-01
DAV:   8    -0.355337287366E+03    0.11814E-03   -0.43434E-04 36200   0.687E-02    0.173E-01
DAV:   9    -0.355337253229E+03    0.34137E-04   -0.32051E-04 31728   0.557E-02    0.101E-01
DAV:  10    -0.355337237629E+03    0.15600E-04   -0.83096E-05 22392   0.351E-02    0.513E-02
DAV:  11    -0.355337241944E+03   -0.43146E-05   -0.22073E-05 20808   0.215E-02
  21 F= -.35533724E+03 E0= -.35532205E+03  d E =-.659858E-03  mag=     8.0000
       N       E                     dE             d eps       ncg     rms          rms(c)
DAV:   1    -0.355336060112E+03    0.11775E-02   -0.97953E-01 31200   0.270E+00    0.172E-01
DAV:   2    -0.355339928705E+03   -0.38686E-02   -0.39135E-02 28480   0.494E-01    0.358E-01
DAV:   3    -0.355339709791E+03    0.21891E-03   -0.15157E-03 38456   0.124E-01    0.197E-01
DAV:   4    -0.355339853462E+03   -0.14367E-03   -0.12736E-03 36168   0.769E-02    0.315E-01
DAV:   5    -0.355339657560E+03    0.19590E-03   -0.56217E-04 32312   0.572E-02    0.135E-01
DAV:   6    -0.355339695032E+03   -0.37472E-04   -0.18404E-04 25984   0.384E-02    0.186E-01
DAV:   7    -0.355339661220E+03    0.33812E-04   -0.25380E-04 33984   0.559E-02    0.149E-01
DAV:   8    -0.355339634333E+03    0.26887E-04   -0.30127E-04 34632   0.498E-02    0.120E-01
DAV:   9    -0.355339610479E+03    0.23854E-04   -0.10416E-04 23592   0.349E-02    0.732E-02
DAV:  10    -0.355339609828E+03    0.65147E-06   -0.36232E-05 21640   0.244E-02
  22 F= -.35533961E+03 E0= -.35532441E+03  d E =-.236788E-02  mag=     8.0000
       N       E                     dE             d eps       ncg     rms          rms(c)
DAV:   1    -0.355339224336E+03    0.38614E-03   -0.49744E-01 29896   0.193E+00    0.118E-01
DAV:   2    -0.355341102874E+03   -0.18785E-02   -0.19427E-02 28368   0.340E-01    0.174E-01
DAV:   3    -0.355341212503E+03   -0.10963E-03   -0.88883E-04 37040   0.943E-02    0.286E-01
DAV:   4    -0.355341058182E+03    0.15432E-03   -0.35759E-04 33288   0.612E-02    0.116E-01
DAV:   5    -0.355341047690E+03    0.10492E-04   -0.12475E-04 23008   0.314E-02    0.705E-02
DAV:   6    -0.355341057541E+03   -0.98512E-05   -0.12065E-04 22104   0.268E-02    0.111E-01
DAV:   7    -0.355341034236E+03    0.23305E-04   -0.10184E-04 28760   0.312E-02    0.726E-02
DAV:   8    -0.355341026397E+03    0.78385E-05   -0.70357E-05 24048   0.277E-02
  23 F= -.35534103E+03 E0= -.35532586E+03  d E =-.141657E-02  mag=     8.0000
       N       E                     dE             d eps       ncg     rms          rms(c)
DAV:   1    -0.355247337918E+03    0.93696E-01   -0.35721E+01 31304   0.155E+01    0.823E-01
DAV:   2    -0.355350642626E+03   -0.10330E+00   -0.10551E+00 28336   0.258E+00    0.994E-01
DAV:   3    -0.355355270023E+03   -0.46274E-02   -0.28473E-02 39496   0.601E-01    0.194E+00
DAV:   4    -0.355348143979E+03    0.71260E-02   -0.14159E-02 38968   0.390E-01    0.614E-01
DAV:   5    -0.355348150452E+03   -0.64725E-05   -0.37966E-03 39432   0.218E-01    0.477E-01
DAV:   6    -0.355349377002E+03   -0.12266E-02   -0.83322E-03 37088   0.193E-01    0.993E-01
DAV:   7    -0.355347120378E+03    0.22566E-02   -0.56088E-03 34824   0.218E-01    0.366E-01
DAV:   8    -0.355347269834E+03   -0.14946E-03   -0.28526E-03 38456   0.143E-01    0.353E-01
DAV:   9    -0.355347092432E+03    0.17740E-03   -0.13287E-03 39648   0.105E-01    0.210E-01
DAV:  10    -0.355347092296E+03    0.13542E-06   -0.28863E-04 37864   0.635E-02    0.136E-01
DAV:  11    -0.355347097878E+03   -0.55813E-05   -0.12098E-04 29576   0.390E-02    0.106E-01
DAV:  12    -0.355347086959E+03    0.10919E-04   -0.53229E-05 21400   0.256E-02    0.635E-02
DAV:  13    -0.355347087079E+03   -0.12057E-06   -0.22309E-05 19624   0.211E-02
  24 F= -.35534709E+03 E0= -.35533183E+03  d E =-.606068E-02  mag=     8.0000
       N       E                     dE             d eps       ncg     rms          rms(c)
DAV:   1    -0.355224492400E+03    0.12259E+00   -0.20174E+01 31136   0.131E+01    0.974E-01
DAV:   2    -0.355339445754E+03   -0.11495E+00   -0.11739E+00 28296   0.258E+00    0.233E+00
DAV:   3    -0.355331661387E+03    0.77844E-02   -0.50831E-02 37992   0.785E-01    0.147E+00
DAV:   4    -0.355330145467E+03    0.15159E-02   -0.11600E-02 39320   0.383E-01    0.106E+00
DAV:   5    -0.355329776888E+03    0.36858E-03   -0.61537E-03 38488   0.297E-01    0.102E+00
DAV:   6    -0.355329280877E+03    0.49601E-03   -0.73477E-03 39384   0.260E-01    0.952E-01
DAV:   7    -0.355330302265E+03   -0.10214E-02   -0.17194E-02 36680   0.356E-01    0.136E+00
DAV:   8    -0.355327113353E+03    0.31889E-02   -0.14128E-02 37552   0.333E-01    0.757E-01
DAV:   9    -0.355327016800E+03    0.96552E-04   -0.59758E-03 37456   0.228E-01    0.593E-01
DAV:  10    -0.355326602507E+03    0.41429E-03   -0.35838E-03 37096   0.153E-01    0.401E-01
DAV:  11    -0.355326397127E+03    0.20538E-03   -0.12081E-03 37752   0.101E-01    0.181E-01
DAV:  12    -0.355326386292E+03    0.10836E-04   -0.24153E-04 37480   0.583E-02    0.109E-01
DAV:  13    -0.355326374933E+03    0.11359E-04   -0.54098E-05 26336   0.303E-02    0.916E-02
DAV:  14    -0.355326379839E+03   -0.49062E-05   -0.47009E-05 22408   0.291E-02
  25 F= -.35532638E+03 E0= -.35531103E+03  d E =0.207072E-01  mag=     8.0000
       N       E                     dE             d eps       ncg     rms          rms(c)
DAV:   1    -0.355334711396E+03   -0.83365E-02   -0.92652E-01 32416   0.327E+00    0.308E-01
DAV:   2    -0.355343611666E+03   -0.89003E-02   -0.10293E-01 28544   0.688E-01    0.723E-01
DAV:   3    -0.355343261144E+03    0.35052E-03   -0.64879E-03 36136   0.254E-01    0.493E-01
DAV:   4    -0.355343101114E+03    0.16003E-03   -0.14063E-03 36848   0.128E-01    0.378E-01
DAV:   5    -0.355342886690E+03    0.21442E-03   -0.11008E-03 37408   0.968E-02    0.252E-01
DAV:   6    -0.355343173136E+03   -0.28645E-03   -0.21671E-03 36664   0.979E-02    0.486E-01
DAV:   7    -0.355342764037E+03    0.40910E-03   -0.15856E-03 36896   0.112E-01    0.257E-01
DAV:   8    -0.355342782221E+03   -0.18184E-04   -0.12736E-03 37552   0.107E-01    0.300E-01
DAV:   9    -0.355342655591E+03    0.12663E-03   -0.44473E-04 33232   0.687E-02    0.174E-01
DAV:  10    -0.355342637843E+03    0.17748E-04   -0.17326E-04 25776   0.455E-02    0.106E-01
DAV:  11    -0.355342624617E+03    0.13226E-04   -0.78680E-05 24064   0.303E-02    0.477E-02
DAV:  12    -0.355342624239E+03    0.37834E-06   -0.20129E-05 19632   0.184E-02
  26 F= -.35534262E+03 E0= -.35532732E+03  d E =-.162444E-01  mag=     8.0000
       N       E                     dE             d eps       ncg     rms          rms(c)
DAV:   1    -0.355344884351E+03   -0.22597E-02   -0.15875E-01 32168   0.134E+00    0.119E-01
DAV:   2    -0.355346309164E+03   -0.14248E-02   -0.15376E-02 28528   0.275E-01    0.325E-01
DAV:   3    -0.355346189774E+03    0.11939E-03   -0.89349E-04 35616   0.898E-02    0.156E-01
DAV:   4    -0.355346168786E+03    0.20988E-04   -0.14469E-04 30488   0.407E-02    0.111E-01
DAV:   5    -0.355346155540E+03    0.13245E-04   -0.13355E-04 24640   0.349E-02    0.102E-01
DAV:   6    -0.355346198842E+03   -0.43301E-04   -0.30841E-04 25368   0.388E-02    0.189E-01
DAV:   7    -0.355346128938E+03    0.69904E-04   -0.30060E-04 29784   0.429E-02    0.108E-01
DAV:   8    -0.355346122294E+03    0.66430E-05   -0.14803E-04 27200   0.394E-02    0.101E-01
DAV:   9    -0.355346115301E+03    0.69936E-05   -0.93293E-05 21456   0.281E-02
  27 F= -.35534612E+03 E0= -.35533074E+03  d E =-.349106E-02  mag=     8.0000
       N       E                     dE             d eps       ncg     rms          rms(c)
DAV:   1    -0.355345479143E+03    0.64315E-03   -0.72771E-01 32184   0.259E+00    0.209E-01
DAV:   2    -0.355350504133E+03   -0.50250E-02   -0.51366E-02 28320   0.530E-01    0.600E-01
DAV:   3    -0.355349976050E+03    0.52808E-03   -0.35064E-03 36288   0.180E-01    0.272E-01
DAV:   4    -0.355350031935E+03   -0.55885E-04   -0.76868E-04 38648   0.887E-02    0.275E-01
DAV:   5    -0.355349918373E+03    0.11356E-03   -0.54699E-04 35664   0.691E-02    0.185E-01
DAV:   6    -0.355349946791E+03   -0.28418E-04   -0.49911E-04 30840   0.580E-02    0.231E-01
DAV:   7    -0.355349932008E+03    0.14783E-04   -0.62273E-04 34184   0.643E-02    0.241E-01
DAV:   8    -0.355349843306E+03    0.88701E-04   -0.75111E-04 36520   0.703E-02    0.184E-01
DAV:   9    -0.355349801274E+03    0.42032E-04   -0.33807E-04 34904   0.564E-02    0.142E-01
DAV:  10    -0.355349774439E+03    0.26835E-04   -0.82575E-05 24192   0.347E-02    0.741E-02
DAV:  11    -0.355349774617E+03   -0.17846E-06   -0.30815E-05 20616   0.217E-02
  28 F= -.35534977E+03 E0= -.35533446E+03  d E =-.365932E-02  mag=     8.0000
       N       E                     dE             d eps       ncg     rms          rms(c)
DAV:   1    -0.355350194391E+03   -0.41995E-03   -0.26298E-01 31016   0.124E+00    0.102E-01
DAV:   2    -0.355351356571E+03   -0.11622E-02   -0.10006E-02 30320   0.246E-01    0.388E-01
DAV:   3    -0.355351076543E+03    0.28003E-03   -0.61736E-04 37832   0.844E-02    0.164E-01
DAV:   4    -0.355351082184E+03   -0.56411E-05   -0.77843E-05 27064   0.292E-02
  29 F= -.35535108E+03 E0= -.35533574E+03  d E =-.130757E-02  mag=     8.0000
       N       E                     dE             d eps       ncg     rms          rms(c)
DAV:   1    -0.355348400705E+03    0.26758E-02   -0.14654E+00 30488   0.292E+00    0.263E-01
DAV:   2    -0.355353918844E+03   -0.55181E-02   -0.49295E-02 29392   0.540E-01    0.855E-01
DAV:   3    -0.355352522627E+03    0.13962E-02   -0.43620E-03 35736   0.164E-01    0.379E-01
DAV:   4    -0.355352561263E+03   -0.38636E-04   -0.23379E-04 35488   0.451E-02    0.310E-01
DAV:   5    -0.355352594939E+03   -0.33676E-04   -0.17007E-04 30760   0.406E-02    0.346E-01
DAV:   6    -0.355352720981E+03   -0.12604E-03   -0.63744E-04 38440   0.854E-02    0.434E-01
DAV:   7    -0.355352999008E+03   -0.27803E-03   -0.10654E-03 38888   0.130E-01    0.617E-01
DAV:   8    -0.355352354781E+03    0.64423E-03   -0.13404E-03 37680   0.118E-01    0.269E-01
DAV:   9    -0.355352358999E+03   -0.42174E-05   -0.67704E-04 37032   0.766E-02    0.198E-01
DAV:  10    -0.355352323905E+03    0.35094E-04   -0.20265E-04 34624   0.525E-02    0.111E-01
DAV:  11    -0.355352333476E+03   -0.95711E-05   -0.45128E-05 25576   0.259E-02
  30 F= -.35535233E+03 E0= -.35533697E+03  d E =-.125129E-02  mag=     8.0000
       N       E                     dE             d eps       ncg     rms          rms(c)
DAV:   1    -0.355352197768E+03    0.12614E-03   -0.65984E-02 31744   0.834E-01    0.796E-02
DAV:   2    -0.355352864424E+03   -0.66666E-03   -0.56516E-03 28360   0.173E-01    0.338E-01
DAV:   3    -0.355352637577E+03    0.22685E-03   -0.10869E-03 35216   0.793E-02    0.103E-01
DAV:   4    -0.355352662870E+03   -0.25293E-04   -0.71459E-05 25296   0.304E-02    0.940E-02
DAV:   5    -0.355352652436E+03    0.10433E-04   -0.33643E-05 21552   0.238E-02    0.747E-02
DAV:   6    -0.355352646544E+03    0.58926E-05   -0.17548E-05 20136   0.155E-02
  31 F= -.35535265E+03 E0= -.35533731E+03  d E =-.313068E-03  mag=     8.0000
       N       E                     dE             d eps       ncg     rms          rms(c)
DAV:   1    -0.355352397359E+03    0.25508E-03   -0.14257E-01 30392   0.105E+00    0.953E-02
DAV:   2    -0.355353463690E+03   -0.10663E-02   -0.74022E-03 31232   0.217E-01    0.526E-01
DAV:   3    -0.355352854718E+03    0.60897E-03   -0.17348E-03 33504   0.121E-01    0.112E-01
DAV:   4    -0.355352921456E+03   -0.66738E-04   -0.19002E-04 28320   0.403E-02    0.889E-02
DAV:   5    -0.355352912675E+03    0.87815E-05   -0.75616E-05 22336   0.241E-02
  32 F= -.35535291E+03 E0= -.35533759E+03  d E =-.266131E-03  mag=     8.0000
       N       E                     dE             d eps       ncg     rms          rms(c)
DAV:   1    -0.355350183976E+03    0.27375E-02   -0.13744E+00 31160   0.303E+00    0.158E-01
DAV:   2    -0.355354353980E+03   -0.41700E-02   -0.38908E-02 28648   0.506E-01    0.524E-01
DAV:   3    -0.355353909843E+03    0.44414E-03   -0.27346E-03 37736   0.140E-01    0.236E-01
DAV:   4    -0.355353895956E+03    0.13887E-04   -0.65862E-04 36552   0.653E-02    0.211E-01
DAV:   5    -0.355353819757E+03    0.76199E-04   -0.25841E-04 30088   0.454E-02    0.111E-01
DAV:   6    -0.355353818333E+03    0.14244E-05   -0.11353E-04 25672   0.390E-02    0.116E-01
DAV:   7    -0.355353813805E+03    0.45281E-05   -0.22611E-04 31808   0.406E-02    0.138E-01
DAV:   8    -0.355353774347E+03    0.39458E-04   -0.22344E-04 35560   0.433E-02    0.774E-02
DAV:   9    -0.355353777873E+03   -0.35261E-05   -0.61681E-05 25296   0.282E-02
  33 F= -.35535378E+03 E0= -.35533842E+03  d E =-.865198E-03  mag=     8.0000
       N       E                     dE             d eps       ncg     rms          rms(c)
DAV:   1    -0.355262863847E+03    0.90910E-01   -0.32431E+01 29592   0.149E+01    0.788E-01
DAV:   2    -0.355358424974E+03   -0.95561E-01   -0.98039E-01 28328   0.249E+00    0.682E-01
DAV:   3    -0.355361245704E+03   -0.28207E-02   -0.23483E-02 39192   0.508E-01    0.145E+00
DAV:   4    -0.355357380352E+03    0.38654E-02   -0.81324E-03 39312   0.359E-01    0.605E-01
DAV:   5    -0.355357257719E+03    0.12263E-03   -0.26200E-03 39904   0.181E-01    0.441E-01
DAV:   6    -0.355357266622E+03   -0.89026E-05   -0.27666E-03 39672   0.166E-01    0.587E-01
DAV:   7    -0.355356844830E+03    0.42179E-03   -0.42234E-03 37200   0.200E-01    0.556E-01
DAV:   8    -0.355356448272E+03    0.39656E-03   -0.24243E-03 36864   0.134E-01    0.263E-01
DAV:   9    -0.355356527020E+03   -0.78748E-04   -0.13733E-03 38168   0.837E-02    0.251E-01
DAV:  10    -0.355356434593E+03    0.92426E-04   -0.57885E-04 37344   0.665E-02    0.145E-01
DAV:  11    -0.355356426609E+03    0.79842E-05   -0.11361E-04 27488   0.391E-02    0.770E-02
DAV:  12    -0.355356428363E+03   -0.17536E-05   -0.56682E-05 20856   0.253E-02
  34 F= -.35535643E+03 E0= -.35534096E+03  d E =-.265049E-02  mag=     8.0000
       N       E                     dE             d eps       ncg     rms          rms(c)
DAV:   1    -0.355210139811E+03    0.14629E+00   -0.57668E+01 30768   0.193E+01    0.100E+00
DAV:   2    -0.355365604082E+03   -0.15546E+00   -0.15868E+00 28376   0.320E+00    0.123E+00
DAV:   3    -0.355372037787E+03   -0.64337E-02   -0.74483E-02 39264   0.728E-01    0.270E+00
DAV:   4    -0.355360913221E+03    0.11125E-01   -0.53575E-02 38592   0.485E-01    0.971E-01
DAV:   5    -0.355362125673E+03   -0.12125E-02   -0.10436E-02 35392   0.253E-01    0.720E-01
DAV:   6    -0.355362279000E+03   -0.15333E-03   -0.71810E-03 38504   0.236E-01    0.858E-01
DAV:   7    -0.355361083497E+03    0.11955E-02   -0.57751E-03 37072   0.258E-01    0.731E-01
DAV:   8    -0.355360234152E+03    0.84935E-03   -0.33805E-03 38528   0.204E-01    0.349E-01
DAV:   9    -0.355360313795E+03   -0.79644E-04   -0.21281E-03 37840   0.132E-01    0.303E-01
DAV:  10    -0.355360252876E+03    0.60920E-04   -0.55759E-04 38104   0.924E-02    0.238E-01
DAV:  11    -0.355360186897E+03    0.65978E-04   -0.42809E-04 33520   0.615E-02    0.108E-01
DAV:  12    -0.355360205718E+03   -0.18820E-04   -0.91580E-05 25432   0.383E-02    0.844E-02
DAV:  13    -0.355360203878E+03    0.18398E-05   -0.32552E-05 22016   0.271E-02
  35 F= -.35536020E+03 E0= -.35534464E+03  d E =-.377552E-02  mag=     8.0000
       N       E                     dE             d eps       ncg     rms          rms(c)
DAV:   1    -0.355335195312E+03    0.25010E-01   -0.31459E+00 32344   0.606E+00    0.544E-01
DAV:   2    -0.355363212293E+03   -0.28017E-01   -0.26744E-01 28384   0.131E+00    0.171E+00
DAV:   3    -0.355358841431E+03    0.43709E-02   -0.18246E-02 36408   0.465E-01    0.795E-01
DAV:   4    -0.355358611506E+03    0.22992E-03   -0.27913E-03 38200   0.199E-01    0.485E-01
DAV:   5    -0.355358793030E+03   -0.18152E-03   -0.20556E-03 37800   0.140E-01    0.584E-01
DAV:   6    -0.355358641524E+03    0.15151E-03   -0.30642E-03 38184   0.132E-01    0.530E-01
DAV:   7    -0.355359104548E+03   -0.46302E-03   -0.43377E-03 36584   0.165E-01    0.733E-01
DAV:   8    -0.355358475615E+03    0.62893E-03   -0.52246E-03 37144   0.192E-01    0.516E-01
DAV:   9    -0.355358222655E+03    0.25296E-03   -0.26850E-03 37824   0.154E-01    0.374E-01
DAV:  10    -0.355358122178E+03    0.10048E-03   -0.66802E-04 37600   0.949E-02    0.246E-01
DAV:  11    -0.355358090513E+03    0.31666E-04   -0.41987E-04 31768   0.645E-02    0.142E-01
DAV:  12    -0.355358076122E+03    0.14391E-04   -0.13301E-04 23504   0.343E-02    0.933E-02
DAV:  13    -0.355358080615E+03   -0.44936E-05   -0.10879E-05 17280   0.106E-02
  36 F= -.35535808E+03 E0= -.35534239E+03  d E =0.212326E-02  mag=     8.0000
       N       E                     dE             d eps       ncg     rms          rms(c)
DAV:   1    -0.355349130084E+03    0.89460E-02   -0.31793E+00 32128   0.523E+00    0.378E-01
DAV:   2    -0.355364642363E+03   -0.15512E-01   -0.15084E-01 28400   0.101E+00    0.100E+00
DAV:   3    -0.355363041404E+03    0.16010E-02   -0.71378E-03 36672   0.293E-01    0.519E-01
DAV:   4    -0.355362964706E+03    0.76698E-04   -0.14849E-03 38544   0.132E-01    0.388E-01
DAV:   5    -0.355362956322E+03    0.83835E-05   -0.10298E-03 38096   0.104E-01    0.392E-01
DAV:   6    -0.355362931635E+03    0.24687E-04   -0.15794E-03 37800   0.943E-02    0.411E-01
DAV:   7    -0.355363446849E+03   -0.51521E-03   -0.37987E-03 37664   0.143E-01    0.636E-01
DAV:   8    -0.355362702303E+03    0.74455E-03   -0.40555E-03 37440   0.138E-01    0.347E-01
DAV:   9    -0.355362672112E+03    0.30191E-04   -0.62581E-04 37616   0.103E-01    0.274E-01
DAV:  10    -0.355362637645E+03    0.34467E-04   -0.38514E-04 32888   0.667E-02    0.216E-01
DAV:  11    -0.355362592806E+03    0.44839E-04   -0.15022E-04 29224   0.465E-02    0.985E-02
DAV:  12    -0.355362608115E+03   -0.15309E-04   -0.19134E-05 20336   0.143E-02    0.938E-02
DAV:  13    -0.355362608465E+03   -0.35015E-06   -0.24300E-06 15112   0.538E-03
  37 F= -.35536261E+03 E0= -.35534694E+03  d E =-.452785E-02  mag=     8.0000
       N       E                     dE             d eps       ncg     rms          rms(c)
DAV:   1    -0.355361633877E+03    0.97424E-03   -0.54803E-01 30912   0.201E+00    0.153E-01
DAV:   2    -0.355363768754E+03   -0.21349E-02   -0.18817E-02 28848   0.360E-01    0.530E-01
DAV:   3    -0.355363277843E+03    0.49091E-03   -0.24444E-03 35856   0.133E-01    0.195E-01
DAV:   4    -0.355363363499E+03   -0.85656E-04   -0.54986E-04 32800   0.624E-02    0.252E-01
DAV:   5    -0.355363260182E+03    0.10332E-03   -0.38271E-04 28064   0.513E-02    0.112E-01
DAV:   6    -0.355363277173E+03   -0.16990E-04   -0.21460E-04 23640   0.403E-02    0.144E-01
DAV:   7    -0.355363255221E+03    0.21952E-04   -0.17233E-04 26720   0.414E-02    0.106E-01
DAV:   8    -0.355363257020E+03   -0.17990E-05   -0.16211E-04 29920   0.394E-02    0.109E-01
DAV:   9    -0.355363254633E+03    0.23871E-05   -0.78630E-05 23232   0.297E-02
  38 F= -.35536325E+03 E0= -.35534763E+03  d E =-.646168E-03  mag=     8.0000
       N       E                     dE             d eps       ncg     rms          rms(c)
DAV:   1    -0.355333783829E+03    0.29473E-01   -0.12077E+01 31352   0.895E+00    0.475E-01
DAV:   2    -0.355366351601E+03   -0.32568E-01   -0.33246E-01 28400   0.148E+00    0.657E-01
DAV:   3    -0.355369062395E+03   -0.27108E-02   -0.16661E-02 38776   0.362E-01    0.136E+00
DAV:   4    -0.355365283403E+03    0.37790E-02   -0.88752E-03 37448   0.242E-01    0.411E-01
DAV:   5    -0.355365424171E+03   -0.14077E-03   -0.14438E-03 38992   0.105E-01    0.291E-01
DAV:   6    -0.355365369058E+03    0.55113E-04   -0.13907E-03 37080   0.121E-01    0.326E-01
DAV:   7    -0.355365193088E+03    0.17597E-03   -0.14791E-03 36056   0.120E-01    0.302E-01
DAV:   8    -0.355365056328E+03    0.13676E-03   -0.59579E-04 36680   0.783E-02    0.147E-01
DAV:   9    -0.355365077146E+03   -0.20817E-04   -0.20852E-04 28928   0.521E-02    0.121E-01
DAV:  10    -0.355365064683E+03    0.12462E-04   -0.14950E-04 24888   0.362E-02    0.737E-02
DAV:  11    -0.355365061345E+03    0.33384E-05   -0.47523E-05 20272   0.222E-02
  39 F= -.35536506E+03 E0= -.35534939E+03  d E =-.180671E-02  mag=     8.0000
       N       E                     dE             d eps       ncg     rms          rms(c)
DAV:   1    -0.354003867438E+03    0.13612E+01   -0.85860E+01 32256   0.336E+01    0.468E+00
DAV:   2    -0.355058701521E+03   -0.10548E+01   -0.10573E+01 28336   0.731E+00    0.926E+00
DAV:   3    -0.354999987764E+03    0.58714E-01   -0.11018E+00 37248   0.280E+00    0.601E+00
DAV:   4    -0.355003722307E+03   -0.37345E-02   -0.48481E-01 39352   0.161E+00    0.573E+00
DAV:   5    -0.354967621623E+03    0.36101E-01   -0.45902E-01 37376   0.175E+00    0.538E+00
DAV:   6    -0.354952545323E+03    0.15076E-01   -0.24375E-01 38632   0.163E+00    0.444E+00
DAV:   7    -0.354972945065E+03   -0.20400E-01   -0.23210E-01 38328   0.147E+00    0.547E+00
DAV:   8    -0.354922746405E+03    0.50199E-01   -0.14841E-01 37656   0.101E+00    0.303E+00
DAV:   9    -0.354923525827E+03   -0.77942E-03   -0.37292E-02 37824   0.670E-01    0.267E+00
DAV:  10    -0.354914119240E+03    0.94066E-02   -0.19955E-02 37496   0.504E-01    0.872E-01
DAV:  11    -0.354915922247E+03   -0.18030E-02   -0.57192E-03 38688   0.309E-01    0.698E-01
DAV:  12    -0.354916494782E+03   -0.57254E-03   -0.49422E-03 38632   0.232E-01    0.607E-01
DAV:  13    -0.354916321072E+03    0.17371E-03   -0.35248E-03 38024   0.164E-01    0.556E-01
DAV:  14    -0.354916342592E+03   -0.21520E-04   -0.23501E-03 39024   0.134E-01    0.584E-01
DAV:  15    -0.354916065927E+03    0.27667E-03   -0.15064E-03 38600   0.123E-01    0.407E-01
DAV:  16    -0.354915919948E+03    0.14598E-03   -0.64557E-04 38464   0.104E-01    0.313E-01
DAV:  17    -0.354915744659E+03    0.17529E-03   -0.48619E-04 39192   0.896E-02    0.216E-01
DAV:  18    -0.354915683706E+03    0.60954E-04   -0.42883E-04 38904   0.771E-02    0.145E-01
DAV:  19    -0.354915696182E+03   -0.12476E-04   -0.31098E-04 36944   0.617E-02    0.176E-01
DAV:  20    -0.354915660942E+03    0.35240E-04   -0.22796E-04 28584   0.454E-02    0.875E-02
DAV:  21    -0.354915669209E+03   -0.82667E-05   -0.50204E-05 24040   0.296E-02
  40 F= -.35491567E+03 E0= -.35489868E+03  d E =0.449392E+00  mag=     8.0000
       N       E                     dE             d eps       ncg     rms          rms(c)
DAV:   1    -0.355015464294E+03   -0.99803E-01   -0.35725E+01 32816   0.178E+01    0.309E+00
DAV:   2    -0.355440919699E+03   -0.42546E+00   -0.38082E+00 29904   0.464E+00    0.723E+00
DAV:   3    -0.355354724117E+03    0.86196E-01   -0.37946E-01 36672   0.157E+00    0.472E+00
DAV:   4    -0.355352786055E+03    0.19381E-02   -0.10872E-01 37568   0.657E-01    0.445E+00
DAV:   5    -0.355354860796E+03   -0.20747E-02   -0.12663E-01 38576   0.606E-01    0.527E+00
DAV:   6    -0.355332206668E+03    0.22654E-01   -0.14285E-01 38224   0.803E-01    0.370E+00
DAV:   7    -0.355371752433E+03   -0.39546E-01   -0.26291E-01 38520   0.135E+00    0.554E+00
DAV:   8    -0.355338197073E+03    0.33555E-01   -0.38594E-01 38440   0.141E+00    0.366E+00
DAV:   9    -0.355327466560E+03    0.10731E-01   -0.39648E-02 38232   0.868E-01    0.263E+00
DAV:  10    -0.355318259402E+03    0.92072E-02   -0.22009E-02 38296   0.480E-01    0.188E+00
DAV:  11    -0.355311110479E+03    0.71489E-02   -0.10830E-02 39440   0.432E-01    0.867E-01
DAV:  12    -0.355317733857E+03   -0.66234E-02   -0.15552E-02 38128   0.421E-01    0.194E+00
DAV:  13    -0.355310545446E+03    0.71884E-02   -0.97418E-03 36960   0.353E-01    0.466E-01
DAV:  14    -0.355311321345E+03   -0.77590E-03   -0.14223E-03 37648   0.158E-01    0.339E-01
DAV:  15    -0.355311553323E+03   -0.23198E-03   -0.65817E-04 38112   0.955E-02    0.390E-01
DAV:  16    -0.355311435965E+03    0.11736E-03   -0.34905E-04 34736   0.694E-02    0.333E-01
DAV:  17    -0.355311306277E+03    0.12969E-03   -0.25358E-04 36792   0.686E-02    0.143E-01
DAV:  18    -0.355311376699E+03   -0.70421E-04   -0.16682E-04 34728   0.489E-02    0.120E-01
DAV:  19    -0.355311393993E+03   -0.17294E-04   -0.74541E-05 26768   0.399E-02    0.113E-01
DAV:  20    -0.355311399657E+03   -0.56639E-05   -0.48298E-05 25456   0.238E-02
  41 F= -.35531140E+03 E0= -.35529482E+03  d E =-.395730E+00  mag=     8.0000
       N       E                     dE             d eps       ncg     rms          rms(c)
DAV:   1    -0.355315431229E+03   -0.40372E-02   -0.29079E+00 32600   0.638E+00    0.642E-01
DAV:   2    -0.355352879488E+03   -0.37448E-01   -0.38775E-01 28544   0.144E+00    0.164E+00
DAV:   3    -0.355349224983E+03    0.36545E-02   -0.26947E-02 37040   0.463E-01    0.854E-01
DAV:   4    -0.355349330343E+03   -0.10536E-03   -0.46298E-03 38728   0.209E-01    0.676E-01
DAV:   5    -0.355349960446E+03   -0.63010E-03   -0.69341E-03 35456   0.181E-01    0.875E-01
DAV:   6    -0.355348891972E+03    0.10685E-02   -0.38607E-03 38664   0.160E-01    0.585E-01
DAV:   7    -0.355350212553E+03   -0.13206E-02   -0.64633E-03 38408   0.244E-01    0.108E+00
DAV:   8    -0.355349307691E+03    0.90486E-03   -0.93240E-03 38920   0.292E-01    0.102E+00
DAV:   9    -0.355348314720E+03    0.99297E-03   -0.44941E-03 35992   0.199E-01    0.689E-01
DAV:  10    -0.355347802009E+03    0.51271E-03   -0.19259E-03 38144   0.127E-01    0.314E-01
DAV:  11    -0.355347861974E+03   -0.59966E-04   -0.67581E-04 36448   0.786E-02    0.155E-01
DAV:  12    -0.355347918631E+03   -0.56656E-04   -0.15033E-04 30136   0.438E-02    0.128E-01
DAV:  13    -0.355347908497E+03    0.10134E-04   -0.30347E-05 21184   0.220E-02    0.938E-02
DAV:  14    -0.355347907672E+03    0.82560E-06   -0.18676E-05 18184   0.166E-02
  42 F= -.35534791E+03 E0= -.35533159E+03  d E =-.365080E-01  mag=     8.0000
       N       E                     dE             d eps       ncg     rms          rms(c)
DAV:   1    -0.355338539560E+03    0.93689E-02   -0.19429E+00 33504   0.560E+00    0.466E-01
DAV:   2    -0.355363471397E+03   -0.24932E-01   -0.25802E-01 28448   0.121E+00    0.110E+00
DAV:   3    -0.355362692064E+03    0.77933E-03   -0.15380E-02 38104   0.376E-01    0.785E-01
DAV:   4    -0.355362497869E+03    0.19420E-03   -0.45514E-03 37760   0.180E-01    0.619E-01
DAV:   5    -0.355362077631E+03    0.42024E-03   -0.34758E-03 37216   0.128E-01    0.440E-01
DAV:   6    -0.355362232077E+03   -0.15445E-03   -0.16480E-03 37848   0.127E-01    0.564E-01
DAV:   7    -0.355361995086E+03    0.23699E-03   -0.22443E-03 39872   0.148E-01    0.525E-01
DAV:   8    -0.355361872240E+03    0.12285E-03   -0.44832E-03 38640   0.187E-01    0.514E-01
DAV:   9    -0.355361508254E+03    0.36399E-03   -0.20583E-03 37312   0.136E-01    0.345E-01
DAV:  10    -0.355361438815E+03    0.69440E-04   -0.75851E-04 38648   0.906E-02    0.259E-01
DAV:  11    -0.355361386317E+03    0.52498E-04   -0.39635E-04 36400   0.678E-02    0.133E-01
DAV:  12    -0.355361391920E+03   -0.56033E-05   -0.11692E-04 27704   0.411E-02    0.877E-02
DAV:  13    -0.355361393955E+03   -0.20352E-05   -0.74145E-05 22792   0.272E-02
  43 F= -.35536139E+03 E0= -.35534539E+03  d E =-.134863E-01  mag=     8.0000
       N       E                     dE             d eps       ncg     rms          rms(c)
DAV:   1    -0.355359862568E+03    0.15294E-02   -0.75037E-01 33032   0.306E+00    0.265E-01
DAV:   2    -0.355368231144E+03   -0.83686E-02   -0.71397E-02 28376   0.660E-01    0.104E+00
DAV:   3    -0.355366266658E+03    0.19645E-02   -0.42474E-03 37376   0.248E-01    0.339E-01
DAV:   4    -0.355366411748E+03   -0.14509E-03   -0.51843E-04 37480   0.819E-02    0.228E-01
DAV:   5    -0.355366549843E+03   -0.13810E-03   -0.56171E-04 35792   0.676E-02    0.332E-01
DAV:   6    -0.355366434273E+03    0.11557E-03   -0.55373E-04 27840   0.542E-02    0.240E-01
DAV:   7    -0.355366631271E+03   -0.19700E-03   -0.89353E-04 37384   0.906E-02    0.395E-01
DAV:   8    -0.355366421127E+03    0.21014E-03   -0.94962E-04 37440   0.971E-02    0.293E-01
DAV:   9    -0.355366328385E+03    0.92742E-04   -0.40059E-04 36224   0.749E-02    0.186E-01
DAV:  10    -0.355366305683E+03    0.22702E-04   -0.16330E-04 29760   0.473E-02    0.105E-01
DAV:  11    -0.355366310246E+03   -0.45632E-05   -0.72272E-05 23568   0.346E-02
  44 F= -.35536631E+03 E0= -.35535047E+03  d E =-.491629E-02  mag=     8.0000
       N       E                     dE             d eps       ncg     rms          rms(c)
DAV:   1    -0.355365009093E+03    0.12966E-02   -0.61067E-01 32880   0.234E+00    0.229E-01
DAV:   2    -0.355369461954E+03   -0.44529E-02   -0.39910E-02 28656   0.505E-01    0.669E-01
DAV:   3    -0.355368604946E+03    0.85701E-03   -0.18068E-03 36560   0.147E-01    0.345E-01
DAV:   4    -0.355368674896E+03   -0.69950E-04   -0.30346E-04 35464   0.556E-02    0.341E-01
DAV:   5    -0.355368618088E+03    0.56808E-04   -0.27716E-04 31400   0.496E-02    0.275E-01
DAV:   6    -0.355368697472E+03   -0.79384E-04   -0.82121E-04 29408   0.584E-02    0.321E-01
DAV:   7    -0.355368928988E+03   -0.23152E-03   -0.16505E-03 36192   0.925E-02    0.496E-01
DAV:   8    -0.355368558665E+03    0.37032E-03   -0.14055E-03 37280   0.981E-02    0.237E-01
DAV:   9    -0.355368557389E+03    0.12763E-05   -0.31969E-04 36136   0.754E-02    0.182E-01
DAV:  10    -0.355368547214E+03    0.10175E-04   -0.19268E-04 26536   0.508E-02    0.142E-01
DAV:  11    -0.355368525732E+03    0.21482E-04   -0.81448E-05 23408   0.350E-02    0.493E-02
DAV:  12    -0.355368533082E+03   -0.73496E-05   -0.26133E-05 19296   0.169E-02
  45 F= -.35536853E+03 E0= -.35535269E+03  d E =-.222284E-02  mag=     8.0000
       N       E                     dE             d eps       ncg     rms          rms(c)
DAV:   1    -0.355368611095E+03   -0.85363E-04   -0.94061E-02 30528   0.862E-01    0.919E-02
DAV:   2    -0.355369137891E+03   -0.52680E-03   -0.43830E-03 30960   0.186E-01    0.291E-01
DAV:   3    -0.355368964562E+03    0.17333E-03   -0.37119E-04 35568   0.646E-02    0.148E-01
DAV:   4    -0.355368973947E+03   -0.93846E-05   -0.83195E-05 22840   0.231E-02
  46 F= -.35536897E+03 E0= -.35535310E+03  d E =-.440865E-03  mag=     8.0000
       N       E                     dE             d eps       ncg     rms          rms(c)
DAV:   1    -0.355368490908E+03    0.47365E-03   -0.26629E-01 32120   0.152E+00    0.168E-01
DAV:   2    -0.355370020011E+03   -0.15291E-02   -0.12449E-02 29840   0.300E-01    0.587E-01
DAV:   3    -0.355369448756E+03    0.57126E-03   -0.18678E-03 34328   0.134E-01    0.185E-01
DAV:   4    -0.355369564182E+03   -0.11543E-03   -0.44958E-04 30320   0.542E-02    0.204E-01
DAV:   5    -0.355369526279E+03    0.37903E-04   -0.38308E-04 26016   0.443E-02    0.151E-01
DAV:   6    -0.355369559541E+03   -0.33261E-04   -0.39150E-04 25816   0.546E-02    0.215E-01
DAV:   7    -0.355369595852E+03   -0.36311E-04   -0.52007E-04 34032   0.660E-02    0.216E-01
DAV:   8    -0.355369515512E+03    0.80340E-04   -0.58779E-04 32712   0.601E-02    0.158E-01
DAV:   9    -0.355369491574E+03    0.23938E-04   -0.58930E-05 21904   0.300E-02    0.106E-01
DAV:  10    -0.355369499242E+03   -0.76688E-05   -0.56417E-05 22400   0.253E-02
  47 F= -.35536950E+03 E0= -.35535354E+03  d E =-.525295E-03  mag=     8.0000
       N       E                     dE             d eps       ncg     rms          rms(c)
DAV:   1    -0.355369057400E+03    0.43417E-03   -0.18403E-01 32176   0.133E+00    0.989E-02
DAV:   2    -0.355369944867E+03   -0.88747E-03   -0.89260E-03 28288   0.248E-01    0.218E-01
DAV:   3    -0.355369899746E+03    0.45120E-04   -0.66577E-04 36424   0.674E-02    0.173E-01
DAV:   4    -0.355369874554E+03    0.25193E-04   -0.15224E-04 28288   0.370E-02    0.107E-01
DAV:   5    -0.355369870570E+03    0.39842E-05   -0.83235E-05 21784   0.273E-02
  48 F= -.35536987E+03 E0= -.35535402E+03  d E =-.371327E-03  mag=     8.0000
       N       E                     dE             d eps       ncg     rms          rms(c)
DAV:   1    -0.355365869948E+03    0.40046E-02   -0.12391E+00 32224   0.323E+00    0.219E-01
DAV:   2    -0.355370934460E+03   -0.50645E-02   -0.46370E-02 28472   0.601E-01    0.738E-01
DAV:   3    -0.355370064669E+03    0.86979E-03   -0.29572E-03 36624   0.202E-01    0.283E-01
DAV:   4    -0.355370158211E+03   -0.93542E-04   -0.58405E-04 35864   0.875E-02    0.255E-01
DAV:   5    -0.355370052952E+03    0.10526E-03   -0.29826E-04 32072   0.575E-02    0.151E-01
DAV:   6    -0.355370116640E+03   -0.63689E-04   -0.38357E-04 29480   0.554E-02    0.239E-01
DAV:   7    -0.355370145555E+03   -0.28914E-04   -0.85983E-04 32440   0.645E-02    0.285E-01
DAV:   8    -0.355370059966E+03    0.85588E-04   -0.93576E-04 37552   0.715E-02    0.219E-01
DAV:   9    -0.355369993633E+03    0.66333E-04   -0.36104E-04 32288   0.491E-02    0.130E-01
DAV:  10    -0.355369981259E+03    0.12374E-04   -0.63804E-05 22424   0.278E-02    0.628E-02
DAV:  11    -0.355369985082E+03   -0.38223E-05   -0.26193E-05 19472   0.189E-02
  49 F= -.35536999E+03 E0= -.35535396E+03  d E =-.114512E-03  mag=     8.0000
       N       E                     dE             d eps       ncg     rms          rms(c)
DAV:   1    -0.355369335060E+03    0.64620E-03   -0.15273E-01 32040   0.130E+00    0.978E-02
DAV:   2    -0.355370270022E+03   -0.93496E-03   -0.93947E-03 28288   0.254E-01    0.232E-01
DAV:   3    -0.355370222915E+03    0.47106E-04   -0.51280E-04 36776   0.749E-02    0.162E-01
DAV:   4    -0.355370195947E+03    0.26969E-04   -0.10498E-04 24872   0.366E-02    0.895E-02
DAV:   5    -0.355370213005E+03   -0.17058E-04   -0.12856E-04 23088   0.326E-02    0.131E-01
DAV:   6    -0.355370191282E+03    0.21722E-04   -0.10488E-04 20912   0.274E-02    0.917E-02
DAV:   7    -0.355370208199E+03   -0.16916E-04   -0.12426E-04 28952   0.364E-02    0.120E-01
DAV:   8    -0.355370189330E+03    0.18869E-04   -0.14584E-04 23832   0.360E-02    0.934E-02
DAV:   9    -0.355370180871E+03    0.84584E-05   -0.39185E-05 20232   0.238E-02
  50 F= -.35537018E+03 E0= -.35535422E+03  d E =-.195789E-03  mag=     8.0000
       N       E                     dE             d eps       ncg     rms          rms(c)
DAV:   1    -0.355369637366E+03    0.55196E-03   -0.95625E-02 31792   0.945E-01    0.802E-02
DAV:   2    -0.355370119225E+03   -0.48186E-03   -0.47397E-03 28568   0.184E-01    0.198E-01
DAV:   3    -0.355370048338E+03    0.70888E-04   -0.36930E-04 34624   0.567E-02    0.938E-02
DAV:   4    -0.355370060119E+03   -0.11782E-04   -0.89921E-05 22456   0.276E-02    0.985E-02
DAV:   5    -0.355370055390E+03    0.47291E-05   -0.12098E-04 20816   0.257E-02    0.872E-02
DAV:   6    -0.355370060931E+03   -0.55408E-05   -0.10593E-04 21456   0.273E-02    0.104E-01
DAV:   7    -0.355370074543E+03   -0.13612E-04   -0.95317E-05 21632   0.324E-02    0.135E-01
DAV:   8    -0.355370044868E+03    0.29676E-04   -0.77367E-05 22248   0.316E-02    0.629E-02
DAV:   9    -0.355370045419E+03   -0.55164E-06   -0.26032E-05 19208   0.202E-02
  51 F= -.35537005E+03 E0= -.35535413E+03  d E =0.135452E-03  mag=     8.0000
       N       E                     dE             d eps       ncg     rms          rms(c)
DAV:   1    -0.355369430234E+03    0.61463E-03   -0.14360E-01 31928   0.116E+00    0.908E-02
DAV:   2    -0.355370470216E+03   -0.10400E-02   -0.74770E-03 30160   0.227E-01    0.490E-01
DAV:   3    -0.355369995383E+03    0.47483E-03   -0.14226E-03 33984   0.101E-01    0.115E-01
DAV:   4    -0.355370047884E+03   -0.52502E-04   -0.15935E-04 26920   0.360E-02    0.113E-01
DAV:   5    -0.355370036268E+03    0.11617E-04   -0.76020E-05 20808   0.279E-02    0.775E-02
DAV:   6    -0.355370030318E+03    0.59495E-05   -0.30858E-05 19696   0.193E-02
  52 F= -.35537003E+03 E0= -.35535412E+03  d E =0.151010E-04  mag=     8.0000
       N       E                     dE             d eps       ncg     rms          rms(c)
DAV:   1    -0.355367289623E+03    0.27466E-02   -0.93485E-01 30944   0.270E+00    0.165E-01
DAV:   2    -0.355370769503E+03   -0.34799E-02   -0.32556E-02 28304   0.472E-01    0.551E-01
DAV:   3    -0.355370269547E+03    0.49996E-03   -0.37831E-03 36592   0.146E-01    0.265E-01
DAV:   4    -0.355370301750E+03   -0.32203E-04   -0.86571E-04 36744   0.737E-02    0.274E-01
DAV:   5    -0.355370178765E+03    0.12299E-03   -0.38584E-04 33024   0.576E-02    0.109E-01
DAV:   6    -0.355370203924E+03   -0.25159E-04   -0.13139E-04 24176   0.384E-02    0.146E-01
DAV:   7    -0.355370221719E+03   -0.17795E-04   -0.23522E-04 31376   0.506E-02    0.194E-01
DAV:   8    -0.355370175987E+03    0.45732E-04   -0.27069E-04 32776   0.520E-02    0.123E-01
DAV:   9    -0.355370160077E+03    0.15910E-04   -0.13264E-04 24248   0.328E-02    0.792E-02
DAV:  10    -0.355370160840E+03   -0.76331E-06   -0.26839E-05 20000   0.193E-02
  53 F= -.35537016E+03 E0= -.35535433E+03  d E =-.130522E-03  mag=     8.0000
       N       E                     dE             d eps       ncg     rms          rms(c)
DAV:   1    -0.355351468404E+03    0.18692E-01   -0.53487E+00 31968   0.680E+00    0.367E-01
DAV:   2    -0.355371376894E+03   -0.19908E-01   -0.20017E-01 28288   0.117E+00    0.745E-01
DAV:   3    -0.355371494606E+03   -0.11771E-03   -0.12939E-02 37840   0.284E-01    0.807E-01
DAV:   4    -0.355370842213E+03    0.65239E-03   -0.64206E-03 36464   0.182E-01    0.531E-01
DAV:   5    -0.355370388527E+03    0.45369E-03   -0.17624E-03 38224   0.114E-01    0.192E-01
DAV:   6    -0.355370613343E+03   -0.22482E-03   -0.13114E-03 37856   0.100E-01    0.337E-01
DAV:   7    -0.355370461541E+03    0.15180E-03   -0.13772E-03 37040   0.109E-01    0.322E-01
DAV:   8    -0.355370331776E+03    0.12976E-03   -0.44421E-04 38096   0.822E-02    0.198E-01
DAV:   9    -0.355370307265E+03    0.24512E-04   -0.27323E-04 32168   0.527E-02    0.123E-01
DAV:  10    -0.355370298954E+03    0.83110E-05   -0.10875E-04 23288   0.355E-02    0.605E-02
DAV:  11    -0.355370304809E+03   -0.58551E-05   -0.32716E-05 20104   0.231E-02
  54 F= -.35537030E+03 E0= -.35535430E+03  d E =-.143969E-03  mag=     8.0000
       N       E                     dE             d eps       ncg     rms          rms(c)
DAV:   1    -0.355273747110E+03    0.96552E-01   -0.20581E+01 30752   0.138E+01    0.892E-01
DAV:   2    -0.355363907375E+03   -0.90160E-01   -0.93224E-01 28288   0.254E+00    0.155E+00
DAV:   3    -0.355364399144E+03   -0.49177E-03   -0.31355E-02 37024   0.567E-01    0.147E+00
DAV:   4    -0.355361457721E+03    0.29414E-02   -0.10456E-02 38168   0.295E-01    0.872E-01
DAV:   5    -0.355364586520E+03   -0.31288E-02   -0.22835E-02 37096   0.328E-01    0.164E+00
DAV:   6    -0.355361062773E+03    0.35237E-02   -0.13186E-02 37576   0.285E-01    0.950E-01
DAV:   7    -0.355361449521E+03   -0.38675E-03   -0.94119E-03 36920   0.336E-01    0.105E+00
DAV:   8    -0.355359742929E+03    0.17066E-02   -0.59660E-03 38096   0.251E-01    0.537E-01
DAV:   9    -0.355359750748E+03   -0.78182E-05   -0.17911E-03 37680   0.179E-01    0.437E-01
DAV:  10    -0.355359566861E+03    0.18389E-03   -0.13206E-03 37896   0.127E-01    0.285E-01
DAV:  11    -0.355359524739E+03    0.42123E-04   -0.43622E-04 37888   0.702E-02    0.142E-01
DAV:  12    -0.355359563838E+03   -0.39099E-04   -0.17381E-04 26616   0.366E-02    0.145E-01
DAV:  13    -0.355359554915E+03    0.89234E-05   -0.62798E-05 21136   0.239E-02
  55 F= -.35535955E+03 E0= -.35534293E+03  d E =0.107499E-01  mag=     8.0000
       N       E                     dE             d eps       ncg     rms          rms(c)
DAV:   1    -0.355335942993E+03    0.23621E-01   -0.56872E+00 32608   0.796E+00    0.642E-01
DAV:   2    -0.355376009203E+03   -0.40066E-01   -0.40155E-01 28288   0.159E+00    0.186E+00
DAV:   3    -0.355371881808E+03    0.41274E-02   -0.42856E-02 36568   0.504E-01    0.969E-01
DAV:   4    -0.355371430631E+03    0.45118E-03   -0.39569E-03 36264   0.186E-01    0.675E-01
DAV:   5    -0.355371554900E+03   -0.12427E-03   -0.23386E-03 37480   0.160E-01    0.726E-01
DAV:   6    -0.355371636610E+03   -0.81710E-04   -0.26251E-03 38304   0.193E-01    0.840E-01
DAV:   7    -0.355371184381E+03    0.45223E-03   -0.46444E-03 38504   0.231E-01    0.848E-01
DAV:   8    -0.355369882102E+03    0.13023E-02   -0.56661E-03 39232   0.255E-01    0.605E-01
DAV:   9    -0.355370463178E+03   -0.58108E-03   -0.45592E-03 37896   0.185E-01    0.630E-01
DAV:  10    -0.355369980054E+03    0.48312E-03   -0.34140E-03 37528   0.153E-01    0.296E-01
DAV:  11    -0.355370086983E+03   -0.10693E-03   -0.44259E-04 38104   0.809E-02    0.235E-01
DAV:  12    -0.355370120808E+03   -0.33824E-04   -0.25358E-04 27824   0.515E-02    0.209E-01
DAV:  13    -0.355370150730E+03   -0.29922E-04   -0.14804E-04 25488   0.423E-02    0.213E-01
DAV:  14    -0.355370322679E+03   -0.17195E-03   -0.36045E-04 38728   0.635E-02    0.379E-01
DAV:  15    -0.355370132817E+03    0.18986E-03   -0.28895E-04 33488   0.576E-02    0.206E-01
DAV:  16    -0.355370102913E+03    0.29904E-04   -0.13260E-04 29720   0.449E-02    0.127E-01
DAV:  17    -0.355370079693E+03    0.23219E-04   -0.13317E-04 36304   0.430E-02    0.478E-02
DAV:  18    -0.355370088324E+03   -0.86302E-05   -0.47630E-05 26968   0.263E-02
  56 F= -.35537009E+03 E0= -.35535406E+03  d E =-.105334E-01  mag=     8.0000
       N       E                     dE             d eps       ncg     rms          rms(c)
DAV:   1    -0.355358413006E+03    0.11667E-01   -0.18656E+00 33168   0.461E+00    0.394E-01
DAV:   2    -0.355370767449E+03   -0.12354E-01   -0.12737E-01 28288   0.918E-01    0.939E-01
DAV:   3    -0.355369652567E+03    0.11149E-02   -0.47878E-03 34096   0.206E-01    0.507E-01
DAV:   4    -0.355369814567E+03   -0.16200E-03   -0.79282E-04 35440   0.751E-02    0.497E-01
DAV:   5    -0.355369892131E+03   -0.77564E-04   -0.11171E-03 36904   0.862E-02    0.558E-01
DAV:   6    -0.355370926322E+03   -0.10342E-02   -0.28985E-03 38216   0.172E-01    0.881E-01
DAV:   7    -0.355369989622E+03    0.93670E-03   -0.21543E-03 38784   0.170E-01    0.577E-01
DAV:   8    -0.355369967528E+03    0.22094E-04   -0.27826E-03 38240   0.177E-01    0.602E-01
DAV:   9    -0.355369464217E+03    0.50331E-03   -0.11276E-03 37464   0.124E-01    0.342E-01
DAV:  10    -0.355369430801E+03    0.33415E-04   -0.66612E-04 37784   0.808E-02    0.232E-01
DAV:  11    -0.355369366825E+03    0.63976E-04   -0.32050E-04 32304   0.534E-02    0.741E-02
DAV:  12    -0.355369381833E+03   -0.15008E-04   -0.28274E-05 20808   0.203E-02    0.683E-02
DAV:  13    -0.355369383474E+03   -0.16413E-05   -0.14195E-05 16984   0.135E-02
  57 F= -.35536938E+03 E0= -.35535345E+03  d E =0.704849E-03  mag=     8.0000
       N       E                     dE             d eps       ncg     rms          rms(c)
DAV:   1    -0.355366107048E+03    0.32748E-02   -0.11002E+00 31776   0.333E+00    0.265E-01
DAV:   2    -0.355371856617E+03   -0.57496E-02   -0.59834E-02 28288   0.632E-01    0.533E-01
DAV:   3    -0.355371549462E+03    0.30716E-03   -0.18260E-03 34368   0.128E-01    0.324E-01
DAV:   4    -0.355371574602E+03   -0.25139E-04   -0.31865E-04 34880   0.532E-02    0.311E-01
DAV:   5    -0.355371786042E+03   -0.21144E-03   -0.86340E-04 32560   0.727E-02    0.476E-01
DAV:   6    -0.355371708827E+03    0.77216E-04   -0.14192E-03 38320   0.110E-01    0.394E-01
DAV:   7    -0.355371585426E+03    0.12340E-03   -0.89657E-04 38312   0.112E-01    0.381E-01
DAV:   8    -0.355371463678E+03    0.12175E-03   -0.67370E-04 38624   0.100E-01    0.317E-01
DAV:   9    -0.355371341236E+03    0.12244E-03   -0.37520E-04 37952   0.756E-02    0.156E-01
DAV:  10    -0.355371353018E+03   -0.11782E-04   -0.23496E-04 34272   0.471E-02    0.119E-01
DAV:  11    -0.355371355586E+03   -0.25684E-05   -0.64879E-05 22472   0.295E-02
  58 F= -.35537136E+03 E0= -.35535524E+03  d E =-.197211E-02  mag=     8.0000
       N       E                     dE             d eps       ncg     rms          rms(c)
DAV:   1    -0.355370029372E+03    0.13236E-02   -0.32858E-01 31448   0.161E+00    0.112E-01
DAV:   2    -0.355371319143E+03   -0.12898E-02   -0.11658E-02 28536   0.285E-01    0.376E-01
DAV:   3    -0.355371075534E+03    0.24361E-03   -0.98613E-04 34952   0.910E-02    0.143E-01
DAV:   4    -0.355371125998E+03   -0.50464E-04   -0.27030E-04 27144   0.409E-02    0.153E-01
DAV:   5    -0.355371095220E+03    0.30778E-04   -0.17242E-04 22736   0.352E-02    0.114E-01
DAV:   6    -0.355371094384E+03    0.83585E-06   -0.71048E-05 21568   0.270E-02
  59 F= -.35537109E+03 E0= -.35535506E+03  d E =0.261202E-03  mag=     8.0000
       N       E                     dE             d eps       ncg     rms          rms(c)
DAV:   1    -0.355074111289E+03    0.29698E+00   -0.85940E+01 31288   0.262E+01    0.143E+00
DAV:   2    -0.355367881807E+03   -0.29377E+00   -0.30102E+00 28288   0.448E+00    0.177E+00
DAV:   3    -0.355402603598E+03   -0.34722E-01   -0.23591E-01 38200   0.110E+00    0.437E+00
DAV:   4    -0.355359320415E+03    0.43283E-01   -0.81465E-02 37648   0.719E-01    0.124E+00
DAV:   5    -0.355362205700E+03   -0.28853E-02   -0.11024E-02 39280   0.292E-01    0.116E+00
DAV:   6    -0.355361456477E+03    0.74922E-03   -0.66222E-03 37376   0.306E-01    0.100E+00
DAV:   7    -0.355360237129E+03    0.12193E-02   -0.97701E-03 38296   0.326E-01    0.923E-01
DAV:   8    -0.355359207188E+03    0.10299E-02   -0.61299E-03 38208   0.295E-01    0.750E-01
DAV:   9    -0.355359435000E+03   -0.22781E-03   -0.58457E-03 38088   0.255E-01    0.795E-01
DAV:  10    -0.355358747064E+03    0.68794E-03   -0.39113E-03 38344   0.200E-01    0.480E-01
DAV:  11    -0.355359085566E+03   -0.33850E-03   -0.20250E-03 37584   0.143E-01    0.431E-01
DAV:  12    -0.355358902447E+03    0.18312E-03   -0.15704E-03 37288   0.111E-01    0.236E-01
DAV:  13    -0.355358963714E+03   -0.61267E-04   -0.26269E-04 34624   0.585E-02    0.236E-01
DAV:  14    -0.355358991464E+03   -0.27750E-04   -0.16578E-04 28192   0.409E-02    0.244E-01
DAV:  15    -0.355358970390E+03    0.21074E-04   -0.19316E-04 27888   0.436E-02    0.176E-01
DAV:  16    -0.355358948666E+03    0.21724E-04   -0.28224E-04 34552   0.517E-02    0.965E-02
DAV:  17    -0.355358950991E+03   -0.23249E-05   -0.12201E-04 32112   0.413E-02    0.732E-02
DAV:  18    -0.355358945390E+03    0.56014E-05   -0.47850E-05 25320   0.292E-02
  60 F= -.35535895E+03 E0= -.35534290E+03  d E =0.121490E-01  mag=     8.0000
       N       E                     dE             d eps       ncg     rms          rms(c)
DAV:   1    -0.355226423092E+03    0.13253E+00   -0.25492E+01 32704   0.157E+01    0.113E+00
DAV:   2    -0.355359031471E+03   -0.13261E+00   -0.12594E+00 28352   0.296E+00    0.361E+00
DAV:   3    -0.355345737843E+03    0.13294E-01   -0.15316E-01 35248   0.107E+00    0.231E+00
DAV:   4    -0.355341998672E+03    0.37392E-02   -0.22346E-02 34888   0.386E-01    0.159E+00
DAV:   5    -0.355340290819E+03    0.17079E-02   -0.71314E-03 37416   0.243E-01    0.125E+00
DAV:   6    -0.355342316204E+03   -0.20254E-02   -0.15425E-02 38872   0.333E-01    0.169E+00
DAV:   7    -0.355341564711E+03    0.75149E-03   -0.16465E-02 39224   0.397E-01    0.166E+00
DAV:   8    -0.355337545788E+03    0.40189E-02   -0.21335E-02 37088   0.402E-01    0.932E-01
DAV:   9    -0.355337184613E+03    0.36117E-03   -0.89948E-03 36968   0.284E-01    0.618E-01
DAV:  10    -0.355337408767E+03   -0.22415E-03   -0.22198E-03 37680   0.189E-01    0.610E-01
DAV:  11    -0.355336920944E+03    0.48782E-03   -0.17888E-03 37640   0.143E-01    0.287E-01
DAV:  12    -0.355336983411E+03   -0.62467E-04   -0.33519E-04 37752   0.799E-02    0.232E-01
DAV:  13    -0.355336986727E+03   -0.33157E-05   -0.14655E-04 31968   0.472E-02    0.209E-01
DAV:  14    -0.355337069260E+03   -0.82534E-04   -0.23933E-04 27072   0.522E-02    0.309E-01
DAV:  15    -0.355336965951E+03    0.10331E-03   -0.31236E-04 32104   0.609E-02    0.204E-01
DAV:  16    -0.355336940972E+03    0.24980E-04   -0.17904E-04 32864   0.533E-02    0.136E-01
DAV:  17    -0.355336917712E+03    0.23260E-04   -0.79891E-05 26040   0.376E-02    0.600E-02
DAV:  18    -0.355336928841E+03   -0.11129E-04   -0.36816E-05 24144   0.233E-02    0.604E-02
DAV:  19    -0.355336927452E+03    0.13885E-05   -0.15736E-05 18448   0.164E-02
  61 F= -.35533693E+03 E0= -.35532031E+03  d E =0.220179E-01  mag=     8.0000
       N       E                     dE             d eps       ncg     rms          rms(c)
DAV:   1    -0.355113661882E+03    0.22327E+00   -0.72770E+01 31624   0.247E+01    0.139E+00
DAV:   2    -0.355385416259E+03   -0.27175E+00   -0.27893E+00 28288   0.429E+00    0.299E+00
DAV:   3    -0.355385594838E+03   -0.17858E-03   -0.23510E-01 37480   0.102E+00    0.265E+00
DAV:   4    -0.355376452669E+03    0.91422E-02   -0.52156E-02 37520   0.576E-01    0.175E+00
DAV:   5    -0.355372210281E+03    0.42424E-02   -0.21634E-02 38216   0.382E-01    0.951E-01
DAV:   6    -0.355376686900E+03   -0.44766E-02   -0.22199E-02 38208   0.480E-01    0.175E+00
DAV:   7    -0.355374544385E+03    0.21425E-02   -0.19552E-02 37720   0.449E-01    0.177E+00
DAV:   8    -0.355372327012E+03    0.22174E-02   -0.13956E-02 38032   0.388E-01    0.167E+00
DAV:   9    -0.355368806602E+03    0.35204E-02   -0.12145E-02 37992   0.280E-01    0.848E-01
DAV:  10    -0.355368931583E+03   -0.12498E-03   -0.71233E-03 38720   0.215E-01    0.351E-01
DAV:  11    -0.355369524199E+03   -0.59262E-03   -0.12339E-03 34800   0.139E-01    0.424E-01
DAV:  12    -0.355369405235E+03    0.11896E-03   -0.10086E-03 37024   0.109E-01    0.318E-01
DAV:  13    -0.355369341323E+03    0.63912E-04   -0.44019E-04 35216   0.701E-02    0.150E-01
DAV:  14    -0.355369385348E+03   -0.44026E-04   -0.11279E-04 29248   0.399E-02    0.132E-01
DAV:  15    -0.355369397936E+03   -0.12587E-04   -0.56174E-05 22104   0.274E-02    0.150E-01
DAV:  16    -0.355369387755E+03    0.10180E-04   -0.58008E-05 23640   0.299E-02    0.111E-01
DAV:  17    -0.355369378134E+03    0.96216E-05   -0.67871E-05 24960   0.320E-02
  62 F= -.35536938E+03 E0= -.35535317E+03  d E =-.324507E-01  mag=     8.0000
       N       E                     dE             d eps       ncg     rms          rms(c)
DAV:   1    -0.355322582897E+03    0.46805E-01   -0.66046E+00 32392   0.882E+00    0.682E-01
DAV:   2    -0.355366543757E+03   -0.43961E-01   -0.42532E-01 28344   0.171E+00    0.174E+00
DAV:   3    -0.355365585087E+03    0.95867E-03   -0.39337E-02 36592   0.621E-01    0.156E+00
DAV:   4    -0.355362909252E+03    0.26758E-02   -0.50087E-03 35480   0.214E-01    0.952E-01
DAV:   5    -0.355362811141E+03    0.98111E-04   -0.18908E-03 38592   0.140E-01    0.859E-01
DAV:   6    -0.355362954934E+03   -0.14379E-03   -0.36322E-03 38864   0.203E-01    0.928E-01
DAV:   7    -0.355363413970E+03   -0.45904E-03   -0.53919E-03 38840   0.249E-01    0.109E+00
DAV:   8    -0.355361321160E+03    0.20928E-02   -0.47588E-03 37848   0.239E-01    0.462E-01
DAV:   9    -0.355361612130E+03   -0.29097E-03   -0.22170E-03 37272   0.162E-01    0.487E-01
DAV:  10    -0.355361336263E+03    0.27587E-03   -0.14343E-03 37528   0.107E-01    0.214E-01
DAV:  11    -0.355361414999E+03   -0.78736E-04   -0.35945E-04 36288   0.614E-02    0.177E-01
DAV:  12    -0.355361423060E+03   -0.80611E-05   -0.14177E-04 26344   0.344E-02    0.163E-01
DAV:  13    -0.355361414921E+03    0.81387E-05   -0.33895E-05 21424   0.214E-02
  63 F= -.35536141E+03 E0= -.35534561E+03  d E =0.796321E-02  mag=     8.0000
       N       E                     dE             d eps       ncg     rms          rms(c)
DAV:   1    -0.355332573361E+03    0.28850E-01   -0.68295E+00 32216   0.878E+00    0.689E-01
DAV:   2    -0.355379635831E+03   -0.47062E-01   -0.41002E-01 28408   0.169E+00    0.247E+00
DAV:   3    -0.355371734655E+03    0.79012E-02   -0.44144E-02 35544   0.720E-01    0.133E+00
DAV:   4    -0.355371315177E+03    0.41948E-03   -0.73196E-03 36032   0.237E-01    0.999E-01
DAV:   5    -0.355370507249E+03    0.80793E-03   -0.33126E-03 36712   0.155E-01    0.778E-01
DAV:   6    -0.355370402186E+03    0.10506E-03   -0.31118E-03 38856   0.157E-01    0.780E-01
DAV:   7    -0.355370931658E+03   -0.52947E-03   -0.50960E-03 39424   0.212E-01    0.952E-01
DAV:   8    -0.355369510547E+03    0.14211E-02   -0.53445E-03 37504   0.239E-01    0.581E-01
DAV:   9    -0.355369318033E+03    0.19251E-03   -0.21195E-03 37544   0.153E-01    0.349E-01
DAV:  10    -0.355369497528E+03   -0.17949E-03   -0.65575E-04 36640   0.895E-02    0.303E-01
DAV:  11    -0.355369395451E+03    0.10208E-03   -0.45146E-04 32624   0.597E-02    0.198E-01
DAV:  12    -0.355369409141E+03   -0.13690E-04   -0.37469E-05 22424   0.207E-02    0.185E-01
DAV:  13    -0.355369411387E+03   -0.22454E-05   -0.10934E-05 17904   0.152E-02
  64 F= -.35536941E+03 E0= -.35535327E+03  d E =-.799647E-02  mag=     8.0000
