       N       E                     dE             d eps       ncg     rms          rms(c)
DAV:   1     0.107709718694E+04    0.10771E+04   -0.52191E+04 87600   0.163E+03
DAV:   2     0.503802145588E+01   -0.10721E+04   -0.10455E+04113880   0.467E+02
DAV:   3    -0.683970053322E+02   -0.73435E+02   -0.73166E+02104412   0.133E+02
DAV:   4    -0.744444592804E+02   -0.60475E+01   -0.60423E+01155772   0.223E+01
DAV:   5    -0.745238353852E+02   -0.79376E-01   -0.79371E-01108372   0.309E+00    0.161E+01
DAV:   6    -0.691533932702E+02    0.53704E+01   -0.27426E+01119196   0.204E+01    0.630E+00
DAV:   7    -0.692272802389E+02   -0.73887E-01   -0.13279E+00127560   0.471E+00    0.335E+00
DAV:   8    -0.692953220637E+02   -0.68042E-01   -0.16145E-01109260   0.256E+00    0.684E-01
DAV:   9    -0.693151684486E+02   -0.19846E-01   -0.38406E-02104688   0.913E-01    0.230E-01
DAV:  10    -0.693213229989E+02   -0.61546E-02   -0.85801E-03128688   0.337E-01    0.208E-01
DAV:  11    -0.693226801887E+02   -0.13572E-02   -0.16186E-03106056   0.168E-01    0.811E-02
DAV:  12    -0.693226873604E+02   -0.71717E-05   -0.23731E-04122640   0.720E-02    0.376E-02
DAV:  13    -0.693227077735E+02   -0.20413E-04   -0.91320E-05115104   0.487E-02    0.738E-03
DAV:  14    -0.693227152208E+02   -0.74473E-05   -0.18131E-05 84108   0.188E-02
   1 F= -.69322715E+02 E0= -.69322715E+02  d E =-.693227E+02  mag=    -0.0000
       N       E                     dE             d eps       ncg     rms          rms(c)
DAV:   1    -0.701779770109E+02   -0.85527E+00   -0.19689E+01101304   0.247E+01    0.688E+00
DAV:   2    -0.694364773300E+02    0.74150E+00   -0.35305E+00 97476   0.835E+00    0.173E+00
DAV:   3    -0.693702875381E+02    0.66190E-01   -0.12353E-01111672   0.232E+00    0.816E-01
DAV:   4    -0.693561427952E+02    0.14145E-01   -0.10698E-01146148   0.151E+00    0.318E-01
DAV:   5    -0.693560611469E+02    0.81648E-04   -0.38188E-03109908   0.349E-01    0.219E-01
DAV:   6    -0.693569799195E+02   -0.91877E-03   -0.12225E-03148152   0.214E-01    0.434E-02
DAV:   7    -0.693569593408E+02    0.20579E-04   -0.27413E-04121308   0.780E-02    0.940E-03
DAV:   8    -0.693569604198E+02   -0.10791E-05   -0.87773E-06 63468   0.180E-02
   2 F= -.69356960E+02 E0= -.69356960E+02  d E =-.342452E-01  mag=    -0.0000
