       N       E                     dE             d eps       ncg     rms          ort
DAV:   1     0.696589646394E+04    0.69659E+04   -0.27014E+05  8320   0.167E+03
DAV:   2     0.727739389336E+03   -0.62382E+04   -0.59103E+04  8320   0.501E+02
DAV:   3    -0.367699880627E+03   -0.10954E+04   -0.10725E+04  8320   0.206E+02
DAV:   4    -0.430248292097E+03   -0.62548E+02   -0.60774E+02  8320   0.509E+01
DAV:   5    -0.435533357918E+03   -0.52851E+01   -0.51517E+01  8320   0.120E+01
SDA:   6    -0.189317955070E+03    0.24622E+03   -0.51517E+01  8320   0.165E+04 0.000E+00
CGA:   7    -0.300660499081E+03   -0.11134E+03   -0.90573E+02  8320   0.120E+04-0.240E+03
CGA:   8    -0.349502011277E+03   -0.48842E+02   -0.49916E+02  8320   0.301E+03-0.122E+02
CGA:   9    -0.362477529976E+03   -0.12976E+02   -0.12144E+02  8320   0.243E+03-0.174E+03
CGA:  10    -0.367746454312E+03   -0.52689E+01   -0.57055E+01  8320   0.132E+03-0.121E+03
CGA:  11    -0.374157685016E+03   -0.64112E+01   -0.69074E+01  8320   0.954E+02-0.124E+01
CGA:  12    -0.378077340745E+03   -0.39197E+01   -0.25183E+01  8320   0.245E+02 0.294E+02
CGA:  13    -0.378221183233E+03   -0.14384E+00   -0.14364E+01  8320   0.905E+02-0.222E+02
CGA:  14    -0.379937272113E+03   -0.17161E+01   -0.14798E+01  8320   0.891E+01 0.453E+01
CGA:  15    -0.380593483473E+03   -0.65621E+00   -0.51120E+00  8320   0.166E+02 0.169E+01
CGA:  16    -0.382211536370E+03   -0.16181E+01   -0.11525E+01  8320   0.135E+02 0.648E+01
CGA:  17    -0.382514345954E+03   -0.30281E+00   -0.92394E+00  8320   0.372E+02-0.262E+01
CGA:  18    -0.381921349052E+03    0.59300E+00   -0.70689E+00  8320   0.100E+03-0.539E+02
CGA:  19    -0.380610230352E+03    0.13111E+01   -0.36512E+01  8320   0.151E+03-0.829E+02
CGA:  20    -0.380862261697E+03   -0.25203E+00   -0.42031E+01  8320   0.187E+03-0.177E+03
CGA:  21    -0.379380307650E+03    0.14820E+01   -0.62169E+01  8320   0.145E+03-0.867E+02
CGA:  22    -0.382179590132E+03   -0.27993E+01   -0.17872E+01  8320   0.122E+03 0.233E+02
CGA:  23    -0.377195505329E+03    0.49841E+01   -0.31062E+01  8320   0.299E+03-0.170E+03
CGA:  24    -0.379572071209E+03   -0.23766E+01   -0.62003E+01  8320   0.241E+03-0.228E+03
CGA:  25    -0.379259534561E+03    0.31254E+00   -0.57909E+01  8320   0.237E+03-0.215E+03
CGA:  26    -0.381231919332E+03   -0.19724E+01   -0.49026E+01  8320   0.174E+03-0.232E+03
CGA:  27    -0.377635595843E+03    0.35963E+01   -0.51834E+01  8320   0.253E+03-0.168E+03
CGA:  28    -0.382233535837E+03   -0.45979E+01   -0.46098E+01  8320   0.148E+03-0.269E+03
CGA:  29    -0.379261813391E+03    0.29717E+01   -0.40655E+01  8320   0.291E+03-0.187E+03
CGA:  30    -0.379102415233E+03    0.15940E+00   -0.67365E+01  8320   0.261E+03-0.213E+03
CGA:  31    -0.379108852832E+03   -0.64376E-02   -0.67031E+01  8320   0.230E+03-0.213E+03
CGA:  32    -0.381066523039E+03   -0.19577E+01   -0.53388E+01  8320   0.163E+03-0.215E+03
CGA:  33    -0.380857490434E+03    0.20903E+00   -0.38625E+01  8320   0.241E+03-0.239E+03
CGA:  34    -0.379283873906E+03    0.15736E+01   -0.61762E+01  8320   0.277E+03-0.208E+03
CGA:  35    -0.379330593517E+03   -0.46720E-01   -0.71707E+01  8320   0.231E+03-0.215E+03
CGA:  36    -0.381387905329E+03   -0.20573E+01   -0.53850E+01  8320   0.164E+03-0.217E+03
CGA:  37    -0.382556905275E+03   -0.11690E+01   -0.34871E+01  8320   0.161E+03-0.205E+03
CGA:  38    -0.382835362691E+03   -0.27846E+00   -0.33515E+01  8320   0.145E+03-0.152E+03
CGA:  39    -0.383142204680E+03   -0.30684E+00   -0.29505E+01  8320   0.129E+03-0.139E+03
CGA:  40    -0.383859187742E+03   -0.71698E+00   -0.23386E+01  8320   0.696E+02-0.936E+02
CGA:  41    -0.384473800686E+03   -0.61461E+00   -0.10720E+01  8320   0.168E+02-0.337E+02
CGA:  42    -0.384670814605E+03   -0.19701E+00   -0.20250E+00  8320   0.757E+00-0.253E+00
CGA:  43    -0.384702479692E+03   -0.31665E-01   -0.32228E-01  8320   0.171E+01 0.146E-01
CGA:  44    -0.384965850447E+03   -0.26337E+00   -0.25144E+00  8320   0.245E+01 0.169E+00
CGA:  45    -0.385087173344E+03   -0.12132E+00   -0.12321E+00  8320   0.172E+01 0.699E-01
CGA:  46    -0.385163815937E+03   -0.76643E-01   -0.80255E-01  8320   0.532E+00 0.793E-01
CGA:  47    -0.385205671060E+03   -0.41855E-01   -0.49754E-01  8320   0.134E+01-0.217E+00
CGA:  48    -0.385241398112E+03   -0.35727E-01   -0.34909E-01  8320   0.228E+01-0.837E-02
CGA:  49    -0.385350528602E+03   -0.10913E+00   -0.11471E+00  8320   0.171E+01 0.305E+00
CGA:  50    -0.385393010880E+03   -0.42482E-01   -0.36529E-01  8320   0.386E+00 0.255E+00
CGA:  51    -0.385415822829E+03   -0.22812E-01   -0.22670E-01  8320   0.580E+00-0.138E-01
CGA:  52    -0.385452106602E+03   -0.36284E-01   -0.35764E-01  8320   0.860E+00 0.363E-01
CGA:  53    -0.385507296347E+03   -0.55190E-01   -0.54707E-01  8320   0.163E+01 0.616E-01
CGA:  54    -0.385572913515E+03   -0.65617E-01   -0.57352E-01  8320   0.807E+00 0.103E+00
CGA:  55    -0.385625794382E+03   -0.52881E-01   -0.52917E-01  8320   0.106E+01-0.502E-02
CGA:  56    -0.385653502962E+03   -0.27709E-01   -0.29478E-01  8320   0.682E+00-0.222E-01
CGA:  57    -0.385703636904E+03   -0.50134E-01   -0.48077E-01  8320   0.536E+00 0.773E-01
CGA:  58    -0.385729995870E+03   -0.26359E-01   -0.26014E-01  8320   0.524E+00-0.367E-02
CGA:  59    -0.385748988472E+03   -0.18993E-01   -0.18387E-01  8320   0.347E+00-0.307E-02
CGA:  60    -0.385761646988E+03   -0.12659E-01   -0.13268E-01  8320   0.458E+00 0.706E-02
CGA:  61    -0.385789536940E+03   -0.27890E-01   -0.28001E-01  8320   0.339E+00-0.124E-01
CGA:  62    -0.385810419554E+03   -0.20883E-01   -0.22836E-01  8320   0.871E+00-0.945E-01
CGA:  63    -0.385820004573E+03   -0.95850E-02   -0.78921E-02  8320   0.852E+00 0.123E+00
CGA:  64    -0.385835898961E+03   -0.15894E-01   -0.19948E-01  8320   0.527E+00-0.112E+00
CGA:  65    -0.385850575228E+03   -0.14676E-01   -0.14205E-01  8320   0.538E+00 0.901E-02
CGA:  66    -0.385861020208E+03   -0.10445E-01   -0.88086E-02  8320   0.289E+00 0.794E-01
CGA:  67    -0.385867543834E+03   -0.65236E-02   -0.59226E-02  8320   0.289E+00 0.241E-01
CGA:  68    -0.385874668064E+03   -0.71242E-02   -0.68793E-02  8320   0.425E+00 0.649E-02
CGA:  69    -0.385882288442E+03   -0.76204E-02   -0.78728E-02  8320   0.457E+00-0.831E-02
CGA:  70    -0.385890756014E+03   -0.84676E-02   -0.86583E-02  8320   0.604E+00-0.522E-02
SDA:  71    -0.385902621734E+03   -0.11866E-01   -0.11697E-01  8320   0.521E+00 0.461E-02
CGA:  72    -0.385916870758E+03   -0.14249E-01   -0.13897E-01  8320   0.315E+00 0.489E-03
CGA:  73    -0.385928094615E+03   -0.11224E-01   -0.11278E-01  8320   0.135E+00 0.478E-02
CGA:  74    -0.385942934444E+03   -0.14840E-01   -0.13969E-01  8320   0.312E+00 0.146E-01
CGA:  75    -0.385954407894E+03   -0.11473E-01   -0.11160E-01  8320   0.329E+00-0.453E-02
CGA:  76    -0.385979692985E+03   -0.25285E-01   -0.25497E-01  8320   0.296E+00-0.614E-02
CGA:  77    -0.385986111301E+03   -0.64183E-02   -0.66354E-02  8320   0.166E+00-0.418E-02
CGA:  78    -0.385995514970E+03   -0.94037E-02   -0.95476E-02  8320   0.118E+00-0.724E-02
CGA:  79    -0.386004488236E+03   -0.89733E-02   -0.90489E-02  8320   0.217E+00-0.186E-02
CGA:  80    -0.386009187774E+03   -0.46995E-02   -0.48251E-02  8320   0.562E-01-0.292E-02
CGA:  81    -0.386013525945E+03   -0.43382E-02   -0.43542E-02  8320   0.448E-01-0.485E-03
CGA:  82    -0.386014904398E+03   -0.13785E-02   -0.13971E-02  8320   0.456E-01 0.240E-04
CGA:  83    -0.386018007310E+03   -0.31029E-02   -0.32034E-02  8320   0.467E-01-0.355E-02
CGA:  84    -0.386021842227E+03   -0.38349E-02   -0.39729E-02  8320   0.680E-01-0.403E-02
CGA:  85    -0.386023914373E+03   -0.20721E-02   -0.21840E-02  8320   0.400E-01 0.119E-02
CGA:  86    -0.386025711070E+03   -0.17967E-02   -0.17775E-02  8320   0.262E-01-0.161E-02
CGA:  87    -0.386027276417E+03   -0.15653E-02   -0.15635E-02  8320   0.306E-01 0.281E-04
CGA:  88    -0.386028794109E+03   -0.15177E-02   -0.15172E-02  8320   0.224E-01 0.461E-03
CGA:  89    -0.386029713756E+03   -0.91965E-03   -0.91717E-03  8320   0.124E-01-0.117E-03
CGA:  90    -0.386030209156E+03   -0.49540E-03   -0.49437E-03  8320   0.106E-01-0.379E-04
CGA:  91    -0.386031265852E+03   -0.10567E-02   -0.10511E-02  8320   0.201E-01 0.150E-03
CGA:  92    -0.386032299680E+03   -0.10338E-02   -0.10341E-02  8320   0.238E-01-0.189E-02
CGA:  93    -0.386033042836E+03   -0.74316E-03   -0.70891E-03  8320   0.126E-01 0.731E-03
CGA:  94    -0.386033413777E+03   -0.37094E-03   -0.38341E-03  8320   0.101E-01-0.390E-04
CGA:  95    -0.386033753320E+03   -0.33954E-03   -0.30970E-03  8320   0.970E-02 0.200E-03
CGA:  96    -0.386034166555E+03   -0.41324E-03   -0.40356E-03  8320   0.167E-01-0.414E-03
CGA:  97    -0.386034476113E+03   -0.30956E-03   -0.31903E-03  8320   0.990E-02-0.143E-03
CGA:  98    -0.386034693766E+03   -0.21765E-03   -0.22424E-03  8320   0.988E-02-0.133E-03
CGA:  99    -0.386034911872E+03   -0.21811E-03   -0.20504E-03  8320   0.501E-02 0.351E-03
CGA: 100    -0.386035027259E+03   -0.11539E-03   -0.11118E-03  8320   0.642E-02 0.968E-04
CGA: 101    -0.386035247199E+03   -0.21994E-03   -0.21864E-03  8320   0.113E-01-0.366E-04
SDA: 102    -0.386035487091E+03   -0.23989E-03   -0.25071E-03  8320   0.111E-01-0.207E-03
CGA: 103    -0.386035909713E+03   -0.42262E-03   -0.42267E-03  8320   0.792E-02 0.109E-04
CGA: 104    -0.386036199054E+03   -0.28934E-03   -0.28955E-03  8320   0.132E-01 0.218E-04
CGA: 105    -0.386037458837E+03   -0.12598E-02   -0.12586E-02  8320   0.222E-01-0.260E-04
CGA: 106    -0.386039264393E+03   -0.18056E-02   -0.18133E-02  8320   0.161E-01-0.904E-03
CGA: 107    -0.386039860944E+03   -0.59655E-03   -0.60797E-03  8320   0.865E-02 0.662E-03
CGA: 108    -0.386040089931E+03   -0.22899E-03   -0.21986E-03  8320   0.527E-02 0.154E-03
CGA: 109    -0.386040367254E+03   -0.27732E-03   -0.27599E-03  8320   0.615E-02 0.104E-03
CGA: 110    -0.386040794576E+03   -0.42732E-03   -0.43805E-03  8320   0.608E-02-0.398E-03
CGA: 111    -0.386041080248E+03   -0.28567E-03   -0.28472E-03  8320   0.340E-02 0.111E-03
CGA: 112    -0.386041173130E+03   -0.92883E-04   -0.90050E-04  8320   0.308E-02 0.347E-04
CGA: 113    -0.386041394040E+03   -0.22091E-03   -0.22134E-03  8320   0.644E-02-0.232E-04
CGA: 114    -0.386041732718E+03   -0.33868E-03   -0.58189E-03  8320   0.191E-01-0.634E-02
CGA: 115    -0.386042046673E+03   -0.31396E-03   -0.31483E-03  8320   0.746E-02-0.498E-04
CGA: 116    -0.386042331812E+03   -0.28514E-03   -0.28495E-03  8320   0.296E-02-0.592E-05
CGA: 117    -0.386042979619E+03   -0.64781E-03   -0.29393E-06  8320   0.170E-01-0.808E-03
CGA: 118    -0.386043494003E+03   -0.51438E-03   -0.50427E-03  8320   0.834E-02 0.209E-03
CGA: 119    -0.386043738283E+03   -0.24428E-03   -0.24808E-03  8320   0.334E-02-0.793E-04
CGA: 120    -0.386043901606E+03   -0.16332E-03   -0.16167E-03  8320   0.743E-02 0.138E-04
CGA: 121    -0.386044377093E+03   -0.47549E-03   -0.47919E-03  8320   0.133E-01 0.865E-04
CGA: 122    -0.386045133669E+03   -0.75658E-03   -0.71911E-03  8320   0.130E-01 0.752E-04
CGA: 123    -0.386045542201E+03   -0.40853E-03   -0.41501E-03  8320   0.557E-02-0.677E-04
CGA: 124    -0.386045814210E+03   -0.27201E-03   -0.26954E-03  8320   0.549E-02-0.747E-05
CGA: 125    -0.386046146250E+03   -0.33204E-03   -0.33189E-03  8320   0.105E-01-0.208E-04
CGA: 126    -0.386046808689E+03   -0.66244E-03   -0.65584E-03  8320   0.186E-01-0.259E-03
CGA: 127    -0.386047437083E+03   -0.62839E-03   -0.63636E-03  8320   0.164E-01-0.177E-03
CGA: 128    -0.386048008162E+03   -0.57108E-03   -0.55330E-03  8320   0.109E-01 0.275E-03
CGA: 129    -0.386048777346E+03   -0.76918E-03   -0.76921E-03  8320   0.281E-01 0.580E-05
CGA: 130    -0.386050789153E+03   -0.20118E-02   -0.20167E-02  8320   0.546E-01-0.742E-03
CGA: 131    -0.386052607558E+03   -0.18184E-02   -0.14772E-02  8320   0.487E-01 0.956E-02
CGA: 132    -0.386053933846E+03   -0.13263E-02   -0.12511E-02  8320   0.257E-01 0.325E-02
CGA: 133    -0.386054666823E+03   -0.73298E-03   -0.74764E-03  8320   0.217E-01-0.137E-03
CGA: 134    -0.386055188609E+03   -0.52179E-03   -0.50994E-03  8320   0.187E-01 0.513E-03
CGA: 135    -0.386055849314E+03   -0.66070E-03   -0.65352E-03  8320   0.283E-01 0.200E-03
CGA: 136    -0.386056669712E+03   -0.82040E-03   -0.81825E-03  8320   0.310E-01 0.277E-03
CGA: 137    -0.386057386703E+03   -0.71699E-03   -0.68139E-03  8320   0.258E-01 0.135E-02
CGA: 138    -0.386057956854E+03   -0.57015E-03   -0.55811E-03  8320   0.212E-01 0.588E-03
CGA: 139    -0.386058361812E+03   -0.40496E-03   -0.43179E-03  8320   0.150E-01-0.794E-03
CGA: 140    -0.386058689570E+03   -0.32776E-03   -0.35525E-03  8320   0.142E-01-0.533E-03
CGA: 141    -0.386059049431E+03   -0.35986E-03   -0.36692E-03  8320   0.132E-01-0.717E-04
CGA: 142    -0.386059498668E+03   -0.44924E-03   -0.44971E-03  8320   0.164E-01 0.725E-05
CGA: 143    -0.386059954950E+03   -0.45628E-03   -0.46120E-03  8320   0.120E-01-0.544E-04
CGA: 144    -0.386060241436E+03   -0.28649E-03   -0.28518E-03  8320   0.803E-02 0.109E-04
SDA: 145    -0.386060491812E+03   -0.25038E-03   -0.24972E-03  8320   0.832E-02-0.365E-05
CGA: 146    -0.386060978193E+03   -0.48638E-03   -0.48542E-03  8320   0.140E-01 0.576E-04
CGA: 147    -0.386061511397E+03   -0.53320E-03   -0.53325E-03  8320   0.196E-01 0.161E-04
CGA: 148    -0.386062488919E+03   -0.97752E-03   -0.97701E-03  8320   0.229E-01 0.925E-04
CGA: 149    -0.386063435352E+03   -0.94643E-03   -0.94720E-03  8320   0.145E-01 0.646E-04
CGA: 150    -0.386064576302E+03   -0.11410E-02   -0.11396E-02  8320   0.656E-02 0.354E-04
CGA: 151    -0.386065131378E+03   -0.55508E-03   -0.55702E-03  8320   0.102E-01-0.524E-04
CGA: 152    -0.386065927391E+03   -0.79601E-03   -0.79664E-03  8320   0.123E-01-0.320E-04
CGA: 153    -0.386066256092E+03   -0.32870E-03   -0.32611E-03  8320   0.980E-02-0.409E-05
CGA: 154    -0.386066528381E+03   -0.27229E-03   -0.27170E-03  8320   0.219E-02-0.277E-04
CGA: 155    -0.386066611474E+03   -0.83093E-04   -0.83107E-04  8320   0.219E-02 0.220E-05
CGA: 156    -0.386066874761E+03   -0.26329E-03   -0.26048E-03  8320   0.211E-02 0.395E-04
CGA: 157    -0.386066984246E+03   -0.10948E-03   -0.10950E-03  8320   0.430E-03 0.197E-04
CGA: 158    -0.386067026887E+03   -0.42641E-04   -0.42673E-04  8320   0.101E-02-0.757E-06
CGA: 159    -0.386067070961E+03   -0.44075E-04   -0.44047E-04  8320   0.225E-02-0.873E-06
CGA: 160    -0.386067189148E+03   -0.11819E-03   -0.11819E-03  8320   0.151E-02-0.274E-06
CGA: 161    -0.386067235294E+03   -0.46146E-04   -0.46039E-04  8320   0.586E-03-0.219E-05
CGA: 162    -0.386067262599E+03   -0.27305E-04   -0.27291E-04  8320   0.305E-03-0.248E-05
CGA: 163    -0.386067321757E+03   -0.59158E-04   -0.59564E-04  8320   0.175E-02-0.290E-05
CGA: 164    -0.386067356043E+03   -0.34286E-04   -0.34119E-04  8320   0.619E-03 0.514E-05
CGA: 165    -0.386067377001E+03   -0.20958E-04   -0.20904E-04  8320   0.165E-03-0.164E-05
CGA: 166    -0.386067388065E+03   -0.11064E-04   -0.11081E-04  8320   0.226E-03-0.158E-05
CGA: 167    -0.386067400641E+03   -0.12576E-04   -0.12575E-04  8320   0.675E-03-0.211E-05
CGA: 168    -0.386067425749E+03   -0.25108E-04   -0.25009E-04  8320   0.219E-03-0.615E-05
CGA: 169    -0.386067431274E+03   -0.55254E-05   -0.54795E-05  8320   0.903E-04-0.150E-05
CGA: 170    -0.386067443558E+03   -0.12284E-04   -0.12703E-04  8320   0.328E-03-0.485E-05
CGA: 171    -0.386067452501E+03   -0.89425E-05   -0.88553E-05  8320   0.363E-03-0.397E-05
CGA: 172    -0.386067466798E+03   -0.14297E-04   -0.14209E-04  8320   0.114E-03-0.447E-05
CGA: 173    -0.386067474812E+03   -0.80139E-05   -0.80452E-05  8320   0.979E-04-0.199E-05
   1 F= -.38606747E+03 E0= -.38604236E+03  d E =-.386067E+03  mag=    10.6804
       N       E                     dE             d eps       ncg     rms          ort
SDA:   1    -0.386063766089E+03    0.37007E-02    0.00000E+00  8320   0.434E+00 0.000E+00
CGA:   2    -0.386068190444E+03   -0.44244E-02   -0.44880E-02  8320   0.845E-02-0.595E-02
CGA:   3    -0.386068466256E+03   -0.27581E-03   -0.27512E-03  8320   0.141E-02 0.527E-05
CGA:   4    -0.386068499251E+03   -0.32995E-04   -0.32966E-04  8320   0.783E-03-0.112E-06
CGA:   5    -0.386068517664E+03   -0.18413E-04   -0.18436E-04  8320   0.285E-03 0.132E-05
CGA:   6    -0.386068537792E+03   -0.20128E-04   -0.20095E-04  8320   0.325E-03 0.150E-05
CGA:   7    -0.386068551133E+03   -0.13341E-04   -0.13350E-04  8320   0.334E-03 0.103E-05
CGA:   8    -0.386068560266E+03   -0.91321E-05   -0.91196E-05  8320   0.176E-03-0.458E-06
   2 F= -.38606856E+03 E0= -.38604346E+03  d E =-.108545E-02  mag=    10.6808
       N       E                     dE             d eps       ncg     rms          ort
SDA:   1    -0.386060152372E+03    0.83988E-02    0.00000E+00  8320   0.543E+00 0.000E+00
CGA:   2    -0.386066807654E+03   -0.66553E-02   -0.67634E-02  8320   0.904E-01-0.739E-02
CGA:   3    -0.386071643895E+03   -0.48362E-02   -0.48424E-02  8320   0.144E+00-0.466E-03
CGA:   4    -0.386079189984E+03   -0.75461E-02   -0.75488E-02  8320   0.864E-01-0.247E-03
CGA:   5    -0.386082122936E+03   -0.29330E-02   -0.29324E-02  8320   0.387E-01-0.592E-06
CGA:   6    -0.386082969703E+03   -0.84677E-03   -0.84947E-03  8320   0.284E-01-0.574E-04
CGA:   7    -0.386084969071E+03   -0.19994E-02   -0.20002E-02  8320   0.238E-01-0.306E-04
CGA:   8    -0.386085873177E+03   -0.90411E-03   -0.90279E-03  8320   0.718E-02-0.485E-04
CGA:   9    -0.386086026302E+03   -0.15313E-03   -0.15285E-03  8320   0.457E-02 0.235E-05
CGA:  10    -0.386086208393E+03   -0.18209E-03   -0.18209E-03  8320   0.254E-02-0.140E-06
CGA:  11    -0.386086335408E+03   -0.12702E-03   -0.12703E-03  8320   0.310E-02-0.286E-05
CGA:  12    -0.386086461363E+03   -0.12595E-03   -0.12594E-03  8320   0.149E-02-0.284E-05
CGA:  13    -0.386086486503E+03   -0.25140E-04   -0.25100E-04  8320   0.439E-03-0.135E-05
CGA:  14    -0.386086508403E+03   -0.21900E-04   -0.21892E-04  8320   0.295E-03 0.105E-05
CGA:  15    -0.386086536117E+03   -0.27714E-04   -0.27674E-04  8320   0.818E-03 0.787E-06
CGA:  16    -0.386086552127E+03   -0.16010E-04   -0.16052E-04  8320   0.185E-03 0.161E-05
CGA:  17    -0.386086559398E+03   -0.72703E-05   -0.72693E-05  8320   0.135E-03-0.276E-06
   3 F= -.38608656E+03 E0= -.38606151E+03  d E =-.179991E-01  mag=    10.6784
       N       E                     dE             d eps       ncg     rms          ort
SDA:   1    -0.385542160898E+03    0.54439E+00    0.00000E+00  8320   0.805E+01 0.000E+00
CGA:   2    -0.385650065056E+03   -0.10790E+00   -0.10572E+00  8320   0.210E+01 0.337E-01
CGA:   3    -0.385857520558E+03   -0.20746E+00   -0.20311E+00  8320   0.431E+01 0.869E-01
CGA:   4    -0.386008310842E+03   -0.15079E+00   -0.15139E+00  8320   0.147E+01 0.549E-02
CGA:   5    -0.386055570410E+03   -0.47260E-01   -0.47345E-01  8320   0.125E+01 0.362E-03
CGA:   6    -0.386083798874E+03   -0.28228E-01   -0.26866E-01  8320   0.683E+00 0.327E-01
CGA:   7    -0.386137110089E+03   -0.53311E-01   -0.53549E-01  8320   0.476E+00-0.665E-02
CGA:   8    -0.386149560295E+03   -0.12450E-01   -0.12477E-01  8320   0.359E+00-0.373E-03
CGA:   9    -0.386157153313E+03   -0.75930E-02   -0.74778E-02  8320   0.684E-01 0.286E-02
CGA:  10    -0.386160439192E+03   -0.32859E-02   -0.32845E-02  8320   0.916E-01 0.169E-03
CGA:  11    -0.386166137267E+03   -0.56981E-02   -0.57005E-02  8320   0.605E-01-0.103E-03
CGA:  12    -0.386167308445E+03   -0.11712E-02   -0.11703E-02  8320   0.305E-01 0.730E-05
CGA:  13    -0.386168237651E+03   -0.92921E-03   -0.92736E-03  8320   0.849E-02-0.106E-04
CGA:  14    -0.386168838360E+03   -0.60071E-03   -0.60015E-03  8320   0.115E-01 0.187E-04
CGA:  15    -0.386169385378E+03   -0.54702E-03   -0.54688E-03  8320   0.154E-01 0.220E-04
CGA:  16    -0.386169744670E+03   -0.35929E-03   -0.36025E-03  8320   0.681E-02-0.718E-05
CGA:  17    -0.386169965979E+03   -0.22131E-03   -0.22105E-03  8320   0.331E-02-0.606E-05
CGA:  18    -0.386170128328E+03   -0.16235E-03   -0.16234E-03  8320   0.251E-02-0.253E-06
CGA:  19    -0.386170309475E+03   -0.18115E-03   -0.18107E-03  8320   0.498E-02 0.256E-05
CGA:  20    -0.386170428238E+03   -0.11876E-03   -0.11881E-03  8320   0.349E-02-0.537E-05
CGA:  21    -0.386170607281E+03   -0.17904E-03   -0.17906E-03  8320   0.122E-02-0.234E-05
CGA:  22    -0.386170669556E+03   -0.62275E-04   -0.62256E-04  8320   0.159E-02 0.239E-05
CGA:  23    -0.386170742534E+03   -0.72978E-04   -0.72968E-04  8320   0.194E-02 0.387E-05
CGA:  24    -0.386170798332E+03   -0.55798E-04   -0.55893E-04  8320   0.180E-02 0.475E-05
CGA:  25    -0.386170879052E+03   -0.80720E-04   -0.80718E-04  8320   0.486E-03 0.292E-05
CGA:  26    -0.386170909748E+03   -0.30696E-04   -0.30659E-04  8320   0.443E-03 0.184E-05
CGA:  27    -0.386170926012E+03   -0.16264E-04   -0.16271E-04  8320   0.705E-03 0.942E-06
CGA:  28    -0.386170954466E+03   -0.28454E-04   -0.28448E-04  8320   0.457E-03-0.135E-05
CGA:  29    -0.386170966514E+03   -0.12048E-04   -0.12055E-04  8320   0.120E-03 0.172E-06
CGA:  30    -0.386170975961E+03   -0.94464E-05   -0.93870E-05  8320   0.162E-03 0.166E-05
   4 F= -.38617098E+03 E0= -.38614614E+03  d E =-.844166E-01  mag=    10.6568
       N       E                     dE             d eps       ncg     rms          ort
SDA:   1    -0.385151490752E+03    0.10195E+01    0.00000E+00  8320   0.421E+01 0.000E+00
CGA:   2    -0.385455138830E+03   -0.30365E+00   -0.30359E+00  8320   0.104E+02 0.681E-02
CGA:   3    -0.385796283223E+03   -0.34114E+00   -0.34567E+00  8320   0.672E+01 0.199E-01
CGA:   4    -0.385964774875E+03   -0.16849E+00   -0.16235E+00  8320   0.244E+01 0.102E+00
CGA:   5    -0.386063684921E+03   -0.98910E-01   -0.98078E-01  8320   0.142E+01-0.581E-01
CGA:   6    -0.386173335713E+03   -0.10965E+00   -0.10847E+00  8320   0.165E+01 0.333E-01
CGA:   7    -0.386212977427E+03   -0.39642E-01   -0.39546E-01  8320   0.927E+00 0.249E-03
CGA:   8    -0.386237629430E+03   -0.24652E-01   -0.24476E-01  8320   0.155E+00 0.168E-02
CGA:   9    -0.386248038734E+03   -0.10409E-01   -0.10384E-01  8320   0.209E+00 0.947E-03
CGA:  10    -0.386256369606E+03   -0.83309E-02   -0.83452E-02  8320   0.252E+00 0.910E-03
CGA:  11    -0.386262328253E+03   -0.59586E-02   -0.59511E-02  8320   0.445E-01 0.980E-04
CGA:  12    -0.386264116367E+03   -0.17881E-02   -0.17882E-02  8320   0.319E-01 0.181E-04
CGA:  13    -0.386265287720E+03   -0.11714E-02   -0.11724E-02  8320   0.194E-01 0.465E-04
CGA:  14    -0.386266201305E+03   -0.91359E-03   -0.91312E-03  8320   0.396E-01 0.808E-04
CGA:  15    -0.386267537995E+03   -0.13367E-02   -0.13375E-02  8320   0.833E-02 0.191E-04
CGA:  16    -0.386268043829E+03   -0.50583E-03   -0.50667E-03  8320   0.623E-02-0.374E-04
CGA:  17    -0.386268232323E+03   -0.18849E-03   -0.18843E-03  8320   0.766E-02-0.256E-05
CGA:  18    -0.386268588665E+03   -0.35634E-03   -0.35631E-03  8320   0.504E-02 0.770E-05
CGA:  19    -0.386269045139E+03   -0.45647E-03   -0.45614E-03  8320   0.455E-02 0.705E-05
CGA:  20    -0.386269148286E+03   -0.10315E-03   -0.10304E-03  8320   0.301E-02 0.524E-05
CGA:  21    -0.386269279655E+03   -0.13137E-03   -0.13137E-03  8320   0.267E-02 0.244E-06
CGA:  22    -0.386269443399E+03   -0.16374E-03   -0.16359E-03  8320   0.321E-02 0.854E-05
CGA:  23    -0.386269595122E+03   -0.15172E-03   -0.15172E-03  8320   0.329E-02 0.481E-05
CGA:  24    -0.386269687089E+03   -0.91967E-04   -0.91990E-04  8320   0.173E-02 0.493E-05
CGA:  25    -0.386269729253E+03   -0.42164E-04   -0.42140E-04  8320   0.685E-03 0.250E-06
CGA:  26    -0.386269821008E+03   -0.91755E-04   -0.91574E-04  8320   0.100E-02 0.199E-05
CGA:  27    -0.386269846669E+03   -0.25661E-04   -0.25638E-04  8320   0.804E-03-0.913E-06
CGA:  28    -0.386269873409E+03   -0.26740E-04   -0.26748E-04  8320   0.249E-03 0.738E-06
CGA:  29    -0.386269896032E+03   -0.22623E-04   -0.22512E-04  8320   0.419E-03 0.249E-05
CGA:  30    -0.386269908827E+03   -0.12795E-04   -0.12835E-04  8320   0.372E-03 0.198E-05
CGA:  31    -0.386269922073E+03   -0.13246E-04   -0.13255E-04  8320   0.241E-03 0.861E-06
SDA:  32    -0.386269931221E+03   -0.91479E-05   -0.91586E-05  8320   0.163E-03 0.121E-05
   5 F= -.38626993E+03 E0= -.38624542E+03  d E =-.989553E-01  mag=    10.6284
       N       E                     dE             d eps       ncg     rms          ort
SDA:   1    -0.382047117042E+03    0.42228E+01    0.00000E+00  8320   0.304E+02 0.000E+00
CGA:   2    -0.382646185656E+03   -0.59907E+00   -0.57760E+00  8320   0.199E+02-0.221E+00
CGA:   3    -0.384324117650E+03   -0.16779E+01   -0.16652E+01  8320   0.266E+02 0.297E+00
CGA:   4    -0.385235320627E+03   -0.91120E+00   -0.90214E+00  8320   0.107E+02 0.917E-01
CGA:   5    -0.385657205027E+03   -0.42188E+00   -0.41659E+00  8320   0.666E+01-0.258E+00
CGA:   6    -0.385815384751E+03   -0.15818E+00   -0.15972E+00  8320   0.610E+01-0.490E-01
CGA:   7    -0.386149865498E+03   -0.33448E+00   -0.33528E+00  8320   0.380E+01-0.468E-01
CGA:   8    -0.386282871138E+03   -0.13301E+00   -0.13312E+00  8320   0.637E+00-0.112E-02
CGA:   9    -0.386310103953E+03   -0.27233E-01   -0.27242E-01  8320   0.108E+01 0.302E-02
CGA:  10    -0.386341733046E+03   -0.31629E-01   -0.31928E-01  8320   0.445E+00-0.141E-03
CGA:  11    -0.386367884890E+03   -0.26152E-01   -0.25761E-01  8320   0.256E+00 0.202E-01
CGA:  12    -0.386378251823E+03   -0.10367E-01   -0.10380E-01  8320   0.157E+00 0.934E-03
CGA:  13    -0.386382525733E+03   -0.42739E-02   -0.43238E-02  8320   0.807E-01-0.204E-03
CGA:  14    -0.386384898519E+03   -0.23728E-02   -0.23749E-02  8320   0.777E-01 0.976E-05
CGA:  15    -0.386389593426E+03   -0.46949E-02   -0.46812E-02  8320   0.432E-01 0.605E-03
CGA:  16    -0.386392862711E+03   -0.32693E-02   -0.32603E-02  8320   0.250E-01 0.260E-03
CGA:  17    -0.386393517758E+03   -0.65505E-03   -0.65638E-03  8320   0.235E-01-0.122E-04
CGA:  18    -0.386394492791E+03   -0.97503E-03   -0.97550E-03  8320   0.154E-01 0.920E-04
CGA:  19    -0.386396040647E+03   -0.15479E-02   -0.15442E-02  8320   0.199E-01 0.660E-04
CGA:  20    -0.386396714399E+03   -0.67375E-03   -0.67534E-03  8320   0.156E-01 0.128E-04
CGA:  21    -0.386397151333E+03   -0.43693E-03   -0.43859E-03  8320   0.920E-02-0.437E-05
CGA:  22    -0.386397480252E+03   -0.32892E-03   -0.32914E-03  8320   0.801E-02 0.884E-05
CGA:  23    -0.386398244340E+03   -0.76409E-03   -0.76436E-03  8320   0.870E-02-0.673E-05
CGA:  24    -0.386398592568E+03   -0.34823E-03   -0.34809E-03  8320   0.550E-02-0.791E-06
CGA:  25    -0.386398720588E+03   -0.12802E-03   -0.12835E-03  8320   0.376E-02-0.707E-05
CGA:  26    -0.386398941650E+03   -0.22106E-03   -0.22099E-03  8320   0.247E-02 0.476E-05
CGA:  27    -0.386399153795E+03   -0.21215E-03   -0.21220E-03  8320   0.188E-02-0.136E-05
CGA:  28    -0.386399217207E+03   -0.63412E-04   -0.63421E-04  8320   0.230E-02-0.672E-06
CGA:  29    -0.386399295389E+03   -0.78182E-04   -0.78228E-04  8320   0.956E-03 0.256E-05
CGA:  30    -0.386399334344E+03   -0.38955E-04   -0.38958E-04  8320   0.925E-03 0.990E-06
CGA:  31    -0.386399402421E+03   -0.68077E-04   -0.68016E-04  8320   0.799E-03 0.234E-05
SDA:  32    -0.386399440668E+03   -0.38247E-04   -0.38247E-04  8320   0.984E-03 0.245E-05
CGA:  33    -0.386399454065E+03   -0.13397E-04   -0.13357E-04  8320   0.210E-03-0.102E-05
CGA:  34    -0.386399475401E+03   -0.21336E-04   -0.21484E-04  8320   0.379E-03-0.273E-05
CGA:  35    -0.386399507370E+03   -0.31969E-04   -0.32115E-04  8320   0.638E-03-0.402E-05
CGA:  36    -0.386399528630E+03   -0.21260E-04   -0.21233E-04  8320   0.171E-03-0.160E-05
CGA:  37    -0.386399538587E+03   -0.99566E-05   -0.99596E-05  8320   0.388E-03-0.375E-06
CGA:  38    -0.386399551135E+03   -0.12549E-04   -0.12569E-04  8320   0.260E-03 0.109E-05
CGA:  39    -0.386399572547E+03   -0.21412E-04   -0.21362E-04  8320   0.189E-03 0.151E-05
CGA:  40    -0.386399585311E+03   -0.12764E-04   -0.12768E-04  8320   0.983E-04-0.266E-06
CGA:  41    -0.386399590008E+03   -0.46975E-05   -0.46943E-05  8320   0.155E-03-0.805E-06
   6 F= -.38639959E+03 E0= -.38637587E+03  d E =-.129659E+00  mag=    10.5644
       N       E                     dE             d eps       ncg     rms          ort
SDA:   1    -0.381051045003E+03    0.53485E+01    0.00000E+00  8320   0.303E+02 0.000E+00
CGA:   2    -0.381729525644E+03   -0.67848E+00   -0.60589E+00  8320   0.209E+02 0.112E+01
CGA:   3    -0.384237386199E+03   -0.25079E+01   -0.25051E+01  8320   0.388E+02 0.112E+00
CGA:   4    -0.385196214306E+03   -0.95883E+00   -0.89042E+00  8320   0.130E+02 0.243E+01
CGA:   5    -0.385538781550E+03   -0.34257E+00   -0.34040E+00  8320   0.835E+01 0.284E-01
CGA:   6    -0.385841019908E+03   -0.30224E+00   -0.29911E+00  8320   0.569E+01-0.199E-01
CGA:   7    -0.386115200088E+03   -0.27418E+00   -0.27427E+00  8320   0.990E+01 0.566E-01
CGA:   8    -0.386312560923E+03   -0.19736E+00   -0.19711E+00  8320   0.157E+01-0.456E-02
CGA:   9    -0.386362110487E+03   -0.49550E-01   -0.48744E-01  8320   0.136E+01-0.998E-04
CGA:  10    -0.386391567882E+03   -0.29457E-01   -0.30931E-01  8320   0.583E+00-0.345E-01
CGA:  11    -0.386428057838E+03   -0.36490E-01   -0.36358E-01  8320   0.534E+00 0.537E-02
CGA:  12    -0.386442406292E+03   -0.14348E-01   -0.14284E-01  8320   0.422E+00 0.878E-03
CGA:  13    -0.386457315715E+03   -0.14909E-01   -0.14923E-01  8320   0.234E+00 0.225E-03
CGA:  14    -0.386463737427E+03   -0.64217E-02   -0.64876E-02  8320   0.788E-01-0.324E-03
CGA:  15    -0.386466140143E+03   -0.24027E-02   -0.24228E-02  8320   0.723E-01 0.131E-03
CGA:  16    -0.386468951325E+03   -0.28112E-02   -0.28143E-02  8320   0.836E-01 0.270E-03
CGA:  17    -0.386473383945E+03   -0.44326E-02   -0.44281E-02  8320   0.362E-01 0.308E-03
CGA:  18    -0.386474573692E+03   -0.11897E-02   -0.11914E-02  8320   0.352E-01 0.422E-04
CGA:  19    -0.386475463907E+03   -0.89022E-03   -0.89298E-03  8320   0.112E-01-0.232E-04
CGA:  20    -0.386476312031E+03   -0.84812E-03   -0.84608E-03  8320   0.178E-01 0.555E-04
CGA:  21    -0.386476985437E+03   -0.67341E-03   -0.67346E-03  8320   0.241E-01 0.180E-05
CGA:  22    -0.386477844464E+03   -0.85903E-03   -0.85886E-03  8320   0.832E-02-0.164E-04
CGA:  23    -0.386478155463E+03   -0.31100E-03   -0.31118E-03  8320   0.680E-02 0.898E-05
CGA:  24    -0.386478508954E+03   -0.35349E-03   -0.35352E-03  8320   0.835E-02-0.107E-05
CGA:  25    -0.386478786984E+03   -0.27803E-03   -0.27812E-03  8320   0.926E-02 0.268E-05
CGA:  26    -0.386479300143E+03   -0.51316E-03   -0.51314E-03  8320   0.368E-02 0.291E-05
CGA:  27    -0.386479516338E+03   -0.21620E-03   -0.21588E-03  8320   0.659E-02 0.176E-04
CGA:  28    -0.386479674768E+03   -0.15843E-03   -0.15879E-03  8320   0.233E-02-0.318E-05
CGA:  29    -0.386479854234E+03   -0.17947E-03   -0.17940E-03  8320   0.322E-02 0.171E-05
CGA:  30    -0.386480010333E+03   -0.15610E-03   -0.15609E-03  8320   0.347E-02 0.233E-05
CGA:  31    -0.386480089772E+03   -0.79439E-04   -0.79675E-04  8320   0.128E-02-0.487E-05
SDA:  32    -0.386480151998E+03   -0.62226E-04   -0.62225E-04  8320   0.102E-02 0.382E-06
CGA:  33    -0.386480181724E+03   -0.29726E-04   -0.29718E-04  8320   0.561E-03-0.832E-06
CGA:  34    -0.386480237319E+03   -0.55596E-04   -0.55794E-04  8320   0.810E-03-0.367E-05
CGA:  35    -0.386480283755E+03   -0.46436E-04   -0.46444E-04  8320   0.115E-02-0.886E-06
CGA:  36    -0.386480311662E+03   -0.27907E-04   -0.27879E-04  8320   0.423E-03-0.259E-05
CGA:  37    -0.386480338981E+03   -0.27319E-04   -0.27354E-04  8320   0.300E-03-0.195E-05
CGA:  38    -0.386480364317E+03   -0.25336E-04   -0.25365E-04  8320   0.347E-03-0.789E-06
CGA:  39    -0.386480393064E+03   -0.28747E-04   -0.28766E-04  8320   0.308E-03-0.597E-06
CGA:  40    -0.386480402269E+03   -0.92055E-05   -0.91937E-05  8320   0.205E-03-0.783E-06
   7 F= -.38648040E+03 E0= -.38645779E+03  d E =-.808123E-01  mag=    10.4835
       N       E                     dE             d eps       ncg     rms          ort
SDA:   1    -0.377505766693E+03    0.89746E+01    0.00000E+00  8320   0.355E+02 0.000E+00
CGA:   2    -0.378643329415E+03   -0.11376E+01   -0.99651E+00  8320   0.437E+02 0.190E+00
CGA:   3    -0.383693734389E+03   -0.50504E+01   -0.49802E+01  8320   0.615E+02 0.128E+01
CGA:   4    -0.384582539990E+03   -0.88881E+00   -0.86543E+00  8320   0.169E+02 0.131E+01
CGA:   5    -0.385142580955E+03   -0.56004E+00   -0.47892E+00  8320   0.107E+02 0.110E+01
CGA:   6    -0.385427694871E+03   -0.28511E+00   -0.30622E+00  8320   0.143E+02-0.305E+00
CGA:   7    -0.385906572350E+03   -0.47888E+00   -0.47638E+00  8320   0.137E+02-0.241E-02
CGA:   8    -0.386231883639E+03   -0.32531E+00   -0.30847E+00  8320   0.623E+01 0.305E+00
CGA:   9    -0.386326030533E+03   -0.94147E-01   -0.94620E-01  8320   0.149E+01-0.231E-01
CGA:  10    -0.386362741268E+03   -0.36711E-01   -0.36598E-01  8320   0.180E+01 0.654E-03
CGA:  11    -0.386416360005E+03   -0.53619E-01   -0.54379E-01  8320   0.106E+01 0.603E-02
CGA:  12    -0.386442830600E+03   -0.26471E-01   -0.26867E-01  8320   0.120E+01-0.446E-02
CGA:  13    -0.386482357004E+03   -0.39526E-01   -0.39755E-01  8320   0.692E+00 0.805E-02
CGA:  14    -0.386496029848E+03   -0.13673E-01   -0.13770E-01  8320   0.426E+00-0.192E-02
CGA:  15    -0.386508887542E+03   -0.12858E-01   -0.12937E-01  8320   0.146E+00 0.181E-02
CGA:  16    -0.386511921021E+03   -0.30335E-02   -0.30750E-02  8320   0.110E+00-0.839E-03
CGA:  17    -0.386517274005E+03   -0.53530E-02   -0.53111E-02  8320   0.121E+00 0.288E-02
CGA:  18    -0.386521364381E+03   -0.40904E-02   -0.40916E-02  8320   0.143E+00 0.149E-03
CGA:  19    -0.386526206854E+03   -0.48425E-02   -0.48364E-02  8320   0.610E-01-0.434E-03
CGA:  20    -0.386527582196E+03   -0.13753E-02   -0.13788E-02  8320   0.241E-01-0.376E-04
CGA:  21    -0.386528245186E+03   -0.66299E-03   -0.66352E-03  8320   0.211E-01 0.324E-06
CGA:  22    -0.386529224958E+03   -0.97977E-03   -0.97884E-03  8320   0.215E-01 0.662E-04
CGA:  23    -0.386530071623E+03   -0.84666E-03   -0.84654E-03  8320   0.354E-01 0.280E-04
CGA:  24    -0.386531337651E+03   -0.12660E-02   -0.12662E-02  8320   0.881E-02 0.166E-04
CGA:  25    -0.386531554757E+03   -0.21711E-03   -0.21733E-03  8320   0.841E-02 0.887E-06
CGA:  26    -0.386532040674E+03   -0.48592E-03   -0.48567E-03  8320   0.914E-02 0.104E-04
CGA:  27    -0.386532400976E+03   -0.36030E-03   -0.36029E-03  8320   0.126E-01 0.284E-05
CGA:  28    -0.386532809015E+03   -0.40804E-03   -0.40788E-03  8320   0.752E-02-0.802E-05
CGA:  29    -0.386533128860E+03   -0.31984E-03   -0.31944E-03  8320   0.738E-02 0.561E-04
CGA:  30    -0.386533318690E+03   -0.18983E-03   -0.19045E-03  8320   0.420E-02 0.523E-05
CGA:  31    -0.386533495108E+03   -0.17642E-03   -0.17631E-03  8320   0.485E-02 0.158E-04
SDA:  32    -0.386533754485E+03   -0.25938E-03   -0.25945E-03  8320   0.759E-02-0.312E-05
CGA:  33    -0.386533887489E+03   -0.13300E-03   -0.13309E-03  8320   0.191E-02-0.985E-05
CGA:  34    -0.386533983654E+03   -0.96165E-04   -0.96222E-04  8320   0.156E-02-0.453E-05
CGA:  35    -0.386534097015E+03   -0.11336E-03   -0.11394E-03  8320   0.204E-02-0.164E-04
CGA:  36    -0.386534215941E+03   -0.11893E-03   -0.11910E-03  8320   0.169E-02-0.940E-05
CGA:  37    -0.386534304490E+03   -0.88549E-04   -0.88622E-04  8320   0.834E-03-0.560E-05
CGA:  38    -0.386534340340E+03   -0.35850E-04   -0.35850E-04  8320   0.830E-03-0.250E-07
CGA:  39    -0.386534368160E+03   -0.27820E-04   -0.27842E-04  8320   0.588E-03 0.313E-05
CGA:  40    -0.386534446621E+03   -0.78461E-04   -0.77513E-04  8320   0.576E-03 0.103E-04
CGA:  41    -0.386534480556E+03   -0.33935E-04   -0.33950E-04  8320   0.308E-03-0.113E-05
CGA:  42    -0.386534524490E+03   -0.43934E-04   -0.44732E-04  8320   0.735E-03-0.818E-05
CGA:  43    -0.386534548343E+03   -0.23853E-04   -0.23778E-04  8320   0.470E-03-0.460E-05
CGA:  44    -0.386534567559E+03   -0.19216E-04   -0.19170E-04  8320   0.317E-03-0.537E-05
CGA:  45    -0.386534578599E+03   -0.11040E-04   -0.11004E-04  8320   0.173E-03-0.245E-05
CGA:  46    -0.386534594677E+03   -0.16078E-04   -0.16163E-04  8320   0.245E-03-0.197E-05
CGA:  47    -0.386534613359E+03   -0.18682E-04   -0.18691E-04  8320   0.532E-04-0.414E-06
CGA:  48    -0.386534616890E+03   -0.35308E-05   -0.35315E-05  8320   0.142E-03-0.684E-07
   8 F= -.38653462E+03 E0= -.38651362E+03  d E =-.542146E-01  mag=    10.3815
       N       E                     dE             d eps       ncg     rms          ort
SDA:   1    -0.376891670830E+03    0.96429E+01    0.00000E+00  8320   0.293E+02 0.000E+00
CGA:   2    -0.379224404914E+03   -0.23327E+01   -0.25188E+01  8320   0.120E+03-0.356E+01
CGA:   3    -0.383374363929E+03   -0.41500E+01   -0.41999E+01  8320   0.635E+02-0.313E+00
CGA:   4    -0.384357394987E+03   -0.98303E+00   -0.75312E+00  8320   0.159E+02 0.164E+02
CGA:   5    -0.384718798280E+03   -0.36140E+00   -0.31825E+00  8320   0.131E+02 0.197E+01
CGA:   6    -0.385147785748E+03   -0.42899E+00   -0.41511E+00  8320   0.260E+02 0.180E+00
CGA:   7    -0.385554723144E+03   -0.40694E+00   -0.41079E+00  8320   0.193E+02-0.300E+00
CGA:   8    -0.385776485134E+03   -0.22176E+00   -0.24568E+00  8320   0.143E+02-0.179E+01
CGA:   9    -0.386011663699E+03   -0.23518E+00   -0.24350E+00  8320   0.169E+02-0.318E+00
CGA:  10    -0.386224991077E+03   -0.21333E+00   -0.22047E+00  8320   0.591E+01-0.509E+00
CGA:  11    -0.386280652482E+03   -0.55661E-01   -0.57062E-01  8320   0.245E+01-0.149E+00
CGA:  12    -0.386324964181E+03   -0.44312E-01   -0.45527E-01  8320   0.282E+01-0.378E-01
CGA:  13    -0.386370735282E+03   -0.45771E-01   -0.50471E-01  8320   0.196E+01-0.151E+00
CGA:  14    -0.386406336795E+03   -0.35602E-01   -0.36930E-01  8320   0.197E+01-0.327E-01
CGA:  15    -0.386459210948E+03   -0.52874E-01   -0.53087E-01  8320   0.165E+01 0.216E-02
CGA:  16    -0.386489764157E+03   -0.30553E-01   -0.29904E-01  8320   0.122E+01 0.189E-01
CGA:  17    -0.386514862078E+03   -0.25098E-01   -0.25099E-01  8320   0.694E+00-0.264E-03
CGA:  18    -0.386525324461E+03   -0.10462E-01   -0.11052E-01  8320   0.327E+00-0.219E-01
CGA:  19    -0.386532950532E+03   -0.76261E-02   -0.77360E-02  8320   0.248E+00 0.850E-03
CGA:  20    -0.386537791232E+03   -0.48407E-02   -0.49147E-02  8320   0.149E+00-0.115E-02
CGA:  21    -0.386544620459E+03   -0.68292E-02   -0.68349E-02  8320   0.361E+00-0.355E-03
CGA:  22    -0.386555506082E+03   -0.10886E-01   -0.10875E-01  8320   0.245E+00-0.105E-02
CGA:  23    -0.386559802484E+03   -0.42964E-02   -0.43305E-02  8320   0.761E-01-0.760E-03
CGA:  24    -0.386561148778E+03   -0.13463E-02   -0.13551E-02  8320   0.369E-01-0.185E-03
CGA:  25    -0.386562718599E+03   -0.15698E-02   -0.15670E-02  8320   0.707E-01 0.211E-03
CGA:  26    -0.386564601142E+03   -0.18825E-02   -0.18778E-02  8320   0.441E-01-0.164E-03
CGA:  27    -0.386565948411E+03   -0.13473E-02   -0.13478E-02  8320   0.506E-01 0.110E-03
CGA:  28    -0.386567210038E+03   -0.12616E-02   -0.12637E-02  8320   0.265E-01 0.563E-04
CGA:  29    -0.386567953200E+03   -0.74316E-03   -0.74443E-03  8320   0.247E-01 0.111E-03
CGA:  30    -0.386568539494E+03   -0.58629E-03   -0.58846E-03  8320   0.109E-01 0.329E-04
CGA:  31    -0.386568899393E+03   -0.35990E-03   -0.35982E-03  8320   0.162E-01 0.231E-04
SDA:  32    -0.386569536305E+03   -0.63691E-03   -0.63674E-03  8320   0.161E-01 0.956E-05
CGA:  33    -0.386570074505E+03   -0.53820E-03   -0.53831E-03  8320   0.604E-02-0.419E-04
CGA:  34    -0.386570290220E+03   -0.21572E-03   -0.21572E-03  8320   0.601E-02-0.315E-05
CGA:  35    -0.386570707897E+03   -0.41768E-03   -0.41745E-03  8320   0.671E-02 0.568E-05
CGA:  36    -0.386571285631E+03   -0.57773E-03   -0.57759E-03  8320   0.668E-02 0.289E-05
CGA:  37    -0.386571615749E+03   -0.33012E-03   -0.32990E-03  8320   0.419E-02 0.114E-04
CGA:  38    -0.386571818786E+03   -0.20304E-03   -0.20306E-03  8320   0.265E-02-0.257E-05
CGA:  39    -0.386572033573E+03   -0.21479E-03   -0.21416E-03  8320   0.690E-02 0.148E-04
CGA:  40    -0.386572315969E+03   -0.28240E-03   -0.28238E-03  8320   0.360E-02 0.163E-04
CGA:  41    -0.386572499530E+03   -0.18356E-03   -0.18362E-03  8320   0.113E-02-0.466E-05
CGA:  42    -0.386572673150E+03   -0.17362E-03   -0.17417E-03  8320   0.213E-02-0.588E-05
CGA:  43    -0.386572823911E+03   -0.15076E-03   -0.15073E-03  8320   0.113E-02 0.697E-06
CGA:  44    -0.386572874426E+03   -0.50514E-04   -0.50511E-04  8320   0.751E-03-0.147E-05
CGA:  45    -0.386572923789E+03   -0.49363E-04   -0.49441E-04  8320   0.735E-03-0.417E-05
CGA:  46    -0.386572984129E+03   -0.60340E-04   -0.60550E-04  8320   0.101E-02-0.616E-05
CGA:  47    -0.386573008252E+03   -0.24124E-04   -0.24053E-04  8320   0.334E-03-0.904E-06
CGA:  48    -0.386573043767E+03   -0.35514E-04   -0.35792E-04  8320   0.269E-03-0.483E-05
CGA:  49    -0.386573067062E+03   -0.23295E-04   -0.23386E-04  8320   0.412E-03-0.257E-05
CGA:  50    -0.386573095693E+03   -0.28631E-04   -0.28693E-04  8320   0.195E-03-0.364E-05
CGA:  51    -0.386573102673E+03   -0.69799E-05   -0.69594E-05  8320   0.194E-03-0.121E-05
CGA:  52    -0.386573122516E+03   -0.19843E-04   -0.19986E-04  8320   0.582E-03-0.289E-05
CGA:  53    -0.386573145712E+03   -0.23196E-04   -0.23136E-04  8320   0.170E-03-0.437E-05
CGA:  54    -0.386573158794E+03   -0.13082E-04   -0.13149E-04  8320   0.133E-03-0.294E-05
CGA:  55    -0.386573177504E+03   -0.18709E-04   -0.19061E-04  8320   0.231E-03-0.403E-05
CGA:  56    -0.386573194368E+03   -0.16864E-04   -0.16897E-04  8320   0.136E-03-0.237E-05
CGA:  57    -0.386573200351E+03   -0.59835E-05   -0.59683E-05  8320   0.852E-04-0.913E-06
   9 F= -.38657320E+03 E0= -.38655323E+03  d E =-.385835E-01  mag=    10.3319
       N       E                     dE             d eps       ncg     rms          ort
SDA:   1    -0.386040694443E+03    0.53250E+00    0.00000E+00  8320   0.217E+01 0.000E+00
CGA:   2    -0.386152312176E+03   -0.11162E+00   -0.11273E+00  8320   0.410E+01 0.507E-01
CGA:   3    -0.386364359181E+03   -0.21205E+00   -0.21344E+00  8320   0.204E+01 0.560E-01
CGA:   4    -0.386460845763E+03   -0.96487E-01   -0.95405E-01  8320   0.869E+00-0.194E-01
CGA:   5    -0.386502003976E+03   -0.41158E-01   -0.41262E-01  8320   0.959E+00 0.303E-02
CGA:   6    -0.386550733470E+03   -0.48729E-01   -0.48817E-01  8320   0.650E+00 0.457E-02
CGA:   7    -0.386568746253E+03   -0.18013E-01   -0.18527E-01  8320   0.185E+00-0.921E-02
CGA:   8    -0.386576673761E+03   -0.79275E-02   -0.79137E-02  8320   0.598E-01-0.235E-03
CGA:   9    -0.386580797057E+03   -0.41233E-02   -0.41199E-02  8320   0.937E-01 0.173E-03
CGA:  10    -0.386584120806E+03   -0.33237E-02   -0.33131E-02  8320   0.468E-01 0.488E-04
CGA:  11    -0.386585884265E+03   -0.17635E-02   -0.17669E-02  8320   0.908E-02 0.249E-05
CGA:  12    -0.386586558465E+03   -0.67420E-03   -0.67532E-03  8320   0.136E-01-0.435E-04
CGA:  13    -0.386587042008E+03   -0.48354E-03   -0.48434E-03  8320   0.902E-02-0.881E-05
CGA:  14    -0.386587498799E+03   -0.45679E-03   -0.45675E-03  8320   0.453E-02-0.619E-05
CGA:  15    -0.386587713772E+03   -0.21497E-03   -0.21505E-03  8320   0.200E-02 0.185E-05
CGA:  16    -0.386587787448E+03   -0.73676E-04   -0.73551E-04  8320   0.174E-02-0.202E-07
CGA:  17    -0.386587925061E+03   -0.13761E-03   -0.13757E-03  8320   0.259E-02 0.117E-05
CGA:  18    -0.386588016107E+03   -0.91046E-04   -0.91180E-04  8320   0.880E-03 0.156E-05
CGA:  19    -0.386588066867E+03   -0.50760E-04   -0.50749E-04  8320   0.545E-03 0.175E-05
CGA:  20    -0.386588093693E+03   -0.26826E-04   -0.26829E-04  8320   0.849E-03 0.897E-06
CGA:  21    -0.386588145033E+03   -0.51340E-04   -0.51336E-04  8320   0.586E-03 0.284E-06
CGA:  22    -0.386588186939E+03   -0.41907E-04   -0.41865E-04  8320   0.287E-03 0.211E-05
CGA:  23    -0.386588196497E+03   -0.95574E-05   -0.95549E-05  8320   0.269E-03-0.372E-06
CGA:  24    -0.386588217603E+03   -0.21106E-04   -0.21109E-04  8320   0.223E-03-0.979E-07
CGA:  25    -0.386588233309E+03   -0.15706E-04   -0.15712E-04  8320   0.240E-03-0.446E-06
CGA:  26    -0.386588241220E+03   -0.79104E-05   -0.79122E-05  8320   0.113E-03 0.183E-06
  10 F= -.38658824E+03 E0= -.38656854E+03  d E =-.150409E-01  mag=    10.3245
       N       E                     dE             d eps       ncg     rms          ort
SDA:   1    -0.386536392312E+03    0.51841E-01    0.00000E+00  8320   0.534E+00 0.000E+00
CGA:   2    -0.386547031802E+03   -0.10639E-01   -0.10923E-01  8320   0.178E+00-0.934E-02
CGA:   3    -0.386562249948E+03   -0.15218E-01   -0.15292E-01  8320   0.436E+00-0.187E-02
CGA:   4    -0.386581111721E+03   -0.18862E-01   -0.18890E-01  8320   0.930E-01 0.701E-03
CGA:   5    -0.386586090787E+03   -0.49791E-02   -0.49788E-02  8320   0.397E-01-0.721E-03
CGA:   6    -0.386588759098E+03   -0.26683E-02   -0.26611E-02  8320   0.395E-01 0.368E-03
CGA:   7    -0.386590741310E+03   -0.19822E-02   -0.19815E-02  8320   0.342E-01-0.501E-04
CGA:   8    -0.386591559458E+03   -0.81815E-03   -0.82093E-03  8320   0.356E-02-0.677E-04
CGA:   9    -0.386591786689E+03   -0.22723E-03   -0.22740E-03  8320   0.450E-02-0.107E-04
CGA:  10    -0.386592042787E+03   -0.25610E-03   -0.25615E-03  8320   0.217E-02-0.912E-05
CGA:  11    -0.386592158247E+03   -0.11546E-03   -0.11546E-03  8320   0.102E-02 0.592E-06
CGA:  12    -0.386592196949E+03   -0.38702E-04   -0.38684E-04  8320   0.669E-03-0.188E-05
CGA:  13    -0.386592218266E+03   -0.21317E-04   -0.21316E-04  8320   0.357E-03-0.182E-06
CGA:  14    -0.386592258626E+03   -0.40360E-04   -0.40409E-04  8320   0.267E-03-0.799E-06
CGA:  15    -0.386592270860E+03   -0.12234E-04   -0.12236E-04  8320   0.175E-03 0.216E-06
CGA:  16    -0.386592279127E+03   -0.82669E-05   -0.82645E-05  8320   0.871E-04-0.300E-06
  11 F= -.38659228E+03 E0= -.38657260E+03  d E =-.403791E-02  mag=    10.3231
       N       E                     dE             d eps       ncg     rms          ort
SDA:   1    -0.383881843785E+03    0.27104E+01    0.00000E+00  8320   0.102E+02 0.000E+00
CGA:   2    -0.384271302683E+03   -0.38946E+00   -0.37617E+00  8320   0.157E+02-0.489E-01
CGA:   3    -0.385927418389E+03   -0.16561E+01   -0.16538E+01  8320   0.615E+01 0.282E-01
CGA:   4    -0.386200049612E+03   -0.27263E+00   -0.26126E+00  8320   0.318E+01-0.102E+00
CGA:   5    -0.386343064919E+03   -0.14302E+00   -0.14107E+00  8320   0.279E+01-0.547E-01
CGA:   6    -0.386468672185E+03   -0.12561E+00   -0.12559E+00  8320   0.240E+01-0.198E-02
CGA:   7    -0.386559890805E+03   -0.91219E-01   -0.91328E-01  8320   0.650E+00 0.235E-02
CGA:   8    -0.386580583366E+03   -0.20693E-01   -0.20653E-01  8320   0.158E+00 0.169E-03
CGA:   9    -0.386594079590E+03   -0.13496E-01   -0.13661E-01  8320   0.343E+00-0.433E-02
CGA:  10    -0.386604881776E+03   -0.10802E-01   -0.10843E-01  8320   0.130E+00-0.356E-03
CGA:  11    -0.386609932591E+03   -0.50508E-02   -0.50720E-02  8320   0.293E-01 0.215E-03
CGA:  12    -0.386611721456E+03   -0.17889E-02   -0.17891E-02  8320   0.291E-01-0.208E-04
CGA:  13    -0.386613295917E+03   -0.15745E-02   -0.15747E-02  8320   0.203E-01-0.888E-04
CGA:  14    -0.386614735318E+03   -0.14394E-02   -0.14399E-02  8320   0.944E-02-0.229E-04
CGA:  15    -0.386615171412E+03   -0.43609E-03   -0.43623E-03  8320   0.305E-02 0.706E-05
CGA:  16    -0.386615367022E+03   -0.19561E-03   -0.19569E-03  8320   0.583E-02-0.398E-05
CGA:  17    -0.386615661924E+03   -0.29490E-03   -0.29492E-03  8320   0.520E-02 0.309E-05
CGA:  18    -0.386615904784E+03   -0.24286E-03   -0.24289E-03  8320   0.227E-02 0.348E-05
CGA:  19    -0.386616005772E+03   -0.10099E-03   -0.10099E-03  8320   0.136E-02-0.252E-06
CGA:  20    -0.386616123325E+03   -0.11755E-03   -0.11762E-03  8320   0.216E-02-0.208E-05
CGA:  21    -0.386616314349E+03   -0.19102E-03   -0.19112E-03  8320   0.969E-03-0.304E-05
CGA:  22    -0.386616371383E+03   -0.57035E-04   -0.57032E-04  8320   0.811E-03 0.778E-06
CGA:  23    -0.386616407945E+03   -0.36561E-04   -0.36572E-04  8320   0.102E-02 0.446E-06
CGA:  24    -0.386616477107E+03   -0.69162E-04   -0.69116E-04  8320   0.888E-03 0.397E-05
CGA:  25    -0.386616506581E+03   -0.29474E-04   -0.29534E-04  8320   0.301E-03 0.212E-05
CGA:  26    -0.386616531660E+03   -0.25079E-04   -0.25007E-04  8320   0.303E-03 0.265E-05
CGA:  27    -0.386616552828E+03   -0.21168E-04   -0.21149E-04  8320   0.286E-03 0.136E-05
CGA:  28    -0.386616576304E+03   -0.23475E-04   -0.23475E-04  8320   0.260E-03 0.440E-07
CGA:  29    -0.386616583301E+03   -0.69975E-05   -0.69955E-05  8320   0.123E-03-0.629E-06
  12 F= -.38661658E+03 E0= -.38659732E+03  d E =-.243042E-01  mag=    10.3021
       N       E                     dE             d eps       ncg     rms          ort
SDA:   1    -0.383948533735E+03    0.26680E+01    0.00000E+00  8320   0.942E+01 0.000E+00
CGA:   2    -0.384429245460E+03   -0.48071E+00   -0.47794E+00  8320   0.209E+02-0.153E+00
CGA:   3    -0.385892563193E+03   -0.14633E+01   -0.14557E+01  8320   0.488E+01 0.387E+00
CGA:   4    -0.386134349508E+03   -0.24179E+00   -0.23307E+00  8320   0.477E+01-0.204E+00
CGA:   5    -0.386320817374E+03   -0.18647E+00   -0.18001E+00  8320   0.419E+01-0.160E-01
CGA:   6    -0.386480371604E+03   -0.15955E+00   -0.16117E+00  8320   0.255E+01 0.719E-02
CGA:   7    -0.386559257813E+03   -0.78886E-01   -0.82443E-01  8320   0.628E+00-0.331E-01
CGA:   8    -0.386580383785E+03   -0.21126E-01   -0.20800E-01  8320   0.547E+00 0.214E-02
CGA:   9    -0.386602718660E+03   -0.22335E-01   -0.22286E-01  8320   0.225E+00-0.704E-03
CGA:  10    -0.386618772638E+03   -0.16054E-01   -0.15951E-01  8320   0.259E+00 0.429E-02
CGA:  11    -0.386625692156E+03   -0.69195E-02   -0.69053E-02  8320   0.915E-01 0.323E-03
CGA:  12    -0.386629112999E+03   -0.34208E-02   -0.34118E-02  8320   0.331E-01-0.538E-04
CGA:  13    -0.386631262889E+03   -0.21499E-02   -0.21521E-02  8320   0.421E-01-0.116E-03
CGA:  14    -0.386632800286E+03   -0.15374E-02   -0.15375E-02  8320   0.342E-01 0.525E-05
CGA:  15    -0.386634407835E+03   -0.16075E-02   -0.16078E-02  8320   0.152E-01 0.231E-04
CGA:  16    -0.386634952811E+03   -0.54498E-03   -0.54647E-03  8320   0.666E-02 0.876E-05
CGA:  17    -0.386635302184E+03   -0.34937E-03   -0.34936E-03  8320   0.795E-02 0.710E-05
CGA:  18    -0.386635613819E+03   -0.31163E-03   -0.31223E-03  8320   0.704E-02 0.139E-04
CGA:  19    -0.386636240991E+03   -0.62717E-03   -0.62565E-03  8320   0.342E-02 0.370E-04
CGA:  20    -0.386636357639E+03   -0.11665E-03   -0.11655E-03  8320   0.315E-02 0.316E-05
CGA:  21    -0.386636526494E+03   -0.16886E-03   -0.16887E-03  8320   0.304E-02-0.244E-05
CGA:  22    -0.386636791323E+03   -0.26483E-03   -0.26447E-03  8320   0.380E-02 0.912E-05
CGA:  23    -0.386636935224E+03   -0.14390E-03   -0.14417E-03  8320   0.247E-02 0.309E-05
CGA:  24    -0.386637020697E+03   -0.85473E-04   -0.85601E-04  8320   0.131E-02-0.783E-06
CGA:  25    -0.386637089913E+03   -0.69216E-04   -0.69219E-04  8320   0.128E-02-0.890E-06
CGA:  26    -0.386637184418E+03   -0.94505E-04   -0.94554E-04  8320   0.122E-02-0.183E-05
CGA:  27    -0.386637223953E+03   -0.39535E-04   -0.39568E-04  8320   0.883E-03-0.142E-05
CGA:  28    -0.386637263686E+03   -0.39733E-04   -0.39737E-04  8320   0.311E-03 0.239E-06
CGA:  29    -0.386637291903E+03   -0.28217E-04   -0.28223E-04  8320   0.620E-03-0.153E-06
CGA:  30    -0.386637313957E+03   -0.22054E-04   -0.22057E-04  8320   0.431E-03-0.175E-06
CGA:  31    -0.386637333843E+03   -0.19886E-04   -0.19893E-04  8320   0.171E-03 0.107E-05
SDA:  32    -0.386637342328E+03   -0.84848E-05   -0.84846E-05  8320   0.172E-03-0.220E-06
  13 F= -.38663734E+03 E0= -.38661839E+03  d E =-.207590E-01  mag=    10.2869
       N       E                     dE             d eps       ncg     rms          ort
SDA:   1    -0.386291925547E+03    0.34541E+00    0.00000E+00  8320   0.118E+01 0.000E+00
CGA:   2    -0.386397599094E+03   -0.10567E+00   -0.10582E+00  8320   0.274E+01-0.585E-02
CGA:   3    -0.386543062073E+03   -0.14546E+00   -0.14548E+00  8320   0.813E+00-0.114E-01
CGA:   4    -0.386570722957E+03   -0.27661E-01   -0.27624E-01  8320   0.646E+00-0.238E-03
CGA:   5    -0.386605215275E+03   -0.34492E-01   -0.34519E-01  8320   0.426E+00-0.872E-02
CGA:   6    -0.386633162095E+03   -0.27947E-01   -0.27910E-01  8320   0.121E+00 0.183E-02
CGA:   7    -0.386637692833E+03   -0.45307E-02   -0.45007E-02  8320   0.704E-01-0.156E-03
CGA:   8    -0.386640636813E+03   -0.29440E-02   -0.29412E-02  8320   0.598E-01-0.717E-04
CGA:   9    -0.386643734901E+03   -0.30981E-02   -0.30981E-02  8320   0.200E-01 0.150E-04
CGA:  10    -0.386645278708E+03   -0.15438E-02   -0.15412E-02  8320   0.142E-01 0.820E-04
CGA:  11    -0.386645622268E+03   -0.34356E-03   -0.34304E-03  8320   0.470E-02 0.137E-04
CGA:  12    -0.386646061152E+03   -0.43888E-03   -0.43852E-03  8320   0.640E-02 0.777E-05
CGA:  13    -0.386646347496E+03   -0.28634E-03   -0.28609E-03  8320   0.347E-02-0.103E-04
CGA:  14    -0.386646499651E+03   -0.15215E-03   -0.15219E-03  8320   0.170E-02-0.251E-06
CGA:  15    -0.386646561542E+03   -0.61891E-04   -0.61895E-04  8320   0.116E-02 0.576E-06
CGA:  16    -0.386646634912E+03   -0.73370E-04   -0.73366E-04  8320   0.114E-02-0.513E-07
CGA:  17    -0.386646731373E+03   -0.96461E-04   -0.96567E-04  8320   0.910E-03-0.304E-05
CGA:  18    -0.386646761099E+03   -0.29727E-04   -0.29738E-04  8320   0.556E-03-0.139E-05
CGA:  19    -0.386646789226E+03   -0.28127E-04   -0.28126E-04  8320   0.399E-03-0.107E-06
CGA:  20    -0.386646840561E+03   -0.51335E-04   -0.51510E-04  8320   0.630E-03-0.228E-05
CGA:  21    -0.386646862957E+03   -0.22395E-04   -0.22392E-04  8320   0.418E-03-0.903E-07
CGA:  22    -0.386646881773E+03   -0.18817E-04   -0.18818E-04  8320   0.200E-03-0.331E-06
CGA:  23    -0.386646895694E+03   -0.13921E-04   -0.13907E-04  8320   0.211E-03 0.914E-06
CGA:  24    -0.386646908994E+03   -0.13299E-04   -0.13290E-04  8320   0.262E-03 0.134E-05
CGA:  25    -0.386646918418E+03   -0.94246E-05   -0.94576E-05  8320   0.906E-04 0.170E-05
  14 F= -.38664692E+03 E0= -.38662799E+03  d E =-.957609E-02  mag=    10.2850
       N       E                     dE             d eps       ncg     rms          ort
SDA:   1    -0.386633538761E+03    0.13370E-01    0.00000E+00  8320   0.297E+00 0.000E+00
CGA:   2    -0.386638679731E+03   -0.51410E-02   -0.54436E-02  8320   0.398E-01-0.124E-01
CGA:   3    -0.386640707537E+03   -0.20278E-02   -0.20278E-02  8320   0.541E-01 0.485E-04
CGA:   4    -0.386644070788E+03   -0.33633E-02   -0.33609E-02  8320   0.236E-01 0.167E-03
CGA:   5    -0.386645347548E+03   -0.12768E-02   -0.12769E-02  8320   0.152E-01-0.107E-03
CGA:   6    -0.386645956899E+03   -0.60935E-03   -0.61011E-03  8320   0.133E-01 0.110E-04
CGA:   7    -0.386646640263E+03   -0.68336E-03   -0.68336E-03  8320   0.671E-02 0.452E-05
CGA:   8    -0.386646909637E+03   -0.26937E-03   -0.26969E-03  8320   0.271E-02 0.821E-05
CGA:   9    -0.386647033438E+03   -0.12380E-03   -0.12379E-03  8320   0.108E-02 0.163E-05
CGA:  10    -0.386647073019E+03   -0.39581E-04   -0.39600E-04  8320   0.937E-03-0.216E-06
CGA:  11    -0.386647137553E+03   -0.64533E-04   -0.64523E-04  8320   0.603E-03 0.596E-06
CGA:  12    -0.386647163745E+03   -0.26192E-04   -0.26194E-04  8320   0.265E-03-0.136E-06
CGA:  13    -0.386647174711E+03   -0.10966E-04   -0.10970E-04  8320   0.164E-03 0.566E-06
CGA:  14    -0.386647182063E+03   -0.73521E-05   -0.73553E-05  8320   0.148E-03 0.461E-06
  15 F= -.38664718E+03 E0= -.38662825E+03  d E =-.263645E-03  mag=    10.2851
       N       E                     dE             d eps       ncg     rms          ort
SDA:   1    -0.386593738898E+03    0.53436E-01    0.00000E+00  8320   0.474E+00 0.000E+00
CGA:   2    -0.386604436838E+03   -0.10698E-01   -0.10461E-01  8320   0.178E+00 0.662E-02
CGA:   3    -0.386620726444E+03   -0.16290E-01   -0.16163E-01  8320   0.381E+00 0.297E-02
CGA:   4    -0.386638523073E+03   -0.17797E-01   -0.17779E-01  8320   0.123E+00-0.111E-02
CGA:   5    -0.386644055505E+03   -0.55324E-02   -0.55273E-02  8320   0.382E-01-0.287E-03
CGA:   6    -0.386646259710E+03   -0.22042E-02   -0.22001E-02  8320   0.494E-01 0.378E-03
CGA:   7    -0.386648127498E+03   -0.18678E-02   -0.18697E-02  8320   0.288E-01 0.260E-04
CGA:   8    -0.386649428982E+03   -0.13015E-02   -0.13025E-02  8320   0.719E-02 0.746E-04
CGA:   9    -0.386649822233E+03   -0.39325E-03   -0.39331E-03  8320   0.200E-02-0.810E-05
CGA:  10    -0.386649993220E+03   -0.17099E-03   -0.17119E-03  8320   0.349E-02-0.539E-05
CGA:  11    -0.386650108981E+03   -0.11576E-03   -0.11578E-03  8320   0.161E-02-0.517E-05
CGA:  12    -0.386650178970E+03   -0.69989E-04   -0.69960E-04  8320   0.710E-03-0.270E-05
CGA:  13    -0.386650208970E+03   -0.30000E-04   -0.30010E-04  8320   0.312E-03 0.454E-06
CGA:  14    -0.386650227790E+03   -0.18819E-04   -0.18803E-04  8320   0.216E-03 0.163E-05
CGA:  15    -0.386650252237E+03   -0.24447E-04   -0.24289E-04  8320   0.188E-03 0.259E-05
CGA:  16    -0.386650258389E+03   -0.61522E-05   -0.61559E-05  8320   0.979E-04 0.709E-07
  16 F= -.38665026E+03 E0= -.38663136E+03  d E =-.307633E-02  mag=    10.2844
       N       E                     dE             d eps       ncg     rms          ort
SDA:   1    -0.386603778858E+03    0.46473E-01    0.00000E+00  8320   0.226E+00 0.000E+00
CGA:   2    -0.386611589757E+03   -0.78109E-02   -0.76741E-02  8320   0.234E+00 0.269E-03
CGA:   3    -0.386630242466E+03   -0.18653E-01   -0.18613E-01  8320   0.295E+00 0.123E-02
CGA:   4    -0.386645543567E+03   -0.15301E-01   -0.15301E-01  8320   0.496E-01-0.721E-04
CGA:   5    -0.386647985365E+03   -0.24418E-02   -0.24432E-02  8320   0.464E-01 0.187E-03
CGA:   6    -0.386650102429E+03   -0.21171E-02   -0.21187E-02  8320   0.428E-01 0.858E-04
CGA:   7    -0.386651902232E+03   -0.17998E-02   -0.18000E-02  8320   0.159E-01 0.113E-04
CGA:   8    -0.386652482197E+03   -0.57997E-03   -0.57987E-03  8320   0.518E-02-0.300E-05
CGA:   9    -0.386652754597E+03   -0.27240E-03   -0.27239E-03  8320   0.211E-02 0.143E-05
CGA:  10    -0.386652910045E+03   -0.15545E-03   -0.15554E-03  8320   0.326E-02-0.350E-05
CGA:  11    -0.386653019455E+03   -0.10941E-03   -0.10943E-03  8320   0.156E-02-0.395E-05
CGA:  12    -0.386653085958E+03   -0.66503E-04   -0.66457E-04  8320   0.390E-03-0.294E-05
CGA:  13    -0.386653115511E+03   -0.29553E-04   -0.29552E-04  8320   0.241E-03-0.170E-07
CGA:  14    -0.386653134873E+03   -0.19362E-04   -0.19357E-04  8320   0.436E-03 0.166E-06
CGA:  15    -0.386653150115E+03   -0.15242E-04   -0.15256E-04  8320   0.196E-03 0.111E-05
CGA:  16    -0.386653158521E+03   -0.84060E-05   -0.84121E-05  8320   0.892E-04 0.588E-06
  17 F= -.38665316E+03 E0= -.38663431E+03  d E =-.290013E-02  mag=    10.2833
       N       E                     dE             d eps       ncg     rms          ort
SDA:   1    -0.378614066155E+03    0.80391E+01    0.00000E+00  8320   0.236E+02 0.000E+00
CGA:   2    -0.380359320420E+03   -0.17453E+01   -0.18406E+01  8320   0.922E+02-0.261E+01
CGA:   3    -0.384511095240E+03   -0.41518E+01   -0.41590E+01  8320   0.334E+02 0.137E+01
CGA:   4    -0.385142484665E+03   -0.63139E+00   -0.62781E+00  8320   0.118E+02 0.306E+00
CGA:   5    -0.385572666263E+03   -0.43018E+00   -0.38703E+00  8320   0.989E+01 0.140E+00
CGA:   6    -0.385904787757E+03   -0.33212E+00   -0.32561E+00  8320   0.120E+02 0.151E-01
CGA:   7    -0.386240705175E+03   -0.33592E+00   -0.35222E+00  8320   0.109E+02-0.138E+00
CGA:   8    -0.386487043182E+03   -0.24634E+00   -0.26300E+00  8320   0.278E+01-0.339E+00
CGA:   9    -0.386531847593E+03   -0.44804E-01   -0.43859E-01  8320   0.726E+00 0.444E-01
CGA:  10    -0.386568352937E+03   -0.36505E-01   -0.36530E-01  8320   0.133E+01-0.367E-02
CGA:  11    -0.386606344387E+03   -0.37991E-01   -0.38109E-01  8320   0.888E+00-0.106E-02
CGA:  12    -0.386640793459E+03   -0.34449E-01   -0.34525E-01  8320   0.665E+00 0.416E-02
CGA:  13    -0.386653175000E+03   -0.12382E-01   -0.12386E-01  8320   0.197E+00-0.235E-03
CGA:  14    -0.386659863098E+03   -0.66881E-02   -0.66996E-02  8320   0.147E+00 0.274E-03
CGA:  15    -0.386663373885E+03   -0.35108E-02   -0.35595E-02  8320   0.878E-01-0.720E-03
CGA:  16    -0.386669175105E+03   -0.58012E-02   -0.57590E-02  8320   0.165E+00 0.149E-02
CGA:  17    -0.386673541220E+03   -0.43661E-02   -0.43773E-02  8320   0.642E-01-0.118E-03
CGA:  18    -0.386675313866E+03   -0.17726E-02   -0.17779E-02  8320   0.205E-01-0.289E-04
CGA:  19    -0.386675908854E+03   -0.59499E-03   -0.59761E-03  8320   0.170E-01 0.158E-04
CGA:  20    -0.386676866656E+03   -0.95780E-03   -0.95771E-03  8320   0.202E-01 0.259E-04
CGA:  21    -0.386677737820E+03   -0.87116E-03   -0.87124E-03  8320   0.201E-01-0.220E-04
CGA:  22    -0.386678352327E+03   -0.61451E-03   -0.61591E-03  8320   0.941E-02 0.285E-04
CGA:  23    -0.386678649808E+03   -0.29748E-03   -0.29816E-03  8320   0.471E-02 0.208E-04
CGA:  24    -0.386678860046E+03   -0.21024E-03   -0.21012E-03  8320   0.779E-02 0.205E-04
CGA:  25    -0.386679293094E+03   -0.43305E-03   -0.43275E-03  8320   0.647E-02 0.132E-04
CGA:  26    -0.386679549083E+03   -0.25599E-03   -0.25601E-03  8320   0.687E-02-0.171E-05
CGA:  27    -0.386679759129E+03   -0.21005E-03   -0.20992E-03  8320   0.225E-02-0.448E-05
CGA:  28    -0.386679871340E+03   -0.11221E-03   -0.11213E-03  8320   0.356E-02 0.735E-05
CGA:  29    -0.386680000883E+03   -0.12954E-03   -0.12962E-03  8320   0.229E-02 0.811E-05
CGA:  30    -0.386680152581E+03   -0.15170E-03   -0.15136E-03  8320   0.381E-02 0.128E-04
CGA:  31    -0.386680269662E+03   -0.11708E-03   -0.11720E-03  8320   0.196E-02 0.101E-04
SDA:  32    -0.386680342869E+03   -0.73207E-04   -0.73239E-04  8320   0.858E-03 0.660E-05
CGA:  33    -0.386680372988E+03   -0.30119E-04   -0.30119E-04  8320   0.746E-03-0.361E-06
CGA:  34    -0.386680432520E+03   -0.59531E-04   -0.59459E-04  8320   0.113E-02 0.164E-05
CGA:  35    -0.386680488213E+03   -0.55694E-04   -0.55688E-04  8320   0.566E-03 0.800E-06
CGA:  36    -0.386680520623E+03   -0.32410E-04   -0.32421E-04  8320   0.388E-03-0.615E-06
CGA:  37    -0.386680551315E+03   -0.30692E-04   -0.30643E-04  8320   0.342E-03 0.130E-05
CGA:  38    -0.386680584101E+03   -0.32786E-04   -0.32627E-04  8320   0.280E-03 0.316E-05
CGA:  39    -0.386680600459E+03   -0.16358E-04   -0.16352E-04  8320   0.278E-03 0.659E-06
CGA:  40    -0.386680610885E+03   -0.10426E-04   -0.10431E-04  8320   0.205E-03 0.773E-06
CGA:  41    -0.386680632313E+03   -0.21428E-04   -0.21406E-04  8320   0.215E-03 0.354E-06
CGA:  42    -0.386680647689E+03   -0.15376E-04   -0.15362E-04  8320   0.148E-03 0.686E-06
CGA:  43    -0.386680656347E+03   -0.86582E-05   -0.86592E-05  8320   0.104E-03-0.203E-06
  18 F= -.38668066E+03 E0= -.38666242E+03  d E =-.274978E-01  mag=    10.2718
       N       E                     dE             d eps       ncg     rms          ort
SDA:   1    -0.386359831407E+03    0.32082E+00    0.00000E+00  8320   0.187E+01 0.000E+00
CGA:   2    -0.386418012586E+03   -0.58181E-01   -0.57905E-01  8320   0.155E+01 0.604E-03
CGA:   3    -0.386547142808E+03   -0.12913E+00   -0.12898E+00  8320   0.157E+01 0.332E-02
CGA:   4    -0.386608808893E+03   -0.61666E-01   -0.61884E-01  8320   0.473E+00 0.452E-02
CGA:   5    -0.386636798483E+03   -0.27990E-01   -0.27931E-01  8320   0.425E+00 0.576E-02
CGA:   6    -0.386660428844E+03   -0.23630E-01   -0.23645E-01  8320   0.312E+00-0.420E-02
CGA:   7    -0.386671266095E+03   -0.10837E-01   -0.10895E-01  8320   0.158E+00-0.487E-04
CGA:   8    -0.386677613751E+03   -0.63477E-02   -0.63569E-02  8320   0.429E-01 0.178E-03
CGA:   9    -0.386680547330E+03   -0.29336E-02   -0.29293E-02  8320   0.224E-01 0.197E-03
CGA:  10    -0.386682460255E+03   -0.19129E-02   -0.19197E-02  8320   0.224E-01-0.182E-03
CGA:  11    -0.386683500620E+03   -0.10404E-02   -0.10406E-02  8320   0.776E-02 0.109E-04
CGA:  12    -0.386683827747E+03   -0.32713E-03   -0.32699E-03  8320   0.442E-02 0.195E-06
CGA:  13    -0.386684072040E+03   -0.24429E-03   -0.24427E-03  8320   0.587E-02 0.485E-05
CGA:  14    -0.386684353923E+03   -0.28188E-03   -0.28173E-03  8320   0.322E-02-0.137E-04
CGA:  15    -0.386684576711E+03   -0.22279E-03   -0.22287E-03  8320   0.937E-03-0.530E-05
CGA:  16    -0.386684661150E+03   -0.84439E-04   -0.84297E-04  8320   0.157E-02 0.363E-05
CGA:  17    -0.386684774053E+03   -0.11290E-03   -0.11281E-03  8320   0.192E-02 0.499E-05
CGA:  18    -0.386684858296E+03   -0.84243E-04   -0.84244E-04  8320   0.933E-03 0.219E-05
CGA:  19    -0.386684890225E+03   -0.31929E-04   -0.31959E-04  8320   0.609E-03-0.247E-06
CGA:  20    -0.386684976600E+03   -0.86375E-04   -0.86125E-04  8320   0.607E-03 0.288E-05
CGA:  21    -0.386685021697E+03   -0.45097E-04   -0.45091E-04  8320   0.455E-03 0.471E-06
CGA:  22    -0.386685043619E+03   -0.21921E-04   -0.21926E-04  8320   0.306E-03 0.780E-06
CGA:  23    -0.386685059539E+03   -0.15920E-04   -0.15921E-04  8320   0.327E-03 0.114E-06
CGA:  24    -0.386685075314E+03   -0.15775E-04   -0.15782E-04  8320   0.221E-03 0.673E-06
CGA:  25    -0.386685087704E+03   -0.12390E-04   -0.12390E-04  8320   0.134E-03-0.804E-07
CGA:  26    -0.386685094858E+03   -0.71539E-05   -0.71522E-05  8320   0.595E-04-0.437E-06
  19 F= -.38668509E+03 E0= -.38666677E+03  d E =-.443851E-02  mag=    10.2652
       N       E                     dE             d eps       ncg     rms          ort
SDA:   1    -0.386608275115E+03    0.76813E-01    0.00000E+00  8320   0.109E+01 0.000E+00
CGA:   2    -0.386627692721E+03   -0.19418E-01   -0.21106E-01  8320   0.246E+00-0.673E-01
CGA:   3    -0.386652318714E+03   -0.24626E-01   -0.24773E-01  8320   0.391E+00-0.292E-02
CGA:   4    -0.386667165463E+03   -0.14847E-01   -0.15038E-01  8320   0.151E+00-0.818E-03
CGA:   5    -0.386673575445E+03   -0.64100E-02   -0.63645E-02  8320   0.810E-01-0.111E-03
CGA:   6    -0.386677583119E+03   -0.40077E-02   -0.40123E-02  8320   0.808E-01 0.130E-03
CGA:   7    -0.386682407457E+03   -0.48243E-02   -0.48243E-02  8320   0.274E-01-0.198E-03
CGA:   8    -0.386683316219E+03   -0.90876E-03   -0.91348E-03  8320   0.109E-01-0.516E-04
CGA:   9    -0.386683768692E+03   -0.45247E-03   -0.45156E-03  8320   0.733E-02-0.408E-05
CGA:  10    -0.386684293723E+03   -0.52503E-03   -0.52497E-03  8320   0.599E-02 0.199E-05
CGA:  11    -0.386684543400E+03   -0.24968E-03   -0.24957E-03  8320   0.289E-02 0.405E-06
CGA:  12    -0.386684645496E+03   -0.10210E-03   -0.10223E-03  8320   0.110E-02-0.744E-06
CGA:  13    -0.386684711782E+03   -0.66286E-04   -0.66281E-04  8320   0.127E-02 0.216E-05
CGA:  14    -0.386684785627E+03   -0.73845E-04   -0.73836E-04  8320   0.820E-03 0.427E-05
CGA:  15    -0.386684824397E+03   -0.38770E-04   -0.38789E-04  8320   0.625E-03 0.233E-05
CGA:  16    -0.386684849233E+03   -0.24837E-04   -0.24854E-04  8320   0.231E-03 0.414E-06
CGA:  17    -0.386684865667E+03   -0.16434E-04   -0.16426E-04  8320   0.355E-03 0.631E-06
CGA:  18    -0.386684890825E+03   -0.25157E-04   -0.25147E-04  8320   0.372E-03 0.627E-06
CGA:  19    -0.386684903253E+03   -0.12428E-04   -0.12440E-04  8320   0.114E-03 0.579E-06
CGA:  20    -0.386684912510E+03   -0.92569E-05   -0.92719E-05  8320   0.176E-03-0.610E-06
  20 F= -.38668491E+03 E0= -.38666662E+03  d E =0.182348E-03  mag=    10.2680
       N       E                     dE             d eps       ncg     rms          ort
SDA:   1    -0.386667842334E+03    0.17061E-01    0.00000E+00  8320   0.627E+00 0.000E+00
CGA:   2    -0.386678138058E+03   -0.10296E-01   -0.94878E-02  8320   0.364E-01 0.435E-01
CGA:   3    -0.386680330568E+03   -0.21925E-02   -0.21933E-02  8320   0.460E-01-0.245E-03
CGA:   4    -0.386681872840E+03   -0.15423E-02   -0.15447E-02  8320   0.386E-01-0.237E-04
CGA:   5    -0.386684221470E+03   -0.23486E-02   -0.23484E-02  8320   0.252E-01 0.219E-04
CGA:   6    -0.386684908381E+03   -0.68691E-03   -0.68272E-03  8320   0.131E-01 0.835E-04
CGA:   7    -0.386685371996E+03   -0.46361E-03   -0.46337E-03  8320   0.578E-02 0.680E-06
CGA:   8    -0.386685688657E+03   -0.31666E-03   -0.31665E-03  8320   0.754E-02 0.257E-05
CGA:   9    -0.386685916873E+03   -0.22822E-03   -0.22809E-03  8320   0.346E-02 0.348E-05
CGA:  10    -0.386686081027E+03   -0.16415E-03   -0.16417E-03  8320   0.160E-02 0.151E-05
CGA:  11    -0.386686119445E+03   -0.38417E-04   -0.38445E-04  8320   0.635E-03-0.143E-05
CGA:  12    -0.386686148458E+03   -0.29013E-04   -0.29016E-04  8320   0.489E-03 0.808E-06
CGA:  13    -0.386686170317E+03   -0.21859E-04   -0.21859E-04  8320   0.409E-03 0.974E-07
CGA:  14    -0.386686187177E+03   -0.16860E-04   -0.16857E-04  8320   0.362E-03-0.402E-06
CGA:  15    -0.386686199537E+03   -0.12360E-04   -0.12358E-04  8320   0.969E-04 0.119E-06
CGA:  16    -0.386686203133E+03   -0.35964E-05   -0.35962E-05  8320   0.670E-04 0.129E-07
  21 F= -.38668620E+03 E0= -.38666792E+03  d E =-.129062E-02  mag=    10.2671
       N       E                     dE             d eps       ncg     rms          ort
SDA:   1    -0.386624275698E+03    0.61924E-01    0.00000E+00  8320   0.275E+00 0.000E+00
CGA:   2    -0.386637205405E+03   -0.12930E-01   -0.12929E-01  8320   0.305E+00 0.145E-02
CGA:   3    -0.386659509045E+03   -0.22304E-01   -0.22453E-01  8320   0.488E+00-0.482E-02
CGA:   4    -0.386677473141E+03   -0.17964E-01   -0.18069E-01  8320   0.117E+00 0.216E-02
CGA:   5    -0.386681810101E+03   -0.43370E-02   -0.43482E-02  8320   0.497E-01 0.242E-03
CGA:   6    -0.386685575794E+03   -0.37657E-02   -0.37679E-02  8320   0.422E-01-0.653E-04
CGA:   7    -0.386687669681E+03   -0.20939E-02   -0.20940E-02  8320   0.333E-01-0.326E-04
CGA:   8    -0.386688573397E+03   -0.90372E-03   -0.89792E-03  8320   0.587E-02 0.868E-04
CGA:   9    -0.386688890049E+03   -0.31665E-03   -0.31650E-03  8320   0.320E-02 0.154E-04
CGA:  10    -0.386689186817E+03   -0.29677E-03   -0.29658E-03  8320   0.397E-02 0.422E-05
CGA:  11    -0.386689336215E+03   -0.14940E-03   -0.14930E-03  8320   0.165E-02 0.293E-06
CGA:  12    -0.386689383492E+03   -0.47276E-04   -0.47348E-04  8320   0.463E-03-0.912E-06
CGA:  13    -0.386689410054E+03   -0.26562E-04   -0.26560E-04  8320   0.565E-03 0.374E-06
CGA:  14    -0.386689459588E+03   -0.49534E-04   -0.49481E-04  8320   0.253E-03 0.135E-05
CGA:  15    -0.386689472378E+03   -0.12790E-04   -0.12791E-04  8320   0.129E-03 0.413E-06
CGA:  16    -0.386689476510E+03   -0.41321E-05   -0.41475E-05  8320   0.996E-04 0.857E-06
CGA:  17    -0.386689490043E+03   -0.13532E-04   -0.13281E-04  8320   0.142E-03 0.303E-05
CGA:  18    -0.386689496725E+03   -0.66826E-05   -0.66896E-05  8320   0.668E-04 0.944E-06
  22 F= -.38668950E+03 E0= -.38667122E+03  d E =-.329359E-02  mag=    10.2645
       N       E                     dE             d eps       ncg     rms          ort
SDA:   1    -0.386631101451E+03    0.58389E-01    0.00000E+00  8320   0.327E+00 0.000E+00
CGA:   2    -0.386640933220E+03   -0.98318E-02   -0.97099E-02  8320   0.263E+00 0.149E-02
CGA:   3    -0.386666043585E+03   -0.25110E-01   -0.25263E-01  8320   0.320E+00-0.339E-02
CGA:   4    -0.386681150003E+03   -0.15106E-01   -0.15139E-01  8320   0.103E+00 0.180E-02
CGA:   5    -0.386685370614E+03   -0.42206E-02   -0.42343E-02  8320   0.461E-01 0.201E-03
CGA:   6    -0.386689080141E+03   -0.37095E-02   -0.37035E-02  8320   0.461E-01 0.188E-03
CGA:   7    -0.386691134665E+03   -0.20545E-02   -0.20486E-02  8320   0.224E-01-0.146E-03
CGA:   8    -0.386691736026E+03   -0.60136E-03   -0.60243E-03  8320   0.621E-02-0.256E-04
CGA:   9    -0.386692080839E+03   -0.34481E-03   -0.34484E-03  8320   0.326E-02-0.597E-05
CGA:  10    -0.386692448385E+03   -0.36755E-03   -0.36738E-03  8320   0.197E-02 0.299E-05
CGA:  11    -0.386692542869E+03   -0.94483E-04   -0.94459E-04  8320   0.107E-02-0.689E-06
CGA:  12    -0.386692587785E+03   -0.44916E-04   -0.44927E-04  8320   0.546E-03 0.580E-06
CGA:  13    -0.386692617312E+03   -0.29527E-04   -0.29528E-04  8320   0.715E-03 0.120E-05
CGA:  14    -0.386692654918E+03   -0.37606E-04   -0.37610E-04  8320   0.426E-03 0.120E-05
CGA:  15    -0.386692678275E+03   -0.23357E-04   -0.23357E-04  8320   0.144E-03 0.140E-05
CGA:  16    -0.386692690988E+03   -0.12713E-04   -0.12675E-04  8320   0.142E-03 0.115E-05
CGA:  17    -0.386692709006E+03   -0.18018E-04   -0.17900E-04  8320   0.274E-03 0.176E-05
CGA:  18    -0.386692720011E+03   -0.11005E-04   -0.11010E-04  8320   0.157E-03 0.164E-06
CGA:  19    -0.386692726782E+03   -0.67703E-05   -0.67751E-05  8320   0.101E-03 0.238E-06
  23 F= -.38669273E+03 E0= -.38667448E+03  d E =-.323006E-02  mag=    10.2636
       N       E                     dE             d eps       ncg     rms          ort
SDA:   1    -0.384391976728E+03    0.23007E+01    0.00000E+00  8320   0.648E+01 0.000E+00
CGA:   2    -0.385102473893E+03   -0.71050E+00   -0.76045E+00  8320   0.305E+02-0.794E+00
CGA:   3    -0.386025686667E+03   -0.92321E+00   -0.94524E+00  8320   0.766E+01-0.207E+00
CGA:   4    -0.386245928764E+03   -0.22024E+00   -0.23192E+00  8320   0.422E+01-0.169E+00
CGA:   5    -0.386394095543E+03   -0.14817E+00   -0.14263E+00  8320   0.337E+01 0.375E-01
CGA:   6    -0.386515103033E+03   -0.12101E+00   -0.12282E+00  8320   0.242E+01-0.431E-02
CGA:   7    -0.386605629619E+03   -0.90527E-01   -0.92827E-01  8320   0.175E+01 0.449E-02
CGA:   8    -0.386649397369E+03   -0.43768E-01   -0.43046E-01  8320   0.425E+00 0.204E-01
CGA:   9    -0.386665471849E+03   -0.16074E-01   -0.15961E-01  8320   0.282E+00-0.417E-03
CGA:  10    -0.386674159864E+03   -0.86880E-02   -0.87357E-02  8320   0.218E+00-0.427E-03
CGA:  11    -0.386688750352E+03   -0.14590E-01   -0.14591E-01  8320   0.197E+00-0.377E-04
CGA:  12    -0.386693844324E+03   -0.50940E-02   -0.50834E-02  8320   0.817E-01 0.219E-03
CGA:  13    -0.386696231706E+03   -0.23874E-02   -0.24026E-02  8320   0.234E-01-0.160E-03
CGA:  14    -0.386697341207E+03   -0.11095E-02   -0.11098E-02  8320   0.374E-01 0.433E-04
CGA:  15    -0.386699281359E+03   -0.19402E-02   -0.19404E-02  8320   0.349E-01-0.277E-04
CGA:  16    -0.386700480496E+03   -0.11991E-02   -0.11997E-02  8320   0.106E-01 0.799E-05
CGA:  17    -0.386700755120E+03   -0.27462E-03   -0.27668E-03  8320   0.542E-02-0.355E-04
CGA:  18    -0.386701027056E+03   -0.27194E-03   -0.27194E-03  8320   0.578E-02 0.402E-06
CGA:  19    -0.386701366400E+03   -0.33934E-03   -0.33951E-03  8320   0.761E-02-0.903E-05
CGA:  20    -0.386701653985E+03   -0.28759E-03   -0.28790E-03  8320   0.595E-02 0.839E-05
CGA:  21    -0.386701890448E+03   -0.23646E-03   -0.23651E-03  8320   0.192E-02 0.453E-05
CGA:  22    -0.386701970688E+03   -0.80240E-04   -0.80249E-04  8320   0.283E-02 0.203E-05
CGA:  23    -0.386702152150E+03   -0.18146E-03   -0.18135E-03  8320   0.271E-02 0.542E-05
CGA:  24    -0.386702303151E+03   -0.15100E-03   -0.15095E-03  8320   0.377E-02 0.381E-05
CGA:  25    -0.386702430920E+03   -0.12777E-03   -0.12784E-03  8320   0.152E-02 0.279E-05
CGA:  26    -0.386702485019E+03   -0.54099E-04   -0.54143E-04  8320   0.957E-03 0.168E-05
CGA:  27    -0.386702548253E+03   -0.63234E-04   -0.63180E-04  8320   0.171E-02 0.224E-05
CGA:  28    -0.386702613246E+03   -0.64993E-04   -0.65002E-04  8320   0.105E-02 0.169E-05
CGA:  29    -0.386702661486E+03   -0.48240E-04   -0.48240E-04  8320   0.501E-03 0.105E-05
CGA:  30    -0.386702677388E+03   -0.15902E-04   -0.15908E-04  8320   0.441E-03 0.151E-06
CGA:  31    -0.386702709488E+03   -0.32100E-04   -0.32044E-04  8320   0.477E-03 0.216E-05
SDA:  32    -0.386702730503E+03   -0.21015E-04   -0.21023E-04  8320   0.400E-03 0.205E-05
CGA:  33    -0.386702739081E+03   -0.85775E-05   -0.85752E-05  8320   0.120E-03-0.109E-05
  24 F= -.38670274E+03 E0= -.38668463E+03  d E =-.100123E-01  mag=    10.2513
       N       E                     dE             d eps       ncg     rms          ort
SDA:   1    -0.382404487284E+03    0.42982E+01    0.00000E+00  8320   0.211E+02 0.000E+00
CGA:   2    -0.383079524869E+03   -0.67504E+00   -0.62883E+00  8320   0.194E+02 0.113E+00
CGA:   3    -0.384955783871E+03   -0.18763E+01   -0.17949E+01  8320   0.178E+02 0.166E+01
CGA:   4    -0.385601424204E+03   -0.64564E+00   -0.68744E+00  8320   0.144E+02 0.264E+00
CGA:   5    -0.385955399115E+03   -0.35397E+00   -0.30630E+00  8320   0.430E+01 0.133E+01
CGA:   6    -0.386167186652E+03   -0.21179E+00   -0.21052E+00  8320   0.664E+01-0.212E+00
CGA:   7    -0.386385518309E+03   -0.21833E+00   -0.22665E+00  8320   0.500E+01 0.137E+00
CGA:   8    -0.386513271939E+03   -0.12775E+00   -0.13175E+00  8320   0.246E+01-0.678E-01
CGA:   9    -0.386568080445E+03   -0.54809E-01   -0.48288E-01  8320   0.934E+00 0.202E+00
CGA:  10    -0.386593611745E+03   -0.25531E-01   -0.25760E-01  8320   0.593E+00-0.222E-02
CGA:  11    -0.386608330617E+03   -0.14719E-01   -0.15098E-01  8320   0.457E+00-0.432E-02
CGA:  12    -0.386626878662E+03   -0.18548E-01   -0.18568E-01  8320   0.501E+00 0.562E-02
CGA:  13    -0.386640186191E+03   -0.13308E-01   -0.13151E-01  8320   0.308E+00 0.135E-02
CGA:  14    -0.386650253688E+03   -0.10067E-01   -0.10048E-01  8320   0.177E+00-0.389E-03
CGA:  15    -0.386653541479E+03   -0.32878E-02   -0.32896E-02  8320   0.629E-01-0.599E-04
CGA:  16    -0.386656035036E+03   -0.24936E-02   -0.24939E-02  8320   0.774E-01 0.346E-03
CGA:  17    -0.386658172534E+03   -0.21375E-02   -0.21396E-02  8320   0.544E-01 0.980E-05
CGA:  18    -0.386660791444E+03   -0.26189E-02   -0.26143E-02  8320   0.802E-01 0.356E-03
CGA:  19    -0.386662712243E+03   -0.19208E-02   -0.19196E-02  8320   0.295E-01 0.148E-05
CGA:  20    -0.386663696188E+03   -0.98395E-03   -0.98481E-03  8320   0.254E-01 0.533E-04
CGA:  21    -0.386664324979E+03   -0.62879E-03   -0.63005E-03  8320   0.109E-01 0.888E-05
CGA:  22    -0.386664808320E+03   -0.48334E-03   -0.48281E-03  8320   0.180E-01 0.606E-04
CGA:  23    -0.386665534077E+03   -0.72576E-03   -0.72566E-03  8320   0.172E-01 0.401E-04
CGA:  24    -0.386666184022E+03   -0.64994E-03   -0.65001E-03  8320   0.153E-01 0.471E-04
CGA:  25    -0.386666626397E+03   -0.44238E-03   -0.44179E-03  8320   0.957E-02-0.351E-05
CGA:  26    -0.386666927188E+03   -0.30079E-03   -0.30061E-03  8320   0.610E-02-0.913E-05
CGA:  27    -0.386667155162E+03   -0.22797E-03   -0.22798E-03  8320   0.914E-02 0.584E-05
CGA:  28    -0.386667648790E+03   -0.49363E-03   -0.49324E-03  8320   0.884E-02 0.166E-04
CGA:  29    -0.386667845150E+03   -0.19636E-03   -0.19610E-03  8320   0.411E-02 0.334E-05
CGA:  30    -0.386667999499E+03   -0.15435E-03   -0.15435E-03  8320   0.284E-02-0.284E-05
CGA:  31    -0.386668079998E+03   -0.80500E-04   -0.80504E-04  8320   0.260E-02 0.251E-07
SDA:  32    -0.386668248063E+03   -0.16806E-03   -0.16776E-03  8320   0.355E-02 0.106E-04
CGA:  33    -0.386668320664E+03   -0.72601E-04   -0.72623E-04  8320   0.749E-03 0.163E-05
CGA:  34    -0.386668364279E+03   -0.43615E-04   -0.43607E-04  8320   0.713E-03 0.134E-06
CGA:  35    -0.386668429939E+03   -0.65660E-04   -0.65686E-04  8320   0.102E-02-0.550E-06
CGA:  36    -0.386668501401E+03   -0.71462E-04   -0.71564E-04  8320   0.752E-03-0.347E-05
CGA:  37    -0.386668540239E+03   -0.38838E-04   -0.38835E-04  8320   0.355E-03 0.496E-06
CGA:  38    -0.386668569302E+03   -0.29062E-04   -0.29032E-04  8320   0.407E-03 0.712E-06
CGA:  39    -0.386668591482E+03   -0.22180E-04   -0.22176E-04  8320   0.607E-03 0.624E-06
CGA:  40    -0.386668623757E+03   -0.32276E-04   -0.32289E-04  8320   0.181E-03-0.159E-05
CGA:  41    -0.386668637815E+03   -0.14058E-04   -0.14125E-04  8320   0.166E-03-0.212E-05
CGA:  42    -0.386668659790E+03   -0.21975E-04   -0.22430E-04  8320   0.208E-03-0.515E-05
CGA:  43    -0.386668672939E+03   -0.13150E-04   -0.13188E-04  8320   0.953E-04-0.289E-05
CGA:  44    -0.386668677379E+03   -0.44392E-05   -0.44348E-05  8320   0.106E-03-0.844E-06
CGA:  45    -0.386668688639E+03   -0.11260E-04   -0.11263E-04  8320   0.199E-03-0.102E-06
CGA:  46    -0.386668694415E+03   -0.57764E-05   -0.57763E-05  8320   0.427E-04-0.179E-06
  25 F= -.38666869E+03 E0= -.38665059E+03  d E =0.340447E-01  mag=    10.2831
       N       E                     dE             d eps       ncg     rms          ort
SDA:   1    -0.385765849364E+03    0.90284E+00    0.00000E+00  8320   0.288E+01 0.000E+00
[...]
CGA:  23    -0.386595773853E+03   -0.18993E-04   -0.18972E-04  8320   0.159E-03-0.105E-05
CGA:  24    -0.386595784923E+03   -0.11070E-04   -0.11070E-04  8320   0.187E-03-0.612E-07
CGA:  25    -0.386595797235E+03   -0.12311E-04   -0.12311E-04  8320   0.150E-03-0.218E-06
CGA:  26    -0.386595807695E+03   -0.10460E-04   -0.10458E-04  8320   0.839E-04-0.116E-05
CGA:  27    -0.386595814057E+03   -0.63624E-05   -0.63662E-05  8320   0.671E-04-0.705E-06
 103 F= -.38659581E+03 E0= -.38658237E+03  d E =-.227198E-01  mag=    10.0230
       N       E                     dE             d eps       ncg     rms          ort
SDA:   1    -0.386255955558E+03    0.33985E+00    0.00000E+00  8320   0.141E+01 0.000E+00
CGA:   2    -0.386350290846E+03   -0.94335E-01   -0.93992E-01  8320   0.247E+01-0.260E-01
CGA:   3    -0.386518416768E+03   -0.16813E+00   -0.16815E+00  8320   0.595E+00 0.485E-02
CGA:   4    -0.386547460733E+03   -0.29044E-01   -0.29441E-01  8320   0.438E+00 0.134E-02
CGA:   5    -0.386579940268E+03   -0.32480E-01   -0.32476E-01  8320   0.346E+00 0.675E-03
CGA:   6    -0.386601807330E+03   -0.21867E-01   -0.21858E-01  8320   0.676E-01-0.424E-03
CGA:   7    -0.386605953951E+03   -0.41466E-02   -0.41439E-02  8320   0.441E-01-0.958E-04
CGA:   8    -0.386608334001E+03   -0.23800E-02   -0.23896E-02  8320   0.368E-01 0.142E-03
CGA:   9    -0.386610606809E+03   -0.22728E-02   -0.22726E-02  8320   0.105E-01 0.340E-05
CGA:  10    -0.386611213278E+03   -0.60647E-03   -0.60690E-03  8320   0.581E-02 0.173E-04
CGA:  11    -0.386611566104E+03   -0.35283E-03   -0.35290E-03  8320   0.467E-02 0.790E-05
CGA:  12    -0.386611986977E+03   -0.42087E-03   -0.42086E-03  8320   0.340E-02 0.119E-05
CGA:  13    -0.386612188968E+03   -0.20199E-03   -0.20201E-03  8320   0.120E-02 0.174E-05
CGA:  14    -0.386612323360E+03   -0.13439E-03   -0.13439E-03  8320   0.171E-02-0.779E-07
CGA:  15    -0.386612462775E+03   -0.13942E-03   -0.13940E-03  8320   0.222E-02 0.883E-06
CGA:  16    -0.386612585618E+03   -0.12284E-03   -0.12278E-03  8320   0.873E-03-0.153E-05
CGA:  17    -0.386612663227E+03   -0.77609E-04   -0.77607E-04  8320   0.125E-02 0.160E-06
CGA:  18    -0.386612735451E+03   -0.72224E-04   -0.72210E-04  8320   0.952E-03 0.593E-06
CGA:  19    -0.386612832566E+03   -0.97115E-04   -0.97088E-04  8320   0.305E-03 0.754E-06
CGA:  20    -0.386612862343E+03   -0.29777E-04   -0.29789E-04  8320   0.406E-03-0.517E-06
CGA:  21    -0.386612889331E+03   -0.26988E-04   -0.26972E-04  8320   0.292E-03-0.221E-05
CGA:  22    -0.386612905869E+03   -0.16538E-04   -0.16522E-04  8320   0.884E-04-0.103E-05
CGA:  23    -0.386612915397E+03   -0.95277E-05   -0.95439E-05  8320   0.971E-04-0.457E-06
 104 F= -.38661292E+03 E0= -.38659951E+03  d E =-.171013E-01  mag=    10.0239
       N       E                     dE             d eps       ncg     rms          ort
SDA:   1    -0.386121876372E+03    0.49103E+00    0.00000E+00  8320   0.271E+01 0.000E+00
CGA:   2    -0.386241240934E+03   -0.11936E+00   -0.12021E+00  8320   0.233E+01 0.140E-02
CGA:   3    -0.386493354442E+03   -0.25211E+00   -0.25232E+00  8320   0.101E+01-0.545E-02
CGA:   4    -0.386540279899E+03   -0.46925E-01   -0.47387E-01  8320   0.608E+00-0.103E-02
CGA:   5    -0.386578629540E+03   -0.38350E-01   -0.38214E-01  8320   0.566E+00-0.379E-02
CGA:   6    -0.386616556858E+03   -0.37927E-01   -0.37909E-01  8320   0.120E+00-0.126E-02
CGA:   7    -0.386623616286E+03   -0.70594E-02   -0.70627E-02  8320   0.616E-01 0.694E-04
CGA:   8    -0.386627751791E+03   -0.41355E-02   -0.41356E-02  8320   0.491E-01 0.513E-05
CGA:   9    -0.386630654590E+03   -0.29028E-02   -0.29061E-02  8320   0.216E-01 0.809E-04
CGA:  10    -0.386631875769E+03   -0.12212E-02   -0.12268E-02  8320   0.834E-02 0.944E-04
CGA:  11    -0.386632506775E+03   -0.63101E-03   -0.63090E-03  8320   0.592E-02 0.154E-04
CGA:  12    -0.386633009428E+03   -0.50265E-03   -0.50267E-03  8320   0.863E-02-0.115E-05
CGA:  13    -0.386633409703E+03   -0.40027E-03   -0.40132E-03  8320   0.189E-02-0.210E-05
CGA:  14    -0.386633568304E+03   -0.15860E-03   -0.15862E-03  8320   0.289E-02-0.179E-05
CGA:  15    -0.386633804257E+03   -0.23595E-03   -0.23596E-03  8320   0.327E-02-0.259E-05
CGA:  16    -0.386634028004E+03   -0.22375E-03   -0.22376E-03  8320   0.970E-03 0.162E-05
CGA:  17    -0.386634215776E+03   -0.18777E-03   -0.18769E-03  8320   0.232E-02 0.555E-06
CGA:  18    -0.386634345439E+03   -0.12966E-03   -0.12981E-03  8320   0.113E-02 0.383E-05
CGA:  19    -0.386634404381E+03   -0.58942E-04   -0.58982E-04  8320   0.603E-03 0.104E-05
CGA:  20    -0.386634480909E+03   -0.76528E-04   -0.76398E-04  8320   0.700E-03 0.247E-05
CGA:  21    -0.386634509491E+03   -0.28582E-04   -0.28560E-04  8320   0.349E-03 0.934E-06
CGA:  22    -0.386634534236E+03   -0.24745E-04   -0.24748E-04  8320   0.163E-03 0.190E-06
CGA:  23    -0.386634550452E+03   -0.16215E-04   -0.16214E-04  8320   0.200E-03 0.795E-07
CGA:  24    -0.386634562953E+03   -0.12502E-04   -0.12500E-04  8320   0.133E-03-0.938E-07
CGA:  25    -0.386634571359E+03   -0.84055E-05   -0.84137E-05  8320   0.564E-04 0.625E-06
 105 F= -.38663457E+03 E0= -.38662125E+03  d E =-.216560E-01  mag=    10.0231
       N       E                     dE             d eps       ncg     rms          ort
SDA:   1    -0.384055263186E+03    0.25793E+01    0.00000E+00  8320   0.857E+01 0.000E+00
CGA:   2    -0.385143120085E+03   -0.10879E+01   -0.10757E+01  8320   0.182E+02 0.186E+00
CGA:   3    -0.386004827201E+03   -0.86171E+00   -0.83836E+00  8320   0.399E+01 0.291E+00
CGA:   4    -0.386242149871E+03   -0.23732E+00   -0.23669E+00  8320   0.277E+01-0.946E-02
CGA:   5    -0.386523917822E+03   -0.28177E+00   -0.28277E+00  8320   0.241E+01-0.296E-01
CGA:   6    -0.386601436497E+03   -0.77519E-01   -0.78546E-01  8320   0.463E+00-0.104E-01
CGA:   7    -0.386626258935E+03   -0.24822E-01   -0.24253E-01  8320   0.293E+00-0.210E-02
CGA:   8    -0.386657064908E+03   -0.30806E-01   -0.30679E-01  8320   0.140E+00 0.323E-02
CGA:   9    -0.386663951899E+03   -0.68870E-02   -0.69127E-02  8320   0.607E-01-0.404E-04
CGA:  10    -0.386666744886E+03   -0.27930E-02   -0.28115E-02  8320   0.423E-01-0.475E-04
CGA:  11    -0.386671146213E+03   -0.44013E-02   -0.44065E-02  8320   0.291E-01-0.135E-03
CGA:  12    -0.386672762712E+03   -0.16165E-02   -0.16196E-02  8320   0.171E-01 0.232E-04
CGA:  13    -0.386673527750E+03   -0.76504E-03   -0.76506E-03  8320   0.834E-02-0.113E-05
CGA:  14    -0.386675004872E+03   -0.14771E-02   -0.14750E-02  8320   0.121E-01 0.223E-04
CGA:  15    -0.386675660478E+03   -0.65561E-03   -0.65470E-03  8320   0.778E-02-0.323E-05
CGA:  16    -0.386676086633E+03   -0.42615E-03   -0.42748E-03  8320   0.648E-02 0.119E-04
CGA:  17    -0.386676901938E+03   -0.81531E-03   -0.81447E-03  8320   0.873E-02 0.158E-04
CGA:  18    -0.386677477394E+03   -0.57546E-03   -0.57503E-03  8320   0.302E-02-0.703E-05
CGA:  19    -0.386677690051E+03   -0.21266E-03   -0.21265E-03  8320   0.425E-02 0.173E-05
CGA:  20    -0.386678003920E+03   -0.31387E-03   -0.31395E-03  8320   0.319E-02 0.147E-04
CGA:  21    -0.386678182590E+03   -0.17867E-03   -0.17864E-03  8320   0.822E-03 0.526E-06
CGA:  22    -0.386678262889E+03   -0.80299E-04   -0.80268E-04  8320   0.161E-02 0.120E-05
CGA:  23    -0.386678356132E+03   -0.93243E-04   -0.93258E-04  8320   0.606E-03-0.243E-06
CGA:  24    -0.386678402529E+03   -0.46397E-04   -0.46397E-04  8320   0.381E-03 0.320E-06
CGA:  25    -0.386678423510E+03   -0.20981E-04   -0.20981E-04  8320   0.341E-03 0.640E-06
CGA:  26    -0.386678449495E+03   -0.25985E-04   -0.25983E-04  8320   0.277E-03 0.955E-06
CGA:  27    -0.386678473816E+03   -0.24322E-04   -0.24314E-04  8320   0.154E-03 0.613E-06
CGA:  28    -0.386678482654E+03   -0.88373E-05   -0.88408E-05  8320   0.979E-04 0.591E-07
 106 F= -.38667848E+03 E0= -.38666523E+03  d E =-.439113E-01  mag=    10.0198
       N       E                     dE             d eps       ncg     rms          ort
SDA:   1    -0.384013482001E+03    0.26650E+01    0.00000E+00  8320   0.831E+01 0.000E+00
CGA:   2    -0.384892691511E+03   -0.87921E+00   -0.88883E+00  8320   0.246E+02-0.258E+00
CGA:   3    -0.386000023354E+03   -0.11073E+01   -0.11593E+01  8320   0.572E+01-0.369E-01
CGA:   4    -0.386234039813E+03   -0.23402E+00   -0.22677E+00  8320   0.307E+01 0.869E-01
CGA:   5    -0.386441705461E+03   -0.20767E+00   -0.20726E+00  8320   0.360E+01-0.264E-01
CGA:   6    -0.386605919602E+03   -0.16421E+00   -0.16944E+00  8320   0.154E+01-0.559E-02
CGA:   7    -0.386650101818E+03   -0.44182E-01   -0.45443E-01  8320   0.346E+00-0.255E-01
CGA:   8    -0.386670322455E+03   -0.20221E-01   -0.20182E-01  8320   0.299E+00-0.130E-02
CGA:   9    -0.386687333022E+03   -0.17011E-01   -0.16999E-01  8320   0.284E+00-0.282E-03
CGA:  10    -0.386698706958E+03   -0.11374E-01   -0.11339E-01  8320   0.729E-01 0.287E-03
CGA:  11    -0.386702701062E+03   -0.39941E-02   -0.40002E-02  8320   0.323E-01 0.158E-03
CGA:  12    -0.386704657416E+03   -0.19564E-02   -0.19570E-02  8320   0.470E-01 0.500E-04
CGA:  13    -0.386707384842E+03   -0.27274E-02   -0.27256E-02  8320   0.150E-01-0.868E-04
CGA:  14    -0.386708601278E+03   -0.12164E-02   -0.12130E-02  8320   0.114E-01 0.146E-03
CGA:  15    -0.386708999215E+03   -0.39794E-03   -0.40046E-03  8320   0.626E-02-0.337E-04
CGA:  16    -0.386709767874E+03   -0.76866E-03   -0.76578E-03  8320   0.820E-02 0.472E-04
CGA:  17    -0.386710381662E+03   -0.61379E-03   -0.61376E-03  8320   0.713E-02 0.180E-05
CGA:  18    -0.386710689633E+03   -0.30797E-03   -0.30789E-03  8320   0.378E-02 0.332E-05
CGA:  19    -0.386711062633E+03   -0.37300E-03   -0.37190E-03  8320   0.675E-02 0.289E-04
CGA:  20    -0.386711494446E+03   -0.43181E-03   -0.43180E-03  8320   0.508E-02 0.315E-06
CGA:  21    -0.386711752181E+03   -0.25774E-03   -0.25787E-03  8320   0.209E-02 0.530E-05
CGA:  22    -0.386711924862E+03   -0.17268E-03   -0.17265E-03  8320   0.242E-02 0.184E-05
CGA:  23    -0.386712092693E+03   -0.16783E-03   -0.16783E-03  8320   0.262E-02 0.248E-05
CGA:  24    -0.386712204247E+03   -0.11155E-03   -0.11143E-03  8320   0.709E-03 0.681E-06
CGA:  25    -0.386712271198E+03   -0.66951E-04   -0.67014E-04  8320   0.584E-03-0.197E-05
CGA:  26    -0.386712322630E+03   -0.51432E-04   -0.51458E-04  8320   0.108E-02-0.116E-05
CGA:  27    -0.386712371030E+03   -0.48399E-04   -0.48372E-04  8320   0.256E-03-0.349E-07
CGA:  28    -0.386712389809E+03   -0.18779E-04   -0.18774E-04  8320   0.188E-03 0.748E-06
CGA:  29    -0.386712409472E+03   -0.19663E-04   -0.19700E-04  8320   0.347E-03-0.971E-06
CGA:  30    -0.386712424885E+03   -0.15413E-04   -0.15399E-04  8320   0.131E-03-0.416E-06
CGA:  31    -0.386712433588E+03   -0.87025E-05   -0.87012E-05  8320   0.899E-04-0.575E-06
 107 F= -.38671243E+03 E0= -.38669907E+03  d E =-.339509E-01  mag=    10.0211
       N       E                     dE             d eps       ncg     rms          ort
SDA:   1    -0.386255289798E+03    0.45714E+00    0.00000E+00  8320   0.162E+01 0.000E+00
CGA:   2    -0.386425443060E+03   -0.17015E+00   -0.17051E+00  8320   0.346E+01-0.788E-02
CGA:   3    -0.386582649085E+03   -0.15721E+00   -0.15748E+00  8320   0.540E+00 0.474E-03
CGA:   4    -0.386624437585E+03   -0.41788E-01   -0.41824E-01  8320   0.717E+00-0.240E-02
CGA:   5    -0.386661726658E+03   -0.37289E-01   -0.37446E-01  8320   0.407E+00 0.189E-02
CGA:   6    -0.386684039006E+03   -0.22312E-01   -0.22414E-01  8320   0.812E-01 0.205E-02
CGA:   7    -0.386690166105E+03   -0.61271E-02   -0.61236E-02  8320   0.589E-01 0.282E-03
CGA:   8    -0.386694171510E+03   -0.40054E-02   -0.40054E-02  8320   0.468E-01-0.104E-03
CGA:   9    -0.386696275944E+03   -0.21044E-02   -0.21130E-02  8320   0.149E-01-0.329E-05
CGA:  10    -0.386697036684E+03   -0.76074E-03   -0.76206E-03  8320   0.705E-02 0.180E-04
CGA:  11    -0.386697743612E+03   -0.70693E-03   -0.70679E-03  8320   0.107E-01 0.442E-05
CGA:  12    -0.386698230159E+03   -0.48655E-03   -0.48568E-03  8320   0.364E-02 0.977E-05
CGA:  13    -0.386698502824E+03   -0.27266E-03   -0.27261E-03  8320   0.183E-02 0.756E-05
CGA:  14    -0.386698739010E+03   -0.23619E-03   -0.23585E-03  8320   0.311E-02 0.543E-05
CGA:  15    -0.386698925289E+03   -0.18628E-03   -0.18634E-03  8320   0.250E-02 0.684E-05
CGA:  16    -0.386699055974E+03   -0.13069E-03   -0.13083E-03  8320   0.119E-02 0.394E-05
CGA:  17    -0.386699200271E+03   -0.14430E-03   -0.14413E-03  8320   0.168E-02 0.266E-05
CGA:  18    -0.386699296438E+03   -0.96167E-04   -0.96127E-04  8320   0.150E-02-0.299E-05
CGA:  19    -0.386699410062E+03   -0.11362E-03   -0.11366E-03  8320   0.584E-03-0.674E-05
CGA:  20    -0.386699448068E+03   -0.38006E-04   -0.37993E-04  8320   0.489E-03-0.163E-05
CGA:  21    -0.386699502653E+03   -0.54584E-04   -0.54585E-04  8320   0.552E-03-0.556E-07
CGA:  22    -0.386699521403E+03   -0.18750E-04   -0.18717E-04  8320   0.150E-03-0.262E-06
CGA:  23    -0.386699538519E+03   -0.17116E-04   -0.17167E-04  8320   0.159E-03-0.111E-05
CGA:  24    -0.386699552270E+03   -0.13751E-04   -0.13753E-04  8320   0.167E-03-0.218E-06
CGA:  25    -0.386699559429E+03   -0.71583E-05   -0.71439E-05  8320   0.587E-04-0.553E-06
 108 F= -.38669956E+03 E0= -.38668618E+03  d E =0.128742E-01  mag=    10.0206
       N       E                     dE             d eps       ncg     rms          ort
SDA:   1    -0.385750174907E+03    0.94938E+00    0.00000E+00  8320   0.320E+01 0.000E+00
CGA:   2    -0.386075796664E+03   -0.32562E+00   -0.33489E+00  8320   0.920E+01-0.229E+00
CGA:   3    -0.386429366907E+03   -0.35357E+00   -0.36269E+00  8320   0.131E+01-0.690E-01
CGA:   4    -0.386497669378E+03   -0.68302E-01   -0.69108E-01  8320   0.135E+01 0.439E-02
CGA:   5    -0.386591333556E+03   -0.93664E-01   -0.93601E-01  8320   0.122E+01-0.915E-02
CGA:   6    -0.386636891722E+03   -0.45558E-01   -0.45839E-01  8320   0.227E+00-0.298E-02
CGA:   7    -0.386648536077E+03   -0.11644E-01   -0.11669E-01  8320   0.181E+00 0.234E-03
CGA:   8    -0.386658235309E+03   -0.96992E-02   -0.96703E-02  8320   0.882E-01-0.357E-03
CGA:   9    -0.386664171663E+03   -0.59364E-02   -0.59363E-02  8320   0.780E-01-0.508E-04
CGA:  10    -0.386666904069E+03   -0.27324E-02   -0.27077E-02  8320   0.140E-01 0.340E-03
CGA:  11    -0.386668290005E+03   -0.13859E-02   -0.13847E-02  8320   0.197E-01 0.315E-04
CGA:  12    -0.386669244056E+03   -0.95405E-03   -0.95723E-03  8320   0.149E-01 0.129E-04
CGA:  13    -0.386670092837E+03   -0.84878E-03   -0.84857E-03  8320   0.509E-02-0.500E-05
CGA:  14    -0.386670420574E+03   -0.32774E-03   -0.32769E-03  8320   0.461E-02-0.714E-05
CGA:  15    -0.386670741603E+03   -0.32103E-03   -0.32099E-03  8320   0.650E-02 0.961E-05
CGA:  16    -0.386671165533E+03   -0.42393E-03   -0.42389E-03  8320   0.401E-02-0.557E-05
CGA:  17    -0.386671460301E+03   -0.29477E-03   -0.29468E-03  8320   0.336E-02 0.864E-05
CGA:  18    -0.386671630175E+03   -0.16987E-03   -0.16989E-03  8320   0.270E-02 0.102E-05
CGA:  19    -0.386671914826E+03   -0.28465E-03   -0.28520E-03  8320   0.423E-02-0.129E-04
CGA:  20    -0.386672126677E+03   -0.21185E-03   -0.21187E-03  8320   0.202E-02-0.375E-05
CGA:  21    -0.386672219177E+03   -0.92500E-04   -0.92534E-04  8320   0.961E-03 0.671E-06
CGA:  22    -0.386672348763E+03   -0.12959E-03   -0.12946E-03  8320   0.150E-02 0.184E-05
CGA:  23    -0.386672402731E+03   -0.53968E-04   -0.54065E-04  8320   0.608E-03 0.827E-06
CGA:  24    -0.386672446646E+03   -0.43915E-04   -0.43902E-04  8320   0.284E-03 0.269E-05
CGA:  25    -0.386672470744E+03   -0.24098E-04   -0.24087E-04  8320   0.426E-03 0.633E-06
CGA:  26    -0.386672494613E+03   -0.23869E-04   -0.23880E-04  8320   0.281E-03 0.661E-06
CGA:  27    -0.386672510666E+03   -0.16053E-04   -0.16047E-04  8320   0.145E-03-0.282E-06
CGA:  28    -0.386672518936E+03   -0.82705E-05   -0.82618E-05  8320   0.915E-04-0.767E-06
 109 F= -.38667252E+03 E0= -.38665919E+03  d E =0.270405E-01  mag=    10.0192
       N       E                     dE             d eps       ncg     rms          ort
SDA:   1    -0.386510454430E+03    0.16206E+00    0.00000E+00  8320   0.647E+00 0.000E+00
CGA:   2    -0.386548110865E+03   -0.37656E-01   -0.37811E-01  8320   0.815E+00 0.627E-02
CGA:   3    -0.386615057427E+03   -0.66947E-01   -0.67105E-01  8320   0.500E+00-0.740E-02
CGA:   4    -0.386635326570E+03   -0.20269E-01   -0.21017E-01  8320   0.173E+00-0.278E-02
CGA:   5    -0.386647954978E+03   -0.12628E-01   -0.12635E-01  8320   0.178E+00-0.493E-03
CGA:   6    -0.386657528738E+03   -0.95738E-02   -0.95735E-02  8320   0.704E-01 0.101E-04
CGA:   7    -0.386661655171E+03   -0.41264E-02   -0.41269E-02  8320   0.136E-01 0.346E-04
CGA:   8    -0.386663203576E+03   -0.15484E-02   -0.15502E-02  8320   0.113E-01-0.336E-04
CGA:   9    -0.386663856997E+03   -0.65342E-03   -0.65365E-03  8320   0.674E-02 0.701E-05
CGA:  10    -0.386664200078E+03   -0.34308E-03   -0.34371E-03  8320   0.236E-02 0.314E-05
CGA:  11    -0.386664352342E+03   -0.15226E-03   -0.15227E-03  8320   0.157E-02 0.484E-06
CGA:  12    -0.386664528274E+03   -0.17593E-03   -0.17596E-03  8320   0.102E-02-0.896E-06
CGA:  13    -0.386664595757E+03   -0.67483E-04   -0.67480E-04  8320   0.470E-03-0.969E-06
CGA:  14    -0.386664627018E+03   -0.31262E-04   -0.31260E-04  8320   0.551E-03-0.480E-06
CGA:  15    -0.386664676235E+03   -0.49217E-04   -0.49168E-04  8320   0.434E-03 0.225E-05
CGA:  16    -0.386664711147E+03   -0.34912E-04   -0.34899E-04  8320   0.279E-03 0.130E-05
CGA:  17    -0.386664728048E+03   -0.16901E-04   -0.16901E-04  8320   0.321E-03 0.162E-06
CGA:  18    -0.386664753230E+03   -0.25182E-04   -0.25179E-04  8320   0.313E-03 0.324E-06
CGA:  19    -0.386664777457E+03   -0.24227E-04   -0.24230E-04  8320   0.148E-03-0.273E-06
CGA:  20    -0.386664789130E+03   -0.11673E-04   -0.11673E-04  8320   0.113E-03 0.370E-07
CGA:  21    -0.386664797081E+03   -0.79511E-05   -0.79505E-05  8320   0.115E-03-0.470E-06
 110 F= -.38666480E+03 E0= -.38665145E+03  d E =0.772186E-02  mag=    10.0177
       N       E                     dE             d eps       ncg     rms          ort
SDA:   1    -0.386594528139E+03    0.70261E-01    0.00000E+00  8320   0.310E+00 0.000E+00
CGA:   2    -0.386616532700E+03   -0.22005E-01   -0.22004E-01  8320   0.477E+00 0.266E-03
CGA:   3    -0.386652680280E+03   -0.36148E-01   -0.36160E-01  8320   0.124E+00-0.140E-02
CGA:   4    -0.386659640577E+03   -0.69603E-02   -0.69678E-02  8320   0.789E-01 0.129E-03
CGA:   5    -0.386668767784E+03   -0.91272E-02   -0.91182E-02  8320   0.493E-01 0.173E-03
CGA:   6    -0.386670575077E+03   -0.18073E-02   -0.17835E-02  8320   0.174E-01 0.324E-03
CGA:   7    -0.386671477257E+03   -0.90218E-03   -0.90551E-03  8320   0.878E-02 0.233E-04
CGA:   8    -0.386672239165E+03   -0.76191E-03   -0.76183E-03  8320   0.515E-02 0.481E-05
CGA:   9    -0.386672542414E+03   -0.30325E-03   -0.30333E-03  8320   0.262E-02 0.466E-05
CGA:  10    -0.386672656514E+03   -0.11410E-03   -0.11402E-03  8320   0.103E-02-0.466E-06
CGA:  11    -0.386672771390E+03   -0.11488E-03   -0.11482E-03  8320   0.848E-03 0.105E-05
CGA:  12    -0.386672839305E+03   -0.67914E-04   -0.67917E-04  8320   0.652E-03-0.384E-06
CGA:  13    -0.386672864846E+03   -0.25542E-04   -0.25541E-04  8320   0.281E-03-0.689E-06
CGA:  14    -0.386672889806E+03   -0.24960E-04   -0.24996E-04  8320   0.359E-03-0.174E-05
CGA:  15    -0.386672924229E+03   -0.34423E-04   -0.34471E-04  8320   0.260E-03-0.202E-05
CGA:  16    -0.386672941904E+03   -0.17675E-04   -0.17675E-04  8320   0.211E-03 0.865E-07
CGA:  17    -0.386672955506E+03   -0.13602E-04   -0.13605E-04  8320   0.194E-03 0.304E-06
CGA:  18    -0.386672977413E+03   -0.21907E-04   -0.21830E-04  8320   0.150E-03 0.187E-05
CGA:  19    -0.386672988155E+03   -0.10742E-04   -0.10743E-04  8320   0.107E-03 0.661E-06
CGA:  20    -0.386672992913E+03   -0.47580E-05   -0.47641E-05  8320   0.713E-04 0.224E-06
 111 F= -.38667299E+03 E0= -.38665966E+03  d E =-.819583E-02  mag=    10.0183
