       N       E                     dE             d eps       ncg     rms          ort
DAV:   1     0.615427499656E+04    0.61543E+04   -0.32384E+05  8112   0.185E+03
DAV:   2     0.371489510262E+03   -0.57828E+04   -0.54978E+04  8112   0.531E+02
DAV:   3    -0.214195008696E+03   -0.58568E+03   -0.55979E+03  8112   0.187E+02
DAV:   4    -0.231976201574E+03   -0.17781E+02   -0.17678E+02  8112   0.352E+01
DAV:   5    -0.232462687593E+03   -0.48649E+00   -0.48392E+00  8112   0.470E+00
SDA:   6    -0.228787785211E+03    0.36749E+01   -0.48392E+00  8112   0.271E+02 0.000E+00
CGA:   7    -0.229107846864E+03   -0.32006E+00   -0.16861E+00  8112   0.218E+02 0.249E+02
CGA:   8    -0.229450969316E+03   -0.34312E+00   -0.15626E+00  8112   0.244E+02 0.284E+02
CGA:   9    -0.230228562188E+03   -0.77759E+00   -0.29405E+00  8112   0.199E+02 0.337E+02
CGA:  10    -0.230668010572E+03   -0.43945E+00   -0.38082E+00  8112   0.130E+01-0.609E+00
CGA:  11    -0.230759988278E+03   -0.91978E-01   -0.92414E-01  8112   0.549E+00 0.805E-02
CGA:  12    -0.230797771729E+03   -0.37783E-01   -0.38307E-01  8112   0.205E+00-0.434E-02
CGA:  13    -0.230830044640E+03   -0.32273E-01   -0.32284E-01  8112   0.366E+00-0.214E-02
CGA:  14    -0.230841985384E+03   -0.11941E-01   -0.12131E-01  8112   0.165E+00-0.467E-02
CGA:  15    -0.230848448834E+03   -0.64635E-02   -0.67453E-02  8112   0.583E-01-0.536E-02
CGA:  16    -0.230857162625E+03   -0.87138E-02   -0.87160E-02  8112   0.801E-01-0.150E-03
CGA:  17    -0.230861235102E+03   -0.40725E-02   -0.39531E-02  8112   0.804E-01 0.178E-02
CGA:  18    -0.230864641391E+03   -0.34063E-02   -0.35094E-02  8112   0.276E-01-0.192E-02
CGA:  19    -0.230867807934E+03   -0.31665E-02   -0.31564E-02  8112   0.384E-01-0.176E-03
CGA:  20    -0.230869346422E+03   -0.15385E-02   -0.15153E-02  8112   0.290E-01 0.501E-03
CGA:  21    -0.230870908992E+03   -0.15626E-02   -0.15712E-02  8112   0.785E-02-0.849E-04
CGA:  22    -0.230871690799E+03   -0.78181E-03   -0.77927E-03  8112   0.185E-01-0.281E-04
CGA:  23    -0.230872457780E+03   -0.76698E-03   -0.76356E-03  8112   0.823E-02 0.269E-04
CGA:  24    -0.230872878395E+03   -0.42061E-03   -0.42109E-03  8112   0.282E-02-0.305E-04
CGA:  25    -0.230873133193E+03   -0.25480E-03   -0.25404E-03  8112   0.656E-02-0.208E-04
CGA:  26    -0.230873395610E+03   -0.26242E-03   -0.26076E-03  8112   0.234E-02-0.180E-04
CGA:  27    -0.230873616377E+03   -0.22077E-03   -0.22035E-03  8112   0.174E-02-0.239E-04
CGA:  28    -0.230873697173E+03   -0.80796E-04   -0.80232E-04  8112   0.188E-02-0.811E-05
CGA:  29    -0.230873791988E+03   -0.94814E-04   -0.93779E-04  8112   0.882E-03-0.540E-05
CGA:  30    -0.230873888889E+03   -0.96901E-04   -0.96920E-04  8112   0.113E-02-0.449E-05
CGA:  31    -0.230873933935E+03   -0.45047E-04   -0.44874E-04  8112   0.971E-03 0.190E-05
CGA:  32    -0.230873998390E+03   -0.64454E-04   -0.64585E-04  8112   0.486E-03 0.384E-05
CGA:  33    -0.230874033841E+03   -0.35451E-04   -0.35545E-04  8112   0.483E-03 0.373E-05
CGA:  34    -0.230874053247E+03   -0.19406E-04   -0.19627E-04  8112   0.416E-03 0.249E-05
CGA:  35    -0.230874091646E+03   -0.38399E-04   -0.38420E-04  8112   0.259E-03 0.552E-05
CGA:  36    -0.230874105502E+03   -0.13856E-04   -0.13976E-04  8112   0.211E-03 0.232E-05
CGA:  37    -0.230874113026E+03   -0.75240E-05   -0.75968E-05  8112   0.108E-03 0.111E-05
CGA:  38    -0.230874124933E+03   -0.11907E-04   -0.11851E-04  8112   0.956E-04 0.266E-05
CGA:  39    -0.230874130269E+03   -0.53360E-05   -0.53804E-05  8112   0.132E-03 0.981E-06
   1 F= -.23087413E+03 E0= -.23085745E+03  d E =-.230874E+03  mag=     9.0787
       N       E                     dE             d eps       ncg     rms          ort
SDA:   1    -0.230168023320E+03    0.70610E+00    0.00000E+00  8112   0.224E+02 0.000E+00
CGA:   2    -0.230441920604E+03   -0.27390E+00   -0.57190E+00  8112   0.112E+02-0.116E+02
CGA:   3    -0.230633669609E+03   -0.19175E+00   -0.19493E+00  8112   0.136E+01-0.190E+00
CGA:   4    -0.230790786951E+03   -0.15712E+00   -0.15556E+00  8112   0.392E+00 0.348E-01
CGA:   5    -0.230809305525E+03   -0.18519E-01   -0.18638E-01  8112   0.561E+00-0.168E-02
CGA:   6    -0.230844393359E+03   -0.35088E-01   -0.35118E-01  8112   0.195E+00-0.684E-03
CGA:   7    -0.230855967841E+03   -0.11574E-01   -0.11461E-01  8112   0.981E-01-0.912E-03
CGA:   8    -0.230864609320E+03   -0.86415E-02   -0.86359E-02  8112   0.165E+00 0.387E-03
CGA:   9    -0.230869669130E+03   -0.50598E-02   -0.50682E-02  8112   0.508E-01 0.442E-04
CGA:  10    -0.230873149867E+03   -0.34807E-02   -0.34787E-02  8112   0.185E-01-0.545E-04
CGA:  11    -0.230874605596E+03   -0.14557E-02   -0.14556E-02  8112   0.267E-01 0.267E-04
CGA:  12    -0.230875588831E+03   -0.98324E-03   -0.98536E-03  8112   0.164E-01-0.895E-04
CGA:  13    -0.230876675111E+03   -0.10863E-02   -0.10854E-02  8112   0.415E-02-0.730E-04
CGA:  14    -0.230877008977E+03   -0.33387E-03   -0.33393E-03  8112   0.732E-02-0.109E-04
CGA:  15    -0.230877278478E+03   -0.26950E-03   -0.26967E-03  8112   0.350E-02-0.362E-05
CGA:  16    -0.230877539890E+03   -0.26141E-03   -0.26140E-03  8112   0.122E-02 0.730E-05
CGA:  17    -0.230877623289E+03   -0.83398E-04   -0.83454E-04  8112   0.217E-02 0.907E-05
CGA:  18    -0.230877717436E+03   -0.94148E-04   -0.94518E-04  8112   0.867E-03 0.114E-04
CGA:  19    -0.230877778446E+03   -0.61010E-04   -0.61020E-04  8112   0.457E-03 0.793E-05
CGA:  20    -0.230877799208E+03   -0.20763E-04   -0.20818E-04  8112   0.346E-03 0.785E-06
CGA:  21    -0.230877812932E+03   -0.13724E-04   -0.13758E-04  8112   0.203E-03-0.409E-07
CGA:  22    -0.230877838104E+03   -0.25172E-04   -0.25318E-04  8112   0.116E-03-0.298E-05
CGA:  23    -0.230877841123E+03   -0.30196E-05   -0.29916E-05  8112   0.513E-04-0.105E-05
   2 F= -.23087784E+03 E0= -.23086099E+03  d E =-.371085E-02  mag=     9.0934
       N       E                     dE             d eps       ncg     rms          ort
SDA:   1    -0.230871929133E+03    0.59090E-02    0.00000E+00  8112   0.884E-01 0.000E+00
CGA:   2    -0.230874493131E+03   -0.25640E-02   -0.25943E-02  8112   0.409E-01-0.513E-03
CGA:   3    -0.230875923981E+03   -0.14309E-02   -0.14424E-02  8112   0.153E-01 0.307E-04
CGA:   4    -0.230877008360E+03   -0.10844E-02   -0.10839E-02  8112   0.381E-02 0.193E-03
CGA:   5    -0.230877354435E+03   -0.34608E-03   -0.34333E-03  8112   0.352E-02 0.127E-03
CGA:   6    -0.230877545489E+03   -0.19105E-03   -0.19208E-03  8112   0.377E-02 0.670E-04
CGA:   7    -0.230877671379E+03   -0.12589E-03   -0.12696E-03  8112   0.959E-03 0.380E-04
CGA:   8    -0.230877779761E+03   -0.10838E-03   -0.10853E-03  8112   0.739E-03-0.318E-05
CGA:   9    -0.230877837650E+03   -0.57889E-04   -0.57991E-04  8112   0.540E-03-0.966E-05
CGA:  10    -0.230877851613E+03   -0.13963E-04   -0.13947E-04  8112   0.222E-03-0.258E-06
CGA:  11    -0.230877870105E+03   -0.18492E-04   -0.18414E-04  8112   0.141E-03 0.480E-05
CGA:  12    -0.230877885910E+03   -0.15804E-04   -0.15481E-04  8112   0.592E-04 0.817E-05
CGA:  13    -0.230877888910E+03   -0.30004E-05   -0.30199E-05  8112   0.636E-04 0.844E-06
   3 F= -.23087789E+03 E0= -.23086104E+03  d E =-.375864E-02  mag=     9.0930
       N       E                     dE             d eps       ncg     rms          ort
SDA:   1    -0.230871157090E+03    0.67288E-02    0.00000E+00  8112   0.327E+00 0.000E+00
CGA:   2    -0.230876384491E+03   -0.52274E-02   -0.53581E-02  8112   0.181E-01-0.670E-02
CGA:   3    -0.230877113331E+03   -0.72884E-03   -0.73296E-03  8112   0.528E-02 0.593E-04
CGA:   4    -0.230877525567E+03   -0.41224E-03   -0.41058E-03  8112   0.401E-02 0.123E-03
CGA:   5    -0.230877626129E+03   -0.10056E-03   -0.10224E-03  8112   0.118E-02 0.450E-04
CGA:   6    -0.230877743930E+03   -0.11780E-03   -0.11484E-03  8112   0.696E-03 0.867E-04
CGA:   7    -0.230877783863E+03   -0.39933E-04   -0.40164E-04  8112   0.823E-03 0.226E-04
CGA:   8    -0.230877815786E+03   -0.31923E-04   -0.32306E-04  8112   0.268E-03 0.152E-04
CGA:   9    -0.230877845031E+03   -0.29245E-04   -0.29253E-04  8112   0.237E-03-0.198E-06
CGA:  10    -0.230877854441E+03   -0.94101E-05   -0.93966E-05  8112   0.196E-03-0.520E-06
   4 F= -.23087785E+03 E0= -.23086101E+03  d E =-.372417E-02  mag=     9.0922
       N       E                     dE             d eps       ncg     rms          ort
SDA:   1    -0.230648801177E+03    0.22904E+00    0.00000E+00  8112   0.436E+01 0.000E+00
CGA:   2    -0.230722700754E+03   -0.73900E-01   -0.74213E-01  8112   0.510E+00-0.324E-01
CGA:   3    -0.230805558482E+03   -0.82858E-01   -0.83147E-01  8112   0.493E+00-0.306E-02
CGA:   4    -0.230837352444E+03   -0.31794E-01   -0.31796E-01  8112   0.363E+00 0.223E-02
CGA:   5    -0.230851359249E+03   -0.14007E-01   -0.14002E-01  8112   0.317E+00-0.201E-03
CGA:   6    -0.230869169887E+03   -0.17811E-01   -0.17792E-01  8112   0.599E-01-0.101E-02
CGA:   7    -0.230874441794E+03   -0.52719E-02   -0.52529E-02  8112   0.582E-01 0.655E-03
CGA:   8    -0.230876466027E+03   -0.20242E-02   -0.20223E-02  8112   0.330E-01 0.109E-03
CGA:   9    -0.230877844574E+03   -0.13785E-02   -0.13765E-02  8112   0.967E-02 0.811E-04
CGA:  10    -0.230878644368E+03   -0.79979E-03   -0.79866E-03  8112   0.671E-02 0.492E-04
CGA:  11    -0.230879010197E+03   -0.36583E-03   -0.36588E-03  8112   0.905E-02 0.667E-05
CGA:  12    -0.230879377018E+03   -0.36682E-03   -0.36690E-03  8112   0.205E-02 0.192E-05
CGA:  13    -0.230879537245E+03   -0.16023E-03   -0.16015E-03  8112   0.110E-02 0.440E-05
CGA:  14    -0.230879598847E+03   -0.61602E-04   -0.61613E-04  8112   0.193E-02 0.184E-05
CGA:  15    -0.230879707070E+03   -0.10822E-03   -0.10826E-03  8112   0.435E-03 0.601E-05
CGA:  16    -0.230879739952E+03   -0.32882E-04   -0.32882E-04  8112   0.415E-03 0.443E-07
CGA:  17    -0.230879764375E+03   -0.24423E-04   -0.24419E-04  8112   0.552E-03-0.146E-05
CGA:  18    -0.230879785071E+03   -0.20695E-04   -0.20631E-04  8112   0.130E-03-0.245E-05
CGA:  19    -0.230879796024E+03   -0.10953E-04   -0.10986E-04  8112   0.958E-04-0.150E-05
CGA:  20    -0.230879801718E+03   -0.56947E-05   -0.56922E-05  8112   0.156E-03-0.115E-05
   5 F= -.23087980E+03 E0= -.23086292E+03  d E =-.194728E-02  mag=     9.1016
       N       E                     dE             d eps       ncg     rms          ort
SDA:   1    -0.230849384021E+03    0.30412E-01    0.00000E+00  8112   0.333E+00 0.000E+00
CGA:   2    -0.230856376087E+03   -0.69921E-02   -0.68351E-02  8112   0.996E-01 0.547E-02
CGA:   3    -0.230864903896E+03   -0.85278E-02   -0.85530E-02  8112   0.105E+00-0.866E-03
CGA:   4    -0.230873179914E+03   -0.82760E-02   -0.82765E-02  8112   0.402E-01-0.141E-03
CGA:   5    -0.230875767031E+03   -0.25871E-02   -0.25875E-02  8112   0.632E-01-0.124E-03
CGA:   6    -0.230877898674E+03   -0.21316E-02   -0.21241E-02  8112   0.183E-01 0.590E-05
CGA:   7    -0.230878971327E+03   -0.10727E-02   -0.10727E-02  8112   0.615E-02 0.318E-04
CGA:   8    -0.230879556689E+03   -0.58536E-03   -0.58287E-03  8112   0.336E-02 0.717E-04
CGA:   9    -0.230879676954E+03   -0.12027E-03   -0.12071E-03  8112   0.281E-02 0.176E-04
CGA:  10    -0.230879807409E+03   -0.13045E-03   -0.13071E-03  8112   0.762E-03 0.176E-04
CGA:  11    -0.230879909823E+03   -0.10241E-03   -0.10190E-03  8112   0.500E-03 0.696E-05
CGA:  12    -0.230879953129E+03   -0.43306E-04   -0.43244E-04  8112   0.155E-03 0.270E-05
CGA:  13    -0.230879964056E+03   -0.10927E-04   -0.10919E-04  8112   0.356E-03 0.144E-05
CGA:  14    -0.230879980063E+03   -0.16007E-04   -0.16071E-04  8112   0.937E-04 0.317E-05
CGA:  15    -0.230879989347E+03   -0.92841E-05   -0.92640E-05  8112   0.443E-04 0.538E-06
   6 F= -.23087999E+03 E0= -.23086308E+03  d E =-.213491E-02  mag=     9.1054
       N       E                     dE             d eps       ncg     rms          ort
SDA:   1    -0.230698647201E+03    0.18133E+00    0.00000E+00  8112   0.177E+01 0.000E+00
CGA:   2    -0.230734079166E+03   -0.35432E-01   -0.35697E-01  8112   0.551E+00-0.122E-01
CGA:   3    -0.230810838705E+03   -0.76760E-01   -0.77088E-01  8112   0.564E+00-0.457E-02
CGA:   4    -0.230844348295E+03   -0.33510E-01   -0.33532E-01  8112   0.239E+00 0.682E-03
CGA:   5    -0.230855334312E+03   -0.10986E-01   -0.11021E-01  8112   0.317E+00-0.668E-04
CGA:   6    -0.230872439907E+03   -0.17106E-01   -0.17127E-01  8112   0.595E-01 0.354E-03
CGA:   7    -0.230876462283E+03   -0.40224E-02   -0.40226E-02  8112   0.426E-01-0.151E-03
CGA:   8    -0.230878436626E+03   -0.19743E-02   -0.19781E-02  8112   0.363E-01 0.286E-04
CGA:   9    -0.230879619276E+03   -0.11827E-02   -0.11896E-02  8112   0.777E-02-0.748E-04
CGA:  10    -0.230880378913E+03   -0.75964E-03   -0.75969E-03  8112   0.572E-02 0.304E-06
CGA:  11    -0.230880633721E+03   -0.25481E-03   -0.25503E-03  8112   0.601E-02 0.450E-05
CGA:  12    -0.230880892307E+03   -0.25859E-03   -0.25882E-03  8112   0.147E-02 0.334E-05
CGA:  13    -0.230881015617E+03   -0.12331E-03   -0.12323E-03  8112   0.120E-02 0.442E-05
CGA:  14    -0.230881071314E+03   -0.55697E-04   -0.55737E-04  8112   0.146E-02 0.152E-05
CGA:  15    -0.230881148953E+03   -0.77639E-04   -0.77707E-04  8112   0.373E-03 0.523E-05
CGA:  16    -0.230881174981E+03   -0.26028E-04   -0.26020E-04  8112   0.334E-03 0.124E-05
CGA:  17    -0.230881191989E+03   -0.17009E-04   -0.17036E-04  8112   0.403E-03 0.164E-05
CGA:  18    -0.230881211135E+03   -0.19146E-04   -0.19180E-04  8112   0.140E-03 0.186E-05
CGA:  19    -0.230881223703E+03   -0.12567E-04   -0.12505E-04  8112   0.108E-03 0.222E-05
CGA:  20    -0.230881227561E+03   -0.38583E-05   -0.38708E-05  8112   0.888E-04 0.272E-06
   7 F= -.23088123E+03 E0= -.23086431E+03  d E =-.123821E-02  mag=     9.1126
       N       E                     dE             d eps       ncg     rms          ort
SDA:   1    -0.230879481001E+03    0.17427E-02    0.00000E+00  8112   0.837E-01 0.000E+00
CGA:   2    -0.230880981568E+03   -0.15006E-02   -0.15165E-02  8112   0.869E-02-0.716E-03
CGA:   3    -0.230881217912E+03   -0.23634E-03   -0.23719E-03  8112   0.195E-03-0.194E-04
CGA:   4    -0.230881230820E+03   -0.12908E-04   -0.12916E-04  8112   0.102E-03-0.937E-06
CGA:   5    -0.230881236474E+03   -0.56538E-05   -0.56466E-05  8112   0.103E-03-0.196E-05
CGA:   6    -0.230881239609E+03   -0.31350E-05   -0.30932E-05  8112   0.339E-04-0.149E-05
   8 F= -.23088124E+03 E0= -.23086433E+03  d E =-.125026E-02  mag=     9.1122
       N       E                     dE             d eps       ncg     rms          ort
SDA:   1    -0.230848699181E+03    0.32537E-01    0.00000E+00  8112   0.215E+00 0.000E+00
CGA:   2    -0.230854684954E+03   -0.59858E-02   -0.59255E-02  8112   0.137E+00 0.119E-02
CGA:   3    -0.230864650784E+03   -0.99658E-02   -0.99875E-02  8112   0.128E+00-0.108E-02
CGA:   4    -0.230875276048E+03   -0.10625E-01   -0.10612E-01  8112   0.360E-01 0.371E-03
CGA:   5    -0.230879218678E+03   -0.39426E-02   -0.39479E-02  8112   0.187E-01-0.974E-04
CGA:   6    -0.230880616797E+03   -0.13981E-02   -0.13973E-02  8112   0.916E-02 0.526E-04
CGA:   7    -0.230881220729E+03   -0.60393E-03   -0.60392E-03  8112   0.332E-02 0.135E-04
CGA:   8    -0.230881390401E+03   -0.16967E-03   -0.16975E-03  8112   0.447E-02 0.452E-05
CGA:   9    -0.230881561666E+03   -0.17127E-03   -0.17160E-03  8112   0.734E-03 0.627E-05
CGA:  10    -0.230881650735E+03   -0.89069E-04   -0.89058E-04  8112   0.491E-03 0.263E-06
CGA:  11    -0.230881688094E+03   -0.37359E-04   -0.37341E-04  8112   0.399E-03 0.146E-05
CGA:  12    -0.230881700131E+03   -0.12037E-04   -0.12045E-04  8112   0.219E-03 0.105E-06
CGA:  13    -0.230881714240E+03   -0.14109E-04   -0.14107E-04  8112   0.116E-03 0.137E-05
CGA:  14    -0.230881724403E+03   -0.10163E-04   -0.10135E-04  8112   0.664E-04 0.124E-05
CGA:  15    -0.230881729042E+03   -0.46395E-05   -0.46361E-05  8112   0.624E-04 0.786E-06
   9 F= -.23088173E+03 E0= -.23086485E+03  d E =-.489433E-03  mag=     9.1093
