       N       E                     dE             d eps       ncg     rms          rms(c)
DAV:   1     0.712764578351E+04    0.71276E+04   -0.28812E+05 39912   0.157E+03
DAV:   2     0.495243469345E+03   -0.66324E+04   -0.61680E+04 39120   0.476E+02
DAV:   3    -0.371888422298E+03   -0.86713E+03   -0.85152E+03 40976   0.185E+02
DAV:   4    -0.415809516174E+03   -0.43921E+02   -0.43369E+02 49256   0.363E+01
DAV:   5    -0.418310153882E+03   -0.25006E+01   -0.24823E+01 64096   0.663E+00    0.592E+01
DAV:   6    -0.366471244068E+03    0.51839E+02   -0.23938E+02 43296   0.330E+01    0.425E+01
DAV:   7    -0.371606235429E+03   -0.51350E+01   -0.23823E+01 41784   0.124E+01    0.313E+01
DAV:   8    -0.373182196487E+03   -0.15760E+01   -0.23818E+00 47032   0.360E+00    0.184E+01
DAV:   9    -0.376757891285E+03   -0.35757E+01   -0.24441E+00 41320   0.361E+00    0.447E+00
DAV:  10    -0.378181626099E+03   -0.14237E+01   -0.60364E-01 43176   0.140E+00    0.303E+00
DAV:  11    -0.379741507431E+03   -0.15599E+01   -0.59261E-01 43688   0.107E+00    0.229E+00
DAV:  12    -0.381863856198E+03   -0.21223E+01   -0.18135E+00 41336   0.168E+00    0.122E+00
DAV:  13    -0.382347359289E+03   -0.48350E+00   -0.47056E-01 42536   0.968E-01    0.553E-01
DAV:  14    -0.382379754473E+03   -0.32395E-01   -0.34556E-02 41448   0.367E-01    0.300E-01
DAV:  15    -0.382379318105E+03    0.43637E-03   -0.62589E-03 41952   0.185E-01    0.178E-01
DAV:  16    -0.382378661183E+03    0.65692E-03   -0.24614E-03 40864   0.121E-01    0.788E-02
DAV:  17    -0.382378553612E+03    0.10757E-03   -0.44495E-04 42904   0.485E-02    0.403E-02
DAV:  18    -0.382378528755E+03    0.24857E-04   -0.22722E-04 39904   0.324E-02    0.222E-02
DAV:  19    -0.382378508901E+03    0.19854E-04   -0.38271E-05 35720   0.178E-02    0.133E-02
DAV:  20    -0.382378505825E+03    0.30764E-05   -0.18883E-05 32560   0.128E-02
   1 F= -.38237851E+03 E0= -.38237851E+03  d E =-.382379E+03  mag=    60.0001
       N       E                     dE             d eps       ncg     rms          rms(c)
DAV:   1    -0.382430755350E+03   -0.52246E-01   -0.64478E-02 42136   0.412E-01    0.569E-02
DAV:   2    -0.382430946968E+03   -0.19162E-03   -0.21559E-03 41440   0.709E-02    0.362E-02
DAV:   3    -0.382430943497E+03    0.34716E-05   -0.59204E-05 40136   0.125E-02    0.229E-02
DAV:   4    -0.382430937791E+03    0.57053E-05   -0.84810E-06 27536   0.738E-03
   2 F= -.38243094E+03 E0= -.38243094E+03  d E =-.524320E-01  mag=    60.0001
       N       E                     dE             d eps       ncg     rms          rms(c)
DAV:   1    -0.383688157151E+03   -0.12572E+01   -0.14505E+02 41336   0.196E+01    0.269E+00
DAV:   2    -0.384289487390E+03   -0.60133E+00   -0.63966E+00 40984   0.355E+00    0.178E+00
DAV:   3    -0.384278470449E+03    0.11017E-01   -0.15662E-01 51584   0.637E-01    0.110E+00
DAV:   4    -0.384265450723E+03    0.13020E-01   -0.27313E-02 49800   0.358E-01    0.637E-01
DAV:   5    -0.384261320857E+03    0.41299E-02   -0.92299E-03 52280   0.320E-01    0.160E-01
DAV:   6    -0.384261404514E+03   -0.83657E-04   -0.70129E-03 45120   0.183E-01    0.101E-01
DAV:   7    -0.384261368049E+03    0.36465E-04   -0.61114E-04 46136   0.579E-02    0.563E-02
DAV:   8    -0.384261319656E+03    0.48394E-04   -0.10787E-04 46992   0.333E-02    0.381E-02
DAV:   9    -0.384261270692E+03    0.48963E-04   -0.45943E-05 41160   0.563E-02    0.158E-02
DAV:  10    -0.384261256591E+03    0.14101E-04   -0.56594E-05 41664   0.350E-02    0.119E-02
DAV:  11    -0.384261258221E+03   -0.16296E-05   -0.56286E-05 39480   0.164E-02
   3 F= -.38426126E+03 E0= -.38426126E+03  d E =-.183032E+01  mag=    60.0000
       N       E                     dE             d eps       ncg     rms          rms(c)
DAV:   1    -0.382699379049E+03    0.15619E+01   -0.43168E+02 41776   0.435E+01    0.696E+00
DAV:   2    -0.385851508188E+03   -0.31521E+01   -0.31529E+01 41352   0.804E+00    0.443E+00
DAV:   3    -0.385812866715E+03    0.38641E-01   -0.72614E-01 49864   0.154E+00    0.217E+00
DAV:   4    -0.385784206574E+03    0.28660E-01   -0.14407E-01 47008   0.643E-01    0.141E+00
DAV:   5    -0.385766965213E+03    0.17241E-01   -0.22835E-02 52200   0.426E-01    0.580E-01
DAV:   6    -0.385764491001E+03    0.24742E-02   -0.13435E-02 46480   0.273E-01    0.191E-01
DAV:   7    -0.385764744362E+03   -0.25336E-03   -0.35622E-03 48792   0.994E-02    0.105E-01
DAV:   8    -0.385764717464E+03    0.26899E-04   -0.43125E-04 48560   0.382E-02    0.609E-02
DAV:   9    -0.385764700136E+03    0.17328E-04   -0.84822E-05 43352   0.314E-02    0.253E-02
DAV:  10    -0.385764699117E+03    0.10186E-05   -0.37183E-05 40144   0.212E-02
   4 F= -.38576470E+03 E0= -.38576470E+03  d E =-.150344E+01  mag=    60.0000
       N       E                     dE             d eps       ncg     rms          rms(c)
DAV:   1    -0.383787515564E+03    0.19772E+01   -0.20831E+02 42888   0.448E+01    0.796E+00
DAV:   2    -0.386172738246E+03   -0.23852E+01   -0.21790E+01 40200   0.793E+00    0.514E+00
DAV:   3    -0.386256204205E+03   -0.83466E-01   -0.68521E-01 51272   0.153E+00    0.162E+00
DAV:   4    -0.386251819902E+03    0.43843E-02   -0.57086E-02 50536   0.430E-01    0.110E+00
DAV:   5    -0.386245965817E+03    0.58541E-02   -0.54471E-03 50720   0.276E-01    0.574E-01
DAV:   6    -0.386244380674E+03    0.15851E-02   -0.63549E-03 49216   0.268E-01    0.117E-01
DAV:   7    -0.386244641279E+03   -0.26061E-03   -0.29032E-03 43464   0.109E-01    0.869E-02
DAV:   8    -0.386244639489E+03    0.17905E-05   -0.19512E-04 52288   0.266E-02    0.529E-02
DAV:   9    -0.386244630046E+03    0.94430E-05   -0.33174E-05 40416   0.245E-02
   5 F= -.38624463E+03 E0= -.38624463E+03  d E =-.479931E+00  mag=    60.0000
       N       E                     dE             d eps       ncg     rms          rms(c)
DAV:   1    -0.383685001787E+03    0.25596E+01   -0.23885E+02 42952   0.497E+01    0.872E+00
DAV:   2    -0.386443075558E+03   -0.27581E+01   -0.25425E+01 39368   0.904E+00    0.570E+00
DAV:   3    -0.386538134007E+03   -0.95058E-01   -0.71333E-01 49552   0.157E+00    0.179E+00
DAV:   4    -0.386534000485E+03    0.41335E-02   -0.53176E-02 50672   0.430E-01    0.122E+00
DAV:   5    -0.386528160986E+03    0.58395E-02   -0.54368E-03 50712   0.267E-01    0.665E-01
DAV:   6    -0.386526261434E+03    0.18996E-02   -0.61627E-03 47744   0.284E-01    0.127E-01
DAV:   7    -0.386526545024E+03   -0.28359E-03   -0.30172E-03 43344   0.113E-01    0.802E-02
DAV:   8    -0.386526543973E+03    0.10509E-05   -0.16958E-04 51888   0.303E-02    0.503E-02
DAV:   9    -0.386526541539E+03    0.24339E-05   -0.30055E-05 40048   0.184E-02
   6 F= -.38652654E+03 E0= -.38652654E+03  d E =-.281911E+00  mag=    60.0000
       N       E                     dE             d eps       ncg     rms          rms(c)
DAV:   1    -0.384168346396E+03    0.23582E+01   -0.47196E+02 42216   0.570E+01    0.701E+00
DAV:   2    -0.386772637415E+03   -0.26043E+01   -0.25849E+01 41656   0.103E+01    0.395E+00
DAV:   3    -0.386772132196E+03    0.50522E-03   -0.54078E-01 46048   0.168E+00    0.198E+00
DAV:   4    -0.386752129240E+03    0.20003E-01   -0.85985E-02 48936   0.609E-01    0.134E+00
DAV:   5    -0.386733266471E+03    0.18863E-01   -0.14865E-02 48808   0.482E-01    0.623E-01
DAV:   6    -0.386729674144E+03    0.35923E-02   -0.17840E-02 46392   0.362E-01    0.190E-01
DAV:   7    -0.386729998062E+03   -0.32392E-03   -0.48757E-03 45784   0.140E-01    0.117E-01
DAV:   8    -0.386729963730E+03    0.34332E-04   -0.39783E-04 50960   0.399E-02    0.741E-02
DAV:   9    -0.386729914549E+03    0.49181E-04   -0.80269E-05 46656   0.437E-02    0.322E-02
DAV:  10    -0.386729906887E+03    0.76622E-05   -0.59293E-05 45224   0.314E-02
   7 F= -.38672991E+03 E0= -.38672991E+03  d E =-.203365E+00  mag=    60.0000
       N       E                     dE             d eps       ncg     rms          rms(c)
DAV:   1    -0.386106270378E+03    0.62364E+00   -0.10155E+02 41848   0.275E+01    0.404E+00
DAV:   2    -0.386829663137E+03   -0.72339E+00   -0.67758E+00 41376   0.487E+00    0.228E+00
DAV:   3    -0.386850093927E+03   -0.20431E-01   -0.21439E-01 54528   0.823E-01    0.966E-01
DAV:   4    -0.386846690234E+03    0.34037E-02   -0.15679E-02 49360   0.242E-01    0.671E-01
DAV:   5    -0.386842737886E+03    0.39523E-02   -0.36213E-03 49792   0.251E-01    0.277E-01
DAV:   6    -0.386842420142E+03    0.31774E-03   -0.39231E-03 48360   0.161E-01    0.765E-02
DAV:   7    -0.386842499952E+03   -0.79811E-04   -0.96891E-04 44784   0.635E-02    0.557E-02
DAV:   8    -0.386842492867E+03    0.70857E-05   -0.63182E-05 46472   0.183E-02
   8 F= -.38684249E+03 E0= -.38684249E+03  d E =-.112586E+00  mag=    60.0000
       N       E                     dE             d eps       ncg     rms          rms(c)
DAV:   1    -0.386740833720E+03    0.10167E+00   -0.18139E+01 41496   0.123E+01    0.173E+00
DAV:   2    -0.386875730514E+03   -0.13490E+00   -0.12764E+00 39576   0.217E+00    0.777E-01
DAV:   3    -0.386879293695E+03   -0.35632E-02   -0.30464E-02 51464   0.329E-01    0.346E-01
DAV:   4    -0.386878873340E+03    0.42036E-03   -0.19909E-03 50720   0.859E-02    0.267E-01
DAV:   5    -0.386878247427E+03    0.62591E-03   -0.49045E-04 47168   0.110E-01    0.126E-01
DAV:   6    -0.386878192201E+03    0.55226E-04   -0.59912E-04 48648   0.746E-02    0.258E-02
DAV:   7    -0.386878205857E+03   -0.13656E-04   -0.20580E-04 45112   0.336E-02    0.194E-02
DAV:   8    -0.386878203934E+03    0.19229E-05   -0.10318E-05 25024   0.983E-03
   9 F= -.38687820E+03 E0= -.38687820E+03  d E =-.357111E-01  mag=    60.0000
       N       E                     dE             d eps       ncg     rms          rms(c)
DAV:   1    -0.384232423377E+03    0.26458E+01   -0.34502E+02 41728   0.550E+01    0.785E+00
DAV:   2    -0.386858915415E+03   -0.26265E+01   -0.25395E+01 40152   0.102E+01    0.444E+00
DAV:   3    -0.386909008616E+03   -0.50093E-01   -0.63575E-01 46528   0.166E+00    0.192E+00
DAV:   4    -0.386895554040E+03    0.13455E-01   -0.58689E-02 51544   0.515E-01    0.133E+00
DAV:   5    -0.386881813962E+03    0.13740E-01   -0.95799E-03 48464   0.479E-01    0.672E-01
DAV:   6    -0.386878038669E+03    0.37753E-02   -0.13436E-02 46832   0.466E-01    0.144E-01
DAV:   7    -0.386878561369E+03   -0.52270E-03   -0.76344E-03 44456   0.195E-01    0.150E-01
DAV:   8    -0.386878510417E+03    0.50952E-04   -0.50253E-04 52320   0.437E-02    0.986E-02
DAV:   9    -0.386878402165E+03    0.10825E-03   -0.10862E-04 49096   0.560E-02    0.606E-02
DAV:  10    -0.386878325618E+03    0.76547E-04   -0.91601E-05 47472   0.857E-02    0.242E-02
DAV:  11    -0.386878312623E+03    0.12995E-04   -0.11725E-04 44760   0.443E-02    0.227E-02
DAV:  12    -0.386878315406E+03   -0.27836E-05   -0.85978E-05 41400   0.213E-02
  10 F= -.38687832E+03 E0= -.38687832E+03  d E =-.111473E-03  mag=    60.0000
       N       E                     dE             d eps       ncg     rms          rms(c)
DAV:   1    -0.386282956296E+03    0.59536E+00   -0.76465E+01 42128   0.272E+01    0.428E+00
DAV:   2    -0.387002736011E+03   -0.71978E+00   -0.69017E+00 40336   0.503E+00    0.230E+00
DAV:   3    -0.387024724400E+03   -0.21988E-01   -0.23074E-01 52056   0.915E-01    0.101E+00
DAV:   4    -0.387020909010E+03    0.38154E-02   -0.16964E-02 51968   0.290E-01    0.668E-01
DAV:   5    -0.387016286617E+03    0.46224E-02   -0.42560E-03 49920   0.356E-01    0.245E-01
DAV:   6    -0.387015874674E+03    0.41194E-03   -0.44668E-03 47160   0.229E-01    0.768E-02
DAV:   7    -0.387015965308E+03   -0.90635E-04   -0.18224E-03 44736   0.951E-02    0.756E-02
DAV:   8    -0.387015927009E+03    0.38299E-04   -0.11648E-04 50144   0.266E-02    0.433E-02
DAV:   9    -0.387015863848E+03    0.63161E-04   -0.29341E-05 38528   0.492E-02    0.240E-02
DAV:  10    -0.387015824112E+03    0.39736E-04   -0.37662E-05 42088   0.591E-02    0.103E-02
DAV:  11    -0.387015818157E+03    0.59544E-05   -0.65335E-05 42192   0.330E-02
  11 F= -.38701582E+03 E0= -.38701582E+03  d E =-.137503E+00  mag=    60.0000
       N       E                     dE             d eps       ncg     rms          rms(c)
DAV:   1    -0.387017322022E+03   -0.14979E-02   -0.15079E+00 41520   0.354E+00    0.480E-01
DAV:   2    -0.387026814002E+03   -0.94920E-02   -0.99908E-02 39640   0.643E-01    0.231E-01
DAV:   3    -0.387026969145E+03   -0.15514E-03   -0.33133E-03 51232   0.122E-01    0.122E-01
DAV:   4    -0.387026845639E+03    0.12351E-03   -0.29186E-04 50880   0.528E-02    0.745E-02
DAV:   5    -0.387026750462E+03    0.95178E-04   -0.76151E-05 44192   0.650E-02    0.213E-02
DAV:   6    -0.387026744781E+03    0.56807E-05   -0.12129E-04 44256   0.364E-02    0.110E-02
DAV:   7    -0.387026745080E+03   -0.29894E-06   -0.42439E-05 39568   0.152E-02
  12 F= -.38702675E+03 E0= -.38702675E+03  d E =-.109269E-01  mag=    60.0000
       N       E                     dE             d eps       ncg     rms          rms(c)
DAV:   1    -0.386997530846E+03    0.29214E-01   -0.59313E+00 41192   0.708E+00    0.103E+00
DAV:   2    -0.387043948518E+03   -0.46418E-01   -0.44140E-01 39512   0.127E+00    0.459E-01
DAV:   3    -0.387045332628E+03   -0.13841E-02   -0.12426E-02 49608   0.209E-01    0.213E-01
DAV:   4    -0.387045142164E+03    0.19046E-03   -0.83779E-04 52608   0.633E-02    0.157E-01
DAV:   5    -0.387044865247E+03    0.27692E-03   -0.17421E-04 45968   0.878E-02    0.702E-02
DAV:   6    -0.387044821813E+03    0.43434E-04   -0.25181E-04 48352   0.681E-02    0.179E-02
DAV:   7    -0.387044830104E+03   -0.82908E-05   -0.17437E-04 43344   0.317E-02    0.189E-02
DAV:   8    -0.387044827336E+03    0.27679E-05   -0.90332E-06 23272   0.862E-03
  13 F= -.38704483E+03 E0= -.38704483E+03  d E =-.180823E-01  mag=    60.0000
       N       E                     dE             d eps       ncg     rms          rms(c)
DAV:   1    -0.386973186722E+03    0.71643E-01   -0.13711E+01 41208   0.106E+01    0.143E+00
DAV:   2    -0.387068010851E+03   -0.94824E-01   -0.89944E-01 39104   0.186E+00    0.637E-01
DAV:   3    -0.387070623671E+03   -0.26128E-02   -0.22589E-02 48232   0.280E-01    0.291E-01
DAV:   4    -0.387070320613E+03    0.30306E-03   -0.15270E-03 53432   0.730E-02    0.220E-01
DAV:   5    -0.387069896026E+03    0.42459E-03   -0.37749E-04 46616   0.870E-02    0.985E-02
DAV:   6    -0.387069875420E+03    0.20606E-04   -0.39770E-04 48040   0.538E-02    0.220E-02
DAV:   7    -0.387069881414E+03   -0.59940E-05   -0.10466E-04 42912   0.247E-02    0.156E-02
DAV:   8    -0.387069880594E+03    0.82007E-06   -0.51569E-06 21552   0.730E-03
  14 F= -.38706988E+03 E0= -.38706988E+03  d E =-.250533E-01  mag=    60.0000
       N       E                     dE             d eps       ncg     rms          rms(c)
DAV:   1    -0.384990691081E+03    0.20792E+01   -0.27279E+02 41152   0.486E+01    0.665E+00
DAV:   2    -0.387073349430E+03   -0.20827E+01   -0.20501E+01 38664   0.905E+00    0.357E+00
DAV:   3    -0.387111130158E+03   -0.37781E-01   -0.45277E-01 46440   0.144E+00    0.157E+00
DAV:   4    -0.387100777024E+03    0.10353E-01   -0.44175E-02 50752   0.473E-01    0.105E+00
DAV:   5    -0.387091456929E+03    0.93201E-02   -0.65632E-03 48536   0.453E-01    0.478E-01
DAV:   6    -0.387089723986E+03    0.17329E-02   -0.86026E-03 49208   0.384E-01    0.107E-01
DAV:   7    -0.387089980832E+03   -0.25685E-03   -0.47900E-03 45120   0.163E-01    0.102E-01
DAV:   8    -0.387089911884E+03    0.68948E-04   -0.36855E-04 48280   0.395E-02    0.660E-02
DAV:   9    -0.387089773361E+03    0.13852E-03   -0.10842E-04 49472   0.764E-02    0.323E-02
DAV:  10    -0.387089709596E+03    0.63766E-04   -0.83531E-05 46840   0.723E-02    0.217E-02
DAV:  11    -0.387089700178E+03    0.94175E-05   -0.12561E-04 44256   0.384E-02    0.172E-02
DAV:  12    -0.387089701601E+03   -0.14230E-05   -0.57908E-05 39304   0.173E-02
  15 F= -.38708970E+03 E0= -.38708970E+03  d E =-.198210E-01  mag=    60.0000
       N       E                     dE             d eps       ncg     rms          rms(c)
DAV:   1    -0.386531915849E+03    0.55778E+00   -0.47857E+01 42312   0.246E+01    0.427E+00
DAV:   2    -0.387171679113E+03   -0.63976E+00   -0.59812E+00 39368   0.451E+00    0.247E+00
DAV:   3    -0.387196227100E+03   -0.24548E-01   -0.21919E-01 47880   0.957E-01    0.918E-01
DAV:   4    -0.387192535058E+03    0.36920E-02   -0.16477E-02 53008   0.357E-01    0.608E-01
DAV:   5    -0.387187179614E+03    0.53554E-02   -0.27359E-03 54392   0.480E-01    0.252E-01
DAV:   6    -0.387185342821E+03    0.18368E-02   -0.45015E-03 48640   0.432E-01    0.729E-02
DAV:   7    -0.387185537984E+03   -0.19516E-03   -0.56729E-03 44400   0.189E-01    0.898E-02
DAV:   8    -0.387185447894E+03    0.90090E-04   -0.52758E-04 50496   0.491E-02    0.667E-02
DAV:   9    -0.387185271386E+03    0.17651E-03   -0.55911E-05 46176   0.745E-02    0.411E-02
DAV:  10    -0.387185118274E+03    0.15311E-03   -0.14283E-04 49080   0.115E-01    0.218E-02
DAV:  11    -0.387185087481E+03    0.30793E-04   -0.14815E-04 45616   0.695E-02    0.257E-02
DAV:  12    -0.387185096788E+03   -0.93069E-05   -0.17892E-04 42696   0.295E-02    0.111E-02
DAV:  13    -0.387185095702E+03    0.10860E-05   -0.70355E-06 25432   0.135E-02
  16 F= -.38718510E+03 E0= -.38718510E+03  d E =-.953941E-01  mag=    60.0000
       N       E                     dE             d eps       ncg     rms          rms(c)
DAV:   1    -0.387182324660E+03    0.27721E-02   -0.96653E-01 41808   0.359E+00    0.534E-01
DAV:   2    -0.387193017600E+03   -0.10693E-01   -0.10386E-01 39224   0.668E-01    0.248E-01
DAV:   3    -0.387193353779E+03   -0.33618E-03   -0.35712E-03 46736   0.140E-01    0.120E-01
DAV:   4    -0.387193279382E+03    0.74397E-04   -0.30422E-04 53432   0.536E-02    0.783E-02
DAV:   5    -0.387193166875E+03    0.11251E-03   -0.39948E-05 44112   0.773E-02    0.293E-02
DAV:   6    -0.387193135145E+03    0.31730E-04   -0.91441E-05 46040   0.586E-02    0.116E-02
DAV:   7    -0.387193139091E+03   -0.39462E-05   -0.11743E-04 42720   0.264E-02    0.141E-02
DAV:   8    -0.387193136687E+03    0.24043E-05   -0.74743E-06 22488   0.817E-03
  17 F= -.38719314E+03 E0= -.38719314E+03  d E =-.804098E-02  mag=    60.0000
       N       E                     dE             d eps       ncg     rms          rms(c)
DAV:   1    -0.387183614921E+03    0.95242E-02   -0.37896E+00 41208   0.579E+00    0.704E-01
DAV:   2    -0.387207257765E+03   -0.23643E-01   -0.23407E-01 38784   0.102E+00    0.316E-01
DAV:   3    -0.387207736148E+03   -0.47838E-03   -0.55969E-03 47584   0.167E-01    0.162E-01
DAV:   4    -0.387207587777E+03    0.14837E-03   -0.43021E-04 54320   0.576E-02    0.109E-01
DAV:   5    -0.387207441388E+03    0.14639E-03   -0.10409E-04 46624   0.793E-02    0.357E-02
DAV:   6    -0.387207436860E+03    0.45287E-05   -0.15756E-04 46352   0.429E-02    0.133E-02
DAV:   7    -0.387207437786E+03   -0.92600E-06   -0.62702E-05 42088   0.200E-02
  18 F= -.38720744E+03 E0= -.38720744E+03  d E =-.143011E-01  mag=    60.0000
       N       E                     dE             d eps       ncg     rms          rms(c)
DAV:   1    -0.387128588682E+03    0.78848E-01   -0.21012E+01 41120   0.123E+01    0.145E+00
DAV:   2    -0.387239630170E+03   -0.11104E+00   -0.11054E+00 38520   0.215E+00    0.656E-01
DAV:   3    -0.387241256792E+03   -0.16266E-02   -0.22138E-02 48136   0.305E-01    0.337E-01
DAV:   4    -0.387240553673E+03    0.70312E-03   -0.19226E-03 52048   0.100E-01    0.221E-01
DAV:   5    -0.387240105742E+03    0.44793E-03   -0.67641E-04 48304   0.103E-01    0.683E-02
DAV:   6    -0.387240139250E+03   -0.33508E-04   -0.38953E-04 45568   0.404E-02    0.247E-02
DAV:   7    -0.387240137720E+03    0.15303E-05   -0.22116E-05 33856   0.129E-02
  19 F= -.38724014E+03 E0= -.38724014E+03  d E =-.326999E-01  mag=    60.0000
       N       E                     dE             d eps       ncg     rms          rms(c)
DAV:   1    -0.385710669106E+03    0.15295E+01   -0.27072E+02 41592   0.445E+01    0.538E+00
DAV:   2    -0.387351710584E+03   -0.16410E+01   -0.16406E+01 38760   0.808E+00    0.271E+00
DAV:   3    -0.387365740229E+03   -0.14030E-01   -0.29600E-01 47688   0.119E+00    0.131E+00
DAV:   4    -0.387356139573E+03    0.96007E-02   -0.38561E-02 48888   0.445E-01    0.852E-01
DAV:   5    -0.387350247419E+03    0.58922E-02   -0.68224E-03 48920   0.318E-01    0.321E-01
DAV:   6    -0.387350133195E+03    0.11422E-03   -0.52780E-03 46896   0.161E-01    0.949E-02
DAV:   7    -0.387350162211E+03   -0.29016E-04   -0.57770E-04 46824   0.593E-02    0.554E-02
DAV:   8    -0.387350156747E+03    0.54647E-05   -0.12488E-04 46376   0.314E-02    0.349E-02
DAV:   9    -0.387350152499E+03    0.42477E-05   -0.22761E-05 36168   0.204E-02
  20 F= -.38735015E+03 E0= -.38735015E+03  d E =-.110015E+00  mag=    60.0000
       N       E                     dE             d eps       ncg     rms          rms(c)
DAV:   1    -0.386343959821E+03    0.10062E+01   -0.10765E+02 42272   0.363E+01    0.486E+00
DAV:   2    -0.387319161273E+03   -0.97520E+00   -0.92459E+00 39864   0.652E+00    0.242E+00
DAV:   3    -0.387345155527E+03   -0.25994E-01   -0.26650E-01 46784   0.129E+00    0.101E+00
DAV:   4    -0.387339423958E+03    0.57316E-02   -0.22728E-02 52472   0.452E-01    0.694E-01
DAV:   5    -0.387330691826E+03    0.87321E-02   -0.32716E-03 52232   0.620E-01    0.328E-01
DAV:   6    -0.387326918600E+03    0.37732E-02   -0.68695E-03 49984   0.662E-01    0.104E-01
DAV:   7    -0.387327289831E+03   -0.37123E-03   -0.11090E-02 44688   0.278E-01    0.110E-01
DAV:   8    -0.387327210691E+03    0.79139E-04   -0.14429E-03 47560   0.789E-02    0.899E-02
DAV:   9    -0.387326971665E+03    0.23903E-03   -0.12029E-04 50968   0.810E-02    0.577E-02
DAV:  10    -0.387326670269E+03    0.30140E-03   -0.21526E-04 54128   0.189E-01    0.269E-02
DAV:  11    -0.387326638984E+03    0.31285E-04   -0.32896E-04 46272   0.928E-02    0.365E-02
DAV:  12    -0.387326661327E+03   -0.22343E-04   -0.30937E-04 43056   0.360E-02    0.145E-02
DAV:  13    -0.387326661181E+03    0.14549E-06   -0.91689E-06 27056   0.128E-02
  21 F= -.38732666E+03 E0= -.38732666E+03  d E =0.234913E-01  mag=    60.0000
       N       E                     dE             d eps       ncg     rms          rms(c)
DAV:   1    -0.387256103783E+03    0.70558E-01   -0.79661E+00 42784   0.119E+01    0.189E+00
DAV:   2    -0.387379175031E+03   -0.12307E+00   -0.11492E+00 39984   0.219E+00    0.871E-01
DAV:   3    -0.387383913932E+03   -0.47389E-02   -0.43305E-02 46264   0.525E-01    0.381E-01
DAV:   4    -0.387383089656E+03    0.82428E-03   -0.34783E-03 52368   0.189E-01    0.256E-01
DAV:   5    -0.387381583199E+03    0.15065E-02   -0.52027E-04 56448   0.271E-01    0.124E-01
DAV:   6    -0.387380781752E+03    0.80145E-03   -0.10818E-03 50856   0.308E-01    0.464E-02
DAV:   7    -0.387380830488E+03   -0.48736E-04   -0.21435E-03 45096   0.126E-01    0.445E-02
DAV:   8    -0.387380824769E+03    0.57183E-05   -0.34954E-04 43632   0.375E-02    0.419E-02
DAV:   9    -0.387380778031E+03    0.46739E-04   -0.18458E-05 33136   0.403E-02    0.273E-02
DAV:  10    -0.387380717919E+03    0.60111E-04   -0.46076E-05 42696   0.871E-02    0.109E-02
DAV:  11    -0.387380712667E+03    0.52525E-05   -0.76819E-05 44152   0.479E-02
  22 F= -.38738071E+03 E0= -.38738071E+03  d E =-.540515E-01  mag=    60.0000
       N       E                     dE             d eps       ncg     rms          rms(c)
DAV:   1    -0.387341618917E+03    0.39099E-01   -0.39180E+00 42368   0.817E+00    0.125E+00
DAV:   2    -0.387397655542E+03   -0.56037E-01   -0.52923E-01 39816   0.151E+00    0.564E-01
DAV:   3    -0.387399777461E+03   -0.21219E-02   -0.20590E-02 45928   0.353E-01    0.262E-01
DAV:   4    -0.387399441287E+03    0.33617E-03   -0.16080E-03 53120   0.123E-01    0.178E-01
DAV:   5    -0.387398803382E+03    0.63791E-03   -0.21312E-04 53880   0.172E-01    0.910E-02
DAV:   6    -0.387398430263E+03    0.37312E-03   -0.45064E-04 51128   0.209E-01    0.324E-02
DAV:   7    -0.387398452182E+03   -0.21920E-04   -0.94729E-04 45064   0.820E-02    0.298E-02
DAV:   8    -0.387398450252E+03    0.19309E-05   -0.15945E-04 42960   0.256E-02    0.271E-02
DAV:   9    -0.387398431538E+03    0.18714E-04   -0.95778E-06 28944   0.230E-02    0.176E-02
DAV:  10    -0.387398404152E+03    0.27386E-04   -0.12459E-05 31400   0.556E-02    0.746E-03
DAV:  11    -0.387398401024E+03    0.31285E-05   -0.40296E-05 41504   0.342E-02
  23 F= -.38739840E+03 E0= -.38739840E+03  d E =-.176884E-01  mag=    60.0000
       N       E                     dE             d eps       ncg     rms          rms(c)
DAV:   1    -0.387399020478E+03   -0.61633E-03   -0.89544E-01 41144   0.285E+00    0.345E-01
DAV:   2    -0.387404622415E+03   -0.56019E-02   -0.56661E-02 39352   0.510E-01    0.159E-01
DAV:   3    -0.387404713233E+03   -0.90819E-04   -0.13198E-03 48704   0.852E-02    0.842E-02
DAV:   4    -0.387404666836E+03    0.46397E-04   -0.10966E-04 48648   0.343E-02    0.546E-02
DAV:   5    -0.387404631246E+03    0.35590E-04   -0.24412E-05 36872   0.429E-02    0.162E-02
DAV:   6    -0.387404631586E+03   -0.34034E-06   -0.52527E-05 42712   0.221E-02
  24 F= -.38740463E+03 E0= -.38740463E+03  d E =-.623056E-02  mag=    60.0000
       N       E                     dE             d eps       ncg     rms          rms(c)
DAV:   1    -0.387351727861E+03    0.52903E-01   -0.13596E+01 41208   0.104E+01    0.120E+00
DAV:   2    -0.387426724506E+03   -0.74997E-01   -0.75272E-01 38744   0.183E+00    0.550E-01
DAV:   3    -0.387427722611E+03   -0.99810E-03   -0.14824E-02 49688   0.262E-01    0.286E-01
DAV:   4    -0.387427200687E+03    0.52192E-03   -0.13698E-03 50592   0.928E-02    0.183E-01
DAV:   5    -0.387426914999E+03    0.28569E-03   -0.46088E-04 48048   0.936E-02    0.529E-02
DAV:   6    -0.387426941572E+03   -0.26573E-04   -0.29783E-04 46552   0.371E-02    0.225E-02
DAV:   7    -0.387426939424E+03    0.21487E-05   -0.18810E-05 30096   0.125E-02
  25 F= -.38742694E+03 E0= -.38742694E+03  d E =-.223078E-01  mag=    60.0000
       N       E                     dE             d eps       ncg     rms          rms(c)
DAV:   1    -0.387368229172E+03    0.58712E-01   -0.17139E+01 41240   0.108E+01    0.119E+00
DAV:   2    -0.387448885182E+03   -0.80656E-01   -0.80374E-01 38536   0.189E+00    0.545E-01
DAV:   3    -0.387449835099E+03   -0.94992E-03   -0.15812E-02 49656   0.261E-01    0.278E-01
DAV:   4    -0.387449287056E+03    0.54804E-03   -0.14803E-03 50912   0.897E-02    0.185E-01
DAV:   5    -0.387448917239E+03    0.36982E-03   -0.51598E-04 48224   0.949E-02    0.590E-02
DAV:   6    -0.387448945130E+03   -0.27890E-04   -0.35614E-04 46800   0.378E-02    0.211E-02
DAV:   7    -0.387448943710E+03    0.14195E-05   -0.19381E-05 32296   0.120E-02
  26 F= -.38744894E+03 E0= -.38744894E+03  d E =-.220043E-01  mag=    60.0000
       N       E                     dE             d eps       ncg     rms          rms(c)
DAV:   1    -0.385445258868E+03    0.20037E+01   -0.26634E+02 41728   0.506E+01    0.658E+00
DAV:   2    -0.387414353805E+03   -0.19691E+01   -0.19019E+01 39536   0.923E+00    0.340E+00
DAV:   3    -0.387455044727E+03   -0.40691E-01   -0.49120E-01 47568   0.163E+00    0.145E+00
DAV:   4    -0.387444943232E+03    0.10101E-01   -0.49180E-02 50120   0.554E-01    0.102E+00
DAV:   5    -0.387433531789E+03    0.11411E-01   -0.45492E-03 50424   0.551E-01    0.561E-01
DAV:   6    -0.387427611438E+03    0.59204E-02   -0.90847E-03 49928   0.719E-01    0.137E-01
DAV:   7    -0.387427877003E+03   -0.26557E-03   -0.13437E-02 44936   0.343E-01    0.120E-01
DAV:   8    -0.387427920944E+03   -0.43941E-04   -0.27955E-03 46776   0.105E-01    0.110E-01
DAV:   9    -0.387427794327E+03    0.12662E-03   -0.23374E-04 49984   0.443E-02    0.762E-02
DAV:  10    -0.387427471208E+03    0.32312E-03   -0.19438E-04 54160   0.149E-01    0.354E-02
DAV:  11    -0.387427330866E+03    0.14034E-03   -0.21777E-04 49744   0.148E-01    0.464E-02
DAV:  12    -0.387427346145E+03   -0.15280E-04   -0.45018E-04 43736   0.512E-02    0.251E-02
DAV:  13    -0.387427351962E+03   -0.58167E-05   -0.77856E-05 41632   0.151E-02
  27 F= -.38742735E+03 E0= -.38742735E+03  d E =0.215917E-01  mag=    60.0000
       N       E                     dE             d eps       ncg     rms          rms(c)
DAV:   1    -0.386737464333E+03    0.68988E+00   -0.50217E+01 42248   0.298E+01    0.469E+00
DAV:   2    -0.387501917118E+03   -0.76445E+00   -0.72450E+00 39968   0.557E+00    0.235E+00
DAV:   3    -0.387527898723E+03   -0.25982E-01   -0.25720E-01 46768   0.130E+00    0.973E-01
DAV:   4    -0.387522004174E+03    0.58945E-02   -0.20854E-02 52888   0.498E-01    0.649E-01
DAV:   5    -0.387512389262E+03    0.96149E-02   -0.32391E-03 56664   0.720E-01    0.300E-01
DAV:   6    -0.387507640730E+03    0.47485E-02   -0.73301E-03 51136   0.750E-01    0.106E-01
DAV:   7    -0.387507965139E+03   -0.32441E-03   -0.13256E-02 45136   0.311E-01    0.114E-01
DAV:   8    -0.387507890505E+03    0.74633E-04   -0.19261E-03 47096   0.891E-02    0.102E-01
DAV:   9    -0.387507613258E+03    0.27725E-03   -0.14956E-04 51904   0.859E-02    0.672E-02
DAV:  10    -0.387507191191E+03    0.42207E-03   -0.27519E-04 56400   0.235E-01    0.312E-02
DAV:  11    -0.387507169283E+03    0.21908E-04   -0.47372E-04 45856   0.958E-02    0.393E-02
DAV:  12    -0.387507197027E+03   -0.27743E-04   -0.32350E-04 43680   0.355E-02    0.163E-02
DAV:  13    -0.387507197866E+03   -0.83941E-06   -0.10301E-05 28024   0.107E-02
  28 F= -.38750720E+03 E0= -.38750720E+03  d E =-.798459E-01  mag=    60.0000
       N       E                     dE             d eps       ncg     rms          rms(c)
DAV:   1    -0.387489572288E+03    0.17625E-01   -0.17512E+00 42584   0.561E+00    0.889E-01
DAV:   2    -0.387517611444E+03   -0.28039E-01   -0.25967E-01 39568   0.102E+00    0.395E-01
DAV:   3    -0.387518726858E+03   -0.11154E-02   -0.10116E-02 45848   0.243E-01    0.172E-01
DAV:   4    -0.387518572514E+03    0.15434E-03   -0.76365E-04 52032   0.823E-02    0.120E-01
DAV:   5    -0.387518273065E+03    0.29945E-03   -0.91754E-05 49776   0.113E-01    0.638E-02
DAV:   6    -0.387518078431E+03    0.19463E-03   -0.22074E-04 48136   0.152E-01    0.232E-02
DAV:   7    -0.387518091287E+03   -0.12857E-04   -0.47382E-04 45032   0.558E-02    0.206E-02
DAV:   8    -0.387518090373E+03    0.91468E-06   -0.75339E-05 41976   0.176E-02
  29 F= -.38751809E+03 E0= -.38751809E+03  d E =-.108925E-01  mag=    60.0000
       N       E                     dE             d eps       ncg     rms          rms(c)
DAV:   1    -0.387482855910E+03    0.35235E-01   -0.46023E+00 42616   0.763E+00    0.103E+00
DAV:   2    -0.387525558664E+03   -0.42703E-01   -0.40825E-01 39480   0.136E+00    0.471E-01
DAV:   3    -0.387526825398E+03   -0.12667E-02   -0.13297E-02 46480   0.279E-01    0.221E-01
DAV:   4    -0.387526551159E+03    0.27424E-03   -0.10400E-03 54704   0.100E-01    0.149E-01
DAV:   5    -0.387526097077E+03    0.45408E-03   -0.17083E-04 51656   0.156E-01    0.591E-02
DAV:   6    -0.387525957760E+03    0.13932E-03   -0.35494E-04 50880   0.128E-01    0.247E-02
DAV:   7    -0.387525976069E+03   -0.18308E-04   -0.50211E-04 44776   0.557E-02    0.271E-02
DAV:   8    -0.387525969208E+03    0.68605E-05   -0.45674E-05 39848   0.160E-02
  30 F= -.38752597E+03 E0= -.38752597E+03  d E =-.787884E-02  mag=    60.0000
       N       E                     dE             d eps       ncg     rms          rms(c)
DAV:   1    -0.387516811896E+03    0.91642E-02   -0.29006E+00 41288   0.478E+00    0.538E-01
DAV:   2    -0.387532305904E+03   -0.15494E-01   -0.15346E-01 39032   0.845E-01    0.243E-01
DAV:   3    -0.387532556384E+03   -0.25048E-03   -0.31387E-03 48024   0.119E-01    0.124E-01
DAV:   4    -0.387532476728E+03    0.79656E-04   -0.27329E-04 52376   0.371E-02    0.847E-02
DAV:   5    -0.387532414446E+03    0.62281E-04   -0.90356E-05 43696   0.434E-02    0.263E-02
DAV:   6    -0.387532420796E+03   -0.63494E-05   -0.65665E-05 43488   0.172E-02
  31 F= -.38753242E+03 E0= -.38753242E+03  d E =-.645159E-02  mag=    60.0000
       N       E                     dE             d eps       ncg     rms          rms(c)
DAV:   1    -0.387461817676E+03    0.70597E-01   -0.14807E+01 41536   0.111E+01    0.127E+00
DAV:   2    -0.387545787517E+03   -0.83970E-01   -0.81926E-01 38440   0.196E+00    0.572E-01
DAV:   3    -0.387547421934E+03   -0.16344E-02   -0.17594E-02 46376   0.285E-01    0.276E-01
DAV:   4    -0.387547081566E+03    0.34037E-03   -0.15886E-03 53224   0.861E-02    0.197E-01
DAV:   5    -0.387546727549E+03    0.35402E-03   -0.35990E-04 46264   0.958E-02    0.758E-02
DAV:   6    -0.387546736107E+03   -0.85576E-05   -0.35835E-04 47752   0.490E-02    0.199E-02
DAV:   7    -0.387546738980E+03   -0.28729E-05   -0.66828E-05 42704   0.214E-02
  32 F= -.38754674E+03 E0= -.38754674E+03  d E =-.143182E-01  mag=    60.0000
       N       E                     dE             d eps       ncg     rms          rms(c)
DAV:   1    -0.385060183297E+03    0.24866E+01   -0.43284E+02 41400   0.563E+01    0.650E+00
DAV:   2    -0.387625394318E+03   -0.25652E+01   -0.25738E+01 39248   0.106E+01    0.338E+00
DAV:   3    -0.387625326167E+03    0.68151E-04   -0.42959E-01 46104   0.157E+00    0.169E+00
DAV:   4    -0.387610366996E+03    0.14959E-01   -0.91698E-02 47800   0.635E-01    0.108E+00
DAV:   5    -0.387602022618E+03    0.83444E-02   -0.91396E-03 47416   0.362E-01    0.509E-01
DAV:   6    -0.387600716588E+03    0.13060E-02   -0.85017E-03 47976   0.253E-01    0.152E-01
DAV:   7    -0.387600819085E+03   -0.10250E-03   -0.18824E-03 44760   0.106E-01    0.785E-02
DAV:   8    -0.387600822005E+03   -0.29200E-05   -0.42638E-04 48184   0.447E-02    0.497E-02
DAV:   9    -0.387600815097E+03    0.69079E-05   -0.47260E-05 41752   0.295E-02
  33 F= -.38760082E+03 E0= -.38760082E+03  d E =-.540761E-01  mag=    60.0000
       N       E                     dE             d eps       ncg     rms          rms(c)
DAV:   1    -0.386797784561E+03    0.80304E+00   -0.73984E+01 42112   0.310E+01    0.431E+00
DAV:   2    -0.387564348844E+03   -0.76656E+00   -0.73266E+00 39272   0.566E+00    0.210E+00
DAV:   3    -0.387588606211E+03   -0.24257E-01   -0.20967E-01 48584   0.975E-01    0.931E-01
DAV:   4    -0.387585460491E+03    0.31457E-02   -0.13979E-02 53720   0.276E-01    0.644E-01
DAV:   5    -0.387581484304E+03    0.39762E-02   -0.32990E-03 50904   0.351E-01    0.250E-01
DAV:   6    -0.387581041451E+03    0.44285E-03   -0.34567E-03 48544   0.238E-01    0.720E-02
DAV:   7    -0.387581133791E+03   -0.92340E-04   -0.20437E-03 45728   0.110E-01    0.733E-02
DAV:   8    -0.387581100740E+03    0.33051E-04   -0.17102E-04 50144   0.275E-02    0.457E-02
DAV:   9    -0.387581047426E+03    0.53314E-04   -0.29924E-05 38040   0.406E-02    0.285E-02
DAV:  10    -0.387581005985E+03    0.41440E-04   -0.50057E-05 43648   0.668E-02    0.153E-02
DAV:  11    -0.387581002780E+03    0.32050E-05   -0.69650E-05 41936   0.315E-02
  34 F= -.38758100E+03 E0= -.38758100E+03  d E =0.198123E-01  mag=    60.0000
       N       E                     dE             d eps       ncg     rms          rms(c)
DAV:   1    -0.387361095885E+03    0.21991E+00   -0.15815E+01 42392   0.164E+01    0.260E+00
DAV:   2    -0.387607681922E+03   -0.24659E+00   -0.23032E+00 39656   0.300E+00    0.117E+00
DAV:   3    -0.387617492024E+03   -0.98101E-02   -0.76317E-02 46144   0.606E-01    0.507E-01
DAV:   4    -0.387616543916E+03    0.94811E-03   -0.51893E-03 52752   0.185E-01    0.361E-01
DAV:   5    -0.387614980292E+03    0.15636E-02   -0.87658E-04 52624   0.242E-01    0.160E-01
DAV:   6    -0.387614541523E+03    0.43877E-03   -0.12081E-03 49424   0.209E-01    0.477E-02
DAV:   7    -0.387614593347E+03   -0.51824E-04   -0.14497E-03 45272   0.951E-02    0.574E-02
DAV:   8    -0.387614580883E+03    0.12464E-04   -0.13894E-04 50480   0.251E-02    0.379E-02
DAV:   9    -0.387614550828E+03    0.30055E-04   -0.87707E-06 29168   0.265E-02    0.277E-02
DAV:  10    -0.387614516019E+03    0.34809E-04   -0.51202E-05 43344   0.624E-02    0.105E-02
DAV:  11    -0.387614514291E+03    0.17277E-05   -0.47054E-05 41760   0.290E-02
  35 F= -.38761451E+03 E0= -.38761451E+03  d E =-.335115E-01  mag=    60.0000
       N       E                     dE             d eps       ncg     rms          rms(c)
DAV:   1    -0.387600319919E+03    0.14196E-01   -0.29257E+00 41232   0.513E+00    0.646E-01
DAV:   2    -0.387619735234E+03   -0.19415E-01   -0.19800E-01 39768   0.945E-01    0.305E-01
DAV:   3    -0.387620049838E+03   -0.31460E-03   -0.49610E-03 52248   0.153E-01    0.168E-01
DAV:   4    -0.387619869748E+03    0.18009E-03   -0.38555E-04 51224   0.617E-02    0.107E-01
DAV:   5    -0.387619738748E+03    0.13100E-03   -0.12190E-04 47256   0.816E-02    0.282E-02
DAV:   6    -0.387619743313E+03   -0.45656E-05   -0.18194E-04 45856   0.389E-02    0.149E-02
DAV:   7    -0.387619742933E+03    0.38083E-06   -0.39514E-05 37816   0.145E-02
  36 F= -.38761974E+03 E0= -.38761974E+03  d E =-.522864E-02  mag=    60.0000
       N       E                     dE             d eps       ncg     rms          rms(c)
DAV:   1    -0.387604026698E+03    0.15717E-01   -0.41285E+00 43056   0.576E+00    0.605E-01
DAV:   2    -0.387624419178E+03   -0.20392E-01   -0.20234E-01 39752   0.998E-01    0.288E-01
DAV:   3    -0.387624667004E+03   -0.24783E-03   -0.45508E-03 52312   0.146E-01    0.150E-01
DAV:   4    -0.387624519701E+03    0.14730E-03   -0.38670E-04 51832   0.475E-02    0.986E-02
DAV:   5    -0.387624398221E+03    0.12148E-03   -0.15487E-04 46280   0.641E-02    0.252E-02
DAV:   6    -0.387624406520E+03   -0.82992E-05   -0.13557E-04 45424   0.294E-02    0.138E-02
DAV:   7    -0.387624406365E+03    0.15429E-06   -0.18603E-05 26640   0.105E-02
  37 F= -.38762441E+03 E0= -.38762441E+03  d E =-.466343E-02  mag=    60.0000
       N       E                     dE             d eps       ncg     rms          rms(c)
DAV:   1    -0.387614634957E+03    0.97716E-02   -0.17146E+00 42368   0.432E+00    0.527E-01
DAV:   2    -0.387627409494E+03   -0.12775E-01   -0.12217E-01 38968   0.768E-01    0.234E-01
DAV:   3    -0.387627769496E+03   -0.36000E-03   -0.31666E-03 47008   0.122E-01    0.106E-01
DAV:   4    -0.387627727701E+03    0.41795E-04   -0.23001E-04 55200   0.330E-02    0.769E-02
DAV:   5    -0.387627668697E+03    0.59004E-04   -0.48194E-05 38624   0.428E-02    0.316E-02
DAV:   6    -0.387627664515E+03    0.41818E-05   -0.57552E-05 45416   0.282E-02
  38 F= -.38762766E+03 E0= -.38762766E+03  d E =-.325815E-02  mag=    60.0000
       N       E                     dE             d eps       ncg     rms          rms(c)
DAV:   1    -0.387552398147E+03    0.75271E-01   -0.11226E+01 41992   0.108E+01    0.131E+00
DAV:   2    -0.387633022810E+03   -0.80625E-01   -0.77761E-01 38272   0.194E+00    0.585E-01
DAV:   3    -0.387635195775E+03   -0.21730E-02   -0.19087E-02 46720   0.293E-01    0.269E-01
DAV:   4    -0.387634924769E+03    0.27101E-03   -0.14486E-03 55848   0.802E-02    0.191E-01
DAV:   5    -0.387634620252E+03    0.30452E-03   -0.33127E-04 45792   0.954E-02    0.700E-02
DAV:   6    -0.387634631559E+03   -0.11307E-04   -0.29774E-04 47448   0.468E-02    0.203E-02
DAV:   7    -0.387634631950E+03   -0.39155E-06   -0.61442E-05 41912   0.216E-02
  39 F= -.38763463E+03 E0= -.38763463E+03  d E =-.696744E-02  mag=    60.0000
       N       E                     dE             d eps       ncg     rms          rms(c)
DAV:   1    -0.386577886446E+03    0.10567E+01   -0.18044E+02 41888   0.386E+01    0.448E+00
DAV:   2    -0.387648660644E+03   -0.10708E+01   -0.10561E+01 38352   0.698E+00    0.217E+00
DAV:   3    -0.387664454130E+03   -0.15793E-01   -0.21506E-01 46200   0.103E+00    0.103E+00
DAV:   4    -0.387659377535E+03    0.50766E-02   -0.23099E-02 49376   0.326E-01    0.696E-01
DAV:   5    -0.387655502226E+03    0.38753E-02   -0.41261E-03 47760   0.278E-01    0.276E-01
DAV:   6    -0.387655443402E+03    0.58823E-04   -0.37695E-03 47288   0.150E-01    0.796E-02
DAV:   7    -0.387655467597E+03   -0.24194E-04   -0.54940E-04 45928   0.566E-02    0.482E-02
DAV:   8    -0.387655459188E+03    0.84086E-05   -0.85338E-05 43432   0.253E-02
  40 F= -.38765546E+03 E0= -.38765546E+03  d E =-.208272E-01  mag=    60.0000
       N       E                     dE             d eps       ncg     rms          rms(c)
DAV:   1    -0.386262935230E+03    0.13925E+01   -0.91214E+01 42016   0.384E+01    0.598E+00
DAV:   2    -0.387565658431E+03   -0.13027E+01   -0.12166E+01 39768   0.703E+00    0.295E+00
DAV:   3    -0.387609944970E+03   -0.44287E-01   -0.33761E-01 45216   0.135E+00    0.119E+00
DAV:   4    -0.387605202923E+03    0.47420E-02   -0.24698E-02 51184   0.409E-01    0.870E-01
DAV:   5    -0.387598132975E+03    0.70699E-02   -0.35984E-03 52584   0.438E-01    0.460E-01
DAV:   6    -0.387594938169E+03    0.31948E-02   -0.58095E-03 50352   0.520E-01    0.110E-01
DAV:   7    -0.387595184777E+03   -0.24661E-03   -0.77339E-03 44720   0.222E-01    0.117E-01
DAV:   8    -0.387595153071E+03    0.31705E-04   -0.85687E-04 49872   0.611E-02    0.772E-02
DAV:   9    -0.387595037676E+03    0.11540E-03   -0.88098E-05 47616   0.454E-02    0.548E-02
DAV:  10    -0.387594898174E+03    0.13950E-03   -0.14065E-04 49488   0.114E-01    0.237E-02
DAV:  11    -0.387594887633E+03    0.10541E-04   -0.18062E-04 45216   0.569E-02    0.254E-02
DAV:  12    -0.387594899434E+03   -0.11801E-04   -0.15195E-04 42440   0.250E-02    0.152E-02
DAV:  13    -0.387594898178E+03    0.12561E-05   -0.63200E-06 24128   0.105E-02
  41 F= -.38759490E+03 E0= -.38759490E+03  d E =0.605610E-01  mag=    60.0000
       N       E                     dE             d eps       ncg     rms          rms(c)
DAV:   1    -0.387431923383E+03    0.16298E+00   -0.11566E+01 43808   0.157E+01    0.252E+00
DAV:   2    -0.387650226465E+03   -0.21830E+00   -0.19870E+00 39272   0.279E+00    0.116E+00
DAV:   3    -0.387659913582E+03   -0.96871E-02   -0.73962E-02 44800   0.628E-01    0.464E-01
DAV:   4    -0.387659165876E+03    0.74771E-03   -0.53817E-03 55008   0.190E-01    0.324E-01
DAV:   5    -0.387657660139E+03    0.15057E-02   -0.60032E-04 54320   0.218E-01    0.171E-01
DAV:   6    -0.387656744532E+03    0.91561E-03   -0.12020E-03 50632   0.294E-01    0.494E-02
DAV:   7    -0.387656797110E+03   -0.52578E-04   -0.20902E-03 44888   0.119E-01    0.543E-02
DAV:   8    -0.387656792297E+03    0.48125E-05   -0.29749E-04 46464   0.366E-02    0.412E-02
DAV:   9    -0.387656760744E+03    0.31554E-04   -0.26059E-05 36744   0.250E-02    0.284E-02
DAV:  10    -0.387656717816E+03    0.42928E-04   -0.43191E-05 43392   0.671E-02    0.121E-02
DAV:  11    -0.387656713503E+03    0.43126E-05   -0.50651E-05 42768   0.373E-02
  42 F= -.38765671E+03 E0= -.38765671E+03  d E =-.618153E-01  mag=    60.0000
       N       E                     dE             d eps       ncg     rms          rms(c)
DAV:   1    -0.387578598614E+03    0.78119E-01   -0.48058E+00 42824   0.989E+00    0.160E+00
DAV:   2    -0.387668280920E+03   -0.89682E-01   -0.82822E-01 39568   0.179E+00    0.705E-01
DAV:   3    -0.387671835678E+03   -0.35548E-02   -0.26868E-02 45840   0.382E-01    0.308E-01
DAV:   4    -0.387671538767E+03    0.29691E-03   -0.17219E-03 52848   0.106E-01    0.223E-01
DAV:   5    -0.387670941240E+03    0.59753E-03   -0.32381E-04 52000   0.139E-01    0.114E-01
DAV:   6    -0.387670661958E+03    0.27928E-03   -0.46325E-04 51024   0.164E-01    0.331E-02
DAV:   7    -0.387670683042E+03   -0.21084E-04   -0.72178E-04 44968   0.700E-02    0.337E-02
DAV:   8    -0.387670681150E+03    0.18920E-05   -0.91534E-05 45256   0.200E-02
  43 F= -.38767068E+03 E0= -.38767068E+03  d E =-.139676E-01  mag=    60.0000
       N       E                     dE             d eps       ncg     rms          rms(c)
DAV:   1    -0.387669038283E+03    0.16448E-02   -0.31653E-01 42168   0.197E+00    0.270E-01
DAV:   2    -0.387671984984E+03   -0.29467E-02   -0.28739E-02 39352   0.363E-01    0.121E-01
DAV:   3    -0.387672066694E+03   -0.81711E-04   -0.81495E-04 47720   0.647E-02    0.592E-02
DAV:   4    -0.387672049894E+03    0.16801E-04   -0.58524E-05 45520   0.217E-02    0.415E-02
DAV:   5    -0.387672025509E+03    0.24385E-04   -0.12525E-05 30512   0.312E-02    0.167E-02
DAV:   6    -0.387672020833E+03    0.46761E-05   -0.25228E-05 36328   0.230E-02
  44 F= -.38767202E+03 E0= -.38767202E+03  d E =-.133968E-02  mag=    60.0000
       N       E                     dE             d eps       ncg     rms          rms(c)
DAV:   1    -0.387657124476E+03    0.14901E-01   -0.25099E+00 42152   0.501E+00    0.603E-01
DAV:   2    -0.387674304788E+03   -0.17180E-01   -0.16778E-01 39272   0.901E-01    0.278E-01
DAV:   3    -0.387674672275E+03   -0.36749E-03   -0.40796E-03 47424   0.141E-01    0.137E-01
DAV:   4    -0.387674592218E+03    0.80057E-04   -0.32948E-04 55480   0.436E-02    0.934E-02
DAV:   5    -0.387674492628E+03    0.99590E-04   -0.80186E-05 42560   0.599E-02    0.312E-02
DAV:   6    -0.387674489643E+03    0.29855E-05   -0.10718E-04 47104   0.353E-02    0.115E-02
DAV:   7    -0.387674491285E+03   -0.16418E-05   -0.43869E-05 37480   0.157E-02
  45 F= -.38767449E+03 E0= -.38767449E+03  d E =-.247045E-02  mag=    60.0000
       N       E                     dE             d eps       ncg     rms          rms(c)
DAV:   1    -0.387670110721E+03    0.43789E-02   -0.11636E+00 42000   0.313E+00    0.352E-01
DAV:   2    -0.387676615427E+03   -0.65047E-02   -0.63347E-02 39040   0.550E-01    0.157E-01
DAV:   3    -0.387676737956E+03   -0.12253E-03   -0.13424E-03 46696   0.768E-02    0.753E-02
DAV:   4    -0.387676711088E+03    0.26868E-04   -0.10701E-04 50232   0.217E-02    0.535E-02
DAV:   5    -0.387676681375E+03    0.29713E-04   -0.29426E-05 36600   0.271E-02    0.200E-02
DAV:   6    -0.387676682377E+03   -0.10014E-05   -0.30229E-05 36944   0.135E-02
  46 F= -.38767668E+03 E0= -.38767668E+03  d E =-.219109E-02  mag=    60.0000
       N       E                     dE             d eps       ncg     rms          rms(c)
DAV:   1    -0.387547504733E+03    0.12918E+00   -0.16928E+01 41600   0.134E+01    0.173E+00
DAV:   2    -0.387681650905E+03   -0.13415E+00   -0.12831E+00 38520   0.244E+00    0.769E-01
DAV:   3    -0.387685553422E+03   -0.39025E-02   -0.32020E-02 46048   0.371E-01    0.347E-01
DAV:   4    -0.387685185601E+03    0.36782E-03   -0.22796E-03 54872   0.956E-02    0.256E-01
DAV:   5    -0.387684675651E+03    0.50995E-03   -0.44835E-04 46776   0.106E-01    0.115E-01
DAV:   6    -0.387684653909E+03    0.21742E-04   -0.45594E-04 48064   0.657E-02    0.248E-02
DAV:   7    -0.387684661376E+03   -0.74674E-05   -0.14302E-04 44424   0.312E-02    0.179E-02
DAV:   8    -0.387684659869E+03    0.15078E-05   -0.71802E-06 21920   0.912E-03
  47 F= -.38768466E+03 E0= -.38768466E+03  d E =-.797749E-02  mag=    60.0000
       N       E                     dE             d eps       ncg     rms          rms(c)
DAV:   1    -0.385133750788E+03    0.25509E+01   -0.23993E+02 42824   0.536E+01    0.772E+00
DAV:   2    -0.387499203125E+03   -0.23655E+01   -0.22538E+01 39584   0.985E+00    0.454E+00
DAV:   3    -0.387569641050E+03   -0.70438E-01   -0.66795E-01 44136   0.185E+00    0.171E+00
DAV:   4    -0.387556790246E+03    0.12851E-01   -0.50612E-02 55728   0.597E-01    0.115E+00
DAV:   5    -0.387539172504E+03    0.17618E-01   -0.79051E-03 50872   0.735E-01    0.543E-01
DAV:   6    -0.387531106450E+03    0.80661E-02   -0.14564E-02 49464   0.800E-01    0.144E-01
DAV:   7    -0.387531786570E+03   -0.68012E-03   -0.20775E-02 45440   0.353E-01    0.174E-01
DAV:   8    -0.387531629994E+03    0.15658E-03   -0.22510E-03 50152   0.833E-02    0.131E-01
DAV:   9    -0.387531181254E+03    0.44874E-03   -0.40045E-04 50840   0.853E-02    0.811E-02
DAV:  10    -0.387530678064E+03    0.50319E-03   -0.60336E-04 50648   0.215E-01    0.656E-02
DAV:  11    -0.387530643454E+03    0.34610E-04   -0.67063E-04 45760   0.915E-02    0.561E-02
DAV:  12    -0.387530667517E+03   -0.24062E-04   -0.46664E-04 42488   0.401E-02    0.233E-02
DAV:  13    -0.387530662911E+03    0.46058E-05   -0.22405E-05 35224   0.205E-02
  48 F= -.38753066E+03 E0= -.38753066E+03  d E =0.153997E+00  mag=    60.0000
       N       E                     dE             d eps       ncg     rms          rms(c)
DAV:   1    -0.384618639956E+03    0.29120E+01   -0.14872E+02 43808   0.532E+01    0.977E+00
DAV:   2    -0.387605812339E+03   -0.29872E+01   -0.27401E+01 40592   0.979E+00    0.603E+00
DAV:   3    -0.387725195466E+03   -0.11938E+00   -0.94764E-01 44696   0.229E+00    0.190E+00
DAV:   4    -0.387707513008E+03    0.17682E-01   -0.63933E-02 53840   0.850E-01    0.129E+00
DAV:   5    -0.387682540274E+03    0.24973E-01   -0.81189E-03 53024   0.950E-01    0.718E-01
DAV:   6    -0.387661133527E+03    0.21407E-01   -0.20619E-02 52200   0.152E+00    0.185E-01
DAV:   7    -0.387662546860E+03   -0.14133E-02   -0.46522E-02 44632   0.553E-01    0.218E-01
DAV:   8    -0.387662359633E+03    0.18723E-03   -0.63023E-03 49024   0.159E-01    0.184E-01
DAV:   9    -0.387661654987E+03    0.70465E-03   -0.51080E-04 52576   0.125E-01    0.126E-01
DAV:  10    -0.387660694443E+03    0.96054E-03   -0.96965E-04 54152   0.302E-01    0.731E-02
DAV:  11    -0.387660557471E+03    0.13697E-03   -0.95520E-04 46488   0.166E-01    0.796E-02
DAV:  12    -0.387660603162E+03   -0.45691E-04   -0.11208E-03 44976   0.764E-02    0.307E-02
DAV:  13    -0.387660611896E+03   -0.87342E-05   -0.94389E-05 51552   0.287E-02
  49 F= -.38766061E+03 E0= -.38766061E+03  d E =-.129949E+00  mag=    60.0000
       N       E                     dE             d eps       ncg     rms          rms(c)
DAV:   1    -0.387519163294E+03    0.14144E+00   -0.10343E+01 43712   0.137E+01    0.232E+00
DAV:   2    -0.387702609880E+03   -0.18345E+00   -0.16829E+00 40096   0.246E+00    0.110E+00
DAV:   3    -0.387710035564E+03   -0.74257E-02   -0.64688E-02 44800   0.599E-01    0.439E-01
DAV:   4    -0.387708967041E+03    0.10685E-02   -0.48824E-03 53552   0.212E-01    0.291E-01
DAV:   5    -0.387707032518E+03    0.19345E-02   -0.57710E-04 54448   0.273E-01    0.154E-01
DAV:   6    -0.387705670909E+03    0.13616E-02   -0.15090E-03 51416   0.379E-01    0.537E-02
DAV:   7    -0.387705732755E+03   -0.61846E-04   -0.30322E-03 44688   0.148E-01    0.526E-02
DAV:   8    -0.387705734065E+03   -0.13103E-05   -0.51391E-04 46000   0.456E-02    0.476E-02
DAV:   9    -0.387705681649E+03    0.52416E-04   -0.39953E-05 39464   0.386E-02    0.307E-02
DAV:  10    -0.387705614775E+03    0.66874E-04   -0.55517E-05 44984   0.933E-02    0.134E-02
DAV:  11    -0.387705613115E+03    0.16597E-05   -0.90844E-05 44680   0.411E-02
  50 F= -.38770561E+03 E0= -.38770561E+03  d E =-.450012E-01  mag=    60.0000
       N       E                     dE             d eps       ncg     rms          rms(c)
DAV:   1    -0.387672281245E+03    0.33334E-01   -0.28067E+00 42496   0.630E+00    0.983E-01
DAV:   2    -0.387708043440E+03   -0.35762E-01   -0.33411E-01 39504   0.115E+00    0.447E-01
DAV:   3    -0.387709306323E+03   -0.12629E-02   -0.12160E-02 44448   0.259E-01    0.196E-01
DAV:   4    -0.387709088759E+03    0.21756E-03   -0.98451E-04 54792   0.928E-02    0.135E-01
DAV:   5    -0.387708686674E+03    0.40209E-03   -0.12763E-04 50832   0.129E-01    0.662E-02
DAV:   6    -0.387708460256E+03    0.22642E-03   -0.30110E-04 49448   0.157E-01    0.249E-02
DAV:   7    -0.387708475309E+03   -0.15053E-04   -0.57151E-04 44856   0.631E-02    0.244E-02
DAV:   8    -0.387708475081E+03    0.22788E-06   -0.87817E-05 44112   0.180E-02
  51 F= -.38770848E+03 E0= -.38770848E+03  d E =-.286197E-02  mag=    60.0000
       N       E                     dE             d eps       ncg     rms          rms(c)
DAV:   1    -0.387680814077E+03    0.27661E-01   -0.35668E+00 41944   0.584E+00    0.752E-01
DAV:   2    -0.387706506662E+03   -0.25693E-01   -0.25011E-01 39136   0.105E+00    0.337E-01
DAV:   3    -0.387707132178E+03   -0.62552E-03   -0.63807E-03 46824   0.175E-01    0.165E-01
DAV:   4    -0.387706987818E+03    0.14436E-03   -0.45198E-04 54856   0.612E-02    0.116E-01
DAV:   5    -0.387706800032E+03    0.18779E-03   -0.95735E-05 46680   0.912E-02    0.433E-02
DAV:   6    -0.387706773234E+03    0.26798E-04   -0.18168E-04 48184   0.616E-02    0.152E-02
DAV:   7    -0.387706777973E+03   -0.47392E-05   -0.13421E-04 44392   0.281E-02    0.182E-02
DAV:   8    -0.387706775394E+03    0.25787E-05   -0.86293E-06 23048   0.755E-03
  52 F= -.38770678E+03 E0= -.38770678E+03  d E =0.169969E-02  mag=    60.0000
       N       E                     dE             d eps       ncg     rms          rms(c)
DAV:   1    -0.387690466520E+03    0.16311E-01   -0.17470E+00 41808   0.461E+00    0.657E-01
DAV:   2    -0.387708151415E+03   -0.17685E-01   -0.16640E-01 38896   0.832E-01    0.287E-01
DAV:   3    -0.387708801924E+03   -0.65051E-03   -0.51878E-03 46000   0.149E-01    0.126E-01
DAV:   4    -0.387708760544E+03    0.41381E-04   -0.35481E-04 55744   0.410E-02    0.936E-02
DAV:   5    -0.387708678673E+03    0.81871E-04   -0.45568E-05 40168   0.477E-02    0.476E-02
DAV:   6    -0.387708652631E+03    0.26042E-04   -0.71136E-05 47616   0.537E-02    0.121E-02
DAV:   7    -0.387708657159E+03   -0.45281E-05   -0.89757E-05 44064   0.234E-02
  53 F= -.38770866E+03 E0= -.38770866E+03  d E =-.188176E-02  mag=    60.0000
       N       E                     dE             d eps       ncg     rms          rms(c)
DAV:   1    -0.387684439924E+03    0.24213E-01   -0.30632E+00 41976   0.576E+00    0.763E-01
DAV:   2    -0.387709873616E+03   -0.25434E-01   -0.24053E-01 39256   0.103E+00    0.338E-01
DAV:   3    -0.387710657996E+03   -0.78438E-03   -0.64528E-03 46248   0.169E-01    0.148E-01
DAV:   4    -0.387710593173E+03    0.64823E-04   -0.46590E-04 56208   0.467E-02    0.108E-01
DAV:   5    -0.387710474972E+03    0.11820E-03   -0.69057E-05 41248   0.586E-02    0.511E-02
DAV:   6    -0.387710448615E+03    0.26357E-04   -0.10291E-04 48888   0.562E-02    0.140E-02
DAV:   7    -0.387710454333E+03   -0.57183E-05   -0.10654E-04 44368   0.257E-02    0.145E-02
DAV:   8    -0.387710453370E+03    0.96329E-06   -0.67452E-06 21784   0.674E-03
  54 F= -.38771045E+03 E0= -.38771045E+03  d E =-.179621E-02  mag=    60.0000
       N       E                     dE             d eps       ncg     rms          rms(c)
DAV:   1    -0.387132762379E+03    0.57769E+00   -0.78203E+01 41600   0.272E+01    0.351E+00
DAV:   2    -0.387697357244E+03   -0.56459E+00   -0.54011E+00 38888   0.486E+00    0.165E+00
DAV:   3    -0.387711786624E+03   -0.14429E-01   -0.12960E-01 45616   0.764E-01    0.718E-01
DAV:   4    -0.387710055495E+03    0.17311E-02   -0.10379E-02 54544   0.219E-01    0.530E-01
DAV:   5    -0.387707605630E+03    0.24499E-02   -0.15910E-03 50064   0.234E-01    0.257E-01
DAV:   6    -0.387707114251E+03    0.49138E-03   -0.21665E-03 49624   0.218E-01    0.592E-02
DAV:   7    -0.387707225038E+03   -0.11079E-03   -0.17190E-03 44496   0.100E-01    0.587E-02
DAV:   8    -0.387707212325E+03    0.12713E-04   -0.12349E-04 49744   0.254E-02    0.370E-02
DAV:   9    -0.387707190183E+03    0.22141E-04   -0.11995E-05 28728   0.261E-02    0.252E-02
DAV:  10    -0.387707172652E+03    0.17531E-04   -0.31722E-05 39984   0.474E-02    0.114E-02
DAV:  11    -0.387707171592E+03    0.10597E-05   -0.33609E-05 38856   0.235E-02
  55 F= -.38770717E+03 E0= -.38770717E+03  d E =0.328178E-02  mag=    60.0000
       N       E                     dE             d eps       ncg     rms          rms(c)
DAV:   1    -0.377756972586E+03    0.99502E+01   -0.43579E+02 43768   0.875E+01    0.171E+01
DAV:   2    -0.386578958864E+03   -0.88220E+01   -0.81231E+01 40088   0.169E+01    0.136E+01
DAV:   3    -0.386976060570E+03   -0.39710E+00   -0.32993E+00 44600   0.422E+00    0.401E+00
DAV:   4    -0.386932170077E+03    0.43890E-01   -0.18535E-01 52992   0.129E+00    0.276E+00
DAV:   5    -0.386870547374E+03    0.61623E-01   -0.30612E-02 52048   0.112E+00    0.166E+00
DAV:   6    -0.386804321852E+03    0.66226E-01   -0.58600E-02 54008   0.200E+00    0.335E-01
DAV:   7    -0.386806212306E+03   -0.18905E-02   -0.11287E-01 45208   0.734E-01    0.358E-01
DAV:   8    -0.386805354435E+03    0.85787E-03   -0.12187E-02 50368   0.197E-01    0.267E-01
DAV:   9    -0.386803068375E+03    0.22861E-02   -0.19975E-03 50752   0.168E-01    0.163E-01
DAV:  10    -0.386800294494E+03    0.27739E-02   -0.28693E-03 51328   0.422E-01    0.127E-01
DAV:  11    -0.386800245548E+03    0.48947E-04   -0.39478E-03 45528   0.181E-01    0.101E-01
DAV:  12    -0.386800353272E+03   -0.10772E-03   -0.16385E-03 43648   0.696E-02    0.508E-02
DAV:  13    -0.386800344963E+03    0.83088E-05   -0.14049E-04 45944   0.378E-02    0.420E-02
DAV:  14    -0.386800348492E+03   -0.35287E-05   -0.73683E-05 45824   0.293E-02
  56 F= -.38680035E+03 E0= -.38680029E+03  d E =0.906823E+00  mag=    59.9996
       N       E                     dE             d eps       ncg     rms          rms(c)
DAV:   1    -0.384183923274E+03    0.26164E+01   -0.18180E+02 44192   0.551E+01    0.105E+01
DAV:   2    -0.387581970234E+03   -0.33980E+01   -0.30956E+01 40280   0.100E+01    0.691E+00
DAV:   3    -0.387722925171E+03   -0.14095E+00   -0.11600E+00 46208   0.228E+00    0.204E+00
DAV:   4    -0.387701351612E+03    0.21574E-01   -0.81090E-02 54208   0.833E-01    0.132E+00
DAV:   5    -0.387671051584E+03    0.30300E-01   -0.11404E-02 56016   0.901E-01    0.665E-01
DAV:   6    -0.387650067543E+03    0.20984E-01   -0.23611E-02 51832   0.119E+00    0.195E-01
DAV:   7    -0.387651368892E+03   -0.13013E-02   -0.43525E-02 44968   0.476E-01    0.226E-01
DAV:   8    -0.387650762931E+03    0.60596E-03   -0.41403E-03 53688   0.123E-01    0.166E-01
DAV:   9    -0.387649376014E+03    0.13869E-02   -0.77701E-04 53176   0.203E-01    0.910E-02
DAV:  10    -0.387648613085E+03    0.76293E-03   -0.13682E-03 48672   0.282E-01    0.809E-02
DAV:  11    -0.387648645581E+03   -0.32496E-04   -0.15698E-03 44576   0.110E-01    0.643E-02
DAV:  12    -0.387648675300E+03   -0.29719E-04   -0.60587E-04 42608   0.436E-02    0.329E-02
DAV:  13    -0.387648671601E+03    0.36990E-05   -0.35692E-05 38936   0.356E-02
  57 F= -.38764867E+03 E0= -.38764867E+03  d E =-.848323E+00  mag=    60.0000
       N       E                     dE             d eps       ncg     rms          rms(c)
DAV:   1    -0.387173680063E+03    0.47500E+00   -0.31206E+01 44328   0.239E+01    0.401E+00
DAV:   2    -0.387710826673E+03   -0.53715E+00   -0.48858E+00 40280   0.422E+00    0.200E+00
DAV:   3    -0.387733029110E+03   -0.22202E-01   -0.19162E-01 44312   0.102E+00    0.724E-01
DAV:   4    -0.387729557762E+03    0.34713E-02   -0.14911E-02 53992   0.369E-01    0.480E-01
DAV:   5    -0.387723687415E+03    0.58703E-02   -0.18873E-03 55880   0.488E-01    0.239E-01
DAV:   6    -0.387720069686E+03    0.36177E-02   -0.45842E-03 50400   0.605E-01    0.887E-02
DAV:   7    -0.387720279342E+03   -0.20966E-03   -0.87438E-03 44888   0.249E-01    0.951E-02
DAV:   8    -0.387720255179E+03    0.24163E-04   -0.13244E-03 47888   0.715E-02    0.817E-02
DAV:   9    -0.387720091384E+03    0.16379E-03   -0.10726E-04 48240   0.703E-02    0.542E-02
DAV:  10    -0.387719895747E+03    0.19564E-03   -0.17750E-04 51648   0.154E-01    0.269E-02
DAV:  11    -0.387719885277E+03    0.10470E-04   -0.24928E-04 45320   0.735E-02    0.318E-02
DAV:  12    -0.387719901852E+03   -0.16575E-04   -0.21292E-04 43560   0.291E-02    0.129E-02
DAV:  13    -0.387719902901E+03   -0.10487E-05   -0.79001E-06 24240   0.911E-03
  58 F= -.38771990E+03 E0= -.38771990E+03  d E =-.712313E-01  mag=    60.0000
       N       E                     dE             d eps       ncg     rms          rms(c)
DAV:   1    -0.387718729123E+03    0.11727E-02   -0.45360E-01 43104   0.202E+00    0.250E-01
DAV:   2    -0.387721480032E+03   -0.27509E-02   -0.26700E-02 39936   0.355E-01    0.126E-01
DAV:   3    -0.387721535449E+03   -0.55418E-04   -0.82631E-04 49000   0.666E-02    0.669E-02
DAV:   4    -0.387721513609E+03    0.21840E-04   -0.65888E-05 46696   0.235E-02    0.454E-02
DAV:   5    -0.387721479659E+03    0.33950E-04   -0.23319E-05 36208   0.409E-02    0.154E-02
DAV:   6    -0.387721476161E+03    0.34983E-05   -0.39558E-05 40592   0.256E-02
  59 F= -.38772148E+03 E0= -.38772148E+03  d E =-.157326E-02  mag=    60.0000
       N       E                     dE             d eps       ncg     rms          rms(c)
DAV:   1    -0.387703627251E+03    0.17852E-01   -0.49653E+00 42832   0.581E+00    0.642E-01
DAV:   2    -0.387725701130E+03   -0.22074E-01   -0.21652E-01 40112   0.998E-01    0.347E-01
DAV:   3    -0.387725899697E+03   -0.19857E-03   -0.51111E-03 49520   0.153E-01    0.192E-01
DAV:   4    -0.387725723302E+03    0.17639E-03   -0.45989E-04 55272   0.502E-02    0.131E-01
DAV:   5    -0.387725499127E+03    0.22417E-03   -0.28256E-04 45512   0.808E-02    0.340E-02
DAV:   6    -0.387725506382E+03   -0.72544E-05   -0.22898E-04 45632   0.368E-02    0.179E-02
DAV:   7    -0.387725506938E+03   -0.55586E-06   -0.29468E-05 36984   0.113E-02
  60 F= -.38772551E+03 E0= -.38772551E+03  d E =-.403078E-02  mag=    60.0000
       N       E                     dE             d eps       ncg     rms          rms(c)
DAV:   1    -0.387716277793E+03    0.92286E-02   -0.19019E+00 41328   0.381E+00    0.415E-01
DAV:   2    -0.387725574619E+03   -0.92968E-02   -0.92417E-02 39080   0.675E-01    0.193E-01
DAV:   3    -0.387725702388E+03   -0.12777E-03   -0.20189E-03 47024   0.105E-01    0.100E-01
DAV:   4    -0.387725641367E+03    0.61021E-04   -0.16682E-04 54696   0.350E-02    0.701E-02
DAV:   5    -0.387725569136E+03    0.72231E-04   -0.52587E-05 39112   0.522E-02    0.235E-02
DAV:   6    -0.387725565074E+03    0.40623E-05   -0.78215E-05 44128   0.311E-02
  61 F= -.38772557E+03 E0= -.38772557E+03  d E =-.581359E-04  mag=    60.0000
       N       E                     dE             d eps       ncg     rms          rms(c)
DAV:   1    -0.387707835360E+03    0.17734E-01   -0.31859E+00 41544   0.515E+00    0.577E-01
DAV:   2    -0.387725188270E+03   -0.17353E-01   -0.17142E-01 38792   0.919E-01    0.258E-01
DAV:   3    -0.387725488817E+03   -0.30055E-03   -0.35583E-03 46240   0.133E-01    0.128E-01
DAV:   4    -0.387725397822E+03    0.90995E-04   -0.29045E-04 55672   0.434E-02    0.880E-02
DAV:   5    -0.387725312298E+03    0.85524E-04   -0.82770E-05 42016   0.583E-02    0.290E-02
DAV:   6    -0.387725315584E+03   -0.32853E-05   -0.10532E-04 45488   0.291E-02    0.117E-02
DAV:   7    -0.387725315218E+03    0.36562E-06   -0.22501E-05 29408   0.124E-02
  62 F= -.38772532E+03 E0= -.38772532E+03  d E =0.249856E-03  mag=    60.0000
       N       E                     dE             d eps       ncg     rms          rms(c)
DAV:   1    -0.387582743590E+03    0.14257E+00   -0.33785E+01 41872   0.151E+01    0.150E+00
DAV:   2    -0.387724827558E+03   -0.14208E+00   -0.14188E+00 38552   0.263E+00    0.692E-01
DAV:   3    -0.387725906871E+03   -0.10793E-02   -0.25117E-02 46296   0.359E-01    0.359E-01
DAV:   4    -0.387724999719E+03    0.90715E-03   -0.25212E-03 54888   0.120E-01    0.244E-01
DAV:   5    -0.387724255446E+03    0.74427E-03   -0.87730E-04 48168   0.153E-01    0.722E-02
DAV:   6    -0.387724300254E+03   -0.44808E-04   -0.87222E-04 45920   0.730E-02    0.329E-02
DAV:   7    -0.387724297417E+03    0.28369E-05   -0.10465E-04 45008   0.250E-02    0.220E-02
DAV:   8    -0.387724290598E+03    0.68189E-05   -0.11034E-05 25256   0.124E-02
  63 F= -.38772429E+03 E0= -.38772429E+03  d E =0.102462E-02  mag=    60.0000
       N       E                     dE             d eps       ncg     rms          rms(c)
DAV:   1    -0.379965682729E+03    0.77586E+01   -0.40126E+02 42528   0.806E+01    0.148E+01
DAV:   2    -0.386874737407E+03   -0.69091E+01   -0.63879E+01 40168   0.152E+01    0.107E+01
DAV:   3    -0.387139073532E+03   -0.26434E+00   -0.22432E+00 44280   0.356E+00    0.331E+00
DAV:   4    -0.387103575409E+03    0.35498E-01   -0.15440E-01 53848   0.121E+00    0.226E+00
DAV:   5    -0.387056600363E+03    0.46975E-01   -0.20667E-02 51264   0.102E+00    0.140E+00
DAV:   6    -0.387005430279E+03    0.51170E-01   -0.45736E-02 53824   0.191E+00    0.276E-01
DAV:   7    -0.387007044429E+03   -0.16141E-02   -0.86498E-02 44776   0.670E-01    0.303E-01
DAV:   8    -0.387006511877E+03    0.53255E-03   -0.10289E-02 50872   0.184E-01    0.226E-01
DAV:   9    -0.387004976561E+03    0.15353E-02   -0.13960E-03 51136   0.148E-01    0.153E-01
DAV:  10    -0.387003425655E+03    0.15509E-02   -0.16901E-03 48600   0.285E-01    0.940E-02
DAV:  11    -0.387003181251E+03    0.24440E-03   -0.17627E-03 45920   0.173E-01    0.890E-02
DAV:  12    -0.387003263493E+03   -0.82242E-04   -0.17503E-03 44024   0.826E-02    0.410E-02
DAV:  13    -0.387003263411E+03    0.81360E-07   -0.13148E-04 52856   0.335E-02    0.275E-02
DAV:  14    -0.387003262458E+03    0.95385E-06   -0.27038E-05 36232   0.266E-02
  64 F= -.38700326E+03 E0= -.38700326E+03  d E =0.721028E+00  mag=    60.0000
       N       E                     dE             d eps       ncg     rms          rms(c)
DAV:   1    -0.383571988615E+03    0.34313E+01   -0.20903E+02 44048   0.595E+01    0.114E+01
DAV:   2    -0.387625367037E+03   -0.40534E+01   -0.37275E+01 40008   0.111E+01    0.734E+00
DAV:   3    -0.387797391536E+03   -0.17202E+00   -0.14115E+00 45816   0.257E+00    0.225E+00
DAV:   4    -0.387773176785E+03    0.24215E-01   -0.89710E-02 54160   0.938E-01    0.150E+00
DAV:   5    -0.387740220907E+03    0.32956E-01   -0.11636E-02 54072   0.968E-01    0.842E-01
DAV:   6    -0.387710069103E+03    0.30152E-01   -0.27687E-02 52640   0.163E+00    0.205E-01
DAV:   7    -0.387711450863E+03   -0.13818E-02   -0.59165E-02 45080   0.640E-01    0.224E-01
DAV:   8    -0.387711241871E+03    0.20899E-03   -0.87419E-03 47984   0.187E-01    0.196E-01
DAV:   9    -0.387710282575E+03    0.95930E-03   -0.79673E-04 53216   0.144E-01    0.128E-01
DAV:  10    -0.387708914249E+03    0.13683E-02   -0.13897E-03 52984   0.401E-01    0.847E-02
DAV:  11    -0.387708836972E+03    0.77277E-04   -0.16031E-03 46120   0.169E-01    0.833E-02
DAV:  12    -0.387708918631E+03   -0.81659E-04   -0.13053E-03 43960   0.716E-02    0.355E-02
DAV:  13    -0.387708917961E+03    0.66969E-06   -0.47192E-05 43344   0.358E-02
  65 F= -.38770892E+03 E0= -.38770892E+03  d E =-.705656E+00  mag=    60.0000
       N       E                     dE             d eps       ncg     rms          rms(c)
DAV:   1    -0.387542101002E+03    0.16682E+00   -0.11771E+01 43328   0.139E+01    0.227E+00
DAV:   2    -0.387722982937E+03   -0.18088E+00   -0.16620E+00 39968   0.248E+00    0.106E+00
DAV:   3    -0.387730513184E+03   -0.75302E-02   -0.65230E-02 44416   0.579E-01    0.444E-01
DAV:   4    -0.387729562356E+03    0.95083E-03   -0.47976E-03 54968   0.191E-01    0.305E-01
DAV:   5    -0.387727783217E+03    0.17791E-02   -0.63302E-04 54680   0.248E-01    0.160E-01
DAV:   6    -0.387726649361E+03    0.11339E-02   -0.14208E-03 50200   0.334E-01    0.525E-02
DAV:   7    -0.387726711085E+03   -0.61724E-04   -0.26264E-03 45120   0.137E-01    0.534E-02
DAV:   8    -0.387726718522E+03   -0.74364E-05   -0.42694E-04 45456   0.379E-02    0.478E-02
DAV:   9    -0.387726681894E+03    0.36627E-04   -0.38748E-05 39432   0.268E-02    0.321E-02
DAV:  10    -0.387726627758E+03    0.54136E-04   -0.52446E-05 45408   0.769E-02    0.151E-02
DAV:  11    -0.387726622960E+03    0.47975E-05   -0.63092E-05 43928   0.420E-02
  66 F= -.38772662E+03 E0= -.38772662E+03  d E =-.177050E-01  mag=    60.0000
       N       E                     dE             d eps       ncg     rms          rms(c)
DAV:   1    -0.387718234511E+03    0.83932E-02   -0.25674E+00 41928   0.419E+00    0.458E-01
DAV:   2    -0.387729650746E+03   -0.11416E-01   -0.11318E-01 39632   0.728E-01    0.237E-01
DAV:   3    -0.387729747965E+03   -0.97219E-04   -0.26274E-03 48928   0.113E-01    0.136E-01
DAV:   4    -0.387729657417E+03    0.90548E-04   -0.23982E-04 53704   0.366E-02    0.938E-02
DAV:   5    -0.387729533046E+03    0.12437E-03   -0.14122E-04 43248   0.614E-02    0.249E-02
DAV:   6    -0.387729534022E+03   -0.97632E-06   -0.12877E-04 45104   0.289E-02    0.123E-02
DAV:   7    -0.387729534122E+03   -0.10036E-06   -0.21934E-05 27192   0.104E-02
  67 F= -.38772953E+03 E0= -.38772953E+03  d E =-.291116E-02  mag=    60.0000
       N       E                     dE             d eps       ncg     rms          rms(c)
DAV:   1    -0.387695500784E+03    0.34033E-01   -0.78644E+00 42192   0.772E+00    0.851E-01
DAV:   2    -0.387733534860E+03   -0.38034E-01   -0.37439E-01 39696   0.134E+00    0.425E-01
DAV:   3    -0.387734039867E+03   -0.50501E-03   -0.93393E-03 48504   0.230E-01    0.222E-01
DAV:   4    -0.387733765419E+03    0.27445E-03   -0.88768E-04 54240   0.844E-02    0.153E-01
DAV:   5    -0.387733371123E+03    0.39430E-03   -0.27713E-04 49216   0.139E-01    0.515E-02
DAV:   6    -0.387733332299E+03    0.38824E-04   -0.42906E-04 48696   0.870E-02    0.229E-02
DAV:   7    -0.387733343304E+03   -0.11005E-04   -0.26130E-04 43536   0.369E-02    0.243E-02
DAV:   8    -0.387733337014E+03    0.62899E-05   -0.11801E-05 25640   0.111E-02
  68 F= -.38773334E+03 E0= -.38773334E+03  d E =-.380289E-02  mag=    60.0000
       N       E                     dE             d eps       ncg     rms          rms(c)
DAV:   1    -0.387706812457E+03    0.26531E-01   -0.42675E+00 42016   0.620E+00    0.730E-01
DAV:   2    -0.387732918087E+03   -0.26106E-01   -0.25235E-01 39088   0.110E+00    0.333E-01
DAV:   3    -0.387733527892E+03   -0.60981E-03   -0.64450E-03 46880   0.178E-01    0.160E-01
DAV:   4    -0.387733414187E+03    0.11370E-03   -0.52734E-04 55432   0.547E-02    0.114E-01
DAV:   5    -0.387733257906E+03    0.15628E-03   -0.12370E-04 44384   0.772E-02    0.444E-02
DAV:   6    -0.387733245664E+03    0.12242E-04   -0.16630E-04 48280   0.509E-02    0.149E-02
DAV:   7    -0.387733249954E+03   -0.42894E-05   -0.97019E-05 43752   0.240E-02
  69 F= -.38773325E+03 E0= -.38773325E+03  d E =0.870604E-04  mag=    60.0000
       N       E                     dE             d eps       ncg     rms          rms(c)
DAV:   1    -0.387714401640E+03    0.18844E-01   -0.31687E+00 42016   0.520E+00    0.599E-01
DAV:   2    -0.387732722763E+03   -0.18321E-01   -0.17825E-01 38952   0.920E-01    0.267E-01
DAV:   3    -0.387733089729E+03   -0.36697E-03   -0.37917E-03 46104   0.130E-01    0.126E-01
DAV:   4    -0.387733016947E+03    0.72782E-04   -0.31708E-04 54872   0.365E-02    0.894E-02
DAV:   5    -0.387732940908E+03    0.76038E-04   -0.10552E-04 42712   0.447E-02    0.300E-02
DAV:   6    -0.387732946146E+03   -0.52376E-05   -0.72101E-05 44256   0.189E-02
  70 F= -.38773295E+03 E0= -.38773295E+03  d E =0.303808E-03  mag=    60.0000
       N       E                     dE             d eps       ncg     rms          rms(c)
DAV:   1    -0.387693793164E+03    0.39148E-01   -0.52027E+00 42016   0.700E+00    0.908E-01
DAV:   2    -0.387731448808E+03   -0.37656E-01   -0.36101E-01 39024   0.125E+00    0.401E-01
DAV:   3    -0.387732453902E+03   -0.10051E-02   -0.88576E-03 45920   0.193E-01    0.182E-01
DAV:   4    -0.387732331816E+03    0.12209E-03   -0.67179E-04 55224   0.556E-02    0.133E-01
DAV:   5    -0.387732157809E+03    0.17401E-03   -0.14237E-04 44720   0.719E-02    0.536E-02
DAV:   6    -0.387732146068E+03    0.11741E-04   -0.16528E-04 48416   0.481E-02    0.153E-02
DAV:   7    -0.387732150124E+03   -0.40561E-05   -0.93468E-05 44360   0.246E-02
  71 F= -.38773215E+03 E0= -.38773215E+03  d E =0.796022E-03  mag=    60.0000
       N       E                     dE             d eps       ncg     rms          rms(c)
DAV:   1    -0.387318231161E+03    0.41391E+00   -0.71017E+01 42024   0.246E+01    0.281E+00
DAV:   2    -0.387728240720E+03   -0.41001E+00   -0.40007E+00 38456   0.439E+00    0.130E+00
DAV:   3    -0.387735809610E+03   -0.75689E-02   -0.84577E-02 45248   0.630E-01    0.606E-01
DAV:   4    -0.387734156232E+03    0.16534E-02   -0.73380E-03 55464   0.185E-01    0.431E-01
DAV:   5    -0.387732365526E+03    0.17907E-02   -0.17096E-03 48000   0.219E-01    0.165E-01
DAV:   6    -0.387732362824E+03    0.27021E-05   -0.17909E-03 48344   0.125E-01    0.466E-02
DAV:   7    -0.387732380165E+03   -0.17341E-04   -0.44546E-04 45280   0.530E-02    0.356E-02
DAV:   8    -0.387732369901E+03    0.10265E-04   -0.35871E-05 38160   0.168E-02    0.208E-02
DAV:   9    -0.387732359701E+03    0.10200E-04   -0.60522E-06 27608   0.236E-02    0.104E-02
DAV:  10    -0.387732355446E+03    0.42547E-05   -0.10893E-05 30736   0.213E-02
  72 F= -.38773236E+03 E0= -.38773236E+03  d E =-.205322E-03  mag=    60.0000
       N       E                     dE             d eps       ncg     rms          rms(c)
DAV:   1    -0.386262646955E+03    0.14697E+01   -0.21172E+02 41600   0.434E+01    0.557E+00
DAV:   2    -0.387708765411E+03   -0.14461E+01   -0.13864E+01 39104   0.779E+00    0.279E+00
DAV:   3    -0.387738942814E+03   -0.30177E-01   -0.28806E-01 45376   0.114E+00    0.117E+00
DAV:   4    -0.387734140819E+03    0.48020E-02   -0.25045E-02 53344   0.329E-01    0.852E-01
DAV:   5    -0.387728766978E+03    0.53738E-02   -0.39045E-03 47936   0.290E-01    0.426E-01
DAV:   6    -0.387727811841E+03    0.95514E-03   -0.50126E-03 48936   0.238E-01    0.887E-02
DAV:   7    -0.387727970704E+03   -0.15886E-03   -0.19493E-03 45256   0.986E-02    0.704E-02
DAV:   8    -0.387727957282E+03    0.13423E-04   -0.11644E-04 52024   0.254E-02    0.425E-02
DAV:   9    -0.387727940680E+03    0.16601E-04   -0.22555E-05 34184   0.227E-02    0.234E-02
DAV:  10    -0.387727933029E+03    0.76509E-05   -0.20514E-05 34568   0.274E-02
  73 F= -.38772793E+03 E0= -.38772793E+03  d E =0.442242E-02  mag=    60.0000
       N       E                     dE             d eps       ncg     rms          rms(c)
DAV:   1    -0.385867784894E+03    0.18602E+01   -0.25808E+02 41760   0.499E+01    0.626E+00
DAV:   2    -0.387687660954E+03   -0.18199E+01   -0.17422E+01 39128   0.896E+00    0.313E+00
DAV:   3    -0.387724392364E+03   -0.36731E-01   -0.36452E-01 46056   0.141E+00    0.131E+00
DAV:   4    -0.387717812332E+03    0.65800E-02   -0.33032E-02 52592   0.429E-01    0.945E-01
DAV:   5    -0.387710274415E+03    0.75379E-02   -0.44411E-03 49016   0.420E-01    0.480E-01
DAV:   6    -0.387708190077E+03    0.20843E-02   -0.68782E-03 49304   0.425E-01    0.109E-01
DAV:   7    -0.387708536859E+03   -0.34678E-03   -0.59619E-03 44520   0.192E-01    0.991E-02
DAV:   8    -0.387708493386E+03    0.43473E-04   -0.52393E-04 50016   0.502E-02    0.653E-02
DAV:   9    -0.387708396957E+03    0.96428E-04   -0.64853E-05 45080   0.596E-02    0.406E-02
DAV:  10    -0.387708319568E+03    0.77389E-04   -0.75194E-05 46792   0.953E-02    0.212E-02
DAV:  11    -0.387708313185E+03    0.63837E-05   -0.12449E-04 43880   0.434E-02    0.199E-02
DAV:  12    -0.387708318730E+03   -0.55453E-05   -0.84619E-05 41824   0.198E-02
  74 F= -.38770832E+03 E0= -.38770832E+03  d E =0.196143E-01  mag=    60.0000
       N       E                     dE             d eps       ncg     rms          rms(c)
DAV:   1    -0.386948397982E+03    0.75992E+00   -0.89502E+01 42328   0.317E+01    0.429E+00
DAV:   2    -0.387719834151E+03   -0.77144E+00   -0.73567E+00 39360   0.579E+00    0.214E+00
DAV:   3    -0.387741598424E+03   -0.21764E-01   -0.20997E-01 46280   0.101E+00    0.914E-01
DAV:   4    -0.387737843220E+03    0.37552E-02   -0.16812E-02 56944   0.320E-01    0.636E-01
DAV:   5    -0.387732450443E+03    0.53928E-02   -0.30940E-03 52272   0.410E-01    0.275E-01
DAV:   6    -0.387731021324E+03    0.14291E-02   -0.45269E-03 49264   0.362E-01    0.809E-02
DAV:   7    -0.387731221217E+03   -0.19989E-03   -0.44832E-03 45424   0.163E-01    0.100E-01
DAV:   8    -0.387731174588E+03    0.46629E-04   -0.38039E-04 51800   0.375E-02    0.671E-02
DAV:   9    -0.387731074404E+03    0.10018E-03   -0.54796E-05 43568   0.453E-02    0.454E-02
DAV:  10    -0.387730970768E+03    0.10364E-03   -0.12849E-04 47088   0.102E-01    0.198E-02
DAV:  11    -0.387730963495E+03    0.72732E-05   -0.13246E-04 44120   0.475E-02    0.205E-02
DAV:  12    -0.387730971192E+03   -0.76964E-05   -0.10217E-04 42496   0.198E-02    0.109E-02
DAV:  13    -0.387730970153E+03    0.10385E-05   -0.41583E-06 22304   0.816E-03
  75 F= -.38773097E+03 E0= -.38773097E+03  d E =-.226514E-01  mag=    60.0000
       N       E                     dE             d eps       ncg     rms          rms(c)
DAV:   1    -0.387414376570E+03    0.31659E+00   -0.44467E+01 42016   0.209E+01    0.266E+00
DAV:   2    -0.387739005778E+03   -0.32463E+00   -0.30979E+00 38912   0.373E+00    0.124E+00
DAV:   3    -0.387747195964E+03   -0.81902E-02   -0.75544E-02 47008   0.563E-01    0.558E-01
DAV:   4    -0.387746073720E+03    0.11222E-02   -0.54859E-03 55496   0.152E-01    0.401E-01
DAV:   5    -0.387744533205E+03    0.15405E-02   -0.13679E-03 48856   0.185E-01    0.163E-01
DAV:   6    -0.387744433834E+03    0.99370E-04   -0.14007E-03 48600   0.112E-01    0.417E-02
DAV:   7    -0.387744453645E+03   -0.19811E-04   -0.39493E-04 44688   0.469E-02    0.358E-02
DAV:   8    -0.387744445649E+03    0.79956E-05   -0.22024E-05 31776   0.129E-02
  76 F= -.38774445E+03 E0= -.38774445E+03  d E =-.134755E-01  mag=    60.0000
       N       E                     dE             d eps       ncg     rms          rms(c)
DAV:   1    -0.387687905867E+03    0.56548E-01   -0.74967E+00 41600   0.857E+00    0.110E+00
DAV:   2    -0.387743418061E+03   -0.55512E-01   -0.52673E-01 38600   0.152E+00    0.487E-01
DAV:   3    -0.387745018805E+03   -0.16007E-02   -0.13180E-02 46520   0.233E-01    0.219E-01
DAV:   4    -0.387744870927E+03    0.14788E-03   -0.87418E-04 55792   0.562E-02    0.167E-01
DAV:   5    -0.387744636473E+03    0.23445E-03   -0.18963E-04 45664   0.663E-02    0.813E-02
DAV:   6    -0.387744612892E+03    0.23581E-04   -0.21877E-04 48840   0.458E-02    0.161E-02
DAV:   7    -0.387744616306E+03   -0.34141E-05   -0.67344E-05 40608   0.210E-02
  77 F= -.38774462E+03 E0= -.38774462E+03  d E =-.170656E-03  mag=    60.0000
       N       E                     dE             d eps       ncg     rms          rms(c)
DAV:   1    -0.387710106781E+03    0.34506E-01   -0.58409E+00 42224   0.721E+00    0.828E-01
DAV:   2    -0.387744823775E+03   -0.34717E-01   -0.33162E-01 38768   0.125E+00    0.372E-01
DAV:   3    -0.387745612729E+03   -0.78895E-03   -0.76949E-03 46480   0.185E-01    0.172E-01
DAV:   4    -0.387745497685E+03    0.11504E-03   -0.59569E-04 55912   0.474E-02    0.125E-01
DAV:   5    -0.387745331473E+03    0.16621E-03   -0.16157E-04 45312   0.569E-02    0.518E-02
DAV:   6    -0.387745325290E+03    0.61830E-05   -0.15349E-04 47488   0.325E-02    0.132E-02
DAV:   7    -0.387745327249E+03   -0.19583E-05   -0.30977E-05 32600   0.138E-02
  78 F= -.38774533E+03 E0= -.38774533E+03  d E =-.710943E-03  mag=    60.0000
       N       E                     dE             d eps       ncg     rms          rms(c)
DAV:   1    -0.387664260474E+03    0.81065E-01   -0.10880E+01 41440   0.105E+01    0.133E+00
DAV:   2    -0.387745520513E+03   -0.81260E-01   -0.77296E-01 38312   0.188E+00    0.587E-01
DAV:   3    -0.387747862960E+03   -0.23424E-02   -0.19597E-02 47072   0.287E-01    0.268E-01
DAV:   4    -0.387747620494E+03    0.24247E-03   -0.13324E-03 55504   0.720E-02    0.197E-01
DAV:   5    -0.387747281038E+03    0.33946E-03   -0.28486E-04 47424   0.847E-02    0.865E-02
DAV:   6    -0.387747267106E+03    0.13932E-04   -0.30063E-04 48072   0.509E-02    0.183E-02
DAV:   7    -0.387747270617E+03   -0.35106E-05   -0.76396E-05 42080   0.227E-02
  79 F= -.38774727E+03 E0= -.38774727E+03  d E =-.194337E-02  mag=    60.0000
       N       E                     dE             d eps       ncg     rms          rms(c)
DAV:   1    -0.387233776154E+03    0.51349E+00   -0.76385E+01 41864   0.265E+01    0.324E+00
DAV:   2    -0.387741021648E+03   -0.50725E+00   -0.48367E+00 38512   0.471E+00    0.156E+00
DAV:   3    -0.387752865337E+03   -0.11844E-01   -0.11053E-01 46944   0.701E-01    0.667E-01
DAV:   4    -0.387751150459E+03    0.17149E-02   -0.92571E-03 54312   0.196E-01    0.468E-01
DAV:   5    -0.387749058317E+03    0.20921E-02   -0.18265E-03 47952   0.212E-01    0.189E-01
DAV:   6    -0.387748992464E+03    0.65853E-04   -0.19675E-03 48616   0.127E-01    0.467E-02
DAV:   7    -0.387749017910E+03   -0.25447E-04   -0.45148E-04 45184   0.514E-02    0.376E-02
DAV:   8    -0.387749009935E+03    0.79749E-05   -0.29766E-05 36288   0.167E-02
  80 F= -.38774901E+03 E0= -.38774901E+03  d E =-.173932E-02  mag=    60.0000
       N       E                     dE             d eps       ncg     rms          rms(c)
DAV:   1    -0.385494673778E+03    0.22543E+01   -0.36074E+02 41480   0.549E+01    0.653E+00
DAV:   2    -0.387742725550E+03   -0.22481E+01   -0.22133E+01 38504   0.101E+01    0.333E+00
DAV:   3    -0.387772507112E+03   -0.29782E-01   -0.44268E-01 45224   0.153E+00    0.152E+00
DAV:   4    -0.387762321910E+03    0.10185E-01   -0.52468E-02 50136   0.496E-01    0.104E+00
DAV:   5    -0.387754022100E+03    0.82998E-02   -0.73241E-03 47024   0.369E-01    0.470E-01
DAV:   6    -0.387753153780E+03    0.86832E-03   -0.79688E-03 48248   0.240E-01    0.117E-01
DAV:   7    -0.387753244307E+03   -0.90527E-04   -0.16070E-03 44928   0.964E-02    0.727E-02
DAV:   8    -0.387753231036E+03    0.13271E-04   -0.27261E-04 47792   0.433E-02    0.441E-02
DAV:   9    -0.387753217183E+03    0.13853E-04   -0.25620E-05 36232   0.273E-02    0.207E-02
DAV:  10    -0.387753214837E+03    0.23460E-05   -0.39059E-05 39264   0.222E-02
  81 F= -.38775321E+03 E0= -.38775321E+03  d E =-.420490E-02  mag=    60.0000
       N       E                     dE             d eps       ncg     rms          rms(c)
DAV:   1    -0.381927864202E+03    0.58254E+01   -0.28955E+02 43592   0.744E+01    0.130E+01
DAV:   2    -0.387259119919E+03   -0.53313E+01   -0.48432E+01 39592   0.136E+01    0.895E+00
DAV:   3    -0.387498073255E+03   -0.23895E+00   -0.17640E+00 43544   0.293E+00    0.283E+00
DAV:   4    -0.387484302578E+03    0.13771E-01   -0.10055E-01 53424   0.853E-01    0.200E+00
DAV:   5    -0.387461477062E+03    0.22826E-01   -0.11281E-02 50928   0.717E-01    0.123E+00
DAV:   6    -0.387438397638E+03    0.23079E-01   -0.20163E-02 52600   0.137E+00    0.210E-01
DAV:   7    -0.387439461445E+03   -0.10638E-02   -0.41703E-02 44760   0.501E-01    0.225E-01
DAV:   8    -0.387439210080E+03    0.25136E-03   -0.52348E-03 48216   0.151E-01    0.165E-01
DAV:   9    -0.387438527202E+03    0.68288E-03   -0.80295E-04 50200   0.974E-02    0.105E-01
DAV:  10    -0.387437541457E+03    0.98574E-03   -0.76554E-04 53848   0.287E-01    0.703E-02
DAV:  11    -0.387437382882E+03    0.15858E-03   -0.99320E-04 46992   0.152E-01    0.730E-02
DAV:  12    -0.387437448870E+03   -0.65988E-04   -0.12040E-03 43192   0.706E-02    0.353E-02
DAV:  13    -0.387437444870E+03    0.39993E-05   -0.85215E-05 49416   0.196E-02
  82 F= -.38743744E+03 E0= -.38743744E+03  d E =0.315770E+00  mag=    60.0000
       N       E                     dE             d eps       ncg     rms          rms(c)
DAV:   1    -0.386483174842E+03    0.95427E+00   -0.64654E+01 44744   0.361E+01    0.607E+00
DAV:   2    -0.387683716615E+03   -0.12005E+01   -0.10740E+01 39648   0.630E+00    0.317E+00
DAV:   3    -0.387737487258E+03   -0.53771E-01   -0.39632E-01 44384   0.143E+00    0.108E+00
DAV:   4    -0.387732773576E+03    0.47137E-02   -0.30080E-02 52184   0.467E-01    0.738E-01
DAV:   5    -0.387724260947E+03    0.85126E-02   -0.29109E-03 55736   0.533E-01    0.374E-01
DAV:   6    -0.387718795342E+03    0.54656E-02   -0.62657E-03 51016   0.692E-01    0.105E-01
DAV:   7    -0.387718977496E+03   -0.18215E-03   -0.11778E-02 44992   0.287E-01    0.107E-01
DAV:   8    -0.387718885777E+03    0.91719E-04   -0.17938E-03 47248   0.925E-02    0.835E-02
DAV:   9    -0.387718629982E+03    0.25579E-03   -0.18343E-04 49576   0.753E-02    0.533E-02
DAV:  10    -0.387718307209E+03    0.32277E-03   -0.22707E-04 55104   0.191E-01    0.299E-02
DAV:  11    -0.387718287161E+03    0.20048E-04   -0.39310E-04 45328   0.846E-02    0.311E-02
DAV:  12    -0.387718311876E+03   -0.24714E-04   -0.32695E-04 42688   0.351E-02    0.176E-02
DAV:  13    -0.387718310738E+03    0.11377E-05   -0.14329E-05 30488   0.191E-02
  83 F= -.38771831E+03 E0= -.38771831E+03  d E =-.280866E+00  mag=    60.0000
       N       E                     dE             d eps       ncg     rms          rms(c)
DAV:   1    -0.387298432277E+03    0.41988E+00   -0.24836E+01 42800   0.219E+01    0.360E+00
DAV:   2    -0.387745568546E+03   -0.44714E+00   -0.40458E+00 39592   0.388E+00    0.167E+00
DAV:   3    -0.387765892048E+03   -0.20324E-01   -0.14861E-01 44160   0.863E-01    0.644E-01
DAV:   4    -0.387764583326E+03    0.13087E-02   -0.10206E-02 51328   0.258E-01    0.470E-01
DAV:   5    -0.387762039357E+03    0.25440E-02   -0.89149E-04 54288   0.275E-01    0.274E-01
DAV:   6    -0.387760053161E+03    0.19862E-02   -0.20060E-03 52016   0.442E-01    0.667E-02
DAV:   7    -0.387760059604E+03   -0.64436E-05   -0.37433E-03 44744   0.180E-01    0.623E-02
DAV:   8    -0.387760068525E+03   -0.89205E-05   -0.85381E-04 45552   0.636E-02    0.526E-02
DAV:   9    -0.387760019684E+03    0.48841E-04   -0.79991E-05 43480   0.285E-02    0.345E-02
DAV:  10    -0.387759918309E+03    0.10137E-03   -0.39060E-05 41192   0.952E-02    0.148E-02
DAV:  11    -0.387759885965E+03    0.32344E-04   -0.80998E-05 44880   0.796E-02    0.173E-02
DAV:  12    -0.387759896126E+03   -0.10161E-04   -0.15335E-04 43224   0.280E-02    0.918E-03
DAV:  13    -0.387759897591E+03   -0.14653E-05   -0.13615E-05 24640   0.706E-03
  84 F= -.38775990E+03 E0= -.38775990E+03  d E =-.415869E-01  mag=    60.0000
       N       E                     dE             d eps       ncg     rms          rms(c)
DAV:   1    -0.387738192447E+03    0.21704E-01   -0.21521E+00 42120   0.535E+00    0.753E-01
DAV:   2    -0.387761138673E+03   -0.22946E-01   -0.21317E-01 39280   0.951E-01    0.330E-01
DAV:   3    -0.387761972032E+03   -0.83336E-03   -0.62238E-03 45520   0.162E-01    0.140E-01
DAV:   4    -0.387761928475E+03    0.43556E-04   -0.43775E-04 55640   0.399E-02    0.107E-01
DAV:   5    -0.387761835896E+03    0.92579E-04   -0.56241E-05 39080   0.439E-02    0.563E-02
DAV:   6    -0.387761812621E+03    0.23275E-04   -0.87137E-05 47296   0.428E-02    0.106E-02
DAV:   7    -0.387761815745E+03   -0.31238E-05   -0.58179E-05 41856   0.186E-02
  85 F= -.38776182E+03 E0= -.38776182E+03  d E =-.191815E-02  mag=    60.0000
       N       E                     dE             d eps       ncg     rms          rms(c)
DAV:   1    -0.387715669141E+03    0.46143E-01   -0.53902E+00 41600   0.776E+00    0.104E+00
DAV:   2    -0.387762068160E+03   -0.46399E-01   -0.43862E-01 38800   0.138E+00    0.453E-01
DAV:   3    -0.387763577524E+03   -0.15094E-02   -0.12136E-02 46272   0.228E-01    0.199E-01
DAV:   4    -0.387763460082E+03    0.11744E-03   -0.87466E-04 57000   0.584E-02    0.152E-01
DAV:   5    -0.387763252845E+03    0.20724E-03   -0.13727E-04 44648   0.690E-02    0.734E-02
DAV:   6    -0.387763218994E+03    0.33852E-04   -0.18444E-04 49096   0.581E-02    0.153E-02
DAV:   7    -0.387763225274E+03   -0.62808E-05   -0.11192E-04 44424   0.262E-02    0.153E-02
DAV:   8    -0.387763224138E+03    0.11367E-05   -0.56468E-06 21632   0.631E-03
  86 F= -.38776322E+03 E0= -.38776322E+03  d E =-.140839E-02  mag=    60.0000
       N       E                     dE             d eps       ncg     rms          rms(c)
DAV:   1    -0.387756731677E+03    0.64936E-02   -0.95024E-01 42024   0.303E+00    0.379E-01
DAV:   2    -0.387763442126E+03   -0.67104E-02   -0.63651E-02 38984   0.534E-01    0.172E-01
DAV:   3    -0.387763616671E+03   -0.17454E-03   -0.15404E-03 46312   0.822E-02    0.748E-02
DAV:   4    -0.387763594764E+03    0.21907E-04   -0.11901E-04 51120   0.227E-02    0.538E-02
DAV:   5    -0.387763563080E+03    0.31683E-04   -0.23771E-05 36768   0.292E-02    0.222E-02
DAV:   6    -0.387763561005E+03    0.20757E-05   -0.30235E-05 40056   0.198E-02
  87 F= -.38776356E+03 E0= -.38776356E+03  d E =-.336867E-03  mag=    60.0000
