       N       E                     dE             d eps       ncg     rms          rms(c)
DAV:   1     0.372254714555E+04    0.37225E+04   -0.15263E+05 28568   0.153E+03
DAV:   2     0.228267135756E+03   -0.34943E+04   -0.33389E+04 28032   0.470E+02
DAV:   3    -0.217390352025E+03   -0.44566E+03   -0.43420E+03 30928   0.176E+02
DAV:   4    -0.238186192282E+03   -0.20796E+02   -0.20359E+02 36992   0.412E+01
DAV:   5    -0.239503382830E+03   -0.13172E+01   -0.12976E+01 49408   0.776E+00    0.498E+01
DAV:   6    -0.220011957007E+03    0.19491E+02   -0.14709E+02 38960   0.378E+01    0.257E+01
DAV:   7    -0.223139726738E+03   -0.31278E+01   -0.12738E+01 37744   0.154E+01    0.216E+01
DAV:   8    -0.222506356133E+03    0.63337E+00   -0.30528E+00 38464   0.742E+00    0.129E+01
DAV:   9    -0.222972568989E+03   -0.46621E+00   -0.20218E+00 38144   0.522E+00    0.116E+01
DAV:  10    -0.222993657184E+03   -0.21088E-01   -0.38960E+00 37664   0.499E+00    0.886E+00
DAV:  11    -0.222962156667E+03    0.31501E-01   -0.13170E+00 38256   0.333E+00    0.709E+00
DAV:  12    -0.222863030902E+03    0.99126E-01   -0.49322E-01 38360   0.235E+00    0.575E+00
DAV:  13    -0.222810288437E+03    0.52742E-01   -0.21306E-01 38816   0.157E+00    0.279E+00
DAV:  14    -0.222815207787E+03   -0.49193E-02   -0.11561E-01 38640   0.102E+00    0.200E+00
DAV:  15    -0.222815046537E+03    0.16125E-03   -0.13998E-02 37744   0.592E-01    0.148E+00
DAV:  16    -0.222812372688E+03    0.26738E-02   -0.11755E-02 37912   0.533E-01    0.870E-01
DAV:  17    -0.222813307782E+03   -0.93509E-03   -0.67918E-03 37848   0.308E-01    0.673E-01
DAV:  18    -0.222813992692E+03   -0.68491E-03   -0.30420E-03 37496   0.336E-01    0.466E-01
DAV:  19    -0.222814417512E+03   -0.42482E-03   -0.30784E-03 38304   0.267E-01    0.447E-01
DAV:  20    -0.222814253793E+03    0.16372E-03   -0.10923E-03 37512   0.169E-01    0.186E-01
DAV:  21    -0.222814292983E+03   -0.39190E-04   -0.66261E-04 37936   0.878E-02    0.144E-01
DAV:  22    -0.222814319603E+03   -0.26621E-04   -0.51644E-04 35328   0.755E-02    0.148E-01
DAV:  23    -0.222814278494E+03    0.41109E-04   -0.20695E-04 27232   0.531E-02    0.499E-02
DAV:  24    -0.222814276861E+03    0.16335E-05   -0.46812E-05 22984   0.282E-02
   1 F= -.22281428E+03 E0= -.22280306E+03  d E =-.222814E+03  mag=    22.0011
       N       E                     dE             d eps       ncg     rms          rms(c)
DAV:   1    -0.222815278205E+03   -0.99971E-03   -0.29776E-02 31672   0.962E-01    0.868E-02
DAV:   2    -0.222815680227E+03   -0.40202E-03   -0.37821E-03 29104   0.176E-01    0.957E-02
DAV:   3    -0.222815707863E+03   -0.27636E-04   -0.31404E-04 29600   0.582E-02    0.118E-01
DAV:   4    -0.222815690461E+03    0.17401E-04   -0.11964E-04 25896   0.363E-02    0.375E-02
DAV:   5    -0.222815691621E+03   -0.11595E-05   -0.23578E-05 17056   0.167E-02
   2 F= -.22281569E+03 E0= -.22280449E+03  d E =-.141476E-02  mag=    22.0001
       N       E                     dE             d eps       ncg     rms          rms(c)
DAV:   1    -0.222792820042E+03    0.22870E-01   -0.23709E+00 30824   0.851E+00    0.746E-01
DAV:   2    -0.222823221315E+03   -0.30401E-01   -0.28857E-01 28864   0.153E+00    0.627E-01
DAV:   3    -0.222825976229E+03   -0.27549E-02   -0.17961E-02 40056   0.436E-01    0.989E-01
DAV:   4    -0.222824435250E+03    0.15410E-02   -0.68254E-03 38904   0.265E-01    0.224E-01
DAV:   5    -0.222824767425E+03   -0.33217E-03   -0.19811E-03 39288   0.140E-01    0.373E-01
DAV:   6    -0.222824573499E+03    0.19393E-03   -0.17054E-03 38304   0.117E-01    0.158E-01
DAV:   7    -0.222824640921E+03   -0.67422E-04   -0.44034E-04 38256   0.106E-01    0.162E-01
DAV:   8    -0.222824618891E+03    0.22030E-04   -0.23839E-04 33704   0.746E-02    0.839E-02
DAV:   9    -0.222824613442E+03    0.54486E-05   -0.87396E-05 25984   0.426E-02
   3 F= -.22282461E+03 E0= -.22281330E+03  d E =-.892182E-02  mag=    22.0000
       N       E                     dE             d eps       ncg     rms          rms(c)
DAV:   1    -0.222781526899E+03    0.43092E-01   -0.47501E+00 29552   0.110E+01    0.842E-01
DAV:   2    -0.222822870867E+03   -0.41344E-01   -0.40317E-01 27912   0.198E+00    0.533E-01
DAV:   3    -0.222825996123E+03   -0.31253E-02   -0.13887E-02 39656   0.436E-01    0.882E-01
DAV:   4    -0.222824697624E+03    0.12985E-02   -0.58565E-03 38768   0.270E-01    0.253E-01
DAV:   5    -0.222824913027E+03   -0.21540E-03   -0.12347E-03 40632   0.151E-01    0.345E-01
DAV:   6    -0.222824819722E+03    0.93304E-04   -0.25263E-03 38856   0.141E-01    0.265E-01
DAV:   7    -0.222824833415E+03   -0.13693E-04   -0.14701E-03 38472   0.130E-01    0.203E-01
DAV:   8    -0.222824799214E+03    0.34202E-04   -0.30644E-04 37920   0.852E-02    0.746E-02
DAV:   9    -0.222824793880E+03    0.53333E-05   -0.33834E-05 26024   0.430E-02
   4 F= -.22282479E+03 E0= -.22281341E+03  d E =-.180438E-03  mag=    22.0000
       N       E                     dE             d eps       ncg     rms          rms(c)
DAV:   1    -0.222793795931E+03    0.31003E-01   -0.55880E+00 28776   0.913E+00    0.610E-01
DAV:   2    -0.222817321963E+03   -0.23526E-01   -0.25011E-01 27816   0.161E+00    0.365E-01
DAV:   3    -0.222818490561E+03   -0.11686E-02   -0.97425E-03 39184   0.329E-01    0.709E-01
DAV:   4    -0.222817593655E+03    0.89691E-03   -0.58280E-03 41008   0.215E-01    0.222E-01
DAV:   5    -0.222817852750E+03   -0.25909E-03   -0.22867E-03 40200   0.150E-01    0.424E-01
DAV:   6    -0.222817526704E+03    0.32605E-03   -0.22711E-03 38968   0.136E-01    0.181E-01
DAV:   7    -0.222817537623E+03   -0.10919E-04   -0.32479E-04 39176   0.953E-02    0.109E-01
DAV:   8    -0.222817544540E+03   -0.69174E-05   -0.13997E-04 29056   0.556E-02    0.780E-02
DAV:   9    -0.222817536170E+03    0.83705E-05   -0.48597E-05 23360   0.330E-02
   5 F= -.22281754E+03 E0= -.22280617E+03  d E =0.725771E-02  mag=    22.0000
       N       E                     dE             d eps       ncg     rms          rms(c)
DAV:   1    -0.219755727882E+03    0.30618E+01   -0.45179E+02 28800   0.858E+01    0.596E+00
DAV:   2    -0.222630731582E+03   -0.28750E+01   -0.29818E+01 27808   0.161E+01    0.391E+00
DAV:   3    -0.222731913183E+03   -0.10118E+00   -0.93581E-01 39336   0.345E+00    0.718E+00
DAV:   4    -0.222660631328E+03    0.71282E-01   -0.82795E-01 41184   0.183E+00    0.266E+00
DAV:   5    -0.222672050126E+03   -0.11419E-01   -0.21846E-01 39440   0.122E+00    0.332E+00
DAV:   6    -0.222662537149E+03    0.95130E-02   -0.23003E-01 38112   0.120E+00    0.312E+00
DAV:   7    -0.222646998833E+03    0.15538E-01   -0.84138E-02 39792   0.859E-01    0.104E+00
DAV:   8    -0.222649444303E+03   -0.24455E-02   -0.13276E-02 41008   0.464E-01    0.745E-01
DAV:   9    -0.222649517089E+03   -0.72786E-04   -0.46102E-03 38984   0.398E-01    0.561E-01
DAV:  10    -0.222649552274E+03   -0.35186E-04   -0.20563E-03 39568   0.217E-01    0.297E-01
DAV:  11    -0.222649588718E+03   -0.36443E-04   -0.69217E-04 39728   0.153E-01    0.214E-01
DAV:  12    -0.222649554124E+03    0.34594E-04   -0.36549E-04 38048   0.917E-02    0.928E-02
DAV:  13    -0.222649567887E+03   -0.13762E-04   -0.13245E-04 32568   0.448E-02    0.662E-02
DAV:  14    -0.222649585174E+03   -0.17288E-04   -0.71804E-05 26688   0.430E-02    0.605E-02
DAV:  15    -0.222649587151E+03   -0.19768E-05   -0.20815E-05 23536   0.326E-02
   6 F= -.22264959E+03 E0= -.22263808E+03  d E =0.167949E+00  mag=    22.0000
       N       E                     dE             d eps       ncg     rms          rms(c)
DAV:   1    -0.215554996522E+03    0.70946E+01   -0.46679E+02 30832   0.109E+02    0.161E+01
DAV:   2    -0.242611398405E+03   -0.27056E+02   -0.12030E+02 35984   0.284E+01    0.709E+01
DAV:   3    -0.220807173182E+03    0.21804E+02   -0.31586E+01 37088   0.182E+01    0.166E+01
DAV:   4    -0.221891043098E+03   -0.10839E+01   -0.19060E+00 36968   0.505E+00    0.102E+01
DAV:   5    -0.222047677760E+03   -0.15663E+00   -0.10477E+00 37776   0.296E+00    0.709E+00
DAV:   6    -0.222118715670E+03   -0.71038E-01   -0.66201E-01 38184   0.194E+00    0.711E+00
DAV:   7    -0.222110632664E+03    0.80830E-02   -0.31630E-01 37952   0.163E+00    0.461E+00
DAV:   8    -0.222094869717E+03    0.15763E-01   -0.52323E-02 37976   0.130E+00    0.300E+00
DAV:   9    -0.222104212456E+03   -0.93427E-02   -0.15629E-01 39304   0.121E+00    0.448E+00
DAV:  10    -0.222072502454E+03    0.31710E-01   -0.17307E-01 38480   0.103E+00    0.137E+00
DAV:  11    -0.222075537474E+03   -0.30350E-02   -0.19111E-02 37904   0.583E-01    0.104E+00
DAV:  12    -0.222076386089E+03   -0.84861E-03   -0.61365E-03 38104   0.394E-01    0.848E-01
DAV:  13    -0.222076931957E+03   -0.54587E-03   -0.51768E-03 38416   0.325E-01    0.788E-01
DAV:  14    -0.222076733047E+03    0.19891E-03   -0.50335E-03 38848   0.300E-01    0.454E-01
DAV:  15    -0.222076771800E+03   -0.38753E-04   -0.15469E-03 38952   0.198E-01    0.203E-01
DAV:  16    -0.222076739262E+03    0.32538E-04   -0.51106E-04 38056   0.116E-01    0.120E-01
DAV:  17    -0.222076695483E+03    0.43780E-04   -0.13957E-04 33672   0.566E-02    0.721E-02
DAV:  18    -0.222076706361E+03   -0.10878E-04   -0.87254E-05 28352   0.335E-02    0.461E-02
DAV:  19    -0.222076708730E+03   -0.23688E-05   -0.23438E-05 23000   0.206E-02
   7 F= -.22207671E+03 E0= -.22206663E+03  d E =0.572878E+00  mag=    22.0006
       N       E                     dE             d eps       ncg     rms          rms(c)
DAV:   1    -0.221132718543E+03    0.94399E+00   -0.89284E+01 30488   0.511E+01    0.520E+00
DAV:   2    -0.222564967717E+03   -0.14322E+01   -0.13311E+01 28352   0.101E+01    0.700E+00
DAV:   3    -0.222582782504E+03   -0.17815E-01   -0.17607E+00 38192   0.326E+00    0.579E+00
DAV:   4    -0.222555492936E+03    0.27290E-01   -0.37519E-01 39096   0.182E+00    0.297E+00
DAV:   5    -0.222554066894E+03    0.14260E-02   -0.12147E-01 39304   0.111E+00    0.213E+00
DAV:   6    -0.222554354692E+03   -0.28780E-03   -0.45049E-02 38512   0.748E-01    0.137E+00
DAV:   7    -0.222556319688E+03   -0.19650E-02   -0.35501E-02 39448   0.598E-01    0.132E+00
DAV:   8    -0.222556283617E+03    0.36071E-04   -0.39417E-02 38392   0.553E-01    0.117E+00
DAV:   9    -0.222554727557E+03    0.15561E-02   -0.15148E-02 39160   0.458E-01    0.551E-01
DAV:  10    -0.222556013988E+03   -0.12864E-02   -0.33483E-03 38656   0.284E-01    0.537E-01
DAV:  11    -0.222555746779E+03    0.26721E-03   -0.19887E-03 38488   0.225E-01    0.300E-01
DAV:  12    -0.222555716271E+03    0.30508E-04   -0.13205E-03 39032   0.102E-01    0.149E-01
DAV:  13    -0.222555684638E+03    0.31633E-04   -0.15536E-04 32624   0.634E-02    0.836E-02
DAV:  14    -0.222555670961E+03    0.13677E-04   -0.50765E-05 26096   0.374E-02    0.652E-02
DAV:  15    -0.222555658331E+03    0.12630E-04   -0.44586E-05 25088   0.319E-02    0.369E-02
DAV:  16    -0.222555656528E+03    0.18023E-05   -0.24000E-05 22528   0.250E-02
   8 F= -.22255566E+03 E0= -.22254508E+03  d E =-.478948E+00  mag=    22.0000
       N       E                     dE             d eps       ncg     rms          rms(c)
DAV:   1    -0.221891209302E+03    0.66445E+00   -0.51706E+01 30696   0.382E+01    0.396E+00
DAV:   2    -0.222694070612E+03   -0.80286E+00   -0.74516E+00 28768   0.737E+00    0.532E+00
DAV:   3    -0.222708088777E+03   -0.14018E-01   -0.10401E+00 37712   0.256E+00    0.451E+00
DAV:   4    -0.222691285278E+03    0.16803E-01   -0.15811E-01 39208   0.139E+00    0.226E+00
DAV:   5    -0.222690740316E+03    0.54496E-03   -0.77320E-02 38320   0.808E-01    0.144E+00
DAV:   6    -0.222691446368E+03   -0.70605E-03   -0.24173E-02 37976   0.518E-01    0.978E-01
DAV:   7    -0.222692227419E+03   -0.78105E-03   -0.11687E-02 37872   0.468E-01    0.810E-01
DAV:   8    -0.222691941239E+03    0.28618E-03   -0.61965E-03 38416   0.386E-01    0.543E-01
DAV:   9    -0.222692239296E+03   -0.29806E-03   -0.25319E-03 39208   0.305E-01    0.395E-01
DAV:  10    -0.222692336860E+03   -0.97565E-04   -0.11266E-03 38616   0.191E-01    0.212E-01
DAV:  11    -0.222692379078E+03   -0.42218E-04   -0.11801E-03 39144   0.113E-01    0.203E-01
DAV:  12    -0.222692308353E+03    0.70724E-04   -0.30824E-04 32288   0.717E-02    0.788E-02
DAV:  13    -0.222692306861E+03    0.14925E-05   -0.53598E-05 26272   0.392E-02
   9 F= -.22269231E+03 E0= -.22268133E+03  d E =-.136650E+00  mag=    22.0000
       N       E                     dE             d eps       ncg     rms          rms(c)
DAV:   1    -0.222658368927E+03    0.33939E-01   -0.24378E+00 29480   0.769E+00    0.692E-01
DAV:   2    -0.222682895942E+03   -0.24527E-01   -0.23855E-01 27976   0.141E+00    0.817E-01
DAV:   3    -0.222684860210E+03   -0.19643E-02   -0.33779E-02 39352   0.472E-01    0.109E+00
DAV:   4    -0.222683268161E+03    0.15920E-02   -0.96801E-03 39368   0.270E-01    0.258E-01
DAV:   5    -0.222683585014E+03   -0.31685E-03   -0.12575E-03 39536   0.146E-01    0.349E-01
DAV:   6    -0.222683453834E+03    0.13118E-03   -0.14313E-03 38288   0.139E-01    0.198E-01
DAV:   7    -0.222683478041E+03   -0.24207E-04   -0.40173E-04 38568   0.108E-01    0.134E-01
DAV:   8    -0.222683466812E+03    0.11229E-04   -0.14030E-04 32992   0.698E-02    0.719E-02
DAV:   9    -0.222683459684E+03    0.71283E-05   -0.33933E-05 24864   0.402E-02
  10 F= -.22268346E+03 E0= -.22267256E+03  d E =0.884718E-02  mag=    22.0000
       N       E                     dE             d eps       ncg     rms          rms(c)
DAV:   1    -0.222593932091E+03    0.89535E-01   -0.70002E+00 28880   0.113E+01    0.949E-01
DAV:   2    -0.222641458726E+03   -0.47527E-01   -0.50331E-01 27800   0.215E+00    0.103E+00
DAV:   3    -0.222643797492E+03   -0.23388E-02   -0.49869E-02 40496   0.631E-01    0.123E+00
DAV:   4    -0.222641632196E+03    0.21653E-02   -0.17706E-02 39376   0.368E-01    0.633E-01
DAV:   5    -0.222641410651E+03    0.22155E-03   -0.72390E-03 40208   0.219E-01    0.462E-01
DAV:   6    -0.222641185680E+03    0.22497E-03   -0.16141E-03 38176   0.203E-01    0.303E-01
DAV:   7    -0.222641153539E+03    0.32141E-04   -0.11321E-03 39512   0.166E-01    0.222E-01
DAV:   8    -0.222641121333E+03    0.32207E-04   -0.78626E-04 38160   0.104E-01    0.148E-01
DAV:   9    -0.222641105341E+03    0.15992E-04   -0.14536E-04 28872   0.547E-02    0.471E-02
DAV:  10    -0.222641105081E+03    0.25968E-06   -0.19982E-05 22304   0.294E-02
  11 F= -.22264111E+03 E0= -.22263039E+03  d E =0.423546E-01  mag=    22.0000
       N       E                     dE             d eps       ncg     rms          rms(c)
DAV:   1    -0.222585083373E+03    0.56022E-01   -0.33518E+00 29216   0.763E+00    0.633E-01
DAV:   2    -0.222605671492E+03   -0.20588E-01   -0.22271E-01 27784   0.141E+00    0.595E-01
DAV:   3    -0.222606750987E+03   -0.10795E-02   -0.18182E-02 40760   0.418E-01    0.785E-01
DAV:   4    -0.222605667914E+03    0.10831E-02   -0.64947E-03 39184   0.246E-01    0.340E-01
DAV:   5    -0.222605698789E+03   -0.30875E-04   -0.32488E-03 41152   0.145E-01    0.315E-01
DAV:   6    -0.222605520726E+03    0.17806E-03   -0.94822E-04 37672   0.118E-01    0.141E-01
DAV:   7    -0.222605523891E+03   -0.31644E-05   -0.23869E-04 40064   0.959E-02    0.913E-02
DAV:   8    -0.222605530034E+03   -0.61436E-05   -0.12838E-04 28568   0.524E-02    0.692E-02
DAV:   9    -0.222605524314E+03    0.57201E-05   -0.52711E-05 23408   0.320E-02
  12 F= -.22260552E+03 E0= -.22259496E+03  d E =0.355808E-01  mag=    22.0000
       N       E                     dE             d eps       ncg     rms          rms(c)
DAV:   1    -0.222246702363E+03    0.35883E+00   -0.40364E+01 29368   0.256E+01    0.196E+00
DAV:   2    -0.222479997636E+03   -0.23330E+00   -0.24891E+00 27776   0.462E+00    0.133E+00
DAV:   3    -0.222491896440E+03   -0.11899E-01   -0.10953E-01 41640   0.112E+00    0.207E+00
DAV:   4    -0.222482667715E+03    0.92287E-02   -0.27396E-02 39272   0.706E-01    0.631E-01
DAV:   5    -0.222485992364E+03   -0.33246E-02   -0.33077E-02 41392   0.455E-01    0.150E+00
DAV:   6    -0.222481671239E+03    0.43211E-02   -0.18881E-02 39480   0.399E-01    0.357E-01
DAV:   7    -0.222482506823E+03   -0.83558E-03   -0.43730E-03 40312   0.248E-01    0.478E-01
DAV:   8    -0.222482187863E+03    0.31896E-03   -0.20035E-03 39312   0.163E-01    0.136E-01
DAV:   9    -0.222482206721E+03   -0.18858E-04   -0.15410E-04 37408   0.770E-02    0.741E-02
DAV:  10    -0.222482200809E+03    0.59124E-05   -0.67770E-05 25848   0.377E-02
  13 F= -.22248220E+03 E0= -.22247197E+03  d E =0.123324E+00  mag=    22.0000
       N       E                     dE             d eps       ncg     rms          rms(c)
DAV:   1    -0.218889677999E+03    0.35925E+01   -0.30597E+02 29336   0.777E+01    0.806E+00
DAV:   2    -0.222857671034E+03   -0.39680E+01   -0.40678E+01 29256   0.180E+01    0.129E+01
DAV:   3    -0.222629759572E+03    0.22791E+00   -0.27775E+00 38536   0.576E+00    0.970E+00
DAV:   4    -0.222481104643E+03    0.14865E+00   -0.14203E+00 40424   0.253E+00    0.591E+00
DAV:   5    -0.222448926339E+03    0.32178E-01   -0.24590E-01 39064   0.183E+00    0.464E+00
DAV:   6    -0.222423017965E+03    0.25908E-01   -0.11052E-01 39688   0.159E+00    0.322E+00
DAV:   7    -0.222422152289E+03    0.86568E-03   -0.10625E-01 38960   0.127E+00    0.284E+00
DAV:   8    -0.222426016553E+03   -0.38643E-02   -0.19781E-01 39800   0.112E+00    0.276E+00
DAV:   9    -0.222424377201E+03    0.16394E-02   -0.13366E-01 38248   0.966E-01    0.237E+00
DAV:  10    -0.222419311788E+03    0.50654E-02   -0.52987E-02 39392   0.784E-01    0.121E+00
DAV:  11    -0.222419286237E+03    0.25551E-04   -0.10503E-02 38344   0.479E-01    0.640E-01
DAV:  12    -0.222418914545E+03    0.37169E-03   -0.32307E-03 39368   0.246E-01    0.295E-01
DAV:  13    -0.222418830608E+03    0.83937E-04   -0.51080E-04 37944   0.116E-01    0.207E-01
DAV:  14    -0.222418795175E+03    0.35434E-04   -0.49159E-04 38360   0.883E-02    0.145E-01
DAV:  15    -0.222418832361E+03   -0.37186E-04   -0.40726E-04 32832   0.635E-02    0.931E-02
DAV:  16    -0.222418832922E+03   -0.56103E-06   -0.10924E-04 26424   0.350E-02    0.498E-02
DAV:  17    -0.222418828673E+03    0.42489E-05   -0.16465E-05 19408   0.195E-02
  14 F= -.22241883E+03 E0= -.22240754E+03  d E =0.633721E-01  mag=    22.0000
       N       E                     dE             d eps       ncg     rms          rms(c)
DAV:   1    -0.221363352673E+03    0.10555E+01   -0.10237E+02 29368   0.454E+01    0.453E+00
DAV:   2    -0.222531832044E+03   -0.11685E+01   -0.11449E+01 27728   0.902E+00    0.579E+00
DAV:   3    -0.222568286143E+03   -0.36454E-01   -0.11988E+00 39096   0.288E+00    0.521E+00
DAV:   4    -0.222552359628E+03    0.15927E-01   -0.41337E-01 39704   0.163E+00    0.375E+00
DAV:   5    -0.222529424562E+03    0.22935E-01   -0.10228E-01 39168   0.100E+00    0.168E+00
DAV:   6    -0.222533479812E+03   -0.40553E-02   -0.26912E-02 39912   0.751E-01    0.156E+00
DAV:   7    -0.222532748300E+03    0.73151E-03   -0.37996E-02 39248   0.680E-01    0.133E+00
DAV:   8    -0.222531442347E+03    0.13060E-02   -0.14561E-02 38816   0.606E-01    0.102E+00
DAV:   9    -0.222531713938E+03   -0.27159E-03   -0.13856E-02 39760   0.416E-01    0.628E-01
DAV:  10    -0.222531542501E+03    0.17144E-03   -0.67548E-03 39360   0.288E-01    0.476E-01
DAV:  11    -0.222531340574E+03    0.20193E-03   -0.15250E-03 38600   0.169E-01    0.180E-01
DAV:  12    -0.222531325576E+03    0.14998E-04   -0.32208E-04 37920   0.940E-02    0.990E-02
DAV:  13    -0.222531328468E+03   -0.28924E-05   -0.86069E-05 27232   0.507E-02
  15 F= -.22253133E+03 E0= -.22252067E+03  d E =-.112500E+00  mag=    22.0000
       N       E                     dE             d eps       ncg     rms          rms(c)
DAV:   1    -0.222293738186E+03    0.23759E+00   -0.19340E+01 29312   0.200E+01    0.202E+00
DAV:   2    -0.222507985811E+03   -0.21425E+00   -0.20678E+00 27856   0.389E+00    0.288E+00
DAV:   3    -0.222511191607E+03   -0.32058E-02   -0.24145E-01 39112   0.133E+00    0.243E+00
DAV:   4    -0.222508552141E+03    0.26395E-02   -0.78457E-02 39968   0.723E-01    0.142E+00
DAV:   5    -0.222506372231E+03    0.21799E-02   -0.16861E-02 39128   0.442E-01    0.660E-01
DAV:   6    -0.222507034329E+03   -0.66210E-03   -0.32476E-03 38464   0.309E-01    0.588E-01
DAV:   7    -0.222506722619E+03    0.31171E-03   -0.26304E-03 38976   0.310E-01    0.363E-01
DAV:   8    -0.222506961597E+03   -0.23898E-03   -0.19218E-03 38864   0.197E-01    0.313E-01
DAV:   9    -0.222506830109E+03    0.13149E-03   -0.53469E-04 38792   0.124E-01    0.905E-02
DAV:  10    -0.222506842201E+03   -0.12092E-04   -0.10517E-04 31952   0.456E-02    0.358E-02
DAV:  11    -0.222506843513E+03   -0.13115E-05   -0.17787E-05 23616   0.267E-02
  16 F= -.22250684E+03 E0= -.22249643E+03  d E =0.244850E-01  mag=    22.0000
       N       E                     dE             d eps       ncg     rms          rms(c)
DAV:   1    -0.222424275903E+03    0.82566E-01   -0.50581E+00 29208   0.108E+01    0.999E-01
DAV:   2    -0.222478495074E+03   -0.54219E-01   -0.52671E-01 28064   0.206E+00    0.128E+00
DAV:   3    -0.222480235782E+03   -0.17407E-02   -0.51534E-02 38976   0.668E-01    0.124E+00
DAV:   4    -0.222479097491E+03    0.11383E-02   -0.20709E-02 39384   0.374E-01    0.629E-01
DAV:   5    -0.222478898003E+03    0.19949E-03   -0.44140E-03 40288   0.206E-01    0.375E-01
DAV:   6    -0.222478873825E+03    0.24177E-04   -0.10249E-03 36624   0.163E-01    0.234E-01
DAV:   7    -0.222478935282E+03   -0.61456E-04   -0.64440E-04 38640   0.161E-01    0.179E-01
DAV:   8    -0.222478931440E+03    0.38417E-05   -0.28644E-04 37712   0.919E-02    0.107E-01
DAV:   9    -0.222478914266E+03    0.17174E-04   -0.88055E-05 27824   0.499E-02    0.413E-02
DAV:  10    -0.222478912222E+03    0.20436E-05   -0.13452E-05 21224   0.254E-02
  17 F= -.22247891E+03 E0= -.22246861E+03  d E =0.279313E-01  mag=    22.0000
       N       E                     dE             d eps       ncg     rms          rms(c)
DAV:   1    -0.222394326612E+03    0.84588E-01   -0.49106E+00 29088   0.102E+01    0.842E-01
DAV:   2    -0.222434997448E+03   -0.40671E-01   -0.41267E-01 27920   0.190E+00    0.522E-01
DAV:   3    -0.222436960127E+03   -0.19627E-02   -0.97235E-03 39904   0.413E-01    0.613E-01
DAV:   4    -0.222436382493E+03    0.57763E-03   -0.37700E-03 39048   0.261E-01    0.314E-01
DAV:   5    -0.222436425747E+03   -0.43254E-04   -0.11850E-03 40488   0.175E-01    0.325E-01
DAV:   6    -0.222436310282E+03    0.11546E-03   -0.14722E-03 39200   0.158E-01    0.226E-01
DAV:   7    -0.222436370451E+03   -0.60169E-04   -0.18035E-03 39248   0.116E-01    0.243E-01
DAV:   8    -0.222436298052E+03    0.72400E-04   -0.62602E-04 32808   0.789E-02    0.771E-02
DAV:   9    -0.222436299370E+03   -0.13182E-05   -0.75597E-05 25264   0.356E-02
  18 F= -.22243630E+03 E0= -.22242616E+03  d E =0.426129E-01  mag=    22.0000
       N       E                     dE             d eps       ncg     rms          rms(c)
DAV:   1    -0.222408231051E+03    0.28067E-01   -0.14417E+00 30152   0.494E+00    0.380E-01
DAV:   2    -0.222416774050E+03   -0.85430E-02   -0.86252E-02 28392   0.898E-01    0.482E-01
DAV:   3    -0.222416989763E+03   -0.21571E-03   -0.85004E-03 41648   0.282E-01    0.466E-01
DAV:   4    -0.222416770197E+03    0.21957E-03   -0.32061E-03 40104   0.155E-01    0.261E-01
DAV:   5    -0.222416682175E+03    0.88022E-04   -0.72971E-04 37168   0.822E-02    0.108E-01
DAV:   6    -0.222416667406E+03    0.14769E-04   -0.14819E-04 33952   0.609E-02    0.944E-02
DAV:   7    -0.222416671420E+03   -0.40134E-05   -0.18441E-04 36536   0.633E-02    0.853E-02
DAV:   8    -0.222416667009E+03    0.44109E-05   -0.86092E-05 25760   0.376E-02
  19 F= -.22241667E+03 E0= -.22240657E+03  d E =0.196324E-01  mag=    22.0000
       N       E                     dE             d eps       ncg     rms          rms(c)
DAV:   1    -0.222382762970E+03    0.33908E-01   -0.28197E+00 28592   0.576E+00    0.385E-01
DAV:   2    -0.222393674312E+03   -0.10911E-01   -0.11250E-01 28552   0.101E+00    0.407E-01
DAV:   3    -0.222393967052E+03   -0.29274E-03   -0.66994E-03 42768   0.276E-01    0.446E-01
DAV:   4    -0.222393622150E+03    0.34490E-03   -0.22684E-03 39592   0.153E-01    0.214E-01
DAV:   5    -0.222393587281E+03    0.34870E-04   -0.87929E-04 38408   0.803E-02    0.154E-01
DAV:   6    -0.222393504226E+03    0.83055E-04   -0.28066E-04 33672   0.758E-02    0.916E-02
DAV:   7    -0.222393513061E+03   -0.88352E-05   -0.17899E-04 38232   0.632E-02    0.767E-02
DAV:   8    -0.222393509124E+03    0.39367E-05   -0.82947E-05 27688   0.363E-02
  20 F= -.22239351E+03 E0= -.22238347E+03  d E =0.231579E-01  mag=    22.0000
       N       E                     dE             d eps       ncg     rms          rms(c)
DAV:   1    -0.222378926716E+03    0.14586E-01   -0.14460E+00 29080   0.383E+00    0.227E-01
DAV:   2    -0.222383480095E+03   -0.45534E-02   -0.46094E-02 28480   0.657E-01    0.276E-01
DAV:   3    -0.222383532493E+03   -0.52398E-04   -0.26830E-03 42216   0.173E-01    0.258E-01
DAV:   4    -0.222383428089E+03    0.10440E-03   -0.88372E-04 39064   0.938E-02    0.140E-01
DAV:   5    -0.222383406033E+03    0.22056E-04   -0.28496E-04 30744   0.477E-02    0.899E-02
DAV:   6    -0.222383375001E+03    0.31031E-04   -0.11176E-04 33152   0.506E-02    0.720E-02
DAV:   7    -0.222383375526E+03   -0.52436E-06   -0.10985E-04 35096   0.467E-02    0.609E-02
DAV:   8    -0.222383372034E+03    0.34917E-05   -0.41777E-05 23336   0.278E-02
  21 F= -.22238337E+03 E0= -.22237335E+03  d E =0.101371E-01  mag=    22.0000
       N       E                     dE             d eps       ncg     rms          rms(c)
DAV:   1    -0.222325508529E+03    0.57867E-01   -0.93359E+00 29320   0.987E+00    0.599E-01
DAV:   2    -0.222355686890E+03   -0.30178E-01   -0.30515E-01 27840   0.170E+00    0.617E-01
DAV:   3    -0.222356205233E+03   -0.51834E-03   -0.14104E-02 41048   0.416E-01    0.628E-01
DAV:   4    -0.222355405912E+03    0.79932E-03   -0.32735E-03 39592   0.217E-01    0.266E-01
DAV:   5    -0.222355413483E+03   -0.75701E-05   -0.20654E-03 39696   0.118E-01    0.292E-01
DAV:   6    -0.222355146394E+03    0.26709E-03   -0.10968E-03 35936   0.118E-01    0.137E-01
DAV:   7    -0.222355187786E+03   -0.41392E-04   -0.43614E-04 35704   0.888E-02    0.120E-01
DAV:   8    -0.222355171869E+03    0.15918E-04   -0.18603E-04 34400   0.536E-02    0.483E-02
DAV:   9    -0.222355171846E+03    0.22632E-07   -0.19034E-05 21168   0.272E-02
  22 F= -.22235517E+03 E0= -.22234522E+03  d E =0.282002E-01  mag=    22.0000
       N       E                     dE             d eps       ncg     rms          rms(c)
DAV:   1    -0.222312034339E+03    0.43138E-01   -0.15582E+01 29032   0.125E+01    0.706E-01
DAV:   2    -0.222358626173E+03   -0.46592E-01   -0.46219E-01 27904   0.204E+00    0.428E-01
DAV:   3    -0.222359578802E+03   -0.95263E-03   -0.89206E-03 37232   0.356E-01    0.497E-01
DAV:   4    -0.222359235735E+03    0.34307E-03   -0.38799E-03 43496   0.178E-01    0.301E-01
DAV:   5    -0.222359029594E+03    0.20614E-03   -0.11976E-03 37568   0.138E-01    0.273E-01
DAV:   6    -0.222358865988E+03    0.16361E-03   -0.13630E-03 36736   0.150E-01    0.224E-01
DAV:   7    -0.222358840286E+03    0.25702E-04   -0.80275E-04 37992   0.119E-01    0.118E-01
DAV:   8    -0.222358843389E+03   -0.31026E-05   -0.15395E-04 37424   0.678E-02    0.518E-02
DAV:   9    -0.222358840588E+03    0.28009E-05   -0.19325E-05 23456   0.344E-02
  23 F= -.22235884E+03 E0= -.22234890E+03  d E =-.366874E-02  mag=    22.0000
       N       E                     dE             d eps       ncg     rms          rms(c)
DAV:   1    -0.221889340710E+03    0.46950E+00   -0.15382E+02 29264   0.365E+01    0.207E+00
DAV:   2    -0.222358207771E+03   -0.46887E+00   -0.47905E+00 28120   0.617E+00    0.130E+00
DAV:   3    -0.222357514050E+03    0.69372E-03   -0.87198E-02 37272   0.112E+00    0.117E+00
DAV:   4    -0.222354355766E+03    0.31583E-02   -0.17225E-02 41144   0.474E-01    0.748E-01
DAV:   5    -0.222349923390E+03    0.44324E-02   -0.12536E-02 34960   0.452E-01    0.658E-01
DAV:   6    -0.222349915611E+03    0.77786E-05   -0.15327E-02 36032   0.378E-01    0.694E-01
DAV:   7    -0.222349452822E+03    0.46279E-03   -0.80096E-03 38824   0.270E-01    0.416E-01
DAV:   8    -0.222349276305E+03    0.17652E-03   -0.21901E-03 38696   0.195E-01    0.214E-01
DAV:   9    -0.222349302568E+03   -0.26263E-04   -0.71485E-04 38648   0.126E-01    0.173E-01
DAV:  10    -0.222349274588E+03    0.27980E-04   -0.23218E-04 37240   0.788E-02    0.573E-02
DAV:  11    -0.222349282479E+03   -0.78910E-05   -0.42598E-05 30704   0.388E-02
  24 F= -.22234928E+03 E0= -.22233943E+03  d E =0.955811E-02  mag=    22.0000
       N       E                     dE             d eps       ncg     rms          rms(c)
DAV:   1    -0.221993602165E+03    0.35567E+00   -0.88672E+01 29696   0.327E+01    0.227E+00
DAV:   2    -0.222383045974E+03   -0.38944E+00   -0.38532E+00 27680   0.585E+00    0.217E+00
DAV:   3    -0.222395675777E+03   -0.12630E-01   -0.21268E-01 36816   0.144E+00    0.273E+00
DAV:   4    -0.222384979412E+03    0.10696E-01   -0.82810E-02 38952   0.801E-01    0.121E+00
DAV:   5    -0.222384857996E+03    0.12142E-03   -0.20407E-02 39184   0.413E-01    0.103E+00
DAV:   6    -0.222382862127E+03    0.19959E-02   -0.17294E-02 34728   0.454E-01    0.780E-01
DAV:   7    -0.222382621277E+03    0.24085E-03   -0.12177E-02 39016   0.425E-01    0.736E-01
DAV:   8    -0.222382524503E+03    0.96774E-04   -0.50785E-03 38392   0.321E-01    0.330E-01
DAV:   9    -0.222382500232E+03    0.24271E-04   -0.14755E-03 38424   0.186E-01    0.196E-01
DAV:  10    -0.222382473173E+03    0.27059E-04   -0.32947E-04 38032   0.102E-01    0.103E-01
DAV:  11    -0.222382474286E+03   -0.11125E-05   -0.10898E-04 29616   0.589E-02    0.871E-02
DAV:  12    -0.222382464142E+03    0.10144E-04   -0.51981E-05 25336   0.386E-02    0.466E-02
DAV:  13    -0.222382459930E+03    0.42122E-05   -0.22365E-05 20464   0.229E-02
  25 F= -.22238246E+03 E0= -.22237249E+03  d E =-.331775E-01  mag=    22.0000
       N       E                     dE             d eps       ncg     rms          rms(c)
DAV:   1    -0.218733833103E+03    0.36486E+01   -0.31338E+02 29816   0.810E+01    0.727E+00
DAV:   2    -0.222100040729E+03   -0.33662E+01   -0.31512E+01 28264   0.166E+01    0.878E+00
DAV:   3    -0.222166235110E+03   -0.66194E-01   -0.13943E+00 37768   0.446E+00    0.931E+00
DAV:   4    -0.222088098646E+03    0.78136E-01   -0.14204E+00 39568   0.222E+00    0.493E+00
DAV:   5    -0.222085352388E+03    0.27463E-02   -0.30983E-01 39096   0.167E+00    0.383E+00
DAV:   6    -0.222091759885E+03   -0.64075E-02   -0.22142E-01 38384   0.121E+00    0.385E+00
DAV:   7    -0.222078906316E+03    0.12854E-01   -0.15621E-01 38248   0.960E-01    0.234E+00
DAV:   8    -0.222083210760E+03   -0.43044E-02   -0.62640E-02 38472   0.984E-01    0.224E+00
DAV:   9    -0.222079989218E+03    0.32215E-02   -0.36680E-02 37688   0.830E-01    0.151E+00
DAV:  10    -0.222079772268E+03    0.21695E-03   -0.24637E-02 38552   0.683E-01    0.129E+00
DAV:  11    -0.222080133353E+03   -0.36108E-03   -0.18885E-02 38584   0.452E-01    0.617E-01
DAV:  12    -0.222079976232E+03    0.15712E-03   -0.27530E-03 38712   0.246E-01    0.338E-01
DAV:  13    -0.222079852612E+03    0.12362E-03   -0.78180E-04 38176   0.156E-01    0.272E-01
DAV:  14    -0.222079717201E+03    0.13541E-03   -0.85773E-04 38488   0.105E-01    0.186E-01
DAV:  15    -0.222079639380E+03    0.77821E-04   -0.37402E-04 37272   0.724E-02    0.791E-02
DAV:  16    -0.222079644268E+03   -0.48882E-05   -0.85633E-05 29824   0.344E-02
  26 F= -.22207964E+03 E0= -.22206912E+03  d E =0.302816E+00  mag=    22.0000
       N       E                     dE             d eps       ncg     rms          rms(c)
DAV:   1    -0.221453248770E+03    0.62639E+00   -0.92676E+01 30096   0.451E+01    0.412E+00
DAV:   2    -0.222443087460E+03   -0.98984E+00   -0.93081E+00 27744   0.872E+00    0.351E+00
DAV:   3    -0.222503006918E+03   -0.59919E-01   -0.51158E-01 38152   0.227E+00    0.483E+00
DAV:   4    -0.222475367223E+03    0.27640E-01   -0.23340E-01 38920   0.128E+00    0.186E+00
DAV:   5    -0.222478418156E+03   -0.30509E-02   -0.44999E-02 38696   0.653E-01    0.181E+00
DAV:   6    -0.222478225287E+03    0.19287E-03   -0.54880E-02 37928   0.627E-01    0.160E+00
DAV:   7    -0.222477757296E+03    0.46799E-03   -0.55947E-02 39592   0.637E-01    0.134E+00
DAV:   8    -0.222476983694E+03    0.77360E-03   -0.12591E-02 38960   0.516E-01    0.773E-01
DAV:   9    -0.222476319852E+03    0.66384E-03   -0.36994E-03 39232   0.335E-01    0.242E-01
DAV:  10    -0.222476606715E+03   -0.28686E-03   -0.10353E-03 38416   0.139E-01    0.153E-01
DAV:  11    -0.222476659031E+03   -0.52316E-04   -0.31999E-04 35920   0.897E-02    0.148E-01
DAV:  12    -0.222476639222E+03    0.19809E-04   -0.18592E-04 28808   0.650E-02    0.820E-02
DAV:  13    -0.222476634234E+03    0.49883E-05   -0.51128E-05 24640   0.352E-02
  27 F= -.22247663E+03 E0= -.22246606E+03  d E =-.396990E+00  mag=    22.0000
       N       E                     dE             d eps       ncg     rms          rms(c)
DAV:   1    -0.222322439027E+03    0.15420E+00   -0.21005E+01 30128   0.218E+01    0.198E+00
DAV:   2    -0.222541862498E+03   -0.21942E+00   -0.20666E+00 28024   0.406E+00    0.179E+00
DAV:   3    -0.222557065088E+03   -0.15203E-01   -0.17003E-01 38376   0.117E+00    0.244E+00
DAV:   4    -0.222549376995E+03    0.76881E-02   -0.54780E-02 38656   0.675E-01    0.959E-01
DAV:   5    -0.222549606568E+03   -0.22957E-03   -0.13932E-02 39608   0.320E-01    0.694E-01
DAV:   6    -0.222549349845E+03    0.25672E-03   -0.39686E-03 34960   0.231E-01    0.360E-01
DAV:   7    -0.222550338971E+03   -0.98913E-03   -0.54654E-03 39176   0.304E-01    0.727E-01
DAV:   8    -0.222549544417E+03    0.79455E-03   -0.36454E-03 38504   0.234E-01    0.169E-01
DAV:   9    -0.222549644094E+03   -0.99677E-04   -0.37104E-04 38552   0.104E-01    0.113E-01
DAV:  10    -0.222549630328E+03    0.13766E-04   -0.10671E-04 30608   0.617E-02    0.469E-02
DAV:  11    -0.222549631637E+03   -0.13085E-05   -0.28055E-05 25184   0.319E-02
  28 F= -.22254963E+03 E0= -.22253903E+03  d E =-.729974E-01  mag=    22.0000
       N       E                     dE             d eps       ncg     rms          rms(c)
DAV:   1    -0.222539107898E+03    0.10522E-01   -0.28938E+00 30176   0.788E+00    0.648E-01
DAV:   2    -0.222563170109E+03   -0.24062E-01   -0.23037E-01 28392   0.143E+00    0.741E-01
DAV:   3    -0.222564407708E+03   -0.12376E-02   -0.20507E-02 39040   0.434E-01    0.858E-01
DAV:   4    -0.222563624116E+03    0.78359E-03   -0.87946E-03 39024   0.247E-01    0.386E-01
DAV:   5    -0.222563583292E+03    0.40824E-04   -0.16762E-03 39648   0.122E-01    0.252E-01
DAV:   6    -0.222563528907E+03    0.54385E-04   -0.55568E-04 35088   0.107E-01    0.154E-01
DAV:   7    -0.222563580958E+03   -0.52051E-04   -0.46594E-04 38424   0.115E-01    0.164E-01
DAV:   8    -0.222563564061E+03    0.16897E-04   -0.28764E-04 35520   0.822E-02    0.934E-02
DAV:   9    -0.222563552271E+03    0.11790E-04   -0.76501E-05 27312   0.433E-02    0.403E-02
DAV:  10    -0.222563550316E+03    0.19543E-05   -0.14106E-05 20712   0.233E-02
  29 F= -.22256355E+03 E0= -.22255298E+03  d E =-.139187E-01  mag=    22.0000
       N       E                     dE             d eps       ncg     rms          rms(c)
DAV:   1    -0.222552382945E+03    0.11169E-01   -0.56731E+00 29304   0.969E+00    0.649E-01
DAV:   2    -0.222581965943E+03   -0.29583E-01   -0.29293E-01 27864   0.176E+00    0.736E-01
DAV:   3    -0.222582833952E+03   -0.86801E-03   -0.21417E-02 39144   0.443E-01    0.799E-01
DAV:   4    -0.222582114718E+03    0.71923E-03   -0.85502E-03 39968   0.253E-01    0.427E-01
DAV:   5    -0.222582003620E+03    0.11110E-03   -0.24081E-03 40048   0.142E-01    0.299E-01
DAV:   6    -0.222581871448E+03    0.13217E-03   -0.85702E-04 37792   0.134E-01    0.230E-01
DAV:   7    -0.222581816920E+03    0.54529E-04   -0.62373E-04 39544   0.138E-01    0.131E-01
DAV:   8    -0.222581827345E+03   -0.10425E-04   -0.20036E-04 38488   0.818E-02    0.594E-02
DAV:   9    -0.222581823104E+03    0.42409E-05   -0.32551E-05 26976   0.353E-02
  30 F= -.22258182E+03 E0= -.22257129E+03  d E =-.182728E-01  mag=    22.0000
       N       E                     dE             d eps       ncg     rms          rms(c)
DAV:   1    -0.222557761831E+03    0.24066E-01   -0.16969E+01 28272   0.150E+01    0.104E+00
DAV:   2    -0.222629950796E+03   -0.72189E-01   -0.76813E-01 27776   0.275E+00    0.110E+00
DAV:   3    -0.222631004129E+03   -0.10533E-02   -0.54666E-02 40440   0.686E-01    0.113E+00
DAV:   4    -0.222628540680E+03    0.24634E-02   -0.11618E-02 40048   0.376E-01    0.408E-01
DAV:   5    -0.222629257286E+03   -0.71661E-03   -0.86819E-03 41336   0.270E-01    0.803E-01
DAV:   6    -0.222628110705E+03    0.11466E-02   -0.95102E-03 39760   0.255E-01    0.368E-01
DAV:   7    -0.222628061700E+03    0.49005E-04   -0.13561E-03 39256   0.186E-01    0.192E-01
DAV:   8    -0.222628088554E+03   -0.26854E-04   -0.43560E-04 39312   0.107E-01    0.137E-01
DAV:   9    -0.222628070828E+03    0.17726E-04   -0.16162E-04 29712   0.627E-02    0.708E-02
DAV:  10    -0.222628065191E+03    0.56371E-05   -0.36066E-05 25288   0.374E-02
  31 F= -.22262807E+03 E0= -.22261747E+03  d E =-.462421E-01  mag=    22.0000
       N       E                     dE             d eps       ncg     rms          rms(c)
DAV:   1    -0.218829095353E+03    0.37990E+01   -0.28699E+02 29856   0.844E+01    0.913E+00
DAV:   2    -0.223160544213E+03   -0.43314E+01   -0.43630E+01 28896   0.192E+01    0.198E+01
DAV:   3    -0.222463320865E+03    0.69722E+00   -0.60469E+00 37664   0.728E+00    0.853E+00
DAV:   4    -0.222492289749E+03   -0.28969E-01   -0.18790E+00 39944   0.284E+00    0.592E+00
DAV:   5    -0.222491780192E+03    0.50956E-03   -0.23153E-01 38816   0.192E+00    0.472E+00
DAV:   6    -0.222483696897E+03    0.80833E-02   -0.33833E-01 38968   0.132E+00    0.367E+00
DAV:   7    -0.222487397602E+03   -0.37007E-02   -0.21468E-01 38504   0.123E+00    0.333E+00
DAV:   8    -0.222475366921E+03    0.12031E-01   -0.96258E-02 39728   0.105E+00    0.205E+00
DAV:   9    -0.222480654127E+03   -0.52872E-02   -0.69220E-02 38712   0.866E-01    0.224E+00
DAV:  10    -0.222474633737E+03    0.60204E-02   -0.39562E-02 39848   0.733E-01    0.126E+00
DAV:  11    -0.222475074114E+03   -0.44038E-03   -0.11991E-02 38608   0.480E-01    0.537E-01
DAV:  12    -0.222476224292E+03   -0.11502E-02   -0.53443E-03 40184   0.312E-01    0.709E-01
DAV:  13    -0.222475321690E+03    0.90260E-03   -0.32521E-03 37912   0.233E-01    0.232E-01
DAV:  14    -0.222475304773E+03    0.16917E-04   -0.33852E-04 38280   0.970E-02    0.187E-01
DAV:  15    -0.222475209080E+03    0.95693E-04   -0.31318E-04 34856   0.759E-02    0.924E-02
DAV:  16    -0.222475242996E+03   -0.33916E-04   -0.16445E-04 32888   0.461E-02    0.647E-02
DAV:  17    -0.222475241257E+03    0.17391E-05   -0.38108E-05 24760   0.292E-02
  32 F= -.22247524E+03 E0= -.22246348E+03  d E =0.152824E+00  mag=    22.0000
       N       E                     dE             d eps       ncg     rms          rms(c)
DAV:   1    -0.221453404049E+03    0.10218E+01   -0.93262E+01 30816   0.492E+01    0.493E+00
DAV:   2    -0.222729942875E+03   -0.12765E+01   -0.11918E+01 28584   0.925E+00    0.610E+00
DAV:   3    -0.222744511596E+03   -0.14569E-01   -0.11395E+00 38040   0.307E+00    0.508E+00
DAV:   4    -0.222726244287E+03    0.18267E-01   -0.21033E-01 38592   0.168E+00    0.278E+00
DAV:   5    -0.222724764992E+03    0.14793E-02   -0.10353E-01 38128   0.954E-01    0.189E+00
DAV:   6    -0.222724692111E+03    0.72881E-04   -0.19559E-02 37720   0.641E-01    0.116E+00
DAV:   7    -0.222728836256E+03   -0.41441E-02   -0.28119E-02 37592   0.646E-01    0.145E+00
DAV:   8    -0.222726326801E+03    0.25095E-02   -0.20254E-02 38264   0.552E-01    0.921E-01
DAV:   9    -0.222726535465E+03   -0.20866E-03   -0.10933E-02 38608   0.407E-01    0.629E-01
DAV:  10    -0.222726995399E+03   -0.45993E-03   -0.59493E-03 38680   0.290E-01    0.487E-01
DAV:  11    -0.222726732161E+03    0.26324E-03   -0.18241E-03 38512   0.198E-01    0.229E-01
DAV:  12    -0.222726737272E+03   -0.51109E-05   -0.38081E-04 38400   0.103E-01    0.172E-01
DAV:  13    -0.222726682177E+03    0.55095E-04   -0.15425E-04 30664   0.669E-02    0.913E-02
DAV:  14    -0.222726666224E+03    0.15953E-04   -0.11748E-04 28096   0.435E-02    0.625E-02
DAV:  15    -0.222726659228E+03    0.69957E-05   -0.53914E-05 26248   0.309E-02
  33 F= -.22272666E+03 E0= -.22271511E+03  d E =-.251418E+00  mag=    22.0000
       N       E                     dE             d eps       ncg     rms          rms(c)
DAV:   1    -0.222609423183E+03    0.11724E+00   -0.15491E+01 29664   0.177E+01    0.158E+00
DAV:   2    -0.222752836799E+03   -0.14341E+00   -0.13594E+00 28720   0.323E+00    0.179E+00
DAV:   3    -0.222762905601E+03   -0.10069E-01   -0.13573E-01 38704   0.103E+00    0.245E+00
DAV:   4    -0.222755577491E+03    0.73281E-02   -0.48262E-02 39008   0.599E-01    0.800E-01
DAV:   5    -0.222756262174E+03   -0.68468E-03   -0.73233E-03 39048   0.268E-01    0.665E-01
DAV:   6    -0.222756010328E+03    0.25185E-03   -0.25727E-03 36264   0.227E-01    0.445E-01
DAV:   7    -0.222756647465E+03   -0.63714E-03   -0.48523E-03 38160   0.299E-01    0.625E-01
DAV:   8    -0.222756121392E+03    0.52607E-03   -0.36239E-03 38600   0.216E-01    0.263E-01
DAV:   9    -0.222756127915E+03   -0.65237E-05   -0.56402E-04 38408   0.115E-01    0.132E-01
DAV:  10    -0.222756122847E+03    0.50680E-05   -0.15528E-04 31592   0.673E-02    0.793E-02
DAV:  11    -0.222756113478E+03    0.93694E-05   -0.42952E-05 25400   0.418E-02
  34 F= -.22275611E+03 E0= -.22274471E+03  d E =-.294542E-01  mag=    22.0000
       N       E                     dE             d eps       ncg     rms          rms(c)
DAV:   1    -0.222753020409E+03    0.31024E-02   -0.22242E+00 29704   0.549E+00    0.342E-01
DAV:   2    -0.222762111036E+03   -0.90906E-02   -0.89547E-02 28312   0.980E-01    0.351E-01
DAV:   3    -0.222762430560E+03   -0.31952E-03   -0.37771E-03 38960   0.210E-01    0.423E-01
DAV:   4    -0.222762237924E+03    0.19264E-03   -0.22331E-03 40280   0.126E-01    0.245E-01
DAV:   5    -0.222762232403E+03    0.55210E-05   -0.32980E-04 37896   0.912E-02    0.219E-01
DAV:   6    -0.222762224102E+03    0.83008E-05   -0.47234E-04 36680   0.938E-02    0.220E-01
DAV:   7    -0.222762175122E+03    0.48980E-04   -0.60086E-04 38216   0.993E-02    0.118E-01
DAV:   8    -0.222762170499E+03    0.46230E-05   -0.14315E-04 33152   0.603E-02    0.660E-02
DAV:   9    -0.222762164806E+03    0.56925E-05   -0.37901E-05 23824   0.330E-02
  35 F= -.22276216E+03 E0= -.22275089E+03  d E =-.605133E-02  mag=    22.0000
       N       E                     dE             d eps       ncg     rms          rms(c)
DAV:   1    -0.222744407237E+03    0.17763E-01   -0.50147E+00 29208   0.888E+00    0.589E-01
DAV:   2    -0.222768656532E+03   -0.24249E-01   -0.23949E-01 27984   0.153E+00    0.400E-01
DAV:   3    -0.222769811271E+03   -0.11547E-02   -0.71144E-03 39512   0.307E-01    0.538E-01
DAV:   4    -0.222769370645E+03    0.44063E-03   -0.34650E-03 39904   0.181E-01    0.275E-01
DAV:   5    -0.222769366813E+03    0.38325E-05   -0.10931E-03 40456   0.114E-01    0.266E-01
DAV:   6    -0.222769308411E+03    0.58402E-04   -0.11337E-03 37480   0.118E-01    0.238E-01
DAV:   7    -0.222769256551E+03    0.51859E-04   -0.63922E-04 38864   0.120E-01    0.113E-01
DAV:   8    -0.222769283969E+03   -0.27418E-04   -0.22731E-04 36496   0.704E-02    0.108E-01
DAV:   9    -0.222769263105E+03    0.20864E-04   -0.84858E-05 26600   0.412E-02    0.360E-02
DAV:  10    -0.222769261932E+03    0.11722E-05   -0.13511E-05 18488   0.225E-02
  36 F= -.22276926E+03 E0= -.22275818E+03  d E =-.709713E-02  mag=    22.0000
       N       E                     dE             d eps       ncg     rms          rms(c)
DAV:   1    -0.222749356667E+03    0.19906E-01   -0.91005E+00 28800   0.106E+01    0.594E-01
DAV:   2    -0.222779045292E+03   -0.29689E-01   -0.30364E-01 27800   0.178E+00    0.357E-01
DAV:   3    -0.222779697317E+03   -0.65202E-03   -0.65997E-03 40200   0.300E-01    0.462E-01
DAV:   4    -0.222779346715E+03    0.35060E-03   -0.30257E-03 40288   0.178E-01    0.268E-01
DAV:   5    -0.222779352787E+03   -0.60717E-05   -0.20680E-03 38680   0.144E-01    0.368E-01
DAV:   6    -0.222779071269E+03    0.28152E-03   -0.18994E-03 39056   0.133E-01    0.178E-01
DAV:   7    -0.222779087428E+03   -0.16159E-04   -0.44444E-04 38584   0.108E-01    0.104E-01
DAV:   8    -0.222779088366E+03   -0.93856E-06   -0.10690E-04 32480   0.527E-02    0.619E-02
DAV:   9    -0.222779084399E+03    0.39671E-05   -0.39767E-05 22776   0.291E-02
  37 F= -.22277908E+03 E0= -.22276813E+03  d E =-.982247E-02  mag=    22.0000
       N       E                     dE             d eps       ncg     rms          rms(c)
DAV:   1    -0.221748628730E+03    0.10305E+01   -0.20743E+02 28928   0.572E+01    0.388E+00
DAV:   2    -0.222810854443E+03   -0.10622E+01   -0.10804E+01 27680   0.103E+01    0.379E+00
DAV:   3    -0.222850104711E+03   -0.39250E-01   -0.73131E-01 39328   0.257E+00    0.543E+00
DAV:   4    -0.222803028910E+03    0.47076E-01   -0.25020E-01 40568   0.138E+00    0.136E+00
DAV:   5    -0.222809355874E+03   -0.63270E-02   -0.38482E-02 41232   0.782E-01    0.182E+00
DAV:   6    -0.222805303021E+03    0.40529E-02   -0.56806E-02 38960   0.689E-01    0.135E+00
DAV:   7    -0.222804922708E+03    0.38031E-03   -0.40894E-02 39176   0.565E-01    0.105E+00
DAV:   8    -0.222803904113E+03    0.10186E-02   -0.12767E-02 38624   0.384E-01    0.574E-01
DAV:   9    -0.222803734980E+03    0.16913E-03   -0.45293E-03 39264   0.259E-01    0.417E-01
DAV:  10    -0.222803831165E+03   -0.96184E-04   -0.27701E-03 39544   0.206E-01    0.369E-01
DAV:  11    -0.222803752035E+03    0.79130E-04   -0.93871E-04 38552   0.164E-01    0.162E-01
DAV:  12    -0.222803848021E+03   -0.95986E-04   -0.23339E-04 36296   0.925E-02    0.132E-01
DAV:  13    -0.222803831962E+03    0.16058E-04   -0.81216E-05 28280   0.616E-02    0.717E-02
DAV:  14    -0.222803821892E+03    0.10070E-04   -0.23119E-05 23696   0.261E-02    0.466E-02
DAV:  15    -0.222803816087E+03    0.58053E-05   -0.17345E-05 22360   0.286E-02
  38 F= -.22280382E+03 E0= -.22279269E+03  d E =-.247317E-01  mag=    22.0000
       N       E                     dE             d eps       ncg     rms          rms(c)
DAV:   1    -0.221679521769E+03    0.11243E+01   -0.21060E+02 29040   0.598E+01    0.402E+00
DAV:   2    -0.222804515924E+03   -0.11250E+01   -0.11205E+01 27664   0.109E+01    0.425E+00
DAV:   3    -0.222846393836E+03   -0.41878E-01   -0.51517E-01 39160   0.277E+00    0.565E+00
DAV:   4    -0.222799159897E+03    0.47234E-01   -0.47931E-01 38752   0.148E+00    0.231E+00
DAV:   5    -0.222796587596E+03    0.25723E-02   -0.76616E-02 39984   0.762E-01    0.167E+00
DAV:   6    -0.222794479051E+03    0.21085E-02   -0.46931E-02 37096   0.714E-01    0.130E+00
DAV:   7    -0.222793379368E+03    0.10997E-02   -0.17712E-02 39440   0.607E-01    0.106E+00
DAV:   8    -0.222792376686E+03    0.10027E-02   -0.16503E-02 38672   0.449E-01    0.805E-01
DAV:   9    -0.222792046573E+03    0.33011E-03   -0.96615E-03 39480   0.344E-01    0.504E-01
DAV:  10    -0.222792145326E+03   -0.98753E-04   -0.33161E-03 38584   0.237E-01    0.349E-01
DAV:  11    -0.222792077866E+03    0.67461E-04   -0.12621E-03 39360   0.164E-01    0.160E-01
DAV:  12    -0.222792169811E+03   -0.91945E-04   -0.31337E-04 38720   0.967E-02    0.155E-01
DAV:  13    -0.222792147445E+03    0.22366E-04   -0.10825E-04 29976   0.658E-02    0.709E-02
DAV:  14    -0.222792143130E+03    0.43144E-05   -0.37118E-05 25640   0.338E-02
  39 F= -.22279214E+03 E0= -.22278031E+03  d E =0.116730E-01  mag=    22.0000
       N       E                     dE             d eps       ncg     rms          rms(c)
DAV:   1    -0.221920959803E+03    0.87119E+00   -0.17435E+02 29152   0.533E+01    0.354E+00
DAV:   2    -0.222800233027E+03   -0.87927E+00   -0.91028E+00 27728   0.958E+00    0.193E+00
DAV:   3    -0.222828070443E+03   -0.27837E-01   -0.21963E-01 38752   0.169E+00    0.266E+00
DAV:   4    -0.222816668135E+03    0.11402E-01   -0.99193E-02 40240   0.943E-01    0.146E+00
DAV:   5    -0.222817887184E+03   -0.12190E-02   -0.56935E-02 39784   0.732E-01    0.201E+00
DAV:   6    -0.222810542298E+03    0.73449E-02   -0.42357E-02 39784   0.688E-01    0.705E-01
DAV:   7    -0.222812210808E+03   -0.16685E-02   -0.73802E-03 39840   0.420E-01    0.610E-01
DAV:   8    -0.222811642943E+03    0.56786E-03   -0.19488E-03 39016   0.275E-01    0.191E-01
DAV:   9    -0.222811668362E+03   -0.25419E-04   -0.47654E-04 40264   0.106E-01    0.167E-01
DAV:  10    -0.222811683122E+03   -0.14760E-04   -0.42261E-04 36288   0.945E-02    0.180E-01
DAV:  11    -0.222811693173E+03   -0.10051E-04   -0.61831E-04 31112   0.771E-02    0.144E-01
DAV:  12    -0.222811688423E+03    0.47496E-05   -0.13262E-04 28024   0.601E-02    0.550E-02
DAV:  13    -0.222811694286E+03   -0.58623E-05   -0.31379E-05 23336   0.316E-02
  40 F= -.22281169E+03 E0= -.22280025E+03  d E =-.195512E-01  mag=    22.0000
       N       E                     dE             d eps       ncg     rms          rms(c)
DAV:   1    -0.222187399374E+03    0.62429E+00   -0.76945E+01 29440   0.411E+01    0.305E+00
DAV:   2    -0.222755184497E+03   -0.56779E+00   -0.55430E+00 27688   0.748E+00    0.230E+00
DAV:   3    -0.222787794098E+03   -0.32610E-01   -0.17887E-01 38944   0.176E+00    0.316E+00
DAV:   4    -0.222775525213E+03    0.12269E-01   -0.14462E-01 38496   0.977E-01    0.155E+00
DAV:   5    -0.222773185386E+03    0.23398E-02   -0.26177E-02 40544   0.532E-01    0.968E-01
DAV:   6    -0.222774169257E+03   -0.98387E-03   -0.23229E-02 38408   0.544E-01    0.123E+00
DAV:   7    -0.222772016267E+03    0.21530E-02   -0.17396E-02 39608   0.429E-01    0.554E-01
DAV:   8    -0.222772589571E+03   -0.57330E-03   -0.50692E-03 39256   0.312E-01    0.500E-01
DAV:   9    -0.222772229987E+03    0.35958E-03   -0.18146E-03 39472   0.203E-01    0.194E-01
DAV:  10    -0.222772232656E+03   -0.26683E-05   -0.43166E-04 38528   0.111E-01    0.137E-01
DAV:  11    -0.222772207763E+03    0.24893E-04   -0.26642E-04 32664   0.731E-02    0.105E-01
DAV:  12    -0.222772206055E+03    0.17075E-05   -0.12265E-04 27248   0.560E-02    0.785E-02
DAV:  13    -0.222772206122E+03   -0.66990E-07   -0.54258E-05 25528   0.378E-02
  41 F= -.22277221E+03 E0= -.22276116E+03  d E =0.394882E-01  mag=    22.0000
       N       E                     dE             d eps       ncg     rms          rms(c)
DAV:   1    -0.222609809329E+03    0.16240E+00   -0.25439E+01 29888   0.243E+01    0.187E+00
DAV:   2    -0.222810574101E+03   -0.20076E+00   -0.19660E+00 27680   0.438E+00    0.153E+00
DAV:   3    -0.222830906139E+03   -0.20332E-01   -0.13774E-01 39408   0.115E+00    0.324E+00
DAV:   4    -0.222814882529E+03    0.16024E-01   -0.99687E-02 38608   0.745E-01    0.631E-01
DAV:   5    -0.222817425383E+03   -0.25429E-02   -0.95662E-03 40176   0.345E-01    0.832E-01
DAV:   6    -0.222816379545E+03    0.10458E-02   -0.67996E-03 38536   0.297E-01    0.404E-01
DAV:   7    -0.222816425545E+03   -0.45999E-04   -0.21317E-03 38760   0.246E-01    0.277E-01
DAV:   8    -0.222816426213E+03   -0.66772E-06   -0.69829E-04 39768   0.148E-01    0.166E-01
DAV:   9    -0.222816419830E+03    0.63821E-05   -0.22965E-04 38560   0.934E-02    0.101E-01
DAV:  10    -0.222816433147E+03   -0.13316E-04   -0.11445E-04 29504   0.622E-02    0.840E-02
DAV:  11    -0.222816430806E+03    0.23402E-05   -0.86665E-05 25936   0.427E-02
  42 F= -.22281643E+03 E0= -.22280500E+03  d E =-.442247E-01  mag=    22.0000
       N       E                     dE             d eps       ncg     rms          rms(c)
DAV:   1    -0.222795008863E+03    0.21424E-01   -0.18314E+00 29432   0.669E+00    0.560E-01
DAV:   2    -0.222812212052E+03   -0.17203E-01   -0.16998E-01 27696   0.122E+00    0.356E-01
DAV:   3    -0.222813858419E+03   -0.16464E-02   -0.87046E-03 39080   0.305E-01    0.706E-01
DAV:   4    -0.222812938918E+03    0.91950E-03   -0.40017E-03 38336   0.196E-01    0.195E-01
DAV:   5    -0.222813092669E+03   -0.15375E-03   -0.12977E-03 40520   0.102E-01    0.271E-01
DAV:   6    -0.222812980990E+03    0.11168E-03   -0.71688E-04 38584   0.855E-02    0.986E-02
DAV:   7    -0.222813033307E+03   -0.52318E-04   -0.24342E-04 37368   0.762E-02    0.136E-01
DAV:   8    -0.222813008602E+03    0.24706E-04   -0.15729E-04 27936   0.543E-02    0.553E-02
DAV:   9    -0.222813007480E+03    0.11222E-05   -0.27429E-05 21896   0.275E-02
  43 F= -.22281301E+03 E0= -.22280151E+03  d E =0.342333E-02  mag=    22.0000
       N       E                     dE             d eps       ncg     rms          rms(c)
DAV:   1    -0.220027377201E+03    0.27856E+01   -0.20303E+02 29632   0.711E+01    0.610E+00
DAV:   2    -0.222508621164E+03   -0.24812E+01   -0.24722E+01 27728   0.143E+01    0.639E+00
DAV:   3    -0.222562684649E+03   -0.54063E-01   -0.14814E+00 40496   0.384E+00    0.501E+00
DAV:   4    -0.222545144451E+03    0.17540E-01   -0.45503E-01 41136   0.206E+00    0.431E+00
DAV:   5    -0.222512678820E+03    0.32466E-01   -0.15141E-01 39568   0.135E+00    0.192E+00
DAV:   6    -0.222518358105E+03   -0.56793E-02   -0.68200E-02 40472   0.104E+00    0.209E+00
DAV:   7    -0.222515384284E+03    0.29738E-02   -0.44710E-02 41128   0.923E-01    0.170E+00
DAV:   8    -0.222514760864E+03    0.62342E-03   -0.71334E-02 40120   0.755E-01    0.127E+00
DAV:   9    -0.222512722137E+03    0.20387E-02   -0.56412E-03 38560   0.409E-01    0.701E-01
DAV:  10    -0.222511461064E+03    0.12611E-02   -0.29962E-03 40416   0.302E-01    0.238E-01
DAV:  11    -0.222511657530E+03   -0.19647E-03   -0.10125E-03 38440   0.166E-01    0.224E-01
DAV:  12    -0.222511635212E+03    0.22318E-04   -0.37283E-04 37392   0.960E-02    0.150E-01
DAV:  13    -0.222511599858E+03    0.35354E-04   -0.13928E-04 30616   0.670E-02    0.642E-02
DAV:  14    -0.222511603251E+03   -0.33926E-05   -0.61672E-05 28024   0.314E-02
  44 F= -.22251160E+03 E0= -.22250157E+03  d E =0.301404E+00  mag=    22.0000
       N       E                     dE             d eps       ncg     rms          rms(c)
DAV:   1    -0.210118822397E+03    0.12393E+02   -0.79911E+02 30528   0.132E+02    0.203E+01
DAV:   2    -0.248329699380E+03   -0.38211E+02   -0.17271E+02 36160   0.344E+01    0.715E+01
DAV:   3    -0.220424029585E+03    0.27906E+02   -0.33282E+01 36760   0.230E+01    0.149E+01
DAV:   4    -0.221897804316E+03   -0.14738E+01   -0.65533E+00 35952   0.576E+00    0.122E+01
DAV:   5    -0.222118555137E+03   -0.22075E+00   -0.13228E+00 38624   0.340E+00    0.975E+00
DAV:   6    -0.222063081781E+03    0.55473E-01   -0.48115E-01 38320   0.212E+00    0.760E+00
DAV:   7    -0.222215709777E+03   -0.15263E+00   -0.61364E-01 39752   0.280E+00    0.106E+01
DAV:   8    -0.222010070459E+03    0.20564E+00   -0.72395E-01 38312   0.161E+00    0.417E+00
DAV:   9    -0.222059360201E+03   -0.49290E-01   -0.49556E-01 38992   0.169E+00    0.542E+00
DAV:  10    -0.221984539492E+03    0.74821E-01   -0.26690E-01 38760   0.159E+00    0.255E+00
DAV:  11    -0.221983134274E+03    0.14052E-02   -0.51491E-02 38264   0.109E+00    0.194E+00
DAV:  12    -0.221988188592E+03   -0.50543E-02   -0.56464E-02 39912   0.750E-01    0.223E+00
DAV:  13    -0.221988492093E+03   -0.30350E-03   -0.23322E-02 37816   0.550E-01    0.101E+00
DAV:  14    -0.221988652670E+03   -0.16058E-03   -0.10683E-02 38744   0.562E-01    0.853E-01
DAV:  15    -0.221988650473E+03    0.21971E-05   -0.58991E-03 39696   0.397E-01    0.598E-01
DAV:  16    -0.221988497495E+03    0.15298E-03   -0.32448E-03 38464   0.222E-01    0.381E-01
DAV:  17    -0.221988511332E+03   -0.13837E-04   -0.58687E-04 38400   0.140E-01    0.250E-01
DAV:  18    -0.221988445147E+03    0.66184E-04   -0.50028E-04 37296   0.794E-02    0.151E-01
DAV:  19    -0.221988448202E+03   -0.30543E-05   -0.14408E-04 30560   0.528E-02    0.144E-01
DAV:  20    -0.221988408730E+03    0.39471E-04   -0.83540E-05 28840   0.355E-02    0.968E-02
DAV:  21    -0.221988384193E+03    0.24538E-04   -0.54192E-05 26200   0.322E-02    0.360E-02
DAV:  22    -0.221988385647E+03   -0.14543E-05   -0.19568E-05 18944   0.169E-02
  45 F= -.22198839E+03 E0= -.22197502E+03  d E =0.523218E+00  mag=    22.0003
       N       E                     dE             d eps       ncg     rms          rms(c)
DAV:   1    -0.220771739155E+03    0.12166E+01   -0.14994E+02 30528   0.549E+01    0.603E+00
DAV:   2    -0.222673008412E+03   -0.19013E+01   -0.17735E+01 28008   0.119E+01    0.701E+00
DAV:   3    -0.222639967499E+03    0.33041E-01   -0.76693E-01 38184   0.333E+00    0.549E+00
DAV:   4    -0.222627445773E+03    0.12522E-01   -0.47126E-01 38848   0.177E+00    0.455E+00
DAV:   5    -0.222619476107E+03    0.79697E-02   -0.23615E-01 38672   0.162E+00    0.312E+00
DAV:   6    -0.222618052968E+03    0.14231E-02   -0.64264E-02 39480   0.112E+00    0.227E+00
DAV:   7    -0.222620176173E+03   -0.21232E-02   -0.81988E-02 38328   0.104E+00    0.242E+00
DAV:   8    -0.222620622208E+03   -0.44604E-03   -0.42744E-02 38328   0.947E-01    0.151E+00
DAV:   9    -0.222615960903E+03    0.46613E-02   -0.26997E-02 38456   0.843E-01    0.837E-01
DAV:  10    -0.222615916946E+03    0.43957E-04   -0.96495E-03 37352   0.331E-01    0.661E-01
DAV:  11    -0.222615200172E+03    0.71677E-03   -0.27379E-03 38024   0.198E-01    0.221E-01
DAV:  12    -0.222615194591E+03    0.55802E-05   -0.67566E-04 38648   0.119E-01    0.158E-01
DAV:  13    -0.222615177109E+03    0.17482E-04   -0.19235E-04 35760   0.735E-02    0.878E-02
DAV:  14    -0.222615193130E+03   -0.16021E-04   -0.15973E-04 28304   0.657E-02    0.110E-01
DAV:  15    -0.222615161354E+03    0.31775E-04   -0.84347E-05 25808   0.344E-02    0.364E-02
DAV:  16    -0.222615154580E+03    0.67741E-05   -0.20583E-05 20032   0.182E-02
  46 F= -.22261515E+03 E0= -.22260340E+03  d E =-.626769E+00  mag=    22.0000
       N       E                     dE             d eps       ncg     rms          rms(c)
DAV:   1    -0.222059947434E+03    0.55521E+00   -0.41995E+01 30256   0.345E+01    0.336E+00
DAV:   2    -0.222655722551E+03   -0.59578E+00   -0.56080E+00 27704   0.654E+00    0.268E+00
DAV:   3    -0.222705292346E+03   -0.49570E-01   -0.29545E-01 38616   0.189E+00    0.389E+00
DAV:   4    -0.222686396236E+03    0.18896E-01   -0.20893E-01 38488   0.112E+00    0.188E+00
DAV:   5    -0.222683530048E+03    0.28662E-02   -0.29359E-02 40992   0.598E-01    0.958E-01
DAV:   6    -0.222685552259E+03   -0.20222E-02   -0.15551E-02 39080   0.477E-01    0.113E+00
DAV:   7    -0.222684811082E+03    0.74118E-03   -0.14411E-02 39472   0.428E-01    0.669E-01
DAV:   8    -0.222685845758E+03   -0.10347E-02   -0.14598E-02 39400   0.350E-01    0.762E-01
DAV:   9    -0.222684959961E+03    0.88580E-03   -0.53299E-03 38888   0.236E-01    0.208E-01
DAV:  10    -0.222685050747E+03   -0.90786E-04   -0.42888E-04 39312   0.118E-01    0.159E-01
DAV:  11    -0.222685020861E+03    0.29886E-04   -0.14934E-04 34544   0.673E-02    0.460E-02
DAV:  12    -0.222685022392E+03   -0.15314E-05   -0.34553E-05 25808   0.349E-02
  47 F= -.22268502E+03 E0= -.22267390E+03  d E =-.698678E-01  mag=    22.0000
       N       E                     dE             d eps       ncg     rms          rms(c)
DAV:   1    -0.222654177865E+03    0.30843E-01   -0.32699E+00 29928   0.896E+00    0.783E-01
DAV:   2    -0.222686152757E+03   -0.31975E-01   -0.30552E-01 28120   0.162E+00    0.481E-01
DAV:   3    -0.222688327141E+03   -0.21744E-02   -0.63797E-03 37064   0.322E-01    0.436E-01
DAV:   4    -0.222688254242E+03    0.72899E-04   -0.32641E-03 38312   0.182E-01    0.359E-01
DAV:   5    -0.222688263807E+03   -0.95644E-05   -0.21114E-03 39648   0.139E-01    0.316E-01
DAV:   6    -0.222688299644E+03   -0.35837E-04   -0.21128E-03 39368   0.137E-01    0.292E-01
DAV:   7    -0.222688241335E+03    0.58309E-04   -0.12509E-03 38824   0.122E-01    0.155E-01
DAV:   8    -0.222688234102E+03    0.72327E-05   -0.20509E-04 35752   0.779E-02    0.676E-02
DAV:   9    -0.222688228040E+03    0.60620E-05   -0.47603E-05 29384   0.392E-02
  48 F= -.22268823E+03 E0= -.22267729E+03  d E =-.320565E-02  mag=    22.0000
       N       E                     dE             d eps       ncg     rms          rms(c)
DAV:   1    -0.222659888620E+03    0.28345E-01   -0.45266E+00 29608   0.888E+00    0.665E-01
DAV:   2    -0.222687679771E+03   -0.27791E-01   -0.26872E-01 27952   0.160E+00    0.598E-01
DAV:   3    -0.222689048635E+03   -0.13689E-02   -0.88538E-03 36512   0.352E-01    0.644E-01
DAV:   4    -0.222688600552E+03    0.44808E-03   -0.34036E-03 38704   0.197E-01    0.352E-01
DAV:   5    -0.222688653102E+03   -0.52550E-04   -0.82585E-04 39192   0.157E-01    0.331E-01
DAV:   6    -0.222688833118E+03   -0.18002E-03   -0.32668E-03 38040   0.172E-01    0.426E-01
DAV:   7    -0.222688593571E+03    0.23955E-03   -0.23791E-03 38600   0.143E-01    0.161E-01
DAV:   8    -0.222688634215E+03   -0.40643E-04   -0.61150E-04 36432   0.915E-02    0.146E-01
DAV:   9    -0.222688594591E+03    0.39624E-04   -0.19670E-04 32368   0.498E-02    0.403E-02
DAV:  10    -0.222688593641E+03    0.95039E-06   -0.18298E-05 21856   0.264E-02
  49 F= -.22268859E+03 E0= -.22267778E+03  d E =-.365601E-03  mag=    22.0000
       N       E                     dE             d eps       ncg     rms          rms(c)
DAV:   1    -0.222636879521E+03    0.51715E-01   -0.79513E+00 29024   0.109E+01    0.728E-01
DAV:   2    -0.222674474932E+03   -0.37595E-01   -0.37192E-01 27728   0.196E+00    0.696E-01
DAV:   3    -0.222675856196E+03   -0.13813E-02   -0.12682E-02 37200   0.417E-01    0.785E-01
DAV:   4    -0.222675126329E+03    0.72987E-03   -0.64557E-03 39072   0.235E-01    0.422E-01
DAV:   5    -0.222675333841E+03   -0.20751E-03   -0.36164E-03 39408   0.178E-01    0.536E-01
DAV:   6    -0.222675056391E+03    0.27745E-03   -0.43757E-03 37048   0.190E-01    0.378E-01
DAV:   7    -0.222674963937E+03    0.92454E-04   -0.16850E-03 38864   0.188E-01    0.212E-01
DAV:   8    -0.222674976184E+03   -0.12247E-04   -0.74896E-04 37848   0.111E-01    0.152E-01
DAV:   9    -0.222674939613E+03    0.36572E-04   -0.20371E-04 33944   0.606E-02    0.547E-02
DAV:  10    -0.222674934868E+03    0.47447E-05   -0.24520E-05 25344   0.320E-02
  50 F= -.22267493E+03 E0= -.22266421E+03  d E =0.136588E-01  mag=    22.0000
       N       E                     dE             d eps       ncg     rms          rms(c)
DAV:   1    -0.222389344964E+03    0.28559E+00   -0.51516E+01 29376   0.267E+01    0.170E+00
DAV:   2    -0.222598897787E+03   -0.20955E+00   -0.21767E+00 27680   0.477E+00    0.102E+00
DAV:   3    -0.222603267125E+03   -0.43693E-02   -0.42518E-02 36992   0.804E-01    0.109E+00
DAV:   4    -0.222602040859E+03    0.12263E-02   -0.23639E-02 40856   0.474E-01    0.940E-01
DAV:   5    -0.222601300241E+03    0.74062E-03   -0.17663E-02 39112   0.401E-01    0.903E-01
DAV:   6    -0.222600090576E+03    0.12097E-02   -0.12656E-02 38440   0.361E-01    0.554E-01
DAV:   7    -0.222599972214E+03    0.11836E-03   -0.43424E-03 39488   0.270E-01    0.286E-01
DAV:   8    -0.222599980666E+03   -0.84518E-05   -0.99841E-04 39624   0.152E-01    0.178E-01
DAV:   9    -0.222599944208E+03    0.36457E-04   -0.42989E-04 37520   0.852E-02    0.121E-01
DAV:  10    -0.222599916923E+03    0.27285E-04   -0.12425E-04 30232   0.519E-02    0.663E-02
DAV:  11    -0.222599916556E+03    0.36792E-06   -0.51657E-05 25688   0.363E-02
  51 F= -.22259992E+03 E0= -.22258950E+03  d E =0.750183E-01  mag=    22.0000
       N       E                     dE             d eps       ncg     rms          rms(c)
DAV:   1    -0.212167547700E+03    0.10432E+02   -0.99998E+02 29280   0.127E+02    0.166E+01
DAV:   2    -0.244094159728E+03   -0.31927E+02   -0.14699E+02 36792   0.339E+01    0.670E+01
DAV:   3    -0.220376757850E+03    0.23717E+02   -0.31882E+01 37176   0.191E+01    0.189E+01
DAV:   4    -0.221282863926E+03   -0.90611E+00   -0.62244E+00 36728   0.517E+00    0.125E+01
DAV:   5    -0.221278219748E+03    0.46442E-02   -0.47144E-01 39568   0.334E+00    0.896E+00
DAV:   6    -0.221420965842E+03   -0.14275E+00   -0.47493E-01 39832   0.206E+00    0.107E+01
DAV:   7    -0.221385523853E+03    0.35442E-01   -0.17858E-01 38576   0.174E+00    0.702E+00
DAV:   8    -0.221395449838E+03   -0.99260E-02   -0.23944E-01 39312   0.205E+00    0.465E+00
DAV:   9    -0.221489735368E+03   -0.94286E-01   -0.55549E-01 39224   0.208E+00    0.713E+00
DAV:  10    -0.221432174954E+03    0.57560E-01   -0.33309E-01 38544   0.153E+00    0.477E+00
DAV:  11    -0.221414315655E+03    0.17859E-01   -0.97970E-02 39216   0.948E-01    0.407E+00
DAV:  12    -0.221388794455E+03    0.25521E-01   -0.28437E-02 39672   0.682E-01    0.248E+00
DAV:  13    -0.221385402880E+03    0.33916E-02   -0.22703E-02 39440   0.503E-01    0.997E-01
DAV:  14    -0.221389755615E+03   -0.43527E-02   -0.13720E-02 37904   0.425E-01    0.122E+00
DAV:  15    -0.221389130883E+03    0.62473E-03   -0.19690E-02 38392   0.268E-01    0.853E-01
DAV:  16    -0.221389293458E+03   -0.16258E-03   -0.22833E-03 35728   0.173E-01    0.345E-01
DAV:  17    -0.221389644357E+03   -0.35090E-03   -0.16078E-03 37096   0.126E-01    0.597E-01
DAV:  18    -0.221389160744E+03    0.48361E-03   -0.20379E-03 38792   0.976E-02    0.130E-01
DAV:  19    -0.221389308507E+03   -0.14776E-03   -0.18774E-04 33208   0.542E-02    0.883E-02
DAV:  20    -0.221389321441E+03   -0.12934E-04   -0.45778E-05 27248   0.328E-02    0.907E-02
DAV:  21    -0.221389323844E+03   -0.24027E-05   -0.22470E-05 20688   0.193E-02
  52 F= -.22138932E+03 E0= -.22137720E+03  d E =0.121059E+01  mag=    22.0018
       N       E                     dE             d eps       ncg     rms          rms(c)
DAV:   1    -0.218351873108E+03    0.30374E+01   -0.38269E+02 29688   0.848E+01    0.857E+00
DAV:   2    -0.222691403144E+03   -0.43395E+01   -0.42810E+01 29744   0.188E+01    0.123E+01
DAV:   3    -0.222446125579E+03    0.24528E+00   -0.21473E+00 37080   0.562E+00    0.880E+00
DAV:   4    -0.222368631587E+03    0.77494E-01   -0.16787E+00 39752   0.231E+00    0.705E+00
DAV:   5    -0.222283864972E+03    0.84767E-01   -0.28324E-01 39488   0.222E+00    0.505E+00
DAV:   6    -0.222277506929E+03    0.63580E-02   -0.25981E-01 37928   0.170E+00    0.351E+00
DAV:   7    -0.222296685710E+03   -0.19179E-01   -0.23848E-01 38248   0.146E+00    0.348E+00
DAV:   8    -0.222285553750E+03    0.11132E-01   -0.11259E-01 37872   0.133E+00    0.270E+00
DAV:   9    -0.222308920746E+03   -0.23367E-01   -0.21996E-01 38848   0.142E+00    0.482E+00
DAV:  10    -0.222279385072E+03    0.29536E-01   -0.21282E-01 38408   0.106E+00    0.133E+00
DAV:  11    -0.222285314430E+03   -0.59294E-02   -0.25146E-02 38392   0.697E-01    0.172E+00
DAV:  12    -0.222282003981E+03    0.33104E-02   -0.67643E-03 37544   0.308E-01    0.953E-01
DAV:  13    -0.222282105363E+03   -0.10138E-03   -0.20899E-03 38336   0.187E-01    0.807E-01
DAV:  14    -0.222281269640E+03    0.83572E-03   -0.29611E-03 38848   0.163E-01    0.286E-01
DAV:  15    -0.222281419855E+03   -0.15021E-03   -0.95489E-04 38224   0.906E-02    0.104E-01
DAV:  16    -0.222281468575E+03   -0.48720E-04   -0.13583E-04 30000   0.524E-02    0.785E-02
DAV:  17    -0.222281455087E+03    0.13488E-04   -0.33461E-05 26672   0.264E-02    0.640E-02
DAV:  18    -0.222281452083E+03    0.30037E-05   -0.45141E-05 21936   0.228E-02
  53 F= -.22228145E+03 E0= -.22227075E+03  d E =-.892128E+00  mag=    22.0000
       N       E                     dE             d eps       ncg     rms          rms(c)
DAV:   1    -0.221985308032E+03    0.29615E+00   -0.51931E+01 30632   0.321E+01    0.285E+00
DAV:   2    -0.222430397363E+03   -0.44509E+00   -0.41996E+00 28336   0.582E+00    0.250E+00
DAV:   3    -0.222461743753E+03   -0.31346E-01   -0.17351E-01 37912   0.151E+00    0.349E+00
DAV:   4    -0.222449113678E+03    0.12630E-01   -0.17724E-01 38176   0.914E-01    0.147E+00
DAV:   5    -0.222451384539E+03   -0.22709E-02   -0.25977E-02 38784   0.507E-01    0.137E+00
DAV:   6    -0.222452336186E+03   -0.95165E-03   -0.43094E-02 38256   0.544E-01    0.131E+00
DAV:   7    -0.222450616712E+03    0.17195E-02   -0.18109E-02 38448   0.495E-01    0.716E-01
DAV:   8    -0.222451150170E+03   -0.53346E-03   -0.77757E-03 38496   0.335E-01    0.579E-01
DAV:   9    -0.222450645535E+03    0.50463E-03   -0.36464E-03 38368   0.219E-01    0.184E-01
DAV:  10    -0.222450763696E+03   -0.11816E-03   -0.40878E-04 38088   0.109E-01    0.114E-01
DAV:  11    -0.222450760183E+03    0.35131E-05   -0.10572E-04 31880   0.610E-02    0.734E-02
DAV:  12    -0.222450757714E+03    0.24682E-05   -0.58594E-05 26224   0.401E-02
  54 F= -.22245076E+03 E0= -.22244037E+03  d E =-.169306E+00  mag=    22.0000
       N       E                     dE             d eps       ncg     rms          rms(c)
DAV:   1    -0.222275579153E+03    0.17518E+00   -0.24591E+01 30760   0.215E+01    0.198E+00
DAV:   2    -0.222497150480E+03   -0.22157E+00   -0.20760E+00 28344   0.387E+00    0.200E+00
DAV:   3    -0.222506419223E+03   -0.92687E-02   -0.97489E-02 38072   0.113E+00    0.210E+00
DAV:   4    -0.222503141461E+03    0.32778E-02   -0.67128E-02 38304   0.622E-01    0.101E+00
DAV:   5    -0.222503719928E+03   -0.57847E-03   -0.18158E-02 40224   0.355E-01    0.950E-01
DAV:   6    -0.222503226263E+03    0.49367E-03   -0.10671E-02 38328   0.333E-01    0.637E-01
DAV:   7    -0.222503682270E+03   -0.45601E-03   -0.63911E-03 37464   0.328E-01    0.611E-01
DAV:   8    -0.222503424801E+03    0.25747E-03   -0.52520E-03 38328   0.267E-01    0.326E-01
DAV:   9    -0.222503349093E+03    0.75708E-04   -0.10980E-03 38128   0.138E-01    0.114E-01
DAV:  10    -0.222503368389E+03   -0.19296E-04   -0.13557E-04 37120   0.694E-02    0.711E-02
DAV:  11    -0.222503360681E+03    0.77077E-05   -0.36189E-05 23984   0.320E-02
  55 F= -.22250336E+03 E0= -.22249319E+03  d E =-.526030E-01  mag=    22.0000
       N       E                     dE             d eps       ncg     rms          rms(c)
DAV:   1    -0.222443730834E+03    0.59638E-01   -0.56903E+00 29744   0.104E+01    0.101E+00
DAV:   2    -0.222502969715E+03   -0.59239E-01   -0.55718E-01 28344   0.192E+00    0.909E-01
DAV:   3    -0.222506444682E+03   -0.34750E-02   -0.27619E-02 38072   0.585E-01    0.112E+00
DAV:   4    -0.222504947384E+03    0.14973E-02   -0.16721E-02 38336   0.350E-01    0.423E-01
DAV:   5    -0.222505145596E+03   -0.19821E-03   -0.38342E-03 41208   0.170E-01    0.403E-01
DAV:   6    -0.222505032652E+03    0.11294E-03   -0.18006E-03 38280   0.143E-01    0.257E-01
DAV:   7    -0.222505098301E+03   -0.65650E-04   -0.81007E-04 37096   0.143E-01    0.192E-01
DAV:   8    -0.222505106653E+03   -0.83516E-05   -0.55193E-04 37088   0.101E-01    0.124E-01
DAV:   9    -0.222505094665E+03    0.11988E-04   -0.16476E-04 29272   0.548E-02    0.591E-02
DAV:  10    -0.222505090612E+03    0.40524E-05   -0.24546E-05 23520   0.313E-02
  56 F= -.22250509E+03 E0= -.22249499E+03  d E =-.172993E-02  mag=    22.0000
       N       E                     dE             d eps       ncg     rms          rms(c)
DAV:   1    -0.222462110011E+03    0.42985E-01   -0.25331E+00 30056   0.720E+00    0.660E-01
DAV:   2    -0.222486935245E+03   -0.24825E-01   -0.23997E-01 28024   0.135E+00    0.461E-01
DAV:   3    -0.222488663092E+03   -0.17278E-02   -0.92129E-03 38776   0.370E-01    0.662E-01
DAV:   4    -0.222487971170E+03    0.69192E-03   -0.41724E-03 38208   0.216E-01    0.219E-01
DAV:   5    -0.222488107994E+03   -0.13682E-03   -0.14524E-03 41032   0.116E-01    0.286E-01
DAV:   6    -0.222488035746E+03    0.72248E-04   -0.12390E-03 39208   0.101E-01    0.183E-01
DAV:   7    -0.222488030629E+03    0.51173E-05   -0.37968E-04 39200   0.969E-02    0.102E-01
DAV:   8    -0.222488045107E+03   -0.14478E-04   -0.14048E-04 31144   0.561E-02    0.697E-02
DAV:   9    -0.222488038256E+03    0.68504E-05   -0.46458E-05 23624   0.328E-02
  57 F= -.22248804E+03 E0= -.22247797E+03  d E =0.170524E-01  mag=    22.0000
       N       E                     dE             d eps       ncg     rms          rms(c)
DAV:   1    -0.222425423509E+03    0.62622E-01   -0.38351E+00 29880   0.780E+00    0.627E-01
DAV:   2    -0.222447179236E+03   -0.21756E-01   -0.22920E-01 27912   0.140E+00    0.500E-01
DAV:   3    -0.222448303923E+03   -0.11247E-02   -0.10575E-02 41816   0.382E-01    0.670E-01
DAV:   4    -0.222447425470E+03    0.87845E-03   -0.33394E-03 39784   0.222E-01    0.227E-01
DAV:   5    -0.222447657568E+03   -0.23210E-03   -0.26494E-03 40952   0.145E-01    0.416E-01
DAV:   6    -0.222447372329E+03    0.28524E-03   -0.22336E-03 39720   0.134E-01    0.187E-01
DAV:   7    -0.222447369907E+03    0.24214E-05   -0.42664E-04 38984   0.105E-01    0.108E-01
DAV:   8    -0.222447379331E+03   -0.94233E-05   -0.18418E-04 31112   0.558E-02    0.804E-02
DAV:   9    -0.222447369852E+03    0.94792E-05   -0.51660E-05 24696   0.362E-02
  58 F= -.22244737E+03 E0= -.22243738E+03  d E =0.406684E-01  mag=    22.0000
       N       E                     dE             d eps       ncg     rms          rms(c)
DAV:   1    -0.221986507883E+03    0.46087E+00   -0.42337E+01 29808   0.268E+01    0.218E+00
DAV:   2    -0.222279754829E+03   -0.29325E+00   -0.30787E+00 27776   0.493E+00    0.144E+00
DAV:   3    -0.222294842037E+03   -0.15087E-01   -0.12293E-01 42600   0.122E+00    0.202E+00
DAV:   4    -0.222285228495E+03    0.96135E-02   -0.21825E-02 39272   0.723E-01    0.677E-01
DAV:   5    -0.222288828550E+03   -0.36001E-02   -0.34651E-02 41152   0.485E-01    0.155E+00
DAV:   6    -0.222284533492E+03    0.42951E-02   -0.21032E-02 40016   0.415E-01    0.498E-01
DAV:   7    -0.222284898580E+03   -0.36509E-03   -0.34102E-03 40256   0.256E-01    0.339E-01
DAV:   8    -0.222284845668E+03    0.52912E-04   -0.90719E-04 39056   0.148E-01    0.174E-01
DAV:   9    -0.222284813492E+03    0.32176E-04   -0.16606E-04 35656   0.747E-02    0.755E-02
DAV:  10    -0.222284809904E+03    0.35876E-05   -0.64064E-05 26752   0.443E-02
  59 F= -.22228481E+03 E0= -.22227504E+03  d E =0.162560E+00  mag=    22.0000
       N       E                     dE             d eps       ncg     rms          rms(c)
DAV:   1    -0.221073234177E+03    0.12116E+01   -0.89792E+01 28960   0.434E+01    0.366E+00
DAV:   2    -0.221969025493E+03   -0.89579E+00   -0.92133E+00 27992   0.853E+00    0.323E+00
DAV:   3    -0.222011103456E+03   -0.42078E-01   -0.52808E-01 40528   0.226E+00    0.386E+00
DAV:   4    -0.221983320722E+03    0.27783E-01   -0.15911E-01 40104   0.126E+00    0.159E+00
DAV:   5    -0.221988079046E+03   -0.47583E-02   -0.80524E-02 39880   0.794E-01    0.213E+00
DAV:   6    -0.221983931990E+03    0.41471E-02   -0.38982E-02 41464   0.657E-01    0.137E+00
DAV:   7    -0.221981526498E+03    0.24055E-02   -0.20663E-02 39208   0.566E-01    0.866E-01
DAV:   8    -0.221981472635E+03    0.53864E-04   -0.10384E-02 40256   0.367E-01    0.439E-01
DAV:   9    -0.221981468333E+03    0.43015E-05   -0.15390E-03 39040   0.219E-01    0.240E-01
DAV:  10    -0.221981463784E+03    0.45493E-05   -0.56602E-04 39128   0.125E-01    0.181E-01
DAV:  11    -0.221981435962E+03    0.27822E-04   -0.29645E-04 36160   0.825E-02    0.106E-01
DAV:  12    -0.221981429980E+03    0.59813E-05   -0.69493E-05 27640   0.498E-02
  60 F= -.22198143E+03 E0= -.22197194E+03  d E =0.303380E+00  mag=    22.0000
       N       E                     dE             d eps       ncg     rms          rms(c)
DAV:   1    -0.221638199207E+03    0.34324E+00   -0.60117E+01 30240   0.360E+01    0.304E+00
DAV:   2    -0.222197145405E+03   -0.55895E+00   -0.55024E+00 27928   0.704E+00    0.313E+00
DAV:   3    -0.222211007523E+03   -0.13862E-01   -0.24884E-01 39264   0.190E+00    0.317E+00
DAV:   4    -0.222202359579E+03    0.86479E-02   -0.17182E-01 39424   0.105E+00    0.172E+00
DAV:   5    -0.222202371535E+03   -0.11956E-04   -0.47454E-02 39872   0.585E-01    0.138E+00
DAV:   6    -0.222200118487E+03    0.22530E-02   -0.22019E-02 38968   0.524E-01    0.789E-01
DAV:   7    -0.222200590079E+03   -0.47159E-03   -0.10235E-02 39808   0.451E-01    0.816E-01
DAV:   8    -0.222200061920E+03    0.52816E-03   -0.75904E-03 38864   0.336E-01    0.356E-01
DAV:   9    -0.222200154085E+03   -0.92164E-04   -0.19211E-03 39040   0.196E-01    0.230E-01
DAV:  10    -0.222200119670E+03    0.34415E-04   -0.40935E-04 37600   0.106E-01    0.684E-02
DAV:  11    -0.222200136322E+03   -0.16653E-04   -0.77393E-05 28304   0.487E-02    0.708E-02
DAV:  12    -0.222200131528E+03    0.47946E-05   -0.39633E-05 24168   0.345E-02
  61 F= -.22220013E+03 E0= -.22219053E+03  d E =-.218702E+00  mag=    22.0000
       N       E                     dE             d eps       ncg     rms          rms(c)
DAV:   1    -0.222177995012E+03    0.22141E-01   -0.12563E+01 29568   0.150E+01    0.131E+00
DAV:   2    -0.222275146366E+03   -0.97151E-01   -0.97344E-01 27992   0.293E+00    0.128E+00
DAV:   3    -0.222278630148E+03   -0.34838E-02   -0.43124E-02 39064   0.834E-01    0.136E+00
DAV:   4    -0.222276459601E+03    0.21705E-02   -0.24646E-02 39080   0.447E-01    0.624E-01
DAV:   5    -0.222276796100E+03   -0.33650E-03   -0.10111E-02 39696   0.279E-01    0.703E-01
DAV:   6    -0.222276401417E+03    0.39468E-03   -0.76282E-03 39272   0.279E-01    0.527E-01
DAV:   7    -0.222276092584E+03    0.30883E-03   -0.29872E-03 39584   0.232E-01    0.299E-01
DAV:   8    -0.222276114177E+03   -0.21593E-04   -0.11614E-03 38512   0.154E-01    0.191E-01
DAV:   9    -0.222276078340E+03    0.35838E-04   -0.31977E-04 36736   0.867E-02    0.702E-02
DAV:  10    -0.222276082329E+03   -0.39892E-05   -0.42441E-05 27736   0.440E-02
  62 F= -.22227608E+03 E0= -.22226644E+03  d E =-.759508E-01  mag=    22.0000
       N       E                     dE             d eps       ncg     rms          rms(c)
DAV:   1    -0.222269100901E+03    0.69774E-02   -0.17390E+00 30184   0.631E+00    0.580E-01
DAV:   2    -0.222287544046E+03   -0.18443E-01   -0.17215E-01 28040   0.118E+00    0.746E-01
DAV:   3    -0.222288045780E+03   -0.50173E-03   -0.15158E-02 37960   0.403E-01    0.654E-01
DAV:   4    -0.222287783088E+03    0.26269E-03   -0.61825E-03 39272   0.213E-01    0.344E-01
DAV:   5    -0.222287695486E+03    0.87601E-04   -0.11682E-03 39080   0.110E-01    0.174E-01
DAV:   6    -0.222287710607E+03   -0.15120E-04   -0.23269E-04 34376   0.804E-02    0.115E-01
DAV:   7    -0.222287736133E+03   -0.25527E-04   -0.20842E-04 37640   0.776E-02    0.926E-02
DAV:   8    -0.222287736023E+03    0.10995E-06   -0.11309E-04 29928   0.469E-02    0.574E-02
DAV:   9    -0.222287730523E+03    0.55001E-05   -0.24684E-05 21616   0.263E-02
  63 F= -.22228773E+03 E0= -.22227803E+03  d E =-.116482E-01  mag=    22.0000
       N       E                     dE             d eps       ncg     rms          rms(c)
DAV:   1    -0.222282385456E+03    0.53506E-02   -0.32431E-01 29384   0.222E+00    0.158E-01
DAV:   2    -0.222284035841E+03   -0.16504E-02   -0.15972E-02 27936   0.388E-01    0.163E-01
DAV:   3    -0.222284088904E+03   -0.53063E-04   -0.70465E-04 38776   0.102E-01    0.152E-01
DAV:   4    -0.222284057706E+03    0.31197E-04   -0.19073E-04 31312   0.535E-02    0.663E-02
DAV:   5    -0.222284061468E+03   -0.37611E-05   -0.11010E-04 23712   0.324E-02    0.763E-02
DAV:   6    -0.222284052039E+03    0.94280E-05   -0.71885E-05 26960   0.331E-02
  64 F= -.22228405E+03 E0= -.22227434E+03  d E =0.367848E-02  mag=    22.0000
       N       E                     dE             d eps       ncg     rms          rms(c)
[...]
DAV:   9    -0.222173324832E+03    0.30705E-02   -0.13938E-01 39432   0.136E+00    0.430E+00
DAV:  10    -0.222182255754E+03   -0.89309E-02   -0.34021E-01 39016   0.126E+00    0.300E+00
DAV:  11    -0.222169700537E+03    0.12555E-01   -0.20674E-02 38488   0.742E-01    0.135E+00
DAV:  12    -0.222168518619E+03    0.11819E-02   -0.10773E-02 38888   0.378E-01    0.647E-01
DAV:  13    -0.222169420558E+03   -0.90194E-03   -0.43186E-03 38424   0.367E-01    0.836E-01
DAV:  14    -0.222168403726E+03    0.10168E-02   -0.19483E-03 38104   0.227E-01    0.516E-01
DAV:  15    -0.222168009336E+03    0.39439E-03   -0.34630E-03 38600   0.200E-01    0.507E-01
DAV:  16    -0.222167856790E+03    0.15255E-03   -0.34098E-03 38512   0.172E-01    0.281E-01
DAV:  17    -0.222167839312E+03    0.17478E-04   -0.28905E-04 35056   0.666E-02    0.117E-01
DAV:  18    -0.222167820304E+03    0.19008E-04   -0.52715E-05 29008   0.331E-02    0.626E-02
DAV:  19    -0.222167821807E+03   -0.15028E-05   -0.26618E-05 22776   0.220E-02
  88 F= -.22216782E+03 E0= -.22215556E+03  d E =0.456687E+00  mag=    22.0000
       N       E                     dE             d eps       ncg     rms          rms(c)
DAV:   1    -0.221888032066E+03    0.27979E+00   -0.72011E+01 29984   0.349E+01    0.362E+00
DAV:   2    -0.222522459393E+03   -0.63443E+00   -0.60229E+00 27768   0.661E+00    0.462E+00
DAV:   3    -0.222577631013E+03   -0.55172E-01   -0.92863E-01 36176   0.218E+00    0.450E+00
DAV:   4    -0.222547266942E+03    0.30364E-01   -0.10314E-01 38952   0.104E+00    0.279E+00
DAV:   5    -0.222541614672E+03    0.56523E-02   -0.78997E-02 40328   0.705E-01    0.229E+00
DAV:   6    -0.222546501708E+03   -0.48870E-02   -0.76656E-02 38776   0.881E-01    0.235E+00
DAV:   7    -0.222549643211E+03   -0.31415E-02   -0.53417E-02 37672   0.738E-01    0.287E+00
DAV:   8    -0.222536319864E+03    0.13323E-01   -0.33374E-02 38256   0.530E-01    0.993E-01
DAV:   9    -0.222539315026E+03   -0.29952E-02   -0.26369E-02 38840   0.431E-01    0.840E-01
DAV:  10    -0.222539351799E+03   -0.36773E-04   -0.66568E-03 38272   0.343E-01    0.422E-01
DAV:  11    -0.222539501509E+03   -0.14971E-03   -0.19912E-03 38208   0.198E-01    0.331E-01
DAV:  12    -0.222539354022E+03    0.14749E-03   -0.66325E-04 37560   0.106E-01    0.150E-01
DAV:  13    -0.222539335116E+03    0.18905E-04   -0.75005E-05 28152   0.532E-02    0.848E-02
DAV:  14    -0.222539314296E+03    0.20820E-04   -0.43492E-05 28880   0.274E-02    0.481E-02
DAV:  15    -0.222539310904E+03    0.33925E-05   -0.26888E-05 25520   0.265E-02
  89 F= -.22253931E+03 E0= -.22252795E+03  d E =-.371489E+00  mag=    22.0000
       N       E                     dE             d eps       ncg     rms          rms(c)
DAV:   1    -0.222474850256E+03    0.64464E-01   -0.16678E+01 29904   0.169E+01    0.160E+00
DAV:   2    -0.222609282308E+03   -0.13443E+00   -0.12736E+00 27784   0.306E+00    0.174E+00
DAV:   3    -0.222620770901E+03   -0.11489E-01   -0.14609E-01 38264   0.101E+00    0.212E+00
DAV:   4    -0.222613775251E+03    0.69956E-02   -0.29241E-02 39696   0.532E-01    0.948E-01
DAV:   5    -0.222613655551E+03    0.11970E-03   -0.10374E-02 39808   0.262E-01    0.723E-01
DAV:   6    -0.222613807321E+03   -0.15177E-03   -0.52185E-03 37000   0.273E-01    0.592E-01
DAV:   7    -0.222614192510E+03   -0.38519E-03   -0.57009E-03 37424   0.285E-01    0.646E-01
DAV:   8    -0.222613783467E+03    0.40904E-03   -0.49074E-03 38632   0.231E-01    0.385E-01
DAV:   9    -0.222613716388E+03    0.67079E-04   -0.10471E-03 37896   0.144E-01    0.170E-01
DAV:  10    -0.222613700109E+03    0.16279E-04   -0.18691E-04 34688   0.713E-02    0.100E-01
DAV:  11    -0.222613696405E+03    0.37042E-05   -0.11017E-04 26792   0.468E-02    0.642E-02
DAV:  12    -0.222613692086E+03    0.43194E-05   -0.17804E-05 22520   0.275E-02
  90 F= -.22261369E+03 E0= -.22260262E+03  d E =-.743812E-01  mag=    22.0000
       N       E                     dE             d eps       ncg     rms          rms(c)
DAV:   1    -0.222463376730E+03    0.15032E+00   -0.23888E+01 29664   0.189E+01    0.185E+00
DAV:   2    -0.222645014203E+03   -0.18164E+00   -0.17342E+00 27800   0.346E+00    0.168E+00
DAV:   3    -0.222659959748E+03   -0.14946E-01   -0.10268E-01 38048   0.105E+00    0.227E+00
DAV:   4    -0.222652282878E+03    0.76769E-02   -0.34640E-02 38672   0.609E-01    0.952E-01
DAV:   5    -0.222652394395E+03   -0.11152E-03   -0.11360E-02 40008   0.283E-01    0.759E-01
DAV:   6    -0.222653628892E+03   -0.12345E-02   -0.14177E-02 36424   0.337E-01    0.977E-01
DAV:   7    -0.222652373596E+03    0.12553E-02   -0.14304E-02 37960   0.334E-01    0.487E-01
DAV:   8    -0.222652525795E+03   -0.15220E-03   -0.21052E-03 39488   0.187E-01    0.222E-01
DAV:   9    -0.222652493081E+03    0.32714E-04   -0.55667E-04 38168   0.115E-01    0.106E-01
DAV:  10    -0.222652479129E+03    0.13953E-04   -0.17187E-04 35384   0.573E-02    0.641E-02
DAV:  11    -0.222652475114E+03    0.40147E-05   -0.29274E-05 24728   0.344E-02
  91 F= -.22265248E+03 E0= -.22264166E+03  d E =-.387830E-01  mag=    22.0000
       N       E                     dE             d eps       ncg     rms          rms(c)
DAV:   1    -0.222621142934E+03    0.31336E-01   -0.42182E+00 29480   0.827E+00    0.771E-01
DAV:   2    -0.222654437224E+03   -0.33294E-01   -0.31719E-01 27960   0.150E+00    0.897E-01
DAV:   3    -0.222655925600E+03   -0.14884E-02   -0.19313E-02 38216   0.483E-01    0.959E-01
DAV:   4    -0.222655026906E+03    0.89869E-03   -0.99857E-03 38088   0.278E-01    0.431E-01
DAV:   5    -0.222655119897E+03   -0.92991E-04   -0.31850E-03 40216   0.142E-01    0.398E-01
DAV:   6    -0.222654985928E+03    0.13397E-03   -0.12644E-03 36048   0.141E-01    0.205E-01
DAV:   7    -0.222655065252E+03   -0.79325E-04   -0.55622E-04 37968   0.142E-01    0.163E-01
DAV:   8    -0.222655044683E+03    0.20570E-04   -0.19930E-04 37344   0.862E-02    0.739E-02
DAV:   9    -0.222655038994E+03    0.56890E-05   -0.60202E-05 28112   0.384E-02
  92 F= -.22265504E+03 E0= -.22264429E+03  d E =-.256388E-02  mag=    22.0000
       N       E                     dE             d eps       ncg     rms          rms(c)
DAV:   1    -0.222624715681E+03    0.30329E-01   -0.35433E+00 29256   0.770E+00    0.657E-01
DAV:   2    -0.222649836186E+03   -0.25121E-01   -0.23980E-01 27952   0.138E+00    0.787E-01
DAV:   3    -0.222650679460E+03   -0.84327E-03   -0.13295E-02 38136   0.416E-01    0.768E-01
DAV:   4    -0.222650166707E+03    0.51275E-03   -0.64375E-03 38280   0.228E-01    0.370E-01
DAV:   5    -0.222650237680E+03   -0.70973E-04   -0.25485E-03 39928   0.134E-01    0.365E-01
DAV:   6    -0.222650165413E+03    0.72267E-04   -0.13561E-03 37888   0.139E-01    0.262E-01
DAV:   7    -0.222650145339E+03    0.20074E-04   -0.67819E-04 38384   0.135E-01    0.150E-01
DAV:   8    -0.222650156244E+03   -0.10905E-04   -0.35652E-04 36312   0.833E-02    0.108E-01
DAV:   9    -0.222650140998E+03    0.15246E-04   -0.12587E-04 29536   0.452E-02    0.469E-02
DAV:  10    -0.222650137752E+03    0.32461E-05   -0.19496E-05 21520   0.249E-02
  93 F= -.22265014E+03 E0= -.22263950E+03  d E =0.490124E-02  mag=    22.0000
       N       E                     dE             d eps       ncg     rms          rms(c)
DAV:   1    -0.222646686059E+03    0.34549E-02   -0.21322E-01 30392   0.204E+00    0.167E-01
DAV:   2    -0.222648327651E+03   -0.16416E-02   -0.15698E-02 28128   0.365E-01    0.122E-01
DAV:   3    -0.222648459853E+03   -0.13220E-03   -0.86671E-04 37800   0.101E-01    0.209E-01
DAV:   4    -0.222648386830E+03    0.73023E-04   -0.49845E-04 29840   0.678E-02    0.671E-02
DAV:   5    -0.222648392899E+03   -0.60690E-05   -0.81156E-05 24800   0.300E-02
  94 F= -.22264839E+03 E0= -.22263780E+03  d E =0.174485E-02  mag=    22.0000
       N       E                     dE             d eps       ncg     rms          rms(c)
DAV:   1    -0.222638964362E+03    0.94225E-02   -0.79506E-01 29112   0.339E+00    0.223E-01
DAV:   2    -0.222642436887E+03   -0.34725E-02   -0.35137E-02 27768   0.602E-01    0.187E-01
DAV:   3    -0.222642584999E+03   -0.14811E-03   -0.13906E-03 39544   0.153E-01    0.267E-01
DAV:   4    -0.222642458700E+03    0.12630E-03   -0.53399E-04 38408   0.937E-02    0.903E-02
DAV:   5    -0.222642478385E+03   -0.19684E-04   -0.22185E-04 32976   0.551E-02    0.139E-01
DAV:   6    -0.222642452490E+03    0.25895E-04   -0.40287E-04 34184   0.593E-02    0.103E-01
DAV:   7    -0.222642445000E+03    0.74893E-05   -0.15640E-04 29736   0.490E-02    0.584E-02
DAV:   8    -0.222642444450E+03    0.54996E-06   -0.29822E-05 21192   0.292E-02
  95 F= -.22264244E+03 E0= -.22263191E+03  d E =0.594845E-02  mag=    22.0000
       N       E                     dE             d eps       ncg     rms          rms(c)
DAV:   1    -0.222619275482E+03    0.23170E-01   -0.20860E+00 29216   0.544E+00    0.365E-01
DAV:   2    -0.222627893354E+03   -0.86179E-02   -0.90358E-02 27688   0.955E-01    0.193E-01
DAV:   3    -0.222628167198E+03   -0.27384E-03   -0.23054E-03 39216   0.172E-01    0.293E-01
DAV:   4    -0.222628036641E+03    0.13056E-03   -0.14821E-03 41320   0.105E-01    0.150E-01
DAV:   5    -0.222628043721E+03   -0.70804E-05   -0.58608E-04 37592   0.832E-02    0.193E-01
DAV:   6    -0.222627960397E+03    0.83324E-04   -0.42139E-04 39376   0.735E-02    0.528E-02
DAV:   7    -0.222627976687E+03   -0.16289E-04   -0.42288E-05 28952   0.280E-02    0.329E-02
DAV:   8    -0.222627975675E+03    0.10119E-05   -0.13255E-05 17688   0.202E-02
  96 F= -.22262798E+03 E0= -.22261753E+03  d E =0.144688E-01  mag=    22.0000
       N       E                     dE             d eps       ncg     rms          rms(c)
DAV:   1    -0.216857156265E+03    0.57708E+01   -0.42697E+02 30376   0.934E+01    0.153E+01
DAV:   2    -0.240055635580E+03   -0.23198E+02   -0.10422E+02 35080   0.269E+01    0.682E+01
DAV:   3    -0.220828672615E+03    0.19227E+02   -0.24388E+01 36976   0.178E+01    0.129E+01
DAV:   4    -0.221768061446E+03   -0.93939E+00   -0.13633E+00 36840   0.480E+00    0.119E+01
DAV:   5    -0.221879350620E+03   -0.11129E+00   -0.19402E+00 38560   0.293E+00    0.973E+00
DAV:   6    -0.221890143043E+03   -0.10792E-01   -0.97927E-01 38160   0.183E+00    0.713E+00
DAV:   7    -0.221910645536E+03   -0.20502E-01   -0.30667E-01 38456   0.175E+00    0.582E+00
DAV:   8    -0.221893417235E+03    0.17228E-01   -0.18405E-01 38832   0.140E+00    0.381E+00
DAV:   9    -0.221881032582E+03    0.12385E-01   -0.94362E-02 39928   0.125E+00    0.321E+00
DAV:  10    -0.221860795294E+03    0.20237E-01   -0.48059E-02 38336   0.106E+00    0.219E+00
DAV:  11    -0.221847656505E+03    0.13139E-01   -0.27888E-02 40184   0.827E-01    0.142E+00
DAV:  12    -0.221847181811E+03    0.47469E-03   -0.19881E-02 38824   0.549E-01    0.136E+00
DAV:  13    -0.221848154203E+03   -0.97239E-03   -0.52591E-03 38104   0.352E-01    0.938E-01
DAV:  14    -0.221849369944E+03   -0.12157E-02   -0.27963E-03 38704   0.267E-01    0.591E-01
DAV:  15    -0.221849982546E+03   -0.61260E-03   -0.20568E-03 38864   0.231E-01    0.416E-01
DAV:  16    -0.221850246322E+03   -0.26378E-03   -0.98289E-04 38592   0.136E-01    0.185E-01
DAV:  17    -0.221850227593E+03    0.18729E-04   -0.24057E-04 35888   0.822E-02    0.134E-01
DAV:  18    -0.221850244723E+03   -0.17131E-04   -0.10955E-04 29992   0.455E-02    0.794E-02
DAV:  19    -0.221850256294E+03   -0.11571E-04   -0.24911E-05 23264   0.267E-02    0.620E-02
DAV:  20    -0.221850260169E+03   -0.38749E-05   -0.11269E-05 18272   0.176E-02
  97 F= -.22185026E+03 E0= -.22183917E+03  d E =0.777716E+00  mag=    22.0017
       N       E                     dE             d eps       ncg     rms          rms(c)
DAV:   1    -0.219001360714E+03    0.28489E+01   -0.29022E+02 29456   0.733E+01    0.884E+00
DAV:   2    -0.223150584663E+03   -0.41492E+01   -0.40794E+01 29112   0.177E+01    0.142E+01
DAV:   3    -0.222750975656E+03    0.39961E+00   -0.32111E+00 36632   0.618E+00    0.911E+00
DAV:   4    -0.222558667708E+03    0.19231E+00   -0.48274E-01 38608   0.252E+00    0.574E+00
DAV:   5    -0.222495727240E+03    0.62940E-01   -0.56506E-01 39720   0.220E+00    0.474E+00
DAV:   6    -0.222491722822E+03    0.40044E-02   -0.34719E-01 38600   0.155E+00    0.340E+00
DAV:   7    -0.222506223626E+03   -0.14501E-01   -0.21229E-01 37840   0.134E+00    0.275E+00
DAV:   8    -0.222502077752E+03    0.41459E-02   -0.49271E-02 38056   0.946E-01    0.212E+00
DAV:   9    -0.222500749728E+03    0.13280E-02   -0.56072E-02 38496   0.923E-01    0.179E+00
DAV:  10    -0.222499078395E+03    0.16713E-02   -0.15862E-02 39512   0.717E-01    0.109E+00
DAV:  11    -0.222499492290E+03   -0.41389E-03   -0.10128E-02 38152   0.456E-01    0.377E-01
DAV:  12    -0.222500592674E+03   -0.11004E-02   -0.36142E-03 37816   0.221E-01    0.504E-01
DAV:  13    -0.222500017661E+03    0.57501E-03   -0.17009E-03 37888   0.127E-01    0.200E-01
DAV:  14    -0.222500194286E+03   -0.17662E-03   -0.75930E-04 37336   0.122E-01    0.346E-01
DAV:  15    -0.222500000888E+03    0.19340E-03   -0.21035E-04 34128   0.733E-02    0.230E-01
DAV:  16    -0.222499925519E+03    0.75369E-04   -0.30729E-04 34416   0.591E-02    0.880E-02
DAV:  17    -0.222499943206E+03   -0.17687E-04   -0.40742E-05 27496   0.332E-02    0.550E-02
DAV:  18    -0.222499941394E+03    0.18120E-05   -0.13595E-05 18568   0.198E-02
  98 F= -.22249994E+03 E0= -.22248927E+03  d E =-.649681E+00  mag=    22.0000
       N       E                     dE             d eps       ncg     rms          rms(c)
DAV:   1    -0.222442939054E+03    0.57004E-01   -0.57701E+00 30392   0.112E+01    0.101E+00
DAV:   2    -0.222499242032E+03   -0.56303E-01   -0.53569E-01 27984   0.203E+00    0.912E-01
DAV:   3    -0.222503845375E+03   -0.46033E-02   -0.33750E-02 38000   0.631E-01    0.131E+00
DAV:   4    -0.222501349739E+03    0.24956E-02   -0.16900E-02 38664   0.360E-01    0.464E-01
DAV:   5    -0.222501530049E+03   -0.18031E-03   -0.32846E-03 41216   0.163E-01    0.365E-01
DAV:   6    -0.222501511857E+03    0.18193E-04   -0.12317E-03 36720   0.138E-01    0.231E-01
DAV:   7    -0.222501602666E+03   -0.90809E-04   -0.85364E-04 39048   0.150E-01    0.215E-01
DAV:   8    -0.222501600669E+03    0.19972E-05   -0.53654E-04 38592   0.902E-02    0.119E-01
DAV:   9    -0.222501578328E+03    0.22341E-04   -0.14801E-04 30480   0.469E-02    0.321E-02
DAV:  10    -0.222501576964E+03    0.13638E-05   -0.22678E-05 22928   0.214E-02
  99 F= -.22250158E+03 E0= -.22249111E+03  d E =-.163557E-02  mag=    22.0000
       N       E                     dE             d eps       ncg     rms          rms(c)
DAV:   1    -0.222435087892E+03    0.66490E-01   -0.11265E+01 29512   0.128E+01    0.931E-01
DAV:   2    -0.222489926972E+03   -0.54839E-01   -0.54384E-01 28232   0.233E+00    0.128E+00
DAV:   3    -0.222490515456E+03   -0.58848E-03   -0.37234E-02 38904   0.616E-01    0.105E+00
DAV:   4    -0.222489538870E+03    0.97659E-03   -0.99117E-03 38256   0.302E-01    0.648E-01
DAV:   5    -0.222489518418E+03    0.20452E-04   -0.60891E-03 40408   0.201E-01    0.619E-01
DAV:   6    -0.222489212800E+03    0.30562E-03   -0.33231E-03 35352   0.247E-01    0.433E-01
DAV:   7    -0.222489097118E+03    0.11568E-03   -0.26597E-03 38728   0.222E-01    0.299E-01
DAV:   8    -0.222489036278E+03    0.60840E-04   -0.95804E-04 38696   0.127E-01    0.142E-01
DAV:   9    -0.222489015087E+03    0.21190E-04   -0.23450E-04 37496   0.669E-02    0.566E-02
DAV:  10    -0.222489010704E+03    0.43837E-05   -0.32756E-05 26360   0.355E-02
 100 F= -.22248901E+03 E0= -.22247884E+03  d E =0.125663E-01  mag=    22.0000
       N       E                     dE             d eps       ncg     rms          rms(c)
DAV:   1    -0.222475382543E+03    0.13633E-01   -0.13155E+00 28776   0.440E+00    0.386E-01
DAV:   2    -0.222484491376E+03   -0.91088E-02   -0.87144E-02 28208   0.816E-01    0.323E-01
DAV:   3    -0.222485036820E+03   -0.54544E-03   -0.32395E-03 37904   0.207E-01    0.416E-01
DAV:   4    -0.222484794841E+03    0.24198E-03   -0.15916E-03 38080   0.128E-01    0.183E-01
DAV:   5    -0.222484869859E+03   -0.75018E-04   -0.80262E-04 37976   0.799E-02    0.254E-01
DAV:   6    -0.222484775004E+03    0.94855E-04   -0.59075E-04 35456   0.796E-02    0.940E-02
DAV:   7    -0.222484808507E+03   -0.33503E-04   -0.14749E-04 35800   0.735E-02    0.925E-02
DAV:   8    -0.222484797261E+03    0.11246E-04   -0.41729E-05 27352   0.421E-02    0.303E-02
DAV:   9    -0.222484796815E+03    0.44548E-06   -0.91002E-06 17152   0.172E-02
 101 F= -.22248480E+03 E0= -.22247468E+03  d E =0.421389E-02  mag=    22.0000
       N       E                     dE             d eps       ncg     rms          rms(c)
DAV:   1    -0.222484207645E+03    0.58962E-03   -0.51264E-01 29424   0.275E+00    0.198E-01
DAV:   2    -0.222486835289E+03   -0.26276E-02   -0.25421E-02 28384   0.493E-01    0.222E-01
DAV:   3    -0.222486916026E+03   -0.80737E-04   -0.12640E-03 39248   0.138E-01    0.216E-01
DAV:   4    -0.222486861370E+03    0.54656E-04   -0.40425E-04 35760   0.682E-02    0.921E-02
DAV:   5    -0.222486870851E+03   -0.94815E-05   -0.19108E-04 27320   0.400E-02    0.112E-01
DAV:   6    -0.222486854692E+03    0.16159E-04   -0.15174E-04 30856   0.449E-02    0.701E-02
DAV:   7    -0.222486854601E+03    0.90560E-07   -0.75877E-05 29752   0.426E-02
 102 F= -.22248685E+03 E0= -.22247673E+03  d E =-.205779E-02  mag=    22.0000
       N       E                     dE             d eps       ncg     rms          rms(c)
DAV:   1    -0.222492966333E+03   -0.61116E-02   -0.36428E-01 29512   0.237E+00    0.164E-01
DAV:   2    -0.222494671406E+03   -0.17051E-02   -0.17611E-02 28208   0.428E-01    0.141E-01
DAV:   3    -0.222494752134E+03   -0.80728E-04   -0.89388E-04 40888   0.129E-01    0.199E-01
DAV:   4    -0.222494688493E+03    0.63642E-04   -0.39340E-04 32720   0.697E-02    0.767E-02
DAV:   5    -0.222494689902E+03   -0.14089E-05   -0.12208E-04 24904   0.385E-02    0.699E-02
DAV:   6    -0.222494686400E+03    0.35011E-05   -0.11124E-04 25976   0.407E-02    0.692E-02
DAV:   7    -0.222494677451E+03    0.89491E-05   -0.50076E-05 26928   0.348E-02
 103 F= -.22249468E+03 E0= -.22248455E+03  d E =-.782285E-02  mag=    22.0000
       N       E                     dE             d eps       ncg     rms          rms(c)
DAV:   1    -0.222502157424E+03   -0.74710E-02   -0.13613E+00 29264   0.460E+00    0.315E-01
DAV:   2    -0.222508662853E+03   -0.65054E-02   -0.66582E-02 27920   0.811E-01    0.183E-01
DAV:   3    -0.222509002137E+03   -0.33928E-03   -0.24154E-03 40136   0.168E-01    0.333E-01
DAV:   4    -0.222508818831E+03    0.18331E-03   -0.11801E-03 39896   0.969E-02    0.108E-01
DAV:   5    -0.222508854580E+03   -0.35749E-04   -0.37260E-04 34080   0.673E-02    0.164E-01
DAV:   6    -0.222508794171E+03    0.60408E-04   -0.28089E-04 37624   0.625E-02    0.550E-02
DAV:   7    -0.222508809966E+03   -0.15794E-04   -0.74340E-05 31424   0.387E-02    0.571E-02
DAV:   8    -0.222508805244E+03    0.47223E-05   -0.35371E-05 21160   0.262E-02
 104 F= -.22250881E+03 E0= -.22249866E+03  d E =-.141278E-01  mag=    22.0000
       N       E                     dE             d eps       ncg     rms          rms(c)
DAV:   1    -0.222511544682E+03   -0.27347E-02   -0.12567E+00 29952   0.370E+00    0.212E-01
DAV:   2    -0.222515376598E+03   -0.38319E-02   -0.38851E-02 27760   0.613E-01    0.146E-01
DAV:   3    -0.222515511110E+03   -0.13451E-03   -0.11861E-03 38448   0.130E-01    0.233E-01
DAV:   4    -0.222515406538E+03    0.10457E-03   -0.53067E-04 38320   0.750E-02    0.780E-02
DAV:   5    -0.222515419998E+03   -0.13460E-04   -0.25387E-04 29608   0.461E-02    0.126E-01
DAV:   6    -0.222515379697E+03    0.40302E-04   -0.20405E-04 32816   0.473E-02    0.457E-02
DAV:   7    -0.222515389608E+03   -0.99115E-05   -0.70404E-05 29368   0.363E-02
 105 F= -.22251539E+03 E0= -.22250520E+03  d E =-.658436E-02  mag=    22.0000
