       N       E                     dE             d eps       ncg     rms          ort
DAV:   1     0.541343808305E+04    0.54134E+04   -0.27063E+05  7904   0.160E+03
DAV:   2     0.166366984019E+03   -0.52471E+04   -0.48854E+04  7904   0.450E+02
DAV:   3    -0.384649723708E+03   -0.55102E+03   -0.54217E+03  7904   0.161E+02
DAV:   4    -0.396689179874E+03   -0.12039E+02   -0.11977E+02  7904   0.253E+01
DAV:   5    -0.397065330263E+03   -0.37615E+00   -0.37554E+00  7904   0.359E+00
SDA:   6    -0.164177755373E+03    0.23289E+03   -0.37554E+00  7904   0.102E+04 0.000E+00
CGA:   7    -0.254022841429E+03   -0.89845E+02   -0.11185E+03  7904   0.228E+04-0.843E+02
CGA:   8    -0.279433797860E+03   -0.25411E+02   -0.62780E+02  7904   0.734E+03-0.486E+03
CGA:   9    -0.283492167602E+03   -0.40584E+01   -0.13700E+02  7904   0.831E+03-0.416E+03
CGA:  10    -0.279810342637E+03    0.36818E+01   -0.26107E+02  7904   0.195E+04-0.650E+03
CGA:  11    -0.287251137487E+03   -0.74408E+01   -0.77901E+02  7904   0.571E+03-0.281E+03
CGA:  12    -0.303712253102E+03   -0.16461E+02   -0.73809E+01  7904   0.272E+03 0.545E+03
CGA:  13    -0.281570597173E+03    0.22142E+02   -0.12690E+02  7904   0.205E+04-0.100E+04
CGA:  14    -0.296563565587E+03   -0.14993E+02   -0.67427E+02  7904   0.541E+03-0.358E+03
CGA:  15    -0.309768855381E+03   -0.13205E+02   -0.63341E+01  7904   0.326E+03 0.494E+03
CGA:  16    -0.290497956023E+03    0.19271E+02   -0.13637E+02  7904   0.190E+04-0.112E+04
CGA:  17    -0.299648855144E+03   -0.91509E+01   -0.65047E+02  7904   0.637E+03-0.347E+03
CGA:  18    -0.311319074458E+03   -0.11670E+02   -0.81155E+01  7904   0.347E+03 0.206E+03
CGA:  19    -0.296450170229E+03    0.14869E+02   -0.15653E+02  7904   0.988E+03-0.676E+03
CGA:  20    -0.322363025699E+03   -0.25913E+02   -0.27323E+02  7904   0.300E+03-0.793E+03
CGA:  21    -0.321700749590E+03    0.66228E+00   -0.10126E+02  7904   0.349E+03-0.253E+03
CGA:  22    -0.299798243626E+03    0.21903E+02   -0.11658E+02  7904   0.290E+04-0.103E+04
CGA:  23    -0.308811431564E+03   -0.90132E+01   -0.10364E+03  7904   0.104E+04-0.710E+03
CGA:  24    -0.320240885583E+03   -0.11429E+02   -0.31893E+02  7904   0.307E+03-0.345E+03
CGA:  25    -0.329303556293E+03   -0.90627E+01   -0.44859E+01  7904   0.103E+03 0.562E+02
CGA:  26    -0.326732374188E+03    0.25712E+01   -0.23140E+01  7904   0.525E+03-0.219E+03
CGA:  27    -0.303426071355E+03    0.23306E+02   -0.16495E+02  7904   0.152E+04-0.332E+03
CGA:  28    -0.293682352195E+03    0.97437E+01   -0.47425E+02  7904   0.173E+04-0.918E+03
CGA:  29    -0.312475229141E+03   -0.18793E+02   -0.57383E+02  7904   0.286E+03 0.133E+02
CGA:  30    -0.326704426742E+03   -0.14229E+02   -0.64848E+01  7904   0.505E+03 0.293E+03
CGA:  31    -0.324044826735E+03    0.26596E+01   -0.14615E+02  7904   0.208E+03-0.184E+03
CGA:  32    -0.331453080678E+03   -0.74083E+01   -0.16555E+01  7904   0.165E+03 0.323E+03
CGA:  33    -0.332398991825E+03   -0.94591E+00   -0.21702E+01  7904   0.834E+02-0.101E+03
CGA:  34    -0.332733016748E+03   -0.33402E+00   -0.10443E+01  7904   0.568E+02-0.601E+02
CGA:  35    -0.333028877921E+03   -0.29586E+00   -0.63476E+00  7904   0.213E+02-0.242E+02
CGA:  36    -0.333373131630E+03   -0.34425E+00   -0.29409E+00  7904   0.674E+01 0.148E+01
CGA:  37    -0.333603718078E+03   -0.23059E+00   -0.26435E+00  7904   0.185E+02-0.291E+00
CGA:  38    -0.333891423383E+03   -0.28771E+00   -0.15082E+00  7904   0.132E+02 0.161E+02
CGA:  39    -0.334012139410E+03   -0.12072E+00   -0.89535E-01  7904   0.276E+01 0.420E+01
CGA:  40    -0.334074860631E+03   -0.62721E-01   -0.56265E-01  7904   0.642E+01 0.334E+00
CGA:  41    -0.334308011568E+03   -0.23315E+00   -0.21521E+00  7904   0.391E+02 0.384E+00
CGA:  42    -0.334522658512E+03   -0.21465E+00   -0.22603E+00  7904   0.502E+02-0.378E+02
CGA:  43    -0.334918079690E+03   -0.39542E+00   -0.60472E+00  7904   0.123E+02-0.145E+02
CGA:  44    -0.335050179444E+03   -0.13210E+00   -0.11473E+00  7904   0.220E+01 0.107E+01
CGA:  45    -0.335112909424E+03   -0.62730E-01   -0.65172E-01  7904   0.316E+01-0.177E-01
CGA:  46    -0.335263328152E+03   -0.15042E+00   -0.15024E+00  7904   0.108E+02 0.643E-01
CGA:  47    -0.335435835570E+03   -0.17251E+00   -0.10208E+00  7904   0.518E+01 0.758E+01
CGA:  48    -0.335482139340E+03   -0.46304E-01   -0.38615E-01  7904   0.763E+00 0.914E+00
CGA:  49    -0.335507509325E+03   -0.25370E-01   -0.24214E-01  7904   0.203E+01 0.976E-02
CGA:  50    -0.335529484969E+03   -0.21976E-01   -0.15329E-01  7904   0.164E+01 0.834E+00
CGA:  51    -0.335550500158E+03   -0.21015E-01   -0.22709E-01  7904   0.150E+01-0.140E+00
CGA:  52    -0.335579026750E+03   -0.28527E-01   -0.29121E-01  7904   0.465E+01-0.735E-02
CGA:  53    -0.335624435746E+03   -0.45409E-01   -0.28770E-01  7904   0.468E+01 0.263E+01
CGA:  54    -0.335679805254E+03   -0.55370E-01   -0.47922E-01  7904   0.888E+00 0.584E+00
CGA:  55    -0.335705517121E+03   -0.25712E-01   -0.27606E-01  7904   0.439E+00 0.657E-01
CGA:  56    -0.335714737804E+03   -0.92207E-02   -0.90995E-02  7904   0.405E+00 0.264E-02
CGA:  57    -0.335757755629E+03   -0.43018E-01   -0.40453E-01  7904   0.161E+01 0.428E-01
CGA:  58    -0.335788345691E+03   -0.30590E-01   -0.29158E-01  7904   0.105E+01 0.540E-01
CGA:  59    -0.335824350927E+03   -0.36005E-01   -0.35067E-01  7904   0.359E+00-0.817E-01
CGA:  60    -0.335834075827E+03   -0.97249E-02   -0.97086E-02  7904   0.550E+00-0.769E-03
CGA:  61    -0.335845376096E+03   -0.11300E-01   -0.10821E-01  7904   0.788E-01 0.112E-01
CGA:  62    -0.335846450635E+03   -0.10745E-02   -0.10982E-02  7904   0.520E-01-0.132E-02
CGA:  63    -0.335848950268E+03   -0.24996E-02   -0.24899E-02  7904   0.897E-01 0.300E-03
CGA:  64    -0.335851082394E+03   -0.21321E-02   -0.21620E-02  7904   0.893E-01 0.854E-04
CGA:  65    -0.335853806684E+03   -0.27243E-02   -0.27212E-02  7904   0.666E-01-0.484E-03
CGA:  66    -0.335855076193E+03   -0.12695E-02   -0.12693E-02  7904   0.649E-01-0.161E-03
CGA:  67    -0.335857976784E+03   -0.29006E-02   -0.29453E-02  7904   0.149E+00-0.292E-02
CGA:  68    -0.335860426523E+03   -0.24497E-02   -0.25441E-02  7904   0.374E-01-0.276E-02
CGA:  69    -0.335861304158E+03   -0.87763E-03   -0.87381E-03  7904   0.376E-01-0.146E-03
CGA:  70    -0.335862045373E+03   -0.74121E-03   -0.75476E-03  7904   0.123E-01-0.208E-03
CGA:  71    -0.335862270825E+03   -0.22545E-03   -0.22511E-03  7904   0.135E-01-0.318E-04
CGA:  72    -0.335862938317E+03   -0.66749E-03   -0.66244E-03  7904   0.211E-01 0.230E-03
CGA:  73    -0.335863259881E+03   -0.32156E-03   -0.32162E-03  7904   0.758E-02-0.669E-04
CGA:  74    -0.335863635552E+03   -0.37567E-03   -0.37415E-03  7904   0.259E-01 0.679E-04
CGA:  75    -0.335864387323E+03   -0.75177E-03   -0.75014E-03  7904   0.180E-01-0.221E-03
CGA:  76    -0.335864649549E+03   -0.26223E-03   -0.26656E-03  7904   0.690E-02-0.194E-03
CGA:  77    -0.335864841537E+03   -0.19199E-03   -0.19191E-03  7904   0.647E-02-0.203E-04
CGA:  78    -0.335864974732E+03   -0.13319E-03   -0.13382E-03  7904   0.403E-02-0.105E-04
CGA:  79    -0.335865102757E+03   -0.12802E-03   -0.12803E-03  7904   0.834E-02-0.961E-05
CGA:  80    -0.335865425317E+03   -0.32256E-03   -0.32162E-03  7904   0.988E-02 0.715E-04
CGA:  81    -0.335865595626E+03   -0.17031E-03   -0.17085E-03  7904   0.413E-02-0.385E-04
CGA:  82    -0.335865758127E+03   -0.16250E-03   -0.16208E-03  7904   0.933E-02 0.312E-04
CGA:  83    -0.335866057564E+03   -0.29944E-03   -0.29939E-03  7904   0.843E-02 0.122E-04
SDA:  84    -0.335866196856E+03   -0.13929E-03   -0.14145E-03  7904   0.387E-02-0.535E-04
CGA:  85    -0.335866238593E+03   -0.41737E-04   -0.41771E-04  7904   0.193E-02 0.686E-06
CGA:  86    -0.335866393140E+03   -0.15455E-03   -0.15245E-03  7904   0.412E-02 0.441E-04
CGA:  87    -0.335866471317E+03   -0.78177E-04   -0.78303E-04  7904   0.372E-02 0.924E-05
CGA:  88    -0.335866660138E+03   -0.18882E-03   -0.18841E-03  7904   0.177E-02 0.208E-04
CGA:  89    -0.335866746414E+03   -0.86276E-04   -0.86140E-04  7904   0.507E-02 0.709E-05
CGA:  90    -0.335866829089E+03   -0.82675E-04   -0.82479E-04  7904   0.219E-02 0.489E-05
CGA:  91    -0.335867086637E+03   -0.25755E-03   -0.25407E-03  7904   0.229E-02 0.447E-04
CGA:  92    -0.335867130052E+03   -0.43415E-04   -0.43672E-04  7904   0.266E-02 0.217E-05
CGA:  93    -0.335867362560E+03   -0.23251E-03   -0.22931E-03  7904   0.370E-02 0.646E-04
CGA:  94    -0.335867405935E+03   -0.43375E-04   -0.44130E-04  7904   0.150E-02-0.158E-04
CGA:  95    -0.335867550303E+03   -0.14437E-03   -0.13929E-03  7904   0.240E-02 0.919E-04
CGA:  96    -0.335867713753E+03   -0.16345E-03   -0.16196E-03  7904   0.924E-02 0.629E-04
CGA:  97    -0.335867926883E+03   -0.21313E-03   -0.21560E-03  7904   0.215E-02 0.814E-04
CGA:  98    -0.335868123215E+03   -0.19633E-03   -0.19116E-03  7904   0.271E-02 0.109E-03
CGA:  99    -0.335868342121E+03   -0.21891E-03   -0.21807E-03  7904   0.677E-02 0.240E-04
CGA: 100    -0.335868437946E+03   -0.95825E-04   -0.98171E-04  7904   0.148E-02-0.112E-03
CGA: 101    -0.335868661020E+03   -0.22307E-03   -0.22747E-03  7904   0.373E-02-0.375E-04
CGA: 102    -0.335868747661E+03   -0.86641E-04   -0.88103E-04  7904   0.451E-02-0.651E-04
CGA: 103    -0.335868888822E+03   -0.14116E-03   -0.14088E-03  7904   0.802E-03-0.412E-04
CGA: 104    -0.335868926818E+03   -0.37996E-04   -0.38010E-04  7904   0.215E-02-0.893E-05
CGA: 105    -0.335868989722E+03   -0.62903E-04   -0.63008E-04  7904   0.151E-02-0.185E-04
CGA: 106    -0.335869105571E+03   -0.11585E-03   -0.11681E-03  7904   0.180E-02-0.297E-04
CGA: 107    -0.335869129256E+03   -0.23685E-04   -0.24291E-04  7904   0.496E-03-0.475E-04
CGA: 108    -0.335869176947E+03   -0.47691E-04   -0.47419E-04  7904   0.127E-02 0.528E-05
CGA: 109    -0.335869200951E+03   -0.24005E-04   -0.24166E-04  7904   0.808E-03-0.232E-05
CGA: 110    -0.335869246737E+03   -0.45785E-04   -0.45726E-04  7904   0.429E-03 0.562E-05
CGA: 111    -0.335869255994E+03   -0.92578E-05   -0.93873E-05  7904   0.460E-03 0.271E-05
CGA: 112    -0.335869290217E+03   -0.34222E-04   -0.33664E-04  7904   0.485E-03 0.203E-04
CGA: 113    -0.335869301385E+03   -0.11169E-04   -0.11311E-04  7904   0.420E-03 0.657E-05
CGA: 114    -0.335869315607E+03   -0.14222E-04   -0.14331E-04  7904   0.203E-03 0.909E-05
SDA: 115    -0.335869327670E+03   -0.12063E-04   -0.11933E-04  7904   0.705E-03 0.106E-04
CGA: 116    -0.335869335140E+03   -0.74699E-05   -0.74490E-05  7904   0.115E-03 0.136E-05
   1 F= -.33586934E+03 E0= -.33584597E+03  d E =-.335869E+03  mag=    32.0000
       N       E                     dE             d eps       ncg     rms          ort
SDA:   1    -0.335827286717E+03    0.42041E-01    0.00000E+00  7904   0.392E+01 0.000E+00
CGA:   2    -0.335865533081E+03   -0.38246E-01   -0.36347E-01  7904   0.891E-01 0.173E+00
CGA:   3    -0.335866831548E+03   -0.12985E-02   -0.12879E-02  7904   0.338E-01 0.598E-03
CGA:   4    -0.335868195961E+03   -0.13644E-02   -0.13671E-02  7904   0.248E-01 0.966E-03
CGA:   5    -0.335870739375E+03   -0.25434E-02   -0.25424E-02  7904   0.935E-01 0.174E-04
CGA:   6    -0.335872033100E+03   -0.12937E-02   -0.12650E-02  7904   0.714E-02 0.165E-02
CGA:   7    -0.335872232987E+03   -0.19989E-03   -0.19962E-03  7904   0.113E-01-0.149E-05
CGA:   8    -0.335872841855E+03   -0.60887E-03   -0.60726E-03  7904   0.709E-02 0.959E-04
CGA:   9    -0.335872982435E+03   -0.14058E-03   -0.14042E-03  7904   0.597E-02-0.546E-05
CGA:  10    -0.335873120878E+03   -0.13844E-03   -0.13650E-03  7904   0.110E-02 0.199E-04
CGA:  11    -0.335873169146E+03   -0.48267E-04   -0.48287E-04  7904   0.272E-02-0.512E-05
CGA:  12    -0.335873242904E+03   -0.73758E-04   -0.73777E-04  7904   0.111E-02-0.448E-05
CGA:  13    -0.335873266493E+03   -0.23589E-04   -0.23581E-04  7904   0.102E-02-0.927E-06
CGA:  14    -0.335873295828E+03   -0.29335E-04   -0.29315E-04  7904   0.221E-03-0.244E-05
CGA:  15    -0.335873305380E+03   -0.95521E-05   -0.95568E-05  7904   0.703E-03-0.931E-06
CGA:  16    -0.335873328736E+03   -0.23356E-04   -0.23360E-04  7904   0.270E-03-0.235E-06
CGA:  17    -0.335873335628E+03   -0.68919E-05   -0.68768E-05  7904   0.281E-03-0.985E-06
   2 F= -.33587334E+03 E0= -.33584968E+03  d E =-.400049E-02  mag=    32.0000
       N       E                     dE             d eps       ncg     rms          ort
SDA:   1    -0.335863413859E+03    0.99149E-02    0.00000E+00  7904   0.787E+00 0.000E+00
CGA:   2    -0.335870552229E+03   -0.71384E-02   -0.69821E-02  7904   0.509E-01 0.143E-01
CGA:   3    -0.335872289076E+03   -0.17368E-02   -0.17278E-02  7904   0.197E-01-0.145E-02
CGA:   4    -0.335872805054E+03   -0.51598E-03   -0.51512E-03  7904   0.298E-01-0.241E-04
CGA:   5    -0.335874867935E+03   -0.20629E-02   -0.20615E-02  7904   0.433E-01 0.378E-04
CGA:   6    -0.335875424553E+03   -0.55662E-03   -0.56180E-03  7904   0.970E-02-0.286E-03
CGA:   7    -0.335875921538E+03   -0.49699E-03   -0.49462E-03  7904   0.336E-02 0.122E-03
CGA:   8    -0.335876077275E+03   -0.15574E-03   -0.15585E-03  7904   0.967E-02-0.915E-05
CGA:   9    -0.335876326253E+03   -0.24898E-03   -0.24909E-03  7904   0.205E-02 0.181E-05
CGA:  10    -0.335876368740E+03   -0.42487E-04   -0.42476E-04  7904   0.158E-02-0.188E-05
CGA:  11    -0.335876425615E+03   -0.56875E-04   -0.56880E-04  7904   0.810E-03-0.135E-04
CGA:  12    -0.335876471430E+03   -0.45815E-04   -0.45857E-04  7904   0.173E-02-0.211E-05
CGA:  13    -0.335876494774E+03   -0.23344E-04   -0.23347E-04  7904   0.151E-03-0.468E-05
CGA:  14    -0.335876505955E+03   -0.11180E-04   -0.11335E-04  7904   0.266E-03-0.389E-05
CGA:  15    -0.335876512401E+03   -0.64459E-05   -0.64198E-05  7904   0.277E-03-0.192E-05
CGA:  16    -0.335876525832E+03   -0.13431E-04   -0.13453E-04  7904   0.191E-03-0.187E-05
CGA:  17    -0.335876528121E+03   -0.22896E-05   -0.22939E-05  7904   0.493E-04 0.150E-07
   3 F= -.33587653E+03 E0= -.33585276E+03  d E =-.319249E-02  mag=    32.0000
       N       E                     dE             d eps       ncg     rms          ort
SDA:   1    -0.278531447102E+03    0.57345E+02    0.00000E+00  7904   0.412E+03 0.000E+00
CGA:   2    -0.298688883688E+03   -0.20157E+02   -0.21845E+02  7904   0.262E+03-0.373E+02
CGA:   3    -0.309810380381E+03   -0.11121E+02   -0.59509E+01  7904   0.314E+03-0.256E+03
CGA:   4    -0.310231442768E+03   -0.42106E+00   -0.59353E+01  7904   0.400E+03-0.158E+03
CGA:   5    -0.311465543467E+03   -0.12341E+01   -0.61090E+01  7904   0.638E+03-0.495E+03
CGA:   6    -0.311564878100E+03   -0.99335E-01   -0.11757E+02  7904   0.440E+03-0.168E+03
CGA:   7    -0.317747697777E+03   -0.61828E+01   -0.35002E+01  7904   0.303E+03-0.268E+03
CGA:   8    -0.321298773581E+03   -0.35511E+01   -0.33794E+01  7904   0.766E+02-0.114E+03
CGA:   9    -0.320989228809E+03    0.30954E+00   -0.40953E+01  7904   0.586E+03-0.778E+02
CGA:  10    -0.324217937626E+03   -0.32287E+01   -0.11269E+02  7904   0.229E+03-0.106E+03
CGA:  11    -0.327242573329E+03   -0.30246E+01   -0.21596E+01  7904   0.104E+03 0.147E+02
CGA:  12    -0.327903048644E+03   -0.66048E+00   -0.58271E+00  7904   0.519E+02 0.368E+00
CGA:  13    -0.328185116207E+03   -0.28207E+00   -0.42620E+00  7904   0.771E+02-0.153E+02
CGA:  14    -0.328510938282E+03   -0.32582E+00   -0.48835E+00  7904   0.136E+03-0.153E+02
CGA:  15    -0.329447565375E+03   -0.93663E+00   -0.80373E+00  7904   0.163E+03-0.110E+01
CGA:  16    -0.329495646534E+03   -0.48081E-01   -0.92093E+00  7904   0.270E+03-0.177E+03
CGA:  17    -0.331613960654E+03   -0.21183E+01   -0.29263E+01  7904   0.911E+02-0.615E+02
CGA:  18    -0.332241643858E+03   -0.62768E+00   -0.90519E+00  7904   0.181E+02-0.121E+02
CGA:  19    -0.332532270726E+03   -0.29063E+00   -0.28474E+00  7904   0.169E+02-0.452E-01
CGA:  20    -0.333633296569E+03   -0.11010E+01   -0.10850E+01  7904   0.551E+02 0.334E+00
CGA:  21    -0.334688739465E+03   -0.10554E+01   -0.99264E+00  7904   0.309E+02 0.988E-01
CGA:  22    -0.335355639797E+03   -0.66690E+00   -0.70540E+00  7904   0.914E+01 0.191E+01
CGA:  23    -0.335460200786E+03   -0.10456E+00   -0.10540E+00  7904   0.176E+01-0.780E-01
CGA:  24    -0.335511956672E+03   -0.51756E-01   -0.51763E-01  7904   0.199E+01-0.196E-02
CGA:  25    -0.335552849699E+03   -0.40893E-01   -0.40503E-01  7904   0.174E+01-0.849E-02
CGA:  26    -0.335643497729E+03   -0.90648E-01   -0.87179E-01  7904   0.322E+01 0.141E+00
CGA:  27    -0.335694601454E+03   -0.51104E-01   -0.50808E-01  7904   0.842E+00 0.626E-02
CGA:  28    -0.335714950986E+03   -0.20350E-01   -0.20365E-01  7904   0.701E+00 0.163E-02
CGA:  29    -0.335729441680E+03   -0.14491E-01   -0.14396E-01  7904   0.321E+00-0.232E-02
CGA:  30    -0.335738290837E+03   -0.88492E-02   -0.88422E-02  7904   0.373E+00 0.568E-02
CGA:  31    -0.335746866795E+03   -0.85760E-02   -0.85863E-02  7904   0.191E+00 0.748E-03
CGA:  32    -0.335751436241E+03   -0.45694E-02   -0.45803E-02  7904   0.215E+00 0.149E-02
CGA:  33    -0.335760365657E+03   -0.89294E-02   -0.89118E-02  7904   0.260E+00 0.102E-02
CGA:  34    -0.335765374064E+03   -0.50084E-02   -0.50505E-02  7904   0.112E+00 0.522E-03
CGA:  35    -0.335768075744E+03   -0.27017E-02   -0.27055E-02  7904   0.664E-01 0.508E-03
CGA:  36    -0.335769410602E+03   -0.13349E-02   -0.13420E-02  7904   0.417E-01 0.206E-03
CGA:  37    -0.335770992880E+03   -0.15823E-02   -0.15826E-02  7904   0.737E-01-0.164E-04
CGA:  38    -0.335772862502E+03   -0.18696E-02   -0.18721E-02  7904   0.330E-01 0.676E-03
CGA:  39    -0.335773558161E+03   -0.69566E-03   -0.69624E-03  7904   0.254E-01 0.412E-04
CGA:  40    -0.335774591865E+03   -0.10337E-02   -0.10243E-02  7904   0.288E-01 0.586E-03
CGA:  41    -0.335775220030E+03   -0.62816E-03   -0.62828E-03  7904   0.163E-01 0.370E-04
CGA:  42    -0.335775632422E+03   -0.41239E-03   -0.41268E-03  7904   0.926E-02 0.869E-04
CGA:  43    -0.335775815436E+03   -0.18301E-03   -0.18314E-03  7904   0.579E-02 0.193E-04
CGA:  44    -0.335776101967E+03   -0.28653E-03   -0.28337E-03  7904   0.127E-01 0.137E-03
CGA:  45    -0.335776443465E+03   -0.34150E-03   -0.34173E-03  7904   0.569E-02 0.111E-03
CGA:  46    -0.335776562981E+03   -0.11952E-03   -0.12002E-03  7904   0.340E-02 0.334E-04
SDA:  47    -0.335776663620E+03   -0.10064E-03   -0.10062E-03  7904   0.310E-02 0.134E-04
CGA:  48    -0.335776693420E+03   -0.29800E-04   -0.29887E-04  7904   0.733E-03-0.431E-05
CGA:  49    -0.335776761562E+03   -0.68142E-04   -0.67435E-04  7904   0.163E-02 0.115E-04
CGA:  50    -0.335776907771E+03   -0.14621E-03   -0.14631E-03  7904   0.222E-02-0.264E-05
CGA:  51    -0.335776943260E+03   -0.35490E-04   -0.35589E-04  7904   0.157E-02-0.266E-05
CGA:  52    -0.335777078963E+03   -0.13570E-03   -0.13492E-03  7904   0.189E-02 0.143E-04
CGA:  53    -0.335777104822E+03   -0.25859E-04   -0.26019E-04  7904   0.833E-03-0.431E-05
CGA:  54    -0.335777150216E+03   -0.45394E-04   -0.45235E-04  7904   0.454E-03 0.762E-05
CGA:  55    -0.335777176451E+03   -0.26234E-04   -0.26017E-04  7904   0.958E-03 0.953E-05
CGA:  56    -0.335777192308E+03   -0.15858E-04   -0.16013E-04  7904   0.424E-03 0.291E-05
CGA:  57    -0.335777219996E+03   -0.27688E-04   -0.27568E-04  7904   0.438E-03 0.379E-05
CGA:  58    -0.335777244733E+03   -0.24736E-04   -0.24588E-04  7904   0.157E-02 0.701E-05
CGA:  59    -0.335777282676E+03   -0.37944E-04   -0.37970E-04  7904   0.327E-03 0.716E-05
CGA:  60    -0.335777320287E+03   -0.37611E-04   -0.36368E-04  7904   0.181E-02 0.170E-04
CGA:  61    -0.335777353763E+03   -0.33476E-04   -0.33649E-04  7904   0.289E-03 0.156E-04
CGA:  62    -0.335777364712E+03   -0.10949E-04   -0.10959E-04  7904   0.549E-03 0.561E-05
CGA:  63    -0.335777382232E+03   -0.17520E-04   -0.17588E-04  7904   0.490E-03 0.743E-05
CGA:  64    -0.335777405197E+03   -0.22965E-04   -0.22884E-04  7904   0.465E-03 0.982E-05
CGA:  65    -0.335777412124E+03   -0.69274E-05   -0.69697E-05  7904   0.147E-03 0.197E-05
CGA:  66    -0.335777425205E+03   -0.13080E-04   -0.12861E-04  7904   0.571E-03 0.444E-05
CGA:  67    -0.335777436743E+03   -0.11538E-04   -0.11599E-04  7904   0.120E-03 0.333E-05
CGA:  68    -0.335777440705E+03   -0.39622E-05   -0.39693E-05  7904   0.200E-03 0.101E-05
   4 F= -.33577744E+03 E0= -.33575344E+03  d E =0.990874E-01  mag=    32.0000
       N       E                     dE             d eps       ncg     rms          ort
SDA:   1    -0.319781286321E+03    0.15996E+02    0.00000E+00  7904   0.126E+04 0.000E+00
CGA:   2    -0.327721258517E+03   -0.79400E+01   -0.22775E+02  7904   0.276E+03-0.257E+03
CGA:   3    -0.330926492860E+03   -0.32052E+01   -0.23833E+01  7904   0.166E+03 0.182E+03
CGA:   4    -0.333479613131E+03   -0.25531E+01   -0.12142E+01  7904   0.362E+02 0.106E+03
CGA:   5    -0.333819275910E+03   -0.33966E+00   -0.27649E+00  7904   0.579E+01 0.685E+01
CGA:   6    -0.333997207408E+03   -0.17793E+00   -0.16635E+00  7904   0.162E+02-0.108E+00
CGA:   7    -0.334181015699E+03   -0.18381E+00   -0.14591E+00  7904   0.247E+02 0.319E+01
CGA:   8    -0.334447392584E+03   -0.26638E+00   -0.27417E+00  7904   0.277E+02-0.517E+00
CGA:   9    -0.334691649428E+03   -0.24426E+00   -0.25965E+00  7904   0.348E+02-0.120E+01
CGA:  10    -0.334977603340E+03   -0.28595E+00   -0.32703E+00  7904   0.343E+02-0.314E+01
CGA:  11    -0.335187553117E+03   -0.20995E+00   -0.21257E+00  7904   0.166E+02 0.266E-01
CGA:  12    -0.335292200778E+03   -0.10465E+00   -0.95345E-01  7904   0.733E+01 0.156E+01
CGA:  13    -0.335347888493E+03   -0.55688E-01   -0.51301E-01  7904   0.477E+01 0.573E+00
CGA:  14    -0.335396033921E+03   -0.48145E-01   -0.51272E-01  7904   0.693E+01-0.190E+00
CGA:  15    -0.335497785225E+03   -0.10175E+00   -0.11479E+00  7904   0.105E+02 0.289E+00
CGA:  16    -0.335612442293E+03   -0.11466E+00   -0.11348E+00  7904   0.202E+01 0.102E+00
CGA:  17    -0.335653838822E+03   -0.41397E-01   -0.41202E-01  7904   0.359E+01-0.197E-01
CGA:  18    -0.335732875922E+03   -0.79037E-01   -0.78341E-01  7904   0.408E+01-0.207E+00
CGA:  19    -0.335778294947E+03   -0.45419E-01   -0.45618E-01  7904   0.243E+01 0.603E-02
CGA:  20    -0.335803995066E+03   -0.25700E-01   -0.25843E-01  7904   0.127E+01 0.124E-02
CGA:  21    -0.335821711440E+03   -0.17716E-01   -0.17505E-01  7904   0.982E+00 0.864E-02
CGA:  22    -0.335832489617E+03   -0.10778E-01   -0.10547E-01  7904   0.500E+00 0.128E-01
CGA:  23    -0.335840659824E+03   -0.81702E-02   -0.81855E-02  7904   0.894E+00 0.612E-03
CGA:  24    -0.335868732445E+03   -0.28073E-01   -0.27734E-01  7904   0.193E+01 0.275E-01
CGA:  25    -0.335888664154E+03   -0.19932E-01   -0.19652E-01  7904   0.540E+00 0.171E-01
CGA:  26    -0.335895941684E+03   -0.72775E-02   -0.72003E-02  7904   0.465E+00 0.911E-03
CGA:  27    -0.335901883501E+03   -0.59418E-02   -0.58031E-02  7904   0.230E+00 0.338E-02
CGA:  28    -0.335904225868E+03   -0.23424E-02   -0.23421E-02  7904   0.139E+00 0.648E-04
CGA:  29    -0.335906652944E+03   -0.24271E-02   -0.24285E-02  7904   0.228E+00 0.231E-03
CGA:  30    -0.335912340982E+03   -0.56880E-02   -0.56980E-02  7904   0.532E+00-0.137E-02
CGA:  31    -0.335919717554E+03   -0.73766E-02   -0.72973E-02  7904   0.334E+00-0.797E-03
CGA:  32    -0.335922606743E+03   -0.28892E-02   -0.29046E-02  7904   0.159E+00-0.109E-02
CGA:  33    -0.335925000727E+03   -0.23940E-02   -0.24123E-02  7904   0.186E+00 0.134E-02
CGA:  34    -0.335927185572E+03   -0.21848E-02   -0.22393E-02  7904   0.702E-01-0.358E-03
SDA:  35    -0.335928069030E+03   -0.88346E-03   -0.88329E-03  7904   0.675E-01 0.214E-04
CGA:  36    -0.335929132979E+03   -0.10639E-02   -0.10628E-02  7904   0.513E-01-0.172E-03
CGA:  37    -0.335930964183E+03   -0.18312E-02   -0.18776E-02  7904   0.367E-01-0.254E-02
CGA:  38    -0.335933364679E+03   -0.24005E-02   -0.23838E-02  7904   0.965E-01 0.401E-03
CGA:  39    -0.335935221756E+03   -0.18571E-02   -0.18569E-02  7904   0.146E-01-0.548E-05
CGA:  40    -0.335935651049E+03   -0.42929E-03   -0.42996E-03  7904   0.261E-01-0.686E-04
CGA:  41    -0.335936391123E+03   -0.74007E-03   -0.74055E-03  7904   0.141E-01-0.643E-04
CGA:  42    -0.335937080733E+03   -0.68961E-03   -0.69204E-03  7904   0.146E-01-0.940E-04
CGA:  43    -0.335937314324E+03   -0.23359E-03   -0.23393E-03  7904   0.457E-02-0.154E-04
CGA:  44    -0.335937491495E+03   -0.17717E-03   -0.17645E-03  7904   0.843E-02 0.415E-04
CGA:  45    -0.335937648649E+03   -0.15715E-03   -0.15723E-03  7904   0.195E-02-0.700E-05
CGA:  46    -0.335937862305E+03   -0.21366E-03   -0.21437E-03  7904   0.832E-02-0.743E-05
CGA:  47    -0.335938033029E+03   -0.17072E-03   -0.17040E-03  7904   0.142E-02-0.189E-04
CGA:  48    -0.335938098099E+03   -0.65070E-04   -0.65258E-04  7904   0.234E-02-0.986E-05
CGA:  49    -0.335938140091E+03   -0.41991E-04   -0.41956E-04  7904   0.148E-02-0.152E-06
CGA:  50    -0.335938237947E+03   -0.97856E-04   -0.97629E-04  7904   0.259E-02 0.566E-05
CGA:  51    -0.335938279029E+03   -0.41082E-04   -0.41221E-04  7904   0.318E-03 0.228E-05
CGA:  52    -0.335938323721E+03   -0.44692E-04   -0.44313E-04  7904   0.229E-02 0.347E-05
CGA:  53    -0.335938365664E+03   -0.41943E-04   -0.41980E-04  7904   0.534E-03 0.161E-05
CGA:  54    -0.335938377355E+03   -0.11691E-04   -0.11703E-04  7904   0.467E-03 0.298E-06
CGA:  55    -0.335938394798E+03   -0.17443E-04   -0.17454E-04  7904   0.278E-03-0.183E-05
CGA:  56    -0.335938412079E+03   -0.17281E-04   -0.17145E-04  7904   0.380E-03 0.464E-05
CGA:  57    -0.335938420627E+03   -0.85478E-05   -0.85788E-05  7904   0.256E-03 0.224E-05
CGA:  58    -0.335938434350E+03   -0.13723E-04   -0.13631E-04  7904   0.391E-03 0.478E-05
CGA:  59    -0.335938440135E+03   -0.57844E-05   -0.58291E-05  7904   0.133E-03 0.167E-05
   5 F= -.33593844E+03 E0= -.33591422E+03  d E =-.160999E+00  mag=    32.0000
       N       E                     dE             d eps       ncg     rms          ort
SDA:   1    -0.335457615748E+03    0.48082E+00    0.00000E+00  7904   0.717E+01 0.000E+00
CGA:   2    -0.335532823081E+03   -0.75207E-01   -0.70254E-01  7904   0.131E+01 0.378E+00
CGA:   3    -0.335620682111E+03   -0.87859E-01   -0.90438E-01  7904   0.650E+01-0.822E-01
CGA:   4    -0.335779353617E+03   -0.15867E+00   -0.15786E+00  7904   0.391E+01-0.444E-02
CGA:   5    -0.335826188417E+03   -0.46835E-01   -0.51039E-01  7904   0.185E+01-0.224E+00
CGA:   6    -0.335865947357E+03   -0.39759E-01   -0.42814E-01  7904   0.499E+00 0.403E-01
CGA:   7    -0.335883027128E+03   -0.17080E-01   -0.17074E-01  7904   0.121E+01-0.417E-02
CGA:   8    -0.335926735476E+03   -0.43708E-01   -0.43770E-01  7904   0.544E+00-0.143E-01
CGA:   9    -0.335933467721E+03   -0.67322E-02   -0.68310E-02  7904   0.190E+00-0.525E-02
CGA:  10    -0.335941632931E+03   -0.81652E-02   -0.79893E-02  7904   0.163E+00 0.133E-01
CGA:  11    -0.335944207520E+03   -0.25746E-02   -0.25568E-02  7904   0.811E-01 0.799E-03
CGA:  12    -0.335949441237E+03   -0.52337E-02   -0.52322E-02  7904   0.826E-01 0.109E-04
CGA:  13    -0.335951194156E+03   -0.17529E-02   -0.17590E-02  7904   0.690E-01-0.132E-04
CGA:  14    -0.335953366169E+03   -0.21720E-02   -0.21668E-02  7904   0.120E-01-0.104E-02
CGA:  15    -0.335953667497E+03   -0.30133E-03   -0.30123E-03  7904   0.202E-01-0.326E-05
CGA:  16    -0.335954961095E+03   -0.12936E-02   -0.12980E-02  7904   0.106E-01-0.140E-03
CGA:  17    -0.335955145454E+03   -0.18436E-03   -0.18486E-03  7904   0.781E-02-0.511E-05
CGA:  18    -0.335955603071E+03   -0.45762E-03   -0.45574E-03  7904   0.593E-02 0.709E-04
CGA:  19    -0.335955745871E+03   -0.14280E-03   -0.14277E-03  7904   0.652E-02 0.264E-05
CGA:  20    -0.335955921721E+03   -0.17585E-03   -0.17542E-03  7904   0.182E-02-0.116E-04
CGA:  21    -0.335955994886E+03   -0.73165E-04   -0.73158E-04  7904   0.372E-02 0.564E-06
CGA:  22    -0.335956094001E+03   -0.99115E-04   -0.98944E-04  7904   0.147E-02-0.834E-05
CGA:  23    -0.335956185095E+03   -0.91094E-04   -0.91340E-04  7904   0.405E-02-0.867E-05
CGA:  24    -0.335956251477E+03   -0.66382E-04   -0.66330E-04  7904   0.574E-03-0.558E-05
CGA:  25    -0.335956276939E+03   -0.25462E-04   -0.25429E-04  7904   0.843E-03 0.251E-05
CGA:  26    -0.335956295241E+03   -0.18302E-04   -0.18283E-04  7904   0.569E-03-0.138E-05
CGA:  27    -0.335956341718E+03   -0.46477E-04   -0.46874E-04  7904   0.923E-03-0.825E-05
CGA:  28    -0.335956352723E+03   -0.11005E-04   -0.10965E-04  7904   0.198E-03-0.244E-05
CGA:  29    -0.335956378234E+03   -0.25511E-04   -0.25906E-04  7904   0.653E-03-0.414E-05
CGA:  30    -0.335956388344E+03   -0.10110E-04   -0.10056E-04  7904   0.195E-03-0.198E-05
CGA:  31    -0.335956398442E+03   -0.10099E-04   -0.10116E-04  7904   0.168E-03-0.128E-05
SDA:  32    -0.335956401779E+03   -0.33367E-05   -0.33416E-05  7904   0.168E-03 0.181E-06
   6 F= -.33595640E+03 E0= -.33593224E+03  d E =-.179616E-01  mag=    32.0000
       N       E                     dE             d eps       ncg     rms          ort
SDA:   1    -0.924582209040E+02    0.24350E+03    0.00000E+00  7904   0.933E+03 0.000E+00
CGA:   2    -0.170391596673E+03   -0.77933E+02    0.15653E+03  7904   0.804E+03 0.343E+03
CGA:   3    -0.242977216360E+03   -0.72586E+02   -0.83694E+02  7904   0.386E+03 0.700E+02
CGA:   4    -0.276852799629E+03   -0.33876E+02    0.34722E+03  7904   0.205E+03 0.174E+03
CGA:   5     0.351208789186E+03    0.62806E+03   -0.13176E+03  7904   0.683E+05-0.645E+04
CGA:   6    -0.249905259502E+03   -0.60111E+03   -0.23750E+04  7904   0.709E+04-0.101E+05
CGA:   7    -0.317626970866E+03   -0.67722E+02   -0.21395E+03  7904   0.915E+02 0.162E+03
CGA:   8    -0.323756289307E+03   -0.61293E+01   -0.62721E+01  7904   0.712E+02 0.547E+02
CGA:   9    -0.325373009595E+03   -0.16167E+01   -0.15263E+01  7904   0.951E+02 0.119E+02
CGA:  10    -0.324825037460E+03    0.54797E+00   -0.20911E+01  7904   0.392E+03-0.276E+03
CGA:  11    -0.326520446784E+03   -0.16954E+01   -0.11816E+02  7904   0.194E+03-0.187E+03
CGA:  12    -0.330445531146E+03   -0.39251E+01   -0.20684E+01  7904   0.284E+02 0.561E+02
CGA:  13    -0.330899332943E+03   -0.45380E+00   -0.37793E+00  7904   0.128E+02 0.716E+01
CGA:  14    -0.331178245150E+03   -0.27891E+00   -0.13689E+00  7904   0.158E+02 0.164E+02
CGA:  15    -0.331652169863E+03   -0.47392E+00   -0.49504E+00  7904   0.149E+02-0.446E+00
CGA:  16    -0.332132463054E+03   -0.48029E+00   -0.46156E+00  7904   0.331E+02 0.589E-01
CGA:  17    -0.333573771920E+03   -0.14413E+01   -0.13331E+01  7904   0.358E+02 0.164E+01
CGA:  18    -0.333959439477E+03   -0.38567E+00   -0.41867E+00  7904   0.110E+02-0.469E+01
CGA:  19    -0.334070304944E+03   -0.11087E+00   -0.15609E+00  7904   0.993E+01-0.198E+01
CGA:  20    -0.334278293166E+03   -0.20799E+00   -0.26405E+00  7904   0.325E+01 0.453E+00
CGA:  21    -0.334344128956E+03   -0.65836E-01   -0.57088E-01  7904   0.151E+01 0.372E+00
CGA:  22    -0.334411645143E+03   -0.67516E-01   -0.63210E-01  7904   0.288E+01-0.128E+00
CGA:  23    -0.334457640330E+03   -0.45995E-01   -0.35841E-01  7904   0.330E+01 0.665E+00
CGA:  24    -0.334522889116E+03   -0.65249E-01   -0.59286E-01  7904   0.300E+01 0.372E+00
CGA:  25    -0.334574611787E+03   -0.51723E-01   -0.60467E-01  7904   0.247E+01-0.302E+00
CGA:  26    -0.334610156338E+03   -0.35545E-01   -0.35480E-01  7904   0.207E+01 0.131E-01
CGA:  27    -0.334642767212E+03   -0.32611E-01   -0.27290E-01  7904   0.138E+01 0.329E+00
CGA:  28    -0.334664100832E+03   -0.21334E-01   -0.18647E-01  7904   0.102E+01 0.185E+00
CGA:  29    -0.334681018906E+03   -0.16918E-01   -0.17470E-01  7904   0.101E+01-0.177E-01
CGA:  30    -0.334692639534E+03   -0.11621E-01   -0.12620E-01  7904   0.626E+00-0.537E-01
CGA:  31    -0.334702863144E+03   -0.10224E-01   -0.10783E-01  7904   0.101E+01-0.154E-01
CGA:  32    -0.334731616116E+03   -0.28753E-01   -0.26756E-01  7904   0.114E+01-0.492E-01
CGA:  33    -0.334739871375E+03   -0.82553E-02   -0.62394E-02  7904   0.699E+00 0.319E+00
CGA:  34    -0.334747203742E+03   -0.73324E-02   -0.65993E-02  7904   0.496E+00 0.851E-01
CGA:  35    -0.334752323869E+03   -0.51201E-02   -0.45651E-02  7904   0.539E+00 0.562E-01
CGA:  36    -0.334757109632E+03   -0.47858E-02   -0.41493E-02  7904   0.569E+00 0.791E-01
CGA:  37    -0.334762060133E+03   -0.49505E-02   -0.49098E-02  7904   0.681E+00 0.486E-02
CGA:  38    -0.334767372174E+03   -0.53120E-02   -0.65106E-02  7904   0.925E+00-0.900E-01
CGA:  39    -0.334772952325E+03   -0.55802E-02   -0.50471E-02  7904   0.699E+00 0.770E-01
CGA:  40    -0.334777123919E+03   -0.41716E-02   -0.33188E-02  7904   0.458E+00 0.176E+00
CGA:  41    -0.334780638809E+03   -0.35149E-02   -0.30537E-02  7904   0.426E+00 0.750E-01
CGA:  42    -0.334783670744E+03   -0.30319E-02   -0.26687E-02  7904   0.465E+00 0.581E-01
CGA:  43    -0.334786191835E+03   -0.25211E-02   -0.21999E-02  7904   0.382E+00 0.690E-01
CGA:  44    -0.334787983870E+03   -0.17920E-02   -0.16672E-02  7904   0.276E+00 0.294E-01
SDA:  45    -0.334789229923E+03   -0.12461E-02   -0.12218E-02  7904   0.269E+00 0.513E-02
CGA:  46    -0.334794100101E+03   -0.48702E-02   -0.49003E-02  7904   0.698E-01 0.590E-02
CGA:  47    -0.334796619336E+03   -0.25192E-02   -0.25097E-02  7904   0.945E-01 0.477E-03
CGA:  48    -0.334799767924E+03   -0.31486E-02   -0.31657E-02  7904   0.108E+00-0.132E-02
CGA:  49    -0.334802870099E+03   -0.31022E-02   -0.30877E-02  7904   0.437E-01 0.142E-02
CGA:  50    -0.334808876530E+03   -0.60064E-02   -0.25977E-03  7904   0.646E-01-0.118E-02
CGA:  51    -0.334810063386E+03   -0.11869E-02   -0.11906E-02  7904   0.463E-01-0.722E-04
CGA:  52    -0.334812306095E+03   -0.22427E-02   -0.22294E-02  7904   0.465E-01 0.974E-03
CGA:  53    -0.334813729659E+03   -0.14236E-02   -0.13936E-02  7904   0.347E-01-0.440E-03
CGA:  54    -0.334816826247E+03   -0.30966E-02   -0.30099E-02  7904   0.596E-01 0.144E-02
CGA:  55    -0.334820169629E+03   -0.33434E-02   -0.32126E-02  7904   0.274E-01 0.805E-02
CGA:  56    -0.334821190703E+03   -0.10211E-02   -0.99953E-03  7904   0.689E-01-0.408E-03
CGA:  57    -0.334823396293E+03   -0.22056E-02   -0.18902E-02  7904   0.104E+00 0.132E-02
CGA:  58    -0.334824402217E+03   -0.10059E-02   -0.90236E-03  7904   0.612E-01 0.118E-01
CGA:  59    -0.334825200937E+03   -0.79872E-03   -0.10171E-02  7904   0.758E-01-0.929E-02
CGA:  60    -0.334826396040E+03   -0.11951E-02   -0.13392E-02  7904   0.421E-01 0.608E-03
CGA:  61    -0.334827352987E+03   -0.95695E-03   -0.83871E-03  7904   0.579E-01 0.255E-02
CGA:  62    -0.334828327611E+03   -0.97462E-03   -0.83925E-03  7904   0.518E-01 0.702E-02
CGA:  63    -0.334829067431E+03   -0.73982E-03   -0.74961E-03  7904   0.589E-01-0.258E-03
CGA:  64    -0.334830048266E+03   -0.98084E-03   -0.10681E-02  7904   0.479E-01-0.596E-03
CGA:  65    -0.334830459623E+03   -0.41136E-03   -0.40421E-03  7904   0.154E-01 0.886E-03
CGA:  66    -0.334830778368E+03   -0.31875E-03   -0.32721E-03  7904   0.280E-01 0.663E-05
CGA:  67    -0.334831582199E+03   -0.80383E-03   -0.81751E-03  7904   0.361E-01 0.273E-02
CGA:  68    -0.334832603888E+03   -0.10217E-02   -0.90034E-03  7904   0.238E-01-0.130E-02
CGA:  69    -0.334832893962E+03   -0.29007E-03   -0.25966E-03  7904   0.203E-01 0.195E-02
CGA:  70    -0.334833285291E+03   -0.39133E-03   -0.38927E-03  7904   0.317E-01 0.766E-04
CGA:  71    -0.334833723149E+03   -0.43786E-03   -0.47427E-03  7904   0.263E-01-0.893E-03
CGA:  72    -0.334834172772E+03   -0.44962E-03   -0.48108E-03  7904   0.313E-01 0.864E-04
CGA:  73    -0.334834737458E+03   -0.56469E-03   -0.52938E-03  7904   0.113E-01 0.990E-03
CGA:  74    -0.334835031628E+03   -0.29417E-03   -0.29135E-03  7904   0.192E-01-0.471E-03
CGA:  75    -0.334835346797E+03   -0.31517E-03   -0.29569E-03  7904   0.228E-01 0.433E-03
SDA:  76    -0.334835723726E+03   -0.37693E-03   -0.36848E-03  7904   0.318E-01 0.299E-03
CGA:  77    -0.334836301116E+03   -0.57739E-03   -0.57946E-03  7904   0.181E-01 0.399E-04
CGA:  78    -0.334836690743E+03   -0.38963E-03   -0.38971E-03  7904   0.150E-01 0.235E-05
CGA:  79    -0.334837868172E+03   -0.11774E-02   -0.12651E-02  7904   0.347E-01-0.185E-02
CGA:  80    -0.334839278177E+03   -0.14100E-02   -0.14060E-02  7904   0.195E-01 0.180E-03
CGA:  81    -0.334839951191E+03   -0.67301E-03   -0.67178E-03  7904   0.392E-01 0.176E-03
CGA:  82    -0.334841473578E+03   -0.15224E-02   -0.15103E-02  7904   0.309E-01 0.983E-03
CGA:  83    -0.334841930749E+03   -0.45717E-03   -0.41813E-03  7904   0.750E-02 0.191E-02
CGA:  84    -0.334842284615E+03   -0.35387E-03   -0.35362E-03  7904   0.114E-01 0.135E-04
CGA:  85    -0.334842625041E+03   -0.34043E-03   -0.34054E-03  7904   0.128E-01 0.206E-03
CGA:  86    -0.334842996709E+03   -0.37167E-03   -0.37128E-03  7904   0.121E-01-0.110E-03
CGA:  87    -0.334843190560E+03   -0.19385E-03   -0.18912E-03  7904   0.519E-02 0.133E-03
CGA:  88    -0.334843570918E+03   -0.38036E-03   -0.39739E-03  7904   0.210E-01-0.436E-03
CGA:  89    -0.334843830196E+03   -0.25928E-03   -0.25025E-03  7904   0.939E-02 0.541E-03
CGA:  90    -0.334843944134E+03   -0.11394E-03   -0.11810E-03  7904   0.421E-02-0.223E-03
CGA:  91    -0.334844027213E+03   -0.83078E-04   -0.83900E-04  7904   0.734E-02 0.642E-06
CGA:  92    -0.334844274250E+03   -0.24704E-03   -0.25157E-03  7904   0.956E-02-0.608E-03
CGA:  93    -0.334844393629E+03   -0.11938E-03   -0.10752E-03  7904   0.951E-02 0.629E-03
CGA:  94    -0.334844573993E+03   -0.18036E-03   -0.17639E-03  7904   0.959E-02 0.562E-04
CGA:  95    -0.334844657028E+03   -0.83035E-04   -0.87435E-04  7904   0.341E-02-0.391E-03
CGA:  96    -0.334844725708E+03   -0.68679E-04   -0.69284E-04  7904   0.865E-02 0.175E-04
CGA:  97    -0.334844971216E+03   -0.24551E-03   -0.24648E-03  7904   0.449E-02-0.368E-03
CGA:  98    -0.334845012164E+03   -0.40948E-04   -0.39763E-04  7904   0.270E-02 0.977E-04
CGA:  99    -0.334845104767E+03   -0.92602E-04   -0.92268E-04  7904   0.819E-02 0.336E-04
CGA: 100    -0.334845238388E+03   -0.13362E-03   -0.13788E-03  7904   0.556E-02 0.215E-04
CGA: 101    -0.334845360501E+03   -0.12211E-03   -0.12018E-03  7904   0.745E-02-0.120E-03
CGA: 102    -0.334845443987E+03   -0.83487E-04   -0.76212E-04  7904   0.408E-02 0.493E-03
CGA: 103    -0.334845488729E+03   -0.44741E-04   -0.45404E-04  7904   0.276E-02-0.296E-04
CGA: 104    -0.334845525818E+03   -0.37090E-04   -0.38197E-04  7904   0.340E-02-0.199E-04
CGA: 105    -0.334845634553E+03   -0.10873E-03   -0.10577E-03  7904   0.115E-01 0.285E-03
CGA: 106    -0.334845835299E+03   -0.20075E-03   -0.16743E-03  7904   0.426E-02 0.109E-02
SDA: 107    -0.334845884402E+03   -0.49103E-04   -0.47303E-04  7904   0.368E-02 0.114E-03
CGA: 108    -0.334845948401E+03   -0.63999E-04   -0.64072E-04  7904   0.327E-02 0.525E-05
CGA: 109    -0.334846085342E+03   -0.13694E-03   -0.13643E-03  7904   0.581E-02 0.248E-04
CGA: 110    -0.334846272106E+03   -0.18676E-03   -0.18780E-03  7904   0.631E-02-0.962E-04
CGA: 111    -0.334846601508E+03   -0.32940E-03   -0.32959E-03  7904   0.356E-02-0.118E-04
CGA: 112    -0.334846974571E+03   -0.37306E-03   -0.36076E-03  7904   0.759E-02 0.193E-03
CGA: 113    -0.334847079329E+03   -0.10476E-03   -0.10217E-03  7904   0.216E-02 0.119E-03
CGA: 114    -0.334847162533E+03   -0.83204E-04   -0.83363E-04  7904   0.538E-02-0.137E-04
CGA: 115    -0.334847416609E+03   -0.25408E-03   -0.25207E-03  7904   0.129E-02 0.944E-04
CGA: 116    -0.334847466863E+03   -0.50254E-04   -0.50058E-04  7904   0.274E-02 0.176E-04
CGA: 117    -0.334847634449E+03   -0.16759E-03   -0.17088E-03  7904   0.236E-02-0.117E-03
CGA: 118    -0.334847683446E+03   -0.48997E-04   -0.49159E-04  7904   0.285E-02 0.144E-05
CGA: 119    -0.334847786704E+03   -0.10326E-03   -0.10299E-03  7904   0.230E-02 0.362E-04
CGA: 120    -0.334847947818E+03   -0.16111E-03   -0.18156E-03  7904   0.359E-02-0.564E-03
CGA: 121    -0.334847976350E+03   -0.28533E-04   -0.25645E-04  7904   0.173E-02 0.248E-03
CGA: 122    -0.334848007154E+03   -0.30803E-04   -0.30358E-04  7904   0.276E-02 0.122E-04
CGA: 123    -0.334848071600E+03   -0.64447E-04   -0.64101E-04  7904   0.533E-02-0.911E-06
CGA: 124    -0.334848134212E+03   -0.62612E-04   -0.63924E-04  7904   0.253E-02-0.505E-04
CGA: 125    -0.334848155306E+03   -0.21094E-04   -0.21335E-04  7904   0.102E-02-0.840E-05
CGA: 126    -0.334848174223E+03   -0.18917E-04   -0.18975E-04  7904   0.236E-02 0.371E-05
CGA: 127    -0.334848258846E+03   -0.84623E-04   -0.84750E-04  7904   0.761E-02-0.968E-05
CGA: 128    -0.334848343085E+03   -0.84239E-04   -0.82007E-04  7904   0.357E-02 0.173E-03
CGA: 129    -0.334848379576E+03   -0.36491E-04   -0.36265E-04  7904   0.280E-02 0.230E-04
CGA: 130    -0.334848439927E+03   -0.60351E-04   -0.60169E-04  7904   0.709E-02-0.955E-06
CGA: 131    -0.334848566767E+03   -0.12684E-03   -0.12293E-03  7904   0.107E-01 0.648E-04
CGA: 132    -0.334848664122E+03   -0.97355E-04   -0.88013E-04  7904   0.667E-02 0.100E-02
CGA: 133    -0.334848721853E+03   -0.57730E-04   -0.57567E-04  7904   0.423E-02 0.600E-04
CGA: 134    -0.334848767158E+03   -0.45305E-04   -0.45941E-04  7904   0.496E-02-0.189E-04
CGA: 135    -0.334848820201E+03   -0.53043E-04   -0.52163E-04  7904   0.457E-02 0.648E-04
CGA: 136    -0.334848859649E+03   -0.39448E-04   -0.38426E-04  7904   0.370E-02 0.985E-04
CGA: 137    -0.334848906091E+03   -0.46441E-04   -0.46143E-04  7904   0.679E-02 0.189E-04
SDA: 138    -0.334849006619E+03   -0.10053E-03   -0.99610E-04  7904   0.132E-01 0.251E-04
CGA: 139    -0.334849180974E+03   -0.17436E-03   -0.17508E-03  7904   0.360E-02-0.247E-05
CGA: 140    -0.334849415141E+03   -0.23417E-03   -0.23189E-03  7904   0.103E-01 0.584E-04
CGA: 141    -0.334849730233E+03   -0.31509E-03   -0.31318E-03  7904   0.867E-02 0.209E-03
CGA: 142    -0.334850149680E+03   -0.41945E-03   -0.43012E-03  7904   0.415E-02-0.441E-03
CGA: 143    -0.334850409308E+03   -0.25963E-03   -0.24986E-03  7904   0.888E-02 0.272E-03
CGA: 144    -0.334850587099E+03   -0.17779E-03   -0.17810E-03  7904   0.144E-02 0.111E-04
CGA: 145    -0.334850622824E+03   -0.35725E-04   -0.35751E-04  7904   0.125E-02 0.733E-05
CGA: 146    -0.334850703550E+03   -0.80726E-04   -0.80858E-04  7904   0.147E-02-0.508E-05
CGA: 147    -0.334850736183E+03   -0.32633E-04   -0.32728E-04  7904   0.785E-03 0.472E-05
CGA: 148    -0.334850779259E+03   -0.43076E-04   -0.43096E-04  7904   0.175E-02-0.161E-05
CGA: 149    -0.334850838954E+03   -0.59695E-04   -0.59562E-04  7904   0.971E-03 0.187E-04
CGA: 150    -0.334850872746E+03   -0.33792E-04   -0.33710E-04  7904   0.792E-03 0.130E-04
CGA: 151    -0.334850899863E+03   -0.27117E-04   -0.27056E-04  7904   0.794E-03 0.104E-04
CGA: 152    -0.334850934449E+03   -0.34585E-04   -0.34700E-04  7904   0.959E-03-0.755E-05
CGA: 153    -0.334850957391E+03   -0.22943E-04   -0.22880E-04  7904   0.369E-03-0.857E-06
CGA: 154    -0.334850983495E+03   -0.26104E-04   -0.26989E-04  7904   0.109E-02-0.244E-04
CGA: 155    -0.334851009297E+03   -0.25802E-04   -0.24997E-04  7904   0.396E-03-0.136E-04
CGA: 156    -0.334851031275E+03   -0.21978E-04   -0.21921E-04  7904   0.793E-03 0.156E-05
CGA: 157    -0.334851047174E+03   -0.15899E-04   -0.16033E-04  7904   0.136E-03 0.297E-06
CGA: 158    -0.334851055228E+03   -0.80537E-05   -0.79527E-05  7904   0.594E-03 0.339E-05
CGA: 159    -0.334851099606E+03   -0.44378E-04   -0.43958E-04  7904   0.436E-03 0.296E-05
CGA: 160    -0.334851119340E+03   -0.19734E-04   -0.20557E-04  7904   0.303E-03-0.553E-04
CGA: 161    -0.334851130197E+03   -0.10857E-04   -0.10923E-04  7904   0.476E-03-0.792E-05
CGA: 162    -0.334851142718E+03   -0.12520E-04   -0.12257E-04  7904   0.360E-03 0.253E-06
CGA: 163    -0.334851156422E+03   -0.13704E-04   -0.13688E-04  7904   0.405E-03 0.573E-05
CGA: 164    -0.334851168694E+03   -0.12272E-04   -0.12389E-04  7904   0.409E-03 0.658E-05
CGA: 165    -0.334851183501E+03   -0.14808E-04   -0.14807E-04  7904   0.397E-03-0.595E-05
CGA: 166    -0.334851196312E+03   -0.12811E-04   -0.12793E-04  7904   0.340E-03-0.246E-06
CGA: 167    -0.334851206189E+03   -0.98770E-05   -0.98668E-05  7904   0.262E-03 0.856E-06
CGA: 168    -0.334851218841E+03   -0.12652E-04   -0.12569E-04  7904   0.512E-03 0.566E-05
SDA: 169    -0.334851237501E+03   -0.18659E-04   -0.18670E-04  7904   0.480E-03 0.237E-04
CGA: 170    -0.334851254949E+03   -0.17448E-04   -0.17448E-04  7904   0.547E-03-0.738E-06
CGA: 171    -0.334851272901E+03   -0.17952E-04   -0.17978E-04  7904   0.420E-03 0.388E-05
CGA: 172    -0.334851298897E+03   -0.25996E-04   -0.25894E-04  7904   0.524E-03 0.316E-05
CGA: 173    -0.334851312080E+03   -0.13184E-04   -0.13222E-04  7904   0.414E-03-0.823E-06
CGA: 174    -0.334851334786E+03   -0.22705E-04   -0.22874E-04  7904   0.243E-03-0.781E-05
CGA: 175    -0.334851353291E+03   -0.18505E-04   -0.17404E-04  7904   0.517E-04 0.293E-04
CGA: 176    -0.334851355333E+03   -0.20424E-05   -0.20444E-05  7904   0.954E-04 0.182E-06
   7 F= -.33485136E+03 E0= -.33483009E+03  d E =0.110505E+01  mag=    32.0000
       N       E                     dE             d eps       ncg     rms          ort
SDA:   1    -0.239501107959E+03    0.95350E+02    0.00000E+00  7904   0.712E+03 0.000E+00
CGA:   2    -0.269369987803E+03   -0.29869E+02   -0.29910E+02  7904   0.246E+03 0.115E+02
CGA:   3    -0.253023456857E+03    0.16347E+02   -0.26027E+02  7904   0.110E+04-0.362E+03
CGA:   4    -0.298908265897E+03   -0.45885E+02   -0.42455E+02  7904   0.113E+04-0.109E+04
CGA:   5    -0.308889906526E+03   -0.99816E+01   -0.26555E+02  7904   0.438E+03-0.102E+03
CGA:   6    -0.317655819174E+03   -0.87659E+01   -0.70319E+01  7904   0.763E+02 0.136E+02
CGA:   7    -0.318636950633E+03   -0.98113E+00   -0.38866E+00  7904   0.882E+02 0.117E+03
CGA:   8    -0.320092087768E+03   -0.14551E+01   -0.84207E+00  7904   0.407E+02 0.471E+02
CGA:   9    -0.319692401299E+03    0.39969E+00   -0.31523E+01  7904   0.401E+03-0.674E+02
CGA:  10    -0.323604712753E+03   -0.39123E+01   -0.73635E+01  7904   0.116E+03-0.603E+02
CGA:  11    -0.325377753649E+03   -0.17730E+01   -0.98235E+00  7904   0.397E+02 0.608E+02
CGA:  12    -0.326082973270E+03   -0.70522E+00   -0.61549E+00  7904   0.302E+02 0.313E+01
CGA:  13    -0.327440329130E+03   -0.13574E+01   -0.14428E+01  7904   0.125E+03-0.668E+01
CGA:  14    -0.330195018760E+03   -0.27547E+01   -0.76368E+01  7904   0.854E+02-0.757E+02
CGA:  15    -0.332031089372E+03   -0.18361E+01   -0.11771E+01  7904   0.285E+02 0.371E+02
CGA:  16    -0.332915458541E+03   -0.88437E+00   -0.62652E+00  7904   0.220E+02 0.135E+02
CGA:  17    -0.333339096805E+03   -0.42364E+00   -0.37113E+00  7904   0.190E+02 0.164E+01
CGA:  18    -0.333573497884E+03   -0.23440E+00   -0.28556E+00  7904   0.202E+02-0.137E+01
CGA:  19    -0.333780768536E+03   -0.20727E+00   -0.21031E+00  7904   0.180E+02-0.330E+00
CGA:  20    -0.334092813515E+03   -0.31204E+00   -0.31851E+00  7904   0.327E+02-0.224E+00
CGA:  21    -0.334625244000E+03   -0.53243E+00   -0.58090E+00  7904   0.290E+02-0.163E+00
CGA:  22    -0.334846273586E+03   -0.22103E+00   -0.20591E+00  7904   0.563E+01 0.147E+01
CGA:  23    -0.334912209395E+03   -0.65936E-01   -0.69380E-01  7904   0.621E+01-0.186E+00
CGA:  24    -0.335053649634E+03   -0.14144E+00   -0.11803E+00  7904   0.972E+01 0.257E+00
CGA:  25    -0.335090193145E+03   -0.36544E-01   -0.22104E-01  7904   0.729E+01 0.646E+01
CGA:  26    -0.335170032306E+03   -0.79839E-01   -0.76275E-01  7904   0.193E+01 0.204E+00
CGA:  27    -0.335257461294E+03   -0.87429E-01   -0.93547E-01  7904   0.163E+01-0.330E+00
CGA:  28    -0.335281327920E+03   -0.23867E-01   -0.23412E-01  7904   0.171E+01 0.385E-02
CGA:  29    -0.335349418650E+03   -0.68091E-01   -0.70111E-01  7904   0.197E+01-0.126E+00
CGA:  30    -0.335368872980E+03   -0.19454E-01   -0.20948E-01  7904   0.562E+00-0.842E-01
CGA:  31    -0.335384422832E+03   -0.15550E-01   -0.15418E-01  7904   0.678E+00 0.404E-01
CGA:  32    -0.335396642804E+03   -0.12220E-01   -0.12074E-01  7904   0.256E+00 0.197E-02
CGA:  33    -0.335414562584E+03   -0.17920E-01   -0.17373E-01  7904   0.452E+00 0.143E-01
CGA:  34    -0.335421859669E+03   -0.72971E-02   -0.73000E-02  7904   0.151E+00-0.413E-04
CGA:  35    -0.335429633306E+03   -0.77736E-02   -0.78182E-02  7904   0.121E+00-0.201E-02
CGA:  36    -0.335433863229E+03   -0.42299E-02   -0.42089E-02  7904   0.187E+00 0.225E-02
CGA:  37    -0.335440158047E+03   -0.62948E-02   -0.62816E-02  7904   0.784E-01 0.214E-02
CGA:  38    -0.335443087353E+03   -0.29293E-02   -0.29209E-02  7904   0.115E+00 0.777E-03
CGA:  39    -0.335446910592E+03   -0.38232E-02   -0.38275E-02  7904   0.737E-01-0.796E-03
CGA:  40    -0.335450053738E+03   -0.31431E-02   -0.31485E-02  7904   0.109E+00-0.420E-03
CGA:  41    -0.335452737258E+03   -0.26835E-02   -0.26814E-02  7904   0.367E-01-0.488E-04
CGA:  42    -0.335453774900E+03   -0.10376E-02   -0.10393E-02  7904   0.342E-01 0.376E-03
CGA:  43    -0.335454688870E+03   -0.91397E-03   -0.91336E-03  7904   0.228E-01-0.523E-04
CGA:  44    -0.335455584874E+03   -0.89600E-03   -0.88911E-03  7904   0.363E-01 0.556E-03
CGA:  45    -0.335456869995E+03   -0.12851E-02   -0.12886E-02  7904   0.258E-01-0.539E-03
CGA:  46    -0.335457485030E+03   -0.61504E-03   -0.61729E-03  7904   0.151E-01 0.704E-04
CGA:  47    -0.335458028443E+03   -0.54341E-03   -0.54773E-03  7904   0.215E-01-0.512E-03
CGA:  48    -0.335458813360E+03   -0.78492E-03   -0.77560E-03  7904   0.228E-01 0.935E-03
CGA:  49    -0.335459458266E+03   -0.64491E-03   -0.63178E-03  7904   0.259E-01-0.975E-03
CGA:  50    -0.335460282697E+03   -0.82443E-03   -0.81920E-03  7904   0.723E-02 0.131E-02
CGA:  51    -0.335460561042E+03   -0.27835E-03   -0.27860E-03  7904   0.170E-01-0.296E-04
CGA:  52    -0.335461375686E+03   -0.81464E-03   -0.84736E-03  7904   0.160E-01-0.166E-02
CGA:  53    -0.335461554712E+03   -0.17903E-03   -0.18926E-03  7904   0.652E-02-0.485E-03
CGA:  54    -0.335461892221E+03   -0.33751E-03   -0.35230E-03  7904   0.108E-01-0.596E-03
CGA:  55    -0.335462061191E+03   -0.16897E-03   -0.16306E-03  7904   0.669E-02 0.176E-03
SDA:  56    -0.335462346568E+03   -0.28538E-03   -0.27874E-03  7904   0.197E-01 0.508E-03
CGA:  57    -0.335462556550E+03   -0.20998E-03   -0.20991E-03  7904   0.463E-02 0.831E-05
CGA:  58    -0.335462817078E+03   -0.26053E-03   -0.25996E-03  7904   0.102E-01 0.214E-04
CGA:  59    -0.335462991096E+03   -0.17402E-03   -0.17419E-03  7904   0.494E-02-0.570E-05
CGA:  60    -0.335463898353E+03   -0.90726E-03   -0.16283E-04  7904   0.575E-02-0.726E-03
CGA:  61    -0.335464108816E+03   -0.21046E-03   -0.21071E-03  7904   0.151E-01 0.385E-05
CGA:  62    -0.335464518391E+03   -0.40957E-03   -0.43379E-03  7904   0.671E-02-0.415E-03
CGA:  63    -0.335464679354E+03   -0.16096E-03   -0.15932E-03  7904   0.803E-02 0.494E-04
CGA:  64    -0.335465000802E+03   -0.32145E-03   -0.32506E-03  7904   0.318E-02 0.548E-04
CGA:  65    -0.335465065450E+03   -0.64648E-04   -0.63875E-04  7904   0.309E-02 0.299E-04
CGA:  66    -0.335465370380E+03   -0.30493E-03   -0.30040E-03  7904   0.562E-02 0.816E-04
CGA:  67    -0.335465448671E+03   -0.78291E-04   -0.74549E-04  7904   0.208E-02 0.249E-03
CGA:  68    -0.335465624618E+03   -0.17595E-03   -0.17122E-03  7904   0.132E-02 0.148E-03
CGA:  69    -0.335465748138E+03   -0.12352E-03   -0.12462E-03  7904   0.660E-02-0.333E-04
CGA:  70    -0.335465826448E+03   -0.78310E-04   -0.57462E-04  7904   0.241E-02 0.217E-02
CGA:  71    -0.335465858956E+03   -0.32508E-04   -0.31974E-04  7904   0.175E-02 0.481E-04
CGA:  72    -0.335465909422E+03   -0.50466E-04   -0.50954E-04  7904   0.466E-02-0.268E-05
CGA:  73    -0.335465962340E+03   -0.52919E-04   -0.60836E-04  7904   0.183E-02-0.479E-03
CGA:  74    -0.335465981905E+03   -0.19564E-04   -0.20019E-04  7904   0.181E-02-0.240E-04
CGA:  75    -0.335466037514E+03   -0.55609E-04   -0.54078E-04  7904   0.403E-02 0.110E-04
CGA:  76    -0.335466077742E+03   -0.40229E-04   -0.32598E-04  7904   0.177E-02 0.897E-03
CGA:  77    -0.335466096538E+03   -0.18795E-04   -0.18394E-04  7904   0.119E-02 0.563E-04
CGA:  78    -0.335466124014E+03   -0.27476E-04   -0.27669E-04  7904   0.395E-02 0.507E-05
CGA:  79    -0.335466201544E+03   -0.77530E-04   -0.85211E-04  7904   0.602E-02-0.109E-03
CGA:  80    -0.335466252248E+03   -0.50704E-04   -0.53508E-04  7904   0.151E-02-0.156E-03
CGA:  81    -0.335466271815E+03   -0.19568E-04   -0.19043E-04  7904   0.157E-02 0.323E-04
CGA:  82    -0.335466302163E+03   -0.30348E-04   -0.28076E-04  7904   0.154E-02 0.723E-04
CGA:  83    -0.335466319411E+03   -0.17248E-04   -0.16532E-04  7904   0.111E-02 0.571E-04
CGA:  84    -0.335466344696E+03   -0.25285E-04   -0.25289E-04  7904   0.309E-02 0.992E-06
CGA:  85    -0.335466406944E+03   -0.62248E-04   -0.62865E-04  7904   0.403E-02 0.535E-05
CGA:  86    -0.335466441093E+03   -0.34149E-04   -0.35091E-04  7904   0.134E-02-0.724E-04
SDA:  87    -0.335466458782E+03   -0.17688E-04   -0.18095E-04  7904   0.170E-02-0.138E-04
CGA:  88    -0.335466490366E+03   -0.31585E-04   -0.31690E-04  7904   0.144E-02 0.371E-05
CGA:  89    -0.335466570822E+03   -0.80456E-04   -0.79857E-04  7904   0.755E-03 0.225E-04
CGA:  90    -0.335466638904E+03   -0.68081E-04   -0.68655E-04  7904   0.360E-02-0.144E-04
CGA:  91    -0.335466715338E+03   -0.76434E-04   -0.76324E-04  7904   0.128E-02 0.880E-05
CGA:  92    -0.335466787581E+03   -0.72243E-04   -0.69686E-04  7904   0.153E-02 0.109E-03
CGA:  93    -0.335466818333E+03   -0.30752E-04   -0.30817E-04  7904   0.113E-02 0.129E-05
CGA:  94    -0.335466897144E+03   -0.78811E-04   -0.79081E-04  7904   0.432E-03-0.920E-05
CGA:  95    -0.335466905615E+03   -0.84715E-05   -0.84953E-05  7904   0.389E-03-0.115E-05
CGA:  96    -0.335466932904E+03   -0.27289E-04   -0.27521E-04  7904   0.285E-03-0.688E-05
CGA:  97    -0.335466959857E+03   -0.26952E-04   -0.27078E-04  7904   0.539E-03-0.293E-05
CGA:  98    -0.335466966996E+03   -0.71390E-05   -0.71298E-05  7904   0.146E-03 0.201E-05
   8 F= -.33546697E+03 E0= -.33544333E+03  d E =-.615612E+00  mag=    32.0000
       N       E                     dE             d eps       ncg     rms          ort
SDA:   1    -0.328123848713E+03    0.73431E+01    0.00000E+00  7904   0.562E+03 0.000E+00
CGA:   2    -0.326625310546E+03    0.14985E+01   -0.16216E+02  7904   0.402E+03-0.182E+03
CGA:   3    -0.332773954770E+03   -0.61486E+01   -0.69301E+01  7904   0.502E+02-0.723E+02
CGA:   4    -0.333324706655E+03   -0.55075E+00   -0.24470E+00  7904   0.466E+02 0.490E+02
CGA:   5    -0.333870634617E+03   -0.54593E+00   -0.31253E+00  7904   0.156E+02 0.299E+02
CGA:   6    -0.334051332312E+03   -0.18070E+00   -0.12015E+00  7904   0.489E+01 0.724E+01
CGA:   7    -0.334149178370E+03   -0.97846E-01   -0.70327E-01  7904   0.537E+01 0.257E+01
CGA:   8    -0.334276488563E+03   -0.12731E+00   -0.13647E+00  7904   0.863E+01-0.176E+00
CGA:   9    -0.334631710325E+03   -0.35522E+00   -0.31467E+00  7904   0.111E+02-0.121E+00
CGA:  10    -0.334932863490E+03   -0.30115E+00   -0.28995E+00  7904   0.230E+02 0.179E+00
CGA:  11    -0.335405430886E+03   -0.47257E+00   -0.54108E+00  7904   0.572E+01-0.121E+01
CGA:  12    -0.335462844135E+03   -0.57413E-01   -0.67219E-01  7904   0.160E+01-0.646E+00
CGA:  13    -0.335520102385E+03   -0.57258E-01   -0.57256E-01  7904   0.261E+01 0.117E-02
CGA:  14    -0.335567665937E+03   -0.47564E-01   -0.43843E-01  7904   0.966E+00 0.163E+00
CGA:  15    -0.335620898062E+03   -0.53232E-01   -0.52839E-01  7904   0.173E+01 0.459E-01
CGA:  16    -0.335650062191E+03   -0.29164E-01   -0.28023E-01  7904   0.318E+00 0.582E-01
CGA:  17    -0.335658512915E+03   -0.84507E-02   -0.83816E-02  7904   0.449E+00 0.994E-03
CGA:  18    -0.335677629540E+03   -0.19117E-01   -0.19074E-01  7904   0.314E+00-0.114E-01
CGA:  19    -0.335684314229E+03   -0.66847E-02   -0.67053E-02  7904   0.332E+00-0.435E-03
CGA:  20    -0.335692223777E+03   -0.79095E-02   -0.81524E-02  7904   0.698E-01-0.292E-02
CGA:  21    -0.335693973904E+03   -0.17501E-02   -0.17594E-02  7904   0.897E-01-0.869E-04
CGA:  22    -0.335698969065E+03   -0.49952E-02   -0.50144E-02  7904   0.968E-01-0.101E-02
CGA:  23    -0.335700443669E+03   -0.14746E-02   -0.14843E-02  7904   0.476E-01-0.456E-03
CGA:  24    -0.335702761043E+03   -0.23174E-02   -0.22986E-02  7904   0.358E-01 0.158E-02
CGA:  25    -0.335703531667E+03   -0.77062E-03   -0.76634E-03  7904   0.321E-01 0.965E-04
CGA:  26    -0.335705439674E+03   -0.19080E-02   -0.19197E-02  7904   0.546E-01-0.497E-03
CGA:  27    -0.335706226386E+03   -0.78671E-03   -0.79767E-03  7904   0.108E-01-0.525E-03
CGA:  28    -0.335706711656E+03   -0.48527E-03   -0.48446E-03  7904   0.131E-01 0.951E-04
CGA:  29    -0.335706957042E+03   -0.24539E-03   -0.24747E-03  7904   0.857E-02-0.383E-04
CGA:  30    -0.335707490068E+03   -0.53303E-03   -0.53109E-03  7904   0.179E-01 0.761E-04
CGA:  31    -0.335707806103E+03   -0.31604E-03   -0.31629E-03  7904   0.265E-02 0.132E-04
CGA:  32    -0.335707934084E+03   -0.12798E-03   -0.12786E-03  7904   0.725E-02 0.913E-05
CGA:  33    -0.335708139664E+03   -0.20558E-03   -0.20565E-03  7904   0.295E-02-0.504E-05
CGA:  34    -0.335708212766E+03   -0.73102E-04   -0.72997E-04  7904   0.256E-02-0.499E-05
CGA:  35    -0.335708294852E+03   -0.82086E-04   -0.82068E-04  7904   0.110E-02-0.425E-05
CGA:  36    -0.335708336887E+03   -0.42035E-04   -0.42037E-04  7904   0.258E-02-0.328E-05
CGA:  37    -0.335708438676E+03   -0.10179E-03   -0.10178E-03  7904   0.143E-02 0.136E-05
SDA:  38    -0.335708466336E+03   -0.27660E-04   -0.27691E-04  7904   0.831E-03-0.189E-05
CGA:  39    -0.335708480713E+03   -0.14377E-04   -0.14337E-04  7904   0.466E-03-0.778E-06
CGA:  40    -0.335708503543E+03   -0.22830E-04   -0.22859E-04  7904   0.398E-03-0.205E-05
CGA:  41    -0.335708549567E+03   -0.46025E-04   -0.45340E-04  7904   0.654E-03 0.890E-05
CGA:  42    -0.335708560235E+03   -0.10667E-04   -0.10688E-04  7904   0.341E-03 0.136E-05
CGA:  43    -0.335708586210E+03   -0.25975E-04   -0.25790E-04  7904   0.348E-03 0.509E-05
CGA:  44    -0.335708596083E+03   -0.98731E-05   -0.98747E-05  7904   0.453E-03-0.143E-06
CGA:  45    -0.335708614453E+03   -0.18370E-04   -0.18371E-04  7904   0.115E-03-0.417E-05
CGA:  46    -0.335708624593E+03   -0.10140E-04   -0.10312E-04  7904   0.666E-03-0.346E-05
CGA:  47    -0.335708641565E+03   -0.16972E-04   -0.16899E-04  7904   0.138E-03-0.439E-05
CGA:  48    -0.335708649829E+03   -0.82644E-05   -0.82951E-05  7904   0.130E-03-0.159E-05
   9 F= -.33570865E+03 E0= -.33568502E+03  d E =-.241683E+00  mag=    32.0000
       N       E                     dE             d eps       ncg     rms          ort
SDA:   1    -0.331660791483E+03    0.40479E+01    0.00000E+00  7904   0.127E+03 0.000E+00
CGA:   2    -0.332714514341E+03   -0.10537E+01   -0.18198E+01  7904   0.367E+02-0.465E+02
CGA:   3    -0.333421741807E+03   -0.70723E+00   -0.70714E+00  7904   0.174E+02 0.173E-01
CGA:   4    -0.333817034843E+03   -0.39529E+00   -0.37415E+00  7904   0.135E+02 0.232E+00
CGA:   5    -0.334657662452E+03   -0.84063E+00   -0.81296E+00  7904   0.205E+02 0.117E+01
CGA:   6    -0.335203956616E+03   -0.54629E+00   -0.48208E+00  7904   0.460E+01 0.138E+01
CGA:   7    -0.335368082612E+03   -0.16413E+00   -0.16631E+00  7904   0.455E+01 0.118E+00
CGA:   8    -0.335555844780E+03   -0.18776E+00   -0.18797E+00  7904   0.451E+01-0.162E+00
CGA:   9    -0.335689796215E+03   -0.13395E+00   -0.13527E+00  7904   0.243E+01 0.362E-01
CGA:  10    -0.335740440564E+03   -0.50644E-01   -0.47603E-01  7904   0.888E+00 0.801E-01
CGA:  11    -0.335760020041E+03   -0.19579E-01   -0.19451E-01  7904   0.570E+00 0.245E-02
CGA:  12    -0.335782251611E+03   -0.22232E-01   -0.22221E-01  7904   0.688E+00 0.386E-02
CGA:  13    -0.335808040261E+03   -0.25789E-01   -0.25788E-01  7904   0.460E+00-0.230E-02
CGA:  14    -0.335818627148E+03   -0.10587E-01   -0.10705E-01  7904   0.128E+00-0.755E-03
CGA:  15    -0.335821791499E+03   -0.31644E-02   -0.31560E-02  7904   0.824E-01-0.102E-04
CGA:  16    -0.335824661226E+03   -0.28697E-02   -0.28689E-02  7904   0.115E+00-0.286E-03
CGA:  17    -0.335828145747E+03   -0.34845E-02   -0.34904E-02  7904   0.102E+00 0.315E-03
CGA:  18    -0.335830985831E+03   -0.28401E-02   -0.28328E-02  7904   0.510E-01-0.212E-03
CGA:  19    -0.335832302994E+03   -0.13172E-02   -0.13216E-02  7904   0.244E-01 0.667E-04
CGA:  20    -0.335833310280E+03   -0.10073E-02   -0.10077E-02  7904   0.337E-01-0.476E-04
CGA:  21    -0.335834573687E+03   -0.12634E-02   -0.12631E-02  7904   0.231E-01 0.880E-04
CGA:  22    -0.335835006193E+03   -0.43251E-03   -0.43115E-03  7904   0.103E-01 0.334E-04
CGA:  23    -0.335835338481E+03   -0.33229E-03   -0.33230E-03  7904   0.147E-01 0.115E-04
CGA:  24    -0.335836041468E+03   -0.70299E-03   -0.70185E-03  7904   0.133E-01 0.770E-04
CGA:  25    -0.335836329964E+03   -0.28850E-03   -0.28837E-03  7904   0.366E-02 0.182E-04
CGA:  26    -0.335836456899E+03   -0.12694E-03   -0.12693E-03  7904   0.395E-02 0.888E-05
CGA:  27    -0.335836624532E+03   -0.16763E-03   -0.16771E-03  7904   0.511E-02-0.475E-05
CGA:  28    -0.335836770824E+03   -0.14629E-03   -0.14630E-03  7904   0.455E-02 0.362E-05
CGA:  29    -0.335836876845E+03   -0.10602E-03   -0.10630E-03  7904   0.190E-02 0.708E-05
CGA:  30    -0.335836919109E+03   -0.42264E-04   -0.42262E-04  7904   0.857E-03 0.734E-06
CGA:  31    -0.335836966339E+03   -0.47230E-04   -0.47068E-04  7904   0.184E-02 0.727E-05
SDA:  32    -0.335837045826E+03   -0.79487E-04   -0.79454E-04  7904   0.111E-02 0.426E-05
CGA:  33    -0.335837057589E+03   -0.11763E-04   -0.11810E-04  7904   0.159E-03-0.297E-06
CGA:  34    -0.335837073006E+03   -0.15417E-04   -0.15316E-04  7904   0.107E-02 0.159E-05
CGA:  35    -0.335837106483E+03   -0.33477E-04   -0.33491E-04  7904   0.257E-03 0.326E-05
CGA:  36    -0.335837125160E+03   -0.18678E-04   -0.18534E-04  7904   0.229E-03 0.402E-05
CGA:  37    -0.335837139421E+03   -0.14261E-04   -0.14285E-04  7904   0.639E-03-0.105E-05
CGA:  38    -0.335837150594E+03   -0.11173E-04   -0.11142E-04  7904   0.916E-04-0.142E-05
CGA:  39    -0.335837154245E+03   -0.36510E-05   -0.36515E-05  7904   0.195E-03-0.379E-06
  10 F= -.33583715E+03 E0= -.33581285E+03  d E =-.128504E+00  mag=    32.0000
       N       E                     dE             d eps       ncg     rms          ort
SDA:   1    -0.330609150329E+03    0.52280E+01    0.00000E+00  7904   0.230E+03 0.000E+00
CGA:   2    -0.331149970702E+03   -0.54082E+00   -0.42939E+01  7904   0.880E+02-0.610E+02
CGA:   3    -0.332752690670E+03   -0.16027E+01   -0.97470E+00  7904   0.181E+02 0.278E+02
CGA:   4    -0.332988639865E+03   -0.23595E+00   -0.17797E+00  7904   0.827E+01 0.669E+01
CGA:   5    -0.333227574956E+03   -0.23894E+00   -0.22462E+00  7904   0.272E+02 0.267E+00
CGA:   6    -0.333570162744E+03   -0.34259E+00   -0.29402E+00  7904   0.651E+02 0.361E+01
CGA:   7    -0.334171475324E+03   -0.60131E+00   -0.58654E+00  7904   0.933E+02 0.208E-01
CGA:   8    -0.334676150931E+03   -0.50468E+00   -0.53398E+00  7904   0.770E+02-0.306E+01
CGA:   9    -0.334971610665E+03   -0.29546E+00   -0.35541E+00  7904   0.335E+02-0.122E+02
CGA:  10    -0.335046748125E+03   -0.75137E-01   -0.17452E+00  7904   0.168E+02-0.136E+02
CGA:  11    -0.335094659971E+03   -0.47912E-01   -0.58791E-01  7904   0.105E+02-0.139E+01
CGA:  12    -0.335154596690E+03   -0.59937E-01   -0.56132E-01  7904   0.488E+01 0.665E+00
CGA:  13    -0.335190812760E+03   -0.36216E-01   -0.34442E-01  7904   0.344E+01 0.222E+00
CGA:  14    -0.335236714512E+03   -0.45902E-01   -0.46430E-01  7904   0.799E+01-0.194E-01
CGA:  15    -0.335371145270E+03   -0.13443E+00   -0.13668E+00  7904   0.189E+02 0.367E-01
CGA:  16    -0.335529832830E+03   -0.15869E+00   -0.16201E+00  7904   0.827E+01-0.277E+00
CGA:  17    -0.335575102147E+03   -0.45269E-01   -0.42632E-01  7904   0.283E+01 0.393E+00
CGA:  18    -0.335600274189E+03   -0.25172E-01   -0.22694E-01  7904   0.315E+01 0.251E+00
CGA:  19    -0.335633177969E+03   -0.32904E-01   -0.22711E-01  7904   0.391E+01 0.131E+01
CGA:  20    -0.335657199159E+03   -0.24021E-01   -0.15373E-01  7904   0.276E+01 0.294E+01
CGA:  21    -0.335684362134E+03   -0.27163E-01   -0.28044E-01  7904   0.838E+00-0.424E-01
CGA:  22    -0.335748084650E+03   -0.63723E-01   -0.49358E-03  7904   0.392E+01-0.375E+00
CGA:  23    -0.335773281901E+03   -0.25197E-01   -0.25089E-01  7904   0.229E+01 0.652E-02
CGA:  24    -0.335803739597E+03   -0.30458E-01   -0.32181E-01  7904   0.176E+01-0.713E-01
CGA:  25    -0.335829265326E+03   -0.25526E-01   -0.28971E-01  7904   0.716E+00-0.831E-01
CGA:  26    -0.335841176030E+03   -0.11911E-01   -0.12078E-01  7904   0.649E+00-0.364E-02
CGA:  27    -0.335864976896E+03   -0.23801E-01   -0.23709E-01  7904   0.908E+00 0.115E-01
CGA:  28    -0.335878117267E+03   -0.13140E-01   -0.12861E-01  7904   0.232E+00 0.131E-01
CGA:  29    -0.335885515099E+03   -0.73978E-02   -0.74135E-02  7904   0.335E+00-0.147E-01
CGA:  30    -0.335888915060E+03   -0.34000E-02   -0.33224E-02  7904   0.949E-01 0.567E-02
CGA:  31    -0.335890483989E+03   -0.15689E-02   -0.15839E-02  7904   0.152E+00-0.383E-03
CGA:  32    -0.335895183123E+03   -0.46991E-02   -0.46938E-02  7904   0.171E+00 0.173E-02
CGA:  33    -0.335896619666E+03   -0.14365E-02   -0.14178E-02  7904   0.314E-01 0.177E-02
CGA:  34    -0.335897181669E+03   -0.56200E-03   -0.55949E-03  7904   0.420E-01 0.177E-04
CGA:  35    -0.335897900060E+03   -0.71839E-03   -0.71596E-03  7904   0.279E-01 0.419E-04
CGA:  36    -0.335898296864E+03   -0.39680E-03   -0.39841E-03  7904   0.274E-01-0.281E-04
CGA:  37    -0.335898996247E+03   -0.69938E-03   -0.69972E-03  7904   0.467E-01 0.162E-03
CGA:  38    -0.335899688020E+03   -0.69177E-03   -0.69318E-03  7904   0.194E-01 0.725E-05
CGA:  39    -0.335899886259E+03   -0.19824E-03   -0.19814E-03  7904   0.828E-02 0.224E-04
CGA:  40    -0.335900096787E+03   -0.21053E-03   -0.21052E-03  7904   0.152E-01 0.222E-04
CGA:  41    -0.335900312775E+03   -0.21599E-03   -0.21602E-03  7904   0.640E-02 0.653E-05
CGA:  42    -0.335900434074E+03   -0.12130E-03   -0.12122E-03  7904   0.108E-01-0.271E-05
CGA:  43    -0.335900692607E+03   -0.25853E-03   -0.25850E-03  7904   0.621E-02-0.342E-04
CGA:  44    -0.335900741226E+03   -0.48618E-04   -0.48640E-04  7904   0.143E-02-0.650E-06
CGA:  45    -0.335900784967E+03   -0.43741E-04   -0.43723E-04  7904   0.481E-02 0.196E-05
CGA:  46    -0.335900899764E+03   -0.11480E-03   -0.11480E-03  7904   0.389E-02-0.212E-04
CGA:  47    -0.335900948757E+03   -0.48993E-04   -0.48988E-04  7904   0.356E-02 0.191E-05
CGA:  48    -0.335901045395E+03   -0.96638E-04   -0.96565E-04  7904   0.401E-02 0.157E-04
CGA:  49    -0.335901079021E+03   -0.33626E-04   -0.33824E-04  7904   0.670E-03-0.313E-05
CGA:  50    -0.335901091018E+03   -0.11997E-04   -0.12030E-04  7904   0.107E-02 0.637E-05
SDA:  51    -0.335901116071E+03   -0.25053E-04   -0.25040E-04  7904   0.928E-03 0.189E-04
CGA:  52    -0.335901133141E+03   -0.17070E-04   -0.17059E-04  7904   0.717E-03-0.188E-05
CGA:  53    -0.335901149946E+03   -0.16805E-04   -0.16807E-04  7904   0.278E-03-0.591E-06
CGA:  54    -0.335901169720E+03   -0.19774E-04   -0.19297E-04  7904   0.857E-03 0.101E-04
CGA:  55    -0.335901191599E+03   -0.21879E-04   -0.21880E-04  7904   0.217E-03 0.902E-05
CGA:  56    -0.335901205183E+03   -0.13584E-04   -0.13377E-04  7904   0.218E-03 0.575E-05
CGA:  57    -0.335901214188E+03   -0.90050E-05   -0.90081E-05  7904   0.552E-03-0.256E-06
CGA:  58    -0.335901241226E+03   -0.27037E-04   -0.26964E-04  7904   0.484E-03 0.315E-05
CGA:  59    -0.335901247840E+03   -0.66144E-05   -0.66110E-05  7904   0.154E-03-0.379E-06
CGA:  60    -0.335901265859E+03   -0.18019E-04   -0.18622E-04  7904   0.242E-03-0.663E-05
CGA:  61    -0.335901274317E+03   -0.84579E-05   -0.84567E-05  7904   0.287E-03 0.880E-07
  11 F= -.33590127E+03 E0= -.33587651E+03  d E =-.641201E-01  mag=    32.0000
       N       E                     dE             d eps       ncg     rms          ort
SDA:   1    -0.328715193974E+03    0.71861E+01    0.00000E+00  7904   0.431E+03 0.000E+00
CGA:   2    -0.330515999400E+03   -0.18008E+01   -0.64960E+01  7904   0.118E+03-0.124E+03
CGA:   3    -0.332395772468E+03   -0.18798E+01   -0.13367E+01  7904   0.142E+02 0.132E+02
CGA:   4    -0.332681958720E+03   -0.28619E+00   -0.26773E+00  7904   0.173E+02 0.459E+00
CGA:   5    -0.333391048096E+03   -0.70909E+00   -0.72518E+00  7904   0.725E+02-0.113E+01
CGA:   6    -0.334732743298E+03   -0.13417E+01   -0.13559E+01  7904   0.663E+02 0.774E-01
CGA:   7    -0.335183515767E+03   -0.45077E+00   -0.60272E+00  7904   0.825E+01-0.144E+02
CGA:   8    -0.335299589056E+03   -0.11607E+00   -0.12078E+00  7904   0.607E+01 0.205E-01
CGA:   9    -0.335404109475E+03   -0.10452E+00   -0.10605E+00  7904   0.477E+01-0.923E-02
CGA:  10    -0.335648830271E+03   -0.24472E+00   -0.24009E+00  7904   0.490E+01 0.186E+00
CGA:  11    -0.335751747700E+03   -0.10292E+00   -0.10044E+00  7904   0.289E+01-0.555E-02
CGA:  12    -0.335804426013E+03   -0.52678E-01   -0.49522E-01  7904   0.145E+01 0.573E-01
CGA:  13    -0.335829933865E+03   -0.25508E-01   -0.25557E-01  7904   0.618E+00 0.113E-02
CGA:  14    -0.335857028707E+03   -0.27095E-01   -0.27197E-01  7904   0.205E+01-0.530E-02
CGA:  15    -0.335894627804E+03   -0.37599E-01   -0.37601E-01  7904   0.309E+00 0.560E-03
CGA:  16    -0.335899791358E+03   -0.51636E-02   -0.52144E-02  7904   0.277E+00-0.596E-03
CGA:  17    -0.335909441639E+03   -0.96503E-02   -0.96577E-02  7904   0.450E+00-0.712E-03
CGA:  18    -0.335917447295E+03   -0.80057E-02   -0.79244E-02  7904   0.158E+00 0.661E-03
CGA:  19    -0.335921799503E+03   -0.43522E-02   -0.43519E-02  7904   0.270E+00 0.337E-03
CGA:  20    -0.335926610269E+03   -0.48108E-02   -0.48381E-02  7904   0.513E-01 0.190E-03
CGA:  21    -0.335928248765E+03   -0.16385E-02   -0.16394E-02  7904   0.129E+00-0.120E-03
CGA:  22    -0.335932152466E+03   -0.39037E-02   -0.38918E-02  7904   0.814E-01 0.219E-02
CGA:  23    -0.335933435659E+03   -0.12832E-02   -0.12858E-02  7904   0.363E-01-0.449E-04
CGA:  24    -0.335934548280E+03   -0.11126E-02   -0.11171E-02  7904   0.471E-01-0.666E-03
CGA:  25    -0.335935180238E+03   -0.63196E-03   -0.62815E-03  7904   0.123E-01 0.124E-03
CGA:  26    -0.335935747809E+03   -0.56757E-03   -0.56565E-03  7904   0.475E-01 0.920E-04
CGA:  27    -0.335936795101E+03   -0.10473E-02   -0.10484E-02  7904   0.917E-02 0.914E-04
CGA:  28    -0.335936928126E+03   -0.13302E-03   -0.13289E-03  7904   0.630E-02 0.733E-05
CGA:  29    -0.335937174673E+03   -0.24655E-03   -0.24697E-03  7904   0.143E-01-0.254E-04
CGA:  30    -0.335937488988E+03   -0.31431E-03   -0.31443E-03  7904   0.667E-02 0.225E-04
CGA:  31    -0.335937639808E+03   -0.15082E-03   -0.15094E-03  7904   0.806E-02 0.220E-04
SDA:  32    -0.335937778862E+03   -0.13905E-03   -0.13964E-03  7904   0.155E-02 0.209E-04
CGA:  33    -0.335937823616E+03   -0.44754E-04   -0.44746E-04  7904   0.223E-02 0.250E-05
CGA:  34    -0.335937886473E+03   -0.62857E-04   -0.62868E-04  7904   0.188E-02-0.199E-05
CGA:  35    -0.335937971354E+03   -0.84881E-04   -0.84713E-04  7904   0.395E-02 0.879E-05
CGA:  36    -0.335938067439E+03   -0.96085E-04   -0.96185E-04  7904   0.762E-03 0.214E-04
CGA:  37    -0.335938149522E+03   -0.82082E-04   -0.82668E-04  7904   0.741E-03-0.914E-05
CGA:  38    -0.335938181274E+03   -0.31753E-04   -0.31686E-04  7904   0.174E-02 0.532E-05
CGA:  39    -0.335938213668E+03   -0.32394E-04   -0.32550E-04  7904   0.226E-03 0.618E-05
CGA:  40    -0.335938239627E+03   -0.25959E-04   -0.25298E-04  7904   0.142E-02 0.814E-05
CGA:  41    -0.335938280923E+03   -0.41296E-04   -0.41451E-04  7904   0.369E-03 0.168E-04
CGA:  42    -0.335938290443E+03   -0.95201E-05   -0.95532E-05  7904   0.492E-03 0.361E-05
CGA:  43    -0.335938305599E+03   -0.15156E-04   -0.15182E-04  7904   0.286E-03 0.620E-05
CGA:  44    -0.335938324761E+03   -0.19162E-04   -0.19014E-04  7904   0.468E-03 0.465E-05
CGA:  45    -0.335938333186E+03   -0.84255E-05   -0.84433E-05  7904   0.136E-03 0.137E-05
  12 F= -.33593833E+03 E0= -.33591382E+03  d E =-.370589E-01  mag=    32.0000
       N       E                     dE             d eps       ncg     rms          ort
SDA:   1    -0.332314021354E+03    0.36243E+01    0.00000E+00  7904   0.105E+03 0.000E+00
CGA:   2    -0.332814129703E+03   -0.50011E+00   -0.15072E+01  7904   0.536E+02-0.509E+02
CGA:   3    -0.333695255434E+03   -0.88113E+00   -0.87915E+00  7904   0.195E+02-0.367E+00
CGA:   4    -0.334051125085E+03   -0.35587E+00   -0.32809E+00  7904   0.832E+01 0.751E+00
CGA:   5    -0.334898821852E+03   -0.84770E+00   -0.82967E+00  7904   0.271E+02 0.339E+00
CGA:   6    -0.335458356825E+03   -0.55953E+00   -0.53572E+00  7904   0.843E+01 0.409E+00
CGA:   7    -0.335615529739E+03   -0.15717E+00   -0.15831E+00  7904   0.346E+01-0.370E-03
CGA:   8    -0.335703046961E+03   -0.87517E-01   -0.90576E-01  7904   0.215E+01 0.616E-01
CGA:   9    -0.335780431997E+03   -0.77385E-01   -0.77442E-01  7904   0.316E+01-0.375E-01
CGA:  10    -0.335864620709E+03   -0.84189E-01   -0.83690E-01  7904   0.169E+01-0.137E-01
CGA:  11    -0.335893458365E+03   -0.28838E-01   -0.29082E-01  7904   0.501E+00-0.692E-02
CGA:  12    -0.335909752722E+03   -0.16294E-01   -0.16286E-01  7904   0.414E+00-0.543E-02
CGA:  13    -0.335920083384E+03   -0.10331E-01   -0.10391E-01  7904   0.323E+00 0.142E-02
CGA:  14    -0.335929129964E+03   -0.90466E-02   -0.90740E-02  7904   0.317E+00 0.181E-02
CGA:  15    -0.335936898170E+03   -0.77682E-02   -0.77255E-02  7904   0.113E+00-0.797E-03
CGA:  16    -0.335939580300E+03   -0.26821E-02   -0.26888E-02  7904   0.733E-01 0.113E-03
CGA:  17    -0.335941941461E+03   -0.23612E-02   -0.23616E-02  7904   0.792E-01-0.672E-03
CGA:  18    -0.335943700189E+03   -0.17587E-02   -0.17596E-02  7904   0.485E-01-0.570E-05
CGA:  19    -0.335945440678E+03   -0.17405E-02   -0.17393E-02  7904   0.515E-01 0.168E-03
CGA:  20    -0.335946810383E+03   -0.13697E-02   -0.13692E-02  7904   0.200E-01-0.312E-04
CGA:  21    -0.335947213169E+03   -0.40279E-03   -0.40285E-03  7904   0.136E-01-0.309E-05
CGA:  22    -0.335947679079E+03   -0.46591E-03   -0.46584E-03  7904   0.178E-01 0.111E-04
CGA:  23    -0.335948274145E+03   -0.59507E-03   -0.59527E-03  7904   0.140E-01-0.526E-04
CGA:  24    -0.335948673451E+03   -0.39931E-03   -0.39953E-03  7904   0.821E-02 0.402E-04
CGA:  25    -0.335948840602E+03   -0.16715E-03   -0.16721E-03  7904   0.469E-02 0.547E-05
CGA:  26    -0.335948986468E+03   -0.14587E-03   -0.14586E-03  7904   0.609E-02 0.123E-04
CGA:  27    -0.335949241847E+03   -0.25538E-03   -0.25503E-03  7904   0.550E-02 0.290E-04
CGA:  28    -0.335949376794E+03   -0.13495E-03   -0.13498E-03  7904   0.320E-02 0.928E-05
CGA:  29    -0.335949458112E+03   -0.81318E-04   -0.81343E-04  7904   0.253E-02 0.744E-05
CGA:  30    -0.335949521418E+03   -0.63307E-04   -0.63394E-04  7904   0.191E-02 0.113E-04
CGA:  31    -0.335949605067E+03   -0.83649E-04   -0.83502E-04  7904   0.248E-02 0.115E-04
SDA:  32    -0.335949668587E+03   -0.63520E-04   -0.63618E-04  7904   0.108E-02 0.137E-04
CGA:  33    -0.335949680260E+03   -0.11673E-04   -0.11663E-04  7904   0.356E-03 0.949E-06
CGA:  34    -0.335949709119E+03   -0.28859E-04   -0.28549E-04  7904   0.695E-03 0.617E-05
CGA:  35    -0.335949728266E+03   -0.19147E-04   -0.19184E-04  7904   0.749E-03 0.688E-05
CGA:  36    -0.335949764606E+03   -0.36340E-04   -0.36112E-04  7904   0.326E-03 0.141E-04
CGA:  37    -0.335949779562E+03   -0.14956E-04   -0.14912E-04  7904   0.792E-03 0.357E-05
CGA:  38    -0.335949794230E+03   -0.14667E-04   -0.14706E-04  7904   0.190E-03 0.372E-05
CGA:  39    -0.335949809304E+03   -0.15074E-04   -0.14689E-04  7904   0.120E-03 0.862E-05
CGA:  40    -0.335949812968E+03   -0.36640E-05   -0.36771E-05  7904   0.168E-03 0.240E-05
  13 F= -.33594981E+03 E0= -.33592544E+03  d E =-.114798E-01  mag=    32.0000
       N       E                     dE             d eps       ncg     rms          ort
SDA:   1    -0.334375606653E+03    0.15742E+01    0.00000E+00  7904   0.111E+02 0.000E+00
CGA:   2    -0.334556158842E+03   -0.18055E+00   -0.19104E+00  7904   0.682E+01-0.253E+00
CGA:   3    -0.335150836090E+03   -0.59468E+00   -0.64007E+00  7904   0.178E+02-0.103E+01
CGA:   4    -0.335508195852E+03   -0.35736E+00   -0.37864E+00  7904   0.543E+01 0.859E-01
CGA:   5    -0.335614988023E+03   -0.10679E+00   -0.10572E+00  7904   0.414E+01 0.205E-01
CGA:   6    -0.335742065498E+03   -0.12708E+00   -0.10482E+00  7904   0.241E+01 0.125E+00
CGA:   7    -0.335782246536E+03   -0.40181E-01   -0.35272E-01  7904   0.159E+01 0.251E+00
CGA:   8    -0.335820166091E+03   -0.37920E-01   -0.37960E-01  7904   0.280E+01 0.170E-02
CGA:   9    -0.335872674546E+03   -0.52508E-01   -0.47879E-01  7904   0.248E+01 0.135E+00
CGA:  10    -0.335898621685E+03   -0.25947E-01   -0.25032E-01  7904   0.133E+01 0.773E-01
CGA:  11    -0.335916992041E+03   -0.18370E-01   -0.19401E-01  7904   0.122E+01-0.390E-01
CGA:  12    -0.335929313841E+03   -0.12322E-01   -0.14595E-01  7904   0.381E+00-0.112E+00
CGA:  13    -0.335935211065E+03   -0.58972E-02   -0.59623E-02  7904   0.451E+00-0.105E-02
CGA:  14    -0.335946444299E+03   -0.11233E-01   -0.11056E-01  7904   0.394E+00-0.131E-01
CGA:  15    -0.335951367552E+03   -0.49233E-02   -0.47749E-02  7904   0.219E+00 0.732E-02
CGA:  16    -0.335955446243E+03   -0.40787E-02   -0.40231E-02  7904   0.270E+00 0.313E-03
CGA:  17    -0.335959593108E+03   -0.41469E-02   -0.42800E-02  7904   0.125E+00-0.225E-02
CGA:  18    -0.335960911313E+03   -0.13182E-02   -0.13417E-02  7904   0.669E-01-0.142E-02
CGA:  19    -0.335962635553E+03   -0.17242E-02   -0.17238E-02  7904   0.834E-01 0.180E-02
CGA:  20    -0.335963740224E+03   -0.11047E-02   -0.11048E-02  7904   0.388E-01 0.745E-05
CGA:  21    -0.335965019833E+03   -0.12796E-02   -0.12873E-02  7904   0.754E-01-0.728E-03
CGA:  22    -0.335966119899E+03   -0.11001E-02   -0.10972E-02  7904   0.330E-01 0.663E-04
CGA:  23    -0.335966625196E+03   -0.50530E-03   -0.50726E-03  7904   0.265E-01-0.124E-04
CGA:  24    -0.335967166611E+03   -0.54141E-03   -0.54550E-03  7904   0.182E-01 0.315E-03
CGA:  25    -0.335967395354E+03   -0.22874E-03   -0.22860E-03  7904   0.828E-02 0.123E-04
CGA:  26    -0.335967695907E+03   -0.30055E-03   -0.29994E-03  7904   0.196E-01 0.422E-04
CGA:  27    -0.335968018550E+03   -0.32264E-03   -0.32325E-03  7904   0.839E-02 0.407E-05
CGA:  28    -0.335968226490E+03   -0.20794E-03   -0.20795E-03  7904   0.111E-01-0.120E-04
CGA:  29    -0.335968392991E+03   -0.16650E-03   -0.16503E-03  7904   0.368E-02 0.131E-04
CGA:  30    -0.335968462555E+03   -0.69565E-04   -0.69550E-04  7904   0.426E-02 0.707E-06
CGA:  31    -0.335968576242E+03   -0.11369E-03   -0.11342E-03  7904   0.434E-02 0.575E-04
SDA:  32    -0.335968645337E+03   -0.69095E-04   -0.69300E-04  7904   0.296E-02 0.103E-04
CGA:  33    -0.335968721881E+03   -0.76544E-04   -0.76660E-04  7904   0.184E-02-0.285E-04
CGA:  34    -0.335968756084E+03   -0.34203E-04   -0.34192E-04  7904   0.647E-03-0.130E-05
CGA:  35    -0.335968804829E+03   -0.48745E-04   -0.48591E-04  7904   0.306E-02 0.292E-05
CGA:  36    -0.335968870628E+03   -0.65799E-04   -0.65813E-04  7904   0.599E-03 0.353E-05
CGA:  37    -0.335968927574E+03   -0.56946E-04   -0.56189E-04  7904   0.790E-03 0.121E-04
CGA:  38    -0.335968946043E+03   -0.18469E-04   -0.18490E-04  7904   0.765E-03 0.306E-05
CGA:  39    -0.335969001205E+03   -0.55162E-04   -0.55023E-04  7904   0.411E-03 0.312E-05
CGA:  40    -0.335969015096E+03   -0.13892E-04   -0.13897E-04  7904   0.583E-03-0.173E-05
CGA:  41    -0.335969025653E+03   -0.10557E-04   -0.10539E-04  7904   0.266E-03-0.864E-06
CGA:  42    -0.335969061153E+03   -0.35500E-04   -0.34967E-04  7904   0.578E-03 0.535E-05
CGA:  43    -0.335969069619E+03   -0.84659E-05   -0.84725E-05  7904   0.110E-03 0.627E-06
  14 F= -.33596907E+03 E0= -.33594471E+03  d E =-.192567E-01  mag=    32.0000
       N       E                     dE             d eps       ncg     rms          ort
SDA:   1    -0.328019934519E+03    0.79491E+01    0.00000E+00  7904   0.964E+02 0.000E+00
CGA:   2    -0.329013811399E+03   -0.99388E+00   -0.12880E+01  7904   0.472E+02-0.269E+02
CGA:   3    -0.330898480657E+03   -0.18847E+01   -0.24475E+01  7904   0.135E+03-0.144E+02
[...]
CGA:   7    -0.336088244929E+03   -0.23588E-03   -0.23571E-03  7904   0.127E-01-0.417E-05
CGA:   8    -0.336088611062E+03   -0.36613E-03   -0.36679E-03  7904   0.609E-02 0.368E-04
CGA:   9    -0.336088768509E+03   -0.15745E-03   -0.15746E-03  7904   0.773E-02-0.437E-05
CGA:  10    -0.336089074720E+03   -0.30621E-03   -0.30700E-03  7904   0.166E-02-0.884E-04
CGA:  11    -0.336089097710E+03   -0.22990E-04   -0.22961E-04  7904   0.108E-02-0.145E-06
CGA:  12    -0.336089191268E+03   -0.93558E-04   -0.93176E-04  7904   0.608E-03 0.710E-05
CGA:  13    -0.336089201449E+03   -0.10181E-04   -0.10221E-04  7904   0.400E-03 0.154E-05
CGA:  14    -0.336089217201E+03   -0.15752E-04   -0.15743E-04  7904   0.384E-03 0.228E-05
CGA:  15    -0.336089224854E+03   -0.76528E-05   -0.76733E-05  7904   0.278E-03 0.144E-05
CGA:  16    -0.336089237334E+03   -0.12480E-04   -0.12428E-04  7904   0.725E-04 0.481E-05
CGA:  17    -0.336089239038E+03   -0.17042E-05   -0.17100E-05  7904   0.104E-03 0.502E-06
 178 F= -.33608924E+03 E0= -.33606522E+03  d E =-.144906E-03  mag=    32.0000
       N       E                     dE             d eps       ncg     rms          ort
SDA:   1    -0.335981808458E+03    0.10743E+00    0.00000E+00  7904   0.518E+00 0.000E+00
CGA:   2    -0.335992781137E+03   -0.10973E-01   -0.11062E-01  7904   0.566E+00-0.554E-03
CGA:   3    -0.336035154423E+03   -0.42373E-01   -0.42633E-01  7904   0.110E+01-0.817E-02
CGA:   4    -0.336053240643E+03   -0.18086E-01   -0.17880E-01  7904   0.485E+00 0.701E-02
CGA:   5    -0.336070816148E+03   -0.17576E-01   -0.17538E-01  7904   0.105E+00 0.147E-01
CGA:   6    -0.336077615582E+03   -0.67994E-02   -0.70137E-02  7904   0.195E+00-0.699E-02
CGA:   7    -0.336080619374E+03   -0.30038E-02   -0.30015E-02  7904   0.101E+00-0.217E-04
CGA:   8    -0.336085075272E+03   -0.44559E-02   -0.44241E-02  7904   0.937E-01 0.257E-02
CGA:   9    -0.336086466941E+03   -0.13917E-02   -0.13864E-02  7904   0.158E-01 0.227E-03
CGA:  10    -0.336087070740E+03   -0.60380E-03   -0.60362E-03  7904   0.322E-01 0.357E-04
CGA:  11    -0.336087759073E+03   -0.68833E-03   -0.69111E-03  7904   0.114E-01 0.563E-05
CGA:  12    -0.336088284059E+03   -0.52499E-03   -0.52698E-03  7904   0.635E-02-0.120E-03
CGA:  13    -0.336088381044E+03   -0.96985E-04   -0.97270E-04  7904   0.323E-02-0.275E-06
CGA:  14    -0.336088553099E+03   -0.17205E-03   -0.17179E-03  7904   0.769E-02 0.132E-04
CGA:  15    -0.336088697143E+03   -0.14404E-03   -0.14407E-03  7904   0.866E-03 0.622E-05
CGA:  16    -0.336088745322E+03   -0.48179E-04   -0.48303E-04  7904   0.178E-02-0.538E-05
CGA:  17    -0.336088774769E+03   -0.29447E-04   -0.29365E-04  7904   0.776E-03-0.744E-06
CGA:  18    -0.336088813155E+03   -0.38386E-04   -0.38391E-04  7904   0.119E-02-0.417E-06
CGA:  19    -0.336088835900E+03   -0.22744E-04   -0.22790E-04  7904   0.311E-03 0.120E-05
CGA:  20    -0.336088845883E+03   -0.99832E-05   -0.99835E-05  7904   0.323E-03 0.235E-06
 179 F= -.33608885E+03 E0= -.33606477E+03  d E =0.393156E-03  mag=    32.0000
       N       E                     dE             d eps       ncg     rms          ort
SDA:   1    -0.335579879123E+03    0.50896E+00    0.00000E+00  7904   0.588E+02 0.000E+00
CGA:   2    -0.336049750327E+03   -0.46987E+00   -0.57083E+00  7904   0.217E+01-0.109E+02
CGA:   3    -0.336068918789E+03   -0.19168E-01   -0.18734E-01  7904   0.713E-01 0.287E-01
CGA:   4    -0.336075733470E+03   -0.68147E-02   -0.67109E-02  7904   0.128E+00 0.189E-02
CGA:   5    -0.336079550574E+03   -0.38171E-02   -0.38217E-02  7904   0.141E+00 0.334E-03
CGA:   6    -0.336083781161E+03   -0.42306E-02   -0.42219E-02  7904   0.393E-01-0.820E-03
CGA:   7    -0.336084562300E+03   -0.78114E-03   -0.77915E-03  7904   0.406E-01 0.222E-04
CGA:   8    -0.336086586603E+03   -0.20243E-02   -0.20349E-02  7904   0.244E-01-0.517E-03
CGA:   9    -0.336087937030E+03   -0.13504E-02   -0.13451E-02  7904   0.167E-01 0.217E-03
CGA:  10    -0.336088226965E+03   -0.28994E-03   -0.29129E-03  7904   0.636E-02-0.203E-04
CGA:  11    -0.336088523060E+03   -0.29609E-03   -0.29662E-03  7904   0.596E-02-0.316E-04
CGA:  12    -0.336088640588E+03   -0.11753E-03   -0.11750E-03  7904   0.521E-02 0.548E-06
CGA:  13    -0.336088859489E+03   -0.21890E-03   -0.21889E-03  7904   0.130E-02 0.120E-05
CGA:  14    -0.336088887740E+03   -0.28251E-04   -0.28211E-04  7904   0.109E-02-0.240E-05
CGA:  15    -0.336088971915E+03   -0.84175E-04   -0.84577E-04  7904   0.640E-03-0.927E-05
CGA:  16    -0.336088985223E+03   -0.13308E-04   -0.13285E-04  7904   0.509E-03-0.872E-06
CGA:  17    -0.336088998298E+03   -0.13075E-04   -0.13075E-04  7904   0.260E-03 0.706E-07
CGA:  18    -0.336089007279E+03   -0.89812E-05   -0.89813E-05  7904   0.414E-03 0.171E-05
CGA:  19    -0.336089023686E+03   -0.16408E-04   -0.16398E-04  7904   0.702E-04 0.203E-05
CGA:  20    -0.336089026178E+03   -0.24918E-05   -0.24919E-05  7904   0.933E-04-0.279E-06
 180 F= -.33608903E+03 E0= -.33606490E+03  d E =-.180296E-03  mag=    32.0000
       N       E                     dE             d eps       ncg     rms          ort
SDA:   1    -0.336031888802E+03    0.57135E-01    0.00000E+00  7904   0.316E+00 0.000E+00
CGA:   2    -0.336039134686E+03   -0.72459E-02   -0.71655E-02  7904   0.372E+00 0.150E-03
CGA:   3    -0.336055527166E+03   -0.16392E-01   -0.16643E-01  7904   0.518E+00-0.176E-01
CGA:   4    -0.336067110024E+03   -0.11583E-01   -0.11661E-01  7904   0.382E+00 0.275E-03
CGA:   5    -0.336075976114E+03   -0.88661E-02   -0.89929E-02  7904   0.577E-01 0.876E-03
CGA:   6    -0.336078956463E+03   -0.29803E-02   -0.29784E-02  7904   0.208E+00 0.101E-03
CGA:   7    -0.336084666173E+03   -0.57097E-02   -0.57166E-02  7904   0.488E-01 0.343E-03
CGA:   8    -0.336086002898E+03   -0.13367E-02   -0.13347E-02  7904   0.380E-01-0.708E-04
CGA:   9    -0.336086868830E+03   -0.86593E-03   -0.86755E-03  7904   0.102E-01 0.141E-04
CGA:  10    -0.336087606509E+03   -0.73768E-03   -0.74080E-03  7904   0.230E-01-0.831E-04
CGA:  11    -0.336087950228E+03   -0.34372E-03   -0.34368E-03  7904   0.801E-02-0.852E-05
CGA:  12    -0.336088279055E+03   -0.32883E-03   -0.32817E-03  7904   0.373E-02 0.635E-04
CGA:  13    -0.336088341981E+03   -0.62926E-04   -0.62859E-04  7904   0.148E-02 0.359E-06
CGA:  14    -0.336088455176E+03   -0.11320E-03   -0.11266E-03  7904   0.264E-02 0.130E-04
CGA:  15    -0.336088505541E+03   -0.50365E-04   -0.50349E-04  7904   0.193E-02-0.803E-06
CGA:  16    -0.336088560308E+03   -0.54767E-04   -0.54681E-04  7904   0.361E-03-0.649E-05
CGA:  17    -0.336088570749E+03   -0.10441E-04   -0.10446E-04  7904   0.516E-03 0.787E-06
CGA:  18    -0.336088605272E+03   -0.34523E-04   -0.34478E-04  7904   0.224E-03 0.138E-05
CGA:  19    -0.336088608905E+03   -0.36329E-05   -0.36342E-05  7904   0.159E-03-0.145E-07
 181 F= -.33608861E+03 E0= -.33606456E+03  d E =0.417273E-03  mag=    32.0000
       N       E                     dE             d eps       ncg     rms          ort
SDA:   1    -0.336066958715E+03    0.21647E-01    0.00000E+00  7904   0.177E+01 0.000E+00
CGA:   2    -0.336082887036E+03   -0.15928E-01   -0.17119E-01  7904   0.713E-01-0.101E+00
CGA:   3    -0.336083984919E+03   -0.10979E-02   -0.11056E-02  7904   0.384E-01-0.241E-03
CGA:   4    -0.336085310242E+03   -0.13253E-02   -0.13261E-02  7904   0.234E-01-0.311E-03
CGA:   5    -0.336086508402E+03   -0.11982E-02   -0.11973E-02  7904   0.435E-01 0.412E-04
CGA:   6    -0.336087605400E+03   -0.10970E-02   -0.10940E-02  7904   0.136E-01-0.442E-04
CGA:   7    -0.336087953314E+03   -0.34791E-03   -0.34822E-03  7904   0.135E-01 0.888E-05
CGA:   8    -0.336088263475E+03   -0.31016E-03   -0.31157E-03  7904   0.475E-02 0.801E-05
CGA:   9    -0.336088495846E+03   -0.23237E-03   -0.23285E-03  7904   0.998E-02-0.278E-04
CGA:  10    -0.336088785330E+03   -0.28948E-03   -0.28939E-03  7904   0.227E-02-0.215E-04
CGA:  11    -0.336088828139E+03   -0.42809E-04   -0.42807E-04  7904   0.156E-02-0.291E-05
CGA:  12    -0.336088875966E+03   -0.47827E-04   -0.47830E-04  7904   0.959E-03 0.149E-06
CGA:  13    -0.336088912467E+03   -0.36502E-04   -0.36489E-04  7904   0.140E-02 0.217E-05
CGA:  14    -0.336088955113E+03   -0.42645E-04   -0.42639E-04  7904   0.287E-03-0.797E-06
CGA:  15    -0.336088959678E+03   -0.45656E-05   -0.45687E-05  7904   0.166E-03 0.152E-06
CGA:  16    -0.336088970804E+03   -0.11126E-04   -0.11106E-04  7904   0.353E-03 0.572E-06
CGA:  17    -0.336088978263E+03   -0.74592E-05   -0.74593E-05  7904   0.947E-04 0.187E-06
 182 F= -.33608898E+03 E0= -.33606497E+03  d E =-.369358E-03  mag=    32.0000
       N       E                     dE             d eps       ncg     rms          ort
SDA:   1    -0.335993421640E+03    0.95549E-01    0.00000E+00  7904   0.544E+01 0.000E+00
CGA:   2    -0.336039432757E+03   -0.46011E-01   -0.47072E-01  7904   0.192E+00-0.121E+00
CGA:   3    -0.336055022837E+03   -0.15590E-01   -0.15939E-01  7904   0.513E+00-0.763E-02
CGA:   4    -0.336064727633E+03   -0.97048E-02   -0.96254E-02  7904   0.338E+00 0.140E-02
CGA:   5    -0.336075763603E+03   -0.11036E-01   -0.11058E-01  7904   0.963E-01 0.972E-02
CGA:   6    -0.336077604530E+03   -0.18409E-02   -0.18506E-02  7904   0.658E-01-0.190E-03
CGA:   7    -0.336085469312E+03   -0.78648E-02   -0.79312E-02  7904   0.251E-01-0.895E-03
CGA:   8    -0.336086229214E+03   -0.75990E-03   -0.76317E-03  7904   0.234E-01 0.149E-03
CGA:   9    -0.336086806355E+03   -0.57714E-03   -0.57802E-03  7904   0.160E-01 0.529E-06
CGA:  10    -0.336087515415E+03   -0.70906E-03   -0.70941E-03  7904   0.288E-01-0.277E-04
CGA:  11    -0.336088009226E+03   -0.49381E-03   -0.49405E-03  7904   0.192E-02 0.102E-05
CGA:  12    -0.336088138218E+03   -0.12899E-03   -0.12911E-03  7904   0.626E-02-0.372E-05
CGA:  13    -0.336088320057E+03   -0.18184E-03   -0.18186E-03  7904   0.843E-03 0.128E-05
CGA:  14    -0.336088348801E+03   -0.28745E-04   -0.28736E-04  7904   0.155E-02-0.262E-05
CGA:  15    -0.336088390425E+03   -0.41623E-04   -0.41571E-04  7904   0.749E-03-0.317E-05
CGA:  16    -0.336088416575E+03   -0.26151E-04   -0.26155E-04  7904   0.834E-03 0.260E-05
CGA:  17    -0.336088436274E+03   -0.19698E-04   -0.19714E-04  7904   0.184E-03 0.136E-05
CGA:  18    -0.336088447775E+03   -0.11502E-04   -0.11478E-04  7904   0.219E-03 0.846E-06
CGA:  19    -0.336088453335E+03   -0.55598E-05   -0.55515E-05  7904   0.200E-03-0.619E-06
CGA:  20    -0.336088463616E+03   -0.10281E-04   -0.10285E-04  7904   0.194E-03-0.214E-06
CGA:  21    -0.336088466041E+03   -0.24243E-05   -0.24282E-05  7904   0.384E-04 0.383E-07
 183 F= -.33608847E+03 E0= -.33606440E+03  d E =0.512222E-03  mag=    32.0000
       N       E                     dE             d eps       ncg     rms          ort
SDA:   1    -0.336050219245E+03    0.38244E-01    0.00000E+00  7904   0.211E+01 0.000E+00
CGA:   2    -0.336070641657E+03   -0.20422E-01   -0.19211E-01  7904   0.107E+00 0.112E+00
CGA:   3    -0.336073389198E+03   -0.27475E-02   -0.27429E-02  7904   0.129E+00-0.766E-06
CGA:   4    -0.336078158392E+03   -0.47692E-02   -0.47645E-02  7904   0.930E-01 0.367E-02
CGA:   5    -0.336082164517E+03   -0.40061E-02   -0.40053E-02  7904   0.193E+00 0.826E-04
CGA:   6    -0.336085206008E+03   -0.30415E-02   -0.29212E-02  7904   0.169E-01 0.525E-02
CGA:   7    -0.336085793863E+03   -0.58786E-03   -0.58778E-03  7904   0.463E-01-0.114E-04
CGA:   8    -0.336087633401E+03   -0.18395E-02   -0.18387E-02  7904   0.322E-01 0.148E-03
CGA:   9    -0.336088075640E+03   -0.44224E-03   -0.44447E-03  7904   0.113E-01-0.697E-04
CGA:  10    -0.336088409046E+03   -0.33341E-03   -0.33354E-03  7904   0.987E-02 0.122E-04
CGA:  11    -0.336088544346E+03   -0.13530E-03   -0.13474E-03  7904   0.334E-02 0.219E-04
CGA:  12    -0.336088766783E+03   -0.22244E-03   -0.22389E-03  7904   0.818E-02-0.434E-04
CGA:  13    -0.336088869207E+03   -0.10242E-03   -0.10248E-03  7904   0.222E-02-0.113E-04
CGA:  14    -0.336088954240E+03   -0.85033E-04   -0.84920E-04  7904   0.209E-02 0.169E-04
CGA:  15    -0.336088979248E+03   -0.25008E-04   -0.24985E-04  7904   0.576E-03 0.248E-05
CGA:  16    -0.336089006594E+03   -0.27346E-04   -0.27375E-04  7904   0.133E-02-0.190E-05
CGA:  17    -0.336089033096E+03   -0.26502E-04   -0.26510E-04  7904   0.505E-03 0.602E-06
CGA:  18    -0.336089043945E+03   -0.10850E-04   -0.10872E-04  7904   0.529E-03 0.132E-05
CGA:  19    -0.336089056275E+03   -0.12330E-04   -0.12343E-04  7904   0.165E-03 0.112E-05
CGA:  20    -0.336089061671E+03   -0.53960E-05   -0.53964E-05  7904   0.418E-03-0.547E-06
CGA:  21    -0.336089074436E+03   -0.12765E-04   -0.12763E-04  7904   0.729E-04-0.147E-05
CGA:  22    -0.336089075524E+03   -0.10878E-05   -0.10897E-05  7904   0.582E-04 0.794E-07
 184 F= -.33608908E+03 E0= -.33606502E+03  d E =-.609484E-03  mag=    32.0000
       N       E                     dE             d eps       ncg     rms          ort
SDA:   1    -0.336027694086E+03    0.61380E-01    0.00000E+00  7904   0.176E+01 0.000E+00
CGA:   2    -0.336045300790E+03   -0.17607E-01   -0.18856E-01  7904   0.269E+00-0.868E-01
CGA:   3    -0.336053910917E+03   -0.86101E-02   -0.85805E-02  7904   0.308E+00 0.638E-02
CGA:   4    -0.336062226795E+03   -0.83159E-02   -0.83158E-02  7904   0.249E+00 0.224E-05
CGA:   5    -0.336076409270E+03   -0.14182E-01   -0.14166E-01  7904   0.236E+00 0.610E-03
CGA:   6    -0.336080064951E+03   -0.36557E-02   -0.36154E-02  7904   0.499E-01 0.142E-02
CGA:   7    -0.336081811617E+03   -0.17467E-02   -0.17480E-02  7904   0.987E-01-0.222E-03
CGA:   8    -0.336085939742E+03   -0.41281E-02   -0.41241E-02  7904   0.448E-01 0.299E-03
CGA:   9    -0.336086897479E+03   -0.95774E-03   -0.95690E-03  7904   0.205E-01 0.125E-04
CGA:  10    -0.336087433180E+03   -0.53570E-03   -0.53767E-03  7904   0.113E-01 0.123E-03
CGA:  11    -0.336087754707E+03   -0.32153E-03   -0.32154E-03  7904   0.151E-01 0.262E-05
CGA:  12    -0.336088312830E+03   -0.55812E-03   -0.55833E-03  7904   0.554E-02-0.262E-04
CGA:  13    -0.336088403678E+03   -0.90848E-04   -0.90962E-04  7904   0.173E-02-0.220E-05
CGA:  14    -0.336088510807E+03   -0.10713E-03   -0.10710E-03  7904   0.444E-02 0.869E-06
CGA:  15    -0.336088601582E+03   -0.90775E-04   -0.90823E-04  7904   0.131E-02 0.271E-05
CGA:  16    -0.336088632846E+03   -0.31265E-04   -0.31309E-04  7904   0.786E-03 0.344E-05
CGA:  17    -0.336088654883E+03   -0.22036E-04   -0.22039E-04  7904   0.429E-03 0.108E-05
CGA:  18    -0.336088673891E+03   -0.19008E-04   -0.18989E-04  7904   0.832E-03 0.140E-05
CGA:  19    -0.336088694626E+03   -0.20736E-04   -0.20735E-04  7904   0.297E-03 0.111E-06
CGA:  20    -0.336088700413E+03   -0.57869E-05   -0.57786E-05  7904   0.155E-03-0.643E-06
 185 F= -.33608870E+03 E0= -.33606469E+03  d E =0.375111E-03  mag=    32.0000
       N       E                     dE             d eps       ncg     rms          ort
SDA:   1    -0.336064039033E+03    0.24656E-01    0.00000E+00  7904   0.252E+01 0.000E+00
CGA:   2    -0.336085144933E+03   -0.21106E-01   -0.22289E-01  7904   0.424E-01-0.111E+00
CGA:   3    -0.336085712619E+03   -0.56769E-03   -0.57066E-03  7904   0.169E-01-0.121E-03
CGA:   4    -0.336086635464E+03   -0.92284E-03   -0.94236E-03  7904   0.139E-01-0.723E-03
CGA:   5    -0.336087191396E+03   -0.55593E-03   -0.55544E-03  7904   0.333E-01 0.352E-04
CGA:   6    -0.336088131291E+03   -0.93989E-03   -0.94021E-03  7904   0.728E-02 0.452E-04
CGA:   7    -0.336088313062E+03   -0.18177E-03   -0.18165E-03  7904   0.601E-02-0.650E-05
CGA:   8    -0.336088466069E+03   -0.15301E-03   -0.15298E-03  7904   0.278E-02-0.208E-05
CGA:   9    -0.336088582526E+03   -0.11646E-03   -0.11645E-03  7904   0.557E-02 0.607E-06
CGA:  10    -0.336088712116E+03   -0.12959E-03   -0.12956E-03  7904   0.693E-03-0.267E-05
CGA:  11    -0.336088736510E+03   -0.24394E-04   -0.24398E-04  7904   0.124E-02-0.101E-05
CGA:  12    -0.336088772685E+03   -0.36175E-04   -0.36169E-04  7904   0.519E-03-0.297E-05
CGA:  13    -0.336088786732E+03   -0.14047E-04   -0.14045E-04  7904   0.393E-03-0.266E-06
CGA:  14    -0.336088794485E+03   -0.77535E-05   -0.77711E-05  7904   0.856E-04 0.108E-05
 186 F= -.33608879E+03 E0= -.33606481E+03  d E =-.940717E-04  mag=    32.0000
       N       E                     dE             d eps       ncg     rms          ort
SDA:   1    -0.336028913780E+03    0.59873E-01    0.00000E+00  7904   0.172E+01 0.000E+00
CGA:   2    -0.336044651904E+03   -0.15738E-01   -0.16068E-01  7904   0.185E+00-0.299E-01
CGA:   3    -0.336057168478E+03   -0.12517E-01   -0.13038E-01  7904   0.342E+00-0.141E-01
CGA:   4    -0.336065758491E+03   -0.85900E-02   -0.85735E-02  7904   0.379E+00-0.105E-02
CGA:   5    -0.336078185790E+03   -0.12427E-01   -0.12412E-01  7904   0.889E-01 0.834E-02
CGA:   6    -0.336079719208E+03   -0.15334E-02   -0.15435E-02  7904   0.607E-01-0.262E-03
CGA:   7    -0.336084011353E+03   -0.42921E-02   -0.44039E-02  7904   0.628E-01-0.292E-02
CGA:   8    -0.336085369259E+03   -0.13579E-02   -0.13555E-02  7904   0.607E-01-0.303E-04
CGA:   9    -0.336087100814E+03   -0.17316E-02   -0.17387E-02  7904   0.824E-02 0.636E-03
CGA:  10    -0.336087369505E+03   -0.26869E-03   -0.26869E-03  7904   0.130E-01 0.978E-05
CGA:  11    -0.336087734061E+03   -0.36456E-03   -0.36433E-03  7904   0.739E-02-0.154E-04
CGA:  12    -0.336088097555E+03   -0.36349E-03   -0.36359E-03  7904   0.822E-02-0.405E-05
CGA:  13    -0.336088209409E+03   -0.11185E-03   -0.11233E-03  7904   0.820E-03-0.170E-04
CGA:  14    -0.336088260834E+03   -0.51425E-04   -0.51403E-04  7904   0.322E-02 0.719E-06
CGA:  15    -0.336088348548E+03   -0.87714E-04   -0.87690E-04  7904   0.416E-03-0.167E-05
CGA:  16    -0.336088363992E+03   -0.15444E-04   -0.15439E-04  7904   0.705E-03 0.904E-06
CGA:  17    -0.336088380821E+03   -0.16829E-04   -0.16838E-04  7904   0.369E-03 0.412E-06
CGA:  18    -0.336088402195E+03   -0.21374E-04   -0.21453E-04  7904   0.290E-03-0.314E-05
CGA:  19    -0.336088405880E+03   -0.36847E-05   -0.36705E-05  7904   0.718E-04-0.429E-06
 187 F= -.33608841E+03 E0= -.33606437E+03  d E =0.388606E-03  mag=    32.0000
       N       E                     dE             d eps       ncg     rms          ort
SDA:   1    -0.336021812762E+03    0.66589E-01    0.00000E+00  7904   0.583E+01 0.000E+00
CGA:   2    -0.336072052145E+03   -0.50239E-01   -0.47777E-01  7904   0.104E+00 0.234E+00
CGA:   3    -0.336074183162E+03   -0.21310E-02   -0.21190E-02  7904   0.957E-01 0.222E-03
CGA:   4    -0.336078648374E+03   -0.44652E-02   -0.44770E-02  7904   0.136E+00-0.766E-03
CGA:   5    -0.336081063230E+03   -0.24149E-02   -0.24282E-02  7904   0.986E-01-0.365E-03
CGA:   6    -0.336084889190E+03   -0.38260E-02   -0.38340E-02  7904   0.396E-01-0.105E-02
CGA:   7    -0.336085474990E+03   -0.58580E-03   -0.58405E-03  7904   0.284E-01 0.854E-04
CGA:   8    -0.336086662324E+03   -0.11873E-02   -0.11803E-02  7904   0.165E-01 0.616E-03
CGA:   9    -0.336087249276E+03   -0.58695E-03   -0.58688E-03  7904   0.371E-01 0.430E-04
CGA:  10    -0.336088161994E+03   -0.91272E-03   -0.91076E-03  7904   0.741E-02-0.962E-05
CGA:  11    -0.336088267250E+03   -0.10526E-03   -0.10506E-03  7904   0.304E-02 0.663E-05
CGA:  12    -0.336088407160E+03   -0.13991E-03   -0.13970E-03  7904   0.491E-02 0.121E-04
CGA:  13    -0.336088491179E+03   -0.84019E-04   -0.84165E-04  7904   0.285E-02-0.381E-05
CGA:  14    -0.336088628074E+03   -0.13689E-03   -0.13727E-03  7904   0.100E-02-0.204E-04
CGA:  15    -0.336088640771E+03   -0.12697E-04   -0.12686E-04  7904   0.542E-03-0.200E-06
CGA:  16    -0.336088681730E+03   -0.40958E-04   -0.40927E-04  7904   0.463E-03 0.653E-06
CGA:  17    -0.336088690254E+03   -0.85240E-05   -0.85389E-05  7904   0.427E-03 0.814E-06
CGA:  18    -0.336088704614E+03   -0.14361E-04   -0.14360E-04  7904   0.227E-03 0.133E-05
CGA:  19    -0.336088709107E+03   -0.44924E-05   -0.44923E-05  7904   0.172E-03 0.432E-07
 188 F= -.33608871E+03 E0= -.33606468E+03  d E =-.303227E-03  mag=    32.0000
