       N       E                     dE             d eps       ncg     rms          rms(c)
DAV:   1     0.652636528162E+04    0.65264E+04   -0.28020E+05 37608   0.153E+03
DAV:   2     0.346084134166E+03   -0.61803E+04   -0.58106E+04 38168   0.467E+02
DAV:   3    -0.378122180981E+03   -0.72421E+03   -0.71109E+03 39392   0.171E+02
DAV:   4    -0.409637178632E+03   -0.31515E+02   -0.30926E+02 49800   0.312E+01
DAV:   5    -0.411878342653E+03   -0.22412E+01   -0.22290E+01 62384   0.628E+00    0.640E+01
DAV:   6    -0.351955624161E+03    0.59923E+02   -0.28628E+02 41240   0.418E+01    0.567E+01
DAV:   7    -0.380392113905E+03   -0.28436E+02   -0.90448E+01 41656   0.317E+01    0.886E+01
DAV:   8    -0.355164191121E+03    0.25228E+02   -0.61339E+01 41656   0.197E+01    0.387E+01
DAV:   9    -0.362609537220E+03   -0.74453E+01   -0.20754E+01 44528   0.115E+01    0.463E+01
DAV:  10    -0.364069367763E+03   -0.14598E+01   -0.39737E+01 43648   0.952E+00    0.236E+01
DAV:  11    -0.369941985115E+03   -0.58726E+01   -0.15165E+01 44856   0.848E+00    0.385E+01
DAV:  12    -0.371118998906E+03   -0.11770E+01   -0.28566E+01 43104   0.693E+00    0.177E+01
DAV:  13    -0.372682784721E+03   -0.15638E+01   -0.24870E+00 44008   0.373E+00    0.141E+01
DAV:  14    -0.373372672620E+03   -0.68989E+00   -0.25307E+00 42848   0.247E+00    0.966E+00
DAV:  15    -0.373852200741E+03   -0.47953E+00   -0.57908E-01 44112   0.195E+00    0.601E+00
DAV:  16    -0.374602000669E+03   -0.74980E+00   -0.30527E-01 44152   0.136E+00    0.445E+00
DAV:  17    -0.375750208164E+03   -0.11482E+01   -0.44414E-01 46064   0.160E+00    0.423E+00
DAV:  18    -0.376607606348E+03   -0.85740E+00   -0.29923E-01 43264   0.126E+00    0.346E+00
DAV:  19    -0.377411020685E+03   -0.80341E+00   -0.30237E-01 43424   0.105E+00    0.258E+00
DAV:  20    -0.378099511141E+03   -0.68849E+00   -0.30531E-01 43184   0.104E+00    0.222E+00
DAV:  21    -0.378665093963E+03   -0.56558E+00   -0.32647E-01 43080   0.100E+00    0.161E+00
DAV:  22    -0.378943938754E+03   -0.27884E+00   -0.16844E-01 41888   0.777E-01    0.140E+00
DAV:  23    -0.379065692003E+03   -0.12175E+00   -0.72468E-02 41656   0.529E-01    0.857E-01
DAV:  24    -0.379106566968E+03   -0.40875E-01   -0.21268E-02 41232   0.280E-01    0.598E-01
DAV:  25    -0.379119377176E+03   -0.12810E-01   -0.65422E-03 42152   0.149E-01    0.509E-01
DAV:  26    -0.379124369998E+03   -0.49928E-02   -0.28790E-03 42552   0.129E-01    0.415E-01
DAV:  27    -0.379126611873E+03   -0.22419E-02   -0.28681E-03 40624   0.123E-01    0.353E-01
DAV:  28    -0.379126807223E+03   -0.19535E-03   -0.15107E-03 41912   0.931E-02    0.298E-01
DAV:  29    -0.379126674068E+03    0.13315E-03   -0.66332E-04 48480   0.664E-02    0.208E-01
DAV:  30    -0.379126506155E+03    0.16791E-03   -0.67447E-04 42224   0.683E-02    0.124E-01
DAV:  31    -0.379126519467E+03   -0.13312E-04   -0.24277E-04 41928   0.418E-02    0.103E-01
DAV:  32    -0.379126500679E+03    0.18788E-04   -0.81445E-05 40856   0.232E-02    0.625E-02
DAV:  33    -0.379126496437E+03    0.42418E-05   -0.26718E-05 33136   0.132E-02
   1 F= -.37912650E+03 E0= -.37912373E+03  d E =-.379126E+03  mag=    46.0133
       N       E                     dE             d eps       ncg     rms          rms(c)
DAV:   1    -0.379195636332E+03   -0.69136E-01   -0.42130E-02 39216   0.300E-01    0.603E-02
DAV:   2    -0.379195748678E+03   -0.11235E-03   -0.16555E-03 41008   0.596E-02    0.622E-02
DAV:   3    -0.379195747401E+03    0.12775E-05   -0.11235E-04 44672   0.223E-02    0.646E-02
DAV:   4    -0.379195736111E+03    0.11290E-04   -0.24567E-05 32360   0.150E-02    0.313E-02
DAV:   5    -0.379195735319E+03    0.79192E-06   -0.18802E-05 31608   0.140E-02
   2 F= -.37919574E+03 E0= -.37919286E+03  d E =-.692389E-01  mag=    46.0068
       N       E                     dE             d eps       ncg     rms          rms(c)
DAV:   1    -0.380688200209E+03   -0.14925E+01   -0.38133E+01 38160   0.904E+00    0.151E+00
DAV:   2    -0.380812988702E+03   -0.12479E+00   -0.16169E+00 41128   0.174E+00    0.110E+00
DAV:   3    -0.380810273896E+03    0.27148E-02   -0.73604E-02 51848   0.454E-01    0.908E-01
DAV:   4    -0.380807323820E+03    0.29501E-02   -0.12689E-02 50552   0.344E-01    0.882E-01
DAV:   5    -0.380805780248E+03    0.15436E-02   -0.15491E-02 46792   0.285E-01    0.948E-01
DAV:   6    -0.380804297169E+03    0.14831E-02   -0.91644E-03 49576   0.226E-01    0.239E-01
DAV:   7    -0.380804522275E+03   -0.22511E-03   -0.15834E-03 49336   0.988E-02    0.233E-01
DAV:   8    -0.380804468758E+03    0.53517E-04   -0.63890E-04 47984   0.637E-02    0.146E-01
DAV:   9    -0.380804441435E+03    0.27323E-04   -0.17162E-04 39800   0.344E-02    0.723E-02
DAV:  10    -0.380804436901E+03    0.45345E-05   -0.38266E-05 34392   0.207E-02
   3 F= -.38080444E+03 E0= -.38080193E+03  d E =-.160870E+01  mag=    46.0014
       N       E                     dE             d eps       ncg     rms          rms(c)
DAV:   1    -0.381837008043E+03   -0.10326E+01   -0.12407E+02 40408   0.196E+01    0.233E+00
DAV:   2    -0.382314120487E+03   -0.47711E+00   -0.52842E+00 40040   0.338E+00    0.168E+00
DAV:   3    -0.382307049592E+03    0.70709E-02   -0.17352E-01 52080   0.689E-01    0.126E+00
DAV:   4    -0.382302178960E+03    0.48706E-02   -0.34374E-02 46720   0.503E-01    0.183E+00
DAV:   5    -0.382291437487E+03    0.10741E-01   -0.18210E-02 43928   0.485E-01    0.740E-01
DAV:   6    -0.382291650502E+03   -0.21302E-03   -0.15338E-02 47544   0.323E-01    0.890E-01
DAV:   7    -0.382290196621E+03    0.14539E-02   -0.75450E-03 47464   0.201E-01    0.248E-01
DAV:   8    -0.382290201404E+03   -0.47829E-05   -0.14715E-03 50424   0.117E-01    0.242E-01
DAV:   9    -0.382290134167E+03    0.67237E-04   -0.46314E-04 49448   0.767E-02    0.182E-01
DAV:  10    -0.382290068959E+03    0.65207E-04   -0.38887E-04 47072   0.493E-02    0.711E-02
DAV:  11    -0.382290080535E+03   -0.11576E-04   -0.96060E-05 41128   0.271E-02    0.671E-02
DAV:  12    -0.382290072538E+03    0.79971E-05   -0.22474E-05 33120   0.188E-02
   4 F= -.38229007E+03 E0= -.38228736E+03  d E =-.148564E+01  mag=    46.0003
       N       E                     dE             d eps       ncg     rms          rms(c)
DAV:   1    -0.382461006132E+03   -0.17093E+00   -0.14233E+02 41728   0.247E+01    0.260E+00
DAV:   2    -0.383069868342E+03   -0.60886E+00   -0.62804E+00 39128   0.396E+00    0.182E+00
DAV:   3    -0.383066449707E+03    0.34186E-02   -0.16353E-01 52176   0.721E-01    0.120E+00
DAV:   4    -0.383061483259E+03    0.49664E-02   -0.29744E-02 47496   0.438E-01    0.145E+00
DAV:   5    -0.383054645259E+03    0.68380E-02   -0.12384E-02 43800   0.384E-01    0.860E-01
DAV:   6    -0.383052595920E+03    0.20493E-02   -0.12973E-02 44408   0.318E-01    0.812E-01
DAV:   7    -0.383051408763E+03    0.11872E-02   -0.98067E-03 49472   0.220E-01    0.332E-01
DAV:   8    -0.383051366113E+03    0.42650E-04   -0.14137E-03 50928   0.117E-01    0.189E-01
DAV:   9    -0.383051322928E+03    0.43185E-04   -0.38550E-04 49272   0.750E-02    0.124E-01
DAV:  10    -0.383051301103E+03    0.21825E-04   -0.15976E-04 45000   0.373E-02    0.570E-02
DAV:  11    -0.383051295988E+03    0.51148E-05   -0.45723E-05 38392   0.197E-02
   5 F= -.38305130E+03 E0= -.38304851E+03  d E =-.761223E+00  mag=    46.0000
       N       E                     dE             d eps       ncg     rms          rms(c)
DAV:   1    -0.382663391692E+03    0.38791E+00   -0.12772E+02 42056   0.282E+01    0.327E+00
DAV:   2    -0.383403195293E+03   -0.73980E+00   -0.73325E+00 37912   0.456E+00    0.224E+00
DAV:   3    -0.383414126230E+03   -0.10931E-01   -0.18939E-01 52744   0.753E-01    0.110E+00
DAV:   4    -0.383408925695E+03    0.52005E-02   -0.20606E-02 46464   0.343E-01    0.897E-01
DAV:   5    -0.383407683723E+03    0.12420E-02   -0.10047E-02 46736   0.327E-01    0.115E+00
DAV:   6    -0.383404468007E+03    0.32157E-02   -0.75323E-03 44600   0.278E-01    0.397E-01
DAV:   7    -0.383404788643E+03   -0.32064E-03   -0.33736E-03 50672   0.168E-01    0.447E-01
DAV:   8    -0.383404515615E+03    0.27303E-03   -0.21993E-03 47416   0.118E-01    0.226E-01
DAV:   9    -0.383404549539E+03   -0.33924E-04   -0.64536E-04 50336   0.624E-02    0.169E-01
DAV:  10    -0.383404524447E+03    0.25092E-04   -0.13837E-04 42728   0.418E-02    0.759E-02
DAV:  11    -0.383404527821E+03   -0.33749E-05   -0.41752E-05 33728   0.159E-02
   6 F= -.38340453E+03 E0= -.38340168E+03  d E =-.353232E+00  mag=    46.0000
       N       E                     dE             d eps       ncg     rms          rms(c)
DAV:   1    -0.382950870044E+03    0.45365E+00   -0.91549E+01 41128   0.261E+01    0.325E+00
DAV:   2    -0.383574387767E+03   -0.62352E+00   -0.60934E+00 36912   0.427E+00    0.265E+00
DAV:   3    -0.383590251129E+03   -0.15863E-01   -0.18025E-01 51528   0.833E-01    0.148E+00
DAV:   4    -0.383589020345E+03    0.12308E-02   -0.34148E-02 51192   0.500E-01    0.157E+00
DAV:   5    -0.383585671846E+03    0.33485E-02   -0.12700E-02 46680   0.339E-01    0.911E-01
DAV:   6    -0.383584341047E+03    0.13308E-02   -0.42376E-03 47352   0.247E-01    0.523E-01
DAV:   7    -0.383584199502E+03    0.14155E-03   -0.59109E-03 45136   0.200E-01    0.520E-01
DAV:   8    -0.383583916481E+03    0.28302E-03   -0.28244E-03 47096   0.141E-01    0.285E-01
DAV:   9    -0.383583932018E+03   -0.15537E-04   -0.73130E-04 49224   0.790E-02    0.184E-01
DAV:  10    -0.383583951093E+03   -0.19075E-04   -0.31007E-04 42760   0.481E-02    0.104E-01
DAV:  11    -0.383583958515E+03   -0.74221E-05   -0.44794E-05 34592   0.194E-02
   7 F= -.38358396E+03 E0= -.38358109E+03  d E =-.179431E+00  mag=    46.0000
       N       E                     dE             d eps       ncg     rms          rms(c)
DAV:   1    -0.382700652433E+03    0.88330E+00   -0.18913E+02 40264   0.354E+01    0.452E+00
DAV:   2    -0.383852529429E+03   -0.11519E+01   -0.11319E+01 37160   0.615E+00    0.105E+01
DAV:   3    -0.383769568066E+03    0.82961E-01   -0.17336E+00 47576   0.230E+00    0.527E+00
DAV:   4    -0.383754702749E+03    0.14865E-01   -0.21916E-01 46920   0.113E+00    0.183E+00
DAV:   5    -0.383765233631E+03   -0.10531E-01   -0.85193E-02 49160   0.516E-01    0.168E+00
DAV:   6    -0.383763762767E+03    0.14709E-02   -0.15763E-02 49968   0.362E-01    0.116E+00
DAV:   7    -0.383761683561E+03    0.20792E-02   -0.97309E-03 48272   0.245E-01    0.978E-01
DAV:   8    -0.383760208693E+03    0.14749E-02   -0.88391E-03 46352   0.252E-01    0.784E-01
DAV:   9    -0.383759624793E+03    0.58390E-03   -0.55042E-03 49816   0.263E-01    0.666E-01
DAV:  10    -0.383759255496E+03    0.36930E-03   -0.17409E-03 45600   0.176E-01    0.404E-01
DAV:  11    -0.383759284365E+03   -0.28869E-04   -0.10475E-03 46408   0.845E-02    0.277E-01
DAV:  12    -0.383759137415E+03    0.14695E-03   -0.53985E-04 48992   0.822E-02    0.197E-01
DAV:  13    -0.383759112543E+03    0.24872E-04   -0.34077E-04 45432   0.525E-02    0.121E-01
DAV:  14    -0.383759138287E+03   -0.25744E-04   -0.12493E-04 37880   0.288E-02    0.113E-01
DAV:  15    -0.383759129319E+03    0.89683E-05   -0.24797E-05 30392   0.156E-02
   8 F= -.38375913E+03 E0= -.38375560E+03  d E =-.175171E+00  mag=    46.0000
       N       E                     dE             d eps       ncg     rms          rms(c)
DAV:   1    -0.382200708105E+03    0.15584E+01   -0.34647E+02 39384   0.468E+01    0.503E+00
DAV:   2    -0.383918357808E+03   -0.17176E+01   -0.17431E+01 38152   0.813E+00    0.109E+01
DAV:   3    -0.383844017131E+03    0.74341E-01   -0.20270E+00 47072   0.258E+00    0.629E+00
DAV:   4    -0.383787194310E+03    0.56823E-01   -0.31306E-01 46504   0.137E+00    0.234E+00
DAV:   5    -0.383791751940E+03   -0.45576E-02   -0.12346E-01 45432   0.686E-01    0.244E+00
DAV:   6    -0.383784525919E+03    0.72260E-02   -0.39683E-02 49784   0.534E-01    0.146E+00
DAV:   7    -0.383779835247E+03    0.46907E-02   -0.15617E-02 52368   0.358E-01    0.980E-01
DAV:   8    -0.383775589597E+03    0.42456E-02   -0.82937E-03 44624   0.292E-01    0.715E-01
DAV:   9    -0.383773779721E+03    0.18099E-02   -0.90737E-03 47096   0.252E-01    0.489E-01
DAV:  10    -0.383773698037E+03    0.81684E-04   -0.34201E-03 48952   0.178E-01    0.393E-01
DAV:  11    -0.383773501921E+03    0.19612E-03   -0.10565E-03 47632   0.111E-01    0.325E-01
DAV:  12    -0.383773418184E+03    0.83736E-04   -0.13182E-03 48768   0.881E-02    0.234E-01
DAV:  13    -0.383773430119E+03   -0.11935E-04   -0.55131E-04 47976   0.557E-02    0.165E-01
DAV:  14    -0.383773429212E+03    0.90688E-06   -0.79982E-05 42000   0.272E-02
   9 F= -.38377343E+03 E0= -.38376962E+03  d E =-.142999E-01  mag=    46.0000
       N       E                     dE             d eps       ncg     rms          rms(c)
DAV:   1    -0.383313932750E+03    0.45950E+00   -0.12426E+02 39256   0.251E+01    0.273E+00
DAV:   2    -0.383883834172E+03   -0.56990E+00   -0.60714E+00 37936   0.442E+00    0.214E+00
DAV:   3    -0.383901073208E+03   -0.17239E-01   -0.35947E-01 51288   0.102E+00    0.345E+00
DAV:   4    -0.383882271120E+03    0.18802E-01   -0.13261E-01 48288   0.655E-01    0.130E+00
DAV:   5    -0.383880773357E+03    0.14978E-02   -0.22514E-02 46328   0.460E-01    0.151E+00
DAV:   6    -0.383874954367E+03    0.58190E-02   -0.14524E-02 47160   0.390E-01    0.745E-01
DAV:   7    -0.383874059547E+03    0.89482E-03   -0.81314E-03 48696   0.273E-01    0.627E-01
DAV:   8    -0.383873447988E+03    0.61156E-03   -0.31231E-03 50520   0.170E-01    0.400E-01
DAV:   9    -0.383873197683E+03    0.25030E-03   -0.23481E-03 50640   0.107E-01    0.273E-01
DAV:  10    -0.383873327829E+03   -0.13015E-03   -0.84809E-04 45496   0.837E-02    0.257E-01
DAV:  11    -0.383873268086E+03    0.59744E-04   -0.61602E-04 51008   0.584E-02    0.170E-01
DAV:  12    -0.383873272037E+03   -0.39512E-05   -0.91972E-05 43224   0.247E-02
  10 F= -.38387327E+03 E0= -.38386886E+03  d E =-.998428E-01  mag=    46.0000
       N       E                     dE             d eps       ncg     rms          rms(c)
DAV:   1    -0.383900183271E+03   -0.26915E-01   -0.49074E+00 39008   0.547E+00    0.716E-01
DAV:   2    -0.383924639020E+03   -0.24456E-01   -0.26188E-01 37424   0.985E-01    0.146E+00
DAV:   3    -0.383922709708E+03    0.19293E-02   -0.44301E-02 48976   0.377E-01    0.797E-01
DAV:   4    -0.383922210105E+03    0.49960E-03   -0.33706E-03 44936   0.173E-01    0.445E-01
DAV:   5    -0.383921931731E+03    0.27837E-03   -0.18113E-03 48840   0.125E-01    0.326E-01
DAV:   6    -0.383921899557E+03    0.32174E-04   -0.15213E-03 43656   0.843E-02    0.339E-01
DAV:   7    -0.383921725756E+03    0.17380E-03   -0.51514E-04 48784   0.602E-02    0.184E-01
DAV:   8    -0.383921714421E+03    0.11335E-04   -0.21179E-04 46376   0.342E-02    0.114E-01
DAV:   9    -0.383921723285E+03   -0.88641E-05   -0.75107E-05 37040   0.274E-02
  11 F= -.38392172E+03 E0= -.38391742E+03  d E =-.484512E-01  mag=    46.0000
       N       E                     dE             d eps       ncg     rms          rms(c)
DAV:   1    -0.383893726964E+03    0.27987E-01   -0.13374E+01 39176   0.949E+00    0.108E+00
DAV:   2    -0.383958208728E+03   -0.64482E-01   -0.68540E-01 37096   0.167E+00    0.183E+00
DAV:   3    -0.383957331317E+03    0.87741E-03   -0.11090E-01 49936   0.537E-01    0.143E+00
DAV:   4    -0.383954202935E+03    0.31284E-02   -0.82929E-03 46840   0.284E-01    0.493E-01
DAV:   5    -0.383954208748E+03   -0.58129E-05   -0.42224E-03 47864   0.157E-01    0.476E-01
DAV:   6    -0.383954008785E+03    0.19996E-03   -0.25344E-03 45344   0.124E-01    0.464E-01
DAV:   7    -0.383953629810E+03    0.37897E-03   -0.11395E-03 50640   0.971E-02    0.199E-01
DAV:   8    -0.383953618257E+03    0.11553E-04   -0.57345E-04 49352   0.604E-02    0.174E-01
DAV:   9    -0.383953579614E+03    0.38643E-04   -0.26152E-04 45312   0.482E-02    0.110E-01
DAV:  10    -0.383953584651E+03   -0.50368E-05   -0.14377E-04 44424   0.297E-02    0.122E-01
DAV:  11    -0.383953574734E+03    0.99171E-05   -0.21463E-04 36000   0.370E-02    0.923E-02
DAV:  12    -0.383953589353E+03   -0.14619E-04   -0.67680E-05 32400   0.182E-02    0.953E-02
DAV:  13    -0.383953578235E+03    0.11118E-04   -0.16834E-05 26592   0.100E-02    0.590E-02
DAV:  14    -0.383953574972E+03    0.32631E-05   -0.11062E-05 24456   0.717E-03
  12 F= -.38395357E+03 E0= -.38394917E+03  d E =-.318517E-01  mag=    46.0000
       N       E                     dE             d eps       ncg     rms          rms(c)
DAV:   1    -0.383894830388E+03    0.58748E-01   -0.22229E+01 39304   0.121E+01    0.116E+00
DAV:   2    -0.383989008455E+03   -0.94178E-01   -0.94304E-01 36832   0.202E+00    0.267E+00
DAV:   3    -0.383982361980E+03    0.66465E-02   -0.17303E-01 49304   0.634E-01    0.134E+00
DAV:   4    -0.383981784229E+03    0.57775E-03   -0.70940E-03 44792   0.272E-01    0.704E-01
DAV:   5    -0.383980888521E+03    0.89571E-03   -0.39698E-03 50880   0.158E-01    0.418E-01
DAV:   6    -0.383981317745E+03   -0.42922E-03   -0.36727E-03 45992   0.128E-01    0.633E-01
DAV:   7    -0.383980748582E+03    0.56916E-03   -0.99178E-04 47352   0.874E-02    0.317E-01
DAV:   8    -0.383980660981E+03    0.87601E-04   -0.64113E-04 50216   0.553E-02    0.184E-01
DAV:   9    -0.383980600387E+03    0.60594E-04   -0.34757E-04 42496   0.523E-02    0.108E-01
DAV:  10    -0.383980636407E+03   -0.36020E-04   -0.20578E-04 45480   0.470E-02    0.122E-01
DAV:  11    -0.383980619022E+03    0.17385E-04   -0.98242E-05 40896   0.313E-02    0.768E-02
DAV:  12    -0.383980613183E+03    0.58386E-05   -0.44632E-05 32192   0.183E-02
  13 F= -.38398061E+03 E0= -.38397594E+03  d E =-.270382E-01  mag=    46.0000
       N       E                     dE             d eps       ncg     rms          rms(c)
DAV:   1    -0.381232281803E+03    0.27483E+01   -0.31713E+02 39904   0.520E+01    0.638E+00
DAV:   2    -0.383705971273E+03   -0.24737E+01   -0.25360E+01 36816   0.940E+00    0.108E+01
DAV:   3    -0.383791853247E+03   -0.85882E-01   -0.34108E+00 48648   0.299E+00    0.847E+00
DAV:   4    -0.383651609685E+03    0.14024E+00   -0.35816E-01 48720   0.176E+00    0.295E+00
DAV:   5    -0.383643180658E+03    0.84290E-02   -0.19151E-01 50712   0.101E+00    0.282E+00
DAV:   6    -0.383641679970E+03    0.15007E-02   -0.78283E-02 49664   0.715E-01    0.273E+00
DAV:   7    -0.383633269772E+03    0.84102E-02   -0.26721E-02 48512   0.487E-01    0.144E+00
DAV:   8    -0.383630548682E+03    0.27211E-02   -0.15331E-02 47480   0.369E-01    0.113E+00
DAV:   9    -0.383626827062E+03    0.37216E-02   -0.14784E-02 44832   0.357E-01    0.698E-01
DAV:  10    -0.383627729334E+03   -0.90227E-03   -0.92188E-03 46368   0.255E-01    0.863E-01
DAV:  11    -0.383627174200E+03    0.55513E-03   -0.72979E-03 50096   0.182E-01    0.506E-01
DAV:  12    -0.383626922810E+03    0.25139E-03   -0.10685E-03 50600   0.110E-01    0.306E-01
DAV:  13    -0.383626862090E+03    0.60720E-04   -0.17677E-03 48536   0.772E-02    0.327E-01
DAV:  14    -0.383626751426E+03    0.11066E-03   -0.77015E-04 48200   0.686E-02    0.130E-01
DAV:  15    -0.383626773015E+03   -0.21589E-04   -0.26462E-04 43104   0.383E-02    0.112E-01
DAV:  16    -0.383626748245E+03    0.24770E-04   -0.12989E-04 40648   0.316E-02    0.580E-02
DAV:  17    -0.383626752889E+03   -0.46433E-05   -0.67453E-05 33256   0.211E-02
  14 F= -.38362675E+03 E0= -.38362095E+03  d E =0.353860E+00  mag=    46.0000
       N       E                     dE             d eps       ncg     rms          rms(c)
DAV:   1    -0.382941738597E+03    0.68501E+00   -0.10825E+02 41184   0.323E+01    0.513E+00
DAV:   2    -0.384327277765E+03   -0.13855E+01   -0.13900E+01 37424   0.641E+00    0.158E+01
DAV:   3    -0.384035852330E+03    0.29143E+00   -0.24190E+00 46512   0.275E+00    0.470E+00
DAV:   4    -0.384082257621E+03   -0.46405E-01   -0.19212E-01 51832   0.130E+00    0.222E+00
DAV:   5    -0.384072425650E+03    0.98320E-02   -0.75093E-02 49448   0.735E-01    0.177E+00
DAV:   6    -0.384070782329E+03    0.16433E-02   -0.33021E-02 47936   0.468E-01    0.138E+00
DAV:   7    -0.384069641576E+03    0.11408E-02   -0.14986E-02 50528   0.268E-01    0.101E+00
DAV:   8    -0.384067633404E+03    0.20082E-02   -0.62048E-03 46032   0.265E-01    0.820E-01
DAV:   9    -0.384065817590E+03    0.18158E-02   -0.79650E-03 46280   0.245E-01    0.760E-01
DAV:  10    -0.384065824676E+03   -0.70855E-05   -0.81956E-03 50016   0.232E-01    0.702E-01
DAV:  11    -0.384065781023E+03    0.43653E-04   -0.29976E-03 52224   0.171E-01    0.567E-01
DAV:  12    -0.384065141314E+03    0.63971E-03   -0.21190E-03 49632   0.121E-01    0.376E-01
DAV:  13    -0.384064939908E+03    0.20141E-03   -0.15307E-03 49152   0.892E-02    0.304E-01
DAV:  14    -0.384064842545E+03    0.97363E-04   -0.90682E-04 49024   0.724E-02    0.157E-01
DAV:  15    -0.384064830618E+03    0.11927E-04   -0.23498E-04 42880   0.506E-02    0.884E-02
DAV:  16    -0.384064816413E+03    0.14205E-04   -0.13791E-04 44584   0.310E-02    0.574E-02
DAV:  17    -0.384064809947E+03    0.64656E-05   -0.65802E-05 34904   0.244E-02
  15 F= -.38406481E+03 E0= -.38405864E+03  d E =-.438057E+00  mag=    46.0000
       N       E                     dE             d eps       ncg     rms          rms(c)
DAV:   1    -0.384070639876E+03   -0.58235E-02   -0.13860E+00 39640   0.323E+00    0.391E-01
DAV:   2    -0.384078854413E+03   -0.82145E-02   -0.81573E-02 37416   0.560E-01    0.799E-01
DAV:   3    -0.384078603924E+03    0.25049E-03   -0.11256E-02 49112   0.199E-01    0.607E-01
DAV:   4    -0.384078236634E+03    0.36729E-03   -0.10226E-03 44440   0.104E-01    0.239E-01
DAV:   5    -0.384078240339E+03   -0.37045E-05   -0.11678E-03 49592   0.611E-02    0.220E-01
DAV:   6    -0.384078284334E+03   -0.43996E-04   -0.56937E-04 41712   0.522E-02    0.258E-01
DAV:   7    -0.384078216358E+03    0.67977E-04   -0.16557E-04 38880   0.336E-02    0.124E-01
DAV:   8    -0.384078227038E+03   -0.10680E-04   -0.31017E-05 31984   0.135E-02    0.101E-01
DAV:   9    -0.384078231117E+03   -0.40791E-05   -0.72469E-05 31408   0.196E-02
  16 F= -.38407823E+03 E0= -.38407187E+03  d E =-.134212E-01  mag=    46.0000
       N       E                     dE             d eps       ncg     rms          rms(c)
DAV:   1    -0.384008127720E+03    0.70099E-01   -0.20525E+01 39768   0.119E+01    0.129E+00
DAV:   2    -0.384105723183E+03   -0.97595E-01   -0.97634E-01 37256   0.204E+00    0.182E+00
DAV:   3    -0.384106422176E+03   -0.69899E-03   -0.88166E-02 49432   0.606E-01    0.174E+00
DAV:   4    -0.384102521773E+03    0.39004E-02   -0.32961E-02 48264   0.364E-01    0.106E+00
DAV:   5    -0.384101727021E+03    0.79475E-03   -0.73358E-03 45904   0.209E-01    0.582E-01
DAV:   6    -0.384101470171E+03    0.25685E-03   -0.82534E-03 45960   0.183E-01    0.504E-01
DAV:   7    -0.384101900392E+03   -0.43022E-03   -0.19890E-03 46448   0.113E-01    0.442E-01
DAV:   8    -0.384101868871E+03    0.31521E-04   -0.34843E-04 48064   0.503E-02    0.382E-01
DAV:   9    -0.384101723819E+03    0.14505E-03   -0.15449E-04 46584   0.346E-02    0.297E-01
DAV:  10    -0.384101509635E+03    0.21418E-03   -0.82716E-04 46840   0.615E-02    0.194E-01
DAV:  11    -0.384101486413E+03    0.23223E-04   -0.10614E-03 45376   0.734E-02    0.163E-01
DAV:  12    -0.384101454233E+03    0.32180E-04   -0.24817E-04 45128   0.438E-02    0.804E-02
DAV:  13    -0.384101452558E+03    0.16753E-05   -0.86503E-05 42488   0.207E-02
  17 F= -.38410145E+03 E0= -.38409488E+03  d E =-.232214E-01  mag=    46.0000
       N       E                     dE             d eps       ncg     rms          rms(c)
DAV:   1    -0.384037016882E+03    0.64437E-01   -0.26802E+01 39584   0.130E+01    0.125E+00
DAV:   2    -0.384144334605E+03   -0.10732E+00   -0.10228E+00 36776   0.212E+00    0.316E+00
DAV:   3    -0.384133595765E+03    0.10739E-01   -0.82191E-02 44408   0.582E-01    0.118E+00
DAV:   4    -0.384134433192E+03   -0.83743E-03   -0.13503E-02 46272   0.318E-01    0.871E-01
DAV:   5    -0.384133488496E+03    0.94470E-03   -0.11225E-02 48552   0.249E-01    0.670E-01
DAV:   6    -0.384133805265E+03   -0.31677E-03   -0.61038E-03 45352   0.169E-01    0.712E-01
DAV:   7    -0.384133513668E+03    0.29160E-03   -0.41127E-03 49240   0.118E-01    0.398E-01
DAV:   8    -0.384133667952E+03   -0.15428E-03   -0.64756E-04 44144   0.797E-02    0.376E-01
DAV:   9    -0.384133491375E+03    0.17658E-03   -0.12783E-03 50064   0.656E-02    0.255E-01
DAV:  10    -0.384133392301E+03    0.99074E-04   -0.10734E-03 44664   0.875E-02    0.219E-01
DAV:  11    -0.384133433260E+03   -0.40960E-04   -0.68560E-04 43104   0.609E-02    0.318E-01
DAV:  12    -0.384133281653E+03    0.15161E-03   -0.33193E-04 49448   0.471E-02    0.135E-01
DAV:  13    -0.384133296252E+03   -0.14599E-04   -0.12286E-04 42384   0.271E-02    0.572E-02
DAV:  14    -0.384133304972E+03   -0.87197E-05   -0.37240E-05 28168   0.174E-02
  18 F= -.38413330E+03 E0= -.38412642E+03  d E =-.318524E-01  mag=    46.0000
       N       E                     dE             d eps       ncg     rms          rms(c)
DAV:   1    -0.381156274380E+03    0.29770E+01   -0.34520E+02 39808   0.520E+01    0.622E+00
DAV:   2    -0.383764035465E+03   -0.26078E+01   -0.26678E+01 37176   0.934E+00    0.560E+00
DAV:   3    -0.383870481747E+03   -0.10645E+00   -0.14119E+00 50864   0.225E+00    0.945E+00
DAV:   4    -0.383744317010E+03    0.12616E+00   -0.57334E-01 47904   0.145E+00    0.224E+00
DAV:   5    -0.383759665554E+03   -0.15349E-01   -0.13391E-01 46712   0.889E-01    0.297E+00
DAV:   6    -0.383744822150E+03    0.14843E-01   -0.81381E-02 48336   0.684E-01    0.143E+00
DAV:   7    -0.383746149728E+03   -0.13276E-02   -0.43212E-02 47368   0.491E-01    0.187E+00
DAV:   8    -0.383741284473E+03    0.48653E-02   -0.19139E-02 46568   0.338E-01    0.734E-01
DAV:   9    -0.383742585188E+03   -0.13007E-02   -0.84840E-03 51544   0.216E-01    0.880E-01
DAV:  10    -0.383741924795E+03    0.66039E-03   -0.51477E-03 46280   0.183E-01    0.429E-01
DAV:  11    -0.383742310750E+03   -0.38596E-03   -0.30542E-03 50016   0.128E-01    0.443E-01
DAV:  12    -0.383742365007E+03   -0.54257E-04   -0.38690E-04 46376   0.571E-02    0.454E-01
DAV:  13    -0.383742048025E+03    0.31698E-03   -0.97556E-04 47960   0.528E-02    0.150E-01
DAV:  14    -0.383742147755E+03   -0.99730E-04   -0.47382E-04 42696   0.555E-02    0.118E-01
DAV:  15    -0.383742135682E+03    0.12073E-04   -0.14898E-04 38256   0.393E-02    0.611E-02
DAV:  16    -0.383742140242E+03   -0.45608E-05   -0.48806E-05 34512   0.193E-02
  19 F= -.38374214E+03 E0= -.38373453E+03  d E =0.391165E+00  mag=    46.0000
       N       E                     dE             d eps       ncg     rms          rms(c)
DAV:   1    -0.383447208648E+03    0.29493E+00   -0.77109E+01 41032   0.260E+01    0.382E+00
DAV:   2    -0.384192037156E+03   -0.74483E+00   -0.72772E+00 36968   0.463E+00    0.735E+00
DAV:   3    -0.384186004587E+03    0.60326E-02   -0.10715E+00 50344   0.185E+00    0.499E+00
DAV:   4    -0.384171400299E+03    0.14604E-01   -0.16432E-01 48832   0.997E-01    0.202E+00
DAV:   5    -0.384163138535E+03    0.82618E-02   -0.32556E-02 48696   0.596E-01    0.117E+00
DAV:   6    -0.384160015087E+03    0.31234E-02   -0.19287E-02 47312   0.442E-01    0.101E+00
DAV:   7    -0.384159384740E+03    0.63035E-03   -0.12238E-02 46536   0.278E-01    0.956E-01
DAV:   8    -0.384157878571E+03    0.15062E-02   -0.84800E-03 46408   0.220E-01    0.468E-01
DAV:   9    -0.384158279802E+03   -0.40123E-03   -0.38721E-03 45624   0.190E-01    0.517E-01
DAV:  10    -0.384157845239E+03    0.43456E-03   -0.18439E-03 47656   0.130E-01    0.134E-01
DAV:  11    -0.384157943198E+03   -0.97959E-04   -0.42986E-04 48656   0.551E-02    0.151E-01
DAV:  12    -0.384157901515E+03    0.41683E-04   -0.13633E-04 39120   0.395E-02    0.559E-02
DAV:  13    -0.384157904781E+03   -0.32662E-05   -0.73973E-05 39144   0.217E-02
  20 F= -.38415790E+03 E0= -.38415044E+03  d E =-.415765E+00  mag=    46.0000
       N       E                     dE             d eps       ncg     rms          rms(c)
DAV:   1    -0.384181778754E+03   -0.23877E-01   -0.38249E+00 39096   0.491E+00    0.595E-01
DAV:   2    -0.384200917177E+03   -0.19138E-01   -0.19532E-01 37408   0.834E-01    0.131E+00
DAV:   3    -0.384199955589E+03    0.96159E-03   -0.21216E-02 50768   0.301E-01    0.864E-01
DAV:   4    -0.384199619163E+03    0.33643E-03   -0.21163E-03 44152   0.153E-01    0.487E-01
DAV:   5    -0.384199344112E+03    0.27505E-03   -0.19941E-03 49720   0.101E-01    0.265E-01
DAV:   6    -0.384199559940E+03   -0.21583E-03   -0.11592E-03 42360   0.802E-02    0.487E-01
DAV:   7    -0.384199217683E+03    0.34226E-03   -0.61633E-04 42624   0.678E-02    0.229E-01
DAV:   8    -0.384199237341E+03   -0.19659E-04   -0.35342E-04 46856   0.375E-02    0.875E-02
DAV:   9    -0.384199262139E+03   -0.24798E-04   -0.71989E-05 36360   0.263E-02    0.365E-02
DAV:  10    -0.384199266272E+03   -0.41325E-05   -0.29442E-05 29952   0.146E-02
  21 F= -.38419927E+03 E0= -.38419191E+03  d E =-.413615E-01  mag=    46.0000
       N       E                     dE             d eps       ncg     rms          rms(c)
DAV:   1    -0.384105561587E+03    0.93701E-01   -0.32275E+01 39080   0.137E+01    0.153E+00
DAV:   2    -0.384243082669E+03   -0.13752E+00   -0.14504E+00 37608   0.231E+00    0.224E+00
DAV:   3    -0.384249420503E+03   -0.63378E-02   -0.17418E-01 50168   0.749E-01    0.276E+00
DAV:   4    -0.384238171561E+03    0.11249E-01   -0.30487E-02 46664   0.466E-01    0.104E+00
DAV:   5    -0.384237046293E+03    0.11253E-02   -0.65606E-03 48856   0.264E-01    0.597E-01
DAV:   6    -0.384237089715E+03   -0.43423E-04   -0.43035E-03 41872   0.174E-01    0.670E-01
DAV:   7    -0.384236321486E+03    0.76823E-03   -0.33782E-03 44920   0.161E-01    0.426E-01
DAV:   8    -0.384236159967E+03    0.16152E-03   -0.13001E-03 47248   0.981E-02    0.173E-01
DAV:   9    -0.384236179532E+03   -0.19565E-04   -0.31104E-04 47336   0.508E-02    0.803E-02
DAV:  10    -0.384236206550E+03   -0.27019E-04   -0.21761E-04 43840   0.235E-02    0.673E-02
DAV:  11    -0.384236217683E+03   -0.11133E-04   -0.45072E-05 31728   0.172E-02    0.821E-02
DAV:  12    -0.384236204329E+03    0.13354E-04   -0.16432E-05 28424   0.147E-02    0.309E-02
DAV:  13    -0.384236207596E+03   -0.32669E-05   -0.25181E-05 26736   0.124E-02
  22 F= -.38423621E+03 E0= -.38422907E+03  d E =-.369413E-01  mag=    46.0000
       N       E                     dE             d eps       ncg     rms          rms(c)
DAV:   1    -0.384237907042E+03   -0.17027E-02   -0.12882E+00 39592   0.308E+00    0.337E-01
DAV:   2    -0.384244655368E+03   -0.67483E-02   -0.64438E-02 37104   0.529E-01    0.915E-01
DAV:   3    -0.384243633484E+03    0.10219E-02   -0.55616E-03 46368   0.188E-01    0.307E-01
DAV:   4    -0.384243895518E+03   -0.26203E-03   -0.58426E-04 42976   0.664E-02    0.266E-01
DAV:   5    -0.384243781495E+03    0.11402E-03   -0.41463E-04 45184   0.443E-02    0.130E-01
DAV:   6    -0.384243847312E+03   -0.65817E-04   -0.35436E-04 41288   0.429E-02    0.250E-01
DAV:   7    -0.384243766792E+03    0.80520E-04   -0.13112E-04 40224   0.353E-02    0.158E-01
DAV:   8    -0.384243749748E+03    0.17044E-04   -0.67414E-05 34072   0.223E-02    0.421E-02
DAV:   9    -0.384243763061E+03   -0.13313E-04   -0.23331E-05 26936   0.151E-02    0.198E-02
DAV:  10    -0.384243764439E+03   -0.13784E-05   -0.72882E-06 20752   0.777E-03
  23 F= -.38424376E+03 E0= -.38423658E+03  d E =-.755684E-02  mag=    46.0000
       N       E                     dE             d eps       ncg     rms          rms(c)
DAV:   1    -0.383525334572E+03    0.71843E+00   -0.20300E+02 39320   0.353E+01    0.331E+00
DAV:   2    -0.384335396181E+03   -0.81006E+00   -0.81866E+00 36632   0.592E+00    0.536E+00
DAV:   3    -0.384321427483E+03    0.13969E-01   -0.85296E-01 45992   0.174E+00    0.498E+00
DAV:   4    -0.384297694915E+03    0.23733E-01   -0.17417E-01 48880   0.945E-01    0.160E+00
DAV:   5    -0.384294330094E+03    0.33648E-02   -0.24566E-02 41784   0.516E-01    0.107E+00
DAV:   6    -0.384293162520E+03    0.11676E-02   -0.35965E-02 53392   0.497E-01    0.172E+00
DAV:   7    -0.384288982015E+03    0.41805E-02   -0.16092E-02 45304   0.328E-01    0.879E-01
DAV:   8    -0.384287528202E+03    0.14538E-02   -0.90450E-03 46552   0.270E-01    0.754E-01
DAV:   9    -0.384286961611E+03    0.56659E-03   -0.44737E-03 46920   0.173E-01    0.199E-01
DAV:  10    -0.384287230074E+03   -0.26846E-03   -0.89896E-04 43656   0.873E-02    0.278E-01
DAV:  11    -0.384287135335E+03    0.94740E-04   -0.37177E-04 47280   0.581E-02    0.907E-02
DAV:  12    -0.384287160964E+03   -0.25630E-04   -0.11824E-04 40392   0.326E-02    0.474E-02
DAV:  13    -0.384287164954E+03   -0.39900E-05   -0.32661E-05 33008   0.161E-02
  24 F= -.38428716E+03 E0= -.38427991E+03  d E =-.434005E-01  mag=    46.0000
       N       E                     dE             d eps       ncg     rms          rms(c)
DAV:   1    -0.380649324872E+03    0.36378E+01   -0.31128E+02 39936   0.541E+01    0.751E+00
DAV:   2    -0.384051018459E+03   -0.34017E+01   -0.34117E+01 36792   0.102E+01    0.842E+00
DAV:   3    -0.384172891814E+03   -0.12187E+00   -0.25238E+00 52376   0.306E+00    0.749E+00
DAV:   4    -0.384065672431E+03    0.10722E+00   -0.80305E-01 48528   0.194E+00    0.297E+00
DAV:   5    -0.384062636799E+03    0.30356E-02   -0.10016E-01 50704   0.902E-01    0.205E+00
DAV:   6    -0.384056373030E+03    0.62638E-02   -0.45951E-02 44968   0.587E-01    0.161E+00
DAV:   7    -0.384051151976E+03    0.52211E-02   -0.28025E-02 46536   0.497E-01    0.111E+00
DAV:   8    -0.384051077338E+03    0.74637E-04   -0.16959E-02 45424   0.313E-01    0.941E-01
DAV:   9    -0.384050165670E+03    0.91167E-03   -0.93849E-03 48176   0.257E-01    0.477E-01
DAV:  10    -0.384050447692E+03   -0.28202E-03   -0.30141E-03 48656   0.139E-01    0.442E-01
DAV:  11    -0.384050146848E+03    0.30084E-03   -0.93557E-04 49056   0.899E-02    0.143E-01
DAV:  12    -0.384050247525E+03   -0.10068E-03   -0.47792E-04 43880   0.492E-02    0.202E-01
DAV:  13    -0.384050183680E+03    0.63845E-04   -0.23892E-04 42072   0.448E-02    0.105E-01
DAV:  14    -0.384050191108E+03   -0.74279E-05   -0.10908E-04 38152   0.253E-02    0.618E-02
DAV:  15    -0.384050185500E+03    0.56079E-05   -0.45032E-05 31672   0.180E-02
  25 F= -.38405019E+03 E0= -.38404280E+03  d E =0.236979E+00  mag=    46.0000
       N       E                     dE             d eps       ncg     rms          rms(c)
DAV:   1    -0.383203104924E+03    0.84709E+00   -0.98700E+01 40840   0.346E+01    0.492E+00
DAV:   2    -0.384352132155E+03   -0.11490E+01   -0.11027E+01 37392   0.616E+00    0.555E+00
DAV:   3    -0.384424336535E+03   -0.72204E-01   -0.10485E+00 49584   0.197E+00    0.739E+00
DAV:   4    -0.384360829454E+03    0.63507E-01   -0.48816E-01 46264   0.125E+00    0.199E+00
DAV:   5    -0.384376935515E+03   -0.16106E-01   -0.99995E-02 46576   0.680E-01    0.288E+00
DAV:   6    -0.384365156044E+03    0.11779E-01   -0.60491E-02 45392   0.541E-01    0.139E+00
DAV:   7    -0.384365641056E+03   -0.48501E-03   -0.31482E-02 50184   0.417E-01    0.157E+00
DAV:   8    -0.384362684721E+03    0.29563E-02   -0.22629E-02 43992   0.359E-01    0.678E-01
DAV:   9    -0.384362936833E+03   -0.25211E-03   -0.69498E-03 44216   0.249E-01    0.312E-01
DAV:  10    -0.384363052742E+03   -0.11591E-03   -0.15177E-03 48832   0.107E-01    0.232E-01
DAV:  11    -0.384362998504E+03    0.54237E-04   -0.57568E-04 47928   0.589E-02    0.139E-01
DAV:  12    -0.384362970369E+03    0.28136E-04   -0.14015E-04 43128   0.327E-02    0.790E-02
DAV:  13    -0.384362963985E+03    0.63833E-05   -0.64348E-05 35896   0.253E-02
  26 F= -.38436296E+03 E0= -.38435567E+03  d E =-.312778E+00  mag=    46.0000
       N       E                     dE             d eps       ncg     rms          rms(c)
DAV:   1    -0.384333813172E+03    0.29157E-01   -0.50679E+00 40776   0.729E+00    0.959E-01
DAV:   2    -0.384380067961E+03   -0.46255E-01   -0.43150E-01 37256   0.126E+00    0.232E+00
DAV:   3    -0.384374512467E+03    0.55555E-02   -0.63741E-02 46904   0.513E-01    0.110E+00
DAV:   4    -0.384375640817E+03   -0.11283E-02   -0.37101E-03 42160   0.204E-01    0.573E-01
DAV:   5    -0.384375394352E+03    0.24647E-03   -0.51103E-03 51344   0.143E-01    0.578E-01
DAV:   6    -0.384375592754E+03   -0.19840E-03   -0.95312E-04 40880   0.880E-02    0.663E-01
DAV:   7    -0.384374913370E+03    0.67938E-03   -0.11013E-03 49312   0.896E-02    0.153E-01
DAV:   8    -0.384375161975E+03   -0.24860E-03   -0.52246E-04 41904   0.564E-02    0.172E-01
DAV:   9    -0.384375169129E+03   -0.71539E-05   -0.18044E-04 37176   0.361E-02    0.180E-01
DAV:  10    -0.384375132257E+03    0.36872E-04   -0.61801E-05 31824   0.222E-02    0.964E-02
DAV:  11    -0.384375133840E+03   -0.15834E-05   -0.28896E-05 25232   0.124E-02
  27 F= -.38437513E+03 E0= -.38436778E+03  d E =-.121699E-01  mag=    46.0000
       N       E                     dE             d eps       ncg     rms          rms(c)
DAV:   1    -0.384325943826E+03    0.49188E-01   -0.10041E+01 39792   0.839E+00    0.102E+00
DAV:   2    -0.384387719895E+03   -0.61776E-01   -0.59426E-01 37320   0.148E+00    0.305E+00
DAV:   3    -0.384374354102E+03    0.13366E-01   -0.71452E-02 46880   0.578E-01    0.628E-01
DAV:   4    -0.384378991259E+03   -0.46372E-02   -0.12182E-02 46720   0.245E-01    0.140E+00
DAV:   5    -0.384376483558E+03    0.25077E-02   -0.37146E-03 43600   0.205E-01    0.652E-01
DAV:   6    -0.384377222955E+03   -0.73940E-03   -0.76110E-03 52128   0.165E-01    0.896E-01
DAV:   7    -0.384376967260E+03    0.25569E-03   -0.20677E-03 41880   0.146E-01    0.889E-01
DAV:   8    -0.384375993809E+03    0.97345E-03   -0.16387E-03 46288   0.942E-02    0.474E-01
DAV:   9    -0.384376051996E+03   -0.58187E-04   -0.88089E-04 47664   0.486E-02    0.866E-02
DAV:  10    -0.384376246063E+03   -0.19407E-03   -0.28505E-04 36216   0.370E-02    0.150E-01
DAV:  11    -0.384376257826E+03   -0.11763E-04   -0.50200E-05 31648   0.198E-02    0.181E-01
DAV:  12    -0.384376224736E+03    0.33090E-04   -0.19543E-05 26432   0.141E-02    0.125E-01
DAV:  13    -0.384376216922E+03    0.78143E-05   -0.20137E-05 22208   0.785E-03
  28 F= -.38437622E+03 E0= -.38436878E+03  d E =-.108308E-02  mag=    46.0000
       N       E                     dE             d eps       ncg     rms          rms(c)
DAV:   1    -0.384360178240E+03    0.16046E-01   -0.50617E+00 38992   0.539E+00    0.476E-01
DAV:   2    -0.384378031096E+03   -0.17853E-01   -0.18093E-01 38880   0.878E-01    0.744E-01
DAV:   3    -0.384378634801E+03   -0.60371E-03   -0.14026E-02 51120   0.243E-01    0.110E+00
DAV:   4    -0.384377149417E+03    0.14854E-02   -0.26186E-03 43488   0.164E-01    0.351E-01
DAV:   5    -0.384377349415E+03   -0.20000E-03   -0.14658E-03 44304   0.707E-02    0.207E-01
DAV:   6    -0.384377259346E+03    0.90070E-04   -0.28260E-04 42648   0.563E-02    0.222E-01
DAV:   7    -0.384377161787E+03    0.97558E-04   -0.45569E-04 46224   0.537E-02    0.109E-01
DAV:   8    -0.384377185187E+03   -0.23400E-04   -0.14955E-04 46128   0.358E-02    0.136E-01
DAV:   9    -0.384377158581E+03    0.26606E-04   -0.43911E-05 32072   0.210E-02    0.523E-02
DAV:  10    -0.384377166659E+03   -0.80784E-05   -0.37136E-05 25432   0.131E-02
  29 F= -.38437717E+03 E0= -.38436984E+03  d E =-.949738E-03  mag=    46.0000
       N       E                     dE             d eps       ncg     rms          rms(c)
DAV:   1    -0.384318507455E+03    0.58651E-01   -0.16089E+01 39656   0.106E+01    0.911E-01
DAV:   2    -0.384380633828E+03   -0.62126E-01   -0.62307E-01 37480   0.171E+00    0.698E-01
DAV:   3    -0.384382986095E+03   -0.23523E-02   -0.25843E-02 49984   0.347E-01    0.133E+00
DAV:   4    -0.384380404572E+03    0.25815E-02   -0.92973E-03 44320   0.218E-01    0.416E-01
DAV:   5    -0.384380898679E+03   -0.49411E-03   -0.27184E-03 44376   0.123E-01    0.416E-01
DAV:   6    -0.384380445822E+03    0.45286E-03   -0.80005E-04 42432   0.101E-01    0.220E-01
DAV:   7    -0.384380397599E+03    0.48223E-04   -0.12152E-03 47752   0.896E-02    0.251E-01
DAV:   8    -0.384380374267E+03    0.23332E-04   -0.45377E-04 44648   0.541E-02    0.227E-01
DAV:   9    -0.384380289122E+03    0.85145E-04   -0.24675E-04 41448   0.398E-02    0.431E-02
DAV:  10    -0.384380335909E+03   -0.46787E-04   -0.10876E-04 38600   0.206E-02    0.998E-02
DAV:  11    -0.384380321832E+03    0.14077E-04   -0.26441E-05 27664   0.175E-02    0.294E-02
DAV:  12    -0.384380325756E+03   -0.39233E-05   -0.14810E-05 23264   0.772E-03
  30 F= -.38438033E+03 E0= -.38437302E+03  d E =-.315910E-02  mag=    46.0000
       N       E                     dE             d eps       ncg     rms          rms(c)
DAV:   1    -0.383748066653E+03    0.63226E+00   -0.16374E+02 40176   0.339E+01    0.305E+00
DAV:   2    -0.384408623928E+03   -0.66056E+00   -0.65195E+00 36616   0.562E+00    0.396E+00
DAV:   3    -0.384426504914E+03   -0.17881E-01   -0.63187E-01 47768   0.153E+00    0.569E+00
DAV:   4    -0.384386739366E+03    0.39766E-01   -0.17452E-01 45552   0.936E-01    0.155E+00
DAV:   5    -0.384391781276E+03   -0.50419E-02   -0.33309E-02 41696   0.403E-01    0.124E+00
DAV:   6    -0.384388462136E+03    0.33191E-02   -0.13376E-02 49280   0.363E-01    0.101E+00
DAV:   7    -0.384387248254E+03    0.12139E-02   -0.12952E-02 45544   0.272E-01    0.800E-01
DAV:   8    -0.384385955039E+03    0.12932E-02   -0.46633E-03 44032   0.244E-01    0.316E-01
DAV:   9    -0.384386190405E+03   -0.23537E-03   -0.30562E-03 45800   0.137E-01    0.497E-01
DAV:  10    -0.384385854837E+03    0.33557E-03   -0.14081E-03 45432   0.983E-02    0.119E-01
DAV:  11    -0.384385987517E+03   -0.13268E-03   -0.43503E-04 42408   0.501E-02    0.166E-01
DAV:  12    -0.384385949695E+03    0.37822E-04   -0.10115E-04 37888   0.288E-02    0.465E-02
DAV:  13    -0.384385962772E+03   -0.13077E-04   -0.52939E-05 33696   0.139E-02    0.716E-02
DAV:  14    -0.384385954664E+03    0.81080E-05   -0.14231E-05 27344   0.132E-02
  31 F= -.38438595E+03 E0= -.38437877E+03  d E =-.562891E-02  mag=    46.0000
       N       E                     dE             d eps       ncg     rms          rms(c)
DAV:   1    -0.381099381662E+03    0.32866E+01   -0.29194E+02 40848   0.543E+01    0.768E+00
DAV:   2    -0.383937337080E+03   -0.28380E+01   -0.27116E+01 38376   0.959E+00    0.818E+00
DAV:   3    -0.384043511338E+03   -0.10617E+00   -0.14808E+00 49520   0.251E+00    0.631E+00
DAV:   4    -0.384005261768E+03    0.38250E-01   -0.97935E-01 48352   0.179E+00    0.479E+00
DAV:   5    -0.383986801223E+03    0.18461E-01   -0.12604E-01 48208   0.964E-01    0.274E+00
DAV:   6    -0.383974629467E+03    0.12172E-01   -0.61865E-02 44704   0.713E-01    0.175E+00
DAV:   7    -0.383968749164E+03    0.58803E-02   -0.22314E-02 47440   0.464E-01    0.111E+00
DAV:   8    -0.383965739365E+03    0.30098E-02   -0.23718E-02 44768   0.447E-01    0.105E+00
DAV:   9    -0.383965287386E+03    0.45198E-03   -0.15151E-02 49392   0.350E-01    0.948E-01
DAV:  10    -0.383964166162E+03    0.11212E-02   -0.53340E-03 48000   0.196E-01    0.263E-01
DAV:  11    -0.383964380892E+03   -0.21473E-03   -0.14467E-03 46992   0.857E-02    0.224E-01
DAV:  12    -0.383964258899E+03    0.12199E-03   -0.54617E-04 48240   0.607E-02    0.134E-01
DAV:  13    -0.383964186404E+03    0.72495E-04   -0.19785E-04 45320   0.381E-02    0.109E-01
DAV:  14    -0.383964147916E+03    0.38488E-04   -0.18286E-04 41776   0.381E-02    0.820E-02
DAV:  15    -0.383964130129E+03    0.17787E-04   -0.96496E-05 38616   0.280E-02    0.576E-02
DAV:  16    -0.383964121120E+03    0.90086E-05   -0.26081E-05 32016   0.142E-02
  32 F= -.38396412E+03 E0= -.38395674E+03  d E =0.421834E+00  mag=    46.0000
       N       E                     dE             d eps       ncg     rms          rms(c)
DAV:   1    -0.383299115650E+03    0.66501E+00   -0.96523E+01 44464   0.325E+01    0.491E+00
DAV:   2    -0.384381625969E+03   -0.10825E+01   -0.99483E+00 38096   0.545E+00    0.423E+00
DAV:   3    -0.384409414539E+03   -0.27789E-01   -0.36986E-01 47040   0.147E+00    0.231E+00
DAV:   4    -0.384413589798E+03   -0.41753E-02   -0.81485E-02 48440   0.743E-01    0.250E+00
DAV:   5    -0.384405968586E+03    0.76212E-02   -0.87087E-02 44328   0.544E-01    0.168E+00
DAV:   6    -0.384403910573E+03    0.20580E-02   -0.12560E-02 43952   0.380E-01    0.122E+00
DAV:   7    -0.384401916596E+03    0.19940E-02   -0.17268E-02 44120   0.346E-01    0.699E-01
DAV:   8    -0.384403074336E+03   -0.11577E-02   -0.66835E-03 43968   0.208E-01    0.976E-01
DAV:   9    -0.384401676779E+03    0.13976E-02   -0.27567E-03 46920   0.145E-01    0.539E-01
DAV:  10    -0.384401597084E+03    0.79695E-04   -0.27122E-03 50760   0.852E-02    0.197E-01
DAV:  11    -0.384401731937E+03   -0.13485E-03   -0.33444E-04 39672   0.592E-02    0.113E-01
DAV:  12    -0.384401701684E+03    0.30253E-04   -0.14104E-04 43512   0.328E-02    0.906E-02
DAV:  13    -0.384401681879E+03    0.19805E-04   -0.52642E-05 38320   0.215E-02    0.617E-02
DAV:  14    -0.384401672000E+03    0.98794E-05   -0.27273E-05 29472   0.128E-02
  33 F= -.38440167E+03 E0= -.38439439E+03  d E =-.437551E+00  mag=    46.0000
       N       E                     dE             d eps       ncg     rms          rms(c)
DAV:   1    -0.384291675862E+03    0.11001E+00   -0.13272E+01 42824   0.128E+01    0.165E+00
DAV:   2    -0.384426904245E+03   -0.13523E+00   -0.12730E+00 38248   0.209E+00    0.122E+00
DAV:   3    -0.384433953921E+03   -0.70497E-02   -0.61720E-02 47208   0.509E-01    0.133E+00
DAV:   4    -0.384433127387E+03    0.82653E-03   -0.31332E-02 44896   0.333E-01    0.129E+00
DAV:   5    -0.384431920212E+03    0.12072E-02   -0.47694E-03 44848   0.224E-01    0.637E-01
DAV:   6    -0.384431330516E+03    0.58970E-03   -0.19568E-03 45008   0.147E-01    0.313E-01
DAV:   7    -0.384431141156E+03    0.18936E-03   -0.19585E-03 45472   0.122E-01    0.317E-01
DAV:   8    -0.384430934759E+03    0.20640E-03   -0.15372E-03 43408   0.113E-01    0.223E-01
DAV:   9    -0.384430847953E+03    0.86805E-04   -0.50524E-04 49064   0.711E-02    0.618E-02
DAV:  10    -0.384430857522E+03   -0.95692E-05   -0.17139E-04 45104   0.330E-02    0.940E-02
DAV:  11    -0.384430833356E+03    0.24166E-04   -0.87979E-05 34600   0.259E-02    0.557E-02
DAV:  12    -0.384430826272E+03    0.70840E-05   -0.34291E-05 31352   0.171E-02
  34 F= -.38443083E+03 E0= -.38442358E+03  d E =-.291543E-01  mag=    46.0000
       N       E                     dE             d eps       ncg     rms          rms(c)
DAV:   1    -0.384430589986E+03    0.24337E-03   -0.15115E+00 40432   0.334E+00    0.349E-01
DAV:   2    -0.384437927333E+03   -0.73373E-02   -0.71630E-02 38736   0.539E-01    0.376E-01
DAV:   3    -0.384438778326E+03   -0.85099E-03   -0.77044E-03 51576   0.171E-01    0.892E-01
DAV:   4    -0.384437733317E+03    0.10450E-02   -0.13050E-03 41488   0.110E-01    0.339E-01
DAV:   5    -0.384437820060E+03   -0.86743E-04   -0.96993E-04 45856   0.468E-02    0.168E-01
DAV:   6    -0.384437862751E+03   -0.42690E-04   -0.22887E-04 39632   0.450E-02    0.172E-01
DAV:   7    -0.384437813603E+03    0.49147E-04   -0.23343E-04 42464   0.361E-02    0.889E-02
DAV:   8    -0.384437826361E+03   -0.12758E-04   -0.98426E-05 40160   0.306E-02    0.104E-01
DAV:   9    -0.384437811878E+03    0.14484E-04   -0.42149E-05 35040   0.216E-02    0.572E-02
DAV:  10    -0.384437811749E+03    0.12881E-06   -0.24180E-05 25040   0.119E-02
  35 F= -.38443781E+03 E0= -.38443062E+03  d E =-.698548E-02  mag=    46.0000
       N       E                     dE             d eps       ncg     rms          rms(c)
DAV:   1    -0.384421577485E+03    0.16234E-01   -0.47697E+00 40832   0.576E+00    0.581E-01
DAV:   2    -0.384443735839E+03   -0.22158E-01   -0.21757E-01 38400   0.930E-01    0.772E-01
DAV:   3    -0.384445546981E+03   -0.18111E-02   -0.17308E-02 51192   0.272E-01    0.141E+00
DAV:   4    -0.384442879128E+03    0.26679E-02   -0.28425E-03 43448   0.204E-01    0.308E-01
DAV:   5    -0.384443625620E+03   -0.74649E-03   -0.30494E-03 43568   0.827E-02    0.478E-01
DAV:   6    -0.384443501478E+03    0.12414E-03   -0.37815E-04 41760   0.678E-02    0.466E-01
DAV:   7    -0.384443209165E+03    0.29231E-03   -0.21221E-03 50376   0.844E-02    0.238E-01
DAV:   8    -0.384443416654E+03   -0.20749E-03   -0.33952E-04 42400   0.476E-02    0.383E-01
DAV:   9    -0.384443244055E+03    0.17260E-03   -0.84198E-05 41384   0.314E-02    0.262E-01
DAV:  10    -0.384443211044E+03    0.33011E-04   -0.85015E-05 35968   0.209E-02    0.111E-01
DAV:  11    -0.384443236443E+03   -0.25399E-04   -0.67150E-05 26176   0.147E-02    0.198E-02
DAV:  12    -0.384443253457E+03   -0.17013E-04   -0.18993E-05 24208   0.900E-03    0.505E-02
DAV:  13    -0.384443252101E+03    0.13560E-05   -0.28143E-06 20880   0.561E-03
  36 F= -.38444325E+03 E0= -.38443607E+03  d E =-.544035E-02  mag=    46.0000
       N       E                     dE             d eps       ncg     rms          rms(c)
DAV:   1    -0.384436260594E+03    0.69929E-02   -0.17418E+00 38592   0.330E+00    0.292E-01
DAV:   2    -0.384442585222E+03   -0.63246E-02   -0.64285E-02 38288   0.538E-01    0.421E-01
DAV:   3    -0.384442939709E+03   -0.35449E-03   -0.45877E-03 52336   0.145E-01    0.695E-01
DAV:   4    -0.384442282731E+03    0.65698E-03   -0.78719E-04 42576   0.105E-01    0.182E-01
DAV:   5    -0.384442419411E+03   -0.13668E-03   -0.70715E-04 41704   0.400E-02    0.197E-01
DAV:   6    -0.384442407902E+03    0.11509E-04   -0.13137E-04 39096   0.359E-02    0.231E-01
DAV:   7    -0.384442325440E+03    0.82462E-04   -0.29248E-04 43752   0.374E-02    0.802E-02
DAV:   8    -0.384442371962E+03   -0.46522E-04   -0.13018E-04 37776   0.260E-02    0.153E-01
DAV:   9    -0.384442343016E+03    0.28947E-04   -0.27905E-05 28680   0.185E-02    0.910E-02
DAV:  10    -0.384442338703E+03    0.43124E-05   -0.24111E-05 22520   0.930E-03
  37 F= -.38444234E+03 E0= -.38443512E+03  d E =0.913397E-03  mag=    46.0000
       N       E                     dE             d eps       ncg     rms          rms(c)
DAV:   1    -0.384428937517E+03    0.13405E-01   -0.27943E+00 39440   0.472E+00    0.434E-01
DAV:   2    -0.384441684816E+03   -0.12747E-01   -0.12323E-01 37064   0.784E-01    0.972E-01
DAV:   3    -0.384441039723E+03    0.64509E-03   -0.12820E-02 48280   0.242E-01    0.694E-01
DAV:   4    -0.384440864322E+03    0.17540E-03   -0.11420E-03 43328   0.118E-01    0.326E-01
DAV:   5    -0.384440790260E+03    0.74062E-04   -0.84711E-04 47384   0.541E-02    0.138E-01
DAV:   6    -0.384440888973E+03   -0.98713E-04   -0.42646E-04 39656   0.455E-02    0.290E-01
DAV:   7    -0.384440767763E+03    0.12121E-03   -0.20855E-04 40784   0.413E-02    0.172E-01
DAV:   8    -0.384440759994E+03    0.77689E-05   -0.26474E-04 39952   0.343E-02    0.966E-02
DAV:   9    -0.384440781801E+03   -0.21807E-04   -0.59514E-05 34832   0.214E-02    0.110E-01
DAV:  10    -0.384440764375E+03    0.17426E-04   -0.19284E-05 26520   0.126E-02    0.434E-02
DAV:  11    -0.384440767622E+03   -0.32473E-05   -0.12675E-05 21712   0.749E-03
  38 F= -.38444077E+03 E0= -.38443353E+03  d E =0.157108E-02  mag=    46.0000
       N       E                     dE             d eps       ncg     rms          rms(c)
DAV:   1    -0.384391770108E+03    0.48994E-01   -0.12512E+01 40184   0.973E+00    0.835E-01
DAV:   2    -0.384441557049E+03   -0.49787E-01   -0.49161E-01 36616   0.157E+00    0.654E-01
DAV:   3    -0.384443212543E+03   -0.16555E-02   -0.21142E-02 47232   0.320E-01    0.111E+00
DAV:   4    -0.384441576746E+03    0.16358E-02   -0.94129E-03 46040   0.205E-01    0.504E-01
DAV:   5    -0.384441745768E+03   -0.16902E-03   -0.16839E-03 44120   0.110E-01    0.335E-01
DAV:   6    -0.384441469059E+03    0.27671E-03   -0.46897E-04 41264   0.761E-02    0.157E-01
DAV:   7    -0.384441442933E+03    0.26126E-04   -0.74591E-04 44416   0.766E-02    0.194E-01
DAV:   8    -0.384441401136E+03    0.41797E-04   -0.24795E-04 44120   0.460E-02    0.105E-01
DAV:   9    -0.384441397801E+03    0.33351E-05   -0.13102E-04 33728   0.225E-02    0.781E-02
DAV:  10    -0.384441398254E+03   -0.45291E-06   -0.40187E-05 27208   0.168E-02
  39 F= -.38444140E+03 E0= -.38443427E+03  d E =-.630632E-03  mag=    46.0000
       N       E                     dE             d eps       ncg     rms          rms(c)
DAV:   1    -0.382399816995E+03    0.20416E+01   -0.18942E+02 40944   0.436E+01    0.602E+00
DAV:   2    -0.384146441004E+03   -0.17466E+01   -0.16304E+01 37104   0.751E+00    0.665E+00
DAV:   3    -0.384292313361E+03   -0.14587E+00   -0.25123E+00 47808   0.279E+00    0.102E+01
DAV:   4    -0.384155895421E+03    0.13642E+00   -0.35428E-01 44632   0.144E+00    0.322E+00
DAV:   5    -0.384157313337E+03   -0.14179E-02   -0.91622E-02 48552   0.795E-01    0.177E+00
DAV:   6    -0.384164235091E+03   -0.69218E-02   -0.84293E-02 47072   0.692E-01    0.280E+00
DAV:   7    -0.384152899135E+03    0.11336E-01   -0.30881E-02 47480   0.498E-01    0.107E+00
DAV:   8    -0.384152925900E+03   -0.26765E-04   -0.12655E-02 43072   0.308E-01    0.632E-01
DAV:   9    -0.384153163479E+03   -0.23758E-03   -0.66587E-03 44896   0.216E-01    0.412E-01
DAV:  10    -0.384153558304E+03   -0.39483E-03   -0.38423E-03 50032   0.180E-01    0.716E-01
DAV:  11    -0.384152804346E+03    0.75396E-03   -0.18603E-03 45088   0.114E-01    0.241E-01
DAV:  12    -0.384152905178E+03   -0.10083E-03   -0.69875E-04 46984   0.689E-02    0.213E-01
DAV:  13    -0.384152871455E+03    0.33724E-04   -0.35869E-04 44032   0.424E-02    0.114E-01
DAV:  14    -0.384152861042E+03    0.10413E-04   -0.16316E-04 41312   0.351E-02    0.685E-02
DAV:  15    -0.384152857742E+03    0.33000E-05   -0.28869E-05 31840   0.157E-02
  40 F= -.38415286E+03 E0= -.38414487E+03  d E =0.288541E+00  mag=    46.0000
       N       E                     dE             d eps       ncg     rms          rms(c)
DAV:   1    -0.382536909809E+03    0.16160E+01   -0.15242E+02 44528   0.355E+01    0.793E+00
DAV:   2    -0.385379482122E+03   -0.28426E+01   -0.26079E+01 39000   0.821E+00    0.222E+01
DAV:   3    -0.384387043455E+03    0.99244E+00   -0.19574E+00 40504   0.416E+00    0.417E+00
DAV:   4    -0.384457194936E+03   -0.70151E-01   -0.28363E-01 45400   0.141E+00    0.285E+00
DAV:   5    -0.384436813886E+03    0.20381E-01   -0.96515E-02 49328   0.937E-01    0.176E+00
DAV:   6    -0.384435176931E+03    0.16370E-02   -0.59858E-02 48328   0.603E-01    0.164E+00
DAV:   7    -0.384433617065E+03    0.15599E-02   -0.26706E-02 43656   0.485E-01    0.137E+00
DAV:   8    -0.384432351734E+03    0.12653E-02   -0.16045E-02 44000   0.366E-01    0.122E+00
DAV:   9    -0.384431028396E+03    0.13233E-02   -0.64942E-03 43136   0.260E-01    0.468E-01
DAV:  10    -0.384431513671E+03   -0.48527E-03   -0.42477E-03 45872   0.184E-01    0.518E-01
DAV:  11    -0.384431607982E+03   -0.94311E-04   -0.47511E-03 45280   0.180E-01    0.541E-01
DAV:  12    -0.384431280180E+03    0.32780E-03   -0.99877E-04 42784   0.109E-01    0.442E-01
DAV:  13    -0.384431059784E+03    0.22040E-03   -0.72247E-04 46256   0.816E-02    0.158E-01
DAV:  14    -0.384431189060E+03   -0.12928E-03   -0.19690E-04 38784   0.411E-02    0.156E-01
DAV:  15    -0.384431140968E+03    0.48092E-04   -0.84341E-05 39120   0.292E-02    0.608E-02
DAV:  16    -0.384431153678E+03   -0.12711E-04   -0.77806E-05 38240   0.215E-02    0.943E-02
DAV:  17    -0.384431136343E+03    0.17336E-04   -0.21153E-05 29504   0.187E-02    0.360E-02
DAV:  18    -0.384431137083E+03   -0.74002E-06   -0.24938E-05 28576   0.111E-02
  41 F= -.38443114E+03 E0= -.38442407E+03  d E =-.278279E+00  mag=    46.0000
       N       E                     dE             d eps       ncg     rms          rms(c)
DAV:   1    -0.384433715575E+03   -0.25792E-02   -0.21076E+00 41808   0.417E+00    0.568E-01
DAV:   2    -0.384450126987E+03   -0.16411E-01   -0.14763E-01 38128   0.664E-01    0.343E-01
DAV:   3    -0.384451205958E+03   -0.10790E-02   -0.63412E-03 48456   0.147E-01    0.723E-01
DAV:   4    -0.384450428209E+03    0.77775E-03   -0.21734E-03 41952   0.108E-01    0.135E-01
DAV:   5    -0.384450663298E+03   -0.23509E-03   -0.35240E-04 40808   0.422E-02    0.294E-01
DAV:   6    -0.384450537978E+03    0.12532E-03   -0.20477E-04 39912   0.557E-02    0.141E-01
DAV:   7    -0.384450612041E+03   -0.74063E-04   -0.42846E-04 42584   0.460E-02    0.257E-01
DAV:   8    -0.384450564259E+03    0.47782E-04   -0.12382E-04 38976   0.326E-02    0.211E-01
DAV:   9    -0.384450519846E+03    0.44413E-04   -0.67681E-05 32776   0.165E-02    0.104E-01
DAV:  10    -0.384450527048E+03   -0.72019E-05   -0.32315E-05 24256   0.107E-02
  42 F= -.38445053E+03 E0= -.38444348E+03  d E =-.193900E-01  mag=    46.0000
       N       E                     dE             d eps       ncg     rms          rms(c)
DAV:   1    -0.384354986264E+03    0.95534E-01   -0.16404E+01 40512   0.110E+01    0.140E+00
DAV:   2    -0.384458816527E+03   -0.10383E+00   -0.97405E-01 38176   0.181E+00    0.125E+00
DAV:   3    -0.384471602186E+03   -0.12786E-01   -0.10745E-01 49704   0.572E-01    0.349E+00
DAV:   4    -0.384456555205E+03    0.15047E-01   -0.21536E-02 43792   0.404E-01    0.109E+00
DAV:   5    -0.384459198762E+03   -0.26436E-02   -0.12624E-02 47736   0.179E-01    0.613E-01
DAV:   6    -0.384460128452E+03   -0.92969E-03   -0.23616E-03 41736   0.134E-01    0.815E-01
DAV:   7    -0.384458998352E+03    0.11301E-02   -0.30075E-03 48440   0.133E-01    0.325E-01
DAV:   8    -0.384459243700E+03   -0.24535E-03   -0.14149E-03 45888   0.991E-02    0.329E-01
DAV:   9    -0.384459223447E+03    0.20254E-04   -0.36168E-04 44184   0.605E-02    0.288E-01
DAV:  10    -0.384459119456E+03    0.10399E-03   -0.30241E-04 45120   0.459E-02    0.436E-02
DAV:  11    -0.384459172203E+03   -0.52748E-04   -0.78073E-05 37616   0.230E-02    0.386E-02
DAV:  12    -0.384459169039E+03    0.31644E-05   -0.97575E-06 27136   0.119E-02
  43 F= -.38445917E+03 E0= -.38445204E+03  d E =-.864199E-02  mag=    46.0000
       N       E                     dE             d eps       ncg     rms          rms(c)
DAV:   1    -0.384458575985E+03    0.59622E-03   -0.12154E-01 41960   0.128E+00    0.172E-01
DAV:   2    -0.384460107914E+03   -0.15319E-02   -0.13182E-02 37904   0.219E-01    0.488E-01
DAV:   3    -0.384459847412E+03    0.26050E-03   -0.19471E-03 42816   0.101E-01    0.195E-01
DAV:   4    -0.384459944477E+03   -0.97066E-04   -0.11477E-04 36864   0.341E-02    0.159E-01
DAV:   5    -0.384459904220E+03    0.40257E-04   -0.10578E-04 33280   0.240E-02    0.578E-02
DAV:   6    -0.384459930036E+03   -0.25815E-04   -0.47471E-05 27456   0.157E-02    0.110E-01
DAV:   7    -0.384459913440E+03    0.16596E-04   -0.18696E-05 25784   0.139E-02    0.632E-02
DAV:   8    -0.384459912118E+03    0.13224E-05   -0.21805E-05 23560   0.115E-02
  44 F= -.38445991E+03 E0= -.38445274E+03  d E =-.743079E-03  mag=    46.0000
       N       E                     dE             d eps       ncg     rms          rms(c)
DAV:   1    -0.384456541605E+03    0.33718E-02   -0.39847E-01 39328   0.163E+00    0.200E-01
DAV:   2    -0.384458904026E+03   -0.23624E-02   -0.21178E-02 38432   0.298E-01    0.766E-01
DAV:   3    -0.384458059807E+03    0.84422E-03   -0.26685E-03 43616   0.127E-01    0.118E-01
DAV:   4    -0.384458365149E+03   -0.30534E-03   -0.56449E-04 45144   0.429E-02    0.273E-01
DAV:   5    -0.384458301750E+03    0.63400E-04   -0.15387E-04 35032   0.354E-02    0.216E-01
DAV:   6    -0.384458237097E+03    0.64653E-04   -0.10248E-04 34144   0.271E-02    0.376E-02
DAV:   7    -0.384458302682E+03   -0.65586E-04   -0.14692E-04 38896   0.224E-02    0.181E-01
DAV:   8    -0.384458281104E+03    0.21578E-04   -0.43237E-05 29088   0.186E-02    0.169E-01
DAV:   9    -0.384458259918E+03    0.21186E-04   -0.12390E-05 22328   0.855E-03    0.123E-01
DAV:  10    -0.384458256765E+03    0.31529E-05   -0.12814E-05 20888   0.636E-03
  45 F= -.38445826E+03 E0= -.38445113E+03  d E =0.165535E-02  mag=    46.0000
       N       E                     dE             d eps       ncg     rms          rms(c)
DAV:   1    -0.384448888052E+03    0.93719E-02   -0.11409E+00 40376   0.317E+00    0.368E-01
DAV:   2    -0.384457230310E+03   -0.83423E-02   -0.73820E-02 37128   0.542E-01    0.976E-01
DAV:   3    -0.384456202678E+03    0.10276E-02   -0.57300E-03 45096   0.193E-01    0.414E-01
DAV:   4    -0.384456549280E+03   -0.34660E-03   -0.93426E-04 41296   0.883E-02    0.327E-01
DAV:   5    -0.384456383484E+03    0.16580E-03   -0.50419E-04 43072   0.601E-02    0.138E-01
DAV:   6    -0.384456463496E+03   -0.80012E-04   -0.30902E-04 41480   0.392E-02    0.258E-01
DAV:   7    -0.384456363418E+03    0.10008E-03   -0.12989E-04 38360   0.395E-02    0.104E-01
DAV:   8    -0.384456378326E+03   -0.14908E-04   -0.98464E-05 40816   0.251E-02    0.717E-02
DAV:   9    -0.384456389559E+03   -0.11233E-04   -0.33273E-05 27360   0.150E-02    0.899E-02
DAV:  10    -0.384456379436E+03    0.10122E-04   -0.16078E-05 23104   0.979E-03    0.486E-02
DAV:  11    -0.384456378934E+03    0.50190E-06   -0.69608E-06 19824   0.632E-03
  46 F= -.38445638E+03 E0= -.38444921E+03  d E =0.187783E-02  mag=    46.0000
       N       E                     dE             d eps       ncg     rms          rms(c)
DAV:   1    -0.384455102665E+03    0.12768E-02   -0.39764E-01 40224   0.175E+00    0.177E-01
DAV:   2    -0.384457219005E+03   -0.21163E-02   -0.18105E-02 37208   0.298E-01    0.696E-01
DAV:   3    -0.384456534851E+03    0.68415E-03   -0.21069E-03 39472   0.117E-01    0.989E-02
DAV:   4    -0.384456780615E+03   -0.24576E-03   -0.36480E-04 39800   0.366E-02    0.224E-01
DAV:   5    -0.384456737213E+03    0.43401E-04   -0.93695E-05 31776   0.301E-02    0.175E-01
DAV:   6    -0.384456695812E+03    0.41402E-04   -0.65810E-05 30528   0.197E-02    0.319E-02
DAV:   7    -0.384456724012E+03   -0.28200E-04   -0.52258E-05 28000   0.148E-02    0.100E-01
DAV:   8    -0.384456723188E+03    0.82362E-06   -0.23690E-05 25352   0.150E-02
  47 F= -.38445672E+03 E0= -.38444963E+03  d E =-.344254E-03  mag=    46.0000
       N       E                     dE             d eps       ncg     rms          rms(c)
DAV:   1    -0.384405775934E+03    0.50948E-01   -0.13038E+01 39968   0.103E+01    0.942E-01
DAV:   2    -0.384466108878E+03   -0.60333E-01   -0.57166E-01 36624   0.168E+00    0.180E+00
DAV:   3    -0.384466711957E+03   -0.60308E-03   -0.68240E-02 45352   0.513E-01    0.177E+00
DAV:   4    -0.384463934495E+03    0.27775E-02   -0.66632E-03 42872   0.272E-01    0.762E-01
DAV:   5    -0.384463665769E+03    0.26873E-03   -0.50512E-03 50808   0.125E-01    0.337E-01
DAV:   6    -0.384464367469E+03   -0.70170E-03   -0.98519E-04 40904   0.868E-02    0.717E-01
DAV:   7    -0.384463524894E+03    0.84257E-03   -0.58302E-04 42216   0.948E-02    0.253E-01
DAV:   8    -0.384463736813E+03   -0.21192E-03   -0.10551E-03 45232   0.697E-02    0.272E-01
DAV:   9    -0.384463813975E+03   -0.77162E-04   -0.29692E-04 38848   0.490E-02    0.332E-01
DAV:  10    -0.384463677313E+03    0.13666E-03   -0.13463E-04 35288   0.324E-02    0.195E-01
DAV:  11    -0.384463671911E+03    0.54012E-05   -0.87949E-05 35448   0.211E-02
  48 F= -.38446367E+03 E0= -.38445656E+03  d E =-.694872E-02  mag=    46.0000
       N       E                     dE             d eps       ncg     rms          rms(c)
DAV:   1    -0.384303890699E+03    0.15979E+00   -0.37475E+01 39424   0.177E+01    0.168E+00
DAV:   2    -0.384485434626E+03   -0.18154E+00   -0.17809E+00 36632   0.294E+00    0.230E+00
DAV:   3    -0.384498184965E+03   -0.12750E-01   -0.23245E-01 46984   0.864E-01    0.408E+00
DAV:   4    -0.384478213867E+03    0.19971E-01   -0.34737E-02 43384   0.552E-01    0.116E+00
DAV:   5    -0.384481737226E+03   -0.35234E-02   -0.16847E-02 47904   0.230E-01    0.750E-01
DAV:   6    -0.384482215878E+03   -0.47865E-03   -0.21227E-03 39992   0.153E-01    0.770E-01
DAV:   7    -0.384481171684E+03    0.10442E-02   -0.45922E-03 49960   0.154E-01    0.320E-01
DAV:   8    -0.384481698409E+03   -0.52672E-03   -0.17464E-03 43360   0.120E-01    0.587E-01
DAV:   9    -0.384481358543E+03    0.33987E-03   -0.54902E-04 42896   0.810E-02    0.441E-01
DAV:  10    -0.384481162981E+03    0.19556E-03   -0.52871E-04 48632   0.570E-02    0.535E-02
DAV:  11    -0.384481312349E+03   -0.14937E-03   -0.14957E-04 37616   0.291E-02    0.103E-01
DAV:  12    -0.384481302022E+03    0.10327E-04   -0.21271E-05 29832   0.178E-02    0.489E-02
DAV:  13    -0.384481301323E+03    0.69862E-06   -0.17791E-05 24328   0.106E-02
  49 F= -.38448130E+03 E0= -.38447406E+03  d E =-.176294E-01  mag=    46.0000
       N       E                     dE             d eps       ncg     rms          rms(c)
DAV:   1    -0.384411638667E+03    0.69663E-01   -0.17182E+01 39256   0.124E+01    0.134E+00
DAV:   2    -0.384517727797E+03   -0.10609E+00   -0.98415E-01 36800   0.217E+00    0.391E+00
DAV:   3    -0.384495412809E+03    0.22315E-01   -0.13240E-01 41464   0.836E-01    0.104E+00
DAV:   4    -0.384500891377E+03   -0.54786E-02   -0.17296E-02 48672   0.359E-01    0.129E+00
DAV:   5    -0.384498511760E+03    0.23796E-02   -0.49637E-03 41784   0.242E-01    0.479E-01
DAV:   6    -0.384499518003E+03   -0.10062E-02   -0.95387E-03 51272   0.164E-01    0.983E-01
DAV:   7    -0.384498905580E+03    0.61242E-03   -0.18508E-03 41336   0.138E-01    0.859E-01
DAV:   8    -0.384497976621E+03    0.92896E-03   -0.35092E-03 50856   0.111E-01    0.269E-01
DAV:   9    -0.384498404840E+03   -0.42822E-03   -0.94478E-04 40272   0.854E-02    0.252E-01
DAV:  10    -0.384498324401E+03    0.80439E-04   -0.41402E-04 42704   0.613E-02    0.151E-01
DAV:  11    -0.384498318772E+03    0.56289E-05   -0.10123E-04 38304   0.270E-02    0.675E-02
DAV:  12    -0.384498321910E+03   -0.31379E-05   -0.25183E-05 25984   0.109E-02
  50 F= -.38449832E+03 E0= -.38449099E+03  d E =-.170206E-01  mag=    46.0000
       N       E                     dE             d eps       ncg     rms          rms(c)
DAV:   1    -0.384463779144E+03    0.34540E-01   -0.69682E+00 40328   0.862E+00    0.907E-01
DAV:   2    -0.384512672689E+03   -0.48894E-01   -0.45040E-01 36768   0.145E+00    0.207E+00
DAV:   3    -0.384510381719E+03    0.22910E-02   -0.56703E-02 43280   0.496E-01    0.143E+00
DAV:   4    -0.384510018918E+03    0.36280E-03   -0.49379E-03 44688   0.242E-01    0.712E-01
DAV:   5    -0.384509634149E+03    0.38477E-03   -0.40898E-03 51424   0.128E-01    0.355E-01
DAV:   6    -0.384510259160E+03   -0.62501E-03   -0.11319E-03 40672   0.992E-02    0.692E-01
DAV:   7    -0.384509524667E+03    0.73449E-03   -0.50799E-04 41872   0.900E-02    0.265E-01
DAV:   8    -0.384509758015E+03   -0.23335E-03   -0.11117E-03 47968   0.673E-02    0.333E-01
DAV:   9    -0.384509791367E+03   -0.33353E-04   -0.26458E-04 39152   0.508E-02    0.339E-01
DAV:  10    -0.384509636983E+03    0.15438E-03   -0.18375E-04 34800   0.351E-02    0.143E-01
DAV:  11    -0.384509668249E+03   -0.31265E-04   -0.67658E-05 35264   0.191E-02    0.313E-02
DAV:  12    -0.384509687444E+03   -0.19196E-04   -0.16642E-05 24928   0.907E-03    0.417E-02
DAV:  13    -0.384509687329E+03    0.11476E-06   -0.44264E-06 22016   0.824E-03
  51 F= -.38450969E+03 E0= -.38450238E+03  d E =-.113654E-01  mag=    46.0000
       N       E                     dE             d eps       ncg     rms          rms(c)
DAV:   1    -0.384492905141E+03    0.16782E-01   -0.49271E+00 39504   0.646E+00    0.607E-01
DAV:   2    -0.384517149477E+03   -0.24244E-01   -0.23332E-01 36736   0.107E+00    0.100E+00
DAV:   3    -0.384518396911E+03   -0.12474E-02   -0.25797E-02 46896   0.324E-01    0.136E+00
DAV:   4    -0.384516227993E+03    0.21689E-02   -0.36241E-03 41776   0.195E-01    0.488E-01
DAV:   5    -0.384516470045E+03   -0.24205E-03   -0.24706E-03 51000   0.827E-02    0.341E-01
DAV:   6    -0.384516822839E+03   -0.35279E-03   -0.46784E-04 38200   0.601E-02    0.565E-01
DAV:   7    -0.384516298736E+03    0.52410E-03   -0.29140E-04 41136   0.638E-02    0.186E-01
DAV:   8    -0.384516469583E+03   -0.17085E-03   -0.48500E-04 44096   0.521E-02    0.239E-01
DAV:   9    -0.384516504923E+03   -0.35339E-04   -0.15898E-04 37240   0.355E-02    0.274E-01
DAV:  10    -0.384516436254E+03    0.68669E-04   -0.33332E-05 28656   0.186E-02    0.206E-01
DAV:  11    -0.384516414677E+03    0.21577E-04   -0.40871E-05 26456   0.137E-02    0.117E-01
DAV:  12    -0.384516418454E+03   -0.37766E-05   -0.34009E-05 24320   0.106E-02
  52 F= -.38451642E+03 E0= -.38450915E+03  d E =-.673112E-02  mag=    46.0000
       N       E                     dE             d eps       ncg     rms          rms(c)
DAV:   1    -0.384414910509E+03    0.10150E+00   -0.22294E+01 39752   0.140E+01    0.134E+00
DAV:   2    -0.384526813130E+03   -0.11190E+00   -0.10991E+00 36608   0.229E+00    0.106E+00
DAV:   3    -0.384532372500E+03   -0.55594E-02   -0.44923E-02 49464   0.510E-01    0.194E+00
DAV:   4    -0.384527309294E+03    0.50632E-02   -0.15384E-02 43240   0.324E-01    0.814E-01
DAV:   5    -0.384527680012E+03   -0.37072E-03   -0.52845E-03 44136   0.182E-01    0.417E-01
DAV:   6    -0.384527372423E+03    0.30759E-03   -0.96815E-04 43368   0.103E-01    0.295E-01
DAV:   7    -0.384527284262E+03    0.88160E-04   -0.15387E-03 47360   0.110E-01    0.313E-01
DAV:   8    -0.384527233114E+03    0.51149E-04   -0.64201E-04 44080   0.876E-02    0.283E-01
DAV:   9    -0.384527137187E+03    0.95926E-04   -0.45019E-04 44664   0.561E-02    0.135E-01
DAV:  10    -0.384527169897E+03   -0.32710E-04   -0.16747E-04 37760   0.340E-02    0.140E-01
DAV:  11    -0.384527149208E+03    0.20689E-04   -0.54502E-05 30088   0.216E-02    0.471E-02
DAV:  12    -0.384527157284E+03   -0.80758E-05   -0.31519E-05 26272   0.129E-02
  53 F= -.38452716E+03 E0= -.38451992E+03  d E =-.107388E-01  mag=    46.0000
       N       E                     dE             d eps       ncg     rms          rms(c)
DAV:   1    -0.384394596408E+03    0.13255E+00   -0.27676E+01 39952   0.157E+01    0.146E+00
DAV:   2    -0.384531157685E+03   -0.13656E+00   -0.13394E+00 36608   0.255E+00    0.101E+00
DAV:   3    -0.384538639167E+03   -0.74815E-02   -0.49913E-02 48408   0.499E-01    0.233E+00
DAV:   4    -0.384530989200E+03    0.76500E-02   -0.12125E-02 42080   0.330E-01    0.556E-01
DAV:   5    -0.384532861056E+03   -0.18719E-02   -0.54382E-03 45680   0.166E-01    0.689E-01
DAV:   6    -0.384532374896E+03    0.48616E-03   -0.15508E-03 41432   0.134E-01    0.533E-01
DAV:   7    -0.384531951781E+03    0.42311E-03   -0.21342E-03 48224   0.119E-01    0.278E-01
DAV:   8    -0.384532491762E+03   -0.53998E-03   -0.11818E-03 43616   0.938E-02    0.694E-01
DAV:   9    -0.384531784277E+03    0.70749E-03   -0.43437E-04 41960   0.788E-02    0.309E-01
DAV:  10    -0.384531871205E+03   -0.86928E-04   -0.39965E-04 46832   0.430E-02    0.804E-02
DAV:  11    -0.384531963538E+03   -0.92333E-04   -0.86891E-05 34304   0.256E-02    0.104E-01
DAV:  12    -0.384531950726E+03    0.12811E-04   -0.16506E-05 28200   0.159E-02    0.613E-02
DAV:  13    -0.384531948740E+03    0.19867E-05   -0.15648E-05 22392   0.109E-02
  54 F= -.38453195E+03 E0= -.38452470E+03  d E =-.479146E-02  mag=    46.0000
       N       E                     dE             d eps       ncg     rms          rms(c)
DAV:   1    -0.384497508391E+03    0.34442E-01   -0.27142E+00 40216   0.584E+00    0.752E-01
DAV:   2    -0.384525777574E+03   -0.28269E-01   -0.25636E-01 37104   0.103E+00    0.164E+00
DAV:   3    -0.384524395820E+03    0.13818E-02   -0.28527E-02 42080   0.421E-01    0.116E+00
DAV:   4    -0.384523786568E+03    0.60925E-03   -0.97149E-03 43296   0.239E-01    0.581E-01
DAV:   5    -0.384523750278E+03    0.36290E-04   -0.20849E-03 45744   0.121E-01    0.240E-01
DAV:   6    -0.384523782964E+03   -0.32686E-04   -0.75401E-04 42680   0.642E-02    0.220E-01
DAV:   7    -0.384523747905E+03    0.35059E-04   -0.42601E-04 44168   0.606E-02    0.166E-01
DAV:   8    -0.384523775820E+03   -0.27915E-04   -0.23583E-04 42728   0.461E-02    0.223E-01
DAV:   9    -0.384523702106E+03    0.73714E-04   -0.10210E-04 36432   0.355E-02    0.670E-02
DAV:  10    -0.384523731211E+03   -0.29105E-04   -0.13567E-04 30856   0.229E-02    0.103E-01
DAV:  11    -0.384523719930E+03    0.11282E-04   -0.28069E-05 27056   0.171E-02    0.438E-02
DAV:  12    -0.384523721213E+03   -0.12838E-05   -0.14612E-05 22960   0.891E-03
  55 F= -.38452372E+03 E0= -.38451653E+03  d E =0.822753E-02  mag=    46.0000
       N       E                     dE             d eps       ncg     rms          rms(c)
DAV:   1    -0.384520510603E+03    0.32093E-02   -0.78942E-01 40984   0.335E+00    0.415E-01
DAV:   2    -0.384529257260E+03   -0.87467E-02   -0.77237E-02 37152   0.570E-01    0.108E+00
DAV:   3    -0.384528222277E+03    0.10350E-02   -0.10332E-02 41472   0.234E-01    0.560E-01
DAV:   4    -0.384528534053E+03   -0.31178E-03   -0.99191E-04 41464   0.107E-01    0.333E-01
DAV:   5    -0.384528371052E+03    0.16300E-03   -0.36796E-04 44352   0.636E-02    0.109E-01
DAV:   6    -0.384528489756E+03   -0.11870E-03   -0.22751E-04 39088   0.341E-02    0.257E-01
DAV:   7    -0.384528405670E+03    0.84086E-04   -0.11599E-04 35728   0.382E-02    0.130E-01
DAV:   8    -0.384528411917E+03   -0.62468E-05   -0.98293E-05 36056   0.258E-02
  56 F= -.38452841E+03 E0= -.38452114E+03  d E =-.469070E-02  mag=    46.0000
