       N       E                     dE             d eps       ncg     rms          ort
DAV:   1     0.653204004653E+04    0.65320E+04   -0.29241E+05  8736   0.162E+03
DAV:   2     0.411449170928E+03   -0.61206E+04   -0.58727E+04  8736   0.477E+02
DAV:   3    -0.369367295908E+03   -0.78082E+03   -0.76308E+03  8736   0.178E+02
DAV:   4    -0.411470426441E+03   -0.42103E+02   -0.40936E+02  8736   0.430E+01
DAV:   5    -0.414910627054E+03   -0.34402E+01   -0.33837E+01  8736   0.876E+00
SDA:   6    -0.263668079068E+03    0.15124E+03   -0.33837E+01  8736   0.141E+04 0.000E+00
CGA:   7    -0.296206102985E+03   -0.32538E+02   -0.75820E+02  8736   0.402E+04-0.310E+03
CGA:   8    -0.347407006580E+03   -0.51201E+02   -0.77865E+02  8736   0.723E+03 0.362E+03
CGA:   9    -0.362295088028E+03   -0.14888E+02   -0.25735E+02  8736   0.269E+03 0.694E+02
CGA:  10    -0.370026132276E+03   -0.77310E+01   -0.93639E+01  8736   0.114E+03-0.699E+02
CGA:  11    -0.370561333453E+03   -0.53520E+00   -0.69071E+01  8736   0.371E+03-0.282E+02
CGA:  12    -0.370115532317E+03    0.44580E+00   -0.62397E+01  8736   0.595E+03-0.248E+03
CGA:  13    -0.374606244945E+03   -0.44907E+01   -0.15737E+02  8736   0.451E+03-0.269E+03
CGA:  14    -0.368876479387E+03    0.57298E+01   -0.10031E+02  8736   0.126E+04-0.398E+03
CGA:  15    -0.345978199736E+03    0.22898E+02   -0.47931E+02  8736   0.133E+04-0.444E+03
CGA:  16    -0.363697992884E+03   -0.17720E+02   -0.63737E+01  8736   0.121E+04 0.132E+04
CGA:  17    -0.374471621285E+03   -0.10774E+02   -0.36299E+02  8736   0.386E+03-0.570E+03
CGA:  18    -0.377813889770E+03   -0.33423E+01   -0.41783E+01  8736   0.101E+03-0.169E+02
CGA:  19    -0.382342962423E+03   -0.45291E+01   -0.14770E+01  8736   0.170E+03-0.333E+03
CGA:  20    -0.374996275920E+03    0.73467E+01   -0.65802E+01  8736   0.324E+03-0.102E+03
CGA:  21    -0.370833400070E+03    0.41629E+01   -0.71849E+01  8736   0.137E+04-0.103E+04
CGA:  22    -0.366124719829E+03    0.47087E+01   -0.51109E+02  8736   0.997E+03-0.381E+03
CGA:  23    -0.361214295844E+03    0.49104E+01   -0.23473E+02  8736   0.104E+04-0.769E+02
CGA:  24    -0.367050779392E+03   -0.58365E+01   -0.35983E+02  8736   0.140E+04-0.268E+02
CGA:  25    -0.349894752763E+03    0.17156E+02   -0.51266E+02  8736   0.304E+03-0.132E+03
CGA:  26    -0.363167622422E+03   -0.13273E+02   -0.40558E+01  8736   0.944E+03 0.116E+04
CGA:  27    -0.346585621115E+03    0.16582E+02   -0.28466E+02  8736   0.147E+04-0.263E+03
CGA:  28    -0.367253913685E+03   -0.20668E+02   -0.20040E+02  8736   0.805E+03 0.137E+03
CGA:  29    -0.363255010226E+03    0.39989E+01   -0.33338E+02  8736   0.437E+03-0.553E+02
CGA:  30    -0.379859537526E+03   -0.16605E+02   -0.71276E+01  8736   0.661E+02-0.415E+02
CGA:  31    -0.380772279385E+03   -0.91274E+00   -0.60845E+00  8736   0.134E+03 0.264E+02
CGA:  32    -0.377294465607E+03    0.34778E+01   -0.29281E+01  8736   0.323E+03-0.448E+03
CGA:  33    -0.378134655243E+03   -0.84019E+00   -0.79197E+01  8736   0.616E+03-0.396E+03
CGA:  34    -0.373687334466E+03    0.44473E+01   -0.12999E+02  8736   0.684E+03-0.465E+03
CGA:  35    -0.369839109321E+03    0.38482E+01   -0.18464E+02  8736   0.459E+03-0.324E+03
CGA:  36    -0.376756532771E+03   -0.69174E+01   -0.29983E+01  8736   0.534E+03 0.478E+03
CGA:  37    -0.377192914662E+03   -0.43638E+00   -0.90549E+01  8736   0.548E+03-0.559E+03
CGA:  38    -0.371732827542E+03    0.54601E+01   -0.12549E+02  8736   0.448E+03-0.320E+03
CGA:  39    -0.382402783185E+03   -0.10670E+02   -0.63186E+01  8736   0.263E+03-0.598E+03
CGA:  40    -0.381297920313E+03    0.11049E+01   -0.44045E+01  8736   0.453E+03-0.365E+03
CGA:  41    -0.381202828278E+03    0.95092E-01   -0.70519E+01  8736   0.380E+03-0.362E+03
CGA:  42    -0.379015150402E+03    0.21877E+01   -0.68060E+01  8736   0.620E+03-0.484E+03
CGA:  43    -0.380715570211E+03   -0.17004E+01   -0.94534E+01  8736   0.397E+03-0.447E+03
CGA:  44    -0.380342597036E+03    0.37297E+00   -0.67305E+01  8736   0.532E+03-0.501E+03
CGA:  45    -0.382356132202E+03   -0.20135E+01   -0.77413E+01  8736   0.269E+03-0.338E+03
CGA:  46    -0.383759501195E+03   -0.14034E+01   -0.38583E+01  8736   0.191E+03-0.263E+03
CGA:  47    -0.384672503117E+03   -0.91300E+00   -0.24426E+01  8736   0.645E+02-0.995E+02
CGA:  48    -0.385251539274E+03   -0.57904E+00   -0.55212E+00  8736   0.108E+01-0.110E+01
CGA:  49    -0.385366565067E+03   -0.11503E+00   -0.12262E+00  8736   0.662E+01-0.127E+00
CGA:  50    -0.385440502404E+03   -0.73937E-01   -0.39782E-01  8736   0.528E+01 0.502E+01
CGA:  51    -0.385521836439E+03   -0.81334E-01   -0.83912E-01  8736   0.179E+01-0.130E+00
CGA:  52    -0.385560147344E+03   -0.38311E-01   -0.43380E-01  8736   0.155E+01-0.486E-01
CGA:  53    -0.382091778062E+03    0.34684E+01   -0.10678E+01  8736   0.368E+03-0.254E+02
CGA:  54    -0.385051635053E+03   -0.29599E+01   -0.13751E+02  8736   0.430E+02-0.173E+02
CGA:  55    -0.385258955846E+03   -0.20732E+00   -0.77530E+00  8736   0.453E+02-0.258E+02
CGA:  56    -0.385121810952E+03    0.13714E+00   -0.87969E+00  8736   0.766E+02-0.489E+02
CGA:  57    -0.384625616315E+03    0.49619E+00   -0.15800E+01  8736   0.158E+03-0.952E+02
CGA:  58    -0.382917214964E+03    0.17084E+01   -0.37322E+01  8736   0.269E+03-0.158E+03
CGA:  59    -0.379571333224E+03    0.33459E+01   -0.67238E+01  8736   0.372E+03-0.248E+03
CGA:  60    -0.378759000054E+03    0.81233E+00   -0.91524E+01  8736   0.268E+03-0.229E+03
CGA:  61    -0.379167498581E+03   -0.40850E+00   -0.69018E+01  8736   0.193E+03-0.198E+03
CGA:  62    -0.382807514508E+03   -0.36400E+01   -0.39123E+01  8736   0.224E+03-0.338E+03
CGA:  63    -0.382440732438E+03    0.36678E+00   -0.46901E+01  8736   0.325E+03-0.313E+03
CGA:  64    -0.381139663927E+03    0.13011E+01   -0.72178E+01  8736   0.318E+03-0.267E+03
CGA:  65    -0.380603983269E+03    0.53568E+00   -0.69435E+01  8736   0.361E+03-0.338E+03
CGA:  66    -0.380837214691E+03   -0.23323E+00   -0.77807E+01  8736   0.303E+03-0.306E+03
CGA:  67    -0.381753481801E+03   -0.91627E+00   -0.62144E+01  8736   0.332E+03-0.368E+03
CGA:  68    -0.382248070204E+03   -0.49459E+00   -0.66334E+01  8736   0.281E+03-0.301E+03
CGA:  69    -0.383480987216E+03   -0.12329E+01   -0.51297E+01  8736   0.253E+03-0.308E+03
CGA:  70    -0.384367708619E+03   -0.88672E+00   -0.43677E+01  8736   0.166E+03-0.204E+03
CGA:  71    -0.385754838786E+03   -0.13871E+01   -0.22911E+01  8736   0.468E+02-0.972E+02
CGA:  72    -0.386164756047E+03   -0.40992E+00   -0.48677E+00  8736   0.171E+01-0.806E+01
CGA:  73    -0.386182709281E+03   -0.17953E-01   -0.17020E-01  8736   0.130E+00 0.606E-01
CGA:  74    -0.386191849771E+03   -0.91405E-02   -0.91162E-02  8736   0.208E+00 0.728E-03
CGA:  75    -0.386205739119E+03   -0.13889E-01   -0.15067E-01  8736   0.709E+00-0.365E-01
CGA:  76    -0.386223095996E+03   -0.17357E-01   -0.17037E-01  8736   0.986E+00 0.185E-01
CGA:  77    -0.386246265462E+03   -0.23169E-01   -0.18878E-01  8736   0.670E+00 0.177E+00
CGA:  78    -0.386260364615E+03   -0.14099E-01   -0.14344E-01  8736   0.287E+00 0.193E-02
CGA:  79    -0.386265145224E+03   -0.47806E-02   -0.49886E-02  8736   0.107E+00-0.630E-02
CGA:  80    -0.386266868403E+03   -0.17232E-02   -0.17243E-02  8736   0.534E-01-0.207E-03
CGA:  81    -0.386268921823E+03   -0.20534E-02   -0.20522E-02  8736   0.108E+00 0.304E-03
CGA:  82    -0.386272821907E+03   -0.39001E-02   -0.39131E-02  8736   0.126E+00 0.489E-02
CGA:  83    -0.386276599207E+03   -0.37773E-02   -0.38224E-02  8736   0.935E-01 0.113E-02
CGA:  84    -0.386280529021E+03   -0.39298E-02   -0.39156E-02  8736   0.506E-01 0.161E-02
CGA:  85    -0.386281790167E+03   -0.12611E-02   -0.12667E-02  8736   0.291E-01-0.122E-03
CGA:  86    -0.386283536142E+03   -0.17460E-02   -0.17599E-02  8736   0.802E-01-0.564E-03
CGA:  87    -0.386286670925E+03   -0.31348E-02   -0.31276E-02  8736   0.370E-01 0.159E-02
CGA:  88    -0.386287785104E+03   -0.11142E-02   -0.11169E-02  8736   0.232E-01-0.353E-04
CGA:  89    -0.386288431914E+03   -0.64681E-03   -0.64631E-03  8736   0.167E-01-0.936E-04
CGA:  90    -0.386289077545E+03   -0.64563E-03   -0.64523E-03  8736   0.168E-01 0.595E-04
CGA:  91    -0.386290042382E+03   -0.96484E-03   -0.96229E-03  8736   0.166E-01 0.760E-04
CGA:  92    -0.386290667395E+03   -0.62501E-03   -0.62484E-03  8736   0.214E-01-0.250E-03
CGA:  93    -0.386291304089E+03   -0.63669E-03   -0.64032E-03  8736   0.925E-02 0.322E-04
CGA:  94    -0.386291607532E+03   -0.30344E-03   -0.30335E-03  8736   0.726E-02-0.441E-04
CGA:  95    -0.386292149006E+03   -0.54147E-03   -0.54833E-03  8736   0.208E-01-0.180E-03
CGA:  96    -0.386292652109E+03   -0.50310E-03   -0.50771E-03  8736   0.661E-02-0.108E-03
CGA:  97    -0.386292964698E+03   -0.31259E-03   -0.31275E-03  8736   0.703E-02-0.228E-04
CGA:  98    -0.386293168188E+03   -0.20349E-03   -0.20374E-03  8736   0.485E-02-0.112E-04
CGA:  99    -0.386293314749E+03   -0.14656E-03   -0.14669E-03  8736   0.405E-02 0.591E-06
CGA: 100    -0.386293563101E+03   -0.24835E-03   -0.24688E-03  8736   0.362E-02 0.561E-04
CGA: 101    -0.386293682923E+03   -0.11982E-03   -0.11981E-03  8736   0.366E-02 0.962E-05
SDA: 102    -0.386293785533E+03   -0.10261E-03   -0.10260E-03  8736   0.168E-02 0.104E-04
CGA: 103    -0.386293846966E+03   -0.61433E-04   -0.61452E-04  8736   0.122E-02 0.831E-05
CGA: 104    -0.386293898807E+03   -0.51841E-04   -0.51784E-04  8736   0.168E-02 0.139E-04
CGA: 105    -0.386293960171E+03   -0.61364E-04   -0.61414E-04  8736   0.125E-02 0.219E-04
CGA: 106    -0.386294056560E+03   -0.96389E-04   -0.94772E-04  8736   0.924E-03 0.442E-04
CGA: 107    -0.386294145076E+03   -0.88516E-04   -0.85596E-04  8736   0.840E-03 0.593E-04
CGA: 108    -0.386294264331E+03   -0.11926E-03   -0.11184E-03  8736   0.209E-02 0.927E-04
CGA: 109    -0.386294307502E+03   -0.43170E-04   -0.43570E-04  8736   0.535E-03 0.385E-04
CGA: 110    -0.386294371757E+03   -0.64255E-04   -0.61573E-04  8736   0.168E-02 0.403E-04
CGA: 111    -0.386294431735E+03   -0.59978E-04   -0.60239E-04  8736   0.101E-02 0.304E-04
CGA: 112    -0.386294466234E+03   -0.34499E-04   -0.34754E-04  8736   0.723E-03 0.154E-04
CGA: 113    -0.386294519666E+03   -0.53432E-04   -0.53068E-04  8736   0.134E-02 0.157E-04
CGA: 114    -0.386294570431E+03   -0.50766E-04   -0.50900E-04  8736   0.129E-02 0.119E-04
CGA: 115    -0.386294631037E+03   -0.60606E-04   -0.60619E-04  8736   0.879E-03 0.114E-04
CGA: 116    -0.386294678643E+03   -0.47606E-04   -0.47592E-04  8736   0.185E-02 0.331E-05
CGA: 117    -0.386294768351E+03   -0.89708E-04   -0.89709E-04  8736   0.140E-02-0.618E-05
CGA: 118    -0.386294853119E+03   -0.84769E-04   -0.84794E-04  8736   0.269E-02-0.220E-05
CGA: 119    -0.386294952549E+03   -0.99430E-04   -0.99189E-04  8736   0.153E-02-0.768E-05
CGA: 120    -0.386295004465E+03   -0.51916E-04   -0.51838E-04  8736   0.106E-02-0.432E-05
CGA: 121    -0.386295094749E+03   -0.90284E-04   -0.90891E-04  8736   0.390E-02-0.151E-04
CGA: 122    -0.386295254584E+03   -0.15983E-03   -0.15988E-03  8736   0.126E-02-0.148E-04
CGA: 123    -0.386295304961E+03   -0.50378E-04   -0.50256E-04  8736   0.150E-02-0.113E-04
CGA: 124    -0.386295362896E+03   -0.57934E-04   -0.57806E-04  8736   0.119E-02-0.149E-04
CGA: 125    -0.386295434267E+03   -0.71371E-04   -0.71575E-04  8736   0.177E-02-0.180E-04
CGA: 126    -0.386295512202E+03   -0.77935E-04   -0.77882E-04  8736   0.212E-02-0.209E-04
CGA: 127    -0.386295592277E+03   -0.80075E-04   -0.79789E-04  8736   0.142E-02-0.281E-04
CGA: 128    -0.386295663846E+03   -0.71569E-04   -0.71608E-04  8736   0.141E-02-0.188E-04
CGA: 129    -0.386295708311E+03   -0.44465E-04   -0.44220E-04  8736   0.122E-02-0.156E-04
CGA: 130    -0.386295777480E+03   -0.69169E-04   -0.69435E-04  8736   0.768E-03-0.258E-04
CGA: 131    -0.386295802733E+03   -0.25253E-04   -0.25133E-04  8736   0.941E-03-0.856E-05
CGA: 132    -0.386295889324E+03   -0.86592E-04   -0.87900E-04  8736   0.206E-02-0.275E-04
SDA: 133    -0.386295956373E+03   -0.67049E-04   -0.66603E-04  8736   0.737E-03-0.237E-04
CGA: 134    -0.386295969240E+03   -0.12867E-04   -0.12839E-04  8736   0.377E-03-0.140E-05
CGA: 135    -0.386296012683E+03   -0.43443E-04   -0.44049E-04  8736   0.490E-03-0.866E-05
CGA: 136    -0.386296038851E+03   -0.26168E-04   -0.26191E-04  8736   0.248E-03-0.553E-05
CGA: 137    -0.386296050821E+03   -0.11970E-04   -0.11964E-04  8736   0.296E-03-0.251E-05
CGA: 138    -0.386296064969E+03   -0.14148E-04   -0.14140E-04  8736   0.537E-03-0.291E-05
CGA: 139    -0.386296086087E+03   -0.21118E-04   -0.21068E-04  8736   0.330E-03-0.382E-05
CGA: 140    -0.386296115367E+03   -0.29280E-04   -0.29426E-04  8736   0.924E-04-0.372E-05
CGA: 141    -0.386296125580E+03   -0.10213E-04   -0.10261E-04  8736   0.582E-03-0.816E-06
CGA: 142    -0.386296148492E+03   -0.22912E-04   -0.22896E-04  8736   0.129E-03-0.191E-05
CGA: 143    -0.386296154746E+03   -0.62536E-05   -0.62486E-05  8736   0.622E-04-0.888E-06
   1 F= -.38629615E+03 E0= -.38627711E+03  d E =-.386296E+03  mag=    34.0000
       N       E                     dE             d eps       ncg     rms          ort
SDA:   1    -0.386273712831E+03    0.22436E-01    0.00000E+00  8736   0.133E+01 0.000E+00
CGA:   2    -0.386289592193E+03   -0.15879E-01   -0.16509E-01  8736   0.729E-01-0.452E-01
CGA:   3    -0.386291073917E+03   -0.14817E-02   -0.14607E-02  8736   0.115E-01 0.686E-03
CGA:   4    -0.386292050486E+03   -0.97657E-03   -0.97671E-03  8736   0.214E-01-0.164E-05
CGA:   5    -0.386292804550E+03   -0.75406E-03   -0.75308E-03  8736   0.236E-01 0.321E-05
CGA:   6    -0.386293587895E+03   -0.78335E-03   -0.78294E-03  8736   0.384E-02-0.104E-05
CGA:   7    -0.386293912695E+03   -0.32480E-03   -0.32561E-03  8736   0.523E-02-0.212E-04
CGA:   8    -0.386294020809E+03   -0.10811E-03   -0.10826E-03  8736   0.231E-02-0.347E-05
CGA:   9    -0.386294166574E+03   -0.14576E-03   -0.14578E-03  8736   0.195E-02 0.182E-06
CGA:  10    -0.386294221634E+03   -0.55060E-04   -0.55022E-04  8736   0.281E-03 0.520E-06
CGA:  11    -0.386294231180E+03   -0.95457E-05   -0.95372E-05  8736   0.448E-03-0.384E-06
CGA:  12    -0.386294268156E+03   -0.36976E-04   -0.37100E-04  8736   0.184E-03-0.372E-05
CGA:  13    -0.386294274853E+03   -0.66977E-05   -0.66922E-05  8736   0.141E-03-0.563E-06
   2 F= -.38629427E+03 E0= -.38627523E+03  d E =0.187989E-02  mag=    34.0000
       N       E                     dE             d eps       ncg     rms          ort
SDA:   1    -0.356203245615E+03    0.30091E+02    0.00000E+00  8736   0.105E+03 0.000E+00
CGA:   2    -0.362005929230E+03   -0.58027E+01   -0.56885E+01  8736   0.239E+03 0.165E+02
CGA:   3    -0.374130448029E+03   -0.12125E+02   -0.11423E+02  8736   0.153E+03-0.283E+02
CGA:   4    -0.378372863526E+03   -0.42424E+01   -0.41677E+01  8736   0.525E+02-0.328E+01
CGA:   5    -0.380209993875E+03   -0.18371E+01   -0.19130E+01  8736   0.876E+02 0.966E+00
CGA:   6    -0.383459317762E+03   -0.32493E+01   -0.32143E+01  8736   0.478E+02-0.129E+01
CGA:   7    -0.384560324902E+03   -0.11010E+01   -0.11811E+01  8736   0.222E+02-0.233E+01
CGA:   8    -0.384957318875E+03   -0.39699E+00   -0.36196E+00  8736   0.595E+01 0.133E+01
CGA:   9    -0.385346712475E+03   -0.38939E+00   -0.39130E+00  8736   0.119E+02-0.688E-01
CGA:  10    -0.385647965314E+03   -0.30125E+00   -0.29984E+00  8736   0.729E+01-0.280E-01
CGA:  11    -0.385800758952E+03   -0.15279E+00   -0.16006E+00  8736   0.134E+01-0.219E+00
CGA:  12    -0.385841635453E+03   -0.40877E-01   -0.41024E-01  8736   0.188E+01-0.455E-03
CGA:  13    -0.385902501867E+03   -0.60866E-01   -0.60189E-01  8736   0.157E+01-0.778E-02
CGA:  14    -0.385970099918E+03   -0.67598E-01   -0.67553E-01  8736   0.872E+00 0.416E-01
CGA:  15    -0.385984024512E+03   -0.13925E-01   -0.13514E-01  8736   0.450E+00 0.194E-01
CGA:  16    -0.386007184136E+03   -0.23160E-01   -0.23014E-01  8736   0.319E+00 0.115E-01
CGA:  17    -0.386018703352E+03   -0.11519E-01   -0.11479E-01  8736   0.393E+00-0.197E-02
CGA:  18    -0.386028663471E+03   -0.99601E-02   -0.10303E-01  8736   0.356E+00-0.153E-02
CGA:  19    -0.386044414945E+03   -0.15751E-01   -0.15901E-01  8736   0.195E+00-0.208E-01
CGA:  20    -0.386047722386E+03   -0.33074E-02   -0.35568E-02  8736   0.113E+00-0.686E-02
CGA:  21    -0.386053642902E+03   -0.59205E-02   -0.59956E-02  8736   0.175E+00-0.382E-02
CGA:  22    -0.386060871620E+03   -0.72287E-02   -0.71625E-02  8736   0.185E+00 0.199E-01
CGA:  23    -0.386065705006E+03   -0.48334E-02   -0.47304E-02  8736   0.748E-01 0.160E-02
CGA:  24    -0.386068476462E+03   -0.27715E-02   -0.27825E-02  8736   0.832E-01 0.171E-02
CGA:  25    -0.386072469266E+03   -0.39928E-02   -0.40244E-02  8736   0.115E+00-0.267E-02
CGA:  26    -0.386076654691E+03   -0.41854E-02   -0.42089E-02  8736   0.586E-01 0.492E-02
CGA:  27    -0.386078247241E+03   -0.15926E-02   -0.15893E-02  8736   0.353E-01 0.171E-04
CGA:  28    -0.386080119454E+03   -0.18722E-02   -0.18490E-02  8736   0.525E-01 0.132E-02
CGA:  29    -0.386082115858E+03   -0.19964E-02   -0.19945E-02  8736   0.328E-01-0.236E-03
CGA:  30    -0.386083289324E+03   -0.11735E-02   -0.11760E-02  8736   0.337E-01 0.288E-03
CGA:  31    -0.386084724998E+03   -0.14357E-02   -0.14373E-02  8736   0.181E-01-0.309E-03
SDA:  32    -0.386085205407E+03   -0.48041E-03   -0.48344E-03  8736   0.121E-01 0.119E-04
CGA:  33    -0.386085414490E+03   -0.20908E-03   -0.20884E-03  8736   0.695E-02 0.107E-04
CGA:  34    -0.386086311943E+03   -0.89745E-03   -0.88741E-03  8736   0.117E-01 0.132E-03
CGA:  35    -0.386086929925E+03   -0.61798E-03   -0.61692E-03  8736   0.983E-02 0.785E-04
CGA:  36    -0.386087456289E+03   -0.52636E-03   -0.52778E-03  8736   0.499E-02-0.940E-04
CGA:  37    -0.386087561646E+03   -0.10536E-03   -0.10588E-03  8736   0.345E-02-0.146E-04
CGA:  38    -0.386087815592E+03   -0.25395E-03   -0.25587E-03  8736   0.461E-02-0.562E-04
CGA:  39    -0.386088244273E+03   -0.42868E-03   -0.42518E-03  8736   0.217E-02 0.693E-04
CGA:  40    -0.386088322676E+03   -0.78403E-04   -0.78340E-04  8736   0.217E-02-0.204E-05
CGA:  41    -0.386088421889E+03   -0.99213E-04   -0.99216E-04  8736   0.390E-02 0.157E-04
CGA:  42    -0.386088611162E+03   -0.18927E-03   -0.18945E-03  8736   0.150E-02-0.399E-04
CGA:  43    -0.386088726041E+03   -0.11488E-03   -0.11459E-03  8736   0.123E-02 0.842E-05
CGA:  44    -0.386088754587E+03   -0.28546E-04   -0.28500E-04  8736   0.829E-03 0.134E-05
CGA:  45    -0.386088803650E+03   -0.49063E-04   -0.49038E-04  8736   0.127E-02 0.109E-05
CGA:  46    -0.386088885945E+03   -0.82295E-04   -0.82364E-04  8736   0.551E-03-0.345E-05
CGA:  47    -0.386088906163E+03   -0.20218E-04   -0.20217E-04  8736   0.448E-03 0.482E-06
CGA:  48    -0.386088918832E+03   -0.12669E-04   -0.12674E-04  8736   0.389E-03 0.482E-06
CGA:  49    -0.386088954854E+03   -0.36022E-04   -0.35969E-04  8736   0.224E-03 0.134E-05
CGA:  50    -0.386088963560E+03   -0.87067E-05   -0.87191E-05  8736   0.200E-03 0.127E-05
CGA:  51    -0.386088974085E+03   -0.10524E-04   -0.10514E-04  8736   0.411E-03 0.255E-05
CGA:  52    -0.386088987644E+03   -0.13559E-04   -0.13591E-04  8736   0.596E-04 0.330E-05
CGA:  53    -0.386088992145E+03   -0.45012E-05   -0.44521E-05  8736   0.111E-03 0.184E-05
   3 F= -.38608899E+03 E0= -.38606974E+03  d E =0.205283E+00  mag=    34.0000
       N       E                     dE             d eps       ncg     rms          ort
SDA:   1    -0.345063770539E+03    0.41025E+02    0.00000E+00  8736   0.128E+03 0.000E+00
CGA:   2    -0.358109929260E+03   -0.13046E+02   -0.11706E+02  8736   0.292E+03 0.338E+02
CGA:   3    -0.369166365883E+03   -0.11056E+02   -0.11145E+02  8736   0.244E+03-0.108E+03
CGA:   4    -0.376103255353E+03   -0.69369E+01   -0.68466E+01  8736   0.590E+02-0.362E+01
CGA:   5    -0.377503002896E+03   -0.13997E+01   -0.15600E+01  8736   0.163E+03-0.599E+01
CGA:   6    -0.380170612044E+03   -0.26676E+01   -0.38772E+01  8736   0.130E+03-0.907E+01
CGA:   7    -0.381915554367E+03   -0.17449E+01   -0.20324E+01  8736   0.119E+03-0.248E+02
CGA:   8    -0.383310508829E+03   -0.13950E+01   -0.16860E+01  8736   0.776E+02-0.312E+02
CGA:   9    -0.383539115399E+03   -0.22861E+00   -0.36476E+00  8736   0.158E+02-0.233E+02
CGA:  10    -0.383726859032E+03   -0.18774E+00   -0.16336E+00  8736   0.254E+02 0.110E+01
CGA:  11    -0.384038183831E+03   -0.31132E+00   -0.35222E+00  8736   0.215E+02-0.740E+01
CGA:  12    -0.384129324140E+03   -0.91140E-01   -0.13147E+00  8736   0.217E+02-0.427E+01
CGA:  13    -0.384322708243E+03   -0.19338E+00   -0.18806E+00  8736   0.365E+02 0.246E+00
CGA:  14    -0.384832924367E+03   -0.51022E+00   -0.62832E+00  8736   0.460E+02-0.515E+01
CGA:  15    -0.385048194534E+03   -0.21527E+00   -0.23116E+00  8736   0.910E+01-0.351E+01
CGA:  16    -0.385107794895E+03   -0.59600E-01   -0.63017E-01  8736   0.715E+01-0.473E+00
CGA:  17    -0.385186357239E+03   -0.78562E-01   -0.64197E-01  8736   0.700E+01 0.105E+01
CGA:  18    -0.385236650225E+03   -0.50293E-01   -0.53382E-01  8736   0.298E+01-0.588E+00
CGA:  19    -0.385257175398E+03   -0.20525E-01   -0.20860E-01  8736   0.338E+01-0.421E-01
CGA:  20    -0.385313229108E+03   -0.56054E-01   -0.56338E-01  8736   0.106E+02-0.123E-01
CGA:  21    -0.385445736985E+03   -0.13251E+00   -0.13461E+00  8736   0.915E+01-0.138E+00
CGA:  22    -0.385495642452E+03   -0.49905E-01   -0.50946E-01  8736   0.441E+01-0.202E+00
CGA:  23    -0.385543585133E+03   -0.47943E-01   -0.51644E-01  8736   0.725E+01-0.183E+00
CGA:  24    -0.385604772527E+03   -0.61187E-01   -0.57414E-01  8736   0.462E+01 0.347E+00
CGA:  25    -0.385631746989E+03   -0.26974E-01   -0.35022E-01  8736   0.143E+01-0.865E+00
CGA:  26    -0.385643719660E+03   -0.11973E-01   -0.12521E-01  8736   0.131E+01-0.305E-01
CGA:  27    -0.385660653980E+03   -0.16934E-01   -0.17436E-01  8736   0.768E+00-0.126E-01
CGA:  28    -0.385669011460E+03   -0.83575E-02   -0.84311E-02  8736   0.635E+00-0.370E-02
CGA:  29    -0.385690456603E+03   -0.21445E-01   -0.21323E-01  8736   0.204E+01 0.926E-02
CGA:  30    -0.385721334742E+03   -0.30878E-01   -0.31569E-01  8736   0.868E+00 0.648E-02
CGA:  31    -0.385730972403E+03   -0.96377E-02   -0.98471E-02  8736   0.500E+00-0.889E-02
SDA:  32    -0.385742283783E+03   -0.11311E-01   -0.11306E-01  8736   0.496E+00 0.421E-02
CGA:  33    -0.385748765847E+03   -0.64821E-02   -0.65138E-02  8736   0.163E+00-0.337E-03
CGA:  34    -0.385759610356E+03   -0.10845E-01   -0.10588E-01  8736   0.187E+00 0.656E-02
CGA:  35    -0.385769105841E+03   -0.94955E-02   -0.92587E-02  8736   0.104E+00 0.991E-02
CGA:  36    -0.385775591182E+03   -0.64853E-02   -0.65642E-02  8736   0.128E+00-0.248E-02
CGA:  37    -0.385778353418E+03   -0.27622E-02   -0.27681E-02  8736   0.101E+00 0.408E-03
CGA:  38    -0.385783561451E+03   -0.52080E-02   -0.52133E-02  8736   0.740E-01-0.222E-03
CGA:  39    -0.385788361238E+03   -0.47998E-02   -0.48400E-02  8736   0.318E-01-0.115E-02
CGA:  40    -0.385789418090E+03   -0.10569E-02   -0.10566E-02  8736   0.432E-01 0.323E-04
CGA:  41    -0.385791131866E+03   -0.17138E-02   -0.17085E-02  8736   0.500E-01 0.402E-03
CGA:  42    -0.385793449899E+03   -0.23180E-02   -0.23278E-02  8736   0.227E-01-0.528E-03
CGA:  43    -0.385795495515E+03   -0.20456E-02   -0.20223E-02  8736   0.199E-01 0.454E-03
CGA:  44    -0.385797040967E+03   -0.15455E-02   -0.15356E-02  8736   0.228E-01 0.243E-03
CGA:  45    -0.385797851489E+03   -0.81052E-03   -0.81089E-03  8736   0.303E-01 0.160E-03
CGA:  46    -0.385798903626E+03   -0.10521E-02   -0.10519E-02  8736   0.793E-02-0.398E-04
CGA:  47    -0.385799184106E+03   -0.28048E-03   -0.28047E-03  8736   0.474E-02-0.325E-05
CGA:  48    -0.385799781505E+03   -0.59740E-03   -0.59711E-03  8736   0.144E-01 0.256E-05
CGA:  49    -0.385800035272E+03   -0.25377E-03   -0.25577E-03  8736   0.216E-02-0.670E-04
CGA:  50    -0.385800150020E+03   -0.11475E-03   -0.11462E-03  8736   0.174E-02 0.610E-05
CGA:  51    -0.385800282475E+03   -0.13246E-03   -0.13273E-03  8736   0.298E-02-0.707E-05
CGA:  52    -0.385800344383E+03   -0.61908E-04   -0.61933E-04  8736   0.931E-03-0.702E-05
CGA:  53    -0.385800385845E+03   -0.41462E-04   -0.41461E-04  8736   0.987E-03 0.322E-07
CGA:  54    -0.385800492525E+03   -0.10668E-03   -0.10617E-03  8736   0.114E-02 0.711E-05
CGA:  55    -0.385800524721E+03   -0.32195E-04   -0.32269E-04  8736   0.115E-02 0.363E-05
CGA:  56    -0.385800579199E+03   -0.54478E-04   -0.54452E-04  8736   0.546E-03 0.751E-05
CGA:  57    -0.385800611267E+03   -0.32068E-04   -0.31984E-04  8736   0.610E-03 0.537E-05
CGA:  58    -0.385800638359E+03   -0.27092E-04   -0.27094E-04  8736   0.950E-03 0.382E-05
CGA:  59    -0.385800673696E+03   -0.35337E-04   -0.35372E-04  8736   0.554E-03 0.549E-05
CGA:  60    -0.385800695359E+03   -0.21663E-04   -0.21677E-04  8736   0.203E-03 0.330E-05
CGA:  61    -0.385800711970E+03   -0.16611E-04   -0.16559E-04  8736   0.673E-03 0.133E-05
CGA:  62    -0.385800731101E+03   -0.19131E-04   -0.19158E-04  8736   0.201E-03 0.172E-05
SDA:  63    -0.385800743330E+03   -0.12229E-04   -0.12205E-04  8736   0.200E-03 0.130E-05
CGA:  64    -0.385800747735E+03   -0.44052E-05   -0.44084E-05  8736   0.103E-03-0.122E-07
   4 F= -.38580075E+03 E0= -.38578129E+03  d E =0.288244E+00  mag=    34.0000
       N       E                     dE             d eps       ncg     rms          ort
SDA:   1    -0.247600362234E+03    0.13820E+03    0.00000E+00  8736   0.877E+03 0.000E+00
CGA:   2    -0.329730779021E+03   -0.82130E+02   -0.55547E+02  8736   0.166E+03 0.227E+03
CGA:   3    -0.316625023382E+03    0.13106E+02   -0.34724E+02  8736   0.699E+03-0.138E+03
CGA:   4    -0.360348028235E+03   -0.43723E+02   -0.60289E+02  8736   0.323E+03-0.529E+03
CGA:   5    -0.368866753680E+03   -0.85187E+01   -0.12368E+02  8736   0.500E+02 0.720E+02
CGA:   6    -0.369774096343E+03   -0.90734E+00   -0.45141E+01  8736   0.477E+03-0.700E+02
CGA:   7    -0.374818650578E+03   -0.50446E+01   -0.12794E+02  8736   0.154E+03-0.209E+03
CGA:   8    -0.377917717070E+03   -0.30991E+01   -0.16087E+01  8736   0.703E+02 0.818E+02
CGA:   9    -0.379254554426E+03   -0.13368E+01   -0.76078E+00  8736   0.218E+02 0.403E+02
CGA:  10    -0.379853023738E+03   -0.59847E+00   -0.50482E+00  8736   0.217E+02 0.117E+01
CGA:  11    -0.380817166247E+03   -0.96414E+00   -0.94247E+00  8736   0.470E+02-0.153E+01
CGA:  12    -0.382842344101E+03   -0.20252E+01   -0.20236E+01  8736   0.118E+03-0.165E+01
CGA:  13    -0.384526359458E+03   -0.16840E+01   -0.13478E+01  8736   0.250E+02 0.132E+02
CGA:  14    -0.384736038382E+03   -0.20968E+00   -0.27563E+00  8736   0.172E+02-0.698E+01
CGA:  15    -0.385030245950E+03   -0.29421E+00   -0.22202E+00  8736   0.191E+02 0.354E+01
CGA:  16    -0.385183584082E+03   -0.15334E+00   -0.11727E+00  8736   0.578E+01 0.597E+01
CGA:  17    -0.385240247497E+03   -0.56663E-01   -0.56604E-01  8736   0.504E+01-0.257E-01
CGA:  18    -0.385308940939E+03   -0.68693E-01   -0.73995E-01  8736   0.127E+02-0.269E+00
CGA:  19    -0.385417580115E+03   -0.10864E+00   -0.11928E+00  8736   0.125E+02-0.991E+00
CGA:  20    -0.385488372452E+03   -0.70792E-01   -0.84009E-01  8736   0.896E+01-0.152E+01
CGA:  21    -0.385553498895E+03   -0.65126E-01   -0.51383E-01  8736   0.824E+01 0.203E+01
CGA:  22    -0.385621972676E+03   -0.68474E-01   -0.46844E-01  8736   0.580E+01 0.442E+01
CGA:  23    -0.385717257185E+03   -0.95285E-01   -0.96105E-01  8736   0.285E+01-0.292E-01
CGA:  24    -0.385780896077E+03   -0.63639E-01   -0.63967E-01  8736   0.111E+01 0.280E-02
CGA:  25    -0.385833582413E+03   -0.52686E-01   -0.51208E-01  8736   0.864E+00 0.784E-01
CGA:  26    -0.385897204251E+03   -0.63622E-01   -0.61726E-01  8736   0.116E+01 0.530E-01
CGA:  27    -0.385932854542E+03   -0.35650E-01   -0.35742E-01  8736   0.181E+01 0.812E-02
CGA:  28    -0.386032693402E+03   -0.99839E-01   -0.10239E+00  8736   0.577E+00-0.172E+00
CGA:  29    -0.386045430575E+03   -0.12737E-01   -0.12781E-01  8736   0.575E+00 0.439E-03
CGA:  30    -0.386064518844E+03   -0.19088E-01   -0.19092E-01  8736   0.300E+00 0.546E-02
CGA:  31    -0.386095292714E+03   -0.30774E-01   -0.30616E-01  8736   0.402E+00-0.761E-03
CGA:  32    -0.386103027106E+03   -0.77344E-02   -0.77308E-02  8736   0.217E+00 0.249E-03
CGA:  33    -0.386112171060E+03   -0.91440E-02   -0.91777E-02  8736   0.103E+00-0.357E-02
CGA:  34    -0.386120323487E+03   -0.81524E-02   -0.80964E-02  8736   0.148E+00 0.129E-02
CGA:  35    -0.386124929825E+03   -0.46063E-02   -0.45969E-02  8736   0.147E+00-0.235E-03
CGA:  36    -0.386129059013E+03   -0.41292E-02   -0.41214E-02  8736   0.619E-01-0.597E-04
CGA:  37    -0.386132228624E+03   -0.31696E-02   -0.31352E-02  8736   0.434E-01 0.201E-02
CGA:  38    -0.386135045167E+03   -0.28165E-02   -0.28073E-02  8736   0.997E-01 0.333E-03
CGA:  39    -0.386137193726E+03   -0.21486E-02   -0.21400E-02  8736   0.256E-01 0.276E-03
CGA:  40    -0.386138693073E+03   -0.14993E-02   -0.14975E-02  8736   0.223E-01 0.817E-04
CGA:  41    -0.386139470086E+03   -0.77701E-03   -0.77693E-03  8736   0.385E-01-0.276E-05
CGA:  42    -0.386141250982E+03   -0.17809E-02   -0.17778E-02  8736   0.127E-01 0.291E-03
CGA:  43    -0.386141873572E+03   -0.62259E-03   -0.62298E-03  8736   0.137E-01-0.215E-04
CGA:  44    -0.386142268953E+03   -0.39538E-03   -0.39594E-03  8736   0.145E-01 0.110E-04
CGA:  45    -0.386142949326E+03   -0.68037E-03   -0.67839E-03  8736   0.108E-01 0.182E-03
CGA:  46    -0.386143558776E+03   -0.60945E-03   -0.60963E-03  8736   0.746E-02-0.352E-05
CGA:  47    -0.386143785572E+03   -0.22680E-03   -0.22701E-03  8736   0.967E-02 0.966E-05
CGA:  48    -0.386144176571E+03   -0.39100E-03   -0.39099E-03  8736   0.474E-02 0.219E-04
CGA:  49    -0.386144610660E+03   -0.43409E-03   -0.43106E-03  8736   0.660E-02 0.615E-04
CGA:  50    -0.386144732970E+03   -0.12231E-03   -0.12242E-03  8736   0.294E-02 0.127E-05
CGA:  51    -0.386144901991E+03   -0.16902E-03   -0.16896E-03  8736   0.217E-02 0.282E-05
CGA:  52    -0.386145151210E+03   -0.24922E-03   -0.24739E-03  8736   0.379E-02 0.281E-04
SDA:  53    -0.386145256176E+03   -0.10497E-03   -0.10483E-03  8736   0.259E-02 0.180E-05
CGA:  54    -0.386145295200E+03   -0.39025E-04   -0.39037E-04  8736   0.833E-03 0.940E-06
CGA:  55    -0.386145351330E+03   -0.56129E-04   -0.55892E-04  8736   0.121E-02 0.884E-05
CGA:  56    -0.386145469109E+03   -0.11778E-03   -0.11683E-03  8736   0.101E-02 0.188E-04
CGA:  57    -0.386145512442E+03   -0.43333E-04   -0.43344E-04  8736   0.828E-03 0.311E-05
CGA:  58    -0.386145537613E+03   -0.25171E-04   -0.25206E-04  8736   0.947E-03 0.199E-05
CGA:  59    -0.386145596707E+03   -0.59094E-04   -0.58947E-04  8736   0.632E-03 0.767E-05
CGA:  60    -0.386145665498E+03   -0.68791E-04   -0.68572E-04  8736   0.232E-03 0.366E-05
CGA:  61    -0.386145681086E+03   -0.15588E-04   -0.15602E-04  8736   0.654E-03-0.887E-06
CGA:  62    -0.386145702708E+03   -0.21622E-04   -0.21586E-04  8736   0.435E-03-0.243E-05
CGA:  63    -0.386145719843E+03   -0.17134E-04   -0.17104E-04  8736   0.177E-03-0.228E-05
CGA:  64    -0.386145738128E+03   -0.18285E-04   -0.18304E-04  8736   0.256E-03-0.454E-06
CGA:  65    -0.386145758604E+03   -0.20476E-04   -0.20497E-04  8736   0.112E-03-0.815E-06
CGA:  66    -0.386145768827E+03   -0.10222E-04   -0.10202E-04  8736   0.196E-03 0.460E-06
CGA:  67    -0.386145773326E+03   -0.44994E-05   -0.44993E-05  8736   0.142E-03-0.132E-06
CGA:  68    -0.386145787906E+03   -0.14580E-04   -0.14610E-04  8736   0.228E-03-0.654E-06
CGA:  69    -0.386145796833E+03   -0.89276E-05   -0.89303E-05  8736   0.364E-04-0.188E-06
   5 F= -.38614580E+03 E0= -.38612643E+03  d E =-.345049E+00  mag=    34.0000
       N       E                     dE             d eps       ncg     rms          ort
SDA:   1    -0.373635413432E+03    0.12510E+02    0.00000E+00  8736   0.440E+02 0.000E+00
CGA:   2    -0.380519014414E+03   -0.68836E+01   -0.59749E+01  8736   0.153E+02 0.101E+02
CGA:   3    -0.379287679445E+03    0.12313E+01   -0.23430E+01  8736   0.242E+03-0.456E+02
CGA:   4    -0.382452831095E+03   -0.31652E+01   -0.63402E+01  8736   0.136E+03-0.105E+03
CGA:   5    -0.383998072895E+03   -0.15452E+01   -0.14826E+01  8736   0.784E+01-0.252E+01
CGA:   6    -0.384055217222E+03   -0.57144E-01   -0.52974E+00  8736   0.575E+02-0.336E+02
CGA:   7    -0.384749184297E+03   -0.69397E+00   -0.17915E+01  8736   0.692E+01-0.587E+01
CGA:   8    -0.385062271921E+03   -0.31309E+00   -0.19119E+00  8736   0.620E+01 0.241E+01
CGA:   9    -0.385154839078E+03   -0.92567E-01   -0.64685E-01  8736   0.324E+01 0.312E+01
CGA:  10    -0.385231005808E+03   -0.76167E-01   -0.75529E-01  8736   0.354E+01 0.114E-01
CGA:  11    -0.385809933801E+03   -0.57893E+00   -0.54749E+00  8736   0.645E+01 0.323E+00
CGA:  12    -0.386056463616E+03   -0.24653E+00   -0.19101E+00  8736   0.743E+00 0.106E+01
CGA:  13    -0.386070237131E+03   -0.13774E-01   -0.13861E-01  8736   0.253E+00-0.492E-02
CGA:  14    -0.386102764128E+03   -0.32527E-01   -0.32045E-01  8736   0.364E+00 0.685E-02
CGA:  15    -0.386111599153E+03   -0.88350E-02   -0.87373E-02  8736   0.221E+00 0.271E-02
CGA:  16    -0.386120238350E+03   -0.86392E-02   -0.87872E-02  8736   0.931E-01 0.673E-03
CGA:  17    -0.386125702743E+03   -0.54644E-02   -0.54699E-02  8736   0.130E+00-0.101E-02
CGA:  18    -0.386128559293E+03   -0.28565E-02   -0.28887E-02  8736   0.555E-01-0.882E-03
CGA:  19    -0.386133456171E+03   -0.48969E-02   -0.48798E-02  8736   0.572E-01 0.442E-03
CGA:  20    -0.386134822815E+03   -0.13666E-02   -0.13727E-02  8736   0.376E-01-0.118E-03
CGA:  21    -0.386136907302E+03   -0.20845E-02   -0.20840E-02  8736   0.421E-01 0.208E-03
CGA:  22    -0.386138471497E+03   -0.15642E-02   -0.15605E-02  8736   0.214E-01 0.174E-05
CGA:  23    -0.386139144439E+03   -0.67294E-03   -0.67191E-03  8736   0.234E-01 0.950E-05
CGA:  24    -0.386140549803E+03   -0.14054E-02   -0.14044E-02  8736   0.223E-01 0.858E-04
CGA:  25    -0.386141679019E+03   -0.11292E-02   -0.11291E-02  8736   0.255E-01-0.141E-04
CGA:  26    -0.386142225211E+03   -0.54619E-03   -0.54906E-03  8736   0.740E-02-0.856E-04
CGA:  27    -0.386142778961E+03   -0.55375E-03   -0.55331E-03  8736   0.779E-02 0.172E-04
CGA:  28    -0.386142946875E+03   -0.16791E-03   -0.16793E-03  8736   0.451E-02 0.707E-05
CGA:  29    -0.386143385880E+03   -0.43900E-03   -0.43843E-03  8736   0.354E-02 0.129E-04
CGA:  30    -0.386143457456E+03   -0.71576E-04   -0.71651E-04  8736   0.191E-02 0.194E-05
CGA:  31    -0.386143606261E+03   -0.14881E-03   -0.14877E-03  8736   0.232E-02 0.180E-05
CGA:  32    -0.386143701250E+03   -0.94989E-04   -0.95032E-04  8736   0.263E-02 0.176E-05
CGA:  33    -0.386143766870E+03   -0.65620E-04   -0.65615E-04  8736   0.568E-03-0.518E-07
CGA:  34    -0.386143825305E+03   -0.58436E-04   -0.58440E-04  8736   0.241E-02 0.132E-06
CGA:  35    -0.386143892962E+03   -0.67657E-04   -0.67637E-04  8736   0.494E-03-0.581E-06
CGA:  36    -0.386143918226E+03   -0.25264E-04   -0.25265E-04  8736   0.700E-03 0.548E-07
CGA:  37    -0.386143940825E+03   -0.22599E-04   -0.22602E-04  8736   0.528E-03 0.441E-07
CGA:  38    -0.386143965200E+03   -0.24374E-04   -0.24383E-04  8736   0.382E-03 0.155E-05
CGA:  39    -0.386143979636E+03   -0.14437E-04   -0.14446E-04  8736   0.335E-03 0.902E-06
SDA:  40    -0.386143990111E+03   -0.10474E-04   -0.10491E-04  8736   0.225E-03 0.734E-06
CGA:  41    -0.386143994209E+03   -0.40982E-05   -0.40979E-05  8736   0.956E-04-0.206E-06
   6 F= -.38614399E+03 E0= -.38612441E+03  d E =0.180262E-02  mag=    34.0000
       N       E                     dE             d eps       ncg     rms          ort
SDA:   1    -0.331708710681E+03    0.54435E+02    0.00000E+00  8736   0.191E+03 0.000E+00
CGA:   2    -0.346893716908E+03   -0.15185E+02   -0.14071E+02  8736   0.449E+03 0.394E+02
CGA:   3    -0.363089159991E+03   -0.16195E+02   -0.16694E+02  8736   0.368E+03-0.140E+03
CGA:   4    -0.371358763657E+03   -0.82696E+01   -0.80664E+01  8736   0.707E+02-0.523E+01
CGA:   5    -0.376273609024E+03   -0.49148E+01   -0.49574E+01  8736   0.265E+03 0.652E-01
CGA:   6    -0.381305761776E+03   -0.50322E+01   -0.56376E+01  8736   0.116E+03-0.434E+02
CGA:   7    -0.383036627691E+03   -0.17309E+01   -0.18083E+01  8736   0.487E+02-0.845E+01
CGA:   8    -0.383732827950E+03   -0.69620E+00   -0.67012E+00  8736   0.133E+02-0.228E+01
CGA:   9    -0.384083489992E+03   -0.35066E+00   -0.37201E+00  8736   0.178E+02-0.464E-01
CGA:  10    -0.384689538841E+03   -0.60605E+00   -0.62924E+00  8736   0.192E+02 0.863E+00
CGA:  11    -0.385118063280E+03   -0.42852E+00   -0.46535E+00  8736   0.921E+01-0.872E+00
CGA:  12    -0.385262832713E+03   -0.14477E+00   -0.14356E+00  8736   0.374E+01 0.107E-01
CGA:  13    -0.385417393582E+03   -0.15456E+00   -0.15477E+00  8736   0.336E+01-0.127E+00
CGA:  14    -0.385465448438E+03   -0.48055E-01   -0.51877E-01  8736   0.155E+01-0.172E+00
CGA:  15    -0.385534799189E+03   -0.69351E-01   -0.69119E-01  8736   0.241E+01 0.204E-01
CGA:  16    -0.385604408083E+03   -0.69609E-01   -0.71507E-01  8736   0.238E+01 0.280E-01
CGA:  17    -0.385659498837E+03   -0.55091E-01   -0.56163E-01  8736   0.528E+00-0.151E-01
CGA:  18    -0.385670828790E+03   -0.11330E-01   -0.11485E-01  8736   0.392E+00-0.223E-02
CGA:  19    -0.385691890542E+03   -0.21062E-01   -0.20752E-01  8736   0.519E+00 0.155E-01
CGA:  20    -0.385708547338E+03   -0.16657E-01   -0.16770E-01  8736   0.476E+00 0.431E-02
CGA:  21    -0.385722970004E+03   -0.14423E-01   -0.14651E-01  8736   0.229E+00 0.841E-02
CGA:  22    -0.385731567985E+03   -0.85980E-02   -0.85985E-02  8736   0.237E+00 0.507E-03
CGA:  23    -0.385737574213E+03   -0.60062E-02   -0.60857E-02  8736   0.974E-01 0.328E-03
CGA:  24    -0.385745629118E+03   -0.80549E-02   -0.79337E-02  8736   0.297E+00 0.275E-02
CGA:  25    -0.385753572849E+03   -0.79437E-02   -0.79973E-02  8736   0.759E-01 0.278E-03
CGA:  26    -0.385756569307E+03   -0.29965E-02   -0.29961E-02  8736   0.105E+00 0.219E-03
CGA:  27    -0.385762051350E+03   -0.54820E-02   -0.54506E-02  8736   0.120E+00 0.179E-02
CGA:  28    -0.385765379691E+03   -0.33283E-02   -0.33336E-02  8736   0.446E-01 0.789E-04
CGA:  29    -0.385767267796E+03   -0.18881E-02   -0.18860E-02  8736   0.641E-01 0.342E-03
CGA:  30    -0.385769958642E+03   -0.26908E-02   -0.26894E-02  8736   0.513E-01 0.307E-03
CGA:  31    -0.385772269300E+03   -0.23107E-02   -0.23085E-02  8736   0.499E-01 0.238E-03
SDA:  32    -0.385773521106E+03   -0.12518E-02   -0.12517E-02  8736   0.198E-01 0.984E-05
CGA:  33    -0.385773923366E+03   -0.40226E-03   -0.40317E-03  8736   0.145E-01-0.176E-04
CGA:  34    -0.385774772826E+03   -0.84946E-03   -0.84882E-03  8736   0.191E-01 0.259E-04
CGA:  35    -0.385776152895E+03   -0.13801E-02   -0.13847E-02  8736   0.166E-01-0.131E-03
CGA:  36    -0.385776810646E+03   -0.65775E-03   -0.65776E-03  8736   0.765E-02 0.124E-04
CGA:  37    -0.385777250628E+03   -0.43998E-03   -0.43808E-03  8736   0.119E-01 0.878E-04
CGA:  38    -0.385777511480E+03   -0.26085E-03   -0.26081E-03  8736   0.501E-02-0.182E-05
CGA:  39    -0.385778031455E+03   -0.51998E-03   -0.51984E-03  8736   0.323E-02 0.469E-05
CGA:  40    -0.385778184470E+03   -0.15301E-03   -0.15302E-03  8736   0.686E-02-0.271E-05
CGA:  41    -0.385778441866E+03   -0.25740E-03   -0.25731E-03  8736   0.436E-02-0.758E-05
CGA:  42    -0.385778707387E+03   -0.26552E-03   -0.26529E-03  8736   0.149E-02 0.110E-04
CGA:  43    -0.385778789112E+03   -0.81725E-04   -0.81716E-04  8736   0.476E-02 0.342E-05
CGA:  44    -0.385779046032E+03   -0.25692E-03   -0.25689E-03  8736   0.715E-03 0.392E-05
CGA:  45    -0.385779117774E+03   -0.71741E-04   -0.71814E-04  8736   0.238E-02-0.107E-05
CGA:  46    -0.385779174880E+03   -0.57106E-04   -0.57196E-04  8736   0.106E-02-0.173E-05
CGA:  47    -0.385779239444E+03   -0.64564E-04   -0.64566E-04  8736   0.954E-03 0.278E-06
CGA:  48    -0.385779284727E+03   -0.45282E-04   -0.45282E-04  8736   0.703E-03 0.284E-06
CGA:  49    -0.385779307579E+03   -0.22853E-04   -0.22851E-04  8736   0.629E-03 0.963E-06
CGA:  50    -0.385779326857E+03   -0.19278E-04   -0.19308E-04  8736   0.459E-03 0.120E-05
CGA:  51    -0.385779372696E+03   -0.45838E-04   -0.45475E-04  8736   0.171E-03 0.684E-05
CGA:  52    -0.385779378639E+03   -0.59433E-05   -0.59665E-05  8736   0.318E-03 0.162E-05
CGA:  53    -0.385779404013E+03   -0.25374E-04   -0.25081E-04  8736   0.830E-04 0.958E-05
CGA:  54    -0.385779409382E+03   -0.53692E-05   -0.53404E-05  8736   0.153E-03 0.222E-05
   7 F= -.38577941E+03 E0= -.38575958E+03  d E =0.364585E+00  mag=    34.0000
       N       E                     dE             d eps       ncg     rms          ort
SDA:   1    -0.316954441161E+03    0.68825E+02    0.00000E+00  8736   0.471E+03 0.000E+00
CGA:   2    -0.323219754218E+03   -0.62653E+01   -0.14412E+02  8736   0.500E+03-0.454E+02
CGA:   3    -0.349067295514E+03   -0.25848E+02   -0.25119E+02  8736   0.200E+03 0.102E+03
CGA:   4    -0.356547182718E+03   -0.74799E+01   -0.80847E+01  8736   0.432E+03-0.232E+03
CGA:   5    -0.359326913308E+03   -0.27797E+01   -0.10446E+02  8736   0.293E+03-0.229E+03
CGA:   6    -0.363520988286E+03   -0.41941E+01   -0.63032E+01  8736   0.434E+03-0.472E+03
CGA:   7    -0.365113601263E+03   -0.15926E+01   -0.91896E+01  8736   0.285E+03-0.232E+03
CGA:   8    -0.368145797866E+03   -0.30322E+01   -0.52911E+01  8736   0.274E+03-0.305E+03
CGA:   9    -0.369663693788E+03   -0.15179E+01   -0.49334E+01  8736   0.174E+03-0.141E+03
CGA:  10    -0.371795425402E+03   -0.21317E+01   -0.25287E+01  8736   0.777E+02-0.787E+02
CGA:  11    -0.373680383263E+03   -0.18850E+01    0.24452E+00  8736   0.632E+02 0.333E+01
CGA:  12    -0.381965500503E+03   -0.82851E+01   -0.10230E+01  8736   0.123E+03 0.281E+03
CGA:  13    -0.381631810381E+03    0.33369E+00   -0.29122E+01  8736   0.240E+03-0.183E+03
CGA:  14    -0.379509087030E+03    0.21227E+01   -0.67923E+01  8736   0.247E+03-0.163E+03
CGA:  15    -0.377800191604E+03    0.17089E+01   -0.63355E+01  8736   0.473E+03-0.387E+03
CGA:  16    -0.376969480762E+03    0.83071E+00   -0.14077E+02  8736   0.126E+03-0.103E+03
CGA:  17    -0.384288209361E+03   -0.73187E+01   -0.20721E+01  8736   0.521E+01 0.782E+01
CGA:  18    -0.384384046664E+03   -0.95837E-01   -0.10685E+00  8736   0.757E+01-0.548E+00
CGA:  19    -0.384453784875E+03   -0.69738E-01   -0.44370E-01  8736   0.471E+01 0.364E+01
CGA:  20    -0.384502394004E+03   -0.48609E-01   -0.37542E-01  8736   0.163E+01 0.194E+01
CGA:  21    -0.384532525797E+03   -0.30132E-01   -0.30772E-01  8736   0.372E+01-0.335E-01
CGA:  22    -0.384579250557E+03   -0.46725E-01   -0.41548E-01  8736   0.103E+02 0.410E+00
CGA:  23    -0.384691509320E+03   -0.11226E+00   -0.97906E-01  8736   0.169E+02 0.139E+01
CGA:  24    -0.384840125458E+03   -0.14862E+00   -0.15608E+00  8736   0.185E+02 0.128E-01
CGA:  25    -0.384969199678E+03   -0.12907E+00   -0.15336E+00  8736   0.864E+01-0.160E+01
CGA:  26    -0.385009581593E+03   -0.40382E-01   -0.55551E-01  8736   0.165E+01-0.212E+01
CGA:  27    -0.385020911581E+03   -0.11330E-01   -0.11967E-01  8736   0.150E+01-0.578E-01
CGA:  28    -0.385054168479E+03   -0.33257E-01   -0.34201E-01  8736   0.232E+01-0.699E-02
CGA:  29    -0.385080288985E+03   -0.26121E-01   -0.24438E-01  8736   0.126E+01 0.129E+00
CGA:  30    -0.385103253915E+03   -0.22965E-01   -0.22734E-01  8736   0.201E+01 0.661E-02
CGA:  31    -0.385137977705E+03   -0.34724E-01   -0.33896E-01  8736   0.240E+01 0.335E-01
CGA:  32    -0.385165622494E+03   -0.27645E-01   -0.30273E-01  8736   0.142E+01-0.140E+00
CGA:  33    -0.385181668270E+03   -0.16046E-01   -0.16256E-01  8736   0.821E+00-0.145E-01
CGA:  34    -0.385191180473E+03   -0.95122E-02   -0.97819E-02  8736   0.516E+00-0.177E-01
CGA:  35    -0.385200831687E+03   -0.96512E-02   -0.95809E-02  8736   0.764E+00 0.479E-03
CGA:  36    -0.385212598399E+03   -0.11767E-01   -0.11438E-01  8736   0.526E+00 0.127E-01
CGA:  37    -0.385218872014E+03   -0.62736E-02   -0.63173E-02  8736   0.395E+00-0.299E-02
CGA:  38    -0.385226528377E+03   -0.76564E-02   -0.76211E-02  8736   0.642E+00-0.189E-03
CGA:  39    -0.385238713108E+03   -0.12185E-01   -0.12370E-01  8736   0.939E+00-0.451E-03
CGA:  40    -0.385254535688E+03   -0.15823E-01   -0.15950E-01  8736   0.763E+00-0.174E-02
CGA:  41    -0.385262995754E+03   -0.84601E-02   -0.88317E-02  8736   0.301E+00-0.214E-01
CGA:  42    -0.385267569707E+03   -0.45740E-02   -0.45772E-02  8736   0.316E+00-0.162E-03
CGA:  43    -0.385274382753E+03   -0.68130E-02   -0.68052E-02  8736   0.371E+00-0.473E-03
CGA:  44    -0.385280203738E+03   -0.58210E-02   -0.58653E-02  8736   0.311E+00-0.753E-03
CGA:  45    -0.385286784086E+03   -0.65803E-02   -0.65485E-02  8736   0.394E+00-0.167E-02
SDA:  46    -0.385292643565E+03   -0.58595E-02   -0.58620E-02  8736   0.217E+00 0.498E-04
CGA:  47    -0.385297903386E+03   -0.52598E-02   -0.52685E-02  8736   0.820E-01 0.407E-02
CGA:  48    -0.385303400986E+03   -0.54976E-02   -0.55319E-02  8736   0.219E+00-0.938E-03
CGA:  49    -0.385308834629E+03   -0.54336E-02   -0.54265E-02  8736   0.686E-01-0.131E-02
CGA:  50    -0.385312758815E+03   -0.39242E-02   -0.39358E-02  8736   0.665E-01-0.425E-03
CGA:  51    -0.385314485320E+03   -0.17265E-02   -0.17250E-02  8736   0.703E-01-0.223E-03
CGA:  52    -0.385317370621E+03   -0.28853E-02   -0.28775E-02  8736   0.146E-01 0.484E-03
CGA:  53    -0.385317813856E+03   -0.44323E-03   -0.44322E-03  8736   0.192E-01 0.113E-04
CGA:  54    -0.385318627913E+03   -0.81406E-03   -0.81486E-03  8736   0.256E-01-0.492E-04
CGA:  55    -0.385320240049E+03   -0.16121E-02   -0.16157E-02  8736   0.265E-01-0.125E-03
CGA:  56    -0.385320957527E+03   -0.71748E-03   -0.71921E-03  8736   0.195E-01 0.141E-03
CGA:  57    -0.385321404104E+03   -0.44658E-03   -0.44533E-03  8736   0.721E-02-0.985E-05
CGA:  58    -0.385321900224E+03   -0.49612E-03   -0.49171E-03  8736   0.572E-02 0.120E-03
CGA:  59    -0.385322084714E+03   -0.18449E-03   -0.18451E-03  8736   0.815E-02 0.174E-04
CGA:  60    -0.385322370697E+03   -0.28598E-03   -0.28596E-03  8736   0.197E-02 0.170E-04
CGA:  61    -0.385322501233E+03   -0.13054E-03   -0.13017E-03  8736   0.391E-02 0.110E-04
CGA:  62    -0.385322639629E+03   -0.13840E-03   -0.13839E-03  8736   0.483E-02 0.640E-05
CGA:  63    -0.385322788041E+03   -0.14841E-03   -0.14849E-03  8736   0.193E-02 0.137E-04
CGA:  64    -0.385322868789E+03   -0.80748E-04   -0.80771E-04  8736   0.970E-03-0.328E-05
CGA:  65    -0.385322917530E+03   -0.48742E-04   -0.48814E-04  8736   0.293E-02-0.501E-05
CGA:  66    -0.385323051623E+03   -0.13409E-03   -0.13433E-03  8736   0.749E-03-0.218E-04
CGA:  67    -0.385323092785E+03   -0.41162E-04   -0.41168E-04  8736   0.126E-02-0.378E-06
CGA:  68    -0.385323130253E+03   -0.37469E-04   -0.37496E-04  8736   0.129E-02 0.270E-05
CGA:  69    -0.385323187076E+03   -0.56823E-04   -0.56746E-04  8736   0.821E-03 0.103E-04
CGA:  70    -0.385323223060E+03   -0.35984E-04   -0.35918E-04  8736   0.556E-03 0.998E-05
CGA:  71    -0.385323242778E+03   -0.19718E-04   -0.19737E-04  8736   0.866E-03 0.794E-05
CGA:  72    -0.385323275951E+03   -0.33173E-04   -0.33165E-04  8736   0.392E-03 0.153E-04
CGA:  73    -0.385323315080E+03   -0.39128E-04   -0.38205E-04  8736   0.532E-03 0.156E-04
CGA:  74    -0.385323327707E+03   -0.12628E-04   -0.12704E-04  8736   0.360E-03 0.409E-05
CGA:  75    -0.385323340329E+03   -0.12622E-04   -0.12639E-04  8736   0.200E-03 0.353E-05
CGA:  76    -0.385323354041E+03   -0.13711E-04   -0.13698E-04  8736   0.257E-03 0.582E-06
SDA:  77    -0.385323366735E+03   -0.12694E-04   -0.12694E-04  8736   0.189E-03-0.216E-06
CGA:  78    -0.385323369541E+03   -0.28059E-05   -0.28088E-05  8736   0.692E-04-0.305E-07
   8 F= -.38532337E+03 E0= -.38530342E+03  d E =0.456040E+00  mag=    34.0000
       N       E                     dE             d eps       ncg     rms          ort
SDA:   1    -0.320715819386E+03    0.64608E+02    0.00000E+00  8736   0.212E+03 0.000E+00
CGA:   2    -0.352616100621E+03   -0.31900E+02   -0.29351E+02  8736   0.310E+03 0.480E+02
CGA:   3    -0.359633013283E+03   -0.70169E+01   -0.10357E+02  8736   0.475E+03-0.269E+03
CGA:   4    -0.362250607153E+03   -0.26176E+01   -0.10521E+02  8736   0.404E+03-0.314E+03
CGA:   5    -0.364727952104E+03   -0.24773E+01   -0.87374E+01  8736   0.398E+03-0.359E+03
CGA:   6    -0.367627333895E+03   -0.28994E+01   -0.78679E+01  8736   0.289E+03-0.287E+03
CGA:   7    -0.370328034456E+03   -0.27007E+01   -0.52371E+01  8736   0.189E+03-0.201E+03
CGA:   8    -0.372354716539E+03   -0.20267E+01   -0.29136E+01  8736   0.698E+02-0.590E+02
CGA:   9    -0.376047588698E+03   -0.36929E+01   -0.45236E+01  8736   0.259E+03-0.188E+02
CGA:  10    -0.382525272989E+03   -0.64777E+01   -0.67282E+01  8736   0.321E+02 0.632E+01
CGA:  11    -0.383021653305E+03   -0.49638E+00   -0.49692E+00  8736   0.188E+02-0.743E+00
CGA:  12    -0.383578095284E+03   -0.55644E+00   -0.57451E+00  8736   0.130E+02 0.250E+00
CGA:  13    -0.384152442075E+03   -0.57435E+00   -0.57003E+00  8736   0.794E+01 0.982E+00
CGA:  14    -0.384595701130E+03   -0.44326E+00   -0.45839E+00  8736   0.190E+02-0.889E+00
CGA:  15    -0.384863136728E+03   -0.26744E+00   -0.31537E+00  8736   0.268E+01-0.138E+01
CGA:  16    -0.384951676574E+03   -0.88540E-01   -0.90278E-01  8736   0.418E+01 0.170E+00
CGA:  17    -0.385028986964E+03   -0.77310E-01   -0.70429E-01  8736   0.150E+01 0.290E+00
CGA:  18    -0.385093475060E+03   -0.64488E-01   -0.64406E-01  8736   0.107E+01 0.351E-01
CGA:  19    -0.385199216851E+03   -0.10574E+00   -0.10573E+00  8736   0.144E+01 0.220E-02
CGA:  20    -0.385230000568E+03   -0.30784E-01   -0.31689E-01  8736   0.818E+00-0.137E-01
CGA:  21    -0.385249756920E+03   -0.19756E-01   -0.20078E-01  8736   0.258E+00-0.346E-02
CGA:  22    -0.385285403010E+03   -0.35646E-01   -0.33852E-01  8736   0.623E+00 0.218E-01
CGA:  23    -0.385300069523E+03   -0.14667E-01   -0.14631E-01  8736   0.455E+00 0.499E-03
CGA:  24    -0.385322155235E+03   -0.22086E-01   -0.22053E-01  8736   0.298E+00 0.370E-02
CGA:  25    -0.385338655333E+03   -0.16500E-01   -0.16499E-01  8736   0.227E+00 0.707E-04
CGA:  26    -0.385346174102E+03   -0.75188E-02   -0.75620E-02  8736   0.276E+00 0.866E-03
CGA:  27    -0.385355638572E+03   -0.94645E-02   -0.95161E-02  8736   0.180E+00 0.135E-02
CGA:  28    -0.385362995474E+03   -0.73569E-02   -0.73556E-02  8736   0.542E-01-0.130E-03
CGA:  29    -0.385365167032E+03   -0.21716E-02   -0.21731E-02  8736   0.920E-01 0.238E-03
CGA:  30    -0.385368494730E+03   -0.33277E-02   -0.33219E-02  8736   0.744E-01-0.185E-03
CGA:  31    -0.385372825453E+03   -0.43307E-02   -0.43117E-02  8736   0.280E-01 0.964E-03
CGA:  32    -0.385373787739E+03   -0.96229E-03   -0.96271E-03  8736   0.385E-01 0.143E-04
CGA:  33    -0.385375075114E+03   -0.12874E-02   -0.12868E-02  8736   0.154E-01-0.160E-04
CGA:  34    -0.385376056426E+03   -0.98131E-03   -0.97921E-03  8736   0.180E-01 0.783E-04
CGA:  35    -0.385376856140E+03   -0.79971E-03   -0.79966E-03  8736   0.262E-01 0.485E-04
CGA:  36    -0.385377578544E+03   -0.72240E-03   -0.72389E-03  8736   0.117E-01-0.209E-05
CGA:  37    -0.385378095203E+03   -0.51666E-03   -0.51670E-03  8736   0.758E-02-0.402E-05
SDA:  38    -0.385378630735E+03   -0.53553E-03   -0.53420E-03  8736   0.172E-01 0.480E-04
CGA:  39    -0.385378832249E+03   -0.20151E-03   -0.20205E-03  8736   0.212E-02-0.281E-04
CGA:  40    -0.385378979335E+03   -0.14709E-03   -0.14649E-03  8736   0.314E-02 0.214E-04
CGA:  41    -0.385379513977E+03   -0.53464E-03   -0.52470E-03  8736   0.347E-02 0.824E-04
CGA:  42    -0.385379628915E+03   -0.11494E-03   -0.11533E-03  8736   0.235E-02 0.120E-04
CGA:  43    -0.385379731540E+03   -0.10263E-03   -0.10266E-03  8736   0.516E-02 0.484E-05
CGA:  44    -0.385380027318E+03   -0.29578E-03   -0.29570E-03  8736   0.219E-02 0.109E-04
CGA:  45    -0.385380148793E+03   -0.12148E-03   -0.12142E-03  8736   0.114E-02 0.761E-05
CGA:  46    -0.385380214598E+03   -0.65805E-04   -0.65717E-04  8736   0.185E-02 0.101E-04
CGA:  47    -0.385380256445E+03   -0.41847E-04   -0.42035E-04  8736   0.886E-03 0.627E-05
CGA:  48    -0.385380323395E+03   -0.66950E-04   -0.66441E-04  8736   0.994E-03 0.193E-04
CGA:  49    -0.385380363241E+03   -0.39846E-04   -0.39968E-04  8736   0.326E-03 0.119E-04
CGA:  50    -0.385380378386E+03   -0.15146E-04   -0.15171E-04  8736   0.879E-03 0.754E-05
CGA:  51    -0.385380438727E+03   -0.60341E-04   -0.59754E-04  8736   0.244E-03 0.338E-04
CGA:  52    -0.385380450816E+03   -0.12089E-04   -0.12101E-04  8736   0.313E-03 0.538E-05
CGA:  53    -0.385380470349E+03   -0.19533E-04   -0.19443E-04  8736   0.745E-03 0.805E-05
CGA:  54    -0.385380491111E+03   -0.20762E-04   -0.20985E-04  8736   0.167E-03 0.781E-05
CGA:  55    -0.385380503531E+03   -0.12420E-04   -0.12300E-04  8736   0.185E-03 0.502E-05
CGA:  56    -0.385380509660E+03   -0.61295E-05   -0.61749E-05  8736   0.215E-03 0.249E-05
   9 F= -.38538051E+03 E0= -.38536052E+03  d E =-.571401E-01  mag=    34.0000
       N       E                     dE             d eps       ncg     rms          ort
SDA:   1    -0.336761939083E+03    0.48619E+02    0.00000E+00  8736   0.150E+03 0.000E+00
CGA:   2    -0.351860243876E+03   -0.15098E+02   -0.13752E+02  8736   0.289E+03 0.440E+02
CGA:   3    -0.362078442492E+03   -0.10218E+02   -0.12589E+02  8736   0.398E+03-0.154E+03
CGA:   4    -0.364822910082E+03   -0.27445E+01   -0.79048E+01  8736   0.341E+03-0.316E+03
CGA:   5    -0.364661700251E+03    0.16121E+00   -0.74554E+01  8736   0.478E+03-0.365E+03
CGA:   6    -0.366505587732E+03   -0.18439E+01   -0.97352E+01  8736   0.358E+03-0.319E+03
CGA:   7    -0.367554707409E+03   -0.10491E+01   -0.74748E+01  8736   0.465E+03-0.420E+03
CGA:   8    -0.369316289482E+03   -0.17616E+01   -0.91258E+01  8736   0.333E+03-0.320E+03
CGA:   9    -0.371263676038E+03   -0.19474E+01   -0.62649E+01  8736   0.400E+03-0.419E+03
CGA:  10    -0.372708127245E+03   -0.14445E+01   -0.71607E+01  8736   0.254E+03-0.250E+03
CGA:  11    -0.375005203951E+03   -0.22971E+01   -0.39903E+01  8736   0.162E+03-0.210E+03
CGA:  12    -0.376252649553E+03   -0.12474E+01   -0.22752E+01  8736   0.623E+02-0.609E+02
CGA:  13    -0.378146621032E+03   -0.18940E+01   -0.20228E+01  8736   0.934E+02-0.696E+01
CGA:  14    -0.380462976275E+03   -0.23164E+01   -0.24144E+01  8736   0.544E+02 0.132E+01
CGA:  15    -0.381805186548E+03   -0.13422E+01   -0.12583E+01  8736   0.268E+02 0.744E+00
CGA:  16    -0.382800705646E+03   -0.99552E+00   -0.99751E+00  8736   0.311E+02 0.859E+00
CGA:  17    -0.383824322996E+03   -0.10236E+01   -0.10076E+01  8736   0.233E+02-0.804E+00
CGA:  18    -0.384382259276E+03   -0.55794E+00   -0.57260E+00  8736   0.944E+01 0.112E-01
CGA:  19    -0.384576529330E+03   -0.19427E+00   -0.19179E+00  8736   0.328E+01 0.325E-01
CGA:  20    -0.384674222892E+03   -0.97694E-01   -0.98540E-01  8736   0.306E+01 0.409E-01
CGA:  21    -0.384796541222E+03   -0.12232E+00   -0.12238E+00  8736   0.356E+01-0.834E-02
CGA:  22    -0.384904174335E+03   -0.10763E+00   -0.10896E+00  8736   0.180E+01 0.868E-01
CGA:  23    -0.384944532626E+03   -0.40358E-01   -0.40538E-01  8736   0.691E+00-0.221E-02
CGA:  24    -0.384966832762E+03   -0.22300E-01   -0.22363E-01  8736   0.621E+00 0.104E-01
CGA:  25    -0.384991594266E+03   -0.24762E-01   -0.24730E-01  8736   0.659E+00 0.450E-02
CGA:  26    -0.385014939885E+03   -0.23346E-01   -0.23344E-01  8736   0.489E+00 0.123E-01
CGA:  27    -0.385029462962E+03   -0.14523E-01   -0.14549E-01  8736   0.281E+00 0.140E-02
CGA:  28    -0.385038363471E+03   -0.89005E-02   -0.89131E-02  8736   0.197E+00 0.168E-02
CGA:  29    -0.385045572527E+03   -0.72091E-02   -0.72059E-02  8736   0.190E+00 0.111E-02
CGA:  30    -0.385053576383E+03   -0.80039E-02   -0.79813E-02  8736   0.198E+00 0.212E-02
CGA:  31    -0.385060125388E+03   -0.65490E-02   -0.65539E-02  8736   0.115E+00 0.961E-03
CGA:  32    -0.385063425373E+03   -0.33000E-02   -0.33044E-02  8736   0.637E-01 0.224E-03
CGA:  33    -0.385065805539E+03   -0.23802E-02   -0.23790E-02  8736   0.635E-01 0.281E-03
CGA:  34    -0.385068491837E+03   -0.26863E-02   -0.26820E-02  8736   0.597E-01 0.427E-03
CGA:  35    -0.385070329693E+03   -0.18379E-02   -0.18391E-02  8736   0.311E-01 0.127E-03
CGA:  36    -0.385071290555E+03   -0.96086E-03   -0.96129E-03  8736   0.203E-01 0.554E-04
CGA:  37    -0.385072063013E+03   -0.77246E-03   -0.77223E-03  8736   0.183E-01 0.477E-04
CGA:  38    -0.385072735377E+03   -0.67236E-03   -0.67219E-03  8736   0.140E-01 0.615E-04
CGA:  39    -0.385073210509E+03   -0.47513E-03   -0.47520E-03  8736   0.980E-02 0.463E-04
CGA:  40    -0.385073552035E+03   -0.34153E-03   -0.34153E-03  8736   0.713E-02 0.301E-04
CGA:  41    -0.385073805328E+03   -0.25329E-03   -0.25328E-03  8736   0.566E-02 0.248E-04
SDA:  42    -0.385074025589E+03   -0.22026E-03   -0.22012E-03  8736   0.509E-02 0.302E-04
CGA:  43    -0.385074087370E+03   -0.61781E-04   -0.61843E-04  8736   0.923E-03-0.104E-05
CGA:  44    -0.385074314629E+03   -0.22726E-03   -0.24360E-04  8736   0.224E-02 0.115E-03
CGA:  45    -0.385074513358E+03   -0.19873E-03   -0.19853E-03  8736   0.377E-02 0.152E-04
CGA:  46    -0.385074661423E+03   -0.14807E-03   -0.14871E-03  8736   0.128E-02 0.159E-04
CGA:  47    -0.385074686143E+03   -0.24719E-04   -0.24884E-04  8736   0.742E-03 0.195E-05
CGA:  48    -0.385074735931E+03   -0.49789E-04   -0.49721E-04  8736   0.761E-03 0.802E-05
CGA:  49    -0.385074789504E+03   -0.53573E-04   -0.53465E-04  8736   0.464E-03 0.103E-04
CGA:  50    -0.385074809904E+03   -0.20399E-04   -0.20469E-04  8736   0.876E-03 0.368E-05
CGA:  51    -0.385074841878E+03   -0.31975E-04   -0.32129E-04  8736   0.501E-03 0.578E-05
CGA:  52    -0.385074860827E+03   -0.18949E-04   -0.19017E-04  8736   0.378E-03 0.414E-05
CGA:  53    -0.385074906974E+03   -0.46146E-04   -0.45386E-04  8736   0.346E-03 0.125E-04
CGA:  54    -0.385074915538E+03   -0.85639E-05   -0.86312E-05  8736   0.311E-03 0.180E-05
CGA:  55    -0.385074931642E+03   -0.16104E-04   -0.16133E-04  8736   0.275E-03 0.391E-05
CGA:  56    -0.385074948584E+03   -0.16943E-04   -0.16930E-04  8736   0.148E-03 0.501E-05
CGA:  57    -0.385074955887E+03   -0.73027E-05   -0.73249E-05  8736   0.217E-03 0.229E-05
  10 F= -.38507496E+03 E0= -.38505501E+03  d E =0.305554E+00  mag=    34.0000
       N       E                     dE             d eps       ncg     rms          ort
SDA:   1    -0.308753871473E+03    0.76321E+02    0.00000E+00  8736   0.569E+03 0.000E+00
CGA:   2    -0.318132797143E+03   -0.93789E+01   -0.20952E+02  8736   0.223E+03 0.138E+03
CGA:   3    -0.330946094189E+03   -0.12813E+02   -0.12375E+02  8736   0.264E+03 0.568E+02
CGA:   4    -0.351908466122E+03   -0.20962E+02   -0.25287E+02  8736   0.205E+03-0.210E+01
CGA:   5    -0.366885580965E+03   -0.14977E+02   -0.66659E+01  8736   0.414E+03-0.343E+03
CGA:   6    -0.368257643144E+03   -0.13721E+01   -0.10549E+02  8736   0.308E+03-0.189E+03
CGA:   7    -0.376828555997E+03   -0.85709E+01   -0.35606E+01  8736   0.310E+02 0.630E+02
CGA:   8    -0.377597165246E+03   -0.76861E+00   -0.65579E+00  8736   0.626E+02 0.412E+01
CGA:   9    -0.378593783219E+03   -0.99662E+00   -0.10105E+01  8736   0.123E+03-0.177E+02
CGA:  10    -0.377351929054E+03    0.12419E+01   -0.12728E+01  8736   0.202E+03-0.743E+02
CGA:  11    -0.379835995014E+03   -0.24841E+01   -0.39092E+01  8736   0.293E+03-0.976E+02
CGA:  12    -0.380095353950E+03   -0.25936E+00   -0.15951E+01  8736   0.135E+03-0.236E+03
CGA:  13    -0.380506710082E+03   -0.41136E+00   -0.26457E+01  8736   0.257E+03-0.682E+02
CGA:  14    -0.380125083020E+03    0.38163E+00   -0.33163E+01  8736   0.339E+03-0.281E+03
CGA:  15    -0.377882315157E+03    0.22428E+01   -0.54128E+01  8736   0.461E+03-0.303E+03
CGA:  16    -0.377911475941E+03   -0.29161E-01   -0.61892E+01  8736   0.559E+03-0.548E+03
CGA:  17    -0.375798459099E+03    0.21130E+01   -0.92167E+01  8736   0.368E+03-0.290E+03
CGA:  18    -0.380326283701E+03   -0.45278E+01   -0.43576E+01  8736   0.332E+03-0.565E+03
CGA:  19    -0.379723107363E+03    0.60318E+00   -0.45082E+01  8736   0.376E+03-0.331E+03
CGA:  20    -0.380905605114E+03   -0.11825E+01   -0.42133E+01  8736   0.289E+03-0.363E+03
CGA:  21    -0.380954159120E+03   -0.48554E-01   -0.35153E+01  8736   0.272E+03-0.269E+03
CGA:  22    -0.382144366814E+03   -0.11902E+01   -0.26617E+01  8736   0.124E+03-0.194E+03
CGA:  23    -0.382738378101E+03   -0.59401E+00   -0.10671E+01  8736   0.314E+02-0.583E+02
CGA:  24    -0.382978735759E+03   -0.24036E+00   -0.23398E+00  8736   0.293E+01 0.147E+00
CGA:  25    -0.383081791960E+03   -0.10306E+00   -0.10310E+00  8736   0.123E+02-0.361E-02
CGA:  26    -0.384268469030E+03   -0.11867E+01   -0.12021E+01  8736   0.107E+02-0.321E+00
CGA:  27    -0.384353681814E+03   -0.85213E-01   -0.99418E-01  8736   0.197E+01-0.119E+01
CGA:  28    -0.384394382685E+03   -0.40701E-01   -0.41833E-01  8736   0.125E+01 0.235E-01
CGA:  29    -0.384415688455E+03   -0.21306E-01   -0.21041E-01  8736   0.691E+00 0.994E-02
CGA:  30    -0.384436011302E+03   -0.20323E-01   -0.20380E-01  8736   0.799E+00 0.157E-01
CGA:  31    -0.384461731294E+03   -0.25720E-01   -0.25735E-01  8736   0.139E+01-0.115E-01
CGA:  32    -0.384505326012E+03   -0.43595E-01   -0.43403E-01  8736   0.401E+00 0.126E+00
CGA:  33    -0.384513439561E+03   -0.81135E-02   -0.79910E-02  8736   0.448E+00 0.167E-02
CGA:  34    -0.384532242549E+03   -0.18803E-01   -0.18634E-01  8736   0.381E+00 0.999E-02
CGA:  35    -0.384549845405E+03   -0.17603E-01   -0.17813E-01  8736   0.266E+00-0.117E-01
CGA:  36    -0.384568079107E+03   -0.18234E-01   -0.17088E-01  8736   0.360E+00 0.320E-01
CGA:  37    -0.384577150393E+03   -0.90713E-02   -0.92994E-02  8736   0.386E+00 0.177E-02
CGA:  38    -0.384586681987E+03   -0.95316E-02   -0.97137E-02  8736   0.850E-01 0.499E-02
CGA:  39    -0.384591659604E+03   -0.49776E-02   -0.49193E-02  8736   0.574E-01 0.219E-02
CGA:  40    -0.384594652793E+03   -0.29932E-02   -0.29682E-02  8736   0.113E+00 0.121E-02
CGA:  41    -0.384598163438E+03   -0.35106E-02   -0.35178E-02  8736   0.117E+00 0.622E-03
CGA:  42    -0.384601975266E+03   -0.38118E-02   -0.38165E-02  8736   0.355E-01 0.109E-02
CGA:  43    -0.384604130712E+03   -0.21554E-02   -0.21426E-02  8736   0.340E-01 0.452E-03
CGA:  44    -0.384605674945E+03   -0.15442E-02   -0.15434E-02  8736   0.707E-01 0.676E-04
CGA:  45    -0.384607800779E+03   -0.21258E-02   -0.21360E-02  8736   0.244E-01 0.590E-03
CGA:  46    -0.384608938672E+03   -0.11379E-02   -0.11343E-02  8736   0.199E-01 0.251E-03
CGA:  47    -0.384609695585E+03   -0.75691E-03   -0.75683E-03  8736   0.224E-01 0.326E-04
CGA:  48    -0.384610328330E+03   -0.63275E-03   -0.63555E-03  8736   0.174E-01 0.911E-04
CGA:  49    -0.384611331974E+03   -0.10036E-02   -0.10043E-02  8736   0.833E-02-0.228E-04
CGA:  50    -0.384611776775E+03   -0.44480E-03   -0.44506E-03  8736   0.101E-01-0.117E-04
CGA:  51    -0.384612023911E+03   -0.24714E-03   -0.24755E-03  8736   0.778E-02 0.506E-06
CGA:  52    -0.384612502472E+03   -0.47856E-03   -0.47987E-03  8736   0.661E-02-0.409E-04
SDA:  53    -0.384612776632E+03   -0.27416E-03   -0.27401E-03  8736   0.413E-02 0.289E-04
CGA:  54    -0.384612881262E+03   -0.10463E-03   -0.10448E-03  8736   0.285E-02-0.162E-06
CGA:  55    -0.384612999628E+03   -0.11837E-03   -0.11835E-03  8736   0.396E-02 0.313E-05
CGA:  56    -0.384613169727E+03   -0.17010E-03   -0.16995E-03  8736   0.181E-02 0.184E-04
CGA:  57    -0.384613287854E+03   -0.11813E-03   -0.11796E-03  8736   0.207E-02 0.516E-05
CGA:  58    -0.384613474234E+03   -0.18638E-03   -0.18667E-03  8736   0.190E-02-0.604E-05
CGA:  59    -0.384613511466E+03   -0.37232E-04   -0.37213E-04  8736   0.113E-02 0.174E-06
CGA:  60    -0.384613599573E+03   -0.88106E-04   -0.88111E-04  8736   0.663E-03-0.409E-06
CGA:  61    -0.384613659011E+03   -0.59439E-04   -0.59431E-04  8736   0.103E-02-0.447E-07
CGA:  62    -0.384613703639E+03   -0.44627E-04   -0.44628E-04  8736   0.156E-02 0.232E-05
CGA:  63    -0.384613743071E+03   -0.39432E-04   -0.39540E-04  8736   0.261E-03 0.418E-05
CGA:  64    -0.384613764411E+03   -0.21340E-04   -0.20980E-04  8736   0.488E-03 0.985E-05
CGA:  65    -0.384613787341E+03   -0.22929E-04   -0.22937E-04  8736   0.193E-03 0.116E-04
CGA:  66    -0.384613794344E+03   -0.70035E-05   -0.70427E-05  8736   0.345E-03 0.386E-05
CGA:  67    -0.384613817765E+03   -0.23420E-04   -0.23181E-04  8736   0.195E-03 0.119E-04
CGA:  68    -0.384613827853E+03   -0.10089E-04   -0.10072E-04  8736   0.140E-03 0.471E-05
CGA:  69    -0.384613842189E+03   -0.14336E-04   -0.13961E-04  8736   0.292E-03 0.733E-05
CGA:  70    -0.384613850371E+03   -0.81819E-05   -0.82683E-05  8736   0.158E-03 0.356E-05
  11 F= -.38461385E+03 E0= -.38459395E+03  d E =0.461106E+00  mag=    34.0000
       N       E                     dE             d eps       ncg     rms          ort
SDA:   1    -0.314307223912E+03    0.70307E+02    0.00000E+00  8736   0.236E+03 0.000E+00
CGA:   2    -0.340740469417E+03   -0.26433E+02   -0.24292E+02  8736   0.468E+03 0.659E+02
CGA:   3    -0.353373233226E+03   -0.12633E+02   -0.18792E+02  8736   0.298E+03-0.271E+02
CGA:   4    -0.365206813315E+03   -0.11834E+02   -0.78017E+01  8736   0.362E+03-0.265E+03
CGA:   5    -0.362943038901E+03    0.22638E+01   -0.79164E+01  8736   0.357E+03-0.157E+03
CGA:   6    -0.372148038911E+03   -0.92050E+01   -0.56102E+01  8736   0.285E+03-0.185E+03
CGA:   7    -0.370092786611E+03    0.20553E+01   -0.53820E+01  8736   0.521E+03-0.244E+03
CGA:   8    -0.366454920744E+03    0.36379E+01   -0.91401E+01  8736   0.642E+03-0.388E+03
CGA:   9    -0.367661691207E+03   -0.12068E+01   -0.13694E+02  8736   0.120E+03-0.702E+02
CGA:  10    -0.375598090877E+03   -0.79364E+01   -0.14135E+01  8736   0.145E+03 0.335E+03
CGA:  11    -0.376702355757E+03   -0.11043E+01   -0.15195E+01  8736   0.691E+02-0.703E+02
CGA:  12    -0.378038512044E+03   -0.13362E+01   -0.13491E+01  8736   0.309E+02 0.586E+01
CGA:  13    -0.379433720450E+03   -0.13952E+01   -0.15276E+01  8736   0.611E+02-0.117E+02
CGA:  14    -0.380451257910E+03   -0.10175E+01   -0.89878E+00  8736   0.804E+02 0.976E+00
CGA:  15    -0.383327094660E+03   -0.28758E+01   -0.28990E+01  8736   0.172E+02 0.311E+01
CGA:  16    -0.383623482199E+03   -0.29639E+00   -0.24311E+00  8736   0.124E+02 0.285E+01
CGA:  17    -0.383816289353E+03   -0.19281E+00   -0.16736E+00  8736   0.575E+01 0.140E+01
CGA:  18    -0.383875935401E+03   -0.59646E-01   -0.78495E-01  8736   0.406E+01-0.114E+01
CGA:  19    -0.384101984814E+03   -0.22605E+00   -0.21571E+00  8736   0.155E+02 0.314E+00
CGA:  20    -0.384315544675E+03   -0.21356E+00   -0.20302E+00  8736   0.148E+01 0.649E+00
CGA:  21    -0.384356744311E+03   -0.41200E-01   -0.40229E-01  8736   0.709E+00-0.185E-01
CGA:  22    -0.384386678138E+03   -0.29934E-01   -0.29654E-01  8736   0.138E+01 0.243E-01
CGA:  23    -0.384420959808E+03   -0.34282E-01   -0.34517E-01  8736   0.990E+00 0.103E-02
CGA:  24    -0.384473853650E+03   -0.52894E-01   -0.51983E-01  8736   0.748E+00 0.421E-01
CGA:  25    -0.384513553270E+03   -0.39700E-01   -0.42481E-01  8736   0.106E+01-0.128E+00
CGA:  26    -0.384527664799E+03   -0.14112E-01   -0.15006E-01  8736   0.456E+00-0.280E-01
CGA:  27    -0.384546445683E+03   -0.18781E-01   -0.18541E-01  8736   0.525E+00 0.242E-01
CGA:  28    -0.384556715983E+03   -0.10270E-01   -0.10282E-01  8736   0.367E+00-0.380E-03
CGA:  29    -0.384571733627E+03   -0.15018E-01   -0.15063E-01  8736   0.277E+00-0.471E-02
CGA:  30    -0.384577873985E+03   -0.61404E-02   -0.62280E-02  8736   0.270E+00-0.272E-03
CGA:  31    -0.384589032921E+03   -0.11159E-01   -0.11105E-01  8736   0.271E+00 0.546E-02
CGA:  32    -0.384601322958E+03   -0.12290E-01   -0.12406E-01  8736   0.234E+00-0.827E-02
CGA:  33    -0.384605146731E+03   -0.38238E-02   -0.39031E-02  8736   0.972E-01-0.233E-02
CGA:  34    -0.384608868510E+03   -0.37218E-02   -0.37105E-02  8736   0.662E-01 0.169E-02
CGA:  35    -0.384610895079E+03   -0.20266E-02   -0.20269E-02  8736   0.921E-01 0.101E-03
CGA:  36    -0.384614007153E+03   -0.31121E-02   -0.31134E-02  8736   0.408E-01 0.111E-02
CGA:  37    -0.384615740402E+03   -0.17332E-02   -0.17299E-02  8736   0.775E-01 0.312E-03
CGA:  38    -0.384617651146E+03   -0.19107E-02   -0.18964E-02  8736   0.252E-01-0.552E-04
CGA:  39    -0.384618645032E+03   -0.99389E-03   -0.99542E-03  8736   0.270E-01-0.183E-03
CGA:  40    -0.384619232176E+03   -0.58714E-03   -0.58879E-03  8736   0.195E-01-0.173E-04
SDA:  41    -0.384620411803E+03   -0.11796E-02   -0.11716E-02  8736   0.241E-01 0.283E-03
CGA:  42    -0.384620817778E+03   -0.40597E-03   -0.40246E-03  8736   0.571E-02 0.117E-03
CGA:  43    -0.384620999534E+03   -0.18176E-03   -0.18177E-03  8736   0.690E-02 0.644E-05
CGA:  44    -0.384622115450E+03   -0.11159E-02   -0.60331E-06  8736   0.111E-01-0.186E-02
CGA:  45    -0.384622538651E+03   -0.42320E-03   -0.42375E-03  8736   0.778E-02 0.314E-04
CGA:  46    -0.384623151509E+03   -0.61286E-03   -0.61247E-03  8736   0.654E-02 0.191E-04
CGA:  47    -0.384623316905E+03   -0.16540E-03   -0.16481E-03  8736   0.581E-02 0.209E-04
CGA:  48    -0.384623577232E+03   -0.26033E-03   -0.26073E-03  8736   0.287E-02 0.903E-05
CGA:  49    -0.384623753577E+03   -0.17635E-03   -0.17633E-03  8736   0.199E-02 0.978E-05
CGA:  50    -0.384623891204E+03   -0.13763E-03   -0.13753E-03  8736   0.171E-02 0.106E-04
CGA:  51    -0.384623958791E+03   -0.67587E-04   -0.67807E-04  8736   0.544E-03 0.777E-05
CGA:  52    -0.384624040985E+03   -0.82193E-04   -0.80980E-04  8736   0.202E-02 0.139E-04
CGA:  53    -0.384624103150E+03   -0.62165E-04   -0.62433E-04  8736   0.169E-02 0.740E-05
CGA:  54    -0.384624153020E+03   -0.49871E-04   -0.50118E-04  8736   0.572E-03 0.410E-05
CGA:  55    -0.384624198698E+03   -0.45678E-04   -0.45582E-04  8736   0.393E-03 0.466E-05
CGA:  56    -0.384624236607E+03   -0.37908E-04   -0.37804E-04  8736   0.111E-02 0.295E-05
CGA:  57    -0.384624270650E+03   -0.34044E-04   -0.34128E-04  8736   0.719E-03 0.136E-05
CGA:  58    -0.384624289519E+03   -0.18869E-04   -0.18937E-04  8736   0.292E-03 0.151E-05
CGA:  59    -0.384624315519E+03   -0.26000E-04   -0.25840E-04  8736   0.270E-03 0.574E-05
CGA:  60    -0.384624330523E+03   -0.15004E-04   -0.15039E-04  8736   0.165E-03 0.561E-05
CGA:  61    -0.384624336295E+03   -0.57716E-05   -0.58607E-05  8736   0.271E-03 0.336E-05
CGA:  62    -0.384624351722E+03   -0.15427E-04   -0.15467E-04  8736   0.113E-03 0.107E-04
CGA:  63    -0.384624358964E+03   -0.72426E-05   -0.72303E-05  8736   0.100E-03 0.557E-05
  12 F= -.38462436E+03 E0= -.38460484E+03  d E =-.105086E-01  mag=    34.0000
       N       E                     dE             d eps       ncg     rms          ort
SDA:   1    -0.330268770409E+03    0.54356E+02    0.00000E+00  8736   0.165E+03 0.000E+00
CGA:   2    -0.353388927827E+03   -0.23120E+02   -0.22816E+02  8736   0.413E+03 0.126E+02
CGA:   3    -0.363702348019E+03   -0.10313E+02   -0.11172E+02  8736   0.400E+03-0.305E+03
CGA:   4    -0.363935959308E+03   -0.23361E+00   -0.97752E+01  8736   0.472E+03-0.265E+03
CGA:   5    -0.363285533591E+03    0.65043E+00   -0.12831E+02  8736   0.175E+03-0.830E+02
CGA:   6    -0.371655845096E+03   -0.83703E+01   -0.19651E+01  8736   0.158E+03 0.291E+03
CGA:   7    -0.372647370106E+03   -0.99153E+00   -0.26324E+01  8736   0.141E+03-0.104E+03
CGA:   8    -0.373030616513E+03   -0.38325E+00   -0.27007E+01  8736   0.178E+03-0.111E+03
CGA:   9    -0.374120807295E+03   -0.10902E+01   -0.28580E+01  8736   0.135E+03-0.121E+03
CGA:  10    -0.374797011818E+03   -0.67620E+00   -0.23177E+01  8736   0.122E+03-0.904E+02
CGA:  11    -0.375891113146E+03   -0.10941E+01   -0.16970E+01  8736   0.546E+02-0.493E+02
CGA:  12    -0.379094894084E+03   -0.32038E+01   -0.31338E+01  8736   0.102E+03 0.114E+01
CGA:  13    -0.380989241803E+03   -0.18943E+01   -0.20248E+01  8736   0.352E+02-0.941E+01
CGA:  14    -0.381843293911E+03   -0.85405E+00   -0.81964E+00  8736   0.186E+02 0.515E+00
CGA:  15    -0.382441800449E+03   -0.59851E+00   -0.60421E+00  8736   0.201E+02-0.734E-02
CGA:  16    -0.383222993147E+03   -0.78119E+00   -0.78329E+00  8736   0.198E+02 0.162E+00
CGA:  17    -0.383692915380E+03   -0.46992E+00   -0.48476E+00  8736   0.731E+01-0.254E+00
CGA:  18    -0.383845321130E+03   -0.15241E+00   -0.15558E+00  8736   0.271E+01-0.840E-01
CGA:  19    -0.383925292235E+03   -0.79971E-01   -0.81267E-01  8736   0.235E+01 0.101E-01
CGA:  20    -0.384020024099E+03   -0.94732E-01   -0.94865E-01  8736   0.254E+01 0.270E-01
CGA:  21    -0.384102060265E+03   -0.82036E-01   -0.83493E-01  8736   0.145E+01 0.345E-01
CGA:  22    -0.384139405367E+03   -0.37345E-01   -0.37845E-01  8736   0.687E+00-0.394E-02
CGA:  23    -0.384163425419E+03   -0.24020E-01   -0.24091E-01  8736   0.640E+00 0.416E-02
CGA:  24    -0.384190264477E+03   -0.26839E-01   -0.26825E-01  8736   0.645E+00 0.800E-02
CGA:  25    -0.384212262068E+03   -0.21998E-01   -0.22068E-01  8736   0.420E+00 0.317E-02
CGA:  26    -0.384225727891E+03   -0.13466E-01   -0.13536E-01  8736   0.276E+00 0.210E-02
CGA:  27    -0.384235899398E+03   -0.10172E-01   -0.10182E-01  8736   0.234E+00 0.144E-02
CGA:  28    -0.384245076942E+03   -0.91775E-02   -0.91817E-02  8736   0.207E+00 0.219E-02
CGA:  29    -0.384252933770E+03   -0.78568E-02   -0.78607E-02  8736   0.169E+00 0.850E-03
CGA:  30    -0.384259084408E+03   -0.61506E-02   -0.61600E-02  8736   0.118E+00 0.121E-02
CGA:  31    -0.384263010834E+03   -0.39264E-02   -0.39298E-02  8736   0.744E-01 0.166E-03
CGA:  32    -0.384265803639E+03   -0.27928E-02   -0.27942E-02  8736   0.631E-01 0.357E-03
CGA:  33    -0.384268389799E+03   -0.25862E-02   -0.25856E-02  8736   0.543E-01 0.194E-03
CGA:  34    -0.384270254595E+03   -0.18648E-02   -0.18670E-02  8736   0.311E-01 0.168E-03
CGA:  35    -0.384271267928E+03   -0.10133E-02   -0.10139E-02  8736   0.199E-01 0.324E-04
CGA:  36    -0.384272100608E+03   -0.83268E-03   -0.83234E-03  8736   0.199E-01 0.719E-04
CGA:  37    -0.384272913632E+03   -0.81302E-03   -0.81290E-03  8736   0.155E-01 0.413E-04
CGA:  38    -0.384273421528E+03   -0.50790E-03   -0.50834E-03  8736   0.868E-02 0.318E-04
CGA:  39    -0.384273738644E+03   -0.31712E-03   -0.31717E-03  8736   0.707E-02 0.148E-04
CGA:  40    -0.384274053127E+03   -0.31448E-03   -0.31426E-03  8736   0.708E-02 0.291E-04
SDA:  41    -0.384274319250E+03   -0.26612E-03   -0.26616E-03  8736   0.466E-02 0.223E-04
CGA:  42    -0.384274379539E+03   -0.60289E-04   -0.60388E-04  8736   0.873E-03-0.223E-05
CGA:  43    -0.384274675290E+03   -0.29575E-03   -0.10223E-03  8736   0.949E-03 0.350E-03
CGA:  44    -0.384274837774E+03   -0.16248E-03   -0.16155E-03  8736   0.246E-02 0.170E-04
CGA:  45    -0.384274928398E+03   -0.90623E-04   -0.90720E-04  8736   0.135E-02 0.133E-04
CGA:  46    -0.384275034743E+03   -0.10635E-03   -0.10611E-03  8736   0.154E-02 0.223E-04
CGA:  47    -0.384275067874E+03   -0.33131E-04   -0.33633E-04  8736   0.333E-03-0.165E-05
CGA:  48    -0.384275082298E+03   -0.14424E-04   -0.14501E-04  8736   0.578E-03 0.264E-05
CGA:  49    -0.384275109531E+03   -0.27232E-04   -0.27352E-04  8736   0.451E-03 0.538E-05
CGA:  50    -0.384275132193E+03   -0.22662E-04   -0.22738E-04  8736   0.461E-03 0.466E-05
CGA:  51    -0.384275155095E+03   -0.22902E-04   -0.22997E-04  8736   0.502E-03 0.540E-05
CGA:  52    -0.384275179895E+03   -0.24799E-04   -0.24891E-04  8736   0.308E-03 0.586E-05
CGA:  53    -0.384275189406E+03   -0.95109E-05   -0.95831E-05  8736   0.323E-03 0.225E-05
CGA:  54    -0.384275208174E+03   -0.18768E-04   -0.18786E-04  8736   0.323E-03 0.477E-05
CGA:  55    -0.384275217345E+03   -0.91713E-05   -0.92762E-05  8736   0.133E-03 0.244E-05
  13 F= -.38427522E+03 E0= -.38425576E+03  d E =0.349142E+00  mag=    34.0000
       N       E                     dE             d eps       ncg     rms          ort
SDA:   1    -0.310978627206E+03    0.73297E+02    0.00000E+00  8736   0.222E+03 0.000E+00
CGA:   2    -0.334237803897E+03   -0.23259E+02   -0.21905E+02  8736   0.634E+03 0.281E+02
CGA:   3    -0.353527188852E+03   -0.19289E+02   -0.23138E+02  8736   0.430E+03-0.176E+03
CGA:   4    -0.366064852853E+03   -0.12538E+02   -0.72912E+01  8736   0.875E+02 0.310E+02
CGA:   5    -0.371801937365E+03   -0.57371E+01   -0.56769E+01  8736   0.327E+03 0.148E+02
CGA:   6    -0.375992987222E+03   -0.41910E+01   -0.91137E+01  8736   0.343E+03-0.131E+03
CGA:   7    -0.378673521950E+03   -0.26805E+01   -0.28933E+01  8736   0.567E+02-0.275E+02
CGA:   8    -0.379267073371E+03   -0.59355E+00   -0.41995E+00  8736   0.367E+02 0.173E+02
CGA:   9    -0.380030503828E+03   -0.76343E+00   -0.48913E+00  8736   0.596E+02 0.184E+02
CGA:  10    -0.380539653256E+03   -0.50915E+00   -0.75584E+00  8736   0.511E+02-0.198E+02
CGA:  11    -0.381225106156E+03   -0.68545E+00   -0.75984E+00  8736   0.355E+02-0.554E+01
CGA:  12    -0.381558071720E+03   -0.33297E+00   -0.39274E+00  8736   0.395E+02-0.496E+01
CGA:  13    -0.382418631440E+03   -0.86056E+00   -0.10706E+01  8736   0.370E+02 0.617E+00
CGA:  14    -0.382834064538E+03   -0.41543E+00   -0.37981E+00  8736   0.156E+02 0.159E+01
CGA:  15    -0.383096337910E+03   -0.26227E+00   -0.19653E+00  8736   0.448E+01 0.409E+01
CGA:  16    -0.383180033071E+03   -0.83695E-01   -0.73989E-01  8736   0.556E+01 0.519E+00
CGA:  17    -0.383244779476E+03   -0.64746E-01   -0.52895E-01  8736   0.286E+01 0.116E+01
CGA:  18    -0.383271276316E+03   -0.26497E-01   -0.26513E-01  8736   0.265E+01-0.132E-01
CGA:  19    -0.383323035361E+03   -0.51759E-01   -0.53980E-01  8736   0.887E+01-0.434E-01
CGA:  20    -0.383434963721E+03   -0.11193E+00   -0.13537E+00  8736   0.945E+01-0.889E+00
CGA:  21    -0.383525189276E+03   -0.90226E-01   -0.10088E+00  8736   0.564E+01-0.839E+00
CGA:  22    -0.383569856511E+03   -0.44667E-01   -0.49226E-01  8736   0.279E+01-0.430E+00
CGA:  23    -0.383595015396E+03   -0.25159E-01   -0.23818E-01  8736   0.121E+01 0.101E+00
CGA:  24    -0.383606616489E+03   -0.11601E-01   -0.11441E-01  8736   0.780E+00 0.123E-01
CGA:  25    -0.383617584349E+03   -0.10968E-01   -0.10842E-01  8736   0.974E+00 0.463E-02
CGA:  26    -0.383632270051E+03   -0.14686E-01   -0.16052E-01  8736   0.124E+01-0.277E-01
CGA:  27    -0.383648706376E+03   -0.16436E-01   -0.17343E-01  8736   0.719E+00-0.292E-01
CGA:  28    -0.383660998202E+03   -0.12292E-01   -0.12737E-01  8736   0.929E+00-0.198E-02
CGA:  29    -0.383685485608E+03   -0.24487E-01   -0.24512E-01  8736   0.106E+01 0.977E-02
CGA:  30    -0.383706647392E+03   -0.21162E-01   -0.21697E-01  8736   0.698E+00 0.120E-01
CGA:  31    -0.383720354367E+03   -0.13707E-01   -0.13624E-01  8736   0.478E+00-0.806E-03
CGA:  32    -0.383730979972E+03   -0.10626E-01   -0.10696E-01  8736   0.320E+00 0.506E-02
CGA:  33    -0.383737645485E+03   -0.66655E-02   -0.67126E-02  8736   0.241E+00 0.187E-02
CGA:  34    -0.383744598243E+03   -0.69528E-02   -0.69524E-02  8736   0.213E+00 0.815E-04
CGA:  35    -0.383749281665E+03   -0.46834E-02   -0.46846E-02  8736   0.151E+00 0.135E-03
CGA:  36    -0.383754741655E+03   -0.54600E-02   -0.54146E-02  8736   0.244E+00 0.361E-02
CGA:  37    -0.383761336814E+03   -0.65952E-02   -0.65962E-02  8736   0.113E+00 0.240E-02
CGA:  38    -0.383764937822E+03   -0.36010E-02   -0.35856E-02  8736   0.152E+00 0.209E-02
CGA:  39    -0.383770699207E+03   -0.57614E-02   -0.57591E-02  8736   0.818E-01 0.163E-03
SDA:  40    -0.383772251839E+03   -0.15526E-02   -0.15444E-02  8736   0.370E-01-0.454E-04
CGA:  41    -0.383774898702E+03   -0.26469E-02   -0.26100E-02  8736   0.516E-01 0.927E-03
CGA:  42    -0.383776547898E+03   -0.16492E-02   -0.16488E-02  8736   0.277E-01 0.104E-03
CGA:  43    -0.383777696301E+03   -0.11484E-02   -0.11500E-02  8736   0.424E-01-0.954E-04
CGA:  44    -0.383779382686E+03   -0.16864E-02   -0.16864E-02  8736   0.155E-01-0.151E-04
CGA:  45    -0.383780269594E+03   -0.88691E-03   -0.88373E-03  8736   0.142E-01 0.113E-03
CGA:  46    -0.383781110383E+03   -0.84079E-03   -0.83971E-03  8736   0.178E-01 0.455E-04
CGA:  47    -0.383781568335E+03   -0.45795E-03   -0.45914E-03  8736   0.117E-01 0.380E-04
CGA:  48    -0.383782316323E+03   -0.74799E-03   -0.74963E-03  8736   0.175E-01-0.519E-04
[...]
CGA:  30    -0.385274148638E+03   -0.97062E-05   -0.97120E-05  8736   0.166E-03-0.131E-05
 288 F= -.38527415E+03 E0= -.38526188E+03  d E =0.247255E-01  mag=    28.0000
       N       E                     dE             d eps       ncg     rms          ort
SDA:   1    -0.384564610061E+03    0.70953E+00    0.00000E+00  8736   0.269E+01 0.000E+00
CGA:   2    -0.384943287402E+03   -0.37868E+00   -0.38019E+00  8736   0.341E+01-0.275E-01
CGA:   3    -0.385042991748E+03   -0.99704E-01   -0.91175E-01  8736   0.107E+01 0.235E+00
CGA:   4    -0.385179105869E+03   -0.13611E+00   -0.13130E+00  8736   0.124E+01 0.907E-01
CGA:   5    -0.385244355277E+03   -0.65249E-01   -0.66247E-01  8736   0.673E+00 0.854E-02
CGA:   6    -0.385272725209E+03   -0.28370E-01   -0.27005E-01  8736   0.166E+00 0.122E-01
CGA:   7    -0.385280697176E+03   -0.79720E-02   -0.79730E-02  8736   0.166E+00-0.636E-05
CGA:   8    -0.385291690030E+03   -0.10993E-01   -0.10993E-01  8736   0.511E-01 0.122E-03
CGA:   9    -0.385294291490E+03   -0.26015E-02   -0.25965E-02  8736   0.344E-01-0.529E-04
CGA:  10    -0.385295403016E+03   -0.11115E-02   -0.11257E-02  8736   0.131E-01-0.228E-03
CGA:  11    -0.385297164299E+03   -0.17613E-02   -0.17546E-02  8736   0.103E-01 0.963E-04
CGA:  12    -0.385297540492E+03   -0.37619E-03   -0.37504E-03  8736   0.602E-02 0.174E-04
CGA:  13    -0.385297848222E+03   -0.30773E-03   -0.30759E-03  8736   0.239E-02-0.660E-06
CGA:  14    -0.385297995143E+03   -0.14692E-03   -0.14691E-03  8736   0.314E-02 0.116E-05
CGA:  15    -0.385298240252E+03   -0.24511E-03   -0.24499E-03  8736   0.143E-02 0.957E-05
CGA:  16    -0.385298305477E+03   -0.65225E-04   -0.65215E-04  8736   0.112E-02 0.149E-05
CGA:  17    -0.385298357330E+03   -0.51853E-04   -0.51865E-04  8736   0.666E-03 0.633E-06
CGA:  18    -0.385298467914E+03   -0.11058E-03   -0.11011E-03  8736   0.686E-03 0.473E-05
CGA:  19    -0.385298493340E+03   -0.25426E-04   -0.25469E-04  8736   0.505E-03-0.266E-08
CGA:  20    -0.385298527449E+03   -0.34109E-04   -0.34108E-04  8736   0.236E-03-0.605E-06
CGA:  21    -0.385298548085E+03   -0.20637E-04   -0.20639E-04  8736   0.391E-03-0.167E-06
CGA:  22    -0.385298568163E+03   -0.20078E-04   -0.20092E-04  8736   0.170E-03 0.474E-06
CGA:  23    -0.385298577355E+03   -0.91919E-05   -0.91890E-05  8736   0.145E-03-0.166E-06
 289 F= -.38529858E+03 E0= -.38528633E+03  d E =-.244287E-01  mag=    28.0000
       N       E                     dE             d eps       ncg     rms          ort
SDA:   1    -0.384971830180E+03    0.32674E+00    0.00000E+00  8736   0.119E+01 0.000E+00
CGA:   2    -0.385158544202E+03   -0.18671E+00   -0.18719E+00  8736   0.936E+00-0.535E-02
CGA:   3    -0.385197881182E+03   -0.39337E-01   -0.40690E-01  8736   0.656E+00-0.569E-02
CGA:   4    -0.385264469067E+03   -0.66588E-01   -0.66047E-01  8736   0.484E+00 0.129E-01
CGA:   5    -0.385283138595E+03   -0.18670E-01   -0.18868E-01  8736   0.240E+00-0.167E-02
CGA:   6    -0.385293363400E+03   -0.10225E-01   -0.98921E-02  8736   0.641E-01 0.211E-02
CGA:   7    -0.385299293735E+03   -0.59303E-02   -0.58978E-02  8736   0.588E-01 0.105E-02
CGA:   8    -0.385301486372E+03   -0.21926E-02   -0.22327E-02  8736   0.245E-01-0.424E-03
CGA:   9    -0.385302652762E+03   -0.11664E-02   -0.11669E-02  8736   0.128E-01 0.105E-06
CGA:  10    -0.385303175244E+03   -0.52248E-03   -0.52231E-03  8736   0.618E-02-0.101E-05
CGA:  11    -0.385303906276E+03   -0.73103E-03   -0.73158E-03  8736   0.456E-02-0.873E-05
CGA:  12    -0.385304072744E+03   -0.16647E-03   -0.16550E-03  8736   0.225E-02 0.105E-04
CGA:  13    -0.385304186921E+03   -0.11418E-03   -0.11430E-03  8736   0.131E-02 0.193E-05
CGA:  14    -0.385304275770E+03   -0.88849E-04   -0.88840E-04  8736   0.155E-02 0.401E-05
CGA:  15    -0.385304383254E+03   -0.10748E-03   -0.10746E-03  8736   0.418E-03 0.537E-05
CGA:  16    -0.385304406653E+03   -0.23398E-04   -0.23405E-04  8736   0.581E-03 0.718E-06
CGA:  17    -0.385304448891E+03   -0.42239E-04   -0.42234E-04  8736   0.534E-03 0.934E-06
CGA:  18    -0.385304484986E+03   -0.36095E-04   -0.36091E-04  8736   0.383E-03 0.163E-05
CGA:  19    -0.385304503562E+03   -0.18576E-04   -0.18596E-04  8736   0.180E-03 0.115E-05
CGA:  20    -0.385304520540E+03   -0.16978E-04   -0.16989E-04  8736   0.303E-03-0.365E-06
CGA:  21    -0.385304533064E+03   -0.12524E-04   -0.12523E-04  8736   0.165E-03-0.279E-06
CGA:  22    -0.385304546669E+03   -0.13605E-04   -0.13595E-04  8736   0.845E-04 0.559E-06
CGA:  23    -0.385304550442E+03   -0.37730E-05   -0.37708E-05  8736   0.574E-04-0.549E-07
 290 F= -.38530455E+03 E0= -.38529230E+03  d E =-.597309E-02  mag=    28.0000
       N       E                     dE             d eps       ncg     rms          ort
SDA:   1    -0.385290323304E+03    0.14223E-01    0.00000E+00  8736   0.447E+00 0.000E+00
CGA:   2    -0.385298262080E+03   -0.79388E-02   -0.86528E-02  8736   0.258E-01-0.294E-01
CGA:   3    -0.385300693040E+03   -0.24310E-02   -0.24361E-02  8736   0.443E-01-0.119E-03
CGA:   4    -0.385302607203E+03   -0.19142E-02   -0.19233E-02  8736   0.151E-01-0.531E-05
CGA:   5    -0.385303533167E+03   -0.92596E-03   -0.92634E-03  8736   0.107E-01 0.407E-04
CGA:   6    -0.385304169189E+03   -0.63602E-03   -0.63627E-03  8736   0.926E-02 0.148E-04
CGA:   7    -0.385304635075E+03   -0.46589E-03   -0.46541E-03  8736   0.185E-02-0.982E-05
CGA:   8    -0.385304716523E+03   -0.81448E-04   -0.81490E-04  8736   0.127E-02-0.484E-06
CGA:   9    -0.385304797255E+03   -0.80733E-04   -0.80732E-04  8736   0.548E-03 0.340E-06
CGA:  10    -0.385304827194E+03   -0.29939E-04   -0.29951E-04  8736   0.451E-03 0.528E-06
CGA:  11    -0.385304850517E+03   -0.23323E-04   -0.23323E-04  8736   0.144E-03-0.143E-08
CGA:  12    -0.385304858361E+03   -0.78442E-05   -0.78461E-05  8736   0.109E-03 0.234E-06
 291 F= -.38530486E+03 E0= -.38529259E+03  d E =-.307920E-03  mag=    28.0000
       N       E                     dE             d eps       ncg     rms          ort
SDA:   1    -0.385272836429E+03    0.32014E-01    0.00000E+00  8736   0.180E+00 0.000E+00
CGA:   2    -0.385279667098E+03   -0.68307E-02   -0.68451E-02  8736   0.123E+00-0.102E-03
CGA:   3    -0.385293401679E+03   -0.13735E-01   -0.13717E-01  8736   0.131E+00 0.298E-03
CGA:   4    -0.385298573811E+03   -0.51721E-02   -0.51336E-02  8736   0.679E-01 0.179E-03
CGA:   5    -0.385301783779E+03   -0.32100E-02   -0.32231E-02  8736   0.228E-01 0.202E-03
CGA:   6    -0.385304475990E+03   -0.26922E-02   -0.26768E-02  8736   0.819E-02 0.269E-03
CGA:   7    -0.385305078388E+03   -0.60240E-03   -0.60341E-03  8736   0.233E-02-0.715E-04
CGA:   8    -0.385305364886E+03   -0.28650E-03   -0.28640E-03  8736   0.182E-02 0.160E-05
CGA:   9    -0.385305425725E+03   -0.60839E-04   -0.60751E-04  8736   0.975E-03-0.129E-06
CGA:  10    -0.385305490418E+03   -0.64693E-04   -0.64695E-04  8736   0.248E-03-0.161E-05
CGA:  11    -0.385305520099E+03   -0.29681E-04   -0.29568E-04  8736   0.238E-03 0.207E-05
CGA:  12    -0.385305535657E+03   -0.15558E-04   -0.15559E-04  8736   0.165E-03 0.252E-06
CGA:  13    -0.385305541850E+03   -0.61923E-05   -0.61981E-05  8736   0.485E-04 0.163E-06
 292 F= -.38530554E+03 E0= -.38529326E+03  d E =-.683488E-03  mag=    28.0000
       N       E                     dE             d eps       ncg     rms          ort
SDA:   1    -0.385278924863E+03    0.26611E-01    0.00000E+00  8736   0.372E+00 0.000E+00
CGA:   2    -0.385286723219E+03   -0.77984E-02   -0.84344E-02  8736   0.691E-01-0.205E-01
CGA:   3    -0.385294705268E+03   -0.79820E-02   -0.80096E-02  8736   0.161E+00-0.456E-03
CGA:   4    -0.385301368142E+03   -0.66629E-02   -0.66764E-02  8736   0.272E-01-0.942E-04
CGA:   5    -0.385303374619E+03   -0.20065E-02   -0.20088E-02  8736   0.273E-01-0.191E-03
CGA:   6    -0.385304742369E+03   -0.13677E-02   -0.13707E-02  8736   0.159E-01 0.321E-04
CGA:   7    -0.385305439903E+03   -0.69753E-03   -0.69882E-03  8736   0.379E-02 0.920E-06
CGA:   8    -0.385305606785E+03   -0.16688E-03   -0.16734E-03  8736   0.226E-02 0.146E-05
CGA:   9    -0.385305798105E+03   -0.19132E-03   -0.19139E-03  8736   0.143E-02-0.276E-05
CGA:  10    -0.385305863930E+03   -0.65825E-04   -0.65943E-04  8736   0.793E-03 0.891E-06
CGA:  11    -0.385305897133E+03   -0.33203E-04   -0.33189E-04  8736   0.243E-03 0.639E-06
CGA:  12    -0.385305915515E+03   -0.18382E-04   -0.18383E-04  8736   0.298E-03 0.416E-08
CGA:  13    -0.385305932370E+03   -0.16855E-04   -0.16858E-04  8736   0.112E-03 0.460E-06
CGA:  14    -0.385305939533E+03   -0.71632E-05   -0.71631E-05  8736   0.964E-04 0.321E-06
 293 F= -.38530594E+03 E0= -.38529362E+03  d E =-.397684E-03  mag=    28.0000
       N       E                     dE             d eps       ncg     rms          ort
SDA:   1    -0.385251847437E+03    0.54085E-01    0.00000E+00  8736   0.161E+00 0.000E+00
CGA:   2    -0.385270006932E+03   -0.18159E-01   -0.17979E-01  8736   0.412E+00 0.346E-02
CGA:   3    -0.385292156517E+03   -0.22150E-01   -0.22070E-01  8736   0.103E+00-0.173E-02
CGA:   4    -0.385296898169E+03   -0.47417E-02   -0.47529E-02  8736   0.901E-01 0.785E-04
CGA:   5    -0.385302504430E+03   -0.56063E-02   -0.56055E-02  8736   0.452E-01-0.388E-03
CGA:   6    -0.385305017290E+03   -0.25129E-02   -0.25205E-02  8736   0.713E-02 0.414E-03
CGA:   7    -0.385305542207E+03   -0.52492E-03   -0.52476E-03  8736   0.950E-02 0.131E-04
CGA:   8    -0.385306128310E+03   -0.58610E-03   -0.58610E-03  8736   0.220E-02 0.135E-05
CGA:   9    -0.385306241948E+03   -0.11364E-03   -0.11343E-03  8736   0.151E-02-0.420E-05
CGA:  10    -0.385306303314E+03   -0.61366E-04   -0.61479E-04  8736   0.804E-03 0.477E-06
CGA:  11    -0.385306392940E+03   -0.89627E-04   -0.89669E-04  8736   0.522E-03-0.801E-06
CGA:  12    -0.385306410098E+03   -0.17157E-04   -0.17192E-04  8736   0.122E-03 0.305E-06
CGA:  13    -0.385306425147E+03   -0.15049E-04   -0.15029E-04  8736   0.139E-03 0.334E-06
CGA:  14    -0.385306433659E+03   -0.85121E-05   -0.85114E-05  8736   0.112E-03-0.108E-06
 294 F= -.38530643E+03 E0= -.38529407E+03  d E =-.494126E-03  mag=    28.0000
       N       E                     dE             d eps       ncg     rms          ort
SDA:   1    -0.385188049830E+03    0.11838E+00    0.00000E+00  8736   0.429E+00 0.000E+00
CGA:   2    -0.385210066250E+03   -0.22016E-01   -0.21821E-01  8736   0.683E+00-0.371E-02
CGA:   3    -0.385274626026E+03   -0.64560E-01   -0.64696E-01  8736   0.270E+00-0.362E-02
CGA:   4    -0.385287758466E+03   -0.13132E-01   -0.13455E-01  8736   0.155E+00 0.480E-02
CGA:   5    -0.385297276572E+03   -0.95181E-02   -0.95220E-02  8736   0.119E+00 0.477E-03
CGA:   6    -0.385303995221E+03   -0.67186E-02   -0.67126E-02  8736   0.292E-01-0.273E-03
CGA:   7    -0.385304906974E+03   -0.91175E-03   -0.90188E-03  8736   0.142E-01 0.168E-03
CGA:   8    -0.385306434815E+03   -0.15278E-02   -0.15274E-02  8736   0.634E-02 0.119E-04
CGA:   9    -0.385306784916E+03   -0.35010E-03   -0.34986E-03  8736   0.489E-02-0.799E-05
CGA:  10    -0.385307048959E+03   -0.26404E-03   -0.26434E-03  8736   0.103E-02 0.106E-04
CGA:  11    -0.385307168007E+03   -0.11905E-03   -0.11928E-03  8736   0.189E-02-0.440E-05
CGA:  12    -0.385307235700E+03   -0.67693E-04   -0.67697E-04  8736   0.553E-03-0.822E-06
CGA:  13    -0.385307265116E+03   -0.29416E-04   -0.29406E-04  8736   0.233E-03-0.418E-06
CGA:  14    -0.385307278544E+03   -0.13427E-04   -0.13428E-04  8736   0.213E-03 0.162E-06
CGA:  15    -0.385307297664E+03   -0.19121E-04   -0.19080E-04  8736   0.129E-03 0.151E-05
CGA:  16    -0.385307308249E+03   -0.10584E-04   -0.10586E-04  8736   0.698E-04-0.925E-07
CGA:  17    -0.385307311859E+03   -0.36109E-05   -0.36124E-05  8736   0.775E-04 0.972E-07
 295 F= -.38530731E+03 E0= -.38529496E+03  d E =-.878200E-03  mag=    28.0000
       N       E                     dE             d eps       ncg     rms          ort
SDA:   1    -0.382811976147E+03    0.24953E+01    0.00000E+00  8736   0.712E+01 0.000E+00
CGA:   2    -0.383706387558E+03   -0.89441E+00   -0.85050E+00  8736   0.181E+02 0.693E+00
CGA:   3    -0.384631022705E+03   -0.92464E+00   -0.84366E+00  8736   0.361E+01 0.741E+00
CGA:   4    -0.384973631402E+03   -0.34261E+00   -0.33074E+00  8736   0.395E+01 0.415E+00
CGA:   5    -0.385150635760E+03   -0.17700E+00   -0.16966E+00  8736   0.168E+01 0.385E-01
CGA:   6    -0.385243970822E+03   -0.93335E-01   -0.96328E-01  8736   0.485E+00 0.934E-01
CGA:   7    -0.385264122318E+03   -0.20151E-01   -0.19352E-01  8736   0.297E+00 0.791E-02
CGA:   8    -0.385295219233E+03   -0.31097E-01   -0.30677E-01  8736   0.133E+00 0.960E-02
CGA:   9    -0.385300182676E+03   -0.49634E-02   -0.49312E-02  8736   0.729E-01 0.428E-03
CGA:  10    -0.385304512844E+03   -0.43302E-02   -0.43634E-02  8736   0.280E-01 0.226E-02
CGA:  11    -0.385307649805E+03   -0.31370E-02   -0.31642E-02  8736   0.356E-01-0.553E-03
CGA:  12    -0.385308731976E+03   -0.10822E-02   -0.10914E-02  8736   0.908E-02-0.166E-03
CGA:  13    -0.385309292023E+03   -0.56005E-03   -0.56060E-03  8736   0.402E-02 0.672E-04
CGA:  14    -0.385309789772E+03   -0.49775E-03   -0.49584E-03  8736   0.487E-02 0.321E-04
CGA:  15    -0.385309972725E+03   -0.18295E-03   -0.18216E-03  8736   0.268E-02 0.985E-05
CGA:  16    -0.385310149417E+03   -0.17669E-03   -0.17671E-03  8736   0.929E-03 0.823E-05
CGA:  17    -0.385310285604E+03   -0.13619E-03   -0.13600E-03  8736   0.240E-02 0.223E-05
CGA:  18    -0.385310387560E+03   -0.10196E-03   -0.10234E-03  8736   0.784E-03 0.223E-06
CGA:  19    -0.385310446179E+03   -0.58618E-04   -0.58638E-04  8736   0.823E-03-0.145E-05
CGA:  20    -0.385310479795E+03   -0.33616E-04   -0.33746E-04  8736   0.424E-03 0.701E-06
CGA:  21    -0.385310542751E+03   -0.62956E-04   -0.62832E-04  8736   0.239E-03 0.147E-05
CGA:  22    -0.385310556846E+03   -0.14094E-04   -0.14107E-04  8736   0.260E-03 0.741E-06
CGA:  23    -0.385310569322E+03   -0.12476E-04   -0.12479E-04  8736   0.148E-03 0.388E-06
CGA:  24    -0.385310583679E+03   -0.14357E-04   -0.14364E-04  8736   0.863E-04-0.293E-06
CGA:  25    -0.385310590641E+03   -0.69625E-05   -0.69591E-05  8736   0.871E-04 0.308E-06
 296 F= -.38531059E+03 E0= -.38529816E+03  d E =-.327878E-02  mag=    28.0000
       N       E                     dE             d eps       ncg     rms          ort
SDA:   1    -0.384314948233E+03    0.99564E+00    0.00000E+00  8736   0.311E+01 0.000E+00
CGA:   2    -0.384870401361E+03   -0.55545E+00   -0.54735E+00  8736   0.331E+01 0.830E-01
CGA:   3    -0.384984010043E+03   -0.11361E+00   -0.97803E-01  8736   0.152E+01 0.374E+00
CGA:   4    -0.385215703485E+03   -0.23169E+00   -0.23406E+00  8736   0.176E+01-0.367E-01
CGA:   5    -0.385254702466E+03   -0.38999E-01   -0.45994E-01  8736   0.624E+00-0.187E+00
CGA:   6    -0.385280879691E+03   -0.26177E-01   -0.25599E-01  8736   0.188E+00 0.415E-02
CGA:   7    -0.385294965545E+03   -0.14086E-01   -0.14087E-01  8736   0.221E+00-0.507E-03
CGA:   8    -0.385305030519E+03   -0.10065E-01   -0.10086E-01  8736   0.446E-01 0.437E-05
CGA:   9    -0.385307129633E+03   -0.20991E-02   -0.20693E-02  8736   0.350E-01 0.624E-04
CGA:  10    -0.385308816916E+03   -0.16873E-02   -0.16922E-02  8736   0.254E-01 0.992E-05
CGA:  11    -0.385311215900E+03   -0.23990E-02   -0.24035E-02  8736   0.700E-02-0.137E-03
CGA:  12    -0.385311485113E+03   -0.26921E-03   -0.26872E-03  8736   0.434E-02 0.622E-05
CGA:  13    -0.385311845331E+03   -0.36022E-03   -0.36000E-03  8736   0.489E-02 0.121E-04
CGA:  14    -0.385312042521E+03   -0.19719E-03   -0.19717E-03  8736   0.257E-02 0.513E-05
CGA:  15    -0.385312218157E+03   -0.17564E-03   -0.17564E-03  8736   0.962E-03-0.140E-05
CGA:  16    -0.385312302157E+03   -0.84000E-04   -0.83912E-04  8736   0.108E-02 0.430E-05
CGA:  17    -0.385312353092E+03   -0.50936E-04   -0.50936E-04  8736   0.810E-03 0.107E-05
CGA:  18    -0.385312413860E+03   -0.60767E-04   -0.60764E-04  8736   0.887E-03 0.691E-06
CGA:  19    -0.385312452074E+03   -0.38214E-04   -0.38282E-04  8736   0.346E-03 0.113E-05
CGA:  20    -0.385312485155E+03   -0.33081E-04   -0.33026E-04  8736   0.294E-03 0.170E-05
CGA:  21    -0.385312508827E+03   -0.23672E-04   -0.23659E-04  8736   0.338E-03 0.935E-06
CGA:  22    -0.385312522001E+03   -0.13174E-04   -0.13180E-04  8736   0.155E-03 0.801E-07
CGA:  23    -0.385312534777E+03   -0.12776E-04   -0.12769E-04  8736   0.236E-03 0.436E-06
CGA:  24    -0.385312546843E+03   -0.12067E-04   -0.12081E-04  8736   0.580E-04 0.795E-06
CGA:  25    -0.385312552754E+03   -0.59110E-05   -0.59239E-05  8736   0.683E-04-0.376E-06
 297 F= -.38531255E+03 E0= -.38530013E+03  d E =-.196211E-02  mag=    28.0000
       N       E                     dE             d eps       ncg     rms          ort
SDA:   1    -0.385152638810E+03    0.15991E+00    0.00000E+00  8736   0.932E+00 0.000E+00
CGA:   2    -0.385183384650E+03   -0.30746E-01   -0.32004E-01  8736   0.719E+00-0.178E-01
CGA:   3    -0.385254703230E+03   -0.71319E-01   -0.72469E-01  8736   0.454E+00-0.277E-01
CGA:   4    -0.385279018150E+03   -0.24315E-01   -0.24622E-01  8736   0.264E+00 0.743E-02
CGA:   5    -0.385293023409E+03   -0.14005E-01   -0.13911E-01  8736   0.210E+00-0.966E-03
CGA:   6    -0.385306702460E+03   -0.13679E-01   -0.13681E-01  8736   0.103E+00 0.441E-03
CGA:   7    -0.385309820763E+03   -0.31183E-02   -0.30596E-02  8736   0.198E-01 0.118E-02
CGA:   8    -0.385311696641E+03   -0.18759E-02   -0.18761E-02  8736   0.156E-01-0.632E-05
CGA:   9    -0.385312764593E+03   -0.10680E-02   -0.10680E-02  8736   0.109E-01-0.395E-05
CGA:  10    -0.385313150764E+03   -0.38617E-03   -0.38969E-03  8736   0.247E-02-0.423E-04
CGA:  11    -0.385313295988E+03   -0.14522E-03   -0.14521E-03  8736   0.313E-02-0.135E-05
CGA:  12    -0.385313501531E+03   -0.20554E-03   -0.20553E-03  8736   0.119E-02 0.427E-05
CGA:  13    -0.385313593515E+03   -0.91984E-04   -0.92017E-04  8736   0.719E-03-0.253E-05
CGA:  14    -0.385313620260E+03   -0.26745E-04   -0.26770E-04  8736   0.298E-03-0.197E-06
CGA:  15    -0.385313645978E+03   -0.25718E-04   -0.25707E-04  8736   0.463E-03 0.273E-06
CGA:  16    -0.385313668040E+03   -0.22062E-04   -0.22068E-04  8736   0.184E-03-0.165E-06
CGA:  17    -0.385313682165E+03   -0.14125E-04   -0.14123E-04  8736   0.108E-03 0.884E-07
CGA:  18    -0.385313688972E+03   -0.68071E-05   -0.68075E-05  8736   0.112E-03 0.393E-06
 298 F= -.38531369E+03 E0= -.38530132E+03  d E =-.113622E-02  mag=    28.0000
       N       E                     dE             d eps       ncg     rms          ort
SDA:   1    -0.385231759252E+03    0.81923E-01    0.00000E+00  8736   0.298E+00 0.000E+00
CGA:   2    -0.385249364080E+03   -0.17605E-01   -0.17572E-01  8736   0.513E+00-0.232E-02
CGA:   3    -0.385286860297E+03   -0.37496E-01   -0.37508E-01  8736   0.238E+00-0.817E-03
CGA:   4    -0.385297885140E+03   -0.11025E-01   -0.10958E-01  8736   0.143E+00-0.465E-03
CGA:   5    -0.385306615522E+03   -0.87304E-02   -0.87250E-02  8736   0.744E-01-0.878E-03
CGA:   6    -0.385311863800E+03   -0.52483E-02   -0.52303E-02  8736   0.157E-01 0.154E-02
CGA:   7    -0.385313371697E+03   -0.15079E-02   -0.15071E-02  8736   0.552E-02 0.218E-04
CGA:   8    -0.385314126235E+03   -0.75454E-03   -0.75602E-03  8736   0.340E-02-0.209E-04
CGA:   9    -0.385314250985E+03   -0.12475E-03   -0.12441E-03  8736   0.141E-02 0.260E-05
CGA:  10    -0.385314372528E+03   -0.12154E-03   -0.12152E-03  8736   0.864E-03 0.640E-06
CGA:  11    -0.385314422225E+03   -0.49697E-04   -0.49703E-04  8736   0.971E-03 0.102E-06
CGA:  12    -0.385314464320E+03   -0.42095E-04   -0.42077E-04  8736   0.241E-03-0.206E-06
CGA:  13    -0.385314482819E+03   -0.18500E-04   -0.18505E-04  8736   0.949E-04-0.420E-06
CGA:  14    -0.385314497060E+03   -0.14241E-04   -0.14145E-04  8736   0.109E-03 0.114E-05
CGA:  15    -0.385314502457E+03   -0.53969E-05   -0.54054E-05  8736   0.983E-04 0.341E-06
 299 F= -.38531450E+03 E0= -.38530212E+03  d E =-.813485E-03  mag=    28.0000
