       N       E                     dE             d eps       ncg     rms          ort
DAV:   1     0.541471543171E+04    0.54147E+04   -0.27070E+05  7904   0.160E+03
DAV:   2     0.169912807879E+03   -0.52448E+04   -0.48841E+04  7904   0.450E+02
DAV:   3    -0.383416478941E+03   -0.55333E+03   -0.54441E+03  7904   0.161E+02
DAV:   4    -0.395593691736E+03   -0.12177E+02   -0.12111E+02  7904   0.253E+01
DAV:   5    -0.395907688245E+03   -0.31400E+00   -0.31370E+00  7904   0.333E+00
SDA:   6    -0.162145196417E+03    0.23376E+03   -0.31370E+00  7904   0.103E+04 0.000E+00
CGA:   7    -0.250226220867E+03   -0.88081E+02   -0.11510E+03  7904   0.111E+04 0.309E+02
CGA:   8    -0.279223537463E+03   -0.28997E+02   -0.25706E+02  7904   0.963E+03 0.107E+03
CGA:   9    -0.286498611823E+03   -0.72751E+01   -0.32158E+02  7904   0.598E+03 0.122E+02
CGA:  10    -0.265511049193E+03    0.20988E+02   -0.17354E+02  7904   0.237E+04-0.775E+03
CGA:  11    -0.280153238884E+03   -0.14642E+02   -0.78206E+02  7904   0.111E+04-0.284E+03
CGA:  12    -0.300503525420E+03   -0.20350E+02   -0.24468E+02  7904   0.345E+03 0.610E+02
CGA:  13    -0.307878630208E+03   -0.73751E+01   -0.12878E+02  7904   0.986E+03-0.651E+03
CGA:  14    -0.303139034717E+03    0.47396E+01   -0.54947E+02  7904   0.363E+03-0.204E+03
CGA:  15    -0.310284574308E+03   -0.71455E+01   -0.43265E+01  7904   0.260E+03 0.235E+03
CGA:  16    -0.306871546681E+03    0.34130E+01   -0.52931E+01  7904   0.201E+04-0.699E+03
CGA:  17    -0.295159314751E+03    0.11712E+02   -0.87350E+02  7904   0.829E+03-0.290E+03
CGA:  18    -0.311886622908E+03   -0.16727E+02   -0.18881E+02  7904   0.389E+03-0.455E+03
CGA:  19    -0.290037242520E+03    0.21849E+02   -0.17717E+02  7904   0.269E+03-0.110E+03
CGA:  20    -0.296424999255E+03   -0.63878E+01   -0.11363E+01  7904   0.125E+04 0.119E+04
CGA:  21    -0.293854651661E+03    0.25703E+01   -0.39889E+02  7904   0.196E+04-0.242E+03
CGA:  22    -0.310932752077E+03   -0.17078E+02   -0.42778E+02  7904   0.627E+03 0.367E+03
CGA:  23    -0.304979732216E+03    0.59530E+01   -0.32243E+02  7904   0.249E+03-0.792E+02
CGA:  24    -0.319659512607E+03   -0.14680E+02   -0.30576E+01  7904   0.495E+03-0.179E+03
CGA:  25    -0.317079162934E+03    0.25803E+01   -0.18320E+02  7904   0.332E+03-0.145E+03
CGA:  26    -0.310986519763E+03    0.60926E+01   -0.57789E+01  7904   0.944E+03-0.197E+03
CGA:  27    -0.307744368918E+03    0.32422E+01   -0.33182E+02  7904   0.383E+03-0.201E+03
CGA:  28    -0.322098909171E+03   -0.14355E+02   -0.74456E+01  7904   0.301E+03 0.151E+03
CGA:  29    -0.304732375046E+03    0.17367E+02   -0.10421E+02  7904   0.398E+03-0.332E+02
CGA:  30    -0.316540571645E+03   -0.11808E+02   -0.90084E+01  7904   0.455E+03-0.586E+03
CGA:  31    -0.307381562087E+03    0.91590E+01   -0.10794E+02  7904   0.866E+03-0.576E+03
CGA:  32    -0.303915975061E+03    0.34656E+01   -0.22617E+02  7904   0.763E+03-0.494E+03
CGA:  33    -0.309576402366E+03   -0.56604E+01   -0.23073E+02  7904   0.779E+03-0.674E+03
CGA:  34    -0.315957685699E+03   -0.63813E+01   -0.21784E+02  7904   0.829E+03-0.107E+04
CGA:  35    -0.308429473467E+03    0.75282E+01   -0.22943E+02  7904   0.721E+03-0.637E+03
CGA:  36    -0.310937819659E+03   -0.25083E+01   -0.17229E+02  7904   0.843E+03-0.818E+03
CGA:  37    -0.313278793707E+03   -0.23410E+01   -0.22184E+02  7904   0.834E+03-0.755E+03
CGA:  38    -0.315667375548E+03   -0.23886E+01   -0.21541E+02  7904   0.665E+03-0.729E+03
CGA:  39    -0.316990486880E+03   -0.13231E+01   -0.14933E+02  7904   0.518E+03-0.558E+03
CGA:  40    -0.319200510118E+03   -0.22100E+01   -0.10772E+02  7904   0.546E+03-0.588E+03
CGA:  41    -0.320445066847E+03   -0.12446E+01   -0.93519E+01  7904   0.566E+03-0.530E+03
CGA:  42    -0.317460578129E+03    0.29845E+01   -0.11005E+02  7904   0.551E+03-0.467E+03
CGA:  43    -0.319100598660E+03   -0.16400E+01   -0.93750E+01  7904   0.753E+03-0.711E+03
CGA:  44    -0.317902263858E+03    0.11983E+01   -0.14842E+02  7904   0.505E+03-0.430E+03
CGA:  45    -0.327227987468E+03   -0.93257E+01   -0.74855E+01  7904   0.929E+03-0.135E+04
CGA:  46    -0.321105554916E+03    0.61224E+01   -0.17875E+02  7904   0.554E+03-0.327E+03
CGA:  47    -0.331898377774E+03   -0.10793E+02   -0.46283E+01  7904   0.168E+03 0.948E+02
CGA:  48    -0.331513958241E+03    0.38442E+00   -0.18359E+01  7904   0.409E+03-0.272E+03
CGA:  49    -0.327396709119E+03    0.41172E+01   -0.63351E+01  7904   0.678E+03-0.383E+03
CGA:  50    -0.323722938640E+03    0.36738E+01   -0.86696E+01  7904   0.130E+04-0.100E+04
CGA:  51    -0.320639225974E+03    0.30837E+01   -0.22805E+02  7904   0.346E+03-0.272E+03
CGA:  52    -0.328803182241E+03   -0.81640E+01   -0.24362E+01  7904   0.595E+03 0.770E+03
CGA:  53    -0.328813129085E+03   -0.99468E-02   -0.63026E+01  7904   0.914E+03-0.908E+03
CGA:  54    -0.324127779494E+03    0.46853E+01   -0.13993E+02  7904   0.493E+03-0.343E+03
CGA:  55    -0.332143968003E+03   -0.80162E+01   -0.26986E+01  7904   0.293E+03 0.434E+03
CGA:  56    -0.333272572321E+03   -0.11286E+01   -0.22657E+01  7904   0.138E+03-0.224E+03
CGA:  57    -0.333467463505E+03   -0.19489E+00   -0.11637E+01  7904   0.892E+02-0.104E+03
CGA:  58    -0.333901341841E+03   -0.43388E+00   -0.46830E+00  7904   0.222E+01-0.107E+02
CGA:  59    -0.333920702323E+03   -0.19360E-01   -0.19910E-01  7904   0.164E+01-0.407E-01
CGA:  60    -0.334078158209E+03   -0.15746E+00   -0.17359E+00  7904   0.242E+02-0.263E+00
CGA:  61    -0.334143402750E+03   -0.65245E-01   -0.34990E-01  7904   0.212E+02 0.175E+02
CGA:  62    -0.334241650550E+03   -0.98248E-01   -0.12353E+00  7904   0.185E+01-0.406E+01
CGA:  63    -0.334258445422E+03   -0.16795E-01   -0.16822E-01  7904   0.825E+00-0.186E-02
CGA:  64    -0.334286222405E+03   -0.27777E-01   -0.27659E-01  7904   0.291E+01 0.184E-01
CGA:  65    -0.334395525704E+03   -0.10930E+00   -0.11789E+00  7904   0.100E+02-0.754E+00
CGA:  66    -0.334411682903E+03   -0.16157E-01   -0.87117E-02  7904   0.916E+01 0.633E+01
CGA:  67    -0.334463240638E+03   -0.51558E-01   -0.55001E-01  7904   0.113E+01-0.530E+00
CGA:  68    -0.334478587235E+03   -0.15347E-01   -0.15095E-01  7904   0.507E+00 0.862E-02
CGA:  69    -0.334487535703E+03   -0.89485E-02   -0.90125E-02  7904   0.694E+00-0.320E-03
CGA:  70    -0.334529595616E+03   -0.42060E-01   -0.40258E-01  7904   0.173E+01 0.502E-01
CGA:  71    -0.334552031105E+03   -0.22435E-01   -0.23878E-01  7904   0.122E+01-0.595E-01
CGA:  72    -0.334579507134E+03   -0.27476E-01   -0.26800E-01  7904   0.107E+01-0.406E-01
CGA:  73    -0.334605990853E+03   -0.26484E-01   -0.26526E-01  7904   0.203E+01 0.136E-01
CGA:  74    -0.334641362743E+03   -0.35372E-01   -0.34670E-01  7904   0.485E+00 0.215E-01
CGA:  75    -0.334646414420E+03   -0.50517E-02   -0.53299E-02  7904   0.165E+00-0.158E-01
CGA:  76    -0.334648760574E+03   -0.23462E-02   -0.23825E-02  7904   0.889E-01-0.920E-03
CGA:  77    -0.334651474122E+03   -0.27135E-02   -0.26841E-02  7904   0.206E+00 0.344E-02
CGA:  78    -0.334657125186E+03   -0.56511E-02   -0.56339E-02  7904   0.229E+00 0.928E-02
CGA:  79    -0.334661499092E+03   -0.43739E-02   -0.44558E-02  7904   0.184E+00 0.147E-02
CGA:  80    -0.334664603020E+03   -0.31039E-02   -0.31115E-02  7904   0.856E-01-0.133E-03
CGA:  81    -0.334665926618E+03   -0.13236E-02   -0.13355E-02  7904   0.609E-01-0.296E-03
CGA:  82    -0.334667799192E+03   -0.18726E-02   -0.18719E-02  7904   0.113E+00-0.751E-04
CGA:  83    -0.334670251504E+03   -0.24523E-02   -0.24642E-02  7904   0.666E-01 0.130E-02
CGA:  84    -0.334671137090E+03   -0.88559E-03   -0.88457E-03  7904   0.270E-01-0.229E-03
CGA:  85    -0.334671802028E+03   -0.66494E-03   -0.66478E-03  7904   0.398E-01-0.713E-06
CGA:  86    -0.334672878763E+03   -0.10767E-02   -0.10776E-02  7904   0.440E-01-0.293E-03
CGA:  87    -0.334673683218E+03   -0.80445E-03   -0.80800E-03  7904   0.307E-01-0.585E-04
CGA:  88    -0.334674335003E+03   -0.65179E-03   -0.65164E-03  7904   0.265E-01-0.139E-03
CGA:  89    -0.334674826634E+03   -0.49163E-03   -0.49323E-03  7904   0.159E-01-0.269E-04
CGA:  90    -0.334675134266E+03   -0.30763E-03   -0.30765E-03  7904   0.143E-01-0.571E-04
CGA:  91    -0.334675552656E+03   -0.41839E-03   -0.41735E-03  7904   0.207E-01 0.919E-04
CGA:  92    -0.334675982755E+03   -0.43010E-03   -0.42995E-03  7904   0.130E-01-0.760E-04
CGA:  93    -0.334676205466E+03   -0.22271E-03   -0.22338E-03  7904   0.829E-02-0.184E-04
CGA:  94    -0.334676425955E+03   -0.22049E-03   -0.22056E-03  7904   0.124E-01-0.243E-04
CGA:  95    -0.334676798988E+03   -0.37303E-03   -0.37061E-03  7904   0.150E-01 0.250E-03
CGA:  96    -0.334677076911E+03   -0.27792E-03   -0.27766E-03  7904   0.838E-02-0.236E-04
SDA:  97    -0.334677245199E+03   -0.16829E-03   -0.16869E-03  7904   0.696E-02 0.386E-04
CGA:  98    -0.334677295341E+03   -0.50142E-04   -0.50151E-04  7904   0.139E-02-0.143E-05
CGA:  99    -0.334677448215E+03   -0.15287E-03   -0.15163E-03  7904   0.411E-02 0.132E-04
CGA: 100    -0.334677648115E+03   -0.19990E-03   -0.19859E-03  7904   0.501E-02 0.611E-04
CGA: 101    -0.334677811158E+03   -0.16304E-03   -0.16274E-03  7904   0.686E-02 0.657E-04
CGA: 102    -0.334677918157E+03   -0.10700E-03   -0.10862E-03  7904   0.595E-02 0.168E-04
CGA: 103    -0.334678185952E+03   -0.26779E-03   -0.26798E-03  7904   0.828E-02 0.360E-05
CGA: 104    -0.334678431753E+03   -0.24580E-03   -0.24564E-03  7904   0.114E-01 0.116E-03
CGA: 105    -0.334678628021E+03   -0.19627E-03   -0.19828E-03  7904   0.174E-02 0.799E-04
CGA: 106    -0.334678783603E+03   -0.15558E-03   -0.14939E-03  7904   0.130E-01 0.116E-03
CGA: 107    -0.334679041352E+03   -0.25775E-03   -0.25620E-03  7904   0.225E-02 0.111E-03
CGA: 108    -0.334679124231E+03   -0.82879E-04   -0.82499E-04  7904   0.649E-02 0.426E-04
CGA: 109    -0.334679356077E+03   -0.23185E-03   -0.23324E-03  7904   0.621E-02-0.181E-03
CGA: 110    -0.334679518452E+03   -0.16238E-03   -0.16307E-03  7904   0.877E-02 0.637E-04
CGA: 111    -0.334679723357E+03   -0.20490E-03   -0.20487E-03  7904   0.362E-02-0.305E-04
CGA: 112    -0.334679812708E+03   -0.89351E-04   -0.89493E-04  7904   0.457E-02-0.159E-04
CGA: 113    -0.334679999838E+03   -0.18713E-03   -0.18728E-03  7904   0.872E-02-0.339E-04
CGA: 114    -0.334680231723E+03   -0.23189E-03   -0.23246E-03  7904   0.467E-02-0.208E-04
CGA: 115    -0.334680309649E+03   -0.77926E-04   -0.77093E-04  7904   0.206E-02-0.431E-04
CGA: 116    -0.334680373730E+03   -0.64081E-04   -0.64084E-04  7904   0.300E-02-0.152E-04
CGA: 117    -0.334680579306E+03   -0.20558E-03   -0.20829E-03  7904   0.911E-02-0.672E-04
CGA: 118    -0.334680732482E+03   -0.15318E-03   -0.15593E-03  7904   0.185E-02-0.117E-03
CGA: 119    -0.334680804051E+03   -0.71569E-04   -0.71234E-04  7904   0.333E-02 0.292E-04
CGA: 120    -0.334680894447E+03   -0.90396E-04   -0.90747E-04  7904   0.244E-02 0.363E-04
CGA: 121    -0.334680991067E+03   -0.96621E-04   -0.96201E-04  7904   0.262E-02 0.459E-04
CGA: 122    -0.334681056379E+03   -0.65311E-04   -0.65829E-04  7904   0.158E-02 0.391E-04
CGA: 123    -0.334681111894E+03   -0.55515E-04   -0.55329E-04  7904   0.259E-02 0.455E-04
CGA: 124    -0.334681286914E+03   -0.17502E-03   -0.17101E-03  7904   0.297E-02 0.122E-03
CGA: 125    -0.334681345454E+03   -0.58540E-04   -0.60034E-04  7904   0.129E-02 0.274E-04
CGA: 126    -0.334681391790E+03   -0.46336E-04   -0.46153E-04  7904   0.158E-02 0.510E-04
CGA: 127    -0.334681479897E+03   -0.88107E-04   -0.85885E-04  7904   0.297E-02 0.109E-03
SDA: 128    -0.334681542897E+03   -0.63000E-04   -0.63818E-04  7904   0.110E-02 0.578E-04
CGA: 129    -0.334681557496E+03   -0.14599E-04   -0.14624E-04  7904   0.627E-03 0.980E-06
CGA: 130    -0.334681615012E+03   -0.57516E-04   -0.57450E-04  7904   0.192E-02 0.111E-05
CGA: 131    -0.334681677759E+03   -0.62747E-04   -0.62730E-04  7904   0.116E-02-0.212E-05
CGA: 132    -0.334681725959E+03   -0.48200E-04   -0.48133E-04  7904   0.119E-02 0.658E-05
CGA: 133    -0.334681755368E+03   -0.29408E-04   -0.29321E-04  7904   0.123E-02-0.621E-05
CGA: 134    -0.334681847376E+03   -0.92008E-04   -0.94314E-04  7904   0.175E-02-0.525E-04
CGA: 135    -0.334681884233E+03   -0.36857E-04   -0.36818E-04  7904   0.121E-02-0.108E-04
CGA: 136    -0.334681905345E+03   -0.21112E-04   -0.20982E-04  7904   0.460E-03-0.232E-05
CGA: 137    -0.334681997985E+03   -0.92639E-04   -0.21008E-05  7904   0.114E-02-0.469E-04
CGA: 138    -0.334682013636E+03   -0.15651E-04   -0.15279E-04  7904   0.505E-03 0.204E-04
CGA: 139    -0.334682042840E+03   -0.29203E-04   -0.29210E-04  7904   0.126E-02 0.208E-05
CGA: 140    -0.334682081007E+03   -0.38167E-04   -0.38341E-04  7904   0.733E-03 0.620E-05
CGA: 141    -0.334682092938E+03   -0.11932E-04   -0.12031E-04  7904   0.313E-03 0.306E-05
CGA: 142    -0.334682103037E+03   -0.10099E-04   -0.10217E-04  7904   0.407E-03 0.377E-05
CGA: 143    -0.334682140681E+03   -0.37644E-04   -0.37091E-04  7904   0.117E-02 0.161E-04
CGA: 144    -0.334682158343E+03   -0.17662E-04   -0.17550E-04  7904   0.176E-03 0.254E-04
CGA: 145    -0.334682166037E+03   -0.76937E-05   -0.76822E-05  7904   0.271E-03-0.541E-06
CGA: 146    -0.334682176606E+03   -0.10569E-04   -0.10515E-04  7904   0.397E-03-0.256E-05
CGA: 147    -0.334682190814E+03   -0.14208E-04   -0.14050E-04  7904   0.672E-03-0.388E-05
CGA: 148    -0.334682205673E+03   -0.14859E-04   -0.14822E-04  7904   0.159E-03-0.765E-05
CGA: 149    -0.334682209417E+03   -0.37447E-05   -0.37442E-05  7904   0.150E-03-0.558E-06
   1 F= -.33468221E+03 E0= -.33465359E+03  d E =-.334682E+03  mag=    32.0000
       N       E                     dE             d eps       ncg     rms          ort
SDA:   1    -0.334668451751E+03    0.13754E-01    0.00000E+00  7904   0.822E+00 0.000E+00
CGA:   2    -0.334679450839E+03   -0.10999E-01   -0.92367E-02  7904   0.132E+00 0.136E+00
CGA:   3    -0.334681919373E+03   -0.24685E-02   -0.21933E-02  7904   0.128E-01 0.153E-01
CGA:   4    -0.334682071854E+03   -0.15248E-03   -0.15384E-03  7904   0.221E-02-0.105E-03
CGA:   5    -0.334682201457E+03   -0.12960E-03   -0.12914E-03  7904   0.234E-02 0.231E-04
CGA:   6    -0.334682320169E+03   -0.11871E-03   -0.11877E-03  7904   0.599E-02-0.857E-05
CGA:   7    -0.334682440044E+03   -0.11987E-03   -0.11942E-03  7904   0.129E-02 0.110E-04
CGA:   8    -0.334682465253E+03   -0.25210E-04   -0.25279E-04  7904   0.818E-03 0.380E-05
CGA:   9    -0.334682493996E+03   -0.28742E-04   -0.28818E-04  7904   0.125E-02 0.114E-04
CGA:  10    -0.334682530887E+03   -0.36892E-04   -0.37207E-04  7904   0.518E-03 0.221E-04
CGA:  11    -0.334682543247E+03   -0.12360E-04   -0.12534E-04  7904   0.182E-03 0.839E-05
CGA:  12    -0.334682549716E+03   -0.64687E-05   -0.64888E-05  7904   0.392E-03 0.357E-05
CGA:  13    -0.334682562284E+03   -0.12568E-04   -0.12623E-04  7904   0.157E-03 0.630E-05
CGA:  14    -0.334682566033E+03   -0.37498E-05   -0.37819E-05  7904   0.151E-03 0.183E-05
   2 F= -.33468257E+03 E0= -.33465415E+03  d E =-.356616E-03  mag=    32.0000
       N       E                     dE             d eps       ncg     rms          ort
SDA:   1    -0.334681764714E+03    0.79757E-03    0.00000E+00  7904   0.354E-01 0.000E+00
CGA:   2    -0.334682289897E+03   -0.52518E-03   -0.52967E-03  7904   0.113E-01-0.204E-03
CGA:   3    -0.334682460396E+03   -0.17050E-03   -0.17188E-03  7904   0.296E-02-0.536E-04
CGA:   4    -0.334682530599E+03   -0.70203E-04   -0.70370E-04  7904   0.169E-02 0.650E-06
CGA:   5    -0.334682676762E+03   -0.14616E-03   -0.14587E-03  7904   0.226E-02 0.621E-05
CGA:   6    -0.334682756357E+03   -0.79595E-04   -0.79551E-04  7904   0.945E-03-0.962E-05
CGA:   7    -0.334682776819E+03   -0.20462E-04   -0.20469E-04  7904   0.121E-02-0.289E-06
CGA:   8    -0.334682833736E+03   -0.56917E-04   -0.56924E-04  7904   0.505E-03-0.106E-05
CGA:   9    -0.334682840690E+03   -0.69539E-05   -0.69448E-05  7904   0.134E-03-0.438E-06
   3 F= -.33468284E+03 E0= -.33465450E+03  d E =-.274656E-03  mag=    32.0000
       N       E                     dE             d eps       ncg     rms          ort
SDA:   1    -0.332571715637E+03    0.21111E+01    0.00000E+00  7904   0.154E+02 0.000E+00
CGA:   2    -0.332784249376E+03   -0.21253E+00   -0.21361E+00  7904   0.890E+01-0.151E+00
CGA:   3    -0.333481322497E+03   -0.69707E+00   -0.69804E+00  7904   0.236E+02-0.488E-01
CGA:   4    -0.334202644694E+03   -0.72132E+00   -0.69850E+00  7904   0.716E+01-0.608E+00
CGA:   5    -0.334284096689E+03   -0.81452E-01   -0.93178E-01  7904   0.287E+01-0.642E+00
CGA:   6    -0.334410974034E+03   -0.12688E+00   -0.12407E+00  7904   0.333E+01 0.182E+00
CGA:   7    -0.334533578974E+03   -0.12260E+00   -0.12272E+00  7904   0.342E+01 0.187E-01
CGA:   8    -0.334592320454E+03   -0.58741E-01   -0.58728E-01  7904   0.139E+01-0.202E-02
CGA:   9    -0.334630999717E+03   -0.38679E-01   -0.38697E-01  7904   0.598E+00 0.178E-02
CGA:  10    -0.334649341310E+03   -0.18342E-01   -0.18225E-01  7904   0.532E+00-0.740E-02
CGA:  11    -0.334664155637E+03   -0.14814E-01   -0.14901E-01  7904   0.484E+00 0.329E-02
CGA:  12    -0.334675720320E+03   -0.11565E-01   -0.11484E-01  7904   0.117E+00 0.174E-03
CGA:  13    -0.334678158349E+03   -0.24380E-02   -0.24407E-02  7904   0.113E+00 0.316E-04
CGA:  14    -0.334682859272E+03   -0.47009E-02   -0.46952E-02  7904   0.139E+00 0.550E-03
CGA:  15    -0.334687100952E+03   -0.42417E-02   -0.42466E-02  7904   0.403E-01 0.557E-03
CGA:  16    -0.334688160062E+03   -0.10591E-02   -0.10589E-02  7904   0.359E-01 0.108E-04
CGA:  17    -0.334688906635E+03   -0.74657E-03   -0.75074E-03  7904   0.244E-01-0.114E-04
CGA:  18    -0.334690039487E+03   -0.11329E-02   -0.11303E-02  7904   0.265E-01 0.153E-03
CGA:  19    -0.334690976092E+03   -0.93661E-03   -0.93688E-03  7904   0.204E-01-0.974E-04
CGA:  20    -0.334691344476E+03   -0.36838E-03   -0.36871E-03  7904   0.883E-02-0.132E-04
CGA:  21    -0.334691574960E+03   -0.23048E-03   -0.23050E-03  7904   0.649E-02-0.235E-05
CGA:  22    -0.334691874825E+03   -0.29986E-03   -0.30031E-03  7904   0.160E-01-0.280E-04
CGA:  23    -0.334692337343E+03   -0.46252E-03   -0.46282E-03  7904   0.600E-02 0.240E-04
CGA:  24    -0.334692487903E+03   -0.15056E-03   -0.15050E-03  7904   0.297E-02-0.421E-05
CGA:  25    -0.334692602705E+03   -0.11480E-03   -0.11485E-03  7904   0.567E-02-0.558E-05
CGA:  26    -0.334692743734E+03   -0.14103E-03   -0.14097E-03  7904   0.386E-02-0.797E-06
CGA:  27    -0.334692918703E+03   -0.17497E-03   -0.17472E-03  7904   0.284E-02 0.172E-04
CGA:  28    -0.334692993586E+03   -0.74882E-04   -0.74855E-04  7904   0.164E-02-0.396E-06
CGA:  29    -0.334693030281E+03   -0.36695E-04   -0.36714E-04  7904   0.156E-02 0.235E-06
CGA:  30    -0.334693104826E+03   -0.74545E-04   -0.74678E-04  7904   0.226E-02-0.832E-05
CGA:  31    -0.334693166657E+03   -0.61831E-04   -0.61757E-04  7904   0.157E-02-0.803E-05
SDA:  32    -0.334693194173E+03   -0.27516E-04   -0.27472E-04  7904   0.441E-03-0.240E-05
CGA:  33    -0.334693202586E+03   -0.84132E-05   -0.84092E-05  7904   0.314E-03-0.294E-06
CGA:  34    -0.334693216021E+03   -0.13435E-04   -0.13450E-04  7904   0.696E-03-0.135E-05
CGA:  35    -0.334693237335E+03   -0.21314E-04   -0.21311E-04  7904   0.467E-03-0.261E-05
CGA:  36    -0.334693252605E+03   -0.15271E-04   -0.15276E-04  7904   0.505E-03-0.508E-05
CGA:  37    -0.334693263452E+03   -0.10847E-04   -0.10810E-04  7904   0.229E-03-0.330E-05
CGA:  38    -0.334693276959E+03   -0.13507E-04   -0.13710E-04  7904   0.202E-03-0.708E-05
CGA:  39    -0.334693285778E+03   -0.88190E-05   -0.88326E-05  7904   0.541E-04-0.120E-05
   4 F= -.33469329E+03 E0= -.33466496E+03  d E =-.104451E-01  mag=    32.0000
       N       E                     dE             d eps       ncg     rms          ort
SDA:   1    -0.334589628696E+03    0.10365E+00    0.00000E+00  7904   0.597E+01 0.000E+00
CGA:   2    -0.334645110426E+03   -0.55482E-01   -0.61697E-01  7904   0.303E+00-0.470E+00
CGA:   3    -0.334652192397E+03   -0.70820E-02   -0.70174E-02  7904   0.251E+00-0.150E-03
CGA:   4    -0.334667353592E+03   -0.15161E-01   -0.14957E-01  7904   0.469E+00 0.775E-02
CGA:   5    -0.334679091462E+03   -0.11738E-01   -0.11620E-01  7904   0.289E+00 0.498E-03
CGA:   6    -0.334684576663E+03   -0.54852E-02   -0.54606E-02  7904   0.109E+00 0.621E-03
CGA:   7    -0.334687206786E+03   -0.26301E-02   -0.26314E-02  7904   0.997E-01-0.257E-05
CGA:   8    -0.334690837376E+03   -0.36306E-02   -0.36309E-02  7904   0.734E-01-0.138E-03
CGA:   9    -0.334693355911E+03   -0.25185E-02   -0.25193E-02  7904   0.608E-01 0.385E-03
CGA:  10    -0.334694630629E+03   -0.12747E-02   -0.12694E-02  7904   0.170E-01 0.666E-04
CGA:  11    -0.334695206787E+03   -0.57616E-03   -0.57622E-03  7904   0.230E-01 0.387E-04
CGA:  12    -0.334696076608E+03   -0.86982E-03   -0.87018E-03  7904   0.180E-01-0.789E-04
CGA:  13    -0.334696313938E+03   -0.23733E-03   -0.23806E-03  7904   0.338E-02-0.508E-04
CGA:  14    -0.334696422289E+03   -0.10835E-03   -0.10835E-03  7904   0.574E-02-0.207E-05
CGA:  15    -0.334696690353E+03   -0.26806E-03   -0.26819E-03  7904   0.370E-02-0.105E-04
CGA:  16    -0.334696763159E+03   -0.72806E-04   -0.72779E-04  7904   0.130E-02-0.459E-05
CGA:  17    -0.334696805865E+03   -0.42706E-04   -0.42697E-04  7904   0.113E-02-0.923E-05
CGA:  18    -0.334696840239E+03   -0.34374E-04   -0.34370E-04  7904   0.110E-02-0.209E-05
CGA:  19    -0.334696904306E+03   -0.64067E-04   -0.64238E-04  7904   0.206E-02-0.676E-05
CGA:  20    -0.334696936210E+03   -0.31904E-04   -0.31935E-04  7904   0.361E-03-0.202E-05
CGA:  21    -0.334696943163E+03   -0.69536E-05   -0.69573E-05  7904   0.293E-03 0.179E-06
CGA:  22    -0.334696962712E+03   -0.19549E-04   -0.19462E-04  7904   0.677E-03 0.261E-05
CGA:  23    -0.334696980196E+03   -0.17483E-04   -0.17520E-04  7904   0.215E-03 0.392E-05
CGA:  24    -0.334696986242E+03   -0.60463E-05   -0.60534E-05  7904   0.189E-03 0.118E-05
   5 F= -.33469699E+03 E0= -.33466850E+03  d E =-.370046E-02  mag=    32.0000
       N       E                     dE             d eps       ncg     rms          ort
SDA:   1    -0.334495415529E+03    0.20156E+00    0.00000E+00  7904   0.178E+02 0.000E+00
CGA:   2    -0.334666119208E+03   -0.17070E+00   -0.14529E+00  7904   0.590E+00 0.274E+01
CGA:   3    -0.334673033322E+03   -0.69141E-02   -0.65549E-02  7904   0.133E+00 0.295E-01
CGA:   4    -0.334676538242E+03   -0.35049E-02   -0.35340E-02  7904   0.129E+00 0.132E-02
CGA:   5    -0.334680419138E+03   -0.38809E-02   -0.38877E-02  7904   0.212E+00 0.230E-02
CGA:   6    -0.334687033400E+03   -0.66143E-02   -0.66137E-02  7904   0.216E+00-0.798E-03
CGA:   7    -0.334692388896E+03   -0.53555E-02   -0.53164E-02  7904   0.105E+00-0.155E-02
CGA:   8    -0.334693827749E+03   -0.14389E-02   -0.14404E-02  7904   0.369E-01-0.564E-04
CGA:   9    -0.334694674765E+03   -0.84702E-03   -0.84790E-03  7904   0.182E-01 0.302E-04
CGA:  10    -0.334695166276E+03   -0.49151E-03   -0.49137E-03  7904   0.346E-01-0.239E-04
CGA:  11    -0.334696841840E+03   -0.16756E-02   -0.16740E-02  7904   0.160E-01 0.725E-04
CGA:  12    -0.334697005620E+03   -0.16378E-03   -0.16439E-03  7904   0.323E-02-0.460E-04
CGA:  13    -0.334697167552E+03   -0.16193E-03   -0.16212E-03  7904   0.674E-02-0.970E-05
CGA:  14    -0.334697317052E+03   -0.14950E-03   -0.14913E-03  7904   0.435E-02-0.309E-04
CGA:  15    -0.334697398467E+03   -0.81415E-04   -0.81217E-04  7904   0.156E-02-0.179E-04
CGA:  16    -0.334697433999E+03   -0.35532E-04   -0.35506E-04  7904   0.103E-02-0.712E-05
CGA:  17    -0.334697455465E+03   -0.21465E-04   -0.21418E-04  7904   0.931E-03-0.586E-05
CGA:  18    -0.334697495953E+03   -0.40488E-04   -0.40612E-04  7904   0.977E-03-0.841E-05
CGA:  19    -0.334697516654E+03   -0.20701E-04   -0.20658E-04  7904   0.858E-03-0.548E-05
CGA:  20    -0.334697534415E+03   -0.17761E-04   -0.17678E-04  7904   0.166E-03-0.725E-05
CGA:  21    -0.334697538928E+03   -0.45132E-05   -0.45124E-05  7904   0.322E-03-0.672E-06
CGA:  22    -0.334697554178E+03   -0.15250E-04   -0.15208E-04  7904   0.215E-03 0.223E-05
CGA:  23    -0.334697557684E+03   -0.35056E-05   -0.35228E-05  7904   0.984E-04 0.106E-05
   6 F= -.33469756E+03 E0= -.33466905E+03  d E =-.571442E-03  mag=    32.0000
       N       E                     dE             d eps       ncg     rms          ort
SDA:   1    -0.330051369082E+03    0.46462E+01    0.00000E+00  7904   0.234E+02 0.000E+00
CGA:   2    -0.330505067411E+03   -0.45370E+00   -0.42854E+00  7904   0.219E+02 0.253E+00
CGA:   3    -0.332724687548E+03   -0.22196E+01   -0.20255E+01  7904   0.276E+02 0.214E+01
CGA:   4    -0.333227983838E+03   -0.50330E+00   -0.52124E+00  7904   0.215E+02-0.508E+00
CGA:   5    -0.333682736404E+03   -0.45475E+00   -0.39080E+00  7904   0.134E+02 0.141E+01
CGA:   6    -0.333911718336E+03   -0.22898E+00   -0.21141E+00  7904   0.102E+02 0.710E+00
CGA:   7    -0.334101513182E+03   -0.18979E+00   -0.21513E+00  7904   0.893E+01 0.120E+00
CGA:   8    -0.334308490857E+03   -0.20698E+00   -0.21401E+00  7904   0.722E+01 0.390E+00
CGA:   9    -0.334439730717E+03   -0.13124E+00   -0.11225E+00  7904   0.188E+01 0.573E+00
CGA:  10    -0.334510639083E+03   -0.70908E-01   -0.80400E-01  7904   0.464E+01-0.660E+00
CGA:  11    -0.334538375700E+03   -0.27737E-01   -0.26496E-01  7904   0.468E+01 0.109E+00
CGA:  12    -0.334582778174E+03   -0.44402E-01   -0.50568E-01  7904   0.366E+01-0.401E+00
CGA:  13    -0.334627257202E+03   -0.44479E-01   -0.49918E-01  7904   0.262E+01-0.120E+00
CGA:  14    -0.334650959103E+03   -0.23702E-01   -0.23289E-01  7904   0.696E+00 0.375E-01
CGA:  15    -0.334658848811E+03   -0.78897E-02   -0.72331E-02  7904   0.363E+00 0.419E-01
CGA:  16    -0.334663590414E+03   -0.47416E-02   -0.46960E-02  7904   0.285E+00 0.189E-02
CGA:  17    -0.334667970676E+03   -0.43803E-02   -0.43696E-02  7904   0.362E+00 0.118E-03
CGA:  18    -0.334673682113E+03   -0.57114E-02   -0.56948E-02  7904   0.409E+00 0.315E-04
CGA:  19    -0.334679234256E+03   -0.55521E-02   -0.55462E-02  7904   0.431E+00 0.110E-03
CGA:  20    -0.334685767263E+03   -0.65330E-02   -0.66115E-02  7904   0.410E+00 0.367E-03
CGA:  21    -0.334689807977E+03   -0.40407E-02   -0.41644E-02  7904   0.128E+00-0.690E-02
CGA:  22    -0.334691158820E+03   -0.13508E-02   -0.13568E-02  7904   0.881E-01-0.291E-03
CGA:  23    -0.334692859110E+03   -0.17003E-02   -0.16962E-02  7904   0.109E+00-0.998E-03
CGA:  24    -0.334694173996E+03   -0.13149E-02   -0.12997E-02  7904   0.796E-01 0.341E-03
CGA:  25    -0.334695452852E+03   -0.12789E-02   -0.12800E-02  7904   0.105E+00 0.310E-04
CGA:  26    -0.334696984606E+03   -0.15318E-02   -0.15473E-02  7904   0.732E-01 0.322E-03
CGA:  27    -0.334697726479E+03   -0.74187E-03   -0.74849E-03  7904   0.319E-01-0.314E-03
CGA:  28    -0.334698127791E+03   -0.40131E-03   -0.39928E-03  7904   0.234E-01 0.717E-05
CGA:  29    -0.334698512804E+03   -0.38501E-03   -0.38417E-03  7904   0.330E-01-0.103E-03
CGA:  30    -0.334699180570E+03   -0.66777E-03   -0.66880E-03  7904   0.511E-01-0.439E-03
CGA:  31    -0.334699815199E+03   -0.63463E-03   -0.63732E-03  7904   0.384E-01 0.265E-04
SDA:  32    -0.334700330664E+03   -0.51547E-03   -0.51767E-03  7904   0.345E-01 0.856E-04
CGA:  33    -0.334700792014E+03   -0.46135E-03   -0.46010E-03  7904   0.550E-02-0.198E-04
CGA:  34    -0.334700905231E+03   -0.11322E-03   -0.11312E-03  7904   0.389E-02 0.323E-04
CGA:  35    -0.334701118380E+03   -0.21315E-03   -0.21121E-03  7904   0.104E-01 0.595E-04
CGA:  36    -0.334701430472E+03   -0.31209E-03   -0.31182E-03  7904   0.950E-02 0.307E-04
CGA:  37    -0.334701625018E+03   -0.19455E-03   -0.19456E-03  7904   0.220E-02 0.362E-04
CGA:  38    -0.334701790262E+03   -0.16524E-03   -0.16565E-03  7904   0.262E-02-0.152E-04
CGA:  39    -0.334701950941E+03   -0.16068E-03   -0.15912E-03  7904   0.932E-02 0.458E-04
CGA:  40    -0.334702130161E+03   -0.17922E-03   -0.17980E-03  7904   0.111E-02 0.435E-04
CGA:  41    -0.334702173227E+03   -0.43066E-04   -0.42914E-04  7904   0.263E-02 0.111E-04
CGA:  42    -0.334702313069E+03   -0.13984E-03   -0.13935E-03  7904   0.234E-02 0.190E-04
CGA:  43    -0.334702351870E+03   -0.38801E-04   -0.38862E-04  7904   0.660E-03 0.519E-05
CGA:  44    -0.334702373353E+03   -0.21483E-04   -0.21452E-04  7904   0.147E-02 0.510E-05
CGA:  45    -0.334702497409E+03   -0.12406E-03   -0.12213E-03  7904   0.464E-03 0.356E-04
CGA:  46    -0.334702506015E+03   -0.86067E-05   -0.86253E-05  7904   0.405E-03 0.169E-05
CGA:  47    -0.334702520440E+03   -0.14425E-04   -0.14394E-04  7904   0.283E-03 0.433E-05
CGA:  48    -0.334702539291E+03   -0.18850E-04   -0.18981E-04  7904   0.760E-03-0.331E-05
CGA:  49    -0.334702558808E+03   -0.19517E-04   -0.19495E-04  7904   0.525E-03-0.317E-05
CGA:  50    -0.334702567751E+03   -0.89431E-05   -0.89025E-05  7904   0.136E-03-0.252E-05
   7 F= -.33470257E+03 E0= -.33467521E+03  d E =-.501007E-02  mag=    32.0000
       N       E                     dE             d eps       ncg     rms          ort
SDA:   1    -0.333489723573E+03    0.12128E+01    0.00000E+00  7904   0.977E+01 0.000E+00
CGA:   2    -0.333616826178E+03   -0.12710E+00   -0.14484E+00  7904   0.533E+01-0.632E+00
CGA:   3    -0.333960286018E+03   -0.34346E+00   -0.33651E+00  7904   0.170E+02 0.199E+00
CGA:   4    -0.334339646939E+03   -0.37936E+00   -0.37852E+00  7904   0.508E+01-0.249E-01
CGA:   5    -0.334453575286E+03   -0.11393E+00   -0.11272E+00  7904   0.232E+01 0.121E-02
CGA:   6    -0.334513221300E+03   -0.59646E-01   -0.59206E-01  7904   0.231E+01-0.200E-01
CGA:   7    -0.334583944108E+03   -0.70723E-01   -0.70729E-01  7904   0.220E+01-0.695E-01
CGA:   8    -0.334646413012E+03   -0.62469E-01   -0.62739E-01  7904   0.990E+00 0.873E-01
CGA:   9    -0.334675020958E+03   -0.28608E-01   -0.28633E-01  7904   0.441E+00 0.382E-02
CGA:  10    -0.334685544196E+03   -0.10523E-01   -0.10610E-01  7904   0.295E+00 0.316E-02
CGA:  11    -0.334698365841E+03   -0.12822E-01   -0.12885E-01  7904   0.642E+00-0.382E-02
CGA:  12    -0.334710634728E+03   -0.12269E-01   -0.12213E-01  7904   0.866E-01 0.784E-03
CGA:  13    -0.334712276084E+03   -0.16414E-02   -0.16472E-02  7904   0.376E-01-0.892E-05
CGA:  14    -0.334715269158E+03   -0.29931E-02   -0.30097E-02  7904   0.943E-01-0.388E-03
CGA:  15    -0.334717288845E+03   -0.20197E-02   -0.20202E-02  7904   0.156E-01 0.619E-04
CGA:  16    -0.334717722153E+03   -0.43331E-03   -0.43297E-03  7904   0.222E-01-0.215E-04
CGA:  17    -0.334718318724E+03   -0.59657E-03   -0.59572E-03  7904   0.163E-01-0.502E-04
CGA:  18    -0.334718911361E+03   -0.59264E-03   -0.59192E-03  7904   0.172E-01 0.106E-03
CGA:  19    -0.334719404905E+03   -0.49354E-03   -0.49362E-03  7904   0.615E-02 0.236E-04
CGA:  20    -0.334719557776E+03   -0.15287E-03   -0.15304E-03  7904   0.346E-02 0.807E-05
CGA:  21    -0.334719716457E+03   -0.15868E-03   -0.15886E-03  7904   0.795E-02-0.117E-04
CGA:  22    -0.334719937635E+03   -0.22118E-03   -0.22104E-03  7904   0.744E-02-0.233E-04
CGA:  23    -0.334720088839E+03   -0.15120E-03   -0.15169E-03  7904   0.130E-02-0.758E-05
CGA:  24    -0.334720129132E+03   -0.40293E-04   -0.40293E-04  7904   0.186E-02-0.237E-05
CGA:  25    -0.334720266587E+03   -0.13746E-03   -0.13690E-03  7904   0.161E-02 0.134E-04
CGA:  26    -0.334720293309E+03   -0.26722E-04   -0.26720E-04  7904   0.843E-03 0.722E-06
CGA:  27    -0.334720316665E+03   -0.23356E-04   -0.23335E-04  7904   0.883E-03-0.356E-05
CGA:  28    -0.334720344468E+03   -0.27803E-04   -0.27802E-04  7904   0.696E-03-0.271E-05
CGA:  29    -0.334720376410E+03   -0.31942E-04   -0.32058E-04  7904   0.935E-03-0.767E-05
CGA:  30    -0.334720397418E+03   -0.21008E-04   -0.20984E-04  7904   0.182E-03-0.316E-05
CGA:  31    -0.334720401658E+03   -0.42398E-05   -0.42275E-05  7904   0.268E-03-0.126E-05
SDA:  32    -0.334720415715E+03   -0.14057E-04   -0.14253E-04  7904   0.419E-03-0.898E-05
CGA:  33    -0.334720420894E+03   -0.51790E-05   -0.52031E-05  7904   0.744E-04-0.111E-06
   8 F= -.33472042E+03 E0= -.33469276E+03  d E =-.178531E-01  mag=    32.0000
       N       E                     dE             d eps       ncg     rms          ort
SDA:   1    -0.334633110480E+03    0.87305E-01    0.00000E+00  7904   0.789E+01 0.000E+00
CGA:   2    -0.334693563437E+03   -0.60453E-01   -0.69005E-01  7904   0.243E+00-0.825E+00
CGA:   3    -0.334697176902E+03   -0.36135E-02   -0.35894E-02  7904   0.138E+00 0.623E-03
CGA:   4    -0.334704681036E+03   -0.75041E-02   -0.77786E-02  7904   0.246E+00-0.102E-01
CGA:   5    -0.334709816138E+03   -0.51351E-02   -0.51321E-02  7904   0.165E+00-0.673E-04
CGA:   6    -0.334714944819E+03   -0.51287E-02   -0.51258E-02  7904   0.841E-01 0.244E-02
CGA:   7    -0.334716374360E+03   -0.14295E-02   -0.14276E-02  7904   0.364E-01 0.337E-04
CGA:   8    -0.334718693267E+03   -0.23189E-02   -0.23161E-02  7904   0.111E+00 0.855E-04
CGA:   9    -0.334721248432E+03   -0.25552E-02   -0.25534E-02  7904   0.262E-01-0.733E-04
CGA:  10    -0.334721645538E+03   -0.39711E-03   -0.39589E-03  7904   0.840E-02 0.303E-04
CGA:  11    -0.334722062899E+03   -0.41736E-03   -0.41856E-03  7904   0.156E-01-0.566E-04
CGA:  12    -0.334722404431E+03   -0.34153E-03   -0.34127E-03  7904   0.977E-02-0.699E-05
CGA:  13    -0.334722759977E+03   -0.35555E-03   -0.35535E-03  7904   0.667E-02 0.212E-04
CGA:  14    -0.334722861707E+03   -0.10173E-03   -0.10209E-03  7904   0.175E-02-0.637E-05
CGA:  15    -0.334722943023E+03   -0.81316E-04   -0.81298E-04  7904   0.401E-02 0.110E-05
CGA:  16    -0.334723044632E+03   -0.10161E-03   -0.10166E-03  7904   0.155E-02 0.476E-05
CGA:  17    -0.334723079413E+03   -0.34781E-04   -0.34745E-04  7904   0.739E-03-0.280E-05
CGA:  18    -0.334723097894E+03   -0.18482E-04   -0.18470E-04  7904   0.790E-03-0.203E-05
CGA:  19    -0.334723143098E+03   -0.45204E-04   -0.45442E-04  7904   0.162E-02-0.865E-05
CGA:  20    -0.334723173510E+03   -0.30412E-04   -0.30418E-04  7904   0.313E-03-0.241E-05
CGA:  21    -0.334723180434E+03   -0.69240E-05   -0.69213E-05  7904   0.233E-03-0.444E-06
   9 F= -.33472318E+03 E0= -.33469545E+03  d E =-.275954E-02  mag=    32.0000
       N       E                     dE             d eps       ncg     rms          ort
SDA:   1    -0.334056628402E+03    0.66655E+00    0.00000E+00  7904   0.697E+02 0.000E+00
CGA:   2    -0.334687758784E+03   -0.63113E+00   -0.55383E+00  7904   0.333E+00 0.379E+01
CGA:   3    -0.334691404761E+03   -0.36460E-02   -0.35747E-02  7904   0.122E+00 0.525E-02
CGA:   4    -0.334700263508E+03   -0.88587E-02   -0.88730E-02  7904   0.501E+00-0.427E-03
CGA:   5    -0.334712331752E+03   -0.12068E-01   -0.12136E-01  7904   0.234E+00 0.271E-02
CGA:   6    -0.334716738848E+03   -0.44071E-02   -0.43891E-02  7904   0.180E+00 0.169E-03
CGA:   7    -0.334719937197E+03   -0.31983E-02   -0.30546E-02  7904   0.467E-01 0.303E-02
CGA:   8    -0.334721060385E+03   -0.11232E-02   -0.11217E-02  7904   0.553E-01-0.716E-04
CGA:   9    -0.334722128039E+03   -0.10677E-02   -0.10696E-02  7904   0.429E-01-0.251E-06
CGA:  10    -0.334723988422E+03   -0.18604E-02   -0.18642E-02  7904   0.619E-01-0.215E-03
CGA:  11    -0.334724832885E+03   -0.84446E-03   -0.84772E-03  7904   0.190E-01-0.120E-03
CGA:  12    -0.334725106824E+03   -0.27394E-03   -0.27481E-03  7904   0.555E-02-0.250E-04
CGA:  13    -0.334725305226E+03   -0.19840E-03   -0.19853E-03  7904   0.134E-01-0.976E-05
CGA:  14    -0.334725616268E+03   -0.31104E-03   -0.31116E-03  7904   0.585E-02 0.229E-04
CGA:  15    -0.334725694543E+03   -0.78275E-04   -0.78544E-04  7904   0.178E-02 0.434E-05
CGA:  16    -0.334725748167E+03   -0.53624E-04   -0.53586E-04  7904   0.258E-02 0.104E-04
CGA:  17    -0.334725795261E+03   -0.47094E-04   -0.47141E-04  7904   0.160E-02 0.534E-05
CGA:  18    -0.334725858865E+03   -0.63605E-04   -0.63618E-04  7904   0.175E-02-0.516E-06
CGA:  19    -0.334725885185E+03   -0.26320E-04   -0.26287E-04  7904   0.104E-02-0.708E-06
CGA:  20    -0.334725909920E+03   -0.24735E-04   -0.24721E-04  7904   0.356E-03-0.147E-05
CGA:  21    -0.334725916739E+03   -0.68183E-05   -0.68313E-05  7904   0.403E-03 0.148E-05
CGA:  22    -0.334725933832E+03   -0.17094E-04   -0.17063E-04  7904   0.781E-03 0.187E-05
CGA:  23    -0.334725948914E+03   -0.15082E-04   -0.15079E-04  7904   0.202E-03 0.205E-06
CGA:  24    -0.334725952052E+03   -0.31383E-05   -0.31394E-05  7904   0.121E-03 0.169E-07
  10 F= -.33472595E+03 E0= -.33469817E+03  d E =-.277162E-02  mag=    32.0000
       N       E                     dE             d eps       ncg     rms          ort
SDA:   1    -0.334639202112E+03    0.86747E-01    0.00000E+00  7904   0.762E+00 0.000E+00
CGA:   2    -0.334650727764E+03   -0.11526E-01   -0.11578E-01  7904   0.398E+00-0.106E-02
CGA:   3    -0.334665718658E+03   -0.14991E-01   -0.15068E-01  7904   0.749E+00-0.514E-02
CGA:   4    -0.334696037748E+03   -0.30319E-01   -0.30672E-01  7904   0.702E+00-0.202E-01
CGA:   5    -0.334709264178E+03   -0.13226E-01   -0.13491E-01  7904   0.234E+00 0.479E-02
CGA:   6    -0.334714393195E+03   -0.51290E-02   -0.51307E-02  7904   0.107E+00 0.125E-03
CGA:   7    -0.334721054296E+03   -0.66611E-02   -0.66378E-02  7904   0.117E+00 0.643E-03
CGA:   8    -0.334723315761E+03   -0.22615E-02   -0.22566E-02  7904   0.106E+00-0.421E-04
CGA:   9    -0.334726393310E+03   -0.30775E-02   -0.30854E-02  7904   0.186E-01-0.344E-02
CGA:  10    -0.334728519665E+03   -0.21264E-02   -0.21212E-02  7904   0.218E-01 0.540E-04
CGA:  11    -0.334728847789E+03   -0.32812E-03   -0.32745E-03  7904   0.645E-02 0.474E-04
CGA:  12    -0.334729001904E+03   -0.15411E-03   -0.15449E-03  7904   0.434E-02 0.181E-04
CGA:  13    -0.334729149199E+03   -0.14730E-03   -0.14723E-03  7904   0.823E-02 0.214E-04
CGA:  14    -0.334729448902E+03   -0.29970E-03   -0.29972E-03  7904   0.222E-02 0.333E-05
CGA:  15    -0.334729491476E+03   -0.42574E-04   -0.42594E-04  7904   0.768E-03 0.251E-05
CGA:  16    -0.334729556218E+03   -0.64741E-04   -0.64741E-04  7904   0.293E-02-0.784E-07
CGA:  17    -0.334729607012E+03   -0.50794E-04   -0.50863E-04  7904   0.100E-02 0.185E-05
CGA:  18    -0.334729638607E+03   -0.31596E-04   -0.31597E-04  7904   0.486E-03 0.397E-06
CGA:  19    -0.334729648271E+03   -0.96640E-05   -0.96508E-05  7904   0.317E-03-0.530E-06
CGA:  20    -0.334729667962E+03   -0.19690E-04   -0.19697E-04  7904   0.425E-03-0.255E-06
CGA:  21    -0.334729685422E+03   -0.17460E-04   -0.17490E-04  7904   0.646E-03-0.368E-05
CGA:  22    -0.334729694512E+03   -0.90905E-05   -0.90242E-05  7904   0.975E-04-0.218E-05
  11 F= -.33472969E+03 E0= -.33470181E+03  d E =-.374246E-02  mag=    32.0000
       N       E                     dE             d eps       ncg     rms          ort
SDA:   1    -0.334586930789E+03    0.14275E+00    0.00000E+00  7904   0.171E+01 0.000E+00
CGA:   2    -0.334609517861E+03   -0.22587E-01   -0.21472E-01  7904   0.492E+00 0.678E-01
CGA:   3    -0.334643379276E+03   -0.33861E-01   -0.32121E-01  7904   0.101E+01 0.582E-01
CGA:   4    -0.334677222766E+03   -0.33843E-01   -0.33858E-01  7904   0.143E+01 0.589E-03
CGA:   5    -0.334705840094E+03   -0.28617E-01   -0.27331E-01  7904   0.174E+00 0.310E-01
CGA:   6    -0.334710273971E+03   -0.44339E-02   -0.43655E-02  7904   0.218E+00-0.391E-03
CGA:   7    -0.334720034299E+03   -0.97603E-02   -0.97438E-02  7904   0.417E+00 0.126E-02
CGA:   8    -0.334728525341E+03   -0.84910E-02   -0.85974E-02  7904   0.132E+00-0.157E-02
CGA:   9    -0.334730447111E+03   -0.19218E-02   -0.18648E-02  7904   0.415E-01 0.264E-02
CGA:  10    -0.334731618486E+03   -0.11714E-02   -0.11662E-02  7904   0.311E-01-0.245E-03
CGA:  11    -0.334732677502E+03   -0.10590E-02   -0.10588E-02  7904   0.671E-01 0.972E-04
CGA:  12    -0.334734301032E+03   -0.16235E-02   -0.16246E-02  7904   0.112E-01 0.412E-04
CGA:  13    -0.334734517249E+03   -0.21622E-03   -0.21539E-03  7904   0.995E-02 0.640E-05
CGA:  14    -0.334734882257E+03   -0.36501E-03   -0.36534E-03  7904   0.902E-02-0.483E-04
CGA:  15    -0.334735096302E+03   -0.21404E-03   -0.21408E-03  7904   0.972E-02 0.271E-07
CGA:  16    -0.334735300327E+03   -0.20403E-03   -0.20431E-03  7904   0.289E-02 0.219E-05
CGA:  17    -0.334735394254E+03   -0.93927E-04   -0.93932E-04  7904   0.363E-02-0.221E-05
CGA:  18    -0.334735489540E+03   -0.95286E-04   -0.95329E-04  7904   0.390E-02 0.393E-05
CGA:  19    -0.334735592699E+03   -0.10316E-03   -0.10322E-03  7904   0.302E-02 0.715E-05
CGA:  20    -0.334735666344E+03   -0.73645E-04   -0.73618E-04  7904   0.163E-02-0.273E-06
CGA:  21    -0.334735691166E+03   -0.24822E-04   -0.24844E-04  7904   0.433E-03 0.490E-06
CGA:  22    -0.334735721235E+03   -0.30069E-04   -0.30141E-04  7904   0.202E-02-0.182E-05
CGA:  23    -0.334735768521E+03   -0.47285E-04   -0.47216E-04  7904   0.108E-02-0.572E-05
CGA:  24    -0.334735799246E+03   -0.30725E-04   -0.30730E-04  7904   0.464E-03 0.398E-06
CGA:  25    -0.334735806007E+03   -0.67608E-05   -0.67823E-05  7904   0.224E-03 0.758E-06
CGA:  26    -0.334735822918E+03   -0.16911E-04   -0.16914E-04  7904   0.824E-03 0.151E-06
CGA:  27    -0.334735836901E+03   -0.13983E-04   -0.13982E-04  7904   0.230E-03 0.179E-06
CGA:  28    -0.334735842731E+03   -0.58297E-05   -0.58327E-05  7904   0.156E-03 0.469E-06
  12 F= -.33473584E+03 E0= -.33470781E+03  d E =-.614822E-02  mag=    32.0000
       N       E                     dE             d eps       ncg     rms          ort
SDA:   1    -0.334476332465E+03    0.25950E+00    0.00000E+00  7904   0.265E+01 0.000E+00
CGA:   2    -0.334523257519E+03   -0.46925E-01   -0.51545E-01  7904   0.132E+01-0.459E-01
CGA:   3    -0.334565153186E+03   -0.41896E-01   -0.41911E-01  7904   0.164E+01-0.814E-02
CGA:   4    -0.334667473467E+03   -0.10232E+00   -0.10179E+00  7904   0.139E+01 0.166E-01
CGA:   5    -0.334687009892E+03   -0.19536E-01   -0.19192E-01  7904   0.317E+00 0.171E-01
CGA:   6    -0.334696073247E+03   -0.90634E-02   -0.90429E-02  7904   0.539E+00-0.205E-02
CGA:   7    -0.334724969648E+03   -0.28896E-01   -0.28840E-01  7904   0.552E+00 0.231E-02
CGA:   8    -0.334733837689E+03   -0.88680E-02   -0.87599E-02  7904   0.629E-01 0.381E-02
CGA:   9    -0.334736112205E+03   -0.22745E-02   -0.22691E-02  7904   0.100E+00 0.866E-03
CGA:  10    -0.334739133170E+03   -0.30210E-02   -0.30220E-02  7904   0.979E-01 0.199E-03
CGA:  11    -0.334741484968E+03   -0.23518E-02   -0.23419E-02  7904   0.708E-01-0.200E-03
CGA:  12    -0.334742970177E+03   -0.14852E-02   -0.14843E-02  7904   0.180E-01 0.496E-05
CGA:  13    -0.334743463820E+03   -0.49364E-03   -0.49274E-03  7904   0.110E-01-0.881E-04
CGA:  14    -0.334743805916E+03   -0.34210E-03   -0.34208E-03  7904   0.128E-01 0.298E-04
CGA:  15    -0.334744533951E+03   -0.72803E-03   -0.72772E-03  7904   0.188E-01 0.121E-04
CGA:  16    -0.334744786027E+03   -0.25208E-03   -0.25200E-03  7904   0.363E-02-0.263E-05
CGA:  17    -0.334744881159E+03   -0.95132E-04   -0.95169E-04  7904   0.452E-02 0.163E-05
CGA:  18    -0.334745152304E+03   -0.27115E-03   -0.27195E-03  7904   0.456E-02-0.276E-04
CGA:  19    -0.334745233081E+03   -0.80777E-04   -0.80971E-04  7904   0.120E-02-0.399E-05
CGA:  20    -0.334745293804E+03   -0.60723E-04   -0.60656E-04  7904   0.268E-02 0.348E-05
CGA:  21    -0.334745366528E+03   -0.72724E-04   -0.72782E-04  7904   0.227E-02 0.540E-05
CGA:  22    -0.334745423449E+03   -0.56921E-04   -0.56958E-04  7904   0.189E-02 0.367E-05
CGA:  23    -0.334745467752E+03   -0.44303E-04   -0.44238E-04  7904   0.681E-03-0.193E-05
CGA:  24    -0.334745491106E+03   -0.23354E-04   -0.23345E-04  7904   0.685E-03 0.241E-05
CGA:  25    -0.334745517675E+03   -0.26570E-04   -0.26572E-04  7904   0.889E-03-0.337E-06
CGA:  26    -0.334745549392E+03   -0.31717E-04   -0.31713E-04  7904   0.431E-03 0.122E-05
CGA:  27    -0.334745556350E+03   -0.69585E-05   -0.69653E-05  7904   0.239E-03 0.615E-06
CGA:  28    -0.334745568049E+03   -0.11698E-04   -0.11703E-04  7904   0.664E-03 0.227E-06
CGA:  29    -0.334745590087E+03   -0.22038E-04   -0.22036E-04  7904   0.209E-03 0.358E-05
CGA:  30    -0.334745594005E+03   -0.39176E-05   -0.39208E-05  7904   0.851E-04 0.284E-06
  13 F= -.33474559E+03 E0= -.33471756E+03  d E =-.975127E-02  mag=    32.0000
       N       E                     dE             d eps       ncg     rms          ort
SDA:   1    -0.334539369118E+03    0.20622E+00    0.00000E+00  7904   0.337E+01 0.000E+00
CGA:   2    -0.334573051737E+03   -0.33683E-01   -0.34404E-01  7904   0.714E+00-0.616E-01
CGA:   3    -0.334618009191E+03   -0.44957E-01   -0.43320E-01  7904   0.191E+01 0.534E-01
CGA:   4    -0.334676962183E+03   -0.58953E-01   -0.58663E-01  7904   0.135E+01-0.200E-01
CGA:   5    -0.334708580812E+03   -0.31619E-01   -0.31954E-01  7904   0.528E+00 0.487E-02
CGA:   6    -0.334722885293E+03   -0.14304E-01   -0.14078E-01  7904   0.304E+00-0.980E-02
CGA:   7    -0.334728976920E+03   -0.60916E-02   -0.60498E-02  7904   0.268E+00 0.422E-03
CGA:   8    -0.334739152730E+03   -0.10176E-01   -0.10146E-01  7904   0.262E+00 0.326E-02
CGA:   9    -0.334748556346E+03   -0.94036E-02   -0.94117E-02  7904   0.145E+00-0.139E-02
CGA:  10    -0.334750736663E+03   -0.21803E-02   -0.21977E-02  7904   0.259E-01-0.607E-03
CGA:  11    -0.334752022957E+03   -0.12863E-02   -0.12875E-02  7904   0.498E-01-0.583E-04
CGA:  12    -0.334753529346E+03   -0.15064E-02   -0.15062E-02  7904   0.418E-01-0.608E-04
CGA:  13    -0.334754142967E+03   -0.61362E-03   -0.61829E-03  7904   0.980E-02-0.174E-03
CGA:  14    -0.334754540185E+03   -0.39722E-03   -0.39650E-03  7904   0.108E-01 0.574E-04
CGA:  15    -0.334754789958E+03   -0.24977E-03   -0.25032E-03  7904   0.652E-02 0.153E-04
CGA:  16    -0.334755098517E+03   -0.30856E-03   -0.30922E-03  7904   0.650E-02-0.345E-04
CGA:  17    -0.334755242387E+03   -0.14387E-03   -0.14395E-03  7904   0.324E-02 0.365E-05
CGA:  18    -0.334755303343E+03   -0.60956E-04   -0.60888E-04  7904   0.233E-02-0.447E-06
CGA:  19    -0.334755431100E+03   -0.12776E-03   -0.12783E-03  7904   0.396E-02-0.295E-05
CGA:  20    -0.334755522143E+03   -0.91043E-04   -0.91033E-04  7904   0.148E-02-0.225E-05
CGA:  21    -0.334755554452E+03   -0.32309E-04   -0.32267E-04  7904   0.566E-03-0.216E-05
CGA:  22    -0.334755589939E+03   -0.35486E-04   -0.35505E-04  7904   0.165E-02-0.588E-06
CGA:  23    -0.334755628193E+03   -0.38254E-04   -0.38271E-04  7904   0.113E-02 0.231E-05
CGA:  24    -0.334755660177E+03   -0.31984E-04   -0.31992E-04  7904   0.837E-03 0.206E-05
CGA:  25    -0.334755680230E+03   -0.20053E-04   -0.20100E-04  7904   0.369E-03 0.361E-05
CGA:  26    -0.334755689493E+03   -0.92627E-05   -0.92575E-05  7904   0.266E-03-0.364E-06
CGA:  27    -0.334755713338E+03   -0.23845E-04   -0.23740E-04  7904   0.678E-03 0.183E-05
CGA:  28    -0.334755723767E+03   -0.10429E-04   -0.10420E-04  7904   0.188E-03 0.180E-07
CGA:  29    -0.334755728268E+03   -0.45016E-05   -0.45102E-05  7904   0.156E-03 0.897E-06
  14 F= -.33475573E+03 E0= -.33472773E+03  d E =-.101343E-01  mag=    32.0000
       N       E                     dE             d eps       ncg     rms          ort
SDA:   1    -0.333631100426E+03    0.11246E+01    0.00000E+00  7904   0.818E+01 0.000E+00
CGA:   2    -0.333757001578E+03   -0.12590E+00   -0.13163E+00  7904   0.457E+01-0.176E+00
CGA:   3    -0.334114819198E+03   -0.35782E+00   -0.37291E+00  7904   0.169E+02-0.344E+00
CGA:   4    -0.334506205633E+03   -0.39139E+00   -0.39880E+00  7904   0.317E+01 0.766E-01
CGA:   5    -0.334575897775E+03   -0.69692E-01   -0.66628E-01  7904   0.257E+01 0.571E-01
CGA:   6    -0.334612410925E+03   -0.36513E-01   -0.28255E-01  7904   0.924E+00 0.605E+00
CGA:   7    -0.334633280352E+03   -0.20869E-01   -0.20521E-01  7904   0.197E+01 0.791E-02
CGA:   8    -0.334683760483E+03   -0.50480E-01   -0.50388E-01  7904   0.461E+01-0.316E-02
CGA:   9    -0.334724724013E+03   -0.40964E-01   -0.43362E-01  7904   0.167E+01-0.199E+00
CGA:  10    -0.334737932865E+03   -0.13209E-01   -0.14508E-01  7904   0.780E+00-0.114E+00
CGA:  11    -0.334744988210E+03   -0.70553E-02   -0.72834E-02  7904   0.333E+00-0.165E-01
CGA:  12    -0.334748991603E+03   -0.40034E-02   -0.39113E-02  7904   0.344E+00 0.487E-02
CGA:  13    -0.334755218069E+03   -0.62265E-02   -0.61523E-02  7904   0.371E+00 0.523E-03
CGA:  14    -0.334759080242E+03   -0.38622E-02   -0.39166E-02  7904   0.246E+00-0.356E-02
CGA:  15    -0.334763059389E+03   -0.39791E-02   -0.40818E-02  7904   0.279E+00-0.613E-03
CGA:  16    -0.334765988866E+03   -0.29295E-02   -0.29301E-02  7904   0.884E-01 0.496E-04
CGA:  17    -0.334767201294E+03   -0.12124E-02   -0.11947E-02  7904   0.998E-01 0.527E-03
CGA:  18    -0.334769244312E+03   -0.20430E-02   -0.20216E-02  7904   0.129E+00-0.138E-02
CGA:  19    -0.334770720416E+03   -0.14761E-02   -0.14774E-02  7904   0.955E-01-0.344E-04
CGA:  20    -0.334772136320E+03   -0.14159E-02   -0.14203E-02  7904   0.112E+00-0.186E-04
CGA:  21    -0.334773768969E+03   -0.16326E-02   -0.16581E-02  7904   0.834E-01-0.148E-03
CGA:  22    -0.334774500637E+03   -0.73167E-03   -0.73436E-03  7904   0.181E-01-0.165E-03
CGA:  23    -0.334774665628E+03   -0.16499E-03   -0.16512E-03  7904   0.100E-01-0.168E-05
CGA:  24    -0.334774905966E+03   -0.24034E-03   -0.24013E-03  7904   0.236E-01 0.494E-04
CGA:  25    -0.334775399402E+03   -0.49344E-03   -0.49342E-03  7904   0.355E-01-0.180E-04
CGA:  26    -0.334775947201E+03   -0.54780E-03   -0.54612E-03  7904   0.228E-01-0.547E-04
CGA:  27    -0.334776133221E+03   -0.18602E-03   -0.18498E-03  7904   0.507E-02 0.759E-04
CGA:  28    -0.334776203867E+03   -0.70646E-04   -0.70719E-04  7904   0.715E-02 0.544E-05
CGA:  29    -0.334776420740E+03   -0.21687E-03   -0.21610E-03  7904   0.146E-01 0.690E-04
CGA:  30    -0.334776589238E+03   -0.16850E-03   -0.16848E-03  7904   0.842E-02 0.204E-04
CGA:  31    -0.334776726998E+03   -0.13776E-03   -0.13758E-03  7904   0.722E-02-0.563E-05
SDA:  32    -0.334776791738E+03   -0.64740E-04   -0.64506E-04  7904   0.169E-02 0.216E-04
CGA:  33    -0.334776833512E+03   -0.41774E-04   -0.41792E-04  7904   0.225E-02-0.318E-05
CGA:  34    -0.334776925093E+03   -0.91581E-04   -0.91831E-04  7904   0.291E-02-0.121E-04
CGA:  35    -0.334776981091E+03   -0.55998E-04   -0.56004E-04  7904   0.985E-03 0.113E-05
CGA:  36    -0.334777004642E+03   -0.23552E-04   -0.23567E-04  7904   0.953E-03-0.424E-05
CGA:  37    -0.334777068875E+03   -0.64232E-04   -0.64045E-04  7904   0.163E-02 0.390E-05
CGA:  38    -0.334777131225E+03   -0.62350E-04   -0.62150E-04  7904   0.201E-03 0.132E-04
CGA:  39    -0.334777143535E+03   -0.12310E-04   -0.12375E-04  7904   0.114E-02-0.186E-05
CGA:  40    -0.334777190870E+03   -0.47334E-04   -0.47386E-04  7904   0.361E-03-0.317E-05
CGA:  41    -0.334777203511E+03   -0.12641E-04   -0.12639E-04  7904   0.401E-03 0.182E-06
CGA:  42    -0.334777216421E+03   -0.12910E-04   -0.12899E-04  7904   0.556E-03 0.156E-05
CGA:  43    -0.334777228648E+03   -0.12227E-04   -0.12239E-04  7904   0.472E-03 0.168E-05
CGA:  44    -0.334777257313E+03   -0.28665E-04   -0.28722E-04  7904   0.154E-03-0.186E-05
CGA:  45    -0.334777259997E+03   -0.26845E-05   -0.26912E-05  7904   0.133E-03 0.487E-06
CGA:  46    -0.334777273968E+03   -0.13970E-04   -0.13569E-04  7904   0.535E-03 0.553E-05
CGA:  47    -0.334777281459E+03   -0.74908E-05   -0.75125E-05  7904   0.354E-04 0.160E-05
  15 F= -.33477728E+03 E0= -.33474940E+03  d E =-.215532E-01  mag=    32.0000
       N       E                     dE             d eps       ncg     rms          ort
SDA:   1    -0.330826526129E+03    0.39507E+01    0.00000E+00  7904   0.489E+02 0.000E+00
CGA:   2    -0.331364005028E+03   -0.53748E+00   -0.86217E+00  7904   0.223E+02-0.654E+01
CGA:   3    -0.331950379379E+03   -0.58637E+00   -0.57991E+00  7904   0.356E+02-0.149E+01
CGA:   4    -0.333163715676E+03   -0.12133E+01   -0.12397E+01  7904   0.432E+02-0.314E+01
CGA:   5    -0.333899776690E+03   -0.73606E+00   -0.76902E+00  7904   0.133E+02-0.186E+00
CGA:   6    -0.334157105960E+03   -0.25733E+00   -0.24739E+00  7904   0.352E+01 0.183E+00
CGA:   7    -0.334321095119E+03   -0.16399E+00   -0.15925E+00  7904   0.854E+01 0.281E+00
CGA:   8    -0.334557231157E+03   -0.23614E+00   -0.23502E+00  7904   0.583E+01-0.582E-01
CGA:   9    -0.334682549071E+03   -0.12532E+00   -0.12555E+00  7904   0.125E+01-0.180E-02
CGA:  10    -0.334707916623E+03   -0.25368E-01   -0.25553E-01  7904   0.671E+00 0.611E-03
CGA:  11    -0.334741214241E+03   -0.33298E-01   -0.34692E-01  7904   0.114E+01-0.600E-01
CGA:  12    -0.334777026245E+03   -0.35812E-01   -0.35660E-01  7904   0.275E+00 0.294E-01
CGA:  13    -0.334782200325E+03   -0.51741E-02   -0.51547E-02  7904   0.158E+00 0.376E-03
CGA:  14    -0.334788335961E+03   -0.61356E-02   -0.60918E-02  7904   0.232E+00 0.400E-02
CGA:  15    -0.334793313643E+03   -0.49777E-02   -0.50161E-02  7904   0.138E+00 0.153E-03
CGA:  16    -0.334797707835E+03   -0.43942E-02   -0.43968E-02  7904   0.942E-01-0.120E-02
CGA:  17    -0.334800237921E+03   -0.25301E-02   -0.25306E-02  7904   0.513E-01 0.634E-04
CGA:  18    -0.334801614871E+03   -0.13770E-02   -0.13753E-02  7904   0.617E-01-0.164E-03
CGA:  19    -0.334803905925E+03   -0.22911E-02   -0.22887E-02  7904   0.721E-01 0.237E-03
CGA:  20    -0.334805180875E+03   -0.12750E-02   -0.12776E-02  7904   0.147E-01-0.534E-04
CGA:  21    -0.334805631625E+03   -0.45075E-03   -0.45082E-03  7904   0.151E-01-0.716E-04
CGA:  22    -0.334806386448E+03   -0.75482E-03   -0.75414E-03  7904   0.355E-01 0.310E-04
CGA:  23    -0.334807357638E+03   -0.97119E-03   -0.97232E-03  7904   0.204E-01 0.126E-03
CGA:  24    -0.334807678055E+03   -0.32042E-03   -0.31926E-03  7904   0.519E-02 0.409E-04
CGA:  25    -0.334807877842E+03   -0.19979E-03   -0.19949E-03  7904   0.834E-02 0.278E-04
CGA:  26    -0.334808333913E+03   -0.45607E-03   -0.45727E-03  7904   0.122E-01-0.467E-04
CGA:  27    -0.334808518382E+03   -0.18447E-03   -0.18514E-03  7904   0.262E-02-0.113E-04
CGA:  28    -0.334808577882E+03   -0.59500E-04   -0.59513E-04  7904   0.284E-02 0.150E-05
CGA:  29    -0.334808801737E+03   -0.22386E-03   -0.22374E-03  7904   0.538E-02 0.168E-05
CGA:  30    -0.334808908187E+03   -0.10645E-03   -0.10666E-03  7904   0.144E-02 0.427E-05
CGA:  31    -0.334808936188E+03   -0.28001E-04   -0.28029E-04  7904   0.103E-02 0.182E-05
SDA:  32    -0.334808972178E+03   -0.35990E-04   -0.35994E-04  7904   0.132E-02-0.183E-05
CGA:  33    -0.334808986356E+03   -0.14178E-04   -0.14211E-04  7904   0.346E-03-0.129E-05
CGA:  34    -0.334809004954E+03   -0.18598E-04   -0.18727E-04  7904   0.868E-03-0.547E-05
CGA:  35    -0.334809024988E+03   -0.20034E-04   -0.19972E-04  7904   0.619E-03-0.532E-05
CGA:  36    -0.334809069398E+03   -0.44410E-04   -0.44603E-04  7904   0.559E-03-0.454E-05
CGA:  37    -0.334809082515E+03   -0.13117E-04   -0.13098E-04  7904   0.266E-03-0.141E-05
CGA:  38    -0.334809095031E+03   -0.12516E-04   -0.12496E-04  7904   0.791E-03 0.138E-05
CGA:  39    -0.334809113130E+03   -0.18099E-04   -0.18114E-04  7904   0.152E-03 0.130E-05
CGA:  40    -0.334809116876E+03   -0.37456E-05   -0.37490E-05  7904   0.167E-03 0.345E-06
  16 F= -.33480912E+03 E0= -.33478146E+03  d E =-.318354E-01  mag=    32.0000
       N       E                     dE             d eps       ncg     rms          ort
SDA:   1    -0.316190482139E+03    0.18619E+02    0.00000E+00  7904   0.265E+03 0.000E+00
CGA:   2    -0.320482339267E+03   -0.42919E+01   -0.54184E+01  7904   0.493E+02 0.209E+01
CGA:   3    -0.322888593343E+03   -0.24063E+01   -0.56923E+01  7904   0.636E+03-0.740E+02
CGA:   4    -0.326996909173E+03   -0.41083E+01   -0.12624E+02  7904   0.126E+03-0.836E+01
CGA:   5    -0.328478150309E+03   -0.14812E+01   -0.93607E+00  7904   0.282E+02 0.573E+02
CGA:   6    -0.328854648892E+03   -0.37650E+00   -0.28338E+00  7904   0.177E+02 0.128E+02
CGA:   7    -0.329033007488E+03   -0.17836E+00   -0.92190E-01  7904   0.215E+02 0.241E+02
CGA:   8    -0.329716206709E+03   -0.68320E+00   -0.68487E+00  7904   0.348E+02-0.109E+02
CGA:   9    -0.330243711112E+03   -0.52750E+00   -0.41800E+00  7904   0.117E+02 0.516E+01
CGA:  10    -0.331090537804E+03   -0.84683E+00   -0.79582E+00  7904   0.530E+02 0.152E+01
CGA:  11    -0.333570690770E+03   -0.24802E+01   -0.24649E+01  7904   0.577E+02 0.122E+01
CGA:  12    -0.334175969557E+03   -0.60528E+00   -0.61271E+00  7904   0.644E+01-0.230E+01
CGA:  13    -0.334439892860E+03   -0.26392E+00   -0.11667E+00  7904   0.390E+01 0.546E+01
CGA:  14    -0.334500860195E+03   -0.60967E-01   -0.56594E-01  7904   0.137E+01 0.171E+00
CGA:  15    -0.334525732633E+03   -0.24872E-01   -0.23710E-01  7904   0.136E+01 0.272E-01
CGA:  16    -0.334636980414E+03   -0.11125E+00   -0.11154E+00  7904   0.543E+01-0.682E-02
CGA:  17    -0.334691409005E+03   -0.54429E-01   -0.57328E-01  7904   0.596E+00-0.206E+00
CGA:  18    -0.334705829830E+03   -0.14421E-01   -0.14595E-01  7904   0.634E+00 0.954E-02
CGA:  19    -0.334717970748E+03   -0.12141E-01   -0.11943E-01  7904   0.454E+00 0.331E-02
CGA:  20    -0.334730929173E+03   -0.12958E-01   -0.12941E-01  7904   0.470E+00-0.442E-02
CGA:  21    -0.334740679821E+03   -0.97506E-02   -0.97659E-02  7904   0.323E+00 0.475E-03
CGA:  22    -0.334749953392E+03   -0.92736E-02   -0.92836E-02  7904   0.389E+00 0.621E-02
CGA:  23    -0.334756473743E+03   -0.65204E-02   -0.65289E-02  7904   0.167E+00 0.955E-04
CGA:  24    -0.334762278086E+03   -0.58043E-02   -0.57393E-02  7904   0.168E+00 0.764E-02
CGA:  25    -0.334769072145E+03   -0.67941E-02   -0.68177E-02  7904   0.378E+00-0.185E-02
CGA:  26    -0.334774761136E+03   -0.56890E-02   -0.55838E-02  7904   0.548E-01 0.366E-02
CGA:  27    -0.334776448018E+03   -0.16869E-02   -0.16868E-02  7904   0.145E+00 0.488E-04
CGA:  28    -0.334781393259E+03   -0.49452E-02   -0.49371E-02  7904   0.118E+00 0.107E-02
CGA:  29    -0.334783281073E+03   -0.18878E-02   -0.18896E-02  7904   0.475E-01 0.493E-05
CGA:  30    -0.334784017978E+03   -0.73690E-03   -0.73094E-03  7904   0.203E-01 0.174E-03
CGA:  31    -0.334784440102E+03   -0.42212E-03   -0.42090E-03  7904   0.252E-01-0.279E-04
CGA:  32    -0.334785680022E+03   -0.12399E-02   -0.12292E-02  7904   0.497E-01 0.469E-03
CGA:  33    -0.334786579060E+03   -0.89904E-03   -0.90425E-03  7904   0.367E-01-0.139E-04
CGA:  34    -0.334787227550E+03   -0.64849E-03   -0.64364E-03  7904   0.987E-02 0.512E-04
CGA:  35    -0.334787492182E+03   -0.26463E-03   -0.26455E-03  7904   0.151E-01-0.606E-04
CGA:  36    -0.334787728478E+03   -0.23630E-03   -0.23500E-03  7904   0.443E-02 0.301E-04
CGA:  37    -0.334787888279E+03   -0.15980E-03   -0.15963E-03  7904   0.128E-01 0.151E-04
CGA:  38    -0.334788237640E+03   -0.34936E-03   -0.34937E-03  7904   0.851E-02 0.321E-04
CGA:  39    -0.334788358133E+03   -0.12049E-03   -0.12032E-03  7904   0.353E-02 0.333E-05
CGA:  40    -0.334788444150E+03   -0.86018E-04   -0.86021E-04  7904   0.379E-02-0.181E-06
CGA:  41    -0.334788529605E+03   -0.85455E-04   -0.85425E-04  7904   0.528E-02-0.587E-05
CGA:  42    -0.334788721912E+03   -0.19231E-03   -0.19270E-03  7904   0.399E-02-0.321E-04
CGA:  43    -0.334788768759E+03   -0.46848E-04   -0.46892E-04  7904   0.159E-02-0.147E-05
SDA:  44    -0.334788800902E+03   -0.32143E-04   -0.32195E-04  7904   0.104E-02 0.251E-05
CGA:  45    -0.334788828948E+03   -0.28046E-04   -0.28052E-04  7904   0.107E-02-0.399E-05
CGA:  46    -0.334788863447E+03   -0.34499E-04   -0.34495E-04  7904   0.196E-02 0.115E-06
CGA:  47    -0.334788920107E+03   -0.56660E-04   -0.56656E-04  7904   0.740E-03 0.325E-06
CGA:  48    -0.334788939583E+03   -0.19476E-04   -0.19476E-04  7904   0.730E-03 0.117E-05
CGA:  49    -0.334788967162E+03   -0.27579E-04   -0.27656E-04  7904   0.954E-03-0.654E-05
CGA:  50    -0.334789011421E+03   -0.44259E-04   -0.44473E-04  7904   0.305E-03-0.107E-04
CGA:  51    -0.334789023780E+03   -0.12359E-04   -0.12354E-04  7904   0.732E-03 0.207E-06
CGA:  52    -0.334789037996E+03   -0.14216E-04   -0.14225E-04  7904   0.223E-03-0.121E-05
CGA:  53    -0.334789059942E+03   -0.21946E-04   -0.22024E-04  7904   0.774E-03-0.112E-05
CGA:  54    -0.334789074632E+03   -0.14690E-04   -0.14655E-04  7904   0.211E-03-0.216E-05
CGA:  55    -0.334789080282E+03   -0.56494E-05   -0.56498E-05  7904   0.237E-03-0.232E-06
CGA:  56    -0.334789093394E+03   -0.13112E-04   -0.13215E-04  7904   0.801E-03-0.416E-05
CGA:  57    -0.334789109838E+03   -0.16444E-04   -0.16389E-04  7904   0.648E-04-0.474E-05
CGA:  58    -0.334789121601E+03   -0.11763E-04   -0.26097E-06  7904   0.271E-03-0.698E-05
CGA:  59    -0.334789126960E+03   -0.53586E-05   -0.53824E-05  7904   0.691E-04-0.464E-07
  17 F= -.33478913E+03 E0= -.33476104E+03  d E =0.199899E-01  mag=    32.0000
       N       E                     dE             d eps       ncg     rms          ort
SDA:   1    -0.331234071208E+03    0.35551E+01    0.00000E+00  7904   0.723E+02 0.000E+00
CGA:   2    -0.332032047955E+03   -0.79798E+00   -0.96646E+00  7904   0.211E+02-0.904E+01
CGA:   3    -0.332408007214E+03   -0.37596E+00   -0.36471E+00  7904   0.160E+02 0.203E+00
CGA:   4    -0.333119743675E+03   -0.71174E+00   -0.72334E+00  7904   0.274E+02 0.659E+00
CGA:   5    -0.333964480754E+03   -0.84474E+00   -0.76210E+00  7904   0.660E+01 0.164E+01
CGA:   6    -0.334142472563E+03   -0.17799E+00   -0.18934E+00  7904   0.597E+01-0.117E+00
CGA:   7    -0.334424644712E+03   -0.28217E+00   -0.28187E+00  7904   0.811E+01-0.383E+00
CGA:   8    -0.334630643925E+03   -0.20600E+00   -0.21724E+00  7904   0.330E+01-0.912E-01
CGA:   9    -0.334699426598E+03   -0.68783E-01   -0.67929E-01  7904   0.151E+01 0.373E-01
CGA:  10    -0.334728703653E+03   -0.29277E-01   -0.30566E-01  7904   0.105E+01-0.389E-01
CGA:  11    -0.334756093371E+03   -0.27390E-01   -0.27629E-01  7904   0.963E+00-0.184E-02
CGA:  12    -0.334792277809E+03   -0.36184E-01   -0.36026E-01  7904   0.955E+00-0.793E-02
CGA:  13    -0.334816916224E+03   -0.24638E-01   -0.24997E-01  7904   0.277E+00-0.256E-02
CGA:  14    -0.334822226362E+03   -0.53101E-02   -0.52433E-02  7904   0.115E+00 0.214E-02
CGA:  15    -0.334827324614E+03   -0.50983E-02   -0.50991E-02  7904   0.247E+00-0.196E-03
CGA:  16    -0.334833421659E+03   -0.60970E-02   -0.61322E-02  7904   0.164E+00-0.378E-03
CGA:  17    -0.334836779321E+03   -0.33577E-02   -0.33286E-02  7904   0.636E-01 0.712E-03
CGA:  18    -0.334838480090E+03   -0.17008E-02   -0.17160E-02  7904   0.459E-01 0.360E-04
CGA:  19    -0.334840853692E+03   -0.23736E-02   -0.23783E-02  7904   0.768E-01-0.280E-03
CGA:  20    -0.334842822655E+03   -0.19690E-02   -0.19706E-02  7904   0.268E-01-0.242E-05
CGA:  21    -0.334843324645E+03   -0.50199E-03   -0.49830E-03  7904   0.174E-01 0.992E-04
CGA:  22    -0.334843908041E+03   -0.58340E-03   -0.58325E-03  7904   0.280E-01-0.563E-05
CGA:  23    -0.334844844407E+03   -0.93637E-03   -0.93652E-03  7904   0.186E-01 0.211E-04
CGA:  24    -0.334845353457E+03   -0.50905E-03   -0.50885E-03  7904   0.117E-01 0.308E-05
CGA:  25    -0.334845671331E+03   -0.31787E-03   -0.31913E-03  7904   0.544E-02 0.236E-04
CGA:  26    -0.334845863549E+03   -0.19222E-03   -0.19222E-03  7904   0.873E-02 0.744E-06
CGA:  27    -0.334846182984E+03   -0.31944E-03   -0.31944E-03  7904   0.112E-01-0.494E-05
CGA:  28    -0.334846393817E+03   -0.21083E-03   -0.21112E-03  7904   0.429E-02-0.565E-05
CGA:  29    -0.334846489361E+03   -0.95544E-04   -0.95231E-04  7904   0.172E-02-0.285E-05
CGA:  30    -0.334846552391E+03   -0.63030E-04   -0.63026E-04  7904   0.259E-02 0.168E-05
CGA:  31    -0.334846720231E+03   -0.16784E-03   -0.16783E-03  7904   0.412E-02 0.247E-06
SDA:  32    -0.334846797495E+03   -0.77264E-04   -0.77461E-04  7904   0.103E-02 0.250E-06
CGA:  33    -0.334846808569E+03   -0.11075E-04   -0.11029E-04  7904   0.385E-03 0.372E-06
CGA:  34    -0.334846851512E+03   -0.42942E-04   -0.43117E-04  7904   0.127E-02-0.251E-05
CGA:  35    -0.334846877533E+03   -0.26021E-04   -0.26031E-04  7904   0.637E-03 0.417E-06
CGA:  36    -0.334846897179E+03   -0.19646E-04   -0.19654E-04  7904   0.475E-03 0.857E-06
CGA:  37    -0.334846922618E+03   -0.25439E-04   -0.25374E-04  7904   0.904E-03 0.383E-05
CGA:  38    -0.334846939081E+03   -0.16463E-04   -0.16462E-04  7904   0.465E-03 0.105E-05
CGA:  39    -0.334846948019E+03   -0.89384E-05   -0.89316E-05  7904   0.102E-03 0.533E-06
CGA:  40    -0.334846958950E+03   -0.10931E-04   -0.10851E-04  7904   0.169E-03 0.115E-05
CGA:  41    -0.334846972589E+03   -0.13639E-04   -0.13744E-04  7904   0.554E-03-0.259E-05
CGA:  42    -0.334846980001E+03   -0.74124E-05   -0.73659E-05  7904   0.663E-04-0.407E-06
  18 F= -.33484698E+03 E0= -.33481919E+03  d E =-.578530E-01  mag=    32.0000
       N       E                     dE             d eps       ncg     rms          ort
SDA:   1    -0.333327669867E+03    0.15193E+01    0.00000E+00  7904   0.521E+02 0.000E+00
CGA:   2    -0.333610748293E+03   -0.28308E+00   -0.74374E+00  7904   0.216E+02-0.229E+02
CGA:   3    -0.333907197841E+03   -0.29645E+00   -0.26962E+00  7904   0.742E+01 0.294E+00
CGA:   4    -0.334034800124E+03   -0.12760E+00   -0.12481E+00  7904   0.429E+01 0.973E-01
CGA:   5    -0.334427207034E+03   -0.39241E+00   -0.38717E+00  7904   0.112E+02 0.943E-01
CGA:   6    -0.334663063839E+03   -0.23586E+00   -0.22593E+00  7904   0.220E+01 0.291E+00
CGA:   7    -0.334706655970E+03   -0.43592E-01   -0.47324E-01  7904   0.165E+01-0.654E-01
CGA:   8    -0.334743363390E+03   -0.36707E-01   -0.36453E-01  7904   0.131E+01 0.171E-02
CGA:   9    -0.334791190331E+03   -0.47827E-01   -0.47826E-01  7904   0.153E+01-0.315E-02
CGA:  10    -0.334827616054E+03   -0.36426E-01   -0.36445E-01  7904   0.279E+00 0.848E-03
CGA:  11    -0.334834065049E+03   -0.64490E-02   -0.64316E-02  7904   0.227E+00 0.986E-04
CGA:  12    -0.334842806637E+03   -0.87416E-02   -0.87394E-02  7904   0.307E+00 0.409E-03
CGA:  13    -0.334848882453E+03   -0.60758E-02   -0.61405E-02  7904   0.166E+00-0.115E-02
CGA:  14    -0.334853027445E+03   -0.41450E-02   -0.40912E-02  7904   0.646E-01-0.538E-03
CGA:  15    -0.334854473291E+03   -0.14458E-02   -0.14509E-02  7904   0.398E-01 0.723E-05
CGA:  16    -0.334856655366E+03   -0.21821E-02   -0.21847E-02  7904   0.762E-01-0.107E-03
CGA:  17    -0.334858033839E+03   -0.13785E-02   -0.13874E-02  7904   0.255E-01-0.180E-03
CGA:  18    -0.334858515079E+03   -0.48124E-03   -0.48107E-03  7904   0.149E-01 0.317E-05
CGA:  19    -0.334859069171E+03   -0.55409E-03   -0.55447E-03  7904   0.160E-01-0.594E-04
CGA:  20    -0.334859737564E+03   -0.66839E-03   -0.66820E-03  7904   0.213E-01 0.155E-04
CGA:  21    -0.334860235321E+03   -0.49776E-03   -0.49808E-03  7904   0.721E-02 0.347E-05
CGA:  22    -0.334860348496E+03   -0.11318E-03   -0.11294E-03  7904   0.380E-02 0.355E-05
CGA:  23    -0.334860533120E+03   -0.18462E-03   -0.18440E-03  7904   0.805E-02 0.120E-04
CGA:  24    -0.334860806065E+03   -0.27294E-03   -0.27297E-03  7904   0.536E-02-0.212E-04
CGA:  25    -0.334860949214E+03   -0.14315E-03   -0.14338E-03  7904   0.286E-02 0.151E-04
CGA:  26    -0.334861005447E+03   -0.56234E-04   -0.56188E-04  7904   0.176E-02 0.734E-06
CGA:  27    -0.334861066680E+03   -0.61232E-04   -0.61222E-04  7904   0.329E-02 0.333E-05
CGA:  28    -0.334861196543E+03   -0.12986E-03   -0.12983E-03  7904   0.198E-02 0.426E-05
CGA:  29    -0.334861235065E+03   -0.38522E-04   -0.38536E-04  7904   0.753E-03 0.197E-05
CGA:  30    -0.334861260440E+03   -0.25376E-04   -0.25371E-04  7904   0.897E-03 0.264E-05
CGA:  31    -0.334861286011E+03   -0.25571E-04   -0.25586E-04  7904   0.119E-02 0.376E-05
SDA:  32    -0.334861327940E+03   -0.41929E-04   -0.41931E-04  7904   0.105E-02 0.232E-06
CGA:  33    -0.334861337899E+03   -0.99589E-05   -0.99989E-05  7904   0.117E-03-0.456E-06
  19 F= -.33486134E+03 E0= -.33483373E+03  d E =-.143579E-01  mag=    32.0000
       N       E                     dE             d eps       ncg     rms          ort
SDA:   1    -0.334435978082E+03    0.42535E+00    0.00000E+00  7904   0.115E+02 0.000E+00
CGA:   2    -0.334540718342E+03   -0.10474E+00   -0.91716E-01  7904   0.115E+01 0.128E+01
CGA:   3    -0.334582435095E+03   -0.41717E-01   -0.41507E-01  7904   0.257E+01 0.603E-01
CGA:   4    -0.334655404588E+03   -0.72969E-01   -0.73275E-01  7904   0.365E+01 0.317E-01
CGA:   5    -0.334764392876E+03   -0.10899E+00   -0.10874E+00  7904   0.723E+00-0.109E+00
CGA:   6    -0.334779892105E+03   -0.15499E-01   -0.15198E-01  7904   0.877E+00-0.287E-02
CGA:   7    -0.334801529217E+03   -0.21637E-01   -0.20258E-01  7904   0.634E+00-0.347E-01
CGA:   8    -0.334810451015E+03   -0.89218E-02   -0.90411E-02  7904   0.480E+00-0.360E-02
CGA:   9    -0.334824359033E+03   -0.13908E-01   -0.13908E-01  7904   0.919E+00-0.107E-02
CGA:  10    -0.334838099525E+03   -0.13740E-01   -0.13746E-01  7904   0.302E+00 0.221E-03
CGA:  11    -0.334842091005E+03   -0.39915E-02   -0.39990E-02  7904   0.163E+00-0.261E-03
CGA:  12    -0.334844295547E+03   -0.22045E-02   -0.22570E-02  7904   0.639E-01-0.184E-02
CGA:  13    -0.334845938600E+03   -0.16431E-02   -0.16436E-02  7904   0.119E+00 0.349E-03
CGA:  14    -0.334848732021E+03   -0.27934E-02   -0.27938E-02  7904   0.103E+00 0.249E-04
CGA:  15    -0.334850977316E+03   -0.22453E-02   -0.22333E-02  7904   0.617E-01-0.722E-03
CGA:  16    -0.334851678855E+03   -0.70154E-03   -0.69907E-03  7904   0.191E-01 0.108E-03
CGA:  17    -0.334852120333E+03   -0.44148E-03   -0.44235E-03  7904   0.252E-01 0.141E-03
CGA:  18    -0.334852652514E+03   -0.53218E-03   -0.53372E-03  7904   0.133E-01 0.107E-03
CGA:  19    -0.334852872993E+03   -0.22048E-03   -0.21999E-03  7904   0.141E-01-0.501E-05
CGA:  20    -0.334853590143E+03   -0.71715E-03   -0.72316E-03  7904   0.182E-01-0.233E-03
CGA:  21    -0.334853751722E+03   -0.16158E-03   -0.16212E-03  7904   0.357E-02-0.459E-04
CGA:  22    -0.334853889861E+03   -0.13814E-03   -0.13765E-03  7904   0.928E-02 0.315E-04
CGA:  23    -0.334854054851E+03   -0.16499E-03   -0.16505E-03  7904   0.524E-02-0.261E-05
CGA:  24    -0.334854176482E+03   -0.12163E-03   -0.12159E-03  7904   0.444E-02-0.102E-04
CGA:  25    -0.334854240441E+03   -0.63959E-04   -0.63980E-04  7904   0.188E-02-0.528E-06
CGA:  26    -0.334854278172E+03   -0.37731E-04   -0.37732E-04  7904   0.197E-02 0.367E-07
CGA:  27    -0.334854328109E+03   -0.49937E-04   -0.49942E-04  7904   0.178E-02-0.249E-05
CGA:  28    -0.334854362351E+03   -0.34242E-04   -0.34288E-04  7904   0.183E-02 0.758E-05
CGA:  29    -0.334854405079E+03   -0.42728E-04   -0.42751E-04  7904   0.161E-02 0.155E-04
CGA:  30    -0.334854448721E+03   -0.43642E-04   -0.43605E-04  7904   0.173E-02 0.120E-04
CGA:  31    -0.334854468719E+03   -0.19998E-04   -0.20037E-04  7904   0.329E-03 0.429E-05
SDA:  32    -0.334854483327E+03   -0.14607E-04   -0.14605E-04  7904   0.125E-02-0.447E-07
CGA:  33    -0.334854494756E+03   -0.11430E-04   -0.11414E-04  7904   0.163E-03-0.715E-06
CGA:  34    -0.334854503534E+03   -0.87776E-05   -0.88126E-05  7904   0.508E-03-0.117E-05
CGA:  35    -0.334854519554E+03   -0.16020E-04   -0.16061E-04  7904   0.313E-03-0.637E-05
CGA:  36    -0.334854529107E+03   -0.95527E-05   -0.95642E-05  7904   0.234E-03-0.222E-05
CGA:  37    -0.334854543147E+03   -0.14041E-04   -0.13970E-04  7904   0.160E-03 0.210E-05
CGA:  38    -0.334854555905E+03   -0.12758E-04   -0.12609E-04  7904   0.172E-03 0.297E-05
CGA:  39    -0.334854559274E+03   -0.33688E-05   -0.33787E-05  7904   0.893E-04 0.761E-06
  20 F= -.33485456E+03 E0= -.33482683E+03  d E =0.677863E-02  mag=    32.0000
       N       E                     dE             d eps       ncg     rms          ort
SDA:   1    -0.334720578560E+03    0.13398E+00    0.00000E+00  7904   0.976E+00 0.000E+00
CGA:   2    -0.334733799068E+03   -0.13221E-01   -0.13165E-01  7904   0.476E+00 0.221E-02
CGA:   3    -0.334767382444E+03   -0.33583E-01   -0.34116E-01  7904   0.203E+01-0.138E-01
CGA:   4    -0.334810989648E+03   -0.43607E-01   -0.43861E-01  7904   0.777E+00 0.272E-02
CGA:   5    -0.334825392954E+03   -0.14403E-01   -0.13645E-01  7904   0.128E+00 0.152E-01
CGA:   6    -0.334833889788E+03   -0.84968E-02   -0.83962E-02  7904   0.341E+00 0.299E-02
CGA:   7    -0.334840611299E+03   -0.67215E-02   -0.67408E-02  7904   0.237E+00-0.273E-03
CGA:   8    -0.334846503434E+03   -0.58921E-02   -0.58074E-02  7904   0.240E-01-0.290E-02
CGA:   9    -0.334848266486E+03   -0.17631E-02   -0.17467E-02  7904   0.616E-01 0.407E-03
CGA:  10    -0.334849263427E+03   -0.99694E-03   -0.10012E-02  7904   0.191E-01-0.118E-03
CGA:  11    -0.334849888000E+03   -0.62457E-03   -0.62462E-03  7904   0.218E-01-0.324E-04
CGA:  12    -0.334850277452E+03   -0.38945E-03   -0.38569E-03  7904   0.574E-02 0.759E-04
CGA:  13    -0.334850518838E+03   -0.24139E-03   -0.24152E-03  7904   0.809E-02-0.112E-04
CGA:  14    -0.334850816029E+03   -0.29719E-03   -0.29728E-03  7904   0.697E-02-0.142E-04
CGA:  15    -0.334850905369E+03   -0.89340E-04   -0.89636E-04  7904   0.152E-02-0.967E-05
CGA:  16    -0.334850971636E+03   -0.66266E-04   -0.66149E-04  7904   0.215E-02 0.780E-05
CGA:  17    -0.334851062768E+03   -0.91132E-04   -0.91114E-04  7904   0.376E-02 0.169E-05
CGA:  18    -0.334851142828E+03   -0.80060E-04   -0.79990E-04  7904   0.530E-03-0.718E-07
CGA:  19    -0.334851150443E+03   -0.76153E-05   -0.76398E-05  7904   0.334E-03 0.926E-06
CGA:  20    -0.334851190609E+03   -0.40165E-04   -0.39940E-04  7904   0.588E-03 0.263E-05
CGA:  21    -0.334851202782E+03   -0.12174E-04   -0.12199E-04  7904   0.441E-03 0.991E-06
CGA:  22    -0.334851214107E+03   -0.11324E-04   -0.11314E-04  7904   0.298E-03-0.608E-06
CGA:  23    -0.334851221196E+03   -0.70897E-05   -0.70917E-05  7904   0.176E-03 0.488E-06
  21 F= -.33485122E+03 E0= -.33482340E+03  d E =0.333808E-02  mag=    32.0000
       N       E                     dE             d eps       ncg     rms          ort
SDA:   1    -0.334469707313E+03    0.38151E+00    0.00000E+00  7904   0.607E+01 0.000E+00
CGA:   2    -0.334534764422E+03   -0.65057E-01   -0.68435E-01  7904   0.133E+01-0.240E+00
CGA:   3    -0.334578332949E+03   -0.43569E-01   -0.43474E-01  7904   0.220E+01 0.376E-01
CGA:   4    -0.334716665640E+03   -0.13833E+00   -0.14102E+00  7904   0.553E+01-0.884E-01
CGA:   5    -0.334792799269E+03   -0.76134E-01   -0.80194E-01  7904   0.802E+00-0.169E+00
CGA:   6    -0.334816107876E+03   -0.23309E-01   -0.23689E-01  7904   0.316E+00 0.571E-01
CGA:   7    -0.334821904252E+03   -0.57964E-02   -0.58098E-02  7904   0.237E+00-0.362E-03
CGA:   8    -0.334836795284E+03   -0.14891E-01   -0.14931E-01  7904   0.456E+00-0.132E-02
CGA:   9    -0.334844337546E+03   -0.75423E-02   -0.76251E-02  7904   0.120E+00-0.248E-02
CGA:  10    -0.334846835905E+03   -0.24984E-02   -0.24696E-02  7904   0.467E-01 0.229E-03
CGA:  11    -0.334848263333E+03   -0.14274E-02   -0.14249E-02  7904   0.435E-01-0.593E-03
CGA:  12    -0.334849061748E+03   -0.79842E-03   -0.79650E-03  7904   0.279E-01 0.227E-04
CGA:  13    -0.334850831640E+03   -0.17699E-02   -0.17690E-02  7904   0.199E-01 0.274E-04
CGA:  14    -0.334851107470E+03   -0.27583E-03   -0.27662E-03  7904   0.692E-02-0.264E-04
CGA:  15    -0.334851443496E+03   -0.33603E-03   -0.33521E-03  7904   0.142E-01 0.448E-04
CGA:  16    -0.334851754955E+03   -0.31146E-03   -0.31145E-03  7904   0.648E-02 0.921E-05
CGA:  17    -0.334851898192E+03   -0.14324E-03   -0.14346E-03  7904   0.210E-02 0.575E-05
CGA:  18    -0.334851970481E+03   -0.72289E-04   -0.72319E-04  7904   0.331E-02-0.914E-05
CGA:  19    -0.334852056985E+03   -0.86504E-04   -0.86470E-04  7904   0.306E-02-0.354E-05
CGA:  20    -0.334852158283E+03   -0.10130E-03   -0.10129E-03  7904   0.150E-02 0.299E-05
CGA:  21    -0.334852190558E+03   -0.32275E-04   -0.32279E-04  7904   0.967E-03 0.125E-06
CGA:  22    -0.334852212768E+03   -0.22210E-04   -0.22226E-04  7904   0.403E-03-0.168E-06
CGA:  23    -0.334852224575E+03   -0.11808E-04   -0.11811E-04  7904   0.768E-03 0.193E-05
CGA:  24    -0.334852274944E+03   -0.50369E-04   -0.50281E-04  7904   0.564E-03 0.254E-05
CGA:  25    -0.334852284331E+03   -0.93873E-05   -0.94065E-05  7904   0.193E-03 0.808E-06
  22 F= -.33485228E+03 E0= -.33482453E+03  d E =-.106313E-02  mag=    32.0000
       N       E                     dE             d eps       ncg     rms          ort
SDA:   1    -0.331519810125E+03    0.33325E+01    0.00000E+00  7904   0.320E+02 0.000E+00
CGA:   2    -0.331898218693E+03   -0.37841E+00   -0.55543E+00  7904   0.152E+02-0.323E+01
CGA:   3    -0.332465941165E+03   -0.56772E+00   -0.59539E+00  7904   0.425E+02-0.171E+01
CGA:   4    -0.333841119462E+03   -0.13752E+01   -0.13726E+01  7904   0.384E+02 0.360E+00
CGA:   5    -0.334335672104E+03   -0.49455E+00   -0.51963E+00  7904   0.530E+01-0.109E+01
CGA:   6    -0.334453192901E+03   -0.11752E+00   -0.11703E+00  7904   0.242E+01-0.674E-02
CGA:   7    -0.334607094233E+03   -0.15390E+00   -0.14997E+00  7904   0.544E+01 0.123E+00
CGA:   8    -0.334735788620E+03   -0.12869E+00   -0.12570E+00  7904   0.238E+01-0.155E-01
CGA:   9    -0.334774146556E+03   -0.38358E-01   -0.38869E-01  7904   0.877E+00-0.155E-01
CGA:  10    -0.334791129234E+03   -0.16983E-01   -0.17118E-01  7904   0.426E+00-0.587E-03
CGA:  11    -0.334810404955E+03   -0.19276E-01   -0.19790E-01  7904   0.575E+00-0.269E-01
CGA:  12    -0.334827709869E+03   -0.17305E-01   -0.17296E-01  7904   0.381E+00 0.378E-02
CGA:  13    -0.334835730132E+03   -0.80203E-02   -0.80146E-02  7904   0.141E+00 0.105E-03
CGA:  14    -0.334838357618E+03   -0.26275E-02   -0.26333E-02  7904   0.903E-01-0.280E-04
CGA:  15    -0.334840612399E+03   -0.22548E-02   -0.22627E-02  7904   0.667E-01 0.545E-03
CGA:  16    -0.334843686587E+03   -0.30742E-02   -0.30851E-02  7904   0.965E-01-0.568E-03
CGA:  17    -0.334846207157E+03   -0.25206E-02   -0.25244E-02  7904   0.367E-01 0.357E-03
CGA:  18    -0.334846996419E+03   -0.78926E-03   -0.78607E-03  7904   0.174E-01-0.323E-04
CGA:  19    -0.334847364039E+03   -0.36762E-03   -0.36821E-03  7904   0.166E-01 0.108E-04
CGA:  20    -0.334848035394E+03   -0.67135E-03   -0.67036E-03  7904   0.193E-01 0.723E-04
CGA:  21    -0.334848500887E+03   -0.46549E-03   -0.46533E-03  7904   0.777E-02-0.324E-05
CGA:  22    -0.334848708585E+03   -0.20770E-03   -0.20773E-03  7904   0.520E-02 0.606E-05
CGA:  23    -0.334848960650E+03   -0.25207E-03   -0.25190E-03  7904   0.120E-01 0.838E-05
CGA:  24    -0.334849239046E+03   -0.27840E-03   -0.27829E-03  7904   0.660E-02 0.195E-06
CGA:  25    -0.334849362952E+03   -0.12391E-03   -0.12420E-03  7904   0.248E-02 0.420E-05
CGA:  26    -0.334849433185E+03   -0.70234E-04   -0.70223E-04  7904   0.209E-02-0.449E-05
CGA:  27    -0.334849552785E+03   -0.11960E-03   -0.11886E-03  7904   0.353E-02 0.266E-04
CGA:  28    -0.334849642868E+03   -0.90084E-04   -0.90073E-04  7904   0.250E-02 0.376E-05
CGA:  29    -0.334849693013E+03   -0.50145E-04   -0.50247E-04  7904   0.139E-02 0.645E-05
CGA:  30    -0.334849726162E+03   -0.33149E-04   -0.33176E-04  7904   0.108E-02 0.299E-05
CGA:  31    -0.334849773002E+03   -0.46840E-04   -0.46813E-04  7904   0.120E-02 0.196E-05
SDA:  32    -0.334849814896E+03   -0.41894E-04   -0.41890E-04  7904   0.978E-03 0.516E-06
CGA:  33    -0.334849824865E+03   -0.99688E-05   -0.99607E-05  7904   0.160E-03 0.240E-06
  23 F= -.33484982E+03 E0= -.33482202E+03  d E =0.245947E-02  mag=    32.0000
       N       E                     dE             d eps       ncg     rms          ort
SDA:   1    -0.309655210876E+03    0.25195E+02    0.00000E+00  7904   0.545E+03 0.000E+00
CGA:   2    -0.317142046378E+03   -0.74868E+01   -0.87781E+01  7904   0.154E+03-0.126E+03
CGA:   3    -0.319785575469E+03   -0.26435E+01   -0.25509E+01  7904   0.656E+02 0.225E+01
CGA:   4    -0.322449233442E+03   -0.26637E+01   -0.57215E+01  7904   0.513E+03-0.586E+02
CGA:   5    -0.326845157503E+03   -0.43959E+01   -0.81329E+01  7904   0.999E+02-0.112E+03
CGA:   6    -0.328275141665E+03   -0.14300E+01   -0.84189E+00  7904   0.252E+02 0.373E+02
CGA:   7    -0.328700642548E+03   -0.42550E+00   -0.30013E+00  7904   0.248E+02 0.122E+02
CGA:   8    -0.328990420128E+03   -0.28978E+00   -0.17552E+00  7904   0.278E+02 0.214E+02
CGA:   9    -0.329384333076E+03   -0.39391E+00   -0.46382E+00  7904   0.257E+02-0.122E+01
[...]
CGA:  13    -0.334836672584E+03   -0.14675E-02   -0.14562E-02  7904   0.132E-01 0.107E-03
CGA:  14    -0.334837043615E+03   -0.37103E-03   -0.37084E-03  7904   0.127E-01-0.586E-04
CGA:  15    -0.334837262660E+03   -0.21905E-03   -0.21986E-03  7904   0.619E-02-0.101E-04
CGA:  16    -0.334837635706E+03   -0.37305E-03   -0.37368E-03  7904   0.128E-01-0.207E-04
CGA:  17    -0.334837804589E+03   -0.16888E-03   -0.16840E-03  7904   0.165E-02 0.160E-04
CGA:  18    -0.334837892536E+03   -0.87947E-04   -0.87991E-04  7904   0.579E-02-0.168E-05
CGA:  19    -0.334838026787E+03   -0.13425E-03   -0.13428E-03  7904   0.190E-02 0.479E-05
CGA:  20    -0.334838073226E+03   -0.46440E-04   -0.46485E-04  7904   0.113E-02 0.428E-05
CGA:  21    -0.334838092020E+03   -0.18794E-04   -0.18812E-04  7904   0.477E-03 0.153E-05
CGA:  22    -0.334838103960E+03   -0.11940E-04   -0.11943E-04  7904   0.502E-03 0.648E-06
CGA:  23    -0.334838141859E+03   -0.37899E-04   -0.37774E-04  7904   0.123E-02 0.278E-05
CGA:  24    -0.334838158348E+03   -0.16489E-04   -0.16466E-04  7904   0.188E-03 0.951E-06
CGA:  25    -0.334838163696E+03   -0.53479E-05   -0.53443E-05  7904   0.161E-03-0.123E-05
 179 F= -.33483816E+03 E0= -.33481056E+03  d E =0.154060E-02  mag=    32.0000
       N       E                     dE             d eps       ncg     rms          ort
SDA:   1    -0.334645133734E+03    0.19302E+00    0.00000E+00  7904   0.161E+02 0.000E+00
CGA:   2    -0.334803061780E+03   -0.15793E+00   -0.13449E+00  7904   0.501E+00 0.237E+01
CGA:   3    -0.334809264353E+03   -0.62026E-02   -0.59298E-02  7904   0.143E+00 0.193E-01
CGA:   4    -0.334813892910E+03   -0.46286E-02   -0.46314E-02  7904   0.210E+00-0.546E-03
CGA:   5    -0.334820229536E+03   -0.63366E-02   -0.63298E-02  7904   0.321E+00 0.182E-02
CGA:   6    -0.334827444152E+03   -0.72146E-02   -0.71890E-02  7904   0.216E+00-0.975E-03
CGA:   7    -0.334831466201E+03   -0.40220E-02   -0.40229E-02  7904   0.786E-01 0.281E-04
CGA:   8    -0.334832523557E+03   -0.10574E-02   -0.10703E-02  7904   0.368E-01-0.474E-03
CGA:   9    -0.334834604414E+03   -0.20809E-02   -0.20864E-02  7904   0.927E-01-0.190E-03
CGA:  10    -0.334836160945E+03   -0.15565E-02   -0.15493E-02  7904   0.463E-01 0.107E-03
CGA:  11    -0.334837358241E+03   -0.11973E-02   -0.11986E-02  7904   0.210E-01 0.299E-03
CGA:  12    -0.334837593689E+03   -0.23545E-03   -0.23774E-03  7904   0.512E-02-0.117E-03
CGA:  13    -0.334837994744E+03   -0.40105E-03   -0.40064E-03  7904   0.200E-01 0.860E-05
CGA:  14    -0.334838313443E+03   -0.31870E-03   -0.31854E-03  7904   0.385E-02 0.242E-05
CGA:  15    -0.334838392421E+03   -0.78978E-04   -0.79033E-04  7904   0.237E-02 0.154E-05
CGA:  16    -0.334838455311E+03   -0.62890E-04   -0.62920E-04  7904   0.243E-02 0.840E-05
CGA:  17    -0.334838513230E+03   -0.57919E-04   -0.57889E-04  7904   0.177E-02-0.365E-05
CGA:  18    -0.334838578371E+03   -0.65141E-04   -0.65277E-04  7904   0.149E-02-0.130E-04
CGA:  19    -0.334838596423E+03   -0.18053E-04   -0.18069E-04  7904   0.317E-03-0.139E-05
CGA:  20    -0.334838621369E+03   -0.24946E-04   -0.24784E-04  7904   0.144E-02 0.321E-05
CGA:  21    -0.334838647294E+03   -0.25926E-04   -0.25934E-04  7904   0.246E-03 0.100E-05
CGA:  22    -0.334838653139E+03   -0.58442E-05   -0.58421E-05  7904   0.173E-03-0.228E-06
 180 F= -.33483865E+03 E0= -.33481099E+03  d E =-.489443E-03  mag=    32.0000
       N       E                     dE             d eps       ncg     rms          ort
SDA:   1    -0.334376211331E+03    0.46244E+00    0.00000E+00  7904   0.282E+02 0.000E+00
CGA:   2    -0.334668023228E+03   -0.29181E+00   -0.24612E+00  7904   0.159E+01 0.447E+01
CGA:   3    -0.334690617475E+03   -0.22594E-01   -0.21357E-01  7904   0.590E+00 0.678E-01
CGA:   4    -0.334709958721E+03   -0.19341E-01   -0.19151E-01  7904   0.116E+01 0.292E-01
CGA:   5    -0.334766635827E+03   -0.56677E-01   -0.55646E-01  7904   0.171E+01 0.499E-01
CGA:   6    -0.334793780719E+03   -0.27145E-01   -0.26293E-01  7904   0.664E+00 0.262E-01
CGA:   7    -0.334808338472E+03   -0.14558E-01   -0.14061E-01  7904   0.313E+00-0.132E-01
CGA:   8    -0.334812477737E+03   -0.41393E-02   -0.41762E-02  7904   0.196E+00-0.134E-02
CGA:   9    -0.334822782808E+03   -0.10305E-01   -0.10160E-01  7904   0.491E+00 0.552E-02
CGA:  10    -0.334829586954E+03   -0.68041E-02   -0.67601E-02  7904   0.839E-01 0.171E-02
CGA:  11    -0.334831378289E+03   -0.17913E-02   -0.17874E-02  7904   0.767E-01-0.156E-03
CGA:  12    -0.334833013451E+03   -0.16352E-02   -0.16375E-02  7904   0.546E-01 0.120E-03
CGA:  13    -0.334834533749E+03   -0.15203E-02   -0.15204E-02  7904   0.584E-01-0.351E-04
CGA:  14    -0.334835682912E+03   -0.11492E-02   -0.11492E-02  7904   0.324E-01 0.126E-04
CGA:  15    -0.334836174696E+03   -0.49178E-03   -0.49427E-03  7904   0.704E-02-0.361E-04
CGA:  16    -0.334836348573E+03   -0.17388E-03   -0.17389E-03  7904   0.131E-01 0.111E-04
CGA:  17    -0.334837025195E+03   -0.67662E-03   -0.67761E-03  7904   0.106E-01-0.382E-04
CGA:  18    -0.334837159321E+03   -0.13413E-03   -0.13406E-03  7904   0.401E-02 0.526E-05
CGA:  19    -0.334837253073E+03   -0.93751E-04   -0.93835E-04  7904   0.192E-02 0.133E-04
CGA:  20    -0.334837293173E+03   -0.40101E-04   -0.40122E-04  7904   0.226E-02 0.223E-05
CGA:  21    -0.334837395873E+03   -0.10270E-03   -0.10282E-03  7904   0.386E-02-0.581E-05
CGA:  22    -0.334837468501E+03   -0.72628E-04   -0.72537E-04  7904   0.145E-02-0.247E-05
CGA:  23    -0.334837488646E+03   -0.20145E-04   -0.20209E-04  7904   0.485E-03 0.226E-06
CGA:  24    -0.334837504052E+03   -0.15406E-04   -0.15386E-04  7904   0.637E-03 0.283E-05
CGA:  25    -0.334837517670E+03   -0.13618E-04   -0.13608E-04  7904   0.617E-03-0.185E-05
CGA:  26    -0.334837545480E+03   -0.27810E-04   -0.27941E-04  7904   0.538E-03-0.666E-05
CGA:  27    -0.334837551180E+03   -0.57000E-05   -0.57053E-05  7904   0.114E-03-0.227E-06
 181 F= -.33483755E+03 E0= -.33480994E+03  d E =0.110196E-02  mag=    32.0000
       N       E                     dE             d eps       ncg     rms          ort
SDA:   1    -0.334731936188E+03    0.10561E+00    0.00000E+00  7904   0.960E+01 0.000E+00
CGA:   2    -0.334816695386E+03   -0.84759E-01   -0.10191E+00  7904   0.446E+00-0.110E+01
CGA:   3    -0.334821477093E+03   -0.47817E-02   -0.46856E-02  7904   0.594E-01 0.469E-02
CGA:   4    -0.334825064487E+03   -0.35874E-02   -0.35988E-02  7904   0.241E+00-0.356E-03
CGA:   5    -0.334832395634E+03   -0.73311E-02   -0.73329E-02  7904   0.593E-01-0.332E-03
CGA:   6    -0.334833838494E+03   -0.14429E-02   -0.14423E-02  7904   0.416E-01-0.541E-04
CGA:   7    -0.334835023104E+03   -0.11846E-02   -0.11843E-02  7904   0.492E-01 0.156E-03
CGA:   8    -0.334836422884E+03   -0.13998E-02   -0.13998E-02  7904   0.359E-01 0.157E-04
CGA:   9    -0.334837423146E+03   -0.10003E-02   -0.10005E-02  7904   0.101E-01-0.302E-03
CGA:  10    -0.334837623103E+03   -0.19996E-03   -0.20017E-03  7904   0.870E-02 0.720E-05
CGA:  11    -0.334838093330E+03   -0.47023E-03   -0.47036E-03  7904   0.997E-02-0.498E-05
CGA:  12    -0.334838263687E+03   -0.17036E-03   -0.17041E-03  7904   0.396E-02 0.432E-06
CGA:  13    -0.334838346499E+03   -0.82812E-04   -0.82841E-04  7904   0.119E-02 0.886E-06
CGA:  14    -0.334838387279E+03   -0.40780E-04   -0.40795E-04  7904   0.149E-02-0.147E-05
CGA:  15    -0.334838466327E+03   -0.79048E-04   -0.78852E-04  7904   0.239E-02 0.776E-05
CGA:  16    -0.334838499919E+03   -0.33591E-04   -0.33572E-04  7904   0.199E-03 0.139E-05
CGA:  17    -0.334838505665E+03   -0.57461E-05   -0.57463E-05  7904   0.335E-03-0.421E-06
CGA:  18    -0.334838526214E+03   -0.20550E-04   -0.20585E-04  7904   0.409E-03-0.105E-05
CGA:  19    -0.334838534875E+03   -0.86603E-05   -0.86453E-05  7904   0.111E-03-0.133E-05
 182 F= -.33483853E+03 E0= -.33481096E+03  d E =-.983695E-03  mag=    32.0000
       N       E                     dE             d eps       ncg     rms          ort
SDA:   1    -0.334650027483E+03    0.18850E+00    0.00000E+00  7904   0.507E+01 0.000E+00
CGA:   2    -0.334708817011E+03   -0.58790E-01   -0.61524E-01  7904   0.606E+00-0.132E+00
CGA:   3    -0.334725932635E+03   -0.17116E-01   -0.17143E-01  7904   0.862E+00-0.248E-01
CGA:   4    -0.334775923458E+03   -0.49991E-01   -0.51060E-01  7904   0.101E+01-0.342E-01
CGA:   5    -0.334807317866E+03   -0.31394E-01   -0.31245E-01  7904   0.412E+00 0.430E-01
CGA:   6    -0.334813531083E+03   -0.62132E-02   -0.61106E-02  7904   0.140E+00 0.410E-02
CGA:   7    -0.334829436423E+03   -0.15905E-01   -0.15744E-01  7904   0.111E+00 0.232E-02
CGA:   8    -0.334832289116E+03   -0.28527E-02   -0.28302E-02  7904   0.739E-01-0.431E-03
CGA:   9    -0.334834074653E+03   -0.17855E-02   -0.17874E-02  7904   0.442E-01 0.312E-04
CGA:  10    -0.334835944045E+03   -0.18694E-02   -0.18709E-02  7904   0.600E-01-0.112E-03
CGA:  11    -0.334837236911E+03   -0.12929E-02   -0.12934E-02  7904   0.121E-01-0.155E-06
CGA:  12    -0.334837424019E+03   -0.18711E-03   -0.18785E-03  7904   0.633E-02-0.165E-04
CGA:  13    -0.334838075930E+03   -0.65191E-03   -0.64884E-03  7904   0.722E-02 0.489E-04
CGA:  14    -0.334838264009E+03   -0.18808E-03   -0.18797E-03  7904   0.327E-02-0.150E-05
CGA:  15    -0.334838318153E+03   -0.54145E-04   -0.53739E-04  7904   0.111E-02 0.818E-05
CGA:  16    -0.334838401908E+03   -0.83755E-04   -0.83757E-04  7904   0.375E-02-0.163E-07
CGA:  17    -0.334838497823E+03   -0.95914E-04   -0.95855E-04  7904   0.932E-03-0.400E-05
CGA:  18    -0.334838510587E+03   -0.12764E-04   -0.12744E-04  7904   0.285E-03 0.850E-07
CGA:  19    -0.334838533776E+03   -0.23189E-04   -0.23243E-04  7904   0.417E-03-0.122E-05
CGA:  20    -0.334838553808E+03   -0.20031E-04   -0.19999E-04  7904   0.354E-03 0.274E-05
CGA:  21    -0.334838559273E+03   -0.54651E-05   -0.54853E-05  7904   0.109E-03 0.579E-06
 183 F= -.33483856E+03 E0= -.33481096E+03  d E =-.243980E-04  mag=    32.0000
       N       E                     dE             d eps       ncg     rms          ort
SDA:   1    -0.334786195578E+03    0.52358E-01    0.00000E+00  7904   0.146E+01 0.000E+00
CGA:   2    -0.334805737563E+03   -0.19542E-01   -0.18919E-01  7904   0.146E+00 0.347E-01
CGA:   3    -0.334810455265E+03   -0.47177E-02   -0.47354E-02  7904   0.236E+00 0.150E-02
CGA:   4    -0.334819662649E+03   -0.92074E-02   -0.91773E-02  7904   0.217E+00 0.639E-02
CGA:   5    -0.334829944457E+03   -0.10282E-01   -0.10375E-01  7904   0.212E+00-0.638E-02
CGA:   6    -0.334832604497E+03   -0.26600E-02   -0.26405E-02  7904   0.330E-01 0.109E-02
CGA:   7    -0.334835999329E+03   -0.33948E-02   -0.33500E-02  7904   0.514E-01 0.773E-03
CGA:   8    -0.334837304539E+03   -0.13052E-02   -0.13032E-02  7904   0.266E-01-0.697E-05
CGA:   9    -0.334837791722E+03   -0.48718E-03   -0.48200E-03  7904   0.122E-01 0.142E-03
CGA:  10    -0.334838136872E+03   -0.34515E-03   -0.34536E-03  7904   0.128E-01 0.558E-05
CGA:  11    -0.334838772280E+03   -0.63541E-03   -0.63454E-03  7904   0.255E-02 0.526E-04
CGA:  12    -0.334838820057E+03   -0.47777E-04   -0.47874E-04  7904   0.219E-02-0.749E-06
CGA:  13    -0.334838927610E+03   -0.10755E-03   -0.10750E-03  7904   0.224E-02 0.348E-05
CGA:  14    -0.334839003449E+03   -0.75839E-04   -0.75819E-04  7904   0.283E-02-0.413E-05
CGA:  15    -0.334839052332E+03   -0.48882E-04   -0.48892E-04  7904   0.293E-03 0.454E-06
CGA:  16    -0.334839062997E+03   -0.10666E-04   -0.10666E-04  7904   0.462E-03-0.332E-06
CGA:  17    -0.334839095529E+03   -0.32532E-04   -0.32481E-04  7904   0.416E-03 0.147E-05
CGA:  18    -0.334839101754E+03   -0.62245E-05   -0.62462E-05  7904   0.174E-03 0.717E-06
 184 F= -.33483910E+03 E0= -.33481146E+03  d E =-.542481E-03  mag=    32.0000
       N       E                     dE             d eps       ncg     rms          ort
SDA:   1    -0.334708242291E+03    0.13085E+00    0.00000E+00  7904   0.303E+01 0.000E+00
CGA:   2    -0.334742723754E+03   -0.34481E-01   -0.32194E-01  7904   0.373E+00 0.178E+00
CGA:   3    -0.334757261090E+03   -0.14537E-01   -0.14491E-01  7904   0.598E+00 0.122E-01
CGA:   4    -0.334790364053E+03   -0.33103E-01   -0.32658E-01  7904   0.804E+00 0.205E-01
CGA:   5    -0.334810658779E+03   -0.20295E-01   -0.19683E-01  7904   0.526E+00 0.841E-03
CGA:   6    -0.334819444521E+03   -0.87857E-02   -0.86579E-02  7904   0.107E+00 0.459E-02
CGA:   7    -0.334823946695E+03   -0.45022E-02   -0.44950E-02  7904   0.311E+00 0.642E-03
CGA:   8    -0.334832693232E+03   -0.87465E-02   -0.87422E-02  7904   0.518E-01-0.199E-03
CGA:   9    -0.334833591498E+03   -0.89827E-03   -0.89207E-03  7904   0.441E-01 0.163E-03
CGA:  10    -0.334835286749E+03   -0.16953E-02   -0.17005E-02  7904   0.391E-01-0.638E-03
CGA:  11    -0.334836349646E+03   -0.10629E-02   -0.10636E-02  7904   0.414E-01 0.405E-04
CGA:  12    -0.334837018351E+03   -0.66871E-03   -0.67069E-03  7904   0.613E-02-0.533E-04
CGA:  13    -0.334837155944E+03   -0.13759E-03   -0.13748E-03  7904   0.570E-02-0.768E-06
CGA:  14    -0.334837417553E+03   -0.26161E-03   -0.26155E-03  7904   0.129E-01 0.388E-05
CGA:  15    -0.334837704219E+03   -0.28667E-03   -0.28623E-03  7904   0.283E-02-0.158E-05
CGA:  16    -0.334837762455E+03   -0.58236E-04   -0.58280E-04  7904   0.194E-02 0.220E-05
CGA:  17    -0.334837799362E+03   -0.36907E-04   -0.37070E-04  7904   0.890E-03 0.317E-05
CGA:  18    -0.334837872616E+03   -0.73254E-04   -0.73032E-04  7904   0.294E-02 0.448E-05
CGA:  19    -0.334837912554E+03   -0.39938E-04   -0.39823E-04  7904   0.255E-03 0.375E-05
CGA:  20    -0.334837922542E+03   -0.99879E-05   -0.99893E-05  7904   0.530E-03-0.220E-06
CGA:  21    -0.334837938279E+03   -0.15737E-04   -0.15742E-04  7904   0.476E-03 0.834E-06
CGA:  22    -0.334837950300E+03   -0.12020E-04   -0.12005E-04  7904   0.228E-03-0.170E-05
CGA:  23    -0.334837954937E+03   -0.46376E-05   -0.46245E-05  7904   0.108E-03-0.802E-06
 185 F= -.33483795E+03 E0= -.33481033E+03  d E =0.114682E-02  mag=    32.0000
       N       E                     dE             d eps       ncg     rms          ort
SDA:   1    -0.334815627378E+03    0.22323E-01    0.00000E+00  7904   0.122E+01 0.000E+00
CGA:   2    -0.334827735752E+03   -0.12108E-01   -0.12767E-01  7904   0.892E-01-0.464E-01
CGA:   3    -0.334830041673E+03   -0.23059E-02   -0.22885E-02  7904   0.383E-01-0.187E-02
CGA:   4    -0.334832018442E+03   -0.19768E-02   -0.19778E-02  7904   0.973E-01-0.445E-04
CGA:   5    -0.334835446924E+03   -0.34285E-02   -0.34285E-02  7904   0.457E-01-0.918E-05
CGA:   6    -0.334836153515E+03   -0.70659E-03   -0.70791E-03  7904   0.144E-01-0.389E-04
CGA:   7    -0.334836951994E+03   -0.79848E-03   -0.79625E-03  7904   0.361E-01 0.858E-04
CGA:   8    -0.334837709889E+03   -0.75790E-03   -0.75715E-03  7904   0.533E-02 0.110E-04
CGA:   9    -0.334837903454E+03   -0.19356E-03   -0.19369E-03  7904   0.578E-02-0.149E-04
CGA:  10    -0.334838051072E+03   -0.14762E-03   -0.14748E-03  7904   0.456E-02-0.767E-05
CGA:  11    -0.334838283774E+03   -0.23270E-03   -0.23227E-03  7904   0.181E-02 0.204E-04
CGA:  12    -0.334838307594E+03   -0.23820E-04   -0.23766E-04  7904   0.428E-03 0.208E-05
CGA:  13    -0.334838327970E+03   -0.20377E-04   -0.20352E-04  7904   0.977E-03 0.156E-05
CGA:  14    -0.334838364180E+03   -0.36210E-04   -0.36197E-04  7904   0.651E-03 0.263E-05
CGA:  15    -0.334838376812E+03   -0.12632E-04   -0.12652E-04  7904   0.196E-03 0.157E-05
CGA:  16    -0.334838381110E+03   -0.42978E-05   -0.43090E-05  7904   0.743E-04 0.897E-06
 186 F= -.33483838E+03 E0= -.33481078E+03  d E =-.426173E-03  mag=    32.0000
       N       E                     dE             d eps       ncg     rms          ort
SDA:   1    -0.334631338055E+03    0.20704E+00    0.00000E+00  7904   0.810E+01 0.000E+00
CGA:   2    -0.334702000949E+03   -0.70663E-01   -0.87880E-01  7904   0.102E+01-0.124E+01
CGA:   3    -0.334719643763E+03   -0.17643E-01   -0.17457E-01  7904   0.605E+00 0.130E-02
CGA:   4    -0.334771882075E+03   -0.52238E-01   -0.51746E-01  7904   0.134E+01 0.105E-01
CGA:   5    -0.334802113264E+03   -0.30231E-01   -0.29917E-01  7904   0.532E+00 0.131E-02
CGA:   6    -0.334811094007E+03   -0.89807E-02   -0.92434E-02  7904   0.187E+00-0.724E-02
CGA:   7    -0.334819676465E+03   -0.85825E-02   -0.85604E-02  7904   0.254E+00 0.131E-02
CGA:   8    -0.334828471936E+03   -0.87955E-02   -0.87957E-02  7904   0.231E+00-0.229E-03
CGA:   9    -0.334832567524E+03   -0.40956E-02   -0.40955E-02  7904   0.501E-01-0.271E-05
CGA:  10    -0.334833989257E+03   -0.14217E-02   -0.14224E-02  7904   0.366E-01 0.563E-04
CGA:  11    -0.334835500347E+03   -0.15111E-02   -0.15125E-02  7904   0.569E-01-0.114E-03
CGA:  12    -0.334836670368E+03   -0.11700E-02   -0.11762E-02  7904   0.158E-01-0.343E-04
CGA:  13    -0.334837061092E+03   -0.39072E-03   -0.39008E-03  7904   0.604E-02-0.136E-04
CGA:  14    -0.334837309717E+03   -0.24862E-03   -0.24834E-03  7904   0.973E-02 0.255E-04
CGA:  15    -0.334837575005E+03   -0.26529E-03   -0.26522E-03  7904   0.723E-02-0.299E-06
CGA:  16    -0.334837743162E+03   -0.16816E-03   -0.16835E-03  7904   0.154E-02 0.975E-05
CGA:  17    -0.334837788901E+03   -0.45739E-04   -0.45739E-04  7904   0.167E-02 0.251E-06
CGA:  18    -0.334837853759E+03   -0.64858E-04   -0.64855E-04  7904   0.260E-02 0.355E-06
CGA:  19    -0.334837928987E+03   -0.75228E-04   -0.75224E-04  7904   0.728E-03-0.109E-05
CGA:  20    -0.334837945094E+03   -0.16107E-04   -0.16120E-04  7904   0.364E-03 0.583E-06
CGA:  21    -0.334837954183E+03   -0.90894E-05   -0.90838E-05  7904   0.360E-03-0.717E-06
CGA:  22    -0.334837973000E+03   -0.18817E-04   -0.18785E-04  7904   0.486E-03 0.148E-05
CGA:  23    -0.334837989237E+03   -0.16237E-04   -0.16238E-04  7904   0.207E-03-0.639E-06
CGA:  24    -0.334837992623E+03   -0.33860E-05   -0.33949E-05  7904   0.873E-04 0.458E-06
 187 F= -.33483799E+03 E0= -.33481033E+03  d E =0.388487E-03  mag=    32.0000
       N       E                     dE             d eps       ncg     rms          ort
SDA:   1    -0.334736814044E+03    0.10118E+00    0.00000E+00  7904   0.388E+01 0.000E+00
CGA:   2    -0.334783574862E+03   -0.46761E-01   -0.40823E-01  7904   0.263E+00 0.415E+00
CGA:   3    -0.334789233089E+03   -0.56582E-02   -0.57180E-02  7904   0.238E+00-0.339E-03
CGA:   4    -0.334810759329E+03   -0.21526E-01   -0.20970E-01  7904   0.594E+00 0.109E-01
CGA:   5    -0.334821987669E+03   -0.11228E-01   -0.10972E-01  7904   0.220E+00 0.605E-02
CGA:   6    -0.334827392540E+03   -0.54049E-02   -0.53027E-02  7904   0.103E+00-0.178E-02
CGA:   7    -0.334829426503E+03   -0.20340E-02   -0.20359E-02  7904   0.787E-01-0.370E-04
CGA:   8    -0.334833540541E+03   -0.41140E-02   -0.41023E-02  7904   0.125E+00 0.497E-03
CGA:   9    -0.334835781844E+03   -0.22413E-02   -0.22594E-02  7904   0.280E-01-0.378E-03
CGA:  10    -0.334836460731E+03   -0.67889E-03   -0.67685E-03  7904   0.242E-01-0.624E-04
CGA:  11    -0.334836971515E+03   -0.51078E-03   -0.50807E-03  7904   0.146E-01-0.616E-05
CGA:  12    -0.334837641066E+03   -0.66955E-03   -0.66836E-03  7904   0.174E-01 0.664E-04
CGA:  13    -0.334837922119E+03   -0.28105E-03   -0.28061E-03  7904   0.356E-02 0.127E-04
CGA:  14    -0.334837991448E+03   -0.69329E-04   -0.69375E-04  7904   0.343E-02 0.291E-06
CGA:  15    -0.334838209814E+03   -0.21837E-03   -0.21823E-03  7904   0.391E-02 0.419E-05
CGA:  16    -0.334838284210E+03   -0.74397E-04   -0.74214E-04  7904   0.215E-02-0.173E-05
CGA:  17    -0.334838331071E+03   -0.46861E-04   -0.46739E-04  7904   0.869E-03-0.181E-05
CGA:  18    -0.334838347513E+03   -0.16441E-04   -0.16435E-04  7904   0.570E-03-0.315E-06
CGA:  19    -0.334838388525E+03   -0.41013E-04   -0.40977E-04  7904   0.170E-02 0.793E-06
CGA:  20    -0.334838417834E+03   -0.29309E-04   -0.29378E-04  7904   0.240E-03 0.233E-05
CGA:  21    -0.334838422386E+03   -0.45516E-05   -0.45531E-05  7904   0.186E-03 0.607E-07
 188 F= -.33483842E+03 E0= -.33481075E+03  d E =-.429762E-03  mag=    32.0000
