       N       E                     dE             d eps       ncg     rms          rms(c)
DAV:   1     0.665701751657E+04    0.66570E+04   -0.28435E+05 38352   0.152E+03
DAV:   2     0.356668225458E+03   -0.63003E+04   -0.59329E+04 38872   0.468E+02
DAV:   3    -0.385802214525E+03   -0.74247E+03   -0.72883E+03 40856   0.170E+02
DAV:   4    -0.417173913903E+03   -0.31372E+02   -0.30890E+02 50952   0.313E+01
DAV:   5    -0.419771953473E+03   -0.25980E+01   -0.25818E+01 66168   0.682E+00    0.601E+01
DAV:   6    -0.371714476525E+03    0.48057E+02   -0.25969E+02 44440   0.364E+01    0.372E+01
DAV:   7    -0.379185959759E+03   -0.74715E+01   -0.30917E+01 40152   0.151E+01    0.261E+01
DAV:   8    -0.381419793423E+03   -0.22338E+01   -0.36257E+00 47832   0.408E+00    0.150E+01
DAV:   9    -0.384015486400E+03   -0.25957E+01   -0.33836E+00 41728   0.360E+00    0.911E+00
DAV:  10    -0.384960487883E+03   -0.94500E+00   -0.15381E+00 46104   0.426E+00    0.789E+00
DAV:  11    -0.385887770148E+03   -0.92728E+00   -0.51402E-01 43200   0.178E+00    0.439E+00
DAV:  12    -0.387055807919E+03   -0.11680E+01   -0.56000E-01 44848   0.175E+00    0.293E+00
DAV:  13    -0.388600816896E+03   -0.15450E+01   -0.10236E+00 44816   0.234E+00    0.222E+00
DAV:  14    -0.389397520547E+03   -0.79670E+00   -0.56647E-01 41416   0.124E+00    0.128E+00
DAV:  15    -0.389795401337E+03   -0.39788E+00   -0.30020E-01 43216   0.827E-01    0.118E+00
DAV:  16    -0.389930075221E+03   -0.13467E+00   -0.13440E-01 40320   0.647E-01    0.787E-01
DAV:  17    -0.389941181978E+03   -0.11107E-01   -0.13748E-02 43712   0.436E-01    0.612E-01
DAV:  18    -0.389941595155E+03   -0.41318E-03   -0.51613E-03 43672   0.209E-01    0.204E-01
DAV:  19    -0.389941654655E+03   -0.59500E-04   -0.14878E-03 44896   0.981E-02    0.797E-02
DAV:  20    -0.389941591690E+03    0.62965E-04   -0.32845E-04 49192   0.452E-02    0.668E-02
DAV:  21    -0.389941560974E+03    0.30716E-04   -0.54167E-05 40664   0.253E-02    0.422E-02
DAV:  22    -0.389941550513E+03    0.10461E-04   -0.29223E-05 35192   0.198E-02    0.269E-02
DAV:  23    -0.389941545062E+03    0.54515E-05   -0.18784E-05 31568   0.137E-02
   1 F= -.38994155E+03 E0= -.38993830E+03  d E =-.389942E+03  mag=    48.0001
