       N       E                     dE             d eps       ncg     rms          ort
DAV:   1     0.690997248843E+04    0.69100E+04   -0.27061E+05  8320   0.166E+03
DAV:   2     0.713799144601E+03   -0.61962E+04   -0.58853E+04  8320   0.496E+02
DAV:   3    -0.363241564808E+03   -0.10770E+04   -0.10557E+04  8320   0.203E+02
DAV:   4    -0.426066840780E+03   -0.62825E+02   -0.60055E+02  8320   0.501E+01
DAV:   5    -0.431995996015E+03   -0.59292E+01   -0.57183E+01  8320   0.120E+01
SDA:   6    -0.138160500875E+03    0.29384E+03   -0.57183E+01  8320   0.262E+04 0.000E+00
CGA:   7    -0.168352013468E+03   -0.30192E+02   -0.15781E+03  8320   0.998E+04-0.462E+04
CGA:   8     0.273837237645E+03    0.44219E+03   -0.73031E+03  8320   0.903E+04-0.444E+04
CGA:   9    -0.791785841753E+02   -0.35302E+03   -0.68273E+02  8320   0.949E+04 0.127E+05
CGA:  10     0.200699380624E+03    0.27988E+03   -0.64639E+03  8320   0.113E+05-0.657E+04
CGA:  11    -0.262680842976E+03   -0.46338E+03   -0.35745E+03  8320   0.645E+04 0.273E+03
CGA:  12    -0.347743636028E+01    0.25920E+03   -0.42944E+03  8320   0.996E+04-0.334E+04
CGA:  13     0.439372484317E+02    0.47415E+02   -0.52026E+03  8320   0.898E+04-0.881E+04
CGA:  14     0.423197744824E+02   -0.16175E+01   -0.56662E+03  8320   0.393E+04-0.718E+03
CGA:  15    -0.247643951110E+02   -0.67084E+02   -0.14233E+03  8320   0.119E+05-0.926E+02
CGA:  16     0.157794101029E+03    0.18256E+03   -0.66600E+03  8320   0.678E+04-0.352E+04
CGA:  17    -0.157602622186E+03   -0.31540E+03   -0.19443E+03  8320   0.304E+04-0.326E+04
CGA:  18    -0.318170249944E+03   -0.16057E+03   -0.43378E+02  8320   0.531E+03 0.104E+04
CGA:  19    -0.323685792614E+03   -0.55155E+01   -0.20411E+02  8320   0.142E+04-0.384E+03
CGA:  20    -0.282903515891E+03    0.40782E+02   -0.49014E+02  8320   0.435E+04-0.212E+04
CGA:  21    -0.202552943844E+03    0.80351E+02   -0.14617E+03  8320   0.605E+04-0.388E+04
CGA:  22    -0.107383241742E+03    0.95170E+02   -0.26062E+03  8320   0.449E+04-0.290E+04
CGA:  23    -0.349953951136E+03   -0.24257E+03   -0.54388E+02  8320   0.744E+03 0.669E+03
CGA:  24    -0.327620665522E+03    0.22333E+02   -0.31825E+02  8320   0.128E+04-0.415E+03
CGA:  25    -0.318159852638E+03    0.94608E+01   -0.29992E+02  8320   0.805E+04-0.624E+04
CGA:  26    -0.244856835502E+03    0.73303E+02   -0.29307E+03  8320   0.461E+04-0.281E+04
CGA:  27    -0.181596679448E+03    0.63260E+02   -0.86408E+02  8320   0.772E+04-0.531E+04
CGA:  28    -0.981686125279E+02    0.83428E+02   -0.22785E+03  8320   0.520E+04-0.426E+04
CGA:  29    -0.101151578298E+03   -0.29830E+01   -0.17411E+03  8320   0.551E+04-0.441E+04
CGA:  30    -0.247047224049E+03   -0.14590E+03   -0.13437E+03  8320   0.406E+04-0.635E+04
CGA:  31    -0.164243062535E+03    0.82804E+02   -0.10253E+03  8320   0.707E+04-0.633E+04
CGA:  32    -0.151036180208E+03    0.13207E+02   -0.16887E+03  8320   0.680E+04-0.642E+04
CGA:  33    -0.120492287000E+03    0.30544E+02   -0.20418E+03  8320   0.568E+04-0.451E+04
CGA:  34    -0.295634123640E+03   -0.17514E+03   -0.11574E+03  8320   0.571E+04-0.106E+05
CGA:  35    -0.192479565701E+03    0.10315E+03   -0.14142E+03  8320   0.143E+05-0.916E+04
CGA:  36    -0.128411213949E+03    0.64068E+02   -0.36558E+03  8320   0.601E+04-0.500E+04
CGA:  37    -0.234639548054E+03   -0.10623E+03   -0.93332E+02  8320   0.377E+04-0.444E+04
CGA:  38    -0.334658971253E+03   -0.10002E+03   -0.55220E+02  8320   0.283E+04-0.532E+04
CGA:  39    -0.321677139276E+03    0.12982E+02   -0.47260E+02  8320   0.707E+04-0.576E+04
CGA:  40    -0.236934858407E+03    0.84742E+02   -0.14149E+03  8320   0.157E+05-0.976E+04
CGA:  41    -0.126119634271E+03    0.11082E+03   -0.39884E+03  8320   0.788E+04-0.456E+04
CGA:  42    -0.357163665565E+03   -0.23104E+03   -0.81511E+02  8320   0.930E+03-0.371E+04
CGA:  43    -0.362928573603E+03   -0.57649E+01   -0.30105E+01  8320   0.733E+03 0.467E+03
CGA:  44    -0.370576109970E+03   -0.76475E+01   -0.41271E+01  8320   0.258E+03 0.486E+03
CGA:  45    -0.373081177583E+03   -0.25051E+01   -0.13987E+01  8320   0.135E+03 0.186E+03
CGA:  46    -0.375279202153E+03   -0.21980E+01   -0.14837E+01  8320   0.270E+02 0.506E+02
CGA:  47    -0.375772693954E+03   -0.49349E+00   -0.43511E+00  8320   0.131E+02 0.410E+01
CGA:  48    -0.376081527595E+03   -0.30883E+00   -0.28085E+00  8320   0.218E+02 0.918E+00
CGA:  49    -0.376453363780E+03   -0.37184E+00   -0.36557E+00  8320   0.356E+02 0.121E+00
CGA:  50    -0.377104621651E+03   -0.65126E+00   -0.74434E+00  8320   0.710E+02-0.217E+01
CGA:  51    -0.377790706552E+03   -0.68608E+00   -0.91869E+00  8320   0.730E+02-0.154E+02
CGA:  52    -0.378816760563E+03   -0.10261E+01   -0.11425E+01  8320   0.646E+02-0.426E+01
CGA:  53    -0.379530067298E+03   -0.71331E+00   -0.70375E+00  8320   0.349E+02 0.722E+00
CGA:  54    -0.379911434886E+03   -0.38137E+00   -0.40337E+00  8320   0.941E+01-0.159E+01
CGA:  55    -0.380015490544E+03   -0.10406E+00   -0.11056E+00  8320   0.785E+01-0.386E+00
CGA:  56    -0.380196259892E+03   -0.18077E+00   -0.18470E+00  8320   0.122E+02 0.339E-01
CGA:  57    -0.380624234054E+03   -0.42797E+00   -0.42762E+00  8320   0.188E+02 0.348E+00
CGA:  58    -0.380985070050E+03   -0.36084E+00   -0.38188E+00  8320   0.184E+02-0.189E+00
CGA:  59    -0.381445588500E+03   -0.46052E+00   -0.34925E+00  8320   0.104E+02 0.222E+01
CGA:  60    -0.381579842223E+03   -0.13425E+00   -0.13091E+00  8320   0.787E+01 0.971E-01
CGA:  61    -0.381717342285E+03   -0.13750E+00   -0.14309E+00  8320   0.117E+02-0.103E+00
CGA:  62    -0.381885839362E+03   -0.16850E+00   -0.18042E+00  8320   0.856E+01-0.349E+00
CGA:  63    -0.381984997779E+03   -0.99158E-01   -0.10301E+00  8320   0.460E+01-0.212E+00
CGA:  64    -0.382068383008E+03   -0.83385E-01   -0.83306E-01  8320   0.612E+01-0.588E-02
CGA:  65    -0.382200505203E+03   -0.13212E+00   -0.13305E+00  8320   0.736E+01 0.122E-01
CGA:  66    -0.382318392019E+03   -0.11789E+00   -0.12425E+00  8320   0.568E+01-0.111E+00
CGA:  67    -0.382459664257E+03   -0.14127E+00   -0.14213E+00  8320   0.878E+01 0.133E+00
CGA:  68    -0.382685694650E+03   -0.22603E+00   -0.22822E+00  8320   0.481E+01 0.371E+00
CGA:  69    -0.382765034182E+03   -0.79340E-01   -0.82291E-01  8320   0.207E+01-0.498E-01
CGA:  70    -0.382871970894E+03   -0.10694E+00   -0.10430E+00  8320   0.418E+01 0.105E+00
CGA:  71    -0.383044101866E+03   -0.17213E+00   -0.16952E+00  8320   0.327E+01 0.189E+00
CGA:  72    -0.383166708968E+03   -0.12261E+00   -0.12156E+00  8320   0.289E+01 0.100E+00
CGA:  73    -0.383291580282E+03   -0.12487E+00   -0.12479E+00  8320   0.303E+01 0.432E-02
CGA:  74    -0.383393725835E+03   -0.10215E+00   -0.10138E+00  8320   0.118E+01 0.129E+00
CGA:  75    -0.383487617283E+03   -0.93891E-01   -0.92590E-01  8320   0.283E+01 0.292E-01
SDA:  76    -0.383597640779E+03   -0.11002E+00   -0.10972E+00  8320   0.193E+01 0.311E-01
CGA:  77    -0.383671992506E+03   -0.74352E-01   -0.74312E-01  8320   0.198E+01 0.452E-02
CGA:  78    -0.383740956749E+03   -0.68964E-01   -0.69019E-01  8320   0.102E+01-0.162E-01
CGA:  79    -0.383809685742E+03   -0.68729E-01   -0.66614E-01  8320   0.103E+01 0.628E-01
CGA:  80    -0.384016347513E+03   -0.20666E+00   -0.14692E-02  8320   0.226E+01-0.250E+00
CGA:  81    -0.384051407904E+03   -0.35060E-01   -0.40708E-01  8320   0.129E+01-0.163E+00
CGA:  82    -0.384118580355E+03   -0.67172E-01   -0.67202E-01  8320   0.810E+00 0.232E-02
CGA:  83    -0.384183985680E+03   -0.65405E-01   -0.66758E-01  8320   0.126E+01-0.496E-01
CGA:  84    -0.384233283784E+03   -0.49298E-01   -0.49065E-01  8320   0.157E+01 0.846E-02
CGA:  85    -0.384288242921E+03   -0.54959E-01   -0.58621E-01  8320   0.631E+00-0.193E-01
CGA:  86    -0.384327124114E+03   -0.38881E-01   -0.38892E-01  8320   0.647E+00-0.234E-02
CGA:  87    -0.384351093855E+03   -0.23970E-01   -0.22864E-01  8320   0.398E+00 0.990E-02
CGA:  88    -0.384406382042E+03   -0.55288E-01   -0.54317E-01  8320   0.752E+00 0.152E-01
CGA:  89    -0.384433917307E+03   -0.27535E-01   -0.27403E-01  8320   0.757E+00 0.146E-02
CGA:  90    -0.384471432050E+03   -0.37515E-01   -0.36178E-01  8320   0.402E+00-0.870E-02
CGA:  91    -0.384484148070E+03   -0.12716E-01   -0.12175E-01  8320   0.392E+00 0.935E-02
CGA:  92    -0.384512847240E+03   -0.28699E-01   -0.30180E-01  8320   0.112E+01-0.680E-01
CGA:  93    -0.384532870596E+03   -0.20023E-01   -0.19790E-01  8320   0.119E+01 0.109E-01
CGA:  94    -0.384561690619E+03   -0.28820E-01   -0.31772E-01  8320   0.117E+01-0.587E-01
CGA:  95    -0.384597059583E+03   -0.35369E-01   -0.37541E-01  8320   0.741E+00-0.130E-01
CGA:  96    -0.384614697940E+03   -0.17638E-01   -0.17012E-01  8320   0.463E+00 0.155E-01
CGA:  97    -0.384630154467E+03   -0.15457E-01   -0.15124E-01  8320   0.305E+00 0.294E-02
CGA:  98    -0.384638674418E+03   -0.85200E-02   -0.83198E-02  8320   0.337E+00 0.335E-02
CGA:  99    -0.384657845411E+03   -0.19171E-01   -0.19220E-01  8320   0.866E+00-0.575E-02
CGA: 100    -0.384678672501E+03   -0.20827E-01   -0.17447E-01  8320   0.679E+00 0.123E+00
CGA: 101    -0.384693086491E+03   -0.14414E-01   -0.13998E-01  8320   0.488E+00 0.195E-01
CGA: 102    -0.384704515320E+03   -0.11429E-01   -0.11963E-01  8320   0.548E+00-0.108E-01
CGA: 103    -0.384716229924E+03   -0.11715E-01   -0.11991E-01  8320   0.371E+00-0.664E-02
CGA: 104    -0.384723326015E+03   -0.70961E-02   -0.70041E-02  8320   0.304E+00 0.336E-02
CGA: 105    -0.384732676442E+03   -0.93504E-02   -0.91619E-02  8320   0.434E+00 0.112E-04
CGA: 106    -0.384741348718E+03   -0.86723E-02   -0.86047E-02  8320   0.363E+00 0.160E-02
SDA: 107    -0.384750544723E+03   -0.91960E-02   -0.93801E-02  8320   0.520E+00-0.194E-02
CGA: 108    -0.384765083053E+03   -0.14538E-01   -0.14424E-01  8320   0.354E+00 0.124E-03
CGA: 109    -0.384776818603E+03   -0.11736E-01   -0.11879E-01  8320   0.197E+00 0.539E-02
CGA: 110    -0.384792662233E+03   -0.15844E-01   -0.15661E-01  8320   0.326E+00 0.467E-02
CGA: 111    -0.384816464979E+03   -0.23803E-01   -0.24243E-01  8320   0.325E+00-0.128E-01
CGA: 112    -0.384828222615E+03   -0.11758E-01   -0.36516E-01  8320   0.113E+01-0.500E+00
CGA: 113    -0.384859884840E+03   -0.31662E-01   -0.30884E-01  8320   0.130E+00 0.745E-02
CGA: 114    -0.384863514914E+03   -0.36301E-02   -0.36733E-02  8320   0.138E+00-0.445E-03
CGA: 115    -0.384869786183E+03   -0.62713E-02   -0.62686E-02  8320   0.118E+00-0.485E-02
CGA: 116    -0.384880721879E+03   -0.10936E-01   -0.11129E-01  8320   0.134E+00-0.377E-02
CGA: 117    -0.384883641919E+03   -0.29200E-02   -0.26403E-02  8320   0.727E-01 0.941E-02
CGA: 118    -0.384887209321E+03   -0.35674E-02   -0.35646E-02  8320   0.970E-01-0.111E-02
CGA: 119    -0.384892307158E+03   -0.50978E-02   -0.64575E-02  8320   0.244E+00-0.618E-01
CGA: 120    -0.384898621262E+03   -0.63141E-02   -0.61207E-02  8320   0.882E-01 0.336E-02
CGA: 121    -0.384900418990E+03   -0.17977E-02   -0.17780E-02  8320   0.567E-01 0.655E-03
CGA: 122    -0.384903550973E+03   -0.31320E-02   -0.31332E-02  8320   0.549E-01-0.813E-04
CGA: 123    -0.384907546733E+03   -0.39958E-02   -0.40529E-02  8320   0.786E-01-0.197E-02
CGA: 124    -0.384911942201E+03   -0.43955E-02   -0.57017E-02  8320   0.264E+00-0.478E-01
CGA: 125    -0.384915528495E+03   -0.35863E-02   -0.37345E-02  8320   0.990E-01-0.844E-02
CGA: 126    -0.384917716312E+03   -0.21878E-02   -0.21603E-02  8320   0.507E-01 0.636E-03
CGA: 127    -0.384919997216E+03   -0.22809E-02   -0.22773E-02  8320   0.409E-01-0.155E-02
CGA: 128    -0.384922347748E+03   -0.23505E-02   -0.23933E-02  8320   0.442E-01-0.226E-02
CGA: 129    -0.384924677008E+03   -0.23293E-02   -0.24398E-02  8320   0.216E+00-0.670E-02
CGA: 130    -0.384926882483E+03   -0.22055E-02   -0.14163E-02  8320   0.191E+00 0.974E-01
CGA: 131    -0.384929603770E+03   -0.27213E-02   -0.25749E-02  8320   0.793E-01 0.174E-01
CGA: 132    -0.384933387630E+03   -0.37839E-02   -0.37769E-02  8320   0.141E+00 0.101E-01
CGA: 133    -0.384934898518E+03   -0.15109E-02   -0.11799E-02  8320   0.424E-01 0.397E-01
CGA: 134    -0.384935949037E+03   -0.10505E-02   -0.98728E-03  8320   0.871E-01 0.212E-02
CGA: 135    -0.384936995141E+03   -0.10461E-02   -0.91708E-03  8320   0.753E-01 0.112E-01
CGA: 136    -0.384937591741E+03   -0.59660E-03   -0.56674E-03  8320   0.438E-01 0.421E-02
CGA: 137    -0.384938202127E+03   -0.61039E-03   -0.60453E-03  8320   0.962E-01 0.411E-03
CGA: 138    -0.384939459040E+03   -0.12569E-02   -0.11859E-02  8320   0.134E+00 0.477E-02
CGA: 139    -0.384940363799E+03   -0.90476E-03   -0.89287E-03  8320   0.624E-01 0.146E-02
CGA: 140    -0.384940789696E+03   -0.42590E-03   -0.43710E-03  8320   0.445E-01-0.140E-02
CGA: 141    -0.384941138600E+03   -0.34890E-03   -0.36334E-03  8320   0.361E-01-0.138E-02
CGA: 142    -0.384941381163E+03   -0.24256E-03   -0.25586E-03  8320   0.227E-01-0.147E-02
CGA: 143    -0.384941550418E+03   -0.16925E-03   -0.17127E-03  8320   0.168E-01-0.180E-03
CGA: 144    -0.384941672231E+03   -0.12181E-03   -0.12096E-03  8320   0.958E-02 0.108E-03
CGA: 145    -0.384941749071E+03   -0.76840E-04   -0.76135E-04  8320   0.952E-02 0.694E-04
CGA: 146    -0.384941894415E+03   -0.14534E-03   -0.14434E-03  8320   0.240E-01 0.117E-04
CGA: 147    -0.384942164382E+03   -0.26997E-03   -0.26551E-03  8320   0.268E-01 0.232E-03
CGA: 148    -0.384942349942E+03   -0.18556E-03   -0.18734E-03  8320   0.183E-01-0.244E-03
CGA: 149    -0.384942554111E+03   -0.20417E-03   -0.20615E-03  8320   0.342E-01-0.140E-03
CGA: 150    -0.384943014599E+03   -0.46049E-03   -0.46763E-03  8320   0.485E-01-0.225E-03
CGA: 151    -0.384943343812E+03   -0.32921E-03   -0.31197E-03  8320   0.240E-01 0.214E-02
CGA: 152    -0.384943563944E+03   -0.22013E-03   -0.21154E-03  8320   0.299E-01 0.686E-03
CGA: 153    -0.384943940387E+03   -0.37644E-03   -0.35902E-03  8320   0.529E-01 0.587E-03
CGA: 154    -0.384944310322E+03   -0.36994E-03   -0.36610E-03  8320   0.381E-01 0.249E-03
SDA: 155    -0.384944516220E+03   -0.20590E-03   -0.21358E-03  8320   0.215E-01-0.110E-02
CGA: 156    -0.384944893060E+03   -0.37684E-03   -0.37664E-03  8320   0.129E-01-0.246E-04
CGA: 157    -0.384945494035E+03   -0.60098E-03   -0.59953E-03  8320   0.209E-01 0.565E-04
CGA: 158    -0.384945896812E+03   -0.40278E-03   -0.40279E-03  8320   0.216E-01 0.276E-04
CGA: 159    -0.384946830236E+03   -0.93342E-03   -0.92859E-03  8320   0.127E-01 0.222E-03
CGA: 160    -0.384947364667E+03   -0.53443E-03   -0.53567E-03  8320   0.327E-02-0.613E-04
CGA: 161    -0.384947547839E+03   -0.18317E-03   -0.18535E-03  8320   0.628E-02-0.672E-04
CGA: 162    -0.384947738876E+03   -0.19104E-03   -0.19077E-03  8320   0.117E-01 0.191E-04
CGA: 163    -0.384948096698E+03   -0.35782E-03   -0.36065E-03  8320   0.144E-01-0.371E-03
CGA: 164    -0.384948490836E+03   -0.39414E-03   -0.39743E-03  8320   0.148E-01-0.671E-03
CGA: 165    -0.384948843193E+03   -0.35236E-03   -0.35231E-03  8320   0.357E-02-0.754E-04
CGA: 166    -0.384948935363E+03   -0.92170E-04   -0.92176E-04  8320   0.510E-02-0.170E-06
CGA: 167    -0.384949068788E+03   -0.13343E-03   -0.13337E-03  8320   0.442E-02 0.540E-04
CGA: 168    -0.384949193295E+03   -0.12451E-03   -0.12449E-03  8320   0.680E-02 0.248E-04
CGA: 169    -0.384949390489E+03   -0.19719E-03   -0.19806E-03  8320   0.235E-02-0.126E-03
CGA: 170    -0.384949445525E+03   -0.55035E-04   -0.55073E-04  8320   0.296E-02 0.235E-04
CGA: 171    -0.384949513668E+03   -0.68144E-04   -0.68179E-04  8320   0.195E-02 0.260E-04
CGA: 172    -0.384949556271E+03   -0.42603E-04   -0.42696E-04  8320   0.196E-02 0.206E-04
CGA: 173    -0.384949632363E+03   -0.76092E-04   -0.76048E-04  8320   0.303E-02 0.622E-05
CGA: 174    -0.384949765965E+03   -0.13360E-03   -0.13582E-03  8320   0.681E-02-0.114E-03
CGA: 175    -0.384949873955E+03   -0.10799E-03   -0.10949E-03  8320   0.377E-02 0.198E-04
CGA: 176    -0.384950011474E+03   -0.13752E-03   -0.14225E-03  8320   0.656E-02-0.353E-03
CGA: 177    -0.384950075600E+03   -0.64126E-04   -0.55759E-04  8320   0.330E-02 0.671E-03
CGA: 178    -0.384950112847E+03   -0.37247E-04   -0.36110E-04  8320   0.251E-02 0.695E-04
CGA: 179    -0.384950155089E+03   -0.42242E-04   -0.42135E-04  8320   0.419E-02-0.139E-04
CGA: 180    -0.384950209032E+03   -0.53943E-04   -0.53199E-04  8320   0.365E-02-0.353E-05
CGA: 181    -0.384950248623E+03   -0.39591E-04   -0.38220E-04  8320   0.370E-02 0.454E-04
CGA: 182    -0.384950310479E+03   -0.61856E-04   -0.60665E-04  8320   0.685E-02-0.392E-04
CGA: 183    -0.384950384747E+03   -0.74269E-04   -0.73955E-04  8320   0.562E-02-0.345E-04
CGA: 184    -0.384950431811E+03   -0.47063E-04   -0.48499E-04  8320   0.362E-02-0.162E-03
CGA: 185    -0.384950478817E+03   -0.47006E-04   -0.46945E-04  8320   0.466E-02-0.209E-04
SDA: 186    -0.384950531482E+03   -0.52666E-04   -0.50042E-04  8320   0.372E-02 0.991E-04
CGA: 187    -0.384950635859E+03   -0.10438E-03   -0.10416E-03  8320   0.521E-02 0.253E-04
CGA: 188    -0.384950954147E+03   -0.31829E-03   -0.31581E-03  8320   0.109E-01 0.629E-04
CGA: 189    -0.384951515136E+03   -0.56099E-03   -0.55095E-03  8320   0.945E-02 0.383E-03
CGA: 190    -0.384951732426E+03   -0.21729E-03   -0.21749E-03  8320   0.110E-01 0.521E-04
CGA: 191    -0.384951942964E+03   -0.21054E-03   -0.21128E-03  8320   0.238E-02 0.436E-04
CGA: 192    -0.384952093722E+03   -0.15076E-03   -0.15047E-03  8320   0.398E-02 0.954E-05
CGA: 193    -0.384952195759E+03   -0.10204E-03   -0.10207E-03  8320   0.357E-02 0.107E-04
CGA: 194    -0.384952363376E+03   -0.16762E-03   -0.16975E-03  8320   0.370E-02-0.999E-04
CGA: 195    -0.384952413394E+03   -0.50019E-04   -0.50160E-04  8320   0.215E-02-0.319E-04
CGA: 196    -0.384952509605E+03   -0.96211E-04   -0.97465E-04  8320   0.143E-02-0.641E-04
CGA: 197    -0.384952564135E+03   -0.54530E-04   -0.54318E-04  8320   0.123E-02 0.121E-04
CGA: 198    -0.384952606463E+03   -0.42327E-04   -0.42400E-04  8320   0.258E-02-0.699E-05
CGA: 199    -0.384952716847E+03   -0.11038E-03   -0.10830E-03  8320   0.513E-02 0.126E-03
CGA: 200    -0.384952855806E+03   -0.13896E-03   -0.13762E-03  8320   0.604E-02-0.116E-03
   1 F= -.38495286E+03 E0= -.38491930E+03  d E =-.384953E+03  mag=     6.2778
       N       E                     dE             d eps       ncg     rms          ort
SDA:   1    -0.383332562941E+03    0.16202E+01    0.00000E+00  8320   0.162E+03 0.000E+00
CGA:   2    -0.384852051118E+03   -0.15195E+01   -0.18798E+01  8320   0.728E+01-0.275E+02
CGA:   3    -0.384943224183E+03   -0.91173E-01   -0.88424E-01  8320   0.401E+00 0.843E-01
CGA:   4    -0.384951958155E+03   -0.87340E-02   -0.85432E-02  8320   0.112E+00-0.348E-02
CGA:   5    -0.384953252955E+03   -0.12948E-02   -0.13039E-02  8320   0.292E-01-0.515E-03
CGA:   6    -0.384953857828E+03   -0.60487E-03   -0.60389E-03  8320   0.132E-01-0.351E-04
CGA:   7    -0.384954180631E+03   -0.32280E-03   -0.32304E-03  8320   0.887E-02 0.280E-04
CGA:   8    -0.384954874064E+03   -0.69343E-03   -0.69671E-03  8320   0.121E-01-0.664E-04
CGA:   9    -0.384955031140E+03   -0.15708E-03   -0.15804E-03  8320   0.414E-02-0.635E-04
CGA:  10    -0.384955119724E+03   -0.88585E-04   -0.88484E-04  8320   0.294E-02-0.672E-05
CGA:  11    -0.384955190799E+03   -0.71074E-04   -0.71051E-04  8320   0.150E-02-0.321E-05
CGA:  12    -0.384955323890E+03   -0.13309E-03   -0.13360E-03  8320   0.372E-02-0.101E-04
CGA:  13    -0.384955398539E+03   -0.74650E-04   -0.74919E-04  8320   0.255E-02-0.354E-05
CGA:  14    -0.384955455714E+03   -0.57175E-04   -0.57032E-04  8320   0.225E-02-0.583E-05
CGA:  15    -0.384955511385E+03   -0.55670E-04   -0.55725E-04  8320   0.130E-02-0.205E-05
CGA:  16    -0.384955572769E+03   -0.61384E-04   -0.61793E-04  8320   0.183E-02-0.216E-04
CGA:  17    -0.384955652759E+03   -0.79990E-04   -0.79531E-04  8320   0.330E-02 0.234E-04
CGA:  18    -0.384955727565E+03   -0.74806E-04   -0.73487E-04  8320   0.380E-02-0.256E-04
CGA:  19    -0.384955912518E+03   -0.18495E-03   -0.17673E-03  8320   0.641E-02 0.413E-03
CGA:  20    -0.384956100568E+03   -0.18805E-03   -0.18145E-03  8320   0.322E-02-0.284E-03
CGA:  21    -0.384956233606E+03   -0.13304E-03   -0.12923E-03  8320   0.436E-02 0.257E-03
CGA:  22    -0.384956333253E+03   -0.99647E-04   -0.93706E-04  8320   0.522E-02 0.408E-04
CGA:  23    -0.384956574148E+03   -0.24089E-03   -0.23535E-03  8320   0.116E-01 0.222E-03
CGA:  24    -0.384956982418E+03   -0.40827E-03   -0.42980E-03  8320   0.155E-01-0.416E-02
CGA:  25    -0.384957072812E+03   -0.90395E-04   -0.69208E-04  8320   0.152E-01 0.293E-02
CGA:  26    -0.384957329757E+03   -0.25695E-03   -0.29961E-03  8320   0.908E-02 0.965E-04
CGA:  27    -0.384957487144E+03   -0.15739E-03   -0.14514E-03  8320   0.533E-02 0.469E-03
CGA:  28    -0.384957618550E+03   -0.13141E-03   -0.13630E-03  8320   0.500E-02 0.279E-03
CGA:  29    -0.384957860006E+03   -0.24146E-03   -0.24782E-03  8320   0.801E-02-0.503E-03
CGA:  30    -0.384958008962E+03   -0.14896E-03   -0.13075E-03  8320   0.813E-02 0.381E-03
CGA:  31    -0.384958153391E+03   -0.14443E-03   -0.14161E-03  8320   0.842E-02 0.197E-03
SDA:  32    -0.384958279415E+03   -0.12602E-03   -0.12672E-03  8320   0.485E-02 0.119E-03
CGA:  33    -0.384958385226E+03   -0.10581E-03   -0.10581E-03  8320   0.262E-02 0.863E-06
CGA:  34    -0.384958470667E+03   -0.85441E-04   -0.85422E-04  8320   0.473E-02 0.476E-05
CGA:  35    -0.384958696202E+03   -0.22553E-03   -0.22469E-03  8320   0.132E-01 0.424E-04
CGA:  36    -0.384959018848E+03   -0.32265E-03   -0.32245E-03  8320   0.698E-02 0.157E-04
CGA:  37    -0.384959247771E+03   -0.22892E-03   -0.22883E-03  8320   0.173E-02 0.243E-04
CGA:  38    -0.384959318514E+03   -0.70743E-04   -0.70594E-04  8320   0.162E-02 0.136E-04
CGA:  39    -0.384959351922E+03   -0.33408E-04   -0.33532E-04  8320   0.213E-02 0.105E-04
CGA:  40    -0.384959449227E+03   -0.97305E-04   -0.96851E-04  8320   0.158E-02 0.294E-04
CGA:  41    -0.384959528998E+03   -0.79771E-04   -0.79153E-04  8320   0.141E-02 0.310E-04
CGA:  42    -0.384959548935E+03   -0.19937E-04   -0.19983E-04  8320   0.385E-03 0.826E-05
CGA:  43    -0.384959560590E+03   -0.11655E-04   -0.11655E-04  8320   0.759E-03 0.545E-07
CGA:  44    -0.384959587492E+03   -0.26902E-04   -0.26941E-04  8320   0.511E-03-0.631E-05
CGA:  45    -0.384959623104E+03   -0.35612E-04   -0.35859E-04  8320   0.408E-03-0.592E-05
CGA:  46    -0.384959627551E+03   -0.44475E-05   -0.44130E-05  8320   0.148E-03-0.340E-06
CGA:  47    -0.384959638671E+03   -0.11119E-04   -0.11280E-04  8320   0.304E-03-0.362E-05
CGA:  48    -0.384959645231E+03   -0.65608E-05   -0.65365E-05  8320   0.192E-03-0.176E-05
CGA:  49    -0.384959658046E+03   -0.12814E-04   -0.12904E-04  8320   0.381E-03-0.259E-05
CGA:  50    -0.384959668245E+03   -0.10199E-04   -0.10142E-04  8320   0.525E-03-0.339E-05
CGA:  51    -0.384959678081E+03   -0.98359E-05   -0.98581E-05  8320   0.165E-03-0.372E-05
   2 F= -.38495968E+03 E0= -.38492632E+03  d E =-.682227E-02  mag=     6.2845
       N       E                     dE             d eps       ncg     rms          ort
SDA:   1    -0.384949484141E+03    0.10184E-01    0.00000E+00  8320   0.528E+00 0.000E+00
CGA:   2    -0.384956726574E+03   -0.72424E-02   -0.68841E-02  8320   0.170E+00 0.190E-01
CGA:   3    -0.384960857177E+03   -0.41306E-02   -0.41526E-02  8320   0.184E+00 0.208E-03
CGA:   4    -0.384967064432E+03   -0.62073E-02   -0.62064E-02  8320   0.261E+00 0.451E-03
CGA:   5    -0.384975076155E+03   -0.80117E-02   -0.80143E-02  8320   0.808E-01 0.582E-03
CGA:   6    -0.384977990313E+03   -0.29142E-02   -0.29164E-02  8320   0.360E-01-0.388E-03
CGA:   7    -0.384979099036E+03   -0.11087E-02   -0.11091E-02  8320   0.521E-01 0.991E-04
CGA:   8    -0.384980337323E+03   -0.12383E-02   -0.12346E-02  8320   0.437E-01-0.500E-04
CGA:   9    -0.384981432526E+03   -0.10952E-02   -0.10948E-02  8320   0.345E-01-0.186E-04
CGA:  10    -0.384982108108E+03   -0.67558E-03   -0.67224E-03  8320   0.601E-02 0.229E-04
CGA:  11    -0.384982510459E+03   -0.40235E-03   -0.39882E-03  8320   0.503E-02 0.103E-03
CGA:  12    -0.384982586886E+03   -0.76426E-04   -0.76231E-04  8320   0.353E-02 0.743E-05
CGA:  13    -0.384982707251E+03   -0.12037E-03   -0.12036E-03  8320   0.292E-02 0.209E-05
CGA:  14    -0.384982823910E+03   -0.11666E-03   -0.11672E-03  8320   0.232E-02-0.701E-05
CGA:  15    -0.384982880706E+03   -0.56796E-04   -0.56781E-04  8320   0.193E-02-0.118E-05
CGA:  16    -0.384982919750E+03   -0.39044E-04   -0.39055E-04  8320   0.728E-03 0.103E-05
CGA:  17    -0.384982929881E+03   -0.10131E-04   -0.10147E-04  8320   0.320E-03-0.300E-06
CGA:  18    -0.384982968269E+03   -0.38388E-04   -0.38061E-04  8320   0.481E-03 0.365E-05
CGA:  19    -0.384982983819E+03   -0.15550E-04   -0.15556E-04  8320   0.968E-03 0.162E-05
CGA:  20    -0.384983003051E+03   -0.19232E-04   -0.19259E-04  8320   0.167E-03 0.293E-05
CGA:  21    -0.384983009880E+03   -0.68293E-05   -0.68241E-05  8320   0.204E-03 0.767E-06
   3 F= -.38498301E+03 E0= -.38494963E+03  d E =-.233318E-01  mag=     6.2826
       N       E                     dE             d eps       ncg     rms          ort
SDA:   1    -0.384249030111E+03    0.73397E+00    0.00000E+00  8320   0.173E+02 0.000E+00
CGA:   2    -0.384419761966E+03   -0.17073E+00   -0.12372E+00  8320   0.333E+01 0.560E+01
CGA:   3    -0.384473860460E+03   -0.54098E-01   -0.46401E-01  8320   0.335E+01 0.553E+00
CGA:   4    -0.384558448028E+03   -0.84588E-01   -0.86210E-01  8320   0.101E+02 0.775E-02
CGA:   5    -0.384714626348E+03   -0.15618E+00   -0.16938E+00  8320   0.111E+02-0.253E+00
CGA:   6    -0.384810997344E+03   -0.96371E-01   -0.10213E+00  8320   0.485E+01-0.476E+00
CGA:   7    -0.384858563559E+03   -0.47566E-01   -0.39061E-01  8320   0.335E+01 0.854E+00
CGA:   8    -0.384899004283E+03   -0.40441E-01   -0.28545E-01  8320   0.290E+01 0.142E+01
CGA:   9    -0.384931259546E+03   -0.32255E-01   -0.25508E-01  8320   0.175E+01 0.947E+00
CGA:  10    -0.384945855286E+03   -0.14596E-01   -0.14151E-01  8320   0.942E+00 0.611E-01
CGA:  11    -0.384954212833E+03   -0.83575E-02   -0.83822E-02  8320   0.144E+01-0.236E-02
CGA:  12    -0.384972500073E+03   -0.18287E-01   -0.18490E-01  8320   0.324E+01-0.746E-02
CGA:  13    -0.384998864772E+03   -0.26365E-01   -0.26262E-01  8320   0.276E+01 0.844E-02
CGA:  14    -0.385016103572E+03   -0.17239E-01   -0.17292E-01  8320   0.196E+01-0.843E-02
CGA:  15    -0.385031494052E+03   -0.15390E-01   -0.15326E-01  8320   0.195E+01 0.551E-02
CGA:  16    -0.385044112067E+03   -0.12618E-01   -0.12609E-01  8320   0.104E+01 0.208E-03
CGA:  17    -0.385049299729E+03   -0.51877E-02   -0.52839E-02  8320   0.407E+00-0.167E-01
CGA:  18    -0.385051839101E+03   -0.25394E-02   -0.25554E-02  8320   0.305E+00-0.196E-02
CGA:  19    -0.385054332996E+03   -0.24939E-02   -0.24751E-02  8320   0.298E+00 0.160E-02
CGA:  20    -0.385056567178E+03   -0.22342E-02   -0.21859E-02  8320   0.254E+00 0.467E-02
CGA:  21    -0.385058635950E+03   -0.20688E-02   -0.20522E-02  8320   0.272E+00 0.133E-02
CGA:  22    -0.385061006735E+03   -0.23708E-02   -0.23834E-02  8320   0.323E+00-0.757E-03
CGA:  23    -0.385063864089E+03   -0.28574E-02   -0.28785E-02  8320   0.408E+00-0.116E-02
CGA:  24    -0.385067689008E+03   -0.38249E-02   -0.38470E-02  8320   0.486E+00-0.935E-03
CGA:  25    -0.385071146630E+03   -0.34576E-02   -0.34147E-02  8320   0.305E+00 0.381E-02
CGA:  26    -0.385073104339E+03   -0.19577E-02   -0.19207E-02  8320   0.223E+00 0.403E-02
CGA:  27    -0.385075096613E+03   -0.19923E-02   -0.19797E-02  8320   0.280E+00 0.503E-03
CGA:  28    -0.385077075309E+03   -0.19787E-02   -0.19952E-02  8320   0.168E+00-0.126E-02
CGA:  29    -0.385077862324E+03   -0.78702E-03   -0.80870E-03  8320   0.506E-01-0.340E-02
CGA:  30    -0.385078166568E+03   -0.30424E-03   -0.30689E-03  8320   0.411E-01-0.262E-03
CGA:  31    -0.385078712893E+03   -0.54632E-03   -0.54639E-03  8320   0.951E-01 0.548E-04
SDA:  32    -0.385079715019E+03   -0.10021E-02   -0.99573E-03  8320   0.105E+00-0.243E-03
CGA:  33    -0.385080956407E+03   -0.12414E-02   -0.12391E-02  8320   0.353E-01-0.381E-03
CGA:  34    -0.385081823559E+03   -0.86715E-03   -0.86642E-03  8320   0.322E-01 0.639E-04
CGA:  35    -0.385082785672E+03   -0.96211E-03   -0.96017E-03  8320   0.339E-01 0.128E-03
CGA:  36    -0.385084363430E+03   -0.15778E-02   -0.15755E-02  8320   0.311E-01 0.724E-04
CGA:  37    -0.385085578376E+03   -0.12149E-02   -0.12156E-02  8320   0.783E-02-0.337E-04
CGA:  38    -0.385086086953E+03   -0.50858E-03   -0.50449E-03  8320   0.622E-02 0.104E-03
CGA:  39    -0.385086266804E+03   -0.17985E-03   -0.17970E-03  8320   0.770E-02 0.135E-04
CGA:  40    -0.385086528541E+03   -0.26174E-03   -0.26228E-03  8320   0.906E-02-0.371E-04
CGA:  41    -0.385086714051E+03   -0.18551E-03   -0.18551E-03  8320   0.893E-02-0.511E-05
CGA:  42    -0.385087027802E+03   -0.31375E-03   -0.31429E-03  8320   0.357E-02-0.357E-04
CGA:  43    -0.385087186967E+03   -0.15916E-03   -0.15866E-03  8320   0.148E-02 0.225E-04
CGA:  44    -0.385087246574E+03   -0.59608E-04   -0.59526E-04  8320   0.401E-02 0.411E-05
CGA:  45    -0.385087350233E+03   -0.10366E-03   -0.10366E-03  8320   0.293E-02 0.143E-05
CGA:  46    -0.385087441766E+03   -0.91533E-04   -0.91494E-04  8320   0.399E-02 0.576E-05
CGA:  47    -0.385087572606E+03   -0.13084E-03   -0.13079E-03  8320   0.636E-03 0.722E-05
CGA:  48    -0.385087605320E+03   -0.32714E-04   -0.32733E-04  8320   0.102E-02-0.772E-06
CGA:  49    -0.385087632215E+03   -0.26895E-04   -0.26895E-04  8320   0.179E-02 0.103E-05
CGA:  50    -0.385087696136E+03   -0.63921E-04   -0.63885E-04  8320   0.188E-02 0.361E-05
CGA:  51    -0.385087787026E+03   -0.90891E-04   -0.90860E-04  8320   0.116E-02 0.140E-05
CGA:  52    -0.385087807162E+03   -0.20136E-04   -0.20148E-04  8320   0.545E-03-0.252E-06
CGA:  53    -0.385087847636E+03   -0.40473E-04   -0.40276E-04  8320   0.187E-02 0.399E-05
CGA:  54    -0.385087872867E+03   -0.25231E-04   -0.25290E-04  8320   0.430E-03 0.209E-05
CGA:  55    -0.385087899582E+03   -0.26715E-04   -0.26584E-04  8320   0.333E-03 0.388E-05
CGA:  56    -0.385087912484E+03   -0.12902E-04   -0.12899E-04  8320   0.458E-03 0.468E-06
CGA:  57    -0.385087925748E+03   -0.13264E-04   -0.13263E-04  8320   0.219E-03-0.659E-06
CGA:  58    -0.385087938969E+03   -0.13221E-04   -0.13291E-04  8320   0.268E-03-0.235E-05
CGA:  59    -0.385087958743E+03   -0.19774E-04   -0.19947E-04  8320   0.271E-03-0.401E-05
CGA:  60    -0.385087962722E+03   -0.39793E-05   -0.39728E-05  8320   0.106E-03-0.521E-06
   4 F= -.38508796E+03 E0= -.38505453E+03  d E =-.104953E+00  mag=     6.2687
       N       E                     dE             d eps       ncg     rms          ort
SDA:   1    -0.383655670634E+03    0.14323E+01    0.00000E+00  8320   0.246E+02 0.000E+00
CGA:   2    -0.383909899305E+03   -0.25423E+00   -0.18773E+00  8320   0.511E+01 0.712E+01
CGA:   3    -0.384019983482E+03   -0.11008E+00   -0.10072E+00  8320   0.937E+01 0.321E+00
CGA:   4    -0.384240697236E+03   -0.22071E+00   -0.22385E+00  8320   0.286E+02 0.309E-01
CGA:   5    -0.384553218427E+03   -0.31252E+00   -0.32246E+00  8320   0.211E+02-0.573E+00
CGA:   6    -0.384714586868E+03   -0.16137E+00   -0.17998E+00  8320   0.893E+01-0.169E+01
CGA:   7    -0.384784041274E+03   -0.69454E-01   -0.60799E-01  8320   0.553E+01 0.976E+00
CGA:   8    -0.384850147107E+03   -0.66106E-01   -0.59603E-01  8320   0.554E+01 0.493E+00
CGA:   9    -0.384902542077E+03   -0.52395E-01   -0.53198E-01  8320   0.308E+01-0.809E-01
CGA:  10    -0.384923451662E+03   -0.20910E-01   -0.21037E-01  8320   0.205E+01-0.192E-01
CGA:  11    -0.384956106377E+03   -0.32655E-01   -0.32985E-01  8320   0.542E+01-0.172E-02
CGA:  12    -0.385043597395E+03   -0.87491E-01   -0.87765E-01  8320   0.688E+01-0.557E-03
CGA:  13    -0.385094497305E+03   -0.50900E-01   -0.51515E-01  8320   0.306E+01-0.745E-01
CGA:  14    -0.385120430123E+03   -0.25933E-01   -0.25265E-01  8320   0.188E+01 0.566E-01
CGA:  15    -0.385134750982E+03   -0.14321E-01   -0.14276E-01  8320   0.695E+00 0.238E-02
CGA:  16    -0.385139609753E+03   -0.48588E-02   -0.48601E-02  8320   0.371E+00-0.698E-03
CGA:  17    -0.385144334899E+03   -0.47251E-02   -0.47113E-02  8320   0.585E+00 0.302E-03
CGA:  18    -0.385152516382E+03   -0.81815E-02   -0.81206E-02  8320   0.873E+00 0.367E-03
CGA:  19    -0.385161928930E+03   -0.94125E-02   -0.93426E-02  8320   0.821E+00 0.362E-02
CGA:  20    -0.385168796679E+03   -0.68677E-02   -0.69790E-02  8320   0.490E+00-0.814E-02
CGA:  21    -0.385173435349E+03   -0.46387E-02   -0.47065E-02  8320   0.501E+00-0.354E-02
CGA:  22    -0.385180453136E+03   -0.70178E-02   -0.70445E-02  8320   0.617E+00 0.888E-03
CGA:  23    -0.385185289404E+03   -0.48363E-02   -0.47373E-02  8320   0.230E+00 0.834E-02
CGA:  24    -0.385187291172E+03   -0.20018E-02   -0.19733E-02  8320   0.199E+00 0.188E-02
CGA:  25    -0.385190009094E+03   -0.27179E-02   -0.26931E-02  8320   0.247E+00-0.107E-02
CGA:  26    -0.385191781625E+03   -0.17725E-02   -0.17954E-02  8320   0.103E+00-0.183E-02
CGA:  27    -0.385192595510E+03   -0.81388E-03   -0.82144E-03  8320   0.868E-01-0.506E-03
CGA:  28    -0.385193836838E+03   -0.12413E-02   -0.12420E-02  8320   0.136E+00 0.129E-03
CGA:  29    -0.385195127072E+03   -0.12902E-02   -0.12856E-02  8320   0.969E-01 0.161E-03
CGA:  30    -0.385196140286E+03   -0.10132E-02   -0.10064E-02  8320   0.121E+00 0.664E-04
CGA:  31    -0.385197886854E+03   -0.17466E-02   -0.17458E-02  8320   0.206E+00-0.216E-03
SDA:  32    -0.385199948965E+03   -0.20621E-02   -0.20691E-02  8320   0.165E+00-0.944E-05
CGA:  33    -0.385201775353E+03   -0.18264E-02   -0.18317E-02  8320   0.144E-01 0.143E-03
CGA:  34    -0.385202446647E+03   -0.67129E-03   -0.67050E-03  8320   0.288E-01 0.328E-04
CGA:  35    -0.385202973208E+03   -0.52656E-03   -0.52673E-03  8320   0.235E-01-0.684E-04
CGA:  36    -0.385204282370E+03   -0.13092E-02   -0.12980E-02  8320   0.169E-01 0.353E-03
CGA:  37    -0.385205039278E+03   -0.75691E-03   -0.75793E-03  8320   0.531E-02-0.428E-04
CGA:  38    -0.385205186610E+03   -0.14733E-03   -0.14747E-03  8320   0.766E-02-0.125E-04
CGA:  39    -0.385205372116E+03   -0.18551E-03   -0.18558E-03  8320   0.698E-02-0.101E-04
CGA:  40    -0.385205578317E+03   -0.20620E-03   -0.20614E-03  8320   0.663E-02 0.712E-05
CGA:  41    -0.385205779515E+03   -0.20120E-03   -0.20113E-03  8320   0.552E-02 0.796E-05
CGA:  42    -0.385206005666E+03   -0.22615E-03   -0.22493E-03  8320   0.297E-02 0.615E-04
CGA:  43    -0.385206067783E+03   -0.62118E-04   -0.62120E-04  8320   0.418E-02 0.258E-05
CGA:  44    -0.385206220198E+03   -0.15242E-03   -0.15247E-03  8320   0.183E-02-0.406E-05
CGA:  45    -0.385206383571E+03   -0.16337E-03   -0.16384E-03  8320   0.480E-02-0.824E-05
CGA:  46    -0.385206470985E+03   -0.87414E-04   -0.87409E-04  8320   0.288E-02-0.163E-05
CGA:  47    -0.385206549921E+03   -0.78936E-04   -0.78915E-04  8320   0.312E-02 0.701E-05
CGA:  48    -0.385206602428E+03   -0.52508E-04   -0.52436E-04  8320   0.621E-03-0.349E-06
CGA:  49    -0.385206642128E+03   -0.39700E-04   -0.39821E-04  8320   0.109E-02-0.356E-05
CGA:  50    -0.385206707657E+03   -0.65529E-04   -0.65332E-04  8320   0.275E-02 0.613E-05
CGA:  51    -0.385206746032E+03   -0.38375E-04   -0.38372E-04  8320   0.835E-03 0.523E-05
CGA:  52    -0.385206773311E+03   -0.27279E-04   -0.27273E-04  8320   0.508E-03 0.132E-05
CGA:  53    -0.385206794718E+03   -0.21407E-04   -0.21382E-04  8320   0.851E-03 0.168E-05
CGA:  54    -0.385206827284E+03   -0.32565E-04   -0.32548E-04  8320   0.868E-03 0.201E-05
CGA:  55    -0.385206867831E+03   -0.40547E-04   -0.40560E-04  8320   0.259E-03-0.935E-06
CGA:  56    -0.385206873267E+03   -0.54359E-05   -0.54350E-05  8320   0.385E-03-0.573E-07
CGA:  57    -0.385206888654E+03   -0.15387E-04   -0.15390E-04  8320   0.247E-03-0.387E-06
CGA:  58    -0.385206919129E+03   -0.30475E-04   -0.30246E-04  8320   0.362E-03 0.247E-05
CGA:  59    -0.385206926566E+03   -0.74365E-05   -0.74464E-05  8320   0.273E-03 0.989E-07
   5 F= -.38520693E+03 E0= -.38517345E+03  d E =-.118964E+00  mag=     6.2473
       N       E                     dE             d eps       ncg     rms          ort
SDA:   1    -0.380428379858E+03    0.47785E+01    0.00000E+00  8320   0.479E+02 0.000E+00
CGA:   2    -0.381040675841E+03   -0.61230E+00   -0.43063E+00  8320   0.157E+02 0.157E+02
CGA:   3    -0.381515582324E+03   -0.47491E+00   -0.45201E+00  8320   0.473E+02-0.579E-01
CGA:   4    -0.382273083225E+03   -0.75750E+00   -0.81359E+00  8320   0.100E+03-0.154E+01
CGA:   5    -0.382974964703E+03   -0.70188E+00   -0.83633E+00  8320   0.628E+02-0.129E+02
CGA:   6    -0.383452089659E+03   -0.47712E+00   -0.51386E+00  8320   0.409E+02-0.262E+01
CGA:   7    -0.383779494944E+03   -0.32741E+00   -0.30757E+00  8320   0.268E+02 0.141E+01
CGA:   8    -0.384035670592E+03   -0.25618E+00   -0.24160E+00  8320   0.199E+02 0.113E+01
CGA:   9    -0.384183348516E+03   -0.14768E+00   -0.14429E+00  8320   0.965E+01 0.194E+00
CGA:  10    -0.384256127886E+03   -0.72779E-01   -0.71618E-01  8320   0.831E+01 0.456E-01
CGA:  11    -0.384363131382E+03   -0.10700E+00   -0.10994E+00  8320   0.165E+02-0.163E+00
CGA:  12    -0.384530240583E+03   -0.16711E+00   -0.16360E+00  8320   0.191E+02 0.149E+00
CGA:  13    -0.384708768559E+03   -0.17853E+00   -0.17631E+00  8320   0.235E+02 0.152E+00
CGA:  14    -0.384919283703E+03   -0.21052E+00   -0.21019E+00  8320   0.193E+02-0.590E-01
CGA:  15    -0.385018381289E+03   -0.99098E-01   -0.11374E+00  8320   0.506E+01-0.211E+01
CGA:  16    -0.385042699403E+03   -0.24318E-01   -0.26366E-01  8320   0.226E+01-0.283E+00
CGA:  17    -0.385062758732E+03   -0.20059E-01   -0.19765E-01  8320   0.240E+01 0.203E-01
CGA:  18    -0.385087964305E+03   -0.25206E-01   -0.25365E-01  8320   0.261E+01-0.236E-02
CGA:  19    -0.385114423357E+03   -0.26459E-01   -0.27538E-01  8320   0.228E+01-0.308E-01
CGA:  20    -0.385136988384E+03   -0.22565E-01   -0.23564E-01  8320   0.195E+01-0.361E-01
CGA:  21    -0.385169078409E+03   -0.32090E-01   -0.32308E-01  8320   0.326E+01 0.410E-01
CGA:  22    -0.385221385698E+03   -0.52307E-01   -0.52607E-01  8320   0.196E+01 0.331E-01
CGA:  23    -0.385239536661E+03   -0.18151E-01   -0.17583E-01  8320   0.983E+00 0.343E-01
CGA:  24    -0.385257248404E+03   -0.17712E-01   -0.17692E-01  8320   0.139E+01-0.207E-01
CGA:  25    -0.385271469727E+03   -0.14221E-01   -0.14334E-01  8320   0.687E+00 0.223E-02
CGA:  26    -0.385278798356E+03   -0.73286E-02   -0.74300E-02  8320   0.559E+00-0.144E-02
CGA:  27    -0.385286680801E+03   -0.78824E-02   -0.78139E-02  8320   0.410E+00-0.504E-02
CGA:  28    -0.385291082476E+03   -0.44017E-02   -0.42795E-02  8320   0.355E+00 0.252E-02
CGA:  29    -0.385296572655E+03   -0.54902E-02   -0.54861E-02  8320   0.565E+00-0.104E-02
CGA:  30    -0.385305274292E+03   -0.87016E-02   -0.87184E-02  8320   0.843E+00 0.524E-02
CGA:  31    -0.385316482838E+03   -0.11209E-01   -0.11324E-01  8320   0.588E+00 0.866E-02
SDA:  32    -0.385321715192E+03   -0.52324E-02   -0.52617E-02  8320   0.245E+00-0.132E-02
CGA:  33    -0.385327861668E+03   -0.61465E-02   -0.62271E-02  8320   0.138E+00-0.755E-02
CGA:  34    -0.385331470593E+03   -0.36089E-02   -0.36094E-02  8320   0.903E-01-0.635E-04
CGA:  35    -0.385334951355E+03   -0.34808E-02   -0.34967E-02  8320   0.988E-01-0.767E-03
CGA:  36    -0.385341576147E+03   -0.66248E-02   -0.65788E-02  8320   0.914E-01 0.115E-02
CGA:  37    -0.385342966546E+03   -0.13904E-02   -0.13942E-02  8320   0.479E-01 0.664E-04
CGA:  38    -0.385344058259E+03   -0.10917E-02   -0.10921E-02  8320   0.246E-01-0.110E-03
CGA:  39    -0.385344629031E+03   -0.57077E-03   -0.57087E-03  8320   0.193E-01-0.202E-04
CGA:  40    -0.385345584411E+03   -0.95538E-03   -0.95656E-03  8320   0.238E-01-0.487E-04
CGA:  41    -0.385346675134E+03   -0.10907E-02   -0.10897E-02  8320   0.220E-01 0.360E-04
CGA:  42    -0.385347057425E+03   -0.38229E-03   -0.38155E-03  8320   0.160E-01-0.361E-05
CGA:  43    -0.385347459284E+03   -0.40186E-03   -0.40158E-03  8320   0.856E-02 0.856E-04
CGA:  44    -0.385347828655E+03   -0.36937E-03   -0.36845E-03  8320   0.926E-02 0.427E-04
CGA:  45    -0.385348101376E+03   -0.27272E-03   -0.27294E-03  8320   0.100E-01-0.292E-04
CGA:  46    -0.385348632068E+03   -0.53069E-03   -0.53090E-03  8320   0.970E-02-0.833E-05
CGA:  47    -0.385348867860E+03   -0.23579E-03   -0.23584E-03  8320   0.134E-01 0.147E-04
CGA:  48    -0.385349182156E+03   -0.31430E-03   -0.31429E-03  8320   0.336E-02-0.158E-05
CGA:  49    -0.385349275577E+03   -0.93421E-04   -0.93433E-04  8320   0.229E-02-0.488E-05
CGA:  50    -0.385349404864E+03   -0.12929E-03   -0.12913E-03  8320   0.605E-02 0.476E-05
CGA:  51    -0.385349574673E+03   -0.16981E-03   -0.16980E-03  8320   0.372E-02 0.131E-04
CGA:  52    -0.385349653259E+03   -0.78586E-04   -0.78580E-04  8320   0.388E-02 0.345E-05
CGA:  53    -0.385349758722E+03   -0.10546E-03   -0.10546E-03  8320   0.988E-03 0.603E-05
CGA:  54    -0.385349839757E+03   -0.81035E-04   -0.81398E-04  8320   0.316E-02-0.698E-05
CGA:  55    -0.385349928787E+03   -0.89031E-04   -0.89024E-04  8320   0.284E-02-0.287E-05
CGA:  56    -0.385349976244E+03   -0.47457E-04   -0.47479E-04  8320   0.111E-02 0.103E-05
CGA:  57    -0.385350006747E+03   -0.30503E-04   -0.30509E-04  8320   0.110E-02 0.156E-05
CGA:  58    -0.385350038252E+03   -0.31504E-04   -0.31504E-04  8320   0.573E-03 0.853E-06
CGA:  59    -0.385350096100E+03   -0.57849E-04   -0.57324E-04  8320   0.186E-02 0.714E-05
CGA:  60    -0.385350126005E+03   -0.29905E-04   -0.29973E-04  8320   0.991E-03 0.454E-05
CGA:  61    -0.385350152223E+03   -0.26218E-04   -0.26241E-04  8320   0.433E-03 0.392E-05
CGA:  62    -0.385350165612E+03   -0.13389E-04   -0.13389E-04  8320   0.422E-03 0.310E-06
SDA:  63    -0.385350180568E+03   -0.14956E-04   -0.14956E-04  8320   0.602E-03-0.263E-06
CGA:  64    -0.385350189730E+03   -0.91615E-05   -0.91653E-05  8320   0.305E-03 0.435E-06
   6 F= -.38535019E+03 E0= -.38531673E+03  d E =-.143263E+00  mag=     6.2098
       N       E                     dE             d eps       ncg     rms          ort
SDA:   1    -0.380126387861E+03    0.52238E+01    0.00000E+00  8320   0.321E+02 0.000E+00
CGA:   2    -0.380824755233E+03   -0.69837E+00   -0.57146E+00  8320   0.197E+02 0.212E+01
CGA:   3    -0.382605222468E+03   -0.17805E+01   -0.18089E+01  8320   0.647E+02-0.568E+00
CGA:   4    -0.383621287262E+03   -0.10161E+01   -0.11253E+01  8320   0.349E+02-0.206E+01
CGA:   5    -0.384240618481E+03   -0.61933E+00   -0.62381E+00  8320   0.129E+02-0.314E+00
CGA:   6    -0.384444132045E+03   -0.20351E+00   -0.19533E+00  8320   0.837E+01 0.254E+00
CGA:   7    -0.384659001996E+03   -0.21487E+00   -0.21109E+00  8320   0.796E+01-0.193E+00
CGA:   8    -0.384862033815E+03   -0.20303E+00   -0.20386E+00  8320   0.130E+02 0.777E-01
CGA:   9    -0.385145704934E+03   -0.28367E+00   -0.28656E+00  8320   0.564E+01 0.636E-01
CGA:  10    -0.385224540984E+03   -0.78836E-01   -0.73272E-01  8320   0.274E+01 0.261E+00
CGA:  11    -0.385288523877E+03   -0.63983E-01   -0.63284E-01  8320   0.192E+01-0.200E-01
CGA:  12    -0.385309049139E+03   -0.20525E-01   -0.22111E-01  8320   0.634E+00-0.876E-01
CGA:  13    -0.385329349962E+03   -0.20301E-01   -0.20191E-01  8320   0.132E+01 0.125E-01
CGA:  14    -0.385364255787E+03   -0.34906E-01   -0.34788E-01  8320   0.942E+00-0.273E-01
CGA:  15    -0.385383530171E+03   -0.19274E-01   -0.19453E-01  8320   0.824E+00 0.558E-02
CGA:  16    -0.385396493676E+03   -0.12964E-01   -0.12800E-01  8320   0.174E+00 0.383E-02
CGA:  17    -0.385402801448E+03   -0.63078E-02   -0.62625E-02  8320   0.235E+00 0.368E-02
CGA:  18    -0.385407043723E+03   -0.42423E-02   -0.42166E-02  8320   0.101E+00 0.244E-03
CGA:  19    -0.385409626556E+03   -0.25828E-02   -0.25823E-02  8320   0.152E+00-0.196E-03
CGA:  20    -0.385414197465E+03   -0.45709E-02   -0.45633E-02  8320   0.968E-01 0.138E-02
CGA:  21    -0.385417979274E+03   -0.37818E-02   -0.37700E-02  8320   0.130E+00 0.772E-03
CGA:  22    -0.385420019735E+03   -0.20405E-02   -0.20184E-02  8320   0.563E-01 0.568E-03
CGA:  23    -0.385421074019E+03   -0.10543E-02   -0.10563E-02  8320   0.211E-01 0.334E-04
CGA:  24    -0.385421645780E+03   -0.57176E-03   -0.57165E-03  8320   0.270E-01 0.796E-04
CGA:  25    -0.385422940335E+03   -0.12946E-02   -0.12961E-02  8320   0.543E-01-0.703E-04
CGA:  26    -0.385423790555E+03   -0.85022E-03   -0.85163E-03  8320   0.285E-01-0.279E-04
CGA:  27    -0.385425029824E+03   -0.12393E-02   -0.12362E-02  8320   0.138E-01 0.162E-03
CGA:  28    -0.385425234137E+03   -0.20431E-03   -0.20485E-03  8320   0.814E-02-0.143E-04
CGA:  29    -0.385425577696E+03   -0.34356E-03   -0.34256E-03  8320   0.204E-01 0.536E-04
CGA:  30    -0.385426151834E+03   -0.57414E-03   -0.57414E-03  8320   0.130E-01-0.997E-05
CGA:  31    -0.385426813404E+03   -0.66157E-03   -0.66122E-03  8320   0.105E-01 0.128E-04
SDA:  32    -0.385426960454E+03   -0.14705E-03   -0.14756E-03  8320   0.588E-02-0.197E-04
CGA:  33    -0.385427052210E+03   -0.91755E-04   -0.91531E-04  8320   0.484E-02 0.521E-05
CGA:  34    -0.385427224888E+03   -0.17268E-03   -0.17256E-03  8320   0.503E-02 0.964E-05
CGA:  35    -0.385427544896E+03   -0.32001E-03   -0.31950E-03  8320   0.639E-02 0.141E-04
CGA:  36    -0.385427682375E+03   -0.13748E-03   -0.13725E-03  8320   0.294E-02-0.404E-05
CGA:  37    -0.385427828931E+03   -0.14656E-03   -0.14684E-03  8320   0.166E-02-0.132E-04
CGA:  38    -0.385427939131E+03   -0.11020E-03   -0.10987E-03  8320   0.415E-02 0.877E-05
CGA:  39    -0.385427998328E+03   -0.59197E-04   -0.59170E-04  8320   0.183E-02 0.553E-05
CGA:  40    -0.385428172075E+03   -0.17375E-03   -0.17274E-03  8320   0.161E-02 0.168E-04
CGA:  41    -0.385428252038E+03   -0.79963E-04   -0.80060E-04  8320   0.189E-02-0.525E-05
CGA:  42    -0.385428291258E+03   -0.39220E-04   -0.39278E-04  8320   0.188E-02 0.162E-05
CGA:  43    -0.385428340397E+03   -0.49139E-04   -0.49171E-04  8320   0.148E-02 0.385E-05
CGA:  44    -0.385428489788E+03   -0.14939E-03   -0.14923E-03  8320   0.161E-02 0.198E-05
CGA:  45    -0.385428554068E+03   -0.64280E-04   -0.64280E-04  8320   0.177E-02-0.899E-06
CGA:  46    -0.385428579962E+03   -0.25893E-04   -0.25844E-04  8320   0.637E-03-0.778E-06
CGA:  47    -0.385428599905E+03   -0.19943E-04   -0.19926E-04  8320   0.108E-02-0.275E-05
CGA:  48    -0.385428655381E+03   -0.55476E-04   -0.55562E-04  8320   0.111E-02-0.635E-05
CGA:  49    -0.385428699347E+03   -0.43966E-04   -0.43984E-04  8320   0.349E-03-0.554E-05
CGA:  50    -0.385428708236E+03   -0.88887E-05   -0.88976E-05  8320   0.516E-03 0.541E-06
CGA:  51    -0.385428720194E+03   -0.11958E-04   -0.11984E-04  8320   0.267E-03 0.204E-05
CGA:  52    -0.385428745433E+03   -0.25239E-04   -0.24971E-04  8320   0.423E-03 0.445E-05
CGA:  53    -0.385428757351E+03   -0.11918E-04   -0.11955E-04  8320   0.241E-03 0.331E-05
CGA:  54    -0.385428761306E+03   -0.39553E-05   -0.39772E-05  8320   0.189E-03 0.673E-06
   7 F= -.38542876E+03 E0= -.38539551E+03  d E =-.785716E-01  mag=     6.1647
       N       E                     dE             d eps       ncg     rms          ort
SDA:   1    -0.377892040176E+03    0.75367E+01    0.00000E+00  8320   0.336E+02 0.000E+00
CGA:   2    -0.378838788010E+03   -0.94675E+00   -0.76336E+00  8320   0.382E+02 0.201E+01
CGA:   3    -0.380576307740E+03   -0.17375E+01   -0.17142E+01  8320   0.936E+02 0.271E+01
CGA:   4    -0.382822010043E+03   -0.22457E+01   -0.23669E+01  8320   0.459E+02-0.362E+00
CGA:   5    -0.383701783813E+03   -0.87977E+00   -0.87677E+00  8320   0.234E+02-0.154E+01
CGA:   6    -0.384072067938E+03   -0.37028E+00   -0.36249E+00  8320   0.160E+02 0.157E+00
CGA:   7    -0.384373317226E+03   -0.30125E+00   -0.29239E+00  8320   0.959E+01 0.804E-01
CGA:   8    -0.384625227288E+03   -0.25191E+00   -0.25726E+00  8320   0.150E+02 0.186E+00
CGA:   9    -0.384998003266E+03   -0.37278E+00   -0.37950E+00  8320   0.907E+01 0.148E+00
CGA:  10    -0.385179018550E+03   -0.18102E+00   -0.16171E+00  8320   0.560E+01 0.472E+00
CGA:  11    -0.385286376220E+03   -0.10736E+00   -0.10622E+00  8320   0.246E+01 0.328E-01
CGA:  12    -0.385316018984E+03   -0.29643E-01   -0.33001E-01  8320   0.104E+01-0.156E+00
CGA:  13    -0.385340215075E+03   -0.24196E-01   -0.24236E-01  8320   0.147E+01 0.194E-02
CGA:  14    -0.385380737930E+03   -0.40523E-01   -0.40354E-01  8320   0.119E+01-0.234E-01
CGA:  15    -0.385416893835E+03   -0.36156E-01   -0.36142E-01  8320   0.120E+01 0.977E-02
CGA:  16    -0.385432102678E+03   -0.15209E-01   -0.15438E-01  8320   0.327E+00-0.108E-01
CGA:  17    -0.385439555775E+03   -0.74531E-02   -0.75365E-02  8320   0.242E+00 0.344E-02
CGA:  18    -0.385446880369E+03   -0.73246E-02   -0.73366E-02  8320   0.163E+00-0.659E-02
CGA:  19    -0.385451946413E+03   -0.50660E-02   -0.50473E-02  8320   0.138E+00 0.394E-02
CGA:  20    -0.385456191147E+03   -0.42447E-02   -0.42424E-02  8320   0.236E+00 0.142E-02
CGA:  21    -0.385461562818E+03   -0.53717E-02   -0.53759E-02  8320   0.104E+00 0.143E-03
CGA:  22    -0.385463854613E+03   -0.22918E-02   -0.22766E-02  8320   0.602E-01-0.353E-03
CGA:  23    -0.385465472154E+03   -0.16175E-02   -0.16186E-02  8320   0.227E-01 0.314E-03
CGA:  24    -0.385466527129E+03   -0.10550E-02   -0.10513E-02  8320   0.519E-01 0.183E-03
CGA:  25    -0.385467862139E+03   -0.13350E-02   -0.13351E-02  8320   0.467E-01-0.858E-06
CGA:  26    -0.385469012646E+03   -0.11505E-02   -0.11500E-02  8320   0.408E-01-0.304E-04
CGA:  27    -0.385469921729E+03   -0.90908E-03   -0.91172E-03  8320   0.124E-01 0.879E-04
CGA:  28    -0.385470410775E+03   -0.48905E-03   -0.48838E-03  8320   0.127E-01 0.496E-04
CGA:  29    -0.385470796869E+03   -0.38609E-03   -0.38614E-03  8320   0.135E-01-0.246E-04
CGA:  30    -0.385471410226E+03   -0.61336E-03   -0.61341E-03  8320   0.233E-01-0.646E-05
CGA:  31    -0.385471920379E+03   -0.51015E-03   -0.51079E-03  8320   0.190E-01 0.750E-05
SDA:  32    -0.385472292213E+03   -0.37183E-03   -0.37288E-03  8320   0.544E-02-0.117E-05
CGA:  33    -0.385472431581E+03   -0.13937E-03   -0.13925E-03  8320   0.455E-02-0.138E-04
CGA:  34    -0.385472572261E+03   -0.14068E-03   -0.14065E-03  8320   0.850E-02 0.862E-05
CGA:  35    -0.385472857999E+03   -0.28574E-03   -0.28568E-03  8320   0.900E-02 0.904E-05
CGA:  36    -0.385473114491E+03   -0.25649E-03   -0.25646E-03  8320   0.431E-02-0.135E-04
CGA:  37    -0.385473269284E+03   -0.15479E-03   -0.15479E-03  8320   0.254E-02 0.687E-08
CGA:  38    -0.385473420787E+03   -0.15150E-03   -0.15116E-03  8320   0.266E-02 0.110E-04
CGA:  39    -0.385473553175E+03   -0.13239E-03   -0.13240E-03  8320   0.528E-02-0.949E-06
CGA:  40    -0.385473630816E+03   -0.77641E-04   -0.77764E-04  8320   0.217E-02-0.510E-05
CGA:  41    -0.385473753235E+03   -0.12242E-03   -0.12239E-03  8320   0.142E-02 0.640E-06
CGA:  42    -0.385473883636E+03   -0.13040E-03   -0.13037E-03  8320   0.258E-02 0.881E-06
CGA:  43    -0.385473948256E+03   -0.64620E-04   -0.64507E-04  8320   0.171E-02-0.751E-06
CGA:  44    -0.385474079066E+03   -0.13081E-03   -0.13074E-03  8320   0.200E-02 0.171E-05
CGA:  45    -0.385474110300E+03   -0.31234E-04   -0.31196E-04  8320   0.117E-02-0.215E-05
CGA:  46    -0.385474137899E+03   -0.27599E-04   -0.27549E-04  8320   0.773E-03-0.204E-05
CGA:  47    -0.385474183647E+03   -0.45748E-04   -0.45736E-04  8320   0.758E-03 0.167E-06
CGA:  48    -0.385474254035E+03   -0.70388E-04   -0.70758E-04  8320   0.400E-03-0.704E-05
CGA:  49    -0.385474262085E+03   -0.80494E-05   -0.80650E-05  8320   0.472E-03-0.376E-07
CGA:  50    -0.385474276295E+03   -0.14210E-04   -0.14222E-04  8320   0.421E-03 0.147E-05
CGA:  51    -0.385474308281E+03   -0.31986E-04   -0.31890E-04  8320   0.394E-03 0.239E-05
CGA:  52    -0.385474322042E+03   -0.13761E-04   -0.13768E-04  8320   0.387E-03 0.101E-05
CGA:  53    -0.385474329817E+03   -0.77748E-05   -0.77723E-05  8320   0.262E-03-0.843E-07
   8 F= -.38547433E+03 E0= -.38544162E+03  d E =-.455685E-01  mag=     6.1041
       N       E                     dE             d eps       ncg     rms          ort
SDA:   1    -0.375001017432E+03    0.10473E+02    0.00000E+00  8320   0.476E+02 0.000E+00
CGA:   2    -0.376170915668E+03   -0.11699E+01   -0.84488E+00  8320   0.422E+02 0.105E+02
CGA:   3    -0.377797976069E+03   -0.16271E+01   -0.15780E+01  8320   0.139E+03-0.259E+01
CGA:   4    -0.380401574071E+03   -0.26036E+01   -0.28262E+01  8320   0.185E+03-0.131E+01
CGA:   5    -0.382000966950E+03   -0.15994E+01   -0.18098E+01  8320   0.531E+02-0.171E+02
CGA:   6    -0.382579061653E+03   -0.57809E+00   -0.60095E+00  8320   0.418E+02-0.375E+01
CGA:   7    -0.383057122898E+03   -0.47806E+00   -0.39183E+00  8320   0.259E+02 0.627E+01
CGA:   8    -0.383329795281E+03   -0.27267E+00   -0.25436E+00  8320   0.176E+02 0.145E+01
CGA:   9    -0.383577678506E+03   -0.24788E+00   -0.24613E+00  8320   0.295E+02-0.114E+00
CGA:  10    -0.383955481156E+03   -0.37780E+00   -0.41555E+00  8320   0.425E+02-0.172E+01
CGA:  11    -0.384378486123E+03   -0.42300E+00   -0.43756E+00  8320   0.417E+02-0.993E+00
CGA:  12    -0.384771281035E+03   -0.39279E+00   -0.38920E+00  8320   0.231E+02-0.964E-01
CGA:  13    -0.384920624434E+03   -0.14934E+00   -0.14781E+00  8320   0.689E+01-0.199E+00
CGA:  14    -0.384967891025E+03   -0.47267E-01   -0.42501E-01  8320   0.358E+01 0.649E+00
CGA:  15    -0.385000901892E+03   -0.33011E-01   -0.29481E-01  8320   0.321E+01 0.373E+00
CGA:  16    -0.385036814845E+03   -0.35913E-01   -0.34188E-01  8320   0.480E+01 0.121E+00
CGA:  17    -0.385081909204E+03   -0.45094E-01   -0.45454E-01  8320   0.610E+01-0.228E-01
CGA:  18    -0.385125920650E+03   -0.44011E-01   -0.48854E-01  8320   0.586E+01-0.422E+00
CGA:  19    -0.385178237665E+03   -0.52317E-01   -0.57536E-01  8320   0.794E+01-0.264E+00
CGA:  20    -0.385259853066E+03   -0.81615E-01   -0.82509E-01  8320   0.744E+01-0.383E-01
CGA:  21    -0.385318918863E+03   -0.59066E-01   -0.58652E-01  8320   0.368E+01 0.323E-01
CGA:  22    -0.385344908701E+03   -0.25990E-01   -0.24325E-01  8320   0.174E+01 0.193E+00
CGA:  23    -0.385358217834E+03   -0.13309E-01   -0.13169E-01  8320   0.105E+01 0.149E-01
CGA:  24    -0.385367410807E+03   -0.91930E-02   -0.94682E-02  8320   0.988E+00-0.166E-01
CGA:  25    -0.385378077044E+03   -0.10666E-01   -0.11197E-01  8320   0.104E+01-0.617E-02
CGA:  26    -0.385389806913E+03   -0.11730E-01   -0.11956E-01  8320   0.912E+00-0.936E-03
CGA:  27    -0.385403430145E+03   -0.13623E-01   -0.13566E-01  8320   0.123E+01-0.549E-02
CGA:  28    -0.385419563118E+03   -0.16133E-01   -0.16118E-01  8320   0.135E+01-0.551E-03
CGA:  29    -0.385438151995E+03   -0.18589E-01   -0.18565E-01  8320   0.162E+01-0.122E-02
CGA:  30    -0.385455869243E+03   -0.17717E-01   -0.17835E-01  8320   0.910E+00-0.592E-03
CGA:  31    -0.385463173127E+03   -0.73039E-02   -0.74505E-02  8320   0.407E+00-0.928E-02
SDA:  32    -0.385468300997E+03   -0.51279E-02   -0.51998E-02  8320   0.402E+00 0.424E-02
CGA:  33    -0.385475477867E+03   -0.71769E-02   -0.71767E-02  8320   0.295E+00 0.895E-04
CGA:  34    -0.385482252185E+03   -0.67743E-02   -0.67951E-02  8320   0.279E+00-0.249E-02
CGA:  35    -0.385489992784E+03   -0.77406E-02   -0.76542E-02  8320   0.152E+00 0.705E-02
CGA:  36    -0.385498079131E+03   -0.80863E-02   -0.81202E-02  8320   0.195E+00-0.116E-02
CGA:  37    -0.385503487258E+03   -0.54081E-02   -0.53986E-02  8320   0.631E-01 0.879E-03
CGA:  38    -0.385504786585E+03   -0.12993E-02   -0.12989E-02  8320   0.731E-01 0.261E-03
CGA:  39    -0.385506516994E+03   -0.17304E-02   -0.17323E-02  8320   0.234E-01-0.319E-03
CGA:  40    -0.385508068199E+03   -0.15512E-02   -0.15357E-02  8320   0.240E-01 0.401E-03
CGA:  41    -0.385509735624E+03   -0.16674E-02   -0.16861E-02  8320   0.368E-01-0.465E-03
CGA:  42    -0.385510553329E+03   -0.81771E-03   -0.81826E-03  8320   0.169E-01 0.117E-03
CGA:  43    -0.385510797179E+03   -0.24385E-03   -0.24315E-03  8320   0.794E-02 0.626E-05
CGA:  44    -0.385511027414E+03   -0.23024E-03   -0.23014E-03  8320   0.652E-02 0.116E-04
CGA:  45    -0.385511418665E+03   -0.39125E-03   -0.39030E-03  8320   0.127E-01 0.270E-04
CGA:  46    -0.385512201491E+03   -0.78283E-03   -0.78310E-03  8320   0.140E-01-0.859E-05
CGA:  47    -0.385512595731E+03   -0.39424E-03   -0.39425E-03  8320   0.110E-01-0.117E-04
CGA:  48    -0.385512719448E+03   -0.12372E-03   -0.12467E-03  8320   0.171E-02-0.552E-04
CGA:  49    -0.385513030464E+03   -0.31102E-03   -0.22136E-04  8320   0.764E-02 0.779E-04
CGA:  50    -0.385513243766E+03   -0.21330E-03   -0.21320E-03  8320   0.548E-02-0.372E-05
CGA:  51    -0.385513327421E+03   -0.83655E-04   -0.83332E-04  8320   0.287E-02 0.138E-04
CGA:  52    -0.385513431428E+03   -0.10401E-03   -0.10415E-03  8320   0.191E-02 0.378E-05
CGA:  53    -0.385513573158E+03   -0.14173E-03   -0.14194E-03  8320   0.479E-02-0.576E-05
CGA:  54    -0.385513696730E+03   -0.12357E-03   -0.12379E-03  8320   0.188E-02-0.196E-05
CGA:  55    -0.385513729379E+03   -0.32649E-04   -0.32672E-04  8320   0.157E-02 0.167E-05
CGA:  56    -0.385513775665E+03   -0.46286E-04   -0.46365E-04  8320   0.925E-03 0.238E-05
CGA:  57    -0.385513862861E+03   -0.87196E-04   -0.87038E-04  8320   0.188E-02 0.289E-05
CGA:  58    -0.385513923889E+03   -0.61029E-04   -0.61135E-04  8320   0.266E-02 0.467E-05
CGA:  59    -0.385513966911E+03   -0.43022E-04   -0.42938E-04  8320   0.904E-03 0.109E-04
CGA:  60    -0.385513998956E+03   -0.32045E-04   -0.32038E-04  8320   0.649E-03-0.202E-06
CGA:  61    -0.385514047170E+03   -0.48214E-04   -0.48167E-04  8320   0.158E-02 0.131E-05
CGA:  62    -0.385514089706E+03   -0.42536E-04   -0.42568E-04  8320   0.222E-02 0.771E-07
SDA:  63    -0.385514140771E+03   -0.51065E-04   -0.50827E-04  8320   0.870E-03 0.373E-05
CGA:  64    -0.385514154367E+03   -0.13596E-04   -0.13622E-04  8320   0.439E-03-0.251E-05
CGA:  65    -0.385514168723E+03   -0.14356E-04   -0.14343E-04  8320   0.887E-03-0.158E-05
CGA:  66    -0.385514194461E+03   -0.25738E-04   -0.25675E-04  8320   0.512E-03-0.309E-05
CGA:  67    -0.385514247522E+03   -0.53061E-04   -0.53465E-04  8320   0.491E-03-0.642E-05
CGA:  68    -0.385514278429E+03   -0.30907E-04   -0.31048E-04  8320   0.729E-03-0.696E-05
CGA:  69    -0.385514288572E+03   -0.10143E-04   -0.10112E-04  8320   0.371E-03-0.219E-05
CGA:  70    -0.385514300448E+03   -0.11875E-04   -0.11865E-04  8320   0.433E-03-0.733E-06
CGA:  71    -0.385514346873E+03   -0.46425E-04   -0.46734E-04  8320   0.101E-02-0.487E-05
CGA:  72    -0.385514422820E+03   -0.75948E-04   -0.76094E-04  8320   0.115E-02-0.493E-05
CGA:  73    -0.385514444472E+03   -0.21651E-04   -0.21673E-04  8320   0.451E-03-0.132E-05
CGA:  74    -0.385514454922E+03   -0.10451E-04   -0.10470E-04  8320   0.582E-03-0.436E-06
CGA:  75    -0.385514472546E+03   -0.17624E-04   -0.17605E-04  8320   0.644E-03 0.843E-06
CGA:  76    -0.385514556591E+03   -0.84045E-04   -0.83131E-04  8320   0.144E-02 0.108E-04
CGA:  77    -0.385514629980E+03   -0.73389E-04   -0.73362E-04  8320   0.648E-03 0.126E-04
CGA:  78    -0.385514639334E+03   -0.93541E-05   -0.93466E-05  8320   0.524E-03 0.349E-05
CGA:  79    -0.385514673341E+03   -0.34007E-04   -0.33952E-04  8320   0.744E-03 0.299E-05
CGA:  80    -0.385514776650E+03   -0.10331E-03   -0.10454E-03  8320   0.218E-02-0.171E-04
CGA:  81    -0.385514819135E+03   -0.42485E-04   -0.42608E-04  8320   0.692E-03 0.203E-06
CGA:  82    -0.385514830298E+03   -0.11163E-04   -0.11301E-04  8320   0.579E-03-0.528E-05
CGA:  83    -0.385514857476E+03   -0.27178E-04   -0.27176E-04  8320   0.991E-03-0.554E-06
CGA:  84    -0.385514894055E+03   -0.36579E-04   -0.36351E-04  8320   0.903E-03-0.357E-05
CGA:  85    -0.385514987289E+03   -0.93234E-04   -0.89833E-04  8320   0.217E-02 0.651E-04
CGA:  86    -0.385515025174E+03   -0.37885E-04   -0.36155E-04  8320   0.159E-02 0.903E-04
CGA:  87    -0.385515078617E+03   -0.53443E-04   -0.53715E-04  8320   0.131E-02 0.170E-05
CGA:  88    -0.385515125137E+03   -0.46520E-04   -0.46434E-04  8320   0.156E-02 0.117E-05
CGA:  89    -0.385515191404E+03   -0.66267E-04   -0.66131E-04  8320   0.307E-02-0.642E-05
CGA:  90    -0.385515298056E+03   -0.10665E-03   -0.11181E-03  8320   0.873E-02 0.115E-03
CGA:  91    -0.385515557093E+03   -0.25904E-03   -0.14768E-03  8320   0.608E-02 0.562E-02
CGA:  92    -0.385515670841E+03   -0.11375E-03   -0.11298E-03  8320   0.200E-02 0.317E-04
CGA:  93    -0.385515744644E+03   -0.73803E-04   -0.73862E-04  8320   0.302E-02 0.254E-05
CGA:  94    -0.385515807371E+03   -0.62727E-04   -0.62743E-04  8320   0.297E-02-0.213E-06
CGA:  95    -0.385515941582E+03   -0.13421E-03   -0.13422E-03  8320   0.440E-02-0.966E-06
CGA:  96    -0.385516154358E+03   -0.21278E-03   -0.21262E-03  8320   0.406E-02 0.187E-04
CGA:  97    -0.385516338549E+03   -0.18419E-03   -0.18428E-03  8320   0.223E-02-0.197E-04
CGA:  98    -0.385516442809E+03   -0.10426E-03   -0.10415E-03  8320   0.346E-02 0.173E-04
CGA:  99    -0.385516498978E+03   -0.56169E-04   -0.55989E-04  8320   0.265E-02 0.107E-04
CGA: 100    -0.385516759080E+03   -0.26010E-03   -0.26254E-03  8320   0.568E-02-0.490E-04
CGA: 101    -0.385517343356E+03   -0.58428E-03   -0.62186E-03  8320   0.149E-01-0.668E-03
CGA: 102    -0.385517557527E+03   -0.21417E-03   -0.23677E-03  8320   0.673E-02-0.839E-03
CGA: 103    -0.385517681687E+03   -0.12416E-03   -0.12579E-03  8320   0.591E-02-0.460E-04
CGA: 104    -0.385518142037E+03   -0.46035E-03   -0.43522E-03  8320   0.170E-01 0.743E-03
CGA: 105    -0.385518873350E+03   -0.73131E-03   -0.62585E-03  8320   0.253E-01-0.354E-03
CGA: 106    -0.385519311801E+03   -0.43845E-03   -0.35678E-03  8320   0.268E-01 0.485E-02
CGA: 107    -0.385519886881E+03   -0.57508E-03   -0.60084E-03  8320   0.276E-01 0.226E-03
CGA: 108    -0.385520249112E+03   -0.36223E-03   -0.30622E-03  8320   0.173E-01 0.509E-02
CGA: 109    -0.385520684920E+03   -0.43581E-03   -0.42827E-03  8320   0.296E-01 0.656E-03
CGA: 110    -0.385521157367E+03   -0.47245E-03   -0.38671E-03  8320   0.172E-01 0.741E-02
CGA: 111    -0.385521417177E+03   -0.25981E-03   -0.26602E-03  8320   0.136E-01-0.174E-03
CGA: 112    -0.385521770503E+03   -0.35333E-03   -0.31905E-03  8320   0.200E-01 0.372E-03
CGA: 113    -0.385522017987E+03   -0.24748E-03   -0.19909E-03  8320   0.201E-01 0.433E-02
CGA: 114    -0.385522356691E+03   -0.33870E-03   -0.32026E-03  8320   0.253E-01 0.135E-02
CGA: 115    -0.385522657635E+03   -0.30094E-03   -0.34882E-03  8320   0.222E-01-0.178E-02
CGA: 116    -0.385522926482E+03   -0.26885E-03   -0.28727E-03  8320   0.158E-01-0.264E-03
CGA: 117    -0.385523103266E+03   -0.17678E-03   -0.15791E-03  8320   0.881E-02 0.158E-02
CGA: 118    -0.385523257207E+03   -0.15394E-03   -0.15041E-03  8320   0.115E-01 0.142E-03
CGA: 119    -0.385523414011E+03   -0.15680E-03   -0.16150E-03  8320   0.103E-01-0.170E-03
CGA: 120    -0.385523567701E+03   -0.15369E-03   -0.15989E-03  8320   0.159E-01-0.166E-03
CGA: 121    -0.385523934726E+03   -0.36702E-03   -0.36446E-03  8320   0.220E-01-0.775E-04
SDA: 122    -0.385524175359E+03   -0.24063E-03   -0.21581E-03  8320   0.146E-01 0.194E-02
CGA: 123    -0.385524501328E+03   -0.32597E-03   -0.32673E-03  8320   0.138E-01 0.354E-04
CGA: 124    -0.385524828724E+03   -0.32740E-03   -0.32717E-03  8320   0.150E-01-0.196E-04
CGA: 125    -0.385525450867E+03   -0.62214E-03   -0.62147E-03  8320   0.261E-01 0.440E-04
CGA: 126    -0.385526967810E+03   -0.15169E-02   -0.15152E-02  8320   0.279E-01 0.432E-04
CGA: 127    -0.385528224868E+03   -0.12571E-02   -0.12557E-02  8320   0.178E-01 0.681E-04
CGA: 128    -0.385528684981E+03   -0.46011E-03   -0.45999E-03  8320   0.202E-01-0.609E-05
CGA: 129    -0.385529071419E+03   -0.38644E-03   -0.38895E-03  8320   0.129E-01-0.131E-04
CGA: 130    -0.385529922010E+03   -0.85059E-03   -0.85995E-03  8320   0.124E-01-0.270E-03
CGA: 131    -0.385530363633E+03   -0.44162E-03   -0.44110E-03  8320   0.101E-01 0.667E-04
CGA: 132    -0.385530505892E+03   -0.14226E-03   -0.14185E-03  8320   0.445E-02 0.160E-04
CGA: 133    -0.385530692570E+03   -0.18668E-03   -0.18721E-03  8320   0.651E-02-0.384E-04
CGA: 134    -0.385530875026E+03   -0.18246E-03   -0.18244E-03  8320   0.293E-02-0.771E-05
CGA: 135    -0.385531095692E+03   -0.22067E-03   -0.21981E-03  8320   0.146E-01 0.218E-04
CGA: 136    -0.385531376864E+03   -0.28117E-03   -0.27783E-03  8320   0.338E-02 0.508E-04
CGA: 137    -0.385531545039E+03   -0.16818E-03   -0.16801E-03  8320   0.289E-02 0.670E-05
CGA: 138    -0.385531607872E+03   -0.62833E-04   -0.62609E-04  8320   0.373E-02 0.765E-06
CGA: 139    -0.385531794975E+03   -0.18710E-03   -0.18671E-03  8320   0.718E-02 0.180E-04
CGA: 140    -0.385532112496E+03   -0.31752E-03   -0.31775E-03  8320   0.614E-02-0.178E-04
CGA: 141    -0.385532230766E+03   -0.11827E-03   -0.12074E-03  8320   0.299E-02-0.346E-04
CGA: 142    -0.385532294694E+03   -0.63928E-04   -0.63500E-04  8320   0.268E-02 0.678E-05
CGA: 143    -0.385532381902E+03   -0.87208E-04   -0.87204E-04  8320   0.202E-02-0.274E-05
CGA: 144    -0.385532544229E+03   -0.16233E-03   -0.16257E-03  8320   0.646E-02-0.811E-05
CGA: 145    -0.385532649788E+03   -0.10556E-03   -0.11060E-03  8320   0.299E-02-0.140E-03
CGA: 146    -0.385532770721E+03   -0.12093E-03   -0.12211E-03  8320   0.251E-02-0.106E-03
CGA: 147    -0.385532807042E+03   -0.36321E-04   -0.36782E-04  8320   0.118E-02-0.161E-04
CGA: 148    -0.385532865108E+03   -0.58066E-04   -0.58063E-04  8320   0.187E-02 0.462E-06
CGA: 149    -0.385532918087E+03   -0.52979E-04   -0.53109E-04  8320   0.207E-02 0.598E-05
CGA: 150    -0.385532968703E+03   -0.50616E-04   -0.50225E-04  8320   0.170E-02-0.245E-05
CGA: 151    -0.385533062244E+03   -0.93542E-04   -0.92484E-04  8320   0.288E-02 0.446E-04
CGA: 152    -0.385533110148E+03   -0.47904E-04   -0.47355E-04  8320   0.700E-03 0.239E-04
SDA: 153    -0.385533123457E+03   -0.13309E-04   -0.13337E-04  8320   0.470E-03-0.220E-06
CGA: 154    -0.385533130336E+03   -0.68783E-05   -0.68830E-05  8320   0.360E-03 0.280E-06
CGA: 155    -0.385533150643E+03   -0.20307E-04   -0.20282E-04  8320   0.101E-02 0.877E-06
CGA: 156    -0.385533188061E+03   -0.37419E-04   -0.37419E-04  8320   0.643E-03 0.128E-05
CGA: 157    -0.385533215660E+03   -0.27599E-04   -0.27557E-04  8320   0.451E-03 0.396E-05
CGA: 158    -0.385533232681E+03   -0.17021E-04   -0.17016E-04  8320   0.220E-03 0.121E-05
CGA: 159    -0.385533244542E+03   -0.11861E-04   -0.11881E-04  8320   0.740E-03-0.101E-05
CGA: 160    -0.385533258404E+03   -0.13862E-04   -0.13841E-04  8320   0.313E-03-0.234E-05
CGA: 161    -0.385533308744E+03   -0.50341E-04   -0.51431E-04  8320   0.672E-03-0.851E-05
CGA: 162    -0.385533322143E+03   -0.13398E-04   -0.13356E-04  8320   0.323E-03-0.430E-06
CGA: 163    -0.385533331658E+03   -0.95154E-05   -0.95202E-05  8320   0.352E-03-0.147E-06
   9 F= -.38553333E+03 E0= -.38550023E+03  d E =-.590018E-01  mag=     6.0632
       N       E                     dE             d eps       ncg     rms          ort
SDA:   1    -0.322155344758E+03    0.63378E+02    0.00000E+00  8320   0.112E+04 0.000E+00
CGA:   2    -0.372677124106E+03   -0.50522E+02   -0.11184E+02  8320   0.182E+03 0.479E+03
CGA:   3    -0.377485889021E+03   -0.48088E+01   -0.25547E+01  8320   0.499E+02 0.516E+02
CGA:   4    -0.377746497777E+03   -0.26061E+00   -0.60601E+00  8320   0.115E+03-0.373E+02
CGA:   5    -0.379093969296E+03   -0.13475E+01   -0.11229E+01  8320   0.223E+02 0.190E+02
CGA:   6    -0.379771321747E+03   -0.67735E+00   -0.56614E+00  8320   0.450E+02 0.160E+00
CGA:   7    -0.380389484422E+03   -0.61816E+00   -0.63516E+00  8320   0.863E+02-0.173E+01
CGA:   8    -0.381445445907E+03   -0.10560E+01   -0.14393E+01  8320   0.852E+02-0.156E+01
CGA:   9    -0.382850355465E+03   -0.14049E+01   -0.15876E+01  8320   0.102E+03-0.239E+01
CGA:  10    -0.383852763010E+03   -0.10024E+01   -0.64785E+00  8320   0.311E+02 0.304E+02
CGA:  11    -0.384069135006E+03   -0.21637E+00   -0.18546E+00  8320   0.128E+02 0.473E+01
CGA:  12    -0.384169615556E+03   -0.10048E+00   -0.76508E-01  8320   0.141E+02 0.418E+01
CGA:  13    -0.384270334065E+03   -0.10072E+00   -0.62991E-01  8320   0.149E+02 0.108E+02
CGA:  14    -0.384443438744E+03   -0.17310E+00   -0.18349E+00  8320   0.899E+01-0.506E+00
CGA:  15    -0.384716463563E+03   -0.27302E+00   -0.35523E+00  8320   0.220E+02-0.480E+01
CGA:  16    -0.384938944767E+03   -0.22248E+00   -0.29524E+00  8320   0.596E+01-0.221E+01
CGA:  17    -0.385024669452E+03   -0.85725E-01   -0.83204E-01  8320   0.346E+01 0.157E-01
CGA:  18    -0.385148189072E+03   -0.12352E+00   -0.12978E+00  8320   0.552E+01-0.421E+00
CGA:  19    -0.385355926625E+03   -0.20774E+00   -0.20504E+00  8320   0.232E+01 0.140E+00
CGA:  20    -0.385432035118E+03   -0.76108E-01   -0.74999E-01  8320   0.677E+00 0.132E+00
CGA:  21    -0.385442461614E+03   -0.10426E-01   -0.10347E-01  8320   0.330E+00 0.224E-02
CGA:  22    -0.385452650820E+03   -0.10189E-01   -0.10223E-01  8320   0.498E+00-0.431E-02
CGA:  23    -0.385475835533E+03   -0.23185E-01   -0.22910E-01  8320   0.748E+00 0.125E-01
CGA:  24    -0.385504112244E+03   -0.28277E-01   -0.28365E-01  8320   0.208E+00-0.650E-02
CGA:  25    -0.385511343315E+03   -0.72311E-02   -0.72368E-02  8320   0.980E-01-0.547E-03
CGA:  26    -0.385514644545E+03   -0.33012E-02   -0.33019E-02  8320   0.126E+00-0.688E-04
CGA:  27    -0.385518596922E+03   -0.39524E-02   -0.39491E-02  8320   0.167E+00 0.630E-03
CGA:  28    -0.385523160632E+03   -0.45637E-02   -0.45611E-02  8320   0.180E+00-0.107E-02
CGA:  29    -0.385527874357E+03   -0.47137E-02   -0.47204E-02  8320   0.248E-01 0.157E-02
CGA:  30    -0.385528912871E+03   -0.10385E-02   -0.10388E-02  8320   0.262E-01-0.242E-04
CGA:  31    -0.385529839498E+03   -0.92663E-03   -0.92881E-03  8320   0.449E-01-0.223E-03
CGA:  32    -0.385531560305E+03   -0.17208E-02   -0.17222E-02  8320   0.755E-01-0.126E-03
CGA:  33    -0.385532925733E+03   -0.13654E-02   -0.13718E-02  8320   0.193E-01-0.735E-04
CGA:  34    -0.385533467387E+03   -0.54165E-03   -0.54173E-03  8320   0.848E-02 0.365E-04
CGA:  35    -0.385534058230E+03   -0.59084E-03   -0.59444E-03  8320   0.276E-01-0.963E-04
CGA:  36    -0.385535078079E+03   -0.10198E-02   -0.10192E-02  8320   0.242E-01 0.853E-04
CGA:  37    -0.385535637156E+03   -0.55908E-03   -0.56145E-03  8320   0.175E-01 0.583E-04
CGA:  38    -0.385535896184E+03   -0.25903E-03   -0.25827E-03  8320   0.382E-02 0.544E-04
CGA:  39    -0.385536111341E+03   -0.21516E-03   -0.21516E-03  8320   0.773E-02 0.547E-06
CGA:  40    -0.385536360742E+03   -0.24940E-03   -0.24937E-03  8320   0.603E-02 0.377E-04
CGA:  41    -0.385536602231E+03   -0.24149E-03   -0.24111E-03  8320   0.268E-02 0.367E-04
CGA:  42    -0.385536680736E+03   -0.78505E-04   -0.78470E-04  8320   0.263E-02-0.645E-05
CGA:  43    -0.385536748435E+03   -0.67699E-04   -0.67661E-04  8320   0.242E-02-0.962E-05
CGA:  44    -0.385536811429E+03   -0.62994E-04   -0.62920E-04  8320   0.265E-02-0.138E-04
CGA:  45    -0.385536899362E+03   -0.87933E-04   -0.87993E-04  8320   0.197E-02-0.254E-04
SDA:  46    -0.385536989027E+03   -0.89665E-04   -0.90045E-04  8320   0.145E-02-0.260E-04
CGA:  47    -0.385537019451E+03   -0.30424E-04   -0.30495E-04  8320   0.832E-03 0.357E-05
CGA:  48    -0.385537057412E+03   -0.37961E-04   -0.37805E-04  8320   0.121E-02 0.115E-04
CGA:  49    -0.385537084298E+03   -0.26887E-04   -0.26989E-04  8320   0.138E-02 0.964E-05
CGA:  50    -0.385537137444E+03   -0.53146E-04   -0.53004E-04  8320   0.101E-02 0.218E-04
CGA:  51    -0.385537189639E+03   -0.52195E-04   -0.51944E-04  8320   0.644E-03 0.135E-04
CGA:  52    -0.385537221569E+03   -0.31930E-04   -0.31984E-04  8320   0.744E-03-0.332E-05
CGA:  53    -0.385537241910E+03   -0.20340E-04   -0.20307E-04  8320   0.112E-02-0.595E-05
CGA:  54    -0.385537273765E+03   -0.31855E-04   -0.31805E-04  8320   0.839E-03-0.131E-04
CGA:  55    -0.385537300016E+03   -0.26251E-04   -0.26231E-04  8320   0.782E-03-0.121E-04
CGA:  56    -0.385537330782E+03   -0.30766E-04   -0.30860E-04  8320   0.219E-03-0.137E-04
CGA:  57    -0.385537341168E+03   -0.10386E-04   -0.10393E-04  8320   0.252E-03-0.573E-06
CGA:  58    -0.385537346078E+03   -0.49104E-05   -0.49225E-05  8320   0.296E-03 0.614E-06
CGA:  59    -0.385537368021E+03   -0.21942E-04   -0.21605E-04  8320   0.220E-03 0.845E-05
CGA:  60    -0.385537375440E+03   -0.74198E-05   -0.74301E-05  8320   0.159E-03 0.346E-05
  10 F= -.38553738E+03 E0= -.38550514E+03  d E =-.404378E-02  mag=     6.1209
       N       E                     dE             d eps       ncg     rms          ort
SDA:   1    -0.385274075244E+03    0.26329E+00    0.00000E+00  8320   0.346E+01 0.000E+00
CGA:   2    -0.385314311133E+03   -0.40236E-01   -0.38536E-01  8320   0.114E+01 0.992E-01
CGA:   3    -0.385350326652E+03   -0.36016E-01   -0.35805E-01  8320   0.171E+01-0.230E-01
CGA:   4    -0.385441129245E+03   -0.90803E-01   -0.89670E-01  8320   0.246E+01 0.497E-01
CGA:   5    -0.385488811171E+03   -0.47682E-01   -0.44919E-01  8320   0.123E+01 0.758E-01
CGA:   6    -0.385507465541E+03   -0.18654E-01   -0.18387E-01  8320   0.335E+00 0.107E-01
CGA:   7    -0.385520838693E+03   -0.13373E-01   -0.13314E-01  8320   0.342E+00 0.613E-02
CGA:   8    -0.385526973491E+03   -0.61348E-02   -0.61519E-02  8320   0.358E+00-0.451E-03
CGA:   9    -0.385543949029E+03   -0.16976E-01   -0.17000E-01  8320   0.160E+00-0.131E-02
CGA:  10    -0.385546875186E+03   -0.29262E-02   -0.29576E-02  8320   0.125E+00-0.618E-03
CGA:  11    -0.385548714880E+03   -0.18397E-02   -0.18253E-02  8320   0.200E-01 0.571E-03
CGA:  12    -0.385550065036E+03   -0.13502E-02   -0.13534E-02  8320   0.505E-01-0.957E-04
CGA:  13    -0.385550819383E+03   -0.75435E-03   -0.75415E-03  8320   0.246E-01-0.726E-05
CGA:  14    -0.385551592987E+03   -0.77360E-03   -0.77346E-03  8320   0.212E-01-0.612E-04
CGA:  15    -0.385552075273E+03   -0.48229E-03   -0.48415E-03  8320   0.892E-02 0.172E-04
CGA:  16    -0.385552254794E+03   -0.17952E-03   -0.17984E-03  8320   0.906E-02-0.181E-05
CGA:  17    -0.385552443226E+03   -0.18843E-03   -0.18800E-03  8320   0.174E-02 0.619E-05
CGA:  18    -0.385552563683E+03   -0.12046E-03   -0.12035E-03  8320   0.741E-02 0.257E-05
CGA:  19    -0.385552687201E+03   -0.12352E-03   -0.12378E-03  8320   0.248E-02-0.163E-05
CGA:  20    -0.385552812896E+03   -0.12569E-03   -0.12544E-03  8320   0.234E-02 0.127E-04
CGA:  21    -0.385552846011E+03   -0.33115E-04   -0.33083E-04  8320   0.767E-03 0.645E-05
CGA:  22    -0.385552860959E+03   -0.14948E-04   -0.14946E-04  8320   0.698E-03 0.219E-06
CGA:  23    -0.385552901208E+03   -0.40249E-04   -0.40191E-04  8320   0.948E-03 0.210E-05
CGA:  24    -0.385552938319E+03   -0.37110E-04   -0.37110E-04  8320   0.204E-02-0.229E-06
CGA:  25    -0.385552971942E+03   -0.33623E-04   -0.33664E-04  8320   0.468E-03-0.128E-05
CGA:  26    -0.385552987424E+03   -0.15482E-04   -0.15481E-04  8320   0.317E-03 0.852E-06
CGA:  27    -0.385552995641E+03   -0.82179E-05   -0.82251E-05  8320   0.580E-03 0.103E-05
CGA:  28    -0.385553017475E+03   -0.21834E-04   -0.21815E-04  8320   0.580E-03 0.284E-05
CGA:  29    -0.385553040076E+03   -0.22601E-04   -0.22592E-04  8320   0.521E-03 0.196E-05
CGA:  30    -0.385553048758E+03   -0.86821E-05   -0.86899E-05  8320   0.261E-03 0.737E-06
  11 F= -.38555305E+03 E0= -.38552101E+03  d E =-.156733E-01  mag=     6.1126
       N       E                     dE             d eps       ncg     rms          ort
SDA:   1    -0.377213003483E+03    0.83400E+01    0.00000E+00  8320   0.654E+02 0.000E+00
CGA:   2    -0.378010981082E+03   -0.79798E+00   -0.89046E+00  8320   0.438E+02-0.695E+01
CGA:   3    -0.379915278346E+03   -0.19043E+01   -0.21503E+01  8320   0.134E+03-0.880E+01
CGA:   4    -0.382511515492E+03   -0.25962E+01   -0.26459E+01  8320   0.539E+02 0.124E+01
CGA:   5    -0.383577055057E+03   -0.10655E+01   -0.10811E+01  8320   0.329E+02 0.261E+01
CGA:   6    -0.384179106625E+03   -0.60205E+00   -0.45359E+00  8320   0.147E+02 0.668E+01
CGA:   7    -0.384353919014E+03   -0.17481E+00   -0.16878E+00  8320   0.727E+01 0.341E+00
CGA:   8    -0.384633682042E+03   -0.27976E+00   -0.27655E+00  8320   0.288E+02 0.277E+00
CGA:   9    -0.385100636368E+03   -0.46695E+00   -0.45897E+00  8320   0.119E+02 0.248E+00
CGA:  10    -0.385249217777E+03   -0.14858E+00   -0.13860E+00  8320   0.868E+01 0.531E+00
CGA:  11    -0.385387567045E+03   -0.13835E+00   -0.14103E+00  8320   0.425E+01-0.808E-01
CGA:  12    -0.385421272157E+03   -0.33705E-01   -0.34962E-01  8320   0.157E+01-0.122E+00
CGA:  13    -0.385454147819E+03   -0.32876E-01   -0.33230E-01  8320   0.184E+01 0.257E-01
CGA:  14    -0.385477904121E+03   -0.23756E-01   -0.23863E-01  8320   0.125E+01-0.561E-02
CGA:  15    -0.385515214491E+03   -0.37310E-01   -0.37472E-01  8320   0.217E+01-0.222E-01
CGA:  16    -0.385539649942E+03   -0.24435E-01   -0.24235E-01  8320   0.996E+00 0.819E-02
CGA:  17    -0.385558619128E+03   -0.18969E-01   -0.19198E-01  8320   0.105E+01 0.881E-02
CGA:  18    -0.385571679162E+03   -0.13060E-01   -0.13236E-01  8320   0.463E+00-0.105E-01
CGA:  19    -0.385579781505E+03   -0.81023E-02   -0.80193E-02  8320   0.305E+00-0.167E-02
CGA:  20    -0.385583194661E+03   -0.34132E-02   -0.33840E-02  8320   0.149E+00 0.150E-02
CGA:  21    -0.385586594553E+03   -0.33999E-02   -0.34009E-02  8320   0.168E+00 0.201E-02
CGA:  22    -0.385588602527E+03   -0.20080E-02   -0.20253E-02  8320   0.831E-01-0.632E-03
CGA:  23    -0.385592210144E+03   -0.36076E-02   -0.36078E-02  8320   0.263E+00-0.243E-04
CGA:  24    -0.385595706484E+03   -0.34963E-02   -0.34947E-02  8320   0.856E-01-0.396E-04
CGA:  25    -0.385597790125E+03   -0.20836E-02   -0.20820E-02  8320   0.142E+00 0.627E-03
CGA:  26    -0.385599891061E+03   -0.21009E-02   -0.20919E-02  8320   0.382E-01 0.126E-03
CGA:  27    -0.385600460737E+03   -0.56968E-03   -0.56657E-03  8320   0.268E-01 0.136E-04
CGA:  28    -0.385600919174E+03   -0.45844E-03   -0.45825E-03  8320   0.245E-01-0.820E-05
CGA:  29    -0.385601780314E+03   -0.86114E-03   -0.85928E-03  8320   0.521E-01 0.122E-03
CGA:  30    -0.385602620516E+03   -0.84020E-03   -0.84078E-03  8320   0.417E-01 0.171E-04
CGA:  31    -0.385603869657E+03   -0.12491E-02   -0.12512E-02  8320   0.447E-01-0.201E-03
SDA:  32    -0.385604305227E+03   -0.43557E-03   -0.43682E-03  8320   0.111E-01-0.760E-04
CGA:  33    -0.385604605827E+03   -0.30060E-03   -0.30047E-03  8320   0.741E-02 0.177E-04
CGA:  34    -0.385604929892E+03   -0.32407E-03   -0.32427E-03  8320   0.181E-01-0.956E-05
CGA:  35    -0.385605380357E+03   -0.45046E-03   -0.45057E-03  8320   0.143E-01-0.313E-04
CGA:  36    -0.385605760699E+03   -0.38034E-03   -0.38007E-03  8320   0.775E-02 0.538E-04
CGA:  37    -0.385606112684E+03   -0.35199E-03   -0.35154E-03  8320   0.393E-02 0.200E-04
CGA:  38    -0.385606365229E+03   -0.25254E-03   -0.25234E-03  8320   0.143E-01 0.407E-05
CGA:  39    -0.385606622669E+03   -0.25744E-03   -0.25799E-03  8320   0.620E-02 0.798E-05
CGA:  40    -0.385607034845E+03   -0.41218E-03   -0.41082E-03  8320   0.305E-02 0.359E-04
CGA:  41    -0.385607294592E+03   -0.25975E-03   -0.26166E-03  8320   0.505E-02-0.398E-04
CGA:  42    -0.385607396956E+03   -0.10236E-03   -0.10243E-03  8320   0.509E-02-0.986E-06
CGA:  43    -0.385607548877E+03   -0.15192E-03   -0.15191E-03  8320   0.411E-02-0.790E-05
CGA:  44    -0.385607680141E+03   -0.13126E-03   -0.13122E-03  8320   0.325E-02 0.161E-04
CGA:  45    -0.385607839545E+03   -0.15940E-03   -0.16008E-03  8320   0.172E-02-0.314E-04
CGA:  46    -0.385607917493E+03   -0.77948E-04   -0.77885E-04  8320   0.139E-02 0.397E-05
CGA:  47    -0.385608013581E+03   -0.96088E-04   -0.95922E-04  8320   0.265E-02 0.401E-05
CGA:  48    -0.385608059117E+03   -0.45536E-04   -0.45745E-04  8320   0.201E-02-0.264E-05
CGA:  49    -0.385608132041E+03   -0.72924E-04   -0.72953E-04  8320   0.457E-03-0.387E-05
CGA:  50    -0.385608169106E+03   -0.37065E-04   -0.37046E-04  8320   0.159E-02 0.629E-06
CGA:  51    -0.385608211613E+03   -0.42507E-04   -0.42390E-04  8320   0.129E-02-0.378E-05
CGA:  52    -0.385608237884E+03   -0.26271E-04   -0.26307E-04  8320   0.100E-02-0.257E-05
CGA:  53    -0.385608276943E+03   -0.39059E-04   -0.39072E-04  8320   0.223E-03-0.239E-05
[...]
CGA:  37    -0.385974869883E+03   -0.21368E-04   -0.21536E-04  8320   0.309E-03-0.438E-05
CGA:  38    -0.385974875699E+03   -0.58155E-05   -0.57903E-05  8320   0.186E-03-0.167E-05
 105 F= -.38597488E+03 E0= -.38595206E+03  d E =-.788866E-02  mag=     6.5926
       N       E                     dE             d eps       ncg     rms          ort
SDA:   1    -0.382132526543E+03    0.38423E+01    0.00000E+00  8320   0.133E+02 0.000E+00
CGA:   2    -0.383324225681E+03   -0.11917E+01   -0.10559E+01  8320   0.177E+02 0.259E+01
CGA:   3    -0.384657608198E+03   -0.13334E+01   -0.12885E+01  8320   0.140E+02 0.172E+01
CGA:   4    -0.385171662141E+03   -0.51405E+00   -0.46020E+00  8320   0.623E+01-0.207E+01
CGA:   5    -0.385425157106E+03   -0.25349E+00   -0.26011E+00  8320   0.138E+02-0.371E+00
CGA:   6    -0.385725917648E+03   -0.30076E+00   -0.30173E+00  8320   0.200E+01 0.113E-01
CGA:   7    -0.385813685573E+03   -0.87768E-01   -0.86431E-01  8320   0.195E+01 0.130E+00
CGA:   8    -0.385871477374E+03   -0.57792E-01   -0.58313E-01  8320   0.172E+01 0.888E-02
CGA:   9    -0.385925278450E+03   -0.53801E-01   -0.54398E-01  8320   0.382E+00 0.445E-01
CGA:  10    -0.385943445392E+03   -0.18167E-01   -0.18283E-01  8320   0.517E+00-0.803E-02
CGA:  11    -0.385953636463E+03   -0.10191E-01   -0.10247E-01  8320   0.266E+00-0.856E-03
CGA:  12    -0.385960770850E+03   -0.71344E-02   -0.72683E-02  8320   0.170E+00 0.323E-02
CGA:  13    -0.385965671799E+03   -0.49009E-02   -0.48729E-02  8320   0.171E+00-0.102E-02
CGA:  14    -0.385969860250E+03   -0.41885E-02   -0.41251E-02  8320   0.968E-01-0.390E-03
CGA:  15    -0.385973014032E+03   -0.31538E-02   -0.31552E-02  8320   0.642E-01 0.378E-03
CGA:  16    -0.385974255498E+03   -0.12415E-02   -0.12448E-02  8320   0.422E-01-0.778E-04
CGA:  17    -0.385975986011E+03   -0.17305E-02   -0.17329E-02  8320   0.272E-01-0.217E-03
CGA:  18    -0.385976686130E+03   -0.70012E-03   -0.70227E-03  8320   0.317E-01 0.457E-04
CGA:  19    -0.385977637797E+03   -0.95167E-03   -0.95249E-03  8320   0.137E-01 0.740E-04
CGA:  20    -0.385978119765E+03   -0.48197E-03   -0.48217E-03  8320   0.196E-01-0.729E-04
CGA:  21    -0.385978542556E+03   -0.42279E-03   -0.42103E-03  8320   0.751E-02 0.426E-05
CGA:  22    -0.385978884803E+03   -0.34225E-03   -0.34151E-03  8320   0.113E-01 0.497E-04
CGA:  23    -0.385979120281E+03   -0.23548E-03   -0.23663E-03  8320   0.611E-02 0.317E-05
CGA:  24    -0.385979348001E+03   -0.22772E-03   -0.22770E-03  8320   0.587E-02 0.883E-05
CGA:  25    -0.385979525203E+03   -0.17720E-03   -0.17724E-03  8320   0.589E-02 0.102E-04
CGA:  26    -0.385979673077E+03   -0.14787E-03   -0.14808E-03  8320   0.376E-02 0.120E-04
CGA:  27    -0.385979798503E+03   -0.12543E-03   -0.12544E-03  8320   0.273E-02-0.436E-05
CGA:  28    -0.385979882179E+03   -0.83676E-04   -0.83694E-04  8320   0.404E-02 0.822E-05
CGA:  29    -0.385980022870E+03   -0.14069E-03   -0.14060E-03  8320   0.179E-02 0.272E-04
CGA:  30    -0.385980080862E+03   -0.57992E-04   -0.57996E-04  8320   0.270E-02 0.539E-05
CGA:  31    -0.385980157087E+03   -0.76225E-04   -0.76223E-04  8320   0.129E-02 0.280E-05
SDA:  32    -0.385980209029E+03   -0.51942E-04   -0.51972E-04  8320   0.162E-02-0.317E-05
CGA:  33    -0.385980231273E+03   -0.22245E-04   -0.22199E-04  8320   0.423E-03-0.377E-06
CGA:  34    -0.385980262090E+03   -0.30816E-04   -0.30945E-04  8320   0.560E-03-0.325E-05
CGA:  35    -0.385980298745E+03   -0.36655E-04   -0.36857E-04  8320   0.110E-02-0.627E-05
CGA:  36    -0.385980353399E+03   -0.54654E-04   -0.54826E-04  8320   0.391E-03-0.114E-04
CGA:  37    -0.385980369951E+03   -0.16553E-04   -0.16546E-04  8320   0.228E-03 0.811E-06
CGA:  38    -0.385980388107E+03   -0.18155E-04   -0.17966E-04  8320   0.241E-03 0.446E-05
CGA:  39    -0.385980405511E+03   -0.17405E-04   -0.17228E-04  8320   0.460E-03 0.553E-05
CGA:  40    -0.385980415179E+03   -0.96680E-05   -0.97110E-05  8320   0.159E-03 0.176E-05
 106 F= -.38598042E+03 E0= -.38595843E+03  d E =-.553948E-02  mag=     6.6066
       N       E                     dE             d eps       ncg     rms          ort
SDA:   1    -0.383110360024E+03    0.28700E+01    0.00000E+00  8320   0.100E+02 0.000E+00
CGA:   2    -0.383595973496E+03   -0.48561E+00   -0.49707E+00  8320   0.270E+02-0.787E+00
CGA:   3    -0.384678659664E+03   -0.10827E+01   -0.10870E+01  8320   0.208E+02-0.878E+00
CGA:   4    -0.385251950054E+03   -0.57329E+00   -0.58225E+00  8320   0.700E+01-0.474E-02
CGA:   5    -0.385488136394E+03   -0.23619E+00   -0.23592E+00  8320   0.332E+01-0.120E-01
CGA:   6    -0.385704374285E+03   -0.21624E+00   -0.21587E+00  8320   0.572E+01 0.131E-01
CGA:   7    -0.385824170141E+03   -0.11980E+00   -0.12300E+00  8320   0.261E+01-0.537E-01
CGA:   8    -0.385888548733E+03   -0.64379E-01   -0.66848E-01  8320   0.107E+01-0.110E-01
CGA:   9    -0.385923594773E+03   -0.35046E-01   -0.34575E-01  8320   0.635E+00-0.178E-01
CGA:  10    -0.385943007300E+03   -0.19413E-01   -0.19541E-01  8320   0.274E+00 0.424E-02
CGA:  11    -0.385953014993E+03   -0.10008E-01   -0.10033E-01  8320   0.365E+00 0.447E-02
CGA:  12    -0.385966813128E+03   -0.13798E-01   -0.13772E-01  8320   0.127E+00-0.764E-02
CGA:  13    -0.385973423022E+03   -0.66099E-02   -0.66213E-02  8320   0.999E-01-0.620E-03
CGA:  14    -0.385975983745E+03   -0.25607E-02   -0.25650E-02  8320   0.393E-01-0.425E-05
CGA:  15    -0.385978068702E+03   -0.20850E-02   -0.20795E-02  8320   0.276E-01 0.289E-03
CGA:  16    -0.385978951782E+03   -0.88308E-03   -0.88261E-03  8320   0.328E-01-0.161E-04
CGA:  17    -0.385980806211E+03   -0.18544E-02   -0.18518E-02  8320   0.160E-01 0.113E-03
CGA:  18    -0.385981361453E+03   -0.55524E-03   -0.55565E-03  8320   0.110E-01 0.279E-04
CGA:  19    -0.385981723705E+03   -0.36225E-03   -0.36241E-03  8320   0.421E-02 0.962E-05
CGA:  20    -0.385982013914E+03   -0.29021E-03   -0.28966E-03  8320   0.820E-02 0.176E-04
CGA:  21    -0.385982278567E+03   -0.26465E-03   -0.26477E-03  8320   0.648E-02 0.727E-05
CGA:  22    -0.385982573616E+03   -0.29505E-03   -0.29510E-03  8320   0.311E-02-0.408E-05
CGA:  23    -0.385982694276E+03   -0.12066E-03   -0.12067E-03  8320   0.284E-02 0.671E-05
CGA:  24    -0.385982824043E+03   -0.12977E-03   -0.12964E-03  8320   0.224E-02 0.177E-04
CGA:  25    -0.385982923538E+03   -0.99495E-04   -0.99471E-04  8320   0.218E-02 0.314E-05
CGA:  26    -0.385983022069E+03   -0.98531E-04   -0.98552E-04  8320   0.345E-02-0.482E-05
CGA:  27    -0.385983164087E+03   -0.14202E-03   -0.14202E-03  8320   0.869E-03 0.238E-06
CGA:  28    -0.385983210662E+03   -0.46575E-04   -0.46534E-04  8320   0.120E-02 0.254E-05
CGA:  29    -0.385983252482E+03   -0.41821E-04   -0.41869E-04  8320   0.578E-03 0.266E-05
CGA:  30    -0.385983296925E+03   -0.44442E-04   -0.44310E-04  8320   0.117E-02 0.361E-05
CGA:  31    -0.385983328203E+03   -0.31279E-04   -0.31322E-04  8320   0.576E-03 0.124E-05
SDA:  32    -0.385983355128E+03   -0.26925E-04   -0.26912E-04  8320   0.236E-03 0.271E-05
CGA:  33    -0.385983364595E+03   -0.94664E-05   -0.94669E-05  8320   0.267E-03-0.120E-06
CGA:  34    -0.385983375208E+03   -0.10613E-04   -0.10614E-04  8320   0.283E-03 0.258E-06
CGA:  35    -0.385983391044E+03   -0.15837E-04   -0.15858E-04  8320   0.390E-03-0.172E-05
CGA:  36    -0.385983402900E+03   -0.11856E-04   -0.11838E-04  8320   0.141E-03-0.119E-05
CGA:  37    -0.385983413740E+03   -0.10839E-04   -0.10849E-04  8320   0.113E-03-0.337E-06
CGA:  38    -0.385983426597E+03   -0.12857E-04   -0.12853E-04  8320   0.190E-03 0.187E-07
CGA:  39    -0.385983432889E+03   -0.62920E-05   -0.62951E-05  8320   0.157E-03 0.359E-07
 107 F= -.38598343E+03 E0= -.38596204E+03  d E =-.301771E-02  mag=     6.6129
       N       E                     dE             d eps       ncg     rms          ort
SDA:   1    -0.384465820302E+03    0.15176E+01    0.00000E+00  8320   0.656E+01 0.000E+00
CGA:   2    -0.384721274289E+03   -0.25545E+00   -0.26425E+00  8320   0.108E+02 0.539E+00
CGA:   3    -0.385274342470E+03   -0.55307E+00   -0.55020E+00  8320   0.627E+01 0.144E+01
CGA:   4    -0.385613402526E+03   -0.33906E+00   -0.34202E+00  8320   0.377E+01-0.688E+00
CGA:   5    -0.385716537473E+03   -0.10313E+00   -0.96884E-01  8320   0.322E+01 0.197E-01
CGA:   6    -0.385798838159E+03   -0.82301E-01   -0.79846E-01  8320   0.264E+01 0.282E-01
CGA:   7    -0.385868494553E+03   -0.69656E-01   -0.71229E-01  8320   0.177E+01-0.180E-01
CGA:   8    -0.385932238618E+03   -0.63744E-01   -0.63835E-01  8320   0.113E+01 0.383E-02
CGA:   9    -0.385952067594E+03   -0.19829E-01   -0.19094E-01  8320   0.316E+00 0.270E-01
CGA:  10    -0.385965391229E+03   -0.13324E-01   -0.13320E-01  8320   0.295E+00-0.401E-02
CGA:  11    -0.385971954433E+03   -0.65632E-02   -0.65974E-02  8320   0.191E+00-0.779E-03
CGA:  12    -0.385980014773E+03   -0.80603E-02   -0.80682E-02  8320   0.120E+00-0.262E-02
CGA:  13    -0.385983628187E+03   -0.36134E-02   -0.35790E-02  8320   0.856E-01-0.504E-03
CGA:  14    -0.385985803726E+03   -0.21755E-02   -0.22126E-02  8320   0.432E-01-0.129E-03
CGA:  15    -0.385987064365E+03   -0.12606E-02   -0.12646E-02  8320   0.337E-01 0.633E-04
CGA:  16    -0.385988404521E+03   -0.13402E-02   -0.13404E-02  8320   0.235E-01-0.132E-03
CGA:  17    -0.385989027420E+03   -0.62290E-03   -0.62308E-03  8320   0.216E-01 0.796E-05
CGA:  18    -0.385989755650E+03   -0.72823E-03   -0.72906E-03  8320   0.956E-02 0.816E-04
CGA:  19    -0.385990135947E+03   -0.38030E-03   -0.38029E-03  8320   0.110E-01 0.791E-05
CGA:  20    -0.385990406324E+03   -0.27038E-03   -0.26949E-03  8320   0.539E-02 0.884E-05
CGA:  21    -0.385990620822E+03   -0.21450E-03   -0.21456E-03  8320   0.495E-02-0.134E-04
CGA:  22    -0.385990785327E+03   -0.16451E-03   -0.16454E-03  8320   0.423E-02 0.368E-05
CGA:  23    -0.385990953079E+03   -0.16775E-03   -0.16775E-03  8320   0.478E-02-0.139E-05
CGA:  24    -0.385991074391E+03   -0.12131E-03   -0.12117E-03  8320   0.205E-02-0.375E-05
CGA:  25    -0.385991179288E+03   -0.10490E-03   -0.10489E-03  8320   0.229E-02-0.595E-06
CGA:  26    -0.385991235339E+03   -0.56051E-04   -0.56055E-04  8320   0.170E-02-0.285E-05
CGA:  27    -0.385991315382E+03   -0.80044E-04   -0.80124E-04  8320   0.157E-02-0.689E-05
CGA:  28    -0.385991378063E+03   -0.62681E-04   -0.62696E-04  8320   0.181E-02-0.407E-05
CGA:  29    -0.385991430776E+03   -0.52713E-04   -0.52756E-04  8320   0.955E-03-0.206E-06
CGA:  30    -0.385991457226E+03   -0.26450E-04   -0.26463E-04  8320   0.743E-03 0.207E-06
CGA:  31    -0.385991493645E+03   -0.36419E-04   -0.36426E-04  8320   0.646E-03-0.502E-06
SDA:  32    -0.385991514346E+03   -0.20701E-04   -0.20714E-04  8320   0.693E-03 0.200E-05
CGA:  33    -0.385991525051E+03   -0.10705E-04   -0.10764E-04  8320   0.182E-03-0.105E-06
CGA:  34    -0.385991535191E+03   -0.10140E-04   -0.10088E-04  8320   0.302E-03 0.251E-05
CGA:  35    -0.385991551011E+03   -0.15820E-04   -0.15757E-04  8320   0.327E-03 0.426E-05
CGA:  36    -0.385991568999E+03   -0.17987E-04   -0.17914E-04  8320   0.203E-03 0.437E-05
CGA:  37    -0.385991578511E+03   -0.95129E-05   -0.95012E-05  8320   0.114E-03 0.139E-05
 108 F= -.38599158E+03 E0= -.38597029E+03  d E =-.814562E-02  mag=     6.6231
       N       E                     dE             d eps       ncg     rms          ort
SDA:   1    -0.384358750959E+03    0.16328E+01    0.00000E+00  8320   0.510E+01 0.000E+00
CGA:   2    -0.384783677681E+03   -0.42493E+00   -0.47517E+00  8320   0.231E+02-0.936E+00
CGA:   3    -0.385292747322E+03   -0.50907E+00   -0.51935E+00  8320   0.123E+02-0.726E-01
CGA:   4    -0.385530470288E+03   -0.23772E+00   -0.26844E+00  8320   0.591E+01-0.717E+00
CGA:   5    -0.385666547914E+03   -0.13608E+00   -0.12733E+00  8320   0.320E+01 0.128E+00
CGA:   6    -0.385732713833E+03   -0.66166E-01   -0.61904E-01  8320   0.244E+01 0.107E+00
CGA:   7    -0.385842906932E+03   -0.11019E+00   -0.10931E+00  8320   0.269E+01 0.122E+00
CGA:   8    -0.385906505735E+03   -0.63599E-01   -0.65437E-01  8320   0.166E+01-0.299E-01
CGA:   9    -0.385944373037E+03   -0.37867E-01   -0.36944E-01  8320   0.551E+00 0.978E-02
CGA:  10    -0.385953150439E+03   -0.87774E-02   -0.83430E-02  8320   0.261E+00 0.189E-01
CGA:  11    -0.385963853329E+03   -0.10703E-01   -0.10737E-01  8320   0.384E+00-0.622E-02
CGA:  12    -0.385971066124E+03   -0.72128E-02   -0.70527E-02  8320   0.237E+00 0.478E-02
CGA:  13    -0.385976104789E+03   -0.50387E-02   -0.51563E-02  8320   0.182E+00-0.138E-02
CGA:  14    -0.385979776379E+03   -0.36716E-02   -0.36543E-02  8320   0.120E+00 0.243E-03
CGA:  15    -0.385982503135E+03   -0.27268E-02   -0.27256E-02  8320   0.965E-01 0.201E-04
CGA:  16    -0.385984860470E+03   -0.23573E-02   -0.23587E-02  8320   0.819E-01 0.272E-04
CGA:  17    -0.385986212274E+03   -0.13518E-02   -0.13687E-02  8320   0.280E-01-0.477E-03
CGA:  18    -0.385986869977E+03   -0.65770E-03   -0.65929E-03  8320   0.300E-01 0.206E-04
CGA:  19    -0.385987580884E+03   -0.71091E-03   -0.70878E-03  8320   0.176E-01-0.345E-04
CGA:  20    -0.385988024917E+03   -0.44403E-03   -0.44268E-03  8320   0.207E-01-0.485E-04
CGA:  21    -0.385988529725E+03   -0.50481E-03   -0.50579E-03  8320   0.138E-01 0.311E-04
CGA:  22    -0.385988837893E+03   -0.30817E-03   -0.30866E-03  8320   0.135E-01 0.260E-05
CGA:  23    -0.385989212368E+03   -0.37448E-03   -0.37447E-03  8320   0.112E-01-0.387E-05
CGA:  24    -0.385989413280E+03   -0.20091E-03   -0.20101E-03  8320   0.415E-02-0.451E-05
CGA:  25    -0.385989484683E+03   -0.71403E-04   -0.71431E-04  8320   0.249E-02-0.223E-05
CGA:  26    -0.385989565249E+03   -0.80566E-04   -0.80532E-04  8320   0.315E-02 0.597E-05
CGA:  27    -0.385989645296E+03   -0.80047E-04   -0.80076E-04  8320   0.382E-02 0.198E-05
CGA:  28    -0.385989784587E+03   -0.13929E-03   -0.13935E-03  8320   0.390E-02-0.831E-05
CGA:  29    -0.385989843354E+03   -0.58767E-04   -0.58552E-04  8320   0.147E-02-0.109E-05
CGA:  30    -0.385989885911E+03   -0.42558E-04   -0.42558E-04  8320   0.166E-02-0.382E-05
CGA:  31    -0.385989922109E+03   -0.36198E-04   -0.36176E-04  8320   0.126E-02-0.143E-05
SDA:  32    -0.385989956404E+03   -0.34295E-04   -0.34293E-04  8320   0.127E-02-0.130E-05
CGA:  33    -0.385989980577E+03   -0.24173E-04   -0.24163E-04  8320   0.406E-03 0.233E-07
CGA:  34    -0.385989999985E+03   -0.19408E-04   -0.19335E-04  8320   0.740E-03 0.358E-05
CGA:  35    -0.385990032988E+03   -0.33002E-04   -0.32864E-04  8320   0.660E-03 0.863E-05
CGA:  36    -0.385990063471E+03   -0.30483E-04   -0.30401E-04  8320   0.433E-03 0.526E-05
CGA:  37    -0.385990088862E+03   -0.25391E-04   -0.25326E-04  8320   0.236E-03 0.226E-05
CGA:  38    -0.385990109236E+03   -0.20373E-04   -0.20167E-04  8320   0.178E-03 0.383E-05
CGA:  39    -0.385990120862E+03   -0.11626E-04   -0.11642E-04  8320   0.404E-03-0.598E-06
CGA:  40    -0.385990131707E+03   -0.10845E-04   -0.10841E-04  8320   0.243E-03-0.508E-06
CGA:  41    -0.385990149886E+03   -0.18179E-04   -0.18315E-04  8320   0.819E-04-0.344E-05
CGA:  42    -0.385990157958E+03   -0.80723E-05   -0.81868E-05  8320   0.233E-03-0.185E-05
 109 F= -.38599016E+03 E0= -.38596891E+03  d E =0.142055E-02  mag=     6.6401
       N       E                     dE             d eps       ncg     rms          ort
SDA:   1    -0.385821322329E+03    0.16883E+00    0.00000E+00  8320   0.908E+00 0.000E+00
CGA:   2    -0.385844954344E+03   -0.23632E-01   -0.23242E-01  8320   0.917E+00 0.603E-03
CGA:   3    -0.385901379238E+03   -0.56425E-01   -0.56951E-01  8320   0.133E+01-0.212E-01
CGA:   4    -0.385935658587E+03   -0.34279E-01   -0.34961E-01  8320   0.518E+00-0.512E-03
CGA:   5    -0.385962148079E+03   -0.26489E-01   -0.26387E-01  8320   0.278E+00 0.629E-02
CGA:   6    -0.385968937577E+03   -0.67895E-02   -0.67580E-02  8320   0.221E+00 0.175E-03
CGA:   7    -0.385978328011E+03   -0.93904E-02   -0.94106E-02  8320   0.130E+00-0.367E-02
CGA:   8    -0.385985174451E+03   -0.68464E-02   -0.68255E-02  8320   0.705E-01 0.115E-02
CGA:   9    -0.385987775357E+03   -0.26009E-02   -0.26003E-02  8320   0.191E-01-0.622E-04
CGA:  10    -0.385988476553E+03   -0.70120E-03   -0.70140E-03  8320   0.180E-01 0.243E-04
CGA:  11    -0.385989609822E+03   -0.11333E-02   -0.11346E-02  8320   0.103E-01-0.529E-04
CGA:  12    -0.385989838909E+03   -0.22909E-03   -0.22925E-03  8320   0.723E-02-0.797E-05
CGA:  13    -0.385990194192E+03   -0.35528E-03   -0.35525E-03  8320   0.362E-02-0.160E-05
CGA:  14    -0.385990403683E+03   -0.20949E-03   -0.20967E-03  8320   0.986E-03-0.101E-04
CGA:  15    -0.385990496226E+03   -0.92543E-04   -0.92199E-04  8320   0.185E-02 0.663E-05
CGA:  16    -0.385990567836E+03   -0.71609E-04   -0.71611E-04  8320   0.137E-02 0.230E-05
CGA:  17    -0.385990599662E+03   -0.31827E-04   -0.31826E-04  8320   0.620E-03 0.405E-06
CGA:  18    -0.385990627046E+03   -0.27384E-04   -0.27381E-04  8320   0.459E-03 0.143E-05
CGA:  19    -0.385990645007E+03   -0.17961E-04   -0.17958E-04  8320   0.365E-03-0.591E-06
CGA:  20    -0.385990669982E+03   -0.24975E-04   -0.25019E-04  8320   0.199E-03-0.173E-05
CGA:  21    -0.385990689775E+03   -0.19793E-04   -0.19802E-04  8320   0.412E-03-0.187E-06
CGA:  22    -0.385990698627E+03   -0.88514E-05   -0.88600E-05  8320   0.207E-03-0.158E-06
CGA:  23    -0.385990708698E+03   -0.10071E-04   -0.10074E-04  8320   0.994E-04-0.119E-05
CGA:  24    -0.385990715584E+03   -0.68864E-05   -0.68993E-05  8320   0.166E-03-0.526E-06
CGA:  25    -0.385990727077E+03   -0.11492E-04   -0.11518E-04  8320   0.145E-03-0.118E-05
CGA:  26    -0.385990730638E+03   -0.35612E-05   -0.35563E-05  8320   0.426E-04-0.166E-06
 110 F= -.38599073E+03 E0= -.38596940E+03  d E =-.572680E-03  mag=     6.6368
       N       E                     dE             d eps       ncg     rms          ort
SDA:   1    -0.385810062999E+03    0.18066E+00    0.00000E+00  8320   0.435E+01 0.000E+00
CGA:   2    -0.385856040590E+03   -0.45978E-01   -0.68137E-01  8320   0.112E+01-0.105E+01
CGA:   3    -0.385883655224E+03   -0.27615E-01   -0.27771E-01  8320   0.791E+00 0.754E-03
CGA:   4    -0.385923451447E+03   -0.39796E-01   -0.40025E-01  8320   0.871E+00-0.237E-01
CGA:   5    -0.385957852285E+03   -0.34401E-01   -0.34485E-01  8320   0.490E+00 0.789E-02
CGA:   6    -0.385968654762E+03   -0.10802E-01   -0.11373E-01  8320   0.222E+00-0.119E-01
CGA:   7    -0.385976892475E+03   -0.82377E-02   -0.82228E-02  8320   0.161E+00-0.949E-03
CGA:   8    -0.385985049248E+03   -0.81568E-02   -0.81383E-02  8320   0.113E+00 0.167E-02
CGA:   9    -0.385988168604E+03   -0.31194E-02   -0.30849E-02  8320   0.572E-01 0.248E-03
CGA:  10    -0.385989835690E+03   -0.16671E-02   -0.16640E-02  8320   0.301E-01 0.184E-04
CGA:  11    -0.385990978185E+03   -0.11425E-02   -0.11437E-02  8320   0.153E-01 0.124E-03
CGA:  12    -0.385991587924E+03   -0.60974E-03   -0.60959E-03  8320   0.118E-01-0.206E-04
CGA:  13    -0.385991972249E+03   -0.38433E-03   -0.38407E-03  8320   0.945E-02-0.140E-05
CGA:  14    -0.385992282869E+03   -0.31062E-03   -0.31133E-03  8320   0.372E-02 0.273E-04
CGA:  15    -0.385992421326E+03   -0.13846E-03   -0.13841E-03  8320   0.244E-02-0.522E-05
CGA:  16    -0.385992529636E+03   -0.10831E-03   -0.10831E-03  8320   0.264E-02-0.146E-06
CGA:  17    -0.385992606447E+03   -0.76812E-04   -0.76766E-04  8320   0.130E-02-0.287E-05
CGA:  18    -0.385992650852E+03   -0.44405E-04   -0.44376E-04  8320   0.651E-03-0.162E-05
CGA:  19    -0.385992686281E+03   -0.35429E-04   -0.35426E-04  8320   0.843E-03-0.218E-06
CGA:  20    -0.385992714420E+03   -0.28139E-04   -0.28148E-04  8320   0.578E-03 0.852E-06
CGA:  21    -0.385992731757E+03   -0.17338E-04   -0.17338E-04  8320   0.291E-03 0.217E-06
CGA:  22    -0.385992746050E+03   -0.14293E-04   -0.14272E-04  8320   0.281E-03 0.223E-05
CGA:  23    -0.385992759554E+03   -0.13504E-04   -0.13495E-04  8320   0.300E-03 0.138E-05
CGA:  24    -0.385992768176E+03   -0.86212E-05   -0.86499E-05  8320   0.179E-03 0.220E-05
 111 F= -.38599277E+03 E0= -.38597151E+03  d E =-.203754E-02  mag=     6.6355
