       N       E                     dE             d eps       ncg     rms          rms(c)
DAV:   1     0.710956087996E+04    0.71096E+04   -0.28807E+05 39840   0.157E+03
DAV:   2     0.488673806690E+03   -0.66209E+04   -0.61597E+04 39016   0.476E+02
DAV:   3    -0.379090719731E+03   -0.86776E+03   -0.85235E+03 41264   0.184E+02
DAV:   4    -0.419756627797E+03   -0.40666E+02   -0.40205E+02 48328   0.364E+01
DAV:   5    -0.422513519697E+03   -0.27569E+01   -0.27401E+01 65584   0.681E+00    0.588E+01
DAV:   6    -0.373184942823E+03    0.49329E+02   -0.22292E+02 43304   0.315E+01    0.395E+01
DAV:   7    -0.377819847729E+03   -0.46349E+01   -0.20881E+01 42032   0.107E+01    0.296E+01
DAV:   8    -0.379310202953E+03   -0.14904E+01   -0.21042E+00 48440   0.337E+00    0.165E+01
DAV:   9    -0.382764852831E+03   -0.34546E+01   -0.21782E+00 41800   0.331E+00    0.424E+00
DAV:  10    -0.383973318946E+03   -0.12085E+01   -0.48001E-01 43584   0.123E+00    0.283E+00
DAV:  11    -0.385905117319E+03   -0.19318E+01   -0.88136E-01 42728   0.126E+00    0.213E+00
DAV:  12    -0.387777716920E+03   -0.18726E+01   -0.16325E+00 41760   0.153E+00    0.104E+00
DAV:  13    -0.388092372927E+03   -0.31466E+00   -0.28638E-01 42688   0.780E-01    0.465E-01
DAV:  14    -0.388119146238E+03   -0.26773E-01   -0.26624E-02 41264   0.312E-01    0.254E-01
DAV:  15    -0.388117417891E+03    0.17283E-02   -0.61369E-03 42192   0.199E-01    0.149E-01
DAV:  16    -0.388115978113E+03    0.14398E-02   -0.36472E-03 40168   0.144E-01    0.815E-02
DAV:  17    -0.388115643927E+03    0.33419E-03   -0.50688E-04 41352   0.595E-02    0.476E-02
DAV:  18    -0.388115598054E+03    0.45873E-04   -0.43091E-04 38584   0.474E-02    0.272E-02
DAV:  19    -0.388115561675E+03    0.36378E-04   -0.86579E-05 37648   0.246E-02    0.222E-02
DAV:  20    -0.388115553199E+03    0.84762E-05   -0.37814E-05 34472   0.172E-02
   1 F= -.38811555E+03 E0= -.38811555E+03  d E =-.388116E+03  mag=    59.9999
       N       E                     dE             d eps       ncg     rms          rms(c)
DAV:   1    -0.388116735731E+03   -0.11741E-02   -0.10926E-03 42856   0.108E-01    0.169E-02
DAV:   2    -0.388116746218E+03   -0.10487E-04   -0.10279E-04 39840   0.198E-02    0.796E-03
DAV:   3    -0.388116746361E+03   -0.14284E-06   -0.36887E-06 22936   0.434E-03    0.356E-03
DAV:   4    -0.388116746354E+03    0.66211E-08   -0.60473E-07 20384   0.181E-03
   2 F= -.38811675E+03 E0= -.38811675E+03  d E =-.119315E-02  mag=    60.0000
       N       E                     dE             d eps       ncg     rms          rms(c)
DAV:   1    -0.388145569187E+03   -0.28823E-01   -0.24924E+00 42264   0.516E+00    0.787E-01
DAV:   2    -0.388170375193E+03   -0.24806E-01   -0.23197E-01 39464   0.918E-01    0.354E-01
DAV:   3    -0.388171273835E+03   -0.89864E-03   -0.72634E-03 51464   0.154E-01    0.154E-01
DAV:   4    -0.388171197662E+03    0.76173E-04   -0.49169E-04 52048   0.408E-02    0.105E-01
DAV:   5    -0.388171088621E+03    0.10904E-03   -0.10427E-04 44152   0.476E-02    0.427E-02
DAV:   6    -0.388171081442E+03    0.71793E-05   -0.99936E-05 46496   0.287E-02
   3 F= -.38817108E+03 E0= -.38817108E+03  d E =-.543351E-01  mag=    60.0000
       N       E                     dE             d eps       ncg     rms          rms(c)
DAV:   1    -0.388092733463E+03    0.78355E-01   -0.20405E+01 42360   0.148E+01    0.226E+00
DAV:   2    -0.388296509866E+03   -0.20378E+00   -0.19047E+00 39168   0.263E+00    0.106E+00
DAV:   3    -0.388303815763E+03   -0.73059E-02   -0.59386E-02 51560   0.443E-01    0.445E-01
DAV:   4    -0.388303198461E+03    0.61730E-03   -0.40300E-03 51608   0.119E-01    0.302E-01
DAV:   5    -0.388302335279E+03    0.86318E-03   -0.86298E-04 48720   0.136E-01    0.120E-01
DAV:   6    -0.388302286815E+03    0.48465E-04   -0.78296E-04 47064   0.809E-02    0.339E-02
DAV:   7    -0.388302302562E+03   -0.15747E-04   -0.24078E-04 44408   0.348E-02    0.293E-02
DAV:   8    -0.388302298561E+03    0.40008E-05   -0.11296E-05 25872   0.983E-03
   4 F= -.38830230E+03 E0= -.38830230E+03  d E =-.131217E+00  mag=    60.0000
       N       E                     dE             d eps       ncg     rms          rms(c)
DAV:   1    -0.388104271415E+03    0.19803E+00   -0.33283E+01 42376   0.186E+01    0.277E+00
DAV:   2    -0.388415705939E+03   -0.31143E+00   -0.29171E+00 39248   0.329E+00    0.134E+00
DAV:   3    -0.388426282790E+03   -0.10577E-01   -0.86160E-02 51184   0.538E-01    0.553E-01
DAV:   4    -0.388425254544E+03    0.10282E-02   -0.60068E-03 51184   0.145E-01    0.370E-01
DAV:   5    -0.388423978032E+03    0.12765E-02   -0.14381E-03 49136   0.162E-01    0.138E-01
DAV:   6    -0.388423947561E+03    0.30471E-04   -0.11418E-03 46336   0.895E-02    0.450E-02
DAV:   7    -0.388423967299E+03   -0.19739E-04   -0.29443E-04 44160   0.378E-02    0.332E-02
DAV:   8    -0.388423962126E+03    0.51737E-05   -0.17201E-05 30344   0.124E-02
   5 F= -.38842396E+03 E0= -.38842396E+03  d E =-.121664E+00  mag=    60.0000
       N       E                     dE             d eps       ncg     rms          rms(c)
DAV:   1    -0.388020258822E+03    0.40371E+00   -0.63348E+01 42304   0.239E+01    0.335E+00
DAV:   2    -0.388510023277E+03   -0.48976E+00   -0.46788E+00 38728   0.424E+00    0.167E+00
DAV:   3    -0.388523711501E+03   -0.13688E-01   -0.12972E-01 50600   0.672E-01    0.700E-01
DAV:   4    -0.388521809795E+03    0.19017E-02   -0.10035E-02 51024   0.193E-01    0.478E-01
DAV:   5    -0.388519769378E+03    0.20404E-02   -0.22174E-03 48280   0.193E-01    0.183E-01
DAV:   6    -0.388519734537E+03    0.34841E-04   -0.17994E-03 46088   0.106E-01    0.549E-02
DAV:   7    -0.388519763944E+03   -0.29407E-04   -0.41102E-04 43984   0.453E-02    0.388E-02
DAV:   8    -0.388519759129E+03    0.48142E-05   -0.28401E-05 37648   0.148E-02
   6 F= -.38851976E+03 E0= -.38851976E+03  d E =-.957970E-01  mag=    60.0000
       N       E                     dE             d eps       ncg     rms          rms(c)
DAV:   1    -0.388201521306E+03    0.31824E+00   -0.87109E+01 41344   0.235E+01    0.249E+00
DAV:   2    -0.388581289451E+03   -0.37977E+00   -0.37808E+00 39304   0.408E+00    0.122E+00
DAV:   3    -0.388582919713E+03   -0.16303E-02   -0.70183E-02 50704   0.582E-01    0.633E-01
DAV:   4    -0.388580284503E+03    0.26352E-02   -0.85484E-03 49248   0.199E-01    0.432E-01
DAV:   5    -0.388577944354E+03    0.23401E-02   -0.24070E-03 48872   0.194E-01    0.158E-01
DAV:   6    -0.388577915513E+03    0.28841E-04   -0.21009E-03 47088   0.101E-01    0.484E-02
DAV:   7    -0.388577939375E+03   -0.23862E-04   -0.24530E-04 45088   0.336E-02    0.306E-02
DAV:   8    -0.388577938601E+03    0.77392E-06   -0.29844E-05 37296   0.137E-02
   7 F= -.38857794E+03 E0= -.38857794E+03  d E =-.581795E-01  mag=    60.0000
       N       E                     dE             d eps       ncg     rms          rms(c)
DAV:   1    -0.388538190446E+03    0.39749E-01   -0.99792E+00 41600   0.910E+00    0.109E+00
DAV:   2    -0.388596815128E+03   -0.58625E-01   -0.56785E-01 39200   0.159E+00    0.493E-01
DAV:   3    -0.388597982828E+03   -0.11677E-02   -0.13000E-02 47352   0.238E-01    0.239E-01
DAV:   4    -0.388597719442E+03    0.26339E-03   -0.10555E-03 54312   0.673E-02    0.175E-01
DAV:   5    -0.388597377747E+03    0.34169E-03   -0.32723E-04 46824   0.823E-02    0.719E-02
DAV:   6    -0.388597363429E+03    0.14318E-04   -0.31195E-04 47216   0.460E-02    0.177E-02
DAV:   7    -0.388597368087E+03   -0.46578E-05   -0.68211E-05 42224   0.194E-02
   8 F= -.38859737E+03 E0= -.38859737E+03  d E =-.194295E-01  mag=    60.0000
       N       E                     dE             d eps       ncg     rms          rms(c)
DAV:   1    -0.388585081578E+03    0.12282E-01   -0.49584E+00 42016   0.601E+00    0.658E-01
DAV:   2    -0.388608825467E+03   -0.23744E-01   -0.23331E-01 38976   0.103E+00    0.297E-01
DAV:   3    -0.388609148409E+03   -0.32294E-03   -0.47206E-03 47696   0.144E-01    0.147E-01
DAV:   4    -0.388609011839E+03    0.13657E-03   -0.42149E-04 53664   0.444E-02    0.104E-01
DAV:   5    -0.388608874416E+03    0.13742E-03   -0.15797E-04 45152   0.541E-02    0.375E-02
DAV:   6    -0.388608878918E+03   -0.45016E-05   -0.12633E-04 46520   0.244E-02    0.114E-02
DAV:   7    -0.388608879333E+03   -0.41478E-06   -0.10556E-05 22448   0.841E-03
   9 F= -.38860888E+03 E0= -.38860888E+03  d E =-.115112E-01  mag=    60.0000
       N       E                     dE             d eps       ncg     rms          rms(c)
DAV:   1    -0.388252759030E+03    0.35612E+00   -0.71929E+01 41512   0.234E+01    0.269E+00
DAV:   2    -0.388638943923E+03   -0.38618E+00   -0.37799E+00 38976   0.411E+00    0.126E+00
DAV:   3    -0.388643907210E+03   -0.49633E-02   -0.72894E-02 46488   0.594E-01    0.610E-01
DAV:   4    -0.388641914648E+03    0.19926E-02   -0.77193E-03 51952   0.185E-01    0.430E-01
DAV:   5    -0.388639956999E+03    0.19576E-02   -0.19395E-03 48544   0.186E-01    0.170E-01
DAV:   6    -0.388639896205E+03    0.60794E-04   -0.16952E-03 47792   0.949E-02    0.444E-02
DAV:   7    -0.388639912361E+03   -0.16156E-04   -0.22328E-04 45824   0.338E-02    0.274E-02
DAV:   8    -0.388639911557E+03    0.80378E-06   -0.29558E-05 35000   0.143E-02
  10 F= -.38863991E+03 E0= -.38863991E+03  d E =-.310322E-01  mag=    60.0000
       N       E                     dE             d eps       ncg     rms          rms(c)
DAV:   1    -0.388627672560E+03    0.12240E-01   -0.18903E+00 41600   0.450E+00    0.631E-01
DAV:   2    -0.388644332479E+03   -0.16660E-01   -0.15708E-01 39360   0.804E-01    0.280E-01
DAV:   3    -0.388644855022E+03   -0.52254E-03   -0.41483E-03 46096   0.131E-01    0.128E-01
DAV:   4    -0.388644817270E+03    0.37752E-04   -0.30567E-04 54456   0.330E-02    0.976E-02
DAV:   5    -0.388644740963E+03    0.76306E-04   -0.61319E-05 39616   0.398E-02    0.473E-02
DAV:   6    -0.388644729100E+03    0.11863E-04   -0.74364E-05 44864   0.325E-02    0.101E-02
DAV:   7    -0.388644731547E+03   -0.24463E-05   -0.40218E-05 35784   0.156E-02
  11 F= -.38864473E+03 E0= -.38864473E+03  d E =-.481999E-02  mag=    60.0000
       N       E                     dE             d eps       ncg     rms          rms(c)
DAV:   1    -0.388645255059E+03   -0.52596E-03   -0.81417E-02 41680   0.825E-01    0.985E-02
DAV:   2    -0.388645730106E+03   -0.47505E-03   -0.45847E-03 39104   0.145E-01    0.430E-02
DAV:   3    -0.388645741106E+03   -0.11000E-04   -0.10320E-04 41056   0.213E-02    0.200E-02
DAV:   4    -0.388645739422E+03    0.16847E-05   -0.69605E-06 22440   0.615E-03
  12 F= -.38864574E+03 E0= -.38864574E+03  d E =-.100787E-02  mag=    60.0000
       N       E                     dE             d eps       ncg     rms          rms(c)
DAV:   1    -0.388643731364E+03    0.20097E-02   -0.10591E+00 41456   0.285E+00    0.323E-01
DAV:   2    -0.388649295827E+03   -0.55645E-02   -0.54231E-02 38728   0.496E-01    0.147E-01
DAV:   3    -0.388649395358E+03   -0.99532E-04   -0.11517E-03 48576   0.700E-02    0.719E-02
DAV:   4    -0.388649368881E+03    0.26477E-04   -0.95059E-05 49704   0.201E-02    0.519E-02
DAV:   5    -0.388649341158E+03    0.27723E-04   -0.31296E-05 36424   0.254E-02    0.184E-02
DAV:   6    -0.388649342766E+03   -0.16078E-05   -0.26881E-05 32752   0.111E-02
  13 F= -.38864934E+03 E0= -.38864934E+03  d E =-.360334E-02  mag=    60.0000
       N       E                     dE             d eps       ncg     rms          rms(c)
DAV:   1    -0.388638926198E+03    0.10415E-01   -0.27701E+00 41752   0.475E+00    0.559E-01
DAV:   2    -0.388654756030E+03   -0.15830E-01   -0.15329E-01 38504   0.833E-01    0.248E-01
DAV:   3    -0.388655088876E+03   -0.33285E-03   -0.33648E-03 47600   0.119E-01    0.118E-01
DAV:   4    -0.388655025876E+03    0.63000E-04   -0.26676E-04 53448   0.326E-02    0.858E-02
DAV:   5    -0.388654953707E+03    0.72169E-04   -0.79656E-05 42376   0.398E-02    0.328E-02
DAV:   6    -0.388654956646E+03   -0.29390E-05   -0.66408E-05 42480   0.177E-02
  14 F= -.38865496E+03 E0= -.38865496E+03  d E =-.561388E-02  mag=    60.0000
       N       E                     dE             d eps       ncg     rms          rms(c)
DAV:   1    -0.388388705816E+03    0.26625E+00   -0.47849E+01 41712   0.198E+01    0.236E+00
DAV:   2    -0.388672384453E+03   -0.28368E+00   -0.27509E+00 38360   0.352E+00    0.108E+00
DAV:   3    -0.388678102094E+03   -0.57176E-02   -0.60686E-02 47224   0.508E-01    0.513E-01
DAV:   4    -0.388676912893E+03    0.11892E-02   -0.52030E-03 53032   0.150E-01    0.364E-01
DAV:   5    -0.388675724022E+03    0.11889E-02   -0.12196E-03 47232   0.151E-01    0.147E-01
DAV:   6    -0.388675722428E+03    0.15934E-05   -0.10523E-03 48576   0.731E-02    0.358E-02
DAV:   7    -0.388675729430E+03   -0.70018E-05   -0.13200E-04 45104   0.287E-02    0.219E-02
DAV:   8    -0.388675728973E+03    0.45744E-06   -0.14201E-05 27096   0.118E-02
  15 F= -.38867573E+03 E0= -.38867573E+03  d E =-.207723E-01  mag=    60.0000
       N       E                     dE             d eps       ncg     rms          rms(c)
DAV:   1    -0.388670621888E+03    0.51075E-02   -0.98566E-01 41480   0.280E+00    0.346E-01
DAV:   2    -0.388676471825E+03   -0.58499E-02   -0.56124E-02 39296   0.486E-01    0.154E-01
DAV:   3    -0.388676606848E+03   -0.13502E-03   -0.13185E-03 47736   0.735E-02    0.728E-02
DAV:   4    -0.388676587994E+03    0.18854E-04   -0.10282E-04 48920   0.193E-02    0.551E-02
DAV:   5    -0.388676557091E+03    0.30902E-04   -0.25348E-05 36400   0.243E-02    0.245E-02
DAV:   6    -0.388676553914E+03    0.31771E-05   -0.31427E-05 39808   0.173E-02
  16 F= -.38867655E+03 E0= -.38867655E+03  d E =-.824941E-03  mag=    60.0000
       N       E                     dE             d eps       ncg     rms          rms(c)
DAV:   1    -0.388676760512E+03   -0.20342E-03   -0.59801E-02 41656   0.727E-01    0.911E-02
DAV:   2    -0.388677149122E+03   -0.38861E-03   -0.37161E-03 39056   0.128E-01    0.395E-02
DAV:   3    -0.388677159442E+03   -0.10320E-04   -0.87477E-05 38504   0.189E-02    0.180E-02
DAV:   4    -0.388677158365E+03    0.10778E-05   -0.61761E-06 22176   0.537E-03
  17 F= -.38867716E+03 E0= -.38867716E+03  d E =-.604450E-03  mag=    60.0000
       N       E                     dE             d eps       ncg     rms          rms(c)
DAV:   1    -0.388675894565E+03    0.12649E-02   -0.55816E-01 41384   0.207E+00    0.233E-01
DAV:   2    -0.388678826251E+03   -0.29317E-02   -0.28360E-02 38648   0.356E-01    0.106E-01
DAV:   3    -0.388678882721E+03   -0.56470E-04   -0.61956E-04 48256   0.505E-02    0.515E-02
DAV:   4    -0.388678870280E+03    0.12441E-04   -0.46935E-05 42432   0.138E-02    0.379E-02
DAV:   5    -0.388678855863E+03    0.14417E-04   -0.15376E-05 26576   0.179E-02    0.142E-02
DAV:   6    -0.388678856583E+03   -0.71926E-06   -0.14634E-05 23280   0.838E-03
  18 F= -.38867886E+03 E0= -.38867886E+03  d E =-.169822E-02  mag=    60.0000
       N       E                     dE             d eps       ncg     rms          rms(c)
DAV:   1    -0.388664655125E+03    0.14201E-01   -0.28003E+00 41568   0.496E+00    0.611E-01
DAV:   2    -0.388682573797E+03   -0.17919E-01   -0.17143E-01 38376   0.869E-01    0.268E-01
DAV:   3    -0.388683042116E+03   -0.46832E-03   -0.40955E-03 47136   0.128E-01    0.123E-01
DAV:   4    -0.388682988276E+03    0.53840E-04   -0.30479E-04 52992   0.330E-02    0.923E-02
DAV:   5    -0.388682913342E+03    0.74934E-04   -0.73533E-05 41832   0.391E-02    0.392E-02
DAV:   6    -0.388682913746E+03   -0.40441E-06   -0.68223E-05 44320   0.194E-02
  19 F= -.38868291E+03 E0= -.38868291E+03  d E =-.405716E-02  mag=    60.0000
       N       E                     dE             d eps       ncg     rms          rms(c)
DAV:   1    -0.388510866380E+03    0.17205E+00   -0.32269E+01 41920   0.161E+01    0.187E+00
DAV:   2    -0.388693055588E+03   -0.18219E+00   -0.17657E+00 38336   0.282E+00    0.847E-01
DAV:   3    -0.388696666038E+03   -0.36105E-02   -0.38307E-02 47200   0.403E-01    0.401E-01
DAV:   4    -0.388695940972E+03    0.72507E-03   -0.34085E-03 53184   0.118E-01    0.287E-01
DAV:   5    -0.388695179293E+03    0.76168E-03   -0.79849E-04 47848   0.125E-01    0.108E-01
DAV:   6    -0.388695200140E+03   -0.20847E-04   -0.68037E-04 47952   0.565E-02    0.285E-02
DAV:   7    -0.388695203171E+03   -0.30304E-05   -0.68201E-05 41208   0.210E-02
  20 F= -.38869520E+03 E0= -.38869520E+03  d E =-.122894E-01  mag=    60.0000
       N       E                     dE             d eps       ncg     rms          rms(c)
DAV:   1    -0.388637513647E+03    0.57686E-01   -0.10316E+01 41600   0.950E+00    0.111E+00
DAV:   2    -0.388698940633E+03   -0.61427E-01   -0.58801E-01 38808   0.164E+00    0.494E-01
DAV:   3    -0.388700391873E+03   -0.14512E-02   -0.13917E-02 47560   0.255E-01    0.228E-01
DAV:   4    -0.388700207265E+03    0.18461E-03   -0.10806E-03 53840   0.667E-02    0.174E-01
DAV:   5    -0.388699909191E+03    0.29807E-03   -0.22526E-04 45224   0.794E-02    0.846E-02
DAV:   6    -0.388699864906E+03    0.44285E-04   -0.28548E-04 49080   0.656E-02    0.193E-02
DAV:   7    -0.388699874081E+03   -0.91747E-05   -0.15195E-04 44432   0.304E-02    0.188E-02
DAV:   8    -0.388699872893E+03    0.11880E-05   -0.74680E-06 21904   0.774E-03
  21 F= -.38869987E+03 E0= -.38869987E+03  d E =-.466972E-02  mag=    60.0000
       N       E                     dE             d eps       ncg     rms          rms(c)
DAV:   1    -0.388698320829E+03    0.15533E-02   -0.15725E-01 41856   0.160E+00    0.246E-01
DAV:   2    -0.388700557620E+03   -0.22368E-02   -0.20688E-02 39184   0.289E-01    0.107E-01
DAV:   3    -0.388700648638E+03   -0.91017E-04   -0.72289E-04 45128   0.606E-02    0.473E-02
DAV:   4    -0.388700641820E+03    0.68174E-05   -0.43266E-05 35160   0.170E-02
  22 F= -.38870064E+03 E0= -.38870064E+03  d E =-.768928E-03  mag=    60.0000
       N       E                     dE             d eps       ncg     rms          rms(c)
DAV:   1    -0.388700345960E+03    0.30268E-03   -0.12723E-01 41616   0.127E+00    0.164E-01
DAV:   2    -0.388701535528E+03   -0.11896E-02   -0.11519E-02 39280   0.232E-01    0.812E-02
DAV:   3    -0.388701564974E+03   -0.29446E-04   -0.37873E-04 45832   0.481E-02    0.437E-02
DAV:   4    -0.388701554350E+03    0.10624E-04   -0.22110E-05 33408   0.164E-02    0.324E-02
DAV:   5    -0.388701533598E+03    0.20752E-04   -0.82915E-06 28256   0.347E-02    0.125E-02
DAV:   6    -0.388701528576E+03    0.50217E-05   -0.21318E-05 35728   0.257E-02
  23 F= -.38870153E+03 E0= -.38870153E+03  d E =-.886756E-03  mag=    60.0000
       N       E                     dE             d eps       ncg     rms          rms(c)
DAV:   1    -0.388701725563E+03   -0.19196E-03   -0.89978E-02 41616   0.938E-01    0.120E-01
DAV:   2    -0.388702377853E+03   -0.65229E-03   -0.63007E-03 39056   0.169E-01    0.522E-02
DAV:   3    -0.388702396060E+03   -0.18207E-04   -0.15213E-04 44904   0.252E-02    0.244E-02
DAV:   4    -0.388702393555E+03    0.25053E-05   -0.86540E-06 25696   0.753E-03
  24 F= -.38870239E+03 E0= -.38870239E+03  d E =-.864978E-03  mag=    60.0000
       N       E                     dE             d eps       ncg     rms          rms(c)
DAV:   1    -0.388695921667E+03    0.64744E-02   -0.14163E+00 41600   0.365E+00    0.445E-01
DAV:   2    -0.388705358566E+03   -0.94369E-02   -0.91185E-02 38336   0.648E-01    0.199E-01
DAV:   3    -0.388705593732E+03   -0.23517E-03   -0.21422E-03 47800   0.954E-02    0.951E-02
DAV:   4    -0.388705556074E+03    0.37658E-04   -0.14777E-04 51560   0.262E-02    0.677E-02
DAV:   5    -0.388705517313E+03    0.38761E-04   -0.42598E-05 40112   0.317E-02    0.252E-02
DAV:   6    -0.388705519288E+03   -0.19746E-05   -0.35929E-05 38936   0.141E-02
  25 F= -.38870552E+03 E0= -.38870552E+03  d E =-.312573E-02  mag=    60.0000
       N       E                     dE             d eps       ncg     rms          rms(c)
DAV:   1    -0.388696857351E+03    0.86600E-02   -0.15451E+00 41600   0.389E+00    0.482E-01
DAV:   2    -0.388707620181E+03   -0.10763E-01   -0.10290E-01 38336   0.688E-01    0.210E-01
DAV:   3    -0.388707922077E+03   -0.30190E-03   -0.24924E-03 47080   0.103E-01    0.963E-02
DAV:   4    -0.388707890539E+03    0.31538E-04   -0.16407E-04 52024   0.257E-02    0.722E-02
DAV:   5    -0.388707846676E+03    0.43863E-04   -0.38109E-05 38368   0.320E-02    0.318E-02
DAV:   6    -0.388707846625E+03    0.50983E-07   -0.42493E-05 41656   0.177E-02
  26 F= -.38870785E+03 E0= -.38870785E+03  d E =-.232734E-02  mag=    60.0000
       N       E                     dE             d eps       ncg     rms          rms(c)
DAV:   1    -0.388541437176E+03    0.16641E+00   -0.27183E+01 41968   0.156E+01    0.181E+00
DAV:   2    -0.388704454468E+03   -0.16302E+00   -0.15564E+00 38888   0.267E+00    0.819E-01
DAV:   3    -0.388708113687E+03   -0.36592E-02   -0.37034E-02 46704   0.425E-01    0.376E-01
DAV:   4    -0.388707571335E+03    0.54235E-03   -0.30498E-03 53640   0.117E-01    0.278E-01
DAV:   5    -0.388706749769E+03    0.82157E-03   -0.56034E-04 47640   0.132E-01    0.136E-01
DAV:   6    -0.388706588915E+03    0.16085E-03   -0.75387E-04 49880   0.119E-01    0.329E-02
DAV:   7    -0.388706617703E+03   -0.28788E-04   -0.49627E-04 44680   0.537E-02    0.339E-02
DAV:   8    -0.388706613739E+03    0.39641E-05   -0.31189E-05 32680   0.137E-02
  27 F= -.38870661E+03 E0= -.38870661E+03  d E =0.123289E-02  mag=    60.0000
       N       E                     dE             d eps       ncg     rms          rms(c)
DAV:   1    -0.388678229607E+03    0.28388E-01   -0.17245E+00 42800   0.583E+00    0.939E-01
DAV:   2    -0.388709219491E+03   -0.30990E-01   -0.28354E-01 39336   0.105E+00    0.415E-01
DAV:   3    -0.388710582394E+03   -0.13629E-02   -0.10795E-02 44552   0.237E-01    0.184E-01
DAV:   4    -0.388710487075E+03    0.95319E-04   -0.73463E-04 52120   0.690E-02    0.133E-01
DAV:   5    -0.388710271698E+03    0.21538E-03   -0.81127E-05 47032   0.790E-02    0.788E-02
DAV:   6    -0.388710100865E+03    0.17083E-03   -0.18368E-04 46840   0.136E-01    0.216E-02
DAV:   7    -0.388710109408E+03   -0.85433E-05   -0.36889E-04 45064   0.503E-02    0.193E-02
DAV:   8    -0.388710109890E+03   -0.48144E-06   -0.65373E-05 41728   0.163E-02
  28 F= -.38871011E+03 E0= -.38871011E+03  d E =-.349615E-02  mag=    60.0000
       N       E                     dE             d eps       ncg     rms          rms(c)
DAV:   1    -0.388709978389E+03    0.13102E-03   -0.79559E-02 42104   0.107E+00    0.154E-01
DAV:   2    -0.388710916081E+03   -0.93769E-03   -0.86909E-03 39104   0.191E-01    0.668E-02
DAV:   3    -0.388710951846E+03   -0.35765E-04   -0.26644E-04 44624   0.337E-02    0.298E-02
DAV:   4    -0.388710949525E+03    0.23213E-05   -0.13619E-05 26848   0.810E-03
  29 F= -.38871095E+03 E0= -.38871095E+03  d E =-.839635E-03  mag=    60.0000
       N       E                     dE             d eps       ncg     rms          rms(c)
DAV:   1    -0.388708921898E+03    0.20299E-02   -0.51016E-01 41600   0.229E+00    0.295E-01
DAV:   2    -0.388712827614E+03   -0.39057E-02   -0.37527E-02 38520   0.407E-01    0.133E-01
DAV:   3    -0.388712936907E+03   -0.10929E-03   -0.99709E-04 47912   0.666E-02    0.645E-02
DAV:   4    -0.388712918905E+03    0.18002E-04   -0.62650E-05 44464   0.196E-02    0.459E-02
DAV:   5    -0.388712897646E+03    0.21259E-04   -0.15583E-05 31400   0.265E-02    0.180E-02
DAV:   6    -0.388712896508E+03    0.11382E-05   -0.22294E-05 33752   0.164E-02
  30 F= -.38871290E+03 E0= -.38871290E+03  d E =-.194698E-02  mag=    60.0000
       N       E                     dE             d eps       ncg     rms          rms(c)
DAV:   1    -0.388711291698E+03    0.16059E-02   -0.44473E-01 41600   0.204E+00    0.266E-01
DAV:   2    -0.388714494979E+03   -0.32033E-02   -0.30825E-02 38328   0.367E-01    0.116E-01
DAV:   3    -0.388714585020E+03   -0.90041E-04   -0.75044E-04 47376   0.534E-02    0.539E-02
DAV:   4    -0.388714573550E+03    0.11469E-04   -0.45357E-05 39424   0.143E-02    0.390E-02
DAV:   5    -0.388714561410E+03    0.12140E-04   -0.14106E-05 26976   0.170E-02    0.158E-02
DAV:   6    -0.388714562098E+03   -0.68775E-06   -0.13051E-05 22904   0.800E-03
  31 F= -.38871456E+03 E0= -.38871456E+03  d E =-.166559E-02  mag=    60.0000
       N       E                     dE             d eps       ncg     rms          rms(c)
DAV:   1    -0.388704186736E+03    0.10375E-01   -0.20759E+00 41600   0.427E+00    0.521E-01
DAV:   2    -0.388717270306E+03   -0.13084E-01   -0.12602E-01 38304   0.753E-01    0.229E-01
DAV:   3    -0.388717596492E+03   -0.32619E-03   -0.29303E-03 47544   0.109E-01    0.106E-01
DAV:   4    -0.388717549812E+03    0.46681E-04   -0.21384E-04 52928   0.292E-02    0.780E-02
DAV:   5    -0.388717495645E+03    0.54166E-04   -0.60200E-05 41224   0.350E-02    0.305E-02
DAV:   6    -0.388717497769E+03   -0.21239E-05   -0.48217E-05 41392   0.153E-02
  32 F= -.38871750E+03 E0= -.38871750E+03  d E =-.293567E-02  mag=    60.0000
       N       E                     dE             d eps       ncg     rms          rms(c)
DAV:   1    -0.388497535055E+03    0.21996E+00   -0.42902E+01 41464   0.185E+01    0.206E+00
DAV:   2    -0.388724841647E+03   -0.22731E+00   -0.22222E+00 38288   0.324E+00    0.935E-01
DAV:   3    -0.388728777816E+03   -0.39362E-02   -0.46093E-02 47824   0.466E-01    0.456E-01
DAV:   4    -0.388727736232E+03    0.10416E-02   -0.40150E-03 51344   0.139E-01    0.322E-01
DAV:   5    -0.388726790584E+03    0.94565E-03   -0.99887E-04 48008   0.141E-01    0.126E-01
DAV:   6    -0.388726807634E+03   -0.17050E-04   -0.85957E-04 47616   0.647E-02    0.340E-02
DAV:   7    -0.388726811366E+03   -0.37316E-05   -0.95270E-05 43856   0.248E-02
  33 F= -.38872681E+03 E0= -.38872681E+03  d E =-.931360E-02  mag=    60.0000
       N       E                     dE             d eps       ncg     rms          rms(c)
DAV:   1    -0.388594500572E+03    0.13231E+00   -0.18036E+01 41960   0.133E+01    0.165E+00
DAV:   2    -0.388719818321E+03   -0.12532E+00   -0.12029E+00 38600   0.233E+00    0.736E-01
DAV:   3    -0.388722976581E+03   -0.31583E-02   -0.29237E-02 47600   0.363E-01    0.344E-01
DAV:   4    -0.388722484029E+03    0.49255E-03   -0.21372E-03 54768   0.982E-02    0.246E-01
DAV:   5    -0.388721885953E+03    0.59808E-03   -0.56582E-04 47936   0.120E-01    0.101E-01
DAV:   6    -0.388721861057E+03    0.24896E-04   -0.52289E-04 49416   0.708E-02    0.260E-02
DAV:   7    -0.388721868159E+03   -0.71016E-05   -0.16682E-04 45016   0.325E-02    0.213E-02
DAV:   8    -0.388721865164E+03    0.29954E-05   -0.10250E-05 23112   0.925E-03
  34 F= -.38872187E+03 E0= -.38872187E+03  d E =0.494620E-02  mag=    60.0000
       N       E                     dE             d eps       ncg     rms          rms(c)
DAV:   1    -0.388683135576E+03    0.38733E-01   -0.30994E+00 42432   0.707E+00    0.106E+00
DAV:   2    -0.388725386407E+03   -0.42251E-01   -0.39041E-01 38360   0.125E+00    0.460E-01
DAV:   3    -0.388727144604E+03   -0.17582E-02   -0.12348E-02 45232   0.228E-01    0.197E-01
DAV:   4    -0.388727079869E+03    0.64735E-04   -0.76987E-04 56872   0.535E-02    0.150E-01
DAV:   5    -0.388726925986E+03    0.15388E-03   -0.11325E-04 43856   0.583E-02    0.788E-02
DAV:   6    -0.388726884004E+03    0.41982E-04   -0.12936E-04 48264   0.599E-02    0.155E-02
DAV:   7    -0.388726889403E+03   -0.53996E-05   -0.11357E-04 44664   0.271E-02    0.163E-02
DAV:   8    -0.388726888773E+03    0.63003E-06   -0.73267E-06 21616   0.652E-03
  35 F= -.38872689E+03 E0= -.38872689E+03  d E =-.502361E-02  mag=    60.0000
       N       E                     dE             d eps       ncg     rms          rms(c)
DAV:   1    -0.388719048965E+03    0.78404E-02   -0.13008E+00 41824   0.358E+00    0.465E-01
DAV:   2    -0.388728728853E+03   -0.96799E-02   -0.92586E-02 38376   0.637E-01    0.205E-01
DAV:   3    -0.388729000573E+03   -0.27172E-03   -0.22715E-03 46168   0.960E-02    0.936E-02
DAV:   4    -0.388728968777E+03    0.31796E-04   -0.16108E-04 52888   0.255E-02    0.673E-02
DAV:   5    -0.388728929248E+03    0.39529E-04   -0.39758E-05 40456   0.306E-02    0.265E-02
DAV:   6    -0.388728929310E+03   -0.61998E-07   -0.35835E-05 40328   0.162E-02
  36 F= -.38872893E+03 E0= -.38872893E+03  d E =-.204054E-02  mag=    60.0000
       N       E                     dE             d eps       ncg     rms          rms(c)
DAV:   1    -0.388714440186E+03    0.14489E-01   -0.22042E+00 41600   0.455E+00    0.610E-01
DAV:   2    -0.388731092318E+03   -0.16652E-01   -0.15891E-01 38288   0.818E-01    0.266E-01
DAV:   3    -0.388731577597E+03   -0.48528E-03   -0.39487E-03 46568   0.121E-01    0.121E-01
DAV:   4    -0.388731523180E+03    0.54417E-04   -0.25688E-04 54024   0.318E-02    0.882E-02
DAV:   5    -0.388731459019E+03    0.64160E-04   -0.66973E-05 42392   0.368E-02    0.374E-02
DAV:   6    -0.388731459398E+03   -0.37876E-06   -0.54919E-05 45040   0.185E-02
  37 F= -.38873146E+03 E0= -.38873146E+03  d E =-.253009E-02  mag=    60.0000
       N       E                     dE             d eps       ncg     rms          rms(c)
DAV:   1    -0.388729370318E+03    0.20887E-02   -0.42052E-01 41600   0.202E+00    0.259E-01
DAV:   2    -0.388732411237E+03   -0.30409E-02   -0.29026E-02 38488   0.360E-01    0.112E-01
DAV:   3    -0.388732500611E+03   -0.89374E-04   -0.72400E-04 46312   0.537E-02    0.507E-02
DAV:   4    -0.388732491313E+03    0.92980E-05   -0.42517E-05 36384   0.134E-02
  38 F= -.38873249E+03 E0= -.38873249E+03  d E =-.103192E-02  mag=    60.0000
       N       E                     dE             d eps       ncg     rms          rms(c)
DAV:   1    -0.388725456892E+03    0.70437E-02   -0.19311E+00 41480   0.378E+00    0.383E-01
DAV:   2    -0.388734182794E+03   -0.87259E-02   -0.85594E-02 38456   0.644E-01    0.179E-01
DAV:   3    -0.388734293652E+03   -0.11086E-03   -0.17029E-03 47512   0.904E-02    0.914E-02
DAV:   4    -0.388734245174E+03    0.48478E-04   -0.14537E-04 52200   0.260E-02    0.647E-02
DAV:   5    -0.388734197108E+03    0.48066E-04   -0.60748E-05 39432   0.343E-02    0.210E-02
DAV:   6    -0.388734200314E+03   -0.32065E-05   -0.47644E-05 39944   0.153E-02
  39 F= -.38873420E+03 E0= -.38873420E+03  d E =-.170900E-02  mag=    60.0000
       N       E                     dE             d eps       ncg     rms          rms(c)
DAV:   1    -0.388639961229E+03    0.94236E-01   -0.18084E+01 41696   0.122E+01    0.136E+00
DAV:   2    -0.388737385955E+03   -0.97425E-01   -0.94657E-01 38512   0.212E+00    0.614E-01
DAV:   3    -0.388739183431E+03   -0.17975E-02   -0.19541E-02 46664   0.305E-01    0.293E-01
DAV:   4    -0.388738777604E+03    0.40583E-03   -0.16958E-03 53872   0.863E-02    0.211E-01
DAV:   5    -0.388738336117E+03    0.44149E-03   -0.46649E-04 46928   0.100E-01    0.774E-02
DAV:   6    -0.388738347591E+03   -0.11473E-04   -0.40624E-04 48048   0.482E-02    0.221E-02
DAV:   7    -0.388738349431E+03   -0.18405E-05   -0.61987E-05 40816   0.205E-02
  40 F= -.38873835E+03 E0= -.38873835E+03  d E =-.414912E-02  mag=    60.0000
       N       E                     dE             d eps       ncg     rms          rms(c)
DAV:   1    -0.388485614547E+03    0.25273E+00   -0.15032E+01 41624   0.160E+01    0.254E+00
DAV:   2    -0.388718944392E+03   -0.23333E+00   -0.21569E+00 39736   0.291E+00    0.116E+00
DAV:   3    -0.388728174899E+03   -0.92305E-02   -0.67146E-02 44744   0.581E-01    0.505E-01
DAV:   4    -0.388727586288E+03    0.58861E-03   -0.43743E-03 54456   0.155E-01    0.382E-01
DAV:   5    -0.388726309765E+03    0.12765E-02   -0.53761E-04 51152   0.173E-01    0.235E-01
DAV:   6    -0.388725402674E+03    0.90709E-03   -0.11283E-03 50152   0.290E-01    0.530E-02
DAV:   7    -0.388725437021E+03   -0.34347E-04   -0.18370E-03 44784   0.114E-01    0.468E-02
DAV:   8    -0.388725437652E+03   -0.63061E-06   -0.32644E-04 44912   0.380E-02    0.367E-02
DAV:   9    -0.388725416209E+03    0.21442E-04   -0.31606E-05 36408   0.199E-02    0.246E-02
DAV:  10    -0.388725380416E+03    0.35793E-04   -0.13192E-05 32384   0.511E-02    0.113E-02
DAV:  11    -0.388725369178E+03    0.11238E-04   -0.38550E-05 42768   0.419E-02    0.114E-02
DAV:  12    -0.388725372994E+03   -0.38163E-05   -0.57014E-05 40296   0.165E-02
  41 F= -.38872537E+03 E0= -.38872537E+03  d E =0.129764E-01  mag=    60.0000
       N       E                     dE             d eps       ncg     rms          rms(c)
DAV:   1    -0.388694831194E+03    0.30538E-01   -0.22171E+00 42632   0.667E+00    0.109E+00
DAV:   2    -0.388735657259E+03   -0.40826E-01   -0.37269E-01 39976   0.119E+00    0.485E-01
DAV:   3    -0.388737316379E+03   -0.16591E-02   -0.12905E-02 44640   0.270E-01    0.211E-01
DAV:   4    -0.388737160146E+03    0.15623E-03   -0.95065E-04 53200   0.816E-02    0.152E-01
DAV:   5    -0.388736824311E+03    0.33583E-03   -0.12672E-04 47288   0.103E-01    0.844E-02
DAV:   6    -0.388736592533E+03    0.23178E-03   -0.27463E-04 46840   0.156E-01    0.274E-02
DAV:   7    -0.388736610517E+03   -0.17984E-04   -0.53892E-04 44760   0.559E-02    0.247E-02
DAV:   8    -0.388736607667E+03    0.28502E-05   -0.64542E-05 44000   0.176E-02
  42 F= -.38873661E+03 E0= -.38873661E+03  d E =-.112347E-01  mag=    60.0000
       N       E                     dE             d eps       ncg     rms          rms(c)
DAV:   1    -0.388718211853E+03    0.18399E-01   -0.12830E+00 41664   0.478E+00    0.757E-01
DAV:   2    -0.388738850345E+03   -0.20638E-01   -0.19229E-01 39728   0.875E-01    0.331E-01
DAV:   3    -0.388739679277E+03   -0.82893E-03   -0.66218E-03 45864   0.189E-01    0.150E-01
DAV:   4    -0.388739614561E+03    0.64716E-04   -0.47203E-04 52776   0.537E-02    0.116E-01
DAV:   5    -0.388739459496E+03    0.15506E-03   -0.54056E-05 42608   0.645E-02    0.713E-02
DAV:   6    -0.388739331892E+03    0.12760E-03   -0.15017E-04 46920   0.120E-01    0.221E-02
DAV:   7    -0.388739338940E+03   -0.70481E-05   -0.26678E-04 44464   0.405E-02    0.173E-02
DAV:   8    -0.388739338423E+03    0.51674E-06   -0.37862E-05 38168   0.134E-02
  43 F= -.38873934E+03 E0= -.38873934E+03  d E =-.273076E-02  mag=    60.0000
       N       E                     dE             d eps       ncg     rms          rms(c)
DAV:   1    -0.388737985156E+03    0.13538E-02   -0.19365E-01 41896   0.152E+00    0.217E-01
DAV:   2    -0.388739899231E+03   -0.19141E-02   -0.17973E-02 39224   0.274E-01    0.926E-02
DAV:   3    -0.388739967867E+03   -0.68636E-04   -0.49644E-04 45576   0.439E-02    0.402E-02
DAV:   4    -0.388739964174E+03    0.36935E-05   -0.27258E-05 31024   0.106E-02
  44 F= -.38873996E+03 E0= -.38873996E+03  d E =-.625751E-03  mag=    60.0000
       N       E                     dE             d eps       ncg     rms          rms(c)
DAV:   1    -0.388726423957E+03    0.13544E-01   -0.17324E+00 41600   0.438E+00    0.578E-01
DAV:   2    -0.388741227827E+03   -0.14804E-01   -0.13951E-01 38496   0.783E-01    0.258E-01
DAV:   3    -0.388741690857E+03   -0.46303E-03   -0.36804E-03 45912   0.124E-01    0.117E-01
DAV:   4    -0.388741652102E+03    0.38755E-04   -0.24536E-04 54424   0.316E-02    0.904E-02
DAV:   5    -0.388741586361E+03    0.65742E-04   -0.52536E-05 39400   0.412E-02    0.408E-02
DAV:   6    -0.388741581890E+03    0.44706E-05   -0.60534E-05 45880   0.281E-02
  45 F= -.38874158E+03 E0= -.38874158E+03  d E =-.161772E-02  mag=    60.0000
       N       E                     dE             d eps       ncg     rms          rms(c)
DAV:   1    -0.388739621987E+03    0.19644E-02   -0.36055E-01 41600   0.190E+00    0.239E-01
DAV:   2    -0.388742220339E+03   -0.25984E-02   -0.24821E-02 38592   0.341E-01    0.104E-01
DAV:   3    -0.388742296544E+03   -0.76205E-04   -0.61399E-04 46680   0.507E-02    0.470E-02
DAV:   4    -0.388742288698E+03    0.78457E-05   -0.32218E-05 32400   0.122E-02
  46 F= -.38874229E+03 E0= -.38874229E+03  d E =-.706808E-03  mag=    60.0000
       N       E                     dE             d eps       ncg     rms          rms(c)
DAV:   1    -0.388727646842E+03    0.14650E-01   -0.39970E+00 41376   0.526E+00    0.517E-01
DAV:   2    -0.388744340071E+03   -0.16693E-01   -0.16536E-01 38408   0.895E-01    0.242E-01
DAV:   3    -0.388744487556E+03   -0.14748E-03   -0.30121E-03 46896   0.122E-01    0.126E-01
DAV:   4    -0.388744384778E+03    0.10278E-03   -0.28982E-04 53632   0.377E-02    0.874E-02
DAV:   5    -0.388744294677E+03    0.90101E-04   -0.11920E-04 43040   0.475E-02    0.264E-02
DAV:   6    -0.388744301558E+03   -0.68803E-05   -0.91782E-05 44712   0.211E-02
  47 F= -.38874430E+03 E0= -.38874430E+03  d E =-.201286E-02  mag=    60.0000
       N       E                     dE             d eps       ncg     rms          rms(c)
DAV:   1    -0.388243543997E+03    0.50075E+00   -0.52005E+01 43056   0.254E+01    0.333E+00
DAV:   2    -0.388704302502E+03   -0.46076E+00   -0.42540E+00 39392   0.438E+00    0.161E+00
DAV:   3    -0.388719350360E+03   -0.15048E-01   -0.13110E-01 45664   0.821E-01    0.642E-01
DAV:   4    -0.388717647743E+03    0.17026E-02   -0.10339E-02 56512   0.252E-01    0.437E-01
DAV:   5    -0.388714754690E+03    0.28931E-02   -0.14375E-03 52072   0.310E-01    0.212E-01
DAV:   6    -0.388713576425E+03    0.11783E-02   -0.22721E-03 49504   0.339E-01    0.627E-02
DAV:   7    -0.388713676854E+03   -0.10043E-03   -0.32494E-03 45144   0.151E-01    0.694E-02
DAV:   8    -0.388713659619E+03    0.17235E-04   -0.44078E-04 46544   0.414E-02    0.545E-02
DAV:   9    -0.388713599132E+03    0.60488E-04   -0.32131E-05 39776   0.366E-02    0.370E-02
DAV:  10    -0.388713518643E+03    0.80488E-04   -0.67537E-05 44832   0.865E-02    0.158E-02
DAV:  11    -0.388713503728E+03    0.14915E-04   -0.79944E-05 44112   0.537E-02    0.197E-02
DAV:  12    -0.388713510891E+03   -0.71633E-05   -0.10897E-04 43120   0.224E-02    0.102E-02
DAV:  13    -0.388713510459E+03    0.43254E-06   -0.36572E-06 22576   0.907E-03
  48 F= -.38871351E+03 E0= -.38871351E+03  d E =0.307911E-01  mag=    60.0000
       N       E                     dE             d eps       ncg     rms          rms(c)
DAV:   1    -0.388205375503E+03    0.50814E+00   -0.29194E+01 43744   0.235E+01    0.390E+00
DAV:   2    -0.388723779594E+03   -0.51840E+00   -0.47169E+00 39752   0.418E+00    0.190E+00
DAV:   3    -0.388747459335E+03   -0.23680E-01   -0.18712E-01 43704   0.993E-01    0.742E-01
DAV:   4    -0.388745496087E+03    0.19632E-02   -0.13110E-02 52472   0.315E-01    0.523E-01
DAV:   5    -0.388741736740E+03    0.37593E-02   -0.12406E-03 53376   0.337E-01    0.306E-01
DAV:   6    -0.388738510885E+03    0.32259E-02   -0.31915E-03 51440   0.577E-01    0.820E-02
DAV:   7    -0.388738629907E+03   -0.11902E-03   -0.67112E-03 45144   0.221E-01    0.818E-02
DAV:   8    -0.388738658351E+03   -0.28443E-04   -0.13488E-03 46424   0.736E-02    0.781E-02
DAV:   9    -0.388738573651E+03    0.84700E-04   -0.12588E-04 46080   0.410E-02    0.533E-02
DAV:  10    -0.388738427592E+03    0.14606E-03   -0.85495E-05 51512   0.113E-01    0.215E-02
DAV:  11    -0.388738395807E+03    0.31784E-04   -0.12969E-04 46264   0.746E-02    0.263E-02
DAV:  12    -0.388738408067E+03   -0.12260E-04   -0.18253E-04 45696   0.290E-02    0.129E-02
DAV:  13    -0.388738409448E+03   -0.13805E-05   -0.11930E-05 25024   0.757E-03
  49 F= -.38873841E+03 E0= -.38873841E+03  d E =-.248990E-01  mag=    60.0000
       N       E                     dE             d eps       ncg     rms          rms(c)
DAV:   1    -0.388716840715E+03    0.21567E-01   -0.13604E+00 44096   0.523E+00    0.885E-01
DAV:   2    -0.388743341075E+03   -0.26500E-01   -0.24029E-01 40360   0.929E-01    0.390E-01
DAV:   3    -0.388744509010E+03   -0.11679E-02   -0.94051E-03 44344   0.227E-01    0.166E-01
DAV:   4    -0.388744396157E+03    0.11285E-03   -0.68281E-04 51904   0.715E-02    0.118E-01
DAV:   5    -0.388744161182E+03    0.23497E-03   -0.75203E-05 47416   0.847E-02    0.703E-02
DAV:   6    -0.388743953586E+03    0.20760E-03   -0.19968E-04 46640   0.150E-01    0.235E-02
DAV:   7    -0.388743962314E+03   -0.87281E-05   -0.42639E-04 44640   0.528E-02    0.205E-02
DAV:   8    -0.388743963679E+03   -0.13645E-05   -0.77371E-05 43096   0.169E-02
  50 F= -.38874396E+03 E0= -.38874396E+03  d E =-.555423E-02  mag=    60.0000
       N       E                     dE             d eps       ncg     rms          rms(c)
DAV:   1    -0.388737470053E+03    0.64923E-02   -0.82520E-01 41600   0.317E+00    0.437E-01
DAV:   2    -0.388745137369E+03   -0.76673E-02   -0.73052E-02 39808   0.571E-01    0.193E-01
DAV:   3    -0.388745378978E+03   -0.24161E-03   -0.24190E-03 46184   0.120E-01    0.912E-02
DAV:   4    -0.388745339095E+03    0.39883E-04   -0.18489E-04 52312   0.379E-02    0.678E-02
DAV:   5    -0.388745256672E+03    0.82423E-04   -0.22577E-05 37744   0.518E-02    0.397E-02
DAV:   6    -0.388745193823E+03    0.62849E-04   -0.76849E-05 44312   0.866E-02    0.150E-02
DAV:   7    -0.388745198517E+03   -0.46938E-05   -0.14294E-04 43504   0.288E-02    0.122E-02
DAV:   8    -0.388745198087E+03    0.42943E-06   -0.18381E-05 27760   0.927E-03
  51 F= -.38874520E+03 E0= -.38874520E+03  d E =-.123441E-02  mag=    60.0000
       N       E                     dE             d eps       ncg     rms          rms(c)
DAV:   1    -0.388735165254E+03    0.10033E-01   -0.21366E+00 41560   0.410E+00    0.468E-01
DAV:   2    -0.388746638298E+03   -0.11473E-01   -0.11138E-01 38816   0.714E-01    0.209E-01
DAV:   3    -0.388746868466E+03   -0.23017E-03   -0.24999E-03 47048   0.103E-01    0.101E-01
DAV:   4    -0.388746818868E+03    0.49598E-04   -0.17743E-04 52912   0.288E-02    0.731E-02
DAV:   5    -0.388746758451E+03    0.60417E-04   -0.51307E-05 39728   0.393E-02    0.299E-02
DAV:   6    -0.388746757068E+03    0.13832E-05   -0.61626E-05 45120   0.237E-02
  52 F= -.38874676E+03 E0= -.38874676E+03  d E =-.155898E-02  mag=    60.0000
       N       E                     dE             d eps       ncg     rms          rms(c)
DAV:   1    -0.388742621489E+03    0.41370E-02   -0.78769E-01 41600   0.270E+00    0.326E-01
DAV:   2    -0.388747702480E+03   -0.50810E-02   -0.48857E-02 38928   0.480E-01    0.143E-01
DAV:   3    -0.388747826753E+03   -0.12427E-03   -0.11067E-03 46376   0.691E-02    0.659E-02
DAV:   4    -0.388747808829E+03    0.17923E-04   -0.73054E-05 44752   0.179E-02    0.480E-02
DAV:   5    -0.388747788398E+03    0.20431E-04   -0.21056E-05 30360   0.217E-02    0.195E-02
DAV:   6    -0.388747788927E+03   -0.52916E-06   -0.20052E-05 26224   0.108E-02
  53 F= -.38874779E+03 E0= -.38874779E+03  d E =-.103186E-02  mag=    60.0000
       N       E                     dE             d eps       ncg     rms          rms(c)
DAV:   1    -0.388742277919E+03    0.55105E-02   -0.10586E+00 42016   0.313E+00    0.366E-01
DAV:   2    -0.388748774221E+03   -0.64963E-02   -0.62525E-02 38744   0.547E-01    0.165E-01
DAV:   3    -0.388748918596E+03   -0.14438E-03   -0.15272E-03 46576   0.885E-02    0.769E-02
DAV:   4    -0.388748890496E+03    0.28100E-04   -0.12054E-04 50440   0.267E-02    0.556E-02
DAV:   5    -0.388748848614E+03    0.41882E-04   -0.23509E-05 36872   0.374E-02    0.233E-02
DAV:   6    -0.388748841675E+03    0.69389E-05   -0.38592E-05 42912   0.296E-02
  54 F= -.38874884E+03 E0= -.38874884E+03  d E =-.105275E-02  mag=    60.0000
       N       E                     dE             d eps       ncg     rms          rms(c)
DAV:   1    -0.388673250264E+03    0.75598E-01   -0.18199E+01 41376   0.112E+01    0.114E+00
DAV:   2    -0.388752037854E+03   -0.78788E-01   -0.77532E-01 38312   0.190E+00    0.522E-01
DAV:   3    -0.388752915436E+03   -0.87758E-03   -0.14549E-02 47616   0.263E-01    0.264E-01
DAV:   4    -0.388752505770E+03    0.40967E-03   -0.13159E-03 53416   0.778E-02    0.186E-01
DAV:   5    -0.388752082835E+03    0.42293E-03   -0.44850E-04 46840   0.946E-02    0.675E-02
DAV:   6    -0.388752091866E+03   -0.90309E-05   -0.41508E-04 47648   0.493E-02    0.213E-02
DAV:   7    -0.388752094963E+03   -0.30969E-05   -0.69070E-05 40504   0.204E-02
  55 F= -.38875209E+03 E0= -.38875209E+03  d E =-.325329E-02  mag=    60.0000
       N       E                     dE             d eps       ncg     rms          rms(c)
DAV:   1    -0.388213381869E+03    0.53871E+00   -0.43554E+01 41608   0.242E+01    0.361E+00
DAV:   2    -0.388715544795E+03   -0.50216E+00   -0.46761E+00 39680   0.437E+00    0.169E+00
DAV:   3    -0.388732216153E+03   -0.16671E-01   -0.12589E-01 45256   0.802E-01    0.703E-01
DAV:   4    -0.388730674410E+03    0.15417E-02   -0.85427E-03 54208   0.224E-01    0.525E-01
DAV:   5    -0.388727953527E+03    0.27209E-02   -0.13079E-03 51648   0.263E-01    0.285E-01
DAV:   6    -0.388726595732E+03    0.13578E-02   -0.21662E-03 50824   0.341E-01    0.685E-02
DAV:   7    -0.388726687823E+03   -0.92091E-04   -0.32467E-03 44984   0.146E-01    0.641E-02
DAV:   8    -0.388726675061E+03    0.12761E-04   -0.43384E-04 47608   0.444E-02    0.469E-02
DAV:   9    -0.388726624584E+03    0.50477E-04   -0.45744E-05 40848   0.312E-02    0.318E-02
DAV:  10    -0.388726558538E+03    0.66046E-04   -0.47950E-05 43312   0.771E-02    0.163E-02
DAV:  11    -0.388726549651E+03    0.88873E-05   -0.78108E-05 44408   0.427E-02
  56 F= -.38872655E+03 E0= -.38872655E+03  d E =0.255453E-01  mag=    60.0000
       N       E                     dE             d eps       ncg     rms          rms(c)
DAV:   1    -0.388646215991E+03    0.80343E-01   -0.45458E+00 44352   0.947E+00    0.170E+00
DAV:   2    -0.388743797685E+03   -0.97582E-01   -0.88314E-01 39952   0.168E+00    0.742E-01
DAV:   3    -0.388748265574E+03   -0.44679E-02   -0.33160E-02 44952   0.394E-01    0.307E-01
DAV:   4    -0.388747970771E+03    0.29480E-03   -0.21695E-03 50232   0.115E-01    0.228E-01
DAV:   5    -0.388747361692E+03    0.60908E-03   -0.20886E-04 49376   0.120E-01    0.143E-01
DAV:   6    -0.388746778191E+03    0.58350E-03   -0.57109E-04 48664   0.237E-01    0.386E-02
DAV:   7    -0.388746786349E+03   -0.81586E-05   -0.10749E-03 45112   0.892E-02    0.341E-02
DAV:   8    -0.388746794170E+03   -0.78205E-05   -0.23803E-04 43512   0.301E-02    0.296E-02
DAV:   9    -0.388746779250E+03    0.14920E-04   -0.18611E-05 32056   0.172E-02    0.196E-02
DAV:  10    -0.388746755340E+03    0.23910E-04   -0.10628E-05 31848   0.446E-02    0.824E-03
DAV:  11    -0.388746750308E+03    0.50322E-05   -0.30953E-05 40024   0.304E-02
  57 F= -.38874675E+03 E0= -.38874675E+03  d E =-.202007E-01  mag=    60.0000
       N       E                     dE             d eps       ncg     rms          rms(c)
DAV:   1    -0.388724191512E+03    0.22564E-01   -0.13335E+00 43072   0.497E+00    0.841E-01
DAV:   2    -0.388749045251E+03   -0.24854E-01   -0.22656E-01 39744   0.888E-01    0.364E-01
DAV:   3    -0.388750152886E+03   -0.11076E-02   -0.81220E-03 44744   0.196E-01    0.153E-01
DAV:   4    -0.388750087693E+03    0.65193E-04   -0.52294E-04 51208   0.541E-02    0.118E-01
DAV:   5    -0.388749943457E+03    0.14424E-03   -0.52935E-05 43368   0.574E-02    0.744E-02
DAV:   6    -0.388749812699E+03    0.13076E-03   -0.14473E-04 45992   0.114E-01    0.200E-02
DAV:   7    -0.388749816732E+03   -0.40321E-05   -0.24937E-04 44664   0.415E-02    0.167E-02
DAV:   8    -0.388749817671E+03   -0.93956E-06   -0.47932E-05 40040   0.143E-02
  58 F= -.38874982E+03 E0= -.38874982E+03  d E =-.306736E-02  mag=    60.0000
       N       E                     dE             d eps       ncg     rms          rms(c)
DAV:   1    -0.388748753442E+03    0.10633E-02   -0.20079E-01 41928   0.147E+00    0.191E-01
DAV:   2    -0.388750329435E+03   -0.15760E-02   -0.15036E-02 39112   0.263E-01    0.820E-02
DAV:   3    -0.388750376041E+03   -0.46606E-04   -0.39113E-04 46328   0.431E-02    0.371E-02
DAV:   4    -0.388750370282E+03    0.57589E-05   -0.21521E-05 30704   0.120E-02
  59 F= -.38875037E+03 E0= -.38875037E+03  d E =-.552611E-03  mag=    60.0000
       N       E                     dE             d eps       ncg     rms          rms(c)
DAV:   1    -0.388734823201E+03    0.15553E-01   -0.28760E+00 41960   0.510E+00    0.581E-01
DAV:   2    -0.388751996976E+03   -0.17174E-01   -0.16567E-01 38528   0.895E-01    0.267E-01
DAV:   3    -0.388752346998E+03   -0.35002E-03   -0.36611E-03 46320   0.128E-01    0.127E-01
DAV:   4    -0.388752275128E+03    0.71870E-04   -0.29294E-04 55144   0.358E-02    0.905E-02
DAV:   5    -0.388752197426E+03    0.77702E-04   -0.94693E-05 42944   0.444E-02    0.309E-02
DAV:   6    -0.388752202034E+03   -0.46082E-05   -0.71090E-05 42752   0.191E-02
  60 F= -.38875220E+03 E0= -.38875220E+03  d E =-.183175E-02  mag=    60.0000
       N       E                     dE             d eps       ncg     rms          rms(c)
DAV:   1    -0.388749173208E+03    0.30242E-02   -0.66124E-01 41560   0.239E+00    0.274E-01
DAV:   2    -0.388752945804E+03   -0.37726E-02   -0.36822E-02 38576   0.424E-01    0.121E-01
DAV:   3    -0.388753025241E+03   -0.79436E-04   -0.80032E-04 46504   0.603E-02    0.582E-02
DAV:   4    -0.388753009249E+03    0.15991E-04   -0.54802E-05 42592   0.165E-02    0.413E-02
DAV:   5    -0.388752994349E+03    0.14901E-04   -0.17845E-05 27424   0.195E-02    0.152E-02
DAV:   6    -0.388752995503E+03   -0.11547E-05   -0.16529E-05 23000   0.910E-03
  61 F= -.38875300E+03 E0= -.38875300E+03  d E =-.793469E-03  mag=    60.0000
       N       E                     dE             d eps       ncg     rms          rms(c)
DAV:   1    -0.388749711786E+03    0.32826E-02   -0.55768E-01 42016   0.239E+00    0.290E-01
DAV:   2    -0.388753609627E+03   -0.38978E-02   -0.37164E-02 38784   0.417E-01    0.129E-01
DAV:   3    -0.388753713186E+03   -0.10356E-03   -0.89615E-04 46288   0.635E-02    0.575E-02
DAV:   4    -0.388753700826E+03    0.12360E-04   -0.60479E-05 42872   0.163E-02    0.421E-02
DAV:   5    -0.388753684529E+03    0.16297E-04   -0.15095E-05 27008   0.201E-02    0.175E-02
DAV:   6    -0.388753684172E+03    0.35697E-06   -0.16749E-05 26240   0.122E-02
  62 F= -.38875368E+03 E0= -.38875368E+03  d E =-.688669E-03  mag=    60.0000
       N       E                     dE             d eps       ncg     rms          rms(c)
DAV:   1    -0.388739044913E+03    0.14640E-01   -0.34377E+00 40672   0.502E+00    0.524E-01
DAV:   2    -0.388754774926E+03   -0.15730E-01   -0.15530E-01 38464   0.867E-01    0.242E-01
DAV:   3    -0.388754988823E+03   -0.21390E-03   -0.30803E-03 47968   0.126E-01    0.124E-01
DAV:   4    -0.388754906502E+03    0.82321E-04   -0.25881E-04 53040   0.371E-02    0.876E-02
DAV:   5    -0.388754817273E+03    0.89230E-04   -0.85957E-05 41880   0.503E-02    0.300E-02
DAV:   6    -0.388754819605E+03   -0.23327E-05   -0.97238E-05 44752   0.268E-02
  63 F= -.38875482E+03 E0= -.38875482E+03  d E =-.113543E-02  mag=    60.0000
       N       E                     dE             d eps       ncg     rms          rms(c)
DAV:   1    -0.388089285901E+03    0.66553E+00   -0.74316E+01 42224   0.284E+01    0.374E+00
DAV:   2    -0.388678608063E+03   -0.58932E+00   -0.56292E+00 39560   0.511E+00    0.189E+00
DAV:   3    -0.388693381105E+03   -0.14773E-01   -0.17286E-01 45440   0.981E-01    0.948E-01
DAV:   4    -0.388689890298E+03    0.34908E-02   -0.13811E-02 54912   0.319E-01    0.667E-01
DAV:   5    -0.388683527077E+03    0.63632E-02   -0.31317E-03 52128   0.474E-01    0.296E-01
DAV:   6    -0.388681312895E+03    0.22142E-02   -0.54748E-03 49840   0.458E-01    0.984E-02
DAV:   7    -0.388681646749E+03   -0.33385E-03   -0.71462E-03 44904   0.193E-01    0.111E-01
DAV:   8    -0.388681558892E+03    0.87857E-04   -0.50813E-04 53768   0.473E-02    0.717E-02
DAV:   9    -0.388681408622E+03    0.15027E-03   -0.50437E-05 44392   0.542E-02    0.482E-02
DAV:  10    -0.388681234186E+03    0.17444E-03   -0.17209E-04 51288   0.127E-01    0.197E-02
DAV:  11    -0.388681228154E+03    0.60312E-05   -0.23106E-04 44464   0.571E-02    0.241E-02
DAV:  12    -0.388681239916E+03   -0.11761E-04   -0.14196E-04 42048   0.223E-02    0.133E-02
DAV:  13    -0.388681239244E+03    0.67112E-06   -0.53638E-06 22824   0.691E-03
  64 F= -.38868124E+03 E0= -.38868124E+03  d E =0.735804E-01  mag=    60.0000
       N       E                     dE             d eps       ncg     rms          rms(c)
DAV:   1    -0.388446547582E+03    0.23469E+00   -0.22055E+01 42632   0.180E+01    0.290E+00
DAV:   2    -0.388743614085E+03   -0.29707E+00   -0.27473E+00 40112   0.323E+00    0.141E+00
DAV:   3    -0.388754338234E+03   -0.10724E-01   -0.99620E-02 45728   0.722E-01    0.632E-01
DAV:   4    -0.388752638140E+03    0.17001E-02   -0.75652E-03 51960   0.242E-01    0.442E-01
DAV:   5    -0.388749310320E+03    0.33278E-02   -0.12832E-03 54216   0.359E-01    0.207E-01
DAV:   6    -0.388747824179E+03    0.14861E-02   -0.26227E-03 50296   0.387E-01    0.718E-02
DAV:   7    -0.388747967914E+03   -0.14374E-03   -0.41354E-03 44792   0.155E-01    0.751E-02
DAV:   8    -0.388747926009E+03    0.41904E-04   -0.42641E-04 51120   0.440E-02    0.528E-02
DAV:   9    -0.388747830970E+03    0.95040E-04   -0.24329E-05 37128   0.506E-02    0.354E-02
DAV:  10    -0.388747720409E+03    0.11056E-03   -0.11944E-04 51240   0.118E-01    0.162E-02
DAV:  11    -0.388747721716E+03   -0.13072E-05   -0.16427E-04 44432   0.466E-02    0.194E-02
DAV:  12    -0.388747729268E+03   -0.75525E-05   -0.88727E-05 42784   0.187E-02
  65 F= -.38874773E+03 E0= -.38874773E+03  d E =-.664900E-01  mag=    60.0000
       N       E                     dE             d eps       ncg     rms          rms(c)
DAV:   1    -0.388730708910E+03    0.17013E-01   -0.20479E+00 41616   0.503E+00    0.728E-01
DAV:   2    -0.388751420046E+03   -0.20711E-01   -0.19608E-01 39872   0.917E-01    0.341E-01
DAV:   3    -0.388752058485E+03   -0.63844E-03   -0.65316E-03 46024   0.186E-01    0.178E-01
DAV:   4    -0.388751963024E+03    0.95461E-04   -0.48961E-04 53936   0.560E-02    0.131E-01
DAV:   5    -0.388751741936E+03    0.22109E-03   -0.11105E-04 45488   0.887E-02    0.640E-02
DAV:   6    -0.388751647823E+03    0.94112E-04   -0.18302E-04 47816   0.102E-01    0.222E-02
DAV:   7    -0.388751661100E+03   -0.13277E-04   -0.28988E-04 44608   0.398E-02    0.199E-02
DAV:   8    -0.388751658526E+03    0.25748E-05   -0.20977E-05 30840   0.101E-02
  66 F= -.38875166E+03 E0= -.38875166E+03  d E =-.392926E-02  mag=    60.0000
       N       E                     dE             d eps       ncg     rms          rms(c)
DAV:   1    -0.388748626550E+03    0.30346E-02   -0.72747E-01 41728   0.247E+00    0.287E-01
DAV:   2    -0.388752695736E+03   -0.40692E-02   -0.39756E-02 39208   0.439E-01    0.138E-01
DAV:   3    -0.388752766711E+03   -0.70975E-04   -0.88204E-04 46768   0.664E-02    0.745E-02
DAV:   4    -0.388752748044E+03    0.18667E-04   -0.65586E-05 45152   0.185E-02    0.539E-02
DAV:   5    -0.388752717911E+03    0.30133E-04   -0.26082E-05 35992   0.307E-02    0.184E-02
DAV:   6    -0.388752717543E+03    0.36834E-06   -0.33890E-05 38784   0.177E-02
  67 F= -.38875272E+03 E0= -.38875272E+03  d E =-.105902E-02  mag=    60.0000
       N       E                     dE             d eps       ncg     rms          rms(c)
DAV:   1    -0.388743045865E+03    0.96720E-02   -0.15670E+00 42128   0.402E+00    0.485E-01
DAV:   2    -0.388754016159E+03   -0.10970E-01   -0.10502E-01 38944   0.711E-01    0.219E-01
DAV:   3    -0.388754284706E+03   -0.26855E-03   -0.25473E-03 45648   0.113E-01    0.101E-01
DAV:   4    -0.388754244917E+03    0.39789E-04   -0.19907E-04 55264   0.324E-02    0.723E-02
DAV:   5    -0.388754186851E+03    0.58066E-04   -0.44713E-05 39856   0.435E-02    0.288E-02
DAV:   6    -0.388754181274E+03    0.55769E-05   -0.54379E-05 46176   0.305E-02
  68 F= -.38875418E+03 E0= -.38875418E+03  d E =-.146373E-02  mag=    60.0000
       N       E                     dE             d eps       ncg     rms          rms(c)
DAV:   1    -0.388751026375E+03    0.31605E-02   -0.54440E-01 41600   0.233E+00    0.288E-01
DAV:   2    -0.388754865582E+03   -0.38392E-02   -0.36702E-02 39200   0.413E-01    0.125E-01
DAV:   3    -0.388754969414E+03   -0.10383E-03   -0.89429E-04 46704   0.624E-02    0.576E-02
DAV:   4    -0.388754957482E+03    0.11932E-04   -0.54268E-05 40240   0.157E-02    0.427E-02
DAV:   5    -0.388754941331E+03    0.16151E-04   -0.13891E-05 26952   0.208E-02    0.187E-02
DAV:   6    -0.388754940832E+03    0.49896E-06   -0.17956E-05 25856   0.132E-02
  69 F= -.38875494E+03 E0= -.38875494E+03  d E =-.759558E-03  mag=    60.0000
       N       E                     dE             d eps       ncg     rms          rms(c)
DAV:   1    -0.388752730104E+03    0.22112E-02   -0.20494E-01 42032   0.168E+00    0.247E-01
DAV:   2    -0.388755109349E+03   -0.23792E-02   -0.22031E-02 39112   0.299E-01    0.109E-01
DAV:   3    -0.388755198228E+03   -0.88880E-04   -0.66227E-04 46128   0.533E-02    0.486E-02
DAV:   4    -0.388755193946E+03    0.42821E-05   -0.41552E-05 34440   0.131E-02
  70 F= -.38875519E+03 E0= -.38875519E+03  d E =-.253114E-03  mag=    60.0000
       N       E                     dE             d eps       ncg     rms          rms(c)
DAV:   1    -0.388752054942E+03    0.31433E-02   -0.57944E-01 42000   0.217E+00    0.243E-01
DAV:   2    -0.388755092489E+03   -0.30375E-02   -0.29198E-02 38672   0.372E-01    0.110E-01
DAV:   3    -0.388755148988E+03   -0.56499E-04   -0.64655E-04 47768   0.553E-02    0.521E-02
DAV:   4    -0.388755135596E+03    0.13392E-04   -0.47058E-05 40904   0.148E-02    0.376E-02
DAV:   5    -0.388755119792E+03    0.15804E-04   -0.15672E-05 26528   0.189E-02    0.154E-02
DAV:   6    -0.388755119937E+03   -0.14466E-06   -0.17344E-05 27592   0.107E-02
  71 F= -.38875512E+03 E0= -.38875512E+03  d E =0.740094E-04  mag=    60.0000
       N       E                     dE             d eps       ncg     rms          rms(c)
DAV:   1    -0.388705248418E+03    0.49871E-01   -0.88881E+00 41768   0.864E+00    0.959E-01
DAV:   2    -0.388753775257E+03   -0.48527E-01   -0.46661E-01 38360   0.149E+00    0.427E-01
DAV:   3    -0.388754763258E+03   -0.98800E-03   -0.10124E-02 46576   0.217E-01    0.198E-01
DAV:   4    -0.388754600606E+03    0.16265E-03   -0.78829E-04 54400   0.559E-02    0.147E-01
DAV:   5    -0.388754385171E+03    0.21543E-03   -0.19644E-04 45312   0.643E-02    0.637E-02
DAV:   6    -0.388754379662E+03    0.55090E-05   -0.20775E-04 46896   0.363E-02    0.143E-02
DAV:   7    -0.388754382150E+03   -0.24877E-05   -0.37007E-05 33704   0.152E-02
  72 F= -.38875438E+03 E0= -.38875438E+03  d E =0.737787E-03  mag=    60.0000
       N       E                     dE             d eps       ncg     rms          rms(c)
DAV:   1    -0.388526314955E+03    0.22806E+00   -0.30532E+01 42016   0.170E+01    0.217E+00
DAV:   2    -0.388740661183E+03   -0.21435E+00   -0.20306E+00 38944   0.295E+00    0.995E-01
DAV:   3    -0.388746185008E+03   -0.55238E-02   -0.52107E-02 46424   0.488E-01    0.446E-01
DAV:   4    -0.388745518674E+03    0.66633E-03   -0.40508E-03 54296   0.131E-01    0.336E-01
DAV:   5    -0.388744391573E+03    0.11271E-02   -0.68178E-04 48448   0.150E-01    0.171E-01
DAV:   6    -0.388744059952E+03    0.33162E-03   -0.10051E-03 49072   0.159E-01    0.411E-02
DAV:   7    -0.388744103812E+03   -0.43860E-04   -0.88985E-04 44904   0.711E-02    0.429E-02
DAV:   8    -0.388744098675E+03    0.51368E-05   -0.73793E-05 46128   0.180E-02
  73 F= -.38874410E+03 E0= -.38874410E+03  d E =0.102835E-01  mag=    60.0000
       N       E                     dE             d eps       ncg     rms          rms(c)
DAV:   1    -0.388287685784E+03    0.45642E+00   -0.46005E+01 42016   0.229E+01    0.334E+00
DAV:   2    -0.388733239918E+03   -0.44555E+00   -0.41659E+00 39672   0.406E+00    0.157E+00
DAV:   3    -0.388746918828E+03   -0.13679E-01   -0.12347E-01 45832   0.798E-01    0.681E-01
DAV:   4    -0.388745019925E+03    0.18989E-02   -0.92343E-03 52168   0.247E-01    0.500E-01
DAV:   5    -0.388741841048E+03    0.31789E-02   -0.13444E-03 51920   0.294E-01    0.277E-01
DAV:   6    -0.388739952405E+03    0.18886E-02   -0.26461E-03 50184   0.414E-01    0.758E-02
DAV:   7    -0.388740043617E+03   -0.91212E-04   -0.43448E-03 44888   0.177E-01    0.685E-02
DAV:   8    -0.388740047083E+03   -0.34655E-05   -0.73947E-04 45960   0.539E-02    0.571E-02
DAV:   9    -0.388739986265E+03    0.60818E-04   -0.69899E-05 43072   0.354E-02    0.385E-02
DAV:  10    -0.388739893699E+03    0.92566E-04   -0.56108E-05 45904   0.882E-02    0.169E-02
DAV:  11    -0.388739874222E+03    0.19478E-04   -0.89988E-05 45688   0.590E-02    0.198E-02
DAV:  12    -0.388739882824E+03   -0.86025E-05   -0.12484E-04 45352   0.235E-02    0.998E-03
DAV:  13    -0.388739883135E+03   -0.31139E-06   -0.56405E-06 22168   0.655E-03
  74 F= -.38873988E+03 E0= -.38873988E+03  d E =0.421554E-02  mag=    60.0000
       N       E                     dE             d eps       ncg     rms          rms(c)
DAV:   1    -0.388355550441E+03    0.38433E+00   -0.24392E+01 42152   0.202E+01    0.326E+00
DAV:   2    -0.388732808105E+03   -0.37726E+00   -0.34715E+00 39456   0.368E+00    0.155E+00
DAV:   3    -0.388749080285E+03   -0.16272E-01   -0.12990E-01 44168   0.812E-01    0.642E-01
DAV:   4    -0.388747845025E+03    0.12353E-02   -0.93044E-03 54944   0.249E-01    0.464E-01
DAV:   5    -0.388745291759E+03    0.25533E-02   -0.87553E-04 52168   0.274E-01    0.273E-01
DAV:   6    -0.388743235928E+03    0.20558E-02   -0.21257E-03 51864   0.467E-01    0.677E-02
DAV:   7    -0.388743324508E+03   -0.88580E-04   -0.43204E-03 44728   0.177E-01    0.667E-02
DAV:   8    -0.388743335802E+03   -0.11294E-04   -0.83728E-04 45496   0.581E-02    0.611E-02
DAV:   9    -0.388743282175E+03    0.53627E-04   -0.73880E-05 43840   0.323E-02    0.408E-02
DAV:  10    -0.388743182212E+03    0.99963E-04   -0.47122E-05 44592   0.878E-02    0.171E-02
DAV:  11    -0.388743150442E+03    0.31771E-04   -0.79808E-05 45528   0.719E-02    0.213E-02
DAV:  12    -0.388743159072E+03   -0.86306E-05   -0.14345E-04 44776   0.267E-02    0.111E-02
DAV:  13    -0.388743160291E+03   -0.12186E-05   -0.12820E-05 24456   0.696E-03
  75 F= -.38874316E+03 E0= -.38874316E+03  d E =-.327716E-02  mag=    60.0000
       N       E                     dE             d eps       ncg     rms          rms(c)
DAV:   1    -0.388641242512E+03    0.10192E+00   -0.11835E+01 42048   0.122E+01    0.162E+00
DAV:   2    -0.388750737482E+03   -0.10949E+00   -0.10333E+00 39208   0.219E+00    0.725E-01
DAV:   3    -0.388754038934E+03   -0.33015E-02   -0.28816E-02 46072   0.391E-01    0.328E-01
DAV:   4    -0.388753619970E+03    0.41896E-03   -0.21287E-03 54096   0.117E-01    0.241E-01
DAV:   5    -0.388752891015E+03    0.72895E-03   -0.34544E-04 51216   0.161E-01    0.116E-01
DAV:   6    -0.388752652286E+03    0.23873E-03   -0.58579E-04 50088   0.161E-01    0.318E-02
DAV:   7    -0.388752682119E+03   -0.29832E-04   -0.77567E-04 44952   0.697E-02    0.337E-02
DAV:   8    -0.388752674227E+03    0.78915E-05   -0.73755E-05 43480   0.191E-02
  76 F= -.38875267E+03 E0= -.38875267E+03  d E =-.951394E-02  mag=    60.0000
       N       E                     dE             d eps       ncg     rms          rms(c)
DAV:   1    -0.388744071450E+03    0.86107E-02   -0.14090E+00 41504   0.357E+00    0.440E-01
DAV:   2    -0.388753142012E+03   -0.90706E-02   -0.87300E-02 39272   0.630E-01    0.198E-01
DAV:   3    -0.388753364239E+03   -0.22223E-03   -0.24419E-03 47832   0.111E-01    0.959E-02
DAV:   4    -0.388753322345E+03    0.41894E-04   -0.19852E-04 54136   0.343E-02    0.708E-02
DAV:   5    -0.388753242849E+03    0.79496E-04   -0.32622E-05 39144   0.525E-02    0.345E-02
DAV:   6    -0.388753214829E+03    0.28020E-04   -0.70451E-05 45784   0.561E-02    0.110E-02
DAV:   7    -0.388753218957E+03   -0.41281E-05   -0.89819E-05 41192   0.230E-02
  77 F= -.38875322E+03 E0= -.38875322E+03  d E =-.544730E-03  mag=    60.0000
       N       E                     dE             d eps       ncg     rms          rms(c)
DAV:   1    -0.388746239458E+03    0.69754E-02   -0.18284E+00 41960   0.360E+00    0.366E-01
DAV:   2    -0.388754205403E+03   -0.79659E-02   -0.77970E-02 39352   0.614E-01    0.172E-01
DAV:   3    -0.388754287994E+03   -0.82591E-04   -0.16482E-03 47656   0.100E-01    0.847E-02
DAV:   4    -0.388754239629E+03    0.48365E-04   -0.15113E-04 52280   0.335E-02    0.601E-02
DAV:   5    -0.388754165656E+03    0.73972E-04   -0.36523E-05 38808   0.515E-02    0.270E-02
DAV:   6    -0.388754146604E+03    0.19053E-04   -0.70876E-05 45112   0.475E-02    0.101E-02
DAV:   7    -0.388754150222E+03   -0.36186E-05   -0.76378E-05 41168   0.208E-02
  78 F= -.38875415E+03 E0= -.38875415E+03  d E =-.931265E-03  mag=    60.0000
       N       E                     dE             d eps       ncg     rms          rms(c)
DAV:   1    -0.388744586881E+03    0.95597E-02   -0.15941E+00 42224   0.397E+00    0.465E-01
DAV:   2    -0.388755011147E+03   -0.10424E-01   -0.99096E-02 38432   0.691E-01    0.210E-01
DAV:   3    -0.388755258280E+03   -0.24713E-03   -0.24036E-03 46544   0.109E-01    0.960E-02
DAV:   4    -0.388755220397E+03    0.37883E-04   -0.17024E-04 53048   0.282E-02    0.703E-02
DAV:   5    -0.388755165028E+03    0.55369E-04   -0.44949E-05 39168   0.365E-02    0.306E-02
DAV:   6    -0.388755158625E+03    0.64028E-05   -0.51278E-05 44288   0.264E-02
  79 F= -.38875516E+03 E0= -.38875516E+03  d E =-.100840E-02  mag=    60.0000
       N       E                     dE             d eps       ncg     rms          rms(c)
DAV:   1    -0.388730089257E+03    0.25076E-01   -0.34991E+00 41808   0.595E+00    0.735E-01
DAV:   2    -0.388754957557E+03   -0.24868E-01   -0.23664E-01 38792   0.105E+00    0.331E-01
DAV:   3    -0.388755608996E+03   -0.65144E-03   -0.56593E-03 46544   0.162E-01    0.157E-01
DAV:   4    -0.388755539307E+03    0.69689E-04   -0.38903E-04 55384   0.404E-02    0.117E-01
DAV:   5    -0.388755418756E+03    0.12055E-03   -0.82380E-05 41248   0.526E-02    0.550E-02
DAV:   6    -0.388755404277E+03    0.14479E-04   -0.11852E-04 46944   0.411E-02    0.122E-02
DAV:   7    -0.388755407714E+03   -0.34367E-05   -0.58884E-05 39216   0.188E-02
  80 F= -.38875541E+03 E0= -.38875541E+03  d E =-.249089E-03  mag=    60.0000
       N       E                     dE             d eps       ncg     rms          rms(c)
DAV:   1    -0.388656845428E+03    0.98559E-01   -0.15571E+01 41576   0.119E+01    0.137E+00
DAV:   2    -0.388750359291E+03   -0.93514E-01   -0.90512E-01 38384   0.209E+00    0.620E-01
DAV:   3    -0.388752271811E+03   -0.19125E-02   -0.20379E-02 46680   0.317E-01    0.302E-01
DAV:   4    -0.388751889724E+03    0.38209E-03   -0.15436E-03 55264   0.873E-02    0.222E-01
DAV:   5    -0.388751370953E+03    0.51877E-03   -0.43599E-04 47384   0.122E-01    0.889E-02
DAV:   6    -0.388751352947E+03    0.18006E-04   -0.51088E-04 49000   0.743E-02    0.237E-02
DAV:   7    -0.388751360063E+03   -0.71154E-05   -0.18852E-04 44336   0.350E-02    0.239E-02
DAV:   8    -0.388751357518E+03    0.25445E-05   -0.10159E-05 23320   0.904E-03
  81 F= -.38875136E+03 E0= -.38875136E+03  d E =0.405020E-02  mag=    60.0000
       N       E                     dE             d eps       ncg     rms          rms(c)
DAV:   1    -0.387274245802E+03    0.14771E+01   -0.91710E+01 42480   0.382E+01    0.621E+00
DAV:   2    -0.388622923535E+03   -0.13487E+01   -0.12381E+01 39264   0.688E+00    0.323E+00
DAV:   3    -0.388676348653E+03   -0.53425E-01   -0.38205E-01 45016   0.126E+00    0.131E+00
DAV:   4    -0.388673153571E+03    0.31951E-02   -0.23310E-02 52944   0.328E-01    0.974E-01
DAV:   5    -0.388667642212E+03    0.55114E-02   -0.34127E-03 50216   0.345E-01    0.525E-01
DAV:   6    -0.388665485333E+03    0.21569E-02   -0.49273E-03 47928   0.393E-01    0.942E-02
DAV:   7    -0.388665714282E+03   -0.22895E-03   -0.49176E-03 44384   0.169E-01    0.110E-01
DAV:   8    -0.388665677239E+03    0.37044E-04   -0.33576E-04 49744   0.387E-02    0.712E-02
DAV:   9    -0.388665601230E+03    0.76008E-04   -0.48747E-05 40896   0.333E-02    0.497E-02
DAV:  10    -0.388665511370E+03    0.89860E-04   -0.78288E-05 48512   0.759E-02    0.180E-02
DAV:  11    -0.388665491304E+03    0.20065E-04   -0.77832E-05 43944   0.452E-02    0.206E-02
DAV:  12    -0.388665496173E+03   -0.48684E-05   -0.90529E-05 41472   0.212E-02
  82 F= -.38866550E+03 E0= -.38866550E+03  d E =0.858613E-01  mag=    60.0000
       N       E                     dE             d eps       ncg     rms          rms(c)
DAV:   1    -0.388484178797E+03    0.18131E+00   -0.13915E+01 43296   0.154E+01    0.263E+00
DAV:   2    -0.388722626274E+03   -0.23845E+00   -0.21612E+00 39648   0.277E+00    0.125E+00
DAV:   3    -0.388732667202E+03   -0.10041E-01   -0.68707E-02 44440   0.545E-01    0.551E-01
DAV:   4    -0.388732108521E+03    0.55868E-03   -0.41131E-03 51192   0.137E-01    0.405E-01
DAV:   5    -0.388730884789E+03    0.12237E-02   -0.97109E-04 48728   0.189E-01    0.183E-01
DAV:   6    -0.388730574702E+03    0.31009E-03   -0.10265E-03 48112   0.163E-01    0.425E-02
DAV:   7    -0.388730611644E+03   -0.36942E-04   -0.92115E-04 44280   0.726E-02    0.562E-02
DAV:   8    -0.388730600246E+03    0.11398E-04   -0.51440E-05 41512   0.176E-02    0.339E-02
DAV:   9    -0.388730580156E+03    0.20091E-04   -0.90776E-06 28048   0.201E-02    0.232E-02
DAV:  10    -0.388730557113E+03    0.23043E-04   -0.23710E-05 37248   0.453E-02    0.870E-03
DAV:  11    -0.388730556462E+03    0.65128E-06   -0.34933E-05 38432   0.185E-02
  83 F= -.38873056E+03 E0= -.38873056E+03  d E =-.650603E-01  mag=    60.0000
       N       E                     dE             d eps       ncg     rms          rms(c)
DAV:   1    -0.388638926145E+03    0.91631E-01   -0.63022E+00 43816   0.106E+01    0.172E+00
DAV:   2    -0.388743675494E+03   -0.10475E+00   -0.94489E-01 39568   0.187E+00    0.800E-01
DAV:   3    -0.388748114536E+03   -0.44390E-02   -0.31892E-02 44256   0.368E-01    0.349E-01
DAV:   4    -0.388747896888E+03    0.21765E-03   -0.21542E-03 53504   0.966E-02    0.252E-01
DAV:   5    -0.388747368377E+03    0.52851E-03   -0.37177E-04 48232   0.124E-01    0.123E-01
DAV:   6    -0.388747187895E+03    0.18048E-03   -0.43675E-04 48120   0.124E-01    0.271E-02
DAV:   7    -0.388747206772E+03   -0.18878E-04   -0.48116E-04 44648   0.533E-02    0.371E-02
DAV:   8    -0.388747201760E+03    0.50129E-05   -0.29668E-05 34112   0.129E-02
  84 F= -.38874720E+03 E0= -.38874720E+03  d E =-.166453E-01  mag=    60.0000
       N       E                     dE             d eps       ncg     rms          rms(c)
DAV:   1    -0.388740737724E+03    0.64690E-02   -0.38229E-01 42656   0.270E+00    0.461E-01
DAV:   2    -0.388748057065E+03   -0.73193E-02   -0.66989E-02 39808   0.487E-01    0.200E-01
DAV:   3    -0.388748369450E+03   -0.31239E-03   -0.21619E-03 45488   0.100E-01    0.866E-02
DAV:   4    -0.388748354858E+03    0.14592E-04   -0.14116E-04 47104   0.265E-02    0.672E-02
DAV:   5    -0.388748315111E+03    0.39747E-04   -0.16244E-05 30832   0.330E-02    0.392E-02
DAV:   6    -0.388748289336E+03    0.25776E-04   -0.38677E-05 39712   0.513E-02    0.984E-03
DAV:   7    -0.388748291387E+03   -0.20509E-05   -0.59909E-05 40208   0.187E-02
  85 F= -.38874829E+03 E0= -.38874829E+03  d E =-.108963E-02  mag=    60.0000
       N       E                     dE             d eps       ncg     rms          rms(c)
DAV:   1    -0.388740556118E+03    0.77332E-02   -0.44426E-01 42312   0.279E+00    0.463E-01
DAV:   2    -0.388748214662E+03   -0.76585E-02   -0.69852E-02 39368   0.496E-01    0.199E-01
DAV:   3    -0.388748546652E+03   -0.33199E-03   -0.21874E-03 46696   0.929E-02    0.837E-02
DAV:   4    -0.388748539092E+03    0.75600E-05   -0.13685E-04 46432   0.211E-02    0.664E-02
DAV:   5    -0.388748513637E+03    0.25455E-04   -0.16370E-05 28568   0.233E-02    0.382E-02
DAV:   6    -0.388748504523E+03    0.91140E-05   -0.27341E-05 37728   0.285E-02
  86 F= -.38874850E+03 E0= -.38874850E+03  d E =-.213136E-03  mag=    60.0000
       N       E                     dE             d eps       ncg     rms          rms(c)
DAV:   1    -0.388747225641E+03    0.12880E-02   -0.16913E-01 41992   0.126E+00    0.153E-01
DAV:   2    -0.388748312962E+03   -0.10873E-02   -0.10448E-02 39144   0.222E-01    0.702E-02
DAV:   3    -0.388748339131E+03   -0.26169E-04   -0.26223E-04 45904   0.342E-02    0.354E-02
DAV:   4    -0.388748334855E+03    0.42759E-05   -0.16125E-05 26976   0.921E-03
  87 F= -.38874833E+03 E0= -.38874833E+03  d E =0.169667E-03  mag=    60.0000
