       N       E                     dE             d eps       ncg     rms          rms(c)
DAV:   1     0.627394314122E+04    0.62739E+04   -0.27082E+05 35808   0.155E+03
DAV:   2     0.398968979650E+03   -0.58750E+04   -0.55675E+04 35680   0.468E+02
DAV:   3    -0.349285864425E+03   -0.74825E+03   -0.72691E+03 40368   0.172E+02
DAV:   4    -0.385219841103E+03   -0.35934E+02   -0.35397E+02 47616   0.402E+01
DAV:   5    -0.387901273431E+03   -0.26814E+01   -0.26764E+01 65968   0.812E+00    0.399E-01
DAV:   6    -0.388071523752E+03   -0.17025E+00   -0.61515E-01 50960   0.127E+00    0.468E-01
DAV:   7    -0.388075008963E+03   -0.34852E-02   -0.33491E-02 62496   0.311E-01    0.768E-01
DAV:   8    -0.388074111499E+03    0.89746E-03   -0.76285E-03 52192   0.171E-01    0.313E-01
DAV:   9    -0.388074433634E+03   -0.32213E-03   -0.35226E-03 49888   0.923E-02    0.371E-01
DAV:  10    -0.388074202773E+03    0.23086E-03   -0.15955E-03 47104   0.650E-02    0.132E-01
DAV:  11    -0.388074249223E+03   -0.46450E-04   -0.98187E-05 36256   0.225E-02    0.107E-01
DAV:  12    -0.388074253474E+03   -0.42504E-05   -0.55152E-05 31424   0.152E-02
   1 F= -.38807425E+03 E0= -.38806044E+03  d E =-.388074E+03  mag=    34.0000
