       N       E                     dE             d eps       ncg     rms          rms(c)
DAV:   1     0.834727251447E+04    0.83473E+04   -0.33043E+05 32944   0.163E+03
DAV:   2     0.632861684969E+03   -0.77144E+04   -0.71391E+04 32064   0.488E+02
DAV:   3    -0.419547508564E+03   -0.10524E+04   -0.10258E+04 32800   0.194E+02
DAV:   4    -0.470487310298E+03   -0.50940E+02   -0.50214E+02 37824   0.392E+01
DAV:   5    -0.472981905770E+03   -0.24946E+01   -0.24475E+01 51312   0.667E+00    0.775E+01
DAV:   6    -0.438131838694E+03    0.34850E+02   -0.33415E+02 37584   0.389E+01    0.609E+01
DAV:   7    -0.439742083807E+03   -0.16102E+01   -0.31481E+01 32632   0.154E+01    0.406E+01
DAV:   8    -0.439421887552E+03    0.32020E+00   -0.41637E+00 40432   0.640E+00    0.267E+01
DAV:   9    -0.439624974729E+03   -0.20309E+00   -0.42688E+00 37880   0.639E+00    0.169E+01
DAV:  10    -0.439454972448E+03    0.17000E+00   -0.25433E+00 36968   0.531E+00    0.854E+00
DAV:  11    -0.439453295810E+03    0.16766E-02   -0.36440E-01 36816   0.239E+00    0.330E+00
DAV:  12    -0.439442272457E+03    0.11023E-01   -0.11983E-01 38192   0.114E+00    0.168E+00
DAV:  13    -0.439449348195E+03   -0.70757E-02   -0.41957E-02 37224   0.653E-01    0.123E+00
DAV:  14    -0.439450839650E+03   -0.14915E-02   -0.13436E-02 33968   0.419E-01    0.518E-01
DAV:  15    -0.439453710233E+03   -0.28706E-02   -0.34039E-03 37400   0.178E-01    0.384E-01
DAV:  16    -0.439455284649E+03   -0.15744E-02   -0.21003E-03 34032   0.171E-01    0.316E-01
DAV:  17    -0.439456013062E+03   -0.72841E-03   -0.19733E-03 32752   0.142E-01    0.173E-01
DAV:  18    -0.439456097095E+03   -0.84033E-04   -0.43569E-04 36256   0.676E-02    0.930E-02
DAV:  19    -0.439456122977E+03   -0.25882E-04   -0.15246E-04 34640   0.441E-02    0.557E-02
DAV:  20    -0.439456124848E+03   -0.18708E-05   -0.88567E-05 30176   0.274E-02
   1 F= -.43945612E+03 E0= -.43944595E+03  d E =-.439456E+03  mag=    77.9995
       N       E                     dE             d eps       ncg     rms          rms(c)
DAV:   1    -0.439469066979E+03   -0.12944E-01   -0.95172E-03 34664   0.198E-01    0.465E-02
DAV:   2    -0.439469120582E+03   -0.53603E-04   -0.54982E-04 33904   0.500E-02    0.988E-02
DAV:   3    -0.439469113284E+03    0.72982E-05   -0.77933E-05 28240   0.268E-02    0.318E-02
DAV:   4    -0.439469113778E+03   -0.49447E-06   -0.62177E-06 18784   0.996E-03
   2 F= -.43946911E+03 E0= -.43945893E+03  d E =-.129889E-01  mag=    77.9998
       N       E                     dE             d eps       ncg     rms          rms(c)
DAV:   1    -0.439967403393E+03   -0.49829E+00   -0.32575E+01 34504   0.115E+01    0.176E+00
DAV:   2    -0.440140234300E+03   -0.17283E+00   -0.17405E+00 33672   0.207E+00    0.124E+00
DAV:   3    -0.440143074213E+03   -0.28399E-02   -0.61315E-02 42160   0.604E-01    0.137E+00
DAV:   4    -0.440140335005E+03    0.27392E-02   -0.84193E-03 38680   0.330E-01    0.483E-01
DAV:   5    -0.440138644327E+03    0.16907E-02   -0.21240E-03 37000   0.156E-01    0.457E-01
DAV:   6    -0.440137667228E+03    0.97710E-03   -0.27170E-03 37144   0.178E-01    0.219E-01
DAV:   7    -0.440137716787E+03   -0.49559E-04   -0.12113E-03 40464   0.910E-02    0.131E-01
DAV:   8    -0.440137706800E+03    0.99864E-05   -0.22605E-04 36912   0.467E-02    0.544E-02
DAV:   9    -0.440137705572E+03    0.12281E-05   -0.37747E-05 29040   0.183E-02
   3 F= -.44013771E+03 E0= -.44012746E+03  d E =-.668592E+00  mag=    78.0000
       N       E                     dE             d eps       ncg     rms          rms(c)
DAV:   1    -0.440025735896E+03    0.11197E+00   -0.16163E+02 34608   0.277E+01    0.474E+00
DAV:   2    -0.441204493536E+03   -0.11788E+01   -0.11795E+01 33544   0.532E+00    0.422E+00
DAV:   3    -0.441212132828E+03   -0.76393E-02   -0.42182E-01 41672   0.169E+00    0.253E+00
DAV:   4    -0.441201383319E+03    0.10750E-01   -0.62320E-02 39576   0.672E-01    0.120E+00
DAV:   5    -0.441192492655E+03    0.88907E-02   -0.12187E-02 37616   0.340E-01    0.100E+00
DAV:   6    -0.441188981738E+03    0.35109E-02   -0.15629E-02 39672   0.368E-01    0.794E-01
DAV:   7    -0.441188203782E+03    0.77796E-03   -0.12846E-02 41496   0.280E-01    0.489E-01
DAV:   8    -0.441188007107E+03    0.19667E-03   -0.14601E-03 39040   0.136E-01    0.194E-01
DAV:   9    -0.441188017963E+03   -0.10856E-04   -0.53145E-04 42336   0.614E-02    0.115E-01
DAV:  10    -0.441188012448E+03    0.55153E-05   -0.10636E-04 34712   0.327E-02    0.463E-02
DAV:  11    -0.441188009990E+03    0.24581E-05   -0.41503E-05 29408   0.194E-02
   4 F= -.44118801E+03 E0= -.44117675E+03  d E =-.105030E+01  mag=    78.0000
       N       E                     dE             d eps       ncg     rms          rms(c)
DAV:   1    -0.440275547285E+03    0.91247E+00   -0.12445E+02 35288   0.315E+01    0.610E+00
DAV:   2    -0.441675755737E+03   -0.14002E+01   -0.13544E+01 33184   0.612E+00    0.704E+00
DAV:   3    -0.441682273507E+03   -0.65178E-02   -0.66309E-01 40272   0.240E+00    0.308E+00
DAV:   4    -0.441679538624E+03    0.27349E-02   -0.88615E-02 38304   0.781E-01    0.133E+00
DAV:   5    -0.441676128085E+03    0.34105E-02   -0.16791E-02 37128   0.338E-01    0.116E+00
DAV:   6    -0.441672568865E+03    0.35592E-02   -0.10555E-02 37792   0.305E-01    0.836E-01
DAV:   7    -0.441670612586E+03    0.19563E-02   -0.70225E-03 37144   0.258E-01    0.488E-01
DAV:   8    -0.441670375067E+03    0.23752E-03   -0.40800E-03 39672   0.182E-01    0.288E-01
DAV:   9    -0.441670378404E+03   -0.33366E-05   -0.74733E-04 37728   0.801E-02    0.135E-01
DAV:  10    -0.441670380251E+03   -0.18469E-05   -0.19550E-04 38592   0.330E-02    0.535E-02
DAV:  11    -0.441670377904E+03    0.23465E-05   -0.40462E-05 28128   0.208E-02
   5 F= -.44167038E+03 E0= -.44165866E+03  d E =-.482368E+00  mag=    78.0000
       N       E                     dE             d eps       ncg     rms          rms(c)
DAV:   1    -0.440009104164E+03    0.16613E+01   -0.12080E+02 35680   0.382E+01    0.735E+00
DAV:   2    -0.441856597875E+03   -0.18475E+01   -0.17098E+01 32456   0.720E+00    0.830E+00
DAV:   3    -0.441880209207E+03   -0.23611E-01   -0.95423E-01 38784   0.278E+00    0.393E+00
DAV:   4    -0.441881642816E+03   -0.14336E-02   -0.12876E-01 37760   0.102E+00    0.151E+00
DAV:   5    -0.441879772137E+03    0.18707E-02   -0.23046E-02 36376   0.384E-01    0.119E+00
DAV:   6    -0.441877241806E+03    0.25303E-02   -0.85862E-03 37888   0.296E-01    0.782E-01
DAV:   7    -0.441875247370E+03    0.19944E-02   -0.48848E-03 38448   0.245E-01    0.317E-01
DAV:   8    -0.441875345400E+03   -0.98031E-04   -0.27527E-03 36952   0.137E-01    0.299E-01
DAV:   9    -0.441875315370E+03    0.30031E-04   -0.53205E-04 39000   0.713E-02    0.110E-01
DAV:  10    -0.441875320085E+03   -0.47154E-05   -0.10314E-04 35224   0.249E-02    0.505E-02
DAV:  11    -0.441875319147E+03    0.93819E-06   -0.56020E-05 25944   0.218E-02
   6 F= -.44187532E+03 E0= -.44186396E+03  d E =-.204941E+00  mag=    78.0000
       N       E                     dE             d eps       ncg     rms          rms(c)
DAV:   1    -0.440964855850E+03    0.91046E+00   -0.85146E+01 34864   0.307E+01    0.485E+00
DAV:   2    -0.441912945796E+03   -0.94809E+00   -0.88218E+00 32000   0.554E+00    0.391E+00
DAV:   3    -0.441945662330E+03   -0.32717E-01   -0.47940E-01 39360   0.169E+00    0.342E+00
DAV:   4    -0.441935550858E+03    0.10111E-01   -0.65246E-02 38672   0.829E-01    0.917E-01
DAV:   5    -0.441934987800E+03    0.56306E-03   -0.93672E-03 36520   0.250E-01    0.773E-01
DAV:   6    -0.441933323726E+03    0.16641E-02   -0.35464E-03 36072   0.200E-01    0.518E-01
DAV:   7    -0.441932396213E+03    0.92751E-03   -0.42733E-03 37584   0.228E-01    0.479E-01
DAV:   8    -0.441932102190E+03    0.29402E-03   -0.22228E-03 37464   0.141E-01    0.121E-01
DAV:   9    -0.441932146912E+03   -0.44721E-04   -0.68129E-04 39800   0.592E-02    0.148E-01
DAV:  10    -0.441932128907E+03    0.18005E-04   -0.19966E-04 32688   0.394E-02    0.387E-02
DAV:  11    -0.441932130861E+03   -0.19536E-05   -0.14543E-05 23472   0.141E-02
   7 F= -.44193213E+03 E0= -.44192118E+03  d E =-.568117E-01  mag=    78.0000
       N       E                     dE             d eps       ncg     rms          rms(c)
DAV:   1    -0.440721828221E+03    0.12103E+01   -0.19481E+02 34216   0.390E+01    0.492E+00
DAV:   2    -0.441957112062E+03   -0.12353E+01   -0.11897E+01 31824   0.694E+00    0.301E+00
DAV:   3    -0.441982716714E+03   -0.25605E-01   -0.36445E-01 39416   0.155E+00    0.252E+00
DAV:   4    -0.441977120192E+03    0.55965E-02   -0.65749E-02 39752   0.652E-01    0.108E+00
DAV:   5    -0.441973844617E+03    0.32756E-02   -0.82140E-03 36448   0.277E-01    0.838E-01
DAV:   6    -0.441970353526E+03    0.34911E-02   -0.55930E-03 35216   0.253E-01    0.619E-01
DAV:   7    -0.441968688243E+03    0.16653E-02   -0.57799E-03 35616   0.249E-01    0.457E-01
DAV:   8    -0.441968506725E+03    0.18152E-03   -0.29772E-03 38320   0.161E-01    0.187E-01
DAV:   9    -0.441968539197E+03   -0.32472E-04   -0.50563E-04 34912   0.621E-02    0.794E-02
DAV:  10    -0.441968543654E+03   -0.44568E-05   -0.92946E-05 32928   0.254E-02
   8 F= -.44196854E+03 E0= -.44195815E+03  d E =-.364128E-01  mag=    78.0000
       N       E                     dE             d eps       ncg     rms          rms(c)
DAV:   1    -0.440814465733E+03    0.11541E+01   -0.23494E+02 33808   0.387E+01    0.457E+00
DAV:   2    -0.442038047366E+03   -0.12236E+01   -0.12317E+01 32008   0.693E+00    0.465E+00
DAV:   3    -0.442048002402E+03   -0.99550E-02   -0.67344E-01 39704   0.201E+00    0.352E+00
DAV:   4    -0.442028822843E+03    0.19180E-01   -0.69243E-02 39696   0.872E-01    0.106E+00
DAV:   5    -0.442022499018E+03    0.63238E-02   -0.25982E-02 36712   0.387E-01    0.113E+00
DAV:   6    -0.442017499092E+03    0.49999E-02   -0.18318E-02 36608   0.382E-01    0.425E-01
DAV:   7    -0.442016953224E+03    0.54587E-03   -0.48693E-03 37496   0.209E-01    0.232E-01
DAV:   8    -0.442016960604E+03   -0.73801E-05   -0.16876E-03 40760   0.112E-01    0.244E-01
DAV:   9    -0.442016928045E+03    0.32559E-04   -0.44004E-04 36904   0.636E-02    0.858E-02
DAV:  10    -0.442016927722E+03    0.32391E-06   -0.77601E-05 35928   0.252E-02
   9 F= -.44201693E+03 E0= -.44200662E+03  d E =-.483841E-01  mag=    78.0000
       N       E                     dE             d eps       ncg     rms          rms(c)
DAV:   1    -0.441666227490E+03    0.35070E+00   -0.26237E+01 34224   0.191E+01    0.324E+00
DAV:   2    -0.442051795646E+03   -0.38557E+00   -0.36248E+00 32360   0.352E+00    0.268E+00
DAV:   3    -0.442066115959E+03   -0.14320E-01   -0.19057E-01 39592   0.117E+00    0.206E+00
DAV:   4    -0.442063546452E+03    0.25695E-02   -0.39027E-02 38248   0.496E-01    0.712E-01
DAV:   5    -0.442063105198E+03    0.44125E-03   -0.36370E-03 36128   0.174E-01    0.559E-01
DAV:   6    -0.442062108393E+03    0.99681E-03   -0.16148E-03 36624   0.138E-01    0.376E-01
DAV:   7    -0.442061432358E+03    0.67603E-03   -0.15925E-03 35912   0.164E-01    0.273E-01
DAV:   8    -0.442061385107E+03    0.47251E-04   -0.90643E-04 39488   0.966E-02    0.118E-01
DAV:   9    -0.442061392341E+03   -0.72344E-05   -0.23153E-04 38744   0.405E-02    0.635E-02
DAV:  10    -0.442061389775E+03    0.25668E-05   -0.31079E-05 27248   0.176E-02
  10 F= -.44206139E+03 E0= -.44205126E+03  d E =-.444621E-01  mag=    78.0000
       N       E                     dE             d eps       ncg     rms          rms(c)
DAV:   1    -0.442033244102E+03    0.28148E-01   -0.60998E+00 33976   0.685E+00    0.905E-01
DAV:   2    -0.442072703089E+03   -0.39459E-01   -0.37711E-01 32224   0.119E+00    0.563E-01
DAV:   3    -0.442073682258E+03   -0.97917E-03   -0.11821E-02 40160   0.271E-01    0.542E-01
DAV:   4    -0.442073409833E+03    0.27243E-03   -0.25045E-03 38840   0.125E-01    0.175E-01
DAV:   5    -0.442073293241E+03    0.11659E-03   -0.29095E-04 35088   0.480E-02    0.160E-01
DAV:   6    -0.442073186859E+03    0.10638E-03   -0.26251E-04 34720   0.530E-02    0.110E-01
DAV:   7    -0.442073150376E+03    0.36484E-04   -0.24000E-04 36184   0.472E-02    0.675E-02
DAV:   8    -0.442073147428E+03    0.29476E-05   -0.11401E-04 33504   0.259E-02    0.211E-02
DAV:   9    -0.442073149310E+03   -0.18824E-05   -0.11349E-05 18912   0.851E-03
  11 F= -.44207315E+03 E0= -.44206311E+03  d E =-.117595E-01  mag=    78.0000
       N       E                     dE             d eps       ncg     rms          rms(c)
DAV:   1    -0.441304286574E+03    0.76886E+00   -0.17478E+02 33680   0.323E+01    0.359E+00
DAV:   2    -0.442106610823E+03   -0.80232E+00   -0.79538E+00 31160   0.562E+00    0.234E+00
DAV:   3    -0.442114036824E+03   -0.74260E-02   -0.20911E-01 39192   0.119E+00    0.220E+00
DAV:   4    -0.442108332717E+03    0.57041E-02   -0.42704E-02 39208   0.530E-01    0.780E-01
DAV:   5    -0.442104646084E+03    0.36866E-02   -0.57527E-03 35384   0.235E-01    0.639E-01
DAV:   6    -0.442102132952E+03    0.25131E-02   -0.52343E-03 36584   0.250E-01    0.407E-01
DAV:   7    -0.442101881685E+03    0.25127E-03   -0.44280E-03 38864   0.186E-01    0.412E-01
DAV:   8    -0.442101731423E+03    0.15026E-03   -0.14990E-03 38664   0.110E-01    0.761E-02
DAV:   9    -0.442101784235E+03   -0.52811E-04   -0.27150E-04 35768   0.385E-02    0.101E-01
DAV:  10    -0.442101780227E+03    0.40075E-05   -0.67833E-05 27904   0.259E-02
  12 F= -.44210178E+03 E0= -.44209208E+03  d E =-.286309E-01  mag=    78.0000
       N       E                     dE             d eps       ncg     rms          rms(c)
DAV:   1    -0.439210870758E+03    0.28909E+01   -0.24997E+02 34528   0.540E+01    0.853E+00
DAV:   2    -0.441991702721E+03   -0.27808E+01   -0.25973E+01 32256   0.967E+00    0.530E+00
DAV:   3    -0.442078278441E+03   -0.86576E-01   -0.80827E-01 37320   0.220E+00    0.345E+00
DAV:   4    -0.442070889419E+03    0.73890E-02   -0.16125E-01 40344   0.989E-01    0.193E+00
DAV:   5    -0.442062926501E+03    0.79629E-02   -0.18839E-02 36176   0.471E-01    0.130E+00
DAV:   6    -0.442056981651E+03    0.59448E-02   -0.10151E-02 37256   0.356E-01    0.883E-01
DAV:   7    -0.442053691852E+03    0.32898E-02   -0.11415E-02 35848   0.383E-01    0.607E-01
DAV:   8    -0.442053633933E+03    0.57919E-04   -0.52616E-03 38680   0.206E-01    0.230E-01
DAV:   9    -0.442053673979E+03   -0.40046E-04   -0.63118E-04 37256   0.735E-02    0.976E-02
DAV:  10    -0.442053656942E+03    0.17037E-04   -0.13378E-04 37344   0.338E-02    0.671E-02
DAV:  11    -0.442053641261E+03    0.15681E-04   -0.45621E-05 32064   0.251E-02    0.337E-02
DAV:  12    -0.442053637563E+03    0.36975E-05   -0.21452E-05 26192   0.162E-02
  13 F= -.44205364E+03 E0= -.44204396E+03  d E =0.481427E-01  mag=    78.0000
       N       E                     dE             d eps       ncg     rms          rms(c)
DAV:   1    -0.440380603823E+03    0.16730E+01   -0.53715E+01 39512   0.366E+01    0.755E+00
DAV:   2    -0.442088075804E+03   -0.17075E+01   -0.15267E+01 32728   0.642E+00    0.650E+00
DAV:   3    -0.442161373968E+03   -0.73298E-01   -0.91048E-01 35776   0.249E+00    0.402E+00
DAV:   4    -0.442160215075E+03    0.11589E-02   -0.20460E-01 36408   0.106E+00    0.169E+00
DAV:   5    -0.442158462810E+03    0.17523E-02   -0.16077E-02 36624   0.384E-01    0.103E+00
DAV:   6    -0.442156298506E+03    0.21643E-02   -0.49372E-03 39640   0.232E-01    0.716E-01
DAV:   7    -0.442154807811E+03    0.14907E-02   -0.51789E-03 35576   0.263E-01    0.538E-01
DAV:   8    -0.442154525097E+03    0.28271E-03   -0.33589E-03 39056   0.177E-01    0.366E-01
DAV:   9    -0.442154454996E+03    0.70101E-04   -0.95216E-04 39304   0.967E-02    0.791E-02
DAV:  10    -0.442154453352E+03    0.16436E-05   -0.20685E-04 34736   0.399E-02    0.100E-01
DAV:  11    -0.442154433498E+03    0.19854E-04   -0.11725E-04 31512   0.292E-02    0.438E-02
DAV:  12    -0.442154423658E+03    0.98399E-05   -0.34861E-05 28216   0.204E-02
  14 F= -.44215442E+03 E0= -.44214465E+03  d E =-.100786E+00  mag=    78.0000
       N       E                     dE             d eps       ncg     rms          rms(c)
DAV:   1    -0.442131308886E+03    0.23125E-01   -0.21595E+00 35080   0.570E+00    0.886E-01
DAV:   2    -0.442161668531E+03   -0.30360E-01   -0.27856E-01 32392   0.100E+00    0.513E-01
DAV:   3    -0.442163152602E+03   -0.14841E-02   -0.12269E-02 39232   0.278E-01    0.577E-01
DAV:   4    -0.442162856892E+03    0.29571E-03   -0.24438E-03 38520   0.135E-01    0.152E-01
DAV:   5    -0.442162820879E+03    0.36013E-04   -0.18719E-04 35128   0.339E-02    0.125E-01
DAV:   6    -0.442162765853E+03    0.55026E-04   -0.32893E-04 36664   0.551E-02    0.143E-01
DAV:   7    -0.442162732561E+03    0.33292E-04   -0.16624E-04 35528   0.424E-02    0.896E-02
DAV:   8    -0.442162718783E+03    0.13778E-04   -0.78554E-05 30536   0.246E-02    0.186E-02
DAV:   9    -0.442162721661E+03   -0.28778E-05   -0.13293E-05 20256   0.112E-02
  15 F= -.44216272E+03 E0= -.44215299E+03  d E =-.829800E-02  mag=    78.0000
       N       E                     dE             d eps       ncg     rms          rms(c)
DAV:   1    -0.442095779418E+03    0.66939E-01   -0.10240E+01 34512   0.974E+00    0.125E+00
DAV:   2    -0.442168839018E+03   -0.73060E-01   -0.69430E-01 32304   0.170E+00    0.787E-01
DAV:   3    -0.442171239199E+03   -0.24002E-02   -0.27499E-02 40264   0.425E-01    0.888E-01
DAV:   4    -0.442170441589E+03    0.79761E-03   -0.61481E-03 39632   0.210E-01    0.236E-01
DAV:   5    -0.442170221378E+03    0.22021E-03   -0.63325E-04 36224   0.646E-02    0.203E-01
DAV:   6    -0.442170024027E+03    0.19735E-03   -0.71449E-04 37216   0.793E-02    0.176E-01
DAV:   7    -0.442169960244E+03    0.63783E-04   -0.43064E-04 36776   0.715E-02    0.132E-01
DAV:   8    -0.442169932560E+03    0.27684E-04   -0.27138E-04 36896   0.425E-02    0.344E-02
DAV:   9    -0.442169936993E+03   -0.44327E-05   -0.31289E-05 24360   0.166E-02
  16 F= -.44216994E+03 E0= -.44216026E+03  d E =-.721533E-02  mag=    78.0000
       N       E                     dE             d eps       ncg     rms          rms(c)
DAV:   1    -0.442137631495E+03    0.32301E-01   -0.12376E+01 31824   0.756E+00    0.683E-01
DAV:   2    -0.442176042108E+03   -0.38411E-01   -0.38855E-01 31336   0.125E+00    0.350E-01
DAV:   3    -0.442176036667E+03    0.54404E-05   -0.57809E-03 39976   0.186E-01    0.273E-01
DAV:   4    -0.442175870165E+03    0.16650E-03   -0.90390E-04 40000   0.803E-02    0.190E-01
DAV:   5    -0.442175585687E+03    0.28448E-03   -0.30516E-04 34768   0.612E-02    0.119E-01
DAV:   6    -0.442175480671E+03    0.10502E-03   -0.39529E-04 36040   0.590E-02    0.617E-02
DAV:   7    -0.442175494191E+03   -0.13520E-04   -0.17084E-04 36288   0.311E-02    0.477E-02
DAV:   8    -0.442175493628E+03    0.56277E-06   -0.19692E-05 21008   0.138E-02
  17 F= -.44217549E+03 E0= -.44216584E+03  d E =-.555664E-02  mag=    78.0000
       N       E                     dE             d eps       ncg     rms          rms(c)
DAV:   1    -0.438702215356E+03    0.34733E+01   -0.24714E+02 35128   0.562E+01    0.985E+00
DAV:   2    -0.442017867102E+03   -0.33157E+01   -0.30515E+01 32440   0.103E+01    0.950E+00
DAV:   3    -0.442116257916E+03   -0.98391E-01   -0.16448E+00 35720   0.335E+00    0.429E+00
DAV:   4    -0.442113383430E+03    0.28745E-02   -0.15542E-01 37736   0.121E+00    0.194E+00
DAV:   5    -0.442109999909E+03    0.33835E-02   -0.25500E-02 36336   0.393E-01    0.145E+00
DAV:   6    -0.442104124569E+03    0.58753E-02   -0.10260E-02 36280   0.375E-01    0.108E+00
DAV:   7    -0.442101823120E+03    0.23014E-02   -0.13403E-02 38592   0.391E-01    0.952E-01
DAV:   8    -0.442100274350E+03    0.15488E-02   -0.79718E-03 35792   0.313E-01    0.525E-01
DAV:   9    -0.442100270918E+03    0.34313E-05   -0.23228E-03 38960   0.163E-01    0.220E-01
DAV:  10    -0.442100260397E+03    0.10522E-04   -0.64467E-04 38168   0.706E-02    0.933E-02
DAV:  11    -0.442100234784E+03    0.25613E-04   -0.20928E-04 33440   0.450E-02    0.979E-02
DAV:  12    -0.442100209270E+03    0.25514E-04   -0.88014E-05 33032   0.315E-02    0.353E-02
DAV:  13    -0.442100204241E+03    0.50290E-05   -0.26857E-05 27696   0.200E-02
  18 F= -.44210020E+03 E0= -.44208997E+03  d E =0.752894E-01  mag=    78.0000
       N       E                     dE             d eps       ncg     rms          rms(c)
DAV:   1    -0.439787866762E+03    0.23123E+01   -0.66437E+01 41808   0.427E+01    0.895E+00
DAV:   2    -0.442132270374E+03   -0.23444E+01   -0.20957E+01 32704   0.757E+00    0.717E+00
DAV:   3    -0.442232461133E+03   -0.10019E+00   -0.10955E+00 35896   0.275E+00    0.444E+00
DAV:   4    -0.442231348917E+03    0.11122E-02   -0.23380E-01 36304   0.116E+00    0.184E+00
DAV:   5    -0.442227637990E+03    0.37109E-02   -0.21506E-02 37128   0.442E-01    0.122E+00
DAV:   6    -0.442225260794E+03    0.23772E-02   -0.89537E-03 36936   0.287E-01    0.102E+00
DAV:   7    -0.442222500064E+03    0.27607E-02   -0.53361E-03 36192   0.306E-01    0.487E-01
DAV:   8    -0.442222118392E+03    0.38167E-03   -0.30318E-03 37776   0.204E-01    0.374E-01
DAV:   9    -0.442222071701E+03    0.46691E-04   -0.11670E-03 39328   0.106E-01    0.131E-01
DAV:  10    -0.442222045259E+03    0.26442E-04   -0.23584E-04 36976   0.410E-02    0.714E-02
DAV:  11    -0.442222022176E+03    0.23083E-04   -0.61118E-05 31048   0.288E-02    0.513E-02
DAV:  12    -0.442222012015E+03    0.10161E-04   -0.25383E-05 26656   0.200E-02    0.340E-02
DAV:  13    -0.442222008505E+03    0.35097E-05   -0.17828E-05 23800   0.152E-02
  19 F= -.44222201E+03 E0= -.44221212E+03  d E =-.121804E+00  mag=    78.0000
       N       E                     dE             d eps       ncg     rms          rms(c)
DAV:   1    -0.442186078438E+03    0.35934E-01   -0.11334E+00 40736   0.545E+00    0.104E+00
DAV:   2    -0.442222287900E+03   -0.36209E-01   -0.32358E-01 32280   0.914E-01    0.475E-01
DAV:   3    -0.442224270022E+03   -0.19821E-02   -0.12120E-02 35112   0.225E-01    0.279E-01
DAV:   4    -0.442224266144E+03    0.38785E-05   -0.97526E-04 39256   0.773E-02    0.170E-01
DAV:   5    -0.442224211995E+03    0.54149E-04   -0.87465E-05 34320   0.318E-02    0.129E-01
DAV:   6    -0.442224152903E+03    0.59093E-04   -0.12199E-04 34312   0.436E-02    0.122E-01
DAV:   7    -0.442224119270E+03    0.33633E-04   -0.15910E-04 34960   0.482E-02    0.562E-02
DAV:   8    -0.442224119060E+03    0.20969E-06   -0.44811E-05 30096   0.219E-02
  20 F= -.44222412E+03 E0= -.44221420E+03  d E =-.211056E-02  mag=    78.0000
       N       E                     dE             d eps       ncg     rms          rms(c)
DAV:   1    -0.442213999025E+03    0.10120E-01   -0.13771E+00 34024   0.349E+00    0.497E-01
DAV:   2    -0.442224777847E+03   -0.10779E-01   -0.10252E-01 32312   0.619E-01    0.285E-01
DAV:   3    -0.442225133912E+03   -0.35607E-03   -0.35218E-03 40672   0.141E-01    0.229E-01
DAV:   4    -0.442225081986E+03    0.51926E-04   -0.47157E-04 37432   0.575E-02    0.977E-02
DAV:   5    -0.442225035258E+03    0.46728E-04   -0.61111E-05 34752   0.257E-02    0.758E-02
DAV:   6    -0.442225006315E+03    0.28943E-04   -0.74746E-05 33376   0.322E-02    0.751E-02
DAV:   7    -0.442224996810E+03    0.95048E-05   -0.55041E-05 33224   0.279E-02
  21 F= -.44222500E+03 E0= -.44221507E+03  d E =-.877750E-03  mag=    78.0000
       N       E                     dE             d eps       ncg     rms          rms(c)
DAV:   1    -0.442212954305E+03    0.12052E-01   -0.19458E+00 33968   0.405E+00    0.504E-01
DAV:   2    -0.442225339307E+03   -0.12385E-01   -0.11906E-01 32280   0.713E-01    0.298E-01
DAV:   3    -0.442225662283E+03   -0.32298E-03   -0.36682E-03 41584   0.154E-01    0.261E-01
DAV:   4    -0.442225586890E+03    0.75393E-04   -0.59332E-04 39016   0.679E-02    0.109E-01
DAV:   5    -0.442225534266E+03    0.52625E-04   -0.86737E-05 34928   0.308E-02    0.901E-02
DAV:   6    -0.442225496248E+03    0.38018E-04   -0.93855E-05 33688   0.339E-02    0.642E-02
DAV:   7    -0.442225485898E+03    0.10350E-04   -0.62870E-05 34880   0.285E-02    0.318E-02
DAV:   8    -0.442225486898E+03   -0.99961E-06   -0.20465E-05 23888   0.127E-02
  22 F= -.44222549E+03 E0= -.44221563E+03  d E =-.490088E-03  mag=    78.0000
       N       E                     dE             d eps       ncg     rms          rms(c)
DAV:   1    -0.442204631451E+03    0.20854E-01   -0.41505E+00 34176   0.530E+00    0.594E-01
DAV:   2    -0.442224819971E+03   -0.20189E-01   -0.19640E-01 31624   0.912E-01    0.317E-01
DAV:   3    -0.442225193087E+03   -0.37312E-03   -0.46571E-03 40544   0.163E-01    0.237E-01
DAV:   4    -0.442225113703E+03    0.79384E-04   -0.63468E-04 39440   0.669E-02    0.124E-01
DAV:   5    -0.442225012783E+03    0.10092E-03   -0.10442E-04 36472   0.348E-02    0.789E-02
DAV:   6    -0.442224958274E+03    0.54510E-04   -0.16441E-04 36224   0.442E-02    0.727E-02
DAV:   7    -0.442224959356E+03   -0.10820E-05   -0.91210E-05 35080   0.270E-02
  23 F= -.44222496E+03 E0= -.44221517E+03  d E =0.527543E-03  mag=    78.0000
       N       E                     dE             d eps       ncg     rms          rms(c)
DAV:   1    -0.442157851323E+03    0.67107E-01   -0.17950E+01 33256   0.996E+00    0.976E-01
DAV:   2    -0.442223777396E+03   -0.65926E-01   -0.65213E-01 31024   0.167E+00    0.635E-01
DAV:   3    -0.442224560849E+03   -0.78345E-03   -0.14478E-02 37816   0.352E-01    0.651E-01
DAV:   4    -0.442224044603E+03    0.51625E-03   -0.24605E-03 38480   0.165E-01    0.213E-01
DAV:   5    -0.442223741191E+03    0.30341E-03   -0.49257E-04 35376   0.666E-02    0.170E-01
DAV:   6    -0.442223540124E+03    0.20107E-03   -0.52031E-04 35528   0.738E-02    0.119E-01
DAV:   7    -0.442223526167E+03    0.13957E-04   -0.29500E-04 37072   0.494E-02    0.704E-02
DAV:   8    -0.442223527632E+03   -0.14645E-05   -0.69947E-05 31024   0.257E-02
  24 F= -.44222353E+03 E0= -.44221378E+03  d E =0.143172E-02  mag=    78.0000
       N       E                     dE             d eps       ncg     rms          rms(c)
DAV:   1    -0.439875507874E+03    0.23480E+01   -0.17976E+02 34552   0.479E+01    0.784E+00
DAV:   2    -0.442107765720E+03   -0.22323E+01   -0.20739E+01 32408   0.871E+00    0.603E+00
DAV:   3    -0.442188035302E+03   -0.80270E-01   -0.91485E-01 37312   0.249E+00    0.406E+00
DAV:   4    -0.442175818693E+03    0.12217E-01   -0.11063E-01 38432   0.108E+00    0.171E+00
DAV:   5    -0.442171968735E+03    0.38500E-02   -0.28845E-02 40632   0.480E-01    0.158E+00
DAV:   6    -0.442167830540E+03    0.41382E-02   -0.86796E-03 35808   0.307E-01    0.971E-01
DAV:   7    -0.442164596348E+03    0.32342E-02   -0.14931E-02 38752   0.419E-01    0.756E-01
DAV:   8    -0.442163669571E+03    0.92678E-03   -0.70779E-03 37856   0.278E-01    0.369E-01
DAV:   9    -0.442163589327E+03    0.80244E-04   -0.22304E-03 40328   0.137E-01    0.180E-01
DAV:  10    -0.442163617004E+03   -0.27677E-04   -0.38185E-04 34784   0.569E-02    0.982E-02
DAV:  11    -0.442163600440E+03    0.16564E-04   -0.58458E-05 31816   0.292E-02    0.499E-02
DAV:  12    -0.442163588723E+03    0.11717E-04   -0.35630E-05 28544   0.207E-02    0.286E-02
DAV:  13    -0.442163585169E+03    0.35532E-05   -0.19793E-05 23880   0.160E-02
  25 F= -.44216359E+03 E0= -.44215336E+03  d E =0.599425E-01  mag=    78.0000
       N       E                     dE             d eps       ncg     rms          rms(c)
DAV:   1    -0.440924171029E+03    0.12394E+01   -0.42232E+01 38920   0.327E+01    0.636E+00
DAV:   2    -0.442200915414E+03   -0.12767E+01   -0.11476E+01 32360   0.577E+00    0.470E+00
DAV:   3    -0.442262022063E+03   -0.61107E-01   -0.59132E-01 36216   0.203E+00    0.372E+00
DAV:   4    -0.442255523625E+03    0.64984E-02   -0.15061E-01 37168   0.948E-01    0.127E+00
DAV:   5    -0.442253731022E+03    0.17926E-02   -0.10281E-02 36352   0.302E-01    0.824E-01
DAV:   6    -0.442251732798E+03    0.19982E-02   -0.58833E-03 38168   0.278E-01    0.751E-01
DAV:   7    -0.442250612659E+03    0.11201E-02   -0.34140E-03 36152   0.225E-01    0.252E-01
DAV:   8    -0.442250632141E+03   -0.19482E-04   -0.15894E-03 39872   0.134E-01    0.318E-01
DAV:   9    -0.442250535014E+03    0.97127E-04   -0.66841E-04 36896   0.860E-02    0.113E-01
DAV:  10    -0.442250532342E+03    0.26719E-05   -0.11773E-04 36440   0.349E-02    0.634E-02
DAV:  11    -0.442250517043E+03    0.15299E-04   -0.44584E-05 27848   0.236E-02    0.371E-02
DAV:  12    -0.442250511386E+03    0.56565E-05   -0.22330E-05 24768   0.187E-02
  26 F= -.44225051E+03 E0= -.44224059E+03  d E =-.869262E-01  mag=    78.0000
       N       E                     dE             d eps       ncg     rms          rms(c)
DAV:   1    -0.442248478827E+03    0.20382E-02   -0.13903E+00 34200   0.357E+00    0.462E-01
DAV:   2    -0.442258294287E+03   -0.98155E-02   -0.95604E-02 32376   0.634E-01    0.312E-01
DAV:   3    -0.442258522080E+03   -0.22779E-03   -0.33117E-03 40968   0.157E-01    0.266E-01
DAV:   4    -0.442258440950E+03    0.81130E-04   -0.50549E-04 38728   0.696E-02    0.112E-01
DAV:   5    -0.442258389080E+03    0.51870E-04   -0.12333E-04 34288   0.388E-02    0.113E-01
DAV:   6    -0.442258348795E+03    0.40285E-04   -0.11079E-04 35000   0.378E-02    0.511E-02
DAV:   7    -0.442258347122E+03    0.16729E-05   -0.50841E-05 33992   0.236E-02
  27 F= -.44225835E+03 E0= -.44224843E+03  d E =-.783574E-02  mag=    78.0000
       N       E                     dE             d eps       ncg     rms          rms(c)
DAV:   1    -0.442216913372E+03    0.41435E-01   -0.59385E+00 33904   0.780E+00    0.107E+00
DAV:   2    -0.442266562727E+03   -0.49649E-01   -0.48114E-01 32432   0.141E+00    0.667E-01
DAV:   3    -0.442268015767E+03   -0.14530E-02   -0.16994E-02 41968   0.340E-01    0.542E-01
DAV:   4    -0.442267708440E+03    0.30733E-03   -0.24178E-03 38704   0.141E-01    0.225E-01
DAV:   5    -0.442267438958E+03    0.26948E-03   -0.42735E-04 37520   0.737E-02    0.195E-01
DAV:   6    -0.442267307099E+03    0.13186E-03   -0.42184E-04 37336   0.764E-02    0.146E-01
DAV:   7    -0.442267273315E+03    0.33784E-04   -0.21496E-04 36544   0.570E-02    0.738E-02
DAV:   8    -0.442267275918E+03   -0.26031E-05   -0.87639E-05 35232   0.280E-02
  28 F= -.44226728E+03 E0= -.44225739E+03  d E =-.892880E-02  mag=    78.0000
       N       E                     dE             d eps       ncg     rms          rms(c)
DAV:   1    -0.442264700891E+03    0.25724E-02   -0.31968E-01 34464   0.165E+00    0.201E-01
DAV:   2    -0.442266691996E+03   -0.19911E-02   -0.18993E-02 32240   0.284E-01    0.990E-02
DAV:   3    -0.442266742785E+03   -0.50789E-04   -0.49518E-04 39640   0.514E-02    0.694E-02
DAV:   4    -0.442266736470E+03    0.63147E-05   -0.47834E-05 26672   0.211E-02
  29 F= -.44226674E+03 E0= -.44225687E+03  d E =0.539448E-03  mag=    78.0000
       N       E                     dE             d eps       ncg     rms          rms(c)
DAV:   1    -0.442255877209E+03    0.10866E-01   -0.21220E+00 34240   0.377E+00    0.371E-01
DAV:   2    -0.442264839773E+03   -0.89626E-02   -0.87837E-02 31520   0.634E-01    0.210E-01
DAV:   3    -0.442264940455E+03   -0.10068E-03   -0.19441E-03 41256   0.114E-01    0.164E-01
DAV:   4    -0.442264896358E+03    0.44097E-04   -0.24284E-04 40808   0.475E-02    0.934E-02
DAV:   5    -0.442264839385E+03    0.56973E-04   -0.56885E-05 32632   0.291E-02    0.681E-02
DAV:   6    -0.442264799783E+03    0.39602E-04   -0.93877E-05 34696   0.346E-02    0.389E-02
DAV:   7    -0.442264800760E+03   -0.97747E-06   -0.51477E-05 31840   0.193E-02
  30 F= -.44226480E+03 E0= -.44225498E+03  d E =0.193571E-02  mag=    78.0000
       N       E                     dE             d eps       ncg     rms          rms(c)
DAV:   1    -0.442222545399E+03    0.42254E-01   -0.62683E+00 34608   0.757E+00    0.920E-01
DAV:   2    -0.442264199007E+03   -0.41654E-01   -0.39436E-01 31368   0.131E+00    0.497E-01
DAV:   3    -0.442265436600E+03   -0.12376E-02   -0.10944E-02 35912   0.275E-01    0.438E-01
DAV:   4    -0.442265282637E+03    0.15396E-03   -0.13835E-03 39392   0.117E-01    0.171E-01
DAV:   5    -0.442265180353E+03    0.10228E-03   -0.19124E-04 35664   0.453E-02    0.133E-01
DAV:   6    -0.442265081359E+03    0.98993E-04   -0.16381E-04 34728   0.487E-02    0.925E-02
DAV:   7    -0.442265055424E+03    0.25936E-04   -0.15584E-04 35904   0.431E-02    0.561E-02
DAV:   8    -0.442265057140E+03   -0.17166E-05   -0.51505E-05 28792   0.211E-02
  31 F= -.44226506E+03 E0= -.44225523E+03  d E =-.256380E-03  mag=    78.0000
       N       E                     dE             d eps       ncg     rms          rms(c)
DAV:   1    -0.441374064237E+03    0.89099E+00   -0.21148E+02 33008   0.352E+01    0.373E+00
DAV:   2    -0.442279669427E+03   -0.90561E+00   -0.90435E+00 31160   0.616E+00    0.223E+00
DAV:   3    -0.442283570139E+03   -0.39007E-02   -0.17701E-01 36456   0.118E+00    0.158E+00
DAV:   4    -0.442279597509E+03    0.39726E-02   -0.26879E-02 39080   0.484E-01    0.871E-01
DAV:   5    -0.442275380354E+03    0.42172E-02   -0.59915E-03 35160   0.271E-01    0.699E-01
DAV:   6    -0.442272983319E+03    0.23970E-02   -0.52368E-03 35632   0.264E-01    0.423E-01
DAV:   7    -0.442272607842E+03    0.37548E-03   -0.27891E-03 36944   0.169E-01    0.182E-01
DAV:   8    -0.442272686623E+03   -0.78781E-04   -0.77925E-04 36152   0.767E-02    0.103E-01
DAV:   9    -0.442272699860E+03   -0.13237E-04   -0.11639E-04 33248   0.325E-02    0.562E-02
DAV:  10    -0.442272700513E+03   -0.65262E-06   -0.30313E-05 27272   0.176E-02
  32 F= -.44227270E+03 E0= -.44226286E+03  d E =-.764337E-02  mag=    78.0000
       N       E                     dE             d eps       ncg     rms          rms(c)
DAV:   1    -0.441988687292E+03    0.28401E+00   -0.38241E+01 34656   0.195E+01    0.250E+00
DAV:   2    -0.442278564379E+03   -0.28988E+00   -0.27541E+00 32048   0.343E+00    0.158E+00
DAV:   3    -0.442286064564E+03   -0.75002E-02   -0.78278E-02 38512   0.839E-01    0.156E+00
DAV:   4    -0.442283842104E+03    0.22225E-02   -0.12221E-02 40632   0.382E-01    0.498E-01
DAV:   5    -0.442282899664E+03    0.94244E-03   -0.18756E-03 36536   0.136E-01    0.356E-01
DAV:   6    -0.442281979494E+03    0.92017E-03   -0.18059E-03 38304   0.165E-01    0.253E-01
DAV:   7    -0.442281909630E+03    0.69864E-04   -0.12756E-03 40520   0.117E-01    0.130E-01
DAV:   8    -0.442281925791E+03   -0.16161E-04   -0.31148E-04 37336   0.527E-02    0.945E-02
DAV:   9    -0.442281914855E+03    0.10936E-04   -0.61100E-05 26656   0.296E-02    0.381E-02
DAV:  10    -0.442281912426E+03    0.24288E-05   -0.15936E-05 21064   0.138E-02
  33 F= -.44228191E+03 E0= -.44227213E+03  d E =-.921191E-02  mag=    78.0000
       N       E                     dE             d eps       ncg     rms          rms(c)
DAV:   1    -0.441902103630E+03    0.37981E+00   -0.90048E+01 33424   0.239E+01    0.251E+00
DAV:   2    -0.442295938201E+03   -0.39383E+00   -0.38893E+00 31192   0.413E+00    0.155E+00
DAV:   3    -0.442300663101E+03   -0.47249E-02   -0.85339E-02 36888   0.823E-01    0.115E+00
DAV:   4    -0.442298693491E+03    0.19696E-02   -0.11717E-02 39792   0.308E-01    0.560E-01
DAV:   5    -0.442296498291E+03    0.21952E-02   -0.27734E-03 35344   0.168E-01    0.423E-01
DAV:   6    -0.442295150739E+03    0.13476E-02   -0.28755E-03 36840   0.187E-01    0.217E-01
DAV:   7    -0.442295119142E+03    0.31597E-04   -0.15168E-03 37720   0.115E-01    0.169E-01
DAV:   8    -0.442295125680E+03   -0.65384E-05   -0.37992E-04 37048   0.620E-02    0.867E-02
DAV:   9    -0.442295120102E+03    0.55782E-05   -0.62468E-05 30888   0.284E-02
  34 F= -.44229512E+03 E0= -.44228530E+03  d E =-.132077E-01  mag=    78.0000
       N       E                     dE             d eps       ncg     rms          rms(c)
DAV:   1    -0.442250143535E+03    0.44982E-01   -0.45057E+00 34032   0.795E+00    0.113E+00
DAV:   2    -0.442302450985E+03   -0.52307E-01   -0.48772E-01 31552   0.143E+00    0.574E-01
DAV:   3    -0.442304527369E+03   -0.20764E-02   -0.16138E-02 38184   0.307E-01    0.384E-01
DAV:   4    -0.442304428172E+03    0.99197E-04   -0.15737E-03 40368   0.112E-01    0.204E-01
DAV:   5    -0.442304295765E+03    0.13241E-03   -0.19858E-04 36848   0.484E-02    0.156E-01
DAV:   6    -0.442304182200E+03    0.11357E-03   -0.19471E-04 34800   0.624E-02    0.134E-01
DAV:   7    -0.442304140110E+03    0.42090E-04   -0.19178E-04 36384   0.570E-02    0.565E-02
DAV:   8    -0.442304143909E+03   -0.37994E-05   -0.65794E-05 33472   0.241E-02
  35 F= -.44230414E+03 E0= -.44229418E+03  d E =-.902381E-02  mag=    78.0000
       N       E                     dE             d eps       ncg     rms          rms(c)
DAV:   1    -0.442298037417E+03    0.61027E-02   -0.54511E-01 35296   0.304E+00    0.454E-01
DAV:   2    -0.442305976028E+03   -0.79386E-02   -0.72560E-02 31968   0.529E-01    0.217E-01
DAV:   3    -0.442306317802E+03   -0.34177E-03   -0.24438E-03 35936   0.113E-01    0.136E-01
DAV:   4    -0.442306307403E+03    0.10399E-04   -0.22247E-04 34016   0.438E-02    0.810E-02
DAV:   5    -0.442306288926E+03    0.18477E-04   -0.27926E-05 25856   0.206E-02    0.563E-02
DAV:   6    -0.442306272403E+03    0.16523E-04   -0.42339E-05 29248   0.247E-02    0.506E-02
DAV:   7    -0.442306267174E+03    0.52290E-05   -0.27878E-05 24792   0.214E-02
  36 F= -.44230627E+03 E0= -.44229632E+03  d E =-.212326E-02  mag=    78.0000
