       N       E                     dE             d eps       ncg     rms          rms(c)
DAV:   1     0.651936129615E+04    0.65194E+04   -0.26952E+05 35488   0.155E+03
DAV:   2     0.398459759578E+03   -0.61209E+04   -0.58755E+04 35880   0.476E+02
DAV:   3    -0.370493113438E+03   -0.76895E+03   -0.75188E+03 38208   0.178E+02
DAV:   4    -0.411706152251E+03   -0.41213E+02   -0.40167E+02 48992   0.428E+01
DAV:   5    -0.415058762846E+03   -0.33526E+01   -0.32949E+01 64160   0.861E+00    0.657E+01
DAV:   6    -0.345099715948E+03    0.69959E+02   -0.31888E+02 46480   0.401E+01    0.384E+01
DAV:   7    -0.375299892221E+03   -0.30200E+02   -0.10796E+02 49296   0.267E+01    0.671E+01
DAV:   8    -0.366200634689E+03    0.90993E+01   -0.53134E+01 48976   0.176E+01    0.480E+01
DAV:   9    -0.359853450913E+03    0.63472E+01   -0.11134E+01 49824   0.895E+00    0.256E+01
DAV:  10    -0.368196213768E+03   -0.83428E+01   -0.14084E+01 46632   0.615E+00    0.248E+01
DAV:  11    -0.371131819591E+03   -0.29356E+01   -0.20917E+01 48592   0.562E+00    0.193E+01
DAV:  12    -0.374315077315E+03   -0.31833E+01   -0.29968E+01 46208   0.773E+00    0.253E+01
DAV:  13    -0.377281446900E+03   -0.29664E+01   -0.11878E+01 46440   0.574E+00    0.177E+01
DAV:  14    -0.378950039019E+03   -0.16686E+01   -0.16366E+01 48504   0.378E+00    0.151E+01
DAV:  15    -0.380985905494E+03   -0.20359E+01   -0.11696E+01 47104   0.323E+00    0.174E+01
DAV:  16    -0.381722257605E+03   -0.73635E+00   -0.67580E+00 48048   0.249E+00    0.109E+01
DAV:  17    -0.381900484535E+03   -0.17823E+00   -0.32273E-01 45176   0.157E+00    0.757E+00
DAV:  18    -0.382933312420E+03   -0.10328E+01   -0.45056E-01 45544   0.172E+00    0.592E+00
DAV:  19    -0.384605565291E+03   -0.16723E+01   -0.16964E+00 44960   0.220E+00    0.730E+00
DAV:  20    -0.385295893837E+03   -0.69033E+00   -0.18174E+00 45848   0.220E+00    0.663E+00
DAV:  21    -0.385871653927E+03   -0.57576E+00   -0.87558E-01 43960   0.159E+00    0.544E+00
DAV:  22    -0.386587329030E+03   -0.71568E+00   -0.86694E-01 44400   0.143E+00    0.364E+00
DAV:  23    -0.387295095914E+03   -0.70777E+00   -0.60973E-01 45224   0.145E+00    0.453E+00
DAV:  24    -0.387362016347E+03   -0.66920E-01   -0.45464E-02 43536   0.576E-01    0.388E+00
DAV:  25    -0.387577561741E+03   -0.21555E+00   -0.12994E-01 43584   0.670E-01    0.203E+00
DAV:  26    -0.387798394465E+03   -0.22083E+00   -0.24647E-01 44448   0.818E-01    0.256E+00
DAV:  27    -0.387829559538E+03   -0.31165E-01   -0.43107E-02 43232   0.452E-01    0.156E+00
DAV:  28    -0.387843049148E+03   -0.13490E-01   -0.15898E-02 45728   0.286E-01    0.202E+00
DAV:  29    -0.387842646284E+03    0.40286E-03   -0.25586E-02 45256   0.272E-01    0.822E-01
DAV:  30    -0.387845826184E+03   -0.31799E-02   -0.13671E-02 45920   0.183E-01    0.835E-01
DAV:  31    -0.387845121514E+03    0.70467E-03   -0.41287E-03 43840   0.143E-01    0.366E-01
DAV:  32    -0.387845210082E+03   -0.88568E-04   -0.15362E-03 43208   0.952E-02    0.318E-01
DAV:  33    -0.387845085998E+03    0.12408E-03   -0.11732E-03 43808   0.776E-02    0.184E-01
DAV:  34    -0.387845091837E+03   -0.58391E-05   -0.56020E-04 41496   0.559E-02    0.143E-01
DAV:  35    -0.387845110049E+03   -0.18212E-04   -0.11789E-04 38536   0.323E-02    0.150E-01
DAV:  36    -0.387845087456E+03    0.22594E-04   -0.79752E-05 32304   0.242E-02    0.106E-01
DAV:  37    -0.387845075451E+03    0.12005E-04   -0.79938E-05 30976   0.249E-02    0.343E-02
DAV:  38    -0.387845085298E+03   -0.98471E-05   -0.20341E-05 27152   0.130E-02
   1 F= -.38784509E+03 E0= -.38783208E+03  d E =-.387845E+03  mag=    34.0024
       N       E                     dE             d eps       ncg     rms          rms(c)
DAV:   1    -0.387846417827E+03   -0.13424E-02   -0.12790E-03 36592   0.102E-01    0.230E-02
DAV:   2    -0.387846453526E+03   -0.35699E-04   -0.21397E-04 38416   0.331E-02    0.128E-01
DAV:   3    -0.387846416618E+03    0.36908E-04   -0.86955E-05 29008   0.232E-02    0.223E-02
DAV:   4    -0.387846425741E+03   -0.91232E-05   -0.13768E-05 21408   0.831E-03
   2 F= -.38784643E+03 E0= -.38783344E+03  d E =-.134044E-02  mag=    34.0017
       N       E                     dE             d eps       ncg     rms          rms(c)
DAV:   1    -0.387878854348E+03   -0.32438E-01   -0.14280E+00 36528   0.340E+00    0.422E-01
DAV:   2    -0.387888038487E+03   -0.91841E-02   -0.93760E-02 35880   0.612E-01    0.450E-01
DAV:   3    -0.387890350348E+03   -0.23119E-02   -0.22424E-02 54664   0.236E-01    0.127E+00
DAV:   4    -0.387887900767E+03    0.24496E-02   -0.15771E-02 47960   0.190E-01    0.303E-01
DAV:   5    -0.387888403719E+03   -0.50295E-03   -0.14600E-03 46696   0.821E-02    0.236E-01
DAV:   6    -0.387888412561E+03   -0.88415E-05   -0.72248E-04 45120   0.681E-02    0.196E-01
DAV:   7    -0.387888374024E+03    0.38537E-04   -0.63417E-04 46688   0.569E-02    0.128E-01
DAV:   8    -0.387888382456E+03   -0.84324E-05   -0.25414E-04 39544   0.432E-02    0.728E-02
DAV:   9    -0.387888384657E+03   -0.22012E-05   -0.78005E-05 32584   0.259E-02
   3 F= -.38788838E+03 E0= -.38787543E+03  d E =-.419589E-01  mag=    34.0005
       N       E                     dE             d eps       ncg     rms          rms(c)
DAV:   1    -0.387911956901E+03   -0.23574E-01   -0.97413E+00 36536   0.890E+00    0.111E+00
DAV:   2    -0.387975512759E+03   -0.63556E-01   -0.64546E-01 35304   0.158E+00    0.131E+00
DAV:   3    -0.387989590291E+03   -0.14078E-01   -0.16910E-01 54976   0.648E-01    0.311E+00
DAV:   4    -0.387977960750E+03    0.11630E-01   -0.15171E-01 49040   0.478E-01    0.156E+00
DAV:   5    -0.387976508554E+03    0.14522E-02   -0.12273E-02 48048   0.271E-01    0.487E-01
DAV:   6    -0.387977977604E+03   -0.14691E-02   -0.57396E-03 48920   0.191E-01    0.679E-01
DAV:   7    -0.387977436142E+03    0.54146E-03   -0.49531E-03 49400   0.153E-01    0.401E-01
DAV:   8    -0.387977581991E+03   -0.14585E-03   -0.18542E-03 47624   0.112E-01    0.369E-01
DAV:   9    -0.387977401325E+03    0.18067E-03   -0.11254E-03 47312   0.726E-02    0.990E-02
DAV:  10    -0.387977509890E+03   -0.10856E-03   -0.29994E-04 44240   0.455E-02    0.968E-02
DAV:  11    -0.387977524698E+03   -0.14808E-04   -0.15262E-04 34672   0.301E-02    0.873E-02
DAV:  12    -0.387977516832E+03    0.78657E-05   -0.61146E-05 29392   0.215E-02
   4 F= -.38797752E+03 E0= -.38796461E+03  d E =-.891322E-01  mag=    34.0001
       N       E                     dE             d eps       ncg     rms          rms(c)
DAV:   1    -0.387924340366E+03    0.53184E-01   -0.20424E+01 37032   0.127E+01    0.159E+00
DAV:   2    -0.388057356694E+03   -0.13302E+00   -0.13490E+00 35344   0.227E+00    0.154E+00
DAV:   3    -0.388084010293E+03   -0.26654E-01   -0.32450E-01 55424   0.921E-01    0.350E+00
DAV:   4    -0.388071152795E+03    0.12857E-01   -0.25961E-01 50312   0.625E-01    0.256E+00
DAV:   5    -0.388061036489E+03    0.10116E-01   -0.38903E-02 49208   0.413E-01    0.788E-01
DAV:   6    -0.388063109790E+03   -0.20733E-02   -0.93242E-03 50112   0.239E-01    0.728E-01
DAV:   7    -0.388064020317E+03   -0.91053E-03   -0.81872E-03 49544   0.219E-01    0.833E-01
DAV:   8    -0.388063351708E+03    0.66861E-03   -0.45081E-03 49432   0.177E-01    0.573E-01
DAV:   9    -0.388063099734E+03    0.25197E-03   -0.36892E-03 49152   0.148E-01    0.288E-01
DAV:  10    -0.388063314094E+03   -0.21436E-03   -0.14331E-03 46096   0.911E-02    0.204E-01
DAV:  11    -0.388063287273E+03    0.26821E-04   -0.48565E-04 45456   0.617E-02    0.849E-02
DAV:  12    -0.388063309427E+03   -0.22154E-04   -0.87278E-05 36200   0.277E-02    0.516E-02
DAV:  13    -0.388063310990E+03   -0.15633E-05   -0.32942E-05 27768   0.163E-02
   5 F= -.38806331E+03 E0= -.38805052E+03  d E =-.857942E-01  mag=    34.0000
       N       E                     dE             d eps       ncg     rms          rms(c)
DAV:   1    -0.387971791019E+03    0.91518E-01   -0.26502E+01 37184   0.141E+01    0.156E+00
DAV:   2    -0.388113822200E+03   -0.14203E+00   -0.14438E+00 35520   0.249E+00    0.108E+00
DAV:   3    -0.388135221210E+03   -0.21399E-01   -0.14675E-01 57672   0.757E-01    0.301E+00
DAV:   4    -0.388117939078E+03    0.17282E-01   -0.10473E-01 49984   0.540E-01    0.111E+00
DAV:   5    -0.388120479778E+03   -0.25407E-02   -0.16901E-02 49696   0.292E-01    0.647E-01
DAV:   6    -0.388121457859E+03   -0.97808E-03   -0.10461E-02 48184   0.223E-01    0.915E-01
DAV:   7    -0.388120326070E+03    0.11318E-02   -0.12417E-02 49648   0.210E-01    0.519E-01
DAV:   8    -0.388120568891E+03   -0.24282E-03   -0.29929E-03 48472   0.160E-01    0.385E-01
DAV:   9    -0.388120527645E+03    0.41246E-04   -0.18927E-03 47992   0.106E-01    0.164E-01
DAV:  10    -0.388120563627E+03   -0.35982E-04   -0.34995E-04 44352   0.526E-02    0.964E-02
DAV:  11    -0.388120557777E+03    0.58507E-05   -0.63287E-05 32016   0.252E-02
   6 F= -.38812056E+03 E0= -.38810796E+03  d E =-.572468E-01  mag=    34.0000
       N       E                     dE             d eps       ncg     rms          rms(c)
DAV:   1    -0.387984940781E+03    0.13562E+00   -0.46485E+01 36640   0.173E+01    0.157E+00
DAV:   2    -0.388163340530E+03   -0.17840E+00   -0.18267E+00 35240   0.303E+00    0.151E+00
DAV:   3    -0.388197434920E+03   -0.34094E-01   -0.37526E-01 55992   0.968E-01    0.460E+00
DAV:   4    -0.388158462410E+03    0.38973E-01   -0.22995E-01 50360   0.702E-01    0.123E+00
DAV:   5    -0.388165647770E+03   -0.71854E-02   -0.15855E-02 47976   0.325E-01    0.560E-01
DAV:   6    -0.388166828717E+03   -0.11809E-02   -0.82516E-03 48616   0.248E-01    0.838E-01
DAV:   7    -0.388166099846E+03    0.72887E-03   -0.14513E-02 49608   0.232E-01    0.824E-01
DAV:   8    -0.388165539271E+03    0.56057E-03   -0.67598E-03 48880   0.191E-01    0.558E-01
DAV:   9    -0.388165401034E+03    0.13824E-03   -0.17408E-03 47224   0.121E-01    0.127E-01
DAV:  10    -0.388165705114E+03   -0.30408E-03   -0.63401E-04 47744   0.576E-02    0.170E-01
DAV:  11    -0.388165704376E+03    0.73726E-06   -0.13102E-04 37440   0.362E-02    0.898E-02
DAV:  12    -0.388165703511E+03    0.86571E-06   -0.10018E-04 32776   0.266E-02    0.598E-02
DAV:  13    -0.388165703279E+03    0.23208E-06   -0.51914E-05 28408   0.190E-02
   7 F= -.38816570E+03 E0= -.38815318E+03  d E =-.451455E-01  mag=    34.0000
       N       E                     dE             d eps       ncg     rms          rms(c)
DAV:   1    -0.387612101189E+03    0.55360E+00   -0.14417E+02 36128   0.313E+01    0.284E+00
DAV:   2    -0.388208878815E+03   -0.59678E+00   -0.61132E+00 34968   0.557E+00    0.352E+00
DAV:   3    -0.388249808753E+03   -0.40930E-01   -0.13691E+00 52304   0.188E+00    0.307E+00
DAV:   4    -0.388228581041E+03    0.21228E-01   -0.71756E-02 50928   0.907E-01    0.224E+00
DAV:   5    -0.388218418582E+03    0.10162E-01   -0.57675E-02 50824   0.485E-01    0.210E+00
DAV:   6    -0.388207092671E+03    0.11326E-01   -0.38546E-02 50800   0.501E-01    0.943E-01
DAV:   7    -0.388225590612E+03   -0.18498E-01   -0.12980E-01 49536   0.538E-01    0.354E+00
DAV:   8    -0.388204649943E+03    0.20941E-01   -0.46886E-02 45976   0.465E-01    0.174E+00
DAV:   9    -0.388207207993E+03   -0.25580E-02   -0.93505E-02 49912   0.473E-01    0.107E+00
DAV:  10    -0.388209905771E+03   -0.26978E-02   -0.96547E-03 42448   0.276E-01    0.882E-01
DAV:  11    -0.388207980553E+03    0.19252E-02   -0.31787E-03 48248   0.155E-01    0.406E-01
DAV:  12    -0.388208068598E+03   -0.88046E-04   -0.10489E-03 47448   0.868E-02    0.154E-01
DAV:  13    -0.388208287080E+03   -0.21848E-03   -0.25384E-04 41624   0.495E-02    0.839E-02
DAV:  14    -0.388208335631E+03   -0.48551E-04   -0.14660E-04 34864   0.362E-02    0.975E-02
DAV:  15    -0.388208355539E+03   -0.19908E-04   -0.76205E-05 32552   0.260E-02    0.917E-02
DAV:  16    -0.388208344123E+03    0.11416E-04   -0.41603E-05 26688   0.164E-02    0.403E-02
DAV:  17    -0.388208348933E+03   -0.48098E-05   -0.93107E-06 21168   0.111E-02
   8 F= -.38820835E+03 E0= -.38819573E+03  d E =-.426457E-01  mag=    34.0000
       N       E                     dE             d eps       ncg     rms          rms(c)
DAV:   1    -0.388001833928E+03    0.20651E+00   -0.65351E+01 36888   0.203E+01    0.187E+00
DAV:   2    -0.388253929670E+03   -0.25210E+00   -0.26279E+00 35800   0.363E+00    0.219E+00
DAV:   3    -0.388279943081E+03   -0.26013E-01   -0.51093E-01 51064   0.113E+00    0.394E+00
DAV:   4    -0.388249735347E+03    0.30208E-01   -0.24679E-01 50744   0.774E-01    0.140E+00
DAV:   5    -0.388252560871E+03   -0.28255E-02   -0.26368E-02 49592   0.389E-01    0.659E-01
DAV:   6    -0.388252965180E+03   -0.40431E-03   -0.10986E-02 50008   0.299E-01    0.894E-01
DAV:   7    -0.388253002952E+03   -0.37772E-04   -0.28321E-02 49992   0.333E-01    0.124E+00
DAV:   8    -0.388250489129E+03    0.25138E-02   -0.14079E-02 48736   0.238E-01    0.530E-01
DAV:   9    -0.388250954228E+03   -0.46510E-03   -0.31875E-03 49712   0.175E-01    0.252E-01
DAV:  10    -0.388251113511E+03   -0.15928E-03   -0.15768E-03 47168   0.993E-02    0.230E-01
DAV:  11    -0.388251030326E+03    0.83185E-04   -0.50877E-04 48944   0.600E-02    0.121E-01
DAV:  12    -0.388251031506E+03   -0.11799E-05   -0.14264E-04 38720   0.392E-02    0.787E-02
DAV:  13    -0.388251069348E+03   -0.37842E-04   -0.14731E-04 35192   0.361E-02    0.632E-02
DAV:  14    -0.388251087521E+03   -0.18174E-04   -0.78027E-05 31848   0.236E-02    0.469E-02
DAV:  15    -0.388251087243E+03    0.27857E-06   -0.14507E-05 26160   0.133E-02
   9 F= -.38825109E+03 E0= -.38823884E+03  d E =-.427383E-01  mag=    34.0000
       N       E                     dE             d eps       ncg     rms          rms(c)
DAV:   1    -0.388225024968E+03    0.26063E-01   -0.32887E+00 38184   0.604E+00    0.849E-01
DAV:   2    -0.388262954281E+03   -0.37929E-01   -0.38021E-01 35832   0.117E+00    0.149E+00
DAV:   3    -0.388266376465E+03   -0.34222E-02   -0.10705E-01 50256   0.555E-01    0.154E+00
DAV:   4    -0.388264025461E+03    0.23510E-02   -0.14871E-02 49504   0.324E-01    0.910E-01
DAV:   5    -0.388263266793E+03    0.75867E-03   -0.90988E-03 48864   0.171E-01    0.414E-01
DAV:   6    -0.388263814750E+03   -0.54796E-03   -0.25371E-03 48088   0.134E-01    0.412E-01
DAV:   7    -0.388263983592E+03   -0.16884E-03   -0.17737E-03 48744   0.105E-01    0.431E-01
DAV:   8    -0.388263715780E+03    0.26781E-03   -0.22494E-03 48264   0.102E-01    0.191E-01
DAV:   9    -0.388263847440E+03   -0.13166E-03   -0.48108E-04 46400   0.628E-02    0.150E-01
DAV:  10    -0.388263827125E+03    0.20315E-04   -0.31748E-04 35328   0.456E-02    0.862E-02
DAV:  11    -0.388263821619E+03    0.55062E-05   -0.82041E-05 31808   0.265E-02
  10 F= -.38826382E+03 E0= -.38825128E+03  d E =-.127344E-01  mag=    34.0000
       N       E                     dE             d eps       ncg     rms          rms(c)
DAV:   1    -0.388262541159E+03    0.12860E-02   -0.57175E-01 37112   0.229E+00    0.269E-01
DAV:   2    -0.388266654178E+03   -0.41130E-02   -0.41411E-02 35776   0.427E-01    0.351E-01
DAV:   3    -0.388267468001E+03   -0.81382E-03   -0.56502E-03 51312   0.169E-01    0.726E-01
DAV:   4    -0.388266589391E+03    0.87861E-03   -0.32360E-03 46728   0.125E-01    0.242E-01
DAV:   5    -0.388266780954E+03   -0.19156E-03   -0.96962E-04 42392   0.563E-02    0.117E-01
DAV:   6    -0.388266825822E+03   -0.44869E-04   -0.23262E-04 36560   0.387E-02    0.129E-01
DAV:   7    -0.388266813250E+03    0.12572E-04   -0.31614E-04 38392   0.428E-02    0.105E-01
DAV:   8    -0.388266808300E+03    0.49499E-05   -0.12301E-04 35856   0.329E-02    0.683E-02
DAV:   9    -0.388266808733E+03   -0.43262E-06   -0.57319E-05 30704   0.227E-02
  11 F= -.38826681E+03 E0= -.38825419E+03  d E =-.298711E-02  mag=    34.0000
       N       E                     dE             d eps       ncg     rms          rms(c)
DAV:   1    -0.388267449237E+03   -0.64094E-03   -0.56393E-01 36776   0.199E+00    0.182E-01
DAV:   2    -0.388269717899E+03   -0.22687E-02   -0.23082E-02 35296   0.354E-01    0.236E-01
DAV:   3    -0.388270060770E+03   -0.34287E-03   -0.26542E-03 51336   0.118E-01    0.499E-01
DAV:   4    -0.388269618504E+03    0.44227E-03   -0.15135E-03 46208   0.851E-02    0.166E-01
DAV:   5    -0.388269715229E+03   -0.96725E-04   -0.48559E-04 36144   0.415E-02    0.890E-02
DAV:   6    -0.388269737040E+03   -0.21811E-04   -0.17409E-04 33816   0.311E-02    0.104E-01
DAV:   7    -0.388269719133E+03    0.17907E-04   -0.15955E-04 36024   0.327E-02    0.653E-02
DAV:   8    -0.388269721933E+03   -0.27999E-05   -0.86049E-05 30768   0.240E-02
  12 F= -.38826972E+03 E0= -.38825711E+03  d E =-.291320E-02  mag=    34.0000
       N       E                     dE             d eps       ncg     rms          rms(c)
DAV:   1    -0.388265052151E+03    0.46670E-02   -0.28603E+00 36696   0.446E+00    0.389E-01
DAV:   2    -0.388275819814E+03   -0.10768E-01   -0.11078E-01 35000   0.779E-01    0.320E-01
DAV:   3    -0.388277754167E+03   -0.19344E-02   -0.15007E-02 51704   0.221E-01    0.112E+00
DAV:   4    -0.388275312576E+03    0.24416E-02   -0.87205E-03 47816   0.172E-01    0.196E-01
DAV:   5    -0.388276057924E+03   -0.74535E-03   -0.98288E-04 48536   0.791E-02    0.234E-01
DAV:   6    -0.388276040503E+03    0.17421E-04   -0.65797E-04 44128   0.674E-02    0.194E-01
DAV:   7    -0.388275992516E+03    0.47987E-04   -0.42823E-04 47336   0.579E-02    0.935E-02
DAV:   8    -0.388276022372E+03   -0.29856E-04   -0.36607E-04 42408   0.407E-02    0.104E-01
DAV:   9    -0.388276009283E+03    0.13090E-04   -0.13936E-04 31592   0.275E-02    0.407E-02
DAV:  10    -0.388276011642E+03   -0.23596E-05   -0.25706E-05 24496   0.139E-02
  13 F= -.38827601E+03 E0= -.38826340E+03  d E =-.628971E-02  mag=    34.0000
       N       E                     dE             d eps       ncg     rms          rms(c)
DAV:   1    -0.388221734944E+03    0.54274E-01   -0.18709E+01 36624   0.112E+01    0.970E-01
DAV:   2    -0.388290690444E+03   -0.68955E-01   -0.71097E-01 34944   0.197E+00    0.975E-01
DAV:   3    -0.388304976782E+03   -0.14286E-01   -0.15597E-01 50296   0.618E-01    0.319E+00
DAV:   4    -0.388285897221E+03    0.19080E-01   -0.81056E-02 48608   0.468E-01    0.670E-01
DAV:   5    -0.388290952162E+03   -0.50549E-02   -0.85299E-03 50504   0.202E-01    0.457E-01
DAV:   6    -0.388291362801E+03   -0.41064E-03   -0.36462E-03 48560   0.164E-01    0.528E-01
DAV:   7    -0.388291154898E+03    0.20790E-03   -0.44641E-03 49216   0.161E-01    0.475E-01
DAV:   8    -0.388290882469E+03    0.27243E-03   -0.20018E-03 47800   0.128E-01    0.252E-01
DAV:   9    -0.388290921322E+03   -0.38853E-04   -0.48738E-04 46904   0.715E-02    0.925E-02
DAV:  10    -0.388290965542E+03   -0.44220E-04   -0.24979E-04 38992   0.379E-02    0.940E-02
DAV:  11    -0.388290956835E+03    0.87071E-05   -0.96149E-05 31864   0.238E-02
  14 F= -.38829096E+03 E0= -.38827833E+03  d E =-.149452E-01  mag=    34.0000
       N       E                     dE             d eps       ncg     rms          rms(c)
DAV:   1    -0.388059617287E+03    0.23135E+00   -0.38595E+01 37336   0.180E+01    0.203E+00
DAV:   2    -0.388297235765E+03   -0.23762E+00   -0.24401E+00 35176   0.334E+00    0.309E+00
DAV:   3    -0.388331857749E+03   -0.34622E-01   -0.95409E-01 50320   0.135E+00    0.402E+00
DAV:   4    -0.388298512438E+03    0.33345E-01   -0.17886E-01 49672   0.853E-01    0.199E+00
DAV:   5    -0.388296294017E+03    0.22184E-02   -0.34060E-02 52416   0.416E-01    0.118E+00
DAV:   6    -0.388297205167E+03   -0.91115E-03   -0.17482E-02 49368   0.314E-01    0.965E-01
DAV:   7    -0.388299825990E+03   -0.26208E-02   -0.22722E-02 49944   0.338E-01    0.138E+00
DAV:   8    -0.388298043152E+03    0.17828E-02   -0.83701E-03 48648   0.277E-01    0.118E+00
DAV:   9    -0.388296061835E+03    0.19813E-02   -0.11513E-02 50448   0.227E-01    0.419E-01
DAV:  10    -0.388297363091E+03   -0.13013E-02   -0.31488E-03 47056   0.152E-01    0.402E-01
DAV:  11    -0.388297114474E+03    0.24862E-03   -0.13969E-03 48848   0.941E-02    0.161E-01
DAV:  12    -0.388297170879E+03   -0.56405E-04   -0.39248E-04 47512   0.518E-02    0.118E-01
DAV:  13    -0.388297171939E+03   -0.10605E-05   -0.16270E-04 40432   0.340E-02    0.498E-02
DAV:  14    -0.388297169345E+03    0.25939E-05   -0.49148E-05 29096   0.168E-02
  15 F= -.38829717E+03 E0= -.38828517E+03  d E =-.621251E-02  mag=    34.0000
       N       E                     dE             d eps       ncg     rms          rms(c)
DAV:   1    -0.388240261830E+03    0.56910E-01   -0.60502E+00 38264   0.854E+00    0.125E+00
DAV:   2    -0.388320632831E+03   -0.80371E-01   -0.81550E-01 36168   0.168E+00    0.286E+00
DAV:   3    -0.388317663916E+03    0.29689E-02   -0.37343E-01 49584   0.833E-01    0.188E+00
DAV:   4    -0.388321640643E+03   -0.39767E-02   -0.50806E-02 48984   0.461E-01    0.186E+00
DAV:   5    -0.388315848151E+03    0.57925E-02   -0.31203E-02 49608   0.306E-01    0.654E-01
DAV:   6    -0.388316915900E+03   -0.10677E-02   -0.61665E-03 48992   0.194E-01    0.503E-01
DAV:   7    -0.388317539348E+03   -0.62345E-03   -0.34389E-03 48952   0.156E-01    0.587E-01
DAV:   8    -0.388317041175E+03    0.49817E-03   -0.33487E-03 47768   0.135E-01    0.267E-01
DAV:   9    -0.388317225792E+03   -0.18462E-03   -0.13561E-03 48424   0.116E-01    0.218E-01
DAV:  10    -0.388317205297E+03    0.20495E-04   -0.56494E-04 48584   0.648E-02    0.156E-01
DAV:  11    -0.388317194556E+03    0.10741E-04   -0.34591E-04 39512   0.416E-02    0.809E-02
DAV:  12    -0.388317195084E+03   -0.52786E-06   -0.87086E-05 31184   0.256E-02
  16 F= -.38831720E+03 E0= -.38830479E+03  d E =-.200257E-01  mag=    34.0000
       N       E                     dE             d eps       ncg     rms          rms(c)
DAV:   1    -0.388309992615E+03    0.72019E-02   -0.99600E-01 37752   0.297E+00    0.387E-01
DAV:   2    -0.388318395609E+03   -0.84030E-02   -0.83121E-02 36104   0.573E-01    0.878E-01
DAV:   3    -0.388318393056E+03    0.25529E-05   -0.20985E-02 50608   0.268E-01    0.821E-01
DAV:   4    -0.388318080917E+03    0.31214E-03   -0.61021E-03 47968   0.161E-01    0.500E-01
DAV:   5    -0.388317866662E+03    0.21425E-03   -0.24410E-03 47832   0.946E-02    0.153E-01
DAV:   6    -0.388318014769E+03   -0.14811E-03   -0.38505E-04 45200   0.509E-02    0.175E-01
DAV:   7    -0.388318023766E+03   -0.89973E-05   -0.46730E-04 45896   0.585E-02    0.179E-01
DAV:   8    -0.388317998835E+03    0.24931E-04   -0.51035E-04 45528   0.519E-02    0.136E-01
DAV:   9    -0.388317985032E+03    0.13804E-04   -0.29328E-04 34656   0.370E-02    0.584E-02
DAV:  10    -0.388317987976E+03   -0.29439E-05   -0.41979E-05 31328   0.194E-02
  17 F= -.38831799E+03 E0= -.38830544E+03  d E =-.792892E-03  mag=    34.0000
       N       E                     dE             d eps       ncg     rms          rms(c)
DAV:   1    -0.388316630918E+03    0.13541E-02   -0.15638E-01 37352   0.124E+00    0.142E-01
DAV:   2    -0.388317735393E+03   -0.11045E-02   -0.10975E-02 35520   0.225E-01    0.193E-01
DAV:   3    -0.388317900927E+03   -0.16553E-03   -0.19338E-03 49448   0.939E-02    0.326E-01
DAV:   4    -0.388317719107E+03    0.18182E-03   -0.80062E-04 40376   0.632E-02    0.635E-02
DAV:   5    -0.388317775785E+03   -0.56678E-04   -0.96502E-05 32400   0.249E-02    0.765E-02
DAV:   6    -0.388317778062E+03   -0.22777E-05   -0.10206E-04 30384   0.210E-02    0.796E-02
DAV:   7    -0.388317771459E+03    0.66030E-05   -0.53036E-05 28200   0.189E-02
  18 F= -.38831777E+03 E0= -.38830526E+03  d E =0.216516E-03  mag=    34.0000
       N       E                     dE             d eps       ncg     rms          rms(c)
DAV:   1    -0.388306795495E+03    0.10983E-01   -0.18300E+00 36816   0.376E+00    0.369E-01
DAV:   2    -0.388315294975E+03   -0.84995E-02   -0.87184E-02 35064   0.657E-01    0.371E-01
DAV:   3    -0.388316557249E+03   -0.12623E-02   -0.12431E-02 50688   0.215E-01    0.839E-01
DAV:   4    -0.388315276414E+03    0.12808E-02   -0.61638E-03 47608   0.159E-01    0.236E-01
DAV:   5    -0.388315576446E+03   -0.30003E-03   -0.88277E-04 47792   0.722E-02    0.181E-01
DAV:   6    -0.388315644815E+03   -0.68369E-04   -0.76354E-04 45856   0.576E-02    0.263E-01
DAV:   7    -0.388315579301E+03    0.65514E-04   -0.78035E-04 46464   0.644E-02    0.194E-01
DAV:   8    -0.388315543199E+03    0.36102E-04   -0.30873E-04 45552   0.493E-02    0.576E-02
DAV:   9    -0.388315572572E+03   -0.29373E-04   -0.12458E-04 32176   0.269E-02    0.683E-02
DAV:  10    -0.388315564677E+03    0.78953E-05   -0.54013E-05 29888   0.196E-02
  19 F= -.38831556E+03 E0= -.38830311E+03  d E =0.220678E-02  mag=    34.0000
       N       E                     dE             d eps       ncg     rms          rms(c)
DAV:   1    -0.388308807815E+03    0.67648E-02   -0.13443E+00 36488   0.300E+00    0.265E-01
DAV:   2    -0.388313780927E+03   -0.49731E-02   -0.51673E-02 34960   0.524E-01    0.267E-01
DAV:   3    -0.388314739153E+03   -0.95823E-03   -0.75898E-03 50256   0.171E-01    0.813E-01
DAV:   4    -0.388313449071E+03    0.12901E-02   -0.40611E-03 48136   0.127E-01    0.177E-01
DAV:   5    -0.388313804252E+03   -0.35518E-03   -0.52559E-04 47992   0.533E-02    0.105E-01
DAV:   6    -0.388313828214E+03   -0.23961E-04   -0.17711E-04 42296   0.399E-02    0.112E-01
DAV:   7    -0.388313811375E+03    0.16839E-04   -0.18114E-04 41280   0.384E-02    0.666E-02
DAV:   8    -0.388313820674E+03   -0.92995E-05   -0.15421E-04 31920   0.270E-02    0.749E-02
DAV:   9    -0.388313814492E+03    0.61827E-05   -0.66252E-05 27960   0.208E-02
  20 F= -.38831381E+03 E0= -.38830141E+03  d E =0.175018E-02  mag=    34.0000
       N       E                     dE             d eps       ncg     rms          rms(c)
DAV:   1    -0.387977489921E+03    0.33633E+00   -0.77768E+01 36744   0.237E+01    0.216E+00
DAV:   2    -0.388294918271E+03   -0.31743E+00   -0.33107E+00 34944   0.416E+00    0.156E+00
DAV:   3    -0.388321909298E+03   -0.26991E-01   -0.24850E-01 50472   0.111E+00    0.353E+00
DAV:   4    -0.388299990871E+03    0.21918E-01   -0.17666E-01 50864   0.750E-01    0.138E+00
DAV:   5    -0.388303278422E+03   -0.32876E-02   -0.25929E-02 50328   0.391E-01    0.871E-01
DAV:   6    -0.388306970731E+03   -0.36923E-02   -0.60332E-02 50344   0.359E-01    0.185E+00
DAV:   7    -0.388301068427E+03    0.59023E-02   -0.60858E-02 48200   0.366E-01    0.744E-01
DAV:   8    -0.388302303636E+03   -0.12352E-02   -0.66891E-03 48616   0.248E-01    0.345E-01
DAV:   9    -0.388302734033E+03   -0.43040E-03   -0.19486E-03 47928   0.124E-01    0.306E-01
DAV:  10    -0.388302599878E+03    0.13416E-03   -0.10453E-03 48896   0.791E-02    0.145E-01
DAV:  11    -0.388302601461E+03   -0.15832E-05   -0.20776E-04 37848   0.390E-02    0.702E-02
DAV:  12    -0.388302605607E+03   -0.41465E-05   -0.65493E-05 32864   0.252E-02
  21 F= -.38830261E+03 E0= -.38829056E+03  d E =0.112089E-01  mag=    34.0000
       N       E                     dE             d eps       ncg     rms          rms(c)
DAV:   1    -0.385412462328E+03    0.28901E+01   -0.18338E+02 38064   0.492E+01    0.744E+00
DAV:   2    -0.388353105875E+03   -0.29406E+01   -0.28264E+01 36032   0.102E+01    0.171E+01
DAV:   3    -0.388095369599E+03    0.25774E+00   -0.13755E+01 47424   0.399E+00    0.102E+01
DAV:   4    -0.388347167075E+03   -0.25180E+00   -0.75722E+00 50064   0.301E+00    0.136E+01
DAV:   5    -0.388335734886E+03    0.11432E-01   -0.69002E+00 50488   0.195E+00    0.108E+01
DAV:   6    -0.388133945947E+03    0.20179E+00   -0.23137E+00 49152   0.189E+00    0.820E+00
DAV:   7    -0.388054144232E+03    0.79802E-01   -0.91967E-01 48752   0.125E+00    0.335E+00
DAV:   8    -0.388107987030E+03   -0.53843E-01   -0.47427E-01 49216   0.121E+00    0.517E+00
DAV:   9    -0.388091119629E+03    0.16867E-01   -0.39423E-01 50448   0.857E-01    0.383E+00
DAV:  10    -0.388074422449E+03    0.16697E-01   -0.39872E-02 47584   0.611E-01    0.234E+00
DAV:  11    -0.388076424841E+03   -0.20024E-02   -0.81166E-02 51080   0.593E-01    0.208E+00
DAV:  12    -0.388080161347E+03   -0.37365E-02   -0.51653E-02 50368   0.484E-01    0.181E+00
DAV:  13    -0.388076514355E+03    0.36470E-02   -0.22828E-02 48640   0.407E-01    0.116E+00
DAV:  14    -0.388077255523E+03   -0.74117E-03   -0.23892E-02 50240   0.328E-01    0.821E-01
DAV:  15    -0.388078614980E+03   -0.13595E-02   -0.61150E-03 48216   0.243E-01    0.746E-01
DAV:  16    -0.388078148989E+03    0.46599E-03   -0.52998E-03 50360   0.163E-01    0.399E-01
DAV:  17    -0.388078724375E+03   -0.57539E-03   -0.44926E-03 48528   0.132E-01    0.561E-01
DAV:  18    -0.388078371188E+03    0.35319E-03   -0.15409E-03 46616   0.105E-01    0.182E-01
DAV:  19    -0.388078462115E+03   -0.90927E-04   -0.42165E-04 45768   0.436E-02    0.978E-02
DAV:  20    -0.388078498155E+03   -0.36040E-04   -0.13711E-04 36328   0.296E-02    0.717E-02
DAV:  21    -0.388078485101E+03    0.13054E-04   -0.41275E-05 31400   0.210E-02    0.647E-02
DAV:  22    -0.388078465241E+03    0.19860E-04   -0.42812E-05 30768   0.176E-02    0.526E-02
DAV:  23    -0.388078457927E+03    0.73136E-05   -0.36435E-05 29160   0.159E-02
  22 F= -.38807846E+03 E0= -.38806327E+03  d E =0.224148E+00  mag=    34.0000
       N       E                     dE             d eps       ncg     rms          rms(c)
DAV:   1    -0.387751151163E+03    0.32731E+00   -0.38382E+01 38592   0.227E+01    0.328E+00
DAV:   2    -0.388278759501E+03   -0.52761E+00   -0.51698E+00 36304   0.442E+00    0.400E+00
DAV:   3    -0.388383546150E+03   -0.10479E+00   -0.20749E+00 48744   0.211E+00    0.681E+00
DAV:   4    -0.388309468238E+03    0.74078E-01   -0.91219E-01 48888   0.142E+00    0.389E+00
DAV:   5    -0.388296979957E+03    0.12488E-01   -0.99754E-02 49776   0.713E-01    0.173E+00
DAV:   6    -0.388302411189E+03   -0.54312E-02   -0.68912E-02 50032   0.512E-01    0.171E+00
DAV:   7    -0.388302608820E+03   -0.19763E-03   -0.45476E-02 49592   0.464E-01    0.153E+00
DAV:   8    -0.388301740106E+03    0.86871E-03   -0.17009E-02 49024   0.352E-01    0.104E+00
DAV:   9    -0.388303268868E+03   -0.15288E-02   -0.35150E-02 50632   0.353E-01    0.121E+00
DAV:  10    -0.388301993445E+03    0.12754E-02   -0.19392E-02 49384   0.292E-01    0.645E-01
DAV:  11    -0.388301957793E+03    0.35652E-04   -0.57746E-03 48464   0.192E-01    0.282E-01
DAV:  12    -0.388302109489E+03   -0.15170E-03   -0.11358E-03 50512   0.107E-01    0.206E-01
DAV:  13    -0.388302076776E+03    0.32713E-04   -0.39950E-04 45184   0.671E-02    0.112E-01
DAV:  14    -0.388302045926E+03    0.30850E-04   -0.11223E-04 37568   0.311E-02    0.471E-02
DAV:  15    -0.388302045342E+03    0.58376E-06   -0.10211E-04 35064   0.235E-02    0.514E-02
DAV:  16    -0.388302038949E+03    0.63931E-05   -0.51995E-05 30176   0.176E-02
  23 F= -.38830204E+03 E0= -.38828863E+03  d E =-.223581E+00  mag=    34.0000
       N       E                     dE             d eps       ncg     rms          rms(c)
DAV:   1    -0.388217784649E+03    0.84261E-01   -0.82546E+00 38656   0.107E+01    0.158E+00
DAV:   2    -0.388339319910E+03   -0.12154E+00   -0.11651E+00 36488   0.205E+00    0.216E+00
DAV:   3    -0.388366260886E+03   -0.26941E-01   -0.55230E-01 49624   0.104E+00    0.383E+00
DAV:   4    -0.388339963592E+03    0.26297E-01   -0.22857E-01 48688   0.734E-01    0.130E+00
DAV:   5    -0.388343395111E+03   -0.34315E-02   -0.14675E-02 48032   0.319E-01    0.562E-01
DAV:   6    -0.388345321428E+03   -0.19263E-02   -0.11537E-02 49560   0.226E-01    0.799E-01
DAV:   7    -0.388344926659E+03    0.39477E-03   -0.13933E-02 48640   0.225E-01    0.631E-01
DAV:   8    -0.388345003083E+03   -0.76424E-04   -0.34651E-03 48856   0.161E-01    0.485E-01
DAV:   9    -0.388344717332E+03    0.28575E-03   -0.21302E-03 47696   0.137E-01    0.194E-01
DAV:  10    -0.388344914489E+03   -0.19716E-03   -0.15084E-03 47288   0.862E-02    0.230E-01
DAV:  11    -0.388344836651E+03    0.77838E-04   -0.72266E-04 47896   0.604E-02    0.725E-02
DAV:  12    -0.388344847549E+03   -0.10898E-04   -0.65702E-05 35200   0.287E-02    0.489E-02
DAV:  13    -0.388344844302E+03    0.32470E-05   -0.30717E-05 31392   0.199E-02
  24 F= -.38834484E+03 E0= -.38833206E+03  d E =-.428054E-01  mag=    34.0000
       N       E                     dE             d eps       ncg     rms          rms(c)
DAV:   1    -0.388288252325E+03    0.56595E-01   -0.39990E+00 38608   0.747E+00    0.111E+00
DAV:   2    -0.388346988736E+03   -0.58736E-01   -0.56438E-01 36232   0.143E+00    0.137E+00
DAV:   3    -0.388362236228E+03   -0.15247E-01   -0.25952E-01 50448   0.710E-01    0.301E+00
DAV:   4    -0.388345864937E+03    0.16371E-01   -0.13196E-01 47368   0.525E-01    0.671E-01
DAV:   5    -0.388350151795E+03   -0.42869E-02   -0.60871E-03 46488   0.206E-01    0.409E-01
DAV:   6    -0.388350881112E+03   -0.72932E-03   -0.52334E-03 48672   0.148E-01    0.586E-01
DAV:   7    -0.388350524163E+03    0.35695E-03   -0.60785E-03 47848   0.150E-01    0.368E-01
DAV:   8    -0.388350651634E+03   -0.12747E-03   -0.18286E-03 46360   0.114E-01    0.276E-01
DAV:   9    -0.388350558861E+03    0.92773E-04   -0.68337E-04 48208   0.824E-02    0.906E-02
DAV:  10    -0.388350610166E+03   -0.51305E-04   -0.24066E-04 46016   0.444E-02    0.107E-01
DAV:  11    -0.388350593639E+03    0.16527E-04   -0.15258E-04 33360   0.302E-02    0.577E-02
DAV:  12    -0.388350591792E+03    0.18475E-05   -0.53371E-05 29680   0.198E-02
  25 F= -.38835059E+03 E0= -.38833824E+03  d E =-.574749E-02  mag=    34.0000
       N       E                     dE             d eps       ncg     rms          rms(c)
DAV:   1    -0.388343572770E+03    0.70209E-02   -0.55705E-01 37584   0.236E+00    0.281E-01
DAV:   2    -0.388347746769E+03   -0.41740E-02   -0.42119E-02 35744   0.437E-01    0.292E-01
DAV:   3    -0.388348951544E+03   -0.12048E-02   -0.99842E-03 50400   0.169E-01    0.860E-01
DAV:   4    -0.388347491365E+03    0.14602E-02   -0.54502E-03 47048   0.136E-01    0.125E-01
DAV:   5    -0.388347959573E+03   -0.46821E-03   -0.42132E-04 44656   0.532E-02    0.155E-01
DAV:   6    -0.388347990790E+03   -0.31217E-04   -0.50126E-04 38864   0.482E-02    0.179E-01
DAV:   7    -0.388347955154E+03    0.35637E-04   -0.32105E-04 38808   0.427E-02    0.100E-01
DAV:   8    -0.388347965720E+03   -0.10566E-04   -0.16461E-04 32760   0.300E-02    0.798E-02
DAV:   9    -0.388347962789E+03    0.29307E-05   -0.76424E-05 30176   0.227E-02
  26 F= -.38834796E+03 E0= -.38833571E+03  d E =0.262900E-02  mag=    34.0000
       N       E                     dE             d eps       ncg     rms          rms(c)
DAV:   1    -0.388338903284E+03    0.90624E-02   -0.12422E+00 36336   0.276E+00    0.281E-01
DAV:   2    -0.388343771948E+03   -0.48687E-02   -0.51941E-02 35112   0.498E-01    0.258E-01
DAV:   3    -0.388344413481E+03   -0.64153E-03   -0.56505E-03 51968   0.165E-01    0.619E-01
DAV:   4    -0.388343600374E+03    0.81311E-03   -0.33108E-03 48112   0.121E-01    0.166E-01
DAV:   5    -0.388343847092E+03   -0.24672E-03   -0.74876E-04 42176   0.612E-02    0.242E-01
DAV:   6    -0.388343776182E+03    0.70911E-04   -0.63210E-04 46200   0.568E-02    0.176E-01
DAV:   7    -0.388343752149E+03    0.24032E-04   -0.39656E-04 45800   0.471E-02    0.917E-02
DAV:   8    -0.388343763271E+03   -0.11121E-04   -0.14651E-04 36128   0.338E-02    0.745E-02
DAV:   9    -0.388343757484E+03    0.57868E-05   -0.65209E-05 31152   0.227E-02
  27 F= -.38834376E+03 E0= -.38833154E+03  d E =0.420531E-02  mag=    34.0000
       N       E                     dE             d eps       ncg     rms          rms(c)
DAV:   1    -0.388332895326E+03    0.10868E-01   -0.13322E+00 36048   0.302E+00    0.306E-01
DAV:   2    -0.388338581179E+03   -0.56859E-02   -0.60520E-02 34992   0.544E-01    0.261E-01
DAV:   3    -0.388339382642E+03   -0.80146E-03   -0.51203E-03 50056   0.178E-01    0.640E-01
DAV:   4    -0.388338443765E+03    0.93888E-03   -0.22865E-03 49120   0.130E-01    0.118E-01
DAV:   5    -0.388338689559E+03   -0.24579E-03   -0.57343E-04 46328   0.560E-02    0.177E-01
DAV:   6    -0.388338680129E+03    0.94303E-05   -0.50496E-04 47376   0.504E-02    0.180E-01
DAV:   7    -0.388338670879E+03    0.92494E-05   -0.64253E-04 39128   0.491E-02    0.173E-01
DAV:   8    -0.388338640950E+03    0.29929E-04   -0.30048E-04 36904   0.365E-02    0.784E-02
DAV:   9    -0.388338647819E+03   -0.68689E-05   -0.53073E-05 29976   0.218E-02
  28 F= -.38833865E+03 E0= -.38832643E+03  d E =0.510966E-02  mag=    34.0000
       N       E                     dE             d eps       ncg     rms          rms(c)
DAV:   1    -0.388266001096E+03    0.72640E-01   -0.13362E+01 36448   0.969E+00    0.930E-01
DAV:   2    -0.388320887929E+03   -0.54887E-01   -0.58311E-01 34968   0.171E+00    0.676E-01
DAV:   3    -0.388327279857E+03   -0.63919E-02   -0.36053E-02 50840   0.498E-01    0.158E+00
DAV:   4    -0.388321287885E+03    0.59920E-02   -0.14379E-02 50632   0.351E-01    0.619E-01
DAV:   5    -0.388322205691E+03   -0.91781E-03   -0.87464E-03 50968   0.177E-01    0.607E-01
DAV:   6    -0.388322026130E+03    0.17956E-03   -0.65974E-03 48136   0.171E-01    0.451E-01
DAV:   7    -0.388321884818E+03    0.14131E-03   -0.42196E-03 50400   0.144E-01    0.346E-01
DAV:   8    -0.388321829593E+03    0.55225E-04   -0.15029E-03 47152   0.977E-02    0.206E-01
DAV:   9    -0.388321846917E+03   -0.17324E-04   -0.35460E-04 46200   0.569E-02    0.113E-01
DAV:  10    -0.388321836571E+03    0.10345E-04   -0.12993E-04 33128   0.293E-02    0.597E-02
DAV:  11    -0.388321837189E+03   -0.61757E-06   -0.49995E-05 29888   0.182E-02
  29 F= -.38832184E+03 E0= -.38830958E+03  d E =0.168106E-01  mag=    34.0000
       N       E                     dE             d eps       ncg     rms          rms(c)
DAV:   1    -0.387771824265E+03    0.55001E+00   -0.11393E+02 36400   0.288E+01    0.267E+00
DAV:   2    -0.388266401899E+03   -0.49458E+00   -0.52177E+00 34944   0.515E+00    0.223E+00
DAV:   3    -0.388321999309E+03   -0.55597E-01   -0.75762E-01 50192   0.158E+00    0.467E+00
DAV:   4    -0.388288393436E+03    0.33606E-01   -0.48586E-01 50560   0.103E+00    0.330E+00
DAV:   5    -0.388271097352E+03    0.17296E-01   -0.10371E-01 49912   0.691E-01    0.109E+00
DAV:   6    -0.388274408638E+03   -0.33113E-02   -0.24000E-02 52112   0.467E-01    0.113E+00
DAV:   7    -0.388276810994E+03   -0.24024E-02   -0.24829E-02 50136   0.354E-01    0.165E+00
DAV:   8    -0.388273700673E+03    0.31103E-02   -0.29944E-02 47800   0.320E-01    0.139E+00
DAV:   9    -0.388272206726E+03    0.14939E-02   -0.32174E-02 48240   0.339E-01    0.650E-01
DAV:  10    -0.388273273988E+03   -0.10673E-02   -0.28428E-03 44024   0.180E-01    0.404E-01
DAV:  11    -0.388272938707E+03    0.33528E-03   -0.95130E-04 48952   0.918E-02    0.158E-01
DAV:  12    -0.388273041808E+03   -0.10310E-03   -0.58373E-04 46968   0.565E-02    0.157E-01
DAV:  13    -0.388273050780E+03   -0.89719E-05   -0.30767E-04 41616   0.458E-02    0.648E-02
DAV:  14    -0.388273086697E+03   -0.35917E-04   -0.97707E-05 31232   0.250E-02    0.471E-02
DAV:  15    -0.388273094071E+03   -0.73733E-05   -0.30881E-05 27088   0.137E-02
  30 F= -.38827309E+03 E0= -.38826096E+03  d E =0.487431E-01  mag=    34.0000
       N       E                     dE             d eps       ncg     rms          rms(c)
DAV:   1    -0.388205243186E+03    0.67844E-01   -0.16406E+01 36928   0.116E+01    0.116E+00
DAV:   2    -0.388285895611E+03   -0.80652E-01   -0.83651E-01 34944   0.207E+00    0.139E+00
DAV:   3    -0.388301003884E+03   -0.15108E-01   -0.18888E-01 50768   0.721E-01    0.301E+00
DAV:   4    -0.388287418507E+03    0.13585E-01   -0.12260E-01 50640   0.533E-01    0.157E+00
DAV:   5    -0.388285921857E+03    0.14967E-02   -0.15540E-02 48568   0.313E-01    0.415E-01
DAV:   6    -0.388287241162E+03   -0.13193E-02   -0.44920E-03 50720   0.187E-01    0.483E-01
DAV:   7    -0.388287512137E+03   -0.27098E-03   -0.48244E-03 49856   0.150E-01    0.602E-01
DAV:   8    -0.388287050607E+03    0.46153E-03   -0.27524E-03 47944   0.129E-01    0.404E-01
DAV:   9    -0.388287043746E+03    0.68605E-05   -0.18921E-03 47832   0.102E-01    0.199E-01
DAV:  10    -0.388287124310E+03   -0.80563E-04   -0.50310E-04 42648   0.638E-02    0.150E-01
DAV:  11    -0.388287095953E+03    0.28357E-04   -0.26222E-04 34008   0.373E-02    0.521E-02
DAV:  12    -0.388287113596E+03   -0.17643E-04   -0.60494E-05 30728   0.225E-02    0.549E-02
DAV:  13    -0.388287111638E+03    0.19575E-05   -0.29489E-05 26968   0.173E-02
  31 F= -.38828711E+03 E0= -.38827492E+03  d E =-.140176E-01  mag=    34.0000
       N       E                     dE             d eps       ncg     rms          rms(c)
DAV:   1    -0.388247082997E+03    0.40031E-01   -0.12857E+01 36320   0.935E+00    0.112E+00
DAV:   2    -0.388316197823E+03   -0.69115E-01   -0.73594E-01 35016   0.172E+00    0.123E+00
DAV:   3    -0.388330236764E+03   -0.14039E-01   -0.23292E-01 51312   0.690E-01    0.299E+00
DAV:   4    -0.388313014656E+03    0.17222E-01   -0.13209E-01 48440   0.508E-01    0.666E-01
DAV:   5    -0.388317495996E+03   -0.44813E-02   -0.92392E-03 47552   0.239E-01    0.601E-01
DAV:   6    -0.388317931370E+03   -0.43537E-03   -0.91322E-03 50216   0.203E-01    0.754E-01
DAV:   7    -0.388317366637E+03    0.56473E-03   -0.12374E-02 49032   0.196E-01    0.579E-01
DAV:   8    -0.388317144723E+03    0.22191E-03   -0.28522E-03 47800   0.133E-01    0.297E-01
DAV:   9    -0.388317141661E+03    0.30616E-05   -0.83580E-04 46760   0.858E-02    0.111E-01
DAV:  10    -0.388317194209E+03   -0.52547E-04   -0.39355E-04 45264   0.494E-02    0.983E-02
DAV:  11    -0.388317186722E+03    0.74865E-05   -0.11037E-04 33224   0.268E-02    0.345E-02
DAV:  12    -0.388317188983E+03   -0.22609E-05   -0.25877E-05 29288   0.166E-02
  32 F= -.38831719E+03 E0= -.38830521E+03  d E =-.300773E-01  mag=    34.0000
       N       E                     dE             d eps       ncg     rms          rms(c)
DAV:   1    -0.388282920837E+03    0.34266E-01   -0.71360E+00 36608   0.743E+00    0.649E-01
DAV:   2    -0.388311317250E+03   -0.28396E-01   -0.29434E-01 34944   0.129E+00    0.379E-01
DAV:   3    -0.388313727043E+03   -0.24098E-02   -0.14071E-02 49320   0.274E-01    0.101E+00
DAV:   4    -0.388311799101E+03    0.19279E-02   -0.97863E-03 49952   0.192E-01    0.304E-01
DAV:   5    -0.388312352992E+03   -0.55389E-03   -0.15832E-03 48040   0.106E-01    0.275E-01
DAV:   6    -0.388312341747E+03    0.11245E-04   -0.16741E-03 49256   0.100E-01    0.323E-01
DAV:   7    -0.388312259180E+03    0.82567E-04   -0.14625E-03 47688   0.899E-02    0.229E-01
DAV:   8    -0.388312265800E+03   -0.66204E-05   -0.69953E-04 47664   0.692E-02    0.148E-01
DAV:   9    -0.388312257636E+03    0.81646E-05   -0.12323E-04 34960   0.382E-02    0.502E-02
DAV:  10    -0.388312260450E+03   -0.28144E-05   -0.30594E-05 26376   0.141E-02
  33 F= -.38831226E+03 E0= -.38830027E+03  d E =0.492853E-02  mag=    34.0000
       N       E                     dE             d eps       ncg     rms          rms(c)
DAV:   1    -0.388119192974E+03    0.19306E+00   -0.43926E+01 36584   0.190E+01    0.171E+00
DAV:   2    -0.388313580054E+03   -0.19439E+00   -0.19846E+00 34944   0.334E+00    0.180E+00
DAV:   3    -0.388348946367E+03   -0.35366E-01   -0.42682E-01 51712   0.107E+00    0.466E+00
DAV:   4    -0.388314285088E+03    0.34661E-01   -0.31560E-01 49816   0.764E-01    0.187E+00
DAV:   5    -0.388316456641E+03   -0.21716E-02   -0.22656E-02 47976   0.446E-01    0.649E-01
DAV:   6    -0.388317960242E+03   -0.15036E-02   -0.69422E-03 50760   0.255E-01    0.688E-01
DAV:   7    -0.388318505644E+03   -0.54540E-03   -0.12753E-02 50536   0.229E-01    0.868E-01
DAV:   8    -0.388317566103E+03    0.93954E-03   -0.74847E-03 47424   0.202E-01    0.586E-01
DAV:   9    -0.388317483326E+03    0.82777E-04   -0.38354E-03 49336   0.148E-01    0.267E-01
DAV:  10    -0.388317749630E+03   -0.26630E-03   -0.10942E-03 45736   0.973E-02    0.246E-01
DAV:  11    -0.388317715985E+03    0.33644E-04   -0.69015E-04 45008   0.591E-02    0.147E-01
DAV:  12    -0.388317717870E+03   -0.18848E-05   -0.24077E-04 34096   0.368E-02    0.719E-02
DAV:  13    -0.388317730177E+03   -0.12307E-04   -0.71633E-05 31728   0.265E-02    0.549E-02
DAV:  14    -0.388317728778E+03    0.13993E-05   -0.36363E-05 27224   0.176E-02
  34 F= -.38831773E+03 E0= -.38830567E+03  d E =-.546833E-02  mag=    34.0000
       N       E                     dE             d eps       ncg     rms          rms(c)
DAV:   1    -0.387746219305E+03    0.57151E+00   -0.47197E+01 38216   0.229E+01    0.306E+00
DAV:   2    -0.388247070612E+03   -0.50085E+00   -0.49181E+00 35520   0.431E+00    0.235E+00
DAV:   3    -0.388312030425E+03   -0.64960E-01   -0.44806E-01 50784   0.138E+00    0.496E+00
DAV:   4    -0.388274485657E+03    0.37545E-01   -0.40421E-01 49336   0.993E-01    0.207E+00
DAV:   5    -0.388280108434E+03   -0.56228E-02   -0.39008E-02 50032   0.458E-01    0.113E+00
DAV:   6    -0.388283522894E+03   -0.34145E-02   -0.30502E-02 49544   0.381E-01    0.147E+00
DAV:   7    -0.388281775169E+03    0.17477E-02   -0.33320E-02 49144   0.398E-01    0.849E-01
DAV:   8    -0.388283420297E+03   -0.16451E-02   -0.19835E-02 50632   0.333E-01    0.926E-01
DAV:   9    -0.388282080874E+03    0.13394E-02   -0.12908E-02 49560   0.241E-01    0.346E-01
DAV:  10    -0.388282227519E+03   -0.14665E-03   -0.11920E-03 46816   0.102E-01    0.137E-01
DAV:  11    -0.388282265972E+03   -0.38453E-04   -0.26598E-04 49472   0.562E-02    0.867E-02
DAV:  12    -0.388282248096E+03    0.17876E-04   -0.90753E-05 38984   0.299E-02    0.448E-02
DAV:  13    -0.388282243959E+03    0.41369E-05   -0.68076E-05 32648   0.263E-02
  35 F= -.38828224E+03 E0= -.38827101E+03  d E =0.354848E-01  mag=    34.0000
       N       E                     dE             d eps       ncg     rms          rms(c)
DAV:   1    -0.388195003704E+03    0.87244E-01   -0.98165E+00 38472   0.106E+01    0.169E+00
DAV:   2    -0.388355271765E+03   -0.16027E+00   -0.16652E+00 38528   0.221E+00    0.439E+00
DAV:   3    -0.388322963819E+03    0.32308E-01   -0.62172E-01 47408   0.118E+00    0.188E+00
DAV:   4    -0.388329408214E+03   -0.64444E-02   -0.49394E-02 49480   0.630E-01    0.148E+00
DAV:   5    -0.388327887663E+03    0.15206E-02   -0.26943E-02 49536   0.339E-01    0.684E-01
DAV:   6    -0.388329153465E+03   -0.12658E-02   -0.11081E-02 49584   0.244E-01    0.858E-01
DAV:   7    -0.388328433481E+03    0.71998E-03   -0.61198E-03 48680   0.180E-01    0.545E-01
DAV:   8    -0.388328996436E+03   -0.56296E-03   -0.41805E-03 49416   0.163E-01    0.650E-01
DAV:   9    -0.388328413168E+03    0.58327E-03   -0.34863E-03 48696   0.138E-01    0.320E-01
DAV:  10    -0.388328671850E+03   -0.25868E-03   -0.18248E-03 47192   0.999E-02    0.250E-01
DAV:  11    -0.388328639975E+03    0.31875E-04   -0.85554E-04 47656   0.718E-02    0.977E-02
DAV:  12    -0.388328661493E+03   -0.21518E-04   -0.13350E-04 40744   0.340E-02    0.406E-02
DAV:  13    -0.388328665906E+03   -0.44127E-05   -0.30360E-05 31176   0.176E-02
  36 F= -.38832867E+03 E0= -.38831697E+03  d E =-.464219E-01  mag=    34.0000
       N       E                     dE             d eps       ncg     rms          rms(c)
DAV:   1    -0.388315554349E+03    0.13107E-01   -0.15831E+00 38256   0.412E+00    0.664E-01
DAV:   2    -0.388340032458E+03   -0.24478E-01   -0.24827E-01 37968   0.846E-01    0.195E+00
DAV:   3    -0.388334660637E+03    0.53718E-02   -0.96304E-02 47168   0.464E-01    0.961E-01
DAV:   4    -0.388336308256E+03   -0.16476E-02   -0.86801E-03 46224   0.239E-01    0.408E-01
DAV:   5    -0.388336351983E+03   -0.43728E-04   -0.27172E-03 49976   0.113E-01    0.259E-01
DAV:   6    -0.388336438884E+03   -0.86901E-04   -0.12038E-03 46608   0.766E-02    0.250E-01
DAV:   7    -0.388336469368E+03   -0.30484E-04   -0.12438E-03 47608   0.907E-02    0.249E-01
DAV:   8    -0.388336408407E+03    0.60962E-04   -0.52131E-04 46872   0.655E-02    0.142E-01
DAV:   9    -0.388336414651E+03   -0.62446E-05   -0.38775E-04 42000   0.468E-02    0.914E-02
DAV:  10    -0.388336415349E+03   -0.69803E-06   -0.14205E-04 33848   0.290E-02    0.523E-02
DAV:  11    -0.388336412476E+03    0.28739E-05   -0.40451E-05 30520   0.204E-02
  37 F= -.38833641E+03 E0= -.38832456E+03  d E =-.774657E-02  mag=    34.0000
       N       E                     dE             d eps       ncg     rms          rms(c)
DAV:   1    -0.388322742559E+03    0.13673E-01   -0.14377E+00 37984   0.380E+00    0.580E-01
DAV:   2    -0.388341990962E+03   -0.19248E-01   -0.19013E-01 37552   0.772E-01    0.166E+00
DAV:   3    -0.388338391745E+03    0.35992E-02   -0.64525E-02 47152   0.400E-01    0.904E-01
DAV:   4    -0.388339333287E+03   -0.94154E-03   -0.76734E-03 46144   0.212E-01    0.381E-01
DAV:   5    -0.388339390161E+03   -0.56874E-04   -0.21136E-03 50232   0.998E-02    0.217E-01
DAV:   6    -0.388339486303E+03   -0.96143E-04   -0.91546E-04 45960   0.695E-02    0.248E-01
DAV:   7    -0.388339490321E+03   -0.40181E-05   -0.11014E-03 47064   0.840E-02    0.230E-01
DAV:   8    -0.388339440172E+03    0.50150E-04   -0.53603E-04 46520   0.645E-02    0.129E-01
DAV:   9    -0.388339454165E+03   -0.13993E-04   -0.35317E-04 38904   0.423E-02    0.910E-02
DAV:  10    -0.388339446961E+03    0.72039E-05   -0.98261E-05 32712   0.267E-02
  38 F= -.38833945E+03 E0= -.38832754E+03  d E =-.303449E-02  mag=    34.0000
       N       E                     dE             d eps       ncg     rms          rms(c)
DAV:   1    -0.388339929157E+03   -0.47499E-03   -0.97288E-02 37840   0.966E-01    0.110E-01
DAV:   2    -0.388340696127E+03   -0.76697E-03   -0.67691E-03 35848   0.186E-01    0.289E-01
DAV:   3    -0.388340581969E+03    0.11416E-03   -0.83355E-04 47472   0.792E-02    0.161E-01
DAV:   4    -0.388340637682E+03   -0.55712E-04   -0.39861E-04 36712   0.415E-02    0.155E-01
DAV:   5    -0.388340596920E+03    0.40762E-04   -0.21155E-04 29952   0.285E-02    0.359E-02
DAV:   6    -0.388340613091E+03   -0.16171E-04   -0.17051E-05 25496   0.125E-02    0.422E-02
DAV:   7    -0.388340613645E+03   -0.55392E-06   -0.27615E-05 28200   0.147E-02
  39 F= -.38834061E+03 E0= -.38832868E+03  d E =-.116668E-02  mag=    34.0000
       N       E                     dE             d eps       ncg     rms          rms(c)
DAV:   1    -0.388340351673E+03    0.26142E-03   -0.29991E-01 37616   0.163E+00    0.179E-01
DAV:   2    -0.388342301384E+03   -0.19497E-02   -0.18701E-02 35376   0.298E-01    0.311E-01
DAV:   3    -0.388342437876E+03   -0.13649E-03   -0.23417E-03 49400   0.119E-01    0.406E-01
DAV:   4    -0.388342232186E+03    0.20569E-03   -0.11871E-03 44504   0.781E-02    0.159E-01
DAV:   5    -0.388342277197E+03   -0.45011E-04   -0.40336E-04 35040   0.390E-02    0.876E-02
DAV:   6    -0.388342283693E+03   -0.64964E-05   -0.86718E-05 32192   0.260E-02
  40 F= -.38834228E+03 E0= -.38833032E+03  d E =-.167005E-02  mag=    34.0000
       N       E                     dE             d eps       ncg     rms          rms(c)
DAV:   1    -0.388342851739E+03   -0.57454E-03   -0.97371E-02 36472   0.813E-01    0.893E-02
DAV:   2    -0.388343284657E+03   -0.43292E-03   -0.40258E-03 40200   0.152E-01    0.251E-01
DAV:   3    -0.388343189258E+03    0.95399E-04   -0.75507E-04 43344   0.673E-02    0.966E-02
DAV:   4    -0.388343211860E+03   -0.22602E-04   -0.25300E-04 33408   0.344E-02    0.110E-01
DAV:   5    -0.388343193483E+03    0.18377E-04   -0.13120E-04 30832   0.233E-02    0.478E-02
DAV:   6    -0.388343198565E+03   -0.50820E-05   -0.26920E-05 25648   0.148E-02
  41 F= -.38834320E+03 E0= -.38833134E+03  d E =-.914871E-03  mag=    34.0000
       N       E                     dE             d eps       ncg     rms          rms(c)
DAV:   1    -0.388340456530E+03    0.27370E-02   -0.14433E+00 36544   0.319E+00    0.268E-01
DAV:   2    -0.388345871390E+03   -0.54149E-02   -0.54469E-02 34944   0.552E-01    0.251E-01
DAV:   3    -0.388346835018E+03   -0.96363E-03   -0.65428E-03 50640   0.161E-01    0.792E-01
DAV:   4    -0.388345622593E+03    0.12124E-02   -0.37794E-03 46264   0.124E-01    0.112E-01
DAV:   5    -0.388345966657E+03   -0.34406E-03   -0.18887E-04 42424   0.437E-02    0.956E-02
DAV:   6    -0.388346012249E+03   -0.45592E-04   -0.27688E-04 39536   0.425E-02    0.157E-01
DAV:   7    -0.388345975194E+03    0.37055E-04   -0.28948E-04 38584   0.389E-02    0.692E-02
DAV:   8    -0.388345993198E+03   -0.18004E-04   -0.64905E-05 29168   0.237E-02    0.581E-02
DAV:   9    -0.388345987798E+03    0.54001E-05   -0.26502E-05 24928   0.151E-02
  42 F= -.38834599E+03 E0= -.38833406E+03  d E =-.278923E-02  mag=    34.0000
       N       E                     dE             d eps       ncg     rms          rms(c)
DAV:   1    -0.388343148132E+03    0.28451E-02   -0.62894E-01 37016   0.236E+00    0.225E-01
DAV:   2    -0.388346459299E+03   -0.33112E-02   -0.32124E-02 35128   0.415E-01    0.330E-01
DAV:   3    -0.388346920183E+03   -0.46088E-03   -0.44055E-03 50088   0.151E-01    0.603E-01
DAV:   4    -0.388346303151E+03    0.61703E-03   -0.23201E-03 45720   0.104E-01    0.147E-01
DAV:   5    -0.388346475950E+03   -0.17280E-03   -0.39275E-04 40552   0.444E-02    0.998E-02
DAV:   6    -0.388346492276E+03   -0.16326E-04   -0.20443E-04 34992   0.324E-02    0.105E-01
DAV:   7    -0.388346476069E+03    0.16207E-04   -0.12584E-04 32448   0.287E-02    0.377E-02
DAV:   8    -0.388346490663E+03   -0.14594E-04   -0.75678E-05 33248   0.224E-02    0.627E-02
DAV:   9    -0.388346484642E+03    0.60219E-05   -0.43584E-05 28272   0.182E-02
  43 F= -.38834648E+03 E0= -.38833461E+03  d E =-.496844E-03  mag=    34.0000
       N       E                     dE             d eps       ncg     rms          rms(c)
DAV:   1    -0.388330599094E+03    0.15892E-01   -0.42159E+00 37024   0.564E+00    0.448E-01
DAV:   2    -0.388345737046E+03   -0.15138E-01   -0.15342E-01 34944   0.967E-01    0.261E-01
DAV:   3    -0.388346503263E+03   -0.76622E-03   -0.52422E-03 50368   0.185E-01    0.480E-01
DAV:   4    -0.388346085906E+03    0.41736E-03   -0.21982E-03 48296   0.115E-01    0.160E-01
DAV:   5    -0.388346233217E+03   -0.14731E-03   -0.87193E-04 44808   0.689E-02    0.312E-01
DAV:   6    -0.388346053499E+03    0.17972E-03   -0.74320E-04 46984   0.682E-02    0.147E-01
DAV:   7    -0.388346190382E+03   -0.13688E-03   -0.11978E-03 47784   0.619E-02    0.277E-01
DAV:   8    -0.388346067671E+03    0.12271E-03   -0.71513E-04 43048   0.528E-02    0.931E-02
DAV:   9    -0.388346097491E+03   -0.29820E-04   -0.78154E-05 31368   0.262E-02    0.341E-02
DAV:  10    -0.388346100410E+03   -0.29189E-05   -0.16169E-05 25480   0.134E-02
  44 F= -.38834610E+03 E0= -.38833425E+03  d E =0.384232E-03  mag=    34.0000
       N       E                     dE             d eps       ncg     rms          rms(c)
DAV:   1    -0.388167575921E+03    0.17852E+00   -0.42715E+01 36816   0.183E+01    0.152E+00
DAV:   2    -0.388338299139E+03   -0.17072E+00   -0.17566E+00 34968   0.324E+00    0.234E+00
DAV:   3    -0.388353829494E+03   -0.15530E-01   -0.41839E-01 50208   0.102E+00    0.343E+00
DAV:   4    -0.388341347194E+03    0.12482E-01   -0.21601E-01 49856   0.680E-01    0.233E+00
DAV:   5    -0.388334696180E+03    0.66510E-02   -0.40176E-02 49752   0.403E-01    0.720E-01
DAV:   6    -0.388335779225E+03   -0.10830E-02   -0.77303E-03 52792   0.237E-01    0.640E-01
DAV:   7    -0.388336494604E+03   -0.71538E-03   -0.74886E-03 48816   0.197E-01    0.810E-01
DAV:   8    -0.388336147438E+03    0.34717E-03   -0.40295E-03 50056   0.177E-01    0.808E-01
DAV:   9    -0.388335094387E+03    0.10531E-02   -0.58105E-03 47224   0.170E-01    0.276E-01
DAV:  10    -0.388335626414E+03   -0.53203E-03   -0.16898E-03 45592   0.108E-01    0.239E-01
DAV:  11    -0.388335621288E+03    0.51262E-05   -0.73705E-04 47096   0.630E-02    0.143E-01
DAV:  12    -0.388335627180E+03   -0.58929E-05   -0.12346E-04 36648   0.356E-02    0.102E-01
DAV:  13    -0.388335615205E+03    0.11976E-04   -0.92494E-05 31312   0.252E-02    0.516E-02
DAV:  14    -0.388335620777E+03   -0.55724E-05   -0.26042E-05 27504   0.161E-02
  45 F= -.38833562E+03 E0= -.38832379E+03  d E =0.104796E-01  mag=    34.0000
       N       E                     dE             d eps       ncg     rms          rms(c)
DAV:   1    -0.388307965886E+03    0.27649E-01   -0.26466E+00 37968   0.556E+00    0.771E-01
DAV:   2    -0.388337940601E+03   -0.29975E-01   -0.28327E-01 35704   0.106E+00    0.132E+00
DAV:   3    -0.388341706761E+03   -0.37662E-02   -0.10894E-01 49040   0.510E-01    0.184E+00
DAV:   4    -0.388336672961E+03    0.50338E-02   -0.43040E-02 47432   0.330E-01    0.468E-01
DAV:   5    -0.388338138486E+03   -0.14655E-02   -0.33412E-03 48048   0.134E-01    0.242E-01
DAV:   6    -0.388338640200E+03   -0.50171E-03   -0.24733E-03 49016   0.107E-01    0.477E-01
DAV:   7    -0.388338189986E+03    0.45021E-03   -0.17744E-03 47456   0.976E-02    0.131E-01
DAV:   8    -0.388338417265E+03   -0.22728E-03   -0.54326E-04 48104   0.727E-02    0.204E-01
DAV:   9    -0.388338366966E+03    0.50300E-04   -0.39080E-04 44784   0.571E-02    0.103E-01
DAV:  10    -0.388338367184E+03   -0.21848E-06   -0.16516E-04 34952   0.329E-02    0.641E-02
DAV:  11    -0.388338364677E+03    0.25071E-05   -0.62195E-05 30408   0.201E-02
  46 F= -.38833836E+03 E0= -.38832677E+03  d E =-.274390E-02  mag=    34.0000
       N       E                     dE             d eps       ncg     rms          rms(c)
DAV:   1    -0.388336221194E+03    0.21460E-02   -0.10376E+00 36192   0.301E+00    0.289E-01
DAV:   2    -0.388341476212E+03   -0.52550E-02   -0.53224E-02 34944   0.545E-01    0.296E-01
DAV:   3    -0.388342306899E+03   -0.83069E-03   -0.46682E-03 50368   0.175E-01    0.683E-01
DAV:   4    -0.388341422336E+03    0.88456E-03   -0.27268E-03 48448   0.127E-01    0.231E-01
DAV:   5    -0.388341584182E+03   -0.16185E-03   -0.84196E-04 45160   0.616E-02    0.138E-01
DAV:   6    -0.388341610109E+03   -0.25927E-04   -0.38516E-04 41424   0.449E-02    0.145E-01
DAV:   7    -0.388341585334E+03    0.24775E-04   -0.34744E-04 41968   0.434E-02    0.921E-02
DAV:   8    -0.388341589215E+03   -0.38816E-05   -0.14032E-04 35400   0.312E-02    0.718E-02
DAV:   9    -0.388341587791E+03    0.14239E-05   -0.60819E-05 28936   0.214E-02
  47 F= -.38834159E+03 E0= -.38832997E+03  d E =-.322311E-02  mag=    34.0000
       N       E                     dE             d eps       ncg     rms          rms(c)
DAV:   1    -0.388341741651E+03   -0.15244E-03   -0.77532E-01 36232   0.242E+00    0.243E-01
DAV:   2    -0.388345253464E+03   -0.35118E-02   -0.36691E-02 34952   0.435E-01    0.234E-01
DAV:   3    -0.388345616248E+03   -0.36278E-03   -0.28358E-03 49168   0.138E-01    0.450E-01
DAV:   4    -0.388345218738E+03    0.39751E-03   -0.12616E-03 48784   0.963E-02    0.147E-01
DAV:   5    -0.388345302518E+03   -0.83780E-04   -0.32320E-04 42080   0.507E-02    0.128E-01
DAV:   6    -0.388345367953E+03   -0.65435E-04   -0.67357E-04 37984   0.485E-02    0.253E-01
DAV:   7    -0.388345261291E+03    0.10666E-03   -0.57520E-04 43040   0.484E-02    0.934E-02
DAV:   8    -0.388345282712E+03   -0.21421E-04   -0.14921E-04 33632   0.324E-02    0.534E-02
DAV:   9    -0.388345284724E+03   -0.20117E-05   -0.31020E-05 26528   0.164E-02
  48 F= -.38834528E+03 E0= -.38833359E+03  d E =-.369693E-02  mag=    34.0000
       N       E                     dE             d eps       ncg     rms          rms(c)
DAV:   1    -0.388310379732E+03    0.34903E-01   -0.95006E+00 36792   0.874E+00    0.791E-01
DAV:   2    -0.388351049725E+03   -0.40670E-01   -0.41719E-01 34944   0.154E+00    0.467E-01
DAV:   3    -0.388353812082E+03   -0.27624E-02   -0.15795E-02 49600   0.331E-01    0.925E-01
DAV:   4    -0.388351979362E+03    0.18327E-02   -0.80526E-03 50840   0.222E-01    0.298E-01
DAV:   5    -0.388352470479E+03   -0.49112E-03   -0.21313E-03 50568   0.119E-01    0.408E-01
DAV:   6    -0.388352668826E+03   -0.19835E-03   -0.45639E-03 48784   0.128E-01    0.586E-01
DAV:   7    -0.388352090897E+03    0.57793E-03   -0.29836E-03 47568   0.125E-01    0.178E-01
DAV:   8    -0.388352354094E+03   -0.26320E-03   -0.86272E-04 45728   0.758E-02    0.204E-01
DAV:   9    -0.388352288813E+03    0.65281E-04   -0.28926E-04 42560   0.485E-02    0.698E-02
DAV:  10    -0.388352293764E+03   -0.49504E-05   -0.68213E-05 29048   0.177E-02
  49 F= -.38835229E+03 E0= -.38834057E+03  d E =-.700904E-02  mag=    34.0000
       N       E                     dE             d eps       ncg     rms          rms(c)
DAV:   1    -0.387964641466E+03    0.38765E+00   -0.81669E+01 37080   0.267E+01    0.242E+00
DAV:   2    -0.388348995797E+03   -0.38435E+00   -0.38930E+00 34944   0.473E+00    0.161E+00
DAV:   3    -0.388387116641E+03   -0.38121E-01   -0.26610E-01 50864   0.115E+00    0.363E+00
DAV:   4    -0.388363704139E+03    0.23413E-01   -0.22603E-01 50544   0.775E-01    0.201E+00
DAV:   5    -0.388361065385E+03    0.26388E-02   -0.40391E-02 51416   0.455E-01    0.729E-01
DAV:   6    -0.388363399221E+03   -0.23338E-02   -0.11163E-02 49568   0.316E-01    0.952E-01
DAV:   7    -0.388362315315E+03    0.10839E-02   -0.13439E-02 50008   0.291E-01    0.577E-01
DAV:   8    -0.388363138062E+03   -0.82275E-03   -0.10481E-02 49520   0.224E-01    0.749E-01
DAV:   9    -0.388362446332E+03    0.69173E-03   -0.44236E-03 45600   0.162E-01    0.245E-01
DAV:  10    -0.388362648466E+03   -0.20213E-03   -0.80559E-04 43304   0.833E-02    0.172E-01
DAV:  11    -0.388362614110E+03    0.34356E-04   -0.25138E-04 39544   0.441E-02    0.731E-02
DAV:  12    -0.388362652143E+03   -0.38033E-04   -0.22813E-04 35704   0.356E-02    0.113E-01
DAV:  13    -0.388362644578E+03    0.75653E-05   -0.19447E-04 32328   0.301E-02    0.537E-02
DAV:  14    -0.388362651460E+03   -0.68824E-05   -0.29948E-05 28696   0.180E-02
  50 F= -.38836265E+03 E0= -.38835087E+03  d E =-.103577E-01  mag=    34.0000
       N       E                     dE             d eps       ncg     rms          rms(c)
DAV:   1    -0.388317982502E+03    0.44662E-01   -0.71097E+00 36760   0.858E+00    0.866E-01
DAV:   2    -0.388360981326E+03   -0.42999E-01   -0.43216E-01 34976   0.156E+00    0.648E-01
DAV:   3    -0.388365468016E+03   -0.44867E-02   -0.27111E-02 50400   0.403E-01    0.126E+00
DAV:   4    -0.388362645678E+03    0.28223E-02   -0.19921E-02 48632   0.285E-01    0.514E-01
DAV:   5    -0.388363217546E+03   -0.57187E-03   -0.26618E-03 47776   0.154E-01    0.364E-01
DAV:   6    -0.388363856771E+03   -0.63922E-03   -0.46543E-03 50088   0.136E-01    0.745E-01
DAV:   7    -0.388362895545E+03    0.96123E-03   -0.43912E-03 48944   0.147E-01    0.277E-01
DAV:   8    -0.388363283973E+03   -0.38843E-03   -0.21018E-03 47232   0.112E-01    0.286E-01
DAV:   9    -0.388363176624E+03    0.10735E-03   -0.91093E-04 47072   0.742E-02    0.987E-02
DAV:  10    -0.388363194921E+03   -0.18298E-04   -0.18948E-04 36080   0.325E-02    0.706E-02
DAV:  11    -0.388363187573E+03    0.73478E-05   -0.61737E-05 29136   0.214E-02
  51 F= -.38836319E+03 E0= -.38835145E+03  d E =-.536113E-03  mag=    34.0000
       N       E                     dE             d eps       ncg     rms          rms(c)
DAV:   1    -0.388297567661E+03    0.65627E-01   -0.10396E+01 37048   0.101E+01    0.997E-01
DAV:   2    -0.388357134197E+03   -0.59567E-01   -0.59785E-01 34944   0.180E+00    0.872E-01
DAV:   3    -0.388368415945E+03   -0.11282E-01   -0.12630E-01 50048   0.552E-01    0.246E+00
DAV:   4    -0.388355950346E+03    0.12466E-01   -0.69685E-02 47880   0.432E-01    0.512E-01
DAV:   5    -0.388359283342E+03   -0.33330E-02   -0.57518E-03 50024   0.176E-01    0.424E-01
DAV:   6    -0.388359543650E+03   -0.26031E-03   -0.23112E-03 47680   0.144E-01    0.450E-01
DAV:   7    -0.388359476699E+03    0.66952E-04   -0.41649E-03 49584   0.145E-01    0.418E-01
DAV:   8    -0.388359338067E+03    0.13863E-03   -0.20569E-03 47072   0.106E-01    0.216E-01
DAV:   9    -0.388359379073E+03   -0.41006E-04   -0.52443E-04 45600   0.661E-02    0.101E-01
DAV:  10    -0.388359388755E+03   -0.96819E-05   -0.14437E-04 33944   0.319E-02    0.689E-02
DAV:  11    -0.388359381983E+03    0.67714E-05   -0.62934E-05 30096   0.207E-02
  52 F= -.38835938E+03 E0= -.38834765E+03  d E =0.380559E-02  mag=    34.0000
       N       E                     dE             d eps       ncg     rms          rms(c)
DAV:   1    -0.388356646951E+03    0.27418E-02   -0.43047E-01 36744   0.191E+00    0.175E-01
DAV:   2    -0.388358760302E+03   -0.21134E-02   -0.20483E-02 35592   0.349E-01    0.431E-01
DAV:   3    -0.388358616510E+03    0.14379E-03   -0.35936E-03 48784   0.124E-01    0.334E-01
DAV:   4    -0.388358582266E+03    0.34243E-04   -0.11236E-03 46488   0.752E-02    0.159E-01
DAV:   5    -0.388358578271E+03    0.39951E-05   -0.29058E-04 36048   0.398E-02    0.727E-02
DAV:   6    -0.388358595505E+03   -0.17233E-04   -0.10002E-04 31824   0.282E-02    0.104E-01
DAV:   7    -0.388358583495E+03    0.12010E-04   -0.15444E-04 34528   0.311E-02    0.855E-02
DAV:   8    -0.388358577503E+03    0.59911E-05   -0.88179E-05 32904   0.274E-02
  53 F= -.38835858E+03 E0= -.38834686E+03  d E =0.804480E-03  mag=    34.0000
       N       E                     dE             d eps       ncg     rms          rms(c)
DAV:   1    -0.388355282005E+03    0.33015E-02   -0.71930E-01 37216   0.268E+00    0.249E-01
DAV:   2    -0.388359137639E+03   -0.38556E-02   -0.38137E-02 34944   0.469E-01    0.171E-01
DAV:   3    -0.388359670237E+03   -0.53260E-03   -0.28385E-03 49424   0.126E-01    0.509E-01
DAV:   4    -0.388359153151E+03    0.51709E-03   -0.17856E-03 46352   0.913E-02    0.122E-01
DAV:   5    -0.388359304755E+03   -0.15160E-03   -0.24876E-04 37768   0.386E-02    0.827E-02
DAV:   6    -0.388359312923E+03   -0.81682E-05   -0.88668E-05 33336   0.287E-02
  54 F= -.38835931E+03 E0= -.38834758E+03  d E =-.735420E-03  mag=    34.0000
       N       E                     dE             d eps       ncg     rms          rms(c)
DAV:   1    -0.388247180819E+03    0.11212E+00   -0.19682E+01 37232   0.140E+01    0.130E+00
DAV:   2    -0.388354265114E+03   -0.10708E+00   -0.10605E+00 34944   0.247E+00    0.102E+00
DAV:   3    -0.388367430113E+03   -0.13165E-01   -0.10502E-01 51752   0.695E-01    0.216E+00
DAV:   4    -0.388357980387E+03    0.94497E-02   -0.55575E-02 49016   0.498E-01    0.951E-01
DAV:   5    -0.388358338270E+03   -0.35788E-03   -0.91976E-03 50792   0.206E-01    0.476E-01
DAV:   6    -0.388359053888E+03   -0.71562E-03   -0.46950E-03 47640   0.169E-01    0.552E-01
DAV:   7    -0.388358909294E+03    0.14459E-03   -0.45003E-03 49040   0.167E-01    0.452E-01
DAV:   8    -0.388358819587E+03    0.89707E-04   -0.23692E-03 48528   0.133E-01    0.271E-01
DAV:   9    -0.388358907423E+03   -0.87835E-04   -0.72335E-04 45808   0.769E-02    0.129E-01
DAV:  10    -0.388358918635E+03   -0.11213E-04   -0.20965E-04 40984   0.413E-02    0.100E-01
DAV:  11    -0.388358905705E+03    0.12930E-04   -0.95920E-05 31448   0.249E-02    0.388E-02
DAV:  12    -0.388358910062E+03   -0.43566E-05   -0.21743E-05 25944   0.160E-02
  55 F= -.38835891E+03 E0= -.38834714E+03  d E =0.402861E-03  mag=    34.0000
       N       E                     dE             d eps       ncg     rms          rms(c)
DAV:   1    -0.388317817348E+03    0.41088E-01   -0.51180E+00 37208   0.734E+00    0.833E-01
DAV:   2    -0.388356082307E+03   -0.38265E-01   -0.38026E-01 34944   0.134E+00    0.638E-01
DAV:   3    -0.388361814926E+03   -0.57326E-02   -0.36780E-02 49552   0.436E-01    0.153E+00
DAV:   4    -0.388357838899E+03    0.39760E-02   -0.25825E-02 47984   0.303E-01    0.539E-01
DAV:   5    -0.388358659285E+03   -0.82039E-03   -0.32210E-03 47648   0.138E-01    0.292E-01
DAV:   6    -0.388359220305E+03   -0.56102E-03   -0.44741E-03 48944   0.115E-01    0.607E-01
DAV:   7    -0.388358569001E+03    0.65130E-03   -0.34000E-03 47136   0.115E-01    0.131E-01
DAV:   8    -0.388358851798E+03   -0.28280E-03   -0.33714E-04 41744   0.584E-02    0.990E-02
DAV:   9    -0.388358844051E+03    0.77472E-05   -0.19080E-04 43568   0.368E-02    0.565E-02
DAV:  10    -0.388358843029E+03    0.10221E-05   -0.63138E-05 30328   0.190E-02
  56 F= -.38835884E+03 E0= -.38834718E+03  d E =0.670334E-04  mag=    34.0000
       N       E                     dE             d eps       ncg     rms          rms(c)
DAV:   1    -0.388336049725E+03    0.22794E-01   -0.37087E+00 37672   0.619E+00    0.579E-01
DAV:   2    -0.388357337332E+03   -0.21288E-01   -0.20941E-01 34944   0.110E+00    0.500E-01
DAV:   3    -0.388361293747E+03   -0.39564E-02   -0.19212E-02 49224   0.338E-01    0.136E+00
DAV:   4    -0.388357417424E+03    0.38763E-02   -0.11593E-02 47624   0.251E-01    0.430E-01
DAV:   5    -0.388358061756E+03   -0.64433E-03   -0.22058E-03 50368   0.106E-01    0.197E-01
DAV:   6    -0.388358243992E+03   -0.18224E-03   -0.10093E-03 44880   0.714E-02    0.227E-01
DAV:   7    -0.388358217912E+03    0.26080E-04   -0.10782E-03 47216   0.692E-02    0.187E-01
DAV:   8    -0.388358221508E+03   -0.35958E-05   -0.39252E-04 45784   0.599E-02    0.130E-01
DAV:   9    -0.388358218333E+03    0.31747E-05   -0.13349E-04 40792   0.391E-02    0.491E-02
DAV:  10    -0.388358221471E+03   -0.31375E-05   -0.30316E-05 27656   0.165E-02
  57 F= -.38835822E+03 E0= -.38834651E+03  d E =0.621558E-03  mag=    34.0000
