       N       E                     dE             d eps       ncg     rms          rms(c)
DAV:   1     0.651225805203E+04    0.65123E+04   -0.28024E+05 37552   0.153E+03
DAV:   2     0.337723876992E+03   -0.61745E+04   -0.58054E+04 38112   0.467E+02
DAV:   3    -0.384457434851E+03   -0.72218E+03   -0.70913E+03 39560   0.170E+02
DAV:   4    -0.413959579770E+03   -0.29502E+02   -0.28992E+02 48416   0.311E+01
DAV:   5    -0.416411684353E+03   -0.24521E+01   -0.24396E+01 64840   0.658E+00    0.633E+01
DAV:   6    -0.359699173240E+03    0.56713E+02   -0.27521E+02 41176   0.414E+01    0.599E+01
DAV:   7    -0.388563222142E+03   -0.28864E+02   -0.85131E+01 41944   0.330E+01    0.904E+01
DAV:   8    -0.369593529623E+03    0.18970E+02   -0.11381E+02 41560   0.218E+01    0.627E+01
DAV:   9    -0.356254618059E+03    0.13339E+02   -0.39393E+01 42896   0.125E+01    0.454E+01
DAV:  10    -0.370416486477E+03   -0.14162E+02   -0.61992E+01 43168   0.127E+01    0.558E+01
DAV:  11    -0.360501226319E+03    0.99153E+01   -0.29953E+01 42608   0.119E+01    0.390E+01
DAV:  12    -0.364575305981E+03   -0.40741E+01   -0.29542E+01 43328   0.978E+00    0.314E+01
DAV:  13    -0.368640394565E+03   -0.40651E+01   -0.56012E+00 42128   0.724E+00    0.184E+01
DAV:  14    -0.373126011236E+03   -0.44856E+01   -0.74027E+00 43488   0.544E+00    0.146E+01
DAV:  15    -0.378552867074E+03   -0.54269E+01   -0.58446E+00 43728   0.381E+00    0.188E+01
DAV:  16    -0.380905608706E+03   -0.23527E+01   -0.50759E+00 43552   0.347E+00    0.180E+01
DAV:  17    -0.381283727313E+03   -0.37812E+00   -0.18232E+00 45168   0.258E+00    0.132E+01
DAV:  18    -0.381676171284E+03   -0.39244E+00   -0.64471E-01 44160   0.212E+00    0.964E+00
DAV:  19    -0.382562623384E+03   -0.88645E+00   -0.25954E+00 44216   0.185E+00    0.109E+01
DAV:  20    -0.382716498150E+03   -0.15387E+00   -0.93443E-02 40584   0.731E-01    0.110E+01
DAV:  21    -0.382759081838E+03   -0.42584E-01   -0.17021E-02 45800   0.368E-01    0.104E+01
DAV:  22    -0.382997915985E+03   -0.23883E+00   -0.10099E-01 45256   0.808E-01    0.865E+00
DAV:  23    -0.383568685987E+03   -0.57077E+00   -0.37201E-01 45112   0.114E+00    0.720E+00
DAV:  24    -0.384062869195E+03   -0.49418E+00   -0.44975E-01 43400   0.116E+00    0.652E+00
DAV:  25    -0.384196478281E+03   -0.13361E+00   -0.61332E-02 40536   0.679E-01    0.604E+00
DAV:  26    -0.384517804581E+03   -0.32133E+00   -0.45811E-01 44616   0.932E-01    0.501E+00
DAV:  27    -0.384711369698E+03   -0.19357E+00   -0.24913E-01 41248   0.104E+00    0.358E+00
DAV:  28    -0.384757448317E+03   -0.46079E-01   -0.65478E-02 46240   0.539E-01    0.295E+00
DAV:  29    -0.384766518413E+03   -0.90701E-02   -0.12676E-02 39656   0.197E-01    0.352E+00
DAV:  30    -0.384786144214E+03   -0.19626E-01   -0.14882E-02 42616   0.177E-01    0.496E+00
DAV:  31    -0.384801397039E+03   -0.15253E-01   -0.12902E-02 43352   0.205E-01    0.610E+00
DAV:  32    -0.384826791210E+03   -0.25394E-01   -0.75281E-03 43432   0.284E-01    0.538E+00
DAV:  33    -0.384944215771E+03   -0.11742E+00   -0.16690E-01 46464   0.822E-01    0.213E+00
DAV:  34    -0.385024243049E+03   -0.80027E-01   -0.12358E-01 43840   0.542E-01    0.441E+00
DAV:  35    -0.385045137194E+03   -0.20894E-01   -0.15284E-02 38968   0.259E-01    0.492E+00
DAV:  36    -0.385027704486E+03    0.17433E-01   -0.39008E-02 48504   0.413E-01    0.344E+00
DAV:  37    -0.385029746323E+03   -0.20418E-02   -0.23890E-02 45832   0.267E-01    0.189E+00
DAV:  38    -0.385036481909E+03   -0.67356E-02   -0.11481E-02 40240   0.196E-01    0.119E+00
DAV:  39    -0.385038870590E+03   -0.23887E-02   -0.48872E-03 45520   0.172E-01    0.163E+00
DAV:  40    -0.385036241151E+03    0.26294E-02   -0.25630E-03 47368   0.176E-01    0.110E+00
DAV:  41    -0.385035914945E+03    0.32621E-03   -0.13561E-02 49584   0.172E-01    0.764E-01
DAV:  42    -0.385036635474E+03   -0.72053E-03   -0.11789E-03 38944   0.109E-01    0.914E-01
DAV:  43    -0.385035664016E+03    0.97146E-03   -0.52872E-03 49904   0.125E-01    0.320E-01
DAV:  44    -0.385036082408E+03   -0.41839E-03   -0.49574E-04 38792   0.807E-02    0.297E-01
DAV:  45    -0.385036025943E+03    0.56465E-04   -0.10672E-03 47896   0.623E-02    0.251E-01
DAV:  46    -0.385036086333E+03   -0.60390E-04   -0.14740E-04 38800   0.349E-02    0.301E-01
DAV:  47    -0.385035991108E+03    0.95225E-04   -0.16052E-04 37120   0.293E-02    0.182E-01
DAV:  48    -0.385036000946E+03   -0.98373E-05   -0.27590E-05 29728   0.144E-02
   1 F= -.38503600E+03 E0= -.38502456E+03  d E =-.385036E+03  mag=    46.0119
       N       E                     dE             d eps       ncg     rms          rms(c)
DAV:   1    -0.385037112870E+03   -0.11218E-02   -0.67512E-04 41184   0.667E-02    0.265E-02
DAV:   2    -0.385037195813E+03   -0.82943E-04   -0.31847E-04 35232   0.232E-02    0.250E-01
DAV:   3    -0.385037132036E+03    0.63777E-04   -0.50008E-05 27912   0.207E-02    0.168E-01
DAV:   4    -0.385037128168E+03    0.38677E-05   -0.11046E-05 22088   0.480E-03
   2 F= -.38503713E+03 E0= -.38502577E+03  d E =-.112722E-02  mag=    46.0094
       N       E                     dE             d eps       ncg     rms          rms(c)
DAV:   1    -0.385067714500E+03   -0.30582E-01   -0.57117E-01 40664   0.200E+00    0.248E-01
DAV:   2    -0.385072750431E+03   -0.50359E-02   -0.39418E-02 38504   0.357E-01    0.160E+00
DAV:   3    -0.385069666645E+03    0.30838E-02   -0.64118E-03 45624   0.178E-01    0.516E-01
DAV:   4    -0.385070573204E+03   -0.90656E-03   -0.21780E-03 46376   0.747E-02    0.496E-01
DAV:   5    -0.385070766083E+03   -0.19288E-03   -0.14229E-03 36808   0.644E-02    0.554E-01
DAV:   6    -0.385070506749E+03    0.25933E-03   -0.30204E-04 37744   0.507E-02    0.372E-01
DAV:   7    -0.385070447886E+03    0.58864E-04   -0.30950E-04 34952   0.272E-02    0.170E-01
DAV:   8    -0.385070492761E+03   -0.44875E-04   -0.15532E-04 32888   0.243E-02    0.838E-02
DAV:   9    -0.385070515902E+03   -0.23140E-04   -0.78927E-05 32648   0.217E-02    0.105E-01
DAV:  10    -0.385070506665E+03    0.92366E-05   -0.61994E-05 33552   0.209E-02
   3 F= -.38507051E+03 E0= -.38505911E+03  d E =-.333785E-01  mag=    46.0036
       N       E                     dE             d eps       ncg     rms          rms(c)
DAV:   1    -0.385134947078E+03   -0.64431E-01   -0.48029E+00 40440   0.579E+00    0.633E-01
DAV:   2    -0.385163711761E+03   -0.28765E-01   -0.27109E-01 38472   0.977E-01    0.225E+00
DAV:   3    -0.385157074266E+03    0.66375E-02   -0.41193E-02 50248   0.366E-01    0.586E-01
DAV:   4    -0.385159702296E+03   -0.26280E-02   -0.34161E-03 42528   0.140E-01    0.943E-01
DAV:   5    -0.385159024245E+03    0.67805E-03   -0.16212E-03 45672   0.947E-02    0.799E-01
DAV:   6    -0.385158347191E+03    0.67705E-03   -0.36371E-03 46600   0.945E-02    0.239E-01
DAV:   7    -0.385158801443E+03   -0.45425E-03   -0.10366E-03 41848   0.755E-02    0.487E-01
DAV:   8    -0.385158552702E+03    0.24874E-03   -0.57957E-04 44160   0.666E-02    0.377E-01
DAV:   9    -0.385158498181E+03    0.54521E-04   -0.24423E-04 46264   0.415E-02    0.250E-01
DAV:  10    -0.385158569967E+03   -0.71786E-04   -0.11966E-04 37192   0.296E-02    0.315E-01
DAV:  11    -0.385158548697E+03    0.21271E-04   -0.41754E-05 31856   0.184E-02    0.314E-01
DAV:  12    -0.385158461816E+03    0.86880E-04   -0.16769E-04 31840   0.204E-02    0.133E-01
DAV:  13    -0.385158523377E+03   -0.61560E-04   -0.33825E-04 29696   0.197E-02    0.149E-01
DAV:  14    -0.385158558024E+03   -0.34647E-04   -0.47028E-05 27464   0.165E-02    0.212E-01
DAV:  15    -0.385158511753E+03    0.46271E-04   -0.29130E-05 27024   0.119E-02    0.142E-01
DAV:  16    -0.385158505564E+03    0.61889E-05   -0.71330E-05 24704   0.986E-03
   4 F= -.38515851E+03 E0= -.38514723E+03  d E =-.879989E-01  mag=    46.0007
       N       E                     dE             d eps       ncg     rms          rms(c)
DAV:   1    -0.385211960106E+03   -0.53448E-01   -0.12451E+01 40032   0.932E+00    0.101E+00
DAV:   2    -0.385279588224E+03   -0.67628E-01   -0.66534E-01 37744   0.156E+00    0.257E+00
DAV:   3    -0.385278034169E+03    0.15541E-02   -0.12730E-01 51880   0.533E-01    0.218E+00
DAV:   4    -0.385276228919E+03    0.18053E-02   -0.20839E-02 42992   0.356E-01    0.151E+00
DAV:   5    -0.385274323365E+03    0.19056E-02   -0.64489E-03 47072   0.201E-01    0.635E-01
DAV:   6    -0.385275035187E+03   -0.71182E-03   -0.47642E-03 47792   0.135E-01    0.672E-01
DAV:   7    -0.385275037402E+03   -0.22151E-05   -0.35182E-03 41632   0.125E-01    0.848E-01
DAV:   8    -0.385274222463E+03    0.81494E-03   -0.14086E-03 45408   0.994E-02    0.475E-01
DAV:   9    -0.385274225874E+03   -0.34109E-05   -0.12180E-03 50568   0.668E-02    0.162E-01
DAV:  10    -0.385274338889E+03   -0.11302E-03   -0.36707E-04 39048   0.537E-02    0.159E-01
DAV:  11    -0.385274324292E+03    0.14597E-04   -0.18876E-04 41664   0.371E-02    0.824E-02
DAV:  12    -0.385274343186E+03   -0.18894E-04   -0.90017E-05 33256   0.218E-02    0.928E-02
DAV:  13    -0.385274347384E+03   -0.41980E-05   -0.60127E-05 27416   0.143E-02
   5 F= -.38527435E+03 E0= -.38526328E+03  d E =-.115842E+00  mag=    46.0002
       N       E                     dE             d eps       ncg     rms          rms(c)
DAV:   1    -0.385262590046E+03    0.11753E-01   -0.24463E+01 39992   0.133E+01    0.153E+00
DAV:   2    -0.385424197477E+03   -0.16161E+00   -0.15184E+00 37440   0.229E+00    0.592E+00
DAV:   3    -0.385379675913E+03    0.44522E-01   -0.29684E-01 49704   0.922E-01    0.153E+00
DAV:   4    -0.385398546061E+03   -0.18870E-01   -0.40590E-02 45712   0.486E-01    0.292E+00
DAV:   5    -0.385388816795E+03    0.97293E-02   -0.21472E-02 44288   0.351E-01    0.147E+00
DAV:   6    -0.385388629936E+03    0.18686E-03   -0.84314E-03 50024   0.211E-01    0.897E-01
DAV:   7    -0.385390298830E+03   -0.16689E-02   -0.20202E-02 45016   0.187E-01    0.151E+00
DAV:   8    -0.385389384800E+03    0.91403E-03   -0.35374E-03 41304   0.160E-01    0.148E+00
DAV:   9    -0.385387959011E+03    0.14258E-02   -0.20728E-03 46472   0.106E-01    0.109E+00
DAV:  10    -0.385387751000E+03    0.20801E-03   -0.13179E-03 47464   0.809E-02    0.740E-01
DAV:  11    -0.385387788416E+03   -0.37416E-04   -0.86632E-04 46072   0.611E-02    0.390E-01
DAV:  12    -0.385388090998E+03   -0.30258E-03   -0.19809E-03 39744   0.541E-02    0.358E-01
DAV:  13    -0.385388589899E+03   -0.49890E-03   -0.86581E-04 36640   0.402E-02    0.708E-01
DAV:  14    -0.385388140770E+03    0.44913E-03   -0.15382E-04 36528   0.381E-02    0.571E-01
DAV:  15    -0.385387860867E+03    0.27990E-03   -0.11899E-03 44592   0.429E-02    0.918E-02
DAV:  16    -0.385388127975E+03   -0.26711E-03   -0.29322E-04 34272   0.252E-02    0.200E-01
DAV:  17    -0.385388120934E+03    0.70408E-05   -0.30323E-05 28512   0.201E-02
   6 F= -.38538812E+03 E0= -.38537718E+03  d E =-.113774E+00  mag=    46.0000
       N       E                     dE             d eps       ncg     rms          rms(c)
DAV:   1    -0.385315861971E+03    0.72266E-01   -0.30233E+01 39616   0.147E+01    0.157E+00
DAV:   2    -0.385481462465E+03   -0.16560E+00   -0.16032E+00 36832   0.250E+00    0.482E+00
DAV:   3    -0.385460934169E+03    0.20528E-01   -0.32347E-01 51168   0.895E-01    0.249E+00
DAV:   4    -0.385466128172E+03   -0.51940E-02   -0.59179E-02 42496   0.519E-01    0.206E+00
DAV:   5    -0.385460572791E+03    0.55554E-02   -0.14815E-02 44376   0.330E-01    0.842E-01
DAV:   6    -0.385461023870E+03   -0.45108E-03   -0.91273E-03 45920   0.174E-01    0.802E-01
DAV:   7    -0.385462380747E+03   -0.13569E-02   -0.73010E-03 46352   0.166E-01    0.146E+00
DAV:   8    -0.385460097949E+03    0.22828E-02   -0.35183E-03 44560   0.151E-01    0.947E-01
DAV:   9    -0.385459824730E+03    0.27322E-03   -0.23343E-03 50240   0.956E-02    0.418E-01
DAV:  10    -0.385460120255E+03   -0.29553E-03   -0.11540E-03 43712   0.800E-02    0.219E-01
DAV:  11    -0.385460240755E+03   -0.12050E-03   -0.45507E-04 42928   0.568E-02    0.182E-01
DAV:  12    -0.385460252931E+03   -0.12176E-04   -0.37483E-04 41496   0.350E-02    0.114E-01
DAV:  13    -0.385460327775E+03   -0.74844E-04   -0.25526E-04 30360   0.239E-02    0.253E-01
DAV:  14    -0.385460265298E+03    0.62477E-04   -0.30660E-05 30152   0.182E-02    0.208E-01
DAV:  15    -0.385460226153E+03    0.39145E-04   -0.11321E-04 28864   0.140E-02    0.601E-02
DAV:  16    -0.385460265404E+03   -0.39252E-04   -0.13175E-04 27664   0.133E-02    0.117E-01
DAV:  17    -0.385460263117E+03    0.22870E-05   -0.15179E-05 25432   0.124E-02
   7 F= -.38546026E+03 E0= -.38544958E+03  d E =-.721422E-01  mag=    46.0000
       N       E                     dE             d eps       ncg     rms          rms(c)
DAV:   1    -0.385228902297E+03    0.23136E+00   -0.68404E+01 39880   0.221E+01    0.224E+00
DAV:   2    -0.385579701442E+03   -0.35080E+00   -0.33695E+00 36704   0.375E+00    0.774E+00
DAV:   3    -0.385502863007E+03    0.76838E-01   -0.66814E-01 47992   0.134E+00    0.258E+00
DAV:   4    -0.385524704183E+03   -0.21841E-01   -0.99250E-02 44872   0.704E-01    0.292E+00
DAV:   5    -0.385513322678E+03    0.11382E-01   -0.26666E-02 45904   0.483E-01    0.145E+00
DAV:   6    -0.385512805184E+03    0.51749E-03   -0.14414E-02 50112   0.265E-01    0.115E+00
DAV:   7    -0.385513865818E+03   -0.10606E-02   -0.24619E-02 44232   0.232E-01    0.163E+00
DAV:   8    -0.385513039613E+03    0.82620E-03   -0.47328E-03 41248   0.194E-01    0.170E+00
DAV:   9    -0.385510440490E+03    0.25991E-02   -0.26277E-03 47888   0.116E-01    0.102E+00
DAV:  10    -0.385510489703E+03   -0.49212E-04   -0.34961E-03 48808   0.114E-01    0.552E-01
DAV:  11    -0.385510853431E+03   -0.36373E-03   -0.19676E-03 42808   0.105E-01    0.238E-01
DAV:  12    -0.385511388030E+03   -0.53460E-03   -0.21848E-03 40224   0.701E-02    0.536E-01
DAV:  13    -0.385511530632E+03   -0.14260E-03   -0.50483E-04 38768   0.439E-02    0.716E-01
DAV:  14    -0.385510897872E+03    0.63276E-03   -0.58203E-04 42368   0.465E-02    0.342E-01
DAV:  15    -0.385511001669E+03   -0.10380E-03   -0.13309E-03 41720   0.376E-02    0.148E-01
DAV:  16    -0.385511196977E+03   -0.19531E-03   -0.22988E-04 33216   0.248E-02    0.332E-01
DAV:  17    -0.385511059256E+03    0.13772E-03   -0.13721E-04 31184   0.277E-02    0.187E-01
DAV:  18    -0.385511059486E+03   -0.22956E-06   -0.18460E-04 36032   0.174E-02    0.335E-02
DAV:  19    -0.385511091097E+03   -0.31611E-04   -0.22972E-05 25016   0.113E-02    0.730E-02
DAV:  20    -0.385511088772E+03    0.23258E-05   -0.47268E-06 22360   0.692E-03
   8 F= -.38551109E+03 E0= -.38550083E+03  d E =-.508257E-01  mag=    46.0000
       N       E                     dE             d eps       ncg     rms          rms(c)
DAV:   1    -0.385199446358E+03    0.31164E+00   -0.85136E+01 39776   0.251E+01    0.240E+00
DAV:   2    -0.385618248511E+03   -0.41880E+00   -0.40495E+00 37120   0.417E+00    0.767E+00
DAV:   3    -0.385554203477E+03    0.64045E-01   -0.79436E-01 45480   0.140E+00    0.335E+00
DAV:   4    -0.385571491115E+03   -0.17288E-01   -0.15937E-01 45856   0.775E-01    0.297E+00
DAV:   5    -0.385559056611E+03    0.12435E-01   -0.26802E-02 46176   0.483E-01    0.138E+00
DAV:   6    -0.385560045446E+03   -0.98883E-03   -0.14329E-02 49312   0.273E-01    0.136E+00
DAV:   7    -0.385558761867E+03    0.12836E-02   -0.13966E-02 46200   0.247E-01    0.122E+00
DAV:   8    -0.385557782186E+03    0.97968E-03   -0.41186E-03 45768   0.192E-01    0.111E+00
DAV:   9    -0.385556429117E+03    0.13531E-02   -0.35741E-03 49392   0.133E-01    0.516E-01
DAV:  10    -0.385556663124E+03   -0.23401E-03   -0.23972E-03 47984   0.124E-01    0.362E-01
DAV:  11    -0.385556714451E+03   -0.51327E-04   -0.11511E-03 44624   0.936E-02    0.213E-01
DAV:  12    -0.385556914556E+03   -0.20010E-03   -0.63355E-04 46080   0.539E-02    0.337E-01
DAV:  13    -0.385556862307E+03    0.52249E-04   -0.17741E-04 40976   0.365E-02    0.338E-01
DAV:  14    -0.385556727978E+03    0.13433E-03   -0.19211E-04 39584   0.267E-02    0.172E-01
DAV:  15    -0.385556758991E+03   -0.31013E-04   -0.36944E-04 33912   0.248E-02    0.998E-02
DAV:  16    -0.385556807712E+03   -0.48721E-04   -0.72156E-05 28784   0.165E-02    0.175E-01
DAV:  17    -0.385556761851E+03    0.45861E-04   -0.78307E-05 29752   0.179E-02    0.652E-02
DAV:  18    -0.385556774278E+03   -0.12427E-04   -0.63660E-05 26664   0.113E-02    0.507E-02
DAV:  19    -0.385556776535E+03   -0.22574E-05   -0.66239E-06 24224   0.852E-03
   9 F= -.38555678E+03 E0= -.38554641E+03  d E =-.456878E-01  mag=    46.0000
       N       E                     dE             d eps       ncg     rms          rms(c)
DAV:   1    -0.385549858675E+03    0.69156E-02   -0.35424E+00 39520   0.584E+00    0.633E-01
DAV:   2    -0.385572994951E+03   -0.23136E-01   -0.23297E-01 36968   0.100E+00    0.937E-01
DAV:   3    -0.385575000620E+03   -0.20057E-02   -0.30053E-02 48288   0.308E-01    0.142E+00
DAV:   4    -0.385572808118E+03    0.21925E-02   -0.12263E-02 43928   0.226E-01    0.846E-01
DAV:   5    -0.385572398656E+03    0.40946E-03   -0.22402E-03 43408   0.126E-01    0.174E-01
DAV:   6    -0.385572811051E+03   -0.41239E-03   -0.12252E-03 44648   0.721E-02    0.396E-01
DAV:   7    -0.385572664795E+03    0.14626E-03   -0.64307E-04 46592   0.672E-02    0.360E-01
DAV:   8    -0.385572592056E+03    0.72740E-04   -0.12850E-03 45968   0.667E-02    0.286E-01
DAV:   9    -0.385572716513E+03   -0.12446E-03   -0.39654E-04 43728   0.456E-02    0.410E-01
DAV:  10    -0.385572526610E+03    0.18990E-03   -0.28138E-04 35408   0.343E-02    0.218E-01
DAV:  11    -0.385572528899E+03   -0.22894E-05   -0.12889E-04 32384   0.216E-02    0.590E-02
DAV:  12    -0.385572555052E+03   -0.26153E-04   -0.47995E-05 26568   0.123E-02    0.376E-02
DAV:  13    -0.385572563849E+03   -0.87972E-05   -0.20743E-05 22544   0.796E-03
  10 F= -.38557256E+03 E0= -.38556220E+03  d E =-.157873E-01  mag=    46.0000
       N       E                     dE             d eps       ncg     rms          rms(c)
DAV:   1    -0.385574732842E+03   -0.21778E-02   -0.20162E-01 39816   0.127E+00    0.146E-01
DAV:   2    -0.385576421937E+03   -0.16891E-02   -0.13312E-02 37488   0.230E-01    0.898E-01
DAV:   3    -0.385575364923E+03    0.10570E-02   -0.21831E-03 40360   0.107E-01    0.256E-01
DAV:   4    -0.385575672351E+03   -0.30743E-03   -0.10587E-03 41568   0.373E-02    0.263E-01
DAV:   5    -0.385575777091E+03   -0.10474E-03   -0.33663E-04 33848   0.364E-02    0.344E-01
DAV:   6    -0.385575631456E+03    0.14564E-03   -0.14993E-04 30368   0.279E-02    0.191E-01
DAV:   7    -0.385575638352E+03   -0.68956E-05   -0.11265E-04 28752   0.140E-02    0.890E-02
DAV:   8    -0.385575651587E+03   -0.13235E-04   -0.43485E-05 26976   0.135E-02    0.333E-02
DAV:   9    -0.385575657752E+03   -0.61649E-05   -0.23889E-05 25592   0.110E-02
  11 F= -.38557566E+03 E0= -.38556529E+03  d E =-.309390E-02  mag=    46.0000
       N       E                     dE             d eps       ncg     rms          rms(c)
DAV:   1    -0.385575091852E+03    0.55974E-03   -0.25524E+00 39520   0.442E+00    0.424E-01
DAV:   2    -0.385586910835E+03   -0.11819E-01   -0.11653E-01 36976   0.736E-01    0.101E+00
DAV:   3    -0.385586384523E+03    0.52631E-03   -0.13677E-02 48912   0.210E-01    0.810E-01
DAV:   4    -0.385586488865E+03   -0.10434E-03   -0.43266E-03 44984   0.139E-01    0.663E-01
DAV:   5    -0.385585978539E+03    0.51033E-03   -0.13833E-03 45472   0.920E-02    0.217E-01
DAV:   6    -0.385586138482E+03   -0.15994E-03   -0.82934E-04 44384   0.542E-02    0.273E-01
DAV:   7    -0.385586149536E+03   -0.11054E-04   -0.33606E-04 42912   0.482E-02    0.329E-01
DAV:   8    -0.385586044150E+03    0.10539E-03   -0.24620E-04 41480   0.427E-02    0.237E-01
DAV:   9    -0.385586025806E+03    0.18344E-04   -0.34990E-04 39392   0.324E-02    0.137E-01
DAV:  10    -0.385586060262E+03   -0.34456E-04   -0.18177E-04 32416   0.230E-02    0.182E-01
DAV:  11    -0.385586028376E+03    0.31886E-04   -0.40618E-05 27752   0.167E-02    0.106E-01
DAV:  12    -0.385586027158E+03    0.12175E-05   -0.29307E-05 22312   0.943E-03
  12 F= -.38558603E+03 E0= -.38557563E+03  d E =-.103694E-01  mag=    46.0000
       N       E                     dE             d eps       ncg     rms          rms(c)
DAV:   1    -0.385570826329E+03    0.15202E-01   -0.70709E+00 39520   0.734E+00    0.688E-01
DAV:   2    -0.385601785885E+03   -0.30960E-01   -0.31039E-01 36808   0.121E+00    0.116E+00
DAV:   3    -0.385602376405E+03   -0.59052E-03   -0.29601E-02 50056   0.346E-01    0.121E+00
DAV:   4    -0.385601683961E+03    0.69244E-03   -0.12750E-02 44328   0.227E-01    0.106E+00
DAV:   5    -0.385600393905E+03    0.12901E-02   -0.28589E-03 40712   0.141E-01    0.223E-01
DAV:   6    -0.385600976892E+03   -0.58299E-03   -0.20994E-03 49584   0.854E-02    0.477E-01
DAV:   7    -0.385600837474E+03    0.13942E-03   -0.87883E-04 45904   0.780E-02    0.516E-01
DAV:   8    -0.385600525363E+03    0.31211E-03   -0.10895E-03 48552   0.689E-02    0.206E-01
DAV:   9    -0.385600748399E+03   -0.22304E-03   -0.94384E-04 47200   0.541E-02    0.399E-01
DAV:  10    -0.385600609987E+03    0.13841E-03   -0.29742E-04 40136   0.440E-02    0.274E-01
DAV:  11    -0.385600564497E+03    0.45490E-04   -0.13371E-04 33496   0.233E-02    0.100E-01
DAV:  12    -0.385600590482E+03   -0.25985E-04   -0.45906E-05 25288   0.130E-02    0.333E-02
DAV:  13    -0.385600598433E+03   -0.79513E-05   -0.19788E-05 22352   0.858E-03
  13 F= -.38560060E+03 E0= -.38559015E+03  d E =-.145713E-01  mag=    46.0000
       N       E                     dE             d eps       ncg     rms          rms(c)
DAV:   1    -0.385400443644E+03    0.20015E+00   -0.55069E+01 39536   0.204E+01    0.183E+00
DAV:   2    -0.385634897445E+03   -0.23445E+00   -0.23198E+00 36632   0.332E+00    0.291E+00
DAV:   3    -0.385642418533E+03   -0.75211E-02   -0.21148E-01 49480   0.900E-01    0.343E+00
DAV:   4    -0.385633935011E+03    0.84835E-02   -0.12725E-01 44312   0.627E-01    0.237E+00
DAV:   5    -0.385627265910E+03    0.66691E-02   -0.14233E-02 43440   0.376E-01    0.571E-01
DAV:   6    -0.385629613787E+03   -0.23479E-02   -0.16955E-02 46288   0.202E-01    0.118E+00
DAV:   7    -0.385628298394E+03    0.13154E-02   -0.62686E-03 45096   0.197E-01    0.110E+00
DAV:   8    -0.385627168808E+03    0.11296E-02   -0.83635E-03 50016   0.157E-01    0.613E-01
DAV:   9    -0.385628562189E+03   -0.13934E-02   -0.28276E-03 47336   0.138E-01    0.108E+00
DAV:  10    -0.385627010922E+03    0.15513E-02   -0.24191E-03 44192   0.114E-01    0.500E-01
DAV:  11    -0.385627127063E+03   -0.11614E-03   -0.74474E-04 46920   0.610E-02    0.932E-02
DAV:  12    -0.385627332459E+03   -0.20540E-03   -0.38202E-04 40192   0.313E-02    0.195E-01
DAV:  13    -0.385627326660E+03    0.57985E-05   -0.45687E-05 30616   0.211E-02
  14 F= -.38562733E+03 E0= -.38561672E+03  d E =-.267282E-01  mag=    46.0000
       N       E                     dE             d eps       ncg     rms          rms(c)
DAV:   1    -0.385626887987E+03    0.44447E-03   -0.41642E-01 40024   0.216E+00    0.264E-01
DAV:   2    -0.385631519657E+03   -0.46317E-02   -0.35371E-02 37264   0.381E-01    0.137E+00
DAV:   3    -0.385629183704E+03    0.23360E-02   -0.51652E-03 40632   0.166E-01    0.346E-01
DAV:   4    -0.385630126077E+03   -0.94237E-03   -0.20829E-03 47720   0.787E-02    0.556E-01
DAV:   5    -0.385630131124E+03   -0.50469E-05   -0.14814E-03 40408   0.703E-02    0.585E-01
DAV:   6    -0.385629760188E+03    0.37094E-03   -0.52840E-04 36552   0.489E-02    0.256E-01
DAV:   7    -0.385629830748E+03   -0.70560E-04   -0.36678E-04 37512   0.272E-02    0.102E-01
DAV:   8    -0.385629881266E+03   -0.50517E-04   -0.11332E-04 29400   0.225E-02    0.133E-01
DAV:   9    -0.385629872338E+03    0.89275E-05   -0.49524E-05 28400   0.190E-02
  15 F= -.38562987E+03 E0= -.38561937E+03  d E =-.254568E-02  mag=    46.0000
       N       E                     dE             d eps       ncg     rms          rms(c)
DAV:   1    -0.385630611789E+03   -0.73052E-03   -0.99882E-02 39752   0.890E-01    0.137E-01
DAV:   2    -0.385632121128E+03   -0.15093E-02   -0.92667E-03 38776   0.182E-01    0.105E+00
DAV:   3    -0.385630792389E+03    0.13287E-02   -0.18933E-03 38536   0.106E-01    0.416E-01
DAV:   4    -0.385630969372E+03   -0.17698E-03   -0.65003E-04 40880   0.354E-02    0.138E-01
DAV:   5    -0.385631166823E+03   -0.19745E-03   -0.54173E-04 33576   0.319E-02    0.314E-01
DAV:   6    -0.385631089511E+03    0.77312E-04   -0.53684E-05 30128   0.267E-02    0.246E-01
DAV:   7    -0.385631052473E+03    0.37039E-04   -0.48006E-05 26176   0.120E-02    0.144E-01
DAV:   8    -0.385631054765E+03   -0.22925E-05   -0.63999E-05 28120   0.128E-02
  16 F= -.38563105E+03 E0= -.38562052E+03  d E =-.118243E-02  mag=    46.0000
       N       E                     dE             d eps       ncg     rms          rms(c)
DAV:   1    -0.385624929988E+03    0.61225E-02   -0.27338E+00 39560   0.451E+00    0.447E-01
DAV:   2    -0.385637714208E+03   -0.12784E-01   -0.12288E-01 36664   0.757E-01    0.996E-01
DAV:   3    -0.385637075449E+03    0.63876E-03   -0.11619E-02 46560   0.229E-01    0.705E-01
DAV:   4    -0.385637583854E+03   -0.50840E-03   -0.58570E-03 44728   0.148E-01    0.817E-01
DAV:   5    -0.385636681305E+03    0.90255E-03   -0.12282E-03 41608   0.107E-01    0.217E-01
DAV:   6    -0.385636934676E+03   -0.25337E-03   -0.13042E-03 48080   0.520E-02    0.359E-01
DAV:   7    -0.385636970080E+03   -0.35404E-04   -0.33545E-04 41256   0.441E-02    0.389E-01
DAV:   8    -0.385636747379E+03    0.22270E-03   -0.60813E-04 38248   0.449E-02    0.149E-01
DAV:   9    -0.385636813471E+03   -0.66092E-04   -0.25093E-04 40952   0.350E-02    0.167E-01
DAV:  10    -0.385636795585E+03    0.17886E-04   -0.10393E-04 33384   0.263E-02    0.867E-02
DAV:  11    -0.385636794170E+03    0.14152E-05   -0.34989E-05 27920   0.159E-02
  17 F= -.38563679E+03 E0= -.38562625E+03  d E =-.573940E-02  mag=    46.0000
       N       E                     dE             d eps       ncg     rms          rms(c)
DAV:   1    -0.385621396700E+03    0.15399E-01   -0.52716E+00 39592   0.618E+00    0.612E-01
DAV:   2    -0.385646828932E+03   -0.25432E-01   -0.24034E-01 36704   0.104E+00    0.177E+00
DAV:   3    -0.385643412055E+03    0.34169E-02   -0.39672E-02 43136   0.355E-01    0.104E+00
DAV:   4    -0.385644390275E+03   -0.97822E-03   -0.95428E-03 47776   0.207E-01    0.921E-01
DAV:   5    -0.385643378489E+03    0.10118E-02   -0.20145E-03 45888   0.133E-01    0.271E-01
DAV:   6    -0.385643613956E+03   -0.23547E-03   -0.90792E-04 48776   0.661E-02    0.377E-01
DAV:   7    -0.385643578647E+03    0.35309E-04   -0.70558E-04 45256   0.587E-02    0.348E-01
DAV:   8    -0.385643471325E+03    0.10732E-03   -0.83015E-04 43176   0.594E-02    0.304E-01
DAV:   9    -0.385643471800E+03   -0.47485E-06   -0.35967E-04 40968   0.439E-02    0.277E-01
DAV:  10    -0.385643403319E+03    0.68481E-04   -0.32598E-04 35976   0.345E-02    0.125E-01
DAV:  11    -0.385643417800E+03   -0.14481E-04   -0.72587E-05 30504   0.227E-02    0.555E-02
DAV:  12    -0.385643425604E+03   -0.78042E-05   -0.36466E-05 27832   0.135E-02
  18 F= -.38564343E+03 E0= -.38563280E+03  d E =-.663143E-02  mag=    46.0000
       N       E                     dE             d eps       ncg     rms          rms(c)
DAV:   1    -0.385555535835E+03    0.87882E-01   -0.23824E+01 39992   0.135E+01    0.123E+00
DAV:   2    -0.385658057436E+03   -0.10252E+00   -0.97475E-01 36632   0.219E+00    0.233E+00
DAV:   3    -0.385654370196E+03    0.36872E-02   -0.59403E-02 48216   0.654E-01    0.182E+00
DAV:   4    -0.385652181389E+03    0.21888E-02   -0.19343E-02 47392   0.311E-01    0.954E-01
DAV:   5    -0.385651920118E+03    0.26127E-03   -0.80712E-03 47184   0.185E-01    0.712E-01
DAV:   6    -0.385651985175E+03   -0.65057E-04   -0.38751E-03 44760   0.133E-01    0.630E-01
DAV:   7    -0.385651424128E+03    0.56105E-03   -0.18874E-03 44000   0.124E-01    0.367E-01
DAV:   8    -0.385651286266E+03    0.13786E-03   -0.11164E-03 47112   0.997E-02    0.240E-01
DAV:   9    -0.385651274665E+03    0.11601E-04   -0.10222E-03 44048   0.785E-02    0.244E-01
DAV:  10    -0.385651235873E+03    0.38792E-04   -0.36482E-04 46576   0.509E-02    0.220E-01
DAV:  11    -0.385651192183E+03    0.43690E-04   -0.27068E-04 39896   0.343E-02    0.956E-02
DAV:  12    -0.385651224973E+03   -0.32790E-04   -0.10664E-04 35328   0.261E-02    0.983E-02
DAV:  13    -0.385651215261E+03    0.97115E-05   -0.43547E-05 30368   0.164E-02
  19 F= -.38565122E+03 E0= -.38564049E+03  d E =-.778966E-02  mag=    46.0000
       N       E                     dE             d eps       ncg     rms          rms(c)
DAV:   1    -0.385648286495E+03    0.29385E-02   -0.41339E-01 42648   0.269E+00    0.345E-01
DAV:   2    -0.385654199710E+03   -0.59132E-02   -0.51654E-02 37448   0.459E-01    0.937E-01
DAV:   3    -0.385653360959E+03    0.83875E-03   -0.11835E-02 41296   0.206E-01    0.613E-01
DAV:   4    -0.385653694646E+03   -0.33369E-03   -0.19886E-03 43008   0.112E-01    0.539E-01
DAV:   5    -0.385653348006E+03    0.34664E-03   -0.65716E-04 44744   0.762E-02    0.128E-01
DAV:   6    -0.385653483653E+03   -0.13565E-03   -0.32018E-04 40248   0.383E-02    0.229E-01
DAV:   7    -0.385653453111E+03    0.30542E-04   -0.18969E-04 35248   0.337E-02    0.171E-01
DAV:   8    -0.385653428337E+03    0.24774E-04   -0.15533E-04 35192   0.307E-02    0.131E-01
DAV:   9    -0.385653431257E+03   -0.29195E-05   -0.71645E-05 33296   0.217E-02
  20 F= -.38565343E+03 E0= -.38564277E+03  d E =-.221600E-02  mag=    46.0000
       N       E                     dE             d eps       ncg     rms          rms(c)
DAV:   1    -0.385653697973E+03   -0.26964E-03   -0.49324E-02 40008   0.755E-01    0.125E-01
DAV:   2    -0.385654586728E+03   -0.88875E-03   -0.50382E-03 39664   0.164E-01    0.637E-01
DAV:   3    -0.385653942974E+03    0.64375E-03   -0.12520E-03 39792   0.955E-02    0.203E-01
DAV:   4    -0.385654042546E+03   -0.99572E-04   -0.31295E-04 35928   0.323E-02    0.159E-01
DAV:   5    -0.385654054151E+03   -0.11605E-04   -0.11624E-04 29920   0.254E-02    0.100E-01
DAV:   6    -0.385654056382E+03   -0.22312E-05   -0.61201E-05 28504   0.165E-02
  21 F= -.38565406E+03 E0= -.38564328E+03  d E =-.625125E-03  mag=    46.0000
       N       E                     dE             d eps       ncg     rms          rms(c)
DAV:   1    -0.385651200778E+03    0.28534E-02   -0.97267E-01 39592   0.299E+00    0.340E-01
DAV:   2    -0.385659757137E+03   -0.85564E-02   -0.72770E-02 37640   0.538E-01    0.174E+00
DAV:   3    -0.385655187369E+03    0.45698E-02   -0.14638E-02 38608   0.248E-01    0.350E-01
DAV:   4    -0.385656645239E+03   -0.14579E-02   -0.33743E-03 50768   0.976E-02    0.532E-01
DAV:   5    -0.385656604905E+03    0.40335E-04   -0.96467E-04 40416   0.751E-02    0.536E-01
DAV:   6    -0.385656298757E+03    0.30615E-03   -0.39839E-04 38000   0.468E-02    0.297E-01
DAV:   7    -0.385656314414E+03   -0.15657E-04   -0.67590E-04 40072   0.403E-02    0.151E-01
DAV:   8    -0.385656462285E+03   -0.14787E-03   -0.35029E-04 37328   0.341E-02    0.336E-01
DAV:   9    -0.385656388965E+03    0.73320E-04   -0.11883E-04 31152   0.304E-02    0.308E-01
DAV:  10    -0.385656351446E+03    0.37518E-04   -0.63316E-05 29608   0.177E-02    0.234E-01
DAV:  11    -0.385656355632E+03   -0.41858E-05   -0.32748E-05 27448   0.152E-02
  22 F= -.38565636E+03 E0= -.38564566E+03  d E =-.229925E-02  mag=    46.0000
       N       E                     dE             d eps       ncg     rms          rms(c)
DAV:   1    -0.385656454203E+03   -0.10276E-03   -0.12933E-01 39688   0.103E+00    0.182E-01
DAV:   2    -0.385660003348E+03   -0.35491E-02   -0.19262E-02 40272   0.240E-01    0.176E+00
DAV:   3    -0.385656249829E+03    0.37535E-02   -0.42391E-03 37752   0.173E-01    0.798E-01
DAV:   4    -0.385656576432E+03   -0.32660E-03   -0.16278E-03 40104   0.385E-02    0.227E-01
DAV:   5    -0.385657004407E+03   -0.42797E-03   -0.89463E-04 34592   0.373E-02    0.192E-01
DAV:   6    -0.385657034729E+03   -0.30322E-04   -0.81556E-05 31224   0.316E-02    0.146E-01
DAV:   7    -0.385657023151E+03    0.11578E-04   -0.48663E-05 29488   0.151E-02    0.111E-01
DAV:   8    -0.385657024554E+03   -0.14029E-05   -0.14611E-05 23696   0.109E-02
  23 F= -.38565702E+03 E0= -.38564622E+03  d E =-.668922E-03  mag=    46.0000
       N       E                     dE             d eps       ncg     rms          rms(c)
DAV:   1    -0.385557181478E+03    0.99842E-01   -0.26445E+01 39720   0.142E+01    0.142E+00
DAV:   2    -0.385690489965E+03   -0.13331E+00   -0.12044E+00 37040   0.241E+00    0.395E+00
DAV:   3    -0.385661839294E+03    0.28651E-01   -0.13907E-01 41576   0.886E-01    0.142E+00
DAV:   4    -0.385672945316E+03   -0.11106E-01   -0.10585E-01 48632   0.435E-01    0.291E+00
DAV:   5    -0.385662853348E+03    0.10092E-01   -0.16535E-02 42120   0.321E-01    0.121E+00
DAV:   6    -0.385663443924E+03   -0.59058E-03   -0.10713E-02 50616   0.165E-01    0.617E-01
DAV:   7    -0.385665858602E+03   -0.24147E-02   -0.45658E-03 39968   0.138E-01    0.140E+00
DAV:   8    -0.385663522568E+03    0.23360E-02   -0.16911E-03 42784   0.114E-01    0.835E-01
DAV:   9    -0.385663317730E+03    0.20484E-03   -0.23144E-03 48488   0.848E-02    0.419E-01
DAV:  10    -0.385663616327E+03   -0.29860E-03   -0.13383E-03 44336   0.763E-02    0.359E-01
DAV:  11    -0.385663776940E+03   -0.16061E-03   -0.42002E-04 39424   0.512E-02    0.490E-01
DAV:  12    -0.385663559025E+03    0.21792E-03   -0.29729E-04 42744   0.367E-02    0.326E-01
DAV:  13    -0.385663507101E+03    0.51924E-04   -0.31326E-04 34712   0.291E-02    0.109E-01
DAV:  14    -0.385663566911E+03   -0.59811E-04   -0.90719E-05 27200   0.145E-02    0.629E-02
DAV:  15    -0.385663577606E+03   -0.10695E-04   -0.20492E-05 25456   0.116E-02    0.662E-02
DAV:  16    -0.385663578977E+03   -0.13708E-05   -0.87371E-06 22032   0.739E-03
  24 F= -.38566358E+03 E0= -.38565270E+03  d E =-.655442E-02  mag=    46.0000
       N       E                     dE             d eps       ncg     rms          rms(c)
DAV:   1    -0.385554902709E+03    0.10867E+00   -0.21312E+01 39904   0.134E+01    0.198E+00
DAV:   2    -0.385818645011E+03   -0.26374E+00   -0.23738E+00 39528   0.276E+00    0.827E+00
DAV:   3    -0.385646099725E+03    0.17255E+00   -0.21640E-01 39464   0.152E+00    0.344E+00
DAV:   4    -0.385648813580E+03   -0.27139E-02   -0.19450E-01 50352   0.549E-01    0.124E+00
DAV:   5    -0.385658135301E+03   -0.93217E-02   -0.13280E-02 39640   0.316E-01    0.182E+00
DAV:   6    -0.385654224644E+03    0.39107E-02   -0.47007E-03 43528   0.209E-01    0.121E+00
DAV:   7    -0.385652942888E+03    0.12818E-02   -0.77248E-03 50696   0.149E-01    0.464E-01
DAV:   8    -0.385654365492E+03   -0.14226E-02   -0.60352E-03 45824   0.143E-01    0.997E-01
DAV:   9    -0.385653759090E+03    0.60640E-03   -0.19212E-03 45328   0.107E-01    0.837E-01
DAV:  10    -0.385653419966E+03    0.33912E-03   -0.11580E-03 47248   0.792E-02    0.604E-01
DAV:  11    -0.385653559519E+03   -0.13955E-03   -0.38063E-04 46008   0.661E-02    0.623E-01
DAV:  12    -0.385653250677E+03    0.30884E-03   -0.59327E-04 47024   0.497E-02    0.417E-01
DAV:  13    -0.385653324296E+03   -0.73619E-04   -0.20982E-03 41400   0.536E-02    0.297E-01
DAV:  14    -0.385653410243E+03   -0.85947E-04   -0.43157E-04 37904   0.509E-02    0.289E-01
DAV:  15    -0.385653336674E+03    0.73570E-04   -0.11784E-04 37240   0.270E-02    0.170E-01
DAV:  16    -0.385653331934E+03    0.47397E-05   -0.79978E-05 30408   0.180E-02
  25 F= -.38565333E+03 E0= -.38564273E+03  d E =0.102470E-01  mag=    46.0000
       N       E                     dE             d eps       ncg     rms          rms(c)
DAV:   1    -0.385647650897E+03    0.56858E-02   -0.10031E+00 41376   0.397E+00    0.531E-01
DAV:   2    -0.385662205276E+03   -0.14554E-01   -0.10812E-01 37008   0.682E-01    0.214E+00
DAV:   3    -0.385656318721E+03    0.58866E-02   -0.18239E-02 41264   0.308E-01    0.444E-01
DAV:   4    -0.385659743174E+03   -0.34245E-02   -0.11314E-02 47088   0.173E-01    0.126E+00
DAV:   5    -0.385658169946E+03    0.15732E-02   -0.47861E-03 41656   0.145E-01    0.816E-01
DAV:   6    -0.385657877908E+03    0.29204E-03   -0.20078E-03 44000   0.729E-02    0.423E-01
DAV:   7    -0.385658069484E+03   -0.19158E-03   -0.92588E-04 40344   0.513E-02    0.326E-01
DAV:   8    -0.385658095529E+03   -0.26045E-04   -0.51975E-04 39152   0.441E-02    0.317E-01
DAV:   9    -0.385658037056E+03    0.58473E-04   -0.18608E-04 36560   0.368E-02    0.232E-01
DAV:  10    -0.385658021188E+03    0.15868E-04   -0.14025E-04 36176   0.326E-02    0.152E-01
DAV:  11    -0.385658013458E+03    0.77301E-05   -0.62257E-05 33480   0.210E-02
  26 F= -.38565801E+03 E0= -.38564741E+03  d E =-.468152E-02  mag=    46.0000
       N       E                     dE             d eps       ncg     rms          rms(c)
DAV:   1    -0.385658280667E+03   -0.25948E-03   -0.14959E-01 39640   0.125E+00    0.163E-01
DAV:   2    -0.385659727505E+03   -0.14468E-02   -0.10931E-02 37072   0.225E-01    0.747E-01
DAV:   3    -0.385659018771E+03    0.70873E-03   -0.15800E-03 41680   0.980E-02    0.155E-01
DAV:   4    -0.385659314783E+03   -0.29601E-03   -0.10249E-03 40528   0.485E-02    0.325E-01
DAV:   5    -0.385659227389E+03    0.87393E-04   -0.49537E-04 35760   0.436E-02    0.242E-01
DAV:   6    -0.385659190262E+03    0.37127E-04   -0.14338E-04 30560   0.247E-02    0.144E-01
DAV:   7    -0.385659192378E+03   -0.21156E-05   -0.99090E-05 30256   0.179E-02
  27 F= -.38565919E+03 E0= -.38564856E+03  d E =-.117892E-02  mag=    46.0000
       N       E                     dE             d eps       ncg     rms          rms(c)
DAV:   1    -0.385658627923E+03    0.56234E-03   -0.54727E-01 39512   0.206E+00    0.195E-01
DAV:   2    -0.385661012679E+03   -0.23848E-02   -0.23762E-02 36816   0.338E-01    0.303E-01
DAV:   3    -0.385661138847E+03   -0.12617E-03   -0.25466E-03 49968   0.104E-01    0.429E-01
DAV:   4    -0.385660933127E+03    0.20572E-03   -0.12730E-03 42952   0.716E-02    0.246E-01
DAV:   5    -0.385660922712E+03    0.10415E-04   -0.31710E-04 36064   0.409E-02    0.128E-01
DAV:   6    -0.385660932420E+03   -0.97080E-05   -0.87639E-05 32744   0.271E-02
  28 F= -.38566093E+03 E0= -.38565028E+03  d E =-.174004E-02  mag=    46.0000
       N       E                     dE             d eps       ncg     rms          rms(c)
DAV:   1    -0.385659621989E+03    0.13007E-02   -0.58926E-01 39824   0.214E+00    0.216E-01
DAV:   2    -0.385662749573E+03   -0.31276E-02   -0.25824E-02 37360   0.363E-01    0.827E-01
DAV:   3    -0.385661743819E+03    0.10058E-02   -0.27869E-03 42160   0.133E-01    0.155E-01
DAV:   4    -0.385662171370E+03   -0.42755E-03   -0.12431E-03 45104   0.587E-02    0.462E-01
DAV:   5    -0.385661952991E+03    0.21838E-03   -0.60391E-04 36720   0.521E-02    0.254E-01
DAV:   6    -0.385661930628E+03    0.22363E-04   -0.15952E-04 34336   0.323E-02    0.116E-01
DAV:   7    -0.385661987902E+03   -0.57274E-04   -0.24613E-04 32752   0.284E-02    0.210E-01
DAV:   8    -0.385661992900E+03   -0.49977E-05   -0.10060E-04 32352   0.256E-02    0.232E-01
DAV:   9    -0.385661936624E+03    0.56276E-04   -0.85166E-05 31280   0.204E-02    0.133E-01
DAV:  10    -0.385661932220E+03    0.44035E-05   -0.64651E-05 29592   0.176E-02
  29 F= -.38566193E+03 E0= -.38565120E+03  d E =-.999800E-03  mag=    46.0000
       N       E                     dE             d eps       ncg     rms          rms(c)
DAV:   1    -0.385648237526E+03    0.13699E-01   -0.32687E+00 39904   0.531E+00    0.587E-01
DAV:   2    -0.385674046857E+03   -0.25809E-01   -0.22710E-01 38120   0.947E-01    0.291E+00
DAV:   3    -0.385660054384E+03    0.13992E-01   -0.54811E-02 38192   0.448E-01    0.705E-01
DAV:   4    -0.385663893863E+03   -0.38395E-02   -0.12005E-02 45512   0.176E-01    0.102E+00
DAV:   5    -0.385663483576E+03    0.41029E-03   -0.24317E-03 40072   0.130E-01    0.745E-01
DAV:   6    -0.385663087288E+03    0.39629E-03   -0.10445E-03 40528   0.667E-02    0.511E-01
DAV:   7    -0.385662951890E+03    0.13540E-03   -0.80067E-04 41776   0.524E-02    0.215E-01
DAV:   8    -0.385663148721E+03   -0.19683E-03   -0.11093E-03 40304   0.480E-02    0.308E-01
DAV:   9    -0.385663123164E+03    0.25557E-04   -0.22210E-04 36872   0.440E-02    0.262E-01
DAV:  10    -0.385663080774E+03    0.42390E-04   -0.17034E-04 37200   0.375E-02    0.206E-01
DAV:  11    -0.385663116824E+03   -0.36050E-04   -0.81954E-05 37216   0.212E-02    0.243E-01
DAV:  12    -0.385663055138E+03    0.61687E-04   -0.70256E-05 29656   0.189E-02    0.146E-01
DAV:  13    -0.385663054190E+03    0.94735E-06   -0.12935E-04 31096   0.166E-02    0.502E-02
DAV:  14    -0.385663076449E+03   -0.22259E-04   -0.57552E-05 25312   0.135E-02    0.726E-02
DAV:  15    -0.385663075280E+03    0.11694E-05   -0.65464E-06 23792   0.913E-03
  30 F= -.38566308E+03 E0= -.38565228E+03  d E =-.114306E-02  mag=    46.0000
       N       E                     dE             d eps       ncg     rms          rms(c)
DAV:   1    -0.385483452416E+03    0.17962E+00   -0.46673E+01 39808   0.186E+01    0.231E+00
DAV:   2    -0.385845067931E+03   -0.36162E+00   -0.33026E+00 39784   0.357E+00    0.870E+00
DAV:   3    -0.385650732592E+03    0.19434E+00   -0.40913E-01 39248   0.175E+00    0.285E+00
DAV:   4    -0.385665998008E+03   -0.15265E-01   -0.12895E-01 49160   0.630E-01    0.271E+00
DAV:   5    -0.385669636551E+03   -0.36385E-02   -0.38358E-02 42024   0.421E-01    0.262E+00
DAV:   6    -0.385661611846E+03    0.80247E-02   -0.15563E-02 39360   0.288E-01    0.144E+00
DAV:   7    -0.385661386296E+03    0.22555E-03   -0.10153E-02 49536   0.151E-01    0.564E-01
DAV:   8    -0.385663261508E+03   -0.18752E-02   -0.55960E-03 39656   0.129E-01    0.927E-01
DAV:   9    -0.385662211194E+03    0.10503E-02   -0.28532E-03 43592   0.137E-01    0.635E-01
DAV:  10    -0.385662394052E+03   -0.18286E-03   -0.16727E-03 48960   0.980E-02    0.640E-01
DAV:  11    -0.385662255390E+03    0.13866E-03   -0.11029E-03 46680   0.899E-02    0.615E-01
DAV:  12    -0.385661935433E+03    0.31996E-03   -0.10435E-03 47928   0.614E-02    0.376E-01
DAV:  13    -0.385661977347E+03   -0.41913E-04   -0.11772E-03 43064   0.551E-02    0.187E-01
DAV:  14    -0.385662104101E+03   -0.12675E-03   -0.29498E-04 36968   0.356E-02    0.227E-01
DAV:  15    -0.385662099464E+03    0.46370E-05   -0.70284E-05 31512   0.220E-02
  31 F= -.38566210E+03 E0= -.38565155E+03  d E =0.975816E-03  mag=    46.0000
       N       E                     dE             d eps       ncg     rms          rms(c)
DAV:   1    -0.385361302059E+03    0.30080E+00   -0.27003E+01 42872   0.193E+01    0.287E+00
DAV:   2    -0.385798252171E+03   -0.43695E+00   -0.39623E+00 39376   0.360E+00    0.891E+00
DAV:   3    -0.385597587055E+03    0.20067E+00   -0.47572E-01 40496   0.191E+00    0.195E+00
DAV:   4    -0.385635175242E+03   -0.37588E-01   -0.17134E-01 48480   0.739E-01    0.311E+00
DAV:   5    -0.385624140649E+03    0.11035E-01   -0.49541E-02 41576   0.572E-01    0.156E+00
DAV:   6    -0.385622911777E+03    0.12289E-02   -0.19593E-02 50336   0.291E-01    0.789E-01
DAV:   7    -0.385624331364E+03   -0.14196E-02   -0.78418E-03 46408   0.215E-01    0.107E+00
DAV:   8    -0.385622735490E+03    0.15959E-02   -0.65477E-03 46864   0.198E-01    0.468E-01
DAV:   9    -0.385624305121E+03   -0.15696E-02   -0.14736E-02 44544   0.217E-01    0.122E+00
DAV:  10    -0.385622611448E+03    0.16937E-02   -0.29458E-03 41656   0.140E-01    0.785E-01
DAV:  11    -0.385622155627E+03    0.45582E-03   -0.18349E-03 50024   0.800E-02    0.312E-01
DAV:  12    -0.385622422705E+03   -0.26708E-03   -0.12471E-03 41832   0.768E-02    0.191E-01
DAV:  13    -0.385622634086E+03   -0.21138E-03   -0.84823E-04 43536   0.571E-02    0.412E-01
DAV:  14    -0.385622567757E+03    0.66329E-04   -0.17034E-04 36824   0.400E-02    0.426E-01
DAV:  15    -0.385622399243E+03    0.16851E-03   -0.13770E-04 40504   0.298E-02    0.275E-01
DAV:  16    -0.385622368711E+03    0.30532E-04   -0.32650E-04 33688   0.257E-02    0.498E-02
DAV:  17    -0.385622465189E+03   -0.96477E-04   -0.21216E-04 31856   0.202E-02    0.178E-01
DAV:  18    -0.385622441306E+03    0.23883E-04   -0.20964E-05 28528   0.171E-02    0.150E-01
DAV:  19    -0.385622415708E+03    0.25598E-04   -0.51741E-05 28840   0.123E-02    0.455E-02
DAV:  20    -0.385622429699E+03   -0.13991E-04   -0.40140E-05 25984   0.768E-03    0.445E-02
DAV:  21    -0.385622430032E+03   -0.33255E-06   -0.53443E-06 25224   0.863E-03
  32 F= -.38562243E+03 E0= -.38561194E+03  d E =0.396694E-01  mag=    46.0000
       N       E                     dE             d eps       ncg     rms          rms(c)
DAV:   1    -0.385581516692E+03    0.40913E-01   -0.59546E+00 45720   0.905E+00    0.137E+00
DAV:   2    -0.385665457704E+03   -0.83941E-01   -0.69678E-01 38608   0.153E+00    0.301E+00
DAV:   3    -0.385662266368E+03    0.31913E-02   -0.24854E-01 42304   0.795E-01    0.302E+00
DAV:   4    -0.385656110005E+03    0.61564E-02   -0.46299E-02 42240   0.483E-01    0.168E+00
DAV:   5    -0.385655481443E+03    0.62856E-03   -0.18266E-02 46032   0.283E-01    0.490E-01
DAV:   6    -0.385657131660E+03   -0.16502E-02   -0.38459E-03 44400   0.139E-01    0.804E-01
DAV:   7    -0.385656371375E+03    0.76029E-03   -0.23524E-03 44912   0.106E-01    0.588E-01
DAV:   8    -0.385656012827E+03    0.35855E-03   -0.17030E-03 47336   0.101E-01    0.247E-01
DAV:   9    -0.385656225395E+03   -0.21257E-03   -0.15047E-03 44000   0.869E-02    0.415E-01
DAV:  10    -0.385656024611E+03    0.20078E-03   -0.54040E-04 45216   0.692E-02    0.295E-01
DAV:  11    -0.385655956092E+03    0.68520E-04   -0.50080E-04 45880   0.514E-02    0.108E-01
DAV:  12    -0.385656008638E+03   -0.52546E-04   -0.17609E-04 40424   0.356E-02    0.131E-01
DAV:  13    -0.385655993025E+03    0.15614E-04   -0.53847E-05 32328   0.209E-02    0.956E-02
DAV:  14    -0.385655981174E+03    0.11850E-04   -0.22859E-05 28376   0.120E-02    0.463E-02
DAV:  15    -0.385655979445E+03    0.17288E-05   -0.13761E-05 28120   0.998E-03
  33 F= -.38565598E+03 E0= -.38564569E+03  d E =-.335494E-01  mag=    46.0000
       N       E                     dE             d eps       ncg     rms          rms(c)
DAV:   1    -0.385646263935E+03    0.97172E-02   -0.11581E+00 44816   0.406E+00    0.561E-01
DAV:   2    -0.385661003589E+03   -0.14740E-01   -0.12273E-01 38664   0.669E-01    0.140E+00
DAV:   3    -0.385659680499E+03    0.13231E-02   -0.27219E-02 42200   0.315E-01    0.108E+00
DAV:   4    -0.385660005635E+03   -0.32514E-03   -0.75836E-03 42320   0.200E-01    0.898E-01
DAV:   5    -0.385659250433E+03    0.75520E-03   -0.26140E-03 45208   0.121E-01    0.249E-01
DAV:   6    -0.385659538276E+03   -0.28784E-03   -0.64145E-04 44296   0.656E-02    0.292E-01
DAV:   7    -0.385659513614E+03    0.24662E-04   -0.41635E-04 40216   0.545E-02    0.286E-01
DAV:   8    -0.385659407669E+03    0.10595E-03   -0.16197E-04 42112   0.418E-02    0.192E-01
DAV:   9    -0.385659409093E+03   -0.14235E-05   -0.42754E-04 40976   0.373E-02    0.162E-01
DAV:  10    -0.385659415398E+03   -0.63054E-05   -0.11650E-04 36088   0.277E-02    0.173E-01
DAV:  11    -0.385659383098E+03    0.32300E-04   -0.47334E-05 31392   0.216E-02    0.108E-01
DAV:  12    -0.385659376888E+03    0.62094E-05   -0.67084E-05 29528   0.176E-02
  34 F= -.38565938E+03 E0= -.38564912E+03  d E =-.339744E-02  mag=    46.0000
       N       E                     dE             d eps       ncg     rms          rms(c)
DAV:   1    -0.385659559091E+03   -0.17599E-03   -0.10143E-01 40088   0.967E-01    0.111E-01
DAV:   2    -0.385660245953E+03   -0.68686E-03   -0.57954E-03 37416   0.163E-01    0.381E-01
DAV:   3    -0.385660061314E+03    0.18464E-03   -0.71670E-04 40752   0.651E-02    0.743E-02
DAV:   4    -0.385660134623E+03   -0.73309E-04   -0.89972E-05 33944   0.268E-02    0.144E-01
DAV:   5    -0.385660108490E+03    0.26133E-04   -0.50123E-05 29512   0.228E-02    0.785E-02
DAV:   6    -0.385660108727E+03   -0.23663E-06   -0.57880E-05 28232   0.139E-02
  35 F= -.38566011E+03 E0= -.38564984E+03  d E =-.731839E-03  mag=    46.0000
       N       E                     dE             d eps       ncg     rms          rms(c)
DAV:   1    -0.385659635677E+03    0.47281E-03   -0.42839E-01 40936   0.188E+00    0.227E-01
DAV:   2    -0.385663007289E+03   -0.33716E-02   -0.24700E-02 37512   0.332E-01    0.122E+00
DAV:   3    -0.385661100454E+03    0.19068E-02   -0.40385E-03 39544   0.155E-01    0.331E-01
DAV:   4    -0.385661698283E+03   -0.59783E-03   -0.16543E-03 43720   0.696E-02    0.393E-01
DAV:   5    -0.385661710451E+03   -0.12168E-04   -0.97763E-04 37696   0.585E-02    0.373E-01
DAV:   6    -0.385661641645E+03    0.68806E-04   -0.14138E-04 33432   0.376E-02    0.317E-01
DAV:   7    -0.385661548557E+03    0.93088E-04   -0.18916E-04 32848   0.239E-02    0.130E-01
DAV:   8    -0.385661599057E+03   -0.50500E-04   -0.28765E-04 33640   0.252E-02    0.140E-01
DAV:   9    -0.385661644312E+03   -0.45254E-04   -0.14162E-04 32568   0.228E-02    0.231E-01
DAV:  10    -0.385661617188E+03    0.27124E-04   -0.35594E-05 28232   0.171E-02    0.227E-01
DAV:  11    -0.385661617061E+03    0.12661E-06   -0.11668E-05 24552   0.939E-03
  36 F= -.38566162E+03 E0= -.38565135E+03  d E =-.150833E-02  mag=    46.0000
       N       E                     dE             d eps       ncg     rms          rms(c)
DAV:   1    -0.385661026436E+03    0.59075E-03   -0.33913E-01 40200   0.175E+00    0.316E-01
DAV:   2    -0.385669927341E+03   -0.89009E-02   -0.67857E-02 40512   0.401E-01    0.261E+00
DAV:   3    -0.385660768256E+03    0.91591E-02   -0.18142E-02 37976   0.288E-01    0.107E+00
DAV:   4    -0.385661818429E+03   -0.10502E-02   -0.35379E-03 43208   0.826E-02    0.325E-01
DAV:   5    -0.385662727538E+03   -0.90911E-03   -0.22683E-03 36184   0.640E-02    0.411E-01
DAV:   6    -0.385662921381E+03   -0.19384E-03   -0.44094E-04 36648   0.502E-02    0.546E-01
DAV:   7    -0.385662695245E+03    0.22614E-03   -0.92330E-05 30968   0.295E-02    0.449E-01
DAV:   8    -0.385662609860E+03    0.85385E-04   -0.83765E-05 29088   0.156E-02    0.314E-01
DAV:   9    -0.385662606338E+03    0.35217E-05   -0.72235E-05 27408   0.136E-02
  37 F= -.38566261E+03 E0= -.38565231E+03  d E =-.989277E-03  mag=    46.0000
       N       E                     dE             d eps       ncg     rms          rms(c)
DAV:   1    -0.385659109415E+03    0.35004E-02   -0.10471E+00 39968   0.298E+00    0.311E-01
DAV:   2    -0.385666692926E+03   -0.75835E-02   -0.64983E-02 37136   0.513E-01    0.162E+00
DAV:   3    -0.385662809449E+03    0.38835E-02   -0.13333E-02 37392   0.228E-01    0.345E-01
DAV:   4    -0.385664107399E+03   -0.12980E-02   -0.30170E-03 45952   0.935E-02    0.527E-01
DAV:   5    -0.385664120316E+03   -0.12916E-04   -0.93724E-04 37664   0.735E-02    0.513E-01
DAV:   6    -0.385663886439E+03    0.23388E-03   -0.21723E-04 35136   0.421E-02    0.359E-01
DAV:   7    -0.385663818311E+03    0.68128E-04   -0.30573E-04 33368   0.288E-02    0.149E-01
DAV:   8    -0.385663885659E+03   -0.67348E-04   -0.29873E-04 32808   0.287E-02    0.128E-01
DAV:   9    -0.385663904037E+03   -0.18377E-04   -0.73914E-05 31480   0.245E-02    0.149E-01
DAV:  10    -0.385663907724E+03   -0.36874E-05   -0.58083E-05 29872   0.222E-02
  38 F= -.38566391E+03 E0= -.38565355E+03  d E =-.130139E-02  mag=    46.0000
       N       E                     dE             d eps       ncg     rms          rms(c)
DAV:   1    -0.385639358830E+03    0.24545E-01   -0.58918E+00 40360   0.707E+00    0.678E-01
DAV:   2    -0.385670681696E+03   -0.31323E-01   -0.27687E-01 36656   0.117E+00    0.233E+00
DAV:   3    -0.385664196213E+03    0.64855E-02   -0.35576E-02 41608   0.418E-01    0.807E-01
DAV:   4    -0.385667044781E+03   -0.28486E-02   -0.12490E-02 41576   0.242E-01    0.107E+00
DAV:   5    -0.385665557650E+03    0.14871E-02   -0.46225E-03 45664   0.163E-01    0.543E-01
DAV:   6    -0.385665486426E+03    0.71224E-04   -0.96041E-04 47264   0.842E-02    0.322E-01
DAV:   7    -0.385665489778E+03   -0.33524E-05   -0.11724E-03 43408   0.635E-02    0.251E-01
DAV:   8    -0.385665644319E+03   -0.15454E-03   -0.60329E-04 42752   0.573E-02    0.465E-01
DAV:   9    -0.385665413378E+03    0.23094E-03   -0.24139E-04 39320   0.506E-02    0.323E-01
DAV:  10    -0.385665349755E+03    0.63622E-04   -0.31833E-04 38216   0.327E-02    0.904E-02
DAV:  11    -0.385665414211E+03   -0.64456E-04   -0.10994E-04 33928   0.233E-02    0.789E-02
DAV:  12    -0.385665419364E+03   -0.51531E-05   -0.50523E-05 29320   0.200E-02
  39 F= -.38566542E+03 E0= -.38565509E+03  d E =-.151164E-02  mag=    46.0000
       N       E                     dE             d eps       ncg     rms          rms(c)
DAV:   1    -0.385271995638E+03    0.39342E+00   -0.53820E+01 41368   0.246E+01    0.320E+00
DAV:   2    -0.385860225065E+03   -0.58823E+00   -0.52494E+00 39112   0.442E+00    0.108E+01
DAV:   3    -0.385588961302E+03    0.27126E+00   -0.72767E-01 40104   0.217E+00    0.222E+00
DAV:   4    -0.385637751140E+03   -0.48790E-01   -0.13843E-01 46368   0.757E-01    0.320E+00
DAV:   5    -0.385629562571E+03    0.81886E-02   -0.43137E-02 43336   0.554E-01    0.255E+00
DAV:   6    -0.385622520344E+03    0.70422E-02   -0.19910E-02 48912   0.301E-01    0.104E+00
DAV:   7    -0.385627216496E+03   -0.46962E-02   -0.31438E-02 47472   0.236E-01    0.177E+00
DAV:   8    -0.385627311718E+03   -0.95222E-04   -0.75948E-03 41048   0.231E-01    0.188E+00
DAV:   9    -0.385623673130E+03    0.36386E-02   -0.57235E-03 47384   0.154E-01    0.113E+00
DAV:  10    -0.385623504528E+03    0.16860E-03   -0.71896E-03 49784   0.141E-01    0.571E-01
DAV:  11    -0.385624133994E+03   -0.62947E-03   -0.31383E-03 43072   0.140E-01    0.595E-01
DAV:  12    -0.385623795771E+03    0.33822E-03   -0.31483E-03 43728   0.132E-01    0.307E-01
DAV:  13    -0.385624529840E+03   -0.73407E-03   -0.17740E-03 44040   0.906E-02    0.742E-01
DAV:  14    -0.385623992955E+03    0.53688E-03   -0.30572E-04 41136   0.525E-02    0.620E-01
DAV:  15    -0.385623624788E+03    0.36817E-03   -0.63780E-04 46744   0.392E-02    0.231E-01
DAV:  16    -0.385623827875E+03   -0.20309E-03   -0.50495E-04 35712   0.279E-02    0.148E-01
DAV:  17    -0.385623907906E+03   -0.80031E-04   -0.75015E-05 30376   0.232E-02    0.203E-01
DAV:  18    -0.385623836605E+03    0.71301E-04   -0.12707E-04 33848   0.249E-02    0.250E-02
DAV:  19    -0.385623875301E+03   -0.38696E-04   -0.81289E-05 29800   0.121E-02    0.114E-01
DAV:  20    -0.385623867025E+03    0.82764E-05   -0.73015E-06 25200   0.105E-02
  40 F= -.38562387E+03 E0= -.38561418E+03  d E =0.415523E-01  mag=    46.0000
       N       E                     dE             d eps       ncg     rms          rms(c)
DAV:   1    -0.385496810678E+03    0.12706E+00   -0.11596E+01 46312   0.135E+01    0.201E+00
DAV:   2    -0.385670603840E+03   -0.17379E+00   -0.15279E+00 37968   0.219E+00    0.375E+00
DAV:   3    -0.385683529504E+03   -0.12926E-01   -0.36580E-01 43456   0.108E+00    0.480E+00
DAV:   4    -0.385660728818E+03    0.22801E-01   -0.14348E-01 42480   0.697E-01    0.213E+00
DAV:   5    -0.385661033597E+03   -0.30478E-03   -0.16732E-02 46736   0.356E-01    0.542E-01
DAV:   6    -0.385664991352E+03   -0.39578E-02   -0.10689E-02 42208   0.217E-01    0.140E+00
DAV:   7    -0.385662789026E+03    0.22023E-02   -0.56053E-03 44432   0.166E-01    0.674E-01
DAV:   8    -0.385663059312E+03   -0.27029E-03   -0.27411E-03 49208   0.129E-01    0.576E-01
DAV:   9    -0.385663102763E+03   -0.43451E-04   -0.26083E-03 45352   0.114E-01    0.595E-01
DAV:  10    -0.385662966159E+03    0.13660E-03   -0.23758E-03 47640   0.101E-01    0.582E-01
DAV:  11    -0.385662647542E+03    0.31862E-03   -0.80119E-04 46600   0.776E-02    0.282E-01
DAV:  12    -0.385662748792E+03   -0.10125E-03   -0.10194E-03 46936   0.604E-02    0.215E-01
DAV:  13    -0.385662729733E+03    0.19059E-04   -0.23015E-04 38560   0.459E-02    0.110E-01
DAV:  14    -0.385662728110E+03    0.16232E-05   -0.98764E-05 37808   0.210E-02
  41 F= -.38566273E+03 E0= -.38565277E+03  d E =-.388611E-01  mag=    46.0000
       N       E                     dE             d eps       ncg     rms          rms(c)
DAV:   1    -0.385661744874E+03    0.98486E-03   -0.21206E-01 42664   0.180E+00    0.326E-01
DAV:   2    -0.385668915883E+03   -0.71710E-02   -0.38908E-02 39616   0.370E-01    0.207E+00
DAV:   3    -0.385662513154E+03    0.64027E-02   -0.10996E-02 37976   0.269E-01    0.517E-01
DAV:   4    -0.385664260063E+03   -0.17469E-02   -0.34952E-03 43096   0.903E-02    0.529E-01
DAV:   5    -0.385664698193E+03   -0.43813E-03   -0.16606E-03 37512   0.774E-02    0.689E-01
DAV:   6    -0.385664352798E+03    0.34540E-03   -0.23137E-04 35560   0.471E-02    0.584E-01
DAV:   7    -0.385664166884E+03    0.18591E-03   -0.20584E-04 32648   0.234E-02    0.397E-01
DAV:   8    -0.385664147187E+03    0.19696E-04   -0.25607E-04 30696   0.198E-02    0.190E-01
DAV:   9    -0.385664219473E+03   -0.72286E-04   -0.15755E-04 31272   0.199E-02    0.935E-02
DAV:  10    -0.385664258478E+03   -0.39005E-04   -0.11543E-04 30112   0.192E-02    0.115E-01
DAV:  11    -0.385664321537E+03   -0.63059E-04   -0.10120E-04 26128   0.143E-02    0.256E-01
DAV:  12    -0.385664299907E+03    0.21630E-04   -0.16987E-05 25304   0.115E-02    0.283E-01
DAV:  13    -0.385664234866E+03    0.65041E-04   -0.27040E-05 24888   0.113E-02    0.201E-01
DAV:  14    -0.385664214787E+03    0.20079E-04   -0.14003E-04 30976   0.155E-02    0.348E-02
DAV:  15    -0.385664253321E+03   -0.38534E-04   -0.38430E-05 25640   0.105E-02    0.667E-02
DAV:  16    -0.385664253846E+03   -0.52463E-06   -0.40121E-06 22912   0.660E-03
  42 F= -.38566425E+03 E0= -.38565428E+03  d E =-.152574E-02  mag=    46.0000
       N       E                     dE             d eps       ncg     rms          rms(c)
DAV:   1    -0.385651806239E+03    0.12447E-01   -0.18405E+00 40984   0.464E+00    0.767E-01
DAV:   2    -0.385691581408E+03   -0.39775E-01   -0.29291E-01 38960   0.940E-01    0.442E+00
DAV:   3    -0.385659842493E+03    0.31739E-01   -0.86196E-02 38496   0.613E-01    0.105E+00
DAV:   4    -0.385667588611E+03   -0.77461E-02   -0.19766E-02 47032   0.205E-01    0.126E+00
DAV:   5    -0.385668694877E+03   -0.11063E-02   -0.82869E-03 38992   0.168E-01    0.141E+00
DAV:   6    -0.385667325519E+03    0.13694E-02   -0.10735E-03 39096   0.940E-02    0.116E+00
DAV:   7    -0.385666578286E+03    0.74723E-03   -0.12292E-03 41696   0.504E-02    0.753E-01
DAV:   8    -0.385666476263E+03    0.10202E-03   -0.23797E-03 43856   0.592E-02    0.270E-01
DAV:   9    -0.385666942297E+03   -0.46603E-03   -0.13148E-03 38680   0.555E-02    0.328E-01
DAV:  10    -0.385667172327E+03   -0.23003E-03   -0.54629E-04 37192   0.450E-02    0.535E-01
DAV:  11    -0.385667242421E+03   -0.70094E-04   -0.16537E-04 34096   0.287E-02    0.669E-01
DAV:  12    -0.385666883162E+03    0.35926E-03   -0.11095E-04 34328   0.278E-02    0.515E-01
DAV:  13    -0.385666700472E+03    0.18269E-03   -0.51521E-04 39208   0.321E-02    0.148E-01
DAV:  14    -0.385666914839E+03   -0.21437E-03   -0.55794E-04 33416   0.252E-02    0.212E-01
DAV:  15    -0.385666937389E+03   -0.22550E-04   -0.54275E-05 29688   0.229E-02    0.236E-01
DAV:  16    -0.385666870910E+03    0.66478E-04   -0.63666E-05 29608   0.159E-02    0.124E-01
DAV:  17    -0.385666880177E+03   -0.92673E-05   -0.41024E-05 24440   0.759E-03
  43 F= -.38566688E+03 E0= -.38565686E+03  d E =-.262633E-02  mag=    46.0000
       N       E                     dE             d eps       ncg     rms          rms(c)
DAV:   1    -0.385666307267E+03    0.56364E-03   -0.65368E-02 44016   0.105E+00    0.165E-01
DAV:   2    -0.385667791319E+03   -0.14841E-02   -0.11088E-02 37944   0.187E-01    0.771E-01
DAV:   3    -0.385666961311E+03    0.83001E-03   -0.31733E-03 37656   0.114E-01    0.129E-01
DAV:   4    -0.385667330483E+03   -0.36917E-03   -0.38758E-04 36184   0.494E-02    0.285E-01
DAV:   5    -0.385667283003E+03    0.47481E-04   -0.15503E-04 32584   0.366E-02    0.251E-01
DAV:   6    -0.385667228350E+03    0.54653E-04   -0.44774E-05 29384   0.170E-02    0.157E-01
DAV:   7    -0.385667226451E+03    0.18983E-05   -0.83458E-05 27400   0.123E-02
  44 F= -.38566723E+03 E0= -.38565722E+03  d E =-.346274E-03  mag=    46.0000
       N       E                     dE             d eps       ncg     rms          rms(c)
DAV:   1    -0.385667469394E+03   -0.24104E-03   -0.82037E-02 39632   0.820E-01    0.113E-01
DAV:   2    -0.385668531425E+03   -0.10620E-02   -0.59234E-03 38952   0.167E-01    0.785E-01
DAV:   3    -0.385667633643E+03    0.89778E-03   -0.14043E-03 38192   0.974E-02    0.242E-01
DAV:   4    -0.385667812366E+03   -0.17872E-03   -0.44843E-04 34592   0.320E-02    0.141E-01
DAV:   5    -0.385667879750E+03   -0.67385E-04   -0.20924E-04 32024   0.257E-02    0.191E-01
DAV:   6    -0.385667857053E+03    0.22698E-04   -0.33044E-05 26864   0.188E-02    0.178E-01
DAV:   7    -0.385667829545E+03    0.27507E-04   -0.24051E-05 24800   0.103E-02    0.110E-01
DAV:   8    -0.385667827679E+03    0.18660E-05   -0.31829E-05 23096   0.881E-03
  45 F= -.38566783E+03 E0= -.38565776E+03  d E =-.601228E-03  mag=    46.0000
       N       E                     dE             d eps       ncg     rms          rms(c)
DAV:   1    -0.385667319810E+03    0.50974E-03   -0.30817E-01 39744   0.164E+00    0.215E-01
DAV:   2    -0.385670050951E+03   -0.27311E-02   -0.20667E-02 37096   0.302E-01    0.109E+00
DAV:   3    -0.385668447678E+03    0.16033E-02   -0.39120E-03 40896   0.146E-01    0.267E-01
DAV:   4    -0.385668926117E+03   -0.47844E-03   -0.13830E-03 42296   0.620E-02    0.380E-01
DAV:   5    -0.385668877031E+03    0.49086E-04   -0.72860E-04 38336   0.514E-02    0.310E-01
DAV:   6    -0.385668838446E+03    0.38585E-04   -0.10804E-04 32312   0.298E-02    0.258E-01
DAV:   7    -0.385668772640E+03    0.65806E-04   -0.15115E-04 31488   0.195E-02    0.946E-02
DAV:   8    -0.385668803789E+03   -0.31149E-04   -0.16087E-04 30280   0.171E-02    0.100E-01
DAV:   9    -0.385668817721E+03   -0.13933E-04   -0.36554E-05 27000   0.167E-02    0.137E-01
DAV:  10    -0.385668813441E+03    0.42805E-05   -0.35274E-05 26720   0.131E-02
  46 F= -.38566881E+03 E0= -.38565876E+03  d E =-.985761E-03  mag=    46.0000
       N       E                     dE             d eps       ncg     rms          rms(c)
DAV:   1    -0.385668532157E+03    0.28556E-03   -0.18350E-01 40424   0.125E+00    0.196E-01
DAV:   2    -0.385671237089E+03   -0.27049E-02   -0.18438E-02 38400   0.254E-01    0.132E+00
DAV:   3    -0.385668920775E+03    0.23163E-02   -0.44553E-03 38656   0.149E-01    0.459E-01
DAV:   4    -0.385669241734E+03   -0.32096E-03   -0.13598E-03 40040   0.470E-02    0.212E-01
DAV:   5    -0.385669396035E+03   -0.15430E-03   -0.61371E-04 36888   0.412E-02    0.245E-01
DAV:   6    -0.385669401289E+03   -0.52540E-05   -0.94412E-05 30576   0.280E-02
  47 F= -.38566940E+03 E0= -.38565939E+03  d E =-.587848E-03  mag=    46.0000
       N       E                     dE             d eps       ncg     rms          rms(c)
DAV:   1    -0.385641125917E+03    0.28270E-01   -0.83825E+00 40096   0.774E+00    0.135E+00
DAV:   2    -0.385773879629E+03   -0.13275E+00   -0.11237E+00 41152   0.172E+00    0.811E+00
DAV:   3    -0.385656536764E+03    0.11734E+00   -0.23513E-01 39632   0.114E+00    0.314E+00
DAV:   4    -0.385665548687E+03   -0.90119E-02   -0.37361E-02 44296   0.359E-01    0.747E-01
DAV:   5    -0.385673118157E+03   -0.75695E-02   -0.13936E-02 40632   0.209E-01    0.127E+00
DAV:   6    -0.385672482405E+03    0.63575E-03   -0.17462E-03 38904   0.144E-01    0.115E+00
DAV:   7    -0.385671404409E+03    0.10780E-02   -0.55129E-04 45576   0.585E-02    0.836E-01
DAV:   8    -0.385670885756E+03    0.51865E-03   -0.16744E-03 44536   0.639E-02    0.262E-01
DAV:   9    -0.385671573606E+03   -0.68785E-03   -0.20926E-03 40848   0.749E-02    0.571E-01
DAV:  10    -0.385671971288E+03   -0.39768E-03   -0.14173E-03 39496   0.659E-02    0.852E-01
DAV:  11    -0.385672068297E+03   -0.97009E-04   -0.66965E-04 38328   0.473E-02    0.102E+00
DAV:  12    -0.385671443094E+03    0.62520E-03   -0.23343E-04 37880   0.396E-02    0.858E-01
DAV:  13    -0.385670971151E+03    0.47194E-03   -0.82406E-04 42720   0.388E-02    0.444E-01
DAV:  14    -0.385671139211E+03   -0.16806E-03   -0.99593E-04 36024   0.347E-02    0.716E-02
DAV:  15    -0.385671409690E+03   -0.27048E-03   -0.26910E-04 32856   0.253E-02    0.264E-01
DAV:  16    -0.385671343566E+03    0.66124E-04   -0.31625E-05 28744   0.202E-02    0.212E-01
DAV:  17    -0.385671308714E+03    0.34852E-04   -0.45945E-05 27424   0.109E-02    0.109E-01
DAV:  18    -0.385671318414E+03   -0.96994E-05   -0.34491E-05 23712   0.710E-03
  48 F= -.38567132E+03 E0= -.38566128E+03  d E =-.191712E-02  mag=    46.0000
       N       E                     dE             d eps       ncg     rms          rms(c)
DAV:   1    -0.385581725379E+03    0.89583E-01   -0.20344E+01 40312   0.131E+01    0.146E+00
DAV:   2    -0.385739387647E+03   -0.15766E+00   -0.14155E+00 38080   0.231E+00    0.697E+00
DAV:   3    -0.385654893345E+03    0.84494E-01   -0.26909E-01 38784   0.106E+00    0.138E+00
DAV:   4    -0.385679313670E+03   -0.24420E-01   -0.53497E-02 46808   0.417E-01    0.243E+00
DAV:   5    -0.385678537918E+03    0.77575E-03   -0.21043E-02 41312   0.319E-01    0.214E+00
DAV:   6    -0.385674425211E+03    0.41127E-02   -0.29620E-03 44184   0.155E-01    0.155E+00
DAV:   7    -0.385672295195E+03    0.21300E-02   -0.42776E-03 50784   0.116E-01    0.529E-01
DAV:   8    -0.385673764644E+03   -0.14694E-02   -0.48833E-03 42624   0.110E-01    0.545E-01
DAV:   9    -0.385674317322E+03   -0.55268E-03   -0.19078E-03 39416   0.967E-02    0.832E-01
DAV:  10    -0.385674170391E+03    0.14693E-03   -0.57883E-04 41008   0.644E-02    0.919E-01
DAV:  11    -0.385674033158E+03    0.13723E-03   -0.37461E-04 45208   0.483E-02    0.938E-01
DAV:  12    -0.385673426994E+03    0.60616E-03   -0.53998E-04 39592   0.441E-02    0.640E-01
DAV:  13    -0.385673278316E+03    0.14868E-03   -0.14031E-03 40424   0.456E-02    0.128E-01
DAV:  14    -0.385673734240E+03   -0.45592E-03   -0.69575E-04 35960   0.356E-02    0.309E-01
DAV:  15    -0.385673761966E+03   -0.27727E-04   -0.76579E-05 32544   0.253E-02    0.367E-01
DAV:  16    -0.385673605423E+03    0.15654E-03   -0.10266E-04 32264   0.223E-02    0.214E-01
DAV:  17    -0.385673608976E+03   -0.35530E-05   -0.10100E-04 28752   0.128E-02    0.578E-02
DAV:  18    -0.385673645895E+03   -0.36920E-04   -0.33278E-05 24936   0.872E-03    0.271E-02
DAV:  19    -0.385673651540E+03   -0.56444E-05   -0.70020E-06 22952   0.843E-03
  49 F= -.38567365E+03 E0= -.38566369E+03  d E =-.233313E-02  mag=    46.0000
       N       E                     dE             d eps       ncg     rms          rms(c)
DAV:   1    -0.385631793979E+03    0.41852E-01   -0.10632E+01 39904   0.913E+00    0.136E+00
DAV:   2    -0.385732359543E+03   -0.10057E+00   -0.73556E-01 38440   0.176E+00    0.605E+00
DAV:   3    -0.385667685942E+03    0.64674E-01   -0.10630E-01 39720   0.933E-01    0.198E+00
DAV:   4    -0.385676655084E+03   -0.89691E-02   -0.63324E-02 48936   0.301E-01    0.203E+00
DAV:   5    -0.385679209086E+03   -0.25540E-02   -0.24214E-02 40640   0.277E-01    0.201E+00
DAV:   6    -0.385674566245E+03    0.46428E-02   -0.77157E-03 39008   0.183E-01    0.117E+00
DAV:   7    -0.385674104869E+03    0.46138E-03   -0.39607E-03 45160   0.102E-01    0.504E-01
DAV:   8    -0.385674735869E+03   -0.63100E-03   -0.37529E-03 46368   0.971E-02    0.534E-01
DAV:   9    -0.385675597784E+03   -0.86192E-03   -0.18211E-03 41160   0.903E-02    0.964E-01
DAV:  10    -0.385675154542E+03    0.44324E-03   -0.13312E-03 43504   0.729E-02    0.923E-01
DAV:  11    -0.385675044099E+03    0.11044E-03   -0.49096E-04 42480   0.434E-02    0.872E-01
DAV:  12    -0.385674454571E+03    0.58953E-03   -0.53246E-04 39432   0.400E-02    0.528E-01
DAV:  13    -0.385674397152E+03    0.57419E-04   -0.90167E-04 41400   0.354E-02    0.105E-01
DAV:  14    -0.385674610833E+03   -0.21368E-03   -0.39349E-04 33824   0.257E-02    0.184E-01
DAV:  15    -0.385674604881E+03    0.59526E-05   -0.33844E-05 29136   0.169E-02
  50 F= -.38567460E+03 E0= -.38566461E+03  d E =-.953341E-03  mag=    46.0000
       N       E                     dE             d eps       ncg     rms          rms(c)
DAV:   1    -0.385650626873E+03    0.23984E-01   -0.46357E+00 40120   0.663E+00    0.107E+00
DAV:   2    -0.385715116048E+03   -0.64489E-01   -0.45053E-01 38472   0.132E+00    0.525E+00
DAV:   3    -0.385668746960E+03    0.46369E-01   -0.84101E-02 39480   0.762E-01    0.180E+00
DAV:   4    -0.385674902161E+03   -0.61552E-02   -0.42184E-02 47080   0.255E-01    0.153E+00
DAV:   5    -0.385677674644E+03   -0.27725E-02   -0.20877E-02 40920   0.238E-01    0.165E+00
DAV:   6    -0.385675634396E+03    0.20402E-02   -0.34469E-03 37960   0.151E-01    0.131E+00
DAV:   7    -0.385673967603E+03    0.16668E-02   -0.35333E-03 45320   0.982E-02    0.554E-01
DAV:   8    -0.385674430741E+03   -0.46314E-03   -0.28730E-03 47720   0.746E-02    0.309E-01
DAV:   9    -0.385675012893E+03   -0.58215E-03   -0.11476E-03 39168   0.624E-02    0.615E-01
DAV:  10    -0.385674978748E+03    0.34145E-04   -0.62632E-04 40616   0.538E-02    0.679E-01
DAV:  11    -0.385674750228E+03    0.22852E-03   -0.33081E-04 38096   0.396E-02    0.574E-01
DAV:  12    -0.385674564135E+03    0.18609E-03   -0.27655E-04 38960   0.296E-02    0.362E-01
DAV:  13    -0.385674528718E+03    0.35416E-04   -0.51976E-04 38464   0.306E-02    0.101E-01
DAV:  14    -0.385674644447E+03   -0.11573E-03   -0.34388E-04 34232   0.289E-02    0.196E-01
DAV:  15    -0.385674618647E+03    0.25800E-04   -0.28063E-05 28912   0.182E-02    0.163E-01
DAV:  16    -0.385674593996E+03    0.24651E-04   -0.40030E-05 24480   0.101E-02    0.754E-02
DAV:  17    -0.385674600109E+03   -0.61132E-05   -0.20824E-05 23560   0.606E-03
  51 F= -.38567460E+03 E0= -.38566454E+03  d E =0.477150E-05  mag=    46.0000
       N       E                     dE             d eps       ncg     rms          rms(c)
DAV:   1    -0.385661683104E+03    0.12911E-01   -0.31202E+00 40544   0.525E+00    0.668E-01
DAV:   2    -0.385696404082E+03   -0.34721E-01   -0.29407E-01 38696   0.982E-01    0.430E+00
DAV:   3    -0.385669563793E+03    0.26840E-01   -0.79993E-02 37968   0.542E-01    0.124E+00
DAV:   4    -0.385676345793E+03   -0.67820E-02   -0.15506E-02 44912   0.201E-01    0.954E-01
DAV:   5    -0.385678230006E+03   -0.18842E-02   -0.55078E-03 38200   0.154E-01    0.116E+00
DAV:   6    -0.385677220683E+03    0.10093E-02   -0.87723E-04 37512   0.962E-02    0.976E-01
DAV:   7    -0.385676384158E+03    0.83652E-03   -0.90179E-04 45152   0.544E-02    0.538E-01
DAV:   8    -0.385676524109E+03   -0.13995E-03   -0.61060E-04 39552   0.394E-02    0.199E-01
DAV:   9    -0.385676713142E+03   -0.18903E-03   -0.43080E-04 37032   0.386E-02    0.153E-01
DAV:  10    -0.385676802070E+03   -0.88928E-04   -0.34055E-04 36800   0.405E-02    0.269E-01
DAV:  11    -0.385676968543E+03   -0.16647E-03   -0.41218E-04 35416   0.325E-02    0.491E-01
DAV:  12    -0.385676864120E+03    0.10442E-03   -0.80638E-05 32248   0.218E-02    0.516E-01
DAV:  13    -0.385676636623E+03    0.22750E-03   -0.18115E-04 33920   0.227E-02    0.320E-01
DAV:  14    -0.385676638396E+03   -0.17725E-05   -0.38304E-04 32232   0.223E-02    0.667E-02
DAV:  15    -0.385676752259E+03   -0.11386E-03   -0.11399E-04 28656   0.160E-02    0.144E-01
DAV:  16    -0.385676747308E+03    0.49513E-05   -0.11783E-05 25976   0.112E-02
  52 F= -.38567675E+03 E0= -.38566679E+03  d E =-.214720E-02  mag=    46.0000
       N       E                     dE             d eps       ncg     rms          rms(c)
DAV:   1    -0.385614713053E+03    0.62039E-01   -0.17113E+01 40192   0.111E+01    0.164E+00
DAV:   2    -0.385813953501E+03   -0.19924E+00   -0.17196E+00 40368   0.227E+00    0.892E+00
DAV:   3    -0.385657868612E+03    0.15608E+00   -0.28645E-01 39376   0.132E+00    0.312E+00
DAV:   4    -0.385673977276E+03   -0.16109E-01   -0.65696E-02 46120   0.426E-01    0.132E+00
DAV:   5    -0.385684289297E+03   -0.10312E-01   -0.21457E-02 39816   0.298E-01    0.202E+00
DAV:   6    -0.385680307448E+03    0.39818E-02   -0.48197E-03 38576   0.210E-01    0.149E+00
DAV:   7    -0.385678344640E+03    0.19628E-02   -0.20399E-03 49712   0.975E-02    0.814E-01
DAV:   8    -0.385678593866E+03   -0.24923E-03   -0.48566E-03 45872   0.997E-02    0.395E-01
DAV:   9    -0.385679290953E+03   -0.69709E-03   -0.18716E-03 39000   0.101E-01    0.606E-01
DAV:  10    -0.385679262057E+03    0.28896E-04   -0.13903E-03 42608   0.865E-02    0.692E-01
DAV:  11    -0.385679908324E+03   -0.64627E-03   -0.13564E-03 43008   0.599E-02    0.106E+00
DAV:  12    -0.385679098192E+03    0.81013E-03   -0.32703E-04 40576   0.563E-02    0.918E-01
DAV:  13    -0.385678421289E+03    0.67690E-03   -0.10701E-03 44488   0.489E-02    0.397E-01
DAV:  14    -0.385678766255E+03   -0.34497E-03   -0.10070E-03 36896   0.350E-02    0.125E-01
DAV:  15    -0.385679003361E+03   -0.23711E-03   -0.19216E-04 32656   0.268E-02    0.249E-01
DAV:  16    -0.385678939587E+03    0.63774E-04   -0.29977E-05 31040   0.180E-02    0.192E-01
DAV:  17    -0.385678900129E+03    0.39458E-04   -0.12419E-04 31184   0.166E-02    0.293E-02
DAV:  18    -0.385678936479E+03   -0.36350E-04   -0.54112E-05 25472   0.112E-02    0.809E-02
DAV:  19    -0.385678930120E+03    0.63591E-05   -0.66724E-06 23368   0.938E-03
  53 F= -.38567893E+03 E0= -.38566901E+03  d E =-.218281E-02  mag=    46.0000
       N       E                     dE             d eps       ncg     rms          rms(c)
DAV:   1    -0.385605504786E+03    0.73432E-01   -0.18991E+01 40176   0.118E+01    0.146E+00
DAV:   2    -0.385776436413E+03   -0.17093E+00   -0.15017E+00 39304   0.222E+00    0.833E+00
DAV:   3    -0.385654285702E+03    0.12215E+00   -0.27650E-01 38584   0.115E+00    0.232E+00
DAV:   4    -0.385679168948E+03   -0.24883E-01   -0.74083E-02 47440   0.409E-01    0.194E+00
DAV:   5    -0.385686087729E+03   -0.69188E-02   -0.22936E-02 39152   0.315E-01    0.230E+00
DAV:   6    -0.385681493647E+03    0.45941E-02   -0.41516E-03 39400   0.195E-01    0.182E+00
DAV:   7    -0.385678889468E+03    0.26042E-02   -0.20636E-03 50192   0.906E-02    0.123E+00
DAV:   8    -0.385678088043E+03    0.80143E-03   -0.33427E-03 49024   0.894E-02    0.468E-01
DAV:   9    -0.385679019808E+03   -0.93177E-03   -0.16159E-03 41288   0.101E-01    0.466E-01
DAV:  10    -0.385679305374E+03   -0.28557E-03   -0.19059E-03 41256   0.890E-02    0.614E-01
DAV:  11    -0.385680321071E+03   -0.10157E-02   -0.30740E-03 42880   0.781E-02    0.119E+00
DAV:  12    -0.385679713447E+03    0.60762E-03   -0.32687E-04 38088   0.564E-02    0.122E+00
DAV:  13    -0.385678522233E+03    0.11912E-02   -0.80680E-04 44720   0.488E-02    0.789E-01
DAV:  14    -0.385678388477E+03    0.13376E-03   -0.20233E-03 46344   0.556E-02    0.814E-02
DAV:  15    -0.385679054106E+03   -0.66563E-03   -0.64428E-04 36096   0.365E-02    0.321E-01
DAV:  16    -0.385679002955E+03    0.51151E-04   -0.78662E-05 33984   0.296E-02    0.284E-01
DAV:  17    -0.385678906160E+03    0.96795E-04   -0.14231E-04 35352   0.208E-02    0.987E-02
DAV:  18    -0.385678947034E+03   -0.40875E-04   -0.99475E-05 26576   0.117E-02    0.579E-02
DAV:  19    -0.385678961342E+03   -0.14308E-04   -0.14522E-05 24816   0.102E-02    0.757E-02
DAV:  20    -0.385678953363E+03    0.79787E-05   -0.82791E-06 20800   0.703E-03
  54 F= -.38567895E+03 E0= -.38566913E+03  d E =-.232430E-04  mag=    46.0000
       N       E                     dE             d eps       ncg     rms          rms(c)
DAV:   1    -0.385666249779E+03    0.12712E-01   -0.35419E+00 40888   0.506E+00    0.930E-01
DAV:   2    -0.385715879035E+03   -0.49629E-01   -0.37647E-01 40968   0.107E+00    0.486E+00
DAV:   3    -0.385674662590E+03    0.41216E-01   -0.86562E-02 39936   0.718E-01    0.165E+00
DAV:   4    -0.385678886921E+03   -0.42243E-02   -0.24433E-02 44456   0.188E-01    0.938E-01
DAV:   5    -0.385681003664E+03   -0.21167E-02   -0.84441E-03 41248   0.160E-01    0.102E+00
DAV:   6    -0.385680379609E+03    0.62405E-03   -0.16970E-03 38520   0.112E-01    0.831E-01
DAV:   7    -0.385679478916E+03    0.90069E-03   -0.22733E-03 46096   0.861E-02    0.248E-01
DAV:   8    -0.385680156510E+03   -0.67759E-03   -0.22792E-03 46984   0.736E-02    0.580E-01
DAV:   9    -0.385680213721E+03   -0.57211E-04   -0.95657E-04 41088   0.664E-02    0.673E-01
DAV:  10    -0.385680209664E+03    0.40576E-05   -0.95632E-04 44920   0.615E-02    0.728E-01
DAV:  11    -0.385680047557E+03    0.16211E-03   -0.26374E-04 40008   0.325E-02    0.668E-01
DAV:  12    -0.385679896741E+03    0.15082E-03   -0.32144E-04 34008   0.317E-02    0.540E-01
DAV:  13    -0.385679660146E+03    0.23659E-03   -0.68153E-04 40016   0.297E-02    0.208E-01
DAV:  14    -0.385679773578E+03   -0.11343E-03   -0.38591E-04 31904   0.251E-02    0.806E-02
DAV:  15    -0.385679829611E+03   -0.56034E-04   -0.43406E-05 27944   0.153E-02    0.133E-01
DAV:  16    -0.385679816239E+03    0.13372E-04   -0.65589E-06 24104   0.785E-03    0.117E-01
DAV:  17    -0.385679804002E+03    0.12237E-04   -0.11949E-05 19944   0.591E-03    0.659E-02
DAV:  18    -0.385679804405E+03   -0.40246E-06   -0.18476E-05 20896   0.568E-03
  55 F= -.38567980E+03 E0= -.38567002E+03  d E =-.851041E-03  mag=    46.0000
       N       E                     dE             d eps       ncg     rms          rms(c)
DAV:   1    -0.385677386432E+03    0.24176E-02   -0.38072E-01 41256   0.214E+00    0.347E-01
DAV:   2    -0.385685500789E+03   -0.81144E-02   -0.52122E-02 39960   0.424E-01    0.220E+00
DAV:   3    -0.385678657907E+03    0.68429E-02   -0.16310E-02 38104   0.278E-01    0.637E-01
DAV:   4    -0.385680298536E+03   -0.16406E-02   -0.43098E-03 40240   0.101E-01    0.407E-01
DAV:   5    -0.385680671300E+03   -0.37276E-03   -0.10047E-03 36944   0.677E-02    0.436E-01
DAV:   6    -0.385680526042E+03    0.14526E-03   -0.37878E-04 36104   0.433E-02    0.347E-01
DAV:   7    -0.385680410448E+03    0.11559E-03   -0.19017E-04 33568   0.270E-02    0.168E-01
DAV:   8    -0.385680447768E+03   -0.37320E-04   -0.23849E-04 31600   0.241E-02    0.976E-02
DAV:   9    -0.385680478903E+03   -0.31135E-04   -0.82212E-05 32072   0.234E-02    0.146E-01
DAV:  10    -0.385680456674E+03    0.22229E-04   -0.59480E-05 30968   0.215E-02    0.937E-02
DAV:  11    -0.385680484121E+03   -0.27447E-04   -0.36437E-05 27032   0.136E-02    0.156E-01
DAV:  12    -0.385680478240E+03    0.58812E-05   -0.21214E-05 24864   0.987E-03
  56 F= -.38568048E+03 E0= -.38567065E+03  d E =-.673835E-03  mag=    46.0000
