       N       E                     dE             d eps       ncg     rms          ort
DAV:   1     0.713161985519E+04    0.71316E+04   -0.27587E+05  8528   0.168E+03
DAV:   2     0.744568977619E+03   -0.63871E+04   -0.60481E+04  8528   0.503E+02
DAV:   3    -0.369529759652E+03   -0.11141E+04   -0.10892E+04  8528   0.205E+02
DAV:   4    -0.432832165550E+03   -0.63302E+02   -0.61727E+02  8528   0.505E+01
DAV:   5    -0.437937234021E+03   -0.51051E+01   -0.49906E+01  8528   0.116E+01
SDA:   6    -0.186091904145E+03    0.25185E+03   -0.49906E+01  8528   0.154E+04 0.000E+00
CGA:   7    -0.298930111910E+03   -0.11284E+03   -0.86719E+02  8528   0.106E+04 0.335E+03
CGA:   8    -0.354652759562E+03   -0.55723E+02   -0.58799E+02  8528   0.268E+03-0.200E+02
CGA:   9    -0.366012350123E+03   -0.11360E+02   -0.84021E+01  8528   0.112E+03 0.721E+02
CGA:  10    -0.365610471485E+03    0.40188E+00   -0.62590E+01  8528   0.558E+03-0.159E+03
CGA:  11    -0.366422307176E+03   -0.81184E+00   -0.17466E+02  8528   0.660E+03-0.172E+03
CGA:  12    -0.375089693679E+03   -0.86674E+01   -0.13572E+02  8528   0.686E+02 0.319E+01
CGA:  13    -0.378972410694E+03   -0.38827E+01   -0.19515E+01  8528   0.187E+02 0.407E+02
CGA:  14    -0.380064795336E+03   -0.10924E+01   -0.86550E+00  8528   0.390E+02 0.334E+01
CGA:  15    -0.381355612387E+03   -0.12908E+01   -0.25189E+01  8528   0.191E+03-0.141E+02
CGA:  16    -0.382653644822E+03   -0.12980E+01   -0.25325E+01  8528   0.702E+02-0.530E+02
CGA:  17    -0.384071809438E+03   -0.14182E+01   -0.13139E+01  8528   0.174E+02 0.122E+01
CGA:  18    -0.384269936477E+03   -0.19813E+00   -0.47267E+00  8528   0.145E+02-0.711E+01
CGA:  19    -0.384593075446E+03   -0.32314E+00   -0.22914E+00  8528   0.127E+02 0.366E+01
CGA:  20    -0.384986847049E+03   -0.39377E+00   -0.22659E+00  8528   0.781E+01 0.114E+02
CGA:  21    -0.385294912220E+03   -0.30807E+00   -0.23074E+00  8528   0.748E+01 0.225E+01
CGA:  22    -0.385607575694E+03   -0.31266E+00   -0.29328E+00  8528   0.980E+01 0.440E+00
CGA:  23    -0.386087646343E+03   -0.48007E+00   -0.36077E+00  8528   0.102E+02 0.287E+01
CGA:  24    -0.386576403908E+03   -0.48876E+00   -0.58673E+00  8528   0.216E+02-0.110E+01
CGA:  25    -0.386848140976E+03   -0.27174E+00   -0.28884E+00  8528   0.412E+01-0.979E+00
CGA:  26    -0.386884760417E+03   -0.36619E-01   -0.60911E-01  8528   0.330E+01-0.152E+01
CGA:  27    -0.387003249432E+03   -0.11849E+00   -0.12724E+00  8528   0.470E+01 0.234E-01
CGA:  28    -0.387137163995E+03   -0.13391E+00   -0.17100E+00  8528   0.427E+01-0.584E+00
CGA:  29    -0.387332827917E+03   -0.19566E+00   -0.19759E+00  8528   0.379E+01 0.567E-01
CGA:  30    -0.387437369467E+03   -0.10454E+00   -0.11414E+00  8528   0.264E+01-0.139E+00
CGA:  31    -0.387582553512E+03   -0.14518E+00   -0.15651E+00  8528   0.139E+01 0.123E+00
CGA:  32    -0.387744618661E+03   -0.16207E+00   -0.15797E+00  8528   0.186E+01 0.111E+00
CGA:  33    -0.387860722178E+03   -0.11610E+00   -0.10721E+00  8528   0.865E+00 0.281E-01
CGA:  34    -0.387965545424E+03   -0.10482E+00   -0.10403E+00  8528   0.724E+00 0.141E-01
CGA:  35    -0.388038666669E+03   -0.73121E-01   -0.71178E-01  8528   0.611E+00 0.928E-01
CGA:  36    -0.388125201055E+03   -0.86534E-01   -0.10058E+00  8528   0.138E+01-0.250E+00
CGA:  37    -0.388172077127E+03   -0.46876E-01   -0.47946E-01  8528   0.177E+01-0.610E-02
CGA:  38    -0.388244197161E+03   -0.72120E-01   -0.74598E-01  8528   0.680E+00 0.182E-01
CGA:  39    -0.388296594541E+03   -0.52397E-01   -0.52551E-01  8528   0.779E+00 0.102E-01
CGA:  40    -0.388375268775E+03   -0.78674E-01   -0.80200E-01  8528   0.111E+01-0.601E-01
CGA:  41    -0.388427043413E+03   -0.51775E-01   -0.52947E-01  8528   0.824E+00 0.311E-02
CGA:  42    -0.388470952786E+03   -0.43909E-01   -0.45716E-01  8528   0.551E+00 0.658E-02
CGA:  43    -0.388510867828E+03   -0.39915E-01   -0.39871E-01  8528   0.510E+00-0.104E-02
CGA:  44    -0.388550502813E+03   -0.39635E-01   -0.39505E-01  8528   0.626E+00-0.197E-01
CGA:  45    -0.388586092194E+03   -0.35589E-01   -0.35703E-01  8528   0.542E+00 0.271E-02
CGA:  46    -0.388615075138E+03   -0.28983E-01   -0.28981E-01  8528   0.394E+00 0.350E-02
CGA:  47    -0.388641197624E+03   -0.26122E-01   -0.25383E-01  8528   0.455E+00-0.120E-01
CGA:  48    -0.388662429745E+03   -0.21232E-01   -0.20117E-01  8528   0.448E+00 0.694E-02
CGA:  49    -0.388681577176E+03   -0.19147E-01   -0.17993E-01  8528   0.557E+00 0.145E-01
CGA:  50    -0.388707108491E+03   -0.25531E-01   -0.25776E-01  8528   0.626E+00-0.169E-03
SDA:  51    -0.388724256026E+03   -0.17148E-01   -0.18157E-01  8528   0.289E+00-0.208E-01
CGA:  52    -0.388753657229E+03   -0.29401E-01   -0.29599E-01  8528   0.338E+00-0.504E-02
CGA:  53    -0.388788316579E+03   -0.34659E-01   -0.35417E-01  8528   0.582E+00-0.189E-01
CGA:  54    -0.388820175987E+03   -0.31859E-01   -0.32057E-01  8528   0.201E+00 0.334E-02
CGA:  55    -0.388847342428E+03   -0.27166E-01   -0.26370E-01  8528   0.269E+00 0.120E-01
CGA:  56    -0.388862695506E+03   -0.15353E-01   -0.15026E-01  8528   0.121E+00 0.116E-02
CGA:  57    -0.388873681298E+03   -0.10986E-01   -0.11207E-01  8528   0.164E+00-0.887E-02
CGA:  58    -0.388887246380E+03   -0.13565E-01   -0.13538E-01  8528   0.171E+00 0.129E-02
CGA:  59    -0.388897715515E+03   -0.10469E-01   -0.99419E-02  8528   0.185E+00-0.368E-02
CGA:  60    -0.388909819067E+03   -0.12104E-01   -0.12159E-01  8528   0.165E+00 0.335E-02
CGA:  61    -0.388920692083E+03   -0.10873E-01   -0.11120E-01  8528   0.270E+00 0.107E-01
CGA:  62    -0.388940597848E+03   -0.19906E-01   -0.18477E-01  8528   0.275E+00-0.465E-01
CGA:  63    -0.388952123499E+03   -0.11526E-01   -0.11057E-01  8528   0.368E+00 0.119E-02
CGA:  64    -0.388967342140E+03   -0.15219E-01   -0.15501E-01  8528   0.335E+00 0.261E-02
CGA:  65    -0.388981944678E+03   -0.14603E-01   -0.14835E-01  8528   0.272E+00 0.307E-04
CGA:  66    -0.388997026642E+03   -0.15082E-01   -0.15399E-01  8528   0.272E+00 0.734E-02
CGA:  67    -0.389009275244E+03   -0.12249E-01   -0.12366E-01  8528   0.159E+00-0.141E-03
CGA:  68    -0.389019354576E+03   -0.10079E-01   -0.10076E-01  8528   0.138E+00-0.304E-03
CGA:  69    -0.389027236269E+03   -0.78817E-02   -0.78269E-02  8528   0.183E+00-0.150E-02
CGA:  70    -0.389039809757E+03   -0.12573E-01   -0.12579E-01  8528   0.188E+00-0.110E-02
CGA:  71    -0.389048227524E+03   -0.84178E-02   -0.83581E-02  8528   0.185E+00 0.856E-04
CGA:  72    -0.389057346675E+03   -0.91192E-02   -0.90843E-02  8528   0.116E+00 0.124E-03
CGA:  73    -0.389062906326E+03   -0.55597E-02   -0.55015E-02  8528   0.140E+00-0.410E-03
CGA:  74    -0.389069121222E+03   -0.62149E-02   -0.63545E-02  8528   0.967E-01 0.581E-03
CGA:  75    -0.389074397638E+03   -0.52764E-02   -0.53136E-02  8528   0.105E+00 0.147E-02
CGA:  76    -0.389079823596E+03   -0.54260E-02   -0.53436E-02  8528   0.111E+00-0.165E-02
CGA:  77    -0.389084848039E+03   -0.50244E-02   -0.50408E-02  8528   0.900E-01 0.217E-03
CGA:  78    -0.389088865310E+03   -0.40173E-02   -0.41560E-02  8528   0.812E-01 0.161E-02
CGA:  79    -0.389093938905E+03   -0.50736E-02   -0.50768E-02  8528   0.616E-01-0.256E-02
CGA:  80    -0.389096422208E+03   -0.24833E-02   -0.20195E-02  8528   0.586E-01 0.602E-02
CGA:  81    -0.389098252596E+03   -0.18304E-02   -0.16160E-02  8528   0.709E-01 0.513E-02
SDA:  82    -0.389100350816E+03   -0.20982E-02   -0.20426E-02  8528   0.112E+00 0.773E-03
CGA:  83    -0.389107776422E+03   -0.74256E-02   -0.73496E-02  8528   0.482E-01 0.527E-02
CGA:  84    -0.389112209690E+03   -0.44333E-02   -0.44648E-02  8528   0.779E-01-0.868E-03
CGA:  85    -0.389122125683E+03   -0.99160E-02   -0.10363E-01  8528   0.140E+00-0.643E-02
CGA:  86    -0.389130593831E+03   -0.84681E-02   -0.85087E-02  8528   0.105E+00-0.657E-02
CGA:  87    -0.389134370651E+03   -0.37768E-02   -0.29770E-02  8528   0.538E-01 0.171E-01
CGA:  88    -0.389136495246E+03   -0.21246E-02   -0.20065E-02  8528   0.465E-01 0.185E-02
CGA:  89    -0.389137957614E+03   -0.14624E-02   -0.13978E-02  8528   0.349E-01 0.133E-02
CGA:  90    -0.389138975076E+03   -0.10175E-02   -0.10085E-02  8528   0.372E-01 0.189E-03
CGA:  91    -0.389140411054E+03   -0.14360E-02   -0.14309E-02  8528   0.463E-01 0.404E-04
CGA:  92    -0.389141452533E+03   -0.10415E-02   -0.10104E-02  8528   0.249E-01 0.110E-02
CGA:  93    -0.389142146746E+03   -0.69421E-03   -0.69028E-03  8528   0.264E-01 0.123E-03
CGA:  94    -0.389142961674E+03   -0.81493E-03   -0.80844E-03  8528   0.223E-01 0.272E-03
CGA:  95    -0.389143460752E+03   -0.49908E-03   -0.46611E-03  8528   0.164E-01 0.129E-02
CGA:  96    -0.389144047518E+03   -0.58677E-03   -0.56186E-03  8528   0.284E-01 0.214E-03
CGA:  97    -0.389144719697E+03   -0.67218E-03   -0.55093E-03  8528   0.317E-01 0.516E-02
CGA:  98    -0.389145314747E+03   -0.59505E-03   -0.48827E-03  8528   0.222E-01 0.735E-02
CGA:  99    -0.389145724754E+03   -0.41001E-03   -0.37781E-03  8528   0.183E-01 0.201E-02
CGA: 100    -0.389146062073E+03   -0.33732E-03   -0.32641E-03  8528   0.231E-01 0.538E-03
CGA: 101    -0.389146415341E+03   -0.35327E-03   -0.32500E-03  8528   0.221E-01 0.170E-02
CGA: 102    -0.389146687368E+03   -0.27203E-03   -0.23818E-03  8528   0.162E-01 0.286E-02
CGA: 103    -0.389146908203E+03   -0.22084E-03   -0.20462E-03  8528   0.163E-01 0.111E-02
CGA: 104    -0.389147134649E+03   -0.22645E-03   -0.22042E-03  8528   0.198E-01 0.270E-03
CGA: 105    -0.389147350137E+03   -0.21549E-03   -0.22350E-03  8528   0.157E-01-0.710E-03
CGA: 106    -0.389147486239E+03   -0.13610E-03   -0.14452E-03  8528   0.955E-02-0.889E-03
CGA: 107    -0.389147588594E+03   -0.10235E-03   -0.10462E-03  8528   0.973E-02-0.266E-03
CGA: 108    -0.389147745758E+03   -0.15716E-03   -0.15396E-03  8528   0.136E-01-0.587E-05
CGA: 109    -0.389147903934E+03   -0.15818E-03   -0.13377E-03  8528   0.975E-02 0.182E-02
CGA: 110    -0.389148000545E+03   -0.96612E-04   -0.84688E-04  8528   0.564E-02 0.116E-02
CGA: 111    -0.389148063630E+03   -0.63085E-04   -0.59204E-04  8528   0.599E-02 0.236E-03
CGA: 112    -0.389148137712E+03   -0.74082E-04   -0.70576E-04  8528   0.969E-02 0.132E-03
SDA: 113    -0.389148237474E+03   -0.99762E-04   -0.94413E-04  8528   0.120E-01 0.311E-03
CGA: 114    -0.389148491154E+03   -0.25368E-03   -0.25440E-03  8528   0.447E-02 0.343E-04
CGA: 115    -0.389148817137E+03   -0.32598E-03   -0.31950E-03  8528   0.422E-02 0.157E-03
CGA: 116    -0.389149492877E+03   -0.67574E-03   -0.54344E-05  8528   0.132E-01-0.828E-03
CGA: 117    -0.389150004595E+03   -0.51172E-03   -0.50470E-03  8528   0.789E-02-0.414E-03
CGA: 118    -0.389150313123E+03   -0.30853E-03   -0.31069E-03  8528   0.392E-02 0.578E-04
CGA: 119    -0.389150470342E+03   -0.15722E-03   -0.15993E-03  8528   0.250E-02 0.388E-04
CGA: 120    -0.389150656811E+03   -0.18647E-03   -0.19121E-03  8528   0.259E-02-0.177E-03
CGA: 121    -0.389150748509E+03   -0.91699E-04   -0.90453E-04  8528   0.160E-02-0.290E-04
CGA: 122    -0.389150813360E+03   -0.64851E-04   -0.64420E-04  8528   0.710E-03-0.209E-04
CGA: 123    -0.389150838211E+03   -0.24851E-04   -0.24836E-04  8528   0.445E-03-0.329E-05
CGA: 124    -0.389150865475E+03   -0.27265E-04   -0.27241E-04  8528   0.479E-03 0.166E-05
CGA: 125    -0.389150885191E+03   -0.19716E-04   -0.19652E-04  8528   0.454E-03 0.963E-06
CGA: 126    -0.389150914718E+03   -0.29526E-04   -0.29510E-04  8528   0.500E-03 0.290E-05
CGA: 127    -0.389150929464E+03   -0.14747E-04   -0.14776E-04  8528   0.166E-03 0.467E-05
CGA: 128    -0.389150940091E+03   -0.10626E-04   -0.10664E-04  8528   0.353E-03-0.258E-05
CGA: 129    -0.389150960870E+03   -0.20779E-04   -0.21064E-04  8528   0.416E-03-0.227E-04
CGA: 130    -0.389150974342E+03   -0.13472E-04   -0.12784E-04  8528   0.328E-03-0.236E-05
CGA: 131    -0.389150983231E+03   -0.88888E-05   -0.85995E-05  8528   0.144E-03-0.965E-07
   1 F= -.38915098E+03 E0= -.38913343E+03  d E =-.389151E+03  mag=     4.1490
       N       E                     dE             d eps       ncg     rms          ort
SDA:   1    -0.389151600642E+03   -0.62630E-03    0.00000E+00  8528   0.966E-02 0.000E+00
CGA:   2    -0.389151918819E+03   -0.31818E-03   -0.31820E-03  8528   0.741E-03-0.129E-06
CGA:   3    -0.389151942783E+03   -0.23963E-04   -0.23989E-04  8528   0.191E-03 0.948E-06
CGA:   4    -0.389151967239E+03   -0.24456E-04   -0.24257E-04  8528   0.424E-03 0.248E-05
CGA:   5    -0.389151978981E+03   -0.11741E-04   -0.11774E-04  8528   0.160E-03 0.722E-06
CGA:   6    -0.389151987793E+03   -0.88125E-05   -0.88126E-05  8528   0.667E-04 0.557E-07
   2 F= -.38915199E+03 E0= -.38913454E+03  d E =-.100456E-02  mag=     4.1481
       N       E                     dE             d eps       ncg     rms          ort
SDA:   1    -0.389148113577E+03    0.38654E-02    0.00000E+00  8528   0.296E+00 0.000E+00
CGA:   2    -0.389152669718E+03   -0.45561E-02   -0.43964E-02  8528   0.282E-02 0.849E-02
CGA:   3    -0.389152746892E+03   -0.77174E-04   -0.76974E-04  8528   0.125E-02 0.145E-05
CGA:   4    -0.389152786790E+03   -0.39898E-04   -0.39830E-04  8528   0.162E-03-0.146E-05
CGA:   5    -0.389152802240E+03   -0.15450E-04   -0.15457E-04  8528   0.348E-03-0.160E-06
CGA:   6    -0.389152813884E+03   -0.11644E-04   -0.11640E-04  8528   0.219E-03 0.266E-07
CGA:   7    -0.389152826652E+03   -0.12769E-04   -0.12768E-04  8528   0.597E-04 0.384E-07
CGA:   8    -0.389152828562E+03   -0.19093E-05   -0.19106E-05  8528   0.506E-04 0.299E-07
   3 F= -.38915283E+03 E0= -.38913538E+03  d E =-.840769E-03  mag=     4.1484
       N       E                     dE             d eps       ncg     rms          ort
SDA:   1    -0.387804948413E+03    0.13479E+01    0.00000E+00  8528   0.548E+01 0.000E+00
CGA:   2    -0.388104492156E+03   -0.29954E+00   -0.29689E+00  8528   0.106E+02 0.320E+00
CGA:   3    -0.388829278570E+03   -0.72479E+00   -0.73110E+00  8528   0.443E+01-0.309E+00
CGA:   4    -0.389000230382E+03   -0.17095E+00   -0.17349E+00  8528   0.246E+01 0.676E-01
CGA:   5    -0.389098584406E+03   -0.98354E-01   -0.97699E-01  8528   0.164E+01-0.153E-01
CGA:   6    -0.389200512140E+03   -0.10193E+00   -0.10108E+00  8528   0.140E+01 0.467E-01
CGA:   7    -0.389255615559E+03   -0.55103E-01   -0.54682E-01  8528   0.303E+00-0.611E-02
CGA:   8    -0.389265217867E+03   -0.96023E-02   -0.96489E-02  8528   0.192E+00-0.129E-03
CGA:   9    -0.389278551871E+03   -0.13334E-01   -0.13371E-01  8528   0.162E+00-0.140E-02
CGA:  10    -0.389285905283E+03   -0.73534E-02   -0.73648E-02  8528   0.907E-01 0.123E-02
CGA:  11    -0.389288600754E+03   -0.26955E-02   -0.26861E-02  8528   0.262E-01 0.835E-04
CGA:  12    -0.389290155382E+03   -0.15546E-02   -0.15541E-02  8528   0.252E-01 0.336E-04
CGA:  13    -0.389291423033E+03   -0.12677E-02   -0.12680E-02  8528   0.241E-01-0.118E-03
CGA:  14    -0.389292519379E+03   -0.10963E-02   -0.10969E-02  8528   0.126E-01 0.878E-04
CGA:  15    -0.389293056858E+03   -0.53748E-03   -0.53761E-03  8528   0.622E-02 0.142E-04
CGA:  16    -0.389293363657E+03   -0.30680E-03   -0.30678E-03  8528   0.628E-02 0.132E-04
CGA:  17    -0.389293666894E+03   -0.30324E-03   -0.30323E-03  8528   0.445E-02-0.506E-05
CGA:  18    -0.389294041163E+03   -0.37427E-03   -0.37419E-03  8528   0.598E-02 0.141E-05
CGA:  19    -0.389294231774E+03   -0.19061E-03   -0.19044E-03  8528   0.235E-02-0.845E-06
CGA:  20    -0.389294389834E+03   -0.15806E-03   -0.15813E-03  8528   0.266E-02-0.259E-05
CGA:  21    -0.389294533563E+03   -0.14373E-03   -0.14375E-03  8528   0.281E-02-0.224E-05
CGA:  22    -0.389294684353E+03   -0.15079E-03   -0.15074E-03  8528   0.247E-02 0.114E-04
CGA:  23    -0.389294789835E+03   -0.10548E-03   -0.10551E-03  8528   0.901E-03 0.528E-05
CGA:  24    -0.389294836885E+03   -0.47050E-04   -0.47044E-04  8528   0.106E-02 0.320E-05
CGA:  25    -0.389294887983E+03   -0.51099E-04   -0.51100E-04  8528   0.707E-03 0.164E-05
CGA:  26    -0.389294941003E+03   -0.53020E-04   -0.52955E-04  8528   0.715E-03 0.256E-05
CGA:  27    -0.389294962176E+03   -0.21172E-04   -0.21190E-04  8528   0.227E-03 0.801E-06
CGA:  28    -0.389294977024E+03   -0.14848E-04   -0.14834E-04  8528   0.340E-03 0.884E-06
CGA:  29    -0.389295000942E+03   -0.23918E-04   -0.23889E-04  8528   0.293E-03 0.154E-05
CGA:  30    -0.389295010987E+03   -0.10045E-04   -0.10052E-04  8528   0.156E-03 0.329E-06
CGA:  31    -0.389295020535E+03   -0.95486E-05   -0.95533E-05  8528   0.121E-03-0.451E-06
   4 F= -.38929502E+03 E0= -.38927764E+03  d E =-.142192E+00  mag=     4.1469
       N       E                     dE             d eps       ncg     rms          ort
SDA:   1    -0.388679623627E+03    0.61539E+00    0.00000E+00  8528   0.446E+01 0.000E+00
CGA:   2    -0.388783839469E+03   -0.10422E+00   -0.11610E+00  8528   0.317E+01-0.214E+00
CGA:   3    -0.389175672368E+03   -0.39183E+00   -0.39932E+00  8528   0.221E+01-0.104E+00
CGA:   4    -0.389244724228E+03   -0.69052E-01   -0.73018E-01  8528   0.130E+01-0.172E-01
CGA:   5    -0.389295483927E+03   -0.50760E-01   -0.50774E-01  8528   0.628E+00-0.483E-03
CGA:   6    -0.389342426301E+03   -0.46942E-01   -0.46569E-01  8528   0.694E+00 0.138E-01
CGA:   7    -0.389366853406E+03   -0.24427E-01   -0.24134E-01  8528   0.146E+00 0.159E-02
CGA:   8    -0.389371485605E+03   -0.46322E-02   -0.46313E-02  8528   0.795E-01-0.956E-05
CGA:   9    -0.389377842953E+03   -0.63573E-02   -0.63617E-02  8528   0.571E-01-0.140E-03
CGA:  10    -0.389380129018E+03   -0.22861E-02   -0.22929E-02  8528   0.478E-01 0.742E-04
CGA:  11    -0.389382105757E+03   -0.19767E-02   -0.19789E-02  8528   0.924E-02 0.372E-04
CGA:  12    -0.389382576880E+03   -0.47112E-03   -0.47119E-03  8528   0.117E-01 0.290E-04
CGA:  13    -0.389383196826E+03   -0.61995E-03   -0.61996E-03  8528   0.774E-02 0.559E-07
CGA:  14    -0.389383629207E+03   -0.43238E-03   -0.43232E-03  8528   0.581E-02 0.156E-04
CGA:  15    -0.389383856954E+03   -0.22775E-03   -0.22748E-03  8528   0.250E-02 0.225E-05
CGA:  16    -0.389383963295E+03   -0.10634E-03   -0.10642E-03  8528   0.229E-02 0.340E-05
CGA:  17    -0.389384128250E+03   -0.16495E-03   -0.16502E-03  8528   0.187E-02-0.265E-05
CGA:  18    -0.389384235450E+03   -0.10720E-03   -0.10721E-03  8528   0.285E-02-0.268E-05
CGA:  19    -0.389384376257E+03   -0.14081E-03   -0.14076E-03  8528   0.750E-03-0.988E-05
CGA:  20    -0.389384425044E+03   -0.48787E-04   -0.48740E-04  8528   0.144E-02 0.306E-05
CGA:  21    -0.389384511920E+03   -0.86876E-04   -0.86838E-04  8528   0.119E-02 0.541E-05
CGA:  22    -0.389384573453E+03   -0.61533E-04   -0.61546E-04  8528   0.834E-03 0.535E-05
CGA:  23    -0.389384606695E+03   -0.33242E-04   -0.33274E-04  8528   0.378E-03 0.272E-05
CGA:  24    -0.389384624705E+03   -0.18010E-04   -0.18018E-04  8528   0.421E-03 0.137E-05
CGA:  25    -0.389384661301E+03   -0.36597E-04   -0.36553E-04  8528   0.340E-03 0.124E-05
CGA:  26    -0.389384674087E+03   -0.12786E-04   -0.12789E-04  8528   0.231E-03 0.128E-06
CGA:  27    -0.389384684598E+03   -0.10511E-04   -0.10511E-04  8528   0.119E-03 0.121E-06
CGA:  28    -0.389384693665E+03   -0.90675E-05   -0.90523E-05  8528   0.199E-03 0.642E-06
   5 F= -.38938469E+03 E0= -.38936737E+03  d E =-.896731E-01  mag=     4.1438
       N       E                     dE             d eps       ncg     rms          ort
SDA:   1    -0.379641168138E+03    0.97435E+01    0.00000E+00  8528   0.387E+02 0.000E+00
CGA:   2    -0.381638810932E+03   -0.19976E+01   -0.20082E+01  8528   0.653E+02 0.297E+01
CGA:   3    -0.386531333965E+03   -0.48925E+01   -0.49078E+01  8528   0.301E+02-0.144E+01
CGA:   4    -0.387704448701E+03   -0.11731E+01   -0.11820E+01  8528   0.163E+02 0.127E+00
CGA:   5    -0.388336484634E+03   -0.63204E+00   -0.61182E+00  8528   0.111E+02-0.124E+00
CGA:   6    -0.388927504634E+03   -0.59102E+00   -0.58966E+00  8528   0.917E+01 0.844E+00
CGA:   7    -0.389351741678E+03   -0.42424E+00   -0.42053E+00  8528   0.293E+01-0.757E-01
CGA:   8    -0.389434711938E+03   -0.82970E-01   -0.88098E-01  8528   0.128E+01-0.539E-01
CGA:   9    -0.389508419532E+03   -0.73708E-01   -0.74377E-01  8528   0.110E+01-0.541E-01
CGA:  10    -0.389573257720E+03   -0.64838E-01   -0.64390E-01  8528   0.572E+00 0.309E-01
CGA:  11    -0.389590377492E+03   -0.17120E-01   -0.16705E-01  8528   0.211E+00 0.593E-02
CGA:  12    -0.389600231015E+03   -0.98535E-02   -0.98853E-02  8528   0.167E+00 0.285E-02
CGA:  13    -0.389612470541E+03   -0.12240E-01   -0.12309E-01  8528   0.189E+00-0.254E-02
CGA:  14    -0.389618490660E+03   -0.60201E-02   -0.61387E-02  8528   0.839E-01-0.296E-03
CGA:  15    -0.389621947214E+03   -0.34566E-02   -0.34779E-02  8528   0.381E-01 0.661E-03
CGA:  16    -0.389624831320E+03   -0.28841E-02   -0.28786E-02  8528   0.418E-01 0.186E-03
CGA:  17    -0.389627194215E+03   -0.23629E-02   -0.23630E-02  8528   0.454E-01-0.112E-04
CGA:  18    -0.389629103565E+03   -0.19094E-02   -0.19141E-02  8528   0.250E-01 0.139E-03
CGA:  19    -0.389630497266E+03   -0.13937E-02   -0.13938E-02  8528   0.162E-01-0.114E-04
CGA:  20    -0.389631651139E+03   -0.11539E-02   -0.11498E-02  8528   0.219E-01 0.165E-03
CGA:  21    -0.389632596679E+03   -0.94554E-03   -0.94367E-03  8528   0.185E-01-0.451E-04
CGA:  22    -0.389633632332E+03   -0.10357E-02   -0.10350E-02  8528   0.121E-01 0.948E-04
CGA:  23    -0.389634237219E+03   -0.60489E-03   -0.60480E-03  8528   0.695E-02-0.861E-05
CGA:  24    -0.389634527066E+03   -0.28985E-03   -0.29019E-03  8528   0.682E-02 0.131E-04
CGA:  25    -0.389635005546E+03   -0.47848E-03   -0.47829E-03  8528   0.577E-02 0.113E-04
CGA:  26    -0.389635307120E+03   -0.30157E-03   -0.30158E-03  8528   0.287E-02 0.102E-04
CGA:  27    -0.389635462806E+03   -0.15569E-03   -0.15568E-03  8528   0.262E-02 0.554E-05
CGA:  28    -0.389635573469E+03   -0.11066E-03   -0.11078E-03  8528   0.206E-02 0.496E-05
CGA:  29    -0.389635759810E+03   -0.18634E-03   -0.18621E-03  8528   0.205E-02 0.346E-05
CGA:  30    -0.389635850769E+03   -0.90958E-04   -0.90985E-04  8528   0.789E-03 0.107E-05
CGA:  31    -0.389635897080E+03   -0.46311E-04   -0.46326E-04  8528   0.130E-02-0.250E-05
SDA:  32    -0.389635976671E+03   -0.79591E-04   -0.79617E-04  8528   0.941E-03-0.404E-05
CGA:  33    -0.389636000764E+03   -0.24094E-04   -0.24091E-04  8528   0.331E-03 0.282E-06
CGA:  34    -0.389636018993E+03   -0.18229E-04   -0.18230E-04  8528   0.415E-03-0.654E-06
CGA:  35    -0.389636046870E+03   -0.27877E-04   -0.27927E-04  8528   0.516E-03-0.333E-05
CGA:  36    -0.389636092109E+03   -0.45239E-04   -0.45449E-04  8528   0.282E-03-0.597E-05
CGA:  37    -0.389636102557E+03   -0.10449E-04   -0.10423E-04  8528   0.263E-03-0.127E-05
CGA:  38    -0.389636117265E+03   -0.14708E-04   -0.14711E-04  8528   0.143E-03-0.160E-05
CGA:  39    -0.389636141119E+03   -0.23853E-04   -0.24165E-04  8528   0.168E-03-0.273E-05
CGA:  40    -0.389636151912E+03   -0.10793E-04   -0.10798E-04  8528   0.186E-03-0.104E-05
CGA:  41    -0.389636157076E+03   -0.51644E-05   -0.51494E-05  8528   0.598E-04-0.457E-06
   6 F= -.38963616E+03 E0= -.38961912E+03  d E =-.251463E+00  mag=     4.1414
       N       E                     dE             d eps       ncg     rms          ort
SDA:   1    -0.387048189981E+03    0.25880E+01    0.00000E+00  8528   0.774E+01 0.000E+00
CGA:   2    -0.388200343401E+03   -0.11522E+01   -0.11523E+01  8528   0.232E+02 0.354E-01
CGA:   3    -0.389016784937E+03   -0.81644E+00   -0.81049E+00  8528   0.740E+01-0.857E-01
CGA:   4    -0.389235329207E+03   -0.21854E+00   -0.21762E+00  8528   0.314E+01 0.315E-01
CGA:   5    -0.389479228052E+03   -0.24390E+00   -0.24328E+00  8528   0.235E+01 0.319E-01
CGA:   6    -0.389649336265E+03   -0.17011E+00   -0.17018E+00  8528   0.897E+00-0.607E-02
CGA:   7    -0.389673610157E+03   -0.24274E-01   -0.24788E-01  8528   0.399E+00-0.111E-01
CGA:   8    -0.389694105658E+03   -0.20496E-01   -0.20450E-01  8528   0.217E+00-0.128E-02
CGA:   9    -0.389715623252E+03   -0.21518E-01   -0.21387E-01  8528   0.116E+00 0.307E-02
CGA:  10    -0.389719122289E+03   -0.34990E-02   -0.34451E-02  8528   0.636E-01 0.105E-02
CGA:  11    -0.389721938872E+03   -0.28166E-02   -0.28105E-02  8528   0.309E-01-0.163E-04
CGA:  12    -0.389724345633E+03   -0.24068E-02   -0.24045E-02  8528   0.356E-01 0.104E-03
CGA:  13    -0.389726077176E+03   -0.17315E-02   -0.17360E-02  8528   0.141E-01 0.961E-04
CGA:  14    -0.389726774598E+03   -0.69742E-03   -0.69853E-03  8528   0.128E-01 0.321E-04
CGA:  15    -0.389727194072E+03   -0.41947E-03   -0.41923E-03  8528   0.408E-02 0.948E-05
CGA:  16    -0.389727906848E+03   -0.71278E-03   -0.71152E-03  8528   0.801E-02 0.131E-04
CGA:  17    -0.389728142447E+03   -0.23560E-03   -0.23413E-03  8528   0.447E-02 0.262E-04
CGA:  18    -0.389728410355E+03   -0.26791E-03   -0.26778E-03  8528   0.263E-02-0.160E-04
CGA:  19    -0.389728612455E+03   -0.20210E-03   -0.20207E-03  8528   0.368E-02 0.167E-05
CGA:  20    -0.389728900117E+03   -0.28766E-03   -0.28742E-03  8528   0.284E-02 0.126E-04
CGA:  21    -0.389729041989E+03   -0.14187E-03   -0.14187E-03  8528   0.189E-02 0.217E-05
CGA:  22    -0.389729107564E+03   -0.65575E-04   -0.65543E-04  8528   0.121E-02 0.312E-05
CGA:  23    -0.389729221754E+03   -0.11419E-03   -0.11398E-03  8528   0.953E-03 0.628E-05
CGA:  24    -0.389729281350E+03   -0.59595E-04   -0.59597E-04  8528   0.137E-02 0.117E-05
CGA:  25    -0.389729323604E+03   -0.42254E-04   -0.42328E-04  8528   0.324E-03-0.838E-08
CGA:  26    -0.389729358025E+03   -0.34421E-04   -0.34373E-04  8528   0.497E-03 0.110E-05
CGA:  27    -0.389729384129E+03   -0.26104E-04   -0.26126E-04  8528   0.305E-03 0.166E-05
CGA:  28    -0.389729404998E+03   -0.20869E-04   -0.20865E-04  8528   0.283E-03 0.852E-06
CGA:  29    -0.389729414797E+03   -0.97983E-05   -0.98039E-05  8528   0.172E-03-0.178E-06
CGA:  30    -0.389729428184E+03   -0.13387E-04   -0.13402E-04  8528   0.124E-03-0.955E-06
CGA:  31    -0.389729442244E+03   -0.14060E-04   -0.14162E-04  8528   0.212E-03-0.200E-05
SDA:  32    -0.389729447865E+03   -0.56213E-05   -0.55986E-05  8528   0.761E-04-0.935E-06
   7 F= -.38972945E+03 E0= -.38971269E+03  d E =-.932908E-01  mag=     4.1367
       N       E                     dE             d eps       ncg     rms          ort
SDA:   1    -0.373989568063E+03    0.15740E+02    0.00000E+00  8528   0.477E+02 0.000E+00
CGA:   2    -0.378201332780E+03   -0.42118E+01   -0.42034E+01  8528   0.178E+03 0.615E+00
CGA:   3    -0.385397498972E+03   -0.71962E+01   -0.76568E+01  8528   0.369E+02-0.220E+01
CGA:   4    -0.386800938440E+03   -0.14034E+01   -0.11083E+01  8528   0.276E+02 0.517E+01
CGA:   5    -0.387409789737E+03   -0.60885E+00   -0.64137E+00  8528   0.335E+02-0.443E+01
CGA:   6    -0.387781879735E+03   -0.37209E+00   -0.33695E+00  8528   0.337E+02 0.219E+01
CGA:   7    -0.388246301022E+03   -0.46442E+00   -0.72204E+00  8528   0.523E+02-0.969E+01
CGA:   8    -0.388676783737E+03   -0.43048E+00   -0.53862E+00  8528   0.339E+02-0.606E+01
CGA:   9    -0.389013963379E+03   -0.33718E+00   -0.40474E+00  8528   0.170E+02-0.522E+01
CGA:  10    -0.389188532226E+03   -0.17457E+00   -0.18199E+00  8528   0.120E+02-0.113E+01
CGA:  11    -0.389319669949E+03   -0.13114E+00   -0.12789E+00  8528   0.707E+01 0.130E+00
CGA:  12    -0.389393396216E+03   -0.73726E-01   -0.68200E-01  8528   0.421E+01 0.470E+00
CGA:  13    -0.389450798555E+03   -0.57402E-01   -0.60661E-01  8528   0.441E+01-0.216E+00
CGA:  14    -0.389507083051E+03   -0.56284E-01   -0.65975E-01  8528   0.459E+01-0.437E+00
CGA:  15    -0.389563197393E+03   -0.56114E-01   -0.64027E-01  8528   0.429E+01-0.341E+00
CGA:  16    -0.389643309888E+03   -0.80112E-01   -0.84590E-01  8528   0.477E+01-0.879E-01
CGA:  17    -0.389711575065E+03   -0.68265E-01   -0.64466E-01  8528   0.212E+01 0.171E+00
CGA:  18    -0.389741029229E+03   -0.29454E-01   -0.29426E-01  8528   0.120E+01 0.471E-02
CGA:  19    -0.389760440586E+03   -0.19411E-01   -0.18553E-01  8528   0.842E+00 0.395E-01
CGA:  20    -0.389773115403E+03   -0.12675E-01   -0.12706E-01  8528   0.574E+00-0.198E-02
CGA:  21    -0.389782929806E+03   -0.98144E-02   -0.97075E-02  8528   0.594E+00 0.368E-02
CGA:  22    -0.389795316172E+03   -0.12386E-01   -0.12209E-01  8528   0.827E+00 0.307E-02
CGA:  23    -0.389809667187E+03   -0.14351E-01   -0.13133E-01  8528   0.786E+00 0.513E-01
CGA:  24    -0.389819863537E+03   -0.10196E-01   -0.96463E-02  8528   0.521E+00 0.388E-01
CGA:  25    -0.389826770835E+03   -0.69073E-02   -0.72543E-02  8528   0.435E+00-0.165E-01
CGA:  26    -0.389833575765E+03   -0.68049E-02   -0.70364E-02  8528   0.502E+00-0.543E-02
CGA:  27    -0.389841480358E+03   -0.79046E-02   -0.83467E-02  8528   0.350E+00-0.689E-02
CGA:  28    -0.389845953059E+03   -0.44727E-02   -0.44742E-02  8528   0.155E+00 0.524E-03
CGA:  29    -0.389848454557E+03   -0.25015E-02   -0.24739E-02  8528   0.123E+00 0.660E-03
CGA:  30    -0.389850609760E+03   -0.21552E-02   -0.21720E-02  8528   0.889E-01-0.129E-03
CGA:  31    -0.389851996960E+03   -0.13872E-02   -0.13926E-02  8528   0.650E-01-0.135E-03
SDA:  32    -0.389853448654E+03   -0.14517E-02   -0.14533E-02  8528   0.807E-01 0.867E-04
CGA:  33    -0.389855152750E+03   -0.17041E-02   -0.16987E-02  8528   0.304E-01-0.256E-03
CGA:  34    -0.389857417164E+03   -0.22644E-02   -0.22768E-02  8528   0.245E-01-0.310E-03
CGA:  35    -0.389859375284E+03   -0.19581E-02   -0.19794E-02  8528   0.447E-01-0.470E-03
CGA:  36    -0.389861148688E+03   -0.17734E-02   -0.17769E-02  8528   0.139E-01-0.286E-03
CGA:  37    -0.389862283823E+03   -0.11351E-02   -0.11195E-02  8528   0.101E-01 0.343E-03
CGA:  38    -0.389862777108E+03   -0.49329E-03   -0.49182E-03  8528   0.630E-02 0.863E-04
CGA:  39    -0.389863186710E+03   -0.40960E-03   -0.40882E-03  8528   0.645E-02 0.211E-04
CGA:  40    -0.389863566962E+03   -0.38025E-03   -0.37982E-03  8528   0.879E-02 0.162E-04
CGA:  41    -0.389864230882E+03   -0.66392E-03   -0.66698E-03  8528   0.502E-02-0.881E-04
CGA:  42    -0.389864406543E+03   -0.17566E-03   -0.17577E-03  8528   0.406E-02 0.136E-04
CGA:  43    -0.389864629560E+03   -0.22302E-03   -0.22283E-03  8528   0.393E-02 0.929E-05
CGA:  44    -0.389865080541E+03   -0.45098E-03   -0.45273E-03  8528   0.449E-02-0.253E-04
CGA:  45    -0.389865237344E+03   -0.15680E-03   -0.15676E-03  8528   0.245E-02-0.565E-05
CGA:  46    -0.389865381721E+03   -0.14438E-03   -0.14433E-03  8528   0.156E-02 0.131E-05
CGA:  47    -0.389865509259E+03   -0.12754E-03   -0.12775E-03  8528   0.234E-02-0.573E-05
CGA:  48    -0.389865612182E+03   -0.10292E-03   -0.10292E-03  8528   0.135E-02-0.256E-05
CGA:  49    -0.389865657097E+03   -0.44915E-04   -0.44868E-04  8528   0.730E-03-0.215E-05
CGA:  50    -0.389865699249E+03   -0.42152E-04   -0.42159E-04  8528   0.356E-03-0.888E-06
CGA:  51    -0.389865722450E+03   -0.23201E-04   -0.23162E-04  8528   0.686E-03 0.197E-05
CGA:  52    -0.389865768730E+03   -0.46280E-04   -0.46179E-04  8528   0.235E-03 0.520E-05
CGA:  53    -0.389865786595E+03   -0.17865E-04   -0.17826E-04  8528   0.374E-03 0.137E-05
CGA:  54    -0.389865800081E+03   -0.13486E-04   -0.13517E-04  8528   0.211E-03 0.729E-06
CGA:  55    -0.389865814058E+03   -0.13977E-04   -0.13975E-04  8528   0.285E-03-0.697E-07
CGA:  56    -0.389865836041E+03   -0.21983E-04   -0.22053E-04  8528   0.258E-03-0.264E-05
CGA:  57    -0.389865848326E+03   -0.12285E-04   -0.12279E-04  8528   0.191E-03-0.247E-05
CGA:  58    -0.389865856753E+03   -0.84273E-05   -0.84145E-05  8528   0.126E-03-0.205E-05
   8 F= -.38986586E+03 E0= -.38984992E+03  d E =-.136409E+00  mag=     4.1297
       N       E                     dE             d eps       ncg     rms          ort
SDA:   1    -0.380748748978E+03    0.91171E+01    0.00000E+00  8528   0.280E+02 0.000E+00
CGA:   2    -0.382493217131E+03   -0.17445E+01   -0.17716E+01  8528   0.872E+02-0.136E+01
CGA:   3    -0.387492562820E+03   -0.49993E+01   -0.49911E+01  8528   0.336E+02 0.829E+00
CGA:   4    -0.388240124799E+03   -0.74756E+00   -0.72345E+00  8528   0.119E+02 0.104E+01
CGA:   5    -0.388784070797E+03   -0.54395E+00   -0.52970E+00  8528   0.126E+02-0.584E+00
CGA:   6    -0.389191946523E+03   -0.40788E+00   -0.40630E+00  8528   0.121E+02-0.464E-01
CGA:   7    -0.389521502688E+03   -0.32956E+00   -0.35250E+00  8528   0.659E+01-0.305E+00
CGA:   8    -0.389726714422E+03   -0.20521E+00   -0.18932E+00  8528   0.262E+01 0.138E+00
CGA:   9    -0.389786203756E+03   -0.59489E-01   -0.60520E-01  8528   0.112E+01-0.281E-01
CGA:  10    -0.389818922245E+03   -0.32718E-01   -0.33647E-01  8528   0.842E+00-0.779E-03
CGA:  11    -0.389858478411E+03   -0.39556E-01   -0.39562E-01  8528   0.888E+00-0.277E-02
CGA:  12    -0.389886701269E+03   -0.28223E-01   -0.28166E-01  8528   0.601E+00-0.332E-03
CGA:  13    -0.389904637707E+03   -0.17936E-01   -0.18343E-01  8528   0.187E+00 0.135E-02
CGA:  14    -0.389909723407E+03   -0.50857E-02   -0.51221E-02  8528   0.129E+00-0.215E-03
CGA:  15    -0.389914384154E+03   -0.46607E-02   -0.46657E-02  8528   0.747E-01 0.221E-03
CGA:  16    -0.389919024494E+03   -0.46403E-02   -0.46356E-02  8528   0.142E+00 0.204E-03
CGA:  17    -0.389922820207E+03   -0.37957E-02   -0.38239E-02  8528   0.336E-01-0.260E-03
CGA:  18    -0.389924174025E+03   -0.13538E-02   -0.13545E-02  8528   0.284E-01 0.106E-03
CGA:  19    -0.389925222469E+03   -0.10484E-02   -0.10464E-02  8528   0.216E-01-0.968E-04
CGA:  20    -0.389925964183E+03   -0.74171E-03   -0.74268E-03  8528   0.112E-01 0.293E-04
CGA:  21    -0.389926501751E+03   -0.53757E-03   -0.53708E-03  8528   0.133E-01 0.540E-04
CGA:  22    -0.389927060680E+03   -0.55893E-03   -0.55908E-03  8528   0.119E-01 0.741E-04
CGA:  23    -0.389927563690E+03   -0.50301E-03   -0.50304E-03  8528   0.103E-01 0.197E-04
CGA:  24    -0.389928027148E+03   -0.46346E-03   -0.46335E-03  8528   0.579E-02 0.260E-04
CGA:  25    -0.389928205448E+03   -0.17830E-03   -0.17833E-03  8528   0.511E-02 0.193E-05
CGA:  26    -0.389928540047E+03   -0.33460E-03   -0.33414E-03  8528   0.416E-02 0.172E-04
CGA:  27    -0.389928721460E+03   -0.18141E-03   -0.18141E-03  8528   0.593E-02 0.196E-05
CGA:  28    -0.389928973883E+03   -0.25242E-03   -0.25241E-03  8528   0.300E-02-0.101E-04
CGA:  29    -0.389929087363E+03   -0.11348E-03   -0.11350E-03  8528   0.183E-02 0.241E-05
CGA:  30    -0.389929153382E+03   -0.66019E-04   -0.66076E-04  8528   0.180E-02 0.501E-05
CGA:  31    -0.389929253571E+03   -0.10019E-03   -0.10010E-03  8528   0.162E-02 0.771E-05
SDA:  32    -0.389929322361E+03   -0.68790E-04   -0.68799E-04  8528   0.134E-02 0.773E-05
CGA:  33    -0.389929355648E+03   -0.33287E-04   -0.33285E-04  8528   0.566E-03-0.993E-06
CGA:  34    -0.389929388996E+03   -0.33348E-04   -0.33390E-04  8528   0.602E-03-0.249E-05
CGA:  35    -0.389929419066E+03   -0.30070E-04   -0.30077E-04  8528   0.549E-03-0.146E-05
CGA:  36    -0.389929479024E+03   -0.59958E-04   -0.60081E-04  8528   0.841E-03-0.193E-05
CGA:  37    -0.389929514323E+03   -0.35299E-04   -0.35299E-04  8528   0.319E-03-0.215E-06
CGA:  38    -0.389929547269E+03   -0.32946E-04   -0.32971E-04  8528   0.231E-03-0.462E-06
CGA:  39    -0.389929564255E+03   -0.16986E-04   -0.16975E-04  8528   0.495E-03 0.349E-06
CGA:  40    -0.389929583849E+03   -0.19594E-04   -0.19600E-04  8528   0.231E-03 0.263E-06
CGA:  41    -0.389929597685E+03   -0.13836E-04   -0.13841E-04  8528   0.913E-04-0.539E-06
CGA:  42    -0.389929614814E+03   -0.17129E-04   -0.17593E-04  8528   0.134E-03-0.322E-05
CGA:  43    -0.389929621743E+03   -0.69291E-05   -0.69234E-05  8528   0.145E-03-0.151E-05
   9 F= -.38992962E+03 E0= -.38991431E+03  d E =-.637650E-01  mag=     4.1363
       N       E                     dE             d eps       ncg     rms          ort
SDA:   1    -0.382936334492E+03    0.69933E+01    0.00000E+00  8528   0.221E+02 0.000E+00
CGA:   2    -0.384345770544E+03   -0.14094E+01   -0.14314E+01  8528   0.687E+02-0.148E+01
CGA:   3    -0.387873134543E+03   -0.35274E+01   -0.35285E+01  8528   0.256E+02 0.304E+00
CGA:   4    -0.388496065052E+03   -0.62293E+00   -0.64609E+00  8528   0.117E+02-0.171E+00
CGA:   5    -0.389126535983E+03   -0.63047E+00   -0.62991E+00  8528   0.888E+01-0.389E+00
CGA:   6    -0.389486081531E+03   -0.35955E+00   -0.36457E+00  8528   0.515E+01 0.708E-01
CGA:   7    -0.389789285001E+03   -0.30320E+00   -0.30574E+00  8528   0.250E+01-0.328E+00
CGA:   8    -0.389856119935E+03   -0.66835E-01   -0.69467E-01  8528   0.891E+00-0.291E-01
CGA:   9    -0.389890979318E+03   -0.34859E-01   -0.35659E-01  8528   0.679E+00 0.119E-01
CGA:  10    -0.389925425429E+03   -0.34446E-01   -0.34443E-01  8528   0.466E+00-0.280E-03
CGA:  11    -0.389955566568E+03   -0.30141E-01   -0.30259E-01  8528   0.155E+00-0.681E-02
CGA:  12    -0.389959976683E+03   -0.44101E-02   -0.44044E-02  8528   0.902E-01 0.126E-03
CGA:  13    -0.389965628317E+03   -0.56516E-02   -0.56386E-02  8528   0.696E-01 0.854E-03
CGA:  14    -0.389970186768E+03   -0.45585E-02   -0.45580E-02  8528   0.477E-01 0.487E-04
CGA:  15    -0.389972199247E+03   -0.20125E-02   -0.20180E-02  8528   0.302E-01 0.139E-03
CGA:  16    -0.389973575782E+03   -0.13765E-02   -0.13785E-02  8528   0.166E-01 0.959E-04
CGA:  17    -0.389974176604E+03   -0.60082E-03   -0.60293E-03  8528   0.111E-01 0.102E-04
CGA:  18    -0.389975220371E+03   -0.10438E-02   -0.10423E-02  8528   0.844E-02 0.326E-04
CGA:  19    -0.389975716213E+03   -0.49584E-03   -0.49560E-03  8528   0.103E-01 0.314E-04
CGA:  20    -0.389976097777E+03   -0.38156E-03   -0.38168E-03  8528   0.438E-02 0.510E-05
CGA:  21    -0.389976484890E+03   -0.38711E-03   -0.38580E-03  8528   0.537E-02 0.345E-04
CGA:  22    -0.389976718216E+03   -0.23333E-03   -0.23363E-03  8528   0.351E-02 0.684E-05
CGA:  23    -0.389976974193E+03   -0.25598E-03   -0.25575E-03  8528   0.445E-02 0.844E-05
CGA:  24    -0.389977128251E+03   -0.15406E-03   -0.15383E-03  8528   0.192E-02-0.555E-07
CGA:  25    -0.389977297769E+03   -0.16952E-03   -0.16951E-03  8528   0.169E-02 0.703E-06
CGA:  26    -0.389977376080E+03   -0.78311E-04   -0.78310E-04  8528   0.133E-02 0.159E-05
CGA:  27    -0.389977433222E+03   -0.57142E-04   -0.57181E-04  8528   0.966E-03 0.206E-05
CGA:  28    -0.389977505128E+03   -0.71906E-04   -0.71861E-04  8528   0.103E-02 0.197E-05
CGA:  29    -0.389977557521E+03   -0.52393E-04   -0.52403E-04  8528   0.504E-03 0.120E-05
CGA:  30    -0.389977580126E+03   -0.22605E-04   -0.22600E-04  8528   0.450E-03-0.303E-06
CGA:  31    -0.389977607399E+03   -0.27273E-04   -0.27278E-04  8528   0.495E-03-0.912E-06
SDA:  32    -0.389977635899E+03   -0.28500E-04   -0.28504E-04  8528   0.376E-03-0.188E-05
CGA:  33    -0.389977646986E+03   -0.11087E-04   -0.11088E-04  8528   0.182E-03-0.595E-06
CGA:  34    -0.389977656178E+03   -0.91922E-05   -0.91882E-05  8528   0.170E-03-0.108E-05
CGA:  35    -0.389977666508E+03   -0.10330E-04   -0.10342E-04  8528   0.217E-03-0.185E-05
CGA:  36    -0.389977686228E+03   -0.19720E-04   -0.19847E-04  8528   0.189E-03-0.330E-05
CGA:  37    -0.389977694038E+03   -0.78105E-05   -0.77929E-05  8528   0.637E-04-0.113E-05
  10 F= -.38997769E+03 E0= -.38996326E+03  d E =-.480723E-01  mag=     4.1355
       N       E                     dE             d eps       ncg     rms          ort
SDA:   1    -0.384903962997E+03    0.50737E+01    0.00000E+00  8528   0.268E+02 0.000E+00
CGA:   2    -0.386155838017E+03   -0.12519E+01   -0.13264E+01  8528   0.173E+02 0.297E+01
CGA:   3    -0.386884407470E+03   -0.72857E+00   -0.22176E+01  8528   0.163E+03-0.304E+02
CGA:   4    -0.388415890052E+03   -0.15315E+01   -0.31711E+01  8528   0.244E+02-0.405E+02
CGA:   5    -0.388911519868E+03   -0.49563E+00   -0.34286E+00  8528   0.357E+01 0.679E+01
CGA:   6    -0.389012532958E+03   -0.10101E+00   -0.83601E-01  8528   0.326E+01 0.745E+00
CGA:   7    -0.389293135880E+03   -0.28060E+00   -0.28513E+00  8528   0.190E+02-0.203E+00
CGA:   8    -0.389543927595E+03   -0.25079E+00   -0.22800E+00  8528   0.119E+02 0.166E+01
CGA:   9    -0.389660642694E+03   -0.11672E+00   -0.14268E+00  8528   0.399E+01-0.141E+01
CGA:  10    -0.389728467491E+03   -0.67825E-01   -0.77865E-01  8528   0.314E+01-0.277E+00
CGA:  11    -0.389787322436E+03   -0.58855E-01   -0.68751E-01  8528   0.155E+01-0.214E+00
CGA:  12    -0.389829348170E+03   -0.42026E-01   -0.41361E-01  8528   0.144E+01 0.108E-01
CGA:  13    -0.389888496208E+03   -0.59148E-01   -0.59034E-01  8528   0.119E+01-0.426E-02
CGA:  14    -0.389915082165E+03   -0.26586E-01   -0.25410E-01  8528   0.517E+00 0.370E-01
CGA:  15    -0.389930382915E+03   -0.15301E-01   -0.15336E-01  8528   0.420E+00-0.307E-03
CGA:  16    -0.389941295960E+03   -0.10913E-01   -0.11010E-01  8528   0.247E+00-0.109E-02
CGA:  17    -0.389948775403E+03   -0.74794E-02   -0.75608E-02  8528   0.248E+00 0.285E-03
CGA:  18    -0.389958349637E+03   -0.95742E-02   -0.95965E-02  8528   0.270E+00 0.142E-02
CGA:  19    -0.389966942558E+03   -0.85929E-02   -0.85782E-02  8528   0.223E+00-0.986E-04
CGA:  20    -0.389974243023E+03   -0.73005E-02   -0.73398E-02  8528   0.150E+00 0.760E-03
CGA:  21    -0.389978364102E+03   -0.41211E-02   -0.41258E-02  8528   0.936E-01 0.958E-05
CGA:  22    -0.389981647368E+03   -0.32833E-02   -0.32840E-02  8528   0.765E-01 0.458E-04
CGA:  23    -0.389983984621E+03   -0.23373E-02   -0.23274E-02  8528   0.504E-01-0.629E-04
CGA:  24    -0.389985817594E+03   -0.18330E-02   -0.18341E-02  8528   0.497E-01 0.951E-04
CGA:  25    -0.389987548060E+03   -0.17305E-02   -0.17303E-02  8528   0.397E-01-0.113E-05
CGA:  26    -0.389989009680E+03   -0.14616E-02   -0.14619E-02  8528   0.327E-01 0.363E-04
CGA:  27    -0.389989827002E+03   -0.81732E-03   -0.82363E-03  8528   0.119E-01-0.358E-04
CGA:  28    -0.389990285350E+03   -0.45835E-03   -0.45848E-03  8528   0.154E-01 0.510E-04
CGA:  29    -0.389991033425E+03   -0.74808E-03   -0.74805E-03  8528   0.159E-01-0.629E-06
CGA:  30    -0.389991528937E+03   -0.49551E-03   -0.49584E-03  8528   0.117E-01 0.190E-05
CGA:  31    -0.389992060455E+03   -0.53152E-03   -0.53164E-03  8528   0.100E-01-0.168E-04
CGA:  32    -0.389992296761E+03   -0.23631E-03   -0.23610E-03  8528   0.377E-02-0.211E-07
CGA:  33    -0.389992502424E+03   -0.20566E-03   -0.20586E-03  8528   0.747E-02-0.901E-05
SDA:  34    -0.389992809685E+03   -0.30726E-03   -0.30724E-03  8528   0.522E-02 0.125E-04
CGA:  35    -0.389993014356E+03   -0.20467E-03   -0.20469E-03  8528   0.323E-02 0.104E-04
CGA:  36    -0.389993169945E+03   -0.15559E-03   -0.15548E-03  8528   0.259E-02 0.940E-05
CGA:  37    -0.389993292462E+03   -0.12252E-03   -0.12252E-03  8528   0.306E-02 0.632E-06
CGA:  38    -0.389993514461E+03   -0.22200E-03   -0.22182E-03  8528   0.178E-02 0.549E-05
CGA:  39    -0.389993607205E+03   -0.92744E-04   -0.92723E-04  8528   0.668E-03 0.125E-05
CGA:  40    -0.389993657244E+03   -0.50039E-04   -0.50115E-04  8528   0.401E-03-0.205E-05
CGA:  41    -0.389993718360E+03   -0.61116E-04   -0.61655E-04  8528   0.949E-03-0.499E-05
CGA:  42    -0.389993754375E+03   -0.36015E-04   -0.35990E-04  8528   0.906E-03-0.159E-05
CGA:  43    -0.389993808730E+03   -0.54355E-04   -0.54323E-04  8528   0.489E-03 0.183E-05
CGA:  44    -0.389993831449E+03   -0.22719E-04   -0.22722E-04  8528   0.379E-03 0.466E-06
CGA:  45    -0.389993866040E+03   -0.34591E-04   -0.34605E-04  8528   0.314E-03-0.321E-06
CGA:  46    -0.389993896327E+03   -0.30287E-04   -0.30214E-04  8528   0.174E-03 0.159E-05
CGA:  47    -0.389993911591E+03   -0.15264E-04   -0.15251E-04  8528   0.117E-03 0.357E-06
CGA:  48    -0.389993923093E+03   -0.11503E-04   -0.11526E-04  8528   0.129E-03-0.545E-06
CGA:  49    -0.389993928908E+03   -0.58152E-05   -0.58111E-05  8528   0.141E-03-0.367E-06
  11 F= -.38999393E+03 E0= -.38997932E+03  d E =-.162349E-01  mag=     4.1359
       N       E                     dE             d eps       ncg     rms          ort
SDA:   1    -0.388984871999E+03    0.10091E+01    0.00000E+00  8528   0.291E+01 0.000E+00
CGA:   2    -0.389394228393E+03   -0.40936E+00   -0.41118E+00  8528   0.104E+02-0.371E-01
CGA:   3    -0.389735697439E+03   -0.34147E+00   -0.36177E+00  8528   0.288E+01-0.184E+00
CGA:   4    -0.389830270925E+03   -0.94573E-01   -0.85081E-01  8528   0.121E+01 0.181E+00
CGA:   5    -0.389913803515E+03   -0.83533E-01   -0.83504E-01  8528   0.122E+01 0.273E-02
CGA:   6    -0.389971403039E+03   -0.57600E-01   -0.57986E-01  8528   0.767E+00 0.999E-02
CGA:   7    -0.389992308010E+03   -0.20905E-01   -0.20148E-01  8528   0.264E+00 0.169E-01
CGA:   8    -0.390005208457E+03   -0.12900E-01   -0.12910E-01  8528   0.935E-01 0.377E-03
CGA:   9    -0.390011287431E+03   -0.60790E-02   -0.60788E-02  8528   0.107E+00 0.558E-05
CGA:  10    -0.390015125640E+03   -0.38382E-02   -0.38198E-02  8528   0.635E-01 0.666E-04
CGA:  11    -0.390017754605E+03   -0.26290E-02   -0.26359E-02  8528   0.307E-01 0.836E-04
CGA:  12    -0.390019031734E+03   -0.12771E-02   -0.12774E-02  8528   0.146E-01 0.945E-05
CGA:  13    -0.390019833829E+03   -0.80209E-03   -0.80209E-03  8528   0.826E-02 0.677E-05
CGA:  14    -0.390020188947E+03   -0.35512E-03   -0.35542E-03  8528   0.106E-01 0.934E-05
CGA:  15    -0.390020752867E+03   -0.56392E-03   -0.56394E-03  8528   0.359E-02 0.220E-04
CGA:  16    -0.390021004864E+03   -0.25200E-03   -0.25183E-03  8528   0.282E-02 0.891E-05
CGA:  17    -0.390021098583E+03   -0.93719E-04   -0.93860E-04  8528   0.148E-02 0.949E-06
CGA:  18    -0.390021187322E+03   -0.88738E-04   -0.88757E-04  8528   0.248E-02-0.144E-05
CGA:  19    -0.390021321119E+03   -0.13380E-03   -0.13379E-03  8528   0.133E-02 0.249E-05
CGA:  20    -0.390021399377E+03   -0.78259E-04   -0.78250E-04  8528   0.999E-03 0.108E-05
CGA:  21    -0.390021462795E+03   -0.63418E-04   -0.63418E-04  8528   0.130E-02-0.224E-06
CGA:  22    -0.390021503301E+03   -0.40505E-04   -0.40565E-04  8528   0.571E-03-0.904E-06
CGA:  23    -0.390021551486E+03   -0.48185E-04   -0.48118E-04  8528   0.614E-03 0.191E-05
CGA:  24    -0.390021594919E+03   -0.43433E-04   -0.43451E-04  8528   0.773E-03-0.104E-05
CGA:  25    -0.390021622013E+03   -0.27094E-04   -0.27052E-04  8528   0.244E-03-0.581E-06
CGA:  26    -0.390021630036E+03   -0.80226E-05   -0.80197E-05  8528   0.194E-03 0.575E-07
CGA:  27    -0.390021655877E+03   -0.25842E-04   -0.25736E-04  8528   0.124E-03 0.134E-05
CGA:  28    -0.390021662700E+03   -0.68221E-05   -0.68231E-05  8528   0.151E-03 0.255E-06
  12 F= -.39002166E+03 E0= -.39000732E+03  d E =-.277338E-01  mag=     4.1411
       N       E                     dE             d eps       ncg     rms          ort
SDA:   1    -0.385006527408E+03    0.50151E+01    0.00000E+00  8528   0.273E+02 0.000E+00
CGA:   2    -0.386151118778E+03   -0.11446E+01   -0.12110E+01  8528   0.174E+02 0.222E+01
CGA:   3    -0.388039011170E+03   -0.18879E+01   -0.19984E+01  8528   0.334E+02-0.641E+01
CGA:   4    -0.388823670005E+03   -0.78466E+00   -0.71900E+00  8528   0.152E+02 0.772E+00
CGA:   5    -0.389035888554E+03   -0.21222E+00   -0.23642E+00  8528   0.618E+01-0.117E+01
CGA:   6    -0.389373977919E+03   -0.33809E+00   -0.33842E+00  8528   0.121E+02-0.439E-01
CGA:   7    -0.389677329466E+03   -0.30335E+00   -0.28430E+00  8528   0.460E+01 0.526E+00
CGA:   8    -0.389788315622E+03   -0.11099E+00   -0.10013E+00  8528   0.155E+01 0.324E+00
CGA:   9    -0.389830201817E+03   -0.41886E-01   -0.42536E-01  8528   0.136E+01-0.197E-01
CGA:  10    -0.389868271158E+03   -0.38069E-01   -0.39604E-01  8528   0.826E+00-0.143E-01
CGA:  11    -0.389894568924E+03   -0.26298E-01   -0.25830E-01  8528   0.104E+01 0.226E-02
CGA:  12    -0.389926688475E+03   -0.32120E-01   -0.31306E-01  8528   0.630E+00 0.386E-02
CGA:  13    -0.389940427192E+03   -0.13739E-01   -0.14517E-01  8528   0.355E+00-0.194E-01
CGA:  14    -0.389949349643E+03   -0.89225E-02   -0.89808E-02  8528   0.233E+00-0.852E-03
CGA:  15    -0.389956833494E+03   -0.74839E-02   -0.74154E-02  8528   0.201E+00-0.312E-03
CGA:  16    -0.389962203633E+03   -0.53701E-02   -0.55892E-02  8528   0.170E+00-0.148E-02
CGA:  17    -0.389968923037E+03   -0.67194E-02   -0.67636E-02  8528   0.127E+00 0.455E-02
CGA:  18    -0.389972704457E+03   -0.37814E-02   -0.37312E-02  8528   0.747E-01 0.129E-03
CGA:  19    -0.389975534251E+03   -0.28298E-02   -0.28251E-02  8528   0.716E-01-0.307E-03
CGA:  20    -0.389977787958E+03   -0.22537E-02   -0.23359E-02  8528   0.288E-01 0.177E-02
CGA:  21    -0.389979005843E+03   -0.12179E-02   -0.12178E-02  8528   0.359E-01-0.372E-04
CGA:  22    -0.389980706342E+03   -0.17005E-02   -0.17084E-02  8528   0.351E-01-0.895E-03
CGA:  23    -0.389981854440E+03   -0.11481E-02   -0.11663E-02  8528   0.183E-01 0.608E-03
CGA:  24    -0.389982500076E+03   -0.64564E-03   -0.64740E-03  8528   0.158E-01 0.767E-04
CGA:  25    -0.389983143247E+03   -0.64317E-03   -0.64296E-03  8528   0.792E-02-0.905E-04
CGA:  26    -0.389983521587E+03   -0.37834E-03   -0.37826E-03  8528   0.132E-01 0.958E-05
CGA:  27    -0.389984134232E+03   -0.61264E-03   -0.61158E-03  8528   0.720E-02 0.146E-03
CGA:  28    -0.389984427441E+03   -0.29321E-03   -0.29318E-03  8528   0.610E-02-0.758E-05
CGA:  29    -0.389984645802E+03   -0.21836E-03   -0.21805E-03  8528   0.425E-02-0.164E-04
CGA:  30    -0.389984833182E+03   -0.18738E-03   -0.18735E-03  8528   0.346E-02 0.778E-05
CGA:  31    -0.389985010524E+03   -0.17734E-03   -0.17731E-03  8528   0.473E-02 0.290E-05
SDA:  32    -0.389985179609E+03   -0.16909E-03   -0.16917E-03  8528   0.237E-02 0.559E-05
CGA:  33    -0.389985265594E+03   -0.85984E-04   -0.85913E-04  8528   0.922E-03-0.507E-05
CGA:  34    -0.389985337644E+03   -0.72050E-04   -0.72194E-04  8528   0.124E-02-0.395E-05
CGA:  35    -0.389985473423E+03   -0.13578E-03   -0.13598E-03  8528   0.955E-03-0.323E-05
CGA:  36    -0.389985529970E+03   -0.56546E-04   -0.56557E-04  8528   0.937E-03-0.945E-06
CGA:  37    -0.389985564198E+03   -0.34228E-04   -0.34224E-04  8528   0.574E-03 0.650E-07
CGA:  38    -0.389985603256E+03   -0.39058E-04   -0.39036E-04  8528   0.419E-03 0.105E-05
CGA:  39    -0.389985646499E+03   -0.43243E-04   -0.42983E-04  8528   0.454E-03 0.480E-05
CGA:  40    -0.389985688812E+03   -0.42313E-04   -0.42327E-04  8528   0.237E-03-0.374E-06
CGA:  41    -0.389985707304E+03   -0.18492E-04   -0.18526E-04  8528   0.505E-03-0.138E-05
CGA:  42    -0.389985729101E+03   -0.21797E-04   -0.21769E-04  8528   0.230E-03-0.198E-05
CGA:  43    -0.389985743364E+03   -0.14263E-04   -0.14266E-04  8528   0.195E-03-0.381E-06
CGA:  44    -0.389985753565E+03   -0.10201E-04   -0.10201E-04  8528   0.130E-03 0.266E-06
CGA:  45    -0.389985767969E+03   -0.14405E-04   -0.14396E-04  8528   0.813E-04 0.119E-06
CGA:  46    -0.389985776257E+03   -0.82876E-05   -0.82747E-05  8528   0.884E-04 0.264E-06
  13 F= -.38998578E+03 E0= -.38997190E+03  d E =0.358864E-01  mag=     4.1463
       N       E                     dE             d eps       ncg     rms          ort
SDA:   1    -0.388532610997E+03    0.14532E+01    0.00000E+00  8528   0.818E+01 0.000E+00
CGA:   2    -0.388815120151E+03   -0.28251E+00   -0.25405E+00  8528   0.667E+01 0.342E+00
CGA:   3    -0.389351028805E+03   -0.53591E+00   -0.53705E+00  8528   0.744E+01-0.517E-01
CGA:   4    -0.389644597391E+03   -0.29357E+00   -0.29336E+00  8528   0.269E+01 0.118E+00
CGA:   5    -0.389747159334E+03   -0.10256E+00   -0.10077E+00  8528   0.264E+01 0.599E-02
CGA:   6    -0.389864230638E+03   -0.11707E+00   -0.11762E+00  8528   0.207E+01 0.109E-01
CGA:   7    -0.389950969495E+03   -0.86739E-01   -0.86574E-01  8528   0.105E+01-0.202E-02
CGA:   8    -0.389981070508E+03   -0.30101E-01   -0.29162E-01  8528   0.539E+00 0.151E-01
CGA:   9    -0.390000441353E+03   -0.19371E-01   -0.19407E-01  8528   0.149E+00-0.313E-04
CGA:  10    -0.390007368628E+03   -0.69273E-02   -0.69409E-02  8528   0.237E+00 0.929E-03
CGA:  11    -0.390018283194E+03   -0.10915E-01   -0.10897E-01  8528   0.112E+00-0.100E-02
CGA:  12    -0.390023279922E+03   -0.49967E-02   -0.49943E-02  8528   0.730E-01-0.114E-03
CGA:  13    -0.390025183504E+03   -0.19036E-02   -0.19193E-02  8528   0.264E-01-0.277E-03
CGA:  14    -0.390026467919E+03   -0.12844E-02   -0.12847E-02  8528   0.268E-01 0.121E-03
CGA:  15    -0.390028267157E+03   -0.17992E-02   -0.17947E-02  8528   0.226E-01 0.204E-03
CGA:  16    -0.390028907528E+03   -0.64037E-03   -0.64321E-03  8528   0.123E-01-0.337E-04
CGA:  17    -0.390029540662E+03   -0.63313E-03   -0.63312E-03  8528   0.696E-02 0.590E-05
CGA:  18    -0.390029951661E+03   -0.41100E-03   -0.41106E-03  8528   0.765E-02-0.332E-05
CGA:  19    -0.390030174573E+03   -0.22291E-03   -0.22388E-03  8528   0.365E-02-0.486E-05
CGA:  20    -0.390030449869E+03   -0.27530E-03   -0.27540E-03  8528   0.443E-02-0.280E-05
CGA:  21    -0.390030657192E+03   -0.20732E-03   -0.20732E-03  8528   0.351E-02 0.378E-05
CGA:  22    -0.390030791497E+03   -0.13431E-03   -0.13455E-03  8528   0.278E-02 0.615E-05
CGA:  23    -0.390030923980E+03   -0.13248E-03   -0.13251E-03  8528   0.154E-02 0.693E-05
CGA:  24    -0.390031023175E+03   -0.99195E-04   -0.99155E-04  8528   0.178E-02 0.129E-05
CGA:  25    -0.390031082684E+03   -0.59509E-04   -0.59528E-04  8528   0.131E-02-0.121E-05
CGA:  26    -0.390031172983E+03   -0.90299E-04   -0.90352E-04  8528   0.997E-03-0.295E-05
CGA:  27    -0.390031220026E+03   -0.47043E-04   -0.47040E-04  8528   0.830E-03-0.911E-06
CGA:  28    -0.390031245166E+03   -0.25140E-04   -0.25156E-04  8528   0.376E-03-0.639E-06
CGA:  29    -0.390031268797E+03   -0.23631E-04   -0.23648E-04  8528   0.404E-03-0.125E-05
CGA:  30    -0.390031290193E+03   -0.21396E-04   -0.21398E-04  8528   0.324E-03-0.527E-06
CGA:  31    -0.390031303603E+03   -0.13410E-04   -0.13419E-04  8528   0.353E-03 0.765E-06
SDA:  32    -0.390031321177E+03   -0.17575E-04   -0.17575E-04  8528   0.896E-04 0.162E-05
CGA:  33    -0.390031326547E+03   -0.53695E-05   -0.53784E-05  8528   0.142E-03-0.930E-06
  14 F= -.39003133E+03 E0= -.39001735E+03  d E =-.455503E-01  mag=     4.1475
       N       E                     dE             d eps       ncg     rms          ort
SDA:   1    -0.389830680388E+03    0.20064E+00    0.00000E+00  8528   0.101E+01 0.000E+00
CGA:   2    -0.389863888231E+03   -0.33208E-01   -0.34096E-01  8528   0.968E+00-0.583E-04
CGA:   3    -0.389943675434E+03   -0.79787E-01   -0.80782E-01  8528   0.117E+01-0.273E-01
CGA:   4    -0.389986749731E+03   -0.43074E-01   -0.43637E-01  8528   0.296E+00 0.736E-02
CGA:   5    -0.390002741401E+03   -0.15992E-01   -0.15988E-01  8528   0.224E+00 0.735E-03
CGA:   6    -0.390019194366E+03   -0.16453E-01   -0.16508E-01  8528   0.209E+00-0.196E-02
CGA:   7    -0.390024185714E+03   -0.49913E-02   -0.50448E-02  8528   0.563E-01-0.125E-02
CGA:   8    -0.390027130532E+03   -0.29448E-02   -0.29442E-02  8528   0.178E-01 0.166E-03
CGA:   9    -0.390028473066E+03   -0.13425E-02   -0.13395E-02  8528   0.222E-01 0.104E-03
CGA:  10    -0.390029462933E+03   -0.98987E-03   -0.99132E-03  8528   0.119E-01 0.668E-04
CGA:  11    -0.390029855596E+03   -0.39266E-03   -0.39159E-03  8528   0.596E-02 0.790E-05
CGA:  12    -0.390030120895E+03   -0.26530E-03   -0.26543E-03  8528   0.253E-02 0.860E-05
CGA:  13    -0.390030342834E+03   -0.22194E-03   -0.22172E-03  8528   0.171E-02 0.510E-05
CGA:  14    -0.390030431827E+03   -0.88993E-04   -0.88993E-04  8528   0.175E-02-0.144E-05
CGA:  15    -0.390030493231E+03   -0.61403E-04   -0.61427E-04  8528   0.923E-03-0.370E-06
CGA:  16    -0.390030559086E+03   -0.65855E-04   -0.65941E-04  8528   0.841E-03-0.324E-05
CGA:  17    -0.390030593996E+03   -0.34910E-04   -0.34923E-04  8528   0.259E-03 0.886E-06
CGA:  18    -0.390030621501E+03   -0.27505E-04   -0.27363E-04  8528   0.606E-03 0.258E-05
CGA:  19    -0.390030645773E+03   -0.24272E-04   -0.24281E-04  8528   0.491E-03 0.114E-05
CGA:  20    -0.390030673595E+03   -0.27822E-04   -0.27822E-04  8528   0.139E-03 0.247E-06
CGA:  21    -0.390030684754E+03   -0.11158E-04   -0.11168E-04  8528   0.227E-03-0.409E-06
CGA:  22    -0.390030701893E+03   -0.17139E-04   -0.17162E-04  8528   0.233E-03-0.109E-05
CGA:  23    -0.390030710414E+03   -0.85214E-05   -0.85144E-05  8528   0.140E-03-0.460E-06
  15 F= -.39003071E+03 E0= -.39001669E+03  d E =0.616132E-03  mag=     4.1452
       N       E                     dE             d eps       ncg     rms          ort
SDA:   1    -0.386706631420E+03    0.33241E+01    0.00000E+00  8528   0.997E+01 0.000E+00
CGA:   2    -0.387452330570E+03   -0.74570E+00   -0.89320E+00  8528   0.449E+02-0.402E+01
CGA:   3    -0.388085037591E+03   -0.63271E+00   -0.62424E+00  8528   0.714E+02 0.151E+00
CGA:   4    -0.389009766367E+03   -0.92473E+00   -0.82083E+00  8528   0.180E+02 0.120E+02
CGA:   5    -0.389245490436E+03   -0.23572E+00   -0.15241E+00  8528   0.856E+01 0.118E+02
CGA:   6    -0.389474660238E+03   -0.22917E+00   -0.18767E+00  8528   0.234E+01 0.134E+01
CGA:   7    -0.389696348977E+03   -0.22169E+00   -0.21800E+00  8528   0.313E+01 0.939E-01
CGA:   8    -0.389825107946E+03   -0.12876E+00   -0.13337E+00  8528   0.176E+01 0.150E+00
CGA:   9    -0.389891157618E+03   -0.66050E-01   -0.66802E-01  8528   0.795E+00 0.721E-02
CGA:  10    -0.389925078171E+03   -0.33921E-01   -0.33983E-01  8528   0.541E+00 0.334E-02
CGA:  11    -0.389962333607E+03   -0.37255E-01   -0.38339E-01  8528   0.892E+00-0.437E-01
CGA:  12    -0.389990473620E+03   -0.28140E-01   -0.28122E-01  8528   0.413E+00-0.153E-03
CGA:  13    -0.390006922834E+03   -0.16449E-01   -0.16755E-01  8528   0.288E+00 0.108E-01
CGA:  14    -0.390014677614E+03   -0.77548E-02   -0.77567E-02  8528   0.523E-01-0.845E-05
CGA:  15    -0.390017128635E+03   -0.24510E-02   -0.24514E-02  8528   0.636E-01 0.228E-03
CGA:  16    -0.390020365968E+03   -0.32373E-02   -0.32377E-02  8528   0.299E-01-0.885E-04
CGA:  17    -0.390022140529E+03   -0.17746E-02   -0.17745E-02  8528   0.312E-01-0.564E-05
CGA:  18    -0.390023226642E+03   -0.10861E-02   -0.10866E-02  8528   0.114E-01 0.275E-05
CGA:  19    -0.390023717274E+03   -0.49063E-03   -0.49077E-03  8528   0.929E-02 0.176E-04
CGA:  20    -0.390024161512E+03   -0.44424E-03   -0.44422E-03  8528   0.860E-02 0.327E-04
CGA:  21    -0.390024912618E+03   -0.75111E-03   -0.74556E-03  8528   0.922E-02 0.134E-03
CGA:  22    -0.390025284217E+03   -0.37160E-03   -0.37201E-03  8528   0.523E-02 0.187E-04
CGA:  23    -0.390025511491E+03   -0.22727E-03   -0.22754E-03  8528   0.335E-02 0.181E-04
CGA:  24    -0.390025703352E+03   -0.19186E-03   -0.19182E-03  8528   0.491E-02-0.227E-06
CGA:  25    -0.390025958973E+03   -0.25562E-03   -0.25561E-03  8528   0.190E-02-0.736E-05
CGA:  26    -0.390026078363E+03   -0.11939E-03   -0.11958E-03  8528   0.220E-02-0.126E-04
CGA:  27    -0.390026182027E+03   -0.10366E-03   -0.10363E-03  8528   0.135E-02-0.765E-05
CGA:  28    -0.390026266611E+03   -0.84583E-04   -0.84518E-04  8528   0.150E-02 0.501E-05
CGA:  29    -0.390026324790E+03   -0.58179E-04   -0.58249E-04  8528   0.115E-02 0.673E-05
CGA:  30    -0.390026435684E+03   -0.11089E-03   -0.10986E-03  8528   0.110E-02 0.224E-04
CGA:  31    -0.390026472285E+03   -0.36601E-04   -0.36675E-04  8528   0.423E-03 0.407E-05
CGA:  32    -0.390026512416E+03   -0.40132E-04   -0.40143E-04  8528   0.437E-03-0.344E-06
CGA:  33    -0.390026540762E+03   -0.28345E-04   -0.28370E-04  8528   0.722E-03-0.242E-05
CGA:  34    -0.390026580837E+03   -0.40075E-04   -0.40087E-04  8528   0.457E-03-0.562E-05
CGA:  35    -0.390026596631E+03   -0.15794E-04   -0.15764E-04  8528   0.222E-03-0.181E-05
SDA:  36    -0.390026607377E+03   -0.10746E-04   -0.10743E-04  8528   0.172E-03-0.475E-06
CGA:  37    -0.390026617787E+03   -0.10410E-04   -0.10405E-04  8528   0.128E-03 0.732E-06
CGA:  38    -0.390026627786E+03   -0.99992E-05   -0.99640E-05  8528   0.281E-03 0.143E-05
CGA:  39    -0.390026640177E+03   -0.12391E-04   -0.12409E-04  8528   0.128E-03 0.158E-05
CGA:  40    -0.390026647545E+03   -0.73673E-05   -0.73696E-05  8528   0.101E-03-0.582E-06
  16 F= -.39002665E+03 E0= -.39001252E+03  d E =0.406287E-02  mag=     4.1477
       N       E                     dE             d eps       ncg     rms          ort
SDA:   1    -0.385488157826E+03    0.45385E+01    0.00000E+00  8528   0.230E+02 0.000E+00
CGA:   2    -0.386628648043E+03   -0.11405E+01   -0.11531E+01  8528   0.159E+02 0.152E+01
CGA:   3    -0.388208337578E+03   -0.15797E+01   -0.17911E+01  8528   0.417E+02-0.107E+02
CGA:   4    -0.388746293929E+03   -0.53796E+00   -0.91766E+00  8528   0.101E+02-0.772E+01
CGA:   5    -0.389016825572E+03   -0.27053E+00   -0.21372E+00  8528   0.297E+01 0.129E+01
CGA:   6    -0.389278008127E+03   -0.26118E+00   -0.27763E+00  8528   0.111E+02-0.464E+00
CGA:   7    -0.389552133947E+03   -0.27413E+00   -0.29574E+00  8528   0.909E+01-0.118E+00
CGA:   8    -0.389737468496E+03   -0.18533E+00   -0.20618E+00  8528   0.340E+01-0.615E+00
CGA:   9    -0.389808369484E+03   -0.70901E-01   -0.69829E-01  8528   0.142E+01 0.319E-01
CGA:  10    -0.389857644111E+03   -0.49275E-01   -0.49635E-01  8528   0.177E+01 0.178E-02
CGA:  11    -0.389920511361E+03   -0.62867E-01   -0.62782E-01  8528   0.101E+01 0.360E-03
CGA:  12    -0.389949041815E+03   -0.28530E-01   -0.29386E-01  8528   0.450E+00-0.489E-02
CGA:  13    -0.389960664397E+03   -0.11623E-01   -0.11614E-01  8528   0.203E+00 0.261E-03
CGA:  14    -0.389967038174E+03   -0.63738E-02   -0.63002E-02  8528   0.113E+00 0.900E-04
CGA:  15    -0.389970985429E+03   -0.39473E-02   -0.39485E-02  8528   0.132E+00 0.237E-04
CGA:  16    -0.389977883496E+03   -0.68981E-02   -0.68702E-02  8528   0.123E+00 0.273E-02
CGA:  17    -0.389981624377E+03   -0.37409E-02   -0.37392E-02  8528   0.104E+00 0.179E-04
CGA:  18    -0.389985945562E+03   -0.43212E-02   -0.43248E-02  8528   0.386E-01 0.439E-03
CGA:  19    -0.389986811292E+03   -0.86573E-03   -0.87323E-03  8528   0.209E-01-0.163E-03
CGA:  20    -0.389988316274E+03   -0.15050E-02   -0.14990E-02  8528   0.269E-01 0.184E-03
CGA:  21    -0.389989160997E+03   -0.84472E-03   -0.84527E-03  8528   0.196E-01-0.585E-05
CGA:  22    -0.389990022635E+03   -0.86164E-03   -0.86172E-03  8528   0.132E-01 0.564E-04
CGA:  23    -0.389990585998E+03   -0.56336E-03   -0.56345E-03  8528   0.121E-01 0.167E-04
CGA:  24    -0.389990959783E+03   -0.37378E-03   -0.37375E-03  8528   0.515E-02 0.114E-05
CGA:  25    -0.389991205338E+03   -0.24556E-03   -0.24551E-03  8528   0.694E-02 0.987E-05
CGA:  26    -0.389991640099E+03   -0.43476E-03   -0.43422E-03  8528   0.105E-01 0.256E-04
CGA:  27    -0.389991950944E+03   -0.31084E-03   -0.31084E-03  8528   0.296E-02 0.113E-04
CGA:  28    -0.389992097169E+03   -0.14623E-03   -0.14624E-03  8528   0.385E-02-0.217E-05
CGA:  29    -0.389992225496E+03   -0.12833E-03   -0.12833E-03  8528   0.218E-02 0.347E-06
CGA:  30    -0.389992424718E+03   -0.19922E-03   -0.19898E-03  8528   0.462E-02 0.446E-05
CGA:  31    -0.389992544272E+03   -0.11955E-03   -0.11932E-03  8528   0.143E-02 0.381E-05
CGA:  32    -0.389992624943E+03   -0.80671E-04   -0.80646E-04  8528   0.142E-02 0.939E-06
CGA:  33    -0.389992669266E+03   -0.44322E-04   -0.44336E-04  8528   0.101E-02-0.175E-05
SDA:  34    -0.389992737302E+03   -0.68037E-04   -0.68159E-04  8528   0.153E-02-0.546E-05
CGA:  35    -0.389992782284E+03   -0.44982E-04   -0.44964E-04  8528   0.473E-03-0.528E-06
CGA:  36    -0.389992817139E+03   -0.34856E-04   -0.34869E-04  8528   0.555E-03-0.670E-06
CGA:  37    -0.389992843432E+03   -0.26293E-04   -0.26294E-04  8528   0.663E-03-0.830E-06
CGA:  38    -0.389992892163E+03   -0.48731E-04   -0.48742E-04  8528   0.222E-03-0.597E-06
CGA:  39    -0.389992907745E+03   -0.15582E-04   -0.15604E-04  8528   0.101E-03-0.125E-05
CGA:  40    -0.389992921997E+03   -0.14252E-04   -0.14603E-04  8528   0.193E-03-0.372E-05
CGA:  41    -0.389992940443E+03   -0.18446E-04   -0.18693E-04  8528   0.139E-03-0.544E-05
CGA:  42    -0.389992948083E+03   -0.76402E-05   -0.76403E-05  8528   0.209E-03-0.710E-06
CGA:  43    -0.389992965137E+03   -0.17054E-04   -0.17017E-04  8528   0.316E-03 0.139E-05
CGA:  44    -0.389992979006E+03   -0.13869E-04   -0.13882E-04  8528   0.155E-03 0.995E-06
CGA:  45    -0.389992987262E+03   -0.82560E-05   -0.82571E-05  8528   0.789E-04 0.954E-07
  17 F= -.38999299E+03 E0= -.38997921E+03  d E =0.336603E-01  mag=     4.1570
       N       E                     dE             d eps       ncg     rms          ort
SDA:   1    -0.389099611922E+03    0.89337E+00    0.00000E+00  8528   0.319E+01 0.000E+00
CGA:   2    -0.389451118551E+03   -0.35151E+00   -0.37166E+00  8528   0.703E+01-0.372E+00
CGA:   3    -0.389717298780E+03   -0.26618E+00   -0.27011E+00  8528   0.263E+01 0.171E-01
CGA:   4    -0.389811765144E+03   -0.94466E-01   -0.83726E-01  8528   0.139E+01 0.232E+00
CGA:   5    -0.389894133607E+03   -0.82368E-01   -0.82262E-01  8528   0.154E+01-0.702E-02
CGA:   6    -0.389971767106E+03   -0.77633E-01   -0.77775E-01  8528   0.690E+00 0.500E-02
CGA:   7    -0.389992989588E+03   -0.21222E-01   -0.20820E-01  8528   0.369E+00 0.622E-02
CGA:   8    -0.390006972817E+03   -0.13983E-01   -0.14015E-01  8528   0.116E+00-0.537E-04
CGA:   9    -0.390013294557E+03   -0.63217E-02   -0.63144E-02  8528   0.137E+00-0.122E-02
CGA:  10    -0.390019990349E+03   -0.66958E-02   -0.66924E-02  8528   0.978E-01-0.162E-03
CGA:  11    -0.390023368505E+03   -0.33782E-02   -0.34190E-02  8528   0.498E-01-0.220E-03
CGA:  12    -0.390025028212E+03   -0.16597E-02   -0.16697E-02  8528   0.146E-01-0.711E-04
CGA:  13    -0.390026032363E+03   -0.10042E-02   -0.10032E-02  8528   0.188E-01 0.450E-04
CGA:  14    -0.390026723462E+03   -0.69110E-03   -0.69282E-03  8528   0.129E-01 0.281E-05
CGA:  15    -0.390027474622E+03   -0.75116E-03   -0.75100E-03  8528   0.867E-02 0.220E-04
CGA:  16    -0.390027796070E+03   -0.32145E-03   -0.32191E-03  8528   0.433E-02 0.296E-05
CGA:  17    -0.390028067234E+03   -0.27116E-03   -0.27119E-03  8528   0.290E-02-0.109E-05
CGA:  18    -0.390028163817E+03   -0.96582E-04   -0.96444E-04  8528   0.233E-02 0.227E-05
CGA:  19    -0.390028397393E+03   -0.23358E-03   -0.23247E-03  8528   0.292E-02 0.229E-04
CGA:  20    -0.390028522788E+03   -0.12539E-03   -0.12557E-03  8528   0.138E-02 0.606E-05
CGA:  21    -0.390028589398E+03   -0.66610E-04   -0.66671E-04  8528   0.135E-02 0.488E-05
CGA:  22    -0.390028672335E+03   -0.82937E-04   -0.82896E-04  8528   0.151E-02 0.350E-05
CGA:  23    -0.390028724910E+03   -0.52575E-04   -0.52528E-04  8528   0.550E-03-0.230E-06
CGA:  24    -0.390028792446E+03   -0.67537E-04   -0.67613E-04  8528   0.822E-03-0.125E-05
CGA:  25    -0.390028820954E+03   -0.28508E-04   -0.28536E-04  8528   0.428E-03-0.532E-06
CGA:  26    -0.390028841590E+03   -0.20636E-04   -0.20637E-04  8528   0.288E-03-0.166E-06
CGA:  27    -0.390028852718E+03   -0.11128E-04   -0.11128E-04  8528   0.180E-03-0.161E-06
CGA:  28    -0.390028869116E+03   -0.16398E-04   -0.16400E-04  8528   0.183E-03-0.931E-07
CGA:  29    -0.390028881356E+03   -0.12239E-04   -0.12225E-04  8528   0.164E-03 0.129E-05
CGA:  30    -0.390028886607E+03   -0.52512E-05   -0.52687E-05  8528   0.728E-04 0.435E-06
  18 F= -.39002889E+03 E0= -.39001489E+03  d E =-.358993E-01  mag=     4.1572
       N       E                     dE             d eps       ncg     rms          ort
SDA:   1    -0.389757631643E+03    0.27125E+00    0.00000E+00  8528   0.114E+01 0.000E+00
CGA:   2    -0.389813234456E+03   -0.55603E-01   -0.54908E-01  8528   0.147E+01-0.282E-01
CGA:   3    -0.389915167275E+03   -0.10193E+00   -0.10165E+00  8528   0.136E+01 0.132E-01
CGA:   4    -0.389965573767E+03   -0.50406E-01   -0.47855E-01  8528   0.468E+00 0.172E-01
CGA:   5    -0.389990805697E+03   -0.25232E-01   -0.25231E-01  8528   0.266E+00-0.194E-03
CGA:   6    -0.390012248014E+03   -0.21442E-01   -0.21478E-01  8528   0.207E+00-0.115E-02
CGA:   7    -0.390018784109E+03   -0.65361E-02   -0.65793E-02  8528   0.990E-01-0.479E-03
CGA:   8    -0.390022592793E+03   -0.38087E-02   -0.38131E-02  8528   0.240E-01 0.291E-04
CGA:   9    -0.390024357215E+03   -0.17644E-02   -0.17743E-02  8528   0.258E-01-0.387E-03
CGA:  10    -0.390025598726E+03   -0.12415E-02   -0.12410E-02  8528   0.174E-01-0.305E-04
CGA:  11    -0.390026453162E+03   -0.85444E-03   -0.85521E-03  8528   0.780E-02 0.498E-04
CGA:  12    -0.390026664493E+03   -0.21133E-03   -0.21107E-03  8528   0.275E-02 0.409E-05
CGA:  13    -0.390026965214E+03   -0.30072E-03   -0.30063E-03  8528   0.215E-02 0.147E-05
CGA:  14    -0.390027098958E+03   -0.13374E-03   -0.13373E-03  8528   0.254E-02 0.708E-06
CGA:  15    -0.390027194115E+03   -0.95157E-04   -0.95324E-04  8528   0.104E-02-0.110E-05
CGA:  16    -0.390027246375E+03   -0.52260E-04   -0.52241E-04  8528   0.767E-03-0.135E-05
CGA:  17    -0.390027281433E+03   -0.35058E-04   -0.35069E-04  8528   0.451E-03 0.723E-06
CGA:  18    -0.390027339635E+03   -0.58202E-04   -0.57904E-04  8528   0.671E-03 0.399E-05
CGA:  19    -0.390027362067E+03   -0.22432E-04   -0.22494E-04  8528   0.387E-03 0.929E-06
CGA:  20    -0.390027383545E+03   -0.21478E-04   -0.21478E-04  8528   0.247E-03 0.128E-06
CGA:  21    -0.390027406870E+03   -0.23325E-04   -0.23342E-04  8528   0.319E-03-0.564E-06
CGA:  22    -0.390027419115E+03   -0.12245E-04   -0.12236E-04  8528   0.167E-03-0.438E-06
CGA:  23    -0.390027432643E+03   -0.13528E-04   -0.13519E-04  8528   0.276E-03 0.356E-06
CGA:  24    -0.390027441935E+03   -0.92915E-05   -0.92919E-05  8528   0.658E-04 0.216E-06
  19 F= -.39002744E+03 E0= -.39001327E+03  d E =0.144467E-02  mag=     4.1561
       N       E                     dE             d eps       ncg     rms          ort
SDA:   1    -0.388414615078E+03    0.16128E+01    0.00000E+00  8528   0.434E+01 0.000E+00
CGA:   2    -0.389081962067E+03   -0.66735E+00   -0.64793E+00  8528   0.123E+02 0.177E+00
CGA:   3    -0.389581925772E+03   -0.49996E+00   -0.43949E+00  8528   0.405E+01 0.647E+00
CGA:   4    -0.389751114062E+03   -0.16919E+00   -0.18160E+00  8528   0.183E+01 0.160E+00
CGA:   5    -0.389866132135E+03   -0.11502E+00   -0.11497E+00  8528   0.175E+01-0.239E-01
CGA:   6    -0.389954174682E+03   -0.88043E-01   -0.88365E-01  8528   0.520E+00 0.933E-02
CGA:   7    -0.389981138241E+03   -0.26964E-01   -0.27022E-01  8528   0.147E+00 0.211E-02
CGA:   8    -0.389991344807E+03   -0.10207E-01   -0.10290E-01  8528   0.229E+00-0.591E-02
CGA:   9    -0.389998481013E+03   -0.71362E-02   -0.71390E-02  8528   0.106E+00 0.111E-04
CGA:  10    -0.390004157252E+03   -0.56762E-02   -0.56933E-02  8528   0.360E-01 0.121E-02
CGA:  11    -0.390005454408E+03   -0.12972E-02   -0.12915E-02  8528   0.290E-01 0.387E-04
CGA:  12    -0.390006692130E+03   -0.12377E-02   -0.12390E-02  8528   0.165E-01 0.115E-04
CGA:  13    -0.390007510977E+03   -0.81885E-03   -0.81979E-03  8528   0.146E-01 0.410E-04
CGA:  14    -0.390008289494E+03   -0.77852E-03   -0.77866E-03  8528   0.861E-02 0.131E-04
CGA:  15    -0.390008556817E+03   -0.26732E-03   -0.26799E-03  8528   0.561E-02-0.105E-04
CGA:  16    -0.390008835802E+03   -0.27899E-03   -0.27891E-03  8528   0.217E-02-0.625E-05
CGA:  17    -0.390009000934E+03   -0.16513E-03   -0.16485E-03  8528   0.385E-02 0.122E-04
CGA:  18    -0.390009138596E+03   -0.13766E-03   -0.13809E-03  8528   0.276E-02 0.232E-05
CGA:  19    -0.390009344204E+03   -0.20561E-03   -0.20535E-03  8528   0.117E-02 0.109E-04
CGA:  20    -0.390009402914E+03   -0.58710E-04   -0.58690E-04  8528   0.157E-02-0.777E-06
CGA:  21    -0.390009472607E+03   -0.69693E-04   -0.69745E-04  8528   0.118E-02 0.650E-06
CGA:  22    -0.390009561316E+03   -0.88709E-04   -0.88728E-04  8528   0.127E-02-0.918E-06
CGA:  23    -0.390009615510E+03   -0.54194E-04   -0.54217E-04  8528   0.751E-03-0.306E-06
CGA:  24    -0.390009650951E+03   -0.35441E-04   -0.35465E-04  8528   0.710E-03 0.180E-05
CGA:  25    -0.390009675173E+03   -0.24222E-04   -0.24260E-04  8528   0.285E-03 0.144E-05
CGA:  26    -0.390009709574E+03   -0.34401E-04   -0.34179E-04  8528   0.442E-03 0.335E-05
CGA:  27    -0.390009726809E+03   -0.17235E-04   -0.17274E-04  8528   0.425E-03 0.120E-05
CGA:  28    -0.390009745591E+03   -0.18782E-04   -0.18778E-04  8528   0.130E-03 0.306E-06
CGA:  29    -0.390009760358E+03   -0.14766E-04   -0.14963E-04  8528   0.319E-03-0.331E-05
CGA:  30    -0.390009773513E+03   -0.13155E-04   -0.13116E-04  8528   0.311E-03-0.281E-05
CGA:  31    -0.390009788656E+03   -0.15143E-04   -0.15111E-04  8528   0.125E-03-0.329E-05
SDA:  32    -0.390009795312E+03   -0.66562E-05   -0.66524E-05  8528   0.152E-03-0.102E-05
  20 F= -.39000980E+03 E0= -.38999524E+03  d E =0.176466E-01  mag=     4.1483
       N       E                     dE             d eps       ncg     rms          ort
SDA:   1    -0.387538362845E+03    0.24714E+01    0.00000E+00  8528   0.134E+02 0.000E+00
CGA:   2    -0.387889065726E+03   -0.35070E+00   -0.28013E+00  8528   0.631E+01 0.219E+01
CGA:   3    -0.388719839391E+03   -0.83077E+00   -0.94573E+00  8528   0.479E+02-0.184E+01
CGA:   4    -0.389162837129E+03   -0.44300E+00   -0.43925E+00  8528   0.306E+02 0.509E+00
CGA:   5    -0.389351247414E+03   -0.18841E+00   -0.38059E+00  8528   0.928E+01-0.120E+02
CGA:   6    -0.389468070522E+03   -0.11682E+00   -0.12012E+00  8528   0.456E+01-0.557E-01
CGA:   7    -0.389549856568E+03   -0.81786E-01   -0.84321E-01  8528   0.279E+01-0.131E+00
CGA:   8    -0.389658159151E+03   -0.10830E+00   -0.10765E+00  8528   0.395E+01-0.150E-01
CGA:   9    -0.389775419616E+03   -0.11726E+00   -0.11908E+00  8528   0.325E+01-0.116E-01
CGA:  10    -0.389852103654E+03   -0.76684E-01   -0.76387E-01  8528   0.142E+01 0.937E-02
CGA:  11    -0.389879663053E+03   -0.27559E-01   -0.26513E-01  8528   0.680E+00 0.382E-01
CGA:  12    -0.389901860586E+03   -0.22198E-01   -0.21570E-01  8528   0.721E+00 0.431E-02
CGA:  13    -0.389918851655E+03   -0.16991E-01   -0.16143E-01  8528   0.601E+00 0.256E-01
CGA:  14    -0.389935450346E+03   -0.16599E-01   -0.16486E-01  8528   0.688E+00 0.197E-02
CGA:  15    -0.389951919412E+03   -0.16469E-01   -0.16421E-01  8528   0.575E+00 0.770E-03
CGA:  16    -0.389964748785E+03   -0.12829E-01   -0.12753E-01  8528   0.529E+00 0.178E-02
CGA:  17    -0.389975889313E+03   -0.11141E-01   -0.11506E-01  8528   0.259E+00-0.628E-02
CGA:  18    -0.389979792633E+03   -0.39033E-02   -0.40854E-02  8528   0.107E+00-0.757E-02
CGA:  19    -0.389983469080E+03   -0.36764E-02   -0.36832E-02  8528   0.171E+00 0.729E-03
CGA:  20    -0.389988672750E+03   -0.52037E-02   -0.52172E-02  8528   0.128E+00 0.288E-03
CGA:  21    -0.389992630596E+03   -0.39578E-02   -0.39307E-02  8528   0.148E+00-0.925E-03
CGA:  22    -0.389996277696E+03   -0.36471E-02   -0.36122E-02  8528   0.691E-01 0.100E-03
CGA:  23    -0.389997673533E+03   -0.13958E-02   -0.14012E-02  8528   0.497E-01-0.133E-03
CGA:  24    -0.389999329484E+03   -0.16560E-02   -0.16575E-02  8528   0.409E-01 0.202E-03
CGA:  25    -0.390000084933E+03   -0.75545E-03   -0.75310E-03  8528   0.186E-01 0.880E-04
CGA:  26    -0.390000828158E+03   -0.74323E-03   -0.74285E-03  8528   0.311E-01 0.632E-04
CGA:  27    -0.390001696497E+03   -0.86834E-03   -0.86947E-03  8528   0.233E-01 0.703E-04
CGA:  28    -0.390002467527E+03   -0.77103E-03   -0.77127E-03  8528   0.255E-01 0.595E-04
CGA:  29    -0.390003028296E+03   -0.56077E-03   -0.55856E-03  8528   0.874E-02 0.483E-04
CGA:  30    -0.390003231241E+03   -0.20295E-03   -0.20265E-03  8528   0.765E-02 0.483E-05
CGA:  31    -0.390003518387E+03   -0.28715E-03   -0.28659E-03  8528   0.831E-02 0.921E-04
SDA:  32    -0.390003728625E+03   -0.21024E-03   -0.21056E-03  8528   0.619E-02-0.178E-05
CGA:  33    -0.390003956002E+03   -0.22738E-03   -0.22762E-03  8528   0.514E-02-0.503E-04
CGA:  34    -0.390004173532E+03   -0.21753E-03   -0.21784E-03  8528   0.279E-02-0.294E-04
CGA:  35    -0.390004363440E+03   -0.18991E-03   -0.19104E-03  8528   0.378E-02-0.326E-04
CGA:  36    -0.390004579253E+03   -0.21581E-03   -0.21665E-03  8528   0.167E-02-0.364E-04
CGA:  37    -0.390004671513E+03   -0.92260E-04   -0.92199E-04  8528   0.978E-03 0.279E-05
CGA:  38    -0.390004703939E+03   -0.32425E-04   -0.32413E-04  8528   0.803E-03 0.119E-05
CGA:  39    -0.390004769871E+03   -0.65933E-04   -0.65166E-04  8528   0.558E-03 0.175E-04
CGA:  40    -0.390004837734E+03   -0.67863E-04   -0.66375E-04  8528   0.731E-03 0.201E-04
CGA:  41    -0.390004884778E+03   -0.47044E-04   -0.47103E-04  8528   0.127E-02-0.164E-05
CGA:  42    -0.390004937715E+03   -0.52937E-04   -0.53037E-04  8528   0.888E-03 0.163E-04
CGA:  43    -0.390004803234E+03    0.13448E-03   -0.67716E-04  8528   0.196E-01-0.250E-02
CGA:  44    -0.390005323997E+03   -0.52076E-03   -0.57405E-03  8528   0.573E-02-0.127E-02
CGA:  45    -0.390005441484E+03   -0.11749E-03   -0.11735E-03  8528   0.123E-02 0.276E-05
CGA:  46    -0.390005547419E+03   -0.10594E-03   -0.10609E-03  8528   0.314E-02-0.112E-04
CGA:  47    -0.390005828451E+03   -0.28103E-03   -0.28001E-03  8528   0.514E-02 0.416E-04
CGA:  48    -0.390006134699E+03   -0.30625E-03   -0.29287E-03  8528   0.105E-01-0.789E-04
CGA:  49    -0.390006652947E+03   -0.51825E-03   -0.51532E-03  8528   0.135E-01 0.158E-03
CGA:  50    -0.390008011532E+03   -0.13586E-02   -0.14261E-02  8528   0.566E-01-0.346E-02
CGA:  51    -0.390008173311E+03   -0.16178E-03   -0.88353E-04  8528   0.596E-01 0.346E-01
CGA:  52    -0.390009946957E+03   -0.17736E-02   -0.17696E-02  8528   0.277E-01 0.115E-03
CGA:  53    -0.390012045415E+03   -0.20985E-02   -0.21011E-02  8528   0.526E-01-0.277E-03
CGA:  54    -0.390013757266E+03   -0.17119E-02   -0.17625E-02  8528   0.584E-01-0.759E-03
CGA:  55    -0.390017310394E+03   -0.35531E-02   -0.35005E-02  8528   0.473E-01-0.243E-02
CGA:  56    -0.390019567285E+03   -0.22569E-02   -0.22860E-02  8528   0.380E-01 0.274E-03
CGA:  57    -0.390020551499E+03   -0.98421E-03   -0.90189E-03  8528   0.293E-01 0.254E-02
CGA:  58    -0.390024523440E+03   -0.39719E-02   -0.39626E-02  8528   0.817E-01 0.138E-03
CGA:  59    -0.390031218614E+03   -0.66952E-02   -0.79351E-02  8528   0.282E+00-0.545E-01
CGA:  60    -0.390035557985E+03   -0.43394E-02   -0.42848E-02  8528   0.876E-01 0.281E-02
CGA:  61    -0.390037266836E+03   -0.17089E-02   -0.17551E-02  8528   0.338E-01-0.183E-02
CGA:  62    -0.390040504081E+03   -0.32372E-02   -0.32171E-02  8528   0.592E-01 0.517E-03
CGA:  63    -0.390043588572E+03   -0.30845E-02   -0.30552E-02  8528   0.499E-01-0.300E-03
CGA:  64    -0.390044859334E+03   -0.12708E-02   -0.12580E-02  8528   0.651E-01 0.318E-03
CGA:  65    -0.390047883736E+03   -0.30244E-02   -0.29095E-02  8528   0.283E-01 0.105E-03
CGA:  66    -0.390050853340E+03   -0.29696E-02   -0.28470E-02  8528   0.757E-01 0.274E-02
CGA:  67    -0.390052137831E+03   -0.12845E-02   -0.10194E-02  8528   0.223E-01 0.198E-01
CGA:  68    -0.390053994899E+03   -0.18571E-02   -0.18701E-02  8528   0.749E-01-0.161E-02
CGA:  69    -0.390054914072E+03   -0.91917E-03   -0.90855E-03  8528   0.459E-01 0.132E-02
CGA:  70    -0.390055944858E+03   -0.10308E-02   -0.11613E-02  8528   0.107E+00-0.326E-02
CGA:  71    -0.390057797016E+03   -0.18522E-02   -0.13098E-02  8528   0.670E-01 0.392E-01
CGA:  72    -0.390058858026E+03   -0.10610E-02   -0.86092E-03  8528   0.454E-01 0.194E-01
CGA:  73    -0.390060172194E+03   -0.13142E-02   -0.11931E-02  8528   0.839E-01 0.439E-02
CGA:  74    -0.390061096381E+03   -0.92419E-03   -0.94236E-03  8528   0.513E-01-0.832E-03
CGA:  75    -0.390061571477E+03   -0.47510E-03   -0.55250E-03  8528   0.529E-01-0.611E-02
CGA:  76    -0.390062402238E+03   -0.83076E-03   -0.90856E-03  8528   0.851E-01-0.236E-02
CGA:  77    -0.390063147126E+03   -0.74489E-03   -0.60503E-03  8528   0.438E-01 0.175E-01
CGA:  78    -0.390063713477E+03   -0.56635E-03   -0.51652E-03  8528   0.491E-01 0.448E-02
CGA:  79    -0.390064490203E+03   -0.77673E-03   -0.73240E-03  8528   0.766E-01 0.268E-02
CGA:  80    -0.390065134161E+03   -0.64396E-03   -0.73384E-03  8528   0.424E-01-0.804E-02
CGA:  81    -0.390065423869E+03   -0.28971E-03   -0.33571E-03  8528   0.358E-01-0.439E-02
CGA:  82    -0.390065872039E+03   -0.44817E-03   -0.46254E-03  8528   0.443E-01-0.598E-03
CGA:  83    -0.390066217602E+03   -0.34556E-03   -0.30775E-03  8528   0.164E-01 0.482E-02
CGA:  84    -0.390066360054E+03   -0.14245E-03   -0.13750E-03  8528   0.119E-01 0.583E-03
CGA:  85    -0.390066572380E+03   -0.21233E-03   -0.20806E-03  8528   0.299E-01 0.129E-03
CGA:  86    -0.390066934217E+03   -0.36184E-03   -0.36459E-03  8528   0.333E-01-0.125E-03
[...]
CGA:  21    -0.390448857539E+03   -0.47103E-04   -0.47134E-04  8528   0.181E-02-0.312E-05
CGA:  22    -0.390448968947E+03   -0.11141E-03   -0.11134E-03  8528   0.206E-02 0.206E-05
CGA:  23    -0.390449047422E+03   -0.78476E-04   -0.78476E-04  8528   0.355E-02 0.271E-06
CGA:  24    -0.390449121981E+03   -0.74558E-04   -0.74778E-04  8528   0.141E-02-0.112E-05
CGA:  25    -0.390449187130E+03   -0.65149E-04   -0.65159E-04  8528   0.936E-03-0.233E-06
CGA:  26    -0.390449205552E+03   -0.18422E-04   -0.18412E-04  8528   0.914E-03 0.497E-06
CGA:  27    -0.390449257971E+03   -0.52418E-04   -0.52318E-04  8528   0.111E-02 0.478E-05
CGA:  28    -0.390449305898E+03   -0.47927E-04   -0.47912E-04  8528   0.136E-02 0.368E-05
CGA:  29    -0.390449327220E+03   -0.21322E-04   -0.21310E-04  8528   0.464E-03 0.794E-06
CGA:  30    -0.390449351845E+03   -0.24625E-04   -0.24615E-04  8528   0.409E-03 0.707E-06
CGA:  31    -0.390449363975E+03   -0.12130E-04   -0.12144E-04  8528   0.593E-03 0.996E-06
SDA:  32    -0.390449379308E+03   -0.15333E-04   -0.15346E-04  8528   0.242E-03 0.383E-06
CGA:  33    -0.390449387022E+03   -0.77139E-05   -0.77131E-05  8528   0.125E-03-0.420E-06
 143 F= -.39044939E+03 E0= -.39042879E+03  d E =0.627994E-03  mag=     3.4063
       N       E                     dE             d eps       ncg     rms          ort
SDA:   1    -0.389333232526E+03    0.11161E+01    0.00000E+00  8528   0.586E+01 0.000E+00
CGA:   2    -0.389451975849E+03   -0.11874E+00   -0.10659E+00  8528   0.506E+01 0.341E+00
CGA:   3    -0.389803422236E+03   -0.35145E+00   -0.38187E+00  8528   0.117E+02-0.916E+00
CGA:   4    -0.390122837944E+03   -0.31942E+00   -0.32039E+00  8528   0.470E+01 0.469E-01
CGA:   5    -0.390200030582E+03   -0.77193E-01   -0.91386E-01  8528   0.290E+01-0.350E+00
CGA:   6    -0.390281454579E+03   -0.81424E-01   -0.79560E-01  8528   0.172E+01-0.182E-01
CGA:   7    -0.390331163384E+03   -0.49709E-01   -0.48146E-01  8528   0.120E+01-0.211E-01
CGA:   8    -0.390367831090E+03   -0.36668E-01   -0.36045E-01  8528   0.106E+01-0.228E-01
CGA:   9    -0.390408650284E+03   -0.40819E-01   -0.40685E-01  8528   0.699E+00 0.373E-01
CGA:  10    -0.390425399184E+03   -0.16749E-01   -0.17191E-01  8528   0.172E+00-0.155E-02
CGA:  11    -0.390431139546E+03   -0.57404E-02   -0.57343E-02  8528   0.145E+00-0.798E-03
CGA:  12    -0.390435444986E+03   -0.43054E-02   -0.42966E-02  8528   0.137E+00-0.384E-03
CGA:  13    -0.390439319214E+03   -0.38742E-02   -0.38577E-02  8528   0.849E-01-0.496E-03
CGA:  14    -0.390443062284E+03   -0.37431E-02   -0.37373E-02  8528   0.703E-01 0.467E-03
CGA:  15    -0.390445428635E+03   -0.23664E-02   -0.23698E-02  8528   0.278E-01 0.604E-03
CGA:  16    -0.390446304320E+03   -0.87568E-03   -0.87585E-03  8528   0.179E-01 0.827E-05
CGA:  17    -0.390446760104E+03   -0.45578E-03   -0.45558E-03  8528   0.143E-01-0.550E-05
CGA:  18    -0.390447182729E+03   -0.42262E-03   -0.42180E-03  8528   0.116E-01-0.490E-04
CGA:  19    -0.390447842728E+03   -0.66000E-03   -0.65975E-03  8528   0.127E-01 0.109E-04
CGA:  20    -0.390448273772E+03   -0.43104E-03   -0.43130E-03  8528   0.475E-02 0.524E-04
CGA:  21    -0.390448431709E+03   -0.15794E-03   -0.15791E-03  8528   0.304E-02-0.769E-05
CGA:  22    -0.390448517725E+03   -0.86016E-04   -0.85936E-04  8528   0.294E-02-0.703E-05
CGA:  23    -0.390448602151E+03   -0.84426E-04   -0.84365E-04  8528   0.241E-02-0.743E-05
CGA:  24    -0.390448730093E+03   -0.12794E-03   -0.12786E-03  8528   0.270E-02 0.444E-05
CGA:  25    -0.390448845204E+03   -0.11511E-03   -0.11505E-03  8528   0.177E-02 0.719E-05
CGA:  26    -0.390448904719E+03   -0.59516E-04   -0.59514E-04  8528   0.121E-02 0.126E-05
CGA:  27    -0.390448931949E+03   -0.27229E-04   -0.27246E-04  8528   0.923E-03 0.164E-05
CGA:  28    -0.390448970429E+03   -0.38480E-04   -0.38445E-04  8528   0.114E-02 0.411E-05
CGA:  29    -0.390449031312E+03   -0.60883E-04   -0.60660E-04  8528   0.967E-03 0.120E-04
CGA:  30    -0.390449073658E+03   -0.42346E-04   -0.42297E-04  8528   0.853E-03 0.708E-05
CGA:  31    -0.390449103591E+03   -0.29933E-04   -0.29928E-04  8528   0.758E-03 0.260E-06
SDA:  32    -0.390449118812E+03   -0.15221E-04   -0.15209E-04  8528   0.381E-03 0.967E-06
CGA:  33    -0.390449131037E+03   -0.12226E-04   -0.12218E-04  8528   0.533E-03-0.200E-05
CGA:  34    -0.390449144754E+03   -0.13717E-04   -0.13715E-04  8528   0.278E-03-0.154E-05
CGA:  35    -0.390449167328E+03   -0.22573E-04   -0.22760E-04  8528   0.338E-03-0.409E-05
CGA:  36    -0.390449184488E+03   -0.17161E-04   -0.17207E-04  8528   0.163E-03-0.341E-05
CGA:  37    -0.390449192210E+03   -0.77223E-05   -0.77274E-05  8528   0.118E-03-0.545E-06
 144 F= -.39044919E+03 E0= -.39042873E+03  d E =0.194811E-03  mag=     3.4223
       N       E                     dE             d eps       ncg     rms          ort
SDA:   1    -0.389144889254E+03    0.13043E+01    0.00000E+00  8528   0.664E+01 0.000E+00
CGA:   2    -0.389266407323E+03   -0.12152E+00   -0.13032E+00  8528   0.665E+01-0.243E+00
CGA:   3    -0.389956236685E+03   -0.68983E+00   -0.71955E+00  8528   0.908E+01-0.467E+00
CGA:   4    -0.390217775884E+03   -0.26154E+00   -0.27410E+00  8528   0.168E+01 0.269E+00
CGA:   5    -0.390282121635E+03   -0.64346E-01   -0.65283E-01  8528   0.216E+01 0.905E-01
CGA:   6    -0.390333833925E+03   -0.51712E-01   -0.50117E-01  8528   0.104E+01 0.299E-01
CGA:   7    -0.390394350698E+03   -0.60517E-01   -0.60346E-01  8528   0.113E+01 0.825E-02
CGA:   8    -0.390418127346E+03   -0.23777E-01   -0.23353E-01  8528   0.489E+00 0.101E-01
CGA:   9    -0.390430915310E+03   -0.12788E-01   -0.12942E-01  8528   0.154E+00-0.533E-03
CGA:  10    -0.390437278745E+03   -0.63634E-02   -0.63638E-02  8528   0.160E+00-0.123E-03
CGA:  11    -0.390440496212E+03   -0.32175E-02   -0.32171E-02  8528   0.690E-01 0.350E-04
CGA:  12    -0.390444518599E+03   -0.40224E-02   -0.40239E-02  8528   0.796E-01-0.612E-04
CGA:  13    -0.390446797992E+03   -0.22794E-02   -0.22860E-02  8528   0.629E-01 0.927E-04
CGA:  14    -0.390448156144E+03   -0.13582E-02   -0.13739E-02  8528   0.132E-01-0.245E-03
CGA:  15    -0.390448780329E+03   -0.62418E-03   -0.62366E-03  8528   0.167E-01 0.458E-04
CGA:  16    -0.390449120144E+03   -0.33982E-03   -0.33925E-03  8528   0.707E-02 0.180E-04
CGA:  17    -0.390449606985E+03   -0.48684E-03   -0.48655E-03  8528   0.104E-01 0.100E-04
CGA:  18    -0.390449872431E+03   -0.26545E-03   -0.26530E-03  8528   0.772E-02-0.174E-05
CGA:  19    -0.390450103107E+03   -0.23068E-03   -0.23085E-03  8528   0.286E-02 0.692E-05
CGA:  20    -0.390450210557E+03   -0.10745E-03   -0.10745E-03  8528   0.282E-02-0.333E-05
CGA:  21    -0.390450275883E+03   -0.65326E-04   -0.65327E-04  8528   0.163E-02 0.198E-06
CGA:  22    -0.390450381227E+03   -0.10534E-03   -0.10540E-03  8528   0.261E-02-0.228E-05
CGA:  23    -0.390450479449E+03   -0.98222E-04   -0.98229E-04  8528   0.366E-02 0.361E-05
CGA:  24    -0.390450582764E+03   -0.10331E-03   -0.10354E-03  8528   0.945E-03 0.142E-05
CGA:  25    -0.390450618356E+03   -0.35592E-04   -0.35593E-04  8528   0.111E-02 0.105E-05
CGA:  26    -0.390450649825E+03   -0.31469E-04   -0.31453E-04  8528   0.974E-03-0.122E-05
CGA:  27    -0.390450718645E+03   -0.68820E-04   -0.68821E-04  8528   0.109E-02-0.702E-07
CGA:  28    -0.390450743569E+03   -0.24924E-04   -0.24930E-04  8528   0.812E-03 0.443E-06
CGA:  29    -0.390450777085E+03   -0.33516E-04   -0.33494E-04  8528   0.414E-03 0.643E-05
CGA:  30    -0.390450791173E+03   -0.14088E-04   -0.14093E-04  8528   0.439E-03 0.860E-06
CGA:  31    -0.390450803490E+03   -0.12317E-04   -0.12337E-04  8528   0.316E-03 0.171E-05
SDA:  32    -0.390450822416E+03   -0.18926E-04   -0.18897E-04  8528   0.358E-03 0.140E-05
CGA:  33    -0.390450827969E+03   -0.55533E-05   -0.55677E-05  8528   0.173E-03 0.114E-06
 145 F= -.39045083E+03 E0= -.39043089E+03  d E =-.163576E-02  mag=     3.4169
       N       E                     dE             d eps       ncg     rms          ort
SDA:   1    -0.389934086942E+03    0.51674E+00    0.00000E+00  8528   0.168E+01 0.000E+00
CGA:   2    -0.390078243587E+03   -0.14416E+00   -0.14284E+00  8528   0.372E+01 0.207E-01
CGA:   3    -0.390256115321E+03   -0.17787E+00   -0.17876E+00  8528   0.476E+01-0.780E-01
CGA:   4    -0.390336466913E+03   -0.80352E-01   -0.81514E-01  8528   0.979E+00-0.383E-01
CGA:   5    -0.390379730849E+03   -0.43264E-01   -0.43915E-01  8528   0.587E+00-0.708E-01
CGA:   6    -0.390410887675E+03   -0.31157E-01   -0.30966E-01  8528   0.810E+00 0.893E-02
CGA:   7    -0.390425907031E+03   -0.15019E-01   -0.14774E-01  8528   0.321E+00 0.779E-02
CGA:   8    -0.390440826871E+03   -0.14920E-01   -0.14887E-01  8528   0.105E+00 0.324E-02
CGA:   9    -0.390444073355E+03   -0.32465E-02   -0.32396E-02  8528   0.117E+00-0.163E-03
CGA:  10    -0.390447005351E+03   -0.29320E-02   -0.29306E-02  8528   0.465E-01 0.146E-04
CGA:  11    -0.390449128123E+03   -0.21228E-02   -0.21204E-02  8528   0.293E-01 0.222E-03
CGA:  12    -0.390450247497E+03   -0.11194E-02   -0.11196E-02  8528   0.415E-01 0.120E-03
CGA:  13    -0.390451231736E+03   -0.98424E-03   -0.98261E-03  8528   0.128E-01 0.223E-04
CGA:  14    -0.390451770507E+03   -0.53877E-03   -0.53959E-03  8528   0.654E-02-0.122E-03
CGA:  15    -0.390451933306E+03   -0.16280E-03   -0.16252E-03  8528   0.618E-02-0.245E-05
CGA:  16    -0.390452154369E+03   -0.22106E-03   -0.22109E-03  8528   0.362E-02 0.827E-05
CGA:  17    -0.390452379083E+03   -0.22471E-03   -0.22448E-03  8528   0.432E-02 0.905E-05
CGA:  18    -0.390452465393E+03   -0.86310E-04   -0.86495E-04  8528   0.240E-02 0.181E-05
CGA:  19    -0.390452558173E+03   -0.92780E-04   -0.92779E-04  8528   0.834E-03 0.207E-05
CGA:  20    -0.390452594017E+03   -0.35844E-04   -0.35823E-04  8528   0.135E-02 0.375E-05
CGA:  21    -0.390452632751E+03   -0.38734E-04   -0.38746E-04  8528   0.109E-02 0.972E-06
CGA:  22    -0.390452696953E+03   -0.64202E-04   -0.64145E-04  8528   0.853E-03 0.313E-05
CGA:  23    -0.390452725258E+03   -0.28305E-04   -0.28293E-04  8528   0.995E-03-0.169E-05
CGA:  24    -0.390452749686E+03   -0.24428E-04   -0.24432E-04  8528   0.370E-03-0.105E-06
CGA:  25    -0.390452773108E+03   -0.23422E-04   -0.23437E-04  8528   0.572E-03-0.725E-06
CGA:  26    -0.390452793901E+03   -0.20793E-04   -0.20793E-04  8528   0.828E-03-0.453E-06
CGA:  27    -0.390452816853E+03   -0.22952E-04   -0.22912E-04  8528   0.219E-03-0.273E-05
CGA:  28    -0.390452832781E+03   -0.15929E-04   -0.15970E-04  8528   0.467E-03-0.123E-05
CGA:  29    -0.390452841653E+03   -0.88720E-05   -0.88529E-05  8528   0.165E-03-0.670E-06
 146 F= -.39045284E+03 E0= -.39043291E+03  d E =-.201368E-02  mag=     3.4116
       N       E                     dE             d eps       ncg     rms          ort
SDA:   1    -0.389952331293E+03    0.50050E+00    0.00000E+00  8528   0.193E+01 0.000E+00
CGA:   2    -0.390038985091E+03   -0.86654E-01   -0.85940E-01  8528   0.378E+01 0.844E-01
CGA:   3    -0.390177362966E+03   -0.13838E+00   -0.13782E+00  8528   0.465E+01-0.464E-01
CGA:   4    -0.390334802514E+03   -0.15744E+00   -0.15815E+00  8528   0.612E+00 0.565E-01
CGA:   5    -0.390381512333E+03   -0.46710E-01   -0.46930E-01  8528   0.837E+00-0.618E-02
CGA:   6    -0.390407417876E+03   -0.25906E-01   -0.26033E-01  8528   0.988E+00 0.277E-02
CGA:   7    -0.390427292380E+03   -0.19875E-01   -0.20527E-01  8528   0.203E+00-0.152E-01
CGA:   8    -0.390440449022E+03   -0.13157E-01   -0.13155E-01  8528   0.105E+00 0.129E-04
CGA:   9    -0.390444698783E+03   -0.42498E-02   -0.42496E-02  8528   0.557E-01-0.329E-03
CGA:  10    -0.390445966208E+03   -0.12674E-02   -0.12625E-02  8528   0.516E-01 0.720E-04
CGA:  11    -0.390447906141E+03   -0.19399E-02   -0.19383E-02  8528   0.280E-01-0.299E-03
CGA:  12    -0.390449664448E+03   -0.17583E-02   -0.17550E-02  8528   0.155E-01 0.120E-03
CGA:  13    -0.390450263080E+03   -0.59863E-03   -0.59891E-03  8528   0.358E-02 0.496E-04
CGA:  14    -0.390450576031E+03   -0.31295E-03   -0.31195E-03  8528   0.632E-02 0.224E-04
CGA:  15    -0.390450783278E+03   -0.20725E-03   -0.20732E-03  8528   0.951E-02-0.269E-05
CGA:  16    -0.390451049491E+03   -0.26621E-03   -0.26568E-03  8528   0.149E-02-0.919E-05
CGA:  17    -0.390451123694E+03   -0.74203E-04   -0.74149E-04  8528   0.105E-02 0.427E-05
CGA:  18    -0.390451196936E+03   -0.73242E-04   -0.73138E-04  8528   0.136E-02 0.339E-05
CGA:  19    -0.390451260036E+03   -0.63100E-04   -0.63110E-04  8528   0.284E-02-0.267E-05
CGA:  20    -0.390451322544E+03   -0.62509E-04   -0.62527E-04  8528   0.592E-03-0.116E-06
CGA:  21    -0.390451371599E+03   -0.49055E-04   -0.48915E-04  8528   0.652E-03 0.359E-05
CGA:  22    -0.390451402652E+03   -0.31053E-04   -0.31046E-04  8528   0.547E-03 0.233E-05
CGA:  23    -0.390451416790E+03   -0.14138E-04   -0.14170E-04  8528   0.741E-03 0.123E-05
CGA:  24    -0.390451465610E+03   -0.48820E-04   -0.48797E-04  8528   0.336E-03 0.120E-05
CGA:  25    -0.390451479505E+03   -0.13895E-04   -0.13900E-04  8528   0.195E-03 0.126E-05
CGA:  26    -0.390451490840E+03   -0.11335E-04   -0.11328E-04  8528   0.381E-03 0.491E-06
CGA:  27    -0.390451498030E+03   -0.71894E-05   -0.71687E-05  8528   0.147E-03-0.497E-06
 147 F= -.39045150E+03 E0= -.39043144E+03  d E =0.134362E-02  mag=     3.4101
       N       E                     dE             d eps       ncg     rms          ort
SDA:   1    -0.390261039587E+03    0.19045E+00    0.00000E+00  8528   0.101E+01 0.000E+00
CGA:   2    -0.390292249581E+03   -0.31210E-01   -0.31267E-01  8528   0.103E+01 0.530E-03
CGA:   3    -0.390324602055E+03   -0.32352E-01   -0.32512E-01  8528   0.145E+01 0.889E-03
CGA:   4    -0.390403301274E+03   -0.78699E-01   -0.78427E-01  8528   0.558E+00 0.179E-01
CGA:   5    -0.390422807398E+03   -0.19506E-01   -0.19516E-01  8528   0.286E+00 0.289E-03
CGA:   6    -0.390428830559E+03   -0.60232E-02   -0.59159E-02  8528   0.235E+00 0.281E-02
CGA:   7    -0.390440750712E+03   -0.11920E-01   -0.11998E-01  8528   0.116E+00-0.649E-02
CGA:   8    -0.390447269415E+03   -0.65187E-02   -0.64662E-02  8528   0.479E-01 0.271E-02
CGA:   9    -0.390449392993E+03   -0.21236E-02   -0.21236E-02  8528   0.306E-01 0.149E-04
CGA:  10    -0.390449953633E+03   -0.56064E-03   -0.56258E-03  8528   0.182E-01-0.601E-04
CGA:  11    -0.390450669112E+03   -0.71548E-03   -0.71519E-03  8528   0.108E-01-0.435E-04
CGA:  12    -0.390451410942E+03   -0.74183E-03   -0.74188E-03  8528   0.718E-02-0.192E-05
CGA:  13    -0.390451736297E+03   -0.32536E-03   -0.32530E-03  8528   0.313E-02 0.162E-04
CGA:  14    -0.390451819060E+03   -0.82763E-04   -0.82587E-04  8528   0.285E-02-0.299E-05
CGA:  15    -0.390451883475E+03   -0.64415E-04   -0.64221E-04  8528   0.115E-02 0.147E-05
CGA:  16    -0.390451999225E+03   -0.11575E-03   -0.11567E-03  8528   0.919E-03 0.155E-05
CGA:  17    -0.390452056931E+03   -0.57706E-04   -0.57711E-04  8528   0.778E-03-0.192E-06
CGA:  18    -0.390452072677E+03   -0.15746E-04   -0.15765E-04  8528   0.503E-03-0.477E-06
CGA:  19    -0.390452087013E+03   -0.14336E-04   -0.14324E-04  8528   0.246E-03-0.866E-06
CGA:  20    -0.390452105451E+03   -0.18438E-04   -0.18461E-04  8528   0.251E-03-0.753E-06
CGA:  21    -0.390452124981E+03   -0.19530E-04   -0.19508E-04  8528   0.236E-03 0.609E-06
CGA:  22    -0.390452137962E+03   -0.12981E-04   -0.12984E-04  8528   0.147E-03-0.395E-06
CGA:  23    -0.390452140707E+03   -0.27457E-05   -0.27566E-05  8528   0.114E-03 0.172E-06
 148 F= -.39045214E+03 E0= -.39043199E+03  d E =-.642678E-03  mag=     3.4103
       N       E                     dE             d eps       ncg     rms          ort
SDA:   1    -0.390252830086E+03    0.19931E+00    0.00000E+00  8528   0.119E+01 0.000E+00
CGA:   2    -0.390293877643E+03   -0.41048E-01   -0.41502E-01  8528   0.816E+00 0.831E-02
CGA:   3    -0.390336510504E+03   -0.42633E-01   -0.42473E-01  8528   0.191E+01 0.179E-01
CGA:   4    -0.390388453404E+03   -0.51943E-01   -0.51175E-01  8528   0.796E+00 0.115E-01
CGA:   5    -0.390420406836E+03   -0.31953E-01   -0.31851E-01  8528   0.231E+00-0.615E-02
CGA:   6    -0.390426699686E+03   -0.62928E-02   -0.62206E-02  8528   0.313E+00 0.617E-03
CGA:   7    -0.390440255821E+03   -0.13556E-01   -0.13556E-01  8528   0.987E-01 0.970E-04
CGA:   8    -0.390445826988E+03   -0.55712E-02   -0.55617E-02  8528   0.143E+00 0.563E-03
CGA:   9    -0.390448184256E+03   -0.23573E-02   -0.23940E-02  8528   0.335E-01-0.154E-02
CGA:  10    -0.390449461017E+03   -0.12768E-02   -0.12746E-02  8528   0.142E-01-0.166E-03
CGA:  11    -0.390449940824E+03   -0.47981E-03   -0.48031E-03  8528   0.217E-01 0.152E-04
CGA:  12    -0.390450644037E+03   -0.70321E-03   -0.70393E-03  8528   0.993E-02 0.124E-04
CGA:  13    -0.390451130029E+03   -0.48599E-03   -0.48576E-03  8528   0.850E-02 0.232E-04
CGA:  14    -0.390451279847E+03   -0.14982E-03   -0.14925E-03  8528   0.297E-02 0.169E-04
CGA:  15    -0.390451379446E+03   -0.99600E-04   -0.99645E-04  8528   0.159E-02 0.269E-05
CGA:  16    -0.390451467897E+03   -0.88451E-04   -0.88455E-04  8528   0.327E-02 0.180E-06
CGA:  17    -0.390451544234E+03   -0.76336E-04   -0.76575E-04  8528   0.144E-02 0.253E-05
CGA:  18    -0.390451611504E+03   -0.67270E-04   -0.67242E-04  8528   0.104E-02 0.428E-05
CGA:  19    -0.390451639060E+03   -0.27556E-04   -0.27591E-04  8528   0.758E-03 0.218E-05
CGA:  20    -0.390451656876E+03   -0.17817E-04   -0.17821E-04  8528   0.318E-03 0.326E-07
CGA:  21    -0.390451688164E+03   -0.31287E-04   -0.31204E-04  8528   0.803E-03 0.118E-05
CGA:  22    -0.390451703505E+03   -0.15342E-04   -0.15308E-04  8528   0.374E-03-0.514E-06
CGA:  23    -0.390451728882E+03   -0.25376E-04   -0.25400E-04  8528   0.273E-03-0.115E-05
CGA:  24    -0.390451734646E+03   -0.57648E-05   -0.57586E-05  8528   0.218E-03-0.428E-06
CGA:  25    -0.390451746303E+03   -0.11656E-04   -0.11641E-04  8528   0.202E-03 0.110E-05
CGA:  26    -0.390451757184E+03   -0.10881E-04   -0.10899E-04  8528   0.377E-03-0.149E-05
CGA:  27    -0.390451765136E+03   -0.79518E-05   -0.79418E-05  8528   0.122E-03-0.556E-06
 149 F= -.39045177E+03 E0= -.39043161E+03  d E =0.375572E-03  mag=     3.4088
       N       E                     dE             d eps       ncg     rms          ort
SDA:   1    -0.390364652323E+03    0.87105E-01    0.00000E+00  8528   0.133E+01 0.000E+00
CGA:   2    -0.390380838572E+03   -0.16186E-01   -0.15324E-01  8528   0.301E+00 0.584E-01
CGA:   3    -0.390396047172E+03   -0.15209E-01   -0.15256E-01  8528   0.382E+00-0.387E-02
CGA:   4    -0.390422599805E+03   -0.26553E-01   -0.26536E-01  8528   0.759E+00 0.599E-03
CGA:   5    -0.390434927243E+03   -0.12327E-01   -0.12136E-01  8528   0.237E+00 0.806E-02
CGA:   6    -0.390441867269E+03   -0.69400E-02   -0.70484E-02  8528   0.649E-01 0.110E-02
CGA:   7    -0.390444670215E+03   -0.28029E-02   -0.28015E-02  8528   0.121E+00 0.323E-03
CGA:   8    -0.390447325549E+03   -0.26553E-02   -0.26467E-02  8528   0.546E-01 0.138E-03
CGA:   9    -0.390449941752E+03   -0.26162E-02   -0.26159E-02  8528   0.248E-01 0.221E-04
CGA:  10    -0.390450622266E+03   -0.68051E-03   -0.68144E-03  8528   0.242E-01 0.562E-05
CGA:  11    -0.390451071645E+03   -0.44938E-03   -0.45140E-03  8528   0.400E-02-0.591E-04
CGA:  12    -0.390451358395E+03   -0.28675E-03   -0.28609E-03  8528   0.621E-02 0.205E-04
CGA:  13    -0.390451553257E+03   -0.19486E-03   -0.19504E-03  8528   0.731E-02 0.425E-05
CGA:  14    -0.390451716408E+03   -0.16315E-03   -0.16287E-03  8528   0.255E-02 0.446E-05
CGA:  15    -0.390451817618E+03   -0.10121E-03   -0.10122E-03  8528   0.532E-03-0.305E-05
CGA:  16    -0.390451835358E+03   -0.17740E-04   -0.17745E-04  8528   0.974E-03 0.889E-06
CGA:  17    -0.390451869929E+03   -0.34571E-04   -0.34573E-04  8528   0.715E-03 0.399E-06
CGA:  18    -0.390451913367E+03   -0.43438E-04   -0.43343E-04  8528   0.280E-03 0.421E-05
CGA:  19    -0.390451922742E+03   -0.93746E-05   -0.93743E-05  8528   0.376E-03-0.101E-06
 150 F= -.39045192E+03 E0= -.39043183E+03  d E =-.157606E-03  mag=     3.4056
