       N       E                     dE             d eps       ncg     rms          ort
DAV:   1     0.641856670759E+04    0.64186E+04   -0.31710E+05  8320   0.178E+03
DAV:   2     0.363722338110E+03   -0.60548E+04   -0.56666E+04  8320   0.513E+02
DAV:   3    -0.287779468784E+03   -0.65150E+03   -0.63134E+03  8320   0.189E+02
DAV:   4    -0.307541980418E+03   -0.19763E+02   -0.19591E+02  8320   0.355E+01
DAV:   5    -0.307995266875E+03   -0.45329E+00   -0.45094E+00  8320   0.523E+00
SDA:   6     0.103470141301E+03    0.41147E+03   -0.45094E+00  8320   0.298E+04 0.000E+00
CGA:   7     0.256414320890E+02   -0.77829E+02   -0.14043E+03  8320   0.831E+04-0.104E+04
CGA:   8     0.230328905406E+03    0.20469E+03   -0.19247E+03  8320   0.242E+05-0.480E+04
CGA:   9     0.155874614224E+04    0.13284E+04   -0.15405E+04  8320   0.332E+05-0.961E+04
CGA:  10     0.166514797076E+03   -0.13922E+04   -0.49795E+03  8320   0.162E+05-0.131E+05
CGA:  11     0.292706753628E+03    0.12619E+03   -0.47391E+03  8320   0.176E+05-0.988E+04
CGA:  12     0.840076041318E+03    0.54737E+03   -0.78415E+03  8320   0.407E+05-0.265E+05
CGA:  13     0.263133925870E+04    0.17913E+04   -0.21504E+04  8320   0.158E+06-0.576E+05
CGA:  14     0.207960873217E+04   -0.55173E+03   -0.98130E+04  8320   0.624E+05-0.600E+05
CGA:  15     0.785031433618E+03   -0.12946E+04   -0.18189E+04  8320   0.171E+05-0.578E+04
CGA:  16     0.404793891890E+03   -0.38024E+03   -0.76234E+03  8320   0.388E+05-0.234E+05
CGA:  17     0.149706555239E+04    0.10923E+04   -0.20160E+04  8320   0.105E+06-0.480E+05
CGA:  18     0.251285403966E+04    0.10158E+04   -0.58227E+04  8320   0.685E+05-0.277E+05
CGA:  19     0.860949678723E+03   -0.16519E+04   -0.19649E+04  8320   0.210E+05 0.854E+04
CGA:  20     0.871895061765E+03    0.10945E+02   -0.90756E+03  8320   0.633E+05-0.409E+05
CGA:  21     0.248852432713E+04    0.16166E+04   -0.29745E+04  8320   0.124E+06-0.632E+05
CGA:  22     0.179400835891E+04   -0.69452E+03   -0.59309E+04  8320   0.167E+05-0.830E+04
CGA:  23     0.570253292624E+03   -0.12238E+04   -0.42127E+03  8320   0.391E+05 0.450E+05
CGA:  24     0.108095599325E+04    0.51070E+03   -0.14438E+04  8320   0.779E+05-0.568E+05
CGA:  25     0.170943129258E+04    0.62848E+03   -0.33785E+04  8320   0.243E+05-0.113E+05
CGA:  26     0.334553609832E+03   -0.13749E+04   -0.59247E+03  8320   0.210E+05-0.202E+05
CGA:  27     0.714654198190E+03    0.38010E+03   -0.55117E+03  8320   0.738E+05-0.545E+05
CGA:  28     0.134404611952E+04    0.62939E+03   -0.31544E+04  8320   0.156E+05-0.860E+04
CGA:  29     0.157719386777E+03   -0.11863E+04   -0.27292E+03  8320   0.101E+05 0.162E+05
CGA:  30    -0.144182209039E+03   -0.30190E+03   -0.13637E+03  8320   0.245E+04 0.587E+04
CGA:  31    -0.191579908489E+03   -0.47398E+02   -0.31541E+02  8320   0.969E+03-0.999E+03
CGA:  32    -0.194064910360E+03   -0.24850E+01   -0.91776E+01  8320   0.641E+03-0.314E+03
CGA:  33    -0.193982429095E+03    0.82481E-01   -0.53468E+01  8320   0.116E+04-0.666E+03
CGA:  34    -0.201776833625E+03   -0.77944E+01   -0.10665E+02  8320   0.310E+03-0.256E+03
CGA:  35    -0.202516948200E+03   -0.74011E+00   -0.36665E+01  8320   0.338E+03-0.253E+03
CGA:  36    -0.201700083096E+03    0.81687E+00   -0.55028E+01  8320   0.515E+03-0.266E+03
CGA:  37    -0.202333374805E+03   -0.63329E+00   -0.58043E+01  8320   0.696E+03-0.635E+03
CGA:  38    -0.201621654055E+03    0.71172E+00   -0.82994E+01  8320   0.728E+03-0.593E+03
CGA:  39    -0.203669893669E+03   -0.20482E+01   -0.73547E+01  8320   0.557E+03-0.656E+03
CGA:  40    -0.204359913412E+03   -0.69002E+00   -0.60366E+01  8320   0.433E+03-0.424E+03
CGA:  41    -0.206604763090E+03   -0.22448E+01   -0.36379E+01  8320   0.116E+03-0.198E+03
CGA:  42    -0.207777430482E+03   -0.11727E+01   -0.12959E+01  8320   0.420E+02-0.328E+01
CGA:  43    -0.208425961828E+03   -0.64853E+00   -0.83944E+00  8320   0.678E+02-0.654E+01
CGA:  44    -0.211330675562E+03   -0.29047E+01   -0.28814E+01  8320   0.187E+03-0.319E+02
CGA:  45    -0.212422542659E+03   -0.10919E+01   -0.24830E+01  8320   0.222E+03 0.131E+02
CGA:  46    -0.213216102818E+03   -0.79356E+00   -0.21818E+01  8320   0.120E+03-0.188E+03
CGA:  47    -0.214132326727E+03   -0.91622E+00   -0.14140E+01  8320   0.559E+02-0.348E+02
CGA:  48    -0.215060044032E+03   -0.92772E+00   -0.10115E+01  8320   0.268E+02-0.111E+01
CGA:  49    -0.215932212815E+03   -0.87217E+00   -0.95120E+00  8320   0.217E+02 0.303E+01
CGA:  50    -0.216579862235E+03   -0.64765E+00   -0.73027E+00  8320   0.854E+01 0.751E+00
CGA:  51    -0.216917544702E+03   -0.33768E+00   -0.33552E+00  8320   0.109E+02-0.129E+00
CGA:  52    -0.217393187292E+03   -0.47564E+00   -0.47437E+00  8320   0.780E+01 0.810E+00
CGA:  53    -0.217845783812E+03   -0.45260E+00   -0.43561E+00  8320   0.550E+01 0.118E+01
CGA:  54    -0.218070835067E+03   -0.22505E+00   -0.22666E+00  8320   0.507E+01 0.839E-01
CGA:  55    -0.218486211768E+03   -0.41538E+00   -0.41156E+00  8320   0.459E+01 0.116E+00
CGA:  56    -0.218681688322E+03   -0.19548E+00   -0.19741E+00  8320   0.359E+01 0.277E+00
CGA:  57    -0.218861658153E+03   -0.17997E+00   -0.17853E+00  8320   0.219E+01 0.393E+00
CGA:  58    -0.219028851020E+03   -0.16719E+00   -0.17266E+00  8320   0.297E+01-0.163E+00
CGA:  59    -0.219144273628E+03   -0.11542E+00   -0.11668E+00  8320   0.880E+00 0.133E+00
CGA:  60    -0.219227051198E+03   -0.82778E-01   -0.77559E-01  8320   0.416E+00 0.122E+00
CGA:  61    -0.219308140060E+03   -0.81089E-01   -0.79102E-01  8320   0.554E+00 0.150E-01
CGA:  62    -0.219372704513E+03   -0.64564E-01   -0.61787E-01  8320   0.582E+00 0.478E-01
CGA:  63    -0.219416722007E+03   -0.44017E-01   -0.43231E-01  8320   0.423E+00 0.442E-01
CGA:  64    -0.219455609915E+03   -0.38888E-01   -0.41430E-01  8320   0.404E+00-0.659E-01
CGA:  65    -0.219485437629E+03   -0.29828E-01   -0.29830E-01  8320   0.248E+00-0.362E-03
CGA:  66    -0.219509772166E+03   -0.24335E-01   -0.24229E-01  8320   0.203E+00 0.259E-02
CGA:  67    -0.219530866890E+03   -0.21095E-01   -0.20519E-01  8320   0.139E+00 0.127E-01
CGA:  68    -0.219545441334E+03   -0.14574E-01   -0.15491E-01  8320   0.200E+00-0.196E-01
CGA:  69    -0.219558269129E+03   -0.12828E-01   -0.12886E-01  8320   0.173E+00-0.401E-02
CGA:  70    -0.219571561134E+03   -0.13292E-01   -0.13346E-01  8320   0.136E+00-0.304E-02
CGA:  71    -0.219579202915E+03   -0.76418E-02   -0.75667E-02  8320   0.124E+00-0.210E-02
CGA:  72    -0.219590061405E+03   -0.10858E-01   -0.10922E-01  8320   0.121E+00-0.381E-02
CGA:  73    -0.219596428770E+03   -0.63674E-02   -0.58291E-02  8320   0.160E+00-0.264E-02
CGA:  74    -0.219603541430E+03   -0.71127E-02   -0.76349E-02  8320   0.144E+00 0.479E-02
CGA:  75    -0.219608012729E+03   -0.44713E-02   -0.38492E-02  8320   0.102E+00 0.157E-01
CGA:  76    -0.219614252291E+03   -0.62396E-02   -0.60682E-02  8320   0.138E+00-0.485E-02
SDA:  77    -0.219617035398E+03   -0.27831E-02   -0.23223E-02  8320   0.130E+00 0.215E-01
CGA:  78    -0.219621925410E+03   -0.48900E-02   -0.48885E-02  8320   0.801E-01 0.189E-04
CGA:  79    -0.219624858400E+03   -0.29330E-02   -0.29624E-02  8320   0.102E+00-0.157E-03
CGA:  80    -0.219636708584E+03   -0.11850E-01   -0.12842E-01  8320   0.160E+00-0.178E-01
CGA:  81    -0.219641497866E+03   -0.47893E-02   -0.49870E-02  8320   0.159E+00-0.112E-02
CGA:  82    -0.219648185089E+03   -0.66872E-02   -0.60517E-02  8320   0.134E+00 0.102E-02
CGA:  83    -0.219653352445E+03   -0.51674E-02   -0.48221E-02  8320   0.107E+00 0.357E-02
CGA:  84    -0.219657888254E+03   -0.45358E-02   -0.47100E-02  8320   0.546E-01 0.133E-02
CGA:  85    -0.219658958234E+03   -0.10700E-02   -0.10261E-02  8320   0.238E-01 0.178E-02
CGA:  86    -0.219660283705E+03   -0.13255E-02   -0.13273E-02  8320   0.154E-01 0.430E-03
CGA:  87    -0.219660911685E+03   -0.62798E-03   -0.62551E-03  8320   0.276E-01-0.806E-05
CGA:  88    -0.219661909732E+03   -0.99805E-03   -0.10153E-02  8320   0.714E-02 0.445E-04
CGA:  89    -0.219662491752E+03   -0.58202E-03   -0.58762E-03  8320   0.114E-01-0.166E-03
CGA:  90    -0.219662733841E+03   -0.24209E-03   -0.25394E-03  8320   0.742E-02-0.314E-03
CGA:  91    -0.219663135455E+03   -0.40161E-03   -0.40174E-03  8320   0.582E-02-0.307E-04
CGA:  92    -0.219663461533E+03   -0.32608E-03   -0.32533E-03  8320   0.930E-02 0.195E-03
CGA:  93    -0.219663696699E+03   -0.23517E-03   -0.22555E-03  8320   0.399E-02 0.274E-03
CGA:  94    -0.219664053620E+03   -0.35692E-03   -0.35149E-03  8320   0.437E-02 0.139E-03
CGA:  95    -0.219664215374E+03   -0.16175E-03   -0.15923E-03  8320   0.685E-02 0.995E-05
CGA:  96    -0.219664570931E+03   -0.35556E-03   -0.35601E-03  8320   0.307E-02 0.157E-03
CGA:  97    -0.219664737531E+03   -0.16660E-03   -0.16660E-03  8320   0.356E-02-0.822E-05
CGA:  98    -0.219664809955E+03   -0.72424E-04   -0.70777E-04  8320   0.181E-02 0.587E-04
CGA:  99    -0.219664902794E+03   -0.92840E-04   -0.92854E-04  8320   0.134E-02 0.618E-05
CGA: 100    -0.219664948937E+03   -0.46142E-04   -0.46393E-04  8320   0.219E-02-0.132E-05
CGA: 101    -0.219665027007E+03   -0.78070E-04   -0.77503E-04  8320   0.690E-03-0.621E-05
CGA: 102    -0.219665068796E+03   -0.41790E-04   -0.41913E-04  8320   0.197E-02-0.903E-05
CGA: 103    -0.219665119966E+03   -0.51170E-04   -0.51752E-04  8320   0.769E-03-0.161E-04
CGA: 104    -0.219665171384E+03   -0.51418E-04   -0.51118E-04  8320   0.146E-02 0.127E-04
CGA: 105    -0.219665203196E+03   -0.31812E-04   -0.31098E-04  8320   0.766E-03 0.141E-04
CGA: 106    -0.219665242997E+03   -0.39801E-04   -0.39903E-04  8320   0.531E-03-0.232E-04
CGA: 107    -0.219665260189E+03   -0.17192E-04   -0.17196E-04  8320   0.781E-03-0.274E-05
SDA: 108    -0.219665287629E+03   -0.27440E-04   -0.27142E-04  8320   0.360E-03-0.766E-05
CGA: 109    -0.219665322330E+03   -0.34701E-04   -0.34706E-04  8320   0.243E-03-0.249E-06
CGA: 110    -0.219665353896E+03   -0.31567E-04   -0.31378E-04  8320   0.338E-03 0.235E-05
CGA: 111    -0.219665376412E+03   -0.22516E-04   -0.22513E-04  8320   0.209E-03 0.574E-06
CGA: 112    -0.219665385482E+03   -0.90700E-05   -0.90734E-05  8320   0.355E-03 0.565E-06
CGA: 113    -0.219665396181E+03   -0.10699E-04   -0.10762E-04  8320   0.849E-04 0.177E-06
CGA: 114    -0.219665407806E+03   -0.11625E-04   -0.11572E-04  8320   0.535E-04 0.468E-06
CGA: 115    -0.219665413359E+03   -0.55535E-05   -0.55359E-05  8320   0.110E-03 0.210E-06
   1 F= -.21966541E+03 E0= -.21964707E+03  d E =-.219665E+03  mag=     9.4760
       N       E                     dE             d eps       ncg     rms          ort
SDA:   1    -0.214621680975E+03    0.50437E+01    0.00000E+00  8320   0.305E+03 0.000E+00
CGA:   2    -0.219118730282E+03   -0.44970E+01   -0.70474E+01  8320   0.447E+02-0.121E+03
CGA:   3    -0.219857185565E+03   -0.73846E+00   -0.67622E+00  8320   0.666E+00 0.149E+01
CGA:   4    -0.219883043577E+03   -0.25858E-01   -0.23634E-01  8320   0.209E+00 0.965E-02
CGA:   5    -0.219888682286E+03   -0.56387E-02   -0.56383E-02  8320   0.147E+00-0.129E-04
CGA:   6    -0.219894402127E+03   -0.57198E-02   -0.57058E-02  8320   0.738E-01-0.168E-03
CGA:   7    -0.219898638081E+03   -0.42360E-02   -0.42348E-02  8320   0.595E-01 0.116E-03
CGA:   8    -0.219899832008E+03   -0.11939E-02   -0.11801E-02  8320   0.226E-01 0.518E-03
CGA:   9    -0.219901277725E+03   -0.14457E-02   -0.14455E-02  8320   0.193E-01 0.115E-04
CGA:  10    -0.219901942943E+03   -0.66522E-03   -0.66612E-03  8320   0.101E-01 0.671E-06
CGA:  11    -0.219902154787E+03   -0.21184E-03   -0.21296E-03  8320   0.401E-02-0.408E-04
CGA:  12    -0.219902524306E+03   -0.36952E-03   -0.36979E-03  8320   0.498E-02-0.619E-05
CGA:  13    -0.219902662543E+03   -0.13824E-03   -0.13811E-03  8320   0.369E-02-0.454E-05
CGA:  14    -0.219902789024E+03   -0.12648E-03   -0.12635E-03  8320   0.124E-02-0.311E-05
CGA:  15    -0.219902836365E+03   -0.47341E-04   -0.47350E-04  8320   0.703E-03-0.622E-06
CGA:  16    -0.219902858034E+03   -0.21669E-04   -0.21697E-04  8320   0.757E-03 0.274E-06
CGA:  17    -0.219902905662E+03   -0.47628E-04   -0.47637E-04  8320   0.376E-03-0.355E-06
CGA:  18    -0.219902919197E+03   -0.13534E-04   -0.13541E-04  8320   0.420E-03 0.587E-06
CGA:  19    -0.219902933233E+03   -0.14036E-04   -0.14035E-04  8320   0.189E-03 0.295E-06
CGA:  20    -0.219902941161E+03   -0.79281E-05   -0.79328E-05  8320   0.108E-03 0.761E-06
   2 F= -.21990294E+03 E0= -.21988455E+03  d E =-.237528E+00  mag=     9.4759
       N       E                     dE             d eps       ncg     rms          ort
SDA:   1    -0.219277783452E+03    0.62515E+00    0.00000E+00  8320   0.185E+02 0.000E+00
CGA:   2    -0.219895686399E+03   -0.61790E+00   -0.59818E+00  8320   0.351E+02-0.388E+00
CGA:   3    -0.222832230600E+03   -0.29365E+01   -0.29277E+01  8320   0.130E+02 0.202E+00
CGA:   4    -0.223135750709E+03   -0.30352E+00   -0.31202E+00  8320   0.829E+01-0.235E+00
CGA:   5    -0.223402292015E+03   -0.26654E+00   -0.23956E+00  8320   0.455E+01 0.105E+00
CGA:   6    -0.223845477542E+03   -0.44319E+00   -0.44291E+00  8320   0.280E+01 0.797E-02
CGA:   7    -0.223941230882E+03   -0.95753E-01   -0.98272E-01  8320   0.366E+01 0.227E-01
CGA:   8    -0.224058566878E+03   -0.11734E+00   -0.11480E+00  8320   0.409E+00 0.149E-02
CGA:   9    -0.224103583592E+03   -0.45017E-01   -0.44622E-01  8320   0.297E+00 0.682E-02
CGA:  10    -0.224134833691E+03   -0.31250E-01   -0.31193E-01  8320   0.330E+00 0.106E-02
CGA:  11    -0.224141241996E+03   -0.64083E-02   -0.63121E-02  8320   0.147E+00 0.362E-02
CGA:  12    -0.224148434857E+03   -0.71929E-02   -0.71955E-02  8320   0.891E-01 0.551E-03
CGA:  13    -0.224156183605E+03   -0.77487E-02   -0.77356E-02  8320   0.554E-01 0.327E-03
CGA:  14    -0.224160542564E+03   -0.43590E-02   -0.43580E-02  8320   0.886E-01 0.457E-04
CGA:  15    -0.224162259746E+03   -0.17172E-02   -0.17685E-02  8320   0.367E-01-0.175E-02
CGA:  16    -0.224166193282E+03   -0.39335E-02   -0.39312E-02  8320   0.142E-01 0.412E-04
CGA:  17    -0.224167319143E+03   -0.11259E-02   -0.11222E-02  8320   0.377E-01 0.127E-03
CGA:  18    -0.224168267023E+03   -0.94788E-03   -0.94833E-03  8320   0.141E-01 0.316E-04
CGA:  19    -0.224169202085E+03   -0.93506E-03   -0.93492E-03  8320   0.104E-01 0.155E-04
CGA:  20    -0.224169823446E+03   -0.62136E-03   -0.62131E-03  8320   0.110E-01 0.124E-04
CGA:  21    -0.224170034279E+03   -0.21083E-03   -0.21276E-03  8320   0.382E-02-0.624E-04
CGA:  22    -0.224170438724E+03   -0.40445E-03   -0.40393E-03  8320   0.294E-02 0.942E-05
CGA:  23    -0.224170590292E+03   -0.15157E-03   -0.15162E-03  8320   0.591E-02 0.663E-05
CGA:  24    -0.224170762694E+03   -0.17240E-03   -0.17245E-03  8320   0.116E-02 0.874E-05
CGA:  25    -0.224170899997E+03   -0.13730E-03   -0.13697E-03  8320   0.186E-02 0.523E-05
CGA:  26    -0.224170943019E+03   -0.43022E-04   -0.43056E-04  8320   0.105E-02 0.283E-05
CGA:  27    -0.224170985395E+03   -0.42376E-04   -0.42413E-04  8320   0.469E-03 0.126E-05
CGA:  28    -0.224171022515E+03   -0.37120E-04   -0.37090E-04  8320   0.491E-03 0.139E-05
CGA:  29    -0.224171035175E+03   -0.12660E-04   -0.12677E-04  8320   0.440E-03 0.646E-07
CGA:  30    -0.224171068830E+03   -0.33655E-04   -0.33631E-04  8320   0.144E-03 0.104E-05
CGA:  31    -0.224171075744E+03   -0.69138E-05   -0.69053E-05  8320   0.213E-03-0.103E-05
   3 F= -.22417108E+03 E0= -.22415302E+03  d E =-.426813E+01  mag=     9.4748
       N       E                     dE             d eps       ncg     rms          ort
SDA:   1    -0.216554283635E+03    0.76168E+01    0.00000E+00  8320   0.283E+02 0.000E+00
CGA:   2    -0.219403893096E+03   -0.28496E+01   -0.42136E+00  8320   0.555E+03-0.631E+02
CGA:   3    -0.221953566120E+03   -0.25497E+01   -0.22472E+02  8320   0.232E+03-0.102E+03
CGA:   4    -0.224114152281E+03   -0.21606E+01   -0.82126E+01  8320   0.812E+02-0.126E+02
CGA:   5    -0.225474897398E+03   -0.13607E+01   -0.18343E+01  8320   0.347E+02-0.305E+02
CGA:   6    -0.225771493075E+03   -0.29660E+00   -0.17561E+00  8320   0.268E+02 0.136E+02
CGA:   7    -0.226240971032E+03   -0.46948E+00   -0.55282E+00  8320   0.127E+02-0.589E+01
CGA:   8    -0.226333546156E+03   -0.92575E-01   -0.92654E-01  8320   0.573E+01-0.128E-01
CGA:   9    -0.226408441669E+03   -0.74896E-01   -0.13119E+00  8320   0.120E+02-0.191E+01
CGA:  10    -0.226508549480E+03   -0.10011E+00   -0.76419E-01  8320   0.109E+02 0.242E+01
CGA:  11    -0.226631699283E+03   -0.12315E+00   -0.16706E+00  8320   0.574E+01-0.383E+01
CGA:  12    -0.226691719426E+03   -0.60020E-01   -0.52227E-01  8320   0.770E+01 0.467E+00
CGA:  13    -0.226849713251E+03   -0.15799E+00   -0.18685E+00  8320   0.427E+01-0.936E+00
CGA:  14    -0.226886791514E+03   -0.37078E-01   -0.53743E-01  8320   0.278E+01-0.101E+01
CGA:  15    -0.226957752432E+03   -0.70961E-01   -0.73807E-01  8320   0.229E+01-0.254E-01
CGA:  16    -0.226989835725E+03   -0.32083E-01   -0.29725E-01  8320   0.733E+00 0.145E+00
CGA:  17    -0.227013101827E+03   -0.23266E-01   -0.21950E-01  8320   0.112E+01 0.249E-01
CGA:  18    -0.227035777110E+03   -0.22675E-01   -0.24200E-01  8320   0.557E+00-0.480E-01
CGA:  19    -0.227053060329E+03   -0.17283E-01   -0.17927E-01  8320   0.106E+01-0.394E-02
CGA:  20    -0.227076430587E+03   -0.23370E-01   -0.23426E-01  8320   0.284E+00-0.113E-02
CGA:  21    -0.227083039359E+03   -0.66088E-02   -0.64350E-02  8320   0.312E+00 0.462E-02
CGA:  22    -0.227092160114E+03   -0.91208E-02   -0.92631E-02  8320   0.135E+00-0.143E-02
CGA:  23    -0.227095215968E+03   -0.30559E-02   -0.31333E-02  8320   0.156E+00-0.169E-02
CGA:  24    -0.227100371350E+03   -0.51554E-02   -0.51732E-02  8320   0.711E-01 0.112E-03
CGA:  25    -0.227101988510E+03   -0.16172E-02   -0.15889E-02  8320   0.817E-01 0.737E-03
CGA:  26    -0.227105844843E+03   -0.38563E-02   -0.38559E-02  8320   0.742E-01 0.563E-03
CGA:  27    -0.227107393845E+03   -0.15490E-02   -0.15929E-02  8320   0.720E-01-0.112E-02
CGA:  28    -0.227110404163E+03   -0.30103E-02   -0.30136E-02  8320   0.456E-01 0.611E-03
CGA:  29    -0.227111554129E+03   -0.11500E-02   -0.11424E-02  8320   0.565E-01 0.163E-03
CGA:  30    -0.227114092013E+03   -0.25379E-02   -0.25369E-02  8320   0.284E-01 0.712E-03
CGA:  31    -0.227114579276E+03   -0.48726E-03   -0.49677E-03  8320   0.171E-01-0.343E-03
CGA:  32    -0.227115373145E+03   -0.79387E-03   -0.79323E-03  8320   0.135E-01 0.988E-04
SDA:  33    -0.227115763551E+03   -0.39041E-03   -0.38986E-03  8320   0.191E-01 0.136E-04
CGA:  34    -0.227116057838E+03   -0.29429E-03   -0.29518E-03  8320   0.523E-02-0.428E-04
CGA:  35    -0.227116284651E+03   -0.22681E-03   -0.22685E-03  8320   0.401E-02-0.713E-05
CGA:  36    -0.227116974275E+03   -0.68962E-03   -0.69011E-03  8320   0.345E-02-0.682E-05
CGA:  37    -0.227117367531E+03   -0.39326E-03   -0.39361E-03  8320   0.227E-02-0.619E-05
CGA:  38    -0.227117677364E+03   -0.30983E-03   -0.30878E-03  8320   0.232E-02 0.128E-04
CGA:  39    -0.227117745351E+03   -0.67987E-04   -0.67978E-04  8320   0.270E-02 0.251E-05
CGA:  40    -0.227117879172E+03   -0.13382E-03   -0.13384E-03  8320   0.995E-03 0.280E-05
CGA:  41    -0.227117976214E+03   -0.97042E-04   -0.97065E-04  8320   0.132E-02-0.514E-06
CGA:  42    -0.227118080876E+03   -0.10466E-03   -0.10469E-03  8320   0.685E-03-0.143E-05
CGA:  43    -0.227118099570E+03   -0.18694E-04   -0.18715E-04  8320   0.740E-03-0.997E-06
CGA:  44    -0.227118143110E+03   -0.43540E-04   -0.43540E-04  8320   0.431E-03 0.174E-06
CGA:  45    -0.227118215056E+03   -0.71947E-04   -0.71774E-04  8320   0.252E-03 0.156E-05
CGA:  46    -0.227118238236E+03   -0.23179E-04   -0.23217E-04  8320   0.420E-03-0.122E-05
CGA:  47    -0.227118247798E+03   -0.95627E-05   -0.95485E-05  8320   0.275E-03-0.104E-05
CGA:  48    -0.227118272185E+03   -0.24386E-04   -0.24402E-04  8320   0.227E-03-0.608E-06
CGA:  49    -0.227118287357E+03   -0.15173E-04   -0.15171E-04  8320   0.148E-03 0.411E-06
CGA:  50    -0.227118307968E+03   -0.20611E-04   -0.20451E-04  8320   0.126E-03 0.210E-05
CGA:  51    -0.227118312064E+03   -0.40958E-05   -0.41096E-05  8320   0.177E-03 0.489E-06
   4 F= -.22711831E+03 E0= -.22710072E+03  d E =-.294724E+01  mag=     9.4618
       N       E                     dE             d eps       ncg     rms          ort
SDA:   1    -0.217315479505E+03    0.98028E+01    0.00000E+00  8320   0.317E+02 0.000E+00
CGA:   2    -0.221814419041E+03   -0.44989E+01   -0.41586E+01  8320   0.863E+02 0.444E+01
CGA:   3    -0.224637680667E+03   -0.28233E+01   -0.26162E+01  8320   0.536E+02-0.223E+02
CGA:   4    -0.226446045842E+03   -0.18084E+01   -0.18782E+01  8320   0.139E+02 0.440E+00
CGA:   5    -0.227226477391E+03   -0.78043E+00   -0.78662E+00  8320   0.101E+02 0.282E+00
CGA:   6    -0.227614984795E+03   -0.38851E+00   -0.37638E+00  8320   0.162E+02 0.171E-01
CGA:   7    -0.228065166053E+03   -0.45018E+00   -0.49815E+00  8320   0.386E+01-0.721E+00
CGA:   8    -0.228218381056E+03   -0.15322E+00   -0.15683E+00  8320   0.347E+01 0.132E-01
CGA:   9    -0.228285268315E+03   -0.66887E-01   -0.55887E-01  8320   0.875E+00 0.550E+00
CGA:  10    -0.228347706501E+03   -0.62438E-01   -0.62478E-01  8320   0.221E+01-0.563E-02
CGA:  11    -0.228389164486E+03   -0.41458E-01   -0.45562E-01  8320   0.108E+01-0.142E+00
CGA:  12    -0.228420051956E+03   -0.30887E-01   -0.31501E-01  8320   0.937E+00-0.580E-02
CGA:  13    -0.228434469978E+03   -0.14418E-01   -0.12744E-01  8320   0.214E+00 0.102E+00
CGA:  14    -0.228442201756E+03   -0.77318E-02   -0.76732E-02  8320   0.523E+00 0.117E-02
CGA:  15    -0.228458868256E+03   -0.16666E-01   -0.16715E-01  8320   0.435E+00-0.697E-04
CGA:  16    -0.228464240436E+03   -0.53722E-02   -0.58050E-02  8320   0.191E+00-0.265E-01
CGA:  17    -0.228471019244E+03   -0.67788E-02   -0.68038E-02  8320   0.321E+00 0.561E-03
CGA:  18    -0.228476268681E+03   -0.52494E-02   -0.51058E-02  8320   0.868E-01 0.700E-02
CGA:  19    -0.228478747800E+03   -0.24791E-02   -0.24774E-02  8320   0.141E+00 0.509E-04
CGA:  20    -0.228482457218E+03   -0.37094E-02   -0.37191E-02  8320   0.792E-01-0.383E-04
CGA:  21    -0.228484099437E+03   -0.16422E-02   -0.16578E-02  8320   0.846E-01-0.372E-03
CGA:  22    -0.228486931232E+03   -0.28318E-02   -0.28342E-02  8320   0.624E-01 0.960E-04
CGA:  23    -0.228487915351E+03   -0.98412E-03   -0.97023E-03  8320   0.379E-01 0.683E-03
CGA:  24    -0.228489576755E+03   -0.16614E-02   -0.16614E-02  8320   0.596E-01 0.516E-05
CGA:  25    -0.228490471632E+03   -0.89488E-03   -0.91473E-03  8320   0.211E-01-0.899E-03
CGA:  26    -0.228491290685E+03   -0.81905E-03   -0.81916E-03  8320   0.450E-01 0.477E-04
CGA:  27    -0.228492237790E+03   -0.94710E-03   -0.94568E-03  8320   0.116E-01 0.617E-04
CGA:  28    -0.228492489079E+03   -0.25129E-03   -0.25102E-03  8320   0.140E-01 0.184E-04
CGA:  29    -0.228493112682E+03   -0.62360E-03   -0.62342E-03  8320   0.143E-01 0.313E-04
CGA:  30    -0.228493362103E+03   -0.24942E-03   -0.25060E-03  8320   0.937E-02-0.171E-04
CGA:  31    -0.228493719503E+03   -0.35740E-03   -0.35739E-03  8320   0.924E-02 0.245E-04
SDA:  32    -0.228493877759E+03   -0.15826E-03   -0.15766E-03  8320   0.560E-02 0.404E-04
CGA:  33    -0.228494070702E+03   -0.19294E-03   -0.19300E-03  8320   0.440E-02 0.935E-05
CGA:  34    -0.228494187673E+03   -0.11697E-03   -0.11695E-03  8320   0.267E-02-0.115E-05
CGA:  35    -0.228494372366E+03   -0.18469E-03   -0.18477E-03  8320   0.140E-02-0.234E-05
CGA:  36    -0.228494584274E+03   -0.21191E-03   -0.21179E-03  8320   0.107E-02 0.613E-06
CGA:  37    -0.228494671510E+03   -0.87235E-04   -0.87059E-04  8320   0.176E-02 0.461E-05
CGA:  38    -0.228494707327E+03   -0.35818E-04   -0.35799E-04  8320   0.659E-03 0.374E-05
CGA:  39    -0.228494774014E+03   -0.66687E-04   -0.66724E-04  8320   0.279E-03-0.688E-06
CGA:  40    -0.228494819909E+03   -0.45894E-04   -0.46394E-04  8320   0.806E-03-0.421E-05
CGA:  41    -0.228494835477E+03   -0.15568E-04   -0.15540E-04  8320   0.342E-03-0.269E-05
CGA:  42    -0.228494873606E+03   -0.38129E-04   -0.38356E-04  8320   0.189E-03-0.373E-05
CGA:  43    -0.228494884114E+03   -0.10508E-04   -0.10506E-04  8320   0.168E-03 0.979E-06
CGA:  44    -0.228494891066E+03   -0.69519E-05   -0.69725E-05  8320   0.283E-03 0.149E-05
CGA:  45    -0.228494902086E+03   -0.11020E-04   -0.11067E-04  8320   0.611E-04 0.305E-05
CGA:  46    -0.228494911843E+03   -0.97570E-05   -0.97192E-05  8320   0.910E-04 0.349E-06
   5 F= -.22849491E+03 E0= -.22847757E+03  d E =-.137660E+01  mag=     9.4466
       N       E                     dE             d eps       ncg     rms          ort
SDA:   1    -0.198546105504E+03    0.29949E+02    0.00000E+00  8320   0.109E+04 0.000E+00
CGA:   2    -0.207407713389E+03   -0.88616E+01   -0.28448E+02  8320   0.249E+03-0.104E+03
CGA:   3    -0.210758732470E+03   -0.33510E+01   -0.67098E+01  8320   0.313E+03-0.727E+02
CGA:   4    -0.213900295764E+03   -0.31416E+01   -0.57381E+01  8320   0.272E+03-0.639E+02
CGA:   5    -0.221005735039E+03   -0.71054E+01   -0.57034E+01  8320   0.599E+02 0.295E+02
CGA:   6    -0.222666237315E+03   -0.16605E+01   -0.88376E+00  8320   0.413E+02 0.611E+02
CGA:   7    -0.223469106501E+03   -0.80287E+00   -0.47176E+00  8320   0.172E+02 0.260E+02
CGA:   8    -0.224184435691E+03   -0.71533E+00   -0.66319E+00  8320   0.372E+02-0.136E+01
CGA:   9    -0.225588262739E+03   -0.14038E+01   -0.13981E+01  8320   0.824E+02-0.820E+00
CGA:  10    -0.227506920845E+03   -0.19187E+01   -0.23644E+01  8320   0.460E+02 0.404E+01
CGA:  11    -0.228177569479E+03   -0.67065E+00   -0.68947E+00  8320   0.176E+02-0.310E+01
CGA:  12    -0.228775953840E+03   -0.59838E+00   -0.38605E+00  8320   0.734E+01 0.594E+01
CGA:  13    -0.228896876705E+03   -0.12092E+00   -0.10124E+00  8320   0.537E+01 0.152E+01
CGA:  14    -0.229024735318E+03   -0.12786E+00   -0.13076E+00  8320   0.695E+01-0.598E-01
CGA:  15    -0.229086762959E+03   -0.62028E-01   -0.70811E-01  8320   0.316E+01-0.734E+00
CGA:  16    -0.229125629717E+03   -0.38867E-01   -0.40351E-01  8320   0.406E+01-0.846E-01
CGA:  17    -0.229211464901E+03   -0.85835E-01   -0.86841E-01  8320   0.521E+01-0.111E-01
CGA:  18    -0.229264574115E+03   -0.53109E-01   -0.48470E-01  8320   0.213E+01 0.395E+00
CGA:  19    -0.229297550659E+03   -0.32977E-01   -0.33180E-01  8320   0.268E+01-0.113E-01
CGA:  20    -0.229333348433E+03   -0.35798E-01   -0.35176E-01  8320   0.202E+01 0.394E-01
CGA:  21    -0.229352856355E+03   -0.19508E-01   -0.23118E-01  8320   0.105E+01-0.236E+00
CGA:  22    -0.229368601017E+03   -0.15745E-01   -0.15883E-01  8320   0.128E+01-0.328E-02
CGA:  23    -0.229389546578E+03   -0.20946E-01   -0.20851E-01  8320   0.586E+00 0.559E-02
CGA:  24    -0.229399498547E+03   -0.99520E-02   -0.96835E-02  8320   0.811E+00 0.711E-02
CGA:  25    -0.229425065569E+03   -0.25567E-01   -0.25564E-01  8320   0.117E+01 0.189E-02
CGA:  26    -0.229436739971E+03   -0.11674E-01   -0.12631E-01  8320   0.304E+00-0.626E-01
CGA:  27    -0.229444217302E+03   -0.74773E-02   -0.74907E-02  8320   0.597E+00 0.169E-02
CGA:  28    -0.229458921687E+03   -0.14704E-01   -0.14703E-01  8320   0.287E+00 0.508E-04
CGA:  29    -0.229463581926E+03   -0.46602E-02   -0.46514E-02  8320   0.269E+00 0.164E-03
CGA:  30    -0.229471765793E+03   -0.81839E-02   -0.81822E-02  8320   0.194E+00 0.500E-03
CGA:  31    -0.229474384363E+03   -0.26186E-02   -0.26308E-02  8320   0.115E+00-0.482E-03
CGA:  32    -0.229478997941E+03   -0.46136E-02   -0.45806E-02  8320   0.177E+00 0.208E-02
CGA:  33    -0.229481587534E+03   -0.25896E-02   -0.25744E-02  8320   0.893E-01 0.460E-03
CGA:  34    -0.229486214875E+03   -0.46273E-02   -0.45404E-02  8320   0.186E+00 0.359E-02
CGA:  35    -0.229488891095E+03   -0.26762E-02   -0.27258E-02  8320   0.471E-01-0.182E-02
CGA:  36    -0.229491414481E+03   -0.25234E-02   -0.25386E-02  8320   0.101E+00-0.565E-03
CGA:  37    -0.229492913552E+03   -0.14991E-02   -0.15114E-02  8320   0.222E-01-0.339E-03
SDA:  38    -0.229494007410E+03   -0.10939E-02   -0.10855E-02  8320   0.591E-01 0.378E-03
CGA:  39    -0.229494720751E+03   -0.71334E-03   -0.72200E-03  8320   0.126E-01-0.469E-03
CGA:  40    -0.229496022001E+03   -0.13013E-02   -0.12927E-02  8320   0.959E-02 0.129E-03
CGA:  41    -0.229497305053E+03   -0.12831E-02   -0.12989E-02  8320   0.447E-01-0.203E-03
CGA:  42    -0.229498091283E+03   -0.78623E-03   -0.80350E-03  8320   0.722E-02-0.468E-03
CGA:  43    -0.229498696459E+03   -0.60518E-03   -0.60626E-03  8320   0.573E-02-0.243E-04
CGA:  44    -0.229499034386E+03   -0.33793E-03   -0.33957E-03  8320   0.121E-01-0.711E-04
CGA:  45    -0.229499358725E+03   -0.32434E-03   -0.33230E-03  8320   0.884E-02 0.274E-04
CGA:  46    -0.229499960745E+03   -0.60202E-03   -0.62251E-03  8320   0.633E-02-0.636E-03
CGA:  47    -0.229500584460E+03   -0.62372E-03   -0.57673E-03  8320   0.884E-02 0.844E-03
CGA:  48    -0.229500773534E+03   -0.18907E-03   -0.18469E-03  8320   0.384E-02 0.150E-03
CGA:  49    -0.229501082249E+03   -0.30871E-03   -0.29924E-03  8320   0.280E-02 0.257E-03
CGA:  50    -0.229501239560E+03   -0.15731E-03   -0.15816E-03  8320   0.411E-02-0.620E-04
CGA:  51    -0.229501360734E+03   -0.12117E-03   -0.12322E-03  8320   0.340E-02 0.132E-04
CGA:  52    -0.229501571509E+03   -0.21078E-03   -0.21167E-03  8320   0.125E-02-0.402E-04
CGA:  53    -0.229501650810E+03   -0.79301E-04   -0.78621E-04  8320   0.150E-02 0.289E-04
CGA:  54    -0.229501685020E+03   -0.34210E-04   -0.33967E-04  8320   0.756E-03 0.556E-05
CGA:  55    -0.229501767469E+03   -0.82449E-04   -0.81614E-04  8320   0.384E-03 0.138E-04
CGA:  56    -0.229501789643E+03   -0.22174E-04   -0.22201E-04  8320   0.737E-03-0.260E-05
CGA:  57    -0.229501810379E+03   -0.20737E-04   -0.20832E-04  8320   0.290E-03-0.227E-05
CGA:  58    -0.229501828668E+03   -0.18289E-04   -0.18308E-04  8320   0.209E-03-0.113E-05
CGA:  59    -0.229501844573E+03   -0.15905E-04   -0.15874E-04  8320   0.125E-03 0.889E-06
CGA:  60    -0.229501848518E+03   -0.39445E-05   -0.39511E-05  8320   0.154E-03 0.296E-06
   6 F= -.22950185E+03 E0= -.22948454E+03  d E =-.100694E+01  mag=     9.4295
       N       E                     dE             d eps       ncg     rms          ort
SDA:   1    -0.174966583122E+03    0.54535E+02    0.00000E+00  8320   0.297E+04 0.000E+00
CGA:   2    -0.202025994780E+03   -0.27059E+02   -0.67809E+02  8320   0.302E+03-0.235E+03
CGA:   3    -0.209186642316E+03   -0.71606E+01   -0.89052E+01  8320   0.176E+03 0.166E+02
CGA:   4    -0.212311943629E+03   -0.31253E+01   -0.37760E+01  8320   0.234E+03-0.325E+02
CGA:   5    -0.215420745936E+03   -0.31088E+01   -0.32658E+01  8320   0.154E+03-0.776E+02
CGA:   6    -0.173239245333E+03    0.42182E+02   -0.12392E+02  8320   0.553E+04-0.825E+03
CGA:   7    -0.220404043089E+03   -0.47165E+02   -0.12911E+03  8320   0.118E+03-0.155E+03
CGA:   8    -0.225619273060E+03   -0.52152E+01   -0.53775E+01  8320   0.202E+03-0.273E+03
CGA:   9    -0.226962172104E+03   -0.13429E+01   -0.46452E+01  8320   0.568E+02-0.501E+02
CGA:  10    -0.228097044846E+03   -0.11349E+01   -0.63226E+00  8320   0.160E+02 0.259E+02
CGA:  11    -0.228339325766E+03   -0.24228E+00   -0.17156E+00  8320   0.591E+01 0.860E+01
CGA:  12    -0.228728309239E+03   -0.38898E+00   -0.42674E+00  8320   0.145E+02-0.133E+01
CGA:  13    -0.229201632320E+03   -0.47332E+00   -0.47104E+00  8320   0.238E+02-0.671E+00
CGA:  14    -0.229569561783E+03   -0.36793E+00   -0.37568E+00  8320   0.356E+01 0.792E+00
CGA:  15    -0.229660885811E+03   -0.91324E-01   -0.95715E-01  8320   0.239E+01 0.217E-01
CGA:  16    -0.229726361721E+03   -0.65476E-01   -0.63490E-01  8320   0.178E+01 0.114E-01
CGA:  17    -0.229804158603E+03   -0.77797E-01   -0.77119E-01  8320   0.217E+01 0.151E+00
CGA:  18    -0.229903226889E+03   -0.99068E-01   -0.99010E-01  8320   0.126E+01 0.222E-01
CGA:  19    -0.229935956770E+03   -0.32730E-01   -0.31725E-01  8320   0.123E+01 0.715E-02
CGA:  20    -0.229983730241E+03   -0.47773E-01   -0.47930E-01  8320   0.528E+00 0.598E-01
CGA:  21    -0.230025774318E+03   -0.42044E-01   -0.41766E-01  8320   0.489E+00 0.715E-02
CGA:  22    -0.230034749526E+03   -0.89752E-02   -0.88909E-02  8320   0.367E+00 0.270E-02
CGA:  23    -0.230052507889E+03   -0.17758E-01   -0.17594E-01  8320   0.166E+00 0.147E-01
CGA:  24    -0.230068881713E+03   -0.16374E-01   -0.15600E-01  8320   0.463E+00 0.152E-01
CGA:  25    -0.230078826826E+03   -0.99451E-02   -0.98839E-02  8320   0.200E+00-0.482E-02
CGA:  26    -0.230087988862E+03   -0.91620E-02   -0.91288E-02  8320   0.121E+00 0.483E-02
CGA:  27    -0.230091919525E+03   -0.39307E-02   -0.39625E-02  8320   0.125E+00 0.572E-03
CGA:  28    -0.230095944103E+03   -0.40246E-02   -0.39346E-02  8320   0.864E-01-0.139E-02
CGA:  29    -0.230100502808E+03   -0.45587E-02   -0.44838E-02  8320   0.781E-01 0.470E-02
CGA:  30    -0.230102391057E+03   -0.18882E-02   -0.18843E-02  8320   0.526E-01 0.818E-04
CGA:  31    -0.230105152921E+03   -0.27619E-02   -0.27311E-02  8320   0.424E-01 0.200E-02
CGA:  32    -0.230106553473E+03   -0.14006E-02   -0.13867E-02  8320   0.483E-01-0.254E-03
CGA:  33    -0.230108265183E+03   -0.17117E-02   -0.17195E-02  8320   0.238E-01 0.556E-03
CGA:  34    -0.230109592576E+03   -0.13274E-02   -0.13294E-02  8320   0.277E-01-0.107E-03
CGA:  35    -0.230110301715E+03   -0.70914E-03   -0.72932E-03  8320   0.233E-01-0.782E-04
CGA:  36    -0.230111511563E+03   -0.12098E-02   -0.12281E-02  8320   0.173E-01-0.110E-02
CGA:  37    -0.230112065434E+03   -0.55387E-03   -0.55945E-03  8320   0.205E-01 0.229E-03
CGA:  38    -0.230112958003E+03   -0.89257E-03   -0.89548E-03  8320   0.142E-01-0.749E-03
CGA:  39    -0.230113387393E+03   -0.42939E-03   -0.43602E-03  8320   0.113E-01 0.158E-03
CGA:  40    -0.230113876402E+03   -0.48901E-03   -0.49032E-03  8320   0.115E-01-0.305E-03
CGA:  41    -0.230114295579E+03   -0.41918E-03   -0.42157E-03  8320   0.942E-02 0.317E-03
SDA:  42    -0.230114769255E+03   -0.47368E-03   -0.48057E-03  8320   0.144E-01-0.524E-03
CGA:  43    -0.230114968693E+03   -0.19944E-03   -0.19851E-03  8320   0.383E-02 0.536E-04
CGA:  44    -0.230115280901E+03   -0.31221E-03   -0.31222E-03  8320   0.309E-02-0.372E-06
CGA:  45    -0.230115609945E+03   -0.32904E-03   -0.33006E-03  8320   0.426E-02-0.174E-04
CGA:  46    -0.230115883388E+03   -0.27344E-03   -0.27210E-03  8320   0.218E-02 0.543E-04
CGA:  47    -0.230116047551E+03   -0.16416E-03   -0.16586E-03  8320   0.768E-02-0.523E-04
CGA:  48    -0.230116254628E+03   -0.20708E-03   -0.21164E-03  8320   0.137E-02-0.425E-04
CGA:  49    -0.230116369072E+03   -0.11444E-03   -0.11300E-03  8320   0.440E-02 0.363E-04
CGA:  50    -0.230116465216E+03   -0.96144E-04   -0.93685E-04  8320   0.101E-02 0.656E-04
CGA:  51    -0.230116574301E+03   -0.10909E-03   -0.10971E-03  8320   0.172E-02-0.113E-04
CGA:  52    -0.230116617468E+03   -0.43167E-04   -0.43835E-04  8320   0.136E-02-0.126E-04
CGA:  53    -0.230116669521E+03   -0.52053E-04   -0.51829E-04  8320   0.684E-03-0.564E-05
CGA:  54    -0.230116714242E+03   -0.44720E-04   -0.44684E-04  8320   0.445E-03 0.101E-05
CGA:  55    -0.230116732825E+03   -0.18583E-04   -0.18623E-04  8320   0.911E-03 0.103E-05
CGA:  56    -0.230116778246E+03   -0.45422E-04   -0.45450E-04  8320   0.207E-03-0.158E-04
CGA:  57    -0.230116798155E+03   -0.19909E-04   -0.19825E-04  8320   0.216E-03 0.156E-05
CGA:  58    -0.230116806901E+03   -0.87463E-05   -0.87468E-05  8320   0.233E-03 0.198E-06
   7 F= -.23011681E+03 E0= -.23009940E+03  d E =-.614958E+00  mag=     9.4265
       N       E                     dE             d eps       ncg     rms          ort
SDA:   1    -0.997465328118E+02    0.13037E+03    0.00000E+00  8320   0.515E+04 0.000E+00
CGA:   2    -0.187400622977E+03   -0.87654E+02   -0.13194E+03  8320   0.122E+04-0.134E+04
CGA:   3    -0.205907077686E+03   -0.18506E+02   -0.27356E+02  8320   0.944E+02 0.132E+03
CGA:   4    -0.211824978134E+03   -0.59179E+01   -0.65109E+01  8320   0.205E+03-0.607E+02
CGA:   5    -0.215042715473E+03   -0.32177E+01   -0.42665E+01  8320   0.818E+02-0.356E+02
CGA:   6    -0.218521964286E+03   -0.34792E+01   -0.37384E+01  8320   0.178E+03-0.173E+02
CGA:   7    -0.225940132944E+03   -0.74182E+01   -0.72619E+01  8320   0.379E+02 0.205E+02
CGA:   8    -0.227716416138E+03   -0.17763E+01   -0.14474E+01  8320   0.500E+02-0.135E+01
CGA:   9    -0.228363232648E+03   -0.64682E+00   -0.52342E+00  8320   0.190E+02 0.972E+01
CGA:  10    -0.228641052052E+03   -0.27782E+00   -0.47555E+00  8320   0.250E+02-0.338E+01
CGA:  11    -0.229634140632E+03   -0.99309E+00   -0.10098E+01  8320   0.134E+02-0.197E+01
CGA:  12    -0.229849605053E+03   -0.21546E+00   -0.20824E+00  8320   0.676E+01 0.185E+00
CGA:  13    -0.230058817784E+03   -0.20921E+00   -0.22273E+00  8320   0.311E+01 0.311E+00
CGA:  14    -0.230164307217E+03   -0.10549E+00   -0.10893E+00  8320   0.388E+01 0.945E-01
CGA:  15    -0.230254989804E+03   -0.90683E-01   -0.74498E-01  8320   0.145E+01 0.674E+00
CGA:  16    -0.230299292607E+03   -0.44303E-01   -0.41226E-01  8320   0.174E+01 0.323E-01
CGA:  17    -0.230334657252E+03   -0.35365E-01   -0.37422E-01  8320   0.848E+00-0.363E-01
CGA:  18    -0.230346893211E+03   -0.12236E-01   -0.12940E-01  8320   0.704E+00-0.298E-01
CGA:  19    -0.230375104130E+03   -0.28211E-01   -0.28153E-01  8320   0.103E+01 0.907E-02
CGA:  20    -0.230394117398E+03   -0.19013E-01   -0.19260E-01  8320   0.687E+00-0.588E-02
CGA:  21    -0.230417130576E+03   -0.23013E-01   -0.23376E-01  8320   0.606E+00 0.587E-01
CGA:  22    -0.230428664968E+03   -0.11534E-01   -0.11882E-01  8320   0.260E+00-0.921E-02
CGA:  23    -0.230440523721E+03   -0.11859E-01   -0.11876E-01  8320   0.780E-01-0.116E-02
CGA:  24    -0.230445863666E+03   -0.53399E-02   -0.53323E-02  8320   0.178E+00 0.216E-03
CGA:  25    -0.230449827369E+03   -0.39637E-02   -0.40140E-02  8320   0.592E-01-0.509E-03
CGA:  26    -0.230453495286E+03   -0.36679E-02   -0.36570E-02  8320   0.446E-01 0.389E-03
CGA:  27    -0.230457088961E+03   -0.35937E-02   -0.35777E-02  8320   0.265E-01 0.376E-03
CGA:  28    -0.230459303233E+03   -0.22143E-02   -0.22110E-02  8320   0.263E-01 0.762E-04
CGA:  29    -0.230459825815E+03   -0.52258E-03   -0.52742E-03  8320   0.132E-01-0.133E-03
CGA:  30    -0.230460641394E+03   -0.81558E-03   -0.81467E-03  8320   0.856E-02 0.377E-04
CGA:  31    -0.230461207561E+03   -0.56617E-03   -0.56429E-03  8320   0.627E-02 0.693E-04
CGA:  32    -0.230461590201E+03   -0.38264E-03   -0.38293E-03  8320   0.118E-01-0.119E-04
CGA:  33    -0.230461844085E+03   -0.25388E-03   -0.25472E-03  8320   0.194E-02-0.233E-05
CGA:  34    -0.230462051800E+03   -0.20772E-03   -0.20651E-03  8320   0.228E-02 0.192E-04
SDA:  35    -0.230462211601E+03   -0.15980E-03   -0.15975E-03  8320   0.165E-02 0.264E-05
CGA:  36    -0.230462251313E+03   -0.39712E-04   -0.39720E-04  8320   0.103E-02 0.330E-07
CGA:  37    -0.230462283730E+03   -0.32417E-04   -0.32435E-04  8320   0.644E-03-0.475E-06
CGA:  38    -0.230462340798E+03   -0.57068E-04   -0.57126E-04  8320   0.718E-03-0.165E-05
CGA:  39    -0.230462423762E+03   -0.82964E-04   -0.82936E-04  8320   0.550E-03 0.365E-06
CGA:  40    -0.230462444576E+03   -0.20814E-04   -0.20808E-04  8320   0.104E-02-0.181E-06
CGA:  41    -0.230462510081E+03   -0.65505E-04   -0.65498E-04  8320   0.328E-03 0.219E-07
CGA:  42    -0.230462549967E+03   -0.39887E-04   -0.39961E-04  8320   0.192E-03-0.128E-05
CGA:  43    -0.230462561742E+03   -0.11775E-04   -0.11772E-04  8320   0.538E-03 0.475E-06
CGA:  44    -0.230462581122E+03   -0.19380E-04   -0.19389E-04  8320   0.220E-03 0.164E-05
CGA:  45    -0.230462592606E+03   -0.11484E-04   -0.11486E-04  8320   0.124E-03 0.683E-06
CGA:  46    -0.230462603163E+03   -0.10557E-04   -0.10580E-04  8320   0.122E-03-0.815E-06
CGA:  47    -0.230462606463E+03   -0.32993E-05   -0.32833E-05  8320   0.127E-03-0.650E-06
   8 F= -.23046261E+03 E0= -.23044517E+03  d E =-.345800E+00  mag=     9.4440
       N       E                     dE             d eps       ncg     rms          ort
SDA:   1    -0.177662590546E+03    0.52800E+02    0.00000E+00  8320   0.140E+04 0.000E+00
CGA:   2    -0.195371664210E+03   -0.17709E+02   -0.38055E+02  8320   0.213E+03-0.704E+02
CGA:   3    -0.204079353804E+03   -0.87077E+01   -0.92210E+01  8320   0.144E+03 0.324E+02
CGA:   4    -0.212147946538E+03   -0.80686E+01   -0.77904E+01  8320   0.132E+03-0.121E+02
CGA:   5    -0.216017948484E+03   -0.38700E+01   -0.81061E+01  8320   0.541E+03-0.199E+03
CGA:   6    -0.222473350386E+03   -0.64554E+01   -0.94270E+01  8320   0.143E+03-0.162E+03
CGA:   7    -0.224927935426E+03   -0.24546E+01   -0.14428E+01  8320   0.464E+02 0.553E+02
CGA:   8    -0.225498156215E+03   -0.57022E+00   -0.49437E+00  8320   0.146E+02 0.704E+01
CGA:   9    -0.226100350699E+03   -0.60219E+00   -0.62841E+00  8320   0.525E+02 0.676E+00
CGA:  10    -0.227583433368E+03   -0.14831E+01   -0.14382E+01  8320   0.707E+02 0.171E+01
CGA:  11    -0.228832150801E+03   -0.12487E+01   -0.96522E+00  8320   0.256E+02 0.153E+02
CGA:  12    -0.229093807556E+03   -0.26166E+00   -0.38813E+00  8320   0.260E+02-0.112E+02
CGA:  13    -0.229261855977E+03   -0.16805E+00   -0.16488E+00  8320   0.366E+02 0.245E+00
CGA:  14    -0.229634907977E+03   -0.37305E+00   -0.40422E+00  8320   0.136E+02-0.301E+01
CGA:  15    -0.229743506864E+03   -0.10860E+00   -0.11895E+00  8320   0.905E+01-0.122E+01
CGA:  16    -0.229935477023E+03   -0.19197E+00   -0.20479E+00  8320   0.199E+02-0.230E-01
CGA:  17    -0.230213351907E+03   -0.27787E+00   -0.27066E+00  8320   0.352E+01 0.304E+00
CGA:  18    -0.230255387485E+03   -0.42036E-01   -0.38988E-01  8320   0.254E+01 0.205E+00
CGA:  19    -0.230347352061E+03   -0.91965E-01   -0.92013E-01  8320   0.502E+01 0.219E-01
CGA:  20    -0.230399819571E+03   -0.52468E-01   -0.57173E-01  8320   0.173E+01-0.332E+00
CGA:  21    -0.230441275262E+03   -0.41456E-01   -0.42312E-01  8320   0.248E+01 0.231E-01
CGA:  22    -0.230487268832E+03   -0.45994E-01   -0.46597E-01  8320   0.175E+01-0.132E-01
CGA:  23    -0.230526458971E+03   -0.39190E-01   -0.40147E-01  8320   0.133E+01 0.109E-01
CGA:  24    -0.230543531519E+03   -0.17073E-01   -0.17724E-01  8320   0.403E+00-0.296E-01
CGA:  25    -0.230578946894E+03   -0.35415E-01   -0.35265E-01  8320   0.102E+01 0.266E-02
CGA:  26    -0.230592780480E+03   -0.13834E-01   -0.13903E-01  8320   0.355E+00-0.472E-02
CGA:  27    -0.230614070293E+03   -0.21290E-01   -0.21188E-01  8320   0.455E+00 0.380E-02
CGA:  28    -0.230625366248E+03   -0.11296E-01   -0.11322E-01  8320   0.396E+00 0.423E-03
CGA:  29    -0.230633023495E+03   -0.76572E-02   -0.76149E-02  8320   0.936E-01 0.812E-03
CGA:  30    -0.230642287204E+03   -0.92637E-02   -0.91385E-02  8320   0.218E+00 0.221E-02
CGA:  31    -0.230645467919E+03   -0.31807E-02   -0.32367E-02  8320   0.788E-01-0.263E-02
CGA:  32    -0.230650164676E+03   -0.46968E-02   -0.46424E-02  8320   0.534E-01 0.200E-02
CGA:  33    -0.230652443141E+03   -0.22785E-02   -0.22770E-02  8320   0.466E-01 0.191E-03
CGA:  34    -0.230653487116E+03   -0.10440E-02   -0.10420E-02  8320   0.460E-01 0.216E-04
CGA:  35    -0.230656441224E+03   -0.29541E-02   -0.29352E-02  8320   0.201E-01 0.622E-03
SDA:  36    -0.230657230732E+03   -0.78951E-03   -0.78879E-03  8320   0.409E-01 0.318E-03
CGA:  37    -0.230657726002E+03   -0.49527E-03   -0.50036E-03  8320   0.104E-01-0.330E-03
CGA:  38    -0.230658711714E+03   -0.98571E-03   -0.98323E-03  8320   0.134E-01 0.481E-04
CGA:  39    -0.230659820569E+03   -0.11089E-02   -0.11084E-02  8320   0.166E-01 0.118E-04
CGA:  40    -0.230660521508E+03   -0.70094E-03   -0.70088E-03  8320   0.201E-01 0.459E-04
CGA:  41    -0.230660897422E+03   -0.37591E-03   -0.37302E-03  8320   0.515E-02 0.942E-04
CGA:  42    -0.230661490088E+03   -0.59267E-03   -0.58408E-03  8320   0.235E-02 0.129E-03
CGA:  43    -0.230661890828E+03   -0.40074E-03   -0.40996E-03  8320   0.532E-02-0.969E-04
CGA:  44    -0.230662006132E+03   -0.11530E-03   -0.12047E-03  8320   0.516E-02-0.115E-03
CGA:  45    -0.230662425525E+03   -0.41939E-03   -0.43942E-03  8320   0.432E-02-0.507E-03
CGA:  46    -0.230662522273E+03   -0.96748E-04   -0.10087E-03  8320   0.343E-02-0.731E-04
CGA:  47    -0.230662709854E+03   -0.18758E-03   -0.18887E-03  8320   0.275E-02-0.125E-03
CGA:  48    -0.230662785707E+03   -0.75853E-04   -0.77786E-04  8320   0.239E-02-0.184E-04
CGA:  49    -0.230662928623E+03   -0.14292E-03   -0.14431E-03  8320   0.271E-02-0.824E-04
CGA:  50    -0.230662995795E+03   -0.67172E-04   -0.68866E-04  8320   0.116E-02-0.286E-04
CGA:  51    -0.230663046154E+03   -0.50359E-04   -0.50260E-04  8320   0.128E-02-0.106E-04
CGA:  52    -0.230663093945E+03   -0.47790E-04   -0.48056E-04  8320   0.893E-03 0.253E-05
CGA:  53    -0.230663123805E+03   -0.29860E-04   -0.29737E-04  8320   0.590E-03-0.374E-05
CGA:  54    -0.230663147461E+03   -0.23656E-04   -0.23688E-04  8320   0.496E-03 0.118E-06
CGA:  55    -0.230663162621E+03   -0.15160E-04   -0.15111E-04  8320   0.231E-03-0.101E-05
CGA:  56    -0.230663172522E+03   -0.99014E-05   -0.99044E-05  8320   0.304E-03 0.539E-06
CGA:  57    -0.230663185882E+03   -0.13360E-04   -0.13360E-04  8320   0.195E-03 0.154E-06
CGA:  58    -0.230663191673E+03   -0.57902E-05   -0.58054E-05  8320   0.122E-03 0.485E-06
   9 F= -.23066319E+03 E0= -.23064551E+03  d E =-.200585E+00  mag=     9.4805
       N       E                     dE             d eps       ncg     rms          ort
SDA:   1    -0.189812415590E+03    0.40851E+02    0.00000E+00  8320   0.211E+03 0.000E+00
CGA:   2    -0.196880339254E+03   -0.70679E+01   -0.71586E+01  8320   0.223E+03-0.105E+02
CGA:   3    -0.205805362288E+03   -0.89250E+01   -0.86037E+01  8320   0.503E+03-0.434E+02
CGA:   4    -0.218920939514E+03   -0.13116E+02   -0.13054E+02  8320   0.127E+03-0.533E+01
CGA:   5    -0.221219729194E+03   -0.22988E+01   -0.34440E+01  8320   0.120E+03 0.440E+01
CGA:   6    -0.225744889157E+03   -0.45252E+01   -0.36692E+01  8320   0.329E+02-0.505E+00
CGA:   7    -0.228313249231E+03   -0.25684E+01   -0.25107E+01  8320   0.452E+02 0.157E+01
CGA:   8    -0.229202029967E+03   -0.88878E+00   -0.77726E+00  8320   0.168E+02 0.339E+01
CGA:   9    -0.229731965605E+03   -0.52994E+00   -0.53312E+00  8320   0.955E+01 0.233E-02
CGA:  10    -0.230211963365E+03   -0.48000E+00   -0.47308E+00  8320   0.327E+01 0.543E+00
CGA:  11    -0.230407645896E+03   -0.19568E+00   -0.19776E+00  8320   0.108E+02-0.104E+00
CGA:  12    -0.230606705481E+03   -0.19906E+00   -0.20644E+00  8320   0.140E+01-0.190E+00
CGA:  13    -0.230648853423E+03   -0.42148E-01   -0.42930E-01  8320   0.259E+01 0.130E-01
CGA:  14    -0.230733079423E+03   -0.84226E-01   -0.83677E-01  8320   0.659E+00-0.121E-01
CGA:  15    -0.230771814124E+03   -0.38735E-01   -0.38876E-01  8320   0.814E+00-0.644E-02
CGA:  16    -0.230809446714E+03   -0.37633E-01   -0.37259E-01  8320   0.505E+00 0.467E-01
CGA:  17    -0.230818777031E+03   -0.93303E-02   -0.90214E-02  8320   0.186E+00 0.120E-01
CGA:  18    -0.230834225172E+03   -0.15448E-01   -0.15190E-01  8320   0.212E+00 0.624E-02
CGA:  19    -0.230840830742E+03   -0.66056E-02   -0.65872E-02  8320   0.154E+00-0.148E-03
CGA:  20    -0.230845259936E+03   -0.44292E-02   -0.44802E-02  8320   0.122E+00 0.365E-03
CGA:  21    -0.230851421899E+03   -0.61620E-02   -0.61361E-02  8320   0.446E-01 0.190E-02
CGA:  22    -0.230853422431E+03   -0.20005E-02   -0.19990E-02  8320   0.920E-01 0.397E-03
CGA:  23    -0.230857008190E+03   -0.35858E-02   -0.35836E-02  8320   0.315E-01-0.241E-03
CGA:  24    -0.230858089930E+03   -0.10817E-02   -0.10845E-02  8320   0.214E-01 0.133E-03
CGA:  25    -0.230858992439E+03   -0.90251E-03   -0.90250E-03  8320   0.365E-01 0.152E-04
CGA:  26    -0.230860508146E+03   -0.15157E-02   -0.15156E-02  8320   0.114E-01 0.283E-03
CGA:  27    -0.230861107514E+03   -0.59937E-03   -0.59995E-03  8320   0.183E-01-0.307E-04
CGA:  28    -0.230861533730E+03   -0.42622E-03   -0.42794E-03  8320   0.543E-02 0.959E-05
CGA:  29    -0.230861826294E+03   -0.29256E-03   -0.29230E-03  8320   0.643E-02 0.229E-04
CGA:  30    -0.230862135668E+03   -0.30937E-03   -0.30901E-03  8320   0.817E-02 0.612E-04
CGA:  31    -0.230862319002E+03   -0.18333E-03   -0.18327E-03  8320   0.211E-02 0.292E-04
SDA:  32    -0.230862485341E+03   -0.16634E-03   -0.16566E-03  8320   0.313E-02 0.176E-04
CGA:  33    -0.230862531780E+03   -0.46439E-04   -0.46375E-04  8320   0.105E-02 0.231E-05
CGA:  34    -0.230862591772E+03   -0.59992E-04   -0.59997E-04  8320   0.115E-02-0.116E-05
CGA:  35    -0.230862683836E+03   -0.92063E-04   -0.92162E-04  8320   0.889E-03-0.297E-05
CGA:  36    -0.230862772568E+03   -0.88732E-04   -0.88680E-04  8320   0.981E-03 0.996E-06
CGA:  37    -0.230862791976E+03   -0.19409E-04   -0.19401E-04  8320   0.667E-03 0.161E-05
CGA:  38    -0.230862857382E+03   -0.65406E-04   -0.65159E-04  8320   0.334E-03 0.463E-05
CGA:  39    -0.230862896871E+03   -0.39489E-04   -0.39636E-04  8320   0.286E-03-0.223E-05
CGA:  40    -0.230862916837E+03   -0.19966E-04   -0.19986E-04  8320   0.108E-02-0.126E-05
CGA:  41    -0.230862951779E+03   -0.34942E-04   -0.34861E-04  8320   0.156E-03-0.257E-05
CGA:  42    -0.230862967393E+03   -0.15615E-04   -0.15600E-04  8320   0.233E-03 0.226E-06
CGA:  43    -0.230862977892E+03   -0.10499E-04   -0.10504E-04  8320   0.224E-03 0.567E-06
CGA:  44    -0.230862982820E+03   -0.49271E-05   -0.49418E-05  8320   0.125E-03 0.229E-07
  10 F= -.23086298E+03 E0= -.23084516E+03  d E =-.199791E+00  mag=     9.5224
       N       E                     dE             d eps       ncg     rms          ort
SDA:   1    -0.204426763725E+03    0.26436E+02    0.00000E+00  8320   0.103E+03 0.000E+00
CGA:   2    -0.209212519404E+03   -0.47858E+01   -0.49037E+01  8320   0.172E+03 0.845E+01
CGA:   3    -0.217301972295E+03   -0.80895E+01   -0.69576E+01  8320   0.198E+03-0.232E+02
CGA:   4    -0.223532956753E+03   -0.62310E+01   -0.65793E+01  8320   0.526E+02 0.347E+01
CGA:   5    -0.226013174771E+03   -0.24802E+01   -0.37993E+01  8320   0.208E+03-0.835E+02
CGA:   6    -0.227064051385E+03   -0.10509E+01   -0.48719E+01  8320   0.830E+02-0.470E+02
CGA:   7    -0.228693481069E+03   -0.16294E+01   -0.10898E+01  8320   0.894E+01 0.150E+02
CGA:   8    -0.229001188481E+03   -0.30771E+00   -0.27970E+00  8320   0.202E+02 0.472E+00
CGA:   9    -0.229368052641E+03   -0.36686E+00   -0.23718E+00  8320   0.216E+02 0.107E+02
CGA:  10    -0.229558017339E+03   -0.18996E+00   -0.35992E+00  8320   0.109E+02-0.756E+01
CGA:  11    -0.229950123269E+03   -0.39211E+00   -0.39882E+00  8320   0.104E+02-0.373E+00
CGA:  12    -0.230230456093E+03   -0.28033E+00   -0.29130E+00  8320   0.649E+01-0.873E-01
CGA:  13    -0.230431444089E+03   -0.20099E+00   -0.19023E+00  8320   0.364E+01-0.206E-01
CGA:  14    -0.230572282356E+03   -0.14084E+00   -0.14233E+00  8320   0.358E+01 0.129E+00
CGA:  15    -0.230688935153E+03   -0.11665E+00   -0.11546E+00  8320   0.223E+01-0.171E-01
CGA:  16    -0.230771765027E+03   -0.82830E-01   -0.83374E-01  8320   0.182E+01 0.402E-01
CGA:  17    -0.230823534473E+03   -0.51769E-01   -0.49850E-01  8320   0.742E+00 0.955E-02
CGA:  18    -0.230848138050E+03   -0.24604E-01   -0.24832E-01  8320   0.684E+00 0.662E-02
CGA:  19    -0.230876913569E+03   -0.28776E-01   -0.28778E-01  8320   0.623E+00-0.399E-02
CGA:  20    -0.230894587758E+03   -0.17674E-01   -0.17872E-01  8320   0.282E+00 0.940E-03
CGA:  21    -0.230902286313E+03   -0.76986E-02   -0.76046E-02  8320   0.138E+00 0.763E-04
CGA:  22    -0.230907305250E+03   -0.50189E-02   -0.50247E-02  8320   0.144E+00 0.660E-03
CGA:  23    -0.230913770096E+03   -0.64648E-02   -0.64702E-02  8320   0.149E+00-0.576E-03
CGA:  24    -0.230918033829E+03   -0.42637E-02   -0.42928E-02  8320   0.727E-01 0.335E-03
CGA:  25    -0.230920446279E+03   -0.24124E-02   -0.24082E-02  8320   0.596E-01-0.178E-03
CGA:  26    -0.230922779993E+03   -0.23337E-02   -0.23337E-02  8320   0.561E-01 0.296E-03
CGA:  27    -0.230924949967E+03   -0.21700E-02   -0.21698E-02  8320   0.534E-01-0.979E-04
CGA:  28    -0.230926759540E+03   -0.18096E-02   -0.18129E-02  8320   0.319E-01 0.250E-03
CGA:  29    -0.230927686161E+03   -0.92662E-03   -0.92452E-03  8320   0.179E-01-0.892E-05
CGA:  30    -0.230928285875E+03   -0.59971E-03   -0.60010E-03  8320   0.133E-01 0.408E-04
CGA:  31    -0.230928814548E+03   -0.52867E-03   -0.52870E-03  8320   0.143E-01-0.107E-05
CGA:  32    -0.230929338586E+03   -0.52404E-03   -0.52425E-03  8320   0.848E-02 0.764E-04
CGA:  33    -0.230929553671E+03   -0.21509E-03   -0.21498E-03  8320   0.376E-02 0.135E-04
CGA:  34    -0.230929692178E+03   -0.13851E-03   -0.13852E-03  8320   0.352E-02 0.109E-04
CGA:  35    -0.230929828384E+03   -0.13621E-03   -0.13621E-03  8320   0.329E-02 0.349E-05
CGA:  36    -0.230929946898E+03   -0.11851E-03   -0.11854E-03  8320   0.226E-02 0.125E-04
CGA:  37    -0.230930011379E+03   -0.64480E-04   -0.64511E-04  8320   0.122E-02 0.442E-05
CGA:  38    -0.230930057826E+03   -0.46447E-04   -0.46442E-04  8320   0.120E-02 0.419E-05
CGA:  39    -0.230930105094E+03   -0.47268E-04   -0.47264E-04  8320   0.115E-02 0.256E-05
SDA:  40    -0.230930151645E+03   -0.46551E-04   -0.46534E-04  8320   0.109E-02 0.404E-05
CGA:  41    -0.230930164238E+03   -0.12593E-04   -0.12570E-04  8320   0.169E-03 0.105E-05
CGA:  42    -0.230930204893E+03   -0.40655E-04   -0.25364E-05  8320   0.566E-03 0.364E-05
CGA:  43    -0.230930250566E+03   -0.45673E-04   -0.45694E-04  8320   0.642E-03-0.205E-05
CGA:  44    -0.230930268374E+03   -0.17809E-04   -0.17788E-04  8320   0.539E-03-0.859E-06
CGA:  45    -0.230930281095E+03   -0.12720E-04   -0.12728E-04  8320   0.139E-03-0.127E-05
CGA:  46    -0.230930304805E+03   -0.23710E-04   -0.23827E-04  8320   0.141E-03-0.116E-05
CGA:  47    -0.230930321091E+03   -0.16287E-04   -0.16289E-04  8320   0.186E-03-0.134E-06
CGA:  48    -0.230930324132E+03   -0.30410E-05   -0.30439E-05  8320   0.726E-04-0.178E-06
  11 F= -.23093032E+03 E0= -.23091226E+03  d E =-.673413E-01  mag=     9.5651
       N       E                     dE             d eps       ncg     rms          ort
SDA:   1    -0.224189175517E+03    0.67411E+01    0.00000E+00  8320   0.204E+02 0.000E+00
CGA:   2    -0.227535258816E+03   -0.33461E+01   -0.31564E+01  8320   0.223E+02 0.194E+01
CGA:   3    -0.229077773517E+03   -0.15425E+01   -0.15017E+01  8320   0.190E+02-0.137E+01
CGA:   4    -0.229963720691E+03   -0.88595E+00   -0.89262E+00  8320   0.168E+02-0.260E-02
CGA:   5    -0.230303916391E+03   -0.34020E+00   -0.24816E+00  8320   0.368E+01 0.482E+01
CGA:   6    -0.230495023237E+03   -0.19111E+00   -0.18135E+00  8320   0.111E+02 0.877E-01
CGA:   7    -0.230704476820E+03   -0.20945E+00   -0.20212E+00  8320   0.689E+01 0.331E+00
CGA:   8    -0.230762282980E+03   -0.57806E-01   -0.92858E-01  8320   0.451E+01-0.241E+01
CGA:   9    -0.230831645811E+03   -0.69363E-01   -0.70733E-01  8320   0.468E+01-0.324E-01
CGA:  10    -0.230890660977E+03   -0.59015E-01   -0.59619E-01  8320   0.143E+01-0.783E-01
CGA:  11    -0.230923174886E+03   -0.32514E-01   -0.32580E-01  8320   0.127E+01-0.346E-02
CGA:  12    -0.230941809305E+03   -0.18634E-01   -0.19107E-01  8320   0.506E+00-0.267E-01
CGA:  13    -0.230964533337E+03   -0.22724E-01   -0.22769E-01  8320   0.130E+01 0.217E-02
CGA:  14    -0.230987592229E+03   -0.23059E-01   -0.22492E-01  8320   0.281E+00 0.250E-01
CGA:  15    -0.230994596983E+03   -0.70048E-02   -0.69683E-02  8320   0.429E+00 0.785E-03
CGA:  16    -0.231006427072E+03   -0.11830E-01   -0.11918E-01  8320   0.150E+00-0.994E-03
CGA:  17    -0.231008629529E+03   -0.22025E-02   -0.22457E-02  8320   0.107E+00-0.222E-02
CGA:  18    -0.231014327336E+03   -0.56978E-02   -0.56928E-02  8320   0.144E+00 0.447E-03
CGA:  19    -0.231016356431E+03   -0.20291E-02   -0.20053E-02  8320   0.618E-01 0.136E-02
CGA:  20    -0.231019205060E+03   -0.28486E-02   -0.28487E-02  8320   0.904E-01-0.192E-03
CGA:  21    -0.231020496134E+03   -0.12911E-02   -0.13037E-02  8320   0.318E-01-0.664E-03
CGA:  22    -0.231021565488E+03   -0.10694E-02   -0.10712E-02  8320   0.362E-01 0.385E-04
CGA:  23    -0.231022222026E+03   -0.65654E-03   -0.65425E-03  8320   0.256E-01 0.897E-04
CGA:  24    -0.231023613762E+03   -0.13917E-02   -0.13912E-02  8320   0.398E-01 0.362E-04
CGA:  25    -0.231024121650E+03   -0.50789E-03   -0.51486E-03  8320   0.874E-02-0.407E-03
CGA:  26    -0.231024514880E+03   -0.39323E-03   -0.39321E-03  8320   0.161E-01 0.568E-05
CGA:  27    -0.231024769203E+03   -0.25432E-03   -0.25359E-03  8320   0.414E-02 0.488E-04
CGA:  28    -0.231024994400E+03   -0.22520E-03   -0.22510E-03  8320   0.134E-01 0.748E-05
CGA:  29    -0.231025271876E+03   -0.27748E-03   -0.27817E-03  8320   0.277E-02 0.457E-05
CGA:  30    -0.231025352379E+03   -0.80502E-04   -0.80610E-04  8320   0.489E-02 0.365E-05
CGA:  31    -0.231025503998E+03   -0.15162E-03   -0.15168E-03  8320   0.200E-02 0.456E-05
SDA:  32    -0.231025550169E+03   -0.46171E-04   -0.46128E-04  8320   0.219E-02 0.308E-06
CGA:  33    -0.231025584911E+03   -0.34742E-04   -0.34756E-04  8320   0.104E-02-0.237E-05
CGA:  34    -0.231025646324E+03   -0.61413E-04   -0.61515E-04  8320   0.592E-03-0.466E-05
CGA:  35    -0.231025692951E+03   -0.46627E-04   -0.46699E-04  8320   0.728E-03-0.203E-05
CGA:  36    -0.231025739873E+03   -0.46922E-04   -0.46939E-04  8320   0.918E-03-0.920E-06
CGA:  37    -0.231025755207E+03   -0.15333E-04   -0.15341E-04  8320   0.284E-03-0.589E-06
CGA:  38    -0.231025784207E+03   -0.29000E-04   -0.28909E-04  8320   0.144E-03 0.132E-05
CGA:  39    -0.231025797209E+03   -0.13002E-04   -0.12910E-04  8320   0.299E-03 0.185E-05
CGA:  40    -0.231025802309E+03   -0.51009E-05   -0.51200E-05  8320   0.829E-04 0.700E-06
CGA:  41    -0.231025817449E+03   -0.15140E-04   -0.15000E-04  8320   0.123E-03 0.930E-06
CGA:  42    -0.231025822791E+03   -0.53418E-05   -0.53452E-05  8320   0.262E-03 0.359E-06
  12 F= -.23102582E+03 E0= -.23100762E+03  d E =-.954987E-01  mag=     9.5680
       N       E                     dE             d eps       ncg     rms          ort
SDA:   1    -0.228246864523E+03    0.27790E+01    0.00000E+00  8320   0.781E+01 0.000E+00
CGA:   2    -0.229201523155E+03   -0.95466E+00   -0.87442E+00  8320   0.247E+02 0.139E+01
CGA:   3    -0.229962549134E+03   -0.76103E+00   -0.66031E+00  8320   0.791E+01 0.177E+01
CGA:   4    -0.230456157143E+03   -0.49361E+00   -0.49151E+00  8320   0.715E+01 0.198E+00
CGA:   5    -0.230651150192E+03   -0.19499E+00   -0.18916E+00  8320   0.538E+01 0.729E-01
CGA:   6    -0.230824186732E+03   -0.17304E+00   -0.17731E+00  8320   0.183E+01-0.249E-01
CGA:   7    -0.230925934959E+03   -0.10175E+00   -0.10239E+00  8320   0.279E+01-0.587E-01
CGA:   8    -0.230975554994E+03   -0.49620E-01   -0.50486E-01  8320   0.489E+00-0.390E-01
CGA:   9    -0.231004556594E+03   -0.29002E-01   -0.29027E-01  8320   0.440E+00-0.142E-02
CGA:  10    -0.231014665097E+03   -0.10109E-01   -0.10231E-01  8320   0.293E+00-0.297E-02
CGA:  11    -0.231025997946E+03   -0.11333E-01   -0.11306E-01  8320   0.123E+00-0.856E-03
CGA:  12    -0.231031948792E+03   -0.59508E-02   -0.59480E-02  8320   0.163E+00 0.108E-02
CGA:  13    -0.231035230595E+03   -0.32818E-02   -0.32761E-02  8320   0.333E-01 0.180E-03
CGA:  14    -0.231037926953E+03   -0.26964E-02   -0.26918E-02  8320   0.676E-01 0.123E-03
CGA:  15    -0.231039397925E+03   -0.14710E-02   -0.14607E-02  8320   0.269E-01 0.289E-03
CGA:  16    -0.231040487827E+03   -0.10899E-02   -0.10907E-02  8320   0.118E-01 0.551E-04
CGA:  17    -0.231040927336E+03   -0.43951E-03   -0.43930E-03  8320   0.179E-01-0.282E-05
CGA:  18    -0.231041575874E+03   -0.64854E-03   -0.64888E-03  8320   0.603E-02 0.149E-04
CGA:  19    -0.231041913370E+03   -0.33750E-03   -0.33738E-03  8320   0.107E-01 0.101E-04
CGA:  20    -0.231042164574E+03   -0.25120E-03   -0.25222E-03  8320   0.354E-02-0.918E-05
CGA:  21    -0.231042357049E+03   -0.19248E-03   -0.19241E-03  8320   0.332E-02 0.750E-05
CGA:  22    -0.231042453773E+03   -0.96723E-04   -0.96944E-04  8320   0.344E-02 0.511E-05
CGA:  23    -0.231042617629E+03   -0.16386E-03   -0.16381E-03  8320   0.153E-02 0.126E-04
CGA:  24    -0.231042681346E+03   -0.63717E-04   -0.63739E-04  8320   0.240E-02 0.658E-05
CGA:  25    -0.231042753844E+03   -0.72498E-04   -0.72556E-04  8320   0.706E-03 0.791E-05
CGA:  26    -0.231042792312E+03   -0.38467E-04   -0.38402E-04  8320   0.111E-02 0.572E-05
CGA:  27    -0.231042823147E+03   -0.30835E-04   -0.30903E-04  8320   0.739E-03 0.390E-05
CGA:  28    -0.231042861296E+03   -0.38149E-04   -0.38106E-04  8320   0.361E-03 0.498E-05
CGA:  29    -0.231042870218E+03   -0.89218E-05   -0.89397E-05  8320   0.315E-03 0.111E-05
CGA:  30    -0.231042889544E+03   -0.19327E-04   -0.19282E-04  8320   0.218E-03 0.236E-05
CGA:  31    -0.231042897603E+03   -0.80582E-05   -0.80640E-05  8320   0.283E-03 0.869E-06
  13 F= -.23104290E+03 E0= -.23102475E+03  d E =-.170748E-01  mag=     9.5572
       N       E                     dE             d eps       ncg     rms          ort
SDA:   1    -0.228396626822E+03    0.26463E+01    0.00000E+00  8320   0.752E+01 0.000E+00
CGA:   2    -0.229605451034E+03   -0.12088E+01   -0.12465E+01  8320   0.173E+02-0.387E+00
CGA:   3    -0.230008109663E+03   -0.40266E+00   -0.38673E+00  8320   0.163E+02 0.144E+00
CGA:   4    -0.230598859462E+03   -0.59075E+00   -0.61433E+00  8320   0.265E+01 0.550E+00
CGA:   5    -0.230760279635E+03   -0.16142E+00   -0.16059E+00  8320   0.668E+01 0.510E-01
CGA:   6    -0.230921097260E+03   -0.16082E+00   -0.14719E+00  8320   0.128E+01 0.367E+00
CGA:   7    -0.230983363968E+03   -0.62267E-01   -0.62246E-01  8320   0.762E+00-0.253E-01
CGA:   8    -0.231006539155E+03   -0.23175E-01   -0.23414E-01  8320   0.921E+00 0.208E-03
CGA:   9    -0.231032611514E+03   -0.26072E-01   -0.25943E-01  8320   0.178E+00 0.588E-03
CGA:  10    -0.231048797022E+03   -0.16186E-01   -0.16189E-01  8320   0.104E+00-0.830E-04
CGA:  11    -0.231051579353E+03   -0.27823E-02   -0.27977E-02  8320   0.126E+00-0.195E-03
CGA:  12    -0.231056638397E+03   -0.50590E-02   -0.50592E-02  8320   0.297E-01 0.144E-04
CGA:  13    -0.231059414611E+03   -0.27762E-02   -0.27795E-02  8320   0.316E-01-0.696E-04
CGA:  14    -0.231060690051E+03   -0.12754E-02   -0.12763E-02  8320   0.227E-01 0.361E-04
CGA:  15    -0.231061072263E+03   -0.38221E-03   -0.37804E-03  8320   0.706E-02 0.188E-03
CGA:  16    -0.231061932989E+03   -0.86073E-03   -0.86025E-03  8320   0.417E-02 0.630E-05
CGA:  17    -0.231062329899E+03   -0.39691E-03   -0.39616E-03  8320   0.415E-02 0.165E-04
CGA:  18    -0.231062413558E+03   -0.83659E-04   -0.83629E-04  8320   0.286E-02 0.653E-05
CGA:  19    -0.231062578201E+03   -0.16464E-03   -0.16459E-03  8320   0.214E-02 0.746E-05
CGA:  20    -0.231062718874E+03   -0.14067E-03   -0.14053E-03  8320   0.101E-02 0.868E-05
CGA:  21    -0.231062833102E+03   -0.11423E-03   -0.11391E-03  8320   0.564E-03 0.520E-05
CGA:  22    -0.231062895143E+03   -0.62041E-04   -0.61975E-04  8320   0.111E-02 0.117E-05
CGA:  23    -0.231062915316E+03   -0.20174E-04   -0.20176E-04  8320   0.494E-03 0.180E-05
CGA:  24    -0.231062943508E+03   -0.28192E-04   -0.28188E-04  8320   0.316E-03 0.210E-05
CGA:  25    -0.231062965815E+03   -0.22307E-04   -0.22263E-04  8320   0.175E-03 0.295E-05
CGA:  26    -0.231062984261E+03   -0.18445E-04   -0.18323E-04  8320   0.130E-03 0.257E-05
CGA:  27    -0.231062987472E+03   -0.32115E-05   -0.32243E-05  8320   0.148E-03 0.242E-06
CGA:  28    -0.231062997743E+03   -0.10271E-04   -0.10260E-04  8320   0.657E-04 0.888E-06
CGA:  29    -0.231063002871E+03   -0.51274E-05   -0.51239E-05  8320   0.607E-04 0.176E-06
  14 F= -.23106300E+03 E0= -.23104501E+03  d E =-.201053E-01  mag=     9.5439
       N       E                     dE             d eps       ncg     rms          ort
SDA:   1    -0.185088443363E+03    0.45975E+02    0.00000E+00  8320   0.249E+03 0.000E+00
CGA:   2    -0.191405054532E+03   -0.63166E+01   -0.86304E+01  8320   0.261E+03-0.733E+01
CGA:   3    -0.205731351443E+03   -0.14326E+02   -0.13673E+02  8320   0.395E+03-0.863E+02
CGA:   4    -0.218793550649E+03   -0.13062E+02   -0.12467E+02  8320   0.138E+03-0.268E+02
CGA:   5    -0.223963820970E+03   -0.51703E+01   -0.55763E+01  8320   0.419E+02 0.984E+01
CGA:   6    -0.227106844130E+03   -0.31430E+01   -0.30829E+01  8320   0.363E+02 0.367E+01
CGA:   7    -0.228943685347E+03   -0.18368E+01   -0.15685E+01  8320   0.225E+02-0.961E+00
CGA:   8    -0.229742511190E+03   -0.79883E+00   -0.84449E+00  8320   0.987E+01 0.239E+00
CGA:   9    -0.230133825962E+03   -0.39131E+00   -0.40481E+00  8320   0.110E+02 0.108E+00
CGA:  10    -0.230354242393E+03   -0.22042E+00   -0.22234E+00  8320   0.610E+01-0.107E+00
CGA:  11    -0.230590574950E+03   -0.23633E+00   -0.23673E+00  8320   0.414E+01-0.647E-02
CGA:  12    -0.230742088288E+03   -0.15151E+00   -0.15210E+00  8320   0.190E+01 0.127E-01
CGA:  13    -0.230794318796E+03   -0.52231E-01   -0.49877E-01  8320   0.255E+01 0.430E-01
CGA:  14    -0.230871838581E+03   -0.77520E-01   -0.76152E-01  8320   0.105E+01 0.141E-01
CGA:  15    -0.230931864468E+03   -0.60026E-01   -0.58936E-01  8320   0.805E+00 0.992E-01
CGA:  16    -0.230961651383E+03   -0.29787E-01   -0.30210E-01  8320   0.106E+01 0.240E-02
CGA:  17    -0.230979835893E+03   -0.18185E-01   -0.18394E-01  8320   0.338E+00-0.880E-02
CGA:  18    -0.231003016133E+03   -0.23180E-01   -0.23152E-01  8320   0.315E+00 0.563E-03
CGA:  19    -0.231009639891E+03   -0.66238E-02   -0.66673E-02  8320   0.341E+00-0.153E-02
CGA:  20    -0.231025291810E+03   -0.15652E-01   -0.15647E-01  8320   0.162E+00-0.317E-02
CGA:  21    -0.231032017353E+03   -0.67255E-02   -0.67793E-02  8320   0.293E+00 0.464E-02
CGA:  22    -0.231038087278E+03   -0.60699E-02   -0.59540E-02  8320   0.948E-01 0.433E-02
CGA:  23    -0.231043960660E+03   -0.58734E-02   -0.57828E-02  8320   0.204E+00 0.458E-02
CGA:  24    -0.231048079151E+03   -0.41185E-02   -0.38037E-02  8320   0.666E-01 0.129E-01
CGA:  25    -0.231052595666E+03   -0.45165E-02   -0.44167E-02  8320   0.735E-01 0.439E-02
CGA:  26    -0.231054083174E+03   -0.14875E-02   -0.14286E-02  8320   0.550E-01 0.227E-02
CGA:  27    -0.231058534055E+03   -0.44509E-02   -0.43537E-02  8320   0.353E-01 0.234E-02
CGA:  28    -0.231061217711E+03   -0.26837E-02   -0.25468E-02  8320   0.366E-01 0.478E-02
CGA:  29    -0.231061933523E+03   -0.71581E-03   -0.67656E-03  8320   0.229E-01 0.182E-02
CGA:  30    -0.231063503496E+03   -0.15700E-02   -0.15861E-02  8320   0.253E-01-0.709E-03
CGA:  31    -0.231064506936E+03   -0.10034E-02   -0.10235E-02  8320   0.498E-01 0.169E-02
SDA:  32    -0.231065798725E+03   -0.12918E-02   -0.11159E-02  8320   0.134E-01 0.534E-02
CGA:  33    -0.231066232297E+03   -0.43357E-03   -0.43485E-03  8320   0.202E-01 0.433E-05
CGA:  34    -0.231066826770E+03   -0.59447E-03   -0.59644E-03  8320   0.684E-02-0.106E-04
CGA:  35    -0.231068042072E+03   -0.12153E-02   -0.12109E-02  8320   0.102E-01 0.503E-04
CGA:  36    -0.231068404423E+03   -0.36235E-03   -0.35987E-03  8320   0.115E-01-0.221E-04
CGA:  37    -0.231068691531E+03   -0.28711E-03   -0.28911E-03  8320   0.709E-02-0.558E-04
CGA:  38    -0.231069355403E+03   -0.66387E-03   -0.65984E-03  8320   0.419E-02 0.788E-04
CGA:  39    -0.231069784189E+03   -0.42879E-03   -0.42569E-03  8320   0.497E-02 0.606E-04
CGA:  40    -0.231069881449E+03   -0.97260E-04   -0.95457E-04  8320   0.354E-02 0.629E-04
CGA:  41    -0.231070308934E+03   -0.42749E-03   -0.42853E-03  8320   0.318E-02-0.243E-04
CGA:  42    -0.231070419086E+03   -0.11015E-03   -0.11213E-03  8320   0.481E-02-0.967E-05
CGA:  43    -0.231070568848E+03   -0.14976E-03   -0.14695E-03  8320   0.204E-02 0.287E-04
CGA:  44    -0.231070681284E+03   -0.11244E-03   -0.11248E-03  8320   0.860E-03-0.118E-04
CGA:  45    -0.231070785665E+03   -0.10438E-03   -0.10410E-03  8320   0.535E-03 0.402E-05
CGA:  46    -0.231070855764E+03   -0.70099E-04   -0.70396E-04  8320   0.128E-02-0.448E-05
CGA:  47    -0.231070879393E+03   -0.23629E-04   -0.23903E-04  8320   0.625E-03-0.120E-04
CGA:  48    -0.231070934255E+03   -0.54862E-04   -0.54821E-04  8320   0.569E-03 0.836E-06
CGA:  49    -0.231070965951E+03   -0.31695E-04   -0.31699E-04  8320   0.276E-03 0.115E-05
CGA:  50    -0.231070984048E+03   -0.18097E-04   -0.18071E-04  8320   0.729E-03 0.331E-05
CGA:  51    -0.231071001755E+03   -0.17707E-04   -0.17710E-04  8320   0.175E-03 0.538E-05
CGA:  52    -0.231071027875E+03   -0.26120E-04   -0.25655E-04  8320   0.102E-03 0.523E-05
CGA:  53    -0.231071037410E+03   -0.95350E-05   -0.94995E-05  8320   0.303E-03 0.128E-05
  15 F= -.23107104E+03 E0= -.23105357E+03  d E =-.803454E-02  mag=     9.5017
       N       E                     dE             d eps       ncg     rms          ort
SDA:   1     0.303928877828E+03    0.53500E+03    0.00000E+00  8320   0.183E+05 0.000E+00
CGA:   2     0.124481857956E+01   -0.30268E+03   -0.43434E+03  8320   0.429E+04-0.936E+03
CGA:   3    -0.638613736653E+02   -0.65106E+02   -0.11099E+03  8320   0.135E+04-0.953E+02
CGA:   4    -0.105529679374E+03   -0.41668E+02   -0.52724E+02  8320   0.647E+03 0.227E+03
CGA:   5    -0.133256315007E+03   -0.27727E+02   -0.15480E+02  8320   0.274E+03 0.413E+03
CGA:   6    -0.146667966719E+03   -0.13412E+02   -0.12422E+02  8320   0.631E+03-0.330E+02
CGA:   7    -0.176946122222E+03   -0.30278E+02   -0.30294E+02  8320   0.958E+03 0.402E+02
CGA:   8    -0.197651924813E+03   -0.20706E+02   -0.26759E+02  8320   0.749E+03 0.588E+02
CGA:   9    -0.216894518612E+03   -0.19243E+02   -0.14826E+02  8320   0.100E+03 0.896E+02
CGA:  10    -0.218845272350E+03   -0.19508E+01   -0.22370E+01  8320   0.186E+03-0.160E+02
CGA:  11    -0.221152406656E+03   -0.23071E+01   -0.34375E+01  8320   0.195E+03-0.315E+02
CGA:  12    -0.222076868604E+03   -0.92446E+00   -0.29491E+01  8320   0.138E+03-0.999E+02
CGA:  13    -0.224351509525E+03   -0.22746E+01   -0.18172E+01  8320   0.723E+02 0.227E+02
CGA:  14    -0.225656462850E+03   -0.13050E+01   -0.99225E+00  8320   0.516E+02 0.219E+02
CGA:  15    -0.226424222585E+03   -0.76776E+00   -0.86949E+00  8320   0.202E+02-0.666E+01
CGA:  16    -0.227081961123E+03   -0.65774E+00   -0.64182E+00  8320   0.235E+02-0.874E+00
CGA:  17    -0.227397584702E+03   -0.31562E+00   -0.22606E+00  8320   0.171E+02 0.801E+01
CGA:  18    -0.227836995812E+03   -0.43941E+00   -0.43640E+00  8320   0.314E+02 0.221E+00
CGA:  19    -0.228326533059E+03   -0.48954E+00   -0.52364E+00  8320   0.271E+02-0.122E+01
CGA:  20    -0.228569665833E+03   -0.24313E+00   -0.24480E+00  8320   0.143E+02 0.288E+00
CGA:  21    -0.228781153082E+03   -0.21149E+00   -0.18714E+00  8320   0.191E+02 0.130E+01
CGA:  22    -0.229075055215E+03   -0.29390E+00   -0.29133E+00  8320   0.172E+02 0.215E-01
CGA:  23    -0.229196373462E+03   -0.12132E+00   -0.14006E+00  8320   0.756E+01-0.215E+01
CGA:  24    -0.229283279489E+03   -0.86906E-01   -0.84275E-01  8320   0.886E+01 0.195E+00
CGA:  25    -0.229388955057E+03   -0.10568E+00   -0.91893E-01  8320   0.738E+01 0.110E+01
CGA:  26    -0.229474966059E+03   -0.86011E-01   -0.91846E-01  8320   0.489E+01-0.343E+00
CGA:  27    -0.229519498440E+03   -0.44532E-01   -0.49060E-01  8320   0.348E+01-0.312E+00
CGA:  28    -0.229576447429E+03   -0.56949E-01   -0.58600E-01  8320   0.551E+01-0.204E-01
CGA:  29    -0.229651706973E+03   -0.75260E-01   -0.68980E-01  8320   0.352E+01 0.457E+00
CGA:  30    -0.229709104098E+03   -0.57397E-01   -0.50610E-01  8320   0.462E+01 0.337E+00
CGA:  31    -0.229778661533E+03   -0.69557E-01   -0.62547E-01  8320   0.538E+01 0.381E+00
CGA:  32    -0.229827703314E+03   -0.49042E-01   -0.58604E-01  8320   0.239E+01-0.641E+00
CGA:  33    -0.229851893058E+03   -0.24190E-01   -0.26614E-01  8320   0.279E+01-0.980E-01
CGA:  34    -0.229913670266E+03   -0.61777E-01   -0.61669E-01  8320   0.131E+01-0.205E-01
CGA:  35    -0.229936067512E+03   -0.22397E-01   -0.22363E-01  8320   0.160E+01-0.227E-02
CGA:  36    -0.229965318424E+03   -0.29251E-01   -0.29760E-01  8320   0.765E+00 0.175E-01
CGA:  37    -0.229977354770E+03   -0.12036E-01   -0.12602E-01  8320   0.719E+00 0.228E-02
CGA:  38    -0.230001730124E+03   -0.24375E-01   -0.24099E-01  8320   0.781E+00 0.194E-01
CGA:  39    -0.230023235823E+03   -0.21506E-01   -0.21487E-01  8320   0.343E+00 0.298E-02
CGA:  40    -0.230035386034E+03   -0.12150E-01   -0.11963E-01  8320   0.391E+00 0.132E-01
CGA:  41    -0.230042740814E+03   -0.73548E-02   -0.73043E-02  8320   0.227E+00-0.179E-02
CGA:  42    -0.230052047114E+03   -0.93063E-02   -0.89737E-02  8320   0.165E+00 0.184E-01
SDA:  43    -0.230059584653E+03   -0.75375E-02   -0.74637E-02  8320   0.873E-01 0.373E-02
CGA:  44    -0.230063322265E+03   -0.37376E-02   -0.37257E-02  8320   0.124E+00 0.564E-03
CGA:  45    -0.230065552773E+03   -0.22305E-02   -0.22425E-02  8320   0.632E-01-0.299E-04
CGA:  46    -0.230068748146E+03   -0.31954E-02   -0.32018E-02  8320   0.781E-01-0.279E-03
CGA:  47    -0.230073924997E+03   -0.51769E-02   -0.49670E-02  8320   0.105E+00 0.598E-02
CGA:  48    -0.230075799209E+03   -0.18742E-02   -0.18621E-02  8320   0.513E-01 0.242E-03
CGA:  49    -0.230079109827E+03   -0.33106E-02   -0.32204E-02  8320   0.475E-01 0.267E-02
CGA:  50    -0.230080230546E+03   -0.11207E-02   -0.11205E-02  8320   0.419E-01-0.874E-05
CGA:  51    -0.230081726474E+03   -0.14959E-02   -0.14926E-02  8320   0.299E-01 0.371E-03
CGA:  52    -0.230083495956E+03   -0.17695E-02   -0.17269E-02  8320   0.500E-01 0.148E-02
CGA:  53    -0.230084705344E+03   -0.12094E-02   -0.12294E-02  8320   0.339E-01 0.358E-03
CGA:  54    -0.230086425346E+03   -0.17200E-02   -0.17240E-02  8320   0.379E-01-0.194E-03
CGA:  55    -0.230087127682E+03   -0.70234E-03   -0.70699E-03  8320   0.116E-01-0.115E-03
CGA:  56    -0.230087745581E+03   -0.61790E-03   -0.61593E-03  8320   0.225E-01 0.797E-04
CGA:  57    -0.230088367823E+03   -0.62224E-03   -0.62293E-03  8320   0.123E-01 0.201E-04
CGA:  58    -0.230088899975E+03   -0.53215E-03   -0.53125E-03  8320   0.162E-01 0.616E-04
CGA:  59    -0.230089366525E+03   -0.46655E-03   -0.46700E-03  8320   0.116E-01 0.310E-04
CGA:  60    -0.230089894066E+03   -0.52754E-03   -0.52531E-03  8320   0.116E-01 0.137E-03
CGA:  61    -0.230090130045E+03   -0.23598E-03   -0.23632E-03  8320   0.369E-02 0.455E-06
CGA:  62    -0.230090316935E+03   -0.18689E-03   -0.18627E-03  8320   0.732E-02 0.310E-04
CGA:  63    -0.230090562927E+03   -0.24599E-03   -0.24601E-03  8320   0.432E-02 0.415E-04
CGA:  64    -0.230090721630E+03   -0.15870E-03   -0.15872E-03  8320   0.550E-02 0.162E-05
CGA:  65    -0.230090926909E+03   -0.20528E-03   -0.20508E-03  8320   0.414E-02 0.395E-04
CGA:  66    -0.230091074117E+03   -0.14721E-03   -0.14718E-03  8320   0.433E-02 0.150E-04
CGA:  67    -0.230091204194E+03   -0.13008E-03   -0.13017E-03  8320   0.239E-02 0.153E-04
CGA:  68    -0.230091308786E+03   -0.10459E-03   -0.10450E-03  8320   0.404E-02 0.952E-05
CGA:  69    -0.230091449811E+03   -0.14102E-03   -0.14100E-03  8320   0.176E-02 0.335E-04
CGA:  70    -0.230091498580E+03   -0.48769E-04   -0.48769E-04  8320   0.166E-02 0.458E-05
CGA:  71    -0.230091573128E+03   -0.74548E-04   -0.74320E-04  8320   0.129E-02 0.181E-04
CGA:  72    -0.230091610626E+03   -0.37498E-04   -0.37503E-04  8320   0.124E-02 0.404E-05
CGA:  73    -0.230091664234E+03   -0.53608E-04   -0.53482E-04  8320   0.894E-03 0.122E-04
SDA:  74    -0.230091690332E+03   -0.26098E-04   -0.26098E-04  8320   0.869E-03 0.188E-05
CGA:  75    -0.230091702284E+03   -0.11953E-04   -0.11941E-04  8320   0.363E-03-0.851E-06
CGA:  76    -0.230091730590E+03   -0.28306E-04   -0.28468E-04  8320   0.354E-03-0.374E-05
CGA:  77    -0.230091762249E+03   -0.31659E-04   -0.31966E-04  8320   0.265E-03-0.561E-05
CGA:  78    -0.230091778012E+03   -0.15762E-04   -0.15861E-04  8320   0.931E-03-0.449E-05
CGA:  79    -0.230091804047E+03   -0.26035E-04   -0.25947E-04  8320   0.243E-03-0.739E-05
CGA:  80    -0.230091826556E+03   -0.22509E-04   -0.22843E-04  8320   0.143E-03-0.610E-05
CGA:  81    -0.230091842895E+03   -0.16339E-04   -0.16542E-04  8320   0.923E-04-0.273E-05
CGA:  82    -0.230091855974E+03   -0.13079E-04   -0.13133E-04  8320   0.140E-03-0.649E-06
CGA:  83    -0.230091858300E+03   -0.23257E-05   -0.23234E-05  8320   0.882E-04 0.579E-07
  16 F= -.23009186E+03 E0= -.23007301E+03  d E =0.979179E+00  mag=     9.8050
       N       E                     dE             d eps       ncg     rms          ort
SDA:   1    -0.195685420565E+03    0.34406E+02    0.00000E+00  8320   0.486E+03 0.000E+00
CGA:   2    -0.205730864174E+03   -0.10045E+02   -0.10815E+02  8320   0.544E+03-0.465E+03
CGA:   3    -0.211296982241E+03   -0.55661E+01   -0.11332E+02  8320   0.160E+03-0.105E+03
CGA:   4    -0.217293622172E+03   -0.59966E+01   -0.33445E+01  8320   0.337E+02 0.531E+02
CGA:   5    -0.218553552603E+03   -0.12599E+01   -0.11911E+01  8320   0.145E+03-0.841E+00
CGA:   6    -0.221093513648E+03   -0.25400E+01   -0.29049E+01  8320   0.500E+03-0.920E+01
CGA:   7    -0.224640693742E+03   -0.35472E+01   -0.31652E+01  8320   0.262E+03 0.650E+02
CGA:   8    -0.224823195343E+03   -0.18250E+00   -0.21159E+01  8320   0.143E+03-0.250E+03
CGA:   9    -0.226059392694E+03   -0.12362E+01   -0.29799E+01  8320   0.170E+03-0.480E+02
CGA:  10    -0.227471488324E+03   -0.14121E+01   -0.15357E+01  8320   0.628E+02-0.367E+02
CGA:  11    -0.228184077173E+03   -0.71259E+00   -0.78593E+00  8320   0.487E+02-0.106E+02
CGA:  12    -0.229354738251E+03   -0.11707E+01   -0.12510E+01  8320   0.178E+02 0.487E+01
CGA:  13    -0.229559392214E+03   -0.20465E+00   -0.19906E+00  8320   0.103E+02 0.380E-01
CGA:  14    -0.229924089527E+03   -0.36470E+00   -0.36084E+00  8320   0.916E+01-0.239E+01
CGA:  15    -0.229981974907E+03   -0.57885E-01   -0.65106E-01  8320   0.730E+01-0.722E+00
CGA:  16    -0.230104701303E+03   -0.12273E+00   -0.12664E+00  8320   0.146E+02-0.101E+00
CGA:  17    -0.230335646778E+03   -0.23095E+00   -0.24580E+00  8320   0.309E+01-0.155E+00
CGA:  18    -0.230382124784E+03   -0.46478E-01   -0.47074E-01  8320   0.402E+01-0.308E-01
CGA:  19    -0.230467019735E+03   -0.84895E-01   -0.78893E-01  8320   0.180E+01 0.848E-01
CGA:  20    -0.230487541751E+03   -0.20522E-01   -0.21757E-01  8320   0.151E+01-0.754E-01
CGA:  21    -0.230561598075E+03   -0.74056E-01   -0.71260E-01  8320   0.368E+01 0.127E+00
CGA:  22    -0.230605698713E+03   -0.44101E-01   -0.43018E-01  8320   0.969E+00 0.545E-01
CGA:  23    -0.230673812942E+03   -0.68114E-01   -0.71316E-01  8320   0.126E+01-0.818E-01
CGA:  24    -0.230688235553E+03   -0.14423E-01   -0.15251E-01  8320   0.668E+00-0.410E-01
CGA:  25    -0.230714273092E+03   -0.26038E-01   -0.25523E-01  8320   0.289E+00 0.434E-01
CGA:  26    -0.230719037420E+03   -0.47643E-02   -0.47651E-02  8320   0.258E+00-0.106E-03
CGA:  27    -0.230732936760E+03   -0.13899E-01   -0.13897E-01  8320   0.196E+00 0.720E-04
CGA:  28    -0.230738962453E+03   -0.60257E-02   -0.60304E-02  8320   0.408E+00 0.164E-02
CGA:  29    -0.230750504585E+03   -0.11542E-01   -0.11562E-01  8320   0.628E-01 0.193E-02
CGA:  30    -0.230753116969E+03   -0.26124E-02   -0.26105E-02  8320   0.141E+00 0.149E-03
CGA:  31    -0.230755852954E+03   -0.27360E-02   -0.27562E-02  8320   0.493E-01-0.217E-03
CGA:  32    -0.230759299468E+03   -0.34465E-02   -0.34043E-02  8320   0.827E-01 0.116E-02
CGA:  33    -0.230760417143E+03   -0.11177E-02   -0.11169E-02  8320   0.260E-01 0.286E-04
CGA:  34    -0.230762366675E+03   -0.19495E-02   -0.19409E-02  8320   0.179E-01 0.212E-03
CGA:  35    -0.230762858285E+03   -0.49161E-03   -0.49307E-03  8320   0.286E-01 0.467E-04
CGA:  36    -0.230763863986E+03   -0.10057E-02   -0.10060E-02  8320   0.674E-02-0.184E-03
CGA:  37    -0.230764383645E+03   -0.51966E-03   -0.52172E-03  8320   0.907E-02-0.497E-04
CGA:  38    -0.230764545308E+03   -0.16166E-03   -0.16341E-03  8320   0.654E-02-0.519E-04
SDA:  39    -0.230764892728E+03   -0.34742E-03   -0.34806E-03  8320   0.261E-02-0.305E-04
CGA:  40    -0.230765016310E+03   -0.12358E-03   -0.12364E-03  8320   0.116E-02-0.331E-05
CGA:  41    -0.230765136123E+03   -0.11981E-03   -0.12005E-03  8320   0.491E-02-0.443E-05
CGA:  42    -0.230765227080E+03   -0.90958E-04   -0.91835E-04  8320   0.178E-02-0.237E-04
[...]
CGA:  26    -0.232390094928E+03   -0.11621E-03   -0.11621E-03  8320   0.940E-03 0.150E-05
CGA:  27    -0.232390143462E+03   -0.48533E-04   -0.48553E-04  8320   0.796E-03 0.170E-05
CGA:  28    -0.232390192019E+03   -0.48557E-04   -0.48559E-04  8320   0.473E-03 0.177E-05
CGA:  29    -0.232390218979E+03   -0.26961E-04   -0.26971E-04  8320   0.428E-03 0.158E-05
CGA:  30    -0.232390242387E+03   -0.23408E-04   -0.23414E-04  8320   0.221E-03 0.744E-06
CGA:  31    -0.232390256125E+03   -0.13738E-04   -0.13738E-04  8320   0.236E-03-0.760E-07
SDA:  32    -0.232390270017E+03   -0.13892E-04   -0.13889E-04  8320   0.152E-03-0.779E-06
CGA:  33    -0.232390274140E+03   -0.41231E-05   -0.41250E-05  8320   0.726E-04-0.892E-07
 142 F= -.23239027E+03 E0= -.23237505E+03  d E =0.211158E+00  mag=     9.0261
       N       E                     dE             d eps       ncg     rms          ort
SDA:   1    -0.226720437161E+03    0.56698E+01    0.00000E+00  8320   0.219E+02 0.000E+00
CGA:   2    -0.229598233883E+03   -0.28778E+01   -0.28207E+01  8320   0.179E+02 0.801E+00
CGA:   3    -0.230349976016E+03   -0.75174E+00   -0.73515E+00  8320   0.163E+02-0.134E+00
CGA:   4    -0.231421589126E+03   -0.10716E+01   -0.10691E+01  8320   0.739E+01 0.501E+00
CGA:   5    -0.232023058146E+03   -0.60147E+00   -0.59803E+00  8320   0.600E+01 0.131E+00
CGA:   6    -0.232217399803E+03   -0.19434E+00   -0.18579E+00  8320   0.356E+01 0.123E+00
CGA:   7    -0.232423444681E+03   -0.20604E+00   -0.20630E+00  8320   0.128E+01 0.185E-01
CGA:   8    -0.232464111809E+03   -0.40667E-01   -0.41575E-01  8320   0.997E+00-0.143E-01
CGA:   9    -0.232520074781E+03   -0.55963E-01   -0.55946E-01  8320   0.347E+00-0.167E-02
CGA:  10    -0.232540455494E+03   -0.20381E-01   -0.20370E-01  8320   0.379E+00-0.285E-02
CGA:  11    -0.232551772888E+03   -0.11317E-01   -0.11387E-01  8320   0.112E+00-0.104E-02
CGA:  12    -0.232561629511E+03   -0.98566E-02   -0.98218E-02  8320   0.102E+00 0.999E-03
CGA:  13    -0.232564686529E+03   -0.30570E-02   -0.30567E-02  8320   0.555E-01 0.336E-04
CGA:  14    -0.232568318772E+03   -0.36322E-02   -0.36295E-02  8320   0.261E-01 0.269E-03
CGA:  15    -0.232569897067E+03   -0.15783E-02   -0.15782E-02  8320   0.367E-01 0.320E-04
CGA:  16    -0.232571214895E+03   -0.13178E-02   -0.13160E-02  8320   0.103E-01 0.245E-04
CGA:  17    -0.232572140404E+03   -0.92551E-03   -0.92457E-03  8320   0.112E-01 0.270E-04
CGA:  18    -0.232572492618E+03   -0.35221E-03   -0.35320E-03  8320   0.645E-02-0.697E-05
CGA:  19    -0.232572980658E+03   -0.48804E-03   -0.48819E-03  8320   0.344E-02-0.512E-05
CGA:  20    -0.232573192110E+03   -0.21145E-03   -0.21145E-03  8320   0.445E-02 0.142E-05
CGA:  21    -0.232573347479E+03   -0.15537E-03   -0.15571E-03  8320   0.150E-02 0.157E-05
CGA:  22    -0.232573503858E+03   -0.15638E-03   -0.15627E-03  8320   0.136E-02 0.214E-05
CGA:  23    -0.232573548528E+03   -0.44670E-04   -0.44680E-04  8320   0.920E-03 0.379E-06
CGA:  24    -0.232573612510E+03   -0.63982E-04   -0.63951E-04  8320   0.441E-03 0.241E-05
CGA:  25    -0.232573645244E+03   -0.32735E-04   -0.32731E-04  8320   0.567E-03 0.141E-06
CGA:  26    -0.232573663516E+03   -0.18272E-04   -0.18260E-04  8320   0.232E-03-0.110E-06
CGA:  27    -0.232573684140E+03   -0.20624E-04   -0.20600E-04  8320   0.123E-03 0.682E-06
CGA:  28    -0.232573689672E+03   -0.55321E-05   -0.55355E-05  8320   0.148E-03 0.134E-06
 143 F= -.23257369E+03 E0= -.23255875E+03  d E =-.183416E+00  mag=     9.0336
       N       E                     dE             d eps       ncg     rms          ort
SDA:   1    -0.231942104839E+03    0.63158E+00    0.00000E+00  8320   0.228E+01 0.000E+00
CGA:   2    -0.232272082484E+03   -0.32998E+00   -0.33080E+00  8320   0.211E+01-0.111E-01
CGA:   3    -0.232358365609E+03   -0.86283E-01   -0.86421E-01  8320   0.185E+01-0.176E-02
CGA:   4    -0.232465972630E+03   -0.10761E+00   -0.10781E+00  8320   0.859E+00 0.191E-01
CGA:   5    -0.232544104520E+03   -0.78132E-01   -0.78602E-01  8320   0.385E+00-0.135E-01
CGA:   6    -0.232570728030E+03   -0.26624E-01   -0.26598E-01  8320   0.278E+00 0.240E-02
CGA:   7    -0.232579486003E+03   -0.87580E-02   -0.87110E-02  8320   0.106E+00 0.730E-03
CGA:   8    -0.232587736827E+03   -0.82508E-02   -0.82411E-02  8320   0.358E-01 0.447E-03
CGA:   9    -0.232591098009E+03   -0.33612E-02   -0.33651E-02  8320   0.355E-01-0.107E-03
CGA:  10    -0.232592129141E+03   -0.10311E-02   -0.10331E-02  8320   0.112E-01-0.355E-04
CGA:  11    -0.232593386123E+03   -0.12570E-02   -0.12575E-02  8320   0.602E-02-0.949E-05
CGA:  12    -0.232593765476E+03   -0.37935E-03   -0.37941E-03  8320   0.535E-02 0.142E-04
CGA:  13    -0.232593984259E+03   -0.21878E-03   -0.21863E-03  8320   0.320E-02 0.274E-05
CGA:  14    -0.232594243226E+03   -0.25897E-03   -0.25896E-03  8320   0.122E-02 0.764E-06
CGA:  15    -0.232594344206E+03   -0.10098E-03   -0.10092E-03  8320   0.161E-02 0.276E-05
CGA:  16    -0.232594403483E+03   -0.59277E-04   -0.59357E-04  8320   0.660E-03 0.847E-06
CGA:  17    -0.232594470991E+03   -0.67508E-04   -0.67523E-04  8320   0.380E-03-0.386E-06
CGA:  18    -0.232594494628E+03   -0.23637E-04   -0.23641E-04  8320   0.462E-03 0.891E-06
CGA:  19    -0.232594515333E+03   -0.20705E-04   -0.20724E-04  8320   0.173E-03 0.630E-06
CGA:  20    -0.232594533034E+03   -0.17701E-04   -0.17687E-04  8320   0.137E-03 0.373E-06
CGA:  21    -0.232594539727E+03   -0.66926E-05   -0.66920E-05  8320   0.123E-03-0.147E-07
 144 F= -.23259454E+03 E0= -.23257975E+03  d E =-.208501E-01  mag=     9.0353
       N       E                     dE             d eps       ncg     rms          ort
SDA:   1    -0.232220850312E+03    0.37368E+00    0.00000E+00  8320   0.143E+01 0.000E+00
CGA:   2    -0.232344431006E+03   -0.12358E+00   -0.12329E+00  8320   0.261E+01 0.102E-01
CGA:   3    -0.232447224413E+03   -0.10279E+00   -0.10072E+00  8320   0.849E+00 0.124E-01
CGA:   4    -0.232520758434E+03   -0.73534E-01   -0.73414E-01  8320   0.473E+00 0.450E-02
CGA:   5    -0.232567446525E+03   -0.46688E-01   -0.46635E-01  8320   0.309E+00 0.142E-02
CGA:   6    -0.232580303393E+03   -0.12857E-01   -0.12844E-01  8320   0.212E+00 0.527E-04
CGA:   7    -0.232590093924E+03   -0.97905E-02   -0.97388E-02  8320   0.537E-01-0.165E-03
CGA:   8    -0.232595319264E+03   -0.52253E-02   -0.52196E-02  8320   0.243E-01 0.150E-03
CGA:   9    -0.232596528891E+03   -0.12096E-02   -0.12084E-02  8320   0.258E-01-0.139E-04
CGA:  10    -0.232597834437E+03   -0.13055E-02   -0.13050E-02  8320   0.539E-02-0.674E-05
CGA:  11    -0.232598455711E+03   -0.62127E-03   -0.62122E-03  8320   0.553E-02 0.135E-05
CGA:  12    -0.232598684316E+03   -0.22861E-03   -0.22890E-03  8320   0.345E-02 0.717E-06
CGA:  13    -0.232598852056E+03   -0.16774E-03   -0.16763E-03  8320   0.138E-02-0.807E-06
CGA:  14    -0.232599017759E+03   -0.16570E-03   -0.16554E-03  8320   0.100E-02 0.286E-05
CGA:  15    -0.232599058188E+03   -0.40429E-04   -0.40432E-04  8320   0.788E-03 0.331E-06
CGA:  16    -0.232599113232E+03   -0.55044E-04   -0.55038E-04  8320   0.328E-03 0.147E-05
CGA:  17    -0.232599150065E+03   -0.36833E-04   -0.36842E-04  8320   0.390E-03-0.195E-06
CGA:  18    -0.232599163593E+03   -0.13528E-04   -0.13541E-04  8320   0.187E-03 0.122E-06
CGA:  19    -0.232599178934E+03   -0.15341E-04   -0.15338E-04  8320   0.985E-04 0.187E-06
CGA:  20    -0.232599187215E+03   -0.82803E-05   -0.82695E-05  8320   0.114E-03 0.667E-06
 145 F= -.23259919E+03 E0= -.23258452E+03  d E =-.464749E-02  mag=     9.0398
       N       E                     dE             d eps       ncg     rms          ort
SDA:   1    -0.232492528736E+03    0.10665E+00    0.00000E+00  8320   0.391E+00 0.000E+00
CGA:   2    -0.232529706207E+03   -0.37177E-01   -0.37495E-01  8320   0.546E+00-0.880E-02
CGA:   3    -0.232558060692E+03   -0.28354E-01   -0.28404E-01  8320   0.504E+00 0.596E-03
CGA:   4    -0.232580049812E+03   -0.21989E-01   -0.21749E-01  8320   0.112E+00 0.751E-03
CGA:   5    -0.232593977546E+03   -0.13928E-01   -0.13916E-01  8320   0.653E-01 0.196E-03
CGA:   6    -0.232597533897E+03   -0.35564E-02   -0.35490E-02  8320   0.601E-01-0.107E-03
CGA:   7    -0.232599738623E+03   -0.22047E-02   -0.21990E-02  8320   0.120E-01 0.694E-04
CGA:   8    -0.232601008954E+03   -0.12703E-02   -0.12694E-02  8320   0.569E-02 0.219E-04
CGA:   9    -0.232601336087E+03   -0.32713E-03   -0.32724E-03  8320   0.598E-02 0.194E-05
CGA:  10    -0.232601577410E+03   -0.24132E-03   -0.24107E-03  8320   0.155E-02-0.532E-06
CGA:  11    -0.232601732810E+03   -0.15540E-03   -0.15533E-03  8320   0.107E-02 0.208E-05
CGA:  12    -0.232601801603E+03   -0.68793E-04   -0.68791E-04  8320   0.102E-02-0.261E-07
CGA:  13    -0.232601838569E+03   -0.36966E-04   -0.37020E-04  8320   0.332E-03-0.183E-06
CGA:  14    -0.232601878129E+03   -0.39560E-04   -0.39609E-04  8320   0.225E-03-0.913E-06
CGA:  15    -0.232601891877E+03   -0.13749E-04   -0.13752E-04  8320   0.258E-03 0.332E-06
CGA:  16    -0.232601903279E+03   -0.11402E-04   -0.11405E-04  8320   0.971E-04 0.181E-06
CGA:  17    -0.232601913550E+03   -0.10271E-04   -0.10260E-04  8320   0.772E-04 0.284E-06
CGA:  18    -0.232601918710E+03   -0.51596E-05   -0.51594E-05  8320   0.949E-04-0.791E-07
 146 F= -.23260192E+03 E0= -.23258728E+03  d E =-.273150E-02  mag=     9.0437
       N       E                     dE             d eps       ncg     rms          ort
SDA:   1    -0.232551762339E+03    0.50151E-01    0.00000E+00  8320   0.214E+00 0.000E+00
CGA:   2    -0.232563493878E+03   -0.11732E-01   -0.11759E-01  8320   0.284E+00 0.545E-03
CGA:   3    -0.232580070908E+03   -0.16577E-01   -0.16534E-01  8320   0.182E+00-0.155E-02
CGA:   4    -0.232593100286E+03   -0.13029E-01   -0.13023E-01  8320   0.540E-01 0.684E-03
CGA:   5    -0.232598811752E+03   -0.57115E-02   -0.57018E-02  8320   0.425E-01 0.221E-03
CGA:   6    -0.232600728786E+03   -0.19170E-02   -0.19181E-02  8320   0.321E-01 0.196E-05
CGA:   7    -0.232602069022E+03   -0.13402E-02   -0.13374E-02  8320   0.531E-02 0.106E-04
CGA:   8    -0.232602713285E+03   -0.64426E-03   -0.64407E-03  8320   0.260E-02 0.338E-05
CGA:   9    -0.232602845998E+03   -0.13271E-03   -0.13262E-03  8320   0.263E-02-0.250E-05
CGA:  10    -0.232602968322E+03   -0.12232E-03   -0.12230E-03  8320   0.761E-03-0.141E-05
CGA:  11    -0.232603033665E+03   -0.65344E-04   -0.65339E-04  8320   0.462E-03 0.188E-06
CGA:  12    -0.232603072966E+03   -0.39301E-04   -0.39297E-04  8320   0.499E-03 0.155E-06
CGA:  13    -0.232603088376E+03   -0.15410E-04   -0.15388E-04  8320   0.131E-03-0.158E-06
CGA:  14    -0.232603105142E+03   -0.16766E-04   -0.16769E-04  8320   0.110E-03-0.573E-07
CGA:  15    -0.232603112993E+03   -0.78509E-05   -0.78510E-05  8320   0.975E-04-0.143E-06
 147 F= -.23260311E+03 E0= -.23258848E+03  d E =-.119428E-02  mag=     9.0471
       N       E                     dE             d eps       ncg     rms          ort
SDA:   1    -0.232569894746E+03    0.33210E-01    0.00000E+00  8320   0.211E+00 0.000E+00
CGA:   2    -0.232578120459E+03   -0.82257E-02   -0.81525E-02  8320   0.132E+00 0.617E-03
CGA:   3    -0.232585568504E+03   -0.74480E-02   -0.74690E-02  8320   0.129E+00 0.608E-03
CGA:   4    -0.232598043699E+03   -0.12475E-01   -0.12495E-01  8320   0.272E-01-0.533E-03
CGA:   5    -0.232601557172E+03   -0.35135E-02   -0.35118E-02  8320   0.278E-01 0.266E-04
CGA:   6    -0.232602421573E+03   -0.86440E-03   -0.86066E-03  8320   0.111E-01 0.726E-04
CGA:   7    -0.232603123606E+03   -0.70203E-03   -0.70197E-03  8320   0.295E-02-0.324E-05
CGA:   8    -0.232603433424E+03   -0.30982E-03   -0.30976E-03  8320   0.201E-02 0.151E-05
CGA:   9    -0.232603513270E+03   -0.79846E-04   -0.79925E-04  8320   0.129E-02-0.498E-06
CGA:  10    -0.232603577772E+03   -0.64502E-04   -0.64476E-04  8320   0.399E-03-0.102E-05
CGA:  11    -0.232603633146E+03   -0.55374E-04   -0.55423E-04  8320   0.271E-03-0.690E-06
CGA:  12    -0.232603643169E+03   -0.10023E-04   -0.10013E-04  8320   0.178E-03-0.223E-06
CGA:  13    -0.232603655282E+03   -0.12114E-04   -0.12114E-04  8320   0.890E-04 0.113E-06
CGA:  14    -0.232603664694E+03   -0.94119E-05   -0.94238E-05  8320   0.668E-04-0.329E-06
 148 F= -.23260366E+03 E0= -.23258905E+03  d E =-.551701E-03  mag=     9.0484
       N       E                     dE             d eps       ncg     rms          ort
SDA:   1    -0.232468618270E+03    0.13504E+00    0.00000E+00  8320   0.520E+00 0.000E+00
CGA:   2    -0.232499602891E+03   -0.30985E-01   -0.31111E-01  8320   0.725E+00 0.393E-02
CGA:   3    -0.232542664247E+03   -0.43061E-01   -0.42839E-01  8320   0.585E+00-0.651E-02
CGA:   4    -0.232581336280E+03   -0.38672E-01   -0.38689E-01  8320   0.122E+00 0.325E-02
CGA:   5    -0.232594643663E+03   -0.13307E-01   -0.13276E-01  8320   0.840E-01 0.688E-03
CGA:   6    -0.232599267980E+03   -0.46243E-02   -0.46228E-02  8320   0.725E-01-0.134E-04
CGA:   7    -0.232601789357E+03   -0.25214E-02   -0.25073E-02  8320   0.105E-01 0.204E-03
CGA:   8    -0.232603225336E+03   -0.14360E-02   -0.14350E-02  8320   0.504E-02 0.146E-04
CGA:   9    -0.232603567290E+03   -0.34195E-03   -0.34190E-03  8320   0.409E-02-0.784E-05
CGA:  10    -0.232603719299E+03   -0.15201E-03   -0.15206E-03  8320   0.210E-02-0.180E-05
CGA:  11    -0.232603886108E+03   -0.16681E-03   -0.16683E-03  8320   0.955E-03-0.140E-05
CGA:  12    -0.232603972306E+03   -0.86197E-04   -0.86172E-04  8320   0.426E-03 0.105E-05
CGA:  13    -0.232603993282E+03   -0.20976E-04   -0.20964E-04  8320   0.500E-03-0.324E-06
CGA:  14    -0.232604029574E+03   -0.36292E-04   -0.36292E-04  8320   0.182E-03-0.163E-06
CGA:  15    -0.232604046106E+03   -0.16533E-04   -0.16538E-04  8320   0.125E-03-0.229E-06
CGA:  16    -0.232604054151E+03   -0.80447E-05   -0.80476E-05  8320   0.159E-03 0.360E-06
 149 F= -.23260405E+03 E0= -.23258947E+03  d E =-.389457E-03  mag=     9.0514
       N       E                     dE             d eps       ncg     rms          ort
SDA:   1    -0.232558220305E+03    0.45826E-01    0.00000E+00  8320   0.265E+00 0.000E+00
CGA:   2    -0.232567708539E+03   -0.94882E-02   -0.93292E-02  8320   0.186E+00 0.217E-02
CGA:   3    -0.232582058727E+03   -0.14350E-01   -0.14332E-01  8320   0.168E+00 0.131E-02
CGA:   4    -0.232595938934E+03   -0.13880E-01   -0.13891E-01  8320   0.455E-01-0.548E-03
CGA:   5    -0.232601124206E+03   -0.51853E-02   -0.51850E-02  8320   0.278E-01 0.486E-05
CGA:   6    -0.232602510126E+03   -0.13859E-02   -0.13882E-02  8320   0.238E-01 0.102E-04
CGA:   7    -0.232603440265E+03   -0.93014E-03   -0.92908E-03  8320   0.466E-02 0.135E-04
CGA:   8    -0.232603876090E+03   -0.43583E-03   -0.43546E-03  8320   0.237E-02 0.126E-04
CGA:   9    -0.232604098700E+03   -0.22261E-03   -0.22264E-03  8320   0.905E-03-0.106E-05
CGA:  10    -0.232604146807E+03   -0.48107E-04   -0.48128E-04  8320   0.108E-02 0.402E-06
CGA:  11    -0.232604204958E+03   -0.58151E-04   -0.58147E-04  8320   0.345E-03-0.481E-06
CGA:  12    -0.232604235710E+03   -0.30752E-04   -0.30778E-04  8320   0.157E-03-0.133E-05
CGA:  13    -0.232604249117E+03   -0.13407E-04   -0.13413E-04  8320   0.136E-03-0.377E-06
CGA:  14    -0.232604254681E+03   -0.55646E-05   -0.55683E-05  8320   0.102E-03 0.299E-07
 150 F= -.23260425E+03 E0= -.23258970E+03  d E =-.200530E-03  mag=     9.0529
       N       E                     dE             d eps       ncg     rms          ort
SDA:   1    -0.232196874965E+03    0.40737E+00    0.00000E+00  8320   0.114E+01 0.000E+00
CGA:   2    -0.232314689858E+03   -0.11781E+00   -0.11849E+00  8320   0.363E+01-0.160E-01
CGA:   3    -0.232493373855E+03   -0.17868E+00   -0.18009E+00  8320   0.774E+00 0.283E-02
CGA:   4    -0.232555533165E+03   -0.62159E-01   -0.62170E-01  8320   0.356E+00-0.706E-03
CGA:   5    -0.232578175193E+03   -0.22642E-01   -0.22608E-01  8320   0.410E+00-0.161E-02
CGA:   6    -0.232592321866E+03   -0.14147E-01   -0.14280E-01  8320   0.748E-01-0.200E-02
CGA:   7    -0.232598655816E+03   -0.63340E-02   -0.63284E-02  8320   0.301E-01 0.248E-03
CGA:   8    -0.232601096353E+03   -0.24405E-02   -0.24417E-02  8320   0.372E-01-0.655E-04
CGA:   9    -0.232602255036E+03   -0.11587E-02   -0.11615E-02  8320   0.822E-02-0.449E-04
CGA:  10    -0.232602989473E+03   -0.73444E-03   -0.73410E-03  8320   0.497E-02 0.125E-04
CGA:  11    -0.232603426774E+03   -0.43730E-03   -0.43756E-03  8320   0.310E-02-0.113E-04
CGA:  12    -0.232603533601E+03   -0.10683E-03   -0.10690E-03  8320   0.177E-02-0.213E-05
CGA:  13    -0.232603659616E+03   -0.12601E-03   -0.12602E-03  8320   0.711E-03-0.142E-05
CGA:  14    -0.232603744438E+03   -0.84822E-04   -0.84788E-04  8320   0.442E-03 0.662E-06
CGA:  15    -0.232603776821E+03   -0.32383E-04   -0.32381E-04  8320   0.440E-03 0.996E-06
CGA:  16    -0.232603793246E+03   -0.16426E-04   -0.16420E-04  8320   0.226E-03 0.371E-06
CGA:  17    -0.232603818179E+03   -0.24932E-04   -0.24900E-04  8320   0.156E-03 0.770E-06
CGA:  18    -0.232603833268E+03   -0.15090E-04   -0.15068E-04  8320   0.593E-04 0.876E-06
CGA:  19    -0.232603841890E+03   -0.86213E-05   -0.86313E-05  8320   0.115E-03-0.141E-06
 151 F= -.23260384E+03 E0= -.23258936E+03  d E =0.412792E-03  mag=     9.0522
       N       E                     dE             d eps       ncg     rms          ort
SDA:   1    -0.232565205843E+03    0.38627E-01    0.00000E+00  8320   0.168E+00 0.000E+00
CGA:   2    -0.232573060038E+03   -0.78542E-02   -0.79360E-02  8320   0.209E+00-0.240E-03
CGA:   3    -0.232589797771E+03   -0.16738E-01   -0.16743E-01  8320   0.969E-01-0.451E-03
CGA:   4    -0.232597042978E+03   -0.72452E-02   -0.72448E-02  8320   0.448E-01 0.141E-03
CGA:   5    -0.232601419036E+03   -0.43761E-02   -0.43808E-02  8320   0.421E-01-0.147E-03
CGA:   6    -0.232602699922E+03   -0.12809E-02   -0.12915E-02  8320   0.135E-01-0.225E-03
CGA:   7    -0.232603674275E+03   -0.97435E-03   -0.97435E-03  8320   0.440E-02-0.569E-05
CGA:   8    -0.232604063135E+03   -0.38886E-03   -0.38899E-03  8320   0.333E-02-0.611E-05
CGA:   9    -0.232604188106E+03   -0.12497E-03   -0.12473E-03  8320   0.178E-02 0.239E-05
CGA:  10    -0.232604292588E+03   -0.10448E-03   -0.10453E-03  8320   0.589E-03 0.247E-05
CGA:  11    -0.232604359307E+03   -0.66719E-04   -0.66696E-04  8320   0.471E-03 0.562E-06
CGA:  12    -0.232604377387E+03   -0.18079E-04   -0.18107E-04  8320   0.288E-03 0.560E-06
CGA:  13    -0.232604395646E+03   -0.18260E-04   -0.18263E-04  8320   0.123E-03 0.587E-06
CGA:  14    -0.232604409233E+03   -0.13587E-04   -0.13553E-04  8320   0.105E-03 0.856E-06
CGA:  15    -0.232604413530E+03   -0.42966E-05   -0.43004E-05  8320   0.706E-04 0.142E-06
 152 F= -.23260441E+03 E0= -.23258991E+03  d E =-.571640E-03  mag=     9.0511
       N       E                     dE             d eps       ncg     rms          ort
SDA:   1    -0.232596415947E+03    0.79933E-02    0.00000E+00  8320   0.633E-01 0.000E+00
CGA:   2    -0.232598422788E+03   -0.20068E-02   -0.20314E-02  8320   0.311E-01-0.447E-03
CGA:   3    -0.232600311005E+03   -0.18882E-02   -0.18885E-02  8320   0.267E-01 0.161E-04
CGA:   4    -0.232603050945E+03   -0.27399E-02   -0.27402E-02  8320   0.743E-02-0.704E-05
CGA:   5    -0.232603898178E+03   -0.84723E-03   -0.84775E-03  8320   0.727E-02-0.999E-05
CGA:   6    -0.232604159560E+03   -0.26138E-03   -0.26199E-03  8320   0.373E-02-0.668E-05
CGA:   7    -0.232604357104E+03   -0.19754E-03   -0.19748E-03  8320   0.790E-03-0.182E-05
CGA:   8    -0.232604435622E+03   -0.78518E-04   -0.78546E-04  8320   0.489E-03-0.989E-06
CGA:   9    -0.232604460408E+03   -0.24786E-04   -0.24764E-04  8320   0.402E-03-0.680E-06
CGA:  10    -0.232604477189E+03   -0.16781E-04   -0.16784E-04  8320   0.117E-03 0.483E-07
CGA:  11    -0.232604489857E+03   -0.12668E-04   -0.12657E-04  8320   0.671E-04 0.280E-06
CGA:  12    -0.232604494558E+03   -0.47009E-05   -0.47005E-05  8320   0.700E-04-0.140E-06
 153 F= -.23260449E+03 E0= -.23258997E+03  d E =-.810285E-04  mag=     9.0528
