       N       E                     dE             d eps       ncg     rms          ort
DAV:   1     0.192337996474E+04    0.19234E+04   -0.77746E+04 17640   0.173E+03
DAV:   2     0.998503651443E+02   -0.18235E+04   -0.17479E+04 17640   0.512E+02
DAV:   3    -0.205017560705E+03   -0.30487E+03   -0.29675E+03 17640   0.194E+02
DAV:   4    -0.220988323744E+03   -0.15971E+02   -0.15875E+02 17640   0.503E+01
DAV:   5    -0.221812607955E+03   -0.82428E+00   -0.82261E+00 17640   0.894E+00
SDA:   6    -0.180054908523E+03    0.41758E+02   -0.82261E+00 17640   0.120E+02 0.000E+00
CGA:   7    -0.181816262940E+03   -0.17614E+01   -0.17686E+01 17640   0.112E+01 0.651E-01
CGA:   8    -0.182075536686E+03   -0.25927E+00   -0.25889E+00 17640   0.330E+00 0.112E-01
CGA:   9    -0.182159107780E+03   -0.83571E-01   -0.83369E-01 17640   0.109E+00 0.375E-02
CGA:  10    -0.182185534787E+03   -0.26427E-01   -0.26264E-01 17640   0.424E-01 0.432E-02
CGA:  11    -0.182197411402E+03   -0.11877E-01   -0.11568E-01 17640   0.206E-01 0.516E-02
CGA:  12    -0.182203235194E+03   -0.58238E-02   -0.56622E-02 17640   0.808E-02 0.412E-02
CGA:  13    -0.182205773856E+03   -0.25387E-02   -0.24299E-02 17640   0.277E-02 0.256E-02
CGA:  14    -0.182206702296E+03   -0.92844E-03   -0.88663E-03 17640   0.118E-02 0.126E-02
CGA:  15    -0.182207106974E+03   -0.40468E-03   -0.39212E-03 17640   0.621E-03 0.798E-03
CGA:  16    -0.182207265900E+03   -0.15893E-03   -0.14970E-03 17640   0.301E-03 0.324E-03
CGA:  17    -0.182207341779E+03   -0.75879E-04   -0.70840E-04 17640   0.211E-03 0.240E-03
CGA:  18    -0.182207387481E+03   -0.45702E-04   -0.45571E-04 17640   0.162E-03 0.188E-03
CGA:  19    -0.182207417541E+03   -0.30060E-04   -0.32379E-04 17640   0.130E-03 0.151E-03
CGA:  20    -0.182207438956E+03   -0.21415E-04   -0.24605E-04 17640   0.108E-03 0.123E-03
CGA:  21    -0.182207453947E+03   -0.14991E-04   -0.18887E-04 17640   0.905E-04 0.103E-03
CGA:  22    -0.182207465100E+03   -0.11153E-04   -0.15067E-04 17640   0.771E-04 0.871E-04
CGA:  23    -0.182207473336E+03   -0.82358E-05   -0.12107E-04 17640   0.662E-04 0.745E-04
   1 F= -.18220747E+03 E0= -.18220747E+03  d E =-.182207E+03  mag=     8.0000
