       N       E                     dE             d eps       ncg     rms          ort
DAV:   1     0.637653873405E+04    0.63765E+04   -0.31662E+05  8320   0.178E+03
DAV:   2     0.350241251724E+03   -0.60263E+04   -0.56417E+04  8320   0.511E+02
DAV:   3    -0.299424174224E+03   -0.64967E+03   -0.62962E+03  8320   0.188E+02
DAV:   4    -0.318254353206E+03   -0.18830E+02   -0.18679E+02  8320   0.349E+01
DAV:   5    -0.318765467239E+03   -0.51111E+00   -0.50824E+00  8320   0.527E+00
SDA:   6     0.867731872455E+02    0.40554E+03   -0.50824E+00  8320   0.261E+04 0.000E+00
CGA:   7    -0.290316381130E+01   -0.89676E+02   -0.12480E+03  8320   0.108E+05-0.147E+04
CGA:   8     0.562678759637E+03    0.56558E+03   -0.71831E+03  8320   0.207E+05-0.296E+04
CGA:   9     0.277959948127E+04    0.22169E+04   -0.67376E+03  8320   0.195E+06-0.832E+05
CGA:  10     0.679433443309E+04    0.40147E+04   -0.13368E+05  8320   0.240E+06-0.132E+06
CGA:  11     0.490559004255E+04   -0.18887E+04   -0.16613E+05  8320   0.165E+06-0.158E+06
CGA:  12     0.187083118300E+04   -0.30348E+04   -0.10223E+05  8320   0.254E+05-0.136E+05
CGA:  13     0.868750575396E+03   -0.10021E+04   -0.95096E+03  8320   0.106E+05-0.656E+04
CGA:  14     0.164778901539E+02   -0.85227E+03   -0.25577E+03  8320   0.703E+04 0.139E+04
CGA:  15     0.248083592176E+03    0.23161E+03   -0.30148E+03  8320   0.251E+05-0.978E+04
CGA:  16     0.136596050290E+04    0.11179E+04   -0.11833E+04  8320   0.954E+05-0.387E+05
CGA:  17     0.231316061207E+04    0.94720E+03   -0.54966E+04  8320   0.152E+05-0.832E+04
CGA:  18     0.543941824971E+03   -0.17692E+04   -0.37991E+03  8320   0.304E+05 0.385E+05
CGA:  19     0.136539496343E+04    0.82145E+03   -0.12993E+04  8320   0.649E+05-0.333E+05
CGA:  20     0.215112521028E+04    0.78573E+03   -0.31979E+04  8320   0.168E+05-0.452E+04
CGA:  21     0.228218710249E+03   -0.19229E+04   -0.42962E+03  8320   0.104E+05 0.575E+04
CGA:  22     0.314177649652E+03    0.85959E+02   -0.43625E+03  8320   0.409E+05-0.208E+05
CGA:  23     0.154299153724E+04    0.12288E+04   -0.18706E+04  8320   0.420E+05-0.201E+05
CGA:  24     0.114064544916E+04   -0.40235E+03   -0.68135E+03  8320   0.680E+05-0.640E+05
CGA:  25     0.177285471910E+04    0.63221E+03   -0.29612E+04  8320   0.598E+05-0.397E+05
CGA:  26     0.134124957997E+04   -0.43161E+03   -0.23777E+04  8320   0.530E+05-0.554E+05
CGA:  27     0.164123482410E+04    0.29999E+03   -0.22261E+04  8320   0.172E+05-0.158E+05
CGA:  28    -0.979834015777E+01   -0.16510E+04   -0.26194E+03  8320   0.559E+04 0.649E+04
CGA:  29     0.396190912604E+02    0.49417E+02   -0.20160E+03  8320   0.171E+05-0.895E+04
CGA:  30    -0.982107204522E+02   -0.13783E+03   -0.36199E+03  8320   0.644E+04-0.871E+04
CGA:  31    -0.188429048638E+03   -0.90218E+02   -0.12089E+03  8320   0.922E+03-0.195E+04
CGA:  32    -0.195398935028E+03   -0.69699E+01   -0.41654E+01  8320   0.589E+03 0.431E+03
CGA:  33    -0.202271971117E+03   -0.68730E+01   -0.94512E+01  8320   0.156E+03-0.281E+03
CGA:  34    -0.204772012766E+03   -0.25000E+01   -0.19074E+01  8320   0.131E+03 0.248E+02
CGA:  35    -0.206907939507E+03   -0.21359E+01   -0.18111E+01  8320   0.566E+02 0.157E+02
CGA:  36    -0.209760221237E+03   -0.28523E+01   -0.27696E+01  8320   0.216E+03-0.117E+01
CGA:  37    -0.213668499338E+03   -0.39083E+01   -0.39238E+01  8320   0.168E+03 0.503E+02
CGA:  38    -0.216291969342E+03   -0.26235E+01   -0.17093E+01  8320   0.890E+02 0.665E+02
CGA:  39    -0.217076907441E+03   -0.78494E+00   -0.21098E+01  8320   0.437E+03-0.676E+02
CGA:  40    -0.217337883333E+03   -0.26098E+00   -0.10034E+02  8320   0.192E+03-0.119E+03
CGA:  41    -0.218750697457E+03   -0.14128E+01   -0.82868E+00  8320   0.103E+03 0.992E+02
CGA:  42    -0.219625215899E+03   -0.87452E+00   -0.48072E+00  8320   0.634E+02 0.841E+02
CGA:  43    -0.220166242692E+03   -0.54103E+00   -0.28966E+00  8320   0.412E+02 0.542E+02
CGA:  44    -0.220585836628E+03   -0.41959E+00   -0.23446E+00  8320   0.221E+02 0.313E+02
CGA:  45    -0.220944198965E+03   -0.35836E+00   -0.23828E+00  8320   0.953E+01 0.978E+01
CGA:  46    -0.221419036867E+03   -0.47484E+00   -0.45629E+00  8320   0.517E+02-0.176E+00
CGA:  47    -0.222367456443E+03   -0.94842E+00   -0.11517E+01  8320   0.140E+03 0.828E+01
CGA:  48    -0.221725224062E+03    0.64223E+00   -0.21396E+01  8320   0.278E+03-0.109E+03
CGA:  49    -0.224014535118E+03   -0.22893E+01   -0.39235E+01  8320   0.128E+03-0.929E+02
CGA:  50    -0.225686225147E+03   -0.16717E+01   -0.14395E+01  8320   0.305E+02 0.750E+01
CGA:  51    -0.226416750923E+03   -0.73053E+00   -0.76141E+00  8320   0.197E+02-0.324E+00
CGA:  52    -0.227317242001E+03   -0.90049E+00   -0.88205E+00  8320   0.284E+02 0.213E+01
CGA:  53    -0.227769327812E+03   -0.45209E+00   -0.50816E+00  8320   0.864E+01-0.234E+01
CGA:  54    -0.228177065992E+03   -0.40774E+00   -0.39057E+00  8320   0.104E+02 0.117E+01
CGA:  55    -0.228631226153E+03   -0.45416E+00   -0.45411E+00  8320   0.152E+02-0.787E-02
CGA:  56    -0.229779529091E+03   -0.11483E+01   -0.10175E+01  8320   0.541E+01 0.357E+01
CGA:  57    -0.230120115424E+03   -0.34059E+00   -0.33745E+00  8320   0.343E+01 0.191E+00
CGA:  58    -0.230438429178E+03   -0.31831E+00   -0.30729E+00  8320   0.473E+01 0.217E+00
CGA:  59    -0.230652588565E+03   -0.21416E+00   -0.21408E+00  8320   0.280E+01-0.256E-01
CGA:  60    -0.230846852478E+03   -0.19426E+00   -0.18371E+00  8320   0.829E+00 0.364E+00
CGA:  61    -0.231009066815E+03   -0.16221E+00   -0.16458E+00  8320   0.143E+01-0.290E-01
CGA:  62    -0.231088288555E+03   -0.79222E-01   -0.79229E-01  8320   0.135E+01-0.221E-02
CGA:  63    -0.231135814147E+03   -0.47526E-01   -0.46989E-01  8320   0.692E+00 0.264E-02
CGA:  64    -0.231218127920E+03   -0.82314E-01   -0.79907E-01  8320   0.851E+00 0.440E-01
CGA:  65    -0.231262699127E+03   -0.44571E-01   -0.44255E-01  8320   0.656E+00-0.233E-01
CGA:  66    -0.231290662646E+03   -0.27964E-01   -0.28126E-01  8320   0.294E+00 0.481E-02
CGA:  67    -0.231333874999E+03   -0.43212E-01   -0.42217E-01  8320   0.336E+00 0.120E-01
CGA:  68    -0.231365570271E+03   -0.31695E-01   -0.31728E-01  8320   0.607E+00-0.368E-03
CGA:  69    -0.231387087969E+03   -0.21518E-01   -0.20653E-01  8320   0.233E+00 0.638E-02
CGA:  70    -0.231417667755E+03   -0.30580E-01   -0.30457E-01  8320   0.203E+00 0.214E-02
CGA:  71    -0.231427198809E+03   -0.95311E-02   -0.96107E-02  8320   0.264E+00 0.116E-02
CGA:  72    -0.231442404906E+03   -0.15206E-01   -0.15234E-01  8320   0.143E+00 0.353E-02
CGA:  73    -0.231457674782E+03   -0.15270E-01   -0.15061E-01  8320   0.134E+00 0.413E-02
CGA:  74    -0.231464201586E+03   -0.65268E-02   -0.64631E-02  8320   0.218E+00-0.101E-02
CGA:  75    -0.231480986286E+03   -0.16785E-01   -0.17054E-01  8320   0.132E+00-0.120E-01
CGA:  76    -0.231489934473E+03   -0.89482E-02   -0.90748E-02  8320   0.261E+00-0.813E-02
CGA:  77    -0.231498658202E+03   -0.87237E-02   -0.90241E-02  8320   0.103E+00-0.352E-03
CGA:  78    -0.231505052634E+03   -0.63944E-02   -0.63943E-02  8320   0.180E+00-0.395E-02
SDA:  79    -0.231510415409E+03   -0.53628E-02   -0.52127E-02  8320   0.116E+00 0.218E-02
CGA:  80    -0.231517522361E+03   -0.71070E-02   -0.71071E-02  8320   0.630E-01-0.891E-04
CGA:  81    -0.231530091850E+03   -0.12569E-01   -0.14870E-01  8320   0.272E+00-0.213E-01
CGA:  82    -0.231539327318E+03   -0.92355E-02   -0.85160E-02  8320   0.428E+00 0.197E-04
CGA:  83    -0.231553742749E+03   -0.14415E-01   -0.13393E-01  8320   0.463E+00-0.177E-03
CGA:  84    -0.231561555341E+03   -0.78126E-02   -0.70921E-02  8320   0.148E+00 0.398E-01
CGA:  85    -0.231566131879E+03   -0.45765E-02   -0.44515E-02  8320   0.202E+00 0.272E-02
CGA:  86    -0.231569383662E+03   -0.32518E-02   -0.33834E-02  8320   0.949E-01-0.637E-02
CGA:  87    -0.231571821555E+03   -0.24379E-02   -0.25175E-02  8320   0.935E-01-0.162E-02
CGA:  88    -0.231573140346E+03   -0.13188E-02   -0.13669E-02  8320   0.445E-01-0.272E-02
CGA:  89    -0.231574638887E+03   -0.14985E-02   -0.15033E-02  8320   0.490E-01-0.264E-04
CGA:  90    -0.231575512293E+03   -0.87341E-03   -0.89606E-03  8320   0.395E-01-0.921E-03
CGA:  91    -0.231576787138E+03   -0.12748E-02   -0.12833E-02  8320   0.326E-01-0.403E-04
CGA:  92    -0.231577799381E+03   -0.10122E-02   -0.10099E-02  8320   0.587E-01 0.109E-04
CGA:  93    -0.231579314847E+03   -0.15155E-02   -0.15179E-02  8320   0.407E-01-0.492E-04
CGA:  94    -0.231580918916E+03   -0.16041E-02   -0.16050E-02  8320   0.681E-01 0.260E-04
CGA:  95    -0.231582267909E+03   -0.13490E-02   -0.13590E-02  8320   0.477E-01-0.221E-03
CGA:  96    -0.231583948423E+03   -0.16805E-02   -0.16780E-02  8320   0.382E-01-0.290E-04
CGA:  97    -0.231584758991E+03   -0.81057E-03   -0.81764E-03  8320   0.416E-01-0.205E-03
CGA:  98    -0.231586367113E+03   -0.16081E-02   -0.16074E-02  8320   0.453E-01-0.227E-04
CGA:  99    -0.231587854503E+03   -0.14874E-02   -0.14678E-02  8320   0.653E-01-0.112E-03
CGA: 100    -0.231589182092E+03   -0.13276E-02   -0.14172E-02  8320   0.312E-01-0.198E-02
CGA: 101    -0.231590405847E+03   -0.12238E-02   -0.12285E-02  8320   0.461E-01 0.667E-03
CGA: 102    -0.231591457883E+03   -0.10520E-02   -0.10166E-02  8320   0.324E-01 0.838E-03
CGA: 103    -0.231592643200E+03   -0.11853E-02   -0.11853E-02  8320   0.269E-01 0.770E-07
CGA: 104    -0.231593310640E+03   -0.66744E-03   -0.68521E-03  8320   0.289E-01-0.130E-03
CGA: 105    -0.231594215163E+03   -0.90452E-03   -0.89765E-03  8320   0.159E-01-0.130E-03
CGA: 106    -0.231594862233E+03   -0.64707E-03   -0.64712E-03  8320   0.199E-01-0.140E-03
CGA: 107    -0.231595357917E+03   -0.49568E-03   -0.50787E-03  8320   0.158E-01-0.735E-04
CGA: 108    -0.231596051756E+03   -0.69384E-03   -0.69473E-03  8320   0.120E-01-0.138E-03
CGA: 109    -0.231596679271E+03   -0.62751E-03   -0.63465E-03  8320   0.238E-01-0.419E-03
SDA: 110    -0.231597443863E+03   -0.76459E-03   -0.77530E-03  8320   0.259E-01 0.448E-03
CGA: 111    -0.231598713500E+03   -0.12696E-02   -0.12702E-02  8320   0.248E-01-0.447E-04
CGA: 112    -0.231599253460E+03   -0.53996E-03   -0.54182E-03  8320   0.153E-01-0.421E-04
CGA: 113    -0.231600520317E+03   -0.12669E-02   -0.12859E-02  8320   0.878E-02-0.449E-03
CGA: 114    -0.231601910489E+03   -0.13902E-02   -0.12922E-02  8320   0.291E-01 0.111E-02
CGA: 115    -0.231602522943E+03   -0.61245E-03   -0.53803E-03  8320   0.900E-02 0.360E-02
CGA: 116    -0.231603969114E+03   -0.14462E-02   -0.14565E-02  8320   0.243E-01-0.898E-03
CGA: 117    -0.231604805632E+03   -0.83652E-03   -0.86845E-03  8320   0.207E-01 0.173E-02
CGA: 118    -0.231605633188E+03   -0.82756E-03   -0.58892E-03  8320   0.322E-01 0.506E-02
CGA: 119    -0.231606391290E+03   -0.75810E-03   -0.51742E-03  8320   0.409E-01 0.172E-01
CGA: 120    -0.231606990345E+03   -0.59905E-03   -0.60776E-03  8320   0.183E-01-0.469E-03
CGA: 121    -0.231607748880E+03   -0.75854E-03   -0.75823E-03  8320   0.947E-02-0.313E-04
CGA: 122    -0.231609553108E+03   -0.18042E-02   -0.18275E-02  8320   0.166E-01-0.242E-03
CGA: 123    -0.231611052702E+03   -0.14996E-02   -0.16387E-02  8320   0.110E+00-0.293E-02
CGA: 124    -0.231613117791E+03   -0.20651E-02   -0.21114E-02  8320   0.877E-01 0.298E-02
CGA: 125    -0.231614775256E+03   -0.16575E-02   -0.22015E-02  8320   0.162E+00-0.111E-01
CGA: 126    -0.231619176467E+03   -0.44012E-02   -0.24256E-02  8320   0.955E-01 0.934E-01
CGA: 127    -0.231622963866E+03   -0.37874E-02   -0.37802E-02  8320   0.198E+00-0.150E-03
CGA: 128    -0.231627146117E+03   -0.41823E-02   -0.43628E-02  8320   0.921E-01-0.481E-02
CGA: 129    -0.231636606626E+03   -0.94605E-02   -0.10131E-01  8320   0.183E+00-0.114E-01
CGA: 130    -0.231641288060E+03   -0.46814E-02   -0.50244E-02  8320   0.301E+00-0.243E-02
CGA: 131    -0.231650639914E+03   -0.93519E-02   -0.81245E-02  8320   0.131E+00 0.209E-01
CGA: 132    -0.231656767023E+03   -0.61271E-02   -0.62849E-02  8320   0.169E+00 0.130E-01
CGA: 133    -0.231661091579E+03   -0.43246E-02   -0.36601E-02  8320   0.136E+00 0.222E-01
CGA: 134    -0.231669464188E+03   -0.83726E-02   -0.84180E-02  8320   0.230E+00-0.468E-02
CGA: 135    -0.231673481916E+03   -0.40177E-02   -0.50572E-02  8320   0.122E+00-0.179E-01
CGA: 136    -0.231680077478E+03   -0.65956E-02   -0.66641E-02  8320   0.125E+00-0.397E-02
CGA: 137    -0.231683550578E+03   -0.34731E-02   -0.35867E-02  8320   0.141E+00-0.613E-03
CGA: 138    -0.231691046980E+03   -0.74964E-02   -0.76149E-02  8320   0.122E+00-0.103E-01
CGA: 139    -0.231693559726E+03   -0.25127E-02   -0.26276E-02  8320   0.582E-01-0.249E-02
CGA: 140    -0.231696401469E+03   -0.28417E-02   -0.28513E-02  8320   0.586E-01-0.133E-02
CGA: 141    -0.231697682114E+03   -0.12806E-02   -0.13206E-02  8320   0.242E-01-0.832E-03
CGA: 142    -0.231699148823E+03   -0.14667E-02   -0.14772E-02  8320   0.527E-01-0.480E-03
CGA: 143    -0.231701127592E+03   -0.19788E-02   -0.20129E-02  8320   0.366E-01 0.169E-02
CGA: 144    -0.231702463246E+03   -0.13357E-02   -0.13065E-02  8320   0.314E-01-0.464E-03
CGA: 145    -0.231703468952E+03   -0.10057E-02   -0.10257E-02  8320   0.231E-01 0.268E-03
CGA: 146    -0.231705062871E+03   -0.15939E-02   -0.17057E-02  8320   0.592E-01-0.357E-02
CGA: 147    -0.231706345389E+03   -0.12825E-02   -0.14525E-02  8320   0.157E-01-0.203E-03
CGA: 148    -0.231707363311E+03   -0.10179E-02   -0.97377E-03  8320   0.429E-01 0.197E-02
CGA: 149    -0.231708507741E+03   -0.11444E-02   -0.94768E-03  8320   0.116E-01 0.661E-02
CGA: 150    -0.231709748644E+03   -0.12409E-02   -0.23415E-02  8320   0.142E+00-0.127E-01
CGA: 151    -0.231711350921E+03   -0.16023E-02   -0.15930E-02  8320   0.816E-02 0.679E-03
CGA: 152    -0.231712197959E+03   -0.84704E-03   -0.84723E-03  8320   0.884E-02-0.633E-05
CGA: 153    -0.231712917682E+03   -0.71972E-03   -0.73231E-03  8320   0.144E-01-0.363E-03
CGA: 154    -0.231713296700E+03   -0.37902E-03   -0.39445E-03  8320   0.161E-01-0.234E-03
CGA: 155    -0.231714341650E+03   -0.10450E-02   -0.11089E-02  8320   0.156E-01-0.297E-02
CGA: 156    -0.231714767089E+03   -0.42544E-03   -0.47546E-03  8320   0.129E-01 0.293E-03
CGA: 157    -0.231715227614E+03   -0.46053E-03   -0.38302E-03  8320   0.110E-01 0.115E-02
CGA: 158    -0.231715813044E+03   -0.58543E-03   -0.58626E-03  8320   0.716E-02 0.202E-03
CGA: 159    -0.231716264948E+03   -0.45190E-03   -0.43927E-03  8320   0.813E-02 0.852E-03
CGA: 160    -0.231716439354E+03   -0.17441E-03   -0.14829E-03  8320   0.529E-02 0.125E-02
CGA: 161    -0.231716807508E+03   -0.36815E-03   -0.37707E-03  8320   0.135E-01-0.536E-03
CGA: 162    -0.231716974053E+03   -0.16654E-03   -0.20237E-03  8320   0.605E-02-0.147E-02
CGA: 163    -0.231717137754E+03   -0.16370E-03   -0.17135E-03  8320   0.101E-01-0.469E-05
CGA: 164    -0.231717322684E+03   -0.18493E-03   -0.15631E-03  8320   0.396E-02 0.145E-02
CGA: 165    -0.231717453473E+03   -0.13079E-03   -0.12767E-03  8320   0.727E-02 0.301E-04
CGA: 166    -0.231717583224E+03   -0.12975E-03   -0.13583E-03  8320   0.436E-02-0.191E-03
CGA: 167    -0.231717657229E+03   -0.74006E-04   -0.77527E-04  8320   0.606E-02-0.115E-03
CGA: 168    -0.231717892742E+03   -0.23551E-03   -0.23541E-03  8320   0.618E-02-0.594E-05
CGA: 169    -0.231717961042E+03   -0.68299E-04   -0.62575E-04  8320   0.277E-02 0.493E-03
CGA: 170    -0.231718041601E+03   -0.80559E-04   -0.79438E-04  8320   0.574E-02 0.627E-05
CGA: 171    -0.231718126330E+03   -0.84729E-04   -0.86931E-04  8320   0.344E-02-0.935E-04
CGA: 172    -0.231718173802E+03   -0.47473E-04   -0.49306E-04  8320   0.409E-02-0.864E-04
CGA: 173    -0.231718317506E+03   -0.14370E-03   -0.14402E-03  8320   0.801E-02 0.962E-04
CGA: 174    -0.231718409261E+03   -0.91755E-04   -0.81762E-04  8320   0.305E-02 0.836E-03
CGA: 175    -0.231718469542E+03   -0.60281E-04   -0.58610E-04  8320   0.484E-02 0.510E-04
CGA: 176    -0.231718552486E+03   -0.82944E-04   -0.82251E-04  8320   0.454E-02 0.228E-04
CGA: 177    -0.231718593269E+03   -0.40783E-04   -0.43149E-04  8320   0.203E-02-0.206E-03
CGA: 178    -0.231718630108E+03   -0.36839E-04   -0.37469E-04  8320   0.407E-02-0.115E-04
CGA: 179    -0.231718720265E+03   -0.90158E-04   -0.90051E-04  8320   0.340E-02-0.119E-05
CGA: 180    -0.231718754460E+03   -0.34195E-04   -0.32903E-04  8320   0.183E-02 0.102E-03
SDA: 181    -0.231718798223E+03   -0.43763E-04   -0.43428E-04  8320   0.424E-02-0.776E-05
CGA: 182    -0.231718853180E+03   -0.54957E-04   -0.54974E-04  8320   0.147E-02-0.301E-06
CGA: 183    -0.231718979051E+03   -0.12587E-03   -0.12584E-03  8320   0.125E-02 0.151E-06
CGA: 184    -0.231719126605E+03   -0.14755E-03   -0.14776E-03  8320   0.169E-02-0.338E-05
CGA: 185    -0.231719234746E+03   -0.10814E-03   -0.10711E-03  8320   0.209E-02 0.348E-04
CGA: 186    -0.231719267216E+03   -0.32470E-04   -0.32254E-04  8320   0.576E-03 0.939E-05
CGA: 187    -0.231719304830E+03   -0.37614E-04   -0.37532E-04  8320   0.386E-03 0.268E-05
CGA: 188    -0.231719340471E+03   -0.35641E-04   -0.35878E-04  8320   0.869E-03-0.480E-05
CGA: 189    -0.231719353828E+03   -0.13357E-04   -0.13548E-04  8320   0.218E-03-0.915E-05
CGA: 190    -0.231719379738E+03   -0.25910E-04   -0.26183E-04  8320   0.176E-03-0.379E-05
CGA: 191    -0.231719386223E+03   -0.64853E-05   -0.64960E-05  8320   0.377E-03 0.614E-06
CGA: 192    -0.231719403551E+03   -0.17327E-04   -0.17339E-04  8320   0.106E-03-0.252E-05
CGA: 193    -0.231719409199E+03   -0.56488E-05   -0.56422E-05  8320   0.223E-03 0.323E-06
   1 F= -.23171941E+03 E0= -.23170049E+03  d E =-.231719E+03  mag=     7.1702
       N       E                     dE             d eps       ncg     rms          ort
SDA:   1    -0.231716690474E+03    0.27131E-02    0.00000E+00  8320   0.220E+00 0.000E+00
CGA:   2    -0.231718988062E+03   -0.22976E-02   -0.23087E-02  8320   0.164E-01-0.982E-03
CGA:   3    -0.231719411556E+03   -0.42349E-03   -0.42381E-03  8320   0.793E-03-0.546E-05
CGA:   4    -0.231719481959E+03   -0.70403E-04   -0.70285E-04  8320   0.956E-03 0.246E-05
CGA:   5    -0.231719499421E+03   -0.17462E-04   -0.17472E-04  8320   0.616E-03 0.728E-06
CGA:   6    -0.231719540779E+03   -0.41358E-04   -0.41326E-04  8320   0.302E-03 0.124E-05
CGA:   7    -0.231719565107E+03   -0.24328E-04   -0.24301E-04  8320   0.169E-03 0.704E-06
CGA:   8    -0.231719569014E+03   -0.39069E-05   -0.39083E-05  8320   0.181E-03 0.490E-07
   2 F= -.23171957E+03 E0= -.23170066E+03  d E =-.159815E-03  mag=     7.1700
       N       E                     dE             d eps       ncg     rms          ort
SDA:   1    -0.231718788688E+03    0.77642E-03    0.00000E+00  8320   0.427E-01 0.000E+00
CGA:   2    -0.231719311020E+03   -0.52233E-03   -0.52161E-03  8320   0.892E-02 0.473E-04
CGA:   3    -0.231719585534E+03   -0.27451E-03   -0.27458E-03  8320   0.638E-03 0.174E-05
CGA:   4    -0.231719613906E+03   -0.28373E-04   -0.28375E-04  8320   0.192E-03-0.850E-06
CGA:   5    -0.231719634442E+03   -0.20536E-04   -0.20531E-04  8320   0.382E-03 0.689E-07
CGA:   6    -0.231719640819E+03   -0.63773E-05   -0.63752E-05  8320   0.168E-03-0.127E-06
   3 F= -.23171964E+03 E0= -.23170075E+03  d E =-.718052E-04  mag=     7.1699
       N       E                     dE             d eps       ncg     rms          ort
SDA:   1    -0.231636359694E+03    0.83275E-01    0.00000E+00  8320   0.312E+00 0.000E+00
CGA:   2    -0.231662558999E+03   -0.26199E-01   -0.26174E-01  8320   0.521E+00 0.643E-03
CGA:   3    -0.231674902060E+03   -0.12343E-01   -0.12328E-01  8320   0.523E+00 0.144E-03
CGA:   4    -0.231702341860E+03   -0.27440E-01   -0.27433E-01  8320   0.178E+00 0.623E-03
CGA:   5    -0.231712451327E+03   -0.10109E-01   -0.10124E-01  8320   0.618E-01-0.883E-03
CGA:   6    -0.231717079197E+03   -0.46279E-02   -0.46299E-02  8320   0.920E-01-0.598E-04
CGA:   7    -0.231718761430E+03   -0.16822E-02   -0.16837E-02  8320   0.498E-01-0.496E-04
CGA:   8    -0.231721097530E+03   -0.23361E-02   -0.23361E-02  8320   0.595E-02 0.370E-04
CGA:   9    -0.231721852894E+03   -0.75536E-03   -0.75544E-03  8320   0.368E-02-0.167E-05
CGA:  10    -0.231722030357E+03   -0.17746E-03   -0.17747E-03  8320   0.671E-02 0.130E-05
CGA:  11    -0.231722163604E+03   -0.13325E-03   -0.13333E-03  8320   0.158E-02-0.211E-05
CGA:  12    -0.231722261630E+03   -0.98025E-04   -0.98003E-04  8320   0.986E-03 0.159E-05
CGA:  13    -0.231722351012E+03   -0.89383E-04   -0.89401E-04  8320   0.939E-03-0.445E-06
CGA:  14    -0.231722366871E+03   -0.15859E-04   -0.15858E-04  8320   0.507E-03 0.149E-06
CGA:  15    -0.231722397677E+03   -0.30806E-04   -0.30801E-04  8320   0.216E-03 0.440E-06
CGA:  16    -0.231722421669E+03   -0.23991E-04   -0.23940E-04  8320   0.265E-03 0.848E-06
CGA:  17    -0.231722426840E+03   -0.51714E-05   -0.51839E-05  8320   0.191E-03 0.323E-06
   4 F= -.23172243E+03 E0= -.23170353E+03  d E =-.278602E-02  mag=     7.1581
       N       E                     dE             d eps       ncg     rms          ort
SDA:   1    -0.231569196657E+03    0.15323E+00    0.00000E+00  8320   0.589E+00 0.000E+00
CGA:   2    -0.231607877563E+03   -0.38681E-01   -0.38575E-01  8320   0.123E+01 0.546E-02
CGA:   3    -0.231634536342E+03   -0.26659E-01   -0.26829E-01  8320   0.753E+00-0.595E-02
CGA:   4    -0.231685678238E+03   -0.51142E-01   -0.51141E-01  8320   0.453E+00 0.572E-04
CGA:   5    -0.231706902779E+03   -0.21225E-01   -0.21208E-01  8320   0.292E+00-0.139E-02
CGA:   6    -0.231711021373E+03   -0.41186E-02   -0.41106E-02  8320   0.691E-01 0.345E-03
CGA:   7    -0.231720639458E+03   -0.96181E-02   -0.96193E-02  8320   0.513E-01-0.190E-04
CGA:   8    -0.231721880520E+03   -0.12411E-02   -0.12398E-02  8320   0.463E-01 0.348E-04
CGA:   9    -0.231723176449E+03   -0.12959E-02   -0.12978E-02  8320   0.896E-02-0.215E-04
CGA:  10    -0.231723931715E+03   -0.75527E-03   -0.75509E-03  8320   0.101E-01 0.533E-05
CGA:  11    -0.231724097001E+03   -0.16529E-03   -0.16545E-03  8320   0.447E-02-0.566E-05
CGA:  12    -0.231724455847E+03   -0.35885E-03   -0.35878E-03  8320   0.207E-02 0.223E-05
CGA:  13    -0.231724542507E+03   -0.86660E-04   -0.86666E-04  8320   0.408E-02-0.137E-06
CGA:  14    -0.231724660510E+03   -0.11800E-03   -0.11797E-03  8320   0.123E-02 0.991E-08
CGA:  15    -0.231724726610E+03   -0.66100E-04   -0.66097E-04  8320   0.716E-03 0.857E-06
CGA:  16    -0.231724747055E+03   -0.20445E-04   -0.20448E-04  8320   0.946E-03 0.355E-06
CGA:  17    -0.231724787682E+03   -0.40627E-04   -0.40631E-04  8320   0.360E-03 0.637E-06
CGA:  18    -0.231724817024E+03   -0.29342E-04   -0.29288E-04  8320   0.594E-03 0.169E-05
CGA:  19    -0.231724826346E+03   -0.93226E-05   -0.93486E-05  8320   0.162E-03 0.426E-06
CGA:  20    -0.231724847053E+03   -0.20707E-04   -0.20538E-04  8320   0.217E-03 0.217E-05
CGA:  21    -0.231724852420E+03   -0.53666E-05   -0.53841E-05  8320   0.228E-03 0.512E-06
CGA:  22    -0.231724863186E+03   -0.10766E-04   -0.10771E-04  8320   0.915E-04 0.109E-05
CGA:  23    -0.231724869266E+03   -0.60808E-05   -0.60812E-05  8320   0.158E-03-0.348E-07
   5 F= -.23172487E+03 E0= -.23170595E+03  d E =-.244243E-02  mag=     7.1399
       N       E                     dE             d eps       ncg     rms          ort
SDA:   1    -0.231304204940E+03    0.42066E+00    0.00000E+00  8320   0.126E+02 0.000E+00
CGA:   2    -0.231432815112E+03   -0.12861E+00   -0.14768E+00  8320   0.162E+01-0.161E+01
CGA:   3    -0.231499259874E+03   -0.66445E-01   -0.66419E-01  8320   0.190E+01-0.731E-02
CGA:   4    -0.231555761645E+03   -0.56502E-01   -0.56314E-01  8320   0.173E+01 0.116E-02
CGA:   5    -0.231637644787E+03   -0.81883E-01   -0.81882E-01  8320   0.129E+01-0.152E-02
CGA:   6    -0.231666217982E+03   -0.28573E-01   -0.28826E-01  8320   0.687E+00-0.727E-02
CGA:   7    -0.231693401176E+03   -0.27183E-01   -0.27182E-01  8320   0.368E+00-0.117E-03
CGA:   8    -0.231701219440E+03   -0.78183E-02   -0.78393E-02  8320   0.205E+00-0.637E-03
CGA:   9    -0.231714245848E+03   -0.13026E-01   -0.13030E-01  8320   0.264E+00-0.156E-03
CGA:  10    -0.231719108347E+03   -0.48625E-02   -0.48753E-02  8320   0.548E-01-0.512E-03
CGA:  11    -0.231721168999E+03   -0.20607E-02   -0.20600E-02  8320   0.544E-01-0.288E-04
CGA:  12    -0.231722557931E+03   -0.13889E-02   -0.13886E-02  8320   0.240E-01 0.267E-05
CGA:  13    -0.231723549370E+03   -0.99144E-03   -0.99138E-03  8320   0.256E-01-0.168E-04
CGA:  14    -0.231724180072E+03   -0.63070E-03   -0.63098E-03  8320   0.107E-01-0.530E-05
CGA:  15    -0.231724635851E+03   -0.45578E-03   -0.45578E-03  8320   0.120E-01 0.145E-05
CGA:  16    -0.231724923028E+03   -0.28718E-03   -0.28735E-03  8320   0.428E-02 0.697E-06
CGA:  17    -0.231725125125E+03   -0.20210E-03   -0.20207E-03  8320   0.721E-02 0.373E-05
CGA:  18    -0.231725337702E+03   -0.21258E-03   -0.21262E-03  8320   0.258E-02 0.258E-05
CGA:  19    -0.231725422450E+03   -0.84748E-04   -0.84761E-04  8320   0.273E-02 0.189E-05
CGA:  20    -0.231725514173E+03   -0.91722E-04   -0.91735E-04  8320   0.138E-02 0.264E-05
CGA:  21    -0.231725561659E+03   -0.47486E-04   -0.47494E-04  8320   0.164E-02 0.166E-05
CGA:  22    -0.231725623688E+03   -0.62029E-04   -0.62034E-04  8320   0.969E-03 0.257E-05
CGA:  23    -0.231725654397E+03   -0.30709E-04   -0.30723E-04  8320   0.984E-03 0.187E-05
CGA:  24    -0.231725690517E+03   -0.36121E-04   -0.36130E-04  8320   0.536E-03 0.304E-05
CGA:  25    -0.231725707341E+03   -0.16823E-04   -0.16834E-04  8320   0.603E-03 0.143E-05
CGA:  26    -0.231725735781E+03   -0.28440E-04   -0.28414E-04  8320   0.448E-03 0.301E-05
CGA:  27    -0.231725747323E+03   -0.11542E-04   -0.11560E-04  8320   0.326E-03 0.147E-05
CGA:  28    -0.231725761002E+03   -0.13679E-04   -0.13671E-04  8320   0.223E-03 0.227E-05
CGA:  29    -0.231725767041E+03   -0.60393E-05   -0.60493E-05  8320   0.187E-03 0.884E-06
   6 F= -.23172577E+03 E0= -.23170683E+03  d E =-.897775E-03  mag=     7.1174
       N       E                     dE             d eps       ncg     rms          ort
SDA:   1    -0.231665386823E+03    0.60374E-01    0.00000E+00  8320   0.109E+01 0.000E+00
CGA:   2    -0.231677518918E+03   -0.12132E-01   -0.12296E-01  8320   0.193E+00-0.128E-01
CGA:   3    -0.231699553610E+03   -0.22035E-01   -0.21989E-01  8320   0.214E+00 0.625E-03
CGA:   4    -0.231708062898E+03   -0.85093E-02   -0.85093E-02  8320   0.222E+00-0.671E-05
CGA:   5    -0.231712310174E+03   -0.42473E-02   -0.42410E-02  8320   0.887E-01 0.158E-03
CGA:   6    -0.231720175760E+03   -0.78656E-02   -0.78703E-02  8320   0.490E-01-0.100E-03
CGA:   7    -0.231721909179E+03   -0.17334E-02   -0.17329E-02  8320   0.809E-01-0.248E-04
CGA:   8    -0.231724224825E+03   -0.23156E-02   -0.23169E-02  8320   0.115E-01-0.555E-05
CGA:   9    -0.231725071863E+03   -0.84704E-03   -0.84731E-03  8320   0.178E-01-0.802E-05
CGA:  10    -0.231725390814E+03   -0.31895E-03   -0.31916E-03  8320   0.735E-02-0.104E-04
CGA:  11    -0.231725743833E+03   -0.35302E-03   -0.35304E-03  8320   0.261E-02-0.178E-05
CGA:  12    -0.231725866119E+03   -0.12229E-03   -0.12230E-03  8320   0.395E-02-0.180E-05
CGA:  13    -0.231725945468E+03   -0.79349E-04   -0.79314E-04  8320   0.127E-02-0.135E-06
CGA:  14    -0.231726068574E+03   -0.12311E-03   -0.12297E-03  8320   0.876E-03 0.244E-05
CGA:  15    -0.231726083819E+03   -0.15245E-04   -0.15246E-04  8320   0.490E-03 0.385E-06
CGA:  16    -0.231726114627E+03   -0.30809E-04   -0.30801E-04  8320   0.383E-03 0.379E-06
CGA:  17    -0.231726138017E+03   -0.23389E-04   -0.23371E-04  8320   0.679E-03 0.104E-05
CGA:  18    -0.231726150209E+03   -0.12192E-04   -0.12209E-04  8320   0.157E-03 0.443E-06
CGA:  19    -0.231726161393E+03   -0.11184E-04   -0.11175E-04  8320   0.143E-03 0.336E-06
CGA:  20    -0.231726165455E+03   -0.40620E-05   -0.40668E-05  8320   0.176E-03 0.287E-06
   7 F= -.23172617E+03 E0= -.23170721E+03  d E =-.398413E-03  mag=     7.1145
       N       E                     dE             d eps       ncg     rms          ort
SDA:   1    -0.231486585011E+03    0.23958E+00    0.00000E+00  8320   0.809E+00 0.000E+00
CGA:   2    -0.231539564340E+03   -0.52979E-01   -0.53342E-01  8320   0.226E+01-0.141E-01
CGA:   3    -0.231590573526E+03   -0.51009E-01   -0.49531E-01  8320   0.144E+01 0.373E-01
CGA:   4    -0.231662844131E+03   -0.72271E-01   -0.72077E-01  8320   0.830E+00 0.207E-01
CGA:   5    -0.231676143156E+03   -0.13299E-01   -0.13313E-01  8320   0.480E+00-0.905E-03
CGA:   6    -0.231703158251E+03   -0.27015E-01   -0.27011E-01  8320   0.222E+00 0.218E-03
CGA:   7    -0.231710404791E+03   -0.72465E-02   -0.72532E-02  8320   0.356E+00 0.799E-04
CGA:   8    -0.231719111521E+03   -0.87067E-02   -0.86989E-02  8320   0.568E-01 0.390E-04
CGA:   9    -0.231722112068E+03   -0.30005E-02   -0.30033E-02  8320   0.700E-01-0.172E-03
CGA:  10    -0.231723208599E+03   -0.10965E-02   -0.10970E-02  8320   0.263E-01-0.251E-04
CGA:  11    -0.231724895782E+03   -0.16872E-02   -0.16876E-02  8320   0.145E-01-0.150E-04
CGA:  12    -0.231725249904E+03   -0.35412E-03   -0.35404E-03  8320   0.166E-01 0.181E-05
CGA:  13    -0.231725763315E+03   -0.51341E-03   -0.51333E-03  8320   0.417E-02 0.347E-06
CGA:  14    -0.231726036663E+03   -0.27335E-03   -0.27329E-03  8320   0.865E-02 0.218E-05
CGA:  15    -0.231726178528E+03   -0.14186E-03   -0.14199E-03  8320   0.259E-02-0.320E-05
CGA:  16    -0.231726342713E+03   -0.16419E-03   -0.16412E-03  8320   0.131E-02 0.285E-05
CGA:  17    -0.231726371546E+03   -0.28832E-04   -0.28847E-04  8320   0.139E-02 0.164E-06
CGA:  18    -0.231726435030E+03   -0.63484E-04   -0.63481E-04  8320   0.721E-03 0.669E-06
CGA:  19    -0.231726479773E+03   -0.44744E-04   -0.44707E-04  8320   0.100E-02 0.158E-05
CGA:  20    -0.231726494570E+03   -0.14797E-04   -0.14809E-04  8320   0.287E-03 0.208E-06
CGA:  21    -0.231726519710E+03   -0.25140E-04   -0.25117E-04  8320   0.242E-03 0.442E-06
CGA:  22    -0.231726527281E+03   -0.75710E-05   -0.75819E-05  8320   0.402E-03 0.835E-06
CGA:  23    -0.231726541144E+03   -0.13864E-04   -0.13881E-04  8320   0.138E-03 0.203E-05
CGA:  24    -0.231726550163E+03   -0.90187E-05   -0.89991E-05  8320   0.148E-03 0.825E-06
   8 F= -.23172655E+03 E0= -.23170759E+03  d E =-.384708E-03  mag=     7.1129
       N       E                     dE             d eps       ncg     rms          ort
SDA:   1    -0.231536009813E+03    0.19053E+00    0.00000E+00  8320   0.711E+00 0.000E+00
CGA:   2    -0.231554695447E+03   -0.18686E-01   -0.18629E-01  8320   0.114E+01 0.140E-03
CGA:   3    -0.231653646600E+03   -0.98951E-01   -0.10028E+00  8320   0.749E+00-0.326E-01
CGA:   4    -0.231701065440E+03   -0.47419E-01   -0.47175E-01  8320   0.211E+00 0.899E-02
CGA:   5    -0.231708559056E+03   -0.74936E-02   -0.75352E-02  8320   0.305E+00 0.113E-02
CGA:   6    -0.231716045356E+03   -0.74863E-02   -0.75322E-02  8320   0.101E+00-0.625E-03
CGA:   7    -0.231722361555E+03   -0.63162E-02   -0.63128E-02  8320   0.519E-01 0.142E-03
CGA:   8    -0.231723475162E+03   -0.11136E-02   -0.11146E-02  8320   0.403E-01-0.300E-04
CGA:   9    -0.231724990206E+03   -0.15150E-02   -0.15146E-02  8320   0.108E-01-0.301E-04
CGA:  10    -0.231725713177E+03   -0.72297E-03   -0.72283E-03  8320   0.231E-01 0.522E-05
CGA:  11    -0.231726144780E+03   -0.43160E-03   -0.43132E-03  8320   0.559E-02 0.146E-04
CGA:  12    -0.231726480021E+03   -0.33524E-03   -0.33510E-03  8320   0.285E-02 0.649E-05
CGA:  13    -0.231726545044E+03   -0.65023E-04   -0.65033E-04  8320   0.272E-02 0.893E-06
CGA:  14    -0.231726697532E+03   -0.15249E-03   -0.15243E-03  8320   0.149E-02 0.368E-05
CGA:  15    -0.231726760126E+03   -0.62595E-04   -0.62597E-04  8320   0.141E-02 0.975E-06
CGA:  16    -0.231726784825E+03   -0.24699E-04   -0.24711E-04  8320   0.413E-03-0.163E-06
CGA:  17    -0.231726823963E+03   -0.39138E-04   -0.39079E-04  8320   0.446E-03 0.101E-05
CGA:  18    -0.231726832178E+03   -0.82143E-05   -0.82219E-05  8320   0.261E-03 0.108E-06
CGA:  19    -0.231726851781E+03   -0.19603E-04   -0.19566E-04  8320   0.181E-03 0.111E-05
CGA:  20    -0.231726857368E+03   -0.55869E-05   -0.55954E-05  8320   0.209E-03 0.495E-06
   9 F= -.23172686E+03 E0= -.23170789E+03  d E =-.307205E-03  mag=     7.1099
       N       E                     dE             d eps       ncg     rms          ort
SDA:   1    -0.231678549961E+03    0.48302E-01    0.00000E+00  8320   0.620E+00 0.000E+00
CGA:   2    -0.231686290431E+03   -0.77405E-02   -0.76715E-02  8320   0.165E+00 0.388E-02
CGA:   3    -0.231697225142E+03   -0.10935E-01   -0.10946E-01  8320   0.206E+00-0.421E-03
CGA:   4    -0.231717877967E+03   -0.20653E-01   -0.20647E-01  8320   0.111E+00 0.111E-03
CGA:   5    -0.231720256231E+03   -0.23783E-02   -0.23758E-02  8320   0.104E+00 0.607E-04
CGA:   6    -0.231724472125E+03   -0.42159E-02   -0.42171E-02  8320   0.153E-01 0.119E-03
CGA:   7    -0.231726239850E+03   -0.17677E-02   -0.17703E-02  8320   0.859E-02-0.394E-04
CGA:   8    -0.231726712365E+03   -0.47252E-03   -0.47241E-03  8320   0.972E-02 0.959E-05
CGA:   9    -0.231726875878E+03   -0.16351E-03   -0.16365E-03  8320   0.380E-02-0.601E-05
CGA:  10    -0.231727096987E+03   -0.22111E-03   -0.22112E-03  8320   0.150E-02-0.463E-06
CGA:  11    -0.231727194187E+03   -0.97200E-04   -0.97237E-04  8320   0.813E-03-0.215E-05
CGA:  12    -0.231727225860E+03   -0.31673E-04   -0.31672E-04  8320   0.150E-02 0.193E-07
CGA:  13    -0.231727266719E+03   -0.40859E-04   -0.40865E-04  8320   0.364E-03 0.580E-06
CGA:  14    -0.231727297569E+03   -0.30850E-04   -0.30809E-04  8320   0.105E-03 0.111E-05
CGA:  15    -0.231727302454E+03   -0.48843E-05   -0.48846E-05  8320   0.267E-03 0.135E-06
  10 F= -.23172730E+03 E0= -.23170833E+03  d E =-.445086E-03  mag=     7.1077
       N       E                     dE             d eps       ncg     rms          ort
SDA:   1    -0.231692868156E+03    0.34429E-01    0.00000E+00  8320   0.252E+00 0.000E+00
CGA:   2    -0.231697205315E+03   -0.43372E-02   -0.43260E-02  8320   0.174E+00 0.408E-03
CGA:   3    -0.231708556110E+03   -0.11351E-01   -0.11319E-01  8320   0.114E+00 0.131E-02
CGA:   4    -0.231717891135E+03   -0.93350E-02   -0.93425E-02  8320   0.843E-01-0.200E-03
CGA:   5    -0.231722870106E+03   -0.49790E-02   -0.49806E-02  8320   0.654E-01-0.112E-03
CGA:   6    -0.231723920282E+03   -0.10502E-02   -0.10475E-02  8320   0.288E-01 0.121E-03
CGA:   7    -0.231725938340E+03   -0.20181E-02   -0.20190E-02  8320   0.110E-01-0.347E-04
CGA:   8    -0.231726739432E+03   -0.80109E-03   -0.80104E-03  8320   0.943E-02 0.111E-05
CGA:   9    -0.231726879565E+03   -0.14013E-03   -0.14032E-03  8320   0.326E-02-0.112E-04
CGA:  10    -0.231727103774E+03   -0.22421E-03   -0.22420E-03  8320   0.159E-02 0.845E-06
CGA:  11    -0.231727199749E+03   -0.95975E-04   -0.95973E-04  8320   0.205E-02 0.514E-07
CGA:  12    -0.231727233074E+03   -0.33324E-04   -0.33305E-04  8320   0.629E-03 0.870E-06
CGA:  13    -0.231727281167E+03   -0.48094E-04   -0.48090E-04  8320   0.484E-03 0.594E-07
CGA:  14    -0.231727305595E+03   -0.24427E-04   -0.24427E-04  8320   0.518E-03-0.160E-06
CGA:  15    -0.231727313997E+03   -0.84024E-05   -0.84013E-05  8320   0.153E-03-0.175E-06
CGA:  16    -0.231727328157E+03   -0.14161E-04   -0.14144E-04  8320   0.811E-04 0.373E-06
CGA:  17    -0.231727331599E+03   -0.34419E-05   -0.34431E-05  8320   0.195E-03 0.135E-06
  11 F= -.23172733E+03 E0= -.23170837E+03  d E =-.291456E-04  mag=     7.1065
       N       E                     dE             d eps       ncg     rms          ort
SDA:   1    -0.231622901370E+03    0.10443E+00    0.00000E+00  8320   0.461E+00 0.000E+00
CGA:   2    -0.231635878096E+03   -0.12977E-01   -0.12976E-01  8320   0.723E+00-0.847E-04
CGA:   3    -0.231673546990E+03   -0.37669E-01   -0.37647E-01  8320   0.480E+00 0.313E-02
CGA:   4    -0.231699887743E+03   -0.26341E-01   -0.26358E-01  8320   0.161E+00-0.162E-02
CGA:   5    -0.231709127194E+03   -0.92395E-02   -0.92364E-02  8320   0.412E+00 0.225E-03
CGA:   6    -0.231718121650E+03   -0.89945E-02   -0.89600E-02  8320   0.758E-01 0.917E-03
CGA:   7    -0.231723250097E+03   -0.51284E-02   -0.51299E-02  8320   0.306E-01-0.567E-04
CGA:   8    -0.231724298604E+03   -0.10485E-02   -0.10481E-02  8320   0.476E-01-0.460E-05
CGA:   9    -0.231725610480E+03   -0.13119E-02   -0.13131E-02  8320   0.901E-02-0.180E-04
CGA:  10    -0.231726340951E+03   -0.73047E-03   -0.73108E-03  8320   0.792E-02-0.157E-04
CGA:  11    -0.231726483666E+03   -0.14271E-03   -0.14282E-03  8320   0.454E-02-0.416E-05
CGA:  12    -0.231726711826E+03   -0.22816E-03   -0.22818E-03  8320   0.220E-02-0.410E-05
CGA:  13    -0.231726849470E+03   -0.13764E-03   -0.13764E-03  8320   0.263E-02 0.519E-06
CGA:  14    -0.231726897663E+03   -0.48192E-04   -0.48179E-04  8320   0.129E-02 0.145E-05
CGA:  15    -0.231726969664E+03   -0.72001E-04   -0.71993E-04  8320   0.389E-03 0.762E-06
CGA:  16    -0.231726993758E+03   -0.24094E-04   -0.24088E-04  8320   0.118E-02 0.432E-06
CGA:  17    -0.231727023381E+03   -0.29623E-04   -0.29643E-04  8320   0.227E-03 0.421E-06
CGA:  18    -0.231727042695E+03   -0.19314E-04   -0.19291E-04  8320   0.263E-03 0.566E-06
CGA:  19    -0.231727047707E+03   -0.50114E-05   -0.50160E-05  8320   0.160E-03 0.101E-06
  12 F= -.23172705E+03 E0= -.23170810E+03  d E =0.283893E-03  mag=     7.1042
       N       E                     dE             d eps       ncg     rms          ort
SDA:   1    -0.231630986594E+03    0.96056E-01    0.00000E+00  8320   0.663E+00 0.000E+00
CGA:   2    -0.231644033019E+03   -0.13046E-01   -0.12995E-01  8320   0.557E+00 0.103E-02
CGA:   3    -0.231672062485E+03   -0.28029E-01   -0.28038E-01  8320   0.412E+00-0.113E-02
CGA:   4    -0.231698650698E+03   -0.26588E-01   -0.26584E-01  8320   0.155E+00 0.174E-03
CGA:   5    -0.231709285712E+03   -0.10635E-01   -0.10636E-01  8320   0.398E+00-0.357E-04
CGA:   6    -0.231716561120E+03   -0.72754E-02   -0.72214E-02  8320   0.701E-01 0.211E-02
CGA:   7    -0.231723190094E+03   -0.66290E-02   -0.66266E-02  8320   0.309E-01 0.497E-04
CGA:   8    -0.231725131380E+03   -0.19413E-02   -0.19421E-02  8320   0.189E-01-0.386E-04
CGA:   9    -0.231725541386E+03   -0.41001E-03   -0.41054E-03  8320   0.176E-01-0.158E-04
CGA:  10    -0.231726419966E+03   -0.87858E-03   -0.87861E-03  8320   0.448E-02-0.973E-05
CGA:  11    -0.231726672064E+03   -0.25210E-03   -0.25215E-03  8320   0.295E-02-0.328E-05
CGA:  12    -0.231726787718E+03   -0.11565E-03   -0.11564E-03  8320   0.576E-02-0.168E-06
CGA:  13    -0.231726960436E+03   -0.17272E-03   -0.17273E-03  8320   0.933E-03-0.435E-06
CGA:  14    -0.231727038301E+03   -0.77866E-04   -0.77877E-04  8320   0.663E-03-0.321E-06
CGA:  15    -0.231727055602E+03   -0.17300E-04   -0.17306E-04  8320   0.870E-03 0.807E-07
CGA:  16    -0.231727103232E+03   -0.47630E-04   -0.47624E-04  8320   0.290E-03 0.980E-06
CGA:  17    -0.231727122134E+03   -0.18902E-04   -0.18895E-04  8320   0.297E-03 0.377E-06
CGA:  18    -0.231727128359E+03   -0.62248E-05   -0.62246E-05  8320   0.218E-03 0.434E-07
CGA:  19    -0.231727138771E+03   -0.10413E-04   -0.10413E-04  8320   0.104E-03-0.344E-06
CGA:  20    -0.231727148529E+03   -0.97576E-05   -0.97466E-05  8320   0.170E-03 0.238E-06
  13 F= -.23172715E+03 E0= -.23170821E+03  d E =-.100822E-03  mag=     7.1022
       N       E                     dE             d eps       ncg     rms          ort
SDA:   1    -0.231682331281E+03    0.44807E-01    0.00000E+00  8320   0.355E+00 0.000E+00
CGA:   2    -0.231687691475E+03   -0.53602E-02   -0.54016E-02  8320   0.187E+00-0.226E-02
CGA:   3    -0.231702255701E+03   -0.14564E-01   -0.14593E-01  8320   0.205E+00-0.851E-03
CGA:   4    -0.231717249026E+03   -0.14993E-01   -0.14996E-01  8320   0.925E-01-0.112E-03
CGA:   5    -0.231720703302E+03   -0.34543E-02   -0.34529E-02  8320   0.131E+00-0.234E-04
CGA:   6    -0.231723513648E+03   -0.28103E-02   -0.28119E-02  8320   0.327E-01-0.487E-04
CGA:   7    -0.231726176986E+03   -0.26633E-02   -0.26625E-02  8320   0.144E-01 0.240E-04
CGA:   8    -0.231726819384E+03   -0.64240E-03   -0.64237E-03  8320   0.212E-01-0.107E-05
CGA:   9    -0.231727201270E+03   -0.38189E-03   -0.38138E-03  8320   0.354E-02 0.237E-04
CGA:  10    -0.231727589549E+03   -0.38828E-03   -0.38792E-03  8320   0.187E-02 0.606E-05
CGA:  11    -0.231727639855E+03   -0.50306E-04   -0.50304E-04  8320   0.220E-02 0.422E-06
CGA:  12    -0.231727715716E+03   -0.75861E-04   -0.75853E-04  8320   0.984E-03-0.191E-06
CGA:  13    -0.231727780672E+03   -0.64956E-04   -0.64980E-04  8320   0.494E-03-0.136E-05
CGA:  14    -0.231727797843E+03   -0.17171E-04   -0.17174E-04  8320   0.787E-03 0.650E-07
CGA:  15    -0.231727819990E+03   -0.22147E-04   -0.22154E-04  8320   0.141E-03 0.424E-06
CGA:  16    -0.231727835183E+03   -0.15193E-04   -0.15227E-04  8320   0.219E-03-0.566E-06
CGA:  17    -0.231727839464E+03   -0.42816E-05   -0.42783E-05  8320   0.149E-03-0.499E-07
  14 F= -.23172784E+03 E0= -.23170891E+03  d E =-.690935E-03  mag=     7.1026
       N       E                     dE             d eps       ncg     rms          ort
SDA:   1    -0.231674931692E+03    0.52903E-01    0.00000E+00  8320   0.262E+00 0.000E+00
CGA:   2    -0.231680680357E+03   -0.57487E-02   -0.57721E-02  8320   0.284E+00-0.694E-03
CGA:   3    -0.231697294806E+03   -0.16614E-01   -0.16629E-01  8320   0.291E+00-0.883E-03
CGA:   4    -0.231718080548E+03   -0.20786E-01   -0.20787E-01  8320   0.780E-01-0.659E-04
CGA:   5    -0.231723328202E+03   -0.52477E-02   -0.52508E-02  8320   0.355E-01-0.133E-03
CGA:   6    -0.231725426070E+03   -0.20979E-02   -0.20972E-02  8320   0.748E-01 0.506E-04
CGA:   7    -0.231726755216E+03   -0.13291E-02   -0.13278E-02  8320   0.123E-01 0.547E-04
CGA:   8    -0.231727599513E+03   -0.84430E-03   -0.84454E-03  8320   0.379E-02-0.936E-05
CGA:   9    -0.231727919174E+03   -0.31966E-03   -0.31962E-03  8320   0.990E-02 0.149E-05
CGA:  10    -0.231728072796E+03   -0.15362E-03   -0.15380E-03  8320   0.114E-02-0.542E-05
CGA:  11    -0.231728174929E+03   -0.10213E-03   -0.10213E-03  8320   0.111E-02 0.387E-07
CGA:  12    -0.231728231188E+03   -0.56259E-04   -0.56258E-04  8320   0.125E-02-0.835E-06
CGA:  13    -0.231728251628E+03   -0.20439E-04   -0.20428E-04  8320   0.364E-03-0.954E-07
CGA:  14    -0.231728278365E+03   -0.26738E-04   -0.26726E-04  8320   0.162E-03 0.475E-06
CGA:  15    -0.231728290735E+03   -0.12370E-04   -0.12376E-04  8320   0.381E-03-0.230E-06
CGA:  16    -0.231728297321E+03   -0.65857E-05   -0.65814E-05  8320   0.979E-04-0.193E-06
  15 F= -.23172830E+03 E0= -.23170937E+03  d E =-.457857E-03  mag=     7.1023
       N       E                     dE             d eps       ncg     rms          ort
SDA:   1    -0.231645228435E+03    0.83062E-01    0.00000E+00  8320   0.265E+00 0.000E+00
CGA:   2    -0.231669616400E+03   -0.24388E-01   -0.24478E-01  8320   0.594E+00-0.239E-02
CGA:   3    -0.231685317019E+03   -0.15701E-01   -0.15628E-01  8320   0.654E+00 0.124E-02
CGA:   4    -0.231709562604E+03   -0.24246E-01   -0.24256E-01  8320   0.131E+00 0.256E-05
CGA:   5    -0.231719271435E+03   -0.97088E-02   -0.97183E-02  8320   0.739E-01-0.343E-03
CGA:   6    -0.231722846975E+03   -0.35755E-02   -0.35758E-02  8320   0.139E+00 0.173E-04
CGA:   7    -0.231725479175E+03   -0.26322E-02   -0.26388E-02  8320   0.215E-01-0.269E-03
CGA:   8    -0.231727048849E+03   -0.15697E-02   -0.15708E-02  8320   0.685E-02-0.408E-04
CGA:   9    -0.231727719205E+03   -0.67036E-03   -0.67016E-03  8320   0.105E-01 0.428E-05
CGA:  10    -0.231727874113E+03   -0.15491E-03   -0.15475E-03  8320   0.312E-02 0.120E-04
CGA:  11    -0.231728056772E+03   -0.18266E-03   -0.18266E-03  8320   0.172E-02 0.460E-06
CGA:  12    -0.231728181535E+03   -0.12476E-03   -0.12477E-03  8320   0.109E-02-0.689E-06
CGA:  13    -0.231728216466E+03   -0.34931E-04   -0.34939E-04  8320   0.163E-02-0.580E-07
CGA:  14    -0.231728264608E+03   -0.48142E-04   -0.48147E-04  8320   0.270E-03 0.547E-06
CGA:  15    -0.231728293802E+03   -0.29194E-04   -0.29223E-04  8320   0.260E-03-0.518E-06
CGA:  16    -0.231728302233E+03   -0.84317E-05   -0.84314E-05  8320   0.400E-03 0.332E-08
CGA:  17    -0.231728314572E+03   -0.12338E-04   -0.12340E-04  8320   0.890E-04-0.587E-08
CGA:  18    -0.231728322445E+03   -0.78735E-05   -0.78770E-05  8320   0.888E-04-0.107E-06
  16 F= -.23172832E+03 E0= -.23170940E+03  d E =-.251242E-04  mag=     7.1025
       N       E                     dE             d eps       ncg     rms          ort
SDA:   1    -0.231237808159E+03    0.49051E+00    0.00000E+00  8320   0.237E+01 0.000E+00
CGA:   2    -0.231282544872E+03   -0.44737E-01   -0.46069E-01  8320   0.231E+01-0.558E-01
CGA:   3    -0.231547676064E+03   -0.26513E+00   -0.26433E+00  8320   0.179E+01 0.854E-02
CGA:   4    -0.231638530359E+03   -0.90854E-01   -0.90976E-01  8320   0.634E+00 0.116E-01
CGA:   5    -0.231680942766E+03   -0.42412E-01   -0.42442E-01  8320   0.944E+00-0.174E-02
CGA:   6    -0.231695673560E+03   -0.14731E-01   -0.14848E-01  8320   0.277E+00-0.683E-02
CGA:   7    -0.231715772900E+03   -0.20099E-01   -0.20091E-01  8320   0.746E-01 0.335E-03
CGA:   8    -0.231721020394E+03   -0.52475E-02   -0.52462E-02  8320   0.880E-01 0.614E-04
CGA:   9    -0.231722489385E+03   -0.14690E-02   -0.14654E-02  8320   0.386E-01 0.171E-03
CGA:  10    -0.231724983577E+03   -0.24942E-02   -0.24948E-02  8320   0.131E-01-0.377E-04
CGA:  11    -0.231725972468E+03   -0.98889E-03   -0.98875E-03  8320   0.146E-01 0.576E-05
CGA:  12    -0.231726233536E+03   -0.26107E-03   -0.26141E-03  8320   0.789E-02-0.132E-04
CGA:  13    -0.231726656509E+03   -0.42297E-03   -0.42297E-03  8320   0.403E-02 0.387E-05
CGA:  14    -0.231726913200E+03   -0.25669E-03   -0.25665E-03  8320   0.253E-02 0.258E-05
CGA:  15    -0.231726962990E+03   -0.49790E-04   -0.49790E-04  8320   0.195E-02 0.959E-06
CGA:  16    -0.231727088770E+03   -0.12578E-03   -0.12574E-03  8320   0.828E-03 0.293E-05
CGA:  17    -0.231727160203E+03   -0.71433E-04   -0.71375E-04  8320   0.165E-02 0.160E-05
CGA:  18    -0.231727185592E+03   -0.25390E-04   -0.25429E-04  8320   0.369E-03-0.279E-06
CGA:  19    -0.231727225161E+03   -0.39569E-04   -0.39488E-04  8320   0.414E-03 0.134E-05
CGA:  20    -0.231727241052E+03   -0.15891E-04   -0.15900E-04  8320   0.601E-03 0.420E-06
CGA:  21    -0.231727255432E+03   -0.14380E-04   -0.14397E-04  8320   0.211E-03 0.690E-06
CGA:  22    -0.231727271863E+03   -0.16432E-04   -0.16391E-04  8320   0.131E-03 0.161E-05
CGA:  23    -0.231727276145E+03   -0.42819E-05   -0.42903E-05  8320   0.224E-03 0.341E-06
  17 F= -.23172728E+03 E0= -.23170834E+03  d E =0.104630E-02  mag=     7.1027
       N       E                     dE             d eps       ncg     rms          ort
SDA:   1    -0.231604977831E+03    0.12229E+00    0.00000E+00  8320   0.703E+00 0.000E+00
CGA:   2    -0.231617473831E+03   -0.12496E-01   -0.12661E-01  8320   0.562E+00-0.755E-02
CGA:   3    -0.231664121116E+03   -0.46647E-01   -0.46588E-01  8320   0.559E+00 0.173E-02
CGA:   4    -0.231707492544E+03   -0.43371E-01   -0.43455E-01  8320   0.129E+00-0.271E-02
CGA:   5    -0.231717276293E+03   -0.97837E-02   -0.97123E-02  8320   0.162E+00 0.245E-02
CGA:   6    -0.231720562658E+03   -0.32864E-02   -0.33020E-02  8320   0.104E+00-0.582E-03
CGA:   7    -0.231724591858E+03   -0.40292E-02   -0.40302E-02  8320   0.302E-01 0.128E-04
CGA:   8    -0.231726479824E+03   -0.18880E-02   -0.18879E-02  8320   0.212E-01 0.316E-05
CGA:   9    -0.231726814778E+03   -0.33495E-03   -0.33431E-03  8320   0.901E-02 0.329E-04
CGA:  10    -0.231727622866E+03   -0.80809E-03   -0.80796E-03  8320   0.381E-02 0.329E-05
CGA:  11    -0.231727764979E+03   -0.14211E-03   -0.14210E-03  8320   0.625E-02-0.534E-06
CGA:  12    -0.231727930096E+03   -0.16512E-03   -0.16520E-03  8320   0.150E-02-0.276E-05
CGA:  13    -0.231728029427E+03   -0.99331E-04   -0.99305E-04  8320   0.138E-02 0.156E-05
CGA:  14    -0.231728066131E+03   -0.36704E-04   -0.36718E-04  8320   0.151E-02-0.616E-07
CGA:  15    -0.231728121612E+03   -0.55482E-04   -0.55479E-04  8320   0.325E-03-0.103E-06
CGA:  16    -0.231728141947E+03   -0.20334E-04   -0.20338E-04  8320   0.516E-03-0.286E-06
CGA:  17    -0.231728152111E+03   -0.10164E-04   -0.10158E-04  8320   0.264E-03-0.179E-07
CGA:  18    -0.231728172945E+03   -0.20834E-04   -0.20836E-04  8320   0.123E-03-0.945E-07
CGA:  19    -0.231728177101E+03   -0.41565E-05   -0.41581E-05  8320   0.210E-03 0.973E-07
  18 F= -.23172818E+03 E0= -.23170924E+03  d E =-.900956E-03  mag=     7.1027
       N       E                     dE             d eps       ncg     rms          ort
SDA:   1    -0.231711991687E+03    0.16181E-01    0.00000E+00  8320   0.199E+00 0.000E+00
CGA:   2    -0.231715042325E+03   -0.30506E-02   -0.30578E-02  8320   0.897E-01-0.401E-03
CGA:   3    -0.231718611604E+03   -0.35693E-02   -0.35681E-02  8320   0.548E-01-0.450E-04
CGA:   4    -0.231723615010E+03   -0.50034E-02   -0.50042E-02  8320   0.247E-01-0.176E-04
CGA:   5    -0.231724984159E+03   -0.13691E-02   -0.13692E-02  8320   0.615E-01-0.844E-05
CGA:   6    -0.231726328839E+03   -0.13447E-02   -0.13477E-02  8320   0.122E-01-0.828E-04
CGA:   7    -0.231727494966E+03   -0.11661E-02   -0.11663E-02  8320   0.643E-02-0.357E-05
CGA:   8    -0.231727702681E+03   -0.20771E-03   -0.20776E-03  8320   0.844E-02 0.244E-06
CGA:   9    -0.231727912840E+03   -0.21016E-03   -0.21009E-03  8320   0.203E-02 0.199E-05
CGA:  10    -0.231728054534E+03   -0.14169E-03   -0.14176E-03  8320   0.133E-02-0.314E-05
CGA:  11    -0.231728096356E+03   -0.41822E-04   -0.41811E-04  8320   0.165E-02-0.368E-06
CGA:  12    -0.231728137683E+03   -0.41327E-04   -0.41320E-04  8320   0.322E-03-0.557E-07
CGA:  13    -0.231728168389E+03   -0.30705E-04   -0.30685E-04  8320   0.399E-03 0.418E-06
CGA:  14    -0.231728177498E+03   -0.91096E-05   -0.91140E-05  8320   0.351E-03 0.364E-07
CGA:  15    -0.231728191001E+03   -0.13502E-04   -0.13504E-04  8320   0.637E-04 0.193E-06
CGA:  16    -0.231728197447E+03   -0.64462E-05   -0.64459E-05  8320   0.208E-03 0.773E-08
  19 F= -.23172820E+03 E0= -.23170927E+03  d E =-.203460E-04  mag=     7.1032
       N       E                     dE             d eps       ncg     rms          ort
SDA:   1    -0.231417638965E+03    0.31055E+00    0.00000E+00  8320   0.162E+02 0.000E+00
CGA:   2    -0.231572655943E+03   -0.15502E+00   -0.18399E+00  8320   0.129E+01-0.252E+01
CGA:   3    -0.231602666951E+03   -0.30011E-01   -0.29800E-01  8320   0.798E+00 0.164E-02
CGA:   4    -0.231631282180E+03   -0.28615E-01   -0.28482E-01  8320   0.835E+00-0.211E-02
CGA:   5    -0.231666517713E+03   -0.35236E-01   -0.35215E-01  8320   0.863E+00-0.276E-02
CGA:   6    -0.231690600034E+03   -0.24082E-01   -0.24155E-01  8320   0.434E+00-0.866E-03
CGA:   7    -0.231703976268E+03   -0.13376E-01   -0.13442E-01  8320   0.308E+00 0.452E-03
CGA:   8    -0.231712568319E+03   -0.85921E-02   -0.86123E-02  8320   0.140E+00-0.854E-04
CGA:   9    -0.231716818680E+03   -0.42504E-02   -0.42474E-02  8320   0.124E+00-0.255E-04
CGA:  10    -0.231721896715E+03   -0.50780E-02   -0.50783E-02  8320   0.935E-01 0.913E-04
CGA:  11    -0.231723965228E+03   -0.20685E-02   -0.20649E-02  8320   0.313E-01 0.655E-04
CGA:  12    -0.231724985220E+03   -0.10200E-02   -0.10202E-02  8320   0.251E-01 0.219E-05
CGA:  13    -0.231725727342E+03   -0.74212E-03   -0.74167E-03  8320   0.136E-01-0.637E-05
CGA:  14    -0.231726156790E+03   -0.42945E-03   -0.42945E-03  8320   0.108E-01-0.111E-06
CGA:  15    -0.231726519086E+03   -0.36230E-03   -0.36224E-03  8320   0.751E-02-0.245E-05
CGA:  16    -0.231726741797E+03   -0.22271E-03   -0.22274E-03  8320   0.454E-02-0.172E-06
CGA:  17    -0.231726874204E+03   -0.13241E-03   -0.13239E-03  8320   0.284E-02-0.814E-06
CGA:  18    -0.231726980870E+03   -0.10667E-03   -0.10667E-03  8320   0.305E-02 0.779E-06
CGA:  19    -0.231727083596E+03   -0.10273E-03   -0.10273E-03  8320   0.183E-02 0.128E-05
CGA:  20    -0.231727134615E+03   -0.51019E-04   -0.51041E-04  8320   0.121E-02 0.138E-05
CGA:  21    -0.231727178432E+03   -0.43817E-04   -0.43820E-04  8320   0.959E-03 0.166E-05
CGA:  22    -0.231727207840E+03   -0.29407E-04   -0.29415E-04  8320   0.758E-03 0.928E-06
CGA:  23    -0.231727239779E+03   -0.31940E-04   -0.31936E-04  8320   0.768E-03 0.711E-06
CGA:  24    -0.231727260598E+03   -0.20819E-04   -0.20825E-04  8320   0.378E-03 0.427E-06
CGA:  25    -0.231727274211E+03   -0.13613E-04   -0.13613E-04  8320   0.396E-03 0.537E-06
CGA:  26    -0.231727288256E+03   -0.14045E-04   -0.14046E-04  8320   0.279E-03 0.768E-06
CGA:  27    -0.231727296854E+03   -0.85976E-05   -0.86019E-05  8320   0.221E-03 0.661E-06
  20 F= -.23172730E+03 E0= -.23170838E+03  d E =0.900593E-03  mag=     7.0994
       N       E                     dE             d eps       ncg     rms          ort
SDA:   1    -0.231476103536E+03    0.25118E+00    0.00000E+00  8320   0.193E+01 0.000E+00
CGA:   2    -0.231506858611E+03   -0.30755E-01   -0.31151E-01  8320   0.120E+01-0.183E-01
CGA:   3    -0.231610989912E+03   -0.10413E+00   -0.10310E+00  8320   0.783E+00 0.217E-01
CGA:   4    -0.231654009946E+03   -0.43020E-01   -0.43386E-01  8320   0.607E+00-0.176E-01
CGA:   5    -0.231667478191E+03   -0.13468E-01   -0.13434E-01  8320   0.577E+00 0.278E-03
CGA:   6    -0.231701018395E+03   -0.33540E-01   -0.33562E-01  8320   0.226E+00-0.854E-03
CGA:   7    -0.231714251141E+03   -0.13233E-01   -0.13252E-01  8320   0.156E+00-0.789E-03
CGA:   8    -0.231717027811E+03   -0.27767E-02   -0.27859E-02  8320   0.911E-01-0.322E-03
CGA:   9    -0.231722639624E+03   -0.56118E-02   -0.56048E-02  8320   0.291E-01 0.264E-03
CGA:  10    -0.231724112214E+03   -0.14726E-02   -0.14725E-02  8320   0.485E-01 0.263E-05
CGA:  11    -0.231725026137E+03   -0.91392E-03   -0.91165E-03  8320   0.109E-01 0.724E-04
CGA:  12    -0.231725809230E+03   -0.78309E-03   -0.78367E-03  8320   0.772E-02-0.171E-04
CGA:  13    -0.231726075220E+03   -0.26599E-03   -0.26597E-03  8320   0.108E-01-0.919E-07
CGA:  14    -0.231726353564E+03   -0.27834E-03   -0.27828E-03  8320   0.296E-02 0.201E-05
CGA:  15    -0.231726575141E+03   -0.22158E-03   -0.22150E-03  8320   0.207E-02 0.213E-05
CGA:  16    -0.231726617598E+03   -0.42458E-04   -0.42477E-04  8320   0.175E-02-0.114E-06
CGA:  17    -0.231726753592E+03   -0.13599E-03   -0.13592E-03  8320   0.922E-03 0.195E-05
CGA:  18    -0.231726794710E+03   -0.41118E-04   -0.41116E-04  8320   0.130E-02 0.111E-05
CGA:  19    -0.231726821197E+03   -0.26487E-04   -0.26508E-04  8320   0.435E-03 0.894E-06
CGA:  20    -0.231726857744E+03   -0.36547E-04   -0.36484E-04  8320   0.446E-03 0.148E-05
CGA:  21    -0.231726871799E+03   -0.14055E-04   -0.14057E-04  8320   0.605E-03 0.221E-06
CGA:  22    -0.231726891231E+03   -0.19432E-04   -0.19433E-04  8320   0.149E-03 0.780E-07
CGA:  23    -0.231726902320E+03   -0.11089E-04   -0.11055E-04  8320   0.241E-03 0.110E-05
CGA:  24    -0.231726906879E+03   -0.45587E-05   -0.45702E-05  8320   0.119E-03 0.390E-06
  21 F= -.23172691E+03 E0= -.23170797E+03  d E =0.389975E-03  mag=     7.0981
       N       E                     dE             d eps       ncg     rms          ort
SDA:   1    -0.231642479248E+03    0.84423E-01    0.00000E+00  8320   0.126E+01 0.000E+00
CGA:   2    -0.231657677758E+03   -0.15199E-01   -0.15021E-01  8320   0.293E+00 0.102E-01
CGA:   3    -0.231682292762E+03   -0.24615E-01   -0.24614E-01  8320   0.350E+00 0.168E-04
CGA:   4    -0.231706783667E+03   -0.24491E-01   -0.24486E-01  8320   0.113E+00 0.188E-03
CGA:   5    -0.231712715628E+03   -0.59320E-02   -0.59307E-02  8320   0.273E+00 0.132E-03
CGA:   6    -0.231719149823E+03   -0.64342E-02   -0.64443E-02  8320   0.858E-01-0.259E-03
CGA:   7    -0.231724755439E+03   -0.56056E-02   -0.56107E-02  8320   0.191E-01-0.203E-03
CGA:   8    -0.231726103644E+03   -0.13482E-02   -0.13476E-02  8320   0.420E-01 0.233E-04
CGA:   9    -0.231726806573E+03   -0.70293E-03   -0.70205E-03  8320   0.837E-02 0.407E-04
CGA:  10    -0.231727468743E+03   -0.66217E-03   -0.66220E-03  8320   0.306E-02-0.785E-06
CGA:  11    -0.231727612204E+03   -0.14346E-03   -0.14346E-03  8320   0.609E-02 0.105E-05
CGA:  12    -0.231727757730E+03   -0.14553E-03   -0.14559E-03  8320   0.212E-02 0.167E-06
CGA:  13    -0.231727885015E+03   -0.12728E-03   -0.12726E-03  8320   0.944E-03 0.190E-05
CGA:  14    -0.231727930213E+03   -0.45198E-04   -0.45199E-04  8320   0.157E-02-0.199E-06
CGA:  15    -0.231727960858E+03   -0.30644E-04   -0.30643E-04  8320   0.384E-03-0.484E-06
CGA:  16    -0.231728008329E+03   -0.47472E-04   -0.47405E-04  8320   0.336E-03 0.869E-06
CGA:  17    -0.231728016073E+03   -0.77434E-05   -0.77447E-05  8320   0.319E-03 0.137E-06
CGA:  18    -0.231728028815E+03   -0.12742E-04   -0.12742E-04  8320   0.112E-03 0.210E-07
CGA:  19    -0.231728040097E+03   -0.11283E-04   -0.11266E-04  8320   0.215E-03 0.310E-06
CGA:  20    -0.231728043936E+03   -0.38388E-05   -0.38389E-05  8320   0.996E-04-0.340E-07
  22 F= -.23172804E+03 E0= -.23170911E+03  d E =-.113706E-02  mag=     7.0951
       N       E                     dE             d eps       ncg     rms          ort
SDA:   1    -0.231716033878E+03    0.12006E-01    0.00000E+00  8320   0.251E+00 0.000E+00
CGA:   2    -0.231719207993E+03   -0.31741E-02   -0.31654E-02  8320   0.600E-01 0.485E-03
CGA:   3    -0.231721364424E+03   -0.21564E-02   -0.21583E-02  8320   0.288E-01 0.239E-04
CGA:   4    -0.231725503799E+03   -0.41394E-02   -0.41391E-02  8320   0.175E-01 0.252E-05
CGA:   5    -0.231726873852E+03   -0.13701E-02   -0.13700E-02  8320   0.227E-01 0.103E-05
CGA:   6    -0.231727207644E+03   -0.33379E-03   -0.33326E-03  8320   0.677E-02 0.281E-04
CGA:   7    -0.231727818216E+03   -0.61057E-03   -0.61068E-03  8320   0.342E-02-0.278E-05
CGA:   8    -0.231728010555E+03   -0.19234E-03   -0.19234E-03  8320   0.247E-02-0.119E-05
CGA:   9    -0.231728047102E+03   -0.36547E-04   -0.36576E-04  8320   0.824E-03-0.137E-05
CGA:  10    -0.231728123591E+03   -0.76489E-04   -0.76377E-04  8320   0.456E-03 0.270E-05
CGA:  11    -0.231728144892E+03   -0.21301E-04   -0.21300E-04  8320   0.603E-03-0.123E-06
CGA:  12    -0.231728156293E+03   -0.11401E-04   -0.11397E-04  8320   0.213E-03-0.512E-07
CGA:  13    -0.231728169377E+03   -0.13083E-04   -0.13084E-04  8320   0.114E-03-0.560E-07
CGA:  14    -0.231728177206E+03   -0.78292E-05   -0.78279E-05  8320   0.252E-03 0.552E-07
  23 F= -.23172818E+03 E0= -.23170925E+03  d E =-.133270E-03  mag=     7.0948
       N       E                     dE             d eps       ncg     rms          ort
SDA:   1    -0.231717430610E+03    0.10739E-01    0.00000E+00  8320   0.477E-01 0.000E+00
CGA:   2    -0.231719172084E+03   -0.17415E-02   -0.17426E-02  8320   0.886E-01 0.612E-05
CGA:   3    -0.231722027250E+03   -0.28552E-02   -0.28566E-02  8320   0.473E-01-0.479E-05
CGA:   4    -0.231725498657E+03   -0.34714E-02   -0.34759E-02  8320   0.186E-01-0.154E-03
CGA:   5    -0.231726785011E+03   -0.12864E-02   -0.12869E-02  8320   0.171E-01-0.226E-04
CGA:   6    -0.231727198457E+03   -0.41345E-03   -0.41378E-03  8320   0.171E-01-0.860E-05
CGA:   7    -0.231727819722E+03   -0.62127E-03   -0.62122E-03  8320   0.350E-02 0.223E-05
CGA:   8    -0.231728091821E+03   -0.27210E-03   -0.27201E-03  8320   0.169E-02 0.276E-05
CGA:   9    -0.231728124617E+03   -0.32796E-04   -0.32780E-04  8320   0.138E-02 0.400E-06
CGA:  10    -0.231728223126E+03   -0.98509E-04   -0.98531E-04  8320   0.371E-03-0.929E-06
CGA:  11    -0.231728240962E+03   -0.17836E-04   -0.17836E-04  8320   0.518E-03-0.787E-08
CGA:  12    -0.231728251551E+03   -0.10590E-04   -0.10594E-04  8320   0.246E-03-0.612E-08
CGA:  13    -0.231728267723E+03   -0.16171E-04   -0.16163E-04  8320   0.123E-03 0.500E-06
CGA:  14    -0.231728273556E+03   -0.58333E-05   -0.58324E-05  8320   0.189E-03-0.389E-06
  24 F= -.23172827E+03 E0= -.23170936E+03  d E =-.963500E-04  mag=     7.0954
       N       E                     dE             d eps       ncg     rms          ort
SDA:   1    -0.201954385113E+03    0.29774E+02    0.00000E+00  8320   0.520E+03 0.000E+00
CGA:   2    -0.209495964095E+03   -0.75416E+01   -0.14415E+02  8320   0.142E+03 0.319E+02
CGA:   3    -0.213623058141E+03   -0.41271E+01   -0.47233E+01  8320   0.180E+03-0.123E+02
CGA:   4    -0.218424964451E+03   -0.48019E+01   -0.41591E+01  8320   0.129E+03-0.219E+02
CGA:   5    -0.221992711607E+03   -0.35677E+01   -0.32799E+01  8320   0.141E+03-0.300E+01
CGA:   6    -0.224855829590E+03   -0.28631E+01   -0.23182E+01  8320   0.327E+02 0.926E+01
CGA:   7    -0.226351767129E+03   -0.14959E+01   -0.18442E+01  8320   0.135E+03-0.237E+02
CGA:   8    -0.227440834799E+03   -0.10891E+01   -0.29016E+01  8320   0.313E+02-0.150E+02
CGA:   9    -0.227996769096E+03   -0.55593E+00   -0.61633E+00  8320   0.329E+02-0.141E+01
CGA:  10    -0.228524543641E+03   -0.52777E+00   -0.37710E+00  8320   0.109E+02 0.974E+01
CGA:  11    -0.228769627173E+03   -0.24508E+00   -0.24745E+00  8320   0.197E+02-0.224E+00
CGA:  12    -0.229426028018E+03   -0.65640E+00   -0.66308E+00  8320   0.683E+02 0.572E+00
CGA:  13    -0.230202764985E+03   -0.77674E+00   -0.79425E+00  8320   0.153E+02-0.213E+01
CGA:  14    -0.230438525023E+03   -0.23576E+00   -0.25948E+00  8320   0.178E+02-0.829E+00
CGA:  15    -0.230660395091E+03   -0.22187E+00   -0.20158E+00  8320   0.536E+01 0.116E+01
CGA:  16    -0.230729572392E+03   -0.69177E-01   -0.71353E-01  8320   0.516E+01-0.146E+00
CGA:  17    -0.230942646602E+03   -0.21307E+00   -0.20795E+00  8320   0.129E+02 0.435E+00
CGA:  18    -0.231116933715E+03   -0.17429E+00   -0.17660E+00  8320   0.196E+01-0.120E+00
CGA:  19    -0.231237604326E+03   -0.12067E+00   -0.12408E+00  8320   0.434E+01-0.180E+00
CGA:  20    -0.231266338426E+03   -0.28734E-01   -0.20083E-01  8320   0.195E+01 0.163E+01
CGA:  21    -0.231285571817E+03   -0.19233E-01   -0.19353E-01  8320   0.994E+00-0.177E-01
CGA:  22    -0.231303540588E+03   -0.17969E-01   -0.18176E-01  8320   0.247E+01-0.317E-02
CGA:  23    -0.231340754114E+03   -0.37214E-01   -0.41155E-01  8320   0.170E+01-0.608E-01
CGA:  24    -0.231352965481E+03   -0.12211E-01   -0.12540E-01  8320   0.410E+00-0.367E-01
CGA:  25    -0.231360037646E+03   -0.70722E-02   -0.70954E-02  8320   0.744E+00-0.364E-03
CGA:  26    -0.231377166753E+03   -0.17129E-01   -0.17048E-01  8320   0.730E+00-0.279E-02
CGA:  27    -0.231384134598E+03   -0.69678E-02   -0.69141E-02  8320   0.351E+00 0.424E-02
CGA:  28    -0.231392020908E+03   -0.78863E-02   -0.78880E-02  8320   0.751E+00 0.556E-04
CGA:  29    -0.231403826775E+03   -0.11806E-01   -0.11832E-01  8320   0.416E+00-0.116E-03
CGA:  30    -0.231407897569E+03   -0.40708E-02   -0.40878E-02  8320   0.237E+00-0.119E-02
CGA:  31    -0.231412884690E+03   -0.49871E-02   -0.49905E-02  8320   0.326E+00 0.214E-03
CGA:  32    -0.231416340506E+03   -0.34558E-02   -0.34503E-02  8320   0.111E+00 0.338E-03
CGA:  33    -0.231417928896E+03   -0.15884E-02   -0.15915E-02  8320   0.150E+00-0.880E-04
CGA:  34    -0.231422511750E+03   -0.45829E-02   -0.45830E-02  8320   0.298E+00-0.389E-04
CGA:  35    -0.231425486309E+03   -0.29746E-02   -0.30086E-02  8320   0.835E-01-0.221E-02
CGA:  36    -0.231426636651E+03   -0.11503E-02   -0.11528E-02  8320   0.974E-01-0.670E-04
CGA:  37    -0.231428875277E+03   -0.22386E-02   -0.22387E-02  8320   0.988E-01 0.559E-04
SDA:  38    -0.231429778589E+03   -0.90331E-03   -0.90523E-03  8320   0.307E-01-0.145E-03
CGA:  39    -0.231431328816E+03   -0.15502E-02   -0.15485E-02  8320   0.205E-01 0.638E-04
CGA:  40    -0.231431757493E+03   -0.42868E-03   -0.42882E-03  8320   0.197E-01 0.195E-04
CGA:  41    -0.231433055465E+03   -0.12980E-02   -0.13013E-02  8320   0.930E-02-0.958E-04
CGA:  42    -0.231433733523E+03   -0.67806E-03   -0.67766E-03  8320   0.102E-01 0.989E-05
CGA:  43    -0.231434143221E+03   -0.40970E-03   -0.40978E-03  8320   0.193E-01-0.794E-05
CGA:  44    -0.231434609188E+03   -0.46597E-03   -0.46658E-03  8320   0.261E-02 0.297E-04
CGA:  45    -0.231434815857E+03   -0.20667E-03   -0.20570E-03  8320   0.154E-02 0.230E-04
CGA:  46    -0.231434978008E+03   -0.16215E-03   -0.16169E-03  8320   0.873E-02 0.744E-05
CGA:  47    -0.231435171863E+03   -0.19386E-03   -0.19356E-03  8320   0.129E-02 0.196E-05
CGA:  48    -0.231435361483E+03   -0.18962E-03   -0.18833E-03  8320   0.139E-02 0.114E-04
CGA:  49    -0.231435475771E+03   -0.11429E-03   -0.11400E-03  8320   0.190E-02 0.659E-05
CGA:  50    -0.231435531490E+03   -0.55719E-04   -0.55790E-04  8320   0.239E-02 0.200E-05
CGA:  51    -0.231435598022E+03   -0.66532E-04   -0.66540E-04  8320   0.373E-03 0.240E-05
CGA:  52    -0.231435649078E+03   -0.51056E-04   -0.50891E-04  8320   0.375E-03 0.220E-05
CGA:  53    -0.231435681504E+03   -0.32426E-04   -0.32519E-04  8320   0.360E-03-0.248E-05
CGA:  54    -0.231435687166E+03   -0.56611E-05   -0.56464E-05  8320   0.168E-03-0.684E-06
  25 F= -.23143569E+03 E0= -.23141655E+03  d E =0.292586E+00  mag=     7.1080
       N       E                     dE             d eps       ncg     rms          ort
SDA:   1    -0.927329902297E+02    0.13870E+03    0.00000E+00  8320   0.101E+05 0.000E+00
CGA:   2    -0.151861087167E+03   -0.59128E+02   -0.23476E+03  8320   0.254E+04-0.263E+04
CGA:   3    -0.199387784160E+03   -0.47527E+02   -0.32945E+02  8320   0.224E+03 0.172E+02
CGA:   4    -0.202791979796E+03   -0.34042E+01   -0.52440E+01  8320   0.268E+03-0.576E+02
CGA:   5    -0.211414497000E+03   -0.86225E+01   -0.14352E+02  8320   0.832E+03-0.168E+03
CGA:   6    -0.219305318194E+03   -0.78908E+01   -0.15737E+02  8320   0.156E+03-0.600E+02
CGA:   7    -0.221039010703E+03   -0.17337E+01   -0.20889E+01  8320   0.761E+02-0.327E+02
CGA:   8    -0.223199836251E+03   -0.21608E+01   -0.21869E+01  8320   0.379E+02 0.175E+01
CGA:   9    -0.225243927170E+03   -0.20441E+01   -0.20711E+01  8320   0.952E+02-0.139E+01
CGA:  10    -0.227720571388E+03   -0.24766E+01   -0.25871E+01  8320   0.543E+02 0.889E-01
CGA:  11    -0.229236128540E+03   -0.15156E+01   -0.15579E+01  8320   0.475E+02-0.223E+00
CGA:  12    -0.230256540317E+03   -0.10204E+01   -0.10536E+01  8320   0.105E+02-0.311E+00
CGA:  13    -0.230550088622E+03   -0.29355E+00   -0.29088E+00  8320   0.123E+02-0.381E-01
CGA:  14    -0.230919492126E+03   -0.36940E+00   -0.37185E+00  8320   0.502E+01 0.593E-01
CGA:  15    -0.231085906610E+03   -0.16641E+00   -0.16723E+00  8320   0.597E+01 0.480E-01
CGA:  16    -0.231215699994E+03   -0.12979E+00   -0.13236E+00  8320   0.171E+01-0.475E-01
CGA:  17    -0.231297525873E+03   -0.81826E-01   -0.81899E-01  8320   0.357E+01-0.419E-02
CGA:  18    -0.231387201561E+03   -0.89676E-01   -0.89964E-01  8320   0.101E+01-0.116E-02
CGA:  19    -0.231424049881E+03   -0.36848E-01   -0.36858E-01  8320   0.136E+01 0.577E-02
CGA:  20    -0.231458317668E+03   -0.34268E-01   -0.34576E-01  8320   0.488E+00 0.711E-03
CGA:  21    -0.231481102575E+03   -0.22785E-01   -0.22756E-01  8320   0.948E+00 0.212E-02
CGA:  22    -0.231507717727E+03   -0.26615E-01   -0.26740E-01  8320   0.342E+00 0.216E-02
CGA:  23    -0.231520336319E+03   -0.12619E-01   -0.12619E-01  8320   0.434E+00 0.240E-02
CGA:  24    -0.231531789635E+03   -0.11453E-01   -0.11495E-01  8320   0.150E+00 0.463E-03
CGA:  25    -0.231537438776E+03   -0.56491E-02   -0.56497E-02  8320   0.194E+00-0.215E-03
CGA:  26    -0.231542771590E+03   -0.53328E-02   -0.53420E-02  8320   0.766E-01 0.197E-03
CGA:  27    -0.231546244063E+03   -0.34725E-02   -0.34687E-02  8320   0.129E+00 0.289E-03
CGA:  28    -0.231549705972E+03   -0.34619E-02   -0.34679E-02  8320   0.361E-01 0.116E-03
CGA:  29    -0.231551046309E+03   -0.13403E-02   -0.13402E-02  8320   0.513E-01 0.399E-04
CGA:  30    -0.231552706369E+03   -0.16601E-02   -0.16609E-02  8320   0.225E-01 0.971E-04
CGA:  31    -0.231553574030E+03   -0.86766E-03   -0.86740E-03  8320   0.296E-01 0.572E-04
CGA:  32    -0.231554388388E+03   -0.81436E-03   -0.81593E-03  8320   0.962E-02 0.419E-04
CGA:  33    -0.231554795611E+03   -0.40722E-03   -0.40714E-03  8320   0.166E-01 0.601E-05
CGA:  34    -0.231555372433E+03   -0.57682E-03   -0.57688E-03  8320   0.809E-02 0.219E-04
CGA:  35    -0.231555681070E+03   -0.30864E-03   -0.30862E-03  8320   0.979E-02 0.354E-05
SDA:  36    -0.231555941864E+03   -0.26079E-03   -0.26074E-03  8320   0.345E-02-0.215E-05
CGA:  37    -0.231556006068E+03   -0.64205E-04   -0.64224E-04  8320   0.239E-02-0.116E-05
CGA:  38    -0.231556101226E+03   -0.95158E-04   -0.95151E-04  8320   0.170E-02 0.168E-06
CGA:  39    -0.231556309758E+03   -0.20853E-03   -0.20794E-03  8320   0.153E-02 0.600E-05
CGA:  40    -0.231556487706E+03   -0.17795E-03   -0.17781E-03  8320   0.127E-02 0.140E-05
CGA:  41    -0.231556567080E+03   -0.79374E-04   -0.79332E-04  8320   0.297E-02 0.114E-05
CGA:  42    -0.231556626842E+03   -0.59762E-04   -0.59774E-04  8320   0.102E-02-0.100E-05
CGA:  43    -0.231556742191E+03   -0.11535E-03   -0.11546E-03  8320   0.529E-03-0.215E-05
CGA:  44    -0.231556800946E+03   -0.58755E-04   -0.58688E-04  8320   0.105E-02 0.549E-06
CGA:  45    -0.231556819097E+03   -0.18150E-04   -0.18184E-04  8320   0.512E-03-0.290E-06
CGA:  46    -0.231556851693E+03   -0.32596E-04   -0.32577E-04  8320   0.210E-03 0.920E-06
CGA:  47    -0.231556867202E+03   -0.15509E-04   -0.15509E-04  8320   0.215E-03-0.263E-06
CGA:  48    -0.231556876814E+03   -0.96119E-05   -0.96160E-05  8320   0.482E-03 0.392E-06
CGA:  49    -0.231556891077E+03   -0.14263E-04   -0.14285E-04  8320   0.102E-03 0.109E-05
CGA:  50    -0.231556902962E+03   -0.11885E-04   -0.11769E-04  8320   0.767E-04 0.160E-05
CGA:  51    -0.231556905707E+03   -0.27445E-05   -0.27508E-05  8320   0.170E-03 0.210E-06
CGA:  52    -0.231556917311E+03   -0.11604E-04   -0.11578E-04  8320   0.624E-04 0.142E-05
CGA:  53    -0.231556925104E+03   -0.77928E-05   -0.78039E-05  8320   0.734E-04-0.290E-06
  26 F= -.23155693E+03 E0= -.23153804E+03  d E =-.121238E+00  mag=     7.1095
       N       E                     dE             d eps       ncg     rms          ort
SDA:   1    -0.226390505650E+03    0.51664E+01    0.00000E+00  8320   0.239E+02 0.000E+00
CGA:   2    -0.227599270170E+03   -0.12088E+01   -0.12190E+01  8320   0.579E+02 0.473E+00
CGA:   3    -0.229083256080E+03   -0.14840E+01   -0.15196E+01  8320   0.188E+02-0.174E+01
CGA:   4    -0.230049935357E+03   -0.96668E+00   -0.96856E+00  8320   0.118E+02 0.337E+00
CGA:   5    -0.230391797767E+03   -0.34186E+00   -0.35083E+00  8320   0.161E+02-0.166E+00
CGA:   6    -0.231031042434E+03   -0.63924E+00   -0.54489E+00  8320   0.396E+01 0.150E+01
CGA:   7    -0.231373139016E+03   -0.34210E+00   -0.33142E+00  8320   0.635E+01 0.336E+00
CGA:   8    -0.231480536977E+03   -0.10740E+00   -0.10917E+00  8320   0.205E+01-0.115E+00
CGA:   9    -0.231590307844E+03   -0.10977E+00   -0.10981E+00  8320   0.106E+01-0.959E-02
CGA:  10    -0.231614416760E+03   -0.24109E-01   -0.24339E-01  8320   0.957E+00-0.698E-02
CGA:  11    -0.231662874800E+03   -0.48458E-01   -0.48458E-01  8320   0.304E+00 0.182E-02
CGA:  12    -0.231670493271E+03   -0.76185E-02   -0.76458E-02  8320   0.331E+00-0.662E-03
CGA:  13    -0.231687702269E+03   -0.17209E-01   -0.17210E-01  8320   0.130E+00-0.109E-03
CGA:  14    -0.231691552787E+03   -0.38505E-02   -0.38591E-02  8320   0.172E+00-0.673E-04
CGA:  15    -0.231698783485E+03   -0.72307E-02   -0.72395E-02  8320   0.465E-01 0.496E-03
CGA:  16    -0.231700219363E+03   -0.14359E-02   -0.14380E-02  8320   0.644E-01 0.390E-05
CGA:  17    -0.231702987857E+03   -0.27685E-02   -0.27689E-02  8320   0.280E-01 0.575E-04
CGA:  18    -0.231704158261E+03   -0.11704E-02   -0.11707E-02  8320   0.488E-01 0.281E-04
CGA:  19    -0.231705578009E+03   -0.14197E-02   -0.14206E-02  8320   0.114E-01 0.132E-04
CGA:  20    -0.231706075616E+03   -0.49761E-03   -0.49767E-03  8320   0.186E-01 0.138E-04
CGA:  21    -0.231706587868E+03   -0.51225E-03   -0.51268E-03  8320   0.810E-02 0.757E-05
CGA:  22    -0.231707093965E+03   -0.50610E-03   -0.50588E-03  8320   0.135E-01 0.108E-04
CGA:  23    -0.231707370409E+03   -0.27644E-03   -0.27655E-03  8320   0.442E-02 0.329E-05
CGA:  24    -0.231707588750E+03   -0.21834E-03   -0.21835E-03  8320   0.389E-02-0.872E-06
CGA:  25    -0.231707679778E+03   -0.91029E-04   -0.91059E-04  8320   0.290E-02 0.936E-06
CGA:  26    -0.231707857240E+03   -0.17746E-03   -0.17740E-03  8320   0.219E-02 0.330E-05
CGA:  27    -0.231707908926E+03   -0.51686E-04   -0.51715E-04  8320   0.180E-02 0.825E-06
CGA:  28    -0.231707999277E+03   -0.90351E-04   -0.90345E-04  8320   0.779E-03 0.112E-05
CGA:  29    -0.231708017808E+03   -0.18531E-04   -0.18532E-04  8320   0.722E-03-0.767E-07
CGA:  30    -0.231708064581E+03   -0.46773E-04   -0.46793E-04  8320   0.476E-03-0.109E-05
CGA:  31    -0.231708075295E+03   -0.10714E-04   -0.10714E-04  8320   0.390E-03-0.167E-06
SDA:  32    -0.231708100919E+03   -0.25624E-04   -0.25616E-04  8320   0.262E-03 0.207E-06
CGA:  33    -0.231708104531E+03   -0.36113E-05   -0.36121E-05  8320   0.998E-04-0.835E-07
  27 F= -.23170810E+03 E0= -.23168930E+03  d E =-.151179E+00  mag=     7.0922
       N       E                     dE             d eps       ncg     rms          ort
SDA:   1    -0.231469366990E+03    0.23873E+00    0.00000E+00  8320   0.115E+01 0.000E+00
CGA:   2    -0.231502259336E+03   -0.32892E-01   -0.32796E-01  8320   0.191E+01-0.407E-03
CGA:   3    -0.231608257656E+03   -0.10600E+00   -0.10611E+00  8320   0.753E+00-0.603E-02
CGA:   4    -0.231650244634E+03   -0.41987E-01   -0.42066E-01  8320   0.460E+00-0.441E-02
CGA:   5    -0.231670126314E+03   -0.19882E-01   -0.19883E-01  8320   0.953E+00 0.937E-03
CGA:   6    -0.231695294219E+03   -0.25168E-01   -0.25205E-01  8320   0.164E+00-0.522E-03
CGA:   7    -0.231708644127E+03   -0.13350E-01   -0.13356E-01  8320   0.106E+00-0.153E-03
CGA:   8    -0.231710652442E+03   -0.20083E-02   -0.20033E-02  8320   0.753E-01 0.151E-03
CGA:   9    -0.231715101417E+03   -0.44490E-02   -0.44475E-02  8320   0.237E-01 0.711E-04
CGA:  10    -0.231716264053E+03   -0.11626E-02   -0.11627E-02  8320   0.343E-01-0.119E-04
CGA:  11    -0.231716933333E+03   -0.66928E-03   -0.66949E-03  8320   0.123E-01-0.222E-05
CGA:  12    -0.231717657158E+03   -0.72382E-03   -0.72385E-03  8320   0.567E-02-0.189E-05
CGA:  13    -0.231717908877E+03   -0.25172E-03   -0.25172E-03  8320   0.116E-01 0.200E-05
CGA:  14    -0.231718210561E+03   -0.30168E-03   -0.30182E-03  8320   0.199E-02 0.133E-05
CGA:  15    -0.231718366755E+03   -0.15619E-03   -0.15602E-03  8320   0.275E-02 0.480E-05
CGA:  16    -0.231718419447E+03   -0.52692E-04   -0.52701E-04  8320   0.163E-02 0.253E-05
CGA:  17    -0.231718530090E+03   -0.11064E-03   -0.11062E-03  8320   0.867E-03 0.114E-05
CGA:  18    -0.231718566408E+03   -0.36318E-04   -0.36320E-04  8320   0.128E-02 0.448E-06
CGA:  19    -0.231718593895E+03   -0.27487E-04   -0.27501E-04  8320   0.354E-03 0.273E-06
CGA:  20    -0.231718627239E+03   -0.33344E-04   -0.33229E-04  8320   0.529E-03 0.227E-05
CGA:  21    -0.231718639800E+03   -0.12561E-04   -0.12578E-04  8320   0.455E-03 0.646E-06
CGA:  22    -0.231718657592E+03   -0.17792E-04   -0.17797E-04  8320   0.117E-03 0.883E-06
CGA:  23    -0.231718665525E+03   -0.79335E-05   -0.79161E-05  8320   0.305E-03 0.753E-06
  28 F= -.23171867E+03 E0= -.23169984E+03  d E =-.105610E-01  mag=     7.0852
       N       E                     dE             d eps       ncg     rms          ort
SDA:   1    -0.231153151992E+03    0.56551E+00    0.00000E+00  8320   0.411E+01 0.000E+00
CGA:   2    -0.231216404433E+03   -0.63252E-01   -0.62272E-01  8320   0.229E+01 0.291E-01
CGA:   3    -0.231484575297E+03   -0.26817E+00   -0.26895E+00  8320   0.168E+01-0.120E-01
CGA:   4    -0.231604267864E+03   -0.11969E+00   -0.11970E+00  8320   0.692E+00 0.536E-03
CGA:   5    -0.231657243205E+03   -0.52975E-01   -0.52946E-01  8320   0.176E+01 0.993E-03
CGA:   6    -0.231685706637E+03   -0.28463E-01   -0.28698E-01  8320   0.285E+00-0.116E-01
CGA:   7    -0.231707933649E+03   -0.22227E-01   -0.22241E-01  8320   0.910E-01-0.432E-03
CGA:   8    -0.231714425808E+03   -0.64922E-02   -0.64835E-02  8320   0.180E+00 0.317E-03
CGA:   9    -0.231717479971E+03   -0.30542E-02   -0.30452E-02  8320   0.460E-01 0.370E-03
CGA:  10    -0.231719874178E+03   -0.23942E-02   -0.23951E-02  8320   0.206E-01-0.146E-03
CGA:  11    -0.231721283357E+03   -0.14092E-02   -0.14091E-02  8320   0.288E-01 0.397E-05
CGA:  12    -0.231721748710E+03   -0.46535E-03   -0.46626E-03  8320   0.970E-02-0.438E-04
CGA:  13    -0.231722580752E+03   -0.83204E-03   -0.82997E-03  8320   0.447E-02 0.517E-04
CGA:  14    -0.231722780526E+03   -0.19977E-03   -0.19980E-03  8320   0.853E-02 0.365E-05
CGA:  15    -0.231722982676E+03   -0.20215E-03   -0.20216E-03  8320   0.215E-02 0.653E-05
CGA:  16    -0.231723210198E+03   -0.22752E-03   -0.22739E-03  8320   0.192E-02 0.235E-05
CGA:  17    -0.231723251716E+03   -0.41518E-04   -0.41532E-04  8320   0.165E-02 0.148E-05
CGA:  18    -0.231723326126E+03   -0.74409E-04   -0.74422E-04  8320   0.642E-03 0.231E-05
CGA:  19    -0.231723386555E+03   -0.60429E-04   -0.60278E-04  8320   0.142E-02 0.340E-05
CGA:  20    -0.231723413004E+03   -0.26449E-04   -0.26498E-04  8320   0.615E-03 0.100E-05
CGA:  21    -0.231723441232E+03   -0.28228E-04   -0.28234E-04  8320   0.229E-03 0.133E-05
CGA:  22    -0.231723457438E+03   -0.16206E-04   -0.16176E-04  8320   0.581E-03 0.144E-05
CGA:  23    -0.231723468818E+03   -0.11380E-04   -0.11416E-04  8320   0.151E-03 0.137E-05
CGA:  24    -0.231723484175E+03   -0.15357E-04   -0.15242E-04  8320   0.123E-03 0.222E-05
CGA:  25    -0.231723486367E+03   -0.21916E-05   -0.22033E-05  8320   0.729E-04 0.341E-06
  29 F= -.23172349E+03 E0= -.23170463E+03  d E =-.482084E-02  mag=     7.0719
       N       E                     dE             d eps       ncg     rms          ort
SDA:   1    -0.231530604297E+03    0.19288E+00    0.00000E+00  8320   0.736E+00 0.000E+00
CGA:   2    -0.231560875537E+03   -0.30271E-01   -0.30252E-01  8320   0.190E+01-0.544E-03
CGA:   3    -0.231641172187E+03   -0.80297E-01   -0.80297E-01  8320   0.477E+00-0.527E-04
CGA:   4    -0.231680769386E+03   -0.39597E-01   -0.39625E-01  8320   0.336E+00-0.756E-03
CGA:   5    -0.231696284265E+03   -0.15515E-01   -0.15517E-01  8320   0.685E+00 0.143E-03
CGA:   6    -0.231711653512E+03   -0.15369E-01   -0.15321E-01  8320   0.105E+00 0.132E-02
CGA:   7    -0.231721044702E+03   -0.93912E-02   -0.93902E-02  8320   0.397E-01 0.156E-04
CGA:   8    -0.231722345942E+03   -0.13012E-02   -0.13012E-02  8320   0.571E-01-0.796E-05
CGA:   9    -0.231723964964E+03   -0.16190E-02   -0.16196E-02  8320   0.215E-01-0.227E-04
CGA:  10    -0.231725122025E+03   -0.11571E-02   -0.11574E-02  8320   0.584E-02-0.478E-04
CGA:  11    -0.231725371183E+03   -0.24916E-03   -0.24917E-03  8320   0.135E-01-0.201E-06
CGA:  12    -0.231725812096E+03   -0.44091E-03   -0.44095E-03  8320   0.258E-02-0.532E-06
CGA:  13    -0.231726028593E+03   -0.21650E-03   -0.21633E-03  8320   0.281E-02 0.472E-05
CGA:  14    -0.231726076310E+03   -0.47717E-04   -0.47720E-04  8320   0.136E-02 0.232E-05
CGA:  15    -0.231726166746E+03   -0.90436E-04   -0.90401E-04  8320   0.848E-03 0.190E-05
CGA:  16    -0.231726216415E+03   -0.49669E-04   -0.49653E-04  8320   0.137E-02 0.179E-05
CGA:  17    -0.231726241536E+03   -0.25121E-04   -0.25157E-04  8320   0.436E-03 0.504E-06
CGA:  18    -0.231726269345E+03   -0.27809E-04   -0.27785E-04  8320   0.237E-03 0.142E-05
CGA:  19    -0.231726280231E+03   -0.10886E-04   -0.10889E-04  8320   0.540E-03 0.685E-06
CGA:  20    -0.231726296620E+03   -0.16389E-04   -0.16415E-04  8320   0.171E-03 0.136E-05
CGA:  21    -0.231726309488E+03   -0.12868E-04   -0.12829E-04  8320   0.133E-03 0.143E-05
CGA:  22    -0.231726311917E+03   -0.24288E-05   -0.24411E-05  8320   0.832E-04 0.372E-06
  30 F= -.23172631E+03 E0= -.23170745E+03  d E =-.282555E-02  mag=     7.0700
       N       E                     dE             d eps       ncg     rms          ort
SDA:   1    -0.223730409447E+03    0.79959E+01    0.00000E+00  8320   0.504E+02 0.000E+00
CGA:   2    -0.224790979458E+03   -0.10606E+01   -0.13870E+01  8320   0.538E+02-0.145E+01
CGA:   3    -0.227093005112E+03   -0.23020E+01   -0.23138E+01  8320   0.525E+02 0.891E+00
[...]
CGA:  17    -0.231723700300E+03   -0.36228E-03   -0.36190E-03  8320   0.465E-02 0.135E-04
CGA:  18    -0.231724057064E+03   -0.35676E-03   -0.35638E-03  8320   0.801E-02 0.114E-04
CGA:  19    -0.231724190961E+03   -0.13390E-03   -0.13389E-03  8320   0.184E-02 0.763E-05
CGA:  20    -0.231724345280E+03   -0.15432E-03   -0.15427E-03  8320   0.340E-02 0.132E-05
CGA:  21    -0.231724413100E+03   -0.67820E-04   -0.67818E-04  8320   0.166E-02 0.284E-05
CGA:  22    -0.231724516115E+03   -0.10301E-03   -0.10294E-03  8320   0.141E-02 0.417E-05
CGA:  23    -0.231724552919E+03   -0.36804E-04   -0.36834E-04  8320   0.130E-02 0.199E-05
CGA:  24    -0.231724600783E+03   -0.47864E-04   -0.47886E-04  8320   0.487E-03 0.265E-05
CGA:  25    -0.231724625321E+03   -0.24538E-04   -0.24529E-04  8320   0.115E-02 0.153E-05
CGA:  26    -0.231724660595E+03   -0.35273E-04   -0.35310E-04  8320   0.312E-03 0.224E-05
CGA:  27    -0.231724677114E+03   -0.16519E-04   -0.16508E-04  8320   0.593E-03 0.125E-05
CGA:  28    -0.231724690171E+03   -0.13057E-04   -0.13080E-04  8320   0.123E-03 0.968E-06
CGA:  29    -0.231724698744E+03   -0.85729E-05   -0.85443E-05  8320   0.321E-03 0.105E-05
  93 F= -.23172470E+03 E0= -.23170606E+03  d E =0.160904E-02  mag=     7.0928
       N       E                     dE             d eps       ncg     rms          ort
SDA:   1    -0.230955291873E+03    0.76940E+00    0.00000E+00  8320   0.279E+01 0.000E+00
CGA:   2    -0.231126845174E+03   -0.17155E+00   -0.17127E+00  8320   0.744E+01 0.190E-01
CGA:   3    -0.231305029989E+03   -0.17818E+00   -0.17983E+00  8320   0.428E+01-0.477E-01
CGA:   4    -0.231528202817E+03   -0.22317E+00   -0.22270E+00  8320   0.102E+01 0.373E-01
CGA:   5    -0.231637531623E+03   -0.10933E+00   -0.10979E+00  8320   0.127E+01-0.789E-02
CGA:   6    -0.231660915127E+03   -0.23384E-01   -0.23601E-01  8320   0.875E+00-0.873E-02
CGA:   7    -0.231700591586E+03   -0.39676E-01   -0.39676E-01  8320   0.156E+00-0.589E-04
CGA:   8    -0.231714405567E+03   -0.13814E-01   -0.13802E-01  8320   0.862E-01 0.271E-03
CGA:   9    -0.231718553442E+03   -0.41479E-02   -0.41480E-02  8320   0.158E+00-0.154E-03
CGA:  10    -0.231721538674E+03   -0.29852E-02   -0.29920E-02  8320   0.298E-01-0.271E-03
CGA:  11    -0.231723841703E+03   -0.23030E-02   -0.23019E-02  8320   0.138E-01 0.333E-04
CGA:  12    -0.231724916172E+03   -0.10745E-02   -0.10736E-02  8320   0.113E-01 0.266E-04
CGA:  13    -0.231725454118E+03   -0.53795E-03   -0.53796E-03  8320   0.192E-01 0.395E-05
CGA:  14    -0.231725797835E+03   -0.34372E-03   -0.34385E-03  8320   0.292E-02-0.229E-05
CGA:  15    -0.231726132184E+03   -0.33435E-03   -0.33430E-03  8320   0.188E-02 0.799E-06
CGA:  16    -0.231726312151E+03   -0.17997E-03   -0.17973E-03  8320   0.424E-02 0.522E-05
CGA:  17    -0.231726376270E+03   -0.64119E-04   -0.64209E-04  8320   0.970E-03 0.105E-05
CGA:  18    -0.231726442225E+03   -0.65955E-04   -0.65918E-04  8320   0.728E-03 0.204E-05
CGA:  19    -0.231726507429E+03   -0.65204E-04   -0.65104E-04  8320   0.102E-02 0.261E-05
CGA:  20    -0.231726526535E+03   -0.19106E-04   -0.19140E-04  8320   0.646E-03 0.420E-06
CGA:  21    -0.231726562294E+03   -0.35759E-04   -0.35752E-04  8320   0.182E-03 0.230E-05
CGA:  22    -0.231726579128E+03   -0.16834E-04   -0.16746E-04  8320   0.359E-03 0.221E-05
CGA:  23    -0.231726586318E+03   -0.71905E-05   -0.72199E-05  8320   0.236E-03 0.791E-06
CGA:  24    -0.231726600911E+03   -0.14593E-04   -0.14583E-04  8320   0.636E-04 0.983E-06
CGA:  25    -0.231726605327E+03   -0.44160E-05   -0.44144E-05  8320   0.156E-03 0.796E-07
  94 F= -.23172661E+03 E0= -.23170788E+03  d E =-.190658E-02  mag=     7.0981
       N       E                     dE             d eps       ncg     rms          ort
SDA:   1    -0.231525983663E+03    0.20062E+00    0.00000E+00  8320   0.883E+00 0.000E+00
CGA:   2    -0.231548453161E+03   -0.22469E-01   -0.22652E-01  8320   0.129E+01-0.424E-02
CGA:   3    -0.231632322679E+03   -0.83870E-01   -0.83916E-01  8320   0.884E+00-0.215E-02
CGA:   4    -0.231681035718E+03   -0.48713E-01   -0.48689E-01  8320   0.291E+00 0.384E-02
CGA:   5    -0.231705093629E+03   -0.24058E-01   -0.23988E-01  8320   0.349E+00 0.204E-02
CGA:   6    -0.231711227700E+03   -0.61341E-02   -0.61763E-02  8320   0.197E+00-0.190E-02
CGA:   7    -0.231722501388E+03   -0.11274E-01   -0.11281E-01  8320   0.316E-01-0.767E-03
CGA:   8    -0.231724620382E+03   -0.21190E-02   -0.21181E-02  8320   0.732E-01 0.435E-04
CGA:   9    -0.231725941000E+03   -0.13206E-02   -0.13177E-02  8320   0.158E-01 0.129E-03
CGA:  10    -0.231727049151E+03   -0.11082E-02   -0.11080E-02  8320   0.755E-02 0.805E-05
CGA:  11    -0.231727293733E+03   -0.24458E-03   -0.24455E-03  8320   0.105E-01 0.150E-05
CGA:  12    -0.231727590148E+03   -0.29641E-03   -0.29665E-03  8320   0.323E-02-0.177E-05
CGA:  13    -0.231727850828E+03   -0.26068E-03   -0.26066E-03  8320   0.301E-02 0.494E-06
CGA:  14    -0.231727912457E+03   -0.61630E-04   -0.61647E-04  8320   0.210E-02-0.624E-06
CGA:  15    -0.231727992604E+03   -0.80147E-04   -0.80143E-04  8320   0.674E-03 0.581E-06
CGA:  16    -0.231728053766E+03   -0.61162E-04   -0.61133E-04  8320   0.158E-02 0.698E-06
CGA:  17    -0.231728080140E+03   -0.26374E-04   -0.26378E-04  8320   0.437E-03 0.430E-06
CGA:  18    -0.231728117615E+03   -0.37475E-04   -0.37499E-04  8320   0.246E-03-0.670E-06
CGA:  19    -0.231728124013E+03   -0.63982E-05   -0.63980E-05  8320   0.321E-03 0.468E-08
CGA:  20    -0.231728143294E+03   -0.19281E-04   -0.19279E-04  8320   0.172E-03 0.169E-06
CGA:  21    -0.231728152573E+03   -0.92793E-05   -0.92791E-05  8320   0.223E-03 0.796E-07
  95 F= -.23172815E+03 E0= -.23170948E+03  d E =-.154725E-02  mag=     7.0957
       N       E                     dE             d eps       ncg     rms          ort
SDA:   1    -0.231691202955E+03    0.36940E-01    0.00000E+00  8320   0.394E+00 0.000E+00
CGA:   2    -0.231696605130E+03   -0.54022E-02   -0.54438E-02  8320   0.150E+00-0.259E-02
CGA:   3    -0.231704801795E+03   -0.81967E-02   -0.82002E-02  8320   0.147E+00-0.279E-03
CGA:   4    -0.231720760695E+03   -0.15959E-01   -0.15946E-01  8320   0.482E-01 0.230E-03
CGA:   5    -0.231724133368E+03   -0.33727E-02   -0.33809E-02  8320   0.859E-01-0.333E-03
CGA:   6    -0.231725426768E+03   -0.12934E-02   -0.12930E-02  8320   0.192E-01 0.105E-04
CGA:   7    -0.231727284688E+03   -0.18579E-02   -0.18547E-02  8320   0.477E-02 0.689E-04
CGA:   8    -0.231727560421E+03   -0.27573E-03   -0.27575E-03  8320   0.941E-02-0.287E-05
CGA:   9    -0.231727737396E+03   -0.17697E-03   -0.17697E-03  8320   0.312E-02-0.654E-05
CGA:  10    -0.231727900602E+03   -0.16321E-03   -0.16321E-03  8320   0.103E-02-0.343E-05
CGA:  11    -0.231727990865E+03   -0.90263E-04   -0.90218E-04  8320   0.612E-03 0.127E-05
CGA:  12    -0.231728005875E+03   -0.15010E-04   -0.15016E-04  8320   0.760E-03 0.107E-06
CGA:  13    -0.231728044245E+03   -0.38369E-04   -0.38370E-04  8320   0.207E-03 0.468E-06
CGA:  14    -0.231728061100E+03   -0.16856E-04   -0.16857E-04  8320   0.986E-04-0.374E-07
CGA:  15    -0.231728068587E+03   -0.74866E-05   -0.74766E-05  8320   0.136E-03 0.411E-06
  96 F= -.23172807E+03 E0= -.23170939E+03  d E =0.839860E-04  mag=     7.0963
       N       E                     dE             d eps       ncg     rms          ort
SDA:   1    -0.231669677888E+03    0.58383E-01    0.00000E+00  8320   0.975E+00 0.000E+00
CGA:   2    -0.231680452787E+03   -0.10775E-01   -0.11086E-01  8320   0.171E+00-0.253E-01
CGA:   3    -0.231695437683E+03   -0.14985E-01   -0.14897E-01  8320   0.275E+00 0.212E-02
CGA:   4    -0.231713500868E+03   -0.18063E-01   -0.18065E-01  8320   0.451E+00-0.116E-03
CGA:   5    -0.231720260127E+03   -0.67593E-02   -0.67238E-02  8320   0.492E-01 0.161E-02
CGA:   6    -0.231724555671E+03   -0.42955E-02   -0.43017E-02  8320   0.343E-01-0.158E-03
CGA:   7    -0.231725470542E+03   -0.91487E-03   -0.91375E-03  8320   0.410E-01 0.195E-04
CGA:   8    -0.231726923382E+03   -0.14528E-02   -0.14534E-02  8320   0.885E-02 0.404E-05
CGA:   9    -0.231727424091E+03   -0.50071E-03   -0.50069E-03  8320   0.757E-02 0.925E-06
CGA:  10    -0.231727566161E+03   -0.14207E-03   -0.14218E-03  8320   0.444E-02-0.624E-05
CGA:  11    -0.231727811196E+03   -0.24504E-03   -0.24505E-03  8320   0.147E-02-0.116E-05
CGA:  12    -0.231727886101E+03   -0.74904E-04   -0.74904E-04  8320   0.267E-02 0.304E-06
CGA:  13    -0.231727940375E+03   -0.54275E-04   -0.54297E-04  8320   0.730E-03 0.271E-06
CGA:  14    -0.231727990464E+03   -0.50088E-04   -0.50078E-04  8320   0.421E-03 0.605E-06
CGA:  15    -0.231728001308E+03   -0.10844E-04   -0.10843E-04  8320   0.504E-03-0.791E-09
CGA:  16    -0.231728025187E+03   -0.23878E-04   -0.23878E-04  8320   0.123E-03-0.485E-06
CGA:  17    -0.231728031600E+03   -0.64130E-05   -0.64121E-05  8320   0.206E-03 0.238E-06
  97 F= -.23172803E+03 E0= -.23170934E+03  d E =0.369875E-04  mag=     7.0960
       N       E                     dE             d eps       ncg     rms          ort
SDA:   1    -0.231683772412E+03    0.44253E-01    0.00000E+00  8320   0.667E+00 0.000E+00
CGA:   2    -0.231692070734E+03   -0.82983E-02   -0.84237E-02  8320   0.185E+00-0.864E-02
CGA:   3    -0.231702593133E+03   -0.10522E-01   -0.10524E-01  8320   0.153E+00-0.800E-04
CGA:   4    -0.231715762867E+03   -0.13170E-01   -0.13171E-01  8320   0.146E+00-0.277E-04
CGA:   5    -0.231718252557E+03   -0.24897E-02   -0.24801E-02  8320   0.766E-01 0.391E-03
CGA:   6    -0.231722846820E+03   -0.45943E-02   -0.45993E-02  8320   0.393E-01-0.261E-03
CGA:   7    -0.231725528422E+03   -0.26816E-02   -0.26812E-02  8320   0.649E-01 0.149E-04
CGA:   8    -0.231726509987E+03   -0.98157E-03   -0.98453E-03  8320   0.103E-01-0.155E-03
CGA:   9    -0.231727192683E+03   -0.68270E-03   -0.68293E-03  8320   0.630E-02-0.975E-05
CGA:  10    -0.231727373735E+03   -0.18105E-03   -0.18112E-03  8320   0.841E-02-0.628E-06
CGA:  11    -0.231727693672E+03   -0.31994E-03   -0.31993E-03  8320   0.138E-02 0.910E-06
CGA:  12    -0.231727758795E+03   -0.65122E-04   -0.65121E-04  8320   0.208E-02 0.780E-06
CGA:  13    -0.231727805332E+03   -0.46537E-04   -0.46539E-04  8320   0.107E-02 0.795E-06
CGA:  14    -0.231727877226E+03   -0.71894E-04   -0.71914E-04  8320   0.538E-03-0.854E-06
CGA:  15    -0.231727890901E+03   -0.13675E-04   -0.13677E-04  8320   0.570E-03 0.184E-06
CGA:  16    -0.231727912177E+03   -0.21276E-04   -0.21281E-04  8320   0.165E-03 0.530E-06
CGA:  17    -0.231727925710E+03   -0.13533E-04   -0.13522E-04  8320   0.524E-03 0.285E-06
CGA:  18    -0.231727935990E+03   -0.10280E-04   -0.10285E-04  8320   0.870E-04 0.121E-06
CGA:  19    -0.231727942460E+03   -0.64704E-05   -0.64596E-05  8320   0.120E-03 0.370E-06
  98 F= -.23172794E+03 E0= -.23170926E+03  d E =0.891392E-04  mag=     7.0970
       N       E                     dE             d eps       ncg     rms          ort
SDA:   1    -0.231692498032E+03    0.35438E-01    0.00000E+00  8320   0.942E+00 0.000E+00
CGA:   2    -0.231702313311E+03   -0.98153E-02   -0.10016E-01  8320   0.100E+00-0.170E-01
CGA:   3    -0.231710412865E+03   -0.80996E-02   -0.81017E-02  8320   0.138E+00-0.461E-04
CGA:   4    -0.231717877431E+03   -0.74646E-02   -0.74627E-02  8320   0.218E+00 0.141E-03
CGA:   5    -0.231721507312E+03   -0.36299E-02   -0.36255E-02  8320   0.315E-01 0.149E-03
CGA:   6    -0.231725491500E+03   -0.39842E-02   -0.39783E-02  8320   0.469E-01 0.819E-04
CGA:   7    -0.231726245688E+03   -0.75419E-03   -0.75231E-03  8320   0.188E-01 0.886E-04
CGA:   8    -0.231727212026E+03   -0.96634E-03   -0.96633E-03  8320   0.608E-02 0.145E-05
CGA:   9    -0.231727479070E+03   -0.26704E-03   -0.26703E-03  8320   0.105E-01-0.212E-05
CGA:  10    -0.231727719936E+03   -0.24087E-03   -0.24084E-03  8320   0.266E-02-0.134E-05
CGA:  11    -0.231727878180E+03   -0.15824E-03   -0.15824E-03  8320   0.163E-02 0.341E-07
CGA:  12    -0.231727910463E+03   -0.32283E-04   -0.32294E-04  8320   0.114E-02-0.454E-06
CGA:  13    -0.231727972016E+03   -0.61554E-04   -0.61546E-04  8320   0.622E-03 0.877E-06
CGA:  14    -0.231728004083E+03   -0.32066E-04   -0.32068E-04  8320   0.101E-02-0.353E-06
CGA:  15    -0.231728022563E+03   -0.18480E-04   -0.18471E-04  8320   0.185E-03 0.101E-07
CGA:  16    -0.231728038096E+03   -0.15533E-04   -0.15518E-04  8320   0.239E-03 0.370E-06
CGA:  17    -0.231728042594E+03   -0.44984E-05   -0.45010E-05  8320   0.141E-03 0.133E-06
CGA:  18    -0.231728053330E+03   -0.10736E-04   -0.10736E-04  8320   0.880E-04-0.281E-08
CGA:  19    -0.231728055914E+03   -0.25840E-05   -0.25856E-05  8320   0.102E-03 0.892E-07
  99 F= -.23172806E+03 E0= -.23170936E+03  d E =-.113454E-03  mag=     7.0972
       N       E                     dE             d eps       ncg     rms          ort
SDA:   1    -0.231486495974E+03    0.24156E+00    0.00000E+00  8320   0.174E+01 0.000E+00
CGA:   2    -0.231514223494E+03   -0.27728E-01   -0.28240E-01  8320   0.111E+01-0.250E-01
CGA:   3    -0.231611028817E+03   -0.96805E-01   -0.97047E-01  8320   0.966E+00-0.493E-02
CGA:   4    -0.231660386713E+03   -0.49358E-01   -0.49318E-01  8320   0.505E+00 0.450E-02
CGA:   5    -0.231672957267E+03   -0.12571E-01   -0.12527E-01  8320   0.587E+00 0.634E-03
CGA:   6    -0.231705147208E+03   -0.32190E-01   -0.32142E-01  8320   0.171E+00 0.336E-02
CGA:   7    -0.231715475037E+03   -0.10328E-01   -0.10332E-01  8320   0.214E+00-0.207E-03
CGA:   8    -0.231718737303E+03   -0.32623E-02   -0.32749E-02  8320   0.507E-01-0.656E-03
CGA:   9    -0.231722899171E+03   -0.41619E-02   -0.41644E-02  8320   0.327E-01-0.617E-04
CGA:  10    -0.231723845319E+03   -0.94615E-03   -0.94689E-03  8320   0.379E-01-0.849E-05
CGA:  11    -0.231724882557E+03   -0.10372E-02   -0.10363E-02  8320   0.714E-02 0.364E-05
CGA:  12    -0.231725475302E+03   -0.59274E-03   -0.59253E-03  8320   0.132E-01 0.571E-05
CGA:  13    -0.231725718996E+03   -0.24369E-03   -0.24342E-03  8320   0.579E-02 0.133E-04
CGA:  14    -0.231726001361E+03   -0.28236E-03   -0.28235E-03  8320   0.221E-02 0.186E-05
CGA:  15    -0.231726109395E+03   -0.10803E-03   -0.10803E-03  8320   0.407E-02 0.118E-06
CGA:  16    -0.231726196513E+03   -0.87119E-04   -0.87129E-04  8320   0.104E-02 0.330E-07
CGA:  17    -0.231726300399E+03   -0.10389E-03   -0.10379E-03  8320   0.134E-02 0.169E-05
CGA:  18    -0.231726323635E+03   -0.23236E-04   -0.23252E-04  8320   0.683E-03-0.466E-07
CGA:  19    -0.231726371654E+03   -0.48019E-04   -0.48001E-04  8320   0.316E-03 0.718E-06
CGA:  20    -0.231726383344E+03   -0.11690E-04   -0.11690E-04  8320   0.589E-03-0.271E-07
CGA:  21    -0.231726406280E+03   -0.22935E-04   -0.22938E-04  8320   0.311E-03 0.223E-06
CGA:  22    -0.231726423741E+03   -0.17461E-04   -0.17454E-04  8320   0.223E-03 0.731E-06
CGA:  23    -0.231726427739E+03   -0.39985E-05   -0.40066E-05  8320   0.121E-03 0.320E-06
 100 F= -.23172643E+03 E0= -.23170772E+03  d E =0.162818E-02  mag=     7.0991
       N       E                     dE             d eps       ncg     rms          ort
SDA:   1    -0.231624419630E+03    0.10200E+00    0.00000E+00  8320   0.634E+00 0.000E+00
CGA:   2    -0.231636314769E+03   -0.11895E-01   -0.12014E-01  8320   0.558E+00-0.457E-02
CGA:   3    -0.231679030534E+03   -0.42716E-01   -0.42891E-01  8320   0.383E+00-0.501E-02
CGA:   4    -0.231699349090E+03   -0.20319E-01   -0.20306E-01  8320   0.204E+00 0.127E-02
CGA:   5    -0.231705023277E+03   -0.56742E-02   -0.56607E-02  8320   0.281E+00 0.134E-03
CGA:   6    -0.231718216694E+03   -0.13193E-01   -0.13193E-01  8320   0.867E-01 0.481E-03
CGA:   7    -0.231723289960E+03   -0.50733E-02   -0.50747E-02  8320   0.642E-01-0.843E-04
CGA:   8    -0.231724336835E+03   -0.10469E-02   -0.10500E-02  8320   0.285E-01-0.141E-03
CGA:   9    -0.231726407599E+03   -0.20708E-02   -0.20700E-02  8320   0.132E-01 0.248E-04
CGA:  10    -0.231726879329E+03   -0.47173E-03   -0.47172E-03  8320   0.183E-01 0.167E-06
CGA:  11    -0.231727299462E+03   -0.42013E-03   -0.41994E-03  8320   0.333E-02 0.504E-05
CGA:  12    -0.231727592254E+03   -0.29279E-03   -0.29274E-03  8320   0.539E-02 0.142E-05
CGA:  13    -0.231727690474E+03   -0.98220E-04   -0.98170E-04  8320   0.254E-02 0.295E-05
CGA:  14    -0.231727815195E+03   -0.12472E-03   -0.12471E-03  8320   0.108E-02 0.194E-05
CGA:  15    -0.231727866285E+03   -0.51091E-04   -0.51090E-04  8320   0.165E-02 0.478E-06
CGA:  16    -0.231727898690E+03   -0.32405E-04   -0.32414E-04  8320   0.452E-03-0.208E-07
CGA:  17    -0.231727954574E+03   -0.55884E-04   -0.55825E-04  8320   0.677E-03 0.727E-06
CGA:  18    -0.231727964357E+03   -0.97824E-05   -0.97865E-05  8320   0.184E-03-0.152E-06
CGA:  19    -0.231727979931E+03   -0.15574E-04   -0.15573E-04  8320   0.201E-03 0.292E-07
CGA:  20    -0.231727986839E+03   -0.69074E-05   -0.69100E-05  8320   0.303E-03 0.168E-06
 101 F= -.23172799E+03 E0= -.23170928E+03  d E =-.155910E-02  mag=     7.0978
       N       E                     dE             d eps       ncg     rms          ort
SDA:   1    -0.231711470921E+03    0.16509E-01    0.00000E+00  8320   0.362E+00 0.000E+00
CGA:   2    -0.231715815526E+03   -0.43446E-02   -0.43069E-02  8320   0.729E-01 0.241E-02
CGA:   3    -0.231718759231E+03   -0.29437E-02   -0.29434E-02  8320   0.388E-01-0.135E-04
CGA:   4    -0.231724398705E+03   -0.56395E-02   -0.56410E-02  8320   0.361E-01-0.178E-04
CGA:   5    -0.231725527131E+03   -0.11284E-02   -0.11277E-02  8320   0.504E-01 0.472E-05
CGA:   6    -0.231726796405E+03   -0.12693E-02   -0.12701E-02  8320   0.695E-02-0.149E-04
CGA:   7    -0.231727623465E+03   -0.82706E-03   -0.82678E-03  8320   0.293E-02 0.407E-05
CGA:   8    -0.231727829163E+03   -0.20570E-03   -0.20573E-03  8320   0.575E-02-0.162E-05
CGA:   9    -0.231727912303E+03   -0.83140E-04   -0.83195E-04  8320   0.602E-03-0.513E-05
CGA:  10    -0.231727994297E+03   -0.81994E-04   -0.82105E-04  8320   0.272E-03-0.127E-05
CGA:  11    -0.231728017411E+03   -0.23114E-04   -0.23138E-04  8320   0.267E-03-0.807E-06
CGA:  12    -0.231728024099E+03   -0.66879E-05   -0.66923E-05  8320   0.291E-03 0.171E-06
CGA:  13    -0.231728034392E+03   -0.10293E-04   -0.10306E-04  8320   0.783E-04 0.551E-06
CGA:  14    -0.231728040674E+03   -0.62823E-05   -0.62743E-05  8320   0.485E-04 0.303E-06
 102 F= -.23172804E+03 E0= -.23170934E+03  d E =-.538357E-04  mag=     7.0974
       N       E                     dE             d eps       ncg     rms          ort
SDA:   1    -0.231681627605E+03    0.46407E-01    0.00000E+00  8320   0.916E+00 0.000E+00
CGA:   2    -0.231691225388E+03   -0.95978E-02   -0.98906E-02  8320   0.116E+00-0.251E-01
CGA:   3    -0.231707325613E+03   -0.16100E-01   -0.16127E-01  8320   0.239E+00-0.330E-03
CGA:   4    -0.231714395550E+03   -0.70699E-02   -0.70934E-02  8320   0.296E+00-0.418E-03
CGA:   5    -0.231723079384E+03   -0.86838E-02   -0.87010E-02  8320   0.332E-01-0.302E-03
CGA:   6    -0.231724995937E+03   -0.19166E-02   -0.19165E-02  8320   0.552E-01 0.148E-04
CGA:   7    -0.231726010990E+03   -0.10151E-02   -0.10098E-02  8320   0.169E-01 0.205E-03
CGA:   8    -0.231727144632E+03   -0.11336E-02   -0.11335E-02  8320   0.891E-02 0.517E-05
CGA:   9    -0.231727374579E+03   -0.22995E-03   -0.22984E-03  8320   0.844E-02 0.332E-05
CGA:  10    -0.231727619233E+03   -0.24465E-03   -0.24470E-03  8320   0.246E-02 0.946E-07
CGA:  11    -0.231727778206E+03   -0.15897E-03   -0.15904E-03  8320   0.258E-02-0.397E-05
CGA:  12    -0.231727820696E+03   -0.42490E-04   -0.42506E-04  8320   0.979E-03-0.193E-05
CGA:  13    -0.231727901158E+03   -0.80462E-04   -0.80430E-04  8320   0.531E-03 0.106E-05
CGA:  14    -0.231727913567E+03   -0.12409E-04   -0.12413E-04  8320   0.546E-03-0.393E-07
CGA:  15    -0.231727942741E+03   -0.29174E-04   -0.29174E-04  8320   0.171E-03 0.103E-06
CGA:  16    -0.231727950147E+03   -0.74054E-05   -0.74052E-05  8320   0.304E-03-0.207E-08
 103 F= -.23172795E+03 E0= -.23170924E+03  d E =0.905277E-04  mag=     7.0974
