       N       E                     dE             d eps       ncg     rms          ort
DAV:   1     0.711758463288E+04    0.71176E+04   -0.27622E+05  8528   0.168E+03
DAV:   2     0.740745139404E+03   -0.63768E+04   -0.60439E+04  8528   0.502E+02
DAV:   3    -0.366966006321E+03   -0.11077E+04   -0.10834E+04  8528   0.205E+02
DAV:   4    -0.430061557289E+03   -0.63096E+02   -0.61227E+02  8528   0.504E+01
DAV:   5    -0.435289537424E+03   -0.52280E+01   -0.50893E+01  8528   0.116E+01
SDA:   6    -0.184346793346E+03    0.25094E+03   -0.50893E+01  8528   0.156E+04 0.000E+00
CGA:   7    -0.300109017062E+03   -0.11576E+03   -0.88387E+02  8528   0.123E+04 0.331E+03
CGA:   8    -0.346586299533E+03   -0.46477E+02   -0.61634E+02  8528   0.768E+03-0.239E+03
CGA:   9    -0.358564517453E+03   -0.11978E+02   -0.16738E+02  8528   0.482E+03-0.444E+03
CGA:  10    -0.352649389516E+03    0.59151E+01   -0.16695E+02  8528   0.962E+03-0.440E+03
CGA:  11    -0.348732133588E+03    0.39173E+01   -0.27986E+02  8528   0.894E+03-0.625E+03
CGA:  12    -0.340078507185E+03    0.86536E+01   -0.26806E+02  8528   0.204E+04-0.165E+04
CGA:  13    -0.333937960000E+03    0.61405E+01   -0.66350E+02  8528   0.173E+04-0.147E+04
CGA:  14    -0.321068269176E+03    0.12870E+02   -0.57408E+02  8528   0.243E+04-0.198E+04
CGA:  15    -0.335138554369E+03   -0.14070E+02   -0.71054E+02  8528   0.149E+04-0.169E+04
CGA:  16    -0.346950180668E+03   -0.11812E+02   -0.42161E+02  8528   0.222E+04-0.269E+04
CGA:  17    -0.342237053862E+03    0.47131E+01   -0.69096E+02  8528   0.151E+04-0.136E+04
CGA:  18    -0.354890368270E+03   -0.12653E+02   -0.40410E+02  8528   0.206E+04-0.252E+04
CGA:  19    -0.349373136620E+03    0.55172E+01   -0.62889E+02  8528   0.114E+04-0.996E+03
CGA:  20    -0.372849345813E+03   -0.23476E+02   -0.86166E+01  8528   0.868E+03 0.140E+04
CGA:  21    -0.358417294746E+03    0.14432E+02   -0.23496E+02  8528   0.184E+04-0.102E+04
CGA:  22    -0.349239057957E+03    0.91782E+01   -0.47116E+02  8528   0.125E+04-0.100E+04
CGA:  23    -0.369087611690E+03   -0.19849E+02   -0.23798E+02  8528   0.106E+04-0.171E+04
CGA:  24    -0.367928474776E+03    0.11591E+01   -0.22716E+02  8528   0.118E+04-0.106E+04
CGA:  25    -0.362381949691E+03    0.55465E+01   -0.27808E+02  8528   0.150E+04-0.122E+04
CGA:  26    -0.367955593747E+03   -0.55736E+01   -0.30757E+02  8528   0.120E+04-0.134E+04
CGA:  27    -0.368737199417E+03   -0.78161E+00   -0.26324E+02  8528   0.116E+04-0.117E+04
CGA:  28    -0.373483897509E+03   -0.47467E+01   -0.24146E+02  8528   0.754E+03-0.864E+03
CGA:  29    -0.378723588427E+03   -0.52397E+01   -0.14934E+02  8528   0.383E+03-0.565E+03
CGA:  30    -0.380258245432E+03   -0.15347E+01   -0.78330E+01  8528   0.178E+03-0.205E+03
CGA:  31    -0.383067994659E+03   -0.28097E+01   -0.23490E+01  8528   0.856E+01-0.165E+02
CGA:  32    -0.383480582080E+03   -0.41259E+00   -0.40670E+00  8528   0.118E+02-0.475E-01
CGA:  33    -0.384370548347E+03   -0.88997E+00   -0.14870E+01  8528   0.109E+03-0.120E+02
CGA:  34    -0.384661502276E+03   -0.29095E+00   -0.24324E+01  8528   0.959E+02-0.849E+02
CGA:  35    -0.385738735566E+03   -0.10772E+01   -0.11978E+01  8528   0.492E+01-0.117E+02
CGA:  36    -0.385841940293E+03   -0.10320E+00   -0.98370E-01  8528   0.328E+01 0.158E+00
CGA:  37    -0.386292397982E+03   -0.45046E+00   -0.46108E+00  8528   0.197E+02-0.521E+00
CGA:  38    -0.386746544644E+03   -0.45415E+00   -0.38745E+00  8528   0.220E+02 0.279E+01
CGA:  39    -0.387234519051E+03   -0.48797E+00   -0.54918E+00  8528   0.112E+02-0.108E+01
CGA:  40    -0.387431816771E+03   -0.19730E+00   -0.19527E+00  8528   0.499E+01 0.267E+00
CGA:  41    -0.387572897841E+03   -0.14108E+00   -0.13504E+00  8528   0.269E+01 0.455E+00
CGA:  42    -0.387628363001E+03   -0.55465E-01   -0.63249E-01  8528   0.172E+01-0.209E+00
CGA:  43    -0.387764470973E+03   -0.13611E+00   -0.12945E+00  8528   0.187E+01 0.212E+00
CGA:  44    -0.387871737461E+03   -0.10727E+00   -0.11185E+00  8528   0.140E+01 0.237E+00
CGA:  45    -0.387972645036E+03   -0.10091E+00   -0.10054E+00  8528   0.615E+00 0.595E-01
CGA:  46    -0.388072124377E+03   -0.99479E-01   -0.87558E-01  8528   0.489E+00 0.140E+00
CGA:  47    -0.388143029405E+03   -0.70905E-01   -0.69847E-01  8528   0.358E+00 0.217E-01
CGA:  48    -0.387877360219E+03    0.26567E+00   -0.11945E+00  8528   0.553E+01-0.631E+00
CGA:  49    -0.388236780928E+03   -0.35942E+00   -0.27482E+00  8528   0.878E+00 0.117E+01
CGA:  50    -0.388281714276E+03   -0.44933E-01   -0.38225E-01  8528   0.492E+00 0.110E+00
CGA:  51    -0.388302448197E+03   -0.20734E-01   -0.17669E-01  8528   0.348E+00 0.694E-01
CGA:  52    -0.388315780300E+03   -0.13332E-01   -0.12951E-01  8528   0.379E+00 0.479E-02
CGA:  53    -0.388337110144E+03   -0.21330E-01   -0.22351E-01  8528   0.736E+00 0.295E-01
CGA:  54    -0.388354059302E+03   -0.16949E-01   -0.10214E-01  8528   0.583E+00 0.498E+00
CGA:  55    -0.388383909109E+03   -0.29850E-01   -0.29934E-01  8528   0.918E-01 0.892E-03
CGA:  56    -0.388398820598E+03   -0.14911E-01   -0.15288E-01  8528   0.192E+00-0.633E-02
CGA:  57    -0.388431257783E+03   -0.32437E-01   -0.31460E-01  8528   0.298E+00 0.661E-02
CGA:  58    -0.388452250823E+03   -0.20993E-01   -0.17497E-01  8528   0.212E+00-0.159E-01
CGA:  59    -0.388464002559E+03   -0.11752E-01   -0.10454E-01  8528   0.245E+00 0.266E-02
CGA:  60    -0.388471693736E+03   -0.76912E-02   -0.69011E-02  8528   0.262E+00 0.198E-01
CGA:  61    -0.388481955003E+03   -0.10261E-01   -0.10672E-01  8528   0.272E+00-0.556E-02
CGA:  62    -0.388488838886E+03   -0.68839E-02   -0.73434E-02  8528   0.173E+00-0.107E-01
CGA:  63    -0.388493354557E+03   -0.45157E-02   -0.43244E-02  8528   0.945E-01 0.503E-02
CGA:  64    -0.388495856032E+03   -0.25015E-02   -0.24776E-02  8528   0.652E-01 0.588E-03
CGA:  65    -0.388498474618E+03   -0.26186E-02   -0.25678E-02  8528   0.114E+00 0.335E-03
CGA:  66    -0.388503890292E+03   -0.54157E-02   -0.53632E-02  8528   0.229E+00-0.272E-03
CGA:  67    -0.388510244665E+03   -0.63544E-02   -0.62519E-02  8528   0.193E+00 0.389E-02
CGA:  68    -0.388514608884E+03   -0.43642E-02   -0.48772E-02  8528   0.119E+00-0.113E-01
CGA:  69    -0.388518135279E+03   -0.35264E-02   -0.39671E-02  8528   0.996E-01-0.215E-02
CGA:  70    -0.388521976728E+03   -0.38414E-02   -0.36910E-02  8528   0.567E-01 0.101E-02
CGA:  71    -0.388525132884E+03   -0.31562E-02   -0.31455E-02  8528   0.100E+00-0.261E-02
CGA:  72    -0.388529137540E+03   -0.40047E-02   -0.39168E-02  8528   0.120E+00 0.736E-04
CGA:  73    -0.388532371107E+03   -0.32336E-02   -0.33090E-02  8528   0.656E-01 0.283E-03
CGA:  74    -0.388534202685E+03   -0.18316E-02   -0.19070E-02  8528   0.369E-01-0.872E-03
CGA:  75    -0.388535501877E+03   -0.12992E-02   -0.13120E-02  8528   0.278E-01 0.110E-03
CGA:  76    -0.388536780251E+03   -0.12784E-02   -0.12705E-02  8528   0.383E-01-0.333E-03
CGA:  77    -0.388538689804E+03   -0.19096E-02   -0.19035E-02  8528   0.599E-01-0.148E-02
CGA:  78    -0.388540304466E+03   -0.16147E-02   -0.15143E-02  8528   0.495E-01 0.291E-02
CGA:  79    -0.388541581061E+03   -0.12766E-02   -0.13047E-02  8528   0.322E-01-0.115E-03
CGA:  80    -0.388542414442E+03   -0.83338E-03   -0.85752E-03  8528   0.211E-01-0.263E-03
CGA:  81    -0.388543009752E+03   -0.59531E-03   -0.60447E-03  8528   0.149E-01-0.606E-04
CGA:  82    -0.388543530744E+03   -0.52099E-03   -0.52037E-03  8528   0.159E-01-0.274E-04
CGA:  83    -0.388544155377E+03   -0.62463E-03   -0.62366E-03  8528   0.176E-01-0.824E-04
CGA:  84    -0.388544751431E+03   -0.59605E-03   -0.59274E-03  8528   0.170E-01-0.998E-04
SDA:  85    -0.388545346159E+03   -0.59473E-03   -0.59142E-03  8528   0.169E-01-0.131E-03
CGA:  86    -0.388546072194E+03   -0.72603E-03   -0.72653E-03  8528   0.493E-02 0.101E-03
CGA:  87    -0.388546763260E+03   -0.69107E-03   -0.69470E-03  8528   0.109E-01-0.487E-04
CGA:  88    -0.388547631533E+03   -0.86827E-03   -0.88744E-03  8528   0.149E-01-0.538E-03
CGA:  89    -0.388548358062E+03   -0.72653E-03   -0.72659E-03  8528   0.804E-02 0.209E-03
CGA:  90    -0.388549018068E+03   -0.66001E-03   -0.65924E-03  8528   0.620E-02 0.152E-05
CGA:  91    -0.388549390122E+03   -0.37205E-03   -0.37216E-03  8528   0.482E-02-0.242E-04
CGA:  92    -0.388549615127E+03   -0.22501E-03   -0.22278E-03  8528   0.376E-02-0.132E-03
CGA:  93    -0.388549887957E+03   -0.27283E-03   -0.27710E-03  8528   0.324E-02-0.161E-03
CGA:  94    -0.388550014059E+03   -0.12610E-03   -0.12623E-03  8528   0.135E-02-0.125E-04
CGA:  95    -0.388550076230E+03   -0.62171E-04   -0.62153E-04  8528   0.155E-02-0.204E-05
CGA:  96    -0.388550264900E+03   -0.18867E-03   -0.18894E-03  8528   0.206E-02-0.788E-05
CGA:  97    -0.388550370508E+03   -0.10561E-03   -0.10555E-03  8528   0.258E-02 0.586E-06
CGA:  98    -0.388550508943E+03   -0.13844E-03   -0.13795E-03  8528   0.136E-02-0.732E-04
CGA:  99    -0.388550572255E+03   -0.63312E-04   -0.63107E-04  8528   0.113E-02-0.704E-05
CGA: 100    -0.388550633346E+03   -0.61091E-04   -0.61082E-04  8528   0.166E-02-0.484E-05
CGA: 101    -0.388550743762E+03   -0.11042E-03   -0.11329E-03  8528   0.160E-02-0.162E-03
CGA: 102    -0.388550790417E+03   -0.46655E-04   -0.45303E-04  8528   0.110E-02 0.956E-05
CGA: 103    -0.388550831437E+03   -0.41020E-04   -0.40528E-04  8528   0.867E-03-0.501E-05
CGA: 104    -0.388550868138E+03   -0.36701E-04   -0.36431E-04  8528   0.114E-02-0.901E-05
CGA: 105    -0.388550918397E+03   -0.50259E-04   -0.50252E-04  8528   0.134E-02-0.496E-05
CGA: 106    -0.388550973424E+03   -0.55027E-04   -0.55088E-04  8528   0.125E-02-0.387E-05
CGA: 107    -0.388551009593E+03   -0.36169E-04   -0.34444E-04  8528   0.682E-03 0.229E-04
CGA: 108    -0.388551036375E+03   -0.26781E-04   -0.26481E-04  8528   0.932E-03-0.768E-05
CGA: 109    -0.388551071810E+03   -0.35436E-04   -0.35242E-04  8528   0.106E-02-0.856E-05
CGA: 110    -0.388551105336E+03   -0.33525E-04   -0.33688E-04  8528   0.106E-02-0.781E-05
CGA: 111    -0.388551143869E+03   -0.38533E-04   -0.38884E-04  8528   0.113E-02-0.127E-05
CGA: 112    -0.388551188108E+03   -0.44239E-04   -0.44459E-04  8528   0.108E-02 0.214E-06
CGA: 113    -0.388551224298E+03   -0.36190E-04   -0.36345E-04  8528   0.743E-03-0.472E-05
CGA: 114    -0.388551260924E+03   -0.36626E-04   -0.36589E-04  8528   0.109E-02 0.761E-05
CGA: 115    -0.388551312565E+03   -0.51641E-04   -0.51647E-04  8528   0.106E-02 0.617E-05
SDA: 116    -0.388551365563E+03   -0.52998E-04   -0.52938E-04  8528   0.114E-02 0.155E-04
CGA: 117    -0.388551414869E+03   -0.49306E-04   -0.49340E-04  8528   0.884E-03 0.588E-05
CGA: 118    -0.388551468399E+03   -0.53529E-04   -0.53489E-04  8528   0.779E-03 0.466E-05
CGA: 119    -0.388551538372E+03   -0.69974E-04   -0.68457E-04  8528   0.881E-03 0.368E-04
CGA: 120    -0.388551613030E+03   -0.74658E-04   -0.73349E-04  8528   0.391E-03 0.355E-04
CGA: 121    -0.388551650588E+03   -0.37558E-04   -0.37407E-04  8528   0.316E-03 0.367E-05
CGA: 122    -0.388551661632E+03   -0.11044E-04   -0.11093E-04  8528   0.129E-03 0.345E-06
CGA: 123    -0.388551671821E+03   -0.10189E-04   -0.10253E-04  8528   0.198E-03-0.236E-05
CGA: 124    -0.388551688374E+03   -0.16554E-04   -0.16602E-04  8528   0.808E-04-0.192E-05
CGA: 125    -0.388551693758E+03   -0.53839E-05   -0.53745E-05  8528   0.379E-04 0.774E-06
   1 F= -.38855169E+03 E0= -.38853809E+03  d E =-.388552E+03  mag=    16.0000
       N       E                     dE             d eps       ncg     rms          ort
SDA:   1    -0.388550674567E+03    0.10138E-02    0.00000E+00  8528   0.918E-01 0.000E+00
CGA:   2    -0.388552550841E+03   -0.18763E-02   -0.18737E-02  8528   0.388E-02 0.762E-04
CGA:   3    -0.388552665345E+03   -0.11450E-03   -0.11562E-03  8528   0.592E-03-0.153E-04
CGA:   4    -0.388552692159E+03   -0.26814E-04   -0.26834E-04  8528   0.200E-03 0.142E-05
CGA:   5    -0.388552712930E+03   -0.20771E-04   -0.20660E-04  8528   0.193E-03 0.227E-05
CGA:   6    -0.388552724883E+03   -0.11953E-04   -0.11948E-04  8528   0.136E-03 0.117E-05
CGA:   7    -0.388552730733E+03   -0.58493E-05   -0.58600E-05  8528   0.671E-04 0.756E-06
   2 F= -.38855273E+03 E0= -.38853912E+03  d E =-.103697E-02  mag=    16.0000
       N       E                     dE             d eps       ncg     rms          ort
SDA:   1    -0.388552828005E+03   -0.10312E-03    0.00000E+00  8528   0.303E-01 0.000E+00
CGA:   2    -0.388553509663E+03   -0.68166E-03   -0.67928E-03  8528   0.217E-02 0.672E-04
CGA:   3    -0.388553571863E+03   -0.62200E-04   -0.62180E-04  8528   0.373E-03 0.135E-05
CGA:   4    -0.388553593498E+03   -0.21635E-04   -0.21632E-04  8528   0.143E-03 0.672E-06
CGA:   5    -0.388553609914E+03   -0.16416E-04   -0.16348E-04  8528   0.161E-03 0.109E-05
CGA:   6    -0.388553620469E+03   -0.10555E-04   -0.10547E-04  8528   0.893E-04 0.765E-06
CGA:   7    -0.388553625192E+03   -0.47234E-05   -0.47230E-05  8528   0.221E-04-0.177E-06
   3 F= -.38855363E+03 E0= -.38854001E+03  d E =-.894459E-03  mag=    16.0000
       N       E                     dE             d eps       ncg     rms          ort
SDA:   1    -0.387220498056E+03    0.13331E+01    0.00000E+00  8528   0.476E+01 0.000E+00
CGA:   2    -0.387800692250E+03   -0.58019E+00   -0.57185E+00  8528   0.114E+02 0.149E+00
CGA:   3    -0.388301288192E+03   -0.50060E+00   -0.48143E+00  8528   0.255E+01 0.433E-01
CGA:   4    -0.388425423688E+03   -0.12414E+00   -0.12626E+00  8528   0.195E+01 0.367E-01
CGA:   5    -0.388622494074E+03   -0.19707E+00   -0.19795E+00  8528   0.690E+00-0.204E-01
CGA:   6    -0.388650723129E+03   -0.28229E-01   -0.28410E-01  8528   0.378E+00-0.265E-03
CGA:   7    -0.388669970972E+03   -0.19248E-01   -0.19153E-01  8528   0.247E+00-0.219E-02
CGA:   8    -0.388684849538E+03   -0.14879E-01   -0.14883E-01  8528   0.120E+00 0.152E-02
CGA:   9    -0.388692138953E+03   -0.72894E-02   -0.72883E-02  8528   0.418E-01-0.315E-03
CGA:  10    -0.388694333796E+03   -0.21948E-02   -0.21965E-02  8528   0.337E-01 0.616E-04
CGA:  11    -0.388696182484E+03   -0.18487E-02   -0.18479E-02  8528   0.257E-01-0.419E-04
CGA:  12    -0.388697748149E+03   -0.15657E-02   -0.15657E-02  8528   0.140E-01 0.112E-03
CGA:  13    -0.388698678371E+03   -0.93022E-03   -0.93060E-03  8528   0.669E-02-0.375E-04
CGA:  14    -0.388699052101E+03   -0.37373E-03   -0.37359E-03  8528   0.654E-02-0.760E-05
CGA:  15    -0.388699559169E+03   -0.50707E-03   -0.50727E-03  8528   0.834E-02-0.797E-05
CGA:  16    -0.388699964978E+03   -0.40581E-03   -0.40616E-03  8528   0.276E-02 0.801E-05
CGA:  17    -0.388700247000E+03   -0.28202E-03   -0.28180E-03  8528   0.390E-02 0.486E-05
CGA:  18    -0.388700493931E+03   -0.24693E-03   -0.24693E-03  8528   0.308E-02 0.467E-06
CGA:  19    -0.388700661237E+03   -0.16731E-03   -0.16728E-03  8528   0.266E-02-0.493E-06
CGA:  20    -0.388700817254E+03   -0.15602E-03   -0.15604E-03  8528   0.140E-02 0.383E-05
CGA:  21    -0.388700931595E+03   -0.11434E-03   -0.11441E-03  8528   0.850E-03-0.225E-05
CGA:  22    -0.388700983840E+03   -0.52245E-04   -0.52248E-04  8528   0.973E-03 0.115E-05
CGA:  23    -0.388701046773E+03   -0.62933E-04   -0.62933E-04  8528   0.777E-03 0.443E-06
CGA:  24    -0.388701081203E+03   -0.34429E-04   -0.34463E-04  8528   0.237E-03 0.143E-05
CGA:  25    -0.388701110806E+03   -0.29603E-04   -0.29507E-04  8528   0.363E-03 0.153E-05
CGA:  26    -0.388701131689E+03   -0.20883E-04   -0.20894E-04  8528   0.309E-03 0.123E-05
CGA:  27    -0.388701146626E+03   -0.14937E-04   -0.14938E-04  8528   0.150E-03 0.974E-07
CGA:  28    -0.388701156368E+03   -0.97418E-05   -0.97427E-05  8528   0.128E-03-0.496E-06
CGA:  29    -0.388701169982E+03   -0.13614E-04   -0.13680E-04  8528   0.124E-03-0.153E-05
CGA:  30    -0.388701175989E+03   -0.60070E-05   -0.59986E-05  8528   0.949E-04-0.545E-06
   4 F= -.38870118E+03 E0= -.38868745E+03  d E =-.147551E+00  mag=    16.0000
       N       E                     dE             d eps       ncg     rms          ort
SDA:   1    -0.388201927492E+03    0.49924E+00    0.00000E+00  8528   0.184E+01 0.000E+00
CGA:   2    -0.388467421691E+03   -0.26549E+00   -0.25846E+00  8528   0.371E+01 0.924E-01
CGA:   3    -0.388629685436E+03   -0.16226E+00   -0.16441E+00  8528   0.114E+01-0.210E-02
CGA:   4    -0.388672195803E+03   -0.42510E-01   -0.42481E-01  8528   0.756E+00-0.116E-03
CGA:   5    -0.388741635054E+03   -0.69439E-01   -0.70420E-01  8528   0.570E+00-0.291E-01
CGA:   6    -0.388764252026E+03   -0.22617E-01   -0.24011E-01  8528   0.133E+00-0.137E-02
CGA:   7    -0.388769129574E+03   -0.48775E-02   -0.49324E-02  8528   0.103E+00-0.559E-03
CGA:   8    -0.388777131357E+03   -0.80018E-02   -0.80217E-02  8528   0.526E-01-0.100E-02
CGA:   9    -0.388780078944E+03   -0.29476E-02   -0.29483E-02  8528   0.204E-01 0.179E-04
CGA:  10    -0.388781138182E+03   -0.10592E-02   -0.10622E-02  8528   0.109E-01 0.582E-04
CGA:  11    -0.388781784554E+03   -0.64637E-03   -0.64625E-03  8528   0.127E-01-0.635E-05
CGA:  12    -0.388782417626E+03   -0.63307E-03   -0.63206E-03  8528   0.635E-02-0.394E-05
CGA:  13    -0.388782874026E+03   -0.45640E-03   -0.45618E-03  8528   0.268E-02 0.196E-04
CGA:  14    -0.388783027762E+03   -0.15374E-03   -0.15366E-03  8528   0.187E-02-0.224E-05
CGA:  15    -0.388783215850E+03   -0.18809E-03   -0.18795E-03  8528   0.372E-02 0.348E-05
CGA:  16    -0.388783382773E+03   -0.16692E-03   -0.16685E-03  8528   0.178E-02-0.146E-05
CGA:  17    -0.388783472830E+03   -0.90057E-04   -0.90070E-04  8528   0.888E-03-0.281E-06
CGA:  18    -0.388783595297E+03   -0.12247E-03   -0.12240E-03  8528   0.120E-02 0.884E-06
CGA:  19    -0.388783675680E+03   -0.80382E-04   -0.80382E-04  8528   0.104E-02 0.234E-06
CGA:  20    -0.388783727016E+03   -0.51337E-04   -0.51374E-04  8528   0.699E-03 0.118E-05
CGA:  21    -0.388783758032E+03   -0.31016E-04   -0.31013E-04  8528   0.379E-03 0.314E-06
CGA:  22    -0.388783794205E+03   -0.36172E-04   -0.36159E-04  8528   0.275E-03 0.506E-06
CGA:  23    -0.388783820198E+03   -0.25994E-04   -0.25968E-04  8528   0.246E-03 0.842E-06
CGA:  24    -0.388783832550E+03   -0.12352E-04   -0.12362E-04  8528   0.131E-03 0.723E-06
CGA:  25    -0.388783839456E+03   -0.69057E-05   -0.69182E-05  8528   0.138E-03 0.866E-06
   5 F= -.38878384E+03 E0= -.38877003E+03  d E =-.826635E-01  mag=    16.0000
       N       E                     dE             d eps       ncg     rms          ort
SDA:   1    -0.380965425773E+03    0.78184E+01    0.00000E+00  8528   0.314E+02 0.000E+00
CGA:   2    -0.383013687010E+03   -0.20483E+01   -0.20564E+01  8528   0.465E+02 0.288E+01
CGA:   3    -0.386460822829E+03   -0.34471E+01   -0.34873E+01  8528   0.383E+02-0.109E+02
CGA:   4    -0.387393445949E+03   -0.93262E+00   -0.93482E+00  8528   0.830E+01-0.408E+00
CGA:   5    -0.388070189693E+03   -0.67674E+00   -0.66816E+00  8528   0.122E+02 0.362E+00
CGA:   6    -0.388556085312E+03   -0.48590E+00   -0.46296E+00  8528   0.546E+01 0.314E+00
CGA:   7    -0.388710697381E+03   -0.15461E+00   -0.16591E+00  8528   0.236E+01-0.205E+00
CGA:   8    -0.388835043025E+03   -0.12435E+00   -0.12575E+00  8528   0.845E+00 0.729E-01
CGA:   9    -0.388883215077E+03   -0.48172E-01   -0.46833E-01  8528   0.105E+01-0.525E-01
CGA:  10    -0.388926511193E+03   -0.43296E-01   -0.44248E-01  8528   0.686E+00 0.762E-02
CGA:  11    -0.388946784001E+03   -0.20273E-01   -0.20860E-01  8528   0.214E+00-0.925E-02
CGA:  12    -0.388959854907E+03   -0.13071E-01   -0.13096E-01  8528   0.116E+00-0.572E-02
CGA:  13    -0.388967163912E+03   -0.73090E-02   -0.72577E-02  8528   0.176E+00 0.604E-02
CGA:  14    -0.388975487216E+03   -0.83233E-02   -0.82522E-02  8528   0.960E-01-0.687E-03
CGA:  15    -0.388979057458E+03   -0.35702E-02   -0.36159E-02  8528   0.332E-01-0.743E-04
CGA:  16    -0.388982480541E+03   -0.34231E-02   -0.33419E-02  8528   0.309E-01 0.169E-02
CGA:  17    -0.388985169698E+03   -0.26892E-02   -0.26880E-02  8528   0.340E-01 0.419E-04
CGA:  18    -0.388987311972E+03   -0.21423E-02   -0.21413E-02  8528   0.180E-01 0.308E-03
CGA:  19    -0.388988256974E+03   -0.94500E-03   -0.94965E-03  8528   0.232E-01 0.179E-03
CGA:  20    -0.388989892140E+03   -0.16352E-02   -0.16386E-02  8528   0.139E-01-0.242E-03
CGA:  21    -0.388990913340E+03   -0.10212E-02   -0.10194E-02  8528   0.117E-01 0.923E-04
CGA:  22    -0.388991698249E+03   -0.78491E-03   -0.78465E-03  8528   0.680E-02 0.336E-04
CGA:  23    -0.388992119612E+03   -0.42136E-03   -0.42138E-03  8528   0.906E-02 0.160E-04
CGA:  24    -0.388992576193E+03   -0.45658E-03   -0.45653E-03  8528   0.355E-02 0.754E-06
CGA:  25    -0.388992847915E+03   -0.27172E-03   -0.27142E-03  8528   0.339E-02 0.155E-04
CGA:  26    -0.388993095268E+03   -0.24735E-03   -0.24735E-03  8528   0.178E-02 0.143E-05
CGA:  27    -0.388993196266E+03   -0.10100E-03   -0.10102E-03  8528   0.228E-02 0.277E-05
CGA:  28    -0.388993337105E+03   -0.14084E-03   -0.14084E-03  8528   0.150E-02-0.348E-06
CGA:  29    -0.388993429422E+03   -0.92316E-04   -0.92319E-04  8528   0.777E-03 0.125E-05
CGA:  30    -0.388993492720E+03   -0.63299E-04   -0.63430E-04  8528   0.690E-03-0.575E-05
CGA:  31    -0.388993538250E+03   -0.45530E-04   -0.45539E-04  8528   0.876E-03-0.281E-05
SDA:  32    -0.388993581882E+03   -0.43632E-04   -0.43531E-04  8528   0.475E-03-0.443E-05
CGA:  33    -0.388993594869E+03   -0.12987E-04   -0.13009E-04  8528   0.161E-03-0.221E-06
CGA:  34    -0.388993609521E+03   -0.14652E-04   -0.14651E-04  8528   0.392E-03-0.345E-07
CGA:  35    -0.388993641058E+03   -0.31536E-04   -0.31541E-04  8528   0.186E-03-0.220E-06
CGA:  36    -0.388993652273E+03   -0.11216E-04   -0.11213E-04  8528   0.938E-04-0.528E-06
CGA:  37    -0.388993664631E+03   -0.12358E-04   -0.12473E-04  8528   0.129E-03-0.165E-05
CGA:  38    -0.388993677753E+03   -0.13121E-04   -0.13205E-04  8528   0.224E-03-0.206E-05
CGA:  39    -0.388993685967E+03   -0.82138E-05   -0.81907E-05  8528   0.991E-04-0.809E-06
   6 F= -.38899369E+03 E0= -.38897960E+03  d E =-.209847E+00  mag=    16.0000
       N       E                     dE             d eps       ncg     rms          ort
SDA:   1    -0.387235147721E+03    0.17585E+01    0.00000E+00  8528   0.597E+01 0.000E+00
CGA:   2    -0.387877052173E+03   -0.64190E+00   -0.62236E+00  8528   0.113E+02 0.454E+00
CGA:   3    -0.388551170807E+03   -0.67412E+00   -0.65906E+00  8528   0.546E+01-0.249E+00
CGA:   4    -0.388710521320E+03   -0.15935E+00   -0.17092E+00  8528   0.224E+01-0.243E+00
CGA:   5    -0.388913200735E+03   -0.20268E+00   -0.20232E+00  8528   0.165E+01 0.963E-02
CGA:   6    -0.388998868835E+03   -0.85668E-01   -0.86215E-01  8528   0.499E+00 0.654E-02
CGA:   7    -0.389023857777E+03   -0.24989E-01   -0.24995E-01  8528   0.323E+00 0.687E-04
CGA:   8    -0.389038083437E+03   -0.14226E-01   -0.14311E-01  8528   0.236E+00 0.113E-04
CGA:   9    -0.389051931641E+03   -0.13848E-01   -0.13837E-01  8528   0.867E-01-0.714E-03
CGA:  10    -0.389055749935E+03   -0.38183E-02   -0.38402E-02  8528   0.334E-01 0.489E-04
CGA:  11    -0.389058831592E+03   -0.30817E-02   -0.30738E-02  8528   0.411E-01 0.226E-03
CGA:  12    -0.389060370258E+03   -0.15387E-02   -0.15454E-02  8528   0.200E-01-0.496E-04
CGA:  13    -0.389061481779E+03   -0.11115E-02   -0.11116E-02  8528   0.113E-01 0.836E-05
CGA:  14    -0.389062188307E+03   -0.70653E-03   -0.70659E-03  8528   0.632E-02 0.438E-04
CGA:  15    -0.389062773119E+03   -0.58481E-03   -0.58499E-03  8528   0.877E-02-0.351E-05
CGA:  16    -0.389063162976E+03   -0.38986E-03   -0.39087E-03  8528   0.569E-02 0.102E-04
CGA:  17    -0.389063457717E+03   -0.29474E-03   -0.29549E-03  8528   0.365E-02 0.188E-04
CGA:  18    -0.389063815061E+03   -0.35734E-03   -0.35844E-03  8528   0.389E-02-0.270E-04
CGA:  19    -0.389064134970E+03   -0.31991E-03   -0.31966E-03  8528   0.406E-02 0.916E-05
CGA:  20    -0.389064291417E+03   -0.15645E-03   -0.15672E-03  8528   0.203E-02-0.252E-05
CGA:  21    -0.389064417417E+03   -0.12600E-03   -0.12599E-03  8528   0.209E-02-0.139E-05
CGA:  22    -0.389064594017E+03   -0.17660E-03   -0.17656E-03  8528   0.101E-02 0.191E-05
CGA:  23    -0.389064649613E+03   -0.55597E-04   -0.55602E-04  8528   0.788E-03 0.165E-06
CGA:  24    -0.389064695222E+03   -0.45608E-04   -0.45620E-04  8528   0.840E-03 0.133E-05
CGA:  25    -0.389064739421E+03   -0.44199E-04   -0.44218E-04  8528   0.421E-03 0.101E-05
CGA:  26    -0.389064771568E+03   -0.32147E-04   -0.32139E-04  8528   0.315E-03 0.738E-06
CGA:  27    -0.389064791592E+03   -0.20024E-04   -0.20023E-04  8528   0.242E-03 0.214E-06
CGA:  28    -0.389064805017E+03   -0.13426E-04   -0.13427E-04  8528   0.277E-03 0.757E-07
CGA:  29    -0.389064821080E+03   -0.16063E-04   -0.16058E-04  8528   0.146E-03-0.901E-06
CGA:  30    -0.389064832686E+03   -0.11605E-04   -0.11625E-04  8528   0.108E-03-0.117E-05
CGA:  31    -0.389064839308E+03   -0.66225E-05   -0.66192E-05  8528   0.106E-03-0.105E-05
   7 F= -.38906484E+03 E0= -.38905059E+03  d E =-.711533E-01  mag=    16.0000
       N       E                     dE             d eps       ncg     rms          ort
SDA:   1    -0.377702929567E+03    0.11362E+02    0.00000E+00  8528   0.438E+02 0.000E+00
CGA:   2    -0.380580577325E+03   -0.28776E+01   -0.28628E+01  8528   0.551E+02 0.598E+01
CGA:   3    -0.384647381652E+03   -0.40668E+01   -0.41346E+01  8528   0.992E+02-0.204E+02
CGA:   4    -0.385717720134E+03   -0.10703E+01   -0.98662E+00  8528   0.125E+03-0.593E+01
CGA:   5    -0.386137483902E+03   -0.41976E+00   -0.20765E+01  8528   0.634E+02-0.591E+02
CGA:   6    -0.386600139320E+03   -0.46266E+00   -0.52606E+00  8528   0.354E+02-0.390E+01
CGA:   7    -0.387165404458E+03   -0.56527E+00   -0.41168E+00  8528   0.146E+02 0.104E+02
CGA:   8    -0.387411175981E+03   -0.24577E+00   -0.20410E+00  8528   0.104E+02 0.295E+01
CGA:   9    -0.387711882573E+03   -0.30071E+00   -0.30657E+00  8528   0.282E+02-0.129E+00
CGA:  10    -0.388114158782E+03   -0.40228E+00   -0.45143E+00  8528   0.317E+02-0.225E+01
CGA:  11    -0.388372133925E+03   -0.25798E+00   -0.32493E+00  8528   0.168E+02-0.474E+01
CGA:  12    -0.388531730647E+03   -0.15960E+00   -0.15162E+00  8528   0.968E+01 0.610E+00
CGA:  13    -0.388629327992E+03   -0.97597E-01   -0.79263E-01  8528   0.457E+01 0.197E+01
CGA:  14    -0.388675219005E+03   -0.45891E-01   -0.36867E-01  8528   0.220E+01 0.122E+01
CGA:  15    -0.388700878924E+03   -0.25660E-01   -0.21478E-01  8528   0.187E+01 0.483E+00
CGA:  16    -0.388729275479E+03   -0.28397E-01   -0.24833E-01  8528   0.352E+01 0.273E+00
CGA:  17    -0.388775710399E+03   -0.46435E-01   -0.39896E-01  8528   0.695E+01 0.574E+00
CGA:  18    -0.388844954837E+03   -0.69244E-01   -0.60196E-01  8528   0.826E+01 0.113E+01
CGA:  19    -0.388903264311E+03   -0.58309E-01   -0.65413E-01  8528   0.534E+01-0.951E+00
CGA:  20    -0.388926109487E+03   -0.22845E-01   -0.33930E-01  8528   0.412E+01-0.131E+01
CGA:  21    -0.388947354371E+03   -0.21245E-01   -0.27439E-01  8528   0.381E+01-0.533E+00
CGA:  22    -0.388973111019E+03   -0.25757E-01   -0.25437E-01  8528   0.221E+01 0.257E-01
CGA:  23    -0.388989064779E+03   -0.15954E-01   -0.15610E-01  8528   0.119E+01 0.366E-01
CGA:  24    -0.388999555596E+03   -0.10491E-01   -0.10501E-01  8528   0.106E+01-0.975E-03
CGA:  25    -0.389010794970E+03   -0.11239E-01   -0.11415E-01  8528   0.122E+01-0.973E-02
CGA:  26    -0.389022612808E+03   -0.11818E-01   -0.12114E-01  8528   0.106E+01-0.170E-01
CGA:  27    -0.389032181719E+03   -0.95689E-02   -0.10254E-01  8528   0.835E+00-0.465E-01
CGA:  28    -0.389041416256E+03   -0.92345E-02   -0.10027E-01  8528   0.858E+00-0.302E-01
CGA:  29    -0.389054185315E+03   -0.12769E-01   -0.13139E-01  8528   0.913E+00-0.123E-02
CGA:  30    -0.389069988786E+03   -0.15803E-01   -0.15783E-01  8528   0.111E+01 0.905E-04
CGA:  31    -0.389090886170E+03   -0.20897E-01   -0.20822E-01  8528   0.132E+01-0.238E-02
SDA:  32    -0.389107516656E+03   -0.16630E-01   -0.16576E-01  8528   0.663E+00 0.398E-02
CGA:  33    -0.389123646087E+03   -0.16129E-01   -0.16126E-01  8528   0.234E+00 0.268E-02
CGA:  34    -0.389140582334E+03   -0.16936E-01   -0.16795E-01  8528   0.149E+00 0.328E-02
CGA:  35    -0.389148456277E+03   -0.78739E-02   -0.78363E-02  8528   0.802E-01 0.146E-02
CGA:  36    -0.389155477628E+03   -0.70214E-02   -0.70264E-02  8528   0.519E-01-0.962E-04
CGA:  37    -0.389158454191E+03   -0.29766E-02   -0.29770E-02  8528   0.336E-01-0.266E-04
CGA:  38    -0.389160165988E+03   -0.17118E-02   -0.17072E-02  8528   0.163E-01 0.209E-03
CGA:  39    -0.389161016702E+03   -0.85071E-03   -0.85095E-03  8528   0.214E-01-0.958E-05
CGA:  40    -0.389162668821E+03   -0.16521E-02   -0.16498E-02  8528   0.137E-01 0.543E-04
CGA:  41    -0.389163335662E+03   -0.66684E-03   -0.66656E-03  8528   0.314E-02 0.176E-04
CGA:  42    -0.389164028635E+03   -0.69297E-03   -0.22445E-04  8528   0.870E-02-0.207E-03
CGA:  43    -0.389164520270E+03   -0.49164E-03   -0.49191E-03  8528   0.821E-02 0.212E-04
CGA:  44    -0.389164898330E+03   -0.37806E-03   -0.37812E-03  8528   0.556E-02 0.501E-08
CGA:  45    -0.389165193057E+03   -0.29473E-03   -0.29432E-03  8528   0.289E-02-0.108E-04
CGA:  46    -0.389165421240E+03   -0.22818E-03   -0.22841E-03  8528   0.477E-02-0.130E-04
CGA:  47    -0.389165922239E+03   -0.50100E-03   -0.50083E-03  8528   0.264E-02 0.128E-05
CGA:  48    -0.389166024977E+03   -0.10274E-03   -0.10277E-03  8528   0.158E-02-0.414E-05
CGA:  49    -0.389166113834E+03   -0.88857E-04   -0.88878E-04  8528   0.161E-02 0.128E-05
CGA:  50    -0.389166230616E+03   -0.11678E-03   -0.11675E-03  8528   0.115E-02 0.447E-05
CGA:  51    -0.389166304295E+03   -0.73678E-04   -0.73683E-04  8528   0.407E-03 0.392E-05
CGA:  52    -0.389166327392E+03   -0.23098E-04   -0.23116E-04  8528   0.562E-03 0.175E-05
CGA:  53    -0.389166365123E+03   -0.37730E-04   -0.37724E-04  8528   0.473E-03 0.352E-05
CGA:  54    -0.389166392012E+03   -0.26890E-04   -0.26902E-04  8528   0.278E-03 0.188E-05
CGA:  55    -0.389166410235E+03   -0.18222E-04   -0.18222E-04  8528   0.224E-03 0.737E-06
CGA:  56    -0.389166423211E+03   -0.12977E-04   -0.12975E-04  8528   0.162E-03-0.516E-06
CGA:  57    -0.389166434257E+03   -0.11046E-04   -0.11048E-04  8528   0.277E-03-0.629E-06
CGA:  58    -0.389166451157E+03   -0.16900E-04   -0.16895E-04  8528   0.121E-03-0.134E-05
CGA:  59    -0.389166460448E+03   -0.92909E-05   -0.92965E-05  8528   0.853E-04-0.496E-06
   8 F= -.38916646E+03 E0= -.38915183E+03  d E =-.101621E+00  mag=    16.0000
       N       E                     dE             d eps       ncg     rms          ort
SDA:   1    -0.383079256976E+03    0.60872E+01    0.00000E+00  8528   0.169E+02 0.000E+00
CGA:   2    -0.385418733224E+03   -0.23395E+01   -0.22999E+01  8528   0.631E+02 0.740E+00
CGA:   3    -0.387685988856E+03   -0.22673E+01   -0.24167E+01  8528   0.122E+02-0.252E+01
CGA:   4    -0.388263541992E+03   -0.57755E+00   -0.49230E+00  8528   0.523E+01 0.479E+00
CGA:   5    -0.388803876684E+03   -0.54033E+00   -0.53626E+00  8528   0.752E+01 0.100E+00
CGA:   6    -0.389004653245E+03   -0.20078E+00   -0.23617E+00  8528   0.225E+01-0.649E+00
CGA:   7    -0.389091099343E+03   -0.86446E-01   -0.87458E-01  8528   0.609E+00-0.222E-02
CGA:   8    -0.389142763615E+03   -0.51664E-01   -0.51847E-01  8528   0.559E+00-0.650E-02
CGA:   9    -0.389175263734E+03   -0.32500E-01   -0.32607E-01  8528   0.299E+00 0.647E-02
CGA:  10    -0.389187457921E+03   -0.12194E-01   -0.12162E-01  8528   0.983E-01 0.126E-03
CGA:  11    -0.389192650230E+03   -0.51923E-02   -0.51924E-02  8528   0.883E-01 0.502E-05
CGA:  12    -0.389196861626E+03   -0.42114E-02   -0.42195E-02  8528   0.602E-01 0.819E-04
CGA:  13    -0.389200314852E+03   -0.34532E-02   -0.34592E-02  8528   0.404E-01 0.471E-03
CGA:  14    -0.389202597136E+03   -0.22823E-02   -0.22819E-02  8528   0.128E-01-0.216E-04
CGA:  15    -0.389203547135E+03   -0.95000E-03   -0.95200E-03  8528   0.864E-02-0.105E-03
CGA:  16    -0.389204262108E+03   -0.71497E-03   -0.71257E-03  8528   0.138E-01 0.861E-04
CGA:  17    -0.389205019169E+03   -0.75706E-03   -0.75766E-03  8528   0.971E-02 0.221E-04
CGA:  18    -0.389205466237E+03   -0.44707E-03   -0.44592E-03  8528   0.538E-02-0.734E-05
CGA:  19    -0.389205725805E+03   -0.25957E-03   -0.25914E-03  8528   0.422E-02-0.603E-05
CGA:  20    -0.389206261911E+03   -0.53611E-03   -0.53525E-03  8528   0.332E-02 0.131E-04
CGA:  21    -0.389206521915E+03   -0.26000E-03   -0.26017E-03  8528   0.378E-02-0.821E-05
CGA:  22    -0.389206704384E+03   -0.18247E-03   -0.18250E-03  8528   0.230E-02 0.150E-05
CGA:  23    -0.389206798226E+03   -0.93842E-04   -0.94001E-04  8528   0.141E-02 0.128E-05
CGA:  24    -0.389206929843E+03   -0.13162E-03   -0.13145E-03  8528   0.145E-02 0.536E-05
CGA:  25    -0.389207022625E+03   -0.92783E-04   -0.92781E-04  8528   0.880E-03 0.119E-05
CGA:  26    -0.389207068475E+03   -0.45850E-04   -0.45885E-04  8528   0.590E-03 0.139E-05
CGA:  27    -0.389207109629E+03   -0.41154E-04   -0.41155E-04  8528   0.617E-03-0.473E-06
CGA:  28    -0.389207142419E+03   -0.32790E-04   -0.32768E-04  8528   0.634E-03-0.166E-05
CGA:  29    -0.389207176906E+03   -0.34486E-04   -0.34471E-04  8528   0.244E-03-0.170E-05
CGA:  30    -0.389207201578E+03   -0.24672E-04   -0.24735E-04  8528   0.205E-03-0.170E-05
CGA:  31    -0.389207216872E+03   -0.15294E-04   -0.15299E-04  8528   0.317E-03-0.463E-06
SDA:  32    -0.389207232980E+03   -0.16108E-04   -0.16098E-04  8528   0.232E-03-0.559E-06
CGA:  33    -0.389207239645E+03   -0.66650E-05   -0.66698E-05  8528   0.908E-04-0.911E-07
   9 F= -.38920724E+03 E0= -.38919252E+03  d E =-.407792E-01  mag=    16.0000
       N       E                     dE             d eps       ncg     rms          ort
SDA:   1    -0.384551222683E+03    0.46560E+01    0.00000E+00  8528   0.136E+02 0.000E+00
CGA:   2    -0.386594711810E+03   -0.20435E+01   -0.17771E+01  8528   0.167E+02 0.354E+01
CGA:   3    -0.387923465981E+03   -0.13288E+01   -0.12797E+01  8528   0.143E+02-0.333E+01
CGA:   4    -0.388366044600E+03   -0.44258E+00   -0.46431E+00  8528   0.156E+02-0.112E+00
CGA:   5    -0.388693561002E+03   -0.32752E+00   -0.39306E+00  8528   0.103E+02-0.197E+01
CGA:   6    -0.388878954580E+03   -0.18539E+00   -0.17444E+00  8528   0.337E+01 0.264E+00
CGA:   7    -0.388974368535E+03   -0.95414E-01   -0.94203E-01  8528   0.289E+01 0.184E-01
CGA:   8    -0.389062239019E+03   -0.87870E-01   -0.90259E-01  8528   0.253E+01-0.404E-01
CGA:   9    -0.389124520205E+03   -0.62281E-01   -0.64037E-01  8528   0.183E+01-0.479E-01
CGA:  10    -0.389171570120E+03   -0.47050E-01   -0.45503E-01  8528   0.782E+00 0.329E-01
CGA:  11    -0.389188894753E+03   -0.17325E-01   -0.17556E-01  8528   0.402E+00-0.820E-02
CGA:  12    -0.389198958630E+03   -0.10064E-01   -0.10109E-01  8528   0.285E+00-0.104E-02
CGA:  13    -0.389208453894E+03   -0.94953E-02   -0.95416E-02  8528   0.324E+00-0.754E-04
CGA:  14    -0.389218801328E+03   -0.10347E-01   -0.10423E-01  8528   0.223E+00-0.127E-03
CGA:  15    -0.389224719631E+03   -0.59183E-02   -0.59798E-02  8528   0.144E+00-0.977E-03
CGA:  16    -0.389227999489E+03   -0.32799E-02   -0.32968E-02  8528   0.495E-01-0.389E-03
CGA:  17    -0.389229372362E+03   -0.13729E-02   -0.13722E-02  8528   0.459E-01 0.184E-04
CGA:  18    -0.389231359639E+03   -0.19873E-02   -0.19875E-02  8528   0.562E-01 0.427E-04
CGA:  19    -0.389233054542E+03   -0.16949E-02   -0.16983E-02  8528   0.434E-01-0.224E-05
CGA:  20    -0.389234213529E+03   -0.11590E-02   -0.11686E-02  8528   0.191E-01-0.889E-04
CGA:  21    -0.389234730062E+03   -0.51653E-03   -0.52053E-03  8528   0.134E-01-0.196E-04
CGA:  22    -0.389235171709E+03   -0.44165E-03   -0.44220E-03  8528   0.990E-02 0.120E-04
CGA:  23    -0.389235559331E+03   -0.38762E-03   -0.38753E-03  8528   0.138E-01-0.933E-05
CGA:  24    -0.389236105326E+03   -0.54600E-03   -0.54610E-03  8528   0.107E-01 0.138E-04
CGA:  25    -0.389236409577E+03   -0.30425E-03   -0.30590E-03  8528   0.705E-02 0.291E-05
CGA:  26    -0.389236619382E+03   -0.20980E-03   -0.21037E-03  8528   0.388E-02 0.428E-05
CGA:  27    -0.389236770068E+03   -0.15069E-03   -0.15067E-03  8528   0.531E-02-0.231E-05
CGA:  28    -0.389236995911E+03   -0.22584E-03   -0.22588E-03  8528   0.492E-02-0.147E-04
CGA:  29    -0.389237165976E+03   -0.17007E-03   -0.17031E-03  8528   0.466E-02 0.123E-04
CGA:  30    -0.389237314315E+03   -0.14834E-03   -0.14876E-03  8528   0.240E-02 0.980E-05
CGA:  31    -0.389237396403E+03   -0.82088E-04   -0.82134E-04  8528   0.238E-02 0.280E-05
SDA:  32    -0.389237485647E+03   -0.89244E-04   -0.89258E-04  8528   0.183E-02 0.428E-05
CGA:  33    -0.389237537015E+03   -0.51368E-04   -0.51273E-04  8528   0.568E-03-0.718E-07
CGA:  34    -0.389237625627E+03   -0.88612E-04   -0.88080E-04  8528   0.159E-02 0.434E-05
CGA:  35    -0.389237694473E+03   -0.68846E-04   -0.68858E-04  8528   0.107E-02 0.445E-05
CGA:  36    -0.389237746451E+03   -0.51978E-04   -0.51975E-04  8528   0.283E-03 0.888E-06
CGA:  37    -0.389237778359E+03   -0.31909E-04   -0.32101E-04  8528   0.391E-03-0.288E-05
CGA:  38    -0.389237817688E+03   -0.39328E-04   -0.39495E-04  8528   0.330E-03-0.316E-05
CGA:  39    -0.389237841196E+03   -0.23509E-04   -0.23547E-04  8528   0.435E-03-0.160E-05
CGA:  40    -0.389237866791E+03   -0.25595E-04   -0.25598E-04  8528   0.206E-03-0.444E-06
CGA:  41    -0.389237879267E+03   -0.12476E-04   -0.12477E-04  8528   0.345E-03-0.179E-06
CGA:  42    -0.389237904077E+03   -0.24810E-04   -0.24828E-04  8528   0.210E-03-0.997E-06
CGA:  43    -0.389237913614E+03   -0.95372E-05   -0.95347E-05  8528   0.932E-04-0.223E-06
CGA:  44    -0.389237927487E+03   -0.13873E-04   -0.13991E-04  8528   0.112E-03-0.124E-05
CGA:  45    -0.389237936297E+03   -0.88102E-05   -0.88217E-05  8528   0.748E-04-0.539E-06
  10 F= -.38923794E+03 E0= -.38922322E+03  d E =-.306967E-01  mag=    16.0000
       N       E                     dE             d eps       ncg     rms          ort
SDA:   1    -0.386575083839E+03    0.26628E+01    0.00000E+00  8528   0.754E+01 0.000E+00
CGA:   2    -0.387375124852E+03   -0.80004E+00   -0.81136E+00  8528   0.270E+02-0.251E+00
CGA:   3    -0.388617467751E+03   -0.12423E+01   -0.12541E+01  8528   0.673E+01 0.183E+00
CGA:   4    -0.388819413035E+03   -0.20195E+00   -0.19882E+00  8528   0.239E+01 0.220E-01
CGA:   5    -0.389059811356E+03   -0.24040E+00   -0.24017E+00  8528   0.364E+01 0.628E-02
CGA:   6    -0.389158936179E+03   -0.99125E-01   -0.10492E+00  8528   0.106E+01-0.117E+00
CGA:   7    -0.389200332237E+03   -0.41396E-01   -0.40500E-01  8528   0.253E+00-0.797E-04
CGA:   8    -0.389225113974E+03   -0.24782E-01   -0.24840E-01  8528   0.398E+00-0.137E-02
CGA:   9    -0.389235403806E+03   -0.10290E-01   -0.10460E-01  8528   0.110E+00-0.395E-02
CGA:  10    -0.389244479525E+03   -0.90757E-02   -0.90547E-02  8528   0.455E-01 0.676E-03
CGA:  11    -0.389246745182E+03   -0.22657E-02   -0.22568E-02  8528   0.354E-01-0.228E-03
CGA:  12    -0.389248088754E+03   -0.13436E-02   -0.13443E-02  8528   0.232E-01-0.320E-05
CGA:  13    -0.389249811881E+03   -0.17231E-02   -0.17213E-02  8528   0.147E-01 0.772E-04
CGA:  14    -0.389250555845E+03   -0.74396E-03   -0.74436E-03  8528   0.895E-02 0.115E-04
CGA:  15    -0.389250885956E+03   -0.33011E-03   -0.32895E-03  8528   0.325E-02 0.460E-05
CGA:  16    -0.389251052397E+03   -0.16644E-03   -0.16642E-03  8528   0.467E-02-0.219E-05
CGA:  17    -0.389251476113E+03   -0.42372E-03   -0.42313E-03  8528   0.213E-02 0.151E-04
CGA:  18    -0.389251625757E+03   -0.14964E-03   -0.14966E-03  8528   0.311E-02-0.157E-06
CGA:  19    -0.389251737381E+03   -0.11162E-03   -0.11162E-03  8528   0.141E-02 0.551E-06
CGA:  20    -0.389251852163E+03   -0.11478E-03   -0.11473E-03  8528   0.140E-02 0.148E-05
CGA:  21    -0.389251963697E+03   -0.11153E-03   -0.11162E-03  8528   0.202E-02-0.327E-05
CGA:  22    -0.389252038959E+03   -0.75262E-04   -0.75296E-04  8528   0.952E-03 0.531E-06
CGA:  23    -0.389252084375E+03   -0.45416E-04   -0.45448E-04  8528   0.540E-03 0.172E-05
CGA:  24    -0.389252115793E+03   -0.31418E-04   -0.31420E-04  8528   0.525E-03 0.166E-05
CGA:  25    -0.389252161844E+03   -0.46051E-04   -0.45982E-04  8528   0.629E-03 0.250E-05
CGA:  26    -0.389252180955E+03   -0.19111E-04   -0.19160E-04  8528   0.216E-03 0.927E-06
CGA:  27    -0.389252193790E+03   -0.12835E-04   -0.12835E-04  8528   0.214E-03-0.413E-06
CGA:  28    -0.389252213025E+03   -0.19235E-04   -0.19287E-04  8528   0.201E-03-0.167E-05
CGA:  29    -0.389252223197E+03   -0.10173E-04   -0.10165E-04  8528   0.202E-03-0.902E-06
CGA:  30    -0.389252230520E+03   -0.73230E-05   -0.73066E-05  8528   0.600E-04-0.753E-06
  11 F= -.38925223E+03 E0= -.38923747E+03  d E =-.142942E-01  mag=    16.0000
       N       E                     dE             d eps       ncg     rms          ort
SDA:   1    -0.388538508855E+03    0.71371E+00    0.00000E+00  8528   0.279E+01 0.000E+00
CGA:   2    -0.388669278658E+03   -0.13077E+00   -0.13841E+00  8528   0.370E+01 0.117E+00
CGA:   3    -0.389021861081E+03   -0.35258E+00   -0.34868E+00  8528   0.361E+01 0.116E+00
CGA:   4    -0.389140495146E+03   -0.11863E+00   -0.10989E+00  8528   0.613E+00 0.161E+00
CGA:   5    -0.389188376950E+03   -0.47882E-01   -0.47867E-01  8528   0.637E+00 0.933E-03
CGA:   6    -0.389239453790E+03   -0.51077E-01   -0.50958E-01  8528   0.158E+00 0.511E-02
CGA:   7    -0.389245877692E+03   -0.64239E-02   -0.64756E-02  8528   0.765E-01-0.157E-03
CGA:   8    -0.389251540647E+03   -0.56630E-02   -0.56727E-02  8528   0.462E-01-0.555E-03
CGA:   9    -0.389254429403E+03   -0.28888E-02   -0.28888E-02  8528   0.334E-01 0.201E-04
CGA:  10    -0.389255562697E+03   -0.11333E-02   -0.11305E-02  8528   0.156E-01 0.416E-04
CGA:  11    -0.389256392409E+03   -0.82971E-03   -0.82927E-03  8528   0.658E-02-0.148E-04
CGA:  12    -0.389256737869E+03   -0.34546E-03   -0.34557E-03  8528   0.476E-02 0.298E-05
CGA:  13    -0.389257102053E+03   -0.36418E-03   -0.36393E-03  8528   0.315E-02 0.104E-04
CGA:  14    -0.389257325420E+03   -0.22337E-03   -0.22357E-03  8528   0.108E-02-0.146E-04
CGA:  15    -0.389257378402E+03   -0.52982E-04   -0.52929E-04  8528   0.103E-02-0.950E-06
CGA:  16    -0.389257455358E+03   -0.76956E-04   -0.76932E-04  8528   0.112E-02 0.109E-05
CGA:  17    -0.389257501216E+03   -0.45858E-04   -0.45899E-04  8528   0.798E-03 0.141E-06
CGA:  18    -0.389257573677E+03   -0.72461E-04   -0.72458E-04  8528   0.389E-03-0.345E-07
CGA:  19    -0.389257600196E+03   -0.26519E-04   -0.26517E-04  8528   0.412E-03 0.528E-07
CGA:  20    -0.389257630912E+03   -0.30716E-04   -0.30726E-04  8528   0.370E-03-0.780E-06
CGA:  21    -0.389257659908E+03   -0.28997E-04   -0.28993E-04  8528   0.342E-03 0.184E-06
CGA:  22    -0.389257673353E+03   -0.13445E-04   -0.13447E-04  8528   0.190E-03 0.182E-06
CGA:  23    -0.389257681736E+03   -0.83832E-05   -0.83925E-05  8528   0.103E-03 0.503E-06
CGA:  24    -0.389257692982E+03   -0.11246E-04   -0.11204E-04  8528   0.150E-03 0.896E-06
CGA:  25    -0.389257700564E+03   -0.75813E-05   -0.75862E-05  8528   0.522E-04 0.325E-06
  12 F= -.38925770E+03 E0= -.38924285E+03  d E =-.547004E-02  mag=    16.0000
       N       E                     dE             d eps       ncg     rms          ort
SDA:   1    -0.387487699656E+03    0.17700E+01    0.00000E+00  8528   0.502E+01 0.000E+00
CGA:   2    -0.388268452469E+03   -0.78075E+00   -0.73731E+00  8528   0.106E+02 0.549E+00
CGA:   3    -0.388773479263E+03   -0.50503E+00   -0.50103E+00  8528   0.475E+01-0.848E-01
CGA:   4    -0.388932305735E+03   -0.15883E+00   -0.14603E+00  8528   0.201E+01 0.214E+00
CGA:   5    -0.389113431852E+03   -0.18113E+00   -0.17855E+00  8528   0.259E+01 0.969E-01
CGA:   6    -0.389189100380E+03   -0.75669E-01   -0.77401E-01  8528   0.881E+00-0.417E-01
CGA:   7    -0.389219167602E+03   -0.30067E-01   -0.29070E-01  8528   0.247E+00 0.132E-01
CGA:   8    -0.389230583232E+03   -0.11416E-01   -0.11593E-01  8528   0.307E+00 0.142E-02
CGA:   9    -0.389244139154E+03   -0.13556E-01   -0.13623E-01  8528   0.193E+00 0.381E-03
CGA:  10    -0.389251559489E+03   -0.74203E-02   -0.72540E-02  8528   0.776E-01 0.956E-03
CGA:  11    -0.389254201862E+03   -0.26424E-02   -0.26253E-02  8528   0.442E-01 0.199E-03
CGA:  12    -0.389255853817E+03   -0.16520E-02   -0.16585E-02  8528   0.275E-01-0.168E-04
CGA:  13    -0.389257399522E+03   -0.15457E-02   -0.15461E-02  8528   0.226E-01 0.117E-03
CGA:  14    -0.389258225928E+03   -0.82641E-03   -0.82460E-03  8528   0.175E-01 0.887E-05
CGA:  15    -0.389258975890E+03   -0.74996E-03   -0.74892E-03  8528   0.771E-02-0.838E-05
CGA:  16    -0.389259317911E+03   -0.34202E-03   -0.34253E-03  8528   0.603E-02 0.123E-04
CGA:  17    -0.389259513567E+03   -0.19566E-03   -0.19546E-03  8528   0.335E-02 0.328E-05
CGA:  18    -0.389259758358E+03   -0.24479E-03   -0.24506E-03  8528   0.410E-02-0.974E-05
CGA:  19    -0.389259929580E+03   -0.17122E-03   -0.17111E-03  8528   0.347E-02 0.107E-07
CGA:  20    -0.389260068658E+03   -0.13908E-03   -0.13913E-03  8528   0.186E-02 0.421E-06
CGA:  21    -0.389260158351E+03   -0.89693E-04   -0.89736E-04  8528   0.151E-02 0.281E-05
CGA:  22    -0.389260236695E+03   -0.78344E-04   -0.78340E-04  8528   0.188E-02-0.109E-05
CGA:  23    -0.389260324426E+03   -0.87731E-04   -0.87709E-04  8528   0.149E-02-0.179E-05
CGA:  24    -0.389260403864E+03   -0.79438E-04   -0.79437E-04  8528   0.965E-03 0.370E-05
CGA:  25    -0.389260436588E+03   -0.32724E-04   -0.32769E-04  8528   0.712E-03 0.140E-05
CGA:  26    -0.389260472814E+03   -0.36226E-04   -0.36228E-04  8528   0.450E-03 0.182E-05
CGA:  27    -0.389260496876E+03   -0.24062E-04   -0.24060E-04  8528   0.525E-03 0.178E-05
CGA:  28    -0.389260517265E+03   -0.20389E-04   -0.20408E-04  8528   0.383E-03 0.102E-05
CGA:  29    -0.389260539189E+03   -0.21923E-04   -0.21927E-04  8528   0.234E-03-0.435E-06
CGA:  30    -0.389260546675E+03   -0.74867E-05   -0.74758E-05  8528   0.145E-03-0.719E-06
  13 F= -.38926055E+03 E0= -.38924553E+03  d E =-.284611E-02  mag=    16.0000
       N       E                     dE             d eps       ncg     rms          ort
SDA:   1    -0.388997164163E+03    0.26338E+00    0.00000E+00  8528   0.125E+01 0.000E+00
CGA:   2    -0.389044824705E+03   -0.47661E-01   -0.48402E-01  8528   0.103E+01 0.105E-01
CGA:   3    -0.389198178036E+03   -0.15335E+00   -0.15377E+00  8528   0.815E+00-0.497E-02
CGA:   4    -0.389216967070E+03   -0.18789E-01   -0.18828E-01  8528   0.245E+00-0.162E-02
CGA:   5    -0.389245060799E+03   -0.28094E-01   -0.28048E-01  8528   0.153E+00 0.746E-03
CGA:   6    -0.389253897199E+03   -0.88364E-02   -0.88398E-02  8528   0.896E-01-0.211E-02
CGA:   7    -0.389257012407E+03   -0.31152E-02   -0.31461E-02  8528   0.237E-01-0.138E-03
CGA:   8    -0.389258400222E+03   -0.13878E-02   -0.13876E-02  8528   0.287E-01 0.473E-04
CGA:   9    -0.389259772756E+03   -0.13725E-02   -0.13717E-02  8528   0.153E-01-0.255E-04
CGA:  10    -0.389260468462E+03   -0.69571E-03   -0.69620E-03  8528   0.315E-02 0.215E-04
CGA:  11    -0.389260727056E+03   -0.25859E-03   -0.25838E-03  8528   0.353E-02 0.671E-05
CGA:  12    -0.389260873099E+03   -0.14604E-03   -0.14613E-03  8528   0.216E-02 0.799E-06
CGA:  13    -0.389260984191E+03   -0.11109E-03   -0.11105E-03  8528   0.158E-02-0.556E-05
CGA:  14    -0.389261071995E+03   -0.87804E-04   -0.87804E-04  8528   0.574E-03-0.823E-06
CGA:  15    -0.389261102348E+03   -0.30353E-04   -0.30356E-04  8528   0.433E-03 0.709E-07
CGA:  16    -0.389261131732E+03   -0.29384E-04   -0.29394E-04  8528   0.470E-03-0.602E-06
CGA:  17    -0.389261157539E+03   -0.25807E-04   -0.25806E-04  8528   0.439E-03-0.603E-06
CGA:  18    -0.389261178967E+03   -0.21428E-04   -0.21430E-04  8528   0.252E-03 0.826E-07
CGA:  19    -0.389261193643E+03   -0.14676E-04   -0.14677E-04  8528   0.137E-03-0.162E-06
CGA:  20    -0.389261210317E+03   -0.16674E-04   -0.16618E-04  8528   0.224E-03 0.864E-06
CGA:  21    -0.389261218518E+03   -0.82007E-05   -0.82032E-05  8528   0.147E-03 0.259E-06
CGA:  22    -0.389261229754E+03   -0.11236E-04   -0.11225E-04  8528   0.776E-04 0.495E-06
CGA:  23    -0.389261233266E+03   -0.35122E-05   -0.35150E-05  8528   0.567E-04 0.997E-07
  14 F= -.38926123E+03 E0= -.38924609E+03  d E =-.686591E-03  mag=    16.0000
       N       E                     dE             d eps       ncg     rms          ort
SDA:   1    -0.389055594265E+03    0.20564E+00    0.00000E+00  8528   0.551E+00 0.000E+00
CGA:   2    -0.389124651910E+03   -0.69058E-01   -0.68344E-01  8528   0.201E+01 0.119E-01
CGA:   3    -0.389211992840E+03   -0.87341E-01   -0.86808E-01  8528   0.493E+00-0.110E-02
CGA:   4    -0.389229590297E+03   -0.17597E-01   -0.18188E-01  8528   0.177E+00-0.360E-02
CGA:   5    -0.389245732227E+03   -0.16142E-01   -0.16280E-01  8528   0.168E+00-0.363E-02
CGA:   6    -0.389252976085E+03   -0.72439E-02   -0.71788E-02  8528   0.795E-01-0.326E-03
CGA:   7    -0.389255861227E+03   -0.28851E-02   -0.28991E-02  8528   0.247E-01-0.102E-03
CGA:   8    -0.389256867057E+03   -0.10058E-02   -0.10077E-02  8528   0.169E-01 0.127E-04
CGA:   9    -0.389257936398E+03   -0.10693E-02   -0.10691E-02  8528   0.103E-01 0.386E-04
CGA:  10    -0.389258561754E+03   -0.62536E-03   -0.62533E-03  8528   0.434E-02 0.150E-04
CGA:  11    -0.389258743651E+03   -0.18190E-03   -0.18177E-03  8528   0.328E-02 0.107E-05
CGA:  12    -0.389258888221E+03   -0.14457E-03   -0.14448E-03  8528   0.131E-02-0.675E-06
CGA:  13    -0.389258974839E+03   -0.86617E-04   -0.86621E-04  8528   0.112E-02-0.149E-05
CGA:  14    -0.389259053317E+03   -0.78478E-04   -0.78538E-04  8528   0.677E-03-0.446E-05
CGA:  15    -0.389259075220E+03   -0.21903E-04   -0.21870E-04  8528   0.328E-03-0.919E-06
CGA:  16    -0.389259095448E+03   -0.20229E-04   -0.20230E-04  8528   0.213E-03-0.193E-06
CGA:  17    -0.389259110096E+03   -0.14648E-04   -0.14652E-04  8528   0.294E-03-0.237E-06
CGA:  18    -0.389259129791E+03   -0.19695E-04   -0.19691E-04  8528   0.153E-03 0.333E-06
CGA:  19    -0.389259137280E+03   -0.74885E-05   -0.74887E-05  8528   0.153E-03 0.608E-08
  15 F= -.38925914E+03 E0= -.38924385E+03  d E =0.209599E-02  mag=    16.0000
       N       E                     dE             d eps       ncg     rms          ort
SDA:   1    -0.382789467020E+03    0.64697E+01    0.00000E+00  8528   0.160E+02 0.000E+00
CGA:   2    -0.386812816879E+03   -0.40233E+01   -0.39950E+01  8528   0.461E+02 0.195E+00
CGA:   3    -0.388127751879E+03   -0.13149E+01   -0.13126E+01  8528   0.506E+01-0.231E+00
CGA:   4    -0.388646031705E+03   -0.51828E+00   -0.55994E+00  8528   0.114E+02-0.860E+00
CGA:   5    -0.388947833516E+03   -0.30180E+00   -0.33230E+00  8528   0.534E+01-0.328E+00
CGA:   6    -0.389077123111E+03   -0.12929E+00   -0.14460E+00  8528   0.150E+01-0.299E+00
CGA:   7    -0.389137014441E+03   -0.59891E-01   -0.54575E-01  8528   0.517E+00 0.411E-01
CGA:   8    -0.389168647279E+03   -0.31633E-01   -0.31530E-01  8528   0.775E+00-0.127E-01
CGA:   9    -0.389204841596E+03   -0.36194E-01   -0.36155E-01  8528   0.460E+00-0.335E-03
CGA:  10    -0.389217843123E+03   -0.13002E-01   -0.13218E-01  8528   0.993E-01-0.403E-02
CGA:  11    -0.389224201214E+03   -0.63581E-02   -0.63611E-02  8528   0.844E-01-0.417E-03
CGA:  12    -0.389227589307E+03   -0.33881E-02   -0.33773E-02  8528   0.891E-01-0.555E-04
CGA:  13    -0.389232551544E+03   -0.49622E-02   -0.49626E-02  8528   0.304E-01-0.217E-04
CGA:  14    -0.389233991271E+03   -0.14397E-02   -0.14377E-02  8528   0.177E-01-0.571E-04
CGA:  15    -0.389234764534E+03   -0.77326E-03   -0.77398E-03  8528   0.149E-01 0.906E-05
CGA:  16    -0.389235409232E+03   -0.64470E-03   -0.64834E-03  8528   0.780E-02 0.516E-04
CGA:  17    -0.389235843872E+03   -0.43464E-03   -0.43473E-03  8528   0.988E-02 0.321E-04
CGA:  18    -0.389236581139E+03   -0.73727E-03   -0.73711E-03  8528   0.391E-02 0.132E-04
CGA:  19    -0.389236809102E+03   -0.22796E-03   -0.22796E-03  8528   0.385E-02 0.391E-05
CGA:  20    -0.389236943415E+03   -0.13431E-03   -0.13430E-03  8528   0.260E-02-0.427E-05
CGA:  21    -0.389237186742E+03   -0.24333E-03   -0.24402E-03  8528   0.323E-02-0.185E-04
CGA:  22    -0.389237357865E+03   -0.17112E-03   -0.17115E-03  8528   0.160E-02-0.347E-05
CGA:  23    -0.389237425230E+03   -0.67365E-04   -0.67416E-04  8528   0.131E-02 0.204E-05
CGA:  24    -0.389237488652E+03   -0.63423E-04   -0.63477E-04  8528   0.115E-02 0.701E-05
CGA:  25    -0.389237558782E+03   -0.70130E-04   -0.70088E-04  8528   0.997E-03 0.113E-04
CGA:  26    -0.389237615079E+03   -0.56297E-04   -0.56311E-04  8528   0.719E-03 0.918E-05
CGA:  27    -0.389237650553E+03   -0.35474E-04   -0.35500E-04  8528   0.403E-03 0.285E-05
CGA:  28    -0.389237670779E+03   -0.20226E-04   -0.20217E-04  8528   0.520E-03-0.128E-05
CGA:  29    -0.389237697498E+03   -0.26719E-04   -0.26702E-04  8528   0.319E-03-0.337E-05
CGA:  30    -0.389237737067E+03   -0.39570E-04   -0.40066E-04  8528   0.294E-03-0.722E-05
CGA:  31    -0.389237747957E+03   -0.10889E-04   -0.10869E-04  8528   0.168E-03-0.877E-06
SDA:  32    -0.389237754577E+03   -0.66204E-05   -0.66368E-05  8528   0.141E-03 0.765E-06
  16 F= -.38923775E+03 E0= -.38922156E+03  d E =0.213827E-01  mag=    16.0000
       N       E                     dE             d eps       ncg     rms          ort
SDA:   1    -0.384240824088E+03    0.49969E+01    0.00000E+00  8528   0.131E+02 0.000E+00
CGA:   2    -0.386633314615E+03   -0.23925E+01   -0.21543E+01  8528   0.309E+02 0.233E+01
CGA:   3    -0.388056662474E+03   -0.14233E+01   -0.14985E+01  8528   0.111E+02 0.161E+00
CGA:   4    -0.388431149986E+03   -0.37449E+00   -0.32143E+00  8528   0.568E+01 0.673E+00
CGA:   5    -0.388650473716E+03   -0.21932E+00   -0.17045E+00  8528   0.401E+01 0.887E+00
CGA:   6    -0.388940739888E+03   -0.29027E+00   -0.28949E+00  8528   0.519E+01 0.958E-01
CGA:   7    -0.389090047649E+03   -0.14931E+00   -0.16102E+00  8528   0.167E+01-0.149E+00
CGA:   8    -0.389136393159E+03   -0.46346E-01   -0.45006E-01  8528   0.464E+00 0.247E-01
CGA:   9    -0.389150377933E+03   -0.13985E-01   -0.13079E-01  8528   0.455E+00 0.164E-01
CGA:  10    -0.389177991466E+03   -0.27614E-01   -0.27603E-01  8528   0.539E+00 0.129E-02
CGA:  11    -0.389191158630E+03   -0.13167E-01   -0.13667E-01  8528   0.260E+00-0.111E-01
CGA:  12    -0.389197894223E+03   -0.67356E-02   -0.66866E-02  8528   0.870E-01 0.923E-03
CGA:  13    -0.389200482531E+03   -0.25883E-02   -0.25601E-02  8528   0.721E-01 0.313E-03
CGA:  14    -0.389203376206E+03   -0.28937E-02   -0.28889E-02  8528   0.660E-01-0.104E-03
CGA:  15    -0.389205263714E+03   -0.18875E-02   -0.19013E-02  8528   0.361E-01-0.180E-03
CGA:  16    -0.389206535509E+03   -0.12718E-02   -0.12700E-02  8528   0.422E-01-0.303E-04
CGA:  17    -0.389208227583E+03   -0.16921E-02   -0.16915E-02  8528   0.245E-01-0.428E-04
CGA:  18    -0.389208808954E+03   -0.58137E-03   -0.58475E-03  8528   0.118E-01-0.773E-04
CGA:  19    -0.389209155449E+03   -0.34650E-03   -0.34618E-03  8528   0.572E-02 0.152E-05
CGA:  20    -0.389209415036E+03   -0.25959E-03   -0.25959E-03  8528   0.108E-01-0.903E-06
CGA:  21    -0.389209931331E+03   -0.51629E-03   -0.51625E-03  8528   0.896E-02 0.184E-04
CGA:  22    -0.389210217828E+03   -0.28650E-03   -0.28705E-03  8528   0.685E-02 0.116E-04
CGA:  23    -0.389210422339E+03   -0.20451E-03   -0.20474E-03  8528   0.385E-02 0.337E-05
CGA:  24    -0.389210578553E+03   -0.15621E-03   -0.15619E-03  8528   0.384E-02-0.361E-05
CGA:  25    -0.389210695282E+03   -0.11673E-03   -0.11660E-03  8528   0.287E-02-0.376E-05
CGA:  26    -0.389210825554E+03   -0.13027E-03   -0.13027E-03  8528   0.346E-02-0.320E-05
CGA:  27    -0.389210939020E+03   -0.11347E-03   -0.11347E-03  8528   0.239E-02-0.492E-05
CGA:  28    -0.389211012845E+03   -0.73825E-04   -0.73762E-04  8528   0.158E-02-0.159E-05
CGA:  29    -0.389211073043E+03   -0.60198E-04   -0.60192E-04  8528   0.139E-02 0.125E-05
CGA:  30    -0.389211114844E+03   -0.41801E-04   -0.41797E-04  8528   0.104E-02 0.377E-05
CGA:  31    -0.389211158048E+03   -0.43204E-04   -0.43204E-04  8528   0.856E-03 0.701E-05
SDA:  32    -0.389211184774E+03   -0.26725E-04   -0.26785E-04  8528   0.845E-03 0.460E-05
CGA:  33    -0.389211206418E+03   -0.21644E-04   -0.21588E-04  8528   0.305E-03 0.259E-06
CGA:  34    -0.389211223085E+03   -0.16667E-04   -0.16673E-04  8528   0.375E-03-0.370E-06
CGA:  35    -0.389211245372E+03   -0.22287E-04   -0.22292E-04  8528   0.329E-03-0.473E-06
CGA:  36    -0.389211271202E+03   -0.25830E-04   -0.25804E-04  8528   0.499E-03 0.580E-06
CGA:  37    -0.389211300936E+03   -0.29734E-04   -0.29720E-04  8528   0.200E-03 0.946E-06
CGA:  38    -0.389211313643E+03   -0.12708E-04   -0.12692E-04  8528   0.163E-03 0.755E-06
CGA:  39    -0.389211325198E+03   -0.11555E-04   -0.11549E-04  8528   0.952E-04 0.178E-06
CGA:  40    -0.389211342852E+03   -0.17654E-04   -0.17733E-04  8528   0.535E-04-0.618E-06
CGA:  41    -0.389211347455E+03   -0.46032E-05   -0.46124E-05  8528   0.859E-04-0.308E-06
  17 F= -.38921135E+03 E0= -.38919428E+03  d E =0.264071E-01  mag=    16.0000
       N       E                     dE             d eps       ncg     rms          ort
SDA:   1    -0.388927064341E+03    0.28428E+00    0.00000E+00  8528   0.805E+00 0.000E+00
CGA:   2    -0.389006909715E+03   -0.79845E-01   -0.82173E-01  8528   0.283E+01-0.459E-01
CGA:   3    -0.389139581971E+03   -0.13267E+00   -0.13337E+00  8528   0.866E+00 0.338E-01
CGA:   4    -0.389163764146E+03   -0.24182E-01   -0.23642E-01  8528   0.319E+00 0.990E-02
CGA:   5    -0.389180636381E+03   -0.16872E-01   -0.16867E-01  8528   0.286E+00-0.725E-03
CGA:   6    -0.389198254477E+03   -0.17618E-01   -0.17616E-01  8528   0.150E+00 0.160E-03
CGA:   7    -0.389204387204E+03   -0.61327E-02   -0.61813E-02  8528   0.687E-01 0.535E-03
CGA:   8    -0.389206703397E+03   -0.23162E-02   -0.23078E-02  8528   0.199E-01 0.598E-04
CGA:   9    -0.389207799762E+03   -0.10964E-02   -0.10966E-02  8528   0.260E-01-0.116E-03
CGA:  10    -0.389209097380E+03   -0.12976E-02   -0.12982E-02  8528   0.187E-01 0.748E-04
CGA:  11    -0.389209667755E+03   -0.57038E-03   -0.57569E-03  8528   0.435E-02-0.552E-04
CGA:  12    -0.389209916741E+03   -0.24899E-03   -0.24916E-03  8528   0.289E-02-0.204E-04
CGA:  13    -0.389210041525E+03   -0.12478E-03   -0.12481E-03  8528   0.235E-02 0.262E-06
CGA:  14    -0.389210200940E+03   -0.15942E-03   -0.15936E-03  8528   0.199E-02 0.172E-05
CGA:  15    -0.389210276797E+03   -0.75857E-04   -0.75859E-04  8528   0.965E-03-0.423E-06
CGA:  16    -0.389210305770E+03   -0.28974E-04   -0.28959E-04  8528   0.397E-03 0.236E-07
CGA:  17    -0.389210340910E+03   -0.35139E-04   -0.35095E-04  8528   0.384E-03 0.108E-05
CGA:  18    -0.389210358107E+03   -0.17198E-04   -0.17199E-04  8528   0.412E-03 0.247E-06
CGA:  19    -0.389210397158E+03   -0.39051E-04   -0.39044E-04  8528   0.172E-03 0.127E-06
CGA:  20    -0.389210403504E+03   -0.63459E-05   -0.63483E-05  8528   0.172E-03-0.278E-06
CGA:  21    -0.389210417087E+03   -0.13583E-04   -0.13604E-04  8528   0.248E-03-0.908E-06
CGA:  22    -0.389210429547E+03   -0.12460E-04   -0.12458E-04  8528   0.180E-03-0.602E-06
CGA:  23    -0.389210437176E+03   -0.76289E-05   -0.76262E-05  8528   0.105E-03-0.212E-06
  18 F= -.38921044E+03 E0= -.38919324E+03  d E =0.910279E-03  mag=    16.0000
       N       E                     dE             d eps       ncg     rms          ort
SDA:   1    -0.388878839163E+03    0.33159E+00    0.00000E+00  8528   0.870E+00 0.000E+00
CGA:   2    -0.389021983259E+03   -0.14314E+00   -0.13473E+00  8528   0.231E+01 0.963E-01
CGA:   3    -0.389122020181E+03   -0.10004E+00   -0.95110E-01  8528   0.113E+01 0.232E-01
CGA:   4    -0.389157100225E+03   -0.35080E-01   -0.33498E-01  8528   0.289E+00 0.262E-01
CGA:   5    -0.389180844438E+03   -0.23744E-01   -0.23540E-01  8528   0.274E+00 0.707E-02
CGA:   6    -0.389193951474E+03   -0.13107E-01   -0.12961E-01  8528   0.233E+00-0.298E-02
CGA:   7    -0.389200803872E+03   -0.68524E-02   -0.66899E-02  8528   0.645E-01 0.279E-02
CGA:   8    -0.389203216513E+03   -0.24126E-02   -0.24214E-02  8528   0.207E-01-0.651E-05
CGA:   9    -0.389204590696E+03   -0.13742E-02   -0.13731E-02  8528   0.359E-01 0.662E-04
CGA:  10    -0.389205827949E+03   -0.12373E-02   -0.12341E-02  8528   0.143E-01 0.254E-04
CGA:  11    -0.389206367166E+03   -0.53922E-03   -0.53945E-03  8528   0.527E-02 0.446E-05
CGA:  12    -0.389206597980E+03   -0.23081E-03   -0.23112E-03  8528   0.411E-02 0.859E-05
CGA:  13    -0.389206783975E+03   -0.18599E-03   -0.18597E-03  8528   0.304E-02-0.769E-06
CGA:  14    -0.389206887982E+03   -0.10401E-03   -0.10407E-03  8528   0.198E-02-0.349E-06
CGA:  15    -0.389207007934E+03   -0.11995E-03   -0.11996E-03  8528   0.996E-03-0.107E-05
CGA:  16    -0.389207051810E+03   -0.43876E-04   -0.43858E-04  8528   0.821E-03-0.114E-05
CGA:  17    -0.389207078976E+03   -0.27166E-04   -0.27165E-04  8528   0.494E-03-0.291E-06
CGA:  18    -0.389207108261E+03   -0.29285E-04   -0.29286E-04  8528   0.377E-03-0.171E-06
CGA:  19    -0.389207137271E+03   -0.29010E-04   -0.29028E-04  8528   0.624E-03-0.474E-06
CGA:  20    -0.389207158988E+03   -0.21717E-04   -0.21724E-04  8528   0.368E-03 0.278E-06
CGA:  21    -0.389207173073E+03   -0.14085E-04   -0.14089E-04  8528   0.146E-03-0.151E-06
CGA:  22    -0.389207186182E+03   -0.13109E-04   -0.13150E-04  8528   0.307E-03-0.101E-05
CGA:  23    -0.389207198549E+03   -0.12368E-04   -0.12358E-04  8528   0.205E-03-0.538E-06
CGA:  24    -0.389207206649E+03   -0.80996E-05   -0.80995E-05  8528   0.137E-03-0.220E-07
  19 F= -.38920721E+03 E0= -.38918985E+03  d E =0.323053E-02  mag=    16.0000
       N       E                     dE             d eps       ncg     rms          ort
SDA:   1    -0.385234423448E+03    0.39728E+01    0.00000E+00  8528   0.107E+02 0.000E+00
CGA:   2    -0.386898119345E+03   -0.16637E+01   -0.14325E+01  8528   0.192E+02 0.290E+01
CGA:   3    -0.388018491134E+03   -0.11204E+01   -0.10594E+01  8528   0.158E+02-0.136E+01
CGA:   4    -0.388459387998E+03   -0.44090E+00   -0.32810E+00  8528   0.610E+01 0.292E+01
CGA:   5    -0.388663840445E+03   -0.20445E+00   -0.20957E+00  8528   0.557E+01-0.803E-01
CGA:   6    -0.388834764676E+03   -0.17092E+00   -0.19221E+00  8528   0.713E+01 0.322E-01
CGA:   7    -0.389021056428E+03   -0.18629E+00   -0.19337E+00  8528   0.339E+01-0.126E+00
CGA:   8    -0.389103542351E+03   -0.82486E-01   -0.66032E-01  8528   0.688E+00 0.549E+00
CGA:   9    -0.389125037865E+03   -0.21496E-01   -0.20617E-01  8528   0.549E+00 0.136E-01
CGA:  10    -0.389137579208E+03   -0.12541E-01   -0.11081E-01  8528   0.451E+00 0.482E-01
CGA:  11    -0.389153517868E+03   -0.15939E-01   -0.16126E-01  8528   0.832E+00 0.137E-02
CGA:  12    -0.389171120649E+03   -0.17603E-01   -0.18651E-01  8528   0.501E+00-0.233E-01
CGA:  13    -0.389178473228E+03   -0.73526E-02   -0.73755E-02  8528   0.198E+00-0.117E-02
CGA:  14    -0.389182477098E+03   -0.40039E-02   -0.39622E-02  8528   0.125E+00 0.110E-02
CGA:  15    -0.389184534430E+03   -0.20573E-02   -0.19673E-02  8528   0.588E-01 0.408E-02
CGA:  16    -0.389185946006E+03   -0.14116E-02   -0.14085E-02  8528   0.747E-01 0.433E-04
CGA:  17    -0.389187743996E+03   -0.17980E-02   -0.18024E-02  8528   0.624E-01-0.444E-04
CGA:  18    -0.389188781121E+03   -0.10371E-02   -0.10497E-02  8528   0.418E-01-0.462E-03
CGA:  19    -0.389189936521E+03   -0.11554E-02   -0.11562E-02  8528   0.577E-01-0.121E-05
CGA:  20    -0.389191076323E+03   -0.11398E-02   -0.11365E-02  8528   0.341E-01 0.464E-04
CGA:  21    -0.389191735041E+03   -0.65872E-03   -0.65815E-03  8528   0.283E-01-0.192E-05
CGA:  22    -0.389192310094E+03   -0.57505E-03   -0.57543E-03  8528   0.147E-01-0.200E-04
CGA:  23    -0.389192509426E+03   -0.19933E-03   -0.20017E-03  8528   0.559E-02-0.439E-04
CGA:  24    -0.389192651319E+03   -0.14189E-03   -0.14197E-03  8528   0.824E-02 0.154E-05
CGA:  25    -0.389192892427E+03   -0.24111E-03   -0.24109E-03  8528   0.103E-01-0.195E-05
CGA:  26    -0.389193134096E+03   -0.24167E-03   -0.24156E-03  8528   0.117E-01 0.344E-05
CGA:  27    -0.389193433353E+03   -0.29926E-03   -0.29948E-03  8528   0.105E-01 0.964E-05
CGA:  28    -0.389193603301E+03   -0.16995E-03   -0.17034E-03  8528   0.461E-02-0.627E-05
CGA:  29    -0.389193691287E+03   -0.87986E-04   -0.87991E-04  8528   0.321E-02 0.268E-05
CGA:  30    -0.389193756108E+03   -0.64821E-04   -0.64736E-04  8528   0.238E-02 0.392E-06
CGA:  31    -0.389193813609E+03   -0.57501E-04   -0.57492E-04  8528   0.271E-02-0.118E-05
SDA:  32    -0.389193880536E+03   -0.66928E-04   -0.67011E-04  8528   0.264E-02 0.340E-05
CGA:  33    -0.389193941737E+03   -0.61201E-04   -0.61229E-04  8528   0.779E-03 0.141E-05
CGA:  34    -0.389193984341E+03   -0.42604E-04   -0.42597E-04  8528   0.112E-02 0.303E-07
CGA:  35    -0.389194053034E+03   -0.68693E-04   -0.68642E-04  8528   0.103E-02 0.160E-05
CGA:  36    -0.389194119717E+03   -0.66682E-04   -0.66537E-04  8528   0.994E-03 0.435E-05
CGA:  37    -0.389194174133E+03   -0.54416E-04   -0.54322E-04  8528   0.359E-03 0.437E-05
CGA:  38    -0.389194204381E+03   -0.30249E-04   -0.30144E-04  8528   0.457E-03 0.212E-05
CGA:  39    -0.389194234723E+03   -0.30341E-04   -0.30274E-04  8528   0.276E-03 0.207E-05
CGA:  40    -0.389194266709E+03   -0.31986E-04   -0.31966E-04  8528   0.847E-03 0.128E-06
CGA:  41    -0.389194289698E+03   -0.22989E-04   -0.22983E-04  8528   0.128E-03 0.195E-06
CGA:  42    -0.389194305193E+03   -0.15495E-04   -0.15591E-04  8528   0.172E-03-0.122E-05
CGA:  43    -0.389194320919E+03   -0.15726E-04   -0.15756E-04  8528   0.200E-03-0.675E-06
CGA:  44    -0.389194332366E+03   -0.11447E-04   -0.11449E-04  8528   0.112E-03-0.233E-06
CGA:  45    -0.389194336795E+03   -0.44287E-05   -0.44283E-05  8528   0.609E-04-0.975E-07
  20 F= -.38919434E+03 E0= -.38917664E+03  d E =0.128699E-01  mag=    16.0000
       N       E                     dE             d eps       ncg     rms          ort
SDA:   1    -0.380775383220E+03    0.84189E+01    0.00000E+00  8528   0.277E+02 0.000E+00
CGA:   2    -0.382408293731E+03   -0.16329E+01   -0.16009E+01  8528   0.511E+02 0.406E+01
CGA:   3    -0.386705522967E+03   -0.42972E+01   -0.42185E+01  8528   0.314E+02 0.479E+00
CGA:   4    -0.387818384372E+03   -0.11129E+01   -0.10560E+01  8528   0.962E+01-0.206E+00
CGA:   5    -0.388186441222E+03   -0.36806E+00   -0.31811E+00  8528   0.735E+01 0.313E+00
CGA:   6    -0.388701382255E+03   -0.51494E+00   -0.50713E+00  8528   0.766E+01 0.381E+00
CGA:   7    -0.389005282273E+03   -0.30390E+00   -0.30800E+00  8528   0.122E+01 0.212E-01
CGA:   8    -0.389056107744E+03   -0.50825E-01   -0.45964E-01  8528   0.659E+00-0.324E-01
CGA:   9    -0.389103032600E+03   -0.46925E-01   -0.47378E-01  8528   0.113E+01-0.165E-01
CGA:  10    -0.389135047058E+03   -0.32014E-01   -0.34153E-01  8528   0.507E+00-0.152E-01
CGA:  11    -0.389151405192E+03   -0.16358E-01   -0.16288E-01  8528   0.122E+00 0.293E-03
CGA:  12    -0.389157892999E+03   -0.64878E-02   -0.64716E-02  8528   0.970E-01 0.364E-02
CGA:  13    -0.389163905789E+03   -0.60128E-02   -0.60030E-02  8528   0.902E-01 0.635E-03
CGA:  14    -0.389168875566E+03   -0.49698E-02   -0.49683E-02  8528   0.681E-01 0.196E-03
CGA:  15    -0.389170811597E+03   -0.19360E-02   -0.19272E-02  8528   0.228E-01 0.651E-04
CGA:  16    -0.389171721965E+03   -0.91037E-03   -0.91473E-03  8528   0.141E-01 0.103E-03
CGA:  17    -0.389173081461E+03   -0.13595E-02   -0.13727E-02  8528   0.163E-01-0.295E-03
CGA:  18    -0.389173938782E+03   -0.85732E-03   -0.85676E-03  8528   0.124E-01 0.203E-03
CGA:  19    -0.389174596347E+03   -0.65756E-03   -0.65754E-03  8528   0.999E-02 0.912E-04
CGA:  20    -0.389174991922E+03   -0.39557E-03   -0.39666E-03  8528   0.639E-02 0.177E-04
CGA:  21    -0.389175251256E+03   -0.25933E-03   -0.25900E-03  8528   0.444E-02-0.105E-04
CGA:  22    -0.389175672034E+03   -0.42078E-03   -0.41903E-03  8528   0.490E-02 0.367E-04
CGA:  23    -0.389175910742E+03   -0.23871E-03   -0.23870E-03  8528   0.207E-02-0.233E-05
CGA:  24    -0.389176021505E+03   -0.11076E-03   -0.11077E-03  8528   0.230E-02-0.399E-06
CGA:  25    -0.389176124294E+03   -0.10279E-03   -0.10287E-03  8528   0.164E-02 0.893E-05
CGA:  26    -0.389176195525E+03   -0.71231E-04   -0.71345E-04  8528   0.120E-02 0.926E-05
CGA:  27    -0.389176275686E+03   -0.80161E-04   -0.80018E-04  8528   0.920E-03 0.932E-05
CGA:  28    -0.389176334083E+03   -0.58397E-04   -0.58353E-04  8528   0.618E-03 0.396E-05
CGA:  29    -0.389176367593E+03   -0.33511E-04   -0.33511E-04  8528   0.644E-03-0.722E-06
CGA:  30    -0.389176395056E+03   -0.27463E-04   -0.27442E-04  8528   0.575E-03-0.223E-05
CGA:  31    -0.389176430629E+03   -0.35573E-04   -0.35601E-04  8528   0.489E-03-0.332E-05
SDA:  32    -0.389176454369E+03   -0.23740E-04   -0.23735E-04  8528   0.241E-03-0.149E-05
CGA:  33    -0.389176462010E+03   -0.76405E-05   -0.76445E-05  8528   0.119E-03 0.256E-06
CGA:  34    -0.389176475139E+03   -0.13129E-04   -0.13026E-04  8528   0.320E-03 0.164E-05
CGA:  35    -0.389176485469E+03   -0.10330E-04   -0.10357E-04  8528   0.117E-03 0.705E-06
CGA:  36    -0.389176495057E+03   -0.95882E-05   -0.96113E-05  8528   0.136E-03-0.956E-06
  21 F= -.38917650E+03 E0= -.38915915E+03  d E =0.178417E-01  mag=    16.0000
       N       E                     dE             d eps       ncg     rms          ort
SDA:   1    -0.380598671550E+03    0.85778E+01    0.00000E+00  8528   0.386E+02 0.000E+00
CGA:   2    -0.381977341363E+03   -0.13787E+01   -0.14716E+01  8528   0.440E+02 0.676E-01
CGA:   3    -0.385525202711E+03   -0.35479E+01   -0.34446E+01  8528   0.457E+02 0.286E+01
CGA:   4    -0.387476807594E+03   -0.19516E+01   -0.17416E+01  8528   0.151E+02-0.457E+00
CGA:   5    -0.387871476751E+03   -0.39467E+00   -0.36877E+00  8528   0.119E+02 0.640E+00
CGA:   6    -0.388211405065E+03   -0.33993E+00   -0.30590E+00  8528   0.885E+01 0.758E+00
CGA:   7    -0.388576226115E+03   -0.36482E+00   -0.37884E+00  8528   0.125E+02 0.285E+00
CGA:   8    -0.388894102451E+03   -0.31788E+00   -0.35465E+00  8528   0.304E+01-0.428E+00
CGA:   9    -0.388991927070E+03   -0.97825E-01   -0.84406E-01  8528   0.145E+01 0.209E+00
CGA:  10    -0.389031426539E+03   -0.39499E-01   -0.36304E-01  8528   0.634E+00 0.790E-01
CGA:  11    -0.389061155125E+03   -0.29729E-01   -0.29803E-01  8528   0.100E+01 0.110E-01
CGA:  12    -0.389096465847E+03   -0.35311E-01   -0.35450E-01  8528   0.101E+01 0.272E-02
CGA:  13    -0.389123242635E+03   -0.26777E-01   -0.27710E-01  8528   0.317E+00-0.711E-02
CGA:  14    -0.389132688277E+03   -0.94456E-02   -0.98420E-02  8528   0.230E+00 0.189E-02
CGA:  15    -0.389138819964E+03   -0.61317E-02   -0.60128E-02  8528   0.106E+00 0.149E-02
CGA:  16    -0.389144354646E+03   -0.55347E-02   -0.54996E-02  8528   0.108E+00 0.292E-02
CGA:  17    -0.389149307785E+03   -0.49531E-02   -0.49523E-02  8528   0.122E+00 0.553E-02
CGA:  18    -0.389153712540E+03   -0.44048E-02   -0.43724E-02  8528   0.439E-01-0.682E-03
CGA:  19    -0.389155781033E+03   -0.20685E-02   -0.20643E-02  8528   0.200E-01 0.694E-03
CGA:  20    -0.389156837000E+03   -0.10560E-02   -0.10553E-02  8528   0.138E-01 0.493E-04
CGA:  21    -0.389158180760E+03   -0.13438E-02   -0.13361E-02  8528   0.264E-01 0.112E-03
CGA:  22    -0.389159094805E+03   -0.91405E-03   -0.92448E-03  8528   0.128E-01 0.154E-03
CGA:  23    -0.389159626700E+03   -0.53189E-03   -0.53220E-03  8528   0.609E-02 0.214E-04
CGA:  24    -0.389160067646E+03   -0.44095E-03   -0.44059E-03  8528   0.669E-02 0.791E-05
CGA:  25    -0.389160455765E+03   -0.38812E-03   -0.38802E-03  8528   0.496E-02-0.653E-06
CGA:  26    -0.389160648288E+03   -0.19252E-03   -0.19270E-03  8528   0.386E-02 0.863E-06
CGA:  27    -0.389160842172E+03   -0.19388E-03   -0.19385E-03  8528   0.228E-02 0.746E-05
CGA:  28    -0.389161002543E+03   -0.16037E-03   -0.16011E-03  8528   0.192E-02 0.109E-04
CGA:  29    -0.389161096074E+03   -0.93530E-04   -0.93533E-04  8528   0.159E-02 0.762E-05
CGA:  30    -0.389161173999E+03   -0.77925E-04   -0.77926E-04  8528   0.160E-02 0.808E-05
CGA:  31    -0.389161261863E+03   -0.87864E-04   -0.87816E-04  8528   0.103E-02 0.719E-05
SDA:  32    -0.389161315232E+03   -0.53369E-04   -0.53362E-04  8528   0.517E-03 0.201E-05
CGA:  33    -0.389161334156E+03   -0.18924E-04   -0.18912E-04  8528   0.479E-03-0.143E-05
CGA:  34    -0.389161363374E+03   -0.29218E-04   -0.29256E-04  8528   0.682E-03-0.334E-05
CGA:  35    -0.389161406908E+03   -0.43534E-04   -0.43627E-04  8528   0.298E-03-0.659E-05
CGA:  36    -0.389161440519E+03   -0.33610E-04   -0.34001E-04  8528   0.315E-03-0.645E-05
CGA:  37    -0.389161453001E+03   -0.12483E-04   -0.12470E-04  8528   0.265E-03-0.133E-05
CGA:  38    -0.389161466201E+03   -0.13199E-04   -0.13199E-04  8528   0.265E-03-0.899E-07
CGA:  39    -0.389161480299E+03   -0.14099E-04   -0.14098E-04  8528   0.162E-03 0.773E-06
CGA:  40    -0.389161496328E+03   -0.16029E-04   -0.15934E-04  8528   0.111E-03 0.185E-05
CGA:  41    -0.389161502854E+03   -0.65264E-05   -0.65236E-05  8528   0.119E-03 0.469E-06
CGA:  42    -0.389161519118E+03   -0.16264E-04   -0.16204E-04  8528   0.579E-04 0.501E-06
CGA:  43    -0.389161526678E+03   -0.75597E-05   -0.75683E-05  8528   0.102E-03-0.296E-06
  22 F= -.38916153E+03 E0= -.38914509E+03  d E =0.149684E-01  mag=    16.0000
       N       E                     dE             d eps       ncg     rms          ort
SDA:   1    -0.388788845018E+03    0.37267E+00    0.00000E+00  8528   0.132E+01 0.000E+00
CGA:   2    -0.388848174340E+03   -0.59329E-01   -0.59175E-01  8528   0.238E+01-0.914E-03
CGA:   3    -0.389066160053E+03   -0.21799E+00   -0.21845E+00  8528   0.880E+00-0.136E-01
CGA:   4    -0.389107658166E+03   -0.41498E-01   -0.41410E-01  8528   0.453E+00 0.904E-03
CGA:   5    -0.389133049887E+03   -0.25392E-01   -0.25269E-01  8528   0.249E+00-0.681E-02
CGA:   6    -0.389145449428E+03   -0.12400E-01   -0.12403E-01  8528   0.327E+00 0.660E-04
CGA:   7    -0.389157823589E+03   -0.12374E-01   -0.12420E-01  8528   0.475E-01-0.919E-04
CGA:   8    -0.389159979495E+03   -0.21559E-02   -0.21572E-02  8528   0.296E-01 0.179E-04
CGA:   9    -0.389161611646E+03   -0.16322E-02   -0.16320E-02  8528   0.250E-01-0.739E-05
CGA:  10    -0.389162507196E+03   -0.89555E-03   -0.89723E-03  8528   0.156E-01-0.137E-05
CGA:  11    -0.389163458165E+03   -0.95097E-03   -0.95065E-03  8528   0.599E-02 0.656E-04
CGA:  12    -0.389163675072E+03   -0.21691E-03   -0.21683E-03  8528   0.232E-02-0.155E-05
CGA:  13    -0.389163822109E+03   -0.14704E-03   -0.14705E-03  8528   0.441E-02-0.408E-05
CGA:  14    -0.389164031431E+03   -0.20932E-03   -0.20928E-03  8528   0.106E-02-0.578E-05
CGA:  15    -0.389164101585E+03   -0.70155E-04   -0.70150E-04  8528   0.899E-03-0.596E-06
CGA:  16    -0.389164133295E+03   -0.31710E-04   -0.31714E-04  8528   0.484E-03-0.955E-06
CGA:  17    -0.389164160820E+03   -0.27524E-04   -0.27524E-04  8528   0.673E-03-0.545E-07
CGA:  18    -0.389164208684E+03   -0.47864E-04   -0.47842E-04  8528   0.299E-03 0.772E-06
CGA:  19    -0.389164230155E+03   -0.21471E-04   -0.21470E-04  8528   0.529E-03-0.650E-06
CGA:  20    -0.389164249515E+03   -0.19360E-04   -0.19367E-04  8528   0.192E-03-0.112E-05
CGA:  21    -0.389164262994E+03   -0.13479E-04   -0.13490E-04  8528   0.278E-03-0.972E-06
CGA:  22    -0.389164283662E+03   -0.20668E-04   -0.20680E-04  8528   0.190E-03-0.862E-06
CGA:  23    -0.389164290025E+03   -0.63636E-05   -0.63659E-05  8528   0.127E-03-0.146E-06
  23 F= -.38916429E+03 E0= -.38914793E+03  d E =-.276335E-02  mag=    16.0000
       N       E                     dE             d eps       ncg     rms          ort
SDA:   1    -0.388584667659E+03    0.57962E+00    0.00000E+00  8528   0.252E+01 0.000E+00
CGA:   2    -0.388667964698E+03   -0.83297E-01   -0.82303E-01  8528   0.270E+01 0.782E-02
CGA:   3    -0.388949137491E+03   -0.28117E+00   -0.28123E+00  8528   0.333E+01 0.195E-03
CGA:   4    -0.389073221533E+03   -0.12408E+00   -0.12363E+00  8528   0.567E+00-0.341E-02
CGA:   5    -0.389114265325E+03   -0.41044E-01   -0.41583E-01  8528   0.558E+00-0.254E-01
CGA:   6    -0.389129590555E+03   -0.15325E-01   -0.15101E-01  8528   0.375E+00 0.434E-02
CGA:   7    -0.389153105924E+03   -0.23515E-01   -0.23466E-01  8528   0.177E+00 0.517E-02
CGA:   8    -0.389158392566E+03   -0.52866E-02   -0.53231E-02  8528   0.691E-01-0.495E-03
CGA:   9    -0.389160271575E+03   -0.18790E-02   -0.18749E-02  8528   0.329E-01 0.809E-04
CGA:  10    -0.389162875349E+03   -0.26038E-02   -0.26031E-02  8528   0.220E-01 0.115E-04
CGA:  11    -0.389163728804E+03   -0.85346E-03   -0.85267E-03  8528   0.257E-01-0.342E-06
CGA:  12    -0.389164832332E+03   -0.11035E-02   -0.11061E-02  8528   0.521E-02 0.600E-04
CGA:  13    -0.389165041504E+03   -0.20917E-03   -0.20970E-03  8528   0.389E-02 0.280E-05
CGA:  14    -0.389165258886E+03   -0.21738E-03   -0.21739E-03  8528   0.582E-02-0.518E-05
CGA:  15    -0.389165466433E+03   -0.20755E-03   -0.20744E-03  8528   0.158E-02-0.769E-05
CGA:  16    -0.389165584367E+03   -0.11793E-03   -0.11790E-03  8528   0.177E-02-0.738E-06
CGA:  17    -0.389165631562E+03   -0.47195E-04   -0.47210E-04  8528   0.738E-03-0.177E-05
CGA:  18    -0.389165672410E+03   -0.40849E-04   -0.40846E-04  8528   0.868E-03 0.137E-06
CGA:  19    -0.389165738133E+03   -0.65722E-04   -0.65634E-04  8528   0.682E-03 0.226E-05
CGA:  20    -0.389165764270E+03   -0.26138E-04   -0.26152E-04  8528   0.839E-03-0.266E-06
CGA:  21    -0.389165815292E+03   -0.51022E-04   -0.51018E-04  8528   0.269E-03-0.667E-07
CGA:  22    -0.389165833671E+03   -0.18379E-04   -0.18388E-04  8528   0.562E-03-0.110E-05
CGA:  23    -0.389165857774E+03   -0.24103E-04   -0.24095E-04  8528   0.415E-03-0.133E-05
CGA:  24    -0.389165875548E+03   -0.17774E-04   -0.17774E-04  8528   0.175E-03-0.464E-06
CGA:  25    -0.389165888624E+03   -0.13076E-04   -0.13054E-04  8528   0.301E-03 0.543E-06
CGA:  26    -0.389165896732E+03   -0.81078E-05   -0.81293E-05  8528   0.816E-04 0.439E-06
  24 F= -.38916590E+03 E0= -.38914964E+03  d E =-.160671E-02  mag=    16.0000
       N       E                     dE             d eps       ncg     rms          ort
SDA:   1    -0.388590174581E+03    0.57571E+00    0.00000E+00  8528   0.219E+01 0.000E+00
CGA:   2    -0.388673065927E+03   -0.82891E-01   -0.82001E-01  8528   0.311E+01-0.390E-02
CGA:   3    -0.389017489072E+03   -0.34442E+00   -0.34548E+00  8528   0.164E+01-0.199E-01
CGA:   4    -0.389078173271E+03   -0.60684E-01   -0.62261E-01  8528   0.597E+00 0.364E-02
CGA:   5    -0.389124010880E+03   -0.45838E-01   -0.47256E-01  8528   0.366E+00-0.491E-01
CGA:   6    -0.389145551039E+03   -0.21540E-01   -0.21493E-01  8528   0.377E+00 0.363E-02
CGA:   7    -0.389156970102E+03   -0.11419E-01   -0.11608E-01  8528   0.123E+00-0.213E-02
CGA:   8    -0.389160785044E+03   -0.38149E-02   -0.38130E-02  8528   0.341E-01 0.248E-04
CGA:   9    -0.389164038235E+03   -0.32532E-02   -0.32447E-02  8528   0.228E-01 0.161E-03
CGA:  10    -0.389165205164E+03   -0.11669E-02   -0.11670E-02  8528   0.289E-01 0.139E-04
CGA:  11    -0.389166297465E+03   -0.10923E-02   -0.10923E-02  8528   0.725E-02 0.395E-05
CGA:  12    -0.389166595157E+03   -0.29769E-03   -0.29762E-03  8528   0.389E-02-0.415E-05
CGA:  13    -0.389166997678E+03   -0.40252E-03   -0.40294E-03  8528   0.333E-02-0.942E-05
CGA:  14    -0.389167085586E+03   -0.87909E-04   -0.87976E-04  8528   0.175E-02-0.489E-05
CGA:  15    -0.389167250891E+03   -0.16530E-03   -0.16518E-03  8528   0.936E-03 0.227E-05
CGA:  16    -0.389167295872E+03   -0.44980E-04   -0.44971E-04  8528   0.751E-03-0.611E-06
CGA:  17    -0.389167339791E+03   -0.43919E-04   -0.43917E-04  8528   0.825E-03 0.234E-06
CGA:  18    -0.389167374307E+03   -0.34517E-04   -0.34557E-04  8528   0.706E-03-0.801E-07
CGA:  19    -0.389167446907E+03   -0.72600E-04   -0.72575E-04  8528   0.300E-03 0.186E-06
CGA:  20    -0.389167461519E+03   -0.14612E-04   -0.14611E-04  8528   0.368E-03-0.538E-06
CGA:  21    -0.389167483426E+03   -0.21907E-04   -0.21909E-04  8528   0.463E-03-0.119E-05
CGA:  22    -0.389167507773E+03   -0.24348E-04   -0.24343E-04  8528   0.201E-03-0.116E-05
[...]
 139 F= -.38956648E+03 E0= -.38955378E+03  d E =0.349848E-02  mag=    15.9999
       N       E                     dE             d eps       ncg     rms          ort
SDA:   1    -0.389470558927E+03    0.95911E-01    0.00000E+00  8528   0.318E+00 0.000E+00
CGA:   2    -0.389507439065E+03   -0.36880E-01   -0.36397E-01  8528   0.687E+00 0.928E-02
CGA:   3    -0.389541593087E+03   -0.34154E-01   -0.33567E-01  8528   0.135E+00 0.545E-05
CGA:   4    -0.389554619728E+03   -0.13027E-01   -0.13000E-01  8528   0.124E+00 0.768E-03
CGA:   5    -0.389561202376E+03   -0.65826E-02   -0.65943E-02  8528   0.779E-01 0.115E-03
CGA:   6    -0.389565406085E+03   -0.42037E-02   -0.41904E-02  8528   0.158E-01-0.152E-03
CGA:   7    -0.389566452776E+03   -0.10467E-02   -0.10470E-02  8528   0.122E-01 0.506E-04
CGA:   8    -0.389567319665E+03   -0.86689E-03   -0.86694E-03  8528   0.886E-02-0.196E-04
CGA:   9    -0.389567718194E+03   -0.39853E-03   -0.39703E-03  8528   0.176E-02 0.118E-05
CGA:  10    -0.389567882064E+03   -0.16387E-03   -0.16379E-03  8528   0.166E-02 0.330E-05
CGA:  11    -0.389567975927E+03   -0.93863E-04   -0.93988E-04  8528   0.127E-02 0.470E-05
CGA:  12    -0.389568067458E+03   -0.91531E-04   -0.91528E-04  8528   0.339E-03 0.234E-05
CGA:  13    -0.389568096215E+03   -0.28757E-04   -0.28718E-04  8528   0.504E-03 0.224E-05
CGA:  14    -0.389568126098E+03   -0.29883E-04   -0.29892E-04  8528   0.228E-03 0.157E-05
CGA:  15    -0.389568152614E+03   -0.26516E-04   -0.26474E-04  8528   0.262E-03 0.885E-06
CGA:  16    -0.389568164749E+03   -0.12135E-04   -0.12142E-04  8528   0.142E-03 0.870E-07
CGA:  17    -0.389568180206E+03   -0.15457E-04   -0.15473E-04  8528   0.184E-03-0.424E-06
CGA:  18    -0.389568193500E+03   -0.13294E-04   -0.13294E-04  8528   0.113E-03-0.850E-06
CGA:  19    -0.389568200071E+03   -0.65707E-05   -0.65669E-05  8528   0.913E-04-0.242E-06
 140 F= -.38956820E+03 E0= -.38955548E+03  d E =-.172480E-02  mag=    15.9999
       N       E                     dE             d eps       ncg     rms          ort
SDA:   1    -0.389398265771E+03    0.16993E+00    0.00000E+00  8528   0.558E+00 0.000E+00
CGA:   2    -0.389444870284E+03   -0.46605E-01   -0.46338E-01  8528   0.109E+01 0.150E-01
CGA:   3    -0.389523975716E+03   -0.79105E-01   -0.79090E-01  8528   0.244E+00-0.495E-02
CGA:   4    -0.389543574335E+03   -0.19599E-01   -0.19772E-01  8528   0.218E+00-0.115E-01
CGA:   5    -0.389556936940E+03   -0.13363E-01   -0.13361E-01  8528   0.124E+00-0.481E-04
CGA:   6    -0.389562205976E+03   -0.52690E-02   -0.53185E-02  8528   0.333E-01-0.299E-03
CGA:   7    -0.389564342386E+03   -0.21364E-02   -0.21358E-02  8528   0.144E-01-0.354E-04
CGA:   8    -0.389565611104E+03   -0.12687E-02   -0.12682E-02  8528   0.184E-01 0.191E-04
CGA:   9    -0.389566389843E+03   -0.77874E-03   -0.77807E-03  8528   0.217E-02 0.136E-05
CGA:  10    -0.389566601846E+03   -0.21200E-03   -0.21185E-03  8528   0.323E-02 0.488E-05
CGA:  11    -0.389566767355E+03   -0.16551E-03   -0.16581E-03  8528   0.154E-02 0.474E-05
CGA:  12    -0.389566879381E+03   -0.11203E-03   -0.11202E-03  8528   0.586E-03 0.205E-05
CGA:  13    -0.389566912298E+03   -0.32917E-04   -0.32962E-04  8528   0.510E-03 0.152E-05
CGA:  14    -0.389566953821E+03   -0.41523E-04   -0.41506E-04  8528   0.400E-03 0.138E-05
CGA:  15    -0.389566983642E+03   -0.29821E-04   -0.29820E-04  8528   0.278E-03 0.465E-06
CGA:  16    -0.389567005665E+03   -0.22024E-04   -0.22018E-04  8528   0.247E-03 0.688E-06
CGA:  17    -0.389567018820E+03   -0.13155E-04   -0.13158E-04  8528   0.156E-03 0.324E-07
CGA:  18    -0.389567043508E+03   -0.24688E-04   -0.24756E-04  8528   0.162E-03-0.788E-06
CGA:  19    -0.389567051348E+03   -0.78399E-05   -0.78376E-05  8528   0.102E-03-0.173E-06
 141 F= -.38956705E+03 E0= -.38955427E+03  d E =0.114872E-02  mag=    15.9999
       N       E                     dE             d eps       ncg     rms          ort
SDA:   1    -0.389316335259E+03    0.25071E+00    0.00000E+00  8528   0.674E+00 0.000E+00
CGA:   2    -0.389436755403E+03   -0.12042E+00   -0.12165E+00  8528   0.203E+01-0.120E-01
CGA:   3    -0.389506812241E+03   -0.70057E-01   -0.73774E-01  8528   0.396E+00-0.589E-01
CGA:   4    -0.389536759457E+03   -0.29947E-01   -0.29943E-01  8528   0.178E+00 0.168E-02
CGA:   5    -0.389553478731E+03   -0.16719E-01   -0.16843E-01  8528   0.184E+00-0.485E-02
CGA:   6    -0.389559666403E+03   -0.61877E-02   -0.65303E-02  8528   0.445E-01-0.500E-02
CGA:   7    -0.389561796234E+03   -0.21298E-02   -0.21680E-02  8528   0.169E-01 0.141E-05
CGA:   8    -0.389563936745E+03   -0.21405E-02   -0.21411E-02  8528   0.670E-02-0.117E-04
CGA:   9    -0.389564488306E+03   -0.55156E-03   -0.55162E-03  8528   0.480E-02-0.452E-05
CGA:  10    -0.389564675473E+03   -0.18717E-03   -0.18736E-03  8528   0.217E-02 0.149E-06
CGA:  11    -0.389564892778E+03   -0.21731E-03   -0.21721E-03  8528   0.101E-02 0.381E-05
CGA:  12    -0.389565002887E+03   -0.11011E-03   -0.11007E-03  8528   0.716E-03 0.108E-05
CGA:  13    -0.389565032865E+03   -0.29978E-04   -0.29980E-04  8528   0.394E-03-0.211E-06
CGA:  14    -0.389565064789E+03   -0.31924E-04   -0.31931E-04  8528   0.390E-03-0.890E-06
CGA:  15    -0.389565103479E+03   -0.38690E-04   -0.38676E-04  8528   0.225E-03 0.352E-06
CGA:  16    -0.389565128902E+03   -0.25423E-04   -0.25392E-04  8528   0.221E-03 0.871E-06
CGA:  17    -0.389565139917E+03   -0.11015E-04   -0.11029E-04  8528   0.195E-03 0.370E-06
CGA:  18    -0.389565162098E+03   -0.22182E-04   -0.22145E-04  8528   0.956E-04 0.104E-05
CGA:  19    -0.389565175786E+03   -0.13688E-04   -0.13694E-04  8528   0.680E-04-0.743E-07
CGA:  20    -0.389565179907E+03   -0.41210E-05   -0.41171E-05  8528   0.673E-04-0.235E-06
 142 F= -.38956518E+03 E0= -.38955241E+03  d E =0.187144E-02  mag=    15.9999
       N       E                     dE             d eps       ncg     rms          ort
SDA:   1    -0.389362655291E+03    0.20252E+00    0.00000E+00  8528   0.628E+00 0.000E+00
CGA:   2    -0.389447144338E+03   -0.84489E-01   -0.82246E-01  8528   0.112E+01 0.388E-01
CGA:   3    -0.389510890938E+03   -0.63747E-01   -0.62920E-01  8528   0.469E+00 0.110E-02
CGA:   4    -0.389534144422E+03   -0.23253E-01   -0.21527E-01  8528   0.175E+00 0.151E-01
CGA:   5    -0.389558785232E+03   -0.24641E-01   -0.24500E-01  8528   0.491E-01 0.223E-02
CGA:   6    -0.389562700338E+03   -0.39151E-02   -0.39151E-02  8528   0.327E-01-0.799E-05
CGA:   7    -0.389564369570E+03   -0.16692E-02   -0.16537E-02  8528   0.224E-01 0.747E-04
CGA:   8    -0.389565584569E+03   -0.12150E-02   -0.12254E-02  8528   0.791E-02 0.122E-04
CGA:   9    -0.389566183407E+03   -0.59884E-03   -0.59850E-03  8528   0.281E-02-0.346E-04
CGA:  10    -0.389566494953E+03   -0.31155E-03   -0.31093E-03  8528   0.151E-02 0.160E-04
CGA:  11    -0.389566591288E+03   -0.96335E-04   -0.96318E-04  8528   0.157E-02-0.128E-06
CGA:  12    -0.389566680499E+03   -0.89211E-04   -0.89147E-04  8528   0.693E-03-0.256E-06
CGA:  13    -0.389566735518E+03   -0.55019E-04   -0.55019E-04  8528   0.326E-03-0.149E-06
CGA:  14    -0.389566769522E+03   -0.34004E-04   -0.34031E-04  8528   0.299E-03-0.106E-05
CGA:  15    -0.389566796120E+03   -0.26598E-04   -0.26594E-04  8528   0.450E-03 0.109E-06
CGA:  16    -0.389566817857E+03   -0.21737E-04   -0.21745E-04  8528   0.133E-03 0.181E-06
CGA:  17    -0.389566836497E+03   -0.18640E-04   -0.18588E-04  8528   0.150E-03 0.855E-06
CGA:  18    -0.389566851803E+03   -0.15307E-04   -0.15288E-04  8528   0.106E-03 0.941E-06
CGA:  19    -0.389566859037E+03   -0.72340E-05   -0.72335E-05  8528   0.925E-04-0.434E-07
 143 F= -.38956686E+03 E0= -.38955413E+03  d E =-.167913E-02  mag=    15.9999
       N       E                     dE             d eps       ncg     rms          ort
SDA:   1    -0.389159755362E+03    0.40710E+00    0.00000E+00  8528   0.119E+01 0.000E+00
CGA:   2    -0.389331222806E+03   -0.17147E+00   -0.16463E+00  8528   0.258E+01 0.102E+00
CGA:   3    -0.389468584884E+03   -0.13736E+00   -0.13268E+00  8528   0.601E+00 0.464E-01
CGA:   4    -0.389515635196E+03   -0.47050E-01   -0.47032E-01  8528   0.570E+00-0.158E-02
CGA:   5    -0.389543437600E+03   -0.27802E-01   -0.26639E-01  8528   0.222E+00 0.772E-02
CGA:   6    -0.389559836186E+03   -0.16399E-01   -0.16408E-01  8528   0.102E+00 0.599E-03
CGA:   7    -0.389563578213E+03   -0.37420E-02   -0.40012E-02  8528   0.416E-01-0.319E-02
CGA:   8    -0.389567069298E+03   -0.34911E-02   -0.34953E-02  8528   0.298E-01-0.271E-03
CGA:   9    -0.389568407721E+03   -0.13384E-02   -0.13437E-02  8528   0.137E-01-0.354E-04
CGA:  10    -0.389569236906E+03   -0.82919E-03   -0.82792E-03  8528   0.538E-02-0.163E-04
CGA:  11    -0.389569534861E+03   -0.29795E-03   -0.29769E-03  8528   0.434E-02-0.802E-06
CGA:  12    -0.389569868725E+03   -0.33386E-03   -0.33375E-03  8528   0.235E-02 0.255E-04
CGA:  13    -0.389569984313E+03   -0.11559E-03   -0.11562E-03  8528   0.121E-02 0.424E-06
CGA:  14    -0.389570069322E+03   -0.85009E-04   -0.85014E-04  8528   0.981E-03 0.493E-06
CGA:  15    -0.389570130498E+03   -0.61175E-04   -0.61152E-04  8528   0.652E-03-0.892E-06
CGA:  16    -0.389570178169E+03   -0.47671E-04   -0.47671E-04  8528   0.611E-03 0.236E-06
CGA:  17    -0.389570214406E+03   -0.36237E-04   -0.36289E-04  8528   0.334E-03 0.104E-05
CGA:  18    -0.389570244855E+03   -0.30449E-04   -0.30464E-04  8528   0.459E-03-0.523E-06
CGA:  19    -0.389570270959E+03   -0.26103E-04   -0.26109E-04  8528   0.225E-03 0.240E-06
CGA:  20    -0.389570290863E+03   -0.19905E-04   -0.19895E-04  8528   0.274E-03 0.559E-06
CGA:  21    -0.389570304267E+03   -0.13404E-04   -0.13414E-04  8528   0.107E-03 0.176E-06
CGA:  22    -0.389570314315E+03   -0.10048E-04   -0.10042E-04  8528   0.132E-03 0.231E-06
CGA:  23    -0.389570320806E+03   -0.64905E-05   -0.64910E-05  8528   0.560E-04 0.198E-06
 144 F= -.38957032E+03 E0= -.38955761E+03  d E =-.346177E-02  mag=    15.9999
       N       E                     dE             d eps       ncg     rms          ort
SDA:   1    -0.389430875727E+03    0.13944E+00    0.00000E+00  8528   0.783E+00 0.000E+00
CGA:   2    -0.389458559820E+03   -0.27684E-01   -0.29910E-01  8528   0.544E+00-0.240E-01
CGA:   3    -0.389535525715E+03   -0.76966E-01   -0.76864E-01  8528   0.228E+00 0.137E-02
CGA:   4    -0.389549398252E+03   -0.13873E-01   -0.13708E-01  8528   0.162E+00-0.270E-02
CGA:   5    -0.389559145019E+03   -0.97468E-02   -0.97398E-02  8528   0.111E+00-0.102E-03
CGA:   6    -0.389565320644E+03   -0.61756E-02   -0.61932E-02  8528   0.335E-01 0.209E-03
CGA:   7    -0.389567788839E+03   -0.24682E-02   -0.24686E-02  8528   0.977E-02-0.194E-03
CGA:   8    -0.389568405486E+03   -0.61665E-03   -0.61705E-03  8528   0.121E-01 0.152E-04
CGA:   9    -0.389569218408E+03   -0.81292E-03   -0.81294E-03  8528   0.202E-02 0.361E-06
CGA:  10    -0.389569367827E+03   -0.14942E-03   -0.14945E-03  8528   0.147E-02-0.725E-05
CGA:  11    -0.389569474406E+03   -0.10658E-03   -0.10658E-03  8528   0.145E-02 0.834E-06
CGA:  12    -0.389569554045E+03   -0.79639E-04   -0.79748E-04  8528   0.625E-03 0.171E-05
CGA:  13    -0.389569597327E+03   -0.43283E-04   -0.43284E-04  8528   0.222E-03 0.578E-06
CGA:  14    -0.389569623589E+03   -0.26262E-04   -0.26218E-04  8528   0.403E-03 0.876E-06
CGA:  15    -0.389569642407E+03   -0.18818E-04   -0.18819E-04  8528   0.155E-03 0.506E-06
CGA:  16    -0.389569663356E+03   -0.20949E-04   -0.20947E-04  8528   0.142E-03 0.167E-07
CGA:  17    -0.389569672774E+03   -0.94179E-05   -0.94212E-05  8528   0.118E-03 0.229E-06
 145 F= -.38956967E+03 E0= -.38955688E+03  d E =0.648031E-03  mag=    15.9999
       N       E                     dE             d eps       ncg     rms          ort
SDA:   1    -0.389380074915E+03    0.18959E+00    0.00000E+00  8528   0.768E+00 0.000E+00
CGA:   2    -0.389419268352E+03   -0.39193E-01   -0.41690E-01  8528   0.923E+00 0.178E-01
CGA:   3    -0.389515303301E+03   -0.96035E-01   -0.96825E-01  8528   0.468E+00-0.225E-01
CGA:   4    -0.389538360414E+03   -0.23057E-01   -0.22601E-01  8528   0.186E+00 0.596E-03
CGA:   5    -0.389552436923E+03   -0.14077E-01   -0.14083E-01  8528   0.205E+00-0.196E-02
CGA:   6    -0.389562158812E+03   -0.97219E-02   -0.10044E-01  8528   0.367E-01 0.340E-03
CGA:   7    -0.389564821122E+03   -0.26623E-02   -0.26617E-02  8528   0.219E-01-0.110E-02
CGA:   8    -0.389565825990E+03   -0.10049E-02   -0.10058E-02  8528   0.140E-01-0.921E-07
CGA:   9    -0.389567134274E+03   -0.13083E-02   -0.13074E-02  8528   0.320E-02 0.292E-04
CGA:  10    -0.389567294930E+03   -0.16066E-03   -0.16108E-03  8528   0.247E-02 0.433E-06
CGA:  11    -0.389567476596E+03   -0.18167E-03   -0.18168E-03  8528   0.146E-02-0.514E-05
CGA:  12    -0.389567612225E+03   -0.13563E-03   -0.13560E-03  8528   0.858E-03 0.623E-06
CGA:  13    -0.389567646046E+03   -0.33820E-04   -0.33690E-04  8528   0.312E-03 0.118E-05
CGA:  14    -0.389567675122E+03   -0.29076E-04   -0.29071E-04  8528   0.373E-03 0.200E-06
CGA:  15    -0.389567707371E+03   -0.32250E-04   -0.32230E-04  8528   0.223E-03 0.124E-05
CGA:  16    -0.389567719015E+03   -0.11644E-04   -0.11663E-04  8528   0.150E-03 0.617E-06
CGA:  17    -0.389567730079E+03   -0.11064E-04   -0.11063E-04  8528   0.104E-03 0.468E-06
CGA:  18    -0.389567744126E+03   -0.14047E-04   -0.14018E-04  8528   0.143E-03 0.452E-06
CGA:  19    -0.389567750201E+03   -0.60755E-05   -0.60714E-05  8528   0.600E-04 0.176E-07
 146 F= -.38956775E+03 E0= -.38955493E+03  d E =0.192257E-02  mag=    15.9999
       N       E                     dE             d eps       ncg     rms          ort
SDA:   1    -0.389425991309E+03    0.14175E+00    0.00000E+00  8528   0.570E+00 0.000E+00
CGA:   2    -0.389460835264E+03   -0.34844E-01   -0.34679E-01  8528   0.782E+00-0.296E-02
CGA:   3    -0.389524623826E+03   -0.63789E-01   -0.63991E-01  8528   0.369E+00-0.149E-01
CGA:   4    -0.389543296332E+03   -0.18673E-01   -0.19239E-01  8528   0.122E+00 0.299E-02
CGA:   5    -0.389556860964E+03   -0.13565E-01   -0.13643E-01  8528   0.801E-01-0.182E-02
CGA:   6    -0.389562061916E+03   -0.52010E-02   -0.52201E-02  8528   0.609E-01 0.774E-03
CGA:   7    -0.389564387442E+03   -0.23255E-02   -0.23053E-02  8528   0.103E-01 0.269E-03
CGA:   8    -0.389565553200E+03   -0.11658E-02   -0.11640E-02  8528   0.579E-02 0.388E-04
CGA:   9    -0.389566012366E+03   -0.45917E-03   -0.45910E-03  8528   0.495E-02 0.902E-05
CGA:  10    -0.389566220240E+03   -0.20787E-03   -0.20748E-03  8528   0.155E-02 0.502E-05
CGA:  11    -0.389566332912E+03   -0.11267E-03   -0.11266E-03  8528   0.100E-02-0.447E-05
CGA:  12    -0.389566438645E+03   -0.10573E-03   -0.10557E-03  8528   0.658E-03 0.424E-05
CGA:  13    -0.389566486243E+03   -0.47597E-04   -0.47601E-04  8528   0.564E-03 0.924E-06
CGA:  14    -0.389566510421E+03   -0.24179E-04   -0.24190E-04  8528   0.200E-03 0.610E-06
CGA:  15    -0.389566553529E+03   -0.43108E-04   -0.42951E-04  8528   0.259E-03 0.112E-05
CGA:  16    -0.389566573882E+03   -0.20352E-04   -0.20353E-04  8528   0.244E-03 0.389E-06
CGA:  17    -0.389566585831E+03   -0.11950E-04   -0.11953E-04  8528   0.140E-03-0.848E-07
CGA:  18    -0.389566603835E+03   -0.18004E-04   -0.18027E-04  8528   0.170E-03-0.510E-06
CGA:  19    -0.389566615660E+03   -0.11825E-04   -0.11815E-04  8528   0.530E-04-0.737E-06
CGA:  20    -0.389566619114E+03   -0.34538E-05   -0.34558E-05  8528   0.719E-04 0.134E-06
 147 F= -.38956662E+03 E0= -.38955388E+03  d E =0.113109E-02  mag=    15.9999
       N       E                     dE             d eps       ncg     rms          ort
SDA:   1    -0.389523293851E+03    0.43322E-01    0.00000E+00  8528   0.151E+00 0.000E+00
CGA:   2    -0.389537120962E+03   -0.13827E-01   -0.13681E-01  8528   0.250E+00 0.853E-02
CGA:   3    -0.389554636496E+03   -0.17516E-01   -0.17388E-01  8528   0.128E+00-0.236E-02
CGA:   4    -0.389561555984E+03   -0.69195E-02   -0.67532E-02  8528   0.414E-01 0.355E-04
CGA:   5    -0.389565166745E+03   -0.36108E-02   -0.36114E-02  8528   0.323E-01-0.424E-04
CGA:   6    -0.389566651657E+03   -0.14849E-02   -0.14919E-02  8528   0.163E-01-0.463E-04
CGA:   7    -0.389567683350E+03   -0.10317E-02   -0.10314E-02  8528   0.342E-02-0.552E-05
CGA:   8    -0.389567958515E+03   -0.27516E-03   -0.27515E-03  8528   0.369E-02 0.212E-05
CGA:   9    -0.389568134784E+03   -0.17627E-03   -0.17606E-03  8528   0.131E-02 0.837E-06
CGA:  10    -0.389568245847E+03   -0.11106E-03   -0.11107E-03  8528   0.534E-03-0.791E-07
CGA:  11    -0.389568273184E+03   -0.27337E-04   -0.27369E-04  8528   0.334E-03 0.623E-06
CGA:  12    -0.389568298225E+03   -0.25041E-04   -0.25041E-04  8528   0.292E-03 0.883E-06
CGA:  13    -0.389568318418E+03   -0.20194E-04   -0.20195E-04  8528   0.927E-04 0.365E-06
CGA:  14    -0.389568325076E+03   -0.66574E-05   -0.66572E-05  8528   0.925E-04-0.676E-07
 148 F= -.38956833E+03 E0= -.38955555E+03  d E =-.170596E-02  mag=    15.9999
       N       E                     dE             d eps       ncg     rms          ort
SDA:   1    -0.389362159293E+03    0.20616E+00    0.00000E+00  8528   0.717E+00 0.000E+00
CGA:   2    -0.389410665736E+03   -0.48506E-01   -0.48715E-01  8528   0.117E+01 0.166E-01
CGA:   3    -0.389516026024E+03   -0.10536E+00   -0.10486E+00  8528   0.509E+00 0.230E-01
CGA:   4    -0.389544091779E+03   -0.28066E-01   -0.27529E-01  8528   0.202E+00-0.244E-02
CGA:   5    -0.389554442866E+03   -0.10351E-01   -0.10442E-01  8528   0.167E+00 0.497E-03
CGA:   6    -0.389564493684E+03   -0.10051E-01   -0.10073E-01  8528   0.623E-01 0.608E-03
CGA:   7    -0.389568481831E+03   -0.39881E-02   -0.39851E-02  8528   0.322E-01-0.157E-03
CGA:   8    -0.389569660047E+03   -0.11782E-02   -0.11850E-02  8528   0.122E-01-0.842E-04
CGA:   9    -0.389570699652E+03   -0.10396E-02   -0.10388E-02  8528   0.593E-02 0.341E-04
CGA:  10    -0.389571048300E+03   -0.34865E-03   -0.34860E-03  8528   0.579E-02-0.121E-05
CGA:  11    -0.389571346061E+03   -0.29776E-03   -0.29702E-03  8528   0.173E-02-0.459E-05
CGA:  12    -0.389571460063E+03   -0.11400E-03   -0.11404E-03  8528   0.941E-03 0.805E-05
CGA:  13    -0.389571514946E+03   -0.54883E-04   -0.54899E-04  8528   0.834E-03 0.106E-05
CGA:  14    -0.389571564570E+03   -0.49624E-04   -0.49621E-04  8528   0.424E-03 0.645E-06
CGA:  15    -0.389571597879E+03   -0.33309E-04   -0.33299E-04  8528   0.237E-03 0.789E-06
CGA:  16    -0.389571607713E+03   -0.98337E-05   -0.98329E-05  8528   0.153E-03-0.543E-07
CGA:  17    -0.389571625732E+03   -0.18019E-04   -0.18035E-04  8528   0.116E-03-0.346E-06
CGA:  18    -0.389571634489E+03   -0.87572E-05   -0.87565E-05  8528   0.148E-03-0.298E-07
 149 F= -.38957163E+03 E0= -.38955879E+03  d E =-.330941E-02  mag=    15.9999
       N       E                     dE             d eps       ncg     rms          ort
SDA:   1    -0.389554727121E+03    0.16899E-01    0.00000E+00  8528   0.176E+00 0.000E+00
CGA:   2    -0.389559640648E+03   -0.49135E-02   -0.49605E-02  8528   0.494E-01-0.917E-03
CGA:   3    -0.389564457279E+03   -0.48166E-02   -0.47661E-02  8528   0.669E-01 0.135E-02
CGA:   4    -0.389570034383E+03   -0.55771E-02   -0.55899E-02  8528   0.119E-01-0.654E-03
CGA:   5    -0.389571240086E+03   -0.12057E-02   -0.12026E-02  8528   0.150E-01 0.788E-04
CGA:   6    -0.389571838762E+03   -0.59868E-03   -0.59421E-03  8528   0.453E-02 0.462E-04
CGA:   7    -0.389572157218E+03   -0.31846E-03   -0.31847E-03  8528   0.141E-02-0.809E-05
CGA:   8    -0.389572267338E+03   -0.11012E-03   -0.11008E-03  8528   0.889E-03 0.275E-05
CGA:   9    -0.389572317835E+03   -0.50498E-04   -0.50502E-04  8528   0.621E-03 0.863E-07
CGA:  10    -0.389572349139E+03   -0.31304E-04   -0.31259E-04  8528   0.244E-03-0.534E-06
CGA:  11    -0.389572370779E+03   -0.21640E-04   -0.21651E-04  8528   0.778E-04-0.533E-06
CGA:  12    -0.389572377046E+03   -0.62674E-05   -0.62734E-05  8528   0.118E-03-0.453E-06
 150 F= -.38957238E+03 E0= -.38955951E+03  d E =-.742557E-03  mag=    15.9999
