       N       E                     dE             d eps       ncg     rms          ort
DAV:   1     0.699872647315E+04    0.69987E+04   -0.30536E+05  9152   0.168E+03
DAV:   2     0.483635770839E+03   -0.65151E+04   -0.60525E+04  9152   0.482E+02
DAV:   3    -0.383270752493E+03   -0.86691E+03   -0.85269E+03  9152   0.188E+02
DAV:   4    -0.421321381233E+03   -0.38051E+02   -0.37571E+02  9152   0.372E+01
DAV:   5    -0.423942338186E+03   -0.26210E+01   -0.25969E+01  9152   0.688E+00
SDA:   6    -0.276810707658E+03    0.14713E+03   -0.25969E+01  9152   0.897E+03 0.000E+00
CGA:   7    -0.357199141974E+03   -0.80388E+02   -0.94750E+02  9152   0.359E+03-0.652E+02
CGA:   8    -0.366819733356E+03   -0.96206E+01   -0.25098E+02  9152   0.743E+02-0.542E+02
CGA:   9    -0.371409777474E+03   -0.45900E+01   -0.36328E+01  9152   0.724E+02-0.230E+02
CGA:  10    -0.371847036455E+03   -0.43726E+00   -0.27508E+01  9152   0.713E+02-0.213E+02
CGA:  11    -0.375219827957E+03   -0.33728E+01   -0.16972E+01  9152   0.313E+02-0.591E+02
CGA:  12    -0.374346509932E+03    0.87332E+00   -0.21040E+01  9152   0.789E+02-0.196E+02
CGA:  13    -0.374481160954E+03   -0.13465E+00   -0.36384E+01  9152   0.764E+02-0.586E+02
CGA:  14    -0.373792636100E+03    0.68852E+00   -0.50894E+01  9152   0.462E+02-0.255E+02
CGA:  15    -0.376895434309E+03   -0.31028E+01   -0.91108E+00  9152   0.531E+02 0.820E+02
CGA:  16    -0.376936487552E+03   -0.41053E-01   -0.23164E+01  9152   0.380E+02-0.246E+02
CGA:  17    -0.377972448331E+03   -0.10360E+01   -0.12275E+01  9152   0.333E+02-0.470E+01
CGA:  18    -0.378381958480E+03   -0.40951E+00   -0.11558E+01  9152   0.219E+02-0.112E+02
CGA:  19    -0.379052249225E+03   -0.67029E+00   -0.78805E+00  9152   0.456E+01-0.451E+00
CGA:  20    -0.379272584013E+03   -0.22033E+00   -0.21910E+00  9152   0.325E+01-0.980E-01
CGA:  21    -0.379417434397E+03   -0.14485E+00   -0.18474E+00  9152   0.477E+01-0.300E+00
CGA:  22    -0.379877735753E+03   -0.46030E+00   -0.48005E+00  9152   0.229E+01 0.755E+00
CGA:  23    -0.379967079943E+03   -0.89344E-01   -0.95533E-01  9152   0.101E+01-0.230E+00
CGA:  24    -0.380070688470E+03   -0.10361E+00   -0.10405E+00  9152   0.787E+00 0.842E-01
CGA:  25    -0.380127536839E+03   -0.56848E-01   -0.66232E-01  9152   0.254E+00 0.200E-01
CGA:  26    -0.380139107173E+03   -0.11570E-01   -0.11996E-01  9152   0.934E-01-0.667E-02
CGA:  27    -0.380148616029E+03   -0.95089E-02   -0.95686E-02  9152   0.403E-01 0.427E-02
CGA:  28    -0.380154940054E+03   -0.63240E-02   -0.61795E-02  9152   0.289E-01 0.290E-02
CGA:  29    -0.380159286485E+03   -0.43464E-02   -0.42997E-02  9152   0.326E-01 0.120E-02
CGA:  30    -0.380161616371E+03   -0.23299E-02   -0.23465E-02  9152   0.172E-01-0.123E-03
CGA:  31    -0.380163769745E+03   -0.21534E-02   -0.21464E-02  9152   0.790E-02 0.284E-03
CGA:  32    -0.380164991760E+03   -0.12220E-02   -0.12210E-02  9152   0.942E-02-0.210E-05
CGA:  33    -0.380165709494E+03   -0.71773E-03   -0.71516E-03  9152   0.592E-02-0.661E-04
CGA:  34    -0.380166403789E+03   -0.69429E-03   -0.69434E-03  9152   0.269E-02-0.513E-04
CGA:  35    -0.380166813913E+03   -0.41012E-03   -0.41361E-03  9152   0.299E-02-0.848E-04
CGA:  36    -0.380167014821E+03   -0.20091E-03   -0.19889E-03  9152   0.155E-02-0.504E-04
CGA:  37    -0.380167236167E+03   -0.22135E-03   -0.22282E-03  9152   0.103E-02-0.475E-04
CGA:  38    -0.380167382997E+03   -0.14683E-03   -0.14783E-03  9152   0.107E-02-0.299E-04
CGA:  39    -0.380167451714E+03   -0.68717E-04   -0.68227E-04  9152   0.462E-03-0.111E-04
CGA:  40    -0.380167524877E+03   -0.73163E-04   -0.73400E-04  9152   0.319E-03-0.540E-05
CGA:  41    -0.380167566988E+03   -0.42112E-04   -0.42040E-04  9152   0.377E-03 0.327E-05
CGA:  42    -0.380167595734E+03   -0.28745E-04   -0.28862E-04  9152   0.182E-03 0.278E-05
CGA:  43    -0.380167627502E+03   -0.31768E-04   -0.31389E-04  9152   0.121E-03 0.673E-05
CGA:  44    -0.380167640381E+03   -0.12880E-04   -0.12935E-04  9152   0.138E-03 0.382E-05
CGA:  45    -0.380167654722E+03   -0.14341E-04   -0.14434E-04  9152   0.784E-04 0.570E-05
SDA:  46    -0.380167668148E+03   -0.13426E-04   -0.13213E-04  9152   0.543E-04 0.466E-05
CGA:  47    -0.380167670876E+03   -0.27277E-05   -0.27445E-05  9152   0.242E-04 0.181E-06
   1 F= -.38016767E+03 E0= -.38016226E+03  d E =-.380168E+03  mag=    58.0000
       N       E                     dE             d eps       ncg     rms          ort
SDA:   1    -0.380181180499E+03   -0.13512E-01    0.00000E+00  9152   0.513E-01 0.000E+00
CGA:   2    -0.380186971310E+03   -0.57908E-02   -0.57905E-02  9152   0.356E-01-0.389E-04
CGA:   3    -0.380189888945E+03   -0.29176E-02   -0.29177E-02  9152   0.273E-01-0.477E-05
CGA:   4    -0.380192251866E+03   -0.23629E-02   -0.23612E-02  9152   0.902E-02-0.496E-05
CGA:   5    -0.380193590591E+03   -0.13387E-02   -0.13379E-02  9152   0.210E-02 0.215E-04
CGA:   6    -0.380193851252E+03   -0.26066E-03   -0.26070E-03  9152   0.208E-02-0.447E-05
CGA:   7    -0.380193966558E+03   -0.11531E-03   -0.11525E-03  9152   0.406E-03-0.118E-05
CGA:   8    -0.380194026459E+03   -0.59901E-04   -0.59875E-04  9152   0.204E-03 0.776E-06
CGA:   9    -0.380194050609E+03   -0.24149E-04   -0.24146E-04  9152   0.119E-03 0.106E-05
CGA:  10    -0.380194058786E+03   -0.81776E-05   -0.81860E-05  9152   0.779E-04 0.210E-06
CGA:  11    -0.380194069592E+03   -0.10806E-04   -0.10787E-04  9152   0.257E-04 0.705E-06
CGA:  12    -0.380194074342E+03   -0.47500E-05   -0.47480E-05  9152   0.387E-04 0.333E-07
   2 F= -.38019407E+03 E0= -.38018867E+03  d E =-.264035E-01  mag=    58.0000
       N       E                     dE             d eps       ncg     rms          ort
SDA:   1    -0.373600609414E+03    0.65935E+01    0.00000E+00  9152   0.265E+02 0.000E+00
CGA:   2    -0.376939169104E+03   -0.33386E+01   -0.33421E+01  9152   0.196E+02-0.126E+00
CGA:   3    -0.378494230964E+03   -0.15551E+01   -0.16825E+01  9152   0.121E+02 0.556E+00
CGA:   4    -0.379729711569E+03   -0.12355E+01   -0.11732E+01  9152   0.578E+01-0.971E+00
CGA:   5    -0.380321290509E+03   -0.59158E+00   -0.59114E+00  9152   0.213E+01-0.133E+00
CGA:   6    -0.380453483462E+03   -0.13219E+00   -0.12116E+00  9152   0.978E+00 0.872E-01
CGA:   7    -0.380570269711E+03   -0.11679E+00   -0.11659E+00  9152   0.312E+00 0.231E-01
CGA:   8    -0.380594350443E+03   -0.24081E-01   -0.23650E-01  9152   0.229E+00-0.740E-03
CGA:   9    -0.380615075787E+03   -0.20725E-01   -0.20816E-01  9152   0.886E-01 0.171E-02
CGA:  10    -0.380623694805E+03   -0.86190E-02   -0.86126E-02  9152   0.423E-01-0.206E-03
CGA:  11    -0.380627337941E+03   -0.36431E-02   -0.36764E-02  9152   0.361E-01 0.496E-03
CGA:  12    -0.380630912728E+03   -0.35748E-02   -0.35722E-02  9152   0.101E-01-0.115E-03
CGA:  13    -0.380632060483E+03   -0.11478E-02   -0.11469E-02  9152   0.126E-01 0.587E-04
CGA:  14    -0.380633184161E+03   -0.11237E-02   -0.11217E-02  9152   0.358E-02-0.371E-04
CGA:  15    -0.380633633758E+03   -0.44960E-03   -0.44809E-03  9152   0.422E-02 0.501E-04
CGA:  16    -0.380633994883E+03   -0.36112E-03   -0.36109E-03  9152   0.176E-02 0.188E-05
CGA:  17    -0.380634215365E+03   -0.22048E-03   -0.22038E-03  9152   0.153E-02 0.481E-05
CGA:  18    -0.380634340952E+03   -0.12559E-03   -0.12542E-03  9152   0.821E-03-0.154E-05
CGA:  19    -0.380634437364E+03   -0.96412E-04   -0.96377E-04  9152   0.570E-03 0.123E-05
CGA:  20    -0.380634491519E+03   -0.54155E-04   -0.54133E-04  9152   0.400E-03-0.223E-05
CGA:  21    -0.380634528280E+03   -0.36761E-04   -0.36749E-04  9152   0.214E-03-0.115E-05
CGA:  22    -0.380634557903E+03   -0.29623E-04   -0.29700E-04  9152   0.234E-03-0.207E-05
CGA:  23    -0.380634575554E+03   -0.17650E-04   -0.17641E-04  9152   0.952E-04-0.378E-06
CGA:  24    -0.380634591515E+03   -0.15961E-04   -0.15994E-04  9152   0.125E-03-0.527E-06
CGA:  25    -0.380634600521E+03   -0.90069E-05   -0.90111E-05  9152   0.491E-04 0.799E-08
   3 F= -.38063460E+03 E0= -.38062917E+03  d E =-.440526E+00  mag=    58.0000
       N       E                     dE             d eps       ncg     rms          ort
SDA:   1    -0.372104732008E+03    0.85299E+01    0.00000E+00  9152   0.351E+02 0.000E+00
CGA:   2    -0.375942730276E+03   -0.38380E+01   -0.38380E+01  9152   0.271E+02 0.156E+00
CGA:   3    -0.378011633905E+03   -0.20689E+01   -0.22341E+01  9152   0.138E+02 0.375E+00
CGA:   4    -0.379556050024E+03   -0.15444E+01   -0.16843E+01  9152   0.168E+02-0.761E+01
CGA:   5    -0.379994680075E+03   -0.43863E+00   -0.94241E+00  9152   0.657E+01-0.286E+01
CGA:   6    -0.380433481424E+03   -0.43880E+00   -0.35135E+00  9152   0.115E+01 0.439E+00
CGA:   7    -0.380633227914E+03   -0.19975E+00   -0.19948E+00  9152   0.864E+00 0.393E-02
CGA:   8    -0.380737522151E+03   -0.10429E+00   -0.10274E+00  9152   0.886E+00 0.784E-01
CGA:   9    -0.380788867108E+03   -0.51345E-01   -0.49946E-01  9152   0.232E+00 0.109E-01
CGA:  10    -0.380834468705E+03   -0.45602E-01   -0.45408E-01  9152   0.705E-01 0.197E-02
CGA:  11    -0.380839136429E+03   -0.46677E-02   -0.46350E-02  9152   0.461E-01 0.108E-03
CGA:  12    -0.380843244932E+03   -0.41085E-02   -0.41290E-02  9152   0.187E-01 0.387E-03
CGA:  13    -0.380846123995E+03   -0.28791E-02   -0.28818E-02  9152   0.768E-02-0.436E-04
CGA:  14    -0.380846855691E+03   -0.73170E-03   -0.73264E-03  9152   0.102E-01 0.253E-04
CGA:  15    -0.380847922392E+03   -0.10667E-02   -0.10665E-02  9152   0.375E-02-0.404E-04
CGA:  16    -0.380848476228E+03   -0.55384E-03   -0.55302E-03  9152   0.240E-02 0.158E-04
CGA:  17    -0.380848665566E+03   -0.18934E-03   -0.18914E-03  9152   0.226E-02 0.167E-05
CGA:  18    -0.380848931507E+03   -0.26594E-03   -0.26579E-03  9152   0.800E-03 0.125E-04
CGA:  19    -0.380849071870E+03   -0.14036E-03   -0.14029E-03  9152   0.838E-03 0.118E-05
CGA:  20    -0.380849131539E+03   -0.59669E-04   -0.59801E-04  9152   0.599E-03 0.321E-06
CGA:  21    -0.380849203729E+03   -0.72189E-04   -0.72210E-04  9152   0.232E-03-0.157E-05
CGA:  22    -0.380849249691E+03   -0.45962E-04   -0.45883E-04  9152   0.299E-03 0.905E-06
CGA:  23    -0.380849268532E+03   -0.18841E-04   -0.18818E-04  9152   0.158E-03 0.252E-06
CGA:  24    -0.380849291246E+03   -0.22714E-04   -0.22699E-04  9152   0.777E-04 0.446E-06
CGA:  25    -0.380849305233E+03   -0.13987E-04   -0.14042E-04  9152   0.104E-03-0.804E-06
CGA:  26    -0.380849311494E+03   -0.62611E-05   -0.62452E-05  9152   0.450E-04-0.276E-06
   4 F= -.38084931E+03 E0= -.38084370E+03  d E =-.214711E+00  mag=    58.0000
       N       E                     dE             d eps       ncg     rms          ort
SDA:   1    -0.379592281508E+03    0.12570E+01    0.00000E+00  9152   0.419E+01 0.000E+00
CGA:   2    -0.380262096111E+03   -0.66981E+00   -0.67048E+00  9152   0.363E+01-0.100E-01
CGA:   3    -0.380495971244E+03   -0.23388E+00   -0.25560E+00  9152   0.248E+01-0.101E+00
CGA:   4    -0.380740432952E+03   -0.24446E+00   -0.24197E+00  9152   0.796E+00-0.600E-01
CGA:   5    -0.380825633576E+03   -0.85201E-01   -0.85255E-01  9152   0.383E+00 0.473E-02
CGA:   6    -0.380848685274E+03   -0.23052E-01   -0.22410E-01  9152   0.167E+00 0.433E-02
CGA:   7    -0.380867388150E+03   -0.18703E-01   -0.18704E-01  9152   0.409E-01 0.650E-03
CGA:   8    -0.380871266495E+03   -0.38783E-02   -0.38698E-02  9152   0.428E-01-0.155E-03
CGA:   9    -0.380874454653E+03   -0.31882E-02   -0.31975E-02  9152   0.872E-02 0.114E-04
CGA:  10    -0.380875676503E+03   -0.12219E-02   -0.12223E-02  9152   0.861E-02-0.857E-05
CGA:  11    -0.380876212707E+03   -0.53620E-03   -0.53851E-03  9152   0.351E-02-0.600E-05
CGA:  12    -0.380876617701E+03   -0.40499E-03   -0.40504E-03  9152   0.165E-02-0.405E-05
CGA:  13    -0.380876803158E+03   -0.18546E-03   -0.18545E-03  9152   0.199E-02 0.830E-06
CGA:  14    -0.380876954600E+03   -0.15144E-03   -0.15125E-03  9152   0.528E-03-0.227E-05
CGA:  15    -0.380877046580E+03   -0.91980E-04   -0.91796E-04  9152   0.799E-03 0.257E-05
CGA:  16    -0.380877098285E+03   -0.51705E-04   -0.51682E-04  9152   0.286E-03 0.594E-06
CGA:  17    -0.380877140062E+03   -0.41777E-04   -0.41714E-04  9152   0.226E-03 0.168E-05
CGA:  18    -0.380877159676E+03   -0.19614E-04   -0.19617E-04  9152   0.199E-03 0.296E-06
CGA:  19    -0.380877178549E+03   -0.18874E-04   -0.18888E-04  9152   0.677E-04 0.837E-06
CGA:  20    -0.380877188259E+03   -0.97101E-05   -0.97074E-05  9152   0.984E-04 0.925E-07
   5 F= -.38087719E+03 E0= -.38087143E+03  d E =-.278768E-01  mag=    58.0000
       N       E                     dE             d eps       ncg     rms          ort
SDA:   1    -0.379768718457E+03    0.11085E+01    0.00000E+00  9152   0.309E+01 0.000E+00
CGA:   2    -0.380489200365E+03   -0.72048E+00   -0.72053E+00  9152   0.185E+01-0.113E-03
CGA:   3    -0.380754793046E+03   -0.26559E+00   -0.26505E+00  9152   0.996E+00 0.135E-01
CGA:   4    -0.380815490645E+03   -0.60698E-01   -0.59521E-01  9152   0.554E+00 0.157E-02
CGA:   5    -0.380861105985E+03   -0.45615E-01   -0.45831E-01  9152   0.132E+00 0.562E-03
CGA:   6    -0.380879520369E+03   -0.18414E-01   -0.18417E-01  9152   0.327E-01-0.596E-04
CGA:   7    -0.380883929785E+03   -0.44094E-02   -0.44055E-02  9152   0.327E-01 0.124E-03
CGA:   8    -0.380885588361E+03   -0.16586E-02   -0.16467E-02  9152   0.832E-02 0.144E-03
CGA:   9    -0.380886858698E+03   -0.12703E-02   -0.12695E-02  9152   0.348E-02 0.171E-04
CGA:  10    -0.380887333485E+03   -0.47479E-03   -0.47498E-03  9152   0.231E-02-0.585E-05
CGA:  11    -0.380887475297E+03   -0.14181E-03   -0.14206E-03  9152   0.150E-02-0.243E-05
CGA:  12    -0.380887680594E+03   -0.20530E-03   -0.20542E-03  9152   0.514E-03-0.432E-05
CGA:  13    -0.380887770070E+03   -0.89476E-04   -0.89460E-04  9152   0.662E-03 0.196E-06
CGA:  14    -0.380887811765E+03   -0.41695E-04   -0.41663E-04  9152   0.357E-03 0.366E-06
CGA:  15    -0.380887856620E+03   -0.44855E-04   -0.44827E-04  9152   0.142E-03 0.228E-05
CGA:  16    -0.380887883281E+03   -0.26661E-04   -0.26564E-04  9152   0.167E-03 0.136E-05
CGA:  17    -0.380887892385E+03   -0.91041E-05   -0.91607E-05  9152   0.682E-04 0.706E-06
CGA:  18    -0.380887903324E+03   -0.10938E-04   -0.10907E-04  9152   0.397E-04 0.704E-06
CGA:  19    -0.380887909386E+03   -0.60628E-05   -0.60463E-05  9152   0.462E-04 0.472E-06
   6 F= -.38088791E+03 E0= -.38088205E+03  d E =-.107211E-01  mag=    58.0000
       N       E                     dE             d eps       ncg     rms          ort
SDA:   1    -0.379095807281E+03    0.17921E+01    0.00000E+00  9152   0.463E+01 0.000E+00
CGA:   2    -0.380293683677E+03   -0.11979E+01   -0.12047E+01  9152   0.444E+01-0.450E-01
CGA:   3    -0.380576582659E+03   -0.28290E+00   -0.30889E+00  9152   0.267E+01-0.132E+00
CGA:   4    -0.380753331219E+03   -0.17675E+00   -0.17404E+00  9152   0.761E+00-0.455E-01
CGA:   5    -0.380849327452E+03   -0.95996E-01   -0.96008E-01  9152   0.171E+00-0.528E-03
CGA:   6    -0.380866089182E+03   -0.16762E-01   -0.16694E-01  9152   0.180E+00-0.105E-02
CGA:   7    -0.380876973494E+03   -0.10884E-01   -0.10951E-01  9152   0.275E-01-0.529E-03
CGA:   8    -0.380881511149E+03   -0.45377E-02   -0.45380E-02  9152   0.162E-01-0.324E-05
CGA:   9    -0.380882639567E+03   -0.11284E-02   -0.11315E-02  9152   0.104E-01-0.485E-05
CGA:  10    -0.380883455409E+03   -0.81584E-03   -0.81334E-03  9152   0.325E-02-0.153E-05
CGA:  11    -0.380883988158E+03   -0.53275E-03   -0.53278E-03  9152   0.202E-02-0.966E-06
CGA:  12    -0.380884117019E+03   -0.12886E-03   -0.12866E-03  9152   0.142E-02-0.169E-05
CGA:  13    -0.380884329106E+03   -0.21209E-03   -0.21212E-03  9152   0.723E-03-0.136E-05
CGA:  14    -0.380884426559E+03   -0.97453E-04   -0.97487E-04  9152   0.902E-03-0.131E-05
CGA:  15    -0.380884487792E+03   -0.61233E-04   -0.61295E-04  9152   0.430E-03 0.130E-05
CGA:  16    -0.380884554608E+03   -0.66816E-04   -0.66690E-04  9152   0.235E-03 0.298E-05
CGA:  17    -0.380884580297E+03   -0.25689E-04   -0.25702E-04  9152   0.298E-03 0.191E-05
CGA:  18    -0.380884603033E+03   -0.22736E-04   -0.22782E-04  9152   0.897E-04 0.120E-05
CGA:  19    -0.380884619624E+03   -0.16591E-04   -0.16502E-04  9152   0.836E-04 0.124E-05
CGA:  20    -0.380884625412E+03   -0.57883E-05   -0.57881E-05  9152   0.589E-04 0.861E-08
   7 F= -.38088463E+03 E0= -.38087875E+03  d E =0.328397E-02  mag=    58.0000
       N       E                     dE             d eps       ncg     rms          ort
SDA:   1    -0.373498037994E+03    0.73866E+01    0.00000E+00  9152   0.187E+02 0.000E+00
CGA:   2    -0.378846994673E+03   -0.53490E+01   -0.53645E+01  9152   0.110E+02-0.774E-01
CGA:   3    -0.380024194423E+03   -0.11772E+01   -0.11896E+01  9152   0.645E+01 0.287E+00
CGA:   4    -0.380455046396E+03   -0.43085E+00   -0.44634E+00  9152   0.343E+01-0.261E+00
CGA:   5    -0.380735498888E+03   -0.28045E+00   -0.27681E+00  9152   0.509E+00-0.368E-01
CGA:   6    -0.380818287870E+03   -0.82789E-01   -0.83355E-01  9152   0.268E+00-0.933E-02
CGA:   7    -0.380833122231E+03   -0.14834E-01   -0.15591E-01  9152   0.157E+00-0.724E-02
CGA:   8    -0.380849213434E+03   -0.16091E-01   -0.16106E-01  9152   0.372E-01 0.458E-03
CGA:   9    -0.380853920576E+03   -0.47071E-02   -0.47076E-02  9152   0.339E-01-0.274E-04
CGA:  10    -0.380855928069E+03   -0.20075E-02   -0.19687E-02  9152   0.119E-01 0.325E-03
CGA:  11    -0.380857715577E+03   -0.17875E-02   -0.17814E-02  9152   0.602E-02 0.130E-03
CGA:  12    -0.380858456071E+03   -0.74049E-03   -0.74050E-03  9152   0.831E-02-0.575E-06
CGA:  13    -0.380859104533E+03   -0.64846E-03   -0.64840E-03  9152   0.339E-02 0.295E-05
CGA:  14    -0.380859705726E+03   -0.60119E-03   -0.60161E-03  9152   0.278E-02-0.548E-05
CGA:  15    -0.380859973745E+03   -0.26802E-03   -0.26845E-03  9152   0.309E-02 0.853E-05
CGA:  16    -0.380860243173E+03   -0.26943E-03   -0.26956E-03  9152   0.104E-02 0.393E-05
CGA:  17    -0.380860444892E+03   -0.20172E-03   -0.20131E-03  9152   0.102E-02 0.523E-05
CGA:  18    -0.380860503504E+03   -0.58612E-04   -0.58572E-04  9152   0.481E-03 0.192E-05
CGA:  19    -0.380860590769E+03   -0.87264E-04   -0.87082E-04  9152   0.304E-03 0.266E-05
CGA:  20    -0.380860624130E+03   -0.33361E-04   -0.33350E-04  9152   0.359E-03-0.941E-06
CGA:  21    -0.380860654247E+03   -0.30117E-04   -0.30090E-04  9152   0.171E-03-0.729E-06
CGA:  22    -0.380860682702E+03   -0.28456E-04   -0.28514E-04  9152   0.124E-03-0.115E-05
CGA:  23    -0.380860692514E+03   -0.98113E-05   -0.98129E-05  9152   0.110E-03-0.153E-06
CGA:  24    -0.380860705878E+03   -0.13365E-04   -0.13367E-04  9152   0.449E-04-0.569E-06
CGA:  25    -0.380860712043E+03   -0.61645E-05   -0.61688E-05  9152   0.530E-04-0.209E-06
   8 F= -.38086071E+03 E0= -.38085490E+03  d E =0.239134E-01  mag=    58.0000
       N       E                     dE             d eps       ncg     rms          ort
SDA:   1    -0.303581856773E+03    0.77279E+02    0.00000E+00  9152   0.205E+03 0.000E+00
CGA:   2    -0.349208034287E+03   -0.45626E+02   -0.45755E+02  9152   0.151E+03 0.296E+02
CGA:   3    -0.366692223978E+03   -0.17484E+02   -0.16510E+02  9152   0.754E+02-0.168E+02
CGA:   4    -0.374564102446E+03   -0.78719E+01   -0.74004E+01  9152   0.725E+02-0.463E+02
CGA:   5    -0.376955345536E+03   -0.23912E+01   -0.27620E+01  9152   0.573E+02-0.662E+02
CGA:   6    -0.377708712192E+03   -0.75337E+00   -0.23773E+01  9152   0.487E+02-0.420E+02
CGA:   7    -0.378570132129E+03   -0.86142E+00   -0.17520E+01  9152   0.188E+02-0.197E+02
CGA:   8    -0.379569196574E+03   -0.99906E+00   -0.94606E+00  9152   0.558E+01-0.112E+00
CGA:   9    -0.379890148925E+03   -0.32095E+00   -0.34994E+00  9152   0.383E+01 0.501E-01
CGA:  10    -0.380334644695E+03   -0.44450E+00   -0.43902E+00  9152   0.223E+01 0.347E+00
CGA:  11    -0.380475248929E+03   -0.14060E+00   -0.14183E+00  9152   0.947E+00-0.195E-01
CGA:  12    -0.380583360044E+03   -0.10811E+00   -0.10775E+00  9152   0.803E+00 0.185E-01
CGA:  13    -0.380643213880E+03   -0.59854E-01   -0.60189E-01  9152   0.351E+00-0.262E-02
CGA:  14    -0.380671833473E+03   -0.28620E-01   -0.28967E-01  9152   0.167E+00 0.515E-02
CGA:  15    -0.380685865808E+03   -0.14032E-01   -0.14126E-01  9152   0.103E+00 0.156E-02
CGA:  16    -0.380697115100E+03   -0.11249E-01   -0.11236E-01  9152   0.746E-01 0.998E-03
CGA:  17    -0.380703441084E+03   -0.63260E-02   -0.63422E-02  9152   0.395E-01 0.315E-03
CGA:  18    -0.380707886863E+03   -0.44458E-02   -0.44357E-02  9152   0.375E-01 0.509E-03
CGA:  19    -0.380711912414E+03   -0.40256E-02   -0.40202E-02  9152   0.238E-01 0.537E-03
CGA:  20    -0.380714096436E+03   -0.21840E-02   -0.21870E-02  9152   0.149E-01 0.129E-03
CGA:  21    -0.380715769433E+03   -0.16730E-02   -0.16708E-02  9152   0.109E-01 0.130E-03
CGA:  22    -0.380716757562E+03   -0.98813E-03   -0.98870E-03  9152   0.584E-02 0.294E-04
CGA:  23    -0.380717358205E+03   -0.60064E-03   -0.60049E-03  9152   0.388E-02 0.371E-04
CGA:  24    -0.380717732015E+03   -0.37381E-03   -0.37384E-03  9152   0.243E-02 0.357E-05
CGA:  25    -0.380718015690E+03   -0.28367E-03   -0.28355E-03  9152   0.204E-02 0.431E-05
CGA:  26    -0.380718217128E+03   -0.20144E-03   -0.20143E-03  9152   0.118E-02-0.549E-05
CGA:  27    -0.380718349450E+03   -0.13232E-03   -0.13233E-03  9152   0.104E-02-0.219E-05
CGA:  28    -0.380718461718E+03   -0.11227E-03   -0.11233E-03  9152   0.616E-03-0.695E-05
CGA:  29    -0.380718517929E+03   -0.56212E-04   -0.56191E-04  9152   0.368E-03-0.252E-05
CGA:  30    -0.380718560878E+03   -0.42948E-04   -0.43011E-04  9152   0.300E-03-0.393E-05
CGA:  31    -0.380718589985E+03   -0.29107E-04   -0.29098E-04  9152   0.166E-03-0.230E-05
CGA:  32    -0.380718606798E+03   -0.16813E-04   -0.16814E-04  9152   0.123E-03-0.202E-05
CGA:  33    -0.380718620850E+03   -0.14051E-04   -0.14063E-04  9152   0.961E-04-0.833E-06
CGA:  34    -0.380718630592E+03   -0.97428E-05   -0.97424E-05  9152   0.635E-04-0.700E-06
   9 F= -.38071863E+03 E0= -.38071315E+03  d E =0.142081E+00  mag=    58.0000
       N       E                     dE             d eps       ncg     rms          ort
SDA:   1    -0.378115938971E+03    0.26027E+01    0.00000E+00  9152   0.725E+01 0.000E+00
CGA:   2    -0.379727475180E+03   -0.16115E+01   -0.16111E+01  9152   0.620E+01 0.663E-02
CGA:   3    -0.380170857737E+03   -0.44338E+00   -0.43128E+00  9152   0.405E+01 0.273E-01
CGA:   4    -0.380553324627E+03   -0.38247E+00   -0.38327E+00  9152   0.959E+00 0.192E-01
CGA:   5    -0.380675917276E+03   -0.12259E+00   -0.12268E+00  9152   0.301E+00-0.265E-02
CGA:   6    -0.380712319441E+03   -0.36402E-01   -0.36397E-01  9152   0.165E+00 0.298E-03
CGA:   7    -0.380721692900E+03   -0.93735E-02   -0.93132E-02  9152   0.633E-01 0.408E-03
CGA:   8    -0.380730370659E+03   -0.86778E-02   -0.86680E-02  9152   0.169E-01 0.225E-03
CGA:   9    -0.380733065391E+03   -0.26947E-02   -0.27005E-02  9152   0.126E-01-0.906E-04
CGA:  10    -0.380733881742E+03   -0.81635E-03   -0.81809E-03  9152   0.659E-02-0.233E-05
CGA:  11    -0.380734629383E+03   -0.74764E-03   -0.74764E-03  9152   0.261E-02 0.132E-05
CGA:  12    -0.380735075078E+03   -0.44569E-03   -0.44515E-03  9152   0.179E-02 0.805E-05
CGA:  13    -0.380735221836E+03   -0.14676E-03   -0.14661E-03  9152   0.157E-02-0.272E-06
CGA:  14    -0.380735409177E+03   -0.18734E-03   -0.18733E-03  9152   0.623E-03 0.126E-05
CGA:  15    -0.380735523053E+03   -0.11388E-03   -0.11394E-03  9152   0.517E-03-0.880E-06
CGA:  16    -0.380735561717E+03   -0.38664E-04   -0.38691E-04  9152   0.371E-03-0.115E-06
CGA:  17    -0.380735606670E+03   -0.44953E-04   -0.44961E-04  9152   0.162E-03-0.850E-06
CGA:  18    -0.380735632023E+03   -0.25353E-04   -0.25374E-04  9152   0.111E-03-0.465E-06
CGA:  19    -0.380735641681E+03   -0.96579E-05   -0.96495E-05  9152   0.108E-03-0.291E-06
CGA:  20    -0.380735654652E+03   -0.12971E-04   -0.12970E-04  9152   0.403E-04 0.653E-07
CGA:  21    -0.380735662860E+03   -0.82081E-05   -0.82602E-05  9152   0.510E-04-0.567E-06
  10 F= -.38073566E+03 E0= -.38073030E+03  d E =-.170323E-01  mag=    58.0000
       N       E                     dE             d eps       ncg     rms          ort
SDA:   1    -0.378699915730E+03    0.20357E+01    0.00000E+00  9152   0.552E+01 0.000E+00
CGA:   2    -0.379954899861E+03   -0.12550E+01   -0.12445E+01  9152   0.564E+01 0.122E+00
CGA:   3    -0.380368069577E+03   -0.41317E+00   -0.43100E+00  9152   0.308E+01-0.214E+00
CGA:   4    -0.380591001005E+03   -0.22293E+00   -0.21943E+00  9152   0.851E+00 0.582E-02
CGA:   5    -0.380707418191E+03   -0.11642E+00   -0.11631E+00  9152   0.218E+00 0.347E-02
CGA:   6    -0.380728876789E+03   -0.21459E-01   -0.21568E-01  9152   0.192E+00 0.177E-02
CGA:   7    -0.380740612496E+03   -0.11736E-01   -0.11692E-01  9152   0.373E-01 0.295E-03
CGA:   8    -0.380746196833E+03   -0.55843E-02   -0.55805E-02  9152   0.149E-01 0.767E-04
CGA:   9    -0.380748295003E+03   -0.20982E-02   -0.20986E-02  9152   0.775E-02-0.136E-04
CGA:  10    -0.380748805642E+03   -0.51064E-03   -0.50979E-03  9152   0.503E-02 0.177E-05
CGA:  11    -0.380749380354E+03   -0.57471E-03   -0.57471E-03  9152   0.154E-02 0.766E-05
CGA:  12    -0.380749676054E+03   -0.29570E-03   -0.29535E-03  9152   0.868E-03 0.456E-05
CGA:  13    -0.380749842698E+03   -0.16664E-03   -0.16640E-03  9152   0.522E-03 0.334E-05
CGA:  14    -0.380749929011E+03   -0.86312E-04   -0.86303E-04  9152   0.584E-03 0.676E-07
CGA:  15    -0.380749965350E+03   -0.36340E-04   -0.36264E-04  9152   0.275E-03-0.843E-06
CGA:  16    -0.380750009870E+03   -0.44519E-04   -0.44562E-04  9152   0.123E-03-0.104E-05
CGA:  17    -0.380750031799E+03   -0.21929E-04   -0.21963E-04  9152   0.703E-04-0.590E-06
CGA:  18    -0.380750044162E+03   -0.12363E-04   -0.12364E-04  9152   0.667E-04-0.351E-07
CGA:  19    -0.380750048535E+03   -0.43733E-05   -0.43832E-05  9152   0.422E-04 0.130E-06
  11 F= -.38075005E+03 E0= -.38074468E+03  d E =-.143857E-01  mag=    58.0000
       N       E                     dE             d eps       ncg     rms          ort
SDA:   1    -0.353574760968E+03    0.27175E+02    0.00000E+00  9152   0.966E+02 0.000E+00
CGA:   2    -0.365321245667E+03   -0.11746E+02   -0.11450E+02  9152   0.145E+03-0.145E+02
CGA:   3    -0.371296253466E+03   -0.59750E+01   -0.80467E+01  9152   0.553E+02-0.112E+02
CGA:   4    -0.376895377806E+03   -0.55991E+01   -0.55658E+01  9152   0.248E+02-0.110E+01
CGA:   5    -0.377936505753E+03   -0.10411E+01   -0.11119E+01  9152   0.286E+02-0.124E+02
CGA:   6    -0.378412651726E+03   -0.47615E+00   -0.47377E+00  9152   0.490E+02 0.661E-01
CGA:   7    -0.379576780367E+03   -0.11641E+01   -0.14568E+01  9152   0.494E+01-0.133E+02
CGA:   8    -0.379814494358E+03   -0.23771E+00   -0.25797E+00  9152   0.570E+01-0.217E-01
CGA:   9    -0.380149752289E+03   -0.33526E+00   -0.29836E+00  9152   0.107E+01 0.349E+00
CGA:  10    -0.380311338050E+03   -0.16159E+00   -0.16178E+00  9152   0.725E+00-0.831E-03
CGA:  11    -0.380347408986E+03   -0.36071E-01   -0.40181E-01  9152   0.678E+00-0.317E-01
CGA:  12    -0.380399185926E+03   -0.51777E-01   -0.51670E-01  9152   0.213E+00-0.127E-02
CGA:  13    -0.380433172912E+03   -0.33987E-01   -0.33205E-01  9152   0.707E-01 0.118E-01
CGA:  14    -0.380446559580E+03   -0.13387E-01   -0.13232E-01  9152   0.851E-01 0.188E-02
CGA:  15    -0.380450623676E+03   -0.40641E-02   -0.41948E-02  9152   0.278E-01-0.159E-02
CGA:  16    -0.380455131370E+03   -0.45077E-02   -0.44694E-02  9152   0.146E-01 0.554E-03
CGA:  17    -0.380457270622E+03   -0.21393E-02   -0.21296E-02  9152   0.171E-01 0.212E-03
CGA:  18    -0.380458401755E+03   -0.11311E-02   -0.11462E-02  9152   0.892E-02-0.430E-04
CGA:  19    -0.380459575777E+03   -0.11740E-02   -0.11715E-02  9152   0.361E-02 0.768E-04
CGA:  20    -0.380460390386E+03   -0.81461E-03   -0.81261E-03  9152   0.476E-02 0.175E-04
CGA:  21    -0.380460661363E+03   -0.27098E-03   -0.27272E-03  9152   0.197E-02-0.136E-04
CGA:  22    -0.380461044474E+03   -0.38311E-03   -0.38200E-03  9152   0.146E-02 0.123E-04
CGA:  23    -0.380461264323E+03   -0.21985E-03   -0.21999E-03  9152   0.164E-02-0.338E-05
CGA:  24    -0.380461379518E+03   -0.11519E-03   -0.11506E-03  9152   0.916E-03 0.766E-07
CGA:  25    -0.380461528372E+03   -0.14885E-03   -0.14910E-03  9152   0.475E-03-0.487E-05
CGA:  26    -0.380461601963E+03   -0.73590E-04   -0.73594E-04  9152   0.488E-03-0.333E-06
CGA:  27    -0.380461633988E+03   -0.32025E-04   -0.31933E-04  9152   0.252E-03-0.589E-06
CGA:  28    -0.380461676227E+03   -0.42240E-04   -0.42317E-04  9152   0.111E-03-0.141E-05
CGA:  29    -0.380461691562E+03   -0.15335E-04   -0.15334E-04  9152   0.156E-03 0.452E-07
CGA:  30    -0.380461703068E+03   -0.11506E-04   -0.11515E-04  9152   0.660E-04 0.422E-06
CGA:  31    -0.380461712504E+03   -0.94359E-05   -0.94366E-05  9152   0.323E-04-0.236E-07
  12 F= -.38046171E+03 E0= -.38045598E+03  d E =0.288336E+00  mag=    58.0000
       N       E                     dE             d eps       ncg     rms          ort
SDA:   1    -0.372951750586E+03    0.75100E+01    0.00000E+00  9152   0.250E+02 0.000E+00
CGA:   2    -0.377273453568E+03   -0.43217E+01   -0.43341E+01  9152   0.149E+02-0.125E+00
CGA:   3    -0.379436741249E+03   -0.21633E+01   -0.21523E+01  9152   0.687E+01 0.368E+00
CGA:   4    -0.380103147932E+03   -0.66641E+00   -0.69048E+00  9152   0.506E+01 0.159E+00
CGA:   5    -0.380434781593E+03   -0.33163E+00   -0.31456E+00  9152   0.984E+00 0.140E+00
CGA:   6    -0.380605748071E+03   -0.17097E+00   -0.17097E+00  9152   0.283E+00-0.395E-03
CGA:   7    -0.380637144299E+03   -0.31396E-01   -0.31622E-01  9152   0.300E+00 0.811E-02
CGA:   8    -0.380656203587E+03   -0.19059E-01   -0.19050E-01  9152   0.673E-01-0.194E-03
CGA:   9    -0.380666840684E+03   -0.10637E-01   -0.10631E-01  9152   0.312E-01 0.116E-03
CGA:  10    -0.380671189048E+03   -0.43484E-02   -0.43500E-02  9152   0.220E-01-0.519E-04
CGA:  11    -0.380672556400E+03   -0.13674E-02   -0.13931E-02  9152   0.120E-01-0.175E-03
CGA:  12    -0.380674152553E+03   -0.15962E-02   -0.15960E-02  9152   0.414E-02 0.585E-05
CGA:  13    -0.380674835307E+03   -0.68275E-03   -0.68220E-03  9152   0.436E-02 0.108E-04
CGA:  14    -0.380675106673E+03   -0.27137E-03   -0.26947E-03  9152   0.191E-02 0.174E-04
CGA:  15    -0.380675421474E+03   -0.31480E-03   -0.31429E-03  9152   0.844E-03 0.948E-05
CGA:  16    -0.380675538633E+03   -0.11716E-03   -0.11724E-03  9152   0.984E-03-0.386E-05
CGA:  17    -0.380675606784E+03   -0.68150E-04   -0.68092E-04  9152   0.422E-03-0.163E-05
CGA:  18    -0.380675664181E+03   -0.57398E-04   -0.57439E-04  9152   0.185E-03-0.224E-05
CGA:  19    -0.380675697008E+03   -0.32827E-04   -0.32837E-04  9152   0.266E-03-0.254E-06
CGA:  20    -0.380675713256E+03   -0.16248E-04   -0.16213E-04  9152   0.874E-04-0.387E-06
CGA:  21    -0.380675732628E+03   -0.19372E-04   -0.19377E-04  9152   0.691E-04-0.398E-07
CGA:  22    -0.380675740273E+03   -0.76443E-05   -0.76374E-05  9152   0.770E-04-0.446E-06
  13 F= -.38067574E+03 E0= -.38067015E+03  d E =-.214028E+00  mag=    58.0000
       N       E                     dE             d eps       ncg     rms          ort
SDA:   1    -0.380631197376E+03    0.44535E-01    0.00000E+00  9152   0.161E+00 0.000E+00
CGA:   2    -0.380653086578E+03   -0.21889E-01   -0.21882E-01  9152   0.190E+00 0.348E-03
CGA:   3    -0.380664451976E+03   -0.11365E-01   -0.11169E-01  9152   0.591E-01 0.168E-02
CGA:   4    -0.380674871016E+03   -0.10419E-01   -0.10414E-01  9152   0.182E-01 0.727E-04
CGA:   5    -0.380677430249E+03   -0.25592E-02   -0.25598E-02  9152   0.134E-01-0.194E-04
CGA:   6    -0.380678095524E+03   -0.66528E-03   -0.67019E-03  9152   0.329E-02-0.627E-04
CGA:   7    -0.380678589515E+03   -0.49399E-03   -0.49396E-03  9152   0.102E-02 0.547E-06
CGA:   8    -0.380678691913E+03   -0.10240E-03   -0.10241E-03  9152   0.976E-03 0.242E-07
CGA:   9    -0.380678765690E+03   -0.73777E-04   -0.73693E-04  9152   0.315E-03-0.634E-06
CGA:  10    -0.380678804272E+03   -0.38582E-04   -0.38579E-04  9152   0.149E-03 0.575E-06
CGA:  11    -0.380678821580E+03   -0.17308E-04   -0.17308E-04  9152   0.171E-03-0.364E-07
CGA:  12    -0.380678834181E+03   -0.12601E-04   -0.12615E-04  9152   0.435E-04 0.230E-06
CGA:  13    -0.380678843560E+03   -0.93790E-05   -0.93865E-05  9152   0.496E-04-0.788E-07
  14 F= -.38067884E+03 E0= -.38067326E+03  d E =-.310329E-02  mag=    58.0000
       N       E                     dE             d eps       ncg     rms          ort
SDA:   1    -0.380105845123E+03    0.57299E+00    0.00000E+00  9152   0.201E+01 0.000E+00
CGA:   2    -0.380390170504E+03   -0.28433E+00   -0.28348E+00  9152   0.201E+01 0.249E-01
CGA:   3    -0.380521595322E+03   -0.13142E+00   -0.12552E+00  9152   0.914E+00 0.292E-01
CGA:   4    -0.380625884194E+03   -0.10429E+00   -0.10435E+00  9152   0.334E+00 0.690E-02
CGA:   5    -0.380672971251E+03   -0.47087E-01   -0.47025E-01  9152   0.811E-01 0.178E-02
CGA:   6    -0.380686037106E+03   -0.13066E-01   -0.13081E-01  9152   0.219E-01-0.262E-03
CGA:   7    -0.380689081514E+03   -0.30444E-02   -0.30424E-02  9152   0.149E-01 0.642E-04
CGA:   8    -0.380689995558E+03   -0.91404E-03   -0.91015E-03  9152   0.711E-02 0.260E-04
CGA:   9    -0.380690817499E+03   -0.82194E-03   -0.82192E-03  9152   0.249E-02-0.433E-05
CGA:  10    -0.380691245624E+03   -0.42812E-03   -0.42797E-03  9152   0.124E-02 0.251E-05
CGA:  11    -0.380691413963E+03   -0.16834E-03   -0.16826E-03  9152   0.151E-02 0.355E-05
CGA:  12    -0.380691514661E+03   -0.10070E-03   -0.10067E-03  9152   0.555E-03 0.656E-06
CGA:  13    -0.380691621033E+03   -0.10637E-03   -0.10622E-03  9152   0.313E-03 0.210E-05
CGA:  14    -0.380691673824E+03   -0.52790E-04   -0.52831E-04  9152   0.342E-03-0.808E-06
CGA:  15    -0.380691698160E+03   -0.24336E-04   -0.24355E-04  9152   0.210E-03-0.152E-06
CGA:  16    -0.380691723713E+03   -0.25553E-04   -0.25553E-04  9152   0.780E-04-0.480E-06
CGA:  17    -0.380691739765E+03   -0.16052E-04   -0.16103E-04  9152   0.593E-04-0.597E-06
CGA:  18    -0.380691744306E+03   -0.45409E-05   -0.45300E-05  9152   0.488E-04-0.196E-06
  15 F= -.38069174E+03 E0= -.38068628E+03  d E =-.129007E-01  mag=    58.0000
       N       E                     dE             d eps       ncg     rms          ort
SDA:   1    -0.380584355066E+03    0.10738E+00    0.00000E+00  9152   0.380E+00 0.000E+00
CGA:   2    -0.380631258671E+03   -0.46904E-01   -0.46902E-01  9152   0.426E+00 0.240E-02
CGA:   3    -0.380661901994E+03   -0.30643E-01   -0.30018E-01  9152   0.187E+00 0.250E-02
CGA:   4    -0.380681390367E+03   -0.19488E-01   -0.19504E-01  9152   0.572E-01 0.319E-03
CGA:   5    -0.380690361451E+03   -0.89711E-02   -0.89677E-02  9152   0.146E-01 0.711E-04
CGA:   6    -0.380691885448E+03   -0.15240E-02   -0.15250E-02  9152   0.142E-01 0.190E-04
CGA:   7    -0.380692787265E+03   -0.90182E-03   -0.89948E-03  9152   0.235E-02 0.117E-04
CGA:   8    -0.380693151371E+03   -0.36411E-03   -0.36400E-03  9152   0.115E-02 0.218E-05
CGA:   9    -0.380693282643E+03   -0.13127E-03   -0.13126E-03  9152   0.859E-03-0.184E-05
CGA:  10    -0.380693337021E+03   -0.54377E-04   -0.54414E-04  9152   0.349E-03-0.194E-06
CGA:  11    -0.380693394513E+03   -0.57493E-04   -0.57493E-04  9152   0.146E-03 0.185E-07
CGA:  12    -0.380693416080E+03   -0.21566E-04   -0.21544E-04  9152   0.172E-03 0.710E-06
CGA:  13    -0.380693428106E+03   -0.12026E-04   -0.12033E-04  9152   0.815E-04 0.170E-06
CGA:  14    -0.380693441367E+03   -0.13261E-04   -0.13237E-04  9152   0.412E-04 0.536E-06
CGA:  15    -0.380693447709E+03   -0.63429E-05   -0.63581E-05  9152   0.548E-04-0.452E-06
  16 F= -.38069345E+03 E0= -.38068802E+03  d E =-.170340E-02  mag=    58.0000
       N       E                     dE             d eps       ncg     rms          ort
SDA:   1    -0.379371842988E+03    0.13216E+01    0.00000E+00  9152   0.419E+01 0.000E+00
CGA:   2    -0.379985069894E+03   -0.61323E+00   -0.60851E+00  9152   0.489E+01 0.129E+00
CGA:   3    -0.380334688752E+03   -0.34962E+00   -0.31869E+00  9152   0.185E+01 0.136E+00
CGA:   4    -0.380549192685E+03   -0.21450E+00   -0.21478E+00  9152   0.675E+00 0.258E-01
CGA:   5    -0.380645179310E+03   -0.95987E-01   -0.95861E-01  9152   0.149E+00 0.368E-02
CGA:   6    -0.380668887725E+03   -0.23708E-01   -0.23747E-01  9152   0.421E-01-0.719E-03
CGA:   7    -0.380674869726E+03   -0.59820E-02   -0.59754E-02  9152   0.196E-01 0.193E-03
CGA:   8    -0.380676585083E+03   -0.17154E-02   -0.17117E-02  9152   0.160E-01-0.152E-04
CGA:   9    -0.380677840084E+03   -0.12550E-02   -0.12567E-02  9152   0.445E-02-0.227E-05
CGA:  10    -0.380678611529E+03   -0.77145E-03   -0.77142E-03  9152   0.212E-02 0.469E-06
CGA:  11    -0.380678992258E+03   -0.38073E-03   -0.38048E-03  9152   0.141E-02 0.383E-05
CGA:  12    -0.380679128717E+03   -0.13646E-03   -0.13640E-03  9152   0.160E-02-0.598E-07
CGA:  13    -0.380679294069E+03   -0.16535E-03   -0.16540E-03  9152   0.623E-03 0.219E-05
CGA:  14    -0.380679404913E+03   -0.11084E-03   -0.11092E-03  9152   0.375E-03-0.123E-05
CGA:  15    -0.380679471353E+03   -0.66441E-04   -0.66453E-04  9152   0.311E-03-0.299E-06
CGA:  16    -0.380679491697E+03   -0.20343E-04   -0.20292E-04  9152   0.180E-03-0.505E-06
CGA:  17    -0.380679518607E+03   -0.26910E-04   -0.26922E-04  9152   0.834E-04-0.482E-06
CGA:  18    -0.380679532992E+03   -0.14386E-04   -0.14393E-04  9152   0.515E-04-0.158E-06
CGA:  19    -0.380679539880E+03   -0.68880E-05   -0.68878E-05  9152   0.703E-04 0.535E-08
  17 F= -.38067954E+03 E0= -.38067427E+03  d E =0.139078E-01  mag=    58.0000
       N       E                     dE             d eps       ncg     rms          ort
SDA:   1    -0.377207605605E+03    0.34719E+01    0.00000E+00  9152   0.943E+01 0.000E+00
CGA:   2    -0.379505156605E+03   -0.22976E+01   -0.22869E+01  9152   0.692E+01 0.930E-01
CGA:   3    -0.380005676126E+03   -0.50052E+00   -0.47915E+00  9152   0.541E+01 0.186E-01
CGA:   4    -0.380458565849E+03   -0.45289E+00   -0.47457E+00  9152   0.135E+01 0.468E-01
CGA:   5    -0.380606270623E+03   -0.14770E+00   -0.14795E+00  9152   0.603E+00 0.466E-02
CGA:   6    -0.380643028200E+03   -0.36758E-01   -0.34942E-01  9152   0.268E+00 0.172E-01
CGA:   7    -0.380670356269E+03   -0.27328E-01   -0.27327E-01  9152   0.738E-01-0.401E-04
CGA:   8    -0.380680386587E+03   -0.10030E-01   -0.10018E-01  9152   0.604E-01 0.494E-03
CGA:   9    -0.380683657799E+03   -0.32712E-02   -0.32491E-02  9152   0.183E-01 0.214E-03
CGA:  10    -0.380686434475E+03   -0.27767E-02   -0.27793E-02  9152   0.774E-02-0.571E-04
CGA:  11    -0.380687419660E+03   -0.98518E-03   -0.98507E-03  9152   0.800E-02 0.878E-05
CGA:  12    -0.380687955338E+03   -0.53568E-03   -0.53452E-03  9152   0.376E-02 0.688E-05
CGA:  13    -0.380688581009E+03   -0.62567E-03   -0.62544E-03  9152   0.216E-02 0.492E-05
CGA:  14    -0.380688976850E+03   -0.39584E-03   -0.39546E-03  9152   0.258E-02 0.584E-05
CGA:  15    -0.380689150668E+03   -0.17382E-03   -0.17319E-03  9152   0.155E-02 0.458E-05
CGA:  16    -0.380689389577E+03   -0.23891E-03   -0.23890E-03  9152   0.698E-03 0.233E-06
CGA:  17    -0.380689510860E+03   -0.12128E-03   -0.12127E-03  9152   0.601E-03 0.199E-06
CGA:  18    -0.380689557041E+03   -0.46180E-04   -0.46128E-04  9152   0.465E-03-0.485E-06
CGA:  19    -0.380689605808E+03   -0.48767E-04   -0.48773E-04  9152   0.171E-03 0.222E-06
CGA:  20    -0.380689640831E+03   -0.35022E-04   -0.34939E-04  9152   0.117E-03 0.979E-06
CGA:  21    -0.380689653071E+03   -0.12240E-04   -0.12238E-04  9152   0.143E-03-0.603E-07
CGA:  22    -0.380689665991E+03   -0.12920E-04   -0.12929E-04  9152   0.526E-04 0.154E-06
CGA:  23    -0.380689675700E+03   -0.97097E-05   -0.97301E-05  9152   0.312E-04-0.331E-06
  18 F= -.38068968E+03 E0= -.38068445E+03  d E =-.101358E-01  mag=    58.0000
       N       E                     dE             d eps       ncg     rms          ort
SDA:   1    -0.376905033864E+03    0.37846E+01    0.00000E+00  9152   0.102E+02 0.000E+00
CGA:   2    -0.379260650496E+03   -0.23556E+01   -0.23533E+01  9152   0.105E+02 0.750E-01
CGA:   3    -0.379865543882E+03   -0.60489E+00   -0.75797E+00  9152   0.602E+01-0.125E+01
CGA:   4    -0.380436268374E+03   -0.57072E+00   -0.56016E+00  9152   0.116E+01-0.104E+00
CGA:   5    -0.380577125260E+03   -0.14086E+00   -0.14089E+00  9152   0.675E+00 0.275E-02
CGA:   6    -0.380618489091E+03   -0.41364E-01   -0.39155E-01  9152   0.209E+00 0.216E-01
CGA:   7    -0.380642861384E+03   -0.24372E-01   -0.24448E-01  9152   0.843E-01 0.267E-02
CGA:   8    -0.380653007249E+03   -0.10146E-01   -0.10141E-01  9152   0.482E-01-0.427E-03
CGA:   9    -0.380656013278E+03   -0.30060E-02   -0.30308E-02  9152   0.207E-01-0.180E-03
CGA:  10    -0.380658876251E+03   -0.28630E-02   -0.28657E-02  9152   0.711E-02-0.942E-04
CGA:  11    -0.380659687215E+03   -0.81096E-03   -0.81181E-03  9152   0.774E-02 0.533E-04
CGA:  12    -0.380660337368E+03   -0.65015E-03   -0.64915E-03  9152   0.299E-02-0.578E-06
CGA:  13    -0.380660815181E+03   -0.47781E-03   -0.47715E-03  9152   0.243E-02 0.130E-04
CGA:  14    -0.380661053634E+03   -0.23845E-03   -0.23798E-03  9152   0.231E-02-0.456E-05
CGA:  15    -0.380661309251E+03   -0.25562E-03   -0.25571E-03  9152   0.109E-02 0.576E-05
CGA:  16    -0.380661484471E+03   -0.17522E-03   -0.17523E-03  9152   0.107E-02-0.451E-07
CGA:  17    -0.380661563841E+03   -0.79370E-04   -0.79627E-04  9152   0.604E-03 0.467E-06
CGA:  18    -0.380661655462E+03   -0.91621E-04   -0.91659E-04  9152   0.308E-03-0.789E-06
CGA:  19    -0.380661689606E+03   -0.34144E-04   -0.34147E-04  9152   0.316E-03 0.208E-06
CGA:  20    -0.380661718877E+03   -0.29271E-04   -0.29253E-04  9152   0.153E-03-0.585E-06
CGA:  21    -0.380661741100E+03   -0.22224E-04   -0.22219E-04  9152   0.985E-04 0.121E-06
CGA:  22    -0.380661750553E+03   -0.94528E-05   -0.94416E-05  9152   0.970E-04-0.372E-06
CGA:  23    -0.380661762626E+03   -0.12073E-04   -0.12073E-04  9152   0.363E-04-0.159E-06
CGA:  24    -0.380661767490E+03   -0.48640E-05   -0.48684E-05  9152   0.449E-04-0.302E-06
  19 F= -.38066177E+03 E0= -.38065646E+03  d E =0.279082E-01  mag=    58.0000
       N       E                     dE             d eps       ncg     rms          ort
SDA:   1    -0.309845165143E+03    0.70817E+02    0.00000E+00  9152   0.214E+03 0.000E+00
CGA:   2    -0.340653954294E+03   -0.30809E+02   -0.30734E+02  9152   0.204E+03 0.881E+01
CGA:   3    -0.365324964197E+03   -0.24671E+02   -0.21382E+02  9152   0.111E+03-0.578E+02
CGA:   4    -0.374861073612E+03   -0.95361E+01   -0.74603E+01  9152   0.243E+02 0.958E+00
CGA:   5    -0.376803210844E+03   -0.19421E+01   -0.16104E+01  9152   0.481E+02 0.143E+01
CGA:   6    -0.378445810636E+03   -0.16426E+01   -0.16451E+01  9152   0.285E+02-0.843E+01
CGA:   7    -0.378875200192E+03   -0.42939E+00   -0.88955E+00  9152   0.312E+02-0.874E+01
CGA:   8    -0.379301319737E+03   -0.42612E+00   -0.57664E+00  9152   0.631E+01-0.345E+01
CGA:   9    -0.379507510443E+03   -0.20619E+00   -0.23197E+00  9152   0.804E+01-0.470E+00
CGA:  10    -0.379878282857E+03   -0.37077E+00   -0.38434E+00  9152   0.475E+01-0.852E-01
CGA:  11    -0.380065152129E+03   -0.18687E+00   -0.19541E+00  9152   0.258E+01-0.156E+00
CGA:  12    -0.380231677129E+03   -0.16652E+00   -0.17561E+00  9152   0.154E+01 0.829E-01
CGA:  13    -0.380294527848E+03   -0.62851E-01   -0.58278E-01  9152   0.691E+00 0.895E-01
CGA:  14    -0.380377557961E+03   -0.83030E-01   -0.83211E-01  9152   0.983E+00-0.610E-02
CGA:  15    -0.380412248000E+03   -0.34690E-01   -0.35678E-01  9152   0.327E+00-0.330E-01
CGA:  16    -0.380445338848E+03   -0.33091E-01   -0.32527E-01  9152   0.248E+00 0.256E-01
CGA:  17    -0.380457826971E+03   -0.12488E-01   -0.12750E-01  9152   0.136E+00-0.293E-02
CGA:  18    -0.380476670157E+03   -0.18843E-01   -0.18953E-01  9152   0.907E-01-0.197E-02
CGA:  19    -0.380481307220E+03   -0.46371E-02   -0.46855E-02  9152   0.573E-01-0.323E-03
CGA:  20    -0.380487173040E+03   -0.58658E-02   -0.58584E-02  9152   0.282E-01 0.354E-03
CGA:  21    -0.380490096108E+03   -0.29231E-02   -0.29160E-02  9152   0.367E-01 0.337E-03
CGA:  22    -0.380492543056E+03   -0.24469E-02   -0.24735E-02  9152   0.125E-01 0.195E-03
CGA:  23    -0.380494412198E+03   -0.18691E-02   -0.18589E-02  9152   0.110E-01 0.157E-03
CGA:  24    -0.380495169209E+03   -0.75701E-03   -0.75524E-03  9152   0.925E-02-0.780E-05
CGA:  25    -0.380496356410E+03   -0.11872E-02   -0.11852E-02  9152   0.568E-02 0.444E-04
CGA:  26    -0.380497086657E+03   -0.73025E-03   -0.72589E-03  9152   0.649E-02 0.978E-04
CGA:  27    -0.380497499886E+03   -0.41323E-03   -0.41334E-03  9152   0.341E-02 0.221E-06
CGA:  28    -0.380498230351E+03   -0.73047E-03   -0.73049E-03  9152   0.300E-02-0.169E-06
CGA:  29    -0.380498458017E+03   -0.22767E-03   -0.22746E-03  9152   0.280E-02-0.351E-05
CGA:  30    -0.380498731177E+03   -0.27316E-03   -0.27316E-03  9152   0.119E-02-0.149E-05
CGA:  31    -0.380498961425E+03   -0.23025E-03   -0.23086E-03  9152   0.129E-02-0.632E-05
SDA:  32    -0.380499030100E+03   -0.68675E-04   -0.68577E-04  9152   0.588E-03-0.304E-05
CGA:  33    -0.380499083378E+03   -0.53277E-04   -0.53258E-04  9152   0.710E-03-0.151E-05
CGA:  34    -0.380499151698E+03   -0.68321E-04   -0.68316E-04  9152   0.263E-03-0.115E-05
CGA:  35    -0.380499202966E+03   -0.51268E-04   -0.51246E-04  9152   0.100E-03 0.213E-06
CGA:  36    -0.380499219322E+03   -0.16356E-04   -0.16343E-04  9152   0.803E-04 0.164E-06
CGA:  37    -0.380499226833E+03   -0.75118E-05   -0.75182E-05  9152   0.889E-04 0.456E-06
  20 F= -.38049923E+03 E0= -.38049341E+03  d E =0.162541E+00  mag=    58.0000
       N       E                     dE             d eps       ncg     rms          ort
SDA:   1    -0.375375496584E+03    0.51237E+01    0.00000E+00  9152   0.149E+02 0.000E+00
CGA:   2    -0.378720050068E+03   -0.33446E+01   -0.33392E+01  9152   0.878E+01 0.572E-01
CGA:   3    -0.379900712056E+03   -0.11807E+01   -0.11684E+01  9152   0.542E+01 0.385E+00
CGA:   4    -0.380265513109E+03   -0.36480E+00   -0.36203E+00  9152   0.240E+01-0.277E+00
CGA:   5    -0.380502035332E+03   -0.23652E+00   -0.23642E+00  9152   0.561E+00-0.789E-02
CGA:   6    -0.380580924716E+03   -0.78889E-01   -0.79082E-01  9152   0.231E+00-0.446E-02
CGA:   7    -0.380598073001E+03   -0.17148E-01   -0.17434E-01  9152   0.163E+00 0.497E-04
CGA:   8    -0.380612305924E+03   -0.14233E-01   -0.14212E-01  9152   0.406E-01-0.223E-03
CGA:   9    -0.380618693079E+03   -0.63872E-02   -0.63822E-02  9152   0.272E-01 0.836E-04
CGA:  10    -0.380620517847E+03   -0.18248E-02   -0.18100E-02  9152   0.150E-01 0.572E-04
CGA:  11    -0.380622335821E+03   -0.18180E-02   -0.18174E-02  9152   0.560E-02 0.328E-04
CGA:  12    -0.380623117427E+03   -0.78161E-03   -0.78179E-03  9152   0.531E-02-0.306E-05
CGA:  13    -0.380623470848E+03   -0.35342E-03   -0.35430E-03  9152   0.226E-02 0.164E-05
CGA:  14    -0.380623828041E+03   -0.35719E-03   -0.35735E-03  9152   0.117E-02-0.177E-05
CGA:  15    -0.380623951459E+03   -0.12342E-03   -0.12344E-03  9152   0.124E-02 0.244E-05
CGA:  16    -0.380624057728E+03   -0.10627E-03   -0.10621E-03  9152   0.412E-03-0.115E-05
CGA:  17    -0.380624122310E+03   -0.64581E-04   -0.64694E-04  9152   0.306E-03-0.244E-05
CGA:  18    -0.380624145175E+03   -0.22865E-04   -0.22798E-04  9152   0.206E-03-0.137E-05
CGA:  19    -0.380624170307E+03   -0.25133E-04   -0.25144E-04  9152   0.867E-04-0.872E-06
CGA:  20    -0.380624183507E+03   -0.13200E-04   -0.13218E-04  9152   0.112E-03-0.413E-06
CGA:  21    -0.380624191589E+03   -0.80820E-05   -0.80911E-05  9152   0.461E-04 0.136E-06
  21 F= -.38062419E+03 E0= -.38061852E+03  d E =-.124965E+00  mag=    58.0000
       N       E                     dE             d eps       ncg     rms          ort
SDA:   1    -0.380535501092E+03    0.88682E-01    0.00000E+00  9152   0.286E+00 0.000E+00
CGA:   2    -0.380580564730E+03   -0.45064E-01   -0.45305E-01  9152   0.451E+00-0.401E-02
CGA:   3    -0.380607513763E+03   -0.26949E-01   -0.27473E-01  9152   0.137E+00-0.458E-02
CGA:   4    -0.380623350224E+03   -0.15836E-01   -0.15840E-01  9152   0.469E-01-0.647E-03
CGA:   5    -0.380629666869E+03   -0.63166E-02   -0.63121E-02  9152   0.113E-01 0.143E-03
CGA:   6    -0.380630889832E+03   -0.12230E-02   -0.12227E-02  9152   0.106E-01-0.166E-04
CGA:   7    -0.380631509684E+03   -0.61985E-03   -0.62210E-03  9152   0.180E-02-0.189E-04
CGA:   8    -0.380631826110E+03   -0.31643E-03   -0.31644E-03  9152   0.713E-03-0.752E-06
CGA:   9    -0.380631912306E+03   -0.86196E-04   -0.86202E-04  9152   0.646E-03-0.101E-05
CGA:  10    -0.380631952816E+03   -0.40510E-04   -0.40453E-04  9152   0.225E-03-0.319E-06
CGA:  11    -0.380631985672E+03   -0.32856E-04   -0.32806E-04  9152   0.106E-03 0.147E-05
CGA:  12    -0.380632003078E+03   -0.17406E-04   -0.17357E-04  9152   0.964E-04 0.100E-05
CGA:  13    -0.380632009754E+03   -0.66763E-05   -0.67087E-05  9152   0.628E-04 0.602E-06
CGA:  14    -0.380632020178E+03   -0.10424E-04   -0.10399E-04  9152   0.267E-04 0.490E-06
CGA:  15    -0.380632025292E+03   -0.51147E-05   -0.51484E-05  9152   0.395E-04-0.456E-06
  22 F= -.38063203E+03 E0= -.38062637E+03  d E =-.783370E-02  mag=    58.0000
       N       E                     dE             d eps       ncg     rms          ort
SDA:   1    -0.375182319678E+03    0.54497E+01    0.00000E+00  9152   0.144E+02 0.000E+00
CGA:   2    -0.379068388271E+03   -0.38861E+01   -0.38933E+01  9152   0.719E+01-0.622E-01
CGA:   3    -0.380217474595E+03   -0.11491E+01   -0.11423E+01  9152   0.218E+01 0.133E+00
CGA:   4    -0.380524333369E+03   -0.30686E+00   -0.30655E+00  9152   0.112E+01 0.167E-01
CGA:   5    -0.380587267449E+03   -0.62934E-01   -0.59310E-01  9152   0.391E+00 0.317E-01
CGA:   6    -0.380633640256E+03   -0.46373E-01   -0.46404E-01  9152   0.131E+00 0.157E-02
CGA:   7    -0.380650878101E+03   -0.17238E-01   -0.17228E-01  9152   0.446E-01 0.717E-03
CGA:   8    -0.380656654345E+03   -0.57762E-02   -0.57777E-02  9152   0.490E-01-0.167E-03
CGA:   9    -0.380659328312E+03   -0.26740E-02   -0.27120E-02  9152   0.104E-01-0.424E-03
CGA:  10    -0.380661440067E+03   -0.21118E-02   -0.21079E-02  9152   0.483E-02 0.434E-04
CGA:  11    -0.380662336342E+03   -0.89627E-03   -0.89580E-03  9152   0.319E-02 0.847E-05
CGA:  12    -0.380662880380E+03   -0.54404E-03   -0.54352E-03  9152   0.317E-02 0.108E-04
CGA:  13    -0.380663099362E+03   -0.21898E-03   -0.21835E-03  9152   0.211E-02 0.386E-05
CGA:  14    -0.380663389837E+03   -0.29048E-03   -0.29046E-03  9152   0.863E-03-0.647E-08
CGA:  15    -0.380663570577E+03   -0.18074E-03   -0.18089E-03  9152   0.390E-03-0.191E-05
CGA:  16    -0.380663652103E+03   -0.81527E-04   -0.81628E-04  9152   0.318E-03-0.123E-05
CGA:  17    -0.380663685240E+03   -0.33137E-04   -0.33160E-04  9152   0.306E-03 0.547E-06
CGA:  18    -0.380663708076E+03   -0.22836E-04   -0.22823E-04  9152   0.136E-03 0.244E-06
CGA:  19    -0.380663737766E+03   -0.29691E-04   -0.29674E-04  9152   0.668E-04 0.182E-06
CGA:  20    -0.380663752479E+03   -0.14713E-04   -0.14750E-04  9152   0.724E-04-0.437E-06
CGA:  21    -0.380663757882E+03   -0.54021E-05   -0.53912E-05  9152   0.540E-04-0.247E-06
  23 F= -.38066376E+03 E0= -.38065817E+03  d E =-.317326E-01  mag=    58.0000
       N       E                     dE             d eps       ncg     rms          ort
SDA:   1    -0.380632493369E+03    0.31259E-01    0.00000E+00  9152   0.119E+00 0.000E+00
CGA:   2    -0.380643619627E+03   -0.11126E-01   -0.11029E-01  9152   0.145E+00-0.152E-03
CGA:   3    -0.380656091622E+03   -0.12472E-01   -0.12518E-01  9152   0.341E-01-0.756E-04
CGA:   4    -0.380662312898E+03   -0.62213E-02   -0.62198E-02  9152   0.117E-01 0.207E-04
CGA:   5    -0.380663862902E+03   -0.15500E-02   -0.15500E-02  9152   0.560E-02 0.995E-05
CGA:   6    -0.380664208963E+03   -0.34606E-03   -0.34407E-03  9152   0.254E-02 0.187E-04
CGA:   7    -0.380664436929E+03   -0.22797E-03   -0.22814E-03  9152   0.765E-03 0.221E-05
CGA:   8    -0.380664552265E+03   -0.11534E-03   -0.11533E-03  9152   0.265E-03 0.238E-06
CGA:   9    -0.380664583495E+03   -0.31230E-04   -0.31239E-04  9152   0.324E-03 0.658E-06
CGA:  10    -0.380664606080E+03   -0.22586E-04   -0.22574E-04  9152   0.740E-04 0.788E-08
CGA:  11    -0.380664621689E+03   -0.15609E-04   -0.15647E-04  9152   0.563E-04-0.448E-06
CGA:  12    -0.380664627554E+03   -0.58650E-05   -0.58571E-05  9152   0.594E-04-0.288E-06
  24 F= -.38066463E+03 E0= -.38065904E+03  d E =-.869672E-03  mag=    58.0000
       N       E                     dE             d eps       ncg     rms          ort
SDA:   1    -0.380323040642E+03    0.34158E+00    0.00000E+00  9152   0.924E+00 0.000E+00
CGA:   2    -0.380535547710E+03   -0.21251E+00   -0.21136E+00  9152   0.109E+01 0.108E-01
CGA:   3    -0.380601474483E+03   -0.65927E-01   -0.62153E-01  9152   0.399E+00 0.323E-01
CGA:   4    -0.380642855254E+03   -0.41381E-01   -0.41487E-01  9152   0.147E+00 0.847E-03
CGA:   5    -0.380662159485E+03   -0.19304E-01   -0.19300E-01  9152   0.281E-01 0.522E-03
CGA:   6    -0.380666612301E+03   -0.44528E-02   -0.44554E-02  9152   0.964E-02-0.573E-04
CGA:   7    -0.380667438308E+03   -0.82601E-03   -0.82799E-03  9152   0.882E-02-0.251E-05
CGA:   8    -0.380668130800E+03   -0.69249E-03   -0.69215E-03  9152   0.181E-02-0.715E-05
CGA:   9    -0.380668425097E+03   -0.29430E-03   -0.29451E-03  9152   0.777E-03-0.467E-05
CGA:  10    -0.380668529141E+03   -0.10404E-03   -0.10403E-03  9152   0.544E-03 0.134E-05
CGA:  11    -0.380668569194E+03   -0.40053E-04   -0.40194E-04  9152   0.396E-03 0.160E-05
CGA:  12    -0.380668617422E+03   -0.48229E-04   -0.48232E-04  9152   0.139E-03 0.195E-05
CGA:  13    -0.380668652160E+03   -0.34738E-04   -0.34606E-04  9152   0.128E-03 0.106E-05
CGA:  14    -0.380668662741E+03   -0.10581E-04   -0.10555E-04  9152   0.119E-03-0.444E-06
CGA:  15    -0.380668676253E+03   -0.13512E-04   -0.13502E-04  9152   0.510E-04-0.789E-06
CGA:  16    -0.380668684554E+03   -0.83004E-05   -0.83266E-05  9152   0.287E-04-0.685E-06
  25 F= -.38066868E+03 E0= -.38066311E+03  d E =-.405700E-02  mag=    58.0000
       N       E                     dE             d eps       ncg     rms          ort
SDA:   1    -0.375700656728E+03    0.49680E+01    0.00000E+00  9152   0.134E+02 0.000E+00
CGA:   2    -0.379186479979E+03   -0.34858E+01   -0.34944E+01  9152   0.683E+01-0.718E-01
CGA:   3    -0.380065264869E+03   -0.87878E+00   -0.87919E+00  9152   0.692E+01 0.251E-01
CGA:   4    -0.380413637875E+03   -0.34837E+00   -0.42084E+00  9152   0.200E+01-0.924E+00
CGA:   5    -0.380590985267E+03   -0.17735E+00   -0.17449E+00  9152   0.610E+00-0.233E-01
CGA:   6    -0.380635940051E+03   -0.44955E-01   -0.46208E-01  9152   0.326E+00-0.640E-02
CGA:   7    -0.380664622155E+03   -0.28682E-01   -0.28299E-01  9152   0.115E+00-0.599E-03
CGA:   8    -0.380675972802E+03   -0.11351E-01   -0.11396E-01  9152   0.725E-01 0.392E-03
CGA:   9    -0.380681480797E+03   -0.55080E-02   -0.54539E-02  9152   0.262E-01 0.120E-03
CGA:  10    -0.380684482005E+03   -0.30012E-02   -0.30022E-02  9152   0.175E-01 0.604E-04
CGA:  11    -0.380685792358E+03   -0.13104E-02   -0.13034E-02  9152   0.789E-02 0.207E-04
CGA:  12    -0.380686888462E+03   -0.10961E-02   -0.10952E-02  9152   0.666E-02 0.336E-04
CGA:  13    -0.380687409161E+03   -0.52070E-03   -0.51937E-03  9152   0.357E-02 0.772E-05
CGA:  14    -0.380687977623E+03   -0.56846E-03   -0.56741E-03  9152   0.382E-02 0.216E-04
CGA:  15    -0.380688287434E+03   -0.30981E-03   -0.30922E-03  9152   0.200E-02 0.123E-05
CGA:  16    -0.380688567000E+03   -0.27957E-03   -0.27949E-03  9152   0.189E-02 0.226E-05
CGA:  17    -0.380688729207E+03   -0.16221E-03   -0.16195E-03  9152   0.103E-02-0.287E-05
CGA:  18    -0.380688846674E+03   -0.11747E-03   -0.11747E-03  9152   0.705E-03 0.509E-06
CGA:  19    -0.380688911733E+03   -0.65059E-04   -0.65011E-04  9152   0.455E-03-0.992E-06
CGA:  20    -0.380688960218E+03   -0.48485E-04   -0.48497E-04  9152   0.273E-03 0.109E-05
CGA:  21    -0.380688987810E+03   -0.27592E-04   -0.27593E-04  9152   0.208E-03 0.315E-06
CGA:  22    -0.380689009675E+03   -0.21865E-04   -0.21877E-04  9152   0.126E-03 0.113E-05
CGA:  23    -0.380689023855E+03   -0.14180E-04   -0.14180E-04  9152   0.108E-03 0.175E-07
CGA:  24    -0.380689034224E+03   -0.10369E-04   -0.10370E-04  9152   0.562E-04 0.318E-09
CGA:  25    -0.380689041223E+03   -0.69991E-05   -0.70107E-05  9152   0.604E-04-0.969E-06
  26 F= -.38068904E+03 E0= -.38068339E+03  d E =-.203567E-01  mag=    58.0000
       N       E                     dE             d eps       ncg     rms          ort
SDA:   1    -0.367582707973E+03    0.13106E+02    0.00000E+00  9152   0.364E+02 0.000E+00
CGA:   2    -0.376331726312E+03   -0.87490E+01   -0.85873E+01  9152   0.300E+02 0.996E+00
CGA:   3    -0.378243055361E+03   -0.19113E+01   -0.24453E+01  9152   0.139E+02 0.805E+00
CGA:   4    -0.379902162626E+03   -0.16591E+01   -0.15861E+01  9152   0.109E+02-0.545E+01
CGA:   5    -0.380363023755E+03   -0.46086E+00   -0.46034E+00  9152   0.163E+01-0.682E-01
CGA:   6    -0.380539424912E+03   -0.17640E+00   -0.17686E+00  9152   0.176E+01 0.441E-01
CGA:   7    -0.380623741321E+03   -0.84316E-01   -0.73847E-01  9152   0.323E+00 0.177E+00
CGA:   8    -0.380670223565E+03   -0.46482E-01   -0.46652E-01  9152   0.531E+00-0.537E-02
CGA:   9    -0.380689488525E+03   -0.19265E-01   -0.22862E-01  9152   0.125E+00-0.487E-01
CGA:  10    -0.380702461817E+03   -0.12973E-01   -0.12963E-01  9152   0.772E-01 0.861E-03
CGA:  11    -0.380707377858E+03   -0.49160E-02   -0.48229E-02  9152   0.633E-01 0.493E-03
CGA:  12    -0.380713213823E+03   -0.58360E-02   -0.58748E-02  9152   0.245E-01 0.104E-02
CGA:  13    -0.380715708116E+03   -0.24943E-02   -0.25003E-02  9152   0.312E-01 0.581E-03
CGA:  14    -0.380717758811E+03   -0.20507E-02   -0.20118E-02  9152   0.105E-01 0.179E-03
CGA:  15    -0.380720191783E+03   -0.24330E-02   -0.24349E-02  9152   0.111E-01-0.258E-04
CGA:  16    -0.380720740930E+03   -0.54915E-03   -0.56261E-03  9152   0.542E-02-0.139E-03
CGA:  17    -0.380721904067E+03   -0.11631E-02   -0.11677E-02  9152   0.289E-02-0.409E-04
CGA:  18    -0.380722476870E+03   -0.57280E-03   -0.57185E-03  9152   0.222E-02 0.101E-04
CGA:  19    -0.380722623392E+03   -0.14652E-03   -0.14714E-03  9152   0.185E-02-0.135E-05
CGA:  20    -0.380722931478E+03   -0.30809E-03   -0.30797E-03  9152   0.571E-03 0.236E-05
CGA:  21    -0.380723072086E+03   -0.14061E-03   -0.14029E-03  9152   0.456E-03 0.249E-05
CGA:  22    -0.380723156456E+03   -0.84370E-04   -0.84437E-04  9152   0.342E-03-0.867E-06
CGA:  23    -0.380723181010E+03   -0.24553E-04   -0.24570E-04  9152   0.266E-03-0.215E-06
CGA:  24    -0.380723211263E+03   -0.30253E-04   -0.30225E-04  9152   0.152E-03-0.218E-05
CGA:  25    -0.380723237064E+03   -0.25801E-04   -0.25920E-04  9152   0.485E-04-0.246E-05
CGA:  26    -0.380723246981E+03   -0.99165E-05   -0.10049E-04  9152   0.100E-03-0.154E-05
  27 F= -.38072325E+03 E0= -.38071747E+03  d E =-.342058E-01  mag=    58.0000
       N       E                     dE             d eps       ncg     rms          ort
SDA:   1    -0.379660590178E+03    0.10626E+01    0.00000E+00  9152   0.327E+01 0.000E+00
CGA:   2    -0.380249511155E+03   -0.58892E+00   -0.58636E+00  9152   0.408E+01 0.473E-01
CGA:   3    -0.380463345567E+03   -0.21383E+00   -0.24822E+00  9152   0.169E+01-0.454E+00
CGA:   4    -0.380657032087E+03   -0.19369E+00   -0.19414E+00  9152   0.619E+00-0.541E-01
CGA:   5    -0.380698789455E+03   -0.41757E-01   -0.43520E-01  9152   0.372E+00-0.960E-02
CGA:   6    -0.380730310162E+03   -0.31521E-01   -0.31242E-01  9152   0.824E-01-0.680E-03
CGA:   7    -0.380736940193E+03   -0.66300E-02   -0.66881E-02  9152   0.597E-01 0.345E-05
CGA:   8    -0.380742304709E+03   -0.53645E-02   -0.53373E-02  9152   0.173E-01-0.173E-03
CGA:   9    -0.380743746079E+03   -0.14414E-02   -0.14471E-02  9152   0.132E-01 0.175E-04
CGA:  10    -0.380745027432E+03   -0.12814E-02   -0.12803E-02  9152   0.470E-02-0.188E-04
CGA:  11    -0.380745401123E+03   -0.37369E-03   -0.37477E-03  9152   0.332E-02 0.504E-05
CGA:  12    -0.380745785138E+03   -0.38402E-03   -0.38403E-03  9152   0.188E-02-0.188E-05
CGA:  13    -0.380745937134E+03   -0.15200E-03   -0.15232E-03  9152   0.126E-02 0.315E-05
CGA:  14    -0.380746098101E+03   -0.16097E-03   -0.16099E-03  9152   0.105E-02-0.770E-06
CGA:  15    -0.380746190602E+03   -0.92501E-04   -0.92591E-04  9152   0.675E-03 0.154E-05
CGA:  16    -0.380746267283E+03   -0.76681E-04   -0.76685E-04  9152   0.568E-03-0.120E-05
CGA:  17    -0.380746324404E+03   -0.57121E-04   -0.57136E-04  9152   0.387E-03 0.897E-06
CGA:  18    -0.380746359361E+03   -0.34957E-04   -0.34947E-04  9152   0.230E-03-0.134E-06
CGA:  19    -0.380746385688E+03   -0.26327E-04   -0.26321E-04  9152   0.201E-03 0.123E-05
CGA:  20    -0.380746402477E+03   -0.16789E-04   -0.16798E-04  9152   0.862E-04 0.499E-06
CGA:  21    -0.380746412033E+03   -0.95558E-05   -0.95542E-05  9152   0.861E-04 0.785E-06
  28 F= -.38074641E+03 E0= -.38074056E+03  d E =-.231651E-01  mag=    58.0000
       N       E                     dE             d eps       ncg     rms          ort
SDA:   1    -0.372546380370E+03    0.82000E+01    0.00000E+00  9152   0.221E+02 0.000E+00
CGA:   2    -0.377345489818E+03   -0.47991E+01   -0.44674E+01  9152   0.248E+02 0.257E+01
CGA:   3    -0.379173986067E+03   -0.18285E+01   -0.20232E+01  9152   0.993E+01-0.192E+01
CGA:   4    -0.380207729253E+03   -0.10337E+01   -0.10668E+01  9152   0.802E+01-0.345E+01
CGA:   5    -0.380512820344E+03   -0.30509E+00   -0.31824E+00  9152   0.119E+01-0.214E+00
CGA:   6    -0.380676916495E+03   -0.16410E+00   -0.16425E+00  9152   0.765E+00-0.296E-02
CGA:   7    -0.380706326843E+03   -0.29410E-01   -0.36400E-01  9152   0.389E+00-0.826E-01
CGA:   8    -0.380744647670E+03   -0.38321E-01   -0.38359E-01  9152   0.148E+00-0.572E-02
CGA:   9    -0.380753320269E+03   -0.86726E-02   -0.92788E-02  9152   0.101E+00-0.205E-02
CGA:  10    -0.380762274141E+03   -0.89539E-02   -0.89078E-02  9152   0.409E-01-0.101E-02
CGA:  11    -0.380765359597E+03   -0.30855E-02   -0.31829E-02  9152   0.263E-01 0.755E-03
CGA:  12    -0.380767623927E+03   -0.22643E-02   -0.22499E-02  9152   0.143E-01-0.212E-03
CGA:  13    -0.380768950944E+03   -0.13270E-02   -0.13330E-02  9152   0.854E-02 0.313E-03
CGA:  14    -0.380769659551E+03   -0.70861E-03   -0.70565E-03  9152   0.530E-02-0.359E-04
CGA:  15    -0.380770271168E+03   -0.61162E-03   -0.60826E-03  9152   0.405E-02 0.142E-03
CGA:  16    -0.380770613521E+03   -0.34235E-03   -0.34149E-03  9152   0.246E-02-0.118E-04
CGA:  17    -0.380770887279E+03   -0.27376E-03   -0.27323E-03  9152   0.195E-02 0.301E-04
CGA:  18    -0.380771068480E+03   -0.18120E-03   -0.18110E-03  9152   0.129E-02-0.256E-05
CGA:  19    -0.380771193517E+03   -0.12504E-03   -0.12508E-03  9152   0.866E-03 0.913E-05
CGA:  20    -0.380771281526E+03   -0.88009E-04   -0.88008E-04  9152   0.638E-03 0.205E-05
CGA:  21    -0.380771338139E+03   -0.56613E-04   -0.56663E-04  9152   0.368E-03 0.310E-05
CGA:  22    -0.380771378322E+03   -0.40183E-04   -0.40183E-04  9152   0.301E-03 0.177E-06
CGA:  23    -0.380771403460E+03   -0.25139E-04   -0.25150E-04  9152   0.149E-03 0.539E-06
CGA:  24    -0.380771421167E+03   -0.17707E-04   -0.17723E-04  9152   0.158E-03-0.797E-06
CGA:  25    -0.380771435000E+03   -0.13833E-04   -0.13831E-04  9152   0.684E-04-0.287E-06
CGA:  26    -0.380771442310E+03   -0.73103E-05   -0.73159E-05  9152   0.746E-04-0.702E-06
  29 F= -.38077144E+03 E0= -.38076551E+03  d E =-.250303E-01  mag=    58.0000
       N       E                     dE             d eps       ncg     rms          ort
SDA:   1    -0.343955698040E+03    0.36816E+02    0.00000E+00  9152   0.967E+02 0.000E+00
CGA:   2    -0.367092434638E+03   -0.23137E+02   -0.22720E+02  9152   0.145E+03 0.282E+01
CGA:   3    -0.373619921807E+03   -0.65275E+01   -0.94466E+01  9152   0.392E+02-0.442E+01
CGA:   4    -0.377835597821E+03   -0.42157E+01   -0.36969E+01  9152   0.515E+02-0.250E+02
CGA:   5    -0.378607327261E+03   -0.77173E+00   -0.28222E+01  9152   0.120E+02-0.243E+01
CGA:   6    -0.379201722282E+03   -0.59440E+00   -0.27888E+00  9152   0.101E+02 0.128E+02
CGA:   7    -0.379507709958E+03   -0.30599E+00   -0.15789E+00  9152   0.589E+01 0.881E+01
CGA:   8    -0.379718272104E+03   -0.21056E+00   -0.13544E+00  9152   0.231E+01 0.276E+01
CGA:   9    -0.379894476580E+03   -0.17620E+00   -0.15476E+00  9152   0.690E+01 0.225E+00
CGA:  10    -0.380161037104E+03   -0.26656E+00   -0.26625E+00  9152   0.180E+02-0.242E-01
CGA:  11    -0.380378543989E+03   -0.21751E+00   -0.22712E+00  9152   0.704E+01-0.711E+00
CGA:  12    -0.380399252499E+03   -0.20709E-01   -0.10911E+00  9152   0.145E+01-0.445E+01
CGA:  13    -0.380585318693E+03   -0.18607E+00   -0.18484E+00  9152   0.187E+01 0.296E-01
CGA:  14    -0.380674484298E+03   -0.89166E-01   -0.97706E-01  9152   0.395E+00-0.593E-02
CGA:  15    -0.380715675824E+03   -0.41192E-01   -0.45786E-01  9152   0.232E+00-0.109E+00
CGA:  16    -0.380723034574E+03   -0.73588E-02   -0.74599E-02  9152   0.870E-01-0.108E-02
CGA:  17    -0.380735986759E+03   -0.12952E-01   -0.12592E-01  9152   0.522E-01 0.508E-02
CGA:  18    -0.380740290269E+03   -0.43035E-02   -0.42997E-02  9152   0.688E-01-0.322E-03
CGA:  19    -0.380746028723E+03   -0.57385E-02   -0.57373E-02  9152   0.239E-01 0.531E-03
CGA:  20    -0.380748758140E+03   -0.27294E-02   -0.27094E-02  9152   0.423E-01 0.518E-03
CGA:  21    -0.380751315167E+03   -0.25570E-02   -0.25679E-02  9152   0.109E-01 0.534E-04
CGA:  22    -0.380752770978E+03   -0.14558E-02   -0.14526E-02  9152   0.108E-01 0.573E-04
CGA:  23    -0.380753341319E+03   -0.57034E-03   -0.57397E-03  9152   0.638E-02-0.207E-05
CGA:  24    -0.380754259571E+03   -0.91825E-03   -0.91760E-03  9152   0.376E-02 0.107E-04
CGA:  25    -0.380754578976E+03   -0.31941E-03   -0.31943E-03  9152   0.580E-02 0.827E-05
CGA:  26    -0.380755152280E+03   -0.57330E-03   -0.57254E-03  9152   0.185E-02 0.474E-04
CGA:  27    -0.380755384565E+03   -0.23229E-03   -0.23195E-03  9152   0.382E-02 0.897E-05
CGA:  28    -0.380755642656E+03   -0.25809E-03   -0.25753E-03  9152   0.908E-03 0.103E-06
CGA:  29    -0.380755791561E+03   -0.14891E-03   -0.14914E-03  9152   0.156E-02-0.301E-05
CGA:  30    -0.380755870356E+03   -0.78795E-04   -0.79062E-04  9152   0.555E-03-0.312E-05
CGA:  31    -0.380755956755E+03   -0.86398E-04   -0.86650E-04  9152   0.439E-03-0.380E-05
CGA:  32    -0.380755985851E+03   -0.29096E-04   -0.28987E-04  9152   0.454E-03-0.221E-05
CGA:  33    -0.380756043073E+03   -0.57222E-04   -0.57339E-04  9152   0.231E-03-0.341E-05
CGA:  34    -0.380756069608E+03   -0.26535E-04   -0.26589E-04  9152   0.366E-03-0.260E-05
CGA:  35    -0.380756091777E+03   -0.22169E-04   -0.22038E-04  9152   0.122E-03-0.363E-05
CGA:  36    -0.380756112299E+03   -0.20522E-04   -0.20861E-04  9152   0.138E-03-0.428E-05
CGA:  37    -0.380756119224E+03   -0.69253E-05   -0.68774E-05  9152   0.827E-04-0.105E-05
CGA:  38    -0.380756132862E+03   -0.13637E-04   -0.13823E-04  9152   0.530E-04-0.252E-05
CGA:  39    -0.380756136605E+03   -0.37438E-05   -0.37275E-05  9152   0.674E-04-0.591E-06
  30 F= -.38075614E+03 E0= -.38075016E+03  d E =0.153057E-01  mag=    58.0000
       N       E                     dE             d eps       ncg     rms          ort
SDA:   1    -0.352184949060E+03    0.28571E+02    0.00000E+00  9152   0.836E+02 0.000E+00
CGA:   2    -0.371525432812E+03   -0.19340E+02   -0.19257E+02  9152   0.344E+02 0.643E+00
CGA:   3    -0.377861549903E+03   -0.63361E+01   -0.64092E+01  9152   0.181E+02-0.729E+00
CGA:   4    -0.379205296796E+03   -0.13437E+01   -0.14382E+01  9152   0.103E+02 0.269E+00
CGA:   5    -0.380064655292E+03   -0.85936E+00   -0.72151E+00  9152   0.192E+01 0.449E+00
CGA:   6    -0.380350009710E+03   -0.28535E+00   -0.28179E+00  9152   0.122E+01 0.770E-01
CGA:   7    -0.380427869023E+03   -0.77859E-01   -0.74221E-01  9152   0.547E+00 0.215E-01
CGA:   8    -0.380496122314E+03   -0.68253E-01   -0.68106E-01  9152   0.203E+00 0.551E-02
CGA:   9    -0.380516024717E+03   -0.19902E-01   -0.19829E-01  9152   0.200E+00-0.328E-02
CGA:  10    -0.380531539667E+03   -0.15515E-01   -0.15602E-01  9152   0.749E-01 0.587E-03
CGA:  11    -0.380541969905E+03   -0.10430E-01   -0.10468E-01  9152   0.549E-01-0.790E-03
CGA:  12    -0.380546496380E+03   -0.45265E-02   -0.45603E-02  9152   0.494E-01 0.390E-03
CGA:  13    -0.380551972702E+03   -0.54763E-02   -0.54784E-02  9152   0.215E-01-0.204E-03
CGA:  14    -0.380555102083E+03   -0.31294E-02   -0.31259E-02  9152   0.304E-01 0.678E-04
CGA:  15    -0.380557275125E+03   -0.21730E-02   -0.21538E-02  9152   0.112E-01 0.103E-04
CGA:  16    -0.380559027274E+03   -0.17521E-02   -0.17431E-02  9152   0.922E-02 0.150E-03
CGA:  17    -0.380559723296E+03   -0.69602E-03   -0.69429E-03  9152   0.648E-02 0.222E-05
CGA:  18    -0.380560497041E+03   -0.77375E-03   -0.77376E-03  9152   0.304E-02 0.390E-05
CGA:  19    -0.380560847380E+03   -0.35034E-03   -0.35048E-03  9152   0.348E-02-0.815E-05
CGA:  20    -0.380561135195E+03   -0.28782E-03   -0.28832E-03  9152   0.167E-02 0.613E-05
CGA:  21    -0.380561374324E+03   -0.23913E-03   -0.23936E-03  9152   0.129E-02-0.552E-05
CGA:  22    -0.380561475579E+03   -0.10125E-03   -0.10130E-03  9152   0.102E-02-0.978E-06
CGA:  23    -0.380561614136E+03   -0.13856E-03   -0.13879E-03  9152   0.492E-03-0.698E-05
CGA:  24    -0.380561660868E+03   -0.46732E-04   -0.46724E-04  9152   0.504E-03-0.812E-06
CGA:  25    -0.380561711277E+03   -0.50409E-04   -0.50394E-04  9152   0.238E-03-0.199E-05
CGA:  26    -0.380561739574E+03   -0.28298E-04   -0.28304E-04  9152   0.186E-03-0.677E-06
CGA:  27    -0.380561753157E+03   -0.13583E-04   -0.13537E-04  9152   0.109E-03-0.102E-05
CGA:  28    -0.380561769252E+03   -0.16095E-04   -0.16155E-04  9152   0.690E-04-0.137E-05
CGA:  29    -0.380561774776E+03   -0.55239E-05   -0.54997E-05  9152   0.582E-04-0.839E-06
  31 F= -.38056177E+03 E0= -.38055599E+03  d E =0.194362E+00  mag=    58.0000
       N       E                     dE             d eps       ncg     rms          ort
SDA:   1    -0.379682574383E+03    0.87919E+00    0.00000E+00  9152   0.339E+01 0.000E+00
CGA:   2    -0.380166761401E+03   -0.48419E+00   -0.48286E+00  9152   0.183E+01 0.312E-01
CGA:   3    -0.380445559557E+03   -0.27880E+00   -0.27925E+00  9152   0.825E+00-0.780E-02
CGA:   4    -0.380578442092E+03   -0.13288E+00   -0.13296E+00  9152   0.213E+00-0.117E-02
CGA:   5    -0.380612735025E+03   -0.34293E-01   -0.34297E-01  9152   0.577E-01-0.106E-03
CGA:   6    -0.380621150928E+03   -0.84159E-02   -0.84171E-02  9152   0.245E-01-0.260E-04
CGA:   7    -0.380623823197E+03   -0.26723E-02   -0.26730E-02  9152   0.173E-01 0.403E-04
CGA:   8    -0.380624796745E+03   -0.97355E-03   -0.96268E-03  9152   0.675E-02 0.108E-03
CGA:   9    -0.380625794859E+03   -0.99811E-03   -0.99754E-03  9152   0.203E-02 0.147E-04
CGA:  10    -0.380626173452E+03   -0.37859E-03   -0.37875E-03  9152   0.142E-02-0.211E-05
CGA:  11    -0.380626301909E+03   -0.12846E-03   -0.12861E-03  9152   0.127E-02 0.122E-05
CGA:  12    -0.380626392286E+03   -0.90377E-04   -0.90303E-04  9152   0.466E-03-0.559E-07
CGA:  13    -0.380626484743E+03   -0.92456E-04   -0.92324E-04  9152   0.228E-03 0.160E-05
CGA:  14    -0.380626517056E+03   -0.32313E-04   -0.32316E-04  9152   0.327E-03-0.761E-07
CGA:  15    -0.380626538979E+03   -0.21923E-04   -0.21957E-04  9152   0.136E-03 0.113E-06
CGA:  16    -0.380626557078E+03   -0.18099E-04   -0.18104E-04  9152   0.550E-04-0.375E-06
CGA:  17    -0.380626567665E+03   -0.10587E-04   -0.10604E-04  9152   0.557E-04-0.230E-06
CGA:  18    -0.380626571083E+03   -0.34178E-05   -0.34043E-05  9152   0.319E-04-0.168E-06
  32 F= -.38062657E+03 E0= -.38062084E+03  d E =-.647963E-01  mag=    58.0000
       N       E                     dE             d eps       ncg     rms          ort
SDA:   1    -0.380473246129E+03    0.15332E+00    0.00000E+00  9152   0.582E+00 0.000E+00
CGA:   2    -0.380573372241E+03   -0.10013E+00   -0.10003E+00  9152   0.311E+00 0.151E-02
CGA:   3    -0.380616841453E+03   -0.43469E-01   -0.43530E-01  9152   0.204E+00-0.217E-02
CGA:   4    -0.380632121526E+03   -0.15280E-01   -0.15535E-01  9152   0.150E+00-0.691E-03
CGA:   5    -0.380642990926E+03   -0.10869E-01   -0.10821E-01  9152   0.282E-01 0.182E-03
CGA:   6    -0.380647222352E+03   -0.42314E-02   -0.42305E-02  9152   0.890E-02 0.183E-04
CGA:   7    -0.380647974851E+03   -0.75250E-03   -0.75063E-03  9152   0.851E-02-0.501E-05
CGA:   8    -0.380648631702E+03   -0.65685E-03   -0.65829E-03  9152   0.190E-02 0.174E-05
CGA:   9    -0.380648902149E+03   -0.27045E-03   -0.27046E-03  9152   0.111E-02 0.293E-06
CGA:  10    -0.380649009028E+03   -0.10688E-03   -0.10696E-03  9152   0.103E-02 0.173E-05
CGA:  11    -0.380649080628E+03   -0.71600E-04   -0.71533E-04  9152   0.302E-03-0.288E-06
CGA:  12    -0.380649143852E+03   -0.63224E-04   -0.63259E-04  9152   0.232E-03-0.367E-06
CGA:  13    -0.380649160906E+03   -0.17054E-04   -0.17032E-04  9152   0.194E-03-0.180E-06
CGA:  14    -0.380649184755E+03   -0.23849E-04   -0.23844E-04  9152   0.109E-03 0.644E-06
CGA:  15    -0.380649201185E+03   -0.16430E-04   -0.16423E-04  9152   0.802E-04 0.224E-06
CGA:  16    -0.380649207230E+03   -0.60455E-05   -0.60568E-05  9152   0.693E-04 0.205E-06
  33 F= -.38064921E+03 E0= -.38064348E+03  d E =-.226361E-01  mag=    58.0000
       N       E                     dE             d eps       ncg     rms          ort
SDA:   1    -0.379453037087E+03    0.11962E+01    0.00000E+00  9152   0.449E+01 0.000E+00
CGA:   2    -0.380079852232E+03   -0.62682E+00   -0.62812E+00  9152   0.342E+01-0.337E-01
CGA:   3    -0.380349569147E+03   -0.26972E+00   -0.28165E+00  9152   0.233E+01 0.205E-01
CGA:   4    -0.380533530999E+03   -0.18396E+00   -0.17562E+00  9152   0.775E+00-0.505E-02
CGA:   5    -0.380650494800E+03   -0.11696E+00   -0.11683E+00  9152   0.232E+00 0.281E-02
CGA:   6    -0.380666692731E+03   -0.16198E-01   -0.15872E-01  9152   0.169E+00 0.117E-02
CGA:   7    -0.380682619679E+03   -0.15927E-01   -0.15957E-01  9152   0.286E-01 0.428E-03
CGA:   8    -0.380686824626E+03   -0.42049E-02   -0.42187E-02  9152   0.370E-01-0.293E-03
CGA:   9    -0.380688809134E+03   -0.19845E-02   -0.20008E-02  9152   0.682E-02-0.158E-03
CGA:  10    -0.380690162539E+03   -0.13534E-02   -0.13526E-02  9152   0.560E-02 0.887E-05
CGA:  11    -0.380690506794E+03   -0.34426E-03   -0.34528E-03  9152   0.324E-02-0.465E-05
CGA:  12    -0.380690986073E+03   -0.47928E-03   -0.48062E-03  9152   0.176E-02-0.287E-04
CGA:  13    -0.380691195533E+03   -0.20946E-03   -0.20937E-03  9152   0.222E-02 0.104E-04
CGA:  14    -0.380691371490E+03   -0.17596E-03   -0.17597E-03  9152   0.881E-03 0.505E-09
CGA:  15    -0.380691515007E+03   -0.14352E-03   -0.14337E-03  9152   0.936E-03 0.286E-05
CGA:  16    -0.380691585342E+03   -0.70334E-04   -0.70138E-04  9152   0.563E-03 0.739E-06
CGA:  17    -0.380691647163E+03   -0.61822E-04   -0.61827E-04  9152   0.295E-03 0.105E-05
CGA:  18    -0.380691685700E+03   -0.38537E-04   -0.38538E-04  9152   0.335E-03-0.457E-07
CGA:  19    -0.380691708348E+03   -0.22647E-04   -0.22697E-04  9152   0.108E-03 0.361E-06
CGA:  20    -0.380691727827E+03   -0.19479E-04   -0.19489E-04  9152   0.119E-03-0.106E-06
CGA:  21    -0.380691735538E+03   -0.77118E-05   -0.77309E-05  9152   0.603E-04 0.305E-06
CGA:  22    -0.380691745939E+03   -0.10400E-04   -0.10397E-04  9152   0.396E-04 0.537E-07
CGA:  23    -0.380691748979E+03   -0.30402E-05   -0.30424E-05  9152   0.332E-04 0.244E-07
  34 F= -.38069175E+03 E0= -.38068601E+03  d E =-.425417E-01  mag=    58.0000
       N       E                     dE             d eps       ncg     rms          ort
SDA:   1    -0.380624425064E+03    0.67321E-01    0.00000E+00  9152   0.225E+00 0.000E+00
CGA:   2    -0.380657283239E+03   -0.32858E-01   -0.32920E-01  9152   0.261E+00-0.142E-02
CGA:   3    -0.380674550251E+03   -0.17267E-01   -0.17596E-01  9152   0.139E+00-0.165E-02
CGA:   4    -0.380686579442E+03   -0.12029E-01   -0.11978E-01  9152   0.361E-01-0.352E-03
CGA:   5    -0.380692236594E+03   -0.56572E-02   -0.56612E-02  9152   0.106E-01-0.704E-04
CGA:   6    -0.380693060544E+03   -0.82395E-03   -0.82169E-03  9152   0.909E-02-0.336E-05
CGA:   7    -0.380693752474E+03   -0.69193E-03   -0.69258E-03  9152   0.140E-02 0.876E-06
CGA:   8    -0.380693983233E+03   -0.23076E-03   -0.23069E-03  9152   0.927E-03 0.151E-05
CGA:   9    -0.380694037904E+03   -0.54671E-04   -0.54868E-04  9152   0.483E-03 0.765E-06
CGA:  10    -0.380694093147E+03   -0.55243E-04   -0.55240E-04  9152   0.177E-03 0.123E-05
CGA:  11    -0.380694116401E+03   -0.23254E-04   -0.23257E-04  9152   0.135E-03-0.201E-06
CGA:  12    -0.380694125748E+03   -0.93471E-05   -0.93134E-05  9152   0.873E-04-0.627E-06
CGA:  13    -0.380694136538E+03   -0.10790E-04   -0.10799E-04  9152   0.337E-04-0.612E-06
CGA:  14    -0.380694142203E+03   -0.56646E-05   -0.56816E-05  9152   0.550E-04-0.287E-06
  35 F= -.38069414E+03 E0= -.38068840E+03  d E =-.239322E-02  mag=    58.0000
       N       E                     dE             d eps       ncg     rms          ort
SDA:   1    -0.380110366191E+03    0.58377E+00    0.00000E+00  9152   0.168E+01 0.000E+00
CGA:   2    -0.380437581664E+03   -0.32722E+00   -0.32148E+00  9152   0.165E+01 0.636E-01
CGA:   3    -0.380564340685E+03   -0.12676E+00   -0.12073E+00  9152   0.969E+00 0.470E-02
CGA:   4    -0.380643792217E+03   -0.79452E-01   -0.79588E-01  9152   0.275E+00 0.306E-03
CGA:   5    -0.380681583391E+03   -0.37791E-01   -0.37859E-01  9152   0.645E-01-0.178E-02
CGA:   6    -0.380691203213E+03   -0.96198E-02   -0.96122E-02  9152   0.160E-01 0.154E-03
CGA:   7    -0.380693703334E+03   -0.25001E-02   -0.25004E-02  9152   0.889E-02-0.329E-05
CGA:   8    -0.380694261246E+03   -0.55791E-03   -0.55489E-03  9152   0.582E-02 0.238E-04
CGA:   9    -0.380694818763E+03   -0.55752E-03   -0.55810E-03  9152   0.167E-02 0.138E-04
CGA:  10    -0.380695074105E+03   -0.25534E-03   -0.25546E-03  9152   0.682E-03-0.256E-05
CGA:  11    -0.380695199941E+03   -0.12584E-03   -0.12595E-03  9152   0.512E-03-0.177E-05
CGA:  12    -0.380695235279E+03   -0.35338E-04   -0.35263E-04  9152   0.435E-03-0.112E-05
CGA:  13    -0.380695289460E+03   -0.54180E-04   -0.54173E-04  9152   0.184E-03 0.119E-06
CGA:  14    -0.380695324262E+03   -0.34803E-04   -0.34733E-04  9152   0.111E-03 0.979E-06
CGA:  15    -0.380695340262E+03   -0.15999E-04   -0.15971E-04  9152   0.140E-03 0.120E-05
CGA:  16    -0.380695348706E+03   -0.84443E-05   -0.84768E-05  9152   0.550E-04 0.565E-06
  36 F= -.38069535E+03 E0= -.38068955E+03  d E =-.120650E-02  mag=    58.0000
       N       E                     dE             d eps       ncg     rms          ort
SDA:   1    -0.380627697335E+03    0.67643E-01    0.00000E+00  9152   0.196E+00 0.000E+00
CGA:   2    -0.380661301630E+03   -0.33604E-01   -0.33483E-01  9152   0.256E+00 0.190E-02
CGA:   3    -0.380676033654E+03   -0.14732E-01   -0.14342E-01  9152   0.899E-01 0.373E-02
CGA:   4    -0.380685853145E+03   -0.98195E-02   -0.98156E-02  9152   0.347E-01-0.136E-03
CGA:   5    -0.380690665579E+03   -0.48124E-02   -0.48128E-02  9152   0.629E-02-0.138E-04
CGA:   6    -0.380691389909E+03   -0.72433E-03   -0.72456E-03  9152   0.646E-02 0.253E-04
CGA:   7    -0.380691740756E+03   -0.35085E-03   -0.35006E-03  9152   0.131E-02 0.763E-05
CGA:   8    -0.380691948726E+03   -0.20797E-03   -0.20791E-03  9152   0.487E-03 0.135E-05
CGA:   9    -0.380692009116E+03   -0.60389E-04   -0.60392E-04  9152   0.481E-03-0.449E-06
CGA:  10    -0.380692037398E+03   -0.28282E-04   -0.28378E-04  9152   0.182E-03-0.439E-06
CGA:  11    -0.380692064627E+03   -0.27230E-04   -0.27231E-04  9152   0.104E-03-0.313E-07
CGA:  12    -0.380692082929E+03   -0.18302E-04   -0.18312E-04  9152   0.120E-03-0.173E-06
CGA:  13    -0.380692090523E+03   -0.75934E-05   -0.75718E-05  9152   0.739E-04-0.295E-06
[...]
CGA:   8    -0.380704222102E+03   -0.30053E-02   -0.30017E-02  9152   0.306E-01-0.236E-03
CGA:   9    -0.380706250192E+03   -0.20281E-02   -0.20301E-02  9152   0.582E-02-0.496E-05
CGA:  10    -0.380707268275E+03   -0.10181E-02   -0.10176E-02  9152   0.496E-02 0.628E-05
CGA:  11    -0.380707547783E+03   -0.27951E-03   -0.28110E-03  9152   0.203E-02-0.955E-05
CGA:  12    -0.380707815993E+03   -0.26821E-03   -0.26837E-03  9152   0.112E-02-0.445E-05
CGA:  13    -0.380707945349E+03   -0.12936E-03   -0.12933E-03  9152   0.103E-02 0.258E-05
CGA:  14    -0.380708014839E+03   -0.69490E-04   -0.69472E-04  9152   0.421E-03 0.194E-06
CGA:  15    -0.380708090590E+03   -0.75751E-04   -0.75584E-04  9152   0.320E-03 0.216E-05
CGA:  16    -0.380708114644E+03   -0.24053E-04   -0.24025E-04  9152   0.248E-03-0.785E-07
CGA:  17    -0.380708144031E+03   -0.29388E-04   -0.29383E-04  9152   0.110E-03 0.482E-06
CGA:  18    -0.380708159195E+03   -0.15163E-04   -0.15171E-04  9152   0.125E-03-0.278E-06
CGA:  19    -0.380708167198E+03   -0.80036E-05   -0.80180E-05  9152   0.442E-04 0.370E-07
 166 F= -.38070817E+03 E0= -.38070243E+03  d E =0.317828E-02  mag=    58.0000
       N       E                     dE             d eps       ncg     rms          ort
SDA:   1    -0.380486704129E+03    0.22146E+00    0.00000E+00  9152   0.773E+00 0.000E+00
CGA:   2    -0.380586147245E+03   -0.99443E-01   -0.10002E+00  9152   0.973E+00-0.201E-01
CGA:   3    -0.380638281055E+03   -0.52134E-01   -0.53794E-01  9152   0.325E+00-0.164E-01
CGA:   4    -0.380688235095E+03   -0.49954E-01   -0.50022E-01  9152   0.126E+00-0.115E-02
CGA:   5    -0.380703171513E+03   -0.14936E-01   -0.14931E-01  9152   0.537E-01 0.406E-03
CGA:   6    -0.380706963857E+03   -0.37923E-02   -0.37687E-02  9152   0.359E-01 0.503E-04
CGA:   7    -0.380709758316E+03   -0.27945E-02   -0.28018E-02  9152   0.654E-02 0.213E-04
CGA:   8    -0.380710861280E+03   -0.11030E-02   -0.11027E-02  9152   0.318E-02 0.354E-05
CGA:   9    -0.380711073464E+03   -0.21218E-03   -0.21263E-03  9152   0.221E-02-0.549E-06
CGA:  10    -0.380711301694E+03   -0.22823E-03   -0.22821E-03  9152   0.725E-03-0.137E-05
CGA:  11    -0.380711399895E+03   -0.98201E-04   -0.98154E-04  9152   0.418E-03 0.156E-05
CGA:  12    -0.380711432531E+03   -0.32636E-04   -0.32609E-04  9152   0.354E-03-0.393E-06
CGA:  13    -0.380711469248E+03   -0.36717E-04   -0.36717E-04  9152   0.101E-03-0.919E-07
CGA:  14    -0.380711486249E+03   -0.17001E-04   -0.17024E-04  9152   0.120E-03-0.374E-06
CGA:  15    -0.380711493715E+03   -0.74667E-05   -0.74752E-05  9152   0.548E-04 0.126E-06
 167 F= -.38071149E+03 E0= -.38070578E+03  d E =-.332652E-02  mag=    58.0000
       N       E                     dE             d eps       ncg     rms          ort
SDA:   1    -0.380659470833E+03    0.52015E-01    0.00000E+00  9152   0.154E+00 0.000E+00
CGA:   2    -0.380688193432E+03   -0.28723E-01   -0.28778E-01  9152   0.169E+00-0.655E-03
CGA:   3    -0.380697625889E+03   -0.94325E-02   -0.96593E-02  9152   0.858E-01-0.201E-02
CGA:   4    -0.380708197992E+03   -0.10572E-01   -0.10573E-01  9152   0.213E-01-0.546E-04
CGA:   5    -0.380710626660E+03   -0.24287E-02   -0.24285E-02  9152   0.128E-01 0.340E-04
CGA:   6    -0.380711386801E+03   -0.76014E-03   -0.75648E-03  9152   0.512E-02 0.260E-04
CGA:   7    -0.380711874604E+03   -0.48780E-03   -0.48795E-03  9152   0.138E-02 0.479E-05
CGA:   8    -0.380712071918E+03   -0.19731E-03   -0.19736E-03  9152   0.114E-02-0.113E-05
CGA:   9    -0.380712131628E+03   -0.59710E-04   -0.59872E-04  9152   0.340E-03-0.857E-06
CGA:  10    -0.380712187115E+03   -0.55487E-04   -0.55497E-04  9152   0.157E-03-0.146E-06
CGA:  11    -0.380712200703E+03   -0.13589E-04   -0.13594E-04  9152   0.137E-03 0.122E-06
CGA:  12    -0.380712212605E+03   -0.11902E-04   -0.11894E-04  9152   0.621E-04-0.352E-06
CGA:  13    -0.380712221742E+03   -0.91367E-05   -0.91366E-05  9152   0.376E-04 0.393E-08
 168 F= -.38071222E+03 E0= -.38070650E+03  d E =-.728026E-03  mag=    58.0000
       N       E                     dE             d eps       ncg     rms          ort
SDA:   1    -0.380368917561E+03    0.34330E+00    0.00000E+00  9152   0.959E+00 0.000E+00
CGA:   2    -0.380583280601E+03   -0.21436E+00   -0.21414E+00  9152   0.814E+00 0.198E-02
CGA:   3    -0.380641475920E+03   -0.58195E-01   -0.57252E-01  9152   0.627E+00 0.177E-02
CGA:   4    -0.380691047392E+03   -0.49571E-01   -0.50290E-01  9152   0.156E+00 0.213E-02
CGA:   5    -0.380709521238E+03   -0.18474E-01   -0.18472E-01  9152   0.380E-01 0.106E-03
CGA:   6    -0.380715328239E+03   -0.58070E-02   -0.58091E-02  9152   0.100E-01-0.383E-04
CGA:   7    -0.380716603796E+03   -0.12756E-02   -0.12755E-02  9152   0.109E-01 0.159E-05
CGA:   8    -0.380717202451E+03   -0.59865E-03   -0.60331E-03  9152   0.266E-02-0.408E-04
CGA:   9    -0.380717563981E+03   -0.36153E-03   -0.36171E-03  9152   0.105E-02-0.503E-05
CGA:  10    -0.380717725371E+03   -0.16139E-03   -0.16136E-03  9152   0.617E-03 0.561E-06
CGA:  11    -0.380717770225E+03   -0.44854E-04   -0.44813E-04  9152   0.525E-03-0.615E-06
CGA:  12    -0.380717831719E+03   -0.61494E-04   -0.61490E-04  9152   0.208E-03 0.330E-06
CGA:  13    -0.380717871532E+03   -0.39812E-04   -0.39811E-04  9152   0.162E-03 0.522E-07
CGA:  14    -0.380717887167E+03   -0.15635E-04   -0.15646E-04  9152   0.197E-03 0.456E-06
CGA:  15    -0.380717905676E+03   -0.18509E-04   -0.18511E-04  9152   0.658E-04 0.110E-06
CGA:  16    -0.380717916752E+03   -0.11077E-04   -0.11052E-04  9152   0.439E-04 0.459E-06
CGA:  17    -0.380717921652E+03   -0.48995E-05   -0.48997E-05  9152   0.525E-04 0.492E-07
 169 F= -.38071792E+03 E0= -.38071222E+03  d E =-.569991E-02  mag=    58.0000
       N       E                     dE             d eps       ncg     rms          ort
SDA:   1    -0.378873732139E+03    0.18442E+01    0.00000E+00  9152   0.565E+01 0.000E+00
CGA:   2    -0.379801112910E+03   -0.92738E+00   -0.90399E+00  9152   0.717E+01 0.412E+00
CGA:   3    -0.380306798833E+03   -0.50569E+00   -0.42712E+00  9152   0.156E+01 0.741E+00
CGA:   4    -0.380657820613E+03   -0.35102E+00   -0.35143E+00  9152   0.436E+00-0.425E-02
CGA:   5    -0.380725337608E+03   -0.67517E-01   -0.67487E-01  9152   0.985E-01 0.587E-03
CGA:   6    -0.380740070953E+03   -0.14733E-01   -0.14754E-01  9152   0.635E-01-0.486E-03
CGA:   7    -0.380744163692E+03   -0.40927E-02   -0.41373E-02  9152   0.371E-01-0.276E-03
CGA:   8    -0.380747154521E+03   -0.29908E-02   -0.29889E-02  9152   0.112E-01-0.308E-05
CGA:   9    -0.380748991949E+03   -0.18374E-02   -0.18367E-02  9152   0.399E-02 0.122E-04
CGA:  10    -0.380749615084E+03   -0.62313E-03   -0.62437E-03  9152   0.663E-02-0.241E-04
CGA:  11    -0.380750019982E+03   -0.40490E-03   -0.40558E-03  9152   0.196E-02-0.630E-06
CGA:  12    -0.380750424538E+03   -0.40456E-03   -0.40418E-03  9152   0.148E-02 0.420E-05
CGA:  13    -0.380750668492E+03   -0.24395E-03   -0.24383E-03  9152   0.143E-02 0.261E-05
CGA:  14    -0.380750764426E+03   -0.95935E-04   -0.95443E-04  9152   0.940E-03 0.236E-05
CGA:  15    -0.380750887948E+03   -0.12352E-03   -0.12353E-03  9152   0.397E-03-0.532E-06
CGA:  16    -0.380750954176E+03   -0.66228E-04   -0.66208E-04  9152   0.227E-03 0.434E-06
CGA:  17    -0.380750972802E+03   -0.18626E-04   -0.18655E-04  9152   0.236E-03 0.614E-06
CGA:  18    -0.380750998700E+03   -0.25898E-04   -0.25899E-04  9152   0.701E-04 0.345E-06
CGA:  19    -0.380751012025E+03   -0.13324E-04   -0.13299E-04  9152   0.632E-04 0.370E-06
CGA:  20    -0.380751017477E+03   -0.54522E-05   -0.54432E-05  9152   0.603E-04-0.219E-06
 170 F= -.38075102E+03 E0= -.38074532E+03  d E =-.330958E-01  mag=    58.0000
       N       E                     dE             d eps       ncg     rms          ort
SDA:   1    -0.373485257462E+03    0.72658E+01    0.00000E+00  9152   0.211E+02 0.000E+00
CGA:   2    -0.377827784657E+03   -0.43425E+01   -0.43005E+01  9152   0.210E+02 0.345E+00
CGA:   3    -0.378993209800E+03   -0.11654E+01   -0.15248E+01  9152   0.127E+02-0.200E+01
CGA:   4    -0.380247128584E+03   -0.12539E+01   -0.11973E+01  9152   0.333E+01-0.635E+00
CGA:   5    -0.380523039369E+03   -0.27591E+00   -0.27984E+00  9152   0.229E+01-0.153E-02
CGA:   6    -0.380673274577E+03   -0.15024E+00   -0.13199E+00  9152   0.489E+00 0.183E+00
CGA:   7    -0.380734569724E+03   -0.61295E-01   -0.61363E-01  9152   0.352E+00 0.300E-01
CGA:   8    -0.380756112870E+03   -0.21543E-01   -0.20918E-01  9152   0.127E+00 0.529E-02
CGA:   9    -0.380771754390E+03   -0.15642E-01   -0.15623E-01  9152   0.643E-01 0.149E-02
CGA:  10    -0.380776380531E+03   -0.46261E-02   -0.46019E-02  9152   0.451E-01 0.527E-04
CGA:  11    -0.380780630888E+03   -0.42504E-02   -0.42994E-02  9152   0.145E-01 0.965E-03
CGA:  12    -0.380782454807E+03   -0.18239E-02   -0.18264E-02  9152   0.186E-01-0.122E-03
CGA:  13    -0.380783754828E+03   -0.13000E-02   -0.13081E-02  9152   0.649E-02 0.455E-05
CGA:  14    -0.380784734747E+03   -0.97992E-03   -0.98153E-03  9152   0.577E-02-0.286E-04
CGA:  15    -0.380785233208E+03   -0.49846E-03   -0.50091E-03  9152   0.539E-02 0.257E-04
CGA:  16    -0.380785779530E+03   -0.54632E-03   -0.54612E-03  9152   0.220E-02-0.646E-05
CGA:  17    -0.380786100622E+03   -0.32109E-03   -0.32082E-03  9152   0.305E-02 0.589E-05
CGA:  18    -0.380786302295E+03   -0.20167E-03   -0.20114E-03  9152   0.101E-02 0.141E-05
CGA:  19    -0.380786468906E+03   -0.16661E-03   -0.16622E-03  9152   0.910E-03 0.617E-05
CGA:  20    -0.380786531168E+03   -0.62262E-04   -0.62210E-04  9152   0.571E-03 0.174E-06
CGA:  21    -0.380786608137E+03   -0.76969E-04   -0.76945E-04  9152   0.298E-03 0.100E-05
CGA:  22    -0.380786639128E+03   -0.30992E-04   -0.30990E-04  9152   0.350E-03-0.360E-07
CGA:  23    -0.380786671414E+03   -0.32286E-04   -0.32304E-04  9152   0.153E-03 0.595E-06
CGA:  24    -0.380786693034E+03   -0.21620E-04   -0.21650E-04  9152   0.158E-03-0.940E-06
CGA:  25    -0.380786704205E+03   -0.11171E-04   -0.11156E-04  9152   0.870E-04-0.403E-06
CGA:  26    -0.380786716963E+03   -0.12758E-04   -0.12811E-04  9152   0.575E-04-0.134E-05
CGA:  27    -0.380786721682E+03   -0.47193E-05   -0.47099E-05  9152   0.506E-04-0.369E-06
 171 F= -.38078672E+03 E0= -.38078080E+03  d E =-.357042E-01  mag=    58.0000
       N       E                     dE             d eps       ncg     rms          ort
SDA:   1    -0.378321936252E+03    0.24648E+01    0.00000E+00  9152   0.954E+01 0.000E+00
CGA:   2    -0.379139739412E+03   -0.81780E+00   -0.80430E+00  9152   0.120E+02-0.778E-01
CGA:   3    -0.380039618798E+03   -0.89988E+00   -0.92330E+00  9152   0.281E+01 0.864E-01
CGA:   4    -0.380554247439E+03   -0.51463E+00   -0.51609E+00  9152   0.162E+01-0.179E-01
CGA:   5    -0.380638257761E+03   -0.84010E-01   -0.80846E-01  9152   0.865E+00 0.221E-01
CGA:   6    -0.380731187376E+03   -0.92930E-01   -0.92970E-01  9152   0.158E+00 0.975E-02
CGA:   7    -0.380754833724E+03   -0.23646E-01   -0.23641E-01  9152   0.102E+00 0.115E-03
CGA:   8    -0.380760174936E+03   -0.53412E-02   -0.52260E-02  9152   0.500E-01 0.118E-02
CGA:   9    -0.380765575792E+03   -0.54009E-02   -0.54010E-02  9152   0.171E-01 0.331E-03
CGA:  10    -0.380768026320E+03   -0.24505E-02   -0.24507E-02  9152   0.102E-01-0.767E-06
CGA:  11    -0.380768680823E+03   -0.65450E-03   -0.64759E-03  9152   0.777E-02 0.347E-04
CGA:  12    -0.380769530332E+03   -0.84951E-03   -0.84950E-03  9152   0.266E-02 0.438E-05
CGA:  13    -0.380770020367E+03   -0.49004E-03   -0.48801E-03  9152   0.171E-02 0.242E-04
CGA:  14    -0.380770168718E+03   -0.14835E-03   -0.14819E-03  9152   0.225E-02-0.141E-05
CGA:  15    -0.380770401962E+03   -0.23324E-03   -0.23324E-03  9152   0.633E-03 0.110E-05
CGA:  16    -0.380770535369E+03   -0.13341E-03   -0.13322E-03  9152   0.588E-03 0.178E-05
CGA:  17    -0.380770583422E+03   -0.48053E-04   -0.48031E-04  9152   0.577E-03-0.179E-06
CGA:  18    -0.380770628780E+03   -0.45358E-04   -0.45361E-04  9152   0.199E-03 0.181E-06
CGA:  19    -0.380770665820E+03   -0.37040E-04   -0.37100E-04  9152   0.116E-03-0.779E-06
CGA:  20    -0.380770680677E+03   -0.14856E-04   -0.14858E-04  9152   0.173E-03-0.154E-06
CGA:  21    -0.380770691182E+03   -0.10505E-04   -0.10528E-04  9152   0.502E-04 0.455E-07
CGA:  22    -0.380770702667E+03   -0.11485E-04   -0.11511E-04  9152   0.280E-04-0.223E-06
CGA:  23    -0.380770707000E+03   -0.43332E-05   -0.43387E-05  9152   0.388E-04-0.156E-06
 172 F= -.38077071E+03 E0= -.38076480E+03  d E =0.160147E-01  mag=    58.0000
       N       E                     dE             d eps       ncg     rms          ort
SDA:   1    -0.379338845305E+03    0.14319E+01    0.00000E+00  9152   0.403E+01 0.000E+00
CGA:   2    -0.380061584341E+03   -0.72274E+00   -0.73146E+00  9152   0.799E+01-0.113E+00
CGA:   3    -0.380405962374E+03   -0.34438E+00   -0.41258E+00  9152   0.184E+01-0.825E+00
CGA:   4    -0.380642685291E+03   -0.23672E+00   -0.23706E+00  9152   0.779E+00-0.802E-02
CGA:   5    -0.380692117322E+03   -0.49432E-01   -0.51408E-01  9152   0.424E+00-0.134E-01
CGA:   6    -0.380724734543E+03   -0.32617E-01   -0.32399E-01  9152   0.105E+00-0.800E-04
CGA:   7    -0.380736122368E+03   -0.11388E-01   -0.11393E-01  9152   0.601E-01 0.432E-03
CGA:   8    -0.380739939734E+03   -0.38174E-02   -0.37705E-02  9152   0.280E-01 0.282E-03
CGA:   9    -0.380743232259E+03   -0.32925E-02   -0.32919E-02  9152   0.893E-02 0.598E-04
CGA:  10    -0.380743985926E+03   -0.75367E-03   -0.75200E-03  9152   0.831E-02-0.106E-04
CGA:  11    -0.380744750543E+03   -0.76462E-03   -0.76494E-03  9152   0.237E-02 0.772E-05
CGA:  12    -0.380745054171E+03   -0.30363E-03   -0.30377E-03  9152   0.287E-02-0.527E-05
CGA:  13    -0.380745268720E+03   -0.21455E-03   -0.21479E-03  9152   0.135E-02 0.391E-06
CGA:  14    -0.380745458500E+03   -0.18978E-03   -0.18987E-03  9152   0.104E-02-0.232E-05
CGA:  15    -0.380745557153E+03   -0.98653E-04   -0.98689E-04  9152   0.115E-02 0.122E-05
CGA:  16    -0.380745683639E+03   -0.12649E-03   -0.12649E-03  9152   0.447E-03-0.294E-06
CGA:  17    -0.380745740718E+03   -0.57079E-04   -0.57033E-04  9152   0.630E-03 0.233E-05
CGA:  18    -0.380745790257E+03   -0.49539E-04   -0.49560E-04  9152   0.210E-03 0.142E-05
CGA:  19    -0.380745818760E+03   -0.28504E-04   -0.28469E-04  9152   0.196E-03 0.127E-05
CGA:  20    -0.380745832898E+03   -0.14138E-04   -0.14138E-04  9152   0.110E-03 0.137E-06
CGA:  21    -0.380745846696E+03   -0.13798E-04   -0.13793E-04  9152   0.580E-04 0.294E-06
CGA:  22    -0.380745852215E+03   -0.55192E-05   -0.55141E-05  9152   0.622E-04-0.354E-06
 173 F= -.38074585E+03 E0= -.38074001E+03  d E =0.248548E-01  mag=    58.0000
       N       E                     dE             d eps       ncg     rms          ort
SDA:   1    -0.375511131044E+03    0.52347E+01    0.00000E+00  9152   0.174E+02 0.000E+00
CGA:   2    -0.377508396507E+03   -0.19973E+01   -0.20154E+01  9152   0.299E+02-0.133E+01
CGA:   3    -0.379161062038E+03   -0.16527E+01   -0.17796E+01  9152   0.847E+01-0.736E+00
CGA:   4    -0.380060412292E+03   -0.89935E+00   -0.89857E+00  9152   0.444E+01 0.148E+00
CGA:   5    -0.380352597724E+03   -0.29219E+00   -0.27686E+00  9152   0.263E+01 0.392E-01
CGA:   6    -0.380578261847E+03   -0.22566E+00   -0.22504E+00  9152   0.499E+00-0.118E-01
CGA:   7    -0.380641844666E+03   -0.63583E-01   -0.63362E-01  9152   0.446E+00 0.623E-02
CGA:   8    -0.380664110579E+03   -0.22266E-01   -0.21461E-01  9152   0.946E-01 0.892E-02
CGA:   9    -0.380679361777E+03   -0.15251E-01   -0.15261E-01  9152   0.465E-01-0.144E-03
CGA:  10    -0.380683195709E+03   -0.38339E-02   -0.38443E-02  9152   0.415E-01 0.131E-03
CGA:  11    -0.380686107674E+03   -0.29120E-02   -0.29071E-02  9152   0.126E-01 0.448E-05
CGA:  12    -0.380688198771E+03   -0.20911E-02   -0.20896E-02  9152   0.632E-02 0.209E-04
CGA:  13    -0.380688861100E+03   -0.66233E-03   -0.66233E-03  9152   0.821E-02 0.821E-06
CGA:  14    -0.380689472972E+03   -0.61187E-03   -0.61153E-03  9152   0.271E-02-0.482E-05
CGA:  15    -0.380690027057E+03   -0.55409E-03   -0.55483E-03  9152   0.164E-02-0.724E-05
CGA:  16    -0.380690263150E+03   -0.23609E-03   -0.23584E-03  9152   0.237E-02 0.642E-05
CGA:  17    -0.380690411747E+03   -0.14860E-03   -0.14845E-03  9152   0.939E-03 0.474E-05
CGA:  18    -0.380690557176E+03   -0.14543E-03   -0.14515E-03  9152   0.441E-03 0.587E-05
CGA:  19    -0.380690644183E+03   -0.87007E-04   -0.86713E-04  9152   0.354E-03 0.341E-05
CGA:  20    -0.380690669990E+03   -0.25807E-04   -0.25778E-04  9152   0.321E-03-0.192E-06
CGA:  21    -0.380690708070E+03   -0.38080E-04   -0.38085E-04  9152   0.122E-03-0.685E-06
CGA:  22    -0.380690735269E+03   -0.27199E-04   -0.27288E-04  9152   0.864E-04-0.797E-06
CGA:  23    -0.380690748958E+03   -0.13689E-04   -0.13722E-04  9152   0.815E-04-0.781E-06
CGA:  24    -0.380690754318E+03   -0.53595E-05   -0.53594E-05  9152   0.585E-04-0.856E-07
 174 F= -.38069075E+03 E0= -.38068502E+03  d E =0.550979E-01  mag=    58.0000
       N       E                     dE             d eps       ncg     rms          ort
SDA:   1    -0.379471301504E+03    0.12194E+01    0.00000E+00  9152   0.380E+01 0.000E+00
CGA:   2    -0.380205560789E+03   -0.73426E+00   -0.73370E+00  9152   0.201E+01 0.697E-02
CGA:   3    -0.380548100730E+03   -0.34254E+00   -0.34383E+00  9152   0.931E+00-0.205E-01
CGA:   4    -0.380657002026E+03   -0.10890E+00   -0.10899E+00  9152   0.417E+00 0.570E-02
CGA:   5    -0.380682732198E+03   -0.25730E-01   -0.25092E-01  9152   0.231E+00 0.505E-02
CGA:   6    -0.380704668897E+03   -0.21937E-01   -0.21989E-01  9152   0.453E-01 0.365E-03
CGA:   7    -0.380712092633E+03   -0.74237E-02   -0.74233E-02  9152   0.186E-01 0.500E-05
CGA:   8    -0.380713681517E+03   -0.15889E-02   -0.15949E-02  9152   0.171E-01 0.109E-04
CGA:   9    -0.380714973358E+03   -0.12918E-02   -0.12911E-02  9152   0.498E-02 0.658E-06
CGA:  10    -0.380715681412E+03   -0.70805E-03   -0.70768E-03  9152   0.207E-02 0.120E-04
CGA:  11    -0.380715939312E+03   -0.25790E-03   -0.25792E-03  9152   0.260E-02-0.821E-06
CGA:  12    -0.380716102728E+03   -0.16342E-03   -0.16380E-03  9152   0.646E-03 0.464E-06
CGA:  13    -0.380716224106E+03   -0.12138E-03   -0.12126E-03  9152   0.453E-03 0.168E-05
CGA:  14    -0.380716272095E+03   -0.47990E-04   -0.48003E-04  9152   0.481E-03 0.694E-06
CGA:  15    -0.380716306559E+03   -0.34463E-04   -0.34430E-04  9152   0.172E-03-0.218E-06
CGA:  16    -0.380716338374E+03   -0.31815E-04   -0.31826E-04  9152   0.944E-04-0.168E-06
CGA:  17    -0.380716347460E+03   -0.90858E-05   -0.90772E-05  9152   0.104E-03-0.345E-06
 175 F= -.38071635E+03 E0= -.38071059E+03  d E =-.255931E-01  mag=    58.0000
       N       E                     dE             d eps       ncg     rms          ort
SDA:   1    -0.380680257121E+03    0.36081E-01    0.00000E+00  9152   0.103E+00 0.000E+00
CGA:   2    -0.380697227924E+03   -0.16971E-01   -0.16923E-01  9152   0.119E+00 0.819E-03
CGA:   3    -0.380703580828E+03   -0.63529E-02   -0.62308E-02  9152   0.367E-01 0.140E-02
CGA:   4    -0.380709202259E+03   -0.56214E-02   -0.56227E-02  9152   0.150E-01-0.267E-04
CGA:   5    -0.380710983224E+03   -0.17810E-02   -0.17810E-02  9152   0.502E-02-0.204E-04
CGA:   6    -0.380711394983E+03   -0.41176E-03   -0.41256E-03  9152   0.389E-02 0.322E-05
CGA:   7    -0.380711648831E+03   -0.25385E-03   -0.25340E-03  9152   0.754E-03 0.256E-05
CGA:   8    -0.380711778096E+03   -0.12927E-03   -0.12932E-03  9152   0.318E-03-0.869E-06
CGA:   9    -0.380711805207E+03   -0.27111E-04   -0.27100E-04  9152   0.319E-03-0.267E-06
CGA:  10    -0.380711832129E+03   -0.26922E-04   -0.26947E-04  9152   0.908E-04 0.437E-06
CGA:  11    -0.380711847957E+03   -0.15829E-04   -0.15830E-04  9152   0.687E-04-0.158E-07
CGA:  12    -0.380711854084E+03   -0.61267E-05   -0.61336E-05  9152   0.689E-04 0.238E-06
 176 F= -.38071185E+03 E0= -.38070608E+03  d E =0.449338E-02  mag=    58.0000
