       N       E                     dE             d eps       ncg     rms          rms(c)
DAV:   1     0.833216992276E+04    0.83322E+04   -0.33036E+05 32904   0.163E+03
DAV:   2     0.626709728516E+03   -0.77055E+04   -0.71339E+04 32032   0.488E+02
DAV:   3    -0.423639939584E+03   -0.10503E+04   -0.10240E+04 32944   0.194E+02
DAV:   4    -0.472598041623E+03   -0.48958E+02   -0.48290E+02 37200   0.391E+01
DAV:   5    -0.475120020623E+03   -0.25220E+01   -0.24862E+01 51744   0.672E+00    0.778E+01
DAV:   6    -0.441137048679E+03    0.33983E+02   -0.33317E+02 37104   0.388E+01    0.618E+01
DAV:   7    -0.442532012368E+03   -0.13950E+01   -0.31929E+01 33192   0.162E+01    0.416E+01
DAV:   8    -0.442272609334E+03    0.25940E+00   -0.41156E+00 39992   0.645E+00    0.274E+01
DAV:   9    -0.442221777660E+03    0.50832E-01   -0.32354E+00 36416   0.533E+00    0.147E+01
DAV:  10    -0.442232498806E+03   -0.10721E-01   -0.11421E+00 35320   0.384E+00    0.657E+00
DAV:  11    -0.442229230781E+03    0.32680E-02   -0.31932E-01 36264   0.201E+00    0.292E+00
DAV:  12    -0.442237255882E+03   -0.80251E-02   -0.75655E-02 34520   0.916E-01    0.113E+00
DAV:  13    -0.442243244666E+03   -0.59888E-02   -0.17288E-02 35536   0.344E-01    0.615E-01
DAV:  14    -0.442246309279E+03   -0.30646E-02   -0.34033E-03 36400   0.154E-01    0.315E-01
DAV:  15    -0.442248787167E+03   -0.24779E-02   -0.20710E-03 33248   0.149E-01    0.278E-01
DAV:  16    -0.442249399198E+03   -0.61203E-03   -0.12239E-03 33784   0.114E-01    0.117E-01
DAV:  17    -0.442249475121E+03   -0.75923E-04   -0.34320E-04 36040   0.498E-02    0.713E-02
DAV:  18    -0.442249485667E+03   -0.10546E-04   -0.95641E-05 32272   0.274E-02    0.386E-02
DAV:  19    -0.442249486091E+03   -0.42396E-06   -0.38058E-05 27928   0.167E-02
   1 F= -.44224949E+03 E0= -.44224034E+03  d E =-.442249E+03  mag=    77.9994
       N       E                     dE             d eps       ncg     rms          rms(c)
DAV:   1    -0.442250360933E+03   -0.87527E-03   -0.58649E-04 34048   0.803E-02    0.287E-02
DAV:   2    -0.442250369139E+03   -0.82061E-05   -0.91488E-05 31848   0.259E-02    0.516E-02
DAV:   3    -0.442250367549E+03    0.15901E-05   -0.19960E-05 21408   0.163E-02    0.102E-02
DAV:   4    -0.442250368078E+03   -0.52829E-06   -0.24218E-06 16424   0.363E-03
   2 F= -.44225037E+03 E0= -.44224122E+03  d E =-.881987E-03  mag=    77.9998
       N       E                     dE             d eps       ncg     rms          rms(c)
DAV:   1    -0.442274782915E+03   -0.24415E-01   -0.19534E+00 34712   0.461E+00    0.795E-01
DAV:   2    -0.442299513124E+03   -0.24730E-01   -0.23020E-01 31872   0.816E-01    0.394E-01
DAV:   3    -0.442300531692E+03   -0.10186E-02   -0.79340E-03 40992   0.181E-01    0.237E-01
DAV:   4    -0.442300484432E+03    0.47260E-04   -0.60108E-04 37872   0.640E-02    0.140E-01
DAV:   5    -0.442300419281E+03    0.65151E-04   -0.70042E-05 35312   0.266E-02    0.104E-01
DAV:   6    -0.442300344460E+03    0.74821E-04   -0.10718E-04 34552   0.425E-02    0.658E-02
DAV:   7    -0.442300339633E+03    0.48274E-05   -0.80361E-05 34744   0.262E-02
   3 F= -.44230034E+03 E0= -.44229115E+03  d E =-.499716E-01  mag=    78.0000
       N       E                     dE             d eps       ncg     rms          rms(c)
DAV:   1    -0.442246055850E+03    0.54289E-01   -0.14778E+01 34384   0.123E+01    0.211E+00
DAV:   2    -0.442420601666E+03   -0.17455E+00   -0.16339E+00 32000   0.218E+00    0.118E+00
DAV:   3    -0.442427224244E+03   -0.66226E-02   -0.54865E-02 41616   0.530E-01    0.750E-01
DAV:   4    -0.442426782314E+03    0.44193E-03   -0.51347E-03 38352   0.205E-01    0.381E-01
DAV:   5    -0.442426279107E+03    0.50321E-03   -0.69409E-04 38568   0.800E-02    0.281E-01
DAV:   6    -0.442425819010E+03    0.46010E-03   -0.69846E-04 37824   0.106E-01    0.205E-01
DAV:   7    -0.442425728329E+03    0.90681E-04   -0.60466E-04 38024   0.790E-02    0.578E-02
DAV:   8    -0.442425741315E+03   -0.12987E-04   -0.18363E-04 34944   0.352E-02    0.464E-02
DAV:   9    -0.442425740526E+03    0.78967E-06   -0.20303E-05 24920   0.138E-02
   4 F= -.44242574E+03 E0= -.44241634E+03  d E =-.125401E+00  mag=    78.0000
       N       E                     dE             d eps       ncg     rms          rms(c)
DAV:   1    -0.442250030413E+03    0.17571E+00   -0.28703E+01 34728   0.167E+01    0.280E+00
DAV:   2    -0.442562502563E+03   -0.31247E+00   -0.29568E+00 31912   0.304E+00    0.183E+00
DAV:   3    -0.442572439438E+03   -0.99369E-02   -0.95034E-02 41192   0.804E-01    0.122E+00
DAV:   4    -0.442571209156E+03    0.12303E-02   -0.10399E-02 37856   0.326E-01    0.521E-01
DAV:   5    -0.442570110933E+03    0.10982E-02   -0.17867E-03 39704   0.125E-01    0.374E-01
DAV:   6    -0.442569332325E+03    0.77861E-03   -0.14727E-03 38496   0.156E-01    0.283E-01
DAV:   7    -0.442569227949E+03    0.10438E-03   -0.10488E-03 38448   0.104E-01    0.982E-02
DAV:   8    -0.442569240303E+03   -0.12354E-04   -0.27831E-04 36528   0.477E-02    0.702E-02
DAV:   9    -0.442569240312E+03   -0.91095E-08   -0.43651E-05 29728   0.192E-02
   5 F= -.44256924E+03 E0= -.44255943E+03  d E =-.143500E+00  mag=    78.0000
       N       E                     dE             d eps       ncg     rms          rms(c)
DAV:   1    -0.442147774261E+03    0.42147E+00   -0.51908E+01 34760   0.225E+01    0.360E+00
DAV:   2    -0.442675864526E+03   -0.52809E+00   -0.50325E+00 31728   0.416E+00    0.272E+00
DAV:   3    -0.442690542756E+03   -0.14678E-01   -0.17721E-01 41552   0.120E+00    0.190E+00
DAV:   4    -0.442687539751E+03    0.30030E-02   -0.21390E-02 37656   0.502E-01    0.696E-01
DAV:   5    -0.442685722189E+03    0.18176E-02   -0.39654E-03 38696   0.181E-01    0.503E-01
DAV:   6    -0.442684506313E+03    0.12159E-02   -0.24680E-03 38656   0.205E-01    0.369E-01
DAV:   7    -0.442684338615E+03    0.16770E-03   -0.16203E-03 38008   0.133E-01    0.122E-01
DAV:   8    -0.442684354382E+03   -0.15767E-04   -0.38595E-04 37600   0.586E-02    0.103E-01
DAV:   9    -0.442684353818E+03    0.56355E-06   -0.86795E-05 33384   0.271E-02
   6 F= -.44268435E+03 E0= -.44267389E+03  d E =-.115114E+00  mag=    78.0000
       N       E                     dE             d eps       ncg     rms          rms(c)
DAV:   1    -0.442359108133E+03    0.32525E+00   -0.46296E+01 34792   0.203E+01    0.278E+00
DAV:   2    -0.442711313617E+03   -0.35221E+00   -0.33558E+00 31664   0.360E+00    0.204E+00
DAV:   3    -0.442720673699E+03   -0.93601E-02   -0.11372E-01 41208   0.992E-01    0.166E+00
DAV:   4    -0.442718243373E+03    0.24303E-02   -0.16458E-02 37360   0.430E-01    0.512E-01
DAV:   5    -0.442717111318E+03    0.11321E-02   -0.28424E-03 38712   0.142E-01    0.386E-01
DAV:   6    -0.442716318682E+03    0.79264E-03   -0.16427E-03 37168   0.168E-01    0.300E-01
DAV:   7    -0.442716235272E+03    0.83410E-04   -0.11075E-03 37456   0.105E-01    0.142E-01
DAV:   8    -0.442716225218E+03    0.10054E-04   -0.33976E-04 36120   0.521E-02    0.781E-02
DAV:   9    -0.442716232117E+03   -0.68991E-05   -0.63163E-05 30872   0.245E-02
   7 F= -.44271623E+03 E0= -.44270540E+03  d E =-.318783E-01  mag=    78.0000
       N       E                     dE             d eps       ncg     rms          rms(c)
DAV:   1    -0.442043296902E+03    0.67293E+00   -0.10747E+02 34472   0.295E+01    0.362E+00
DAV:   2    -0.442708004656E+03   -0.66471E+00   -0.63391E+00 31800   0.515E+00    0.265E+00
DAV:   3    -0.442723202872E+03   -0.15198E-01   -0.20255E-01 41088   0.133E+00    0.229E+00
DAV:   4    -0.442718347065E+03    0.48558E-02   -0.27683E-02 38504   0.579E-01    0.645E-01
DAV:   5    -0.442716260252E+03    0.20868E-02   -0.52496E-03 38168   0.193E-01    0.487E-01
DAV:   6    -0.442714629688E+03    0.16306E-02   -0.31719E-03 35960   0.216E-01    0.322E-01
DAV:   7    -0.442714485097E+03    0.14459E-03   -0.17062E-03 37320   0.117E-01    0.129E-01
DAV:   8    -0.442714503861E+03   -0.18764E-04   -0.37362E-04 36080   0.586E-02    0.103E-01
DAV:   9    -0.442714504449E+03   -0.58844E-06   -0.92957E-05 31792   0.312E-02
   8 F= -.44271450E+03 E0= -.44270360E+03  d E =0.172767E-02  mag=    78.0000
       N       E                     dE             d eps       ncg     rms          rms(c)
DAV:   1    -0.442230963425E+03    0.48354E+00   -0.77020E+01 34160   0.257E+01    0.320E+00
DAV:   2    -0.442733025081E+03   -0.50206E+00   -0.47853E+00 31920   0.452E+00    0.177E+00
DAV:   3    -0.442745440360E+03   -0.12415E-01   -0.13117E-01 39360   0.933E-01    0.148E+00
DAV:   4    -0.442743267744E+03    0.21726E-02   -0.17180E-02 40320   0.403E-01    0.626E-01
DAV:   5    -0.442741309473E+03    0.19583E-02   -0.27530E-03 38912   0.171E-01    0.458E-01
DAV:   6    -0.442739642593E+03    0.16669E-02   -0.25551E-03 37160   0.198E-01    0.348E-01
DAV:   7    -0.442739317249E+03    0.32534E-03   -0.19245E-03 38672   0.155E-01    0.209E-01
DAV:   8    -0.442739324053E+03   -0.68043E-05   -0.71480E-04 36904   0.808E-02    0.821E-02
DAV:   9    -0.442739324703E+03   -0.64999E-06   -0.87727E-05 34224   0.254E-02
   9 F= -.44273932E+03 E0= -.44272875E+03  d E =-.248203E-01  mag=    78.0000
       N       E                     dE             d eps       ncg     rms          rms(c)
DAV:   1    -0.442648994940E+03    0.90329E-01   -0.57407E+00 34688   0.980E+00    0.162E+00
DAV:   2    -0.442747135068E+03   -0.98140E-01   -0.90698E-01 32104   0.177E+00    0.793E-01
DAV:   3    -0.442751550549E+03   -0.44155E-02   -0.30244E-02 36928   0.396E-01    0.619E-01
DAV:   4    -0.442751337285E+03    0.21326E-03   -0.32411E-03 39720   0.160E-01    0.280E-01
DAV:   5    -0.442751176381E+03    0.16090E-03   -0.29856E-04 37640   0.552E-02    0.204E-01
DAV:   6    -0.442750986457E+03    0.18992E-03   -0.32852E-04 37688   0.772E-02    0.156E-01
DAV:   7    -0.442750947213E+03    0.39244E-04   -0.24124E-04 38584   0.576E-02    0.459E-02
DAV:   8    -0.442750952869E+03   -0.56561E-05   -0.84338E-05 32936   0.274E-02
  10 F= -.44275095E+03 E0= -.44274039E+03  d E =-.116282E-01  mag=    78.0000
       N       E                     dE             d eps       ncg     rms          rms(c)
DAV:   1    -0.442747284293E+03    0.36629E-02   -0.19941E+00 33344   0.356E+00    0.385E-01
DAV:   2    -0.442755992244E+03   -0.87080E-02   -0.85538E-02 31744   0.604E-01    0.192E-01
DAV:   3    -0.442756142911E+03   -0.15067E-03   -0.17821E-03 37960   0.987E-02    0.131E-01
DAV:   4    -0.442756115577E+03    0.27333E-04   -0.19612E-04 39600   0.393E-02    0.880E-02
DAV:   5    -0.442756077695E+03    0.37882E-04   -0.52808E-05 31496   0.260E-02    0.609E-02
DAV:   6    -0.442756057471E+03    0.20224E-04   -0.60585E-05 34040   0.261E-02    0.306E-02
DAV:   7    -0.442756059279E+03   -0.18085E-05   -0.24362E-05 24664   0.125E-02
  11 F= -.44275606E+03 E0= -.44274550E+03  d E =-.510641E-02  mag=    78.0000
       N       E                     dE             d eps       ncg     rms          rms(c)
DAV:   1    -0.442532967068E+03    0.22309E+00   -0.63261E+01 33616   0.191E+01    0.187E+00
DAV:   2    -0.442775452284E+03   -0.24249E+00   -0.23940E+00 31456   0.318E+00    0.104E+00
DAV:   3    -0.442776866884E+03   -0.14146E-02   -0.43393E-02 36464   0.538E-01    0.651E-01
DAV:   4    -0.442775891330E+03    0.97555E-03   -0.56355E-03 40168   0.196E-01    0.384E-01
DAV:   5    -0.442774548817E+03    0.13425E-02   -0.15647E-03 38536   0.130E-01    0.280E-01
DAV:   6    -0.442774248869E+03    0.29995E-03   -0.17883E-03 37392   0.132E-01    0.254E-01
DAV:   7    -0.442774218260E+03    0.30609E-04   -0.68393E-04 38408   0.808E-02    0.638E-02
DAV:   8    -0.442774233039E+03   -0.14779E-04   -0.11786E-04 33984   0.331E-02    0.555E-02
DAV:   9    -0.442774232622E+03    0.41662E-06   -0.17569E-05 22536   0.153E-02
  12 F= -.44277423E+03 E0= -.44276389E+03  d E =-.181733E-01  mag=    78.0000
       N       E                     dE             d eps       ncg     rms          rms(c)
DAV:   1    -0.442318842754E+03    0.45539E+00   -0.65418E+01 34424   0.236E+01    0.307E+00
DAV:   2    -0.442770628597E+03   -0.45179E+00   -0.42993E+00 32056   0.411E+00    0.163E+00
DAV:   3    -0.442780712219E+03   -0.10084E-01   -0.99884E-02 36200   0.821E-01    0.136E+00
DAV:   4    -0.442779025422E+03    0.16868E-02   -0.14640E-02 40040   0.359E-01    0.583E-01
DAV:   5    -0.442777372816E+03    0.16526E-02   -0.23367E-03 36664   0.153E-01    0.403E-01
DAV:   6    -0.442776144694E+03    0.12281E-02   -0.23352E-03 37976   0.176E-01    0.276E-01
DAV:   7    -0.442776027362E+03    0.11733E-03   -0.13304E-03 38144   0.114E-01    0.107E-01
DAV:   8    -0.442776054243E+03   -0.26881E-04   -0.38284E-04 35552   0.556E-02    0.911E-02
DAV:   9    -0.442776047957E+03    0.62854E-05   -0.57966E-05 31008   0.251E-02
  13 F= -.44277605E+03 E0= -.44276591E+03  d E =-.181534E-02  mag=    78.0000
       N       E                     dE             d eps       ncg     rms          rms(c)
DAV:   1    -0.442678282926E+03    0.97771E-01   -0.48638E+00 36040   0.105E+01    0.177E+00
DAV:   2    -0.442789571402E+03   -0.11129E+00   -0.10147E+00 32184   0.185E+00    0.869E-01
DAV:   3    -0.442795221952E+03   -0.56506E-02   -0.37287E-02 36704   0.425E-01    0.605E-01
DAV:   4    -0.442795091212E+03    0.13074E-03   -0.39285E-03 41840   0.178E-01    0.319E-01
DAV:   5    -0.442794870029E+03    0.22118E-03   -0.45138E-04 37208   0.743E-02    0.200E-01
DAV:   6    -0.442794689290E+03    0.18074E-03   -0.43056E-04 38640   0.856E-02    0.159E-01
DAV:   7    -0.442794669227E+03    0.20064E-04   -0.26716E-04 39432   0.629E-02    0.898E-02
DAV:   8    -0.442794667771E+03    0.14561E-05   -0.92744E-05 34320   0.311E-02
  14 F= -.44279467E+03 E0= -.44278447E+03  d E =-.186198E-01  mag=    78.0000
       N       E                     dE             d eps       ncg     rms          rms(c)
DAV:   1    -0.442794303911E+03    0.36532E-03   -0.33171E-01 34248   0.199E+00    0.276E-01
DAV:   2    -0.442797485947E+03   -0.31820E-02   -0.30072E-02 31656   0.351E-01    0.149E-01
DAV:   3    -0.442797607176E+03   -0.12123E-03   -0.99557E-04 38616   0.808E-02    0.139E-01
DAV:   4    -0.442797593031E+03    0.14145E-04   -0.11564E-04 31208   0.336E-02    0.512E-02
DAV:   5    -0.442797585220E+03    0.78112E-05   -0.14658E-05 22176   0.131E-02
  15 F= -.44279759E+03 E0= -.44278738E+03  d E =-.291745E-02  mag=    78.0000
       N       E                     dE             d eps       ncg     rms          rms(c)
DAV:   1    -0.442789073241E+03    0.85198E-02   -0.21898E+00 33872   0.447E+00    0.552E-01
DAV:   2    -0.442803735076E+03   -0.14662E-01   -0.14170E-01 31552   0.786E-01    0.354E-01
DAV:   3    -0.442804142465E+03   -0.40739E-03   -0.45131E-03 38536   0.191E-01    0.353E-01
DAV:   4    -0.442804034691E+03    0.10777E-03   -0.63114E-04 40016   0.817E-02    0.113E-01
DAV:   5    -0.442803979660E+03    0.55031E-04   -0.10811E-04 35680   0.328E-02    0.915E-02
DAV:   6    -0.442803941835E+03    0.37825E-04   -0.99895E-05 34392   0.407E-02    0.654E-02
DAV:   7    -0.442803941201E+03    0.63468E-06   -0.55193E-05 32304   0.248E-02
  16 F= -.44280394E+03 E0= -.44279372E+03  d E =-.635598E-02  mag=    78.0000
       N       E                     dE             d eps       ncg     rms          rms(c)
DAV:   1    -0.442794700128E+03    0.92417E-02   -0.33600E+00 33048   0.463E+00    0.499E-01
DAV:   2    -0.442809206320E+03   -0.14506E-01   -0.14377E-01 31248   0.789E-01    0.321E-01
DAV:   3    -0.442809465692E+03   -0.25937E-03   -0.36071E-03 37264   0.175E-01    0.313E-01
DAV:   4    -0.442809362160E+03    0.10353E-03   -0.56233E-04 39424   0.779E-02    0.104E-01
DAV:   5    -0.442809291092E+03    0.71069E-04   -0.12260E-04 35352   0.338E-02    0.831E-02
DAV:   6    -0.442809262621E+03    0.28470E-04   -0.11380E-04 34072   0.396E-02    0.662E-02
DAV:   7    -0.442809262789E+03   -0.16773E-06   -0.52829E-05 30232   0.234E-02
  17 F= -.44280926E+03 E0= -.44279906E+03  d E =-.532159E-02  mag=    78.0000
       N       E                     dE             d eps       ncg     rms          rms(c)
DAV:   1    -0.442471616648E+03    0.33765E+00   -0.60060E+01 34200   0.215E+01    0.249E+00
DAV:   2    -0.442805452277E+03   -0.33384E+00   -0.32184E+00 31408   0.368E+00    0.130E+00
DAV:   3    -0.442811480334E+03   -0.60281E-02   -0.73471E-02 35696   0.675E-01    0.929E-01
DAV:   4    -0.442810454638E+03    0.10257E-02   -0.89020E-03 41056   0.271E-01    0.511E-01
DAV:   5    -0.442809053297E+03    0.14013E-02   -0.18412E-03 35424   0.147E-01    0.342E-01
DAV:   6    -0.442808267979E+03    0.78532E-03   -0.20786E-03 38056   0.159E-01    0.242E-01
DAV:   7    -0.442808266314E+03    0.16647E-05   -0.11128E-03 37648   0.100E-01    0.129E-01
DAV:   8    -0.442808267730E+03   -0.14162E-05   -0.20370E-04 36368   0.450E-02    0.526E-02
DAV:   9    -0.442808267788E+03   -0.57815E-07   -0.32300E-05 25208   0.194E-02
  18 F= -.44280827E+03 E0= -.44279813E+03  d E =0.995001E-03  mag=    78.0000
       N       E                     dE             d eps       ncg     rms          rms(c)
DAV:   1    -0.442743059534E+03    0.65208E-01   -0.29055E+00 36080   0.839E+00    0.139E+00
DAV:   2    -0.442812405352E+03   -0.69346E-01   -0.62270E-01 31944   0.145E+00    0.766E-01
DAV:   3    -0.442815863657E+03   -0.34583E-02   -0.24788E-02 35816   0.404E-01    0.708E-01
DAV:   4    -0.442815556169E+03    0.30749E-03   -0.31349E-03 38080   0.174E-01    0.222E-01
DAV:   5    -0.442815483760E+03    0.72408E-04   -0.31660E-04 37312   0.459E-02    0.174E-01
DAV:   6    -0.442815378477E+03    0.10528E-03   -0.24469E-04 37008   0.652E-02    0.165E-01
DAV:   7    -0.442815324365E+03    0.54112E-04   -0.18403E-04 38016   0.580E-02    0.862E-02
DAV:   8    -0.442815313886E+03    0.10479E-04   -0.10008E-04 33872   0.312E-02    0.300E-02
DAV:   9    -0.442815315867E+03   -0.19805E-05   -0.19970E-05 22584   0.140E-02
  19 F= -.44281532E+03 E0= -.44280521E+03  d E =-.704808E-02  mag=    78.0000
       N       E                     dE             d eps       ncg     rms          rms(c)
DAV:   1    -0.442816660607E+03   -0.13467E-02   -0.12235E-01 34872   0.138E+00    0.241E-01
DAV:   2    -0.442818737429E+03   -0.20768E-02   -0.19490E-02 31752   0.249E-01    0.114E-01
DAV:   3    -0.442818829178E+03   -0.91749E-04   -0.62207E-04 37120   0.512E-02    0.682E-02
DAV:   4    -0.442818825759E+03    0.34189E-05   -0.47573E-05 26376   0.193E-02
  20 F= -.44281883E+03 E0= -.44280869E+03  d E =-.350989E-02  mag=    78.0000
       N       E                     dE             d eps       ncg     rms          rms(c)
DAV:   1    -0.442819895600E+03   -0.10664E-02   -0.45498E-01 34008   0.237E+00    0.346E-01
DAV:   2    -0.442824768216E+03   -0.48726E-02   -0.47119E-02 31600   0.428E-01    0.168E-01
DAV:   3    -0.442824922974E+03   -0.15476E-03   -0.13701E-03 39992   0.806E-02    0.108E-01
DAV:   4    -0.442824908419E+03    0.14555E-04   -0.11962E-04 34480   0.321E-02    0.810E-02
DAV:   5    -0.442824884615E+03    0.23804E-04   -0.37201E-05 28480   0.244E-02    0.555E-02
DAV:   6    -0.442824875009E+03    0.96063E-05   -0.39203E-05 30856   0.241E-02
  21 F= -.44282488E+03 E0= -.44281475E+03  d E =-.604925E-02  mag=    78.0000
       N       E                     dE             d eps       ncg     rms          rms(c)
DAV:   1    -0.442824580652E+03    0.30396E-03   -0.61629E-01 33976   0.272E+00    0.383E-01
DAV:   2    -0.442830629932E+03   -0.60493E-02   -0.58784E-02 31504   0.493E-01    0.189E-01
DAV:   3    -0.442830831781E+03   -0.20185E-03   -0.17436E-03 40536   0.102E-01    0.146E-01
DAV:   4    -0.442830814288E+03    0.17493E-04   -0.17463E-04 36008   0.406E-02    0.787E-02
DAV:   5    -0.442830791317E+03    0.22971E-04   -0.32506E-05 27224   0.226E-02    0.581E-02
DAV:   6    -0.442830777633E+03    0.13684E-04   -0.41275E-05 31520   0.242E-02    0.304E-02
DAV:   7    -0.442830777941E+03   -0.30809E-06   -0.12606E-05 19976   0.115E-02
  22 F= -.44283078E+03 E0= -.44282063E+03  d E =-.590293E-02  mag=    78.0000
       N       E                     dE             d eps       ncg     rms          rms(c)
DAV:   1    -0.442828851846E+03    0.19258E-02   -0.13777E+00 33768   0.329E+00    0.390E-01
DAV:   2    -0.442836504271E+03   -0.76524E-02   -0.76451E-02 31528   0.582E-01    0.256E-01
DAV:   3    -0.442836671535E+03   -0.16726E-03   -0.21877E-03 40456   0.137E-01    0.247E-01
DAV:   4    -0.442836610020E+03    0.61515E-04   -0.33376E-04 39928   0.602E-02    0.848E-02
DAV:   5    -0.442836575790E+03    0.34230E-04   -0.61395E-05 34448   0.271E-02    0.687E-02
DAV:   6    -0.442836556212E+03    0.19578E-04   -0.55627E-05 33824   0.287E-02    0.367E-02
DAV:   7    -0.442836557222E+03   -0.10100E-05   -0.24032E-05 24112   0.163E-02
  23 F= -.44283656E+03 E0= -.44282639E+03  d E =-.577928E-02  mag=    78.0000
       N       E                     dE             d eps       ncg     rms          rms(c)
DAV:   1    -0.442809816690E+03    0.26740E-01   -0.80807E+00 32784   0.670E+00    0.672E-01
DAV:   2    -0.442839601885E+03   -0.29785E-01   -0.29797E-01 31024   0.114E+00    0.521E-01
DAV:   3    -0.442839938884E+03   -0.33700E-03   -0.72804E-03 38160   0.263E-01    0.443E-01
DAV:   4    -0.442839703835E+03    0.23505E-03   -0.11144E-03 39488   0.111E-01    0.151E-01
DAV:   5    -0.442839561333E+03    0.14250E-03   -0.23758E-04 36256   0.486E-02    0.129E-01
DAV:   6    -0.442839470009E+03    0.91324E-04   -0.21888E-04 35384   0.540E-02    0.680E-02
DAV:   7    -0.442839475118E+03   -0.51086E-05   -0.12146E-04 34888   0.318E-02    0.477E-02
DAV:   8    -0.442839475206E+03   -0.88214E-07   -0.22532E-05 21528   0.163E-02
  24 F= -.44283948E+03 E0= -.44282931E+03  d E =-.291798E-02  mag=    78.0000
       N       E                     dE             d eps       ncg     rms          rms(c)
DAV:   1    -0.442227595915E+03    0.61188E+00   -0.99356E+01 33968   0.265E+01    0.321E+00
DAV:   2    -0.442775706118E+03   -0.54811E+00   -0.53520E+00 32072   0.467E+00    0.188E+00
DAV:   3    -0.442784621668E+03   -0.89155E-02   -0.11906E-01 38832   0.941E-01    0.155E+00
DAV:   4    -0.442781915416E+03    0.27063E-02   -0.16484E-02 39856   0.401E-01    0.652E-01
DAV:   5    -0.442779719593E+03    0.21958E-02   -0.34669E-03 37264   0.183E-01    0.507E-01
DAV:   6    -0.442778281069E+03    0.14385E-02   -0.28750E-03 36776   0.208E-01    0.349E-01
DAV:   7    -0.442778091740E+03    0.18933E-03   -0.19283E-03 38736   0.145E-01    0.169E-01
DAV:   8    -0.442778112823E+03   -0.21083E-04   -0.49818E-04 36576   0.648E-02    0.636E-02
DAV:   9    -0.442778119243E+03   -0.64204E-05   -0.68682E-05 33576   0.240E-02
  25 F= -.44277812E+03 E0= -.44276799E+03  d E =0.613560E-01  mag=    78.0000
       N       E                     dE             d eps       ncg     rms          rms(c)
DAV:   1    -0.442704123458E+03    0.73989E-01   -0.68022E+00 34536   0.103E+01    0.161E+00
DAV:   2    -0.442803142211E+03   -0.99019E-01   -0.93149E-01 31984   0.186E+00    0.843E-01
DAV:   3    -0.442806909657E+03   -0.37674E-02   -0.27863E-02 39552   0.427E-01    0.634E-01
DAV:   4    -0.442806602136E+03    0.30752E-03   -0.29432E-03 40904   0.171E-01    0.303E-01
DAV:   5    -0.442806291005E+03    0.31113E-03   -0.47095E-04 37568   0.782E-02    0.209E-01
DAV:   6    -0.442806083141E+03    0.20786E-03   -0.48591E-04 38080   0.907E-02    0.162E-01
DAV:   7    -0.442806064434E+03    0.18708E-04   -0.30807E-04 40256   0.638E-02    0.785E-02
DAV:   8    -0.442806065424E+03   -0.99072E-06   -0.77992E-05 33848   0.280E-02
  26 F= -.44280607E+03 E0= -.44279592E+03  d E =-.279462E-01  mag=    78.0000
       N       E                     dE             d eps       ncg     rms          rms(c)
DAV:   1    -0.442808882994E+03   -0.28186E-02   -0.10889E+00 34440   0.311E+00    0.403E-01
DAV:   2    -0.442816248940E+03   -0.73659E-02   -0.73448E-02 31776   0.546E-01    0.211E-01
DAV:   3    -0.442816413794E+03   -0.16485E-03   -0.18052E-03 40328   0.103E-01    0.151E-01
DAV:   4    -0.442816383903E+03    0.29892E-04   -0.20299E-04 38488   0.442E-02    0.874E-02
DAV:   5    -0.442816345670E+03    0.38233E-04   -0.58968E-05 33888   0.301E-02    0.560E-02
DAV:   6    -0.442816337144E+03    0.85255E-05   -0.47127E-05 33968   0.244E-02
  27 F= -.44281634E+03 E0= -.44280618E+03  d E =-.102717E-01  mag=    78.0000
       N       E                     dE             d eps       ncg     rms          rms(c)
DAV:   1    -0.442797539438E+03    0.18806E-01   -0.55420E+00 34448   0.715E+00    0.930E-01
DAV:   2    -0.442836692487E+03   -0.39153E-01   -0.38741E-01 31568   0.125E+00    0.498E-01
DAV:   3    -0.442837675412E+03   -0.98292E-03   -0.10422E-02 40344   0.252E-01    0.379E-01
DAV:   4    -0.442837518769E+03    0.15664E-03   -0.11644E-03 40896   0.108E-01    0.197E-01
DAV:   5    -0.442837332826E+03    0.18594E-03   -0.30260E-04 35888   0.668E-02    0.144E-01
DAV:   6    -0.442837273819E+03    0.59006E-04   -0.27804E-04 37112   0.594E-02    0.940E-02
DAV:   7    -0.442837274501E+03   -0.68134E-06   -0.10624E-04 35912   0.333E-02    0.499E-02
DAV:   8    -0.442837273973E+03    0.52771E-06   -0.19359E-05 22464   0.159E-02
  28 F= -.44283727E+03 E0= -.44282710E+03  d E =-.209368E-01  mag=    78.0000
       N       E                     dE             d eps       ncg     rms          rms(c)
DAV:   1    -0.442838912664E+03   -0.16382E-02   -0.21842E-01 34224   0.129E+00    0.149E-01
DAV:   2    -0.442840056621E+03   -0.11440E-02   -0.11360E-02 31760   0.225E-01    0.918E-02
DAV:   3    -0.442840078174E+03   -0.21554E-04   -0.29646E-04 39664   0.493E-02    0.783E-02
DAV:   4    -0.442840071342E+03    0.68328E-05   -0.39164E-05 26576   0.211E-02
  29 F= -.44284007E+03 E0= -.44282990E+03  d E =-.279737E-02  mag=    78.0000
       N       E                     dE             d eps       ncg     rms          rms(c)
DAV:   1    -0.442836815935E+03    0.32622E-02   -0.14654E+00 33936   0.300E+00    0.301E-01
DAV:   2    -0.442842732420E+03   -0.59165E-02   -0.58445E-02 31704   0.509E-01    0.235E-01
DAV:   3    -0.442842793958E+03   -0.61538E-04   -0.14794E-03 41112   0.115E-01    0.184E-01
DAV:   4    -0.442842748130E+03    0.45827E-04   -0.21057E-04 38336   0.473E-02    0.727E-02
DAV:   5    -0.442842710453E+03    0.37677E-04   -0.52001E-05 34168   0.249E-02    0.607E-02
DAV:   6    -0.442842688508E+03    0.21945E-04   -0.56222E-05 33040   0.272E-02    0.298E-02
DAV:   7    -0.442842689812E+03   -0.13037E-05   -0.26722E-05 25856   0.150E-02
  30 F= -.44284269E+03 E0= -.44283252E+03  d E =-.261847E-02  mag=    78.0000
       N       E                     dE             d eps       ncg     rms          rms(c)
DAV:   1    -0.442813549866E+03    0.29139E-01   -0.52904E+00 33656   0.615E+00    0.709E-01
DAV:   2    -0.442840609664E+03   -0.27060E-01   -0.26088E-01 31144   0.106E+00    0.419E-01
DAV:   3    -0.442841244976E+03   -0.63531E-03   -0.66121E-03 38448   0.225E-01    0.342E-01
DAV:   4    -0.442841134414E+03    0.11056E-03   -0.84526E-04 38696   0.899E-02    0.134E-01
DAV:   5    -0.442841042066E+03    0.92348E-04   -0.12764E-04 37336   0.334E-02    0.101E-01
DAV:   6    -0.442840968611E+03    0.73455E-04   -0.12421E-04 34768   0.445E-02    0.671E-02
DAV:   7    -0.442840966139E+03    0.24724E-05   -0.91069E-05 34088   0.299E-02
  31 F= -.44284097E+03 E0= -.44283078E+03  d E =0.172367E-02  mag=    78.0000
       N       E                     dE             d eps       ncg     rms          rms(c)
DAV:   1    -0.442131649769E+03    0.70932E+00   -0.14733E+02 33936   0.313E+01    0.340E+00
DAV:   2    -0.442822573754E+03   -0.69092E+00   -0.67659E+00 31176   0.544E+00    0.226E+00
DAV:   3    -0.442832002629E+03   -0.94289E-02   -0.18724E-01 37800   0.122E+00    0.190E+00
DAV:   4    -0.442827917550E+03    0.40851E-02   -0.25563E-02 38920   0.490E-01    0.668E-01
DAV:   5    -0.442825192169E+03    0.27254E-02   -0.50444E-03 37224   0.207E-01    0.564E-01
DAV:   6    -0.442823547785E+03    0.16444E-02   -0.35281E-03 36608   0.221E-01    0.369E-01
DAV:   7    -0.442823271340E+03    0.27645E-03   -0.18808E-03 36584   0.152E-01    0.209E-01
DAV:   8    -0.442823277894E+03   -0.65540E-05   -0.61630E-04 38240   0.800E-02    0.711E-02
DAV:   9    -0.442823296205E+03   -0.18312E-04   -0.14461E-04 34792   0.348E-02    0.749E-02
DAV:  10    -0.442823294832E+03    0.13731E-05   -0.34388E-05 23880   0.211E-02
  32 F= -.44282329E+03 E0= -.44281319E+03  d E =0.176713E-01  mag=    78.0000
       N       E                     dE             d eps       ncg     rms          rms(c)
DAV:   1    -0.442576423691E+03    0.24687E+00   -0.21096E+01 34048   0.166E+01    0.244E+00
DAV:   2    -0.442815167728E+03   -0.23874E+00   -0.22202E+00 31624   0.298E+00    0.130E+00
DAV:   3    -0.442824557532E+03   -0.93898E-02   -0.73391E-02 39720   0.676E-01    0.966E-01
DAV:   4    -0.442823826206E+03    0.73133E-03   -0.76020E-03 40480   0.261E-01    0.451E-01
DAV:   5    -0.442823168533E+03    0.65767E-03   -0.95716E-04 36832   0.956E-02    0.333E-01
DAV:   6    -0.442822497425E+03    0.67111E-03   -0.11605E-03 36400   0.143E-01    0.229E-01
DAV:   7    -0.442822430107E+03    0.67318E-04   -0.65965E-04 37352   0.912E-02    0.802E-02
DAV:   8    -0.442822440391E+03   -0.10283E-04   -0.18739E-04 36016   0.403E-02    0.571E-02
DAV:   9    -0.442822437399E+03    0.29922E-05   -0.29035E-05 24040   0.180E-02
  33 F= -.44282244E+03 E0= -.44281248E+03  d E =0.857434E-03  mag=    78.0000
       N       E                     dE             d eps       ncg     rms          rms(c)
DAV:   1    -0.442615173380E+03    0.20727E+00   -0.50563E+01 33848   0.179E+01    0.191E+00
DAV:   2    -0.442834762017E+03   -0.21959E+00   -0.21562E+00 31240   0.308E+00    0.138E+00
DAV:   3    -0.442837419972E+03   -0.26580E-02   -0.53785E-02 38696   0.701E-01    0.107E+00
DAV:   4    -0.442836077688E+03    0.13423E-02   -0.75789E-03 40664   0.284E-01    0.408E-01
DAV:   5    -0.442834953133E+03    0.11246E-02   -0.15681E-03 36080   0.127E-01    0.318E-01
DAV:   6    -0.442834271862E+03    0.68127E-03   -0.14790E-03 36184   0.135E-01    0.142E-01
DAV:   7    -0.442834292591E+03   -0.20729E-04   -0.74655E-04 37216   0.727E-02    0.946E-02
DAV:   8    -0.442834296214E+03   -0.36227E-05   -0.14266E-04 36144   0.366E-02    0.479E-02
DAV:   9    -0.442834295429E+03    0.78492E-06   -0.16796E-05 22696   0.145E-02
  34 F= -.44283430E+03 E0= -.44282417E+03  d E =-.118580E-01  mag=    78.0000
       N       E                     dE             d eps       ncg     rms          rms(c)
DAV:   1    -0.442793842574E+03    0.40454E-01   -0.34074E+00 34352   0.683E+00    0.955E-01
DAV:   2    -0.442831918554E+03   -0.38076E-01   -0.35117E-01 31424   0.120E+00    0.449E-01
DAV:   3    -0.442833371865E+03   -0.14533E-02   -0.10446E-02 37496   0.236E-01    0.266E-01
DAV:   4    -0.442833331695E+03    0.40170E-04   -0.82297E-04 41440   0.756E-02    0.161E-01
DAV:   5    -0.442833247029E+03    0.84666E-04   -0.92049E-05 36200   0.324E-02    0.125E-01
DAV:   6    -0.442833155333E+03    0.91697E-04   -0.13921E-04 34728   0.516E-02    0.902E-02
DAV:   7    -0.442833146180E+03    0.91527E-05   -0.11410E-04 36480   0.365E-02    0.330E-02
DAV:   8    -0.442833147158E+03   -0.97796E-06   -0.22464E-05 22912   0.156E-02
  35 F= -.44283315E+03 E0= -.44282300E+03  d E =0.114827E-02  mag=    78.0000
       N       E                     dE             d eps       ncg     rms          rms(c)
DAV:   1    -0.442828250108E+03    0.48961E-02   -0.39952E-01 34064   0.235E+00    0.354E-01
DAV:   2    -0.442833219193E+03   -0.49691E-02   -0.45785E-02 31448   0.420E-01    0.163E-01
DAV:   3    -0.442833410932E+03   -0.19174E-03   -0.13780E-03 37240   0.792E-02    0.890E-02
DAV:   4    -0.442833403491E+03    0.74405E-05   -0.82893E-05 29792   0.227E-02
  36 F= -.44283340E+03 E0= -.44282326E+03  d E =-.256333E-03  mag=    78.0000
