       N       E                     dE             d eps       ncg     rms          rms(c)
DAV:   1     0.371803758705E+04    0.37180E+04   -0.15278E+05 28544   0.153E+03
DAV:   2     0.227401232178E+03   -0.34906E+04   -0.33358E+04 28056   0.470E+02
DAV:   3    -0.217581817714E+03   -0.44498E+03   -0.43359E+03 31016   0.176E+02
DAV:   4    -0.238117481031E+03   -0.20536E+02   -0.20116E+02 36832   0.408E+01
DAV:   5    -0.239364644689E+03   -0.12472E+01   -0.12286E+01 48936   0.765E+00    0.494E+01
DAV:   6    -0.219888262505E+03    0.19476E+02   -0.14200E+02 38488   0.371E+01    0.248E+01
DAV:   7    -0.223275482371E+03   -0.33872E+01   -0.12097E+01 38088   0.150E+01    0.214E+01
DAV:   8    -0.222502790149E+03    0.77269E+00   -0.30783E+00 38848   0.751E+00    0.132E+01
DAV:   9    -0.223009564243E+03   -0.50677E+00   -0.19484E+00 37952   0.532E+00    0.125E+01
DAV:  10    -0.223099576709E+03   -0.90012E-01   -0.57767E+00 37776   0.536E+00    0.122E+01
DAV:  11    -0.223093559395E+03    0.60173E-02   -0.47392E+00 38288   0.350E+00    0.105E+01
DAV:  12    -0.223038790870E+03    0.54769E-01   -0.25890E+00 37440   0.247E+00    0.826E+00
DAV:  13    -0.222846624169E+03    0.19217E+00   -0.27577E-01 38616   0.211E+00    0.555E+00
DAV:  14    -0.222827160541E+03    0.19464E-01   -0.35518E-01 38504   0.141E+00    0.439E+00
DAV:  15    -0.222805839494E+03    0.21321E-01   -0.28390E-02 38240   0.598E-01    0.332E+00
DAV:  16    -0.222795240390E+03    0.10599E-01   -0.40104E-02 40704   0.868E-01    0.213E+00
DAV:  17    -0.222794242765E+03    0.99763E-03   -0.33483E-02 38544   0.720E-01    0.171E+00
DAV:  18    -0.222790027248E+03    0.42155E-02   -0.17975E-02 38296   0.507E-01    0.746E-01
DAV:  19    -0.222791673896E+03   -0.16466E-02   -0.10194E-02 37456   0.312E-01    0.679E-01
DAV:  20    -0.222791901770E+03   -0.22787E-03   -0.42065E-03 36936   0.249E-01    0.435E-01
DAV:  21    -0.222792575045E+03   -0.67327E-03   -0.50574E-03 38680   0.241E-01    0.667E-01
DAV:  22    -0.222791996328E+03    0.57872E-03   -0.34449E-03 38208   0.177E-01    0.235E-01
DAV:  23    -0.222792208648E+03   -0.21232E-03   -0.10977E-03 36640   0.110E-01    0.251E-01
DAV:  24    -0.222792184101E+03    0.24548E-04   -0.90732E-04 34536   0.108E-01    0.169E-01
DAV:  25    -0.222792151745E+03    0.32355E-04   -0.18832E-04 29200   0.476E-02    0.528E-02
DAV:  26    -0.222792158017E+03   -0.62718E-05   -0.52039E-05 22832   0.218E-02
   1 F= -.22279216E+03 E0= -.22277435E+03  d E =-.222792E+03  mag=    22.0029
       N       E                     dE             d eps       ncg     rms          rms(c)
DAV:   1    -0.222792710915E+03   -0.55917E-03   -0.15638E-02 30224   0.502E-01    0.398E-02
DAV:   2    -0.222792822210E+03   -0.11130E-03   -0.89186E-04 32864   0.106E-01    0.147E-01
DAV:   3    -0.222792788244E+03    0.33967E-04   -0.15414E-04 25928   0.465E-02    0.475E-02
DAV:   4    -0.222792791119E+03   -0.28755E-05   -0.22302E-05 19144   0.206E-02
   2 F= -.22279279E+03 E0= -.22277498E+03  d E =-.633102E-03  mag=    22.0007
       N       E                     dE             d eps       ncg     rms          rms(c)
DAV:   1    -0.222791050391E+03    0.17379E-02   -0.12482E+00 29488   0.444E+00    0.291E-01
DAV:   2    -0.222797769590E+03   -0.67192E-02   -0.60614E-02 29112   0.831E-01    0.715E-01
DAV:   3    -0.222797121902E+03    0.64769E-03   -0.40511E-03 38088   0.227E-01    0.343E-01
DAV:   4    -0.222797193546E+03   -0.71644E-04   -0.82987E-04 36440   0.111E-01    0.283E-01
DAV:   5    -0.222797188058E+03    0.54879E-05   -0.28660E-04 34624   0.965E-02    0.248E-01
DAV:   6    -0.222797219296E+03   -0.31238E-04   -0.39617E-04 37944   0.902E-02    0.263E-01
DAV:   7    -0.222797241105E+03   -0.21809E-04   -0.13795E-03 38384   0.116E-01    0.290E-01
DAV:   8    -0.222797132803E+03    0.10830E-03   -0.81261E-04 36544   0.962E-02    0.108E-01
DAV:   9    -0.222797137066E+03   -0.42629E-05   -0.10677E-04 27664   0.525E-02    0.713E-02
DAV:  10    -0.222797132778E+03    0.42879E-05   -0.61208E-05 22976   0.302E-02
   3 F= -.22279713E+03 E0= -.22277936E+03  d E =-.434166E-02  mag=    22.0000
       N       E                     dE             d eps       ncg     rms          rms(c)
DAV:   1    -0.222790165812E+03    0.69713E-02   -0.21817E+00 29264   0.553E+00    0.339E-01
DAV:   2    -0.222800263951E+03   -0.10098E-01   -0.91011E-02 29472   0.104E+00    0.895E-01
DAV:   3    -0.222799164489E+03    0.10995E-02   -0.54317E-03 37872   0.266E-01    0.392E-01
DAV:   4    -0.222799331872E+03   -0.16738E-03   -0.11080E-03 37656   0.133E-01    0.384E-01
DAV:   5    -0.222799310387E+03    0.21485E-04   -0.50352E-04 36384   0.114E-01    0.338E-01
DAV:   6    -0.222799357594E+03   -0.47207E-04   -0.76526E-04 37776   0.933E-02    0.363E-01
DAV:   7    -0.222799372713E+03   -0.15119E-04   -0.19543E-03 38296   0.138E-01    0.363E-01
DAV:   8    -0.222799199159E+03    0.17355E-03   -0.88708E-04 37960   0.129E-01    0.147E-01
DAV:   9    -0.222799221898E+03   -0.22738E-04   -0.38728E-04 32936   0.738E-02    0.153E-01
DAV:  10    -0.222799192438E+03    0.29459E-04   -0.19411E-04 26008   0.456E-02    0.659E-02
DAV:  11    -0.222799187214E+03    0.52245E-05   -0.26299E-05 20488   0.292E-02
   4 F= -.22279919E+03 E0= -.22278143E+03  d E =-.205444E-02  mag=    22.0000
       N       E                     dE             d eps       ncg     rms          rms(c)
DAV:   1    -0.222797101491E+03    0.20909E-02   -0.59168E-01 28552   0.242E+00    0.130E-01
DAV:   2    -0.222799006176E+03   -0.19047E-02   -0.17594E-02 31680   0.459E-01    0.382E-01
DAV:   3    -0.222798813423E+03    0.19275E-03   -0.73878E-04 36456   0.106E-01    0.195E-01
DAV:   4    -0.222798828991E+03   -0.15568E-04   -0.12051E-04 26928   0.469E-02    0.201E-01
DAV:   5    -0.222798832397E+03   -0.34058E-05   -0.89865E-05 24768   0.441E-02
   5 F= -.22279883E+03 E0= -.22278109E+03  d E =0.354817E-03  mag=    22.0000
       N       E                     dE             d eps       ncg     rms          rms(c)
DAV:   1    -0.222753021750E+03    0.45807E-01   -0.10263E+01 29352   0.111E+01    0.693E-01
DAV:   2    -0.222788064926E+03   -0.35043E-01   -0.34543E-01 29296   0.197E+00    0.113E+00
DAV:   3    -0.222788219678E+03   -0.15475E-03   -0.19327E-02 38208   0.433E-01    0.103E+00
DAV:   4    -0.222787403207E+03    0.81647E-03   -0.32012E-03 38632   0.190E-01    0.683E-01
DAV:   5    -0.222788009051E+03   -0.60584E-03   -0.29738E-03 39304   0.221E-01    0.867E-01
DAV:   6    -0.222788660627E+03   -0.65158E-03   -0.91099E-03 39224   0.316E-01    0.105E+00
DAV:   7    -0.222786917442E+03    0.17432E-02   -0.77727E-03 37360   0.353E-01    0.389E-01
DAV:   8    -0.222787235283E+03   -0.31784E-03   -0.32216E-03 38360   0.190E-01    0.510E-01
DAV:   9    -0.222786911949E+03    0.32333E-03   -0.20950E-03 38512   0.132E-01    0.206E-01
DAV:  10    -0.222786879846E+03    0.32103E-04   -0.21384E-04 36984   0.737E-02    0.928E-02
DAV:  11    -0.222786870681E+03    0.91651E-05   -0.35871E-05 25664   0.328E-02
   6 F= -.22278687E+03 E0= -.22276916E+03  d E =0.119617E-01  mag=    22.0000
       N       E                     dE             d eps       ncg     rms          rms(c)
DAV:   1    -0.221876691371E+03    0.91019E+00   -0.17760E+02 29432   0.511E+01    0.335E+00
DAV:   2    -0.222773521155E+03   -0.89683E+00   -0.83965E+00 28768   0.965E+00    0.690E+00
DAV:   3    -0.222726457482E+03    0.47064E-01   -0.64815E-01 37352   0.240E+00    0.441E+00
DAV:   4    -0.222718953402E+03    0.75041E-02   -0.16405E-01 38344   0.116E+00    0.333E+00
DAV:   5    -0.222716790656E+03    0.21627E-02   -0.81733E-02 38752   0.893E-01    0.307E+00
DAV:   6    -0.222715969177E+03    0.82148E-03   -0.62355E-02 38704   0.731E-01    0.276E+00
DAV:   7    -0.222712377892E+03    0.35913E-02   -0.42369E-02 38720   0.751E-01    0.257E+00
DAV:   8    -0.222716155174E+03   -0.37773E-02   -0.12996E-01 37136   0.113E+00    0.284E+00
DAV:   9    -0.222706007837E+03    0.10147E-01   -0.40689E-02 38320   0.718E-01    0.147E+00
DAV:  10    -0.222705837639E+03    0.17020E-03   -0.17388E-02 38344   0.505E-01    0.686E-01
DAV:  11    -0.222706234661E+03   -0.39702E-03   -0.30417E-03 38216   0.312E-01    0.480E-01
DAV:  12    -0.222706289176E+03   -0.54515E-04   -0.10979E-03 37912   0.147E-01    0.372E-01
DAV:  13    -0.222706498736E+03   -0.20956E-03   -0.21557E-03 38432   0.169E-01    0.442E-01
DAV:  14    -0.222706188374E+03    0.31036E-03   -0.64304E-04 38064   0.147E-01    0.255E-01
DAV:  15    -0.222706099982E+03    0.88392E-04   -0.53907E-04 38296   0.917E-02    0.113E-01
DAV:  16    -0.222706126283E+03   -0.26301E-04   -0.19326E-04 31760   0.506E-02    0.854E-02
DAV:  17    -0.222706112482E+03    0.13801E-04   -0.47410E-05 23104   0.271E-02    0.499E-02
DAV:  18    -0.222706106346E+03    0.61358E-05   -0.27451E-05 19416   0.219E-02
   7 F= -.22270611E+03 E0= -.22268794E+03  d E =0.807643E-01  mag=    22.0000
       N       E                     dE             d eps       ncg     rms          rms(c)
DAV:   1    -0.222674906744E+03    0.31206E-01   -0.12856E+01 29760   0.159E+01    0.119E+00
DAV:   2    -0.222773113950E+03   -0.98207E-01   -0.89521E-01 29056   0.299E+00    0.312E+00
DAV:   3    -0.222760462784E+03    0.12651E-01   -0.12444E-01 38352   0.943E-01    0.145E+00
DAV:   4    -0.222761820848E+03   -0.13581E-02   -0.17227E-02 38896   0.469E-01    0.104E+00
DAV:   5    -0.222761434739E+03    0.38611E-03   -0.10622E-02 38672   0.336E-01    0.879E-01
DAV:   6    -0.222761071224E+03    0.36351E-03   -0.49053E-03 38776   0.247E-01    0.655E-01
DAV:   7    -0.222761972327E+03   -0.90110E-03   -0.10245E-02 38856   0.287E-01    0.970E-01
DAV:   8    -0.222760659056E+03    0.13133E-02   -0.96277E-03 38544   0.270E-01    0.426E-01
DAV:   9    -0.222760900325E+03   -0.24127E-03   -0.21804E-03 38488   0.214E-01    0.359E-01
DAV:  10    -0.222760751062E+03    0.14926E-03   -0.98339E-04 38184   0.138E-01    0.145E-01
DAV:  11    -0.222760772516E+03   -0.21454E-04   -0.13202E-04 32312   0.723E-02    0.110E-01
DAV:  12    -0.222760775965E+03   -0.34493E-05   -0.82370E-05 26312   0.460E-02
   8 F= -.22276078E+03 E0= -.22274273E+03  d E =-.546696E-01  mag=    22.0000
       N       E                     dE             d eps       ncg     rms          rms(c)
DAV:   1    -0.222727618974E+03    0.33154E-01   -0.11173E+01 29568   0.140E+01    0.967E-01
DAV:   2    -0.222797083706E+03   -0.69465E-01   -0.63332E-01 28808   0.260E+00    0.240E+00
DAV:   3    -0.222789520569E+03    0.75631E-02   -0.65227E-02 38384   0.729E-01    0.113E+00
DAV:   4    -0.222790423374E+03   -0.90281E-03   -0.10433E-02 38384   0.382E-01    0.853E-01
DAV:   5    -0.222790324917E+03    0.98457E-04   -0.55702E-03 38720   0.289E-01    0.789E-01
DAV:   6    -0.222790215349E+03    0.10957E-03   -0.45097E-03 39600   0.212E-01    0.682E-01
DAV:   7    -0.222789977976E+03    0.23737E-03   -0.30608E-03 36040   0.260E-01    0.496E-01
DAV:   8    -0.222789930359E+03    0.47617E-04   -0.44037E-03 38008   0.246E-01    0.475E-01
DAV:   9    -0.222789904385E+03    0.25974E-04   -0.39712E-03 38568   0.170E-01    0.372E-01
DAV:  10    -0.222789731569E+03    0.17282E-03   -0.12372E-03 37840   0.120E-01    0.132E-01
DAV:  11    -0.222789742311E+03   -0.10741E-04   -0.10729E-04 31464   0.647E-02    0.890E-02
DAV:  12    -0.222789745109E+03   -0.27982E-05   -0.62897E-05 25424   0.423E-02
   9 F= -.22278975E+03 E0= -.22277183E+03  d E =-.289691E-01  mag=    22.0000
       N       E                     dE             d eps       ncg     rms          rms(c)
DAV:   1    -0.222789890867E+03   -0.14856E-03   -0.15247E+00 29400   0.440E+00    0.262E-01
DAV:   2    -0.222796051400E+03   -0.61605E-02   -0.56712E-02 29240   0.811E-01    0.659E-01
DAV:   3    -0.222795507131E+03    0.54427E-03   -0.32979E-03 37768   0.198E-01    0.326E-01
DAV:   4    -0.222795543723E+03   -0.36592E-04   -0.57536E-04 35064   0.929E-02    0.276E-01
DAV:   5    -0.222795559799E+03   -0.16076E-04   -0.23501E-04 33056   0.852E-02    0.270E-01
DAV:   6    -0.222795596428E+03   -0.36629E-04   -0.49806E-04 35096   0.777E-02    0.308E-01
DAV:   7    -0.222795554491E+03    0.41938E-04   -0.10976E-03 38640   0.105E-01    0.263E-01
DAV:   8    -0.222795476497E+03    0.77994E-04   -0.48845E-04 37912   0.102E-01    0.117E-01
DAV:   9    -0.222795481709E+03   -0.52121E-05   -0.17253E-04 28632   0.555E-02    0.101E-01
DAV:  10    -0.222795470898E+03    0.10811E-04   -0.94326E-05 23776   0.350E-02    0.591E-02
DAV:  11    -0.222795466994E+03    0.39041E-05   -0.19404E-05 16640   0.193E-02
  10 F= -.22279547E+03 E0= -.22277762E+03  d E =-.572189E-02  mag=    22.0000
       N       E                     dE             d eps       ncg     rms          rms(c)
DAV:   1    -0.222783663749E+03    0.11807E-01   -0.51565E+00 29376   0.739E+00    0.390E-01
DAV:   2    -0.222800518858E+03   -0.16855E-01   -0.15737E-01 30072   0.136E+00    0.101E+00
DAV:   3    -0.222799273707E+03    0.12452E-02   -0.48093E-03 36352   0.264E-01    0.556E-01
DAV:   4    -0.222799503622E+03   -0.22991E-03   -0.12669E-03 38232   0.133E-01    0.630E-01
DAV:   5    -0.222799435818E+03    0.67804E-04   -0.72387E-04 37904   0.124E-01    0.575E-01
DAV:   6    -0.222799487404E+03   -0.51586E-04   -0.14729E-03 38392   0.136E-01    0.591E-01
DAV:   7    -0.222799385043E+03    0.10236E-03   -0.48151E-03 38032   0.202E-01    0.552E-01
DAV:   8    -0.222798953185E+03    0.43186E-03   -0.20386E-03 37512   0.180E-01    0.179E-01
DAV:   9    -0.222798965638E+03   -0.12453E-04   -0.36859E-04 37264   0.912E-02    0.117E-01
DAV:  10    -0.222798959151E+03    0.64873E-05   -0.14049E-04 28808   0.463E-02    0.872E-02
DAV:  11    -0.222798950471E+03    0.86799E-05   -0.43239E-05 20168   0.278E-02
  11 F= -.22279895E+03 E0= -.22278110E+03  d E =-.348348E-02  mag=    22.0000
       N       E                     dE             d eps       ncg     rms          rms(c)
DAV:   1    -0.222796144715E+03    0.28144E-02   -0.74590E-01 29272   0.258E+00    0.140E-01
DAV:   2    -0.222798470324E+03   -0.23256E-02   -0.21538E-02 32064   0.495E-01    0.478E-01
DAV:   3    -0.222798148074E+03    0.32225E-03   -0.11164E-03 36792   0.123E-01    0.209E-01
DAV:   4    -0.222798175680E+03   -0.27606E-04   -0.12163E-04 28536   0.488E-02    0.213E-01
DAV:   5    -0.222798180966E+03   -0.52865E-05   -0.12108E-04 25712   0.468E-02    0.216E-01
DAV:   6    -0.222798175656E+03    0.53101E-05   -0.99581E-05 21904   0.328E-02
  12 F= -.22279818E+03 E0= -.22278033E+03  d E =0.774815E-03  mag=    22.0000
       N       E                     dE             d eps       ncg     rms          rms(c)
DAV:   1    -0.222789821743E+03    0.83592E-02   -0.22672E+00 29480   0.511E+00    0.357E-01
DAV:   2    -0.222799109439E+03   -0.92877E-02   -0.83410E-02 31328   0.981E-01    0.128E+00
DAV:   3    -0.222796593207E+03    0.25162E-02   -0.15758E-02 37576   0.400E-01    0.392E-01
DAV:   4    -0.222796789797E+03   -0.19659E-03   -0.11392E-03 39760   0.148E-01    0.276E-01
DAV:   5    -0.222796726073E+03    0.63725E-04   -0.56023E-04 35256   0.785E-02    0.211E-01
DAV:   6    -0.222796695287E+03    0.30786E-04   -0.30731E-04 28072   0.623E-02    0.176E-01
DAV:   7    -0.222796654291E+03    0.40996E-04   -0.31225E-04 36376   0.963E-02    0.129E-01
DAV:   8    -0.222796635260E+03    0.19031E-04   -0.16683E-04 38184   0.772E-02    0.608E-02
DAV:   9    -0.222796645422E+03   -0.10162E-04   -0.85523E-05 23576   0.318E-02    0.908E-02
DAV:  10    -0.222796632637E+03    0.12784E-04   -0.46311E-05 20432   0.261E-02    0.344E-02
DAV:  11    -0.222796633016E+03   -0.37834E-06   -0.86397E-06 15800   0.178E-02
  13 F= -.22279663E+03 E0= -.22277885E+03  d E =0.154264E-02  mag=    22.0000
       N       E                     dE             d eps       ncg     rms          rms(c)
DAV:   1    -0.221800044382E+03    0.99659E+00   -0.23548E+02 29376   0.528E+01    0.310E+00
DAV:   2    -0.222708146070E+03   -0.90810E+00   -0.88585E+00 28824   0.983E+00    0.589E+00
DAV:   3    -0.222701992557E+03    0.61535E-02   -0.60123E-01 38264   0.216E+00    0.530E+00
DAV:   4    -0.222672037238E+03    0.29955E-01   -0.17681E-01 38480   0.112E+00    0.298E+00
DAV:   5    -0.222675900933E+03   -0.38637E-02   -0.51954E-02 41040   0.895E-01    0.308E+00
DAV:   6    -0.222679166580E+03   -0.32656E-02   -0.83195E-02 38800   0.792E-01    0.368E+00
DAV:   7    -0.222666739124E+03    0.12427E-01   -0.10742E-01 38840   0.851E-01    0.286E+00
DAV:   8    -0.222662496203E+03    0.42429E-02   -0.91048E-02 38160   0.988E-01    0.235E+00
DAV:   9    -0.222659713534E+03    0.27827E-02   -0.48065E-02 38424   0.842E-01    0.184E+00
DAV:  10    -0.222657417993E+03    0.22955E-02   -0.28731E-02 38312   0.593E-01    0.101E+00
DAV:  11    -0.222657613036E+03   -0.19504E-03   -0.43831E-03 38464   0.352E-01    0.618E-01
DAV:  12    -0.222657763651E+03   -0.15061E-03   -0.25114E-03 38248   0.235E-01    0.559E-01
DAV:  13    -0.222657952096E+03   -0.18845E-03   -0.30052E-03 38336   0.219E-01    0.343E-01
DAV:  14    -0.222657802459E+03    0.14964E-03   -0.77276E-04 37728   0.138E-01    0.208E-01
DAV:  15    -0.222657749851E+03    0.52608E-04   -0.27896E-04 37912   0.715E-02    0.141E-01
DAV:  16    -0.222657718955E+03    0.30896E-04   -0.21790E-04 34416   0.492E-02    0.102E-01
DAV:  17    -0.222657700641E+03    0.18313E-04   -0.85149E-05 32448   0.385E-02    0.604E-02
DAV:  18    -0.222657695275E+03    0.53659E-05   -0.28391E-05 24264   0.275E-02
  14 F= -.22265770E+03 E0= -.22263930E+03  d E =0.138938E+00  mag=    22.0000
       N       E                     dE             d eps       ncg     rms          rms(c)
DAV:   1    -0.222618650142E+03    0.39050E-01   -0.32533E+01 29376   0.214E+01    0.130E+00
DAV:   2    -0.222759159594E+03   -0.14051E+00   -0.13343E+00 28584   0.386E+00    0.254E+00
DAV:   3    -0.222756047330E+03    0.31123E-02   -0.11443E-01 39272   0.845E-01    0.180E+00
DAV:   4    -0.222754685327E+03    0.13620E-02   -0.21035E-02 38552   0.482E-01    0.123E+00
DAV:   5    -0.222754836734E+03   -0.15141E-03   -0.10804E-02 39392   0.399E-01    0.121E+00
DAV:   6    -0.222754736636E+03    0.10010E-03   -0.93104E-03 39056   0.306E-01    0.113E+00
DAV:   7    -0.222754315168E+03    0.42147E-03   -0.12189E-02 34504   0.436E-01    0.995E-01
DAV:   8    -0.222753954590E+03    0.36058E-03   -0.11342E-02 37960   0.404E-01    0.899E-01
DAV:   9    -0.222753343973E+03    0.61062E-03   -0.10663E-02 38656   0.272E-01    0.619E-01
DAV:  10    -0.222752909751E+03    0.43422E-03   -0.19693E-03 38616   0.183E-01    0.199E-01
DAV:  11    -0.222752956747E+03   -0.46996E-04   -0.20967E-04 38440   0.787E-02    0.165E-01
DAV:  12    -0.222752931341E+03    0.25406E-04   -0.10996E-04 27904   0.520E-02    0.112E-01
DAV:  13    -0.222752917126E+03    0.14215E-04   -0.61218E-05 25336   0.447E-02    0.774E-02
DAV:  14    -0.222752915694E+03    0.14328E-05   -0.61350E-05 25424   0.414E-02
  15 F= -.22275292E+03 E0= -.22273481E+03  d E =-.952204E-01  mag=    22.0000
       N       E                     dE             d eps       ncg     rms          rms(c)
DAV:   1    -0.222746159149E+03    0.67580E-02   -0.10366E+01 29024   0.114E+01    0.659E-01
DAV:   2    -0.222786093813E+03   -0.39935E-01   -0.37872E-01 28792   0.208E+00    0.131E+00
DAV:   3    -0.222784719673E+03    0.13741E-02   -0.19209E-02 38776   0.414E-01    0.855E-01
DAV:   4    -0.222784790076E+03   -0.70403E-04   -0.56358E-03 38512   0.234E-01    0.763E-01
DAV:   5    -0.222784752722E+03    0.37354E-04   -0.23621E-03 39752   0.212E-01    0.696E-01
DAV:   6    -0.222785043514E+03   -0.29079E-03   -0.39031E-03 38856   0.187E-01    0.797E-01
DAV:   7    -0.222784524982E+03    0.51853E-03   -0.64599E-03 35272   0.277E-01    0.542E-01
DAV:   8    -0.222784208796E+03    0.31619E-03   -0.22084E-03 37920   0.227E-01    0.283E-01
DAV:   9    -0.222784159769E+03    0.49027E-04   -0.11118E-03 38216   0.131E-01    0.223E-01
DAV:  10    -0.222784102134E+03    0.57636E-04   -0.34292E-04 35408   0.641E-02    0.974E-02
DAV:  11    -0.222784098179E+03    0.39545E-05   -0.59130E-05 24104   0.358E-02
  16 F= -.22278410E+03 E0= -.22276613E+03  d E =-.311825E-01  mag=    22.0000
       N       E                     dE             d eps       ncg     rms          rms(c)
DAV:   1    -0.222780367573E+03    0.37346E-02   -0.49433E+00 29272   0.730E+00    0.395E-01
DAV:   2    -0.222796820346E+03   -0.16453E-01   -0.15570E-01 29712   0.134E+00    0.960E-01
DAV:   3    -0.222795779931E+03    0.10404E-02   -0.60931E-03 37440   0.256E-01    0.527E-01
DAV:   4    -0.222795958609E+03   -0.17868E-03   -0.14496E-03 37560   0.126E-01    0.574E-01
DAV:   5    -0.222795974359E+03   -0.15751E-04   -0.90456E-04 38072   0.129E-01    0.554E-01
DAV:   6    -0.222796076811E+03   -0.10245E-03   -0.17219E-03 38992   0.118E-01    0.589E-01
DAV:   7    -0.222795792469E+03    0.28434E-03   -0.26845E-03 35128   0.188E-01    0.408E-01
DAV:   8    -0.222795563080E+03    0.22939E-03   -0.11456E-03 37984   0.171E-01    0.176E-01
DAV:   9    -0.222795561607E+03    0.14731E-05   -0.42661E-04 37304   0.850E-02    0.143E-01
DAV:  10    -0.222795542859E+03    0.18747E-04   -0.14848E-04 28944   0.447E-02    0.747E-02
DAV:  11    -0.222795541001E+03    0.18585E-05   -0.21812E-05 19048   0.233E-02
  17 F= -.22279554E+03 E0= -.22277764E+03  d E =-.114428E-01  mag=    22.0000
       N       E                     dE             d eps       ncg     rms          rms(c)
DAV:   1    -0.222783632506E+03    0.11910E-01   -0.53760E+00 29328   0.715E+00    0.366E-01
DAV:   2    -0.222799855632E+03   -0.16223E-01   -0.15379E-01 30680   0.132E+00    0.958E-01
DAV:   3    -0.222798824443E+03    0.10312E-02   -0.41500E-03 36016   0.235E-01    0.561E-01
DAV:   4    -0.222799034582E+03   -0.21014E-03   -0.11322E-03 37488   0.119E-01    0.650E-01
DAV:   5    -0.222798986560E+03    0.48022E-04   -0.73851E-04 37376   0.117E-01    0.605E-01
DAV:   6    -0.222799172759E+03   -0.18620E-03   -0.18578E-03 39040   0.136E-01    0.681E-01
DAV:   7    -0.222798724196E+03    0.44856E-03   -0.32604E-03 36960   0.188E-01    0.450E-01
DAV:   8    -0.222798456052E+03    0.26814E-03   -0.13644E-03 38288   0.176E-01    0.187E-01
DAV:   9    -0.222798512264E+03   -0.56212E-04   -0.83626E-04 37824   0.998E-02    0.243E-01
DAV:  10    -0.222798427178E+03    0.85086E-04   -0.32957E-04 31248   0.628E-02    0.769E-02
DAV:  11    -0.222798433313E+03   -0.61346E-05   -0.15861E-05 20448   0.233E-02
  18 F= -.22279843E+03 E0= -.22278055E+03  d E =-.289231E-02  mag=    22.0000
       N       E                     dE             d eps       ncg     rms          rms(c)
DAV:   1    -0.222797901201E+03    0.52598E-03   -0.75199E-02 29952   0.116E+00    0.961E-02
DAV:   2    -0.222798463810E+03   -0.56261E-03   -0.49887E-03 32160   0.230E-01    0.326E-01
DAV:   3    -0.222798308373E+03    0.15544E-03   -0.10247E-03 35776   0.103E-01    0.830E-02
DAV:   4    -0.222798341498E+03   -0.33126E-04   -0.98623E-05 26056   0.438E-02    0.911E-02
DAV:   5    -0.222798332796E+03    0.87021E-05   -0.74058E-05 22592   0.343E-02
  19 F= -.22279833E+03 E0= -.22278043E+03  d E =0.100517E-03  mag=    22.0000
       N       E                     dE             d eps       ncg     rms          rms(c)
DAV:   1    -0.222798008931E+03    0.33257E-03   -0.18115E-01 29424   0.143E+00    0.824E-02
DAV:   2    -0.222798644535E+03   -0.63560E-03   -0.58562E-03 31488   0.267E-01    0.228E-01
DAV:   3    -0.222798571981E+03    0.72554E-04   -0.43777E-04 37776   0.777E-02    0.102E-01
DAV:   4    -0.222798574615E+03   -0.26334E-05   -0.93601E-05 24680   0.359E-02
  20 F= -.22279857E+03 E0= -.22278068E+03  d E =-.241818E-03  mag=    22.0000
       N       E                     dE             d eps       ncg     rms          rms(c)
DAV:   1    -0.222797406472E+03    0.11655E-02   -0.39489E-01 29376   0.213E+00    0.130E-01
DAV:   2    -0.222798633818E+03   -0.12273E-02   -0.12226E-02 28728   0.376E-01    0.172E-01
DAV:   3    -0.222798626324E+03    0.74944E-05   -0.27878E-04 36672   0.765E-02    0.139E-01
DAV:   4    -0.222798625775E+03    0.54869E-06   -0.16913E-04 26488   0.442E-02    0.144E-01
DAV:   5    -0.222798629062E+03   -0.32873E-05   -0.19425E-04 26632   0.489E-02    0.150E-01
DAV:   6    -0.222798645692E+03   -0.16630E-04   -0.32649E-04 35472   0.641E-02    0.191E-01
DAV:   7    -0.222798592857E+03    0.52836E-04   -0.31197E-04 34344   0.578E-02    0.730E-02
DAV:   8    -0.222798595715E+03   -0.28585E-05   -0.53655E-05 23496   0.387E-02
  21 F= -.22279860E+03 E0= -.22278072E+03  d E =-.211004E-04  mag=    22.0000
       N       E                     dE             d eps       ncg     rms          rms(c)
DAV:   1    -0.222792145594E+03    0.64473E-02   -0.11106E+00 29328   0.440E+00    0.302E-01
DAV:   2    -0.222798970629E+03   -0.68250E-02   -0.60749E-02 28360   0.788E-01    0.875E-01
DAV:   3    -0.222797990425E+03    0.98020E-03   -0.76347E-03 38472   0.266E-01    0.316E-01
DAV:   4    -0.222798095095E+03   -0.10467E-03   -0.66791E-04 39528   0.970E-02    0.122E-01
DAV:   5    -0.222798105777E+03   -0.10682E-04   -0.32168E-04 28784   0.618E-02    0.149E-01
DAV:   6    -0.222798093472E+03    0.12305E-04   -0.32345E-04 31664   0.594E-02    0.122E-01
DAV:   7    -0.222798076410E+03    0.17061E-04   -0.15288E-04 32744   0.596E-02    0.669E-02
DAV:   8    -0.222798092073E+03   -0.15662E-04   -0.74776E-05 26088   0.430E-02    0.780E-02
DAV:   9    -0.222798085215E+03    0.68579E-05   -0.48972E-05 21768   0.327E-02
  22 F= -.22279809E+03 E0= -.22278025E+03  d E =0.510500E-03  mag=    22.0000
       N       E                     dE             d eps       ncg     rms          rms(c)
DAV:   1    -0.222785484403E+03    0.12608E-01   -0.29105E+00 29328   0.660E+00    0.408E-01
DAV:   2    -0.222798120749E+03   -0.12636E-01   -0.12025E-01 27672   0.114E+00    0.827E-01
DAV:   3    -0.222797985163E+03    0.13559E-03   -0.13457E-02 40216   0.347E-01    0.670E-01
DAV:   4    -0.222797529275E+03    0.45589E-03   -0.26214E-03 39976   0.163E-01    0.206E-01
DAV:   5    -0.222797566614E+03   -0.37340E-04   -0.64614E-04 39360   0.946E-02    0.213E-01
DAV:   6    -0.222797553313E+03    0.13301E-04   -0.67789E-04 36328   0.847E-02    0.205E-01
DAV:   7    -0.222797490204E+03    0.63109E-04   -0.35962E-04 37008   0.904E-02    0.113E-01
DAV:   8    -0.222797525890E+03   -0.35686E-04   -0.34052E-04 37776   0.729E-02    0.155E-01
DAV:   9    -0.222797505127E+03    0.20763E-04   -0.27025E-04 26632   0.540E-02    0.870E-02
DAV:  10    -0.222797496649E+03    0.84780E-05   -0.52335E-05 22016   0.346E-02
  23 F= -.22279750E+03 E0= -.22277963E+03  d E =0.588566E-03  mag=    22.0000
       N       E                     dE             d eps       ncg     rms          rms(c)
DAV:   1    -0.222642941964E+03    0.15456E+00   -0.23827E+01 29336   0.216E+01    0.147E+00
DAV:   2    -0.222784292051E+03   -0.14135E+00   -0.13721E+00 27672   0.374E+00    0.126E+00
DAV:   3    -0.222801450050E+03   -0.17158E-01   -0.90435E-02 39832   0.981E-01    0.307E+00
DAV:   4    -0.222788751517E+03    0.12699E-01   -0.77018E-02 38720   0.655E-01    0.977E-01
DAV:   5    -0.222789209098E+03   -0.45758E-03   -0.94914E-03 40800   0.346E-01    0.629E-01
DAV:   6    -0.222789553811E+03   -0.34471E-03   -0.66542E-03 38968   0.247E-01    0.697E-01
DAV:   7    -0.222789053043E+03    0.50077E-03   -0.58591E-03 38072   0.264E-01    0.450E-01
DAV:   8    -0.222789462824E+03   -0.40978E-03   -0.42284E-03 38672   0.249E-01    0.593E-01
DAV:   9    -0.222789289203E+03    0.17362E-03   -0.45070E-03 38856   0.193E-01    0.407E-01
DAV:  10    -0.222789042070E+03    0.24713E-03   -0.82655E-04 38464   0.128E-01    0.783E-02
DAV:  11    -0.222789059351E+03   -0.17281E-04   -0.74045E-05 30072   0.504E-02    0.723E-02
DAV:  12    -0.222789051755E+03    0.75955E-05   -0.40944E-05 25320   0.420E-02
  24 F= -.22278905E+03 E0= -.22277084E+03  d E =0.844489E-02  mag=    22.0000
       N       E                     dE             d eps       ncg     rms          rms(c)
DAV:   1    -0.222713064646E+03    0.75995E-01   -0.19030E+01 29368   0.156E+01    0.888E-01
DAV:   2    -0.222785860920E+03   -0.72796E-01   -0.69312E-01 28456   0.277E+00    0.189E+00
DAV:   3    -0.222782786194E+03    0.30747E-02   -0.47552E-02 39216   0.674E-01    0.117E+00
DAV:   4    -0.222782747644E+03    0.38549E-04   -0.16075E-02 39248   0.387E-01    0.902E-01
DAV:   5    -0.222782141465E+03    0.60618E-03   -0.82808E-03 39912   0.278E-01    0.690E-01
DAV:   6    -0.222781896287E+03    0.24518E-03   -0.28989E-03 39024   0.198E-01    0.559E-01
DAV:   7    -0.222781382768E+03    0.51352E-03   -0.28301E-03 33760   0.246E-01    0.356E-01
DAV:   8    -0.222781612728E+03   -0.22996E-03   -0.29516E-03 38256   0.201E-01    0.447E-01
DAV:   9    -0.222781498615E+03    0.11411E-03   -0.19840E-03 38416   0.139E-01    0.302E-01
DAV:  10    -0.222781384907E+03    0.11371E-03   -0.50742E-04 35400   0.862E-02    0.138E-01
DAV:  11    -0.222781365835E+03    0.19073E-04   -0.50369E-05 26464   0.433E-02    0.110E-01
DAV:  12    -0.222781341610E+03    0.24225E-04   -0.70871E-05 26680   0.483E-02    0.899E-02
DAV:  13    -0.222781377606E+03   -0.35997E-04   -0.14866E-04 28168   0.634E-02    0.970E-02
DAV:  14    -0.222781375153E+03    0.24529E-05   -0.57439E-05 25664   0.469E-02
  25 F= -.22278138E+03 E0= -.22276323E+03  d E =0.767660E-02  mag=    22.0000
       N       E                     dE             d eps       ncg     rms          rms(c)
DAV:   1    -0.221772119071E+03    0.10093E+01   -0.13010E+02 29672   0.525E+01    0.397E+00
DAV:   2    -0.222784894530E+03   -0.10128E+01   -0.93793E+00 28248   0.974E+00    0.745E+00
DAV:   3    -0.222770147448E+03    0.14747E-01   -0.92791E-01 37776   0.277E+00    0.608E+00
DAV:   4    -0.222744926398E+03    0.25221E-01   -0.26946E-01 39208   0.159E+00    0.336E+00
DAV:   5    -0.222730760974E+03    0.14165E-01   -0.49798E-02 38696   0.106E+00    0.188E+00
DAV:   6    -0.222738359663E+03   -0.75987E-02   -0.48295E-02 39240   0.713E-01    0.266E+00
DAV:   7    -0.222733414193E+03    0.49455E-02   -0.75152E-02 38384   0.765E-01    0.180E+00
DAV:   8    -0.222733809790E+03   -0.39560E-03   -0.37659E-02 38392   0.745E-01    0.157E+00
DAV:   9    -0.222731843460E+03    0.19663E-02   -0.21426E-02 38320   0.595E-01    0.100E+00
DAV:  10    -0.222732606713E+03   -0.76325E-03   -0.19398E-02 38448   0.430E-01    0.107E+00
DAV:  11    -0.222731961086E+03    0.64563E-03   -0.15876E-02 38664   0.388E-01    0.684E-01
DAV:  12    -0.222731574760E+03    0.38633E-03   -0.29442E-03 38360   0.223E-01    0.234E-01
DAV:  13    -0.222731784723E+03   -0.20996E-03   -0.62797E-04 38040   0.137E-01    0.271E-01
DAV:  14    -0.222731675805E+03    0.10892E-03   -0.24732E-04 35152   0.935E-02    0.144E-01
DAV:  15    -0.222731656276E+03    0.19528E-04   -0.10693E-04 29904   0.421E-02    0.104E-01
DAV:  16    -0.222731638347E+03    0.17929E-04   -0.14438E-04 28352   0.378E-02    0.443E-02
DAV:  17    -0.222731645118E+03   -0.67711E-05   -0.29230E-05 21064   0.232E-02
  26 F= -.22273165E+03 E0= -.22271365E+03  d E =0.497300E-01  mag=    22.0000
       N       E                     dE             d eps       ncg     rms          rms(c)
DAV:   1    -0.222653808442E+03    0.77830E-01   -0.10609E+01 30560   0.174E+01    0.151E+00
DAV:   2    -0.222784449914E+03   -0.13064E+00   -0.11956E+00 28224   0.320E+00    0.313E+00
DAV:   3    -0.222779882581E+03    0.45673E-02   -0.19566E-01 38424   0.112E+00    0.236E+00
DAV:   4    -0.222777399103E+03    0.24835E-02   -0.32715E-02 38808   0.637E-01    0.114E+00
DAV:   5    -0.222777029418E+03    0.36968E-03   -0.11396E-02 38904   0.411E-01    0.781E-01
DAV:   6    -0.222777095686E+03   -0.66268E-04   -0.62284E-03 39160   0.239E-01    0.669E-01
DAV:   7    -0.222776909431E+03    0.18625E-03   -0.33347E-03 38232   0.242E-01    0.398E-01
DAV:   8    -0.222777263444E+03   -0.35401E-03   -0.38696E-03 38712   0.243E-01    0.518E-01
DAV:   9    -0.222777175062E+03    0.88382E-04   -0.48686E-03 38752   0.181E-01    0.410E-01
DAV:  10    -0.222776930602E+03    0.24446E-03   -0.10841E-03 38520   0.129E-01    0.985E-02
DAV:  11    -0.222776978970E+03   -0.48368E-04   -0.14072E-04 27864   0.446E-02    0.704E-02
DAV:  12    -0.222776994732E+03   -0.15762E-04   -0.49598E-05 25584   0.471E-02    0.658E-02
DAV:  13    -0.222776995972E+03   -0.12406E-05   -0.31678E-05 22416   0.333E-02
  27 F= -.22277700E+03 E0= -.22275899E+03  d E =-.453509E-01  mag=    22.0000
       N       E                     dE             d eps       ncg     rms          rms(c)
DAV:   1    -0.222744978666E+03    0.32016E-01   -0.45913E+00 30536   0.110E+01    0.917E-01
DAV:   2    -0.222794516653E+03   -0.49538E-01   -0.45266E-01 28336   0.202E+00    0.192E+00
DAV:   3    -0.222792850241E+03    0.16664E-02   -0.71449E-02 38504   0.689E-01    0.142E+00
DAV:   4    -0.222791975999E+03    0.87424E-03   -0.12287E-02 38632   0.380E-01    0.637E-01
DAV:   5    -0.222791835168E+03    0.14083E-03   -0.29044E-03 39112   0.256E-01    0.437E-01
DAV:   6    -0.222792021595E+03   -0.18643E-03   -0.24035E-03 38912   0.154E-01    0.486E-01
DAV:   7    -0.222791866554E+03    0.15504E-03   -0.17420E-03 38456   0.165E-01    0.286E-01
DAV:   8    -0.222791872989E+03   -0.64353E-05   -0.89611E-04 38488   0.161E-01    0.200E-01
DAV:   9    -0.222791916576E+03   -0.43588E-04   -0.79099E-04 37712   0.943E-02    0.219E-01
DAV:  10    -0.222791843598E+03    0.72978E-04   -0.43643E-04 28128   0.609E-02    0.606E-02
DAV:  11    -0.222791859500E+03   -0.15902E-04   -0.49968E-05 23912   0.351E-02    0.550E-02
DAV:  12    -0.222791862336E+03   -0.28360E-05   -0.26143E-05 22664   0.337E-02
  28 F= -.22279186E+03 E0= -.22277386E+03  d E =-.148664E-01  mag=    22.0000
       N       E                     dE             d eps       ncg     rms          rms(c)
DAV:   1    -0.222784898425E+03    0.69611E-02   -0.14844E+00 30040   0.559E+00    0.415E-01
DAV:   2    -0.222796093412E+03   -0.11195E-01   -0.10344E-01 28440   0.103E+00    0.798E-01
DAV:   3    -0.222795979908E+03    0.11350E-03   -0.11782E-02 38744   0.314E-01    0.667E-01
DAV:   4    -0.222795703536E+03    0.27637E-03   -0.29652E-03 38616   0.180E-01    0.308E-01
DAV:   5    -0.222795680594E+03    0.22942E-04   -0.56238E-04 37624   0.131E-01    0.228E-01
DAV:   6    -0.222795744008E+03   -0.63415E-04   -0.61860E-04 34184   0.865E-02    0.277E-01
DAV:   7    -0.222795717311E+03    0.26698E-04   -0.92897E-04 38752   0.105E-01    0.224E-01
DAV:   8    -0.222795672904E+03    0.44407E-04   -0.45246E-04 37648   0.955E-02    0.114E-01
DAV:   9    -0.222795697832E+03   -0.24928E-04   -0.34921E-04 28680   0.631E-02    0.147E-01
DAV:  10    -0.222795664789E+03    0.33043E-04   -0.17200E-04 24096   0.442E-02    0.417E-02
DAV:  11    -0.222795665738E+03   -0.94898E-06   -0.13676E-05 17912   0.229E-02
  29 F= -.22279567E+03 E0= -.22277769E+03  d E =-.380340E-02  mag=    22.0000
       N       E                     dE             d eps       ncg     rms          rms(c)
DAV:   1    -0.222782910447E+03    0.12754E-01   -0.28106E+00 29632   0.663E+00    0.425E-01
DAV:   2    -0.222796787722E+03   -0.13877E-01   -0.13062E-01 28544   0.121E+00    0.779E-01
DAV:   3    -0.222796560258E+03    0.22746E-03   -0.91834E-03 38312   0.310E-01    0.618E-01
DAV:   4    -0.222796376651E+03    0.18361E-03   -0.30113E-03 39088   0.172E-01    0.390E-01
DAV:   5    -0.222796357320E+03    0.19331E-04   -0.84607E-04 38616   0.135E-01    0.332E-01
DAV:   6    -0.222796405216E+03   -0.47897E-04   -0.10093E-03 38096   0.103E-01    0.365E-01
DAV:   7    -0.222796428217E+03   -0.23000E-04   -0.21282E-03 38368   0.152E-01    0.368E-01
DAV:   8    -0.222796247991E+03    0.18023E-03   -0.99131E-04 38424   0.133E-01    0.152E-01
DAV:   9    -0.222796311212E+03   -0.63221E-04   -0.71532E-04 34240   0.862E-02    0.212E-01
DAV:  10    -0.222796239305E+03    0.71908E-04   -0.26633E-04 29216   0.588E-02    0.468E-02
DAV:  11    -0.222796242906E+03   -0.36009E-05   -0.13282E-05 18904   0.223E-02
  30 F= -.22279624E+03 E0= -.22277825E+03  d E =-.577168E-03  mag=    22.0000
       N       E                     dE             d eps       ncg     rms          rms(c)
DAV:   1    -0.222783670599E+03    0.12569E-01   -0.27874E+00 29304   0.549E+00    0.297E-01
DAV:   2    -0.222793025272E+03   -0.93547E-02   -0.88959E-02 29472   0.101E+00    0.709E-01
DAV:   3    -0.222792453237E+03    0.57203E-03   -0.42077E-03 37328   0.224E-01    0.402E-01
DAV:   4    -0.222792457102E+03   -0.38650E-05   -0.95803E-04 36744   0.105E-01    0.367E-01
DAV:   5    -0.222792477729E+03   -0.20627E-04   -0.49048E-04 35032   0.933E-02    0.369E-01
DAV:   6    -0.222792454002E+03    0.23727E-04   -0.50327E-04 31432   0.690E-02    0.348E-01
DAV:   7    -0.222792485005E+03   -0.31003E-04   -0.14015E-03 36760   0.142E-01    0.382E-01
DAV:   8    -0.222792274354E+03    0.21065E-03   -0.10305E-03 38160   0.132E-01    0.173E-01
DAV:   9    -0.222792288949E+03   -0.14595E-04   -0.50232E-04 33776   0.732E-02    0.151E-01
DAV:  10    -0.222792255693E+03    0.33256E-04   -0.14650E-04 27560   0.492E-02    0.444E-02
DAV:  11    -0.222792257526E+03   -0.18331E-05   -0.12026E-05 16888   0.185E-02
  31 F= -.22279226E+03 E0= -.22277422E+03  d E =0.398538E-02  mag=    22.0000
       N       E                     dE             d eps       ncg     rms          rms(c)
DAV:   1    -0.221724425506E+03    0.10678E+01   -0.13496E+02 29496   0.526E+01    0.399E+00
DAV:   2    -0.222780677579E+03   -0.10563E+01   -0.96846E+00 28520   0.994E+00    0.847E+00
DAV:   3    -0.222740703747E+03    0.39974E-01   -0.14230E+00 37568   0.279E+00    0.582E+00
DAV:   4    -0.222709527114E+03    0.31177E-01   -0.23777E-01 38824   0.164E+00    0.335E+00
DAV:   5    -0.222700629232E+03    0.88979E-02   -0.65693E-02 38808   0.110E+00    0.247E+00
DAV:   6    -0.222701297782E+03   -0.66855E-03   -0.37449E-02 38592   0.671E-01    0.211E+00
DAV:   7    -0.222720207116E+03   -0.18909E-01   -0.14704E-01 39136   0.101E+00    0.374E+00
DAV:   8    -0.222708489349E+03    0.11718E-01   -0.33153E-02 38368   0.800E-01    0.290E+00
DAV:   9    -0.222700830491E+03    0.76589E-02   -0.54893E-02 38720   0.711E-01    0.202E+00
DAV:  10    -0.222697389526E+03    0.34410E-02   -0.29435E-02 38728   0.553E-01    0.871E-01
DAV:  11    -0.222698422883E+03   -0.10334E-02   -0.56145E-03 38112   0.348E-01    0.603E-01
DAV:  12    -0.222698686835E+03   -0.26395E-03   -0.40037E-03 38296   0.247E-01    0.406E-01
DAV:  13    -0.222698730924E+03   -0.44089E-04   -0.17610E-03 38240   0.180E-01    0.264E-01
DAV:  14    -0.222698636583E+03    0.94342E-04   -0.46692E-04 37424   0.101E-01    0.134E-01
DAV:  15    -0.222698671593E+03   -0.35010E-04   -0.30813E-04 32720   0.744E-02    0.137E-01
DAV:  16    -0.222698651896E+03    0.19696E-04   -0.13199E-04 27448   0.500E-02    0.738E-02
DAV:  17    -0.222698657963E+03   -0.60667E-05   -0.42808E-05 23144   0.300E-02
  32 F= -.22269866E+03 E0= -.22268054E+03  d E =0.935996E-01  mag=    22.0000
       N       E                     dE             d eps       ncg     rms          rms(c)
DAV:   1    -0.222470905787E+03    0.22775E+00   -0.30942E+01 30736   0.284E+01    0.235E+00
DAV:   2    -0.222790392921E+03   -0.31949E+00   -0.29639E+00 28208   0.521E+00    0.417E+00
DAV:   3    -0.222792397715E+03   -0.20048E-02   -0.38346E-01 38400   0.166E+00    0.390E+00
DAV:   4    -0.222780409599E+03    0.11988E-01   -0.94307E-02 38640   0.959E-01    0.184E+00
DAV:   5    -0.222779984352E+03    0.42525E-03   -0.27278E-02 38848   0.647E-01    0.131E+00
DAV:   6    -0.222780027181E+03   -0.42829E-04   -0.17015E-02 38888   0.376E-01    0.114E+00
DAV:   7    -0.222779387894E+03    0.63929E-03   -0.83778E-03 37792   0.386E-01    0.691E-01
DAV:   8    -0.222781033257E+03   -0.16454E-02   -0.16809E-02 38784   0.394E-01    0.109E+00
DAV:   9    -0.222779838001E+03    0.11953E-02   -0.16205E-02 39032   0.322E-01    0.590E-01
DAV:  10    -0.222779474588E+03    0.36341E-03   -0.18240E-03 38472   0.211E-01    0.218E-01
DAV:  11    -0.222779555162E+03   -0.80575E-04   -0.56751E-04 37944   0.898E-02    0.146E-01
DAV:  12    -0.222779639464E+03   -0.84301E-04   -0.26964E-04 34304   0.942E-02    0.159E-01
DAV:  13    -0.222779632229E+03    0.72343E-05   -0.16280E-04 28336   0.675E-02    0.858E-02
DAV:  14    -0.222779630050E+03    0.21792E-05   -0.44644E-05 25392   0.355E-02
  33 F= -.22277963E+03 E0= -.22276155E+03  d E =-.809721E-01  mag=    22.0000
       N       E                     dE             d eps       ncg     rms          rms(c)
DAV:   1    -0.222743676229E+03    0.35956E-01   -0.66544E+00 30144   0.118E+01    0.891E-01
DAV:   2    -0.222794452893E+03   -0.50777E-01   -0.47531E-01 28416   0.217E+00    0.147E+00
DAV:   3    -0.222795916306E+03   -0.14634E-02   -0.51607E-02 38736   0.634E-01    0.155E+00
DAV:   4    -0.222793715810E+03    0.22005E-02   -0.14848E-02 38688   0.381E-01    0.635E-01
DAV:   5    -0.222793738312E+03   -0.22502E-04   -0.24664E-03 39232   0.257E-01    0.476E-01
DAV:   6    -0.222794060635E+03   -0.32232E-03   -0.34447E-03 38752   0.187E-01    0.608E-01
DAV:   7    -0.222793839808E+03    0.22083E-03   -0.51365E-03 38808   0.215E-01    0.440E-01
DAV:   8    -0.222793723261E+03    0.11655E-03   -0.19712E-03 38472   0.187E-01    0.247E-01
DAV:   9    -0.222793855808E+03   -0.13255E-03   -0.15832E-03 38616   0.129E-01    0.346E-01
DAV:  10    -0.222793659955E+03    0.19585E-03   -0.76933E-04 34408   0.895E-02    0.699E-02
DAV:  11    -0.222793681615E+03   -0.21660E-04   -0.57054E-05 26128   0.422E-02    0.602E-02
DAV:  12    -0.222793685034E+03   -0.34194E-05   -0.38715E-05 24032   0.371E-02
  34 F= -.22279369E+03 E0= -.22277562E+03  d E =-.140550E-01  mag=    22.0000
       N       E                     dE             d eps       ncg     rms          rms(c)
DAV:   1    -0.222791114136E+03    0.25675E-02   -0.13465E+00 29392   0.410E+00    0.244E-01
DAV:   2    -0.222796425906E+03   -0.53118E-02   -0.50445E-02 28760   0.753E-01    0.404E-01
DAV:   3    -0.222796297914E+03    0.12799E-03   -0.15008E-03 37608   0.167E-01    0.269E-01
DAV:   4    -0.222796379194E+03   -0.81280E-04   -0.93274E-04 36480   0.106E-01    0.318E-01
DAV:   5    -0.222796304434E+03    0.74760E-04   -0.30041E-04 29328   0.676E-02    0.232E-01
DAV:   6    -0.222796331986E+03   -0.27552E-04   -0.35652E-04 36880   0.807E-02    0.253E-01
DAV:   7    -0.222796317605E+03    0.14381E-04   -0.10894E-03 38568   0.107E-01    0.241E-01
DAV:   8    -0.222796246512E+03    0.71093E-04   -0.56584E-04 35992   0.821E-02    0.907E-02
DAV:   9    -0.222796251175E+03   -0.46634E-05   -0.76326E-05 26512   0.447E-02
  35 F= -.22279625E+03 E0= -.22277823E+03  d E =-.256614E-02  mag=    22.0000
       N       E                     dE             d eps       ncg     rms          rms(c)
DAV:   1    -0.222791786455E+03    0.44601E-02   -0.16102E+00 29160   0.410E+00    0.221E-01
DAV:   2    -0.222797468002E+03   -0.56815E-02   -0.51875E-02 31536   0.770E-01    0.740E-01
DAV:   3    -0.222796689459E+03    0.77854E-03   -0.29618E-03 37496   0.185E-01    0.302E-01
DAV:   4    -0.222796753631E+03   -0.64172E-04   -0.35885E-04 34536   0.778E-02    0.299E-01
DAV:   5    -0.222796767484E+03   -0.13853E-04   -0.42425E-04 30608   0.750E-02    0.306E-01
DAV:   6    -0.222796750151E+03    0.17334E-04   -0.30153E-04 28296   0.574E-02    0.275E-01
DAV:   7    -0.222796726797E+03    0.23354E-04   -0.49247E-04 35552   0.102E-01    0.245E-01
DAV:   8    -0.222796629831E+03    0.96966E-04   -0.39624E-04 38128   0.101E-01    0.111E-01
DAV:   9    -0.222796656416E+03   -0.26585E-04   -0.23532E-04 29456   0.554E-02    0.142E-01
DAV:  10    -0.222796625317E+03    0.31098E-04   -0.13692E-04 24800   0.405E-02    0.306E-02
DAV:  11    -0.222796630094E+03   -0.47764E-05   -0.98234E-06 16736   0.200E-02
  36 F= -.22279663E+03 E0= -.22277858E+03  d E =-.378919E-03  mag=    22.0000
       N       E                     dE             d eps       ncg     rms          rms(c)
DAV:   1    -0.222793797171E+03    0.28281E-02   -0.63786E-01 28880   0.272E+00    0.151E-01
DAV:   2    -0.222796190525E+03   -0.23934E-02   -0.22108E-02 30472   0.501E-01    0.469E-01
DAV:   3    -0.222795877704E+03    0.31282E-03   -0.15681E-03 39416   0.130E-01    0.166E-01
DAV:   4    -0.222795914568E+03   -0.36864E-04   -0.21348E-04 31272   0.603E-02    0.165E-01
DAV:   5    -0.222795911546E+03    0.30225E-05   -0.25587E-04 27120   0.551E-02    0.166E-01
DAV:   6    -0.222795900806E+03    0.10739E-04   -0.11684E-04 24200   0.400E-02    0.137E-01
DAV:   7    -0.222795890857E+03    0.99487E-05   -0.15679E-04 33776   0.603E-02    0.121E-01
DAV:   8    -0.222795872815E+03    0.18042E-04   -0.12552E-04 33672   0.581E-02    0.680E-02
DAV:   9    -0.222795880315E+03   -0.74996E-05   -0.87083E-05 23024   0.327E-02
  37 F= -.22279588E+03 E0= -.22277783E+03  d E =0.749779E-03  mag=    22.0000
       N       E                     dE             d eps       ncg     rms          rms(c)
DAV:   1    -0.222755746631E+03    0.40126E-01   -0.34637E+00 30800   0.971E+00    0.832E-01
DAV:   2    -0.222797223369E+03   -0.41477E-01   -0.36796E-01 28864   0.179E+00    0.200E+00
DAV:   3    -0.222792334265E+03    0.48891E-02   -0.48616E-02 37992   0.682E-01    0.993E-01
DAV:   4    -0.222792722154E+03   -0.38789E-03   -0.74102E-03 38968   0.288E-01    0.414E-01
DAV:   5    -0.222792723513E+03   -0.13588E-05   -0.20394E-03 40528   0.142E-01    0.319E-01
DAV:   6    -0.222792714475E+03    0.90382E-05   -0.94036E-04 38728   0.120E-01    0.210E-01
DAV:   7    -0.222792762030E+03   -0.47555E-04   -0.53587E-04 38408   0.127E-01    0.183E-01
DAV:   8    -0.222792869099E+03   -0.10707E-03   -0.11881E-03 38064   0.980E-02    0.275E-01
DAV:   9    -0.222792761963E+03    0.10714E-03   -0.57324E-04 29760   0.739E-02    0.725E-02
DAV:  10    -0.222792771358E+03   -0.93951E-05   -0.26539E-05 22736   0.290E-02
  38 F= -.22279277E+03 E0= -.22277486E+03  d E =0.310896E-02  mag=    22.0000
       N       E                     dE             d eps       ncg     rms          rms(c)
DAV:   1    -0.222702281017E+03    0.90481E-01   -0.57498E+00 31240   0.138E+01    0.132E+00
DAV:   2    -0.222795430937E+03   -0.93150E-01   -0.84652E-01 28120   0.250E+00    0.240E+00
DAV:   3    -0.222796635389E+03   -0.12045E-02   -0.14189E-01 38016   0.968E-01    0.199E+00
DAV:   4    -0.222793801798E+03    0.28336E-02   -0.27895E-02 39056   0.486E-01    0.728E-01
DAV:   5    -0.222793945657E+03   -0.14386E-03   -0.77624E-03 40640   0.244E-01    0.508E-01
DAV:   6    -0.222794142077E+03   -0.19642E-03   -0.25828E-03 38840   0.184E-01    0.374E-01
DAV:   7    -0.222794320075E+03   -0.17800E-03   -0.26714E-03 38480   0.187E-01    0.395E-01
DAV:   8    -0.222794356557E+03   -0.36483E-04   -0.25412E-03 38672   0.152E-01    0.347E-01
DAV:   9    -0.222794229687E+03    0.12687E-03   -0.66479E-04 38024   0.114E-01    0.122E-01
DAV:  10    -0.222794238189E+03   -0.85014E-05   -0.11989E-04 28840   0.644E-02    0.991E-02
DAV:  11    -0.222794227025E+03    0.11164E-04   -0.64942E-05 25632   0.466E-02    0.619E-02
DAV:  12    -0.222794245934E+03   -0.18909E-04   -0.60691E-05 24928   0.449E-02    0.721E-02
DAV:  13    -0.222794246843E+03   -0.90919E-06   -0.42523E-05 23648   0.384E-02
  39 F= -.22279425E+03 E0= -.22277621E+03  d E =-.147549E-02  mag=    22.0000
       N       E                     dE             d eps       ncg     rms          rms(c)
DAV:   1    -0.222780979133E+03    0.13267E-01   -0.23238E+00 29744   0.673E+00    0.460E-01
DAV:   2    -0.222795425660E+03   -0.14447E-01   -0.13938E-01 27680   0.122E+00    0.471E-01
DAV:   3    -0.222796745745E+03   -0.13201E-02   -0.93674E-03 39952   0.338E-01    0.862E-01
DAV:   4    -0.222795713814E+03    0.10319E-02   -0.52167E-03 38696   0.205E-01    0.296E-01
DAV:   5    -0.222795733087E+03   -0.19273E-04   -0.63059E-04 38936   0.122E-01    0.216E-01
DAV:   6    -0.222795800666E+03   -0.67579E-04   -0.86381E-04 36784   0.854E-02    0.292E-01
DAV:   7    -0.222795701686E+03    0.98980E-04   -0.83317E-04 38568   0.984E-02    0.162E-01
DAV:   8    -0.222795757997E+03   -0.56311E-04   -0.62189E-04 38496   0.934E-02    0.211E-01
DAV:   9    -0.222795713158E+03    0.44839E-04   -0.51019E-04 28672   0.660E-02    0.111E-01
DAV:  10    -0.222795699646E+03    0.13512E-04   -0.77363E-05 24392   0.444E-02    0.467E-02
DAV:  11    -0.222795697145E+03    0.25010E-05   -0.15295E-05 19256   0.236E-02
  40 F= -.22279570E+03 E0= -.22277765E+03  d E =-.145030E-02  mag=    22.0000
       N       E                     dE             d eps       ncg     rms          rms(c)
DAV:   1    -0.222736807804E+03    0.58892E-01   -0.35556E+00 31248   0.111E+01    0.107E+00
DAV:   2    -0.222799497186E+03   -0.62689E-01   -0.55905E-01 28352   0.207E+00    0.219E+00
DAV:   3    -0.222794997362E+03    0.44998E-02   -0.63548E-02 38088   0.789E-01    0.137E+00
DAV:   4    -0.222795058357E+03   -0.60995E-04   -0.15403E-02 38920   0.376E-01    0.495E-01
DAV:   5    -0.222795341146E+03   -0.28279E-03   -0.36334E-03 40808   0.188E-01    0.504E-01
DAV:   6    -0.222795308033E+03    0.33114E-04   -0.23986E-03 38384   0.165E-01    0.333E-01
DAV:   7    -0.222795291775E+03    0.16257E-04   -0.81161E-04 38344   0.148E-01    0.198E-01
DAV:   8    -0.222795414857E+03   -0.12308E-03   -0.63714E-04 38296   0.113E-01    0.212E-01
DAV:   9    -0.222795373182E+03    0.41675E-04   -0.71348E-04 31496   0.837E-02    0.147E-01
DAV:  10    -0.222795351711E+03    0.21471E-04   -0.20149E-04 26464   0.526E-02    0.594E-02
DAV:  11    -0.222795353125E+03   -0.14143E-05   -0.27820E-05 22384   0.327E-02
  41 F= -.22279535E+03 E0= -.22277740E+03  d E =0.344020E-03  mag=    22.0000
       N       E                     dE             d eps       ncg     rms          rms(c)
DAV:   1    -0.222783976774E+03    0.11375E-01   -0.92821E-01 31040   0.544E+00    0.491E-01
DAV:   2    -0.222797294643E+03   -0.13318E-01   -0.12125E-01 28112   0.994E-01    0.874E-01
DAV:   3    -0.222797667657E+03   -0.37301E-03   -0.17834E-02 38184   0.383E-01    0.797E-01
DAV:   4    -0.222797109266E+03    0.55839E-03   -0.35815E-03 38344   0.199E-01    0.239E-01
DAV:   5    -0.222797168551E+03   -0.59286E-04   -0.81182E-04 36136   0.946E-02    0.211E-01
DAV:   6    -0.222797174886E+03   -0.63348E-05   -0.47692E-04 30888   0.752E-02    0.165E-01
DAV:   7    -0.222797175823E+03   -0.93709E-06   -0.23731E-04 35408   0.720E-02    0.120E-01
DAV:   8    -0.222797208808E+03   -0.32985E-04   -0.46481E-04 28072   0.674E-02    0.167E-01
DAV:   9    -0.222797181300E+03    0.27508E-04   -0.25844E-04 26528   0.540E-02    0.628E-02
DAV:  10    -0.222797179604E+03    0.16961E-05   -0.27812E-05 22040   0.342E-02
  42 F= -.22279718E+03 E0= -.22277920E+03  d E =-.182648E-02  mag=    22.0000
       N       E                     dE             d eps       ncg     rms          rms(c)
DAV:   1    -0.222795854685E+03    0.13266E-02   -0.12353E-01 30376   0.182E+00    0.154E-01
DAV:   2    -0.222797206537E+03   -0.13519E-02   -0.11987E-02 28296   0.327E-01    0.351E-01
DAV:   3    -0.222797117290E+03    0.89248E-04   -0.18044E-03 38680   0.132E-01    0.207E-01
DAV:   4    -0.222797119987E+03   -0.26970E-05   -0.28977E-04 29784   0.643E-02    0.981E-02
DAV:   5    -0.222797113363E+03    0.66236E-05   -0.90831E-05 24280   0.370E-02
  43 F= -.22279711E+03 E0= -.22277904E+03  d E =0.662407E-04  mag=    22.0000
       N       E                     dE             d eps       ncg     rms          rms(c)
DAV:   1    -0.222626196114E+03    0.17092E+00   -0.24225E+01 29792   0.221E+01    0.155E+00
DAV:   2    -0.222784374167E+03   -0.15818E+00   -0.14716E+00 27832   0.388E+00    0.270E+00
DAV:   3    -0.222786078586E+03   -0.17044E-02   -0.14956E-01 38512   0.117E+00    0.241E+00
DAV:   4    -0.222781186669E+03    0.48919E-02   -0.43198E-02 39072   0.601E-01    0.105E+00
DAV:   5    -0.222780782891E+03    0.40378E-03   -0.12893E-02 39888   0.308E-01    0.781E-01
DAV:   6    -0.222780788235E+03   -0.53448E-05   -0.44578E-03 38992   0.264E-01    0.669E-01
DAV:   7    -0.222781453265E+03   -0.66503E-03   -0.10156E-02 38640   0.314E-01    0.920E-01
DAV:   8    -0.222780567805E+03    0.88546E-03   -0.93985E-03 38808   0.289E-01    0.553E-01
DAV:   9    -0.222780673561E+03   -0.10576E-03   -0.33527E-03 38488   0.227E-01    0.406E-01
DAV:  10    -0.222780458727E+03    0.21483E-03   -0.10499E-03 38280   0.148E-01    0.129E-01
DAV:  11    -0.222780472928E+03   -0.14200E-04   -0.11790E-04 32512   0.708E-02    0.716E-02
DAV:  12    -0.222780471207E+03    0.17210E-05   -0.42134E-05 24264   0.300E-02
  44 F= -.22278047E+03 E0= -.22276242E+03  d E =0.166422E-01  mag=    22.0000
       N       E                     dE             d eps       ncg     rms          rms(c)
DAV:   1    -0.222137031799E+03    0.64344E+00   -0.48662E+01 30864   0.375E+01    0.351E+00
DAV:   2    -0.222818510601E+03   -0.68148E+00   -0.60814E+00 28224   0.723E+00    0.655E+00
DAV:   3    -0.222791112673E+03    0.27398E-01   -0.90067E-01 37616   0.261E+00    0.425E+00
DAV:   4    -0.222773171905E+03    0.17941E-01   -0.85946E-02 39008   0.140E+00    0.257E+00
DAV:   5    -0.222775790428E+03   -0.26185E-02   -0.10501E-01 38736   0.881E-01    0.206E+00
DAV:   6    -0.222773683432E+03    0.21070E-02   -0.36816E-02 38784   0.539E-01    0.150E+00
DAV:   7    -0.222775721555E+03   -0.20381E-02   -0.25468E-02 38688   0.551E-01    0.159E+00
DAV:   8    -0.222774169672E+03    0.15519E-02   -0.23501E-02 38592   0.480E-01    0.108E+00
DAV:   9    -0.222774439561E+03   -0.26989E-03   -0.11230E-02 38600   0.417E-01    0.864E-01
DAV:  10    -0.222773466854E+03    0.97271E-03   -0.58081E-03 38328   0.314E-01    0.412E-01
DAV:  11    -0.222773719522E+03   -0.25267E-03   -0.19175E-03 38536   0.214E-01    0.363E-01
DAV:  12    -0.222773642819E+03    0.76702E-04   -0.12345E-03 38304   0.148E-01    0.204E-01
DAV:  13    -0.222773668522E+03   -0.25703E-04   -0.51504E-04 34152   0.968E-02    0.132E-01
DAV:  14    -0.222773680689E+03   -0.12167E-04   -0.13952E-04 29432   0.590E-02    0.134E-01
DAV:  15    -0.222773649776E+03    0.30913E-04   -0.16186E-04 25760   0.495E-02    0.493E-02
DAV:  16    -0.222773655161E+03   -0.53850E-05   -0.53953E-05 23008   0.313E-02
  45 F= -.22277366E+03 E0= -.22275534E+03  d E =0.681605E-02  mag=    22.0000
       N       E                     dE             d eps       ncg     rms          rms(c)
DAV:   1    -0.222751947214E+03    0.21703E-01   -0.20445E+00 30976   0.840E+00    0.833E-01
DAV:   2    -0.222789186471E+03   -0.37239E-01   -0.33565E-01 28080   0.157E+00    0.155E+00
DAV:   3    -0.222788800039E+03    0.38643E-03   -0.44536E-02 37896   0.629E-01    0.130E+00
DAV:   4    -0.222787785523E+03    0.10145E-02   -0.12678E-02 38736   0.315E-01    0.411E-01
DAV:   5    -0.222787947133E+03   -0.16161E-03   -0.23075E-03 40288   0.136E-01    0.329E-01
DAV:   6    -0.222788006089E+03   -0.58956E-04   -0.98754E-04 38224   0.121E-01    0.222E-01
DAV:   7    -0.222788011677E+03   -0.55885E-05   -0.53275E-04 37896   0.112E-01    0.172E-01
DAV:   8    -0.222788151252E+03   -0.13958E-03   -0.12569E-03 34720   0.939E-02    0.294E-01
DAV:   9    -0.222788014937E+03    0.13632E-03   -0.64764E-04 30512   0.786E-02    0.513E-02
DAV:  10    -0.222788034150E+03   -0.19213E-04   -0.33362E-05 24176   0.353E-02    0.512E-02
DAV:  11    -0.222788032510E+03    0.16401E-05   -0.22530E-05 20080   0.268E-02
  46 F= -.22278803E+03 E0= -.22276979E+03  d E =-.143773E-01  mag=    22.0000
       N       E                     dE             d eps       ncg     rms          rms(c)
DAV:   1    -0.222766649078E+03    0.21385E-01   -0.16470E+00 31032   0.749E+00    0.737E-01
DAV:   2    -0.222795832959E+03   -0.29184E-01   -0.26157E-01 28112   0.140E+00    0.143E+00
DAV:   3    -0.222795071139E+03    0.76182E-03   -0.35032E-02 37704   0.567E-01    0.111E+00
DAV:   4    -0.222794475263E+03    0.59588E-03   -0.90522E-03 38592   0.279E-01    0.355E-01
DAV:   5    -0.222794602276E+03   -0.12701E-03   -0.17613E-03 39192   0.126E-01    0.305E-01
DAV:   6    -0.222794641565E+03   -0.39289E-04   -0.88070E-04 38208   0.117E-01    0.225E-01
DAV:   7    -0.222794631450E+03    0.10115E-04   -0.39333E-04 37792   0.101E-01    0.138E-01
DAV:   8    -0.222794741377E+03   -0.10993E-03   -0.81161E-04 33312   0.891E-02    0.246E-01
DAV:   9    -0.222794659921E+03    0.81455E-04   -0.61591E-04 28736   0.719E-02    0.915E-02
DAV:  10    -0.222794659170E+03    0.75161E-06   -0.62096E-05 24080   0.416E-02
  47 F= -.22279466E+03 E0= -.22277650E+03  d E =-.662666E-02  mag=    22.0000
       N       E                     dE             d eps       ncg     rms          rms(c)
DAV:   1    -0.222791913345E+03    0.27466E-02   -0.27564E-01 31048   0.295E+00    0.271E-01
DAV:   2    -0.222795887147E+03   -0.39738E-02   -0.35669E-02 28256   0.540E-01    0.539E-01
DAV:   3    -0.222795802621E+03    0.84526E-04   -0.50172E-03 37880   0.218E-01    0.412E-01
DAV:   4    -0.222795724670E+03    0.77952E-04   -0.10858E-03 37232   0.105E-01    0.146E-01
DAV:   5    -0.222795732458E+03   -0.77880E-05   -0.26113E-04 27600   0.538E-02    0.117E-01
DAV:   6    -0.222795739599E+03   -0.71411E-05   -0.12923E-04 26128   0.477E-02    0.991E-02
DAV:   7    -0.222795735534E+03    0.40651E-05   -0.68310E-05 25872   0.439E-02
  48 F= -.22279574E+03 E0= -.22277760E+03  d E =-.107636E-02  mag=    22.0000
       N       E                     dE             d eps       ncg     rms          rms(c)
DAV:   1    -0.222792208520E+03    0.35311E-02   -0.37299E-01 30400   0.316E+00    0.275E-01
DAV:   2    -0.222796887469E+03   -0.46789E-02   -0.40225E-02 29264   0.610E-01    0.861E-01
DAV:   3    -0.222795817952E+03    0.10695E-02   -0.77612E-03 37240   0.274E-01    0.249E-01
DAV:   4    -0.222796035359E+03   -0.21741E-03   -0.60143E-04 37248   0.106E-01    0.186E-01
DAV:   5    -0.222796012275E+03    0.23084E-04   -0.44157E-04 29112   0.691E-02    0.144E-01
DAV:   6    -0.222796004508E+03    0.77675E-05   -0.14676E-04 26112   0.476E-02    0.937E-02
DAV:   7    -0.222796031176E+03   -0.26668E-04   -0.16609E-04 30648   0.493E-02    0.136E-01
DAV:   8    -0.222796014160E+03    0.17015E-04   -0.24855E-04 26456   0.511E-02    0.791E-02
DAV:   9    -0.222796014556E+03   -0.39556E-06   -0.52240E-05 21432   0.334E-02
  49 F= -.22279601E+03 E0= -.22277788E+03  d E =-.279022E-03  mag=    22.0000
       N       E                     dE             d eps       ncg     rms          rms(c)
DAV:   1    -0.222793637098E+03    0.23771E-02   -0.44379E-01 29376   0.263E+00    0.162E-01
DAV:   2    -0.222795640867E+03   -0.20038E-02   -0.19253E-02 28184   0.466E-01    0.248E-01
DAV:   3    -0.222795707860E+03   -0.66993E-04   -0.14278E-03 38928   0.134E-01    0.279E-01
DAV:   4    -0.222795624987E+03    0.82873E-04   -0.53912E-04 32464   0.758E-02    0.119E-01
DAV:   5    -0.222795625805E+03   -0.81812E-06   -0.10755E-04 26640   0.494E-02    0.107E-01
DAV:   6    -0.222795626143E+03   -0.33871E-06   -0.93389E-05 22304   0.328E-02
  50 F= -.22279563E+03 E0= -.22277751E+03  d E =0.388413E-03  mag=    22.0000
       N       E                     dE             d eps       ncg     rms          rms(c)
DAV:   1    -0.222786753695E+03    0.88721E-02   -0.25610E+00 29232   0.516E+00    0.262E-01
DAV:   2    -0.222793965995E+03   -0.72123E-02   -0.72082E-02 27808   0.883E-01    0.364E-01
DAV:   3    -0.222794053937E+03   -0.87941E-04   -0.36388E-03 39688   0.221E-01    0.377E-01
DAV:   4    -0.222793895718E+03    0.15822E-03   -0.16217E-03 39640   0.116E-01    0.227E-01
DAV:   5    -0.222793854593E+03    0.41124E-04   -0.27704E-04 32664   0.665E-02    0.161E-01
DAV:   6    -0.222793939207E+03   -0.84614E-04   -0.80294E-04 37504   0.864E-02    0.333E-01
DAV:   7    -0.222793761566E+03    0.17764E-03   -0.96293E-04 38504   0.914E-02    0.914E-02
DAV:   8    -0.222793805754E+03   -0.44188E-04   -0.19056E-04 33328   0.534E-02    0.121E-01
DAV:   9    -0.222793782755E+03    0.22999E-04   -0.11021E-04 24208   0.343E-02    0.438E-02
DAV:  10    -0.222793781775E+03    0.97967E-06   -0.11240E-05 16928   0.196E-02
  51 F= -.22279378E+03 E0= -.22277571E+03  d E =0.184437E-02  mag=    22.0000
       N       E                     dE             d eps       ncg     rms          rms(c)
DAV:   1    -0.221636674526E+03    0.11571E+01   -0.93695E+01 30552   0.505E+01    0.454E+00
DAV:   2    -0.222780690969E+03   -0.11440E+01   -0.10333E+01 28408   0.979E+00    0.788E+00
DAV:   3    -0.222740093578E+03    0.40597E-01   -0.13779E+00 37552   0.332E+00    0.570E+00
DAV:   4    -0.222690503238E+03    0.49590E-01   -0.16225E-01 39016   0.171E+00    0.289E+00
DAV:   5    -0.222710183347E+03   -0.19680E-01   -0.17908E-01 38944   0.113E+00    0.402E+00
DAV:   6    -0.222693538488E+03    0.16645E-01   -0.13081E-01 38496   0.832E-01    0.186E+00
DAV:   7    -0.222698052580E+03   -0.45141E-02   -0.41428E-02 38472   0.683E-01    0.200E+00
DAV:   8    -0.222702026221E+03   -0.39736E-02   -0.11892E-01 38896   0.765E-01    0.215E+00
DAV:   9    -0.222696611527E+03    0.54147E-02   -0.17976E-02 38208   0.555E-01    0.113E+00
DAV:  10    -0.222696245609E+03    0.36592E-03   -0.11715E-02 38792   0.443E-01    0.587E-01
DAV:  11    -0.222696245434E+03    0.17556E-06   -0.25152E-03 38432   0.326E-01    0.351E-01
DAV:  12    -0.222696265381E+03   -0.19947E-04   -0.13149E-03 38096   0.161E-01    0.279E-01
DAV:  13    -0.222696572469E+03   -0.30709E-03   -0.21342E-03 38664   0.166E-01    0.388E-01
DAV:  14    -0.222696415846E+03    0.15662E-03   -0.75943E-04 38272   0.123E-01    0.232E-01
DAV:  15    -0.222696385930E+03    0.29916E-04   -0.64981E-04 34584   0.880E-02    0.120E-01
DAV:  16    -0.222696394840E+03   -0.89104E-05   -0.26685E-04 29664   0.621E-02    0.103E-01
DAV:  17    -0.222696378075E+03    0.16765E-04   -0.88672E-05 23960   0.320E-02    0.398E-02
DAV:  18    -0.222696380441E+03   -0.23666E-05   -0.19384E-05 16176   0.151E-02
  52 F= -.22269638E+03 E0= -.22267772E+03  d E =0.974013E-01  mag=    22.0000
       N       E                     dE             d eps       ncg     rms          rms(c)
DAV:   1    -0.222480443152E+03    0.21593E+00   -0.18846E+01 31120   0.246E+01    0.237E+00
DAV:   2    -0.222776105920E+03   -0.29566E+00   -0.27091E+00 28136   0.459E+00    0.356E+00
DAV:   3    -0.222782284564E+03   -0.61786E-02   -0.24867E-01 37816   0.167E+00    0.386E+00
DAV:   4    -0.222771533698E+03    0.10751E-01   -0.14548E-01 39136   0.913E-01    0.152E+00
DAV:   5    -0.222771882307E+03   -0.34861E-03   -0.19118E-02 39632   0.446E-01    0.107E+00
DAV:   6    -0.222772554508E+03   -0.67220E-03   -0.15463E-02 38648   0.377E-01    0.102E+00
DAV:   7    -0.222772006213E+03    0.54829E-03   -0.61330E-03 38336   0.291E-01    0.566E-01
DAV:   8    -0.222772907277E+03   -0.90106E-03   -0.66706E-03 38384   0.267E-01    0.752E-01
DAV:   9    -0.222772186947E+03    0.72033E-03   -0.67682E-03 38656   0.217E-01    0.328E-01
DAV:  10    -0.222772238458E+03   -0.51510E-04   -0.10330E-03 38088   0.147E-01    0.182E-01
DAV:  11    -0.222772314768E+03   -0.76310E-04   -0.33126E-04 34072   0.938E-02    0.129E-01
DAV:  12    -0.222772329197E+03   -0.14430E-04   -0.11529E-04 29328   0.670E-02    0.992E-02
DAV:  13    -0.222772320851E+03    0.83461E-05   -0.62285E-05 25200   0.388E-02
  53 F= -.22277232E+03 E0= -.22275398E+03  d E =-.759404E-01  mag=    22.0000
       N       E                     dE             d eps       ncg     rms          rms(c)
DAV:   1    -0.222727764090E+03    0.44565E-01   -0.47236E+00 30832   0.118E+01    0.108E+00
DAV:   2    -0.222790658075E+03   -0.62894E-01   -0.56913E-01 28288   0.215E+00    0.192E+00
DAV:   3    -0.222790320204E+03    0.33787E-03   -0.63387E-02 37816   0.821E-01    0.171E+00
DAV:   4    -0.222788507350E+03    0.18129E-02   -0.25150E-02 38984   0.419E-01    0.592E-01
DAV:   5    -0.222788688960E+03   -0.18161E-03   -0.34912E-03 39992   0.203E-01    0.474E-01
DAV:   6    -0.222788874253E+03   -0.18529E-03   -0.30131E-03 38592   0.174E-01    0.478E-01
DAV:   7    -0.222788718121E+03    0.15613E-03   -0.14954E-03 38504   0.157E-01    0.256E-01
DAV:   8    -0.222789041996E+03   -0.32388E-03   -0.25133E-03 38584   0.155E-01    0.449E-01
DAV:   9    -0.222788789643E+03    0.25235E-03   -0.21528E-03 38504   0.127E-01    0.179E-01
DAV:  10    -0.222788775589E+03    0.14054E-04   -0.22115E-04 31360   0.811E-02    0.609E-02
DAV:  11    -0.222788784615E+03   -0.90261E-05   -0.43561E-05 25272   0.388E-02
  54 F= -.22278878E+03 E0= -.22277062E+03  d E =-.164638E-01  mag=    22.0000
       N       E                     dE             d eps       ncg     rms          rms(c)
DAV:   1    -0.222774069490E+03    0.14706E-01   -0.24433E+00 30408   0.733E+00    0.578E-01
DAV:   2    -0.222793925250E+03   -0.19856E-01   -0.18287E-01 28440   0.131E+00    0.983E-01
DAV:   3    -0.222794346214E+03   -0.42096E-03   -0.19310E-02 38320   0.435E-01    0.972E-01
DAV:   4    -0.222793576379E+03    0.76983E-03   -0.66517E-03 38976   0.238E-01    0.360E-01
DAV:   5    -0.222793635905E+03   -0.59526E-04   -0.11098E-03 38880   0.145E-01    0.319E-01
DAV:   6    -0.222793702145E+03   -0.66240E-04   -0.12258E-03 38040   0.111E-01    0.342E-01
DAV:   7    -0.222793603616E+03    0.98528E-04   -0.75220E-04 38128   0.115E-01    0.185E-01
DAV:   8    -0.222793632101E+03   -0.28484E-04   -0.39416E-04 38000   0.112E-01    0.154E-01
DAV:   9    -0.222793615916E+03    0.16185E-04   -0.24328E-04 31328   0.705E-02    0.979E-02
DAV:  10    -0.222793609585E+03    0.63309E-05   -0.17952E-04 24832   0.417E-02    0.725E-02
DAV:  11    -0.222793603289E+03    0.62957E-05   -0.43037E-05 20688   0.261E-02
  55 F= -.22279360E+03 E0= -.22277550E+03  d E =-.481867E-02  mag=    22.0000
       N       E                     dE             d eps       ncg     rms          rms(c)
DAV:   1    -0.222792450750E+03    0.11588E-02   -0.63055E-01 29320   0.271E+00    0.155E-01
DAV:   2    -0.222794645355E+03   -0.21946E-02   -0.21152E-02 28728   0.486E-01    0.249E-01
DAV:   3    -0.222794613574E+03    0.31781E-04   -0.64131E-04 37080   0.103E-01    0.183E-01
DAV:   4    -0.222794634017E+03   -0.20443E-04   -0.40025E-04 30928   0.639E-02    0.201E-01
DAV:   5    -0.222794613907E+03    0.20110E-04   -0.12755E-04 25992   0.459E-02    0.164E-01
DAV:   6    -0.222794632258E+03   -0.18351E-04   -0.21562E-04 30152   0.497E-02    0.194E-01
DAV:   7    -0.222794616669E+03    0.15589E-04   -0.52157E-04 36976   0.712E-02    0.168E-01
DAV:   8    -0.222794580256E+03    0.36413E-04   -0.20020E-04 33584   0.605E-02    0.593E-02
DAV:   9    -0.222794587807E+03   -0.75517E-05   -0.78867E-05 22568   0.345E-02
  56 F= -.22279459E+03 E0= -.22277648E+03  d E =-.984518E-03  mag=    22.0000
       N       E                     dE             d eps       ncg     rms          rms(c)
DAV:   1    -0.222793781008E+03    0.79925E-03   -0.30176E-01 28904   0.187E+00    0.109E-01
DAV:   2    -0.222794908477E+03   -0.11275E-02   -0.10383E-02 31464   0.350E-01    0.329E-01
DAV:   3    -0.222794759253E+03    0.14922E-03   -0.83438E-04 37328   0.987E-02    0.128E-01
DAV:   4    -0.222794779042E+03   -0.19789E-04   -0.95463E-05 26456   0.417E-02    0.125E-01
DAV:   5    -0.222794778938E+03    0.10448E-06   -0.91071E-05 23480   0.382E-02
  57 F= -.22279478E+03 E0= -.22277665E+03  d E =-.191131E-03  mag=    22.0000
       N       E                     dE             d eps       ncg     rms          rms(c)
DAV:   1    -0.222792711565E+03    0.20675E-02   -0.50950E-01 28944   0.245E+00    0.185E-01
DAV:   2    -0.222794463726E+03   -0.17522E-02   -0.16926E-02 31160   0.438E-01    0.353E-01
DAV:   3    -0.222794359318E+03    0.10441E-03   -0.13288E-03 37056   0.129E-01    0.228E-01
DAV:   4    -0.222794348499E+03    0.10819E-04   -0.21915E-04 30216   0.555E-02    0.176E-01
DAV:   5    -0.222794338894E+03    0.96050E-05   -0.64755E-05 24216   0.349E-02
  58 F= -.22279434E+03 E0= -.22277619E+03  d E =0.440044E-03  mag=    22.0000
       N       E                     dE             d eps       ncg     rms          rms(c)
DAV:   1    -0.222786454534E+03    0.78940E-02   -0.10984E+00 29168   0.467E+00    0.487E-01
DAV:   2    -0.222803431906E+03   -0.16977E-01   -0.12475E-01 33248   0.103E+00    0.262E+00
DAV:   3    -0.222792389440E+03    0.11042E-01   -0.60572E-02 37176   0.586E-01    0.388E-01
DAV:   4    -0.222794134168E+03   -0.17447E-02   -0.41873E-03 38192   0.221E-01    0.550E-01
DAV:   5    -0.222793734264E+03    0.39990E-03   -0.21299E-03 37872   0.148E-01    0.210E-01
DAV:   6    -0.222793711027E+03    0.23237E-04   -0.26383E-04 30992   0.741E-02    0.943E-02
DAV:   7    -0.222793717633E+03   -0.66063E-05   -0.10811E-04 32496   0.555E-02    0.975E-02
DAV:   8    -0.222793710287E+03    0.73460E-05   -0.11476E-04 29536   0.582E-02    0.775E-02
DAV:   9    -0.222793728568E+03   -0.18281E-04   -0.23837E-04 25328   0.442E-02    0.120E-01
DAV:  10    -0.222793707842E+03    0.20726E-04   -0.97202E-05 22952   0.366E-02    0.269E-02
DAV:  11    -0.222793712162E+03   -0.43200E-05   -0.89109E-06 16512   0.179E-02
  59 F= -.22279371E+03 E0= -.22277565E+03  d E =0.626732E-03  mag=    22.0000
       N       E                     dE             d eps       ncg     rms          rms(c)
DAV:   1    -0.222566821072E+03    0.22689E+00   -0.12916E+01 30264   0.208E+01    0.200E+00
DAV:   2    -0.222788972874E+03   -0.22215E+00   -0.19501E+00 28120   0.394E+00    0.460E+00
DAV:   3    -0.222776970937E+03    0.12002E-01   -0.48568E-01 37680   0.144E+00    0.248E+00
DAV:   4    -0.222781191990E+03   -0.42211E-02   -0.69842E-02 39128   0.729E-01    0.200E+00
DAV:   5    -0.222775901445E+03    0.52905E-02   -0.28324E-02 38216   0.479E-01    0.765E-01
DAV:   6    -0.222777436664E+03   -0.15352E-02   -0.97963E-03 39712   0.310E-01    0.906E-01
DAV:   7    -0.222777496582E+03   -0.59918E-04   -0.13125E-02 38912   0.314E-01    0.740E-01
DAV:   8    -0.222777294076E+03    0.20251E-03   -0.31503E-03 38448   0.244E-01    0.524E-01
DAV:   9    -0.222777193852E+03    0.10022E-03   -0.19973E-03 38128   0.171E-01    0.262E-01
DAV:  10    -0.222777183687E+03    0.10165E-04   -0.45752E-04 38336   0.129E-01    0.153E-01
DAV:  11    -0.222777204237E+03   -0.20551E-04   -0.21671E-04 30400   0.642E-02    0.104E-01
DAV:  12    -0.222777228264E+03   -0.24026E-04   -0.11768E-04 28024   0.571E-02    0.102E-01
DAV:  13    -0.222777222483E+03    0.57809E-05   -0.87027E-05 26424   0.548E-02
  60 F= -.22277722E+03 E0= -.22275908E+03  d E =0.164897E-01  mag=    22.0000
       N       E                     dE             d eps       ncg     rms          rms(c)
DAV:   1    -0.222669808404E+03    0.10742E+00   -0.75851E+00 30872   0.161E+01    0.155E+00
DAV:   2    -0.222805566780E+03   -0.13576E+00   -0.12091E+00 28904   0.309E+00    0.328E+00
DAV:   3    -0.222792105469E+03    0.13461E-01   -0.14320E-01 37880   0.118E+00    0.185E+00
DAV:   4    -0.222795131053E+03   -0.30256E-02   -0.43022E-02 39488   0.609E-01    0.139E+00
DAV:   5    -0.222792639493E+03    0.24916E-02   -0.15402E-02 38648   0.358E-01    0.514E-01
DAV:   6    -0.222793164567E+03   -0.52507E-03   -0.31578E-03 38824   0.217E-01    0.401E-01
DAV:   7    -0.222793634511E+03   -0.46994E-03   -0.57548E-03 38552   0.214E-01    0.583E-01
DAV:   8    -0.222793341795E+03    0.29272E-03   -0.36562E-03 38528   0.178E-01    0.279E-01
DAV:   9    -0.222793301456E+03    0.40339E-04   -0.49515E-04 38288   0.130E-01    0.102E-01
DAV:  10    -0.222793338877E+03   -0.37421E-04   -0.14664E-04 31304   0.689E-02    0.105E-01
DAV:  11    -0.222793345452E+03   -0.65748E-05   -0.10617E-04 26912   0.593E-02    0.777E-02
DAV:  12    -0.222793348471E+03   -0.30187E-05   -0.45688E-05 24192   0.399E-02
  61 F= -.22279335E+03 E0= -.22277527E+03  d E =-.161260E-01  mag=    22.0000
       N       E                     dE             d eps       ncg     rms          rms(c)
DAV:   1    -0.222781845276E+03    0.11500E-01   -0.18059E+00 29424   0.608E+00    0.478E-01
DAV:   2    -0.222797638095E+03   -0.15793E-01   -0.13529E-01 30576   0.115E+00    0.153E+00
DAV:   3    -0.222793892293E+03    0.37458E-02   -0.20356E-02 37616   0.418E-01    0.413E-01
DAV:   4    -0.222794797619E+03   -0.90533E-03   -0.30451E-03 39272   0.193E-01    0.512E-01
DAV:   5    -0.222794479094E+03    0.31853E-03   -0.19901E-03 38392   0.140E-01    0.269E-01
DAV:   6    -0.222794506700E+03   -0.27606E-04   -0.43279E-04 36160   0.101E-01    0.239E-01
DAV:   7    -0.222794478207E+03    0.28493E-04   -0.37607E-04 36872   0.970E-02    0.158E-01
DAV:   8    -0.222794526981E+03   -0.48774E-04   -0.72607E-04 37552   0.105E-01    0.208E-01
DAV:   9    -0.222794498866E+03    0.28115E-04   -0.68490E-04 30904   0.724E-02    0.139E-01
DAV:  10    -0.222794475346E+03    0.23521E-04   -0.15717E-04 25696   0.500E-02    0.436E-02
DAV:  11    -0.222794477744E+03   -0.23984E-05   -0.13346E-05 18952   0.227E-02
  62 F= -.22279448E+03 E0= -.22277640E+03  d E =-.112927E-02  mag=    22.0000
       N       E                     dE             d eps       ncg     rms          rms(c)
DAV:   1    -0.222792171015E+03    0.23043E-02   -0.17419E-01 30656   0.233E+00    0.220E-01
DAV:   2    -0.222794944337E+03   -0.27733E-02   -0.24269E-02 28416   0.443E-01    0.540E-01
DAV:   3    -0.222794676381E+03    0.26796E-03   -0.39196E-03 37616   0.184E-01    0.277E-01
DAV:   4    -0.222794717502E+03   -0.41121E-04   -0.58031E-04 34160   0.814E-02    0.148E-01
DAV:   5    -0.222794700094E+03    0.17408E-04   -0.24039E-04 26568   0.507E-02    0.883E-02
DAV:   6    -0.222794706961E+03   -0.68673E-05   -0.74546E-05 24496   0.384E-02
  63 F= -.22279471E+03 E0= -.22277662E+03  d E =-.229217E-03  mag=    22.0000
       N       E                     dE             d eps       ncg     rms          rms(c)
DAV:   1    -0.222794587835E+03    0.11226E-03   -0.20895E-02 29992   0.686E-01    0.805E-02
DAV:   2    -0.222794960987E+03   -0.37315E-03   -0.26565E-03 33824   0.163E-01    0.390E-01
DAV:   3    -0.222794712370E+03    0.24862E-03   -0.11610E-03 34832   0.109E-01    0.641E-02
DAV:   4    -0.222794746842E+03   -0.34472E-04   -0.76254E-05 25720   0.370E-02    0.714E-02
DAV:   5    -0.222794743641E+03    0.32010E-05   -0.58979E-05 20472   0.257E-02
  64 F= -.22279474E+03 E0= -.22277669E+03  d E =-.366800E-04  mag=    22.0000
       N       E                     dE             d eps       ncg     rms          rms(c)
DAV:   1    -0.222766860331E+03    0.27887E-01   -0.99140E+00 29168   0.103E+01    0.527E-01
DAV:   2    -0.222795558538E+03   -0.28698E-01   -0.28443E-01 27656   0.174E+00    0.920E-01
DAV:   3    -0.222795934802E+03   -0.37626E-03   -0.23029E-02 40728   0.452E-01    0.951E-01
DAV:   4    -0.222794665145E+03    0.12697E-02   -0.65537E-03 39584   0.233E-01    0.348E-01
DAV:   5    -0.222794632208E+03    0.32938E-04   -0.13878E-03 39656   0.143E-01    0.287E-01
DAV:   6    -0.222794632379E+03   -0.17183E-06   -0.14844E-03 38792   0.125E-01    0.347E-01
DAV:   7    -0.222794350744E+03    0.28164E-03   -0.11856E-03 36424   0.141E-01    0.153E-01
DAV:   8    -0.222794401691E+03   -0.50947E-04   -0.46228E-04 37912   0.102E-01    0.163E-01
DAV:   9    -0.222794392916E+03    0.87748E-05   -0.34456E-04 28968   0.667E-02    0.125E-01
DAV:  10    -0.222794371502E+03    0.21414E-04   -0.12651E-04 24400   0.436E-02    0.503E-02
DAV:  11    -0.222794370279E+03    0.12229E-05   -0.16338E-05 19728   0.271E-02
  65 F= -.22279437E+03 E0= -.22277637E+03  d E =0.373362E-03  mag=    22.0000
       N       E                     dE             d eps       ncg     rms          rms(c)
DAV:   1    -0.222436714382E+03    0.35766E+00   -0.34911E+01 30384   0.300E+01    0.256E+00
DAV:   2    -0.222843036159E+03   -0.40632E+00   -0.36001E+00 30272   0.573E+00    0.629E+00
DAV:   3    -0.222780853927E+03    0.62182E-01   -0.34865E-01 37784   0.202E+00    0.422E+00
DAV:   4    -0.222778912729E+03    0.19412E-02   -0.31654E-01 39192   0.111E+00    0.322E+00
DAV:   5    -0.222771382314E+03    0.75304E-02   -0.91385E-02 38616   0.808E-01    0.122E+00
DAV:   6    -0.222772793957E+03   -0.14116E-02   -0.12603E-02 38480   0.422E-01    0.106E+00
DAV:   7    -0.222773646348E+03   -0.85239E-03   -0.29673E-02 38760   0.406E-01    0.117E+00
DAV:   8    -0.222772704932E+03    0.94142E-03   -0.75063E-03 38504   0.374E-01    0.744E-01
DAV:   9    -0.222772567427E+03    0.13750E-03   -0.43835E-03 38472   0.319E-01    0.422E-01
DAV:  10    -0.222772592391E+03   -0.24964E-04   -0.13695E-03 38512   0.194E-01    0.321E-01
DAV:  11    -0.222772554767E+03    0.37624E-04   -0.71714E-04 38224   0.129E-01    0.205E-01
DAV:  12    -0.222772551350E+03    0.34172E-05   -0.35681E-04 37168   0.953E-02    0.147E-01
DAV:  13    -0.222772550635E+03    0.71540E-06   -0.11644E-04 28248   0.646E-02    0.106E-01
DAV:  14    -0.222772540645E+03    0.99895E-05   -0.73503E-05 26696   0.538E-02
  66 F= -.22277254E+03 E0= -.22275430E+03  d E =0.218296E-01  mag=    22.0000
       N       E                     dE             d eps       ncg     rms          rms(c)
DAV:   1    -0.222739578206E+03    0.32972E-01   -0.32165E+00 31176   0.102E+01    0.962E-01
DAV:   2    -0.222792369328E+03   -0.52791E-01   -0.46753E-01 28432   0.191E+00    0.218E+00
DAV:   3    -0.222789260243E+03    0.31091E-02   -0.77680E-02 38336   0.748E-01    0.131E+00
DAV:   4    -0.222789074097E+03    0.18615E-03   -0.11693E-02 39192   0.344E-01    0.385E-01
DAV:   5    -0.222789132440E+03   -0.58343E-04   -0.98275E-04 40088   0.190E-01    0.269E-01
DAV:   6    -0.222789238213E+03   -0.10577E-03   -0.62202E-04 38088   0.117E-01    0.233E-01
DAV:   7    -0.222789459545E+03   -0.22133E-03   -0.17864E-03 38816   0.141E-01    0.388E-01
DAV:   8    -0.222789319140E+03    0.14041E-03   -0.13843E-03 37944   0.116E-01    0.222E-01
DAV:   9    -0.222789268743E+03    0.50396E-04   -0.29191E-04 32488   0.820E-02    0.867E-02
DAV:  10    -0.222789283439E+03   -0.14696E-04   -0.19970E-04 26264   0.484E-02    0.999E-02
DAV:  11    -0.222789279506E+03    0.39338E-05   -0.13800E-04 24088   0.372E-02    0.591E-02
DAV:  12    -0.222789279276E+03    0.23001E-06   -0.22288E-05 18976   0.243E-02
  67 F= -.22278928E+03 E0= -.22277121E+03  d E =-.167386E-01  mag=    22.0000
       N       E                     dE             d eps       ncg     rms          rms(c)
DAV:   1    -0.222787219090E+03    0.20604E-02   -0.37343E-01 31248   0.344E+00    0.320E-01
DAV:   2    -0.222793059923E+03   -0.58408E-02   -0.51851E-02 28512   0.644E-01    0.743E-01
DAV:   3    -0.222792636113E+03    0.42381E-03   -0.81161E-03 38272   0.253E-01    0.428E-01
DAV:   4    -0.222792638040E+03   -0.19271E-05   -0.11805E-03 38024   0.115E-01    0.129E-01
DAV:   5    -0.222792658236E+03   -0.20196E-04   -0.19008E-04 28864   0.665E-02    0.129E-01
DAV:   6    -0.222792680481E+03   -0.22245E-04   -0.26526E-04 26824   0.531E-02    0.147E-01
DAV:   7    -0.222792661733E+03    0.18748E-04   -0.18402E-04 29456   0.572E-02    0.692E-02
DAV:   8    -0.222792675181E+03   -0.13448E-04   -0.88102E-05 25016   0.414E-02    0.803E-02
DAV:   9    -0.222792669120E+03    0.60613E-05   -0.89610E-05 22072   0.314E-02
  68 F= -.22279267E+03 E0= -.22277469E+03  d E =-.338984E-02  mag=    22.0000
       N       E                     dE             d eps       ncg     rms          rms(c)
DAV:   1    -0.222756838929E+03    0.35836E-01   -0.31358E+00 30936   0.962E+00    0.844E-01
DAV:   2    -0.222798676350E+03   -0.41837E-01   -0.37390E-01 28480   0.178E+00    0.189E+00
DAV:   3    -0.222796404233E+03    0.22721E-02   -0.59769E-02 38264   0.644E-01    0.115E+00
DAV:   4    -0.222796364363E+03    0.39869E-04   -0.93634E-03 39056   0.313E-01    0.435E-01
DAV:   5    -0.222796276046E+03    0.88318E-04   -0.15205E-03 39216   0.185E-01    0.297E-01
[...]
DAV:   4    -0.222796643384E+03    0.15298E-03   -0.74823E-04 37792   0.833E-02    0.144E-01
DAV:   5    -0.222796651044E+03   -0.76600E-05   -0.24617E-04 29480   0.612E-02    0.157E-01
DAV:   6    -0.222796636971E+03    0.14073E-04   -0.25476E-04 30688   0.521E-02    0.149E-01
DAV:   7    -0.222796602244E+03    0.34726E-04   -0.31371E-04 35776   0.678E-02    0.108E-01
DAV:   8    -0.222796591704E+03    0.10540E-04   -0.92538E-05 32864   0.529E-02    0.552E-02
DAV:   9    -0.222796591653E+03    0.51015E-07   -0.35948E-05 20416   0.279E-02
  82 F= -.22279659E+03 E0= -.22277858E+03  d E =0.126915E-04  mag=    22.0000
       N       E                     dE             d eps       ncg     rms          rms(c)
DAV:   1    -0.222792132996E+03    0.44587E-02   -0.61460E-01 29000   0.359E+00    0.266E-01
DAV:   2    -0.222796373348E+03   -0.42404E-02   -0.40224E-02 27816   0.623E-01    0.314E-01
DAV:   3    -0.222796894401E+03   -0.52105E-03   -0.45299E-03 41624   0.193E-01    0.574E-01
DAV:   4    -0.222796430981E+03    0.46342E-03   -0.20966E-03 39192   0.123E-01    0.117E-01
DAV:   5    -0.222796471200E+03   -0.40220E-04   -0.10717E-04 28648   0.591E-02    0.875E-02
DAV:   6    -0.222796484002E+03   -0.12801E-04   -0.15860E-04 30680   0.509E-02    0.121E-01
DAV:   7    -0.222796470255E+03    0.13746E-04   -0.19950E-04 26352   0.499E-02    0.803E-02
DAV:   8    -0.222796475402E+03   -0.51468E-05   -0.72362E-05 23960   0.427E-02
  83 F= -.22279648E+03 E0= -.22277845E+03  d E =0.116251E-03  mag=    22.0000
       N       E                     dE             d eps       ncg     rms          rms(c)
DAV:   1    -0.222794885183E+03    0.15851E-02   -0.28590E-01 29256   0.233E+00    0.162E-01
DAV:   2    -0.222796751145E+03   -0.18660E-02   -0.17460E-02 28216   0.432E-01    0.370E-01
DAV:   3    -0.222796619277E+03    0.13187E-03   -0.20732E-03 39280   0.129E-01    0.178E-01
DAV:   4    -0.222796656265E+03   -0.36987E-04   -0.35576E-04 30272   0.702E-02    0.144E-01
DAV:   5    -0.222796638870E+03    0.17395E-04   -0.18104E-04 26528   0.480E-02    0.106E-01
DAV:   6    -0.222796636383E+03    0.24870E-05   -0.75788E-05 22240   0.328E-02
  84 F= -.22279664E+03 E0= -.22277858E+03  d E =-.160981E-03  mag=    22.0000
       N       E                     dE             d eps       ncg     rms          rms(c)
DAV:   1    -0.222796422177E+03    0.21669E-03   -0.28422E-02 29440   0.745E-01    0.835E-02
DAV:   2    -0.222796756302E+03   -0.33412E-03   -0.26847E-03 31944   0.185E-01    0.302E-01
DAV:   3    -0.222796612683E+03    0.14362E-03   -0.10715E-03 35136   0.995E-02    0.960E-02
DAV:   4    -0.222796620262E+03   -0.75789E-05   -0.95301E-05 26064   0.465E-02
  85 F= -.22279662E+03 E0= -.22277855E+03  d E =0.161208E-04  mag=    22.0000
       N       E                     dE             d eps       ncg     rms          rms(c)
DAV:   1    -0.222795471571E+03    0.11411E-02   -0.30527E-01 28928   0.185E+00    0.107E-01
DAV:   2    -0.222796537246E+03   -0.10657E-02   -0.99558E-03 29192   0.330E-01    0.317E-01
DAV:   3    -0.222796412349E+03    0.12490E-03   -0.11543E-03 41632   0.106E-01    0.140E-01
DAV:   4    -0.222796408888E+03    0.34607E-05   -0.13358E-04 28744   0.481E-02    0.868E-02
DAV:   5    -0.222796398627E+03    0.10261E-04   -0.58890E-05 24168   0.364E-02    0.611E-02
DAV:   6    -0.222796401553E+03   -0.29264E-05   -0.67288E-05 19104   0.292E-02
  86 F= -.22279640E+03 E0= -.22277829E+03  d E =0.218709E-03  mag=    22.0000
       N       E                     dE             d eps       ncg     rms          rms(c)
DAV:   1    -0.222775084586E+03    0.21314E-01   -0.59910E+00 29856   0.859E+00    0.477E-01
DAV:   2    -0.222796654884E+03   -0.21570E-01   -0.20263E-01 28456   0.151E+00    0.132E+00
DAV:   3    -0.222794593784E+03    0.20611E-02   -0.21579E-02 40920   0.434E-01    0.532E-01
DAV:   4    -0.222794808514E+03   -0.21473E-03   -0.33380E-03 40224   0.201E-01    0.464E-01
DAV:   5    -0.222794530666E+03    0.27785E-03   -0.22692E-03 38728   0.144E-01    0.256E-01
DAV:   6    -0.222794544838E+03   -0.14172E-04   -0.70535E-04 38856   0.105E-01    0.276E-01
DAV:   7    -0.222794495888E+03    0.48950E-04   -0.10666E-03 37176   0.125E-01    0.290E-01
DAV:   8    -0.222794417434E+03    0.78454E-04   -0.10440E-03 38688   0.106E-01    0.193E-01
DAV:   9    -0.222794407190E+03    0.10244E-04   -0.31266E-04 33600   0.786E-02    0.109E-01
DAV:  10    -0.222794397313E+03    0.98770E-05   -0.49879E-05 24296   0.408E-02
  87 F= -.22279440E+03 E0= -.22277620E+03  d E =0.200424E-02  mag=    22.0000
       N       E                     dE             d eps       ncg     rms          rms(c)
DAV:   1    -0.222582049488E+03    0.21236E+00   -0.18661E+01 30592   0.224E+01    0.186E+00
DAV:   2    -0.222790582093E+03   -0.20853E+00   -0.18875E+00 28136   0.425E+00    0.374E+00
DAV:   3    -0.222782301778E+03    0.82803E-02   -0.22800E-01 38712   0.139E+00    0.234E+00
DAV:   4    -0.222780814288E+03    0.14875E-02   -0.31363E-02 38928   0.737E-01    0.109E+00
DAV:   5    -0.222780923743E+03   -0.10945E-03   -0.13036E-02 40080   0.462E-01    0.928E-01
DAV:   6    -0.222781404898E+03   -0.48116E-03   -0.12302E-02 39240   0.309E-01    0.999E-01
DAV:   7    -0.222780917861E+03    0.48704E-03   -0.91555E-03 38824   0.327E-01    0.692E-01
DAV:   8    -0.222780924479E+03   -0.66177E-05   -0.56540E-03 38712   0.321E-01    0.608E-01
DAV:   9    -0.222780948453E+03   -0.23974E-04   -0.67415E-03 38672   0.237E-01    0.527E-01
DAV:  10    -0.222780559514E+03    0.38894E-03   -0.24097E-03 38496   0.150E-01    0.143E-01
DAV:  11    -0.222780602144E+03   -0.42630E-04   -0.25811E-04 37720   0.697E-02    0.111E-01
DAV:  12    -0.222780663473E+03   -0.61329E-04   -0.19481E-04 31504   0.842E-02    0.117E-01
DAV:  13    -0.222780667767E+03   -0.42944E-05   -0.90994E-05 27368   0.562E-02
  88 F= -.22278067E+03 E0= -.22276294E+03  d E =0.137295E-01  mag=    22.0000
       N       E                     dE             d eps       ncg     rms          rms(c)
DAV:   1    -0.222772232537E+03    0.84309E-02   -0.12368E+00 31184   0.614E+00    0.550E-01
DAV:   2    -0.222789220579E+03   -0.16988E-01   -0.15560E-01 28224   0.115E+00    0.938E-01
DAV:   3    -0.222789505436E+03   -0.28486E-03   -0.18050E-02 38528   0.422E-01    0.873E-01
DAV:   4    -0.222788947854E+03    0.55758E-03   -0.54253E-03 38928   0.237E-01    0.321E-01
DAV:   5    -0.222788949582E+03   -0.17283E-05   -0.10538E-03 39648   0.135E-01    0.229E-01
DAV:   6    -0.222789000649E+03   -0.51067E-04   -0.86336E-04 33664   0.853E-02    0.247E-01
DAV:   7    -0.222788978605E+03    0.22044E-04   -0.68367E-04 38360   0.905E-02    0.175E-01
DAV:   8    -0.222789002147E+03   -0.23542E-04   -0.56063E-04 35120   0.834E-02    0.192E-01
DAV:   9    -0.222788974077E+03    0.28069E-04   -0.47860E-04 28288   0.647E-02    0.109E-01
DAV:  10    -0.222788963976E+03    0.10102E-04   -0.76733E-05 25280   0.457E-02    0.412E-02
DAV:  11    -0.222788963251E+03    0.72487E-06   -0.12991E-05 19096   0.258E-02
  89 F= -.22278896E+03 E0= -.22277111E+03  d E =-.829548E-02  mag=    22.0000
       N       E                     dE             d eps       ncg     rms          rms(c)
DAV:   1    -0.222784933860E+03    0.40301E-02   -0.62150E-01 31096   0.426E+00    0.372E-01
DAV:   2    -0.222792833397E+03   -0.78995E-02   -0.72438E-02 28312   0.800E-01    0.661E-01
DAV:   3    -0.222792881636E+03   -0.48240E-04   -0.85465E-03 38656   0.290E-01    0.570E-01
DAV:   4    -0.222792658581E+03    0.22306E-03   -0.21504E-03 39056   0.154E-01    0.198E-01
DAV:   5    -0.222792669743E+03   -0.11163E-04   -0.42536E-04 33416   0.911E-02    0.155E-01
DAV:   6    -0.222792698930E+03   -0.29187E-04   -0.40734E-04 29456   0.611E-02    0.179E-01
DAV:   7    -0.222792683642E+03    0.15288E-04   -0.37706E-04 33280   0.653E-02    0.126E-01
DAV:   8    -0.222792694474E+03   -0.10832E-04   -0.25352E-04 28848   0.603E-02    0.132E-01
DAV:   9    -0.222792683422E+03    0.11053E-04   -0.25376E-04 26016   0.473E-02    0.799E-02
DAV:  10    -0.222792677015E+03    0.64065E-05   -0.35604E-05 21304   0.319E-02
  90 F= -.22279268E+03 E0= -.22277473E+03  d E =-.371376E-02  mag=    22.0000
       N       E                     dE             d eps       ncg     rms          rms(c)
DAV:   1    -0.222783420113E+03    0.92633E-02   -0.10644E+00 31040   0.539E+00    0.451E-01
DAV:   2    -0.222795615754E+03   -0.12196E-01   -0.11078E-01 28272   0.102E+00    0.902E-01
DAV:   3    -0.222795201201E+03    0.41455E-03   -0.13101E-02 38616   0.362E-01    0.617E-01
DAV:   4    -0.222795095959E+03    0.10524E-03   -0.26270E-03 39368   0.183E-01    0.252E-01
DAV:   5    -0.222795082437E+03    0.13522E-04   -0.60165E-04 38224   0.116E-01    0.188E-01
DAV:   6    -0.222795122995E+03   -0.40558E-04   -0.63238E-04 32936   0.789E-02    0.217E-01
DAV:   7    -0.222795106587E+03    0.16408E-04   -0.69347E-04 36696   0.857E-02    0.163E-01
DAV:   8    -0.222795090539E+03    0.16048E-04   -0.25754E-04 35456   0.805E-02    0.892E-02
DAV:   9    -0.222795124968E+03   -0.34429E-04   -0.25966E-04 27272   0.497E-02    0.157E-01
DAV:  10    -0.222795088012E+03    0.36956E-04   -0.15262E-04 23944   0.386E-02    0.355E-02
DAV:  11    -0.222795090197E+03   -0.21850E-05   -0.76575E-06 16752   0.183E-02
  91 F= -.22279509E+03 E0= -.22277703E+03  d E =-.241318E-02  mag=    22.0000
       N       E                     dE             d eps       ncg     rms          rms(c)
DAV:   1    -0.222793988956E+03    0.10991E-02   -0.18545E-01 30488   0.202E+00    0.150E-01
DAV:   2    -0.222795497066E+03   -0.15081E-02   -0.13646E-02 28368   0.382E-01    0.348E-01
DAV:   3    -0.222795377169E+03    0.11990E-03   -0.15311E-03 38648   0.130E-01    0.179E-01
DAV:   4    -0.222795391151E+03   -0.13983E-04   -0.24587E-04 29008   0.654E-02    0.102E-01
DAV:   5    -0.222795387506E+03    0.36458E-05   -0.99653E-05 25696   0.493E-02
  92 F= -.22279539E+03 E0= -.22277726E+03  d E =-.297309E-03  mag=    22.0000
       N       E                     dE             d eps       ncg     rms          rms(c)
DAV:   1    -0.222794499887E+03    0.89126E-03   -0.23785E-01 29400   0.182E+00    0.132E-01
DAV:   2    -0.222795590688E+03   -0.10908E-02   -0.10025E-02 30600   0.336E-01    0.390E-01
DAV:   3    -0.222795378393E+03    0.21230E-03   -0.13138E-03 38112   0.112E-01    0.134E-01
DAV:   4    -0.222795409369E+03   -0.30976E-04   -0.86493E-05 27096   0.374E-02    0.125E-01
DAV:   5    -0.222795408948E+03    0.42080E-06   -0.12051E-04 23128   0.351E-02    0.123E-01
DAV:   6    -0.222795412907E+03   -0.39589E-05   -0.11502E-04 25864   0.481E-02    0.120E-01
DAV:   7    -0.222795415837E+03   -0.29304E-05   -0.18580E-04 35184   0.651E-02    0.111E-01
DAV:   8    -0.222795400960E+03    0.14877E-04   -0.11540E-04 26456   0.443E-02    0.677E-02
DAV:   9    -0.222795396975E+03    0.39850E-05   -0.44432E-05 19880   0.271E-02
  93 F= -.22279540E+03 E0= -.22277728E+03  d E =-.946975E-05  mag=    22.0000
       N       E                     dE             d eps       ncg     rms          rms(c)
DAV:   1    -0.222795303246E+03    0.97714E-04   -0.13636E-02 29536   0.471E-01    0.343E-02
DAV:   2    -0.222795374791E+03   -0.71545E-04   -0.65507E-04 28344   0.853E-02    0.836E-02
DAV:   3    -0.222795367766E+03    0.70252E-05   -0.87486E-05 24000   0.289E-02    0.463E-02
DAV:   4    -0.222795367821E+03   -0.55330E-07   -0.14590E-05 16720   0.182E-02
  94 F= -.22279537E+03 E0= -.22277726E+03  d E =0.291541E-04  mag=    22.0000
       N       E                     dE             d eps       ncg     rms          rms(c)
DAV:   1    -0.222795079095E+03    0.28867E-03   -0.70032E-02 29200   0.913E-01    0.532E-02
DAV:   2    -0.222795322229E+03   -0.24313E-03   -0.22873E-03 28144   0.158E-01    0.143E-01
DAV:   3    -0.222795298923E+03    0.23306E-04   -0.24769E-04 31240   0.506E-02    0.667E-02
DAV:   4    -0.222795297534E+03    0.13894E-05   -0.30025E-05 20088   0.223E-02
  95 F= -.22279530E+03 E0= -.22277718E+03  d E =0.702876E-04  mag=    22.0000
       N       E                     dE             d eps       ncg     rms          rms(c)
DAV:   1    -0.222794659875E+03    0.63905E-03   -0.21498E-01 29200   0.143E+00    0.846E-02
DAV:   2    -0.222795397910E+03   -0.73804E-03   -0.63760E-03 30792   0.255E-01    0.386E-01
DAV:   3    -0.222795159989E+03    0.23792E-03   -0.10110E-03 39152   0.966E-02    0.564E-02
DAV:   4    -0.222795183353E+03   -0.23364E-04   -0.67586E-05 25488   0.319E-02    0.699E-02
DAV:   5    -0.222795176434E+03    0.69186E-05   -0.69671E-05 20864   0.282E-02
  96 F= -.22279518E+03 E0= -.22277708E+03  d E =0.121099E-03  mag=    22.0000
       N       E                     dE             d eps       ncg     rms          rms(c)
DAV:   1    -0.222640265764E+03    0.15492E+00   -0.12882E+01 30088   0.188E+01    0.156E+00
DAV:   2    -0.222774521075E+03   -0.13426E+00   -0.12858E+00 27816   0.340E+00    0.969E-01
DAV:   3    -0.222788754842E+03   -0.14234E-01   -0.62897E-02 41008   0.822E-01    0.207E+00
DAV:   4    -0.222781744634E+03    0.70102E-02   -0.31805E-02 38336   0.538E-01    0.562E-01
DAV:   5    -0.222782745146E+03   -0.10005E-02   -0.35564E-03 41016   0.283E-01    0.643E-01
DAV:   6    -0.222783172985E+03   -0.42784E-03   -0.91310E-03 39336   0.248E-01    0.789E-01
DAV:   7    -0.222782544203E+03    0.62878E-03   -0.60908E-03 39080   0.266E-01    0.370E-01
DAV:   8    -0.222782734800E+03   -0.19060E-03   -0.14745E-03 39424   0.198E-01    0.306E-01
DAV:   9    -0.222782637837E+03    0.96964E-04   -0.83348E-04 38424   0.138E-01    0.178E-01
DAV:  10    -0.222782606603E+03    0.31234E-04   -0.40020E-04 32064   0.677E-02    0.105E-01
DAV:  11    -0.222782593611E+03    0.12992E-04   -0.92612E-05 25912   0.442E-02    0.630E-02
DAV:  12    -0.222782584289E+03    0.93221E-05   -0.25888E-05 22824   0.338E-02
  97 F= -.22278258E+03 E0= -.22276441E+03  d E =0.125921E-01  mag=    22.0000
       N       E                     dE             d eps       ncg     rms          rms(c)
DAV:   1    -0.222725977460E+03    0.56616E-01   -0.41354E+00 31016   0.118E+01    0.113E+00
DAV:   2    -0.222791814340E+03   -0.65837E-01   -0.61267E-01 28416   0.217E+00    0.150E+00
DAV:   3    -0.222799188193E+03   -0.73739E-02   -0.95733E-02 39232   0.797E-01    0.226E+00
DAV:   4    -0.222792894137E+03    0.62941E-02   -0.39672E-02 39168   0.485E-01    0.499E-01
DAV:   5    -0.222793806470E+03   -0.91233E-03   -0.48672E-03 43576   0.217E-01    0.510E-01
DAV:   6    -0.222793817232E+03   -0.10762E-04   -0.32771E-03 38752   0.187E-01    0.381E-01
DAV:   7    -0.222793713876E+03    0.10336E-03   -0.94717E-04 38896   0.164E-01    0.181E-01
DAV:   8    -0.222794004485E+03   -0.29061E-03   -0.15306E-03 39096   0.139E-01    0.390E-01
DAV:   9    -0.222793766457E+03    0.23803E-03   -0.12743E-03 36944   0.109E-01    0.110E-01
DAV:  10    -0.222793787463E+03   -0.21006E-04   -0.15199E-04 28232   0.605E-02    0.767E-02
DAV:  11    -0.222793783851E+03    0.36127E-05   -0.39924E-05 24520   0.401E-02
  98 F= -.22279378E+03 E0= -.22277583E+03  d E =-.111996E-01  mag=    22.0000
       N       E                     dE             d eps       ncg     rms          rms(c)
DAV:   1    -0.222790772676E+03    0.30148E-02   -0.40333E-01 29992   0.316E+00    0.250E-01
DAV:   2    -0.222794326546E+03   -0.35539E-02   -0.34058E-02 28192   0.570E-01    0.184E-01
DAV:   3    -0.222794679288E+03   -0.35274E-03   -0.16438E-03 40440   0.161E-01    0.342E-01
DAV:   4    -0.222794519460E+03    0.15983E-03   -0.11363E-03 36048   0.104E-01    0.163E-01
DAV:   5    -0.222794507860E+03    0.11600E-04   -0.17590E-04 27640   0.549E-02    0.901E-02
DAV:   6    -0.222794524926E+03   -0.17067E-04   -0.16781E-04 27752   0.457E-02    0.124E-01
DAV:   7    -0.222794512957E+03    0.11970E-04   -0.23701E-04 28120   0.476E-02    0.828E-02
DAV:   8    -0.222794515005E+03   -0.20482E-05   -0.88184E-05 25856   0.454E-02
  99 F= -.22279452E+03 E0= -.22277657E+03  d E =-.731154E-03  mag=    22.0000
       N       E                     dE             d eps       ncg     rms          rms(c)
DAV:   1    -0.222790611514E+03    0.39014E-02   -0.94071E-01 29424   0.376E+00    0.231E-01
DAV:   2    -0.222794647792E+03   -0.40363E-02   -0.39733E-02 27728   0.665E-01    0.246E-01
DAV:   3    -0.222794973940E+03   -0.32615E-03   -0.27462E-03 41888   0.186E-01    0.440E-01
DAV:   4    -0.222794683976E+03    0.28996E-03   -0.13320E-03 38176   0.112E-01    0.133E-01
DAV:   5    -0.222794706754E+03   -0.22778E-04   -0.18093E-04 29104   0.634E-02    0.134E-01
DAV:   6    -0.222794701561E+03    0.51936E-05   -0.22484E-04 28192   0.469E-02    0.130E-01
DAV:   7    -0.222794690993E+03    0.10567E-04   -0.21500E-04 34112   0.588E-02    0.111E-01
DAV:   8    -0.222794686856E+03    0.41378E-05   -0.17577E-04 31896   0.553E-02    0.912E-02
DAV:   9    -0.222794683546E+03    0.33099E-05   -0.14526E-04 23080   0.373E-02    0.656E-02
DAV:  10    -0.222794678605E+03    0.49405E-05   -0.31658E-05 18936   0.265E-02
 100 F= -.22279468E+03 E0= -.22277668E+03  d E =-.163600E-03  mag=    22.0000
       N       E                     dE             d eps       ncg     rms          rms(c)
DAV:   1    -0.222794268298E+03    0.41525E-03   -0.94165E-02 29256   0.122E+00    0.808E-02
DAV:   2    -0.222794721134E+03   -0.45284E-03   -0.43610E-03 27744   0.215E-01    0.164E-01
DAV:   3    -0.222794712719E+03    0.84153E-05   -0.52614E-04 38688   0.718E-02    0.126E-01
DAV:   4    -0.222794701966E+03    0.10753E-04   -0.10828E-04 25968   0.362E-02    0.633E-02
DAV:   5    -0.222794698643E+03    0.33231E-05   -0.49283E-05 19456   0.246E-02
 101 F= -.22279470E+03 E0= -.22277666E+03  d E =-.200376E-04  mag=    22.0000
       N       E                     dE             d eps       ncg     rms          rms(c)
DAV:   1    -0.222794429237E+03    0.27273E-03   -0.61856E-02 29328   0.942E-01    0.701E-02
DAV:   2    -0.222794731146E+03   -0.30191E-03   -0.27370E-03 29960   0.174E-01    0.213E-01
DAV:   3    -0.222794665429E+03    0.65717E-04   -0.50074E-04 36624   0.766E-02    0.762E-02
DAV:   4    -0.222794673004E+03   -0.75749E-05   -0.59084E-05 25064   0.354E-02
 102 F= -.22279467E+03 E0= -.22277659E+03  d E =0.256387E-04  mag=    22.0000
       N       E                     dE             d eps       ncg     rms          rms(c)
DAV:   1    -0.222794587657E+03    0.77773E-04   -0.23940E-02 29360   0.510E-01    0.476E-02
DAV:   2    -0.222794726673E+03   -0.13902E-03   -0.10343E-03 32824   0.103E-01    0.233E-01
DAV:   3    -0.222794638939E+03    0.87733E-04   -0.35390E-04 30080   0.551E-02    0.350E-02
DAV:   4    -0.222794648885E+03   -0.99460E-05   -0.18777E-05 19976   0.208E-02
 103 F= -.22279465E+03 E0= -.22277656E+03  d E =0.241187E-04  mag=    22.0000
       N       E                     dE             d eps       ncg     rms          rms(c)
DAV:   1    -0.222794455569E+03    0.18337E-03   -0.58087E-02 29120   0.914E-01    0.640E-02
DAV:   2    -0.222794762241E+03   -0.30667E-03   -0.25976E-03 31808   0.166E-01    0.257E-01
DAV:   3    -0.222794662156E+03    0.10008E-03   -0.58784E-04 33904   0.731E-02    0.571E-02
DAV:   4    -0.222794677293E+03   -0.15137E-04   -0.53351E-05 22968   0.273E-02    0.649E-02
DAV:   5    -0.222794670616E+03    0.66766E-05   -0.42541E-05 18048   0.222E-02
 104 F= -.22279467E+03 E0= -.22277659E+03  d E =-.217310E-04  mag=    22.0000
       N       E                     dE             d eps       ncg     rms          rms(c)
DAV:   1    -0.222794334480E+03    0.34281E-03   -0.10238E-01 29032   0.120E+00    0.790E-02
DAV:   2    -0.222794774371E+03   -0.43989E-03   -0.41934E-03 29448   0.208E-01    0.200E-01
DAV:   3    -0.222794732665E+03    0.41706E-04   -0.66692E-04 34208   0.824E-02    0.974E-02
DAV:   4    -0.222794732934E+03   -0.26979E-06   -0.83535E-05 25552   0.375E-02
 105 F= -.22279473E+03 E0= -.22277664E+03  d E =-.623179E-04  mag=    22.0000
