       N       E                     dE             d eps       ncg     rms          rms(c)
DAV:   1     0.832950568822E+04    0.83295E+04   -0.33050E+05 32872   0.163E+03
DAV:   2     0.630865200941E+03   -0.76986E+04   -0.71339E+04 31880   0.488E+02
DAV:   3    -0.422039352590E+03   -0.10529E+04   -0.10261E+04 32928   0.194E+02
DAV:   4    -0.472526526261E+03   -0.50487E+02   -0.49774E+02 37264   0.392E+01
DAV:   5    -0.475003765048E+03   -0.24772E+01   -0.24367E+01 51608   0.670E+00    0.777E+01
DAV:   6    -0.440820366409E+03    0.34183E+02   -0.33001E+02 37216   0.387E+01    0.608E+01
DAV:   7    -0.442509690161E+03   -0.16893E+01   -0.30367E+01 32776   0.153E+01    0.411E+01
DAV:   8    -0.442250655465E+03    0.25903E+00   -0.43718E+00 41384   0.714E+00    0.282E+01
DAV:   9    -0.442320810138E+03   -0.70155E-01   -0.52477E+00 39008   0.701E+00    0.177E+01
DAV:  10    -0.442226759701E+03    0.94050E-01   -0.24553E+00 36256   0.475E+00    0.759E+00
DAV:  11    -0.442182631784E+03    0.44128E-01   -0.34443E-01 37056   0.245E+00    0.313E+00
DAV:  12    -0.442181125433E+03    0.15064E-02   -0.18079E-01 36584   0.122E+00    0.191E+00
DAV:  13    -0.442189131009E+03   -0.80056E-02   -0.34157E-02 34064   0.492E-01    0.842E-01
DAV:  14    -0.442192717113E+03   -0.35861E-02   -0.11781E-02 40992   0.321E-01    0.670E-01
DAV:  15    -0.442194103882E+03   -0.13868E-02   -0.60177E-03 34816   0.221E-01    0.420E-01
DAV:  16    -0.442196041183E+03   -0.19373E-02   -0.19764E-03 32296   0.146E-01    0.294E-01
DAV:  17    -0.442196661451E+03   -0.62027E-03   -0.21220E-03 33936   0.139E-01    0.195E-01
DAV:  18    -0.442196704716E+03   -0.43265E-04   -0.50373E-04 35056   0.711E-02    0.476E-02
DAV:  19    -0.442196730864E+03   -0.26148E-04   -0.17777E-04 34672   0.364E-02    0.652E-02
DAV:  20    -0.442196730626E+03    0.23824E-06   -0.53913E-05 28432   0.283E-02
   1 F= -.44219673E+03 E0= -.44218654E+03  d E =-.442197E+03  mag=    77.9996
       N       E                     dE             d eps       ncg     rms          rms(c)
DAV:   1    -0.442197696049E+03   -0.96519E-03   -0.67754E-04 34640   0.832E-02    0.213E-02
DAV:   2    -0.442197704050E+03   -0.80008E-05   -0.84942E-05 30920   0.195E-02    0.240E-02
DAV:   3    -0.442197704478E+03   -0.42759E-06   -0.10297E-05 18112   0.961E-03    0.149E-02
DAV:   4    -0.442197704436E+03    0.41648E-07   -0.29363E-06 16424   0.484E-03
   2 F= -.44219770E+03 E0= -.44218752E+03  d E =-.973811E-03  mag=    77.9999
       N       E                     dE             d eps       ncg     rms          rms(c)
DAV:   1    -0.442227039139E+03   -0.29335E-01   -0.22392E+00 35280   0.473E+00    0.784E-01
DAV:   2    -0.442252072473E+03   -0.25033E-01   -0.23343E-01 33176   0.831E-01    0.502E-01
DAV:   3    -0.442253116835E+03   -0.10444E-02   -0.10724E-02 41344   0.248E-01    0.511E-01
DAV:   4    -0.442252873625E+03    0.24321E-03   -0.21190E-03 39464   0.121E-01    0.154E-01
DAV:   5    -0.442252832637E+03    0.40988E-04   -0.16560E-04 34944   0.396E-02    0.134E-01
DAV:   6    -0.442252759640E+03    0.72997E-04   -0.91048E-05 33888   0.381E-02    0.776E-02
DAV:   7    -0.442252729800E+03    0.29839E-04   -0.13486E-04 36272   0.397E-02    0.548E-02
DAV:   8    -0.442252728659E+03    0.11412E-05   -0.66031E-05 31384   0.217E-02
   3 F= -.44225273E+03 E0= -.44224243E+03  d E =-.550242E-01  mag=    78.0000
       N       E                     dE             d eps       ncg     rms          rms(c)
DAV:   1    -0.442205134791E+03    0.47595E-01   -0.16945E+01 34896   0.127E+01    0.211E+00
DAV:   2    -0.442386423901E+03   -0.18129E+00   -0.16987E+00 32752   0.225E+00    0.153E+00
DAV:   3    -0.442393179144E+03   -0.67552E-02   -0.78968E-02 41328   0.726E-01    0.132E+00
DAV:   4    -0.442391614186E+03    0.15650E-02   -0.12388E-02 39528   0.330E-01    0.396E-01
DAV:   5    -0.442391209411E+03    0.40477E-03   -0.13845E-03 38608   0.965E-02    0.356E-01
DAV:   6    -0.442390690674E+03    0.51874E-03   -0.11675E-03 38008   0.120E-01    0.224E-01
DAV:   7    -0.442390609940E+03    0.80734E-04   -0.14796E-03 37240   0.104E-01    0.222E-01
DAV:   8    -0.442390539344E+03    0.70596E-04   -0.53721E-04 38336   0.636E-02    0.383E-02
DAV:   9    -0.442390553076E+03   -0.13732E-04   -0.87892E-05 33720   0.215E-02    0.537E-02
DAV:  10    -0.442390550073E+03    0.30028E-05   -0.22245E-05 21088   0.141E-02
   4 F= -.44239055E+03 E0= -.44237994E+03  d E =-.137821E+00  mag=    78.0000
       N       E                     dE             d eps       ncg     rms          rms(c)
DAV:   1    -0.442203716561E+03    0.18684E+00   -0.30451E+01 35056   0.171E+01    0.288E+00
DAV:   2    -0.442534703032E+03   -0.33099E+00   -0.31278E+00 32176   0.311E+00    0.267E+00
DAV:   3    -0.442544568957E+03   -0.98659E-02   -0.18837E-01 41384   0.112E+00    0.196E+00
DAV:   4    -0.442541528805E+03    0.30402E-02   -0.26661E-02 37904   0.483E-01    0.546E-01
DAV:   5    -0.442540858745E+03    0.67006E-03   -0.37818E-03 38208   0.157E-01    0.543E-01
DAV:   6    -0.442540222145E+03    0.63660E-03   -0.31908E-03 39424   0.163E-01    0.432E-01
DAV:   7    -0.442539774517E+03    0.44763E-03   -0.23261E-03 39184   0.149E-01    0.255E-01
DAV:   8    -0.442539710287E+03    0.64229E-04   -0.94015E-04 37880   0.878E-02    0.101E-01
DAV:   9    -0.442539724943E+03   -0.14656E-04   -0.20939E-04 38504   0.352E-02    0.906E-02
DAV:  10    -0.442539718315E+03    0.66283E-05   -0.64560E-05 26632   0.232E-02
   5 F= -.44253972E+03 E0= -.44252885E+03  d E =-.149168E+00  mag=    78.0000
       N       E                     dE             d eps       ncg     rms          rms(c)
DAV:   1    -0.442009161496E+03    0.53056E+00   -0.50013E+01 34472   0.229E+01    0.412E+00
DAV:   2    -0.442642826357E+03   -0.63366E+00   -0.59931E+00 32376   0.431E+00    0.428E+00
DAV:   3    -0.442655391516E+03   -0.12565E-01   -0.38201E-01 40472   0.163E+00    0.273E+00
DAV:   4    -0.442651069727E+03    0.43218E-02   -0.40007E-02 37736   0.664E-01    0.748E-01
DAV:   5    -0.442650154953E+03    0.91477E-03   -0.84395E-03 37512   0.212E-01    0.768E-01
DAV:   6    -0.442649069977E+03    0.10850E-02   -0.60904E-03 39256   0.217E-01    0.552E-01
DAV:   7    -0.442648397809E+03    0.67217E-03   -0.35000E-03 38376   0.188E-01    0.392E-01
DAV:   8    -0.442648177150E+03    0.22066E-03   -0.18118E-03 36824   0.124E-01    0.155E-01
DAV:   9    -0.442648196280E+03   -0.19130E-04   -0.34923E-04 37768   0.449E-02    0.845E-02
DAV:  10    -0.442648197540E+03   -0.12596E-05   -0.69764E-05 30624   0.224E-02
   6 F= -.44264820E+03 E0= -.44263753E+03  d E =-.108479E+00  mag=    78.0000
       N       E                     dE             d eps       ncg     rms          rms(c)
DAV:   1    -0.442250124954E+03    0.39807E+00   -0.42982E+01 34640   0.208E+01    0.321E+00
DAV:   2    -0.442668539479E+03   -0.41841E+00   -0.39350E+00 32000   0.375E+00    0.331E+00
DAV:   3    -0.442679178176E+03   -0.10639E-01   -0.27096E-01 40736   0.136E+00    0.242E+00
DAV:   4    -0.442674884652E+03    0.42935E-02   -0.27600E-02 37408   0.577E-01    0.563E-01
DAV:   5    -0.442674493287E+03    0.39137E-03   -0.74148E-03 38656   0.182E-01    0.628E-01
DAV:   6    -0.442673661920E+03    0.83137E-03   -0.33512E-03 38248   0.165E-01    0.381E-01
DAV:   7    -0.442673266782E+03    0.39514E-03   -0.24998E-03 37128   0.164E-01    0.364E-01
DAV:   8    -0.442673052576E+03    0.21421E-03   -0.12045E-03 36192   0.106E-01    0.104E-01
DAV:   9    -0.442673064591E+03   -0.12015E-04   -0.25782E-04 35448   0.384E-02    0.546E-02
DAV:  10    -0.442673070207E+03   -0.56152E-05   -0.47459E-05 25480   0.177E-02
   7 F= -.44267307E+03 E0= -.44266289E+03  d E =-.248727E-01  mag=    78.0000
       N       E                     dE             d eps       ncg     rms          rms(c)
DAV:   1    -0.442095053146E+03    0.57801E+00   -0.99339E+01 34160   0.279E+01    0.330E+00
DAV:   2    -0.442666726508E+03   -0.57167E+00   -0.55289E+00 31664   0.493E+00    0.306E+00
DAV:   3    -0.442678144664E+03   -0.11418E-01   -0.28024E-01 40768   0.145E+00    0.257E+00
DAV:   4    -0.442671683946E+03    0.64607E-02   -0.27516E-02 38760   0.594E-01    0.718E-01
DAV:   5    -0.442670141008E+03    0.15429E-02   -0.81706E-03 38792   0.220E-01    0.598E-01
DAV:   6    -0.442668508601E+03    0.16324E-02   -0.25738E-03 35080   0.179E-01    0.379E-01
DAV:   7    -0.442667707447E+03    0.80115E-03   -0.29713E-03 36560   0.190E-01    0.296E-01
DAV:   8    -0.442667622248E+03    0.85199E-04   -0.13859E-03 37496   0.110E-01    0.751E-02
DAV:   9    -0.442667645578E+03   -0.23330E-04   -0.20335E-04 34992   0.363E-02    0.421E-02
DAV:  10    -0.442667647752E+03   -0.21740E-05   -0.20886E-05 24840   0.139E-02
   8 F= -.44266765E+03 E0= -.44265833E+03  d E =0.542246E-02  mag=    78.0000
       N       E                     dE             d eps       ncg     rms          rms(c)
DAV:   1    -0.442185004560E+03    0.48264E+00   -0.84936E+01 34008   0.258E+01    0.319E+00
DAV:   2    -0.442704227991E+03   -0.51922E+00   -0.49964E+00 32208   0.455E+00    0.197E+00
DAV:   3    -0.442714650466E+03   -0.10422E-01   -0.13058E-01 38688   0.994E-01    0.149E+00
DAV:   4    -0.442712030536E+03    0.26199E-02   -0.15786E-02 40768   0.411E-01    0.653E-01
DAV:   5    -0.442709949593E+03    0.20809E-02   -0.38244E-03 37704   0.194E-01    0.539E-01
DAV:   6    -0.442708451032E+03    0.14986E-02   -0.29977E-03 35952   0.198E-01    0.424E-01
DAV:   7    -0.442707741689E+03    0.70934E-03   -0.20780E-03 38728   0.164E-01    0.133E-01
DAV:   8    -0.442707800056E+03   -0.58366E-04   -0.96090E-04 37344   0.754E-02    0.997E-02
DAV:   9    -0.442707799216E+03    0.84036E-06   -0.13039E-04 36216   0.321E-02    0.589E-02
DAV:  10    -0.442707794116E+03    0.50991E-05   -0.26748E-05 25528   0.173E-02
   9 F= -.44270779E+03 E0= -.44269818E+03  d E =-.401464E-01  mag=    78.0000
       N       E                     dE             d eps       ncg     rms          rms(c)
DAV:   1    -0.442582223935E+03    0.12558E+00   -0.66632E+00 34512   0.109E+01    0.192E+00
DAV:   2    -0.442716486141E+03   -0.13426E+00   -0.12414E+00 31792   0.196E+00    0.102E+00
DAV:   3    -0.442722688767E+03   -0.62026E-02   -0.48362E-02 36240   0.514E-01    0.830E-01
DAV:   4    -0.442722366934E+03    0.32183E-03   -0.54979E-03 39016   0.215E-01    0.341E-01
DAV:   5    -0.442722200934E+03    0.16600E-03   -0.60206E-04 39584   0.705E-02    0.286E-01
DAV:   6    -0.442722023592E+03    0.17734E-03   -0.35972E-04 37512   0.685E-02    0.221E-01
DAV:   7    -0.442721854003E+03    0.16959E-03   -0.41925E-04 38568   0.918E-02    0.967E-02
DAV:   8    -0.442721853305E+03    0.69749E-06   -0.24674E-04 37344   0.440E-02    0.474E-02
DAV:   9    -0.442721855066E+03   -0.17607E-05   -0.41045E-05 28264   0.205E-02
  10 F= -.44272186E+03 E0= -.44271227E+03  d E =-.140609E-01  mag=    78.0000
       N       E                     dE             d eps       ncg     rms          rms(c)
DAV:   1    -0.442716909690E+03    0.49436E-02   -0.24270E+00 33792   0.404E+00    0.465E-01
DAV:   2    -0.442728715286E+03   -0.11806E-01   -0.11508E-01 31584   0.690E-01    0.301E-01
DAV:   3    -0.442728964490E+03   -0.24920E-03   -0.30741E-03 39368   0.153E-01    0.256E-01
DAV:   4    -0.442728896180E+03    0.68310E-04   -0.44018E-04 40240   0.676E-02    0.981E-02
DAV:   5    -0.442728851611E+03    0.44569E-04   -0.10085E-04 34920   0.326E-02    0.924E-02
DAV:   6    -0.442728821657E+03    0.29954E-04   -0.87752E-05 33432   0.322E-02    0.549E-02
DAV:   7    -0.442728816847E+03    0.48100E-05   -0.45317E-05 31392   0.219E-02
  11 F= -.44272882E+03 E0= -.44271923E+03  d E =-.696178E-02  mag=    78.0000
       N       E                     dE             d eps       ncg     rms          rms(c)
DAV:   1    -0.442400424632E+03    0.32840E+00   -0.80175E+01 33896   0.227E+01    0.240E+00
DAV:   2    -0.442754739569E+03   -0.35431E+00   -0.34837E+00 31008   0.384E+00    0.157E+00
DAV:   3    -0.442759195956E+03   -0.44564E-02   -0.83630E-02 38592   0.825E-01    0.135E+00
DAV:   4    -0.442757122179E+03    0.20738E-02   -0.13001E-02 40608   0.361E-01    0.531E-01
DAV:   5    -0.442755700418E+03    0.14218E-02   -0.35295E-03 35032   0.184E-01    0.537E-01
DAV:   6    -0.442754615915E+03    0.10845E-02   -0.26974E-03 36232   0.175E-01    0.274E-01
DAV:   7    -0.442754407363E+03    0.20855E-03   -0.13501E-03 37088   0.116E-01    0.106E-01
DAV:   8    -0.442754448250E+03   -0.40888E-04   -0.41955E-04 36064   0.544E-02    0.779E-02
DAV:   9    -0.442754449626E+03   -0.13760E-05   -0.55564E-05 29112   0.244E-02
  12 F= -.44275445E+03 E0= -.44274489E+03  d E =-.256328E-01  mag=    78.0000
       N       E                     dE             d eps       ncg     rms          rms(c)
DAV:   1    -0.441954281701E+03    0.80017E+00   -0.10230E+02 34224   0.301E+01    0.410E+00
DAV:   2    -0.442732985968E+03   -0.77870E+00   -0.73507E+00 31704   0.528E+00    0.243E+00
DAV:   3    -0.442757490402E+03   -0.24504E-01   -0.22325E-01 37264   0.120E+00    0.234E+00
DAV:   4    -0.442752056742E+03    0.54337E-02   -0.27192E-02 38808   0.583E-01    0.778E-01
DAV:   5    -0.442750215006E+03    0.18417E-02   -0.47564E-03 36992   0.187E-01    0.628E-01
DAV:   6    -0.442748616625E+03    0.15984E-02   -0.33115E-03 36816   0.209E-01    0.542E-01
DAV:   7    -0.442747706472E+03    0.91015E-03   -0.30627E-03 36560   0.205E-01    0.391E-01
DAV:   8    -0.442747465304E+03    0.24117E-03   -0.16139E-03 39688   0.137E-01    0.137E-01
DAV:   9    -0.442747505756E+03   -0.40452E-04   -0.32476E-04 33824   0.552E-02    0.505E-02
DAV:  10    -0.442747502408E+03    0.33476E-05   -0.44250E-05 30608   0.171E-02
  13 F= -.44274750E+03 E0= -.44273768E+03  d E =0.694722E-02  mag=    78.0000
       N       E                     dE             d eps       ncg     rms          rms(c)
DAV:   1    -0.442337795774E+03    0.40971E+00   -0.13416E+01 38416   0.181E+01    0.355E+00
DAV:   2    -0.442757906381E+03   -0.42011E+00   -0.37993E+00 31864   0.321E+00    0.217E+00
DAV:   3    -0.442780172657E+03   -0.22266E-01   -0.16543E-01 36880   0.102E+00    0.188E+00
DAV:   4    -0.442777284209E+03    0.28884E-02   -0.20845E-02 36256   0.485E-01    0.648E-01
DAV:   5    -0.442776900367E+03    0.38384E-03   -0.26734E-03 38088   0.135E-01    0.536E-01
DAV:   6    -0.442776271481E+03    0.62889E-03   -0.13651E-03 36400   0.126E-01    0.407E-01
DAV:   7    -0.442775772118E+03    0.49936E-03   -0.12743E-03 37008   0.164E-01    0.277E-01
DAV:   8    -0.442775671080E+03    0.10104E-03   -0.73759E-04 39688   0.951E-02    0.710E-02
DAV:   9    -0.442775694652E+03   -0.23572E-04   -0.20686E-04 36152   0.395E-02    0.104E-01
DAV:  10    -0.442775678724E+03    0.15928E-04   -0.71897E-05 27104   0.293E-02    0.307E-02
DAV:  11    -0.442775676673E+03    0.20515E-05   -0.13095E-05 20928   0.124E-02
  14 F= -.44277568E+03 E0= -.44276583E+03  d E =-.281743E-01  mag=    78.0000
       N       E                     dE             d eps       ncg     rms          rms(c)
DAV:   1    -0.442769896598E+03    0.57821E-02   -0.67423E-01 34968   0.357E+00    0.576E-01
DAV:   2    -0.442782277009E+03   -0.12380E-01   -0.11488E-01 31808   0.646E-01    0.272E-01
DAV:   3    -0.442782831814E+03   -0.55480E-03   -0.38740E-03 37384   0.140E-01    0.189E-01
DAV:   4    -0.442782810955E+03    0.20859E-04   -0.41632E-04 39384   0.540E-02    0.109E-01
DAV:   5    -0.442782779636E+03    0.31318E-04   -0.39072E-05 28944   0.237E-02    0.776E-02
DAV:   6    -0.442782753753E+03    0.25883E-04   -0.63873E-05 32288   0.316E-02    0.817E-02
DAV:   7    -0.442782741229E+03    0.12524E-04   -0.51233E-05 31032   0.301E-02    0.173E-02
DAV:   8    -0.442782742464E+03   -0.12352E-05   -0.18714E-05 22008   0.119E-02
  15 F= -.44278274E+03 E0= -.44277292E+03  d E =-.706579E-02  mag=    78.0000
       N       E                     dE             d eps       ncg     rms          rms(c)
DAV:   1    -0.442755637475E+03    0.27104E-01   -0.35940E+00 34272   0.664E+00    0.944E-01
DAV:   2    -0.442792998701E+03   -0.37361E-01   -0.35593E-01 31624   0.120E+00    0.507E-01
DAV:   3    -0.442794383352E+03   -0.13847E-02   -0.12214E-02 38568   0.276E-01    0.483E-01
DAV:   4    -0.442794177264E+03    0.20609E-03   -0.18638E-03 40096   0.122E-01    0.180E-01
DAV:   5    -0.442794078860E+03    0.98403E-04   -0.20710E-04 36400   0.454E-02    0.142E-01
DAV:   6    -0.442793990582E+03    0.88279E-04   -0.23021E-04 34472   0.534E-02    0.126E-01
DAV:   7    -0.442793954371E+03    0.36210E-04   -0.14368E-04 35784   0.496E-02    0.586E-02
DAV:   8    -0.442793952439E+03    0.19319E-05   -0.86895E-05 32656   0.250E-02
  16 F= -.44279395E+03 E0= -.44278414E+03  d E =-.112100E-01  mag=    78.0000
       N       E                     dE             d eps       ncg     rms          rms(c)
DAV:   1    -0.442771972464E+03    0.21982E-01   -0.62167E+00 33560   0.658E+00    0.719E-01
DAV:   2    -0.442801435419E+03   -0.29463E-01   -0.28954E-01 31488   0.114E+00    0.418E-01
DAV:   3    -0.442801983213E+03   -0.54779E-03   -0.78925E-03 38464   0.233E-01    0.414E-01
DAV:   4    -0.442801797893E+03    0.18532E-03   -0.14101E-03 40712   0.102E-01    0.149E-01
DAV:   5    -0.442801689312E+03    0.10858E-03   -0.19526E-04 35816   0.433E-02    0.129E-01
DAV:   6    -0.442801599825E+03    0.89487E-04   -0.20245E-04 34544   0.520E-02    0.944E-02
DAV:   7    -0.442801586531E+03    0.13294E-04   -0.12472E-04 34800   0.389E-02    0.536E-02
DAV:   8    -0.442801586358E+03    0.17346E-06   -0.47989E-05 27712   0.191E-02
  17 F= -.44280159E+03 E0= -.44279173E+03  d E =-.763392E-02  mag=    78.0000
       N       E                     dE             d eps       ncg     rms          rms(c)
DAV:   1    -0.441880673874E+03    0.92091E+00   -0.12933E+02 34288   0.337E+01    0.421E+00
DAV:   2    -0.442743583791E+03   -0.86291E+00   -0.82103E+00 31488   0.587E+00    0.232E+00
DAV:   3    -0.442764865364E+03   -0.21282E-01   -0.23111E-01 36320   0.125E+00    0.198E+00
DAV:   4    -0.442760552430E+03    0.43129E-02   -0.30190E-02 40072   0.561E-01    0.805E-01
DAV:   5    -0.442757545978E+03    0.30065E-02   -0.52190E-03 37376   0.212E-01    0.639E-01
DAV:   6    -0.442755483443E+03    0.20625E-02   -0.60264E-03 35552   0.242E-01    0.560E-01
DAV:   7    -0.442754386300E+03    0.10971E-02   -0.38026E-03 36632   0.227E-01    0.252E-01
DAV:   8    -0.442754402246E+03   -0.15946E-04   -0.16592E-03 38136   0.118E-01    0.139E-01
DAV:   9    -0.442754405436E+03   -0.31896E-05   -0.27008E-04 35904   0.490E-02    0.955E-02
DAV:  10    -0.442754385965E+03    0.19472E-04   -0.88699E-05 29872   0.311E-02    0.575E-02
DAV:  11    -0.442754374615E+03    0.11350E-04   -0.46108E-05 28648   0.209E-02    0.251E-02
DAV:  12    -0.442754370099E+03    0.45152E-05   -0.17342E-05 24624   0.142E-02
  18 F= -.44275437E+03 E0= -.44274387E+03  d E =0.472163E-01  mag=    78.0000
       N       E                     dE             d eps       ncg     rms          rms(c)
DAV:   1    -0.442269580675E+03    0.48479E+00   -0.19826E+01 37344   0.224E+01    0.392E+00
DAV:   2    -0.442785734434E+03   -0.51615E+00   -0.46403E+00 32120   0.385E+00    0.219E+00
DAV:   3    -0.442814265897E+03   -0.28531E-01   -0.18917E-01 36944   0.111E+00    0.184E+00
DAV:   4    -0.442811815777E+03    0.24501E-02   -0.21597E-02 37720   0.501E-01    0.672E-01
DAV:   5    -0.442810990394E+03    0.82538E-03   -0.30308E-03 38664   0.154E-01    0.505E-01
DAV:   6    -0.442810188713E+03    0.80168E-03   -0.32822E-03 37432   0.165E-01    0.461E-01
DAV:   7    -0.442809535603E+03    0.65311E-03   -0.24913E-03 35304   0.186E-01    0.262E-01
DAV:   8    -0.442809454564E+03    0.81039E-04   -0.86991E-04 39952   0.100E-01    0.103E-01
DAV:   9    -0.442809459719E+03   -0.51557E-05   -0.23848E-04 36792   0.457E-02    0.897E-02
DAV:  10    -0.442809445212E+03    0.14508E-04   -0.50061E-05 27408   0.241E-02    0.330E-02
DAV:  11    -0.442809436606E+03    0.86061E-05   -0.29118E-05 24216   0.152E-02
  19 F= -.44280944E+03 E0= -.44279933E+03  d E =-.550665E-01  mag=    78.0000
       N       E                     dE             d eps       ncg     rms          rms(c)
DAV:   1    -0.442805493286E+03    0.39519E-02   -0.16443E-01 39920   0.216E+00    0.376E-01
DAV:   2    -0.442810347875E+03   -0.48546E-02   -0.43361E-02 32000   0.366E-01    0.186E-01
DAV:   3    -0.442810615450E+03   -0.26758E-03   -0.17759E-03 35336   0.102E-01    0.149E-01
DAV:   4    -0.442810605013E+03    0.10437E-04   -0.18056E-04 31664   0.390E-02    0.625E-02
DAV:   5    -0.442810598117E+03    0.68962E-05   -0.14816E-05 23008   0.121E-02
  20 F= -.44281060E+03 E0= -.44280045E+03  d E =-.116151E-02  mag=    78.0000
       N       E                     dE             d eps       ncg     rms          rms(c)
DAV:   1    -0.442812416017E+03   -0.18110E-02   -0.42742E-01 34128   0.214E+00    0.298E-01
DAV:   2    -0.442816096096E+03   -0.36801E-02   -0.36169E-02 31944   0.393E-01    0.270E-01
DAV:   3    -0.442816187489E+03   -0.91392E-04   -0.20982E-03 39528   0.124E-01    0.202E-01
DAV:   4    -0.442816154901E+03    0.32588E-04   -0.28646E-04 34568   0.472E-02    0.578E-02
DAV:   5    -0.442816139732E+03    0.15169E-04   -0.49020E-05 30984   0.205E-02    0.574E-02
DAV:   6    -0.442816130435E+03    0.92970E-05   -0.30068E-05 25416   0.216E-02
  21 F= -.44281613E+03 E0= -.44280594E+03  d E =-.553232E-02  mag=    78.0000
       N       E                     dE             d eps       ncg     rms          rms(c)
DAV:   1    -0.442815412255E+03    0.72748E-03   -0.75869E-01 34208   0.290E+00    0.405E-01
DAV:   2    -0.442822343240E+03   -0.69310E-02   -0.67539E-02 31832   0.533E-01    0.321E-01
DAV:   3    -0.442822545871E+03   -0.20263E-03   -0.34461E-03 39368   0.161E-01    0.274E-01
DAV:   4    -0.442822488776E+03    0.57095E-04   -0.54231E-04 37984   0.643E-02    0.768E-02
DAV:   5    -0.442822465239E+03    0.23537E-04   -0.75881E-05 35440   0.231E-02    0.654E-02
DAV:   6    -0.442822448078E+03    0.17161E-04   -0.58852E-05 29576   0.288E-02    0.581E-02
DAV:   7    -0.442822445049E+03    0.30298E-05   -0.30180E-05 26144   0.205E-02
  22 F= -.44282245E+03 E0= -.44281226E+03  d E =-.631461E-02  mag=    78.0000
       N       E                     dE             d eps       ncg     rms          rms(c)
DAV:   1    -0.442819134993E+03    0.33131E-02   -0.16570E+00 34488   0.355E+00    0.412E-01
DAV:   2    -0.442827967600E+03   -0.88326E-02   -0.86889E-02 31408   0.626E-01    0.392E-01
DAV:   3    -0.442828120225E+03   -0.15263E-03   -0.38405E-03 38640   0.177E-01    0.306E-01
DAV:   4    -0.442828042157E+03    0.78068E-04   -0.50161E-04 39144   0.713E-02    0.877E-02
DAV:   5    -0.442828018428E+03    0.23729E-04   -0.13073E-04 34848   0.289E-02    0.830E-02
DAV:   6    -0.442827988427E+03    0.30001E-04   -0.80762E-05 32304   0.304E-02    0.540E-02
DAV:   7    -0.442827983546E+03    0.48813E-05   -0.43134E-05 31104   0.223E-02
  23 F= -.44282798E+03 E0= -.44281774E+03  d E =-.553850E-02  mag=    78.0000
       N       E                     dE             d eps       ncg     rms          rms(c)
DAV:   1    -0.442794186097E+03    0.33802E-01   -0.80534E+00 33688   0.730E+00    0.784E-01
DAV:   2    -0.442830635643E+03   -0.36450E-01   -0.35760E-01 31248   0.127E+00    0.642E-01
DAV:   3    -0.442831268428E+03   -0.63279E-03   -0.10962E-02 37696   0.325E-01    0.613E-01
DAV:   4    -0.442830900329E+03    0.36810E-03   -0.19024E-03 38344   0.142E-01    0.165E-01
DAV:   5    -0.442830804222E+03    0.96107E-04   -0.36754E-04 35144   0.480E-02    0.142E-01
DAV:   6    -0.442830689873E+03    0.11435E-03   -0.30495E-04 34256   0.564E-02    0.102E-01
DAV:   7    -0.442830668176E+03    0.21697E-04   -0.16364E-04 35520   0.430E-02    0.590E-02
DAV:   8    -0.442830668903E+03   -0.72712E-06   -0.55655E-05 28776   0.226E-02
  24 F= -.44283067E+03 E0= -.44282033E+03  d E =-.268536E-02  mag=    78.0000
       N       E                     dE             d eps       ncg     rms          rms(c)
DAV:   1    -0.442109294186E+03    0.72137E+00   -0.95752E+01 34272   0.292E+01    0.364E+00
DAV:   2    -0.442750415909E+03   -0.64112E+00   -0.62097E+00 31544   0.516E+00    0.200E+00
DAV:   3    -0.442763998706E+03   -0.13583E-01   -0.17523E-01 39200   0.105E+00    0.158E+00
DAV:   4    -0.442761557553E+03    0.24412E-02   -0.26996E-02 40080   0.448E-01    0.783E-01
DAV:   5    -0.442758928424E+03    0.26291E-02   -0.45750E-03 36968   0.242E-01    0.608E-01
DAV:   6    -0.442757431685E+03    0.14967E-02   -0.42805E-03 37624   0.229E-01    0.542E-01
DAV:   7    -0.442756594219E+03    0.83747E-03   -0.25385E-03 35656   0.199E-01    0.193E-01
DAV:   8    -0.442756651045E+03   -0.56826E-04   -0.13363E-03 38808   0.984E-02    0.161E-01
DAV:   9    -0.442756637878E+03    0.13167E-04   -0.26994E-04 36672   0.554E-02    0.856E-02
DAV:  10    -0.442756623467E+03    0.14411E-04   -0.76155E-05 30560   0.245E-02    0.380E-02
DAV:  11    -0.442756614645E+03    0.88217E-05   -0.27422E-05 26304   0.165E-02
  25 F= -.44275661E+03 E0= -.44274568E+03  d E =0.740543E-01  mag=    78.0000
       N       E                     dE             d eps       ncg     rms          rms(c)
DAV:   1    -0.442400617742E+03    0.35601E+00   -0.19422E+01 35392   0.202E+01    0.334E+00
DAV:   2    -0.442796222086E+03   -0.39560E+00   -0.36373E+00 31984   0.359E+00    0.192E+00
DAV:   3    -0.442815406539E+03   -0.19184E-01   -0.14491E-01 37856   0.998E-01    0.168E+00
DAV:   4    -0.442813105050E+03    0.23015E-02   -0.16794E-02 38136   0.447E-01    0.588E-01
DAV:   5    -0.442812409628E+03    0.69542E-03   -0.40992E-03 39344   0.163E-01    0.518E-01
DAV:   6    -0.442811670719E+03    0.73891E-03   -0.24296E-03 36552   0.147E-01    0.358E-01
DAV:   7    -0.442811141096E+03    0.52962E-03   -0.14986E-03 36440   0.162E-01    0.257E-01
DAV:   8    -0.442811047103E+03    0.93993E-04   -0.90842E-04 40880   0.956E-02    0.974E-02
DAV:   9    -0.442811054920E+03   -0.78166E-05   -0.24471E-04 38024   0.450E-02    0.889E-02
DAV:  10    -0.442811039817E+03    0.15103E-04   -0.65436E-05 26808   0.254E-02    0.244E-02
DAV:  11    -0.442811034005E+03    0.58119E-05   -0.13326E-05 23064   0.105E-02
  26 F= -.44281103E+03 E0= -.44280050E+03  d E =-.544194E-01  mag=    78.0000
       N       E                     dE             d eps       ncg     rms          rms(c)
DAV:   1    -0.442813322543E+03   -0.22827E-02   -0.93268E-01 34544   0.297E+00    0.387E-01
DAV:   2    -0.442819969809E+03   -0.66473E-02   -0.66037E-02 31584   0.533E-01    0.296E-01
DAV:   3    -0.442820140057E+03   -0.17025E-03   -0.30437E-03 40256   0.148E-01    0.253E-01
DAV:   4    -0.442820076839E+03    0.63218E-04   -0.46917E-04 39160   0.646E-02    0.736E-02
DAV:   5    -0.442820043375E+03    0.33464E-04   -0.86456E-05 36088   0.255E-02    0.576E-02
DAV:   6    -0.442820030587E+03    0.12787E-04   -0.63206E-05 32424   0.276E-02    0.494E-02
DAV:   7    -0.442820029278E+03    0.13090E-05   -0.21858E-05 22968   0.168E-02
  27 F= -.44282003E+03 E0= -.44280954E+03  d E =-.899527E-02  mag=    78.0000
       N       E                     dE             d eps       ncg     rms          rms(c)
DAV:   1    -0.442800175117E+03    0.19855E-01   -0.45372E+00 33992   0.681E+00    0.928E-01
DAV:   2    -0.442837171034E+03   -0.36996E-01   -0.36175E-01 31424   0.124E+00    0.714E-01
DAV:   3    -0.442838219549E+03   -0.10485E-02   -0.17360E-02 40368   0.361E-01    0.610E-01
DAV:   4    -0.442837901579E+03    0.31797E-03   -0.22121E-03 39960   0.149E-01    0.178E-01
DAV:   5    -0.442837784759E+03    0.11682E-03   -0.43690E-04 38632   0.626E-02    0.174E-01
DAV:   6    -0.442837697980E+03    0.86779E-04   -0.26896E-04 37344   0.644E-02    0.124E-01
DAV:   7    -0.442837678727E+03    0.19253E-04   -0.18475E-04 35192   0.452E-02    0.710E-02
DAV:   8    -0.442837675971E+03    0.27564E-05   -0.56946E-05 28680   0.234E-02
  28 F= -.44283768E+03 E0= -.44282717E+03  d E =-.176467E-01  mag=    78.0000
       N       E                     dE             d eps       ncg     rms          rms(c)
DAV:   1    -0.442838532494E+03   -0.85377E-03   -0.20349E-01 34352   0.134E+00    0.167E-01
DAV:   2    -0.442839854197E+03   -0.13217E-02   -0.12657E-02 31592   0.238E-01    0.127E-01
DAV:   3    -0.442839893695E+03   -0.39499E-04   -0.46707E-04 39776   0.628E-02    0.119E-01
DAV:   4    -0.442839881005E+03    0.12690E-04   -0.65462E-05 27072   0.284E-02    0.319E-02
DAV:   5    -0.442839878414E+03    0.25915E-05   -0.14210E-05 20048   0.109E-02
  29 F= -.44283988E+03 E0= -.44282934E+03  d E =-.220244E-02  mag=    78.0000
       N       E                     dE             d eps       ncg     rms          rms(c)
DAV:   1    -0.442836478334E+03    0.34027E-02   -0.12356E+00 34272   0.288E+00    0.308E-01
DAV:   2    -0.442842069230E+03   -0.55909E-02   -0.54389E-02 31520   0.498E-01    0.334E-01
DAV:   3    -0.442842133436E+03   -0.64206E-04   -0.20841E-03 42160   0.145E-01    0.249E-01
DAV:   4    -0.442842070312E+03    0.63124E-04   -0.29560E-04 36592   0.587E-02    0.684E-02
DAV:   5    -0.442842048775E+03    0.21537E-04   -0.78888E-05 35000   0.233E-02    0.661E-02
DAV:   6    -0.442842027283E+03    0.21492E-04   -0.45166E-05 29496   0.254E-02    0.423E-02
DAV:   7    -0.442842024346E+03    0.29371E-05   -0.32240E-05 28184   0.188E-02
  30 F= -.44284202E+03 E0= -.44283139E+03  d E =-.214593E-02  mag=    78.0000
       N       E                     dE             d eps       ncg     rms          rms(c)
DAV:   1    -0.442822720554E+03    0.19307E-01   -0.33461E+00 34208   0.517E+00    0.590E-01
DAV:   2    -0.442841018969E+03   -0.18298E-01   -0.17481E-01 31032   0.904E-01    0.557E-01
DAV:   3    -0.442841453807E+03   -0.43484E-03   -0.67776E-03 39384   0.261E-01    0.492E-01
DAV:   4    -0.442841238099E+03    0.21571E-03   -0.11238E-03 38024   0.116E-01    0.109E-01
DAV:   5    -0.442841206495E+03    0.31604E-04   -0.19181E-04 35760   0.352E-02    0.109E-01
DAV:   6    -0.442841165830E+03    0.40665E-04   -0.83930E-05 30592   0.355E-02    0.723E-02
DAV:   7    -0.442841153280E+03    0.12550E-04   -0.93972E-05 33312   0.349E-02    0.652E-02
DAV:   8    -0.442841146932E+03    0.63485E-05   -0.45755E-05 25544   0.205E-02
  31 F= -.44284115E+03 E0= -.44283041E+03  d E =0.877414E-03  mag=    78.0000
       N       E                     dE             d eps       ncg     rms          rms(c)
DAV:   1    -0.442327474284E+03    0.51368E+00   -0.10032E+02 34136   0.269E+01    0.299E+00
DAV:   2    -0.442833445641E+03   -0.50597E+00   -0.49209E+00 31048   0.471E+00    0.226E+00
DAV:   3    -0.442843513503E+03   -0.10068E-01   -0.16055E-01 36992   0.117E+00    0.227E+00
DAV:   4    -0.442838497742E+03    0.50158E-02   -0.41291E-02 38408   0.540E-01    0.621E-01
DAV:   5    -0.442837186344E+03    0.13114E-02   -0.44744E-03 35320   0.198E-01    0.567E-01
DAV:   6    -0.442836053255E+03    0.11331E-02   -0.24848E-03 38152   0.178E-01    0.383E-01
DAV:   7    -0.442835466480E+03    0.58678E-03   -0.18228E-03 36320   0.154E-01    0.197E-01
DAV:   8    -0.442835476528E+03   -0.10048E-04   -0.93466E-04 37744   0.851E-02    0.111E-01
DAV:   9    -0.442835491037E+03   -0.14509E-04   -0.17740E-04 34736   0.398E-02    0.837E-02
DAV:  10    -0.442835488590E+03    0.24467E-05   -0.48745E-05 24512   0.212E-02
  32 F= -.44283549E+03 E0= -.44282435E+03  d E =0.565834E-02  mag=    78.0000
       N       E                     dE             d eps       ncg     rms          rms(c)
DAV:   1    -0.442627940701E+03    0.20755E+00   -0.20464E+01 34072   0.158E+01    0.226E+00
DAV:   2    -0.442841824332E+03   -0.21388E+00   -0.20312E+00 31904   0.288E+00    0.136E+00
DAV:   3    -0.442848959700E+03   -0.71354E-02   -0.69776E-02 39656   0.702E-01    0.116E+00
DAV:   4    -0.442847818490E+03    0.11412E-02   -0.89163E-03 39968   0.300E-01    0.456E-01
DAV:   5    -0.442847274545E+03    0.54395E-03   -0.17487E-03 37856   0.129E-01    0.394E-01
DAV:   6    -0.442846649131E+03    0.62541E-03   -0.12619E-03 35568   0.124E-01    0.268E-01
DAV:   7    -0.442846348006E+03    0.30113E-03   -0.91944E-04 37384   0.119E-01    0.131E-01
DAV:   8    -0.442846367466E+03   -0.19460E-04   -0.37254E-04 37360   0.532E-02    0.429E-02
DAV:   9    -0.442846365986E+03    0.14800E-05   -0.69373E-05 33144   0.251E-02
  33 F= -.44284637E+03 E0= -.44283526E+03  d E =-.108774E-01  mag=    78.0000
       N       E                     dE             d eps       ncg     rms          rms(c)
DAV:   1    -0.442624306152E+03    0.22206E+00   -0.39129E+01 34392   0.174E+01    0.206E+00
DAV:   2    -0.442846098392E+03   -0.22179E+00   -0.21536E+00 31368   0.308E+00    0.165E+00
DAV:   3    -0.442850911447E+03   -0.48131E-02   -0.85492E-02 38784   0.805E-01    0.153E+00
DAV:   4    -0.442848461736E+03    0.24497E-02   -0.96516E-03 39624   0.369E-01    0.438E-01
DAV:   5    -0.442847906277E+03    0.55546E-03   -0.27313E-03 37216   0.136E-01    0.421E-01
DAV:   6    -0.442847194165E+03    0.71211E-03   -0.13789E-03 35784   0.137E-01    0.269E-01
DAV:   7    -0.442846943715E+03    0.25045E-03   -0.11886E-03 37536   0.122E-01    0.182E-01
DAV:   8    -0.442846908838E+03    0.34877E-04   -0.67702E-04 39072   0.754E-02    0.657E-02
DAV:   9    -0.442846917097E+03   -0.82596E-05   -0.12406E-04 33600   0.323E-02    0.442E-02
DAV:  10    -0.442846914807E+03    0.22902E-05   -0.22224E-05 21944   0.146E-02
  34 F= -.44284691E+03 E0= -.44283598E+03  d E =-.548821E-03  mag=    78.0000
       N       E                     dE             d eps       ncg     rms          rms(c)
DAV:   1    -0.442822975544E+03    0.23942E-01   -0.17218E+00 34176   0.511E+00    0.759E-01
DAV:   2    -0.442846055461E+03   -0.23080E-01   -0.21263E-01 31696   0.908E-01    0.419E-01
DAV:   3    -0.442847111530E+03   -0.10561E-02   -0.83503E-03 39296   0.234E-01    0.413E-01
DAV:   4    -0.442846987175E+03    0.12435E-03   -0.12312E-03 38160   0.988E-02    0.135E-01
DAV:   5    -0.442846959735E+03    0.27440E-04   -0.10016E-04 33928   0.279E-02    0.111E-01
DAV:   6    -0.442846916423E+03    0.43313E-04   -0.59995E-05 28808   0.328E-02    0.952E-02
DAV:   7    -0.442846886638E+03    0.29784E-04   -0.12719E-04 34208   0.463E-02    0.695E-02
DAV:   8    -0.442846879303E+03    0.73354E-05   -0.78679E-05 29528   0.236E-02
  35 F= -.44284688E+03 E0= -.44283597E+03  d E =0.355043E-04  mag=    78.0000
       N       E                     dE             d eps       ncg     rms          rms(c)
DAV:   1    -0.442844452606E+03    0.24340E-02   -0.24836E-01 34600   0.204E+00    0.300E-01
DAV:   2    -0.442847976312E+03   -0.35237E-02   -0.32629E-02 31696   0.366E-01    0.163E-01
DAV:   3    -0.442848128981E+03   -0.15267E-03   -0.11873E-03 38208   0.913E-02    0.149E-01
DAV:   4    -0.442848111152E+03    0.17829E-04   -0.15700E-04 31496   0.394E-02    0.573E-02
DAV:   5    -0.442848103106E+03    0.80461E-05   -0.16485E-05 22440   0.141E-02
  36 F= -.44284810E+03 E0= -.44283717E+03  d E =-.122380E-02  mag=    78.0000
