       N       E                     dE             d eps       ncg     rms          rms(c)
DAV:   1     0.729118307198E+04    0.72912E+04   -0.33117E+05 43072   0.167E+03
DAV:   2     0.443638235062E+03   -0.68475E+04   -0.64303E+04 40320   0.510E+02
DAV:   3    -0.325824869343E+03   -0.76946E+03   -0.74784E+03 42624   0.190E+02
DAV:   4    -0.358928622936E+03   -0.33104E+02   -0.32782E+02 49040   0.367E+01
DAV:   5    -0.360811288934E+03   -0.18827E+01   -0.18689E+01 67088   0.720E+00    0.609E+01
DAV:   6    -0.317897541348E+03    0.42914E+02   -0.38145E+02 49824   0.588E+01    0.908E+01
DAV:   7    -0.318024517727E+03   -0.12698E+00   -0.54292E+01 45248   0.432E+01    0.712E+01
DAV:   8    -0.322840001381E+03   -0.48155E+01   -0.72902E+01 46048   0.395E+01    0.689E+01
DAV:   9    -0.341972037913E+03   -0.19132E+02   -0.14312E+02 49920   0.341E+01    0.913E+01
DAV:  10    -0.332946451460E+03    0.90256E+01   -0.32683E+01 46800   0.253E+01    0.836E+01
DAV:  11    -0.318973533373E+03    0.13973E+02   -0.31001E+01 49712   0.221E+01    0.513E+01
DAV:  12    -0.323759419981E+03   -0.47859E+01   -0.31272E+01 50608   0.259E+01    0.682E+01
DAV:  13    -0.327339193995E+03   -0.35798E+01   -0.46892E+01 50944   0.227E+01    0.828E+01
DAV:  14    -0.312874840895E+03    0.14464E+02   -0.14446E+01 46960   0.181E+01    0.449E+01
DAV:  15    -0.313162440968E+03   -0.28760E+00   -0.88114E+00 50592   0.110E+01    0.464E+01
DAV:  16    -0.311601973233E+03    0.15605E+01   -0.82554E+00 50512   0.120E+01    0.312E+01
DAV:  17    -0.312593452003E+03   -0.99148E+00   -0.13348E+01 47888   0.142E+01    0.353E+01
DAV:  18    -0.312272916048E+03    0.32054E+00   -0.59806E+00 48864   0.710E+00    0.290E+01
DAV:  19    -0.312380650895E+03   -0.10773E+00   -0.75715E+00 47200   0.627E+00    0.296E+01
DAV:  20    -0.312116908307E+03    0.26374E+00   -0.33646E+00 47904   0.448E+00    0.252E+01
DAV:  21    -0.311591489993E+03    0.52542E+00   -0.19069E+00 47792   0.305E+00    0.144E+01
DAV:  22    -0.311754099582E+03   -0.16261E+00   -0.20903E-01 46112   0.201E+00    0.132E+01
DAV:  23    -0.311684751326E+03    0.69348E-01   -0.75783E-01 52880   0.238E+00    0.150E+01
DAV:  24    -0.311886631053E+03   -0.20188E+00   -0.20136E-01 48272   0.252E+00    0.138E+01
DAV:  25    -0.311850141318E+03    0.36490E-01   -0.58003E-01 53952   0.321E+00    0.110E+01
DAV:  26    -0.311925649111E+03   -0.75508E-01   -0.93969E-01 47792   0.218E+00    0.152E+01
DAV:  27    -0.311818915338E+03    0.10673E+00   -0.73239E-02 42144   0.126E+00    0.146E+01
DAV:  28    -0.311702171716E+03    0.11674E+00   -0.11071E-01 54656   0.101E+00    0.126E+01
DAV:  29    -0.311658264332E+03    0.43907E-01   -0.95403E-01 54576   0.160E+00    0.101E+01
DAV:  30    -0.311718427282E+03   -0.60163E-01   -0.36401E-01 46368   0.201E+00    0.988E+00
DAV:  31    -0.311666198832E+03    0.52228E-01   -0.58315E-02 47648   0.937E-01    0.101E+01
DAV:  32    -0.311644120150E+03    0.22079E-01   -0.63593E-03 46400   0.275E-01    0.101E+01
DAV:  33    -0.311611389483E+03    0.32731E-01   -0.10021E-01 57888   0.621E-01    0.877E+00
DAV:  34    -0.311615878421E+03   -0.44889E-02   -0.43982E-01 51328   0.171E+00    0.864E+00
DAV:  35    -0.311620579776E+03   -0.47014E-02   -0.50252E-01 53520   0.169E+00    0.837E+00
DAV:  36    -0.311602599093E+03    0.17981E-01   -0.17395E-01 45376   0.115E+00    0.725E+00
DAV:  37    -0.311598564149E+03    0.40349E-02   -0.20883E-02 41136   0.485E-01    0.734E+00
DAV:  38    -0.311599842049E+03   -0.12779E-02   -0.30282E-02 49792   0.377E-01    0.791E+00
DAV:  39    -0.311579903622E+03    0.19938E-01   -0.86525E-03 42528   0.356E-01    0.852E+00
DAV:  40    -0.311563833504E+03    0.16070E-01   -0.26073E-03 48016   0.175E-01    0.791E+00
DAV:  41    -0.311560943768E+03    0.28897E-02   -0.25033E-02 50544   0.421E-01    0.623E+00
DAV:  42    -0.311582095730E+03   -0.21152E-01   -0.90582E-02 50768   0.664E-01    0.614E+00
DAV:  43    -0.311583321987E+03   -0.12263E-02   -0.69048E-02 48096   0.813E-01    0.657E+00
DAV:  44    -0.311553513658E+03    0.29808E-01   -0.40616E-02 47584   0.588E-01    0.480E+00
DAV:  45    -0.311563448911E+03   -0.99353E-02   -0.54265E-02 49472   0.520E-01    0.420E+00
DAV:  46    -0.311568708169E+03   -0.52593E-02   -0.69918E-03 45072   0.307E-01    0.420E+00
DAV:  47    -0.311568122904E+03    0.58526E-03   -0.10458E-03 43376   0.101E-01    0.430E+00
DAV:  48    -0.311569251264E+03   -0.11284E-02   -0.76485E-03 54112   0.211E-01    0.499E+00
DAV:  49    -0.311559728169E+03    0.95231E-02   -0.26693E-02 51248   0.519E-01    0.401E+00
DAV:  50    -0.311564251261E+03   -0.45231E-02   -0.11991E-02 47536   0.267E-01    0.309E+00
DAV:  51    -0.311580529165E+03   -0.16278E-01   -0.23839E-02 48064   0.411E-01    0.380E+00
DAV:  52    -0.311571749091E+03    0.87801E-02   -0.27187E-02 50240   0.387E-01    0.233E+00
DAV:  53    -0.311577514712E+03   -0.57656E-02   -0.22925E-02 46720   0.314E-01    0.146E+00
DAV:  54    -0.311580847187E+03   -0.33325E-02   -0.54767E-03 43952   0.240E-01    0.107E+00
DAV:  55    -0.311581528526E+03   -0.68134E-03   -0.21924E-03 46720   0.148E-01    0.890E-01
DAV:  56    -0.311582167581E+03   -0.63906E-03   -0.77682E-03 51840   0.240E-01    0.123E+00
DAV:  57    -0.311581939270E+03    0.22831E-03   -0.15993E-03 43952   0.151E-01    0.129E+00
DAV:  58    -0.311581587421E+03    0.35185E-03   -0.13359E-03 49184   0.862E-02    0.141E+00
DAV:  59    -0.311581145547E+03    0.44187E-03   -0.52009E-04 45712   0.769E-02    0.146E+00
DAV:  60    -0.311581173072E+03   -0.27524E-04   -0.59190E-04 47600   0.597E-02    0.169E+00
DAV:  61    -0.311580302468E+03    0.87060E-03   -0.20317E-04 42208   0.490E-02    0.178E+00
DAV:  62    -0.311579989649E+03    0.31282E-03   -0.22358E-04 44448   0.445E-02    0.187E+00
DAV:  63    -0.311579762047E+03    0.22760E-03   -0.17523E-04 36976   0.336E-02    0.202E+00
DAV:  64    -0.311579207280E+03    0.55477E-03   -0.74916E-05 38576   0.236E-02    0.210E+00
DAV:  65    -0.311578812906E+03    0.39437E-03   -0.25921E-05 26512   0.126E-02    0.215E+00
DAV:  66    -0.311578449521E+03    0.36338E-03   -0.55900E-05 27040   0.318E-02    0.212E+00
DAV:  67    -0.311578382224E+03    0.67297E-04   -0.69188E-05 31024   0.330E-02    0.203E+00
DAV:  68    -0.311578492148E+03   -0.10992E-03   -0.16285E-04 41056   0.428E-02    0.190E+00
DAV:  69    -0.311578935870E+03   -0.44372E-03   -0.41292E-04 48688   0.721E-02    0.170E+00
DAV:  70    -0.311579675704E+03   -0.73983E-03   -0.36271E-04 47744   0.549E-02    0.151E+00
DAV:  71    -0.311580204127E+03   -0.52842E-03   -0.41722E-04 39568   0.451E-02    0.125E+00
DAV:  72    -0.311580916085E+03   -0.71196E-03   -0.59981E-04 44240   0.618E-02    0.955E-01
DAV:  73    -0.311581503549E+03   -0.58746E-03   -0.92982E-04 47744   0.768E-02    0.587E-01
DAV:  74    -0.311582163101E+03   -0.65955E-03   -0.78374E-04 46384   0.677E-02    0.281E-01
DAV:  75    -0.311582641522E+03   -0.47842E-03   -0.31314E-04 41472   0.439E-02    0.996E-02
DAV:  76    -0.311582824122E+03   -0.18260E-03   -0.14135E-04 36816   0.323E-02    0.404E-02
DAV:  77    -0.311582857729E+03   -0.33606E-04   -0.45036E-05 32144   0.233E-02    0.753E-02
DAV:  78    -0.311582851539E+03    0.61896E-05   -0.91443E-06 25088   0.108E-02
   1 F= -.31158285E+03 E0= -.31155809E+03  d E =-.311583E+03  mag=    25.9513
       N       E                     dE             d eps       ncg     rms          rms(c)
DAV:   1    -0.311499571429E+03    0.83286E-01   -0.50238E+00 38704   0.132E+01    0.228E+00
DAV:   2    -0.311627605731E+03   -0.12803E+00   -0.18738E+00 42000   0.340E+00    0.658E+00
DAV:   3    -0.311641197912E+03   -0.13592E-01   -0.17832E+00 46320   0.268E+00    0.708E+00
DAV:   4    -0.311655134228E+03   -0.13936E-01   -0.10592E+00 45904   0.262E+00    0.762E+00
DAV:   5    -0.311588029878E+03    0.67104E-01   -0.55731E-01 44208   0.207E+00    0.459E+00
DAV:   6    -0.311585222346E+03    0.28075E-02   -0.28609E-01 42224   0.119E+00    0.300E+00
DAV:   7    -0.311599857681E+03   -0.14635E-01   -0.20713E-01 43936   0.109E+00    0.411E+00
DAV:   8    -0.311592263284E+03    0.75944E-02   -0.24537E-01 43840   0.102E+00    0.302E+00
DAV:   9    -0.311592067387E+03    0.19590E-03   -0.11407E-01 42704   0.812E-01    0.242E+00
DAV:  10    -0.311591744273E+03    0.32311E-03   -0.28795E-02 44672   0.587E-01    0.181E+00
DAV:  11    -0.311589607594E+03    0.21367E-02   -0.13825E-02 46816   0.383E-01    0.108E+00
DAV:  12    -0.311590919799E+03   -0.13122E-02   -0.70526E-03 48208   0.275E-01    0.545E-01
DAV:  13    -0.311592828719E+03   -0.19089E-02   -0.10964E-02 48320   0.342E-01    0.889E-01
DAV:  14    -0.311591789151E+03    0.10396E-02   -0.85297E-03 45424   0.339E-01    0.338E-01
DAV:  15    -0.311592561965E+03   -0.77281E-03   -0.32159E-03 46336   0.240E-01    0.422E-01
DAV:  16    -0.311592455344E+03    0.10662E-03   -0.19141E-03 45328   0.197E-01    0.407E-01
DAV:  17    -0.311592362744E+03    0.92600E-04   -0.60353E-04 46864   0.842E-02    0.386E-01
DAV:  18    -0.311592262395E+03    0.10035E-03   -0.35347E-04 38080   0.642E-02    0.341E-01
DAV:  19    -0.311592257717E+03    0.46785E-05   -0.13748E-04 34832   0.483E-02    0.264E-01
DAV:  20    -0.311592317309E+03   -0.59592E-04   -0.29584E-04 38944   0.656E-02    0.200E-01
DAV:  21    -0.311592360201E+03   -0.42893E-04   -0.26243E-04 34304   0.554E-02    0.822E-02
DAV:  22    -0.311592406331E+03   -0.46129E-04   -0.10070E-04 31984   0.313E-02    0.591E-02
DAV:  23    -0.311592417230E+03   -0.10899E-04   -0.19960E-05 27152   0.185E-02    0.627E-02
DAV:  24    -0.311592413600E+03    0.36300E-05   -0.10086E-05 24400   0.101E-02
   2 F= -.31159241E+03 E0= -.31156780E+03  d E =-.956206E-02  mag=    25.9640
       N       E                     dE             d eps       ncg     rms          rms(c)
DAV:   1    -0.311581870220E+03    0.10547E-01   -0.61657E-01 38640   0.464E+00    0.796E-01
DAV:   2    -0.311596531490E+03   -0.14661E-01   -0.21926E-01 41504   0.116E+00    0.200E+00
DAV:   3    -0.311604857957E+03   -0.83265E-02   -0.22549E-01 46592   0.981E-01    0.417E+00
DAV:   4    -0.311595356042E+03    0.95019E-02   -0.21877E-01 44528   0.101E+00    0.310E+00
DAV:   5    -0.311589964188E+03    0.53919E-02   -0.66154E-02 42192   0.805E-01    0.118E+00
DAV:   6    -0.311593312621E+03   -0.33484E-02   -0.22390E-02 40496   0.452E-01    0.123E+00
DAV:   7    -0.311594758979E+03   -0.14464E-02   -0.26598E-02 45424   0.397E-01    0.153E+00
DAV:   8    -0.311592075192E+03    0.26838E-02   -0.23283E-02 42864   0.361E-01    0.747E-01
DAV:   9    -0.311593189677E+03   -0.11145E-02   -0.57899E-03 42976   0.255E-01    0.437E-01
DAV:  10    -0.311593429442E+03   -0.23977E-03   -0.17888E-03 44656   0.151E-01    0.403E-01
DAV:  11    -0.311593317362E+03    0.11208E-03   -0.11392E-03 46320   0.124E-01    0.300E-01
DAV:  12    -0.311593324535E+03   -0.71724E-05   -0.69387E-04 41072   0.102E-01    0.176E-01
DAV:  13    -0.311593380150E+03   -0.55616E-04   -0.65025E-04 40160   0.961E-02    0.143E-01
DAV:  14    -0.311593433275E+03   -0.53124E-04   -0.73767E-04 37776   0.925E-02    0.193E-01
DAV:  15    -0.311593396634E+03    0.36640E-04   -0.33506E-04 35712   0.714E-02    0.109E-01
DAV:  16    -0.311593401743E+03   -0.51084E-05   -0.79945E-05 29888   0.438E-02
   3 F= -.31159340E+03 E0= -.31156884E+03  d E =-.105502E-01  mag=    25.9678
       N       E                     dE             d eps       ncg     rms          rms(c)
DAV:   1    -0.311567624949E+03    0.25772E-01   -0.27400E+00 38272   0.782E+00    0.137E+00
DAV:   2    -0.311691309245E+03   -0.12368E+00   -0.13070E+00 48464   0.278E+00    0.835E+00
DAV:   3    -0.311576896597E+03    0.11441E+00   -0.86253E-01 46016   0.217E+00    0.326E+00
DAV:   4    -0.311607157996E+03   -0.30261E-01   -0.30460E-01 45200   0.141E+00    0.462E+00
DAV:   5    -0.311605497062E+03    0.16609E-02   -0.40294E-01 44048   0.123E+00    0.406E+00
DAV:   6    -0.311594680736E+03    0.10816E-01   -0.19810E-01 43328   0.113E+00    0.294E+00
DAV:   7    -0.311594672333E+03    0.84032E-05   -0.92329E-02 43472   0.790E-01    0.150E+00
DAV:   8    -0.311598791047E+03   -0.41187E-02   -0.30817E-02 44000   0.661E-01    0.147E+00
DAV:   9    -0.311598229650E+03    0.56140E-03   -0.26809E-02 44448   0.515E-01    0.150E+00
DAV:  10    -0.311597228457E+03    0.10012E-02   -0.54739E-03 41728   0.314E-01    0.122E+00
DAV:  11    -0.311596461634E+03    0.76682E-03   -0.19747E-03 50848   0.136E-01    0.835E-01
DAV:  12    -0.311597124726E+03   -0.66309E-03   -0.39112E-03 46416   0.184E-01    0.605E-01
DAV:  13    -0.311597426263E+03   -0.30154E-03   -0.34914E-03 45184   0.215E-01    0.348E-01
DAV:  14    -0.311597936592E+03   -0.51033E-03   -0.32719E-03 46768   0.213E-01    0.512E-01
DAV:  15    -0.311597690243E+03    0.24635E-03   -0.39674E-03 44128   0.190E-01    0.340E-01
DAV:  16    -0.311597793973E+03   -0.10373E-03   -0.14551E-03 42912   0.145E-01    0.206E-01
DAV:  17    -0.311597874567E+03   -0.80594E-04   -0.84178E-04 41472   0.953E-02    0.303E-01
DAV:  18    -0.311597745183E+03    0.12938E-03   -0.41410E-04 39088   0.714E-02    0.194E-01
DAV:  19    -0.311597764429E+03   -0.19245E-04   -0.10486E-04 32176   0.369E-02    0.111E-01
DAV:  20    -0.311597805327E+03   -0.40898E-04   -0.98634E-05 33824   0.424E-02    0.851E-02
DAV:  21    -0.311597821200E+03   -0.15873E-04   -0.54187E-05 29392   0.364E-02    0.661E-02
DAV:  22    -0.311597822509E+03   -0.13098E-05   -0.26548E-05 24368   0.182E-02
   4 F= -.31159782E+03 E0= -.31157333E+03  d E =-.442077E-02  mag=    25.9688
       N       E                     dE             d eps       ncg     rms          rms(c)
DAV:   1    -0.311570978498E+03    0.26843E-01   -0.25574E+00 38272   0.755E+00    0.130E+00
DAV:   2    -0.311681233571E+03   -0.11026E+00   -0.11733E+00 47312   0.263E+00    0.793E+00
DAV:   3    -0.311578611523E+03    0.10262E+00   -0.77582E-01 45952   0.207E+00    0.309E+00
DAV:   4    -0.311611866889E+03   -0.33255E-01   -0.32444E-01 45232   0.138E+00    0.500E+00
DAV:   5    -0.311601352476E+03    0.10514E-01   -0.37843E-01 43872   0.122E+00    0.372E+00
DAV:   6    -0.311594495236E+03    0.68572E-02   -0.13835E-01 43088   0.107E+00    0.229E+00
DAV:   7    -0.311598776385E+03   -0.42811E-02   -0.70870E-02 43648   0.676E-01    0.161E+00
DAV:   8    -0.311599469395E+03   -0.69301E-03   -0.32687E-02 44816   0.626E-01    0.135E+00
DAV:   9    -0.311599774420E+03   -0.30502E-03   -0.22267E-02 45520   0.472E-01    0.141E+00
DAV:  10    -0.311598665373E+03    0.11090E-02   -0.49840E-03 43632   0.286E-01    0.118E+00
DAV:  11    -0.311597894527E+03    0.77085E-03   -0.27305E-03 49840   0.138E-01    0.713E-01
DAV:  12    -0.311598870787E+03   -0.97626E-03   -0.43202E-03 45776   0.211E-01    0.625E-01
DAV:  13    -0.311598819307E+03    0.51480E-04   -0.29392E-03 45856   0.202E-01    0.270E-01
DAV:  14    -0.311599231835E+03   -0.41253E-03   -0.15804E-03 44528   0.178E-01    0.255E-01
DAV:  15    -0.311599304175E+03   -0.72341E-04   -0.16615E-03 46512   0.124E-01    0.261E-01
DAV:  16    -0.311599245281E+03    0.58894E-04   -0.62201E-04 41552   0.911E-02    0.155E-01
DAV:  17    -0.311599270092E+03   -0.24811E-04   -0.23055E-04 34752   0.513E-02    0.159E-01
DAV:  18    -0.311599258576E+03    0.11516E-04   -0.90623E-05 32464   0.390E-02    0.145E-01
DAV:  19    -0.311599265241E+03   -0.66650E-05   -0.18170E-04 32272   0.515E-02    0.145E-01
DAV:  20    -0.311599256073E+03    0.91674E-05   -0.10890E-04 30576   0.443E-02    0.735E-02
DAV:  21    -0.311599272461E+03   -0.16388E-04   -0.41913E-05 27184   0.291E-02    0.477E-02
DAV:  22    -0.311599276360E+03   -0.38985E-05   -0.14887E-05 23968   0.142E-02
   5 F= -.31159928E+03 E0= -.31157485E+03  d E =-.587462E-02  mag=    25.9679
       N       E                     dE             d eps       ncg     rms          rms(c)
DAV:   1    -0.311571098724E+03    0.28174E-01   -0.20622E+00 38640   0.703E+00    0.826E-01
DAV:   2    -0.311613480291E+03   -0.42382E-01   -0.44146E-01 39936   0.160E+00    0.393E+00
DAV:   3    -0.311598492298E+03    0.14988E-01   -0.30456E-01 45024   0.116E+00    0.264E+00
DAV:   4    -0.311606361813E+03   -0.78695E-02   -0.11827E-01 43072   0.994E-01    0.256E+00
DAV:   5    -0.311598980464E+03    0.73813E-02   -0.72144E-02 41712   0.758E-01    0.152E+00
DAV:   6    -0.311600214032E+03   -0.12336E-02   -0.29867E-02 42224   0.445E-01    0.909E-01
DAV:   7    -0.311601541906E+03   -0.13279E-02   -0.11267E-02 42912   0.310E-01    0.771E-01
DAV:   8    -0.311601460926E+03    0.80980E-04   -0.87563E-03 43168   0.241E-01    0.840E-01
DAV:   9    -0.311601193203E+03    0.26772E-03   -0.41209E-03 42528   0.201E-01    0.644E-01
DAV:  10    -0.311601033115E+03    0.16009E-03   -0.20230E-03 44720   0.149E-01    0.423E-01
DAV:  11    -0.311601154440E+03   -0.12133E-03   -0.15363E-03 47104   0.132E-01    0.249E-01
DAV:  12    -0.311601402082E+03   -0.24764E-03   -0.18027E-03 45040   0.130E-01    0.345E-01
DAV:  13    -0.311601314870E+03    0.87212E-04   -0.90124E-04 42928   0.122E-01    0.263E-01
DAV:  14    -0.311601315811E+03   -0.94135E-06   -0.28351E-04 40992   0.705E-02    0.227E-01
DAV:  15    -0.311601286822E+03    0.28989E-04   -0.23609E-04 32880   0.560E-02    0.166E-01
DAV:  16    -0.311601300884E+03   -0.14063E-04   -0.13988E-04 30336   0.489E-02    0.113E-01
DAV:  17    -0.311601308659E+03   -0.77744E-05   -0.95403E-05 28592   0.322E-02
   6 F= -.31160131E+03 E0= -.31157692E+03  d E =-.203230E-02  mag=    25.9679
       N       E                     dE             d eps       ncg     rms          rms(c)
DAV:   1    -0.311589773405E+03    0.11527E-01   -0.81145E-01 38672   0.442E+00    0.526E-01
DAV:   2    -0.311607741889E+03   -0.17968E-01   -0.18366E-01 40672   0.104E+00    0.269E+00
DAV:   3    -0.311599412107E+03    0.83298E-02   -0.12158E-01 44592   0.784E-01    0.170E+00
DAV:   4    -0.311603111595E+03   -0.36995E-02   -0.47395E-02 42512   0.648E-01    0.149E+00
DAV:   5    -0.311601511589E+03    0.16000E-02   -0.29254E-02 42080   0.496E-01    0.117E+00
DAV:   6    -0.311600547310E+03    0.96428E-03   -0.10509E-02 42272   0.296E-01    0.281E-01
DAV:   7    -0.311601803042E+03   -0.12557E-02   -0.27351E-03 42704   0.158E-01    0.436E-01
DAV:   8    -0.311601609520E+03    0.19352E-03   -0.18731E-03 43408   0.138E-01    0.363E-01
DAV:   9    -0.311601726269E+03   -0.11675E-03   -0.24461E-03 42672   0.122E-01    0.473E-01
DAV:  10    -0.311601480220E+03    0.24605E-03   -0.11589E-03 41376   0.110E-01    0.148E-01
DAV:  11    -0.311601651271E+03   -0.17105E-03   -0.68194E-04 41280   0.827E-02    0.196E-01
DAV:  12    -0.311601651888E+03   -0.61750E-06   -0.60060E-04 38224   0.770E-02    0.175E-01
DAV:  13    -0.311601637392E+03    0.14496E-04   -0.22331E-04 32832   0.558E-02    0.152E-01
DAV:  14    -0.311601637578E+03   -0.18610E-06   -0.10395E-04 28112   0.397E-02    0.134E-01
DAV:  15    -0.311601625730E+03    0.11849E-04   -0.73323E-05 27088   0.328E-02    0.766E-02
DAV:  16    -0.311601637861E+03   -0.12131E-04   -0.31752E-05 26000   0.244E-02    0.483E-02
DAV:  17    -0.311601643596E+03   -0.57352E-05   -0.29902E-05 23120   0.196E-02
   7 F= -.31160164E+03 E0= -.31157729E+03  d E =-.236724E-02  mag=    25.9682
       N       E                     dE             d eps       ncg     rms          rms(c)
DAV:   1    -0.311570202040E+03    0.31436E-01   -0.23361E+00 39776   0.748E+00    0.710E-01
DAV:   2    -0.311613020353E+03   -0.42818E-01   -0.44141E-01 40080   0.157E+00    0.315E+00
DAV:   3    -0.311600356123E+03    0.12664E-01   -0.19434E-01 44368   0.106E+00    0.230E+00
DAV:   4    -0.311606678442E+03   -0.63223E-02   -0.95790E-02 43456   0.819E-01    0.244E+00
DAV:   5    -0.311600144490E+03    0.65340E-02   -0.50625E-02 41744   0.616E-01    0.100E+00
DAV:   6    -0.311602533224E+03   -0.23887E-02   -0.94932E-03 40880   0.333E-01    0.385E-01
DAV:   7    -0.311603426982E+03   -0.89376E-03   -0.42231E-03 47344   0.232E-01    0.600E-01
DAV:   8    -0.311603198733E+03    0.22825E-03   -0.60416E-03 45568   0.205E-01    0.576E-01
DAV:   9    -0.311603013625E+03    0.18511E-03   -0.27310E-03 42752   0.171E-01    0.354E-01
DAV:  10    -0.311603068071E+03   -0.54446E-04   -0.16643E-03 42096   0.155E-01    0.261E-01
DAV:  11    -0.311603070405E+03   -0.23341E-05   -0.10227E-03 45024   0.119E-01    0.234E-01
DAV:  12    -0.311603060155E+03    0.10250E-04   -0.98957E-04 42176   0.108E-01    0.163E-01
DAV:  13    -0.311603092545E+03   -0.32390E-04   -0.36431E-04 38832   0.762E-02    0.153E-01
DAV:  14    -0.311603075754E+03    0.16792E-04   -0.16754E-04 30592   0.580E-02    0.118E-01
DAV:  15    -0.311603077742E+03   -0.19884E-05   -0.17566E-04 29776   0.428E-02    0.106E-01
DAV:  16    -0.311603069288E+03    0.84544E-05   -0.73512E-05 26976   0.332E-02
   8 F= -.31160307E+03 E0= -.31157873E+03  d E =-.142569E-02  mag=    25.9677
       N       E                     dE             d eps       ncg     rms          rms(c)
DAV:   1    -0.311586446234E+03    0.16632E-01   -0.11961E+00 39776   0.536E+00    0.511E-01
DAV:   2    -0.311608504689E+03   -0.22058E-01   -0.22503E-01 39920   0.113E+00    0.239E+00
DAV:   3    -0.311601411088E+03    0.70936E-02   -0.10092E-01 44064   0.762E-01    0.167E+00
DAV:   4    -0.311605729302E+03   -0.43182E-02   -0.56299E-02 42912   0.619E-01    0.195E+00
DAV:   5    -0.311601258576E+03    0.44707E-02   -0.31665E-02 41760   0.483E-01    0.812E-01
DAV:   6    -0.311602788628E+03   -0.15301E-02   -0.65210E-03 40128   0.265E-01    0.240E-01
DAV:   7    -0.311603512175E+03   -0.72355E-03   -0.24572E-03 45360   0.177E-01    0.473E-01
DAV:   8    -0.311603328046E+03    0.18413E-03   -0.32881E-03 44704   0.155E-01    0.434E-01
DAV:   9    -0.311603225764E+03    0.10228E-03   -0.15463E-03 42256   0.128E-01    0.243E-01
DAV:  10    -0.311603264479E+03   -0.38714E-04   -0.81052E-04 39136   0.111E-01    0.172E-01
DAV:  11    -0.311603278232E+03   -0.13753E-04   -0.46353E-04 38592   0.853E-02    0.172E-01
DAV:  12    -0.311603269558E+03    0.86740E-05   -0.41578E-04 37136   0.788E-02    0.125E-01
DAV:  13    -0.311603280787E+03   -0.11230E-04   -0.21939E-04 33248   0.574E-02    0.110E-01
DAV:  14    -0.311603274392E+03    0.63952E-05   -0.89743E-05 29968   0.426E-02
   9 F= -.31160327E+03 E0= -.31157894E+03  d E =-.163080E-02  mag=    25.9674
       N       E                     dE             d eps       ncg     rms          rms(c)
DAV:   1    -0.311553983320E+03    0.49297E-01   -0.27006E+00 41088   0.932E+00    0.761E-01
DAV:   2    -0.311610232529E+03   -0.56249E-01   -0.57247E-01 39152   0.178E+00    0.322E+00
DAV:   3    -0.311602251344E+03    0.79812E-02   -0.21118E-01 44016   0.104E+00    0.226E+00
DAV:   4    -0.311610799629E+03   -0.85483E-02   -0.10342E-01 43328   0.891E-01    0.261E+00
DAV:   5    -0.311601201824E+03    0.95978E-02   -0.68664E-02 42416   0.689E-01    0.124E+00
DAV:   6    -0.311603377794E+03   -0.21760E-02   -0.13184E-02 40800   0.359E-01    0.580E-01
DAV:   7    -0.311604599824E+03   -0.12220E-02   -0.58515E-03 44176   0.225E-01    0.765E-01
DAV:   8    -0.311604046227E+03    0.55360E-03   -0.41433E-03 42352   0.191E-01    0.317E-01
DAV:   9    -0.311604383364E+03   -0.33714E-03   -0.22935E-03 40752   0.154E-01    0.327E-01
DAV:  10    -0.311604329163E+03    0.54201E-04   -0.12360E-03 44592   0.142E-01    0.240E-01
DAV:  11    -0.311604425979E+03   -0.96816E-04   -0.13645E-03 46432   0.125E-01    0.309E-01
DAV:  12    -0.311604304801E+03    0.12118E-03   -0.10492E-03 44352   0.107E-01    0.133E-01
DAV:  13    -0.311604368825E+03   -0.64023E-04   -0.21970E-04 38112   0.635E-02    0.105E-01
DAV:  14    -0.311604362834E+03    0.59909E-05   -0.14836E-04 31440   0.489E-02    0.814E-02
DAV:  15    -0.311604366925E+03   -0.40916E-05   -0.10655E-04 28896   0.385E-02    0.864E-02
DAV:  16    -0.311604359766E+03    0.71590E-05   -0.56443E-05 27360   0.317E-02
  10 F= -.31160436E+03 E0= -.31158002E+03  d E =-.108537E-02  mag=    25.9670
       N       E                     dE             d eps       ncg     rms          rms(c)
DAV:   1    -0.311598088891E+03    0.62780E-02   -0.33916E-01 41136   0.330E+00    0.268E-01
DAV:   2    -0.311604968538E+03   -0.68796E-02   -0.70021E-02 38928   0.629E-01    0.958E-01
DAV:   3    -0.311604564488E+03    0.40405E-03   -0.23739E-02 44160   0.377E-01    0.976E-01
DAV:   4    -0.311604882766E+03   -0.31828E-03   -0.12365E-02 43520   0.326E-01    0.866E-01
DAV:   5    -0.311604092275E+03    0.79049E-03   -0.72553E-03 41824   0.246E-01    0.521E-01
DAV:   6    -0.311604180564E+03   -0.88289E-04   -0.22081E-03 40512   0.141E-01    0.148E-01
DAV:   7    -0.311604446472E+03   -0.26591E-03   -0.72038E-04 36688   0.761E-02    0.244E-01
DAV:   8    -0.311604388641E+03    0.57831E-04   -0.47353E-04 35536   0.659E-02    0.108E-01
DAV:   9    -0.311604419299E+03   -0.30658E-04   -0.22148E-04 31664   0.522E-02    0.102E-01
DAV:  10    -0.311604415683E+03    0.36155E-05   -0.16804E-04 30848   0.514E-02    0.766E-02
DAV:  11    -0.311604429767E+03   -0.14084E-04   -0.19028E-04 29328   0.489E-02    0.101E-01
DAV:  12    -0.311604416746E+03    0.13022E-04   -0.11981E-04 29344   0.411E-02    0.644E-02
DAV:  13    -0.311604417618E+03   -0.87213E-06   -0.27507E-05 24976   0.236E-02
  11 F= -.31160442E+03 E0= -.31158015E+03  d E =-.114323E-02  mag=    25.9668
       N       E                     dE             d eps       ncg     rms          rms(c)
DAV:   1    -0.311594104604E+03    0.10312E-01   -0.12568E+00 38496   0.463E+00    0.495E-01
DAV:   2    -0.311611994270E+03   -0.17890E-01   -0.17874E-01 40576   0.103E+00    0.309E+00
DAV:   3    -0.311600745119E+03    0.11249E-01   -0.11808E-01 43552   0.740E-01    0.134E+00
DAV:   4    -0.311606878103E+03   -0.61330E-02   -0.39653E-02 41168   0.619E-01    0.119E+00
DAV:   5    -0.311604886917E+03    0.19912E-02   -0.14348E-02 42944   0.417E-01    0.884E-01
DAV:   6    -0.311604758202E+03    0.12871E-03   -0.75106E-03 41616   0.208E-01    0.437E-01
DAV:   7    -0.311605513950E+03   -0.75575E-03   -0.45717E-03 42832   0.200E-01    0.586E-01
DAV:   8    -0.311605166336E+03    0.34761E-03   -0.47126E-03 44640   0.192E-01    0.499E-01
DAV:   9    -0.311605134511E+03    0.31825E-04   -0.19874E-03 41824   0.147E-01    0.259E-01
DAV:  10    -0.311605207597E+03   -0.73086E-04   -0.11486E-03 39424   0.120E-01    0.267E-01
DAV:  11    -0.311605157567E+03    0.50030E-04   -0.60596E-04 37728   0.804E-02    0.175E-01
DAV:  12    -0.311605157878E+03   -0.31153E-06   -0.33346E-04 33040   0.715E-02    0.102E-01
DAV:  13    -0.311605195801E+03   -0.37923E-04   -0.28150E-04 32816   0.554E-02    0.131E-01
DAV:  14    -0.311605175511E+03    0.20290E-04   -0.16708E-04 32672   0.525E-02    0.756E-02
DAV:  15    -0.311605185615E+03   -0.10104E-04   -0.68544E-05 29456   0.367E-02    0.571E-02
DAV:  16    -0.311605183638E+03    0.19772E-05   -0.46136E-05 26512   0.281E-02
  12 F= -.31160518E+03 E0= -.31158089E+03  d E =-.766020E-03  mag=    25.9665
