       N       E                     dE             d eps       ncg     rms          ort
DAV:   1     0.706466710528E+04    0.70647E+04   -0.27741E+05 23680   0.172E+03
DAV:   2     0.247031466152E+03   -0.68176E+04   -0.66161E+04 23680   0.523E+02
DAV:   3    -0.741142681277E+03   -0.98817E+03   -0.96723E+03 23680   0.203E+02
DAV:   4    -0.798990864540E+03   -0.57848E+02   -0.55595E+02 23680   0.512E+01
DAV:   5    -0.804799640732E+03   -0.58088E+01   -0.55776E+01 23680   0.105E+01
SDA:   6    -0.308947328894E+03    0.49585E+03   -0.55776E+01 23680   0.183E+04 0.000E+00
CGA:   7    -0.518144608615E+03   -0.20920E+03   -0.17463E+03 23680   0.208E+04-0.207E+03
CGA:   8    -0.536025097775E+03   -0.17880E+02   -0.88744E+02 23680   0.145E+04-0.118E+04
CGA:   9    -0.536993718283E+03   -0.96862E+00   -0.74631E+02 23680   0.148E+04-0.675E+03
CGA:  10    -0.581021790303E+03   -0.44028E+02   -0.28047E+02 23680   0.136E+04-0.178E+04
CGA:  11    -0.519208721843E+03    0.61813E+02   -0.76674E+02 23680   0.194E+04-0.570E+03
CGA:  12    -0.510231171964E+03    0.89775E+01   -0.43253E+02 23680   0.291E+04-0.199E+04
CGA:  13    -0.481088245011E+03    0.29143E+02   -0.11032E+03 23680   0.159E+04-0.119E+04
CGA:  14    -0.537882122421E+03   -0.56794E+02   -0.30253E+02 23680   0.183E+04-0.218E+04
CGA:  15    -0.510521696174E+03    0.27360E+02   -0.53343E+02 23680   0.468E+04-0.358E+04
CGA:  16    -0.373223495247E+03    0.13730E+03   -0.25471E+03 23680   0.899E+04-0.456E+04
CGA:  17    -0.445839042871E+03   -0.72616E+02   -0.44774E+03 23680   0.270E+04-0.300E+04
CGA:  18    -0.528132543923E+03   -0.82294E+02   -0.71346E+02 23680   0.198E+04-0.265E+04
CGA:  19    -0.537024859450E+03   -0.88923E+01   -0.61961E+02 23680   0.310E+04-0.287E+04
CGA:  20    -0.496670579938E+03    0.40354E+02   -0.13114E+03 23680   0.744E+03-0.617E+03
CGA:  21    -0.588704719744E+03   -0.92034E+02   -0.80825E+01 23680   0.202E+04 0.406E+04
CGA:  22    -0.567151445921E+03    0.21553E+02   -0.82577E+02 23680   0.211E+04-0.136E+04
CGA:  23    -0.541731656198E+03    0.25420E+02   -0.80110E+02 23680   0.465E+04-0.346E+04
CGA:  24    -0.530720501123E+03    0.11011E+02   -0.20118E+03 23680   0.301E+04-0.249E+04
CGA:  25    -0.571370154800E+03   -0.40650E+02   -0.11736E+03 23680   0.336E+04-0.432E+04
CGA:  26    -0.585048834714E+03   -0.13679E+02   -0.13425E+03 23680   0.109E+04-0.114E+04
CGA:  27    -0.622821417102E+03   -0.37773E+02   -0.17702E+02 23680   0.322E+02 0.427E+02
CGA:  28    -0.624771956495E+03   -0.19505E+01   -0.23540E+01 23680   0.322E+02 0.411E+01
CGA:  29    -0.626884375350E+03   -0.21124E+01   -0.18831E+01 23680   0.286E+02-0.215E+00
CGA:  30    -0.629619414440E+03   -0.27350E+01   -0.26890E+01 23680   0.114E+02 0.685E+01
CGA:  31    -0.631782153728E+03   -0.21627E+01   -0.19079E+01 23680   0.274E+01 0.452E+01
CGA:  32    -0.633005031007E+03   -0.12229E+01   -0.10391E+01 23680   0.113E+01 0.107E+01
CGA:  33    -0.633828060435E+03   -0.82303E+00   -0.74376E+00 23680   0.349E+00 0.245E+00
CGA:  34    -0.634018873347E+03   -0.19081E+00   -0.19179E+00 23680   0.179E+00-0.204E-02
CGA:  35    -0.634090709477E+03   -0.71836E-01   -0.69843E-01 23680   0.612E-01 0.852E-02
CGA:  36    -0.634126687751E+03   -0.35978E-01   -0.34072E-01 23680   0.432E-01 0.504E-02
CGA:  37    -0.634154812945E+03   -0.28125E-01   -0.27269E-01 23680   0.344E-01 0.193E-02
CGA:  38    -0.634172955774E+03   -0.18143E-01   -0.17679E-01 23680   0.212E-01 0.143E-02
CGA:  39    -0.634183926263E+03   -0.10970E-01   -0.10862E-01 23680   0.177E-01 0.291E-03
CGA:  40    -0.634192787260E+03   -0.88610E-02   -0.91115E-02 23680   0.130E-01-0.882E-03
CGA:  41    -0.634199687416E+03   -0.69002E-02   -0.70959E-02 23680   0.120E-01-0.580E-03
CGA:  42    -0.634206187857E+03   -0.65004E-02   -0.68155E-02 23680   0.124E-01-0.935E-03
CGA:  43    -0.634213713947E+03   -0.75261E-02   -0.95633E-02 23680   0.203E-01-0.408E-02
CGA:  44    -0.634219990828E+03   -0.62769E-02   -0.78716E-02 23680   0.194E-01-0.615E-02
CGA:  45    -0.634226085534E+03   -0.60947E-02   -0.59950E-02 23680   0.176E-01 0.467E-03
CGA:  46    -0.634233314784E+03   -0.72292E-02   -0.71266E-02 23680   0.160E-01 0.988E-03
CGA:  47    -0.634241833596E+03   -0.85188E-02   -0.85711E-02 23680   0.169E-01-0.183E-03
CGA:  48    -0.634249235417E+03   -0.74018E-02   -0.73521E-02 23680   0.154E-01 0.450E-03
CGA:  49    -0.634257062182E+03   -0.78268E-02   -0.77044E-02 23680   0.161E-01 0.763E-03
CGA:  50    -0.634265397215E+03   -0.83350E-02   -0.81932E-02 23680   0.161E-01 0.749E-03
CGA:  51    -0.634273386012E+03   -0.79888E-02   -0.80306E-02 23680   0.136E-01-0.268E-03
CGA:  52    -0.634278879659E+03   -0.54936E-02   -0.55051E-02 23680   0.106E-01-0.830E-04
CGA:  53    -0.634283109009E+03   -0.42293E-02   -0.42085E-02 23680   0.801E-02 0.494E-03
CGA:  54    -0.634286507526E+03   -0.33985E-02   -0.33755E-02 23680   0.640E-02 0.565E-03
CGA:  55    -0.634289375553E+03   -0.28680E-02   -0.28462E-02 23680   0.517E-02 0.374E-03
SDA:  56    -0.634291768740E+03   -0.23932E-02   -0.23825E-02 23680   0.429E-02 0.144E-03
CGA:  57    -0.634293605882E+03   -0.18371E-02   -0.18348E-02 23680   0.283E-02 0.402E-04
CGA:  58    -0.634295618157E+03   -0.20123E-02   -0.20786E-02 23680   0.295E-02-0.185E-03
CGA:  59    -0.634297283922E+03   -0.16658E-02   -0.16972E-02 23680   0.281E-02-0.140E-03
CGA:  60    -0.634299056954E+03   -0.17730E-02   -0.18160E-02 23680   0.318E-02-0.143E-03
CGA:  61    -0.634301067606E+03   -0.20107E-02   -0.23943E-02 23680   0.495E-02-0.111E-02
CGA:  62    -0.634302550613E+03   -0.14830E-02   -0.19541E-02 23680   0.440E-02-0.243E-02
CGA:  63    -0.634303390258E+03   -0.83964E-03   -0.84253E-03 23680   0.351E-02 0.101E-06
CGA:  64    -0.634304452417E+03   -0.10622E-02   -0.11001E-02 23680   0.237E-02 0.158E-04
CGA:  65    -0.634305490082E+03   -0.10377E-02   -0.10378E-02 23680   0.226E-02-0.619E-04
CGA:  66    -0.634306476759E+03   -0.98668E-03   -0.98964E-03 23680   0.220E-02-0.148E-03
CGA:  67    -0.634307459240E+03   -0.98248E-03   -0.98958E-03 23680   0.249E-02-0.131E-03
CGA:  68    -0.634308453648E+03   -0.99441E-03   -0.99411E-03 23680   0.206E-02-0.149E-04
CGA:  69    -0.634309190539E+03   -0.73689E-03   -0.73957E-03 23680   0.132E-02 0.350E-04
CGA:  70    -0.634309718820E+03   -0.52828E-03   -0.52749E-03 23680   0.103E-02-0.267E-04
CGA:  71    -0.634310175845E+03   -0.45703E-03   -0.45943E-03 23680   0.935E-03-0.111E-03
CGA:  72    -0.634310539828E+03   -0.36398E-03   -0.36456E-03 23680   0.879E-03-0.120E-03
CGA:  73    -0.634310890298E+03   -0.35047E-03   -0.35372E-03 23680   0.894E-03-0.112E-03
CGA:  74    -0.634311253572E+03   -0.36327E-03   -0.36857E-03 23680   0.969E-03-0.133E-03
CGA:  75    -0.634311683825E+03   -0.43025E-03   -0.45241E-03 23680   0.128E-02-0.184E-03
CGA:  76    -0.634312170062E+03   -0.48624E-03   -0.49257E-03 23680   0.137E-02-0.165E-03
CGA:  77    -0.634312649635E+03   -0.47957E-03   -0.47354E-03 23680   0.123E-02-0.868E-04
CGA:  78    -0.634313097410E+03   -0.44777E-03   -0.44530E-03 23680   0.117E-02-0.134E-04
CGA:  79    -0.634313530539E+03   -0.43313E-03   -0.43585E-03 23680   0.106E-02 0.684E-04
CGA:  80    -0.634313909905E+03   -0.37937E-03   -0.39004E-03 23680   0.891E-03 0.136E-03
CGA:  81    -0.634314244414E+03   -0.33451E-03   -0.34718E-03 23680   0.735E-03 0.155E-03
CGA:  82    -0.634314542186E+03   -0.29777E-03   -0.30659E-03 23680   0.602E-03 0.126E-03
CGA:  83    -0.634314789873E+03   -0.24769E-03   -0.25295E-03 23680   0.448E-03 0.824E-04
CGA:  84    -0.634314965019E+03   -0.17515E-03   -0.17885E-03 23680   0.347E-03 0.534E-04
CGA:  85    -0.634315103623E+03   -0.13860E-03   -0.14128E-03 23680   0.295E-03 0.516E-04
CGA:  86    -0.634315221516E+03   -0.11789E-03   -0.12100E-03 23680   0.247E-03 0.550E-04
SDA:  87    -0.634315322867E+03   -0.10135E-03   -0.10412E-03 23680   0.203E-03 0.505E-04
CGA:  88    -0.634315421271E+03   -0.98404E-04   -0.99246E-04 23680   0.140E-03-0.104E-04
CGA:  89    -0.634315511463E+03   -0.90193E-04   -0.93812E-04 23680   0.153E-03-0.125E-04
CGA:  90    -0.634315582737E+03   -0.71273E-04   -0.71305E-04 23680   0.112E-03-0.712E-06
CGA:  91    -0.634315659182E+03   -0.76445E-04   -0.79647E-04 23680   0.139E-03-0.119E-04
CGA:  92    -0.634315738804E+03   -0.79623E-04   -0.85377E-04 23680   0.127E-03-0.245E-04
CGA:  93    -0.634315790702E+03   -0.51897E-04   -0.51808E-04 23680   0.825E-04 0.183E-05
CGA:  94    -0.634315835326E+03   -0.44624E-04   -0.44088E-04 23680   0.640E-04 0.788E-05
CGA:  95    -0.634315869132E+03   -0.33807E-04   -0.33570E-04 23680   0.454E-04 0.140E-04
CGA:  96    -0.634315888319E+03   -0.19187E-04   -0.21151E-04 23680   0.277E-04 0.245E-04
CGA:  97    -0.634315897975E+03   -0.96554E-05   -0.10314E-04 23680   0.137E-04 0.755E-05
   1 F= -.63431590E+03 E0= -.63431590E+03  d E =-.634316E+03  mag=    24.0000
