       N       E                     dE             d eps       ncg     rms          rms(c)
DAV:   1     0.711242931160E+04    0.71124E+04   -0.33679E+05 43232   0.169E+03
DAV:   2     0.450672709862E+03   -0.66618E+04   -0.62677E+04 40736   0.515E+02
DAV:   3    -0.277015671734E+03   -0.72769E+03   -0.70524E+03 42752   0.186E+02
DAV:   4    -0.308245529947E+03   -0.31230E+02   -0.31026E+02 47248   0.367E+01
DAV:   5    -0.310528027333E+03   -0.22825E+01   -0.22751E+01 70576   0.716E+00    0.284E+00
DAV:   6    -0.311630006821E+03   -0.11020E+01   -0.18935E+00 49168   0.512E+00    0.123E+01
DAV:   7    -0.311469466174E+03    0.16054E+00   -0.34819E+00 48352   0.373E+00    0.835E+00
DAV:   8    -0.311464717849E+03    0.47483E-02   -0.15560E+00 45936   0.281E+00    0.560E+00
DAV:   9    -0.311491658650E+03   -0.26941E-01   -0.93095E-01 44912   0.234E+00    0.488E+00
DAV:  10    -0.311452044703E+03    0.39614E-01   -0.25340E-01 45024   0.178E+00    0.195E+00
DAV:  11    -0.311464161251E+03   -0.12117E-01   -0.13075E-01 47376   0.952E-01    0.161E+00
DAV:  12    -0.311471290919E+03   -0.71297E-02   -0.97001E-02 49328   0.774E-01    0.234E+00
DAV:  13    -0.311462818697E+03    0.84722E-02   -0.43561E-02 45744   0.625E-01    0.158E+00
DAV:  14    -0.311462588074E+03    0.23062E-03   -0.84651E-03 47152   0.354E-01    0.130E+00
DAV:  15    -0.311462188919E+03    0.39916E-03   -0.32659E-03 48016   0.225E-01    0.824E-01
DAV:  16    -0.311463456506E+03   -0.12676E-02   -0.54129E-03 50448   0.170E-01    0.559E-01
DAV:  17    -0.311464175433E+03   -0.71893E-03   -0.21528E-03 43104   0.176E-01    0.477E-01
DAV:  18    -0.311464255226E+03   -0.79794E-04   -0.92145E-04 45904   0.112E-01    0.443E-01
DAV:  19    -0.311464235993E+03    0.19233E-04   -0.70472E-04 43984   0.920E-02    0.377E-01
DAV:  20    -0.311464395958E+03   -0.15996E-03   -0.35077E-04 41680   0.590E-02    0.369E-01
DAV:  21    -0.311464343512E+03    0.52447E-04   -0.13557E-04 36352   0.506E-02    0.304E-01
DAV:  22    -0.311464384177E+03   -0.40665E-04   -0.95317E-05 33392   0.348E-02    0.236E-01
DAV:  23    -0.311464459501E+03   -0.75324E-04   -0.80654E-05 32320   0.305E-02    0.185E-01
DAV:  24    -0.311464494968E+03   -0.35467E-04   -0.44860E-05 32064   0.287E-02    0.161E-01
DAV:  25    -0.311464514129E+03   -0.19161E-04   -0.21911E-05 29632   0.239E-02    0.131E-01
DAV:  26    -0.311464536842E+03   -0.22713E-04   -0.25128E-05 27728   0.204E-02    0.100E-01
DAV:  27    -0.311464550559E+03   -0.13717E-04   -0.32291E-05 29776   0.185E-02    0.649E-02
DAV:  28    -0.311464555427E+03   -0.48680E-05   -0.16831E-05 22656   0.134E-02
   1 F= -.31146456E+03 E0= -.31144416E+03  d E =-.311465E+03  mag=    24.2613
