       N       E                     dE             d eps       ncg     rms          rms(c)
DAV:   1     0.692513435560E+04    0.69251E+04   -0.28577E+05 37712   0.160E+03
DAV:   2     0.448852606521E+03   -0.64763E+04   -0.60340E+04 37520   0.482E+02
DAV:   3    -0.387081308154E+03   -0.83593E+03   -0.82332E+03 40176   0.183E+02
DAV:   4    -0.422773099270E+03   -0.35692E+02   -0.35363E+02 48400   0.347E+01
DAV:   5    -0.425004595279E+03   -0.22315E+01   -0.22219E+01 62496   0.641E+00    0.568E+01
DAV:   6    -0.379946433448E+03    0.45058E+02   -0.23690E+02 45328   0.354E+01    0.448E+01
DAV:   7    -0.381685180444E+03   -0.17387E+01   -0.23172E+01 41728   0.143E+01    0.368E+01
DAV:   8    -0.381393191486E+03    0.29199E+00   -0.87509E+00 45776   0.766E+00    0.263E+01
DAV:   9    -0.381324146118E+03    0.69045E-01   -0.84602E+00 44176   0.824E+00    0.171E+01
DAV:  10    -0.381349293533E+03   -0.25147E-01   -0.27333E+00 42640   0.486E+00    0.715E+00
DAV:  11    -0.381325967329E+03    0.23326E-01   -0.58031E-01 45248   0.253E+00    0.382E+00
DAV:  12    -0.381352867234E+03   -0.26900E-01   -0.20959E-01 39824   0.140E+00    0.316E+00
DAV:  13    -0.381354945801E+03   -0.20786E-02   -0.53832E-02 39632   0.792E-01    0.119E+00
DAV:  14    -0.381370158619E+03   -0.15213E-01   -0.16020E-02 39728   0.385E-01    0.826E-01
DAV:  15    -0.381386144226E+03   -0.15986E-01   -0.79992E-03 40832   0.218E-01    0.528E-01
DAV:  16    -0.381399271426E+03   -0.13127E-01   -0.67386E-03 39760   0.215E-01    0.529E-01
DAV:  17    -0.381405492191E+03   -0.62208E-02   -0.62606E-03 39728   0.185E-01    0.274E-01
DAV:  18    -0.381406247326E+03   -0.75514E-03   -0.12342E-03 42576   0.850E-02    0.200E-01
DAV:  19    -0.381406048207E+03    0.19912E-03   -0.80844E-04 39984   0.602E-02    0.149E-01
DAV:  20    -0.381405807417E+03    0.24079E-03   -0.89711E-04 42336   0.667E-02    0.152E-01
DAV:  21    -0.381405753765E+03    0.53652E-04   -0.32306E-04 41552   0.474E-02    0.712E-02
DAV:  22    -0.381405763414E+03   -0.96496E-05   -0.87980E-05 37152   0.243E-02
   1 F= -.38140576E+03 E0= -.38140030E+03  d E =-.381406E+03  mag=    58.0063
       N       E                     dE             d eps       ncg     rms          rms(c)
DAV:   1    -0.381419625299E+03   -0.13872E-01   -0.56186E-01 38784   0.242E+00    0.101E+00
DAV:   2    -0.381409271919E+03    0.10353E-01   -0.73293E-02 39936   0.661E-01    0.845E-01
DAV:   3    -0.381411393880E+03   -0.21220E-02   -0.19102E-02 44096   0.451E-01    0.188E+00
DAV:   4    -0.381407071801E+03    0.43221E-02   -0.99378E-03 40400   0.364E-01    0.298E-01
DAV:   5    -0.381407337886E+03   -0.26608E-03   -0.13960E-03 40000   0.106E-01    0.216E-01
DAV:   6    -0.381407276657E+03    0.61229E-04   -0.55182E-04 49072   0.696E-02    0.148E-01
DAV:   7    -0.381407247292E+03    0.29365E-04   -0.15122E-04 43392   0.404E-02    0.101E-01
DAV:   8    -0.381407228351E+03    0.18940E-04   -0.84262E-05 40464   0.317E-02    0.670E-02
DAV:   9    -0.381407223475E+03    0.48759E-05   -0.25233E-05 30080   0.162E-02
   2 F= -.38140722E+03 E0= -.38140175E+03  d E =-.146006E-02  mag=    58.0015
