       N       E                     dE             d eps       ncg     rms          rms(c)
DAV:   1     0.654907698780E+03    0.65491E+03   -0.36026E+04 98088   0.164E+03
DAV:   2    -0.318037642148E+02   -0.68671E+03   -0.64307E+03108136   0.470E+02
DAV:   3    -0.909690635646E+02   -0.59165E+02   -0.57508E+02121208   0.145E+02
DAV:   4    -0.932938984524E+02   -0.23248E+01   -0.23215E+01161328   0.214E+01
DAV:   5    -0.933402527778E+02   -0.46354E-01   -0.46348E-01126744   0.244E+00    0.394E+00
DAV:   6    -0.746347829016E+02    0.18705E+02   -0.78023E+00102208   0.163E+01    0.430E+00
DAV:   7    -0.745717559060E+02    0.63027E-01   -0.27956E-01150080   0.344E+00    0.201E+00
DAV:   8    -0.745475951359E+02    0.24161E-01   -0.33934E-02112032   0.125E+00    0.129E+00
DAV:   9    -0.745403674763E+02    0.72277E-02   -0.52335E-03118216   0.407E-01    0.111E+00
DAV:  10    -0.745331056232E+02    0.72619E-02   -0.62392E-03107248   0.447E-01    0.770E-01
DAV:  11    -0.745298418059E+02    0.32638E-02   -0.21809E-03111264   0.257E-01    0.595E-01
DAV:  12    -0.745282932307E+02    0.15486E-02   -0.71785E-04118472   0.149E-01    0.488E-01
DAV:  13    -0.745254298815E+02    0.28633E-02   -0.49152E-03108856   0.394E-01    0.202E-01
DAV:  14    -0.745251964418E+02    0.23344E-03   -0.15647E-04136560   0.721E-02    0.167E-01
DAV:  15    -0.745246369587E+02    0.55948E-03   -0.10718E-03108600   0.187E-01    0.320E-02
DAV:  16    -0.745245585670E+02    0.78392E-04   -0.10277E-04110392   0.582E-02    0.116E-02
DAV:  17    -0.745245077803E+02    0.50787E-04   -0.10073E-04104536   0.561E-02    0.488E-02
DAV:  18    -0.745245190546E+02   -0.11274E-04   -0.38747E-06 54664   0.121E-02    0.488E-02
DAV:  19    -0.745245222621E+02   -0.32076E-05   -0.10570E-05 55664   0.189E-02
   1 F= -.74524522E+02 E0= -.74524522E+02  d E =-.745245E+02  mag=     2.0000
       N       E                     dE             d eps       ncg     rms          rms(c)
DAV:   1    -0.745431060492E+02   -0.18587E-01   -0.53060E-01 97000   0.570E+00    0.121E+00
DAV:   2    -0.745267143766E+02    0.16392E-01   -0.56047E-02100608   0.163E+00    0.500E-01
DAV:   3    -0.745250030901E+02    0.17113E-02   -0.63358E-03102720   0.464E-01    0.311E-01
DAV:   4    -0.745249426030E+02    0.60487E-04   -0.17907E-04124912   0.126E-01    0.966E-02
DAV:   5    -0.745247957674E+02    0.14684E-03   -0.12813E-04145528   0.846E-02    0.561E-02
DAV:   6    -0.745247650060E+02    0.30761E-04   -0.49270E-05131440   0.398E-02    0.320E-02
DAV:   7    -0.745247519528E+02    0.13053E-04   -0.87403E-06 65088   0.250E-02    0.168E-02
DAV:   8    -0.745247757793E+02   -0.23827E-04   -0.31615E-06 55368   0.160E-02    0.112E-02
DAV:   9    -0.745247617998E+02    0.13980E-04   -0.19872E-06 54600   0.943E-03    0.623E-03
DAV:  10    -0.745247795549E+02   -0.17755E-04   -0.12700E-06 53800   0.645E-03    0.277E-03
DAV:  11    -0.745247760820E+02    0.34729E-05   -0.62309E-07 53392   0.381E-03
   2 F= -.74524776E+02 E0= -.74524776E+02  d E =-.253820E-03  mag=     2.0000
       N       E                     dE             d eps       ncg     rms          rms(c)
DAV:   1    -0.745284317681E+02   -0.36522E-02   -0.91279E-02 97168   0.236E+00    0.494E-01
DAV:   2    -0.745251630214E+02    0.32687E-02   -0.92724E-03101024   0.670E-01    0.206E-01
DAV:   3    -0.745250135054E+02    0.14952E-03   -0.10768E-03102968   0.189E-01    0.132E-01
DAV:   4    -0.745249480320E+02    0.65473E-04   -0.31562E-05110720   0.598E-02    0.414E-02
DAV:   5    -0.745249812996E+02   -0.33268E-04   -0.20365E-05103416   0.360E-02    0.243E-02
DAV:   6    -0.745249964633E+02   -0.15164E-04   -0.93692E-06 67400   0.196E-02    0.133E-02
DAV:   7    -0.745250115714E+02   -0.15108E-04   -0.41590E-06 54088   0.149E-02    0.676E-03
DAV:   8    -0.745250027696E+02    0.88018E-05   -0.18580E-06 52896   0.891E-03
   3 F= -.74525003E+02 E0= -.74525003E+02  d E =-.480507E-03  mag=     2.0000
       N       E                     dE             d eps       ncg     rms          rms(c)
DAV:   1    -0.745256333548E+02   -0.62178E-03   -0.15279E-02 97344   0.967E-01    0.202E-01
DAV:   2    -0.745249683531E+02    0.66500E-03   -0.15444E-03101248   0.273E-01    0.838E-02
DAV:   3    -0.745249666412E+02    0.17119E-05   -0.17997E-04102880   0.771E-02    0.541E-02
DAV:   4    -0.745249432516E+02    0.23390E-04   -0.43739E-06 65024   0.242E-02    0.170E-02
DAV:   5    -0.745249582449E+02   -0.14993E-04   -0.38172E-06 59112   0.162E-02    0.996E-03
DAV:   6    -0.745249644062E+02   -0.61613E-05   -0.30664E-06 59224   0.106E-02
   4 F= -.74524964E+02 E0= -.74524964E+02  d E =-.442144E-03  mag=     2.0000
       N       E                     dE             d eps       ncg     rms          rms(c)
DAV:   1    -0.745254651866E+02   -0.50694E-03   -0.13312E-02 97080   0.904E-01    0.189E-01
DAV:   2    -0.745248716573E+02    0.59353E-03   -0.13427E-03100728   0.256E-01    0.791E-02
DAV:   3    -0.745248766500E+02   -0.49928E-05   -0.15747E-04102512   0.719E-02    0.516E-02
DAV:   4    -0.745248532834E+02    0.23367E-04   -0.41027E-06 64656   0.238E-02    0.161E-02
DAV:   5    -0.745248679852E+02   -0.14702E-04   -0.33356E-06 57272   0.152E-02    0.951E-03
DAV:   6    -0.745248738679E+02   -0.58827E-05   -0.27268E-06 60304   0.101E-02
   5 F= -.74524874E+02 E0= -.74524874E+02  d E =-.351606E-03  mag=     2.0000
       N       E                     dE             d eps       ncg     rms          rms(c)
DAV:   1    -0.745248884392E+02   -0.20454E-04   -0.25051E-04 98272   0.125E-01    0.260E-02
DAV:   2    -0.745248509725E+02    0.37467E-04   -0.22810E-05 60840   0.355E-02    0.124E-02
DAV:   3    -0.745248581882E+02   -0.72157E-05   -0.70287E-06 51008   0.172E-02    0.104E-02
DAV:   4    -0.745248514943E+02    0.66939E-05   -0.12783E-06 51224   0.103E-02    0.283E-03
DAV:   5    -0.745248529304E+02   -0.14361E-05   -0.23330E-07 51048   0.367E-03    0.183E-03
DAV:   6    -0.745248534950E+02   -0.56467E-06   -0.18360E-07 51136   0.258E-03
   6 F= -.74524853E+02 E0= -.74524853E+02  d E =-.331233E-03  mag=     2.0000
       N       E                     dE             d eps       ncg     rms          rms(c)
DAV:   1    -0.745248544426E+02   -0.15123E-05   -0.71831E-02 96968   0.179E+00    0.102E-01
DAV:   2    -0.745251368886E+02   -0.28245E-03   -0.21320E-03102816   0.336E-01    0.943E-02
DAV:   3    -0.745250346336E+02    0.10226E-03   -0.58015E-05115600   0.760E-02    0.478E-02
DAV:   4    -0.745250600026E+02   -0.25369E-04   -0.13384E-05 65392   0.355E-02    0.292E-02
DAV:   5    -0.745250552674E+02    0.47352E-05   -0.74221E-06 57176   0.194E-02    0.150E-02
DAV:   6    -0.745250426791E+02    0.12588E-04   -0.14221E-06 53824   0.100E-02    0.867E-03
DAV:   7    -0.745250496631E+02   -0.69841E-05   -0.70415E-07 51728   0.536E-03
   7 F= -.74525050E+02 E0= -.74525050E+02  d E =-.196168E-03  mag=     2.0000
