       N       E                     dE             d eps       ncg     rms          ort
DAV:   1     0.699651208184E+04    0.69965E+04   -0.30530E+05  9152   0.168E+03
DAV:   2     0.479681088986E+03   -0.65168E+04   -0.60530E+04  9152   0.482E+02
DAV:   3    -0.383776310789E+03   -0.86346E+03   -0.84932E+03  9152   0.188E+02
DAV:   4    -0.422184184663E+03   -0.38408E+02   -0.37970E+02  9152   0.370E+01
DAV:   5    -0.424756078689E+03   -0.25719E+01   -0.25527E+01  9152   0.680E+00
SDA:   6    -0.280941370778E+03    0.14381E+03   -0.25527E+01  9152   0.817E+03 0.000E+00
CGA:   7    -0.364584257626E+03   -0.83643E+02   -0.92990E+02  9152   0.117E+03-0.782E+00
CGA:   8    -0.371462726817E+03   -0.68785E+01   -0.10887E+02  9152   0.531E+02-0.957E+01
CGA:   9    -0.374917056473E+03   -0.34543E+01   -0.31684E+01  9152   0.225E+02 0.145E+01
CGA:  10    -0.375909163955E+03   -0.99211E+00   -0.15869E+01  9152   0.602E+02-0.641E+01
CGA:  11    -0.374204699407E+03    0.17045E+01   -0.16827E+01  9152   0.141E+03 0.375E+01
CGA:  12    -0.374000387894E+03    0.20431E+00   -0.46018E+01  9152   0.397E+02-0.874E+02
CGA:  13    -0.377406025010E+03   -0.34056E+01   -0.25257E+01  9152   0.426E+02-0.178E+02
CGA:  14    -0.378835856152E+03   -0.14298E+01   -0.12803E+01  9152   0.394E+02 0.567E+01
CGA:  15    -0.378429079395E+03    0.40678E+00   -0.19252E+01  9152   0.241E+02-0.115E+02
CGA:  16    -0.379067241547E+03   -0.63816E+00   -0.75909E+00  9152   0.327E+02 0.341E+01
CGA:  17    -0.376918675182E+03    0.21486E+01   -0.15161E+01  9152   0.411E+02-0.344E+02
CGA:  18    -0.379063405691E+03   -0.21447E+01   -0.24470E+01  9152   0.205E+02-0.143E+02
CGA:  19    -0.380106440788E+03   -0.10430E+01   -0.63793E+00  9152   0.179E+02 0.112E+02
CGA:  20    -0.380347916356E+03   -0.24148E+00   -0.61475E+00  9152   0.224E+02-0.143E+02
CGA:  21    -0.380210748885E+03    0.13717E+00   -0.12253E+01  9152   0.141E+02-0.623E+01
CGA:  22    -0.380692373526E+03   -0.48162E+00   -0.27628E+00  9152   0.713E+01 0.744E+01
CGA:  23    -0.380887735854E+03   -0.19536E+00   -0.11731E+00  9152   0.164E+01 0.371E+01
CGA:  24    -0.380938363183E+03   -0.50627E-01   -0.42720E-01  9152   0.647E+00 0.228E+00
CGA:  25    -0.381094223975E+03   -0.15586E+00   -0.13986E+00  9152   0.113E+01 0.170E+00
CGA:  26    -0.381168539294E+03   -0.74315E-01   -0.95238E-01  9152   0.542E+00 0.172E-02
CGA:  27    -0.381197246423E+03   -0.28707E-01   -0.26185E-01  9152   0.155E+00 0.317E-01
CGA:  28    -0.381215896012E+03   -0.18650E-01   -0.18529E-01  9152   0.273E+00 0.106E-01
CGA:  29    -0.381243948127E+03   -0.28052E-01   -0.28363E-01  9152   0.968E-01 0.138E-01
CGA:  30    -0.381254137132E+03   -0.10189E-01   -0.10241E-01  9152   0.456E-01 0.420E-02
CGA:  31    -0.381258932030E+03   -0.47949E-02   -0.48080E-02  9152   0.366E-01 0.121E-02
CGA:  32    -0.381262775633E+03   -0.38436E-02   -0.38473E-02  9152   0.115E-01 0.542E-03
CGA:  33    -0.381264022218E+03   -0.12466E-02   -0.12465E-02  9152   0.865E-02 0.171E-04
CGA:  34    -0.381265570289E+03   -0.15481E-02   -0.15332E-02  9152   0.434E-02 0.162E-03
CGA:  35    -0.381266500272E+03   -0.92998E-03   -0.92669E-03  9152   0.534E-02 0.243E-04
CGA:  36    -0.381267116639E+03   -0.61637E-03   -0.61634E-03  9152   0.327E-02-0.725E-05
CGA:  37    -0.381267614969E+03   -0.49833E-03   -0.50004E-03  9152   0.310E-02-0.466E-04
CGA:  38    -0.381267973401E+03   -0.35843E-03   -0.35843E-03  9152   0.166E-02-0.164E-04
CGA:  39    -0.381268279188E+03   -0.30579E-03   -0.30744E-03  9152   0.746E-03-0.261E-04
CGA:  40    -0.381268395439E+03   -0.11625E-03   -0.11714E-03  9152   0.920E-03-0.224E-04
CGA:  41    -0.381268507737E+03   -0.11230E-03   -0.11239E-03  9152   0.445E-03-0.212E-04
CGA:  42    -0.381268563846E+03   -0.56109E-04   -0.56148E-04  9152   0.321E-03-0.603E-05
CGA:  43    -0.381268616095E+03   -0.52249E-04   -0.52211E-04  9152   0.229E-03 0.773E-06
CGA:  44    -0.381268657083E+03   -0.40988E-04   -0.40671E-04  9152   0.112E-03 0.601E-05
CGA:  45    -0.381268671709E+03   -0.14625E-04   -0.14625E-04  9152   0.115E-03 0.464E-05
CGA:  46    -0.381268687930E+03   -0.16221E-04   -0.16167E-04  9152   0.523E-04 0.684E-05
CGA:  47    -0.381268696315E+03   -0.83857E-05   -0.82834E-05  9152   0.478E-04 0.465E-05
   1 F= -.38126870E+03 E0= -.38126415E+03  d E =-.381269E+03  mag=    58.0000
       N       E                     dE             d eps       ncg     rms          ort
SDA:   1    -0.381268880504E+03   -0.19257E-03    0.00000E+00  9152   0.420E-02 0.000E+00
CGA:   2    -0.381269103133E+03   -0.22263E-03   -0.22514E-03  9152   0.889E-03-0.366E-04
CGA:   3    -0.381269236140E+03   -0.13301E-03   -0.13310E-03  9152   0.491E-03-0.401E-05
CGA:   4    -0.381269312873E+03   -0.76734E-04   -0.76620E-04  9152   0.230E-03 0.398E-05
CGA:   5    -0.381269340243E+03   -0.27369E-04   -0.27409E-04  9152   0.984E-04 0.363E-05
CGA:   6    -0.381269351706E+03   -0.11463E-04   -0.11472E-04  9152   0.542E-04 0.647E-06
CGA:   7    -0.381269357016E+03   -0.53103E-05   -0.52915E-05  9152   0.265E-04-0.534E-06
   2 F= -.38126936E+03 E0= -.38126482E+03  d E =-.660700E-03  mag=    58.0000
       N       E                     dE             d eps       ncg     rms          ort
SDA:   1    -0.381105880424E+03    0.16347E+00    0.00000E+00  9152   0.582E+00 0.000E+00
CGA:   2    -0.381198689802E+03   -0.92809E-01   -0.92603E-01  9152   0.403E+00 0.469E-02
CGA:   3    -0.381237402475E+03   -0.38713E-01   -0.38007E-01  9152   0.245E+00-0.188E-02
CGA:   4    -0.381269181668E+03   -0.31779E-01   -0.31778E-01  9152   0.566E-01 0.321E-03
CGA:   5    -0.381278031030E+03   -0.88494E-02   -0.88494E-02  9152   0.219E-01-0.254E-06
CGA:   6    -0.381280072861E+03   -0.20418E-02   -0.20414E-02  9152   0.997E-02-0.507E-05
CGA:   7    -0.381281133062E+03   -0.10602E-02   -0.10589E-02  9152   0.380E-02-0.183E-04
CGA:   8    -0.381281534630E+03   -0.40157E-03   -0.40286E-03  9152   0.145E-02 0.189E-04
CGA:   9    -0.381281766647E+03   -0.23202E-03   -0.23216E-03  9152   0.586E-03-0.256E-05
CGA:  10    -0.381281828352E+03   -0.61704E-04   -0.61748E-04  9152   0.433E-03 0.850E-06
CGA:  11    -0.381281883396E+03   -0.55044E-04   -0.55044E-04  9152   0.136E-03 0.384E-06
CGA:  12    -0.381281904660E+03   -0.21264E-04   -0.21264E-04  9152   0.107E-03-0.121E-07
CGA:  13    -0.381281918370E+03   -0.13710E-04   -0.13710E-04  9152   0.565E-04 0.127E-06
CGA:  14    -0.381281924535E+03   -0.61655E-05   -0.61674E-05  9152   0.372E-04 0.430E-07
   3 F= -.38128192E+03 E0= -.38127740E+03  d E =-.125675E-01  mag=    58.0000
       N       E                     dE             d eps       ncg     rms          ort
SDA:   1    -0.380954650944E+03    0.32727E+00    0.00000E+00  9152   0.109E+01 0.000E+00
CGA:   2    -0.381145127066E+03   -0.19048E+00   -0.19049E+00  9152   0.562E+00-0.309E-03
CGA:   3    -0.381224922992E+03   -0.79796E-01   -0.79865E-01  9152   0.513E+00-0.376E-02
CGA:   4    -0.381266021001E+03   -0.41098E-01   -0.41630E-01  9152   0.119E+00-0.112E-02
CGA:   5    -0.381283806185E+03   -0.17785E-01   -0.17813E-01  9152   0.346E-01-0.844E-03
CGA:   6    -0.381287984777E+03   -0.41786E-02   -0.41887E-02  9152   0.162E-01 0.501E-03
CGA:   7    -0.381289640077E+03   -0.16553E-02   -0.16469E-02  9152   0.662E-02-0.562E-04
CGA:   8    -0.381290309631E+03   -0.66955E-03   -0.66974E-03  9152   0.311E-02 0.203E-05
CGA:   9    -0.381290727437E+03   -0.41781E-03   -0.41778E-03  9152   0.920E-03 0.347E-05
CGA:  10    -0.381290889992E+03   -0.16255E-03   -0.16253E-03  9152   0.727E-03 0.619E-06
CGA:  11    -0.381290953729E+03   -0.63737E-04   -0.63736E-04  9152   0.295E-03 0.378E-06
CGA:  12    -0.381290999506E+03   -0.45777E-04   -0.45741E-04  9152   0.189E-03 0.971E-06
CGA:  13    -0.381291025331E+03   -0.25825E-04   -0.25830E-04  9152   0.886E-04-0.365E-06
CGA:  14    -0.381291040049E+03   -0.14718E-04   -0.14713E-04  9152   0.904E-04 0.102E-06
CGA:  15    -0.381291048647E+03   -0.85981E-05   -0.85976E-05  9152   0.320E-04 0.187E-08
   4 F= -.38129105E+03 E0= -.38128654E+03  d E =-.912411E-02  mag=    58.0000
       N       E                     dE             d eps       ncg     rms          ort
SDA:   1    -0.381245258434E+03    0.45782E-01    0.00000E+00  9152   0.172E+00 0.000E+00
CGA:   2    -0.381266273137E+03   -0.21015E-01   -0.21014E-01  9152   0.137E+00-0.288E-04
CGA:   3    -0.381279197837E+03   -0.12925E-01   -0.12864E-01  9152   0.571E-01-0.158E-03
CGA:   4    -0.381288173362E+03   -0.89755E-02   -0.89562E-02  9152   0.204E-01 0.489E-03
CGA:   5    -0.381290561749E+03   -0.23884E-02   -0.23776E-02  9152   0.819E-02-0.242E-03
CGA:   6    -0.381291484024E+03   -0.92228E-03   -0.92386E-03  9152   0.298E-02 0.332E-04
CGA:   7    -0.381291742519E+03   -0.25850E-03   -0.25836E-03  9152   0.131E-02-0.842E-06
CGA:   8    -0.381291918380E+03   -0.17586E-03   -0.17587E-03  9152   0.344E-03-0.879E-06
CGA:   9    -0.381291975743E+03   -0.57364E-04   -0.57342E-04  9152   0.262E-03 0.540E-06
CGA:  10    -0.381291998896E+03   -0.23153E-04   -0.23165E-04  9152   0.101E-03 0.188E-06
CGA:  11    -0.381292014159E+03   -0.15263E-04   -0.15264E-04  9152   0.669E-04 0.764E-09
CGA:  12    -0.381292022904E+03   -0.87451E-05   -0.87447E-05  9152   0.290E-04 0.143E-06
   5 F= -.38129202E+03 E0= -.38128752E+03  d E =-.974257E-03  mag=    58.0000
       N       E                     dE             d eps       ncg     rms          ort
SDA:   1    -0.381253878265E+03    0.38136E-01    0.00000E+00  9152   0.130E+00 0.000E+00
CGA:   2    -0.381272637967E+03   -0.18760E-01   -0.18768E-01  9152   0.103E+00-0.376E-03
CGA:   3    -0.381281640817E+03   -0.90028E-02   -0.90523E-02  9152   0.497E-01 0.203E-04
CGA:   4    -0.381289171725E+03   -0.75309E-02   -0.75341E-02  9152   0.127E-01-0.883E-04
CGA:   5    -0.381291046267E+03   -0.18745E-02   -0.18734E-02  9152   0.580E-02 0.425E-04
CGA:   6    -0.381291506361E+03   -0.46009E-03   -0.45737E-03  9152   0.208E-02 0.801E-05
CGA:   7    -0.381291778688E+03   -0.27233E-03   -0.27233E-03  9152   0.725E-03-0.109E-05
CGA:   8    -0.381291862793E+03   -0.84105E-04   -0.84109E-04  9152   0.353E-03 0.199E-06
CGA:   9    -0.381291908572E+03   -0.45779E-04   -0.45779E-04  9152   0.173E-03 0.246E-06
CGA:  10    -0.381291925033E+03   -0.16461E-04   -0.16456E-04  9152   0.875E-04 0.165E-06
CGA:  11    -0.381291939547E+03   -0.14514E-04   -0.14501E-04  9152   0.356E-04 0.320E-06
CGA:  12    -0.381291944881E+03   -0.53344E-05   -0.53357E-05  9152   0.355E-04-0.483E-07
   6 F= -.38129194E+03 E0= -.38128745E+03  d E =0.780230E-04  mag=    58.0000
       N       E                     dE             d eps       ncg     rms          ort
SDA:   1    -0.381253414483E+03    0.38525E-01    0.00000E+00  9152   0.126E+00 0.000E+00
CGA:   2    -0.381268472219E+03   -0.15058E-01   -0.15063E-01  9152   0.142E+00 0.245E-03
CGA:   3    -0.381284651913E+03   -0.16180E-01   -0.16155E-01  9152   0.347E-01-0.632E-03
CGA:   4    -0.381289916859E+03   -0.52649E-02   -0.52579E-02  9152   0.117E-01 0.192E-03
CGA:   5    -0.381291176926E+03   -0.12601E-02   -0.12535E-02  9152   0.425E-02-0.870E-04
CGA:   6    -0.381291625755E+03   -0.44883E-03   -0.44942E-03  9152   0.178E-02 0.837E-05
CGA:   7    -0.381291780850E+03   -0.15510E-03   -0.15506E-03  9152   0.645E-03-0.585E-06
CGA:   8    -0.381291875867E+03   -0.95017E-04   -0.95046E-04  9152   0.194E-03-0.124E-05
CGA:   9    -0.381291904245E+03   -0.28378E-04   -0.28373E-04  9152   0.126E-03 0.171E-06
CGA:  10    -0.381291915694E+03   -0.11449E-04   -0.11457E-04  9152   0.563E-04 0.145E-06
CGA:  11    -0.381291923995E+03   -0.83005E-05   -0.82971E-05  9152   0.307E-04 0.177E-06
   7 F= -.38129192E+03 E0= -.38128743E+03  d E =0.208868E-04  mag=    58.0000
       N       E                     dE             d eps       ncg     rms          ort
SDA:   1    -0.381067602059E+03    0.22431E+00    0.00000E+00  9152   0.641E+00 0.000E+00
CGA:   2    -0.381176585596E+03   -0.10898E+00   -0.10690E+00  9152   0.762E+00 0.353E-01
CGA:   3    -0.381253423577E+03   -0.76838E-01   -0.75889E-01  9152   0.222E+00-0.352E-03
CGA:   4    -0.381278239138E+03   -0.24816E-01   -0.24799E-01  9152   0.832E-01-0.303E-03
CGA:   5    -0.381288201185E+03   -0.99620E-02   -0.99692E-02  9152   0.162E-01 0.439E-03
CGA:   6    -0.381290896092E+03   -0.26949E-02   -0.26989E-02  9152   0.559E-02-0.763E-04
CGA:   7    -0.381291595873E+03   -0.69978E-03   -0.69997E-03  9152   0.207E-02 0.303E-04
CGA:   8    -0.381291922767E+03   -0.32689E-03   -0.32710E-03  9152   0.592E-03-0.521E-05
CGA:   9    -0.381292010189E+03   -0.87422E-04   -0.87407E-04  9152   0.355E-03 0.685E-06
CGA:  10    -0.381292048869E+03   -0.38680E-04   -0.38685E-04  9152   0.203E-03 0.149E-06
CGA:  11    -0.381292069897E+03   -0.21028E-04   -0.21012E-04  9152   0.107E-03-0.724E-07
CGA:  12    -0.381292089549E+03   -0.19652E-04   -0.19626E-04  9152   0.560E-04 0.419E-06
CGA:  13    -0.381292099380E+03   -0.98302E-05   -0.98336E-05  9152   0.396E-04-0.457E-07
   8 F= -.38129210E+03 E0= -.38128759E+03  d E =-.175385E-03  mag=    58.0000
       N       E                     dE             d eps       ncg     rms          ort
SDA:   1    -0.378990130563E+03    0.23020E+01    0.00000E+00  9152   0.630E+01 0.000E+00
CGA:   2    -0.380145614731E+03   -0.11555E+01   -0.11879E+01  9152   0.112E+02-0.567E+00
CGA:   3    -0.380901113626E+03   -0.75550E+00   -0.75800E+00  9152   0.189E+01 0.263E+00
CGA:   4    -0.381125088205E+03   -0.22397E+00   -0.20750E+00  9152   0.163E+01-0.136E+00
CGA:   5    -0.381223135701E+03   -0.98047E-01   -0.10237E+00  9152   0.448E+00-0.302E-01
CGA:   6    -0.381259252830E+03   -0.36117E-01   -0.36912E-01  9152   0.159E+00 0.308E-03
CGA:   7    -0.381278511542E+03   -0.19259E-01   -0.19231E-01  9152   0.778E-01-0.173E-02
CGA:   8    -0.381283519631E+03   -0.50081E-02   -0.50746E-02  9152   0.301E-01-0.458E-03
CGA:   9    -0.381288170235E+03   -0.46506E-02   -0.46485E-02  9152   0.763E-02 0.422E-04
CGA:  10    -0.381289097030E+03   -0.92680E-03   -0.92635E-03  9152   0.756E-02-0.435E-04
CGA:  11    -0.381289751838E+03   -0.65481E-03   -0.65838E-03  9152   0.200E-02 0.975E-05
CGA:  12    -0.381290060388E+03   -0.30855E-03   -0.30800E-03  9152   0.157E-02 0.136E-04
CGA:  13    -0.381290284557E+03   -0.22417E-03   -0.22438E-03  9152   0.971E-03-0.701E-05
CGA:  14    -0.381290394549E+03   -0.10999E-03   -0.11009E-03  9152   0.897E-03 0.336E-05
CGA:  15    -0.381290504896E+03   -0.11035E-03   -0.11035E-03  9152   0.407E-03 0.804E-06
CGA:  16    -0.381290589607E+03   -0.84711E-04   -0.84824E-04  9152   0.244E-03-0.130E-05
CGA:  17    -0.381290618436E+03   -0.28829E-04   -0.28841E-04  9152   0.233E-03 0.432E-06
CGA:  18    -0.381290645157E+03   -0.26721E-04   -0.26727E-04  9152   0.108E-03 0.378E-06
CGA:  19    -0.381290659627E+03   -0.14470E-04   -0.14468E-04  9152   0.651E-04 0.266E-06
CGA:  20    -0.381290671773E+03   -0.12145E-04   -0.12125E-04  9152   0.443E-04 0.335E-06
CGA:  21    -0.381290677651E+03   -0.58784E-05   -0.58782E-05  9152   0.440E-04-0.547E-07
   9 F= -.38129068E+03 E0= -.38128614E+03  d E =0.142173E-02  mag=    58.0000
       N       E                     dE             d eps       ncg     rms          ort
SDA:   1    -0.381164737609E+03    0.12593E+00    0.00000E+00  9152   0.382E+00 0.000E+00
CGA:   2    -0.381234845599E+03   -0.70108E-01   -0.70172E-01  9152   0.327E+00-0.102E-02
CGA:   3    -0.381268447142E+03   -0.33602E-01   -0.33674E-01  9152   0.120E+00 0.593E-03
CGA:   4    -0.381282243452E+03   -0.13796E-01   -0.13835E-01  9152   0.660E-01 0.879E-03
CGA:   5    -0.381287937873E+03   -0.56944E-02   -0.55712E-02  9152   0.137E-01 0.162E-03
CGA:   6    -0.381289978711E+03   -0.20408E-02   -0.20397E-02  9152   0.433E-02 0.374E-04
CGA:   7    -0.381290451278E+03   -0.47257E-03   -0.47224E-03  9152   0.292E-02-0.626E-05
CGA:   8    -0.381290734394E+03   -0.28312E-03   -0.28312E-03  9152   0.822E-03-0.199E-05
CGA:   9    -0.381290874135E+03   -0.13974E-03   -0.13976E-03  9152   0.389E-03-0.433E-06
CGA:  10    -0.381290918739E+03   -0.44604E-04   -0.44614E-04  9152   0.335E-03 0.578E-06
CGA:  11    -0.381290962330E+03   -0.43591E-04   -0.43589E-04  9152   0.143E-03 0.105E-05
CGA:  12    -0.381290991333E+03   -0.29003E-04   -0.28950E-04  9152   0.163E-03 0.697E-06
CGA:  13    -0.381291010558E+03   -0.19224E-04   -0.19218E-04  9152   0.926E-04-0.191E-06
CGA:  14    -0.381291024296E+03   -0.13739E-04   -0.13743E-04  9152   0.823E-04-0.272E-06
CGA:  15    -0.381291033991E+03   -0.96950E-05   -0.96931E-05  9152   0.324E-04-0.126E-06
  10 F= -.38129103E+03 E0= -.38128649E+03  d E =-.356340E-03  mag=    58.0000
       N       E                     dE             d eps       ncg     rms          ort
SDA:   1    -0.381258640900E+03    0.32383E-01    0.00000E+00  9152   0.101E+00 0.000E+00
CGA:   2    -0.381276420341E+03   -0.17779E-01   -0.17787E-01  9152   0.794E-01-0.146E-03
CGA:   3    -0.381285401998E+03   -0.89817E-02   -0.89978E-02  9152   0.307E-01 0.230E-03
CGA:   4    -0.381289255100E+03   -0.38531E-02   -0.38534E-02  9152   0.160E-01 0.165E-04
CGA:   5    -0.381290474613E+03   -0.12195E-02   -0.12045E-02  9152   0.409E-02 0.743E-04
CGA:   6    -0.381291069775E+03   -0.59516E-03   -0.59502E-03  9152   0.951E-03 0.642E-05
CGA:   7    -0.381291208314E+03   -0.13854E-03   -0.13860E-03  9152   0.684E-03-0.270E-05
CGA:   8    -0.381291264550E+03   -0.56235E-04   -0.56251E-04  9152   0.229E-03-0.654E-06
CGA:   9    -0.381291297901E+03   -0.33351E-04   -0.33356E-04  9152   0.110E-03-0.340E-06
CGA:  10    -0.381291312263E+03   -0.14362E-04   -0.14362E-04  9152   0.644E-04 0.332E-07
CGA:  11    -0.381291321101E+03   -0.88380E-05   -0.88358E-05  9152   0.455E-04 0.343E-06
  11 F= -.38129132E+03 E0= -.38128677E+03  d E =-.287110E-03  mag=    58.0000
       N       E                     dE             d eps       ncg     rms          ort
SDA:   1    -0.378258450731E+03    0.30329E+01    0.00000E+00  9152   0.903E+01 0.000E+00
CGA:   2    -0.380086115110E+03   -0.18277E+01   -0.18172E+01  9152   0.476E+01 0.107E+00
CGA:   3    -0.380851011431E+03   -0.76490E+00   -0.78453E+00  9152   0.357E+01-0.469E+00
CGA:   4    -0.381090793695E+03   -0.23978E+00   -0.25305E+00  9152   0.109E+01 0.114E-01
CGA:   5    -0.381200300697E+03   -0.10951E+00   -0.10936E+00  9152   0.436E+00-0.760E-03
CGA:   6    -0.381244314711E+03   -0.44014E-01   -0.44016E-01  9152   0.112E+00 0.240E-03
CGA:   7    -0.381262034287E+03   -0.17720E-01   -0.17713E-01  9152   0.537E-01 0.165E-03
CGA:   8    -0.381266429706E+03   -0.43954E-02   -0.44532E-02  9152   0.281E-01-0.780E-04
CGA:   9    -0.381270339578E+03   -0.39099E-02   -0.39100E-02  9152   0.783E-02-0.266E-05
CGA:  10    -0.381271707551E+03   -0.13680E-02   -0.13668E-02  9152   0.706E-02 0.202E-04
CGA:  11    -0.381272328859E+03   -0.62131E-03   -0.62067E-03  9152   0.319E-02 0.145E-05
CGA:  12    -0.381272917306E+03   -0.58845E-03   -0.58820E-03  9152   0.186E-02 0.404E-05
CGA:  13    -0.381273225611E+03   -0.30831E-03   -0.30813E-03  9152   0.207E-02 0.422E-05
CGA:  14    -0.381273433468E+03   -0.20786E-03   -0.20802E-03  9152   0.870E-03 0.189E-05
CGA:  15    -0.381273604699E+03   -0.17123E-03   -0.17123E-03  9152   0.663E-03 0.152E-06
CGA:  16    -0.381273674449E+03   -0.69750E-04   -0.69870E-04  9152   0.374E-03 0.123E-05
CGA:  17    -0.381273732126E+03   -0.57678E-04   -0.57678E-04  9152   0.284E-03 0.493E-07
CGA:  18    -0.381273762184E+03   -0.30058E-04   -0.30055E-04  9152   0.130E-03-0.123E-06
CGA:  19    -0.381273787524E+03   -0.25340E-04   -0.25356E-04  9152   0.100E-03-0.267E-06
CGA:  20    -0.381273797902E+03   -0.10378E-04   -0.10376E-04  9152   0.666E-04-0.153E-06
CGA:  21    -0.381273808375E+03   -0.10473E-04   -0.10478E-04  9152   0.317E-04-0.201E-06
CGA:  22    -0.381273813646E+03   -0.52705E-05   -0.52722E-05  9152   0.310E-04-0.662E-07
  12 F= -.38127381E+03 E0= -.38126916E+03  d E =0.175075E-01  mag=    58.0000
       N       E                     dE             d eps       ncg     rms          ort
SDA:   1    -0.381068423480E+03    0.20538E+00    0.00000E+00  9152   0.711E+00 0.000E+00
CGA:   2    -0.381195317544E+03   -0.12689E+00   -0.12690E+00  9152   0.314E+00-0.113E-03
CGA:   3    -0.381256924740E+03   -0.61607E-01   -0.61566E-01  9152   0.134E+00 0.560E-03
CGA:   4    -0.381275178433E+03   -0.18254E-01   -0.18238E-01  9152   0.593E-01-0.147E-02
CGA:   5    -0.381280952558E+03   -0.57741E-02   -0.58605E-02  9152   0.203E-01 0.215E-03
CGA:   6    -0.381282915689E+03   -0.19631E-02   -0.19599E-02  9152   0.106E-01-0.729E-05
CGA:   7    -0.381283949960E+03   -0.10343E-02   -0.10343E-02  9152   0.287E-02-0.218E-05
CGA:   8    -0.381284473007E+03   -0.52305E-03   -0.52293E-03  9152   0.106E-02 0.227E-05
CGA:   9    -0.381284622345E+03   -0.14934E-03   -0.14934E-03  9152   0.844E-03 0.905E-06
CGA:  10    -0.381284714202E+03   -0.91858E-04   -0.91879E-04  9152   0.432E-03 0.928E-06
CGA:  11    -0.381284762135E+03   -0.47933E-04   -0.47990E-04  9152   0.257E-03 0.901E-06
CGA:  12    -0.381284809817E+03   -0.47682E-04   -0.47709E-04  9152   0.120E-03-0.412E-06
CGA:  13    -0.381284832763E+03   -0.22946E-04   -0.22926E-04  9152   0.140E-03 0.319E-06
CGA:  14    -0.381284847141E+03   -0.14378E-04   -0.14374E-04  9152   0.683E-04 0.106E-07
CGA:  15    -0.381284855765E+03   -0.86241E-05   -0.86231E-05  9152   0.456E-04-0.101E-06
  13 F= -.38128486E+03 E0= -.38128022E+03  d E =-.110421E-01  mag=    58.0000
       N       E                     dE             d eps       ncg     rms          ort
SDA:   1    -0.381282455828E+03    0.23913E-02    0.00000E+00  9152   0.128E-01 0.000E+00
CGA:   2    -0.381283916876E+03   -0.14610E-02   -0.14610E-02  9152   0.102E-01-0.282E-05
CGA:   3    -0.381284897175E+03   -0.98030E-03   -0.98072E-03  9152   0.392E-02-0.116E-05
CGA:   4    -0.381285413342E+03   -0.51617E-03   -0.51608E-03  9152   0.202E-02-0.110E-04
CGA:   5    -0.381285638575E+03   -0.22523E-03   -0.22557E-03  9152   0.523E-03 0.588E-05
CGA:   6    -0.381285713749E+03   -0.75174E-04   -0.75182E-04  9152   0.208E-03-0.576E-06
CGA:   7    -0.381285730771E+03   -0.17023E-04   -0.17013E-04  9152   0.100E-03-0.420E-06
CGA:   8    -0.381285743436E+03   -0.12665E-04   -0.12663E-04  9152   0.355E-04-0.429E-06
CGA:   9    -0.381285749260E+03   -0.58242E-05   -0.58227E-05  9152   0.219E-04 0.500E-07
  14 F= -.38128575E+03 E0= -.38128112E+03  d E =-.893495E-03  mag=    58.0000
       N       E                     dE             d eps       ncg     rms          ort
SDA:   1    -0.381149840357E+03    0.13590E+00    0.00000E+00  9152   0.457E+00 0.000E+00
CGA:   2    -0.381230459762E+03   -0.80619E-01   -0.80684E-01  9152   0.242E+00-0.111E-02
CGA:   3    -0.381261129845E+03   -0.30670E-01   -0.30750E-01  9152   0.197E+00 0.470E-02
CGA:   4    -0.381278843987E+03   -0.17714E-01   -0.17555E-01  9152   0.533E-01 0.179E-03
CGA:   5    -0.381286008196E+03   -0.71642E-02   -0.71640E-02  9152   0.201E-01 0.654E-04
CGA:   6    -0.381288070929E+03   -0.20627E-02   -0.20638E-02  9152   0.679E-02 0.744E-05
CGA:   7    -0.381288898144E+03   -0.82722E-03   -0.82723E-03  9152   0.368E-02-0.140E-05
CGA:   8    -0.381289213058E+03   -0.31491E-03   -0.31343E-03  9152   0.135E-02-0.643E-07
CGA:   9    -0.381289433746E+03   -0.22069E-03   -0.22052E-03  9152   0.522E-03 0.360E-05
CGA:  10    -0.381289505498E+03   -0.71752E-04   -0.71760E-04  9152   0.468E-03-0.203E-06
CGA:  11    -0.381289557275E+03   -0.51778E-04   -0.51803E-04  9152   0.225E-03 0.878E-06
CGA:  12    -0.381289589395E+03   -0.32119E-04   -0.32115E-04  9152   0.163E-03 0.287E-06
CGA:  13    -0.381289615403E+03   -0.26008E-04   -0.26013E-04  9152   0.102E-03-0.129E-06
CGA:  14    -0.381289629497E+03   -0.14093E-04   -0.14093E-04  9152   0.946E-04-0.156E-08
CGA:  15    -0.381289640202E+03   -0.10705E-04   -0.10707E-04  9152   0.439E-04 0.463E-07
CGA:  16    -0.381289647695E+03   -0.74933E-05   -0.74961E-05  9152   0.255E-04-0.603E-07
  15 F= -.38128965E+03 E0= -.38128504E+03  d E =-.389843E-02  mag=    58.0000
       N       E                     dE             d eps       ncg     rms          ort
SDA:   1    -0.381279115959E+03    0.10524E-01    0.00000E+00  9152   0.475E-01 0.000E+00
CGA:   2    -0.381283350405E+03   -0.42344E-02   -0.42599E-02  9152   0.361E-01 0.856E-05
CGA:   3    -0.381287609526E+03   -0.42591E-02   -0.42570E-02  9152   0.949E-02-0.686E-04
CGA:   4    -0.381289421335E+03   -0.18118E-02   -0.18114E-02  9152   0.339E-02 0.669E-05
CGA:   5    -0.381289838416E+03   -0.41708E-03   -0.41707E-03  9152   0.194E-02 0.287E-06
CGA:   6    -0.381289978905E+03   -0.14049E-03   -0.14072E-03  9152   0.465E-03-0.171E-05
CGA:   7    -0.381290053869E+03   -0.74964E-04   -0.75012E-04  9152   0.159E-03-0.148E-05
CGA:   8    -0.381290077892E+03   -0.24023E-04   -0.24025E-04  9152   0.141E-03-0.151E-06
CGA:   9    -0.381290089917E+03   -0.12026E-04   -0.12027E-04  9152   0.530E-04 0.126E-06
CGA:  10    -0.381290101691E+03   -0.11774E-04   -0.11735E-04  9152   0.355E-04 0.428E-06
CGA:  11    -0.381290107495E+03   -0.58035E-05   -0.57994E-05  9152   0.450E-04 0.134E-06
  16 F= -.38129011E+03 E0= -.38128551E+03  d E =-.459800E-03  mag=    58.0000
       N       E                     dE             d eps       ncg     rms          ort
SDA:   1    -0.380994940565E+03    0.29516E+00    0.00000E+00  9152   0.915E+00 0.000E+00
CGA:   2    -0.381165618157E+03   -0.17068E+00   -0.17070E+00  9152   0.697E+00-0.321E-03
CGA:   3    -0.381223905430E+03   -0.58287E-01   -0.57231E-01  9152   0.357E+00 0.241E-02
CGA:   4    -0.381269992393E+03   -0.46087E-01   -0.46115E-01  9152   0.932E-01 0.221E-02
CGA:   5    -0.381283037580E+03   -0.13045E-01   -0.13054E-01  9152   0.363E-01-0.895E-03
CGA:   6    -0.381286420840E+03   -0.33833E-02   -0.34304E-02  9152   0.133E-01 0.110E-03
CGA:   7    -0.381287897336E+03   -0.14765E-02   -0.14755E-02  9152   0.735E-02-0.176E-04
CGA:   8    -0.381288593534E+03   -0.69620E-03   -0.69639E-03  9152   0.254E-02-0.210E-05
CGA:   9    -0.381289024779E+03   -0.43124E-03   -0.43108E-03  9152   0.109E-02 0.333E-05
CGA:  10    -0.381289196658E+03   -0.17188E-03   -0.17185E-03  9152   0.114E-02 0.134E-05
CGA:  11    -0.381289310826E+03   -0.11417E-03   -0.11415E-03  9152   0.574E-03 0.101E-05
CGA:  12    -0.381289422473E+03   -0.11165E-03   -0.11152E-03  9152   0.442E-03 0.181E-05
CGA:  13    -0.381289485694E+03   -0.63221E-04   -0.63239E-04  9152   0.330E-03-0.122E-05
CGA:  14    -0.381289535611E+03   -0.49917E-04   -0.49907E-04  9152   0.239E-03 0.377E-06
CGA:  15    -0.381289558231E+03   -0.22620E-04   -0.22621E-04  9152   0.121E-03 0.599E-07
CGA:  16    -0.381289579841E+03   -0.21609E-04   -0.21612E-04  9152   0.517E-04-0.506E-07
CGA:  17    -0.381289587915E+03   -0.80741E-05   -0.80741E-05  9152   0.503E-04-0.277E-08
  17 F= -.38128959E+03 E0= -.38128502E+03  d E =0.519580E-03  mag=    58.0000
       N       E                     dE             d eps       ncg     rms          ort
SDA:   1    -0.380507316041E+03    0.78226E+00    0.00000E+00  9152   0.205E+01 0.000E+00
CGA:   2    -0.381022255432E+03   -0.51494E+00   -0.51371E+00  9152   0.195E+01 0.104E-01
CGA:   3    -0.381159361078E+03   -0.13711E+00   -0.13090E+00  9152   0.617E+00 0.397E-01
CGA:   4    -0.381258544934E+03   -0.99184E-01   -0.99058E-01  9152   0.137E+00 0.396E-02
CGA:   5    -0.381276009172E+03   -0.17464E-01   -0.17422E-01  9152   0.565E-01-0.140E-02
CGA:   6    -0.381282043590E+03   -0.60344E-02   -0.60817E-02  9152   0.186E-01 0.386E-03
CGA:   7    -0.381284467660E+03   -0.24241E-02   -0.24232E-02  9152   0.114E-01-0.619E-04
CGA:   8    -0.381285348942E+03   -0.88128E-03   -0.88277E-03  9152   0.357E-02-0.102E-04
CGA:   9    -0.381285953811E+03   -0.60487E-03   -0.60461E-03  9152   0.140E-02 0.558E-05
CGA:  10    -0.381286225621E+03   -0.27181E-03   -0.27182E-03  9152   0.118E-02 0.321E-06
CGA:  11    -0.381286371231E+03   -0.14561E-03   -0.14563E-03  9152   0.104E-02 0.141E-05
CGA:  12    -0.381286514335E+03   -0.14310E-03   -0.14310E-03  9152   0.724E-03 0.164E-05
CGA:  13    -0.381286612351E+03   -0.98016E-04   -0.98008E-04  9152   0.482E-03-0.211E-05
CGA:  14    -0.381286700691E+03   -0.88340E-04   -0.88303E-04  9152   0.210E-03 0.609E-06
CGA:  15    -0.381286733006E+03   -0.32315E-04   -0.32316E-04  9152   0.231E-03 0.841E-07
CGA:  16    -0.381286754292E+03   -0.21286E-04   -0.21300E-04  9152   0.686E-04 0.202E-06
CGA:  17    -0.381286766952E+03   -0.12660E-04   -0.12661E-04  9152   0.509E-04-0.140E-07
CGA:  18    -0.381286773860E+03   -0.69071E-05   -0.69063E-05  9152   0.308E-04-0.191E-06
  18 F= -.38128677E+03 E0= -.38128222E+03  d E =0.281406E-02  mag=    58.0000
       N       E                     dE             d eps       ncg     rms          ort
SDA:   1    -0.379249262338E+03    0.20375E+01    0.00000E+00  9152   0.510E+01 0.000E+00
CGA:   2    -0.380727327075E+03   -0.14781E+01   -0.14785E+01  9152   0.278E+01-0.272E-02
CGA:   3    -0.381116288512E+03   -0.38896E+00   -0.38986E+00  9152   0.996E+00 0.564E-01
CGA:   4    -0.381228816332E+03   -0.11253E+00   -0.10903E+00  9152   0.277E+00-0.847E-02
CGA:   5    -0.381267739874E+03   -0.38924E-01   -0.38942E-01  9152   0.674E-01 0.236E-02
CGA:   6    -0.381278081276E+03   -0.10341E-01   -0.10353E-01  9152   0.450E-01-0.870E-03
CGA:   7    -0.381281375484E+03   -0.32942E-02   -0.33487E-02  9152   0.144E-01-0.337E-03
CGA:   8    -0.381283209910E+03   -0.18344E-02   -0.18343E-02  9152   0.654E-02-0.476E-05
CGA:   9    -0.381283943267E+03   -0.73336E-03   -0.73305E-03  9152   0.222E-02-0.216E-05
CGA:  10    -0.381284381655E+03   -0.43839E-03   -0.43807E-03  9152   0.151E-02 0.513E-05
CGA:  11    -0.381284528831E+03   -0.14718E-03   -0.14732E-03  9152   0.105E-02 0.935E-06
CGA:  12    -0.381284694720E+03   -0.16589E-03   -0.16595E-03  9152   0.705E-03-0.199E-05
CGA:  13    -0.381284787092E+03   -0.92372E-04   -0.92405E-04  9152   0.374E-03 0.132E-05
CGA:  14    -0.381284858009E+03   -0.70917E-04   -0.70958E-04  9152   0.269E-03-0.653E-06
CGA:  15    -0.381284885625E+03   -0.27616E-04   -0.27645E-04  9152   0.172E-03 0.320E-06
CGA:  16    -0.381284906350E+03   -0.20725E-04   -0.20735E-04  9152   0.900E-04 0.465E-06
CGA:  17    -0.381284921009E+03   -0.14659E-04   -0.14657E-04  9152   0.512E-04 0.811E-07
CGA:  18    -0.381284928895E+03   -0.78869E-05   -0.78884E-05  9152   0.418E-04-0.111E-06
  19 F= -.38128493E+03 E0= -.38128034E+03  d E =0.184496E-02  mag=    58.0000
       N       E                     dE             d eps       ncg     rms          ort
SDA:   1    -0.375022289076E+03    0.62626E+01    0.00000E+00  9152   0.168E+02 0.000E+00
CGA:   2    -0.378812285244E+03   -0.37900E+01   -0.37531E+01  9152   0.178E+02 0.415E+00
CGA:   3    -0.380201550123E+03   -0.13893E+01   -0.12964E+01  9152   0.529E+01 0.136E+00
CGA:   4    -0.381008709399E+03   -0.80716E+00   -0.80690E+00  9152   0.117E+01 0.158E-01
CGA:   5    -0.381188690002E+03   -0.17998E+00   -0.18007E+00  9152   0.511E+00-0.505E-02
CGA:   6    -0.381223363683E+03   -0.34674E-01   -0.36867E-01  9152   0.225E+00-0.125E-01
CGA:   7    -0.381251972801E+03   -0.28609E-01   -0.28599E-01  9152   0.543E-01-0.429E-03
CGA:   8    -0.381259828400E+03   -0.78556E-02   -0.78530E-02  9152   0.424E-01 0.255E-03
CGA:   9    -0.381263160547E+03   -0.33321E-02   -0.33213E-02  9152   0.121E-01 0.527E-04
CGA:  10    -0.381265325385E+03   -0.21648E-02   -0.21609E-02  9152   0.755E-02 0.680E-04
CGA:  11    -0.381266183602E+03   -0.85822E-03   -0.85670E-03  9152   0.596E-02-0.129E-04
CGA:  12    -0.381266978170E+03   -0.79457E-03   -0.79477E-03  9152   0.321E-02 0.268E-04
CGA:  13    -0.381267472070E+03   -0.49390E-03   -0.49373E-03  9152   0.289E-02 0.735E-05
CGA:  14    -0.381267821984E+03   -0.34991E-03   -0.34999E-03  9152   0.142E-02 0.210E-05
CGA:  15    -0.381268019604E+03   -0.19762E-03   -0.19763E-03  9152   0.126E-02-0.158E-05
CGA:  16    -0.381268154514E+03   -0.13491E-03   -0.13509E-03  9152   0.425E-03 0.147E-05
CGA:  17    -0.381268237060E+03   -0.82546E-04   -0.82517E-04  9152   0.411E-03 0.533E-06
CGA:  18    -0.381268274203E+03   -0.37143E-04   -0.37174E-04  9152   0.199E-03 0.166E-06
CGA:  19    -0.381268313608E+03   -0.39405E-04   -0.39411E-04  9152   0.130E-03-0.104E-06
CGA:  20    -0.381268331055E+03   -0.17447E-04   -0.17445E-04  9152   0.129E-03-0.448E-06
CGA:  21    -0.381268346614E+03   -0.15559E-04   -0.15548E-04  9152   0.524E-04-0.569E-06
CGA:  22    -0.381268356253E+03   -0.96392E-05   -0.96515E-05  9152   0.502E-04-0.282E-06
  20 F= -.38126836E+03 E0= -.38126366E+03  d E =0.165726E-01  mag=    58.0000
       N       E                     dE             d eps       ncg     rms          ort
SDA:   1    -0.381087727135E+03    0.18062E+00    0.00000E+00  9152   0.614E+00 0.000E+00
CGA:   2    -0.381186773879E+03   -0.99047E-01   -0.99138E-01  9152   0.559E+00-0.250E-02
CGA:   3    -0.381229775188E+03   -0.43001E-01   -0.44260E-01  9152   0.235E+00-0.515E-02
CGA:   4    -0.381263917595E+03   -0.34142E-01   -0.34154E-01  9152   0.585E-01-0.621E-03
CGA:   5    -0.381272669654E+03   -0.87521E-02   -0.87477E-02  9152   0.305E-01 0.200E-03
CGA:   6    -0.381274853558E+03   -0.21839E-02   -0.21595E-02  9152   0.926E-02 0.169E-03
CGA:   7    -0.381276232995E+03   -0.13794E-02   -0.13793E-02  9152   0.281E-02 0.486E-05
CGA:   8    -0.381276576496E+03   -0.34350E-03   -0.34354E-03  9152   0.213E-02 0.221E-05
CGA:   9    -0.381276797871E+03   -0.22138E-03   -0.22148E-03  9152   0.716E-03 0.188E-05
CGA:  10    -0.381276883911E+03   -0.86040E-04   -0.86006E-04  9152   0.523E-03-0.767E-06
CGA:  11    -0.381276957345E+03   -0.73435E-04   -0.73426E-04  9152   0.196E-03 0.630E-06
CGA:  12    -0.381276985440E+03   -0.28094E-04   -0.28098E-04  9152   0.237E-03-0.295E-06
CGA:  13    -0.381277013692E+03   -0.28252E-04   -0.28251E-04  9152   0.745E-04-0.178E-06
CGA:  14    -0.381277029826E+03   -0.16134E-04   -0.16075E-04  9152   0.936E-04 0.700E-06
CGA:  15    -0.381277038272E+03   -0.84466E-05   -0.84657E-05  9152   0.331E-04 0.373E-06
  21 F= -.38127704E+03 E0= -.38127235E+03  d E =-.868202E-02  mag=    58.0000
       N       E                     dE             d eps       ncg     rms          ort
SDA:   1    -0.381271508854E+03    0.55210E-02    0.00000E+00  9152   0.359E-01 0.000E+00
CGA:   2    -0.381273987000E+03   -0.24781E-02   -0.24099E-02  9152   0.166E-01 0.517E-03
CGA:   3    -0.381276483876E+03   -0.24969E-02   -0.24965E-02  9152   0.800E-02 0.122E-04
CGA:   4    -0.381277415122E+03   -0.93125E-03   -0.93136E-03  9152   0.379E-02 0.253E-05
CGA:   5    -0.381277906473E+03   -0.49135E-03   -0.49134E-03  9152   0.838E-03-0.213E-05
CGA:   6    -0.381278047871E+03   -0.14140E-03   -0.14138E-03  9152   0.238E-03 0.475E-06
CGA:   7    -0.381278075659E+03   -0.27789E-04   -0.27790E-04  9152   0.165E-03 0.166E-06
CGA:   8    -0.381278090923E+03   -0.15264E-04   -0.15272E-04  9152   0.642E-04 0.246E-06
CGA:   9    -0.381278098824E+03   -0.79005E-05   -0.79021E-05  9152   0.357E-04 0.153E-06
  22 F= -.38127810E+03 E0= -.38127342E+03  d E =-.106055E-02  mag=    58.0000
       N       E                     dE             d eps       ncg     rms          ort
SDA:   1    -0.380660571254E+03    0.61752E+00    0.00000E+00  9152   0.196E+01 0.000E+00
CGA:   2    -0.381004087691E+03   -0.34352E+00   -0.34395E+00  9152   0.160E+01-0.707E-02
CGA:   3    -0.381131378760E+03   -0.12729E+00   -0.13309E+00  9152   0.842E+00-0.461E-02
CGA:   4    -0.381236844512E+03   -0.10547E+00   -0.10542E+00  9152   0.211E+00-0.376E-02
CGA:   5    -0.381265599240E+03   -0.28755E-01   -0.28756E-01  9152   0.108E+00-0.135E-03
CGA:   6    -0.381274210746E+03   -0.86115E-02   -0.86080E-02  9152   0.335E-01 0.380E-05
CGA:   7    -0.381278116755E+03   -0.39060E-02   -0.39114E-02  9152   0.158E-01 0.187E-03
CGA:   8    -0.381279728495E+03   -0.16117E-02   -0.16044E-02  9152   0.555E-02-0.585E-04
CGA:   9    -0.381280560317E+03   -0.83182E-03   -0.83129E-03  9152   0.349E-02 0.161E-04
CGA:  10    -0.381280855069E+03   -0.29475E-03   -0.29472E-03  9152   0.151E-02 0.178E-05
CGA:  11    -0.381281114473E+03   -0.25940E-03   -0.25932E-03  9152   0.760E-03 0.160E-05
CGA:  12    -0.381281212967E+03   -0.98494E-04   -0.98494E-04  9152   0.681E-03 0.126E-06
CGA:  13    -0.381281293846E+03   -0.80879E-04   -0.80885E-04  9152   0.346E-03 0.970E-07
CGA:  14    -0.381281347078E+03   -0.53231E-04   -0.53236E-04  9152   0.275E-03 0.486E-07
CGA:  15    -0.381281381734E+03   -0.34656E-04   -0.34661E-04  9152   0.157E-03 0.129E-05
CGA:  16    -0.381281402519E+03   -0.20785E-04   -0.20783E-04  9152   0.125E-03 0.786E-06
CGA:  17    -0.381281416445E+03   -0.13926E-04   -0.13933E-04  9152   0.528E-04 0.398E-06
CGA:  18    -0.381281426449E+03   -0.10004E-04   -0.99962E-05  9152   0.446E-04 0.134E-06
CGA:  19    -0.381281430727E+03   -0.42780E-05   -0.42784E-05  9152   0.255E-04-0.190E-08
  23 F= -.38128143E+03 E0= -.38127678E+03  d E =-.333190E-02  mag=    58.0000
       N       E                     dE             d eps       ncg     rms          ort
SDA:   1    -0.381235447355E+03    0.45979E-01    0.00000E+00  9152   0.151E+00 0.000E+00
CGA:   2    -0.381261336616E+03   -0.25889E-01   -0.25918E-01  9152   0.968E-01-0.534E-03
CGA:   3    -0.381271312927E+03   -0.99763E-02   -0.10060E-01  9152   0.703E-01 0.626E-03
CGA:   4    -0.381278563694E+03   -0.72508E-02   -0.72387E-02  9152   0.190E-01-0.779E-04
CGA:   5    -0.381280833201E+03   -0.22695E-02   -0.22696E-02  9152   0.826E-02 0.215E-05
CGA:   6    -0.381281707170E+03   -0.87397E-03   -0.87420E-03  9152   0.229E-02 0.216E-05
CGA:   7    -0.381281970603E+03   -0.26343E-03   -0.26347E-03  9152   0.152E-02 0.401E-06
CGA:   8    -0.381282102225E+03   -0.13162E-03   -0.13137E-03  9152   0.382E-03-0.573E-06
CGA:   9    -0.381282170270E+03   -0.68045E-04   -0.68032E-04  9152   0.195E-03 0.164E-06
CGA:  10    -0.381282189045E+03   -0.18775E-04   -0.18762E-04  9152   0.105E-03-0.310E-07
CGA:  11    -0.381282202498E+03   -0.13454E-04   -0.13453E-04  9152   0.606E-04 0.185E-06
CGA:  12    -0.381282208810E+03   -0.63115E-05   -0.63170E-05  9152   0.228E-04 0.239E-06
  24 F= -.38128221E+03 E0= -.38127755E+03  d E =-.778082E-03  mag=    58.0000
       N       E                     dE             d eps       ncg     rms          ort
SDA:   1    -0.381269993469E+03    0.12209E-01    0.00000E+00  9152   0.383E-01 0.000E+00
CGA:   2    -0.381276292892E+03   -0.62994E-02   -0.62948E-02  9152   0.454E-01 0.924E-04
CGA:   3    -0.381279862728E+03   -0.35698E-02   -0.35609E-02  9152   0.118E-01 0.255E-04
CGA:   4    -0.381281588190E+03   -0.17255E-02   -0.17242E-02  9152   0.545E-02 0.443E-04
CGA:   5    -0.381282132640E+03   -0.54445E-03   -0.54326E-03  9152   0.150E-02-0.732E-05
CGA:   6    -0.381282336671E+03   -0.20403E-03   -0.20400E-03  9152   0.492E-03 0.259E-05
CGA:   7    -0.381282378091E+03   -0.41420E-04   -0.41397E-04  9152   0.279E-03 0.166E-06
CGA:   8    -0.381282412712E+03   -0.34621E-04   -0.34621E-04  9152   0.722E-04 0.342E-07
CGA:   9    -0.381282423802E+03   -0.11090E-04   -0.11081E-04  9152   0.476E-04 0.317E-06
CGA:  10    -0.381282429157E+03   -0.53549E-05   -0.53569E-05  9152   0.243E-04 0.137E-06
  25 F= -.38128243E+03 E0= -.38127778E+03  d E =-.220348E-03  mag=    58.0000
       N       E                     dE             d eps       ncg     rms          ort
SDA:   1    -0.381048095924E+03    0.23433E+00    0.00000E+00  9152   0.777E+00 0.000E+00
CGA:   2    -0.381132598800E+03   -0.84503E-01   -0.83716E-01  9152   0.953E+00-0.151E-01
CGA:   3    -0.381240592437E+03   -0.10799E+00   -0.10813E+00  9152   0.194E+00 0.594E-02
CGA:   4    -0.381271383970E+03   -0.30792E-01   -0.30771E-01  9152   0.774E-01 0.417E-03
CGA:   5    -0.381278410361E+03   -0.70264E-02   -0.69252E-02  9152   0.333E-01-0.220E-03
CGA:   6    -0.381281497606E+03   -0.30872E-02   -0.30925E-02  9152   0.128E-01 0.293E-04
CGA:   7    -0.381282646310E+03   -0.11487E-02   -0.11488E-02  9152   0.400E-02 0.215E-05
CGA:   8    -0.381283286177E+03   -0.63987E-03   -0.64007E-03  9152   0.113E-02-0.406E-05
CGA:   9    -0.381283484596E+03   -0.19842E-03   -0.19835E-03  9152   0.424E-03 0.115E-05
CGA:  10    -0.381283550522E+03   -0.65926E-04   -0.65923E-04  9152   0.253E-03 0.265E-06
CGA:  11    -0.381283584997E+03   -0.34474E-04   -0.34468E-04  9152   0.136E-03 0.623E-06
CGA:  12    -0.381283609432E+03   -0.24436E-04   -0.24442E-04  9152   0.140E-03-0.143E-06
CGA:  13    -0.381283621155E+03   -0.11723E-04   -0.11718E-04  9152   0.698E-04-0.235E-07
CGA:  14    -0.381283636063E+03   -0.14907E-04   -0.14888E-04  9152   0.350E-04 0.220E-06
CGA:  15    -0.381283641774E+03   -0.57113E-05   -0.57059E-05  9152   0.264E-04 0.187E-06
  26 F= -.38128364E+03 E0= -.38127901E+03  d E =-.121262E-02  mag=    58.0000
       N       E                     dE             d eps       ncg     rms          ort
SDA:   1    -0.380517928477E+03    0.76571E+00    0.00000E+00  9152   0.197E+01 0.000E+00
CGA:   2    -0.381053068097E+03   -0.53514E+00   -0.53322E+00  9152   0.130E+01 0.138E-01
CGA:   3    -0.381182503611E+03   -0.12944E+00   -0.12932E+00  9152   0.784E+00-0.961E-03
CGA:   4    -0.381253186847E+03   -0.70683E-01   -0.69310E-01  9152   0.166E+00 0.169E-02
CGA:   5    -0.381274182861E+03   -0.20996E-01   -0.21046E-01  9152   0.663E-01 0.219E-02
CGA:   6    -0.381281058978E+03   -0.68761E-02   -0.67901E-02  9152   0.211E-01-0.365E-03
CGA:   7    -0.381283684031E+03   -0.26251E-02   -0.26264E-02  9152   0.139E-01 0.674E-04
CGA:   8    -0.381284772717E+03   -0.10887E-02   -0.10873E-02  9152   0.345E-02 0.798E-05
CGA:   9    -0.381285364828E+03   -0.59211E-03   -0.59208E-03  9152   0.142E-02 0.890E-06
CGA:  10    -0.381285512522E+03   -0.14769E-03   -0.14775E-03  9152   0.963E-03 0.100E-05
CGA:  11    -0.381285635847E+03   -0.12332E-03   -0.12334E-03  9152   0.579E-03 0.174E-05
CGA:  12    -0.381285701394E+03   -0.65547E-04   -0.65504E-04  9152   0.299E-03-0.590E-06
CGA:  13    -0.381285761526E+03   -0.60132E-04   -0.60090E-04  9152   0.252E-03 0.547E-06
CGA:  14    -0.381285786245E+03   -0.24720E-04   -0.24720E-04  9152   0.167E-03 0.179E-06
CGA:  15    -0.381285810951E+03   -0.24706E-04   -0.24699E-04  9152   0.929E-04 0.350E-06
CGA:  16    -0.381285823640E+03   -0.12689E-04   -0.12688E-04  9152   0.552E-04 0.376E-06
CGA:  17    -0.381285830723E+03   -0.70833E-05   -0.70846E-05  9152   0.392E-04 0.198E-06
  27 F= -.38128583E+03 E0= -.38128120E+03  d E =-.218895E-02  mag=    58.0000
       N       E                     dE             d eps       ncg     rms          ort
SDA:   1    -0.380928808363E+03    0.35702E+00    0.00000E+00  9152   0.890E+00 0.000E+00
CGA:   2    -0.381184851120E+03   -0.25604E+00   -0.25633E+00  9152   0.787E+00-0.183E-02
CGA:   3    -0.381236581167E+03   -0.51730E-01   -0.54378E-01  9152   0.306E+00-0.172E-01
CGA:   4    -0.381274658544E+03   -0.38077E-01   -0.38047E-01  9152   0.626E-01-0.147E-02
CGA:   5    -0.381282578500E+03   -0.79200E-02   -0.79193E-02  9152   0.320E-01-0.300E-04
CGA:   6    -0.381285067694E+03   -0.24892E-02   -0.24873E-02  9152   0.106E-01 0.142E-04
CGA:   7    -0.381286416342E+03   -0.13486E-02   -0.13490E-02  9152   0.475E-02 0.394E-04
CGA:   8    -0.381286878383E+03   -0.46204E-03   -0.46029E-03  9152   0.161E-02-0.540E-05
CGA:   9    -0.381287086521E+03   -0.20814E-03   -0.20814E-03  9152   0.100E-02 0.170E-05
CGA:  10    -0.381287173147E+03   -0.86626E-04   -0.86640E-04  9152   0.390E-03 0.283E-08
CGA:  11    -0.381287242257E+03   -0.69110E-04   -0.69108E-04  9152   0.247E-03 0.197E-07
CGA:  12    -0.381287273502E+03   -0.31246E-04   -0.31246E-04  9152   0.240E-03 0.204E-06
CGA:  13    -0.381287303279E+03   -0.29776E-04   -0.29779E-04  9152   0.120E-03 0.283E-06
CGA:  14    -0.381287325110E+03   -0.21831E-04   -0.21828E-04  9152   0.113E-03 0.102E-06
CGA:  15    -0.381287336806E+03   -0.11696E-04   -0.11705E-04  9152   0.576E-04 0.176E-06
CGA:  16    -0.381287344735E+03   -0.79284E-05   -0.79272E-05  9152   0.448E-04 0.245E-06
  28 F= -.38128734E+03 E0= -.38128271E+03  d E =-.151401E-02  mag=    58.0000
       N       E                     dE             d eps       ncg     rms          ort
SDA:   1    -0.379658443407E+03    0.16289E+01    0.00000E+00  9152   0.399E+01 0.000E+00
CGA:   2    -0.380918827066E+03   -0.12604E+01   -0.12595E+01  9152   0.170E+01 0.537E-02
CGA:   3    -0.381183929663E+03   -0.26510E+00   -0.26534E+00  9152   0.680E+00-0.928E-02
CGA:   4    -0.381250764328E+03   -0.66835E-01   -0.66996E-01  9152   0.217E+00 0.105E-02
CGA:   5    -0.381272869783E+03   -0.22105E-01   -0.22073E-01  9152   0.995E-01-0.110E-03
CGA:   6    -0.381281302054E+03   -0.84323E-02   -0.82287E-02  9152   0.381E-01 0.587E-03
CGA:   7    -0.381286431252E+03   -0.51292E-02   -0.51292E-02  9152   0.909E-02 0.206E-03
CGA:   8    -0.381287888587E+03   -0.14573E-02   -0.14589E-02  9152   0.519E-02-0.403E-04
CGA:   9    -0.381288323525E+03   -0.43494E-03   -0.43722E-03  9152   0.258E-02-0.533E-05
CGA:  10    -0.381288652382E+03   -0.32886E-03   -0.32887E-03  9152   0.149E-02 0.149E-05
CGA:  11    -0.381288850856E+03   -0.19847E-03   -0.19847E-03  9152   0.849E-03 0.792E-06
CGA:  12    -0.381289009429E+03   -0.15857E-03   -0.15847E-03  9152   0.732E-03 0.179E-05
CGA:  13    -0.381289084340E+03   -0.74911E-04   -0.74972E-04  9152   0.576E-03 0.696E-06
CGA:  14    -0.381289168798E+03   -0.84458E-04   -0.84462E-04  9152   0.249E-03 0.108E-06
CGA:  15    -0.381289211736E+03   -0.42937E-04   -0.42894E-04  9152   0.194E-03 0.101E-05
CGA:  16    -0.381289232740E+03   -0.21004E-04   -0.21005E-04  9152   0.105E-03 0.364E-06
CGA:  17    -0.381289244497E+03   -0.11758E-04   -0.11765E-04  9152   0.752E-04 0.305E-06
CGA:  18    -0.381289254907E+03   -0.10410E-04   -0.10408E-04  9152   0.326E-04 0.414E-06
CGA:  19    -0.381289261823E+03   -0.69156E-05   -0.69199E-05  9152   0.361E-04-0.556E-07
  29 F= -.38128926E+03 E0= -.38128462E+03  d E =-.191709E-02  mag=    58.0000
       N       E                     dE             d eps       ncg     rms          ort
SDA:   1    -0.375887187138E+03    0.54021E+01    0.00000E+00  9152   0.135E+02 0.000E+00
CGA:   2    -0.379630337493E+03   -0.37432E+01   -0.37106E+01  9152   0.130E+02 0.290E+00
CGA:   3    -0.380537986418E+03   -0.90765E+00   -0.93407E+00  9152   0.438E+01-0.610E+00
CGA:   4    -0.381096468017E+03   -0.55848E+00   -0.55667E+00  9152   0.115E+01-0.143E+00
CGA:   5    -0.381207449203E+03   -0.11098E+00   -0.11563E+00  9152   0.474E+00 0.290E-01
CGA:   6    -0.381255490390E+03   -0.48041E-01   -0.46692E-01  9152   0.195E+00-0.169E-02
CGA:   7    -0.381273917971E+03   -0.18428E-01   -0.18450E-01  9152   0.805E-01 0.228E-04
CGA:   8    -0.381284030122E+03   -0.10112E-01   -0.10114E-01  9152   0.236E-01 0.146E-03
CGA:   9    -0.381286741432E+03   -0.27113E-02   -0.27107E-02  9152   0.167E-01-0.137E-04
CGA:  10    -0.381288325688E+03   -0.15843E-02   -0.15788E-02  9152   0.597E-02-0.157E-04
CGA:  11    -0.381289126567E+03   -0.80088E-03   -0.80038E-03  9152   0.362E-02 0.605E-04
CGA:  12    -0.381289663552E+03   -0.53699E-03   -0.53744E-03  9152   0.266E-02-0.145E-04
CGA:  13    -0.381289937798E+03   -0.27425E-03   -0.27454E-03  9152   0.177E-02 0.441E-05
CGA:  14    -0.381290205618E+03   -0.26782E-03   -0.26775E-03  9152   0.105E-02 0.315E-05
CGA:  15    -0.381290359691E+03   -0.15407E-03   -0.15405E-03  9152   0.730E-03 0.133E-05
CGA:  16    -0.381290439619E+03   -0.79928E-04   -0.79951E-04  9152   0.495E-03 0.975E-06
CGA:  17    -0.381290498446E+03   -0.58827E-04   -0.58860E-04  9152   0.235E-03 0.167E-05
CGA:  18    -0.381290533357E+03   -0.34911E-04   -0.34906E-04  9152   0.149E-03 0.525E-06
CGA:  19    -0.381290553397E+03   -0.20040E-04   -0.20038E-04  9152   0.134E-03 0.679E-06
CGA:  20    -0.381290568450E+03   -0.15053E-04   -0.15060E-04  9152   0.725E-04 0.333E-06
CGA:  21    -0.381290581326E+03   -0.12875E-04   -0.12896E-04  9152   0.598E-04-0.450E-06
CGA:  22    -0.381290589286E+03   -0.79604E-05   -0.79615E-05  9152   0.448E-04-0.550E-06
  30 F= -.38129059E+03 E0= -.38128595E+03  d E =-.132746E-02  mag=    58.0000
       N       E                     dE             d eps       ncg     rms          ort
SDA:   1    -0.380347113977E+03    0.94347E+00    0.00000E+00  9152   0.272E+01 0.000E+00
CGA:   2    -0.380951128546E+03   -0.60401E+00   -0.60386E+00  9152   0.149E+01 0.131E-03
CGA:   3    -0.381159673300E+03   -0.20854E+00   -0.20904E+00  9152   0.103E+01-0.540E-01
CGA:   4    -0.381233728815E+03   -0.74056E-01   -0.78787E-01  9152   0.354E+00-0.177E-01
CGA:   5    -0.381268161993E+03   -0.34433E-01   -0.34420E-01  9152   0.121E+00-0.110E-03
CGA:   6    -0.381280951416E+03   -0.12789E-01   -0.12779E-01  9152   0.324E-01-0.976E-04
CGA:   7    -0.381285767977E+03   -0.48166E-02   -0.48149E-02  9152   0.162E-01 0.551E-04
CGA:   8    -0.381287098416E+03   -0.13304E-02   -0.13389E-02  9152   0.788E-02-0.154E-04
CGA:   9    -0.381288170799E+03   -0.10724E-02   -0.10727E-02  9152   0.248E-02-0.206E-04
CGA:  10    -0.381288570115E+03   -0.39932E-03   -0.39875E-03  9152   0.198E-02 0.130E-04
CGA:  11    -0.381288776737E+03   -0.20662E-03   -0.20635E-03  9152   0.113E-02-0.184E-05
CGA:  12    -0.381288935032E+03   -0.15830E-03   -0.15828E-03  9152   0.844E-03 0.632E-06
CGA:  13    -0.381289054809E+03   -0.11978E-03   -0.11977E-03  9152   0.492E-03 0.792E-06
CGA:  14    -0.381289143148E+03   -0.88339E-04   -0.88318E-04  9152   0.453E-03 0.464E-06
CGA:  15    -0.381289184685E+03   -0.41537E-04   -0.41524E-04  9152   0.231E-03 0.544E-06
CGA:  16    -0.381289225776E+03   -0.41091E-04   -0.41047E-04  9152   0.116E-03 0.868E-06
CGA:  17    -0.381289241885E+03   -0.16109E-04   -0.16110E-04  9152   0.998E-04-0.296E-07
CGA:  18    -0.381289253709E+03   -0.11824E-04   -0.11824E-04  9152   0.555E-04-0.550E-08
CGA:  19    -0.381289260532E+03   -0.68235E-05   -0.68230E-05  9152   0.350E-04-0.427E-07
  31 F= -.38128926E+03 E0= -.38128470E+03  d E =0.132875E-02  mag=    58.0000
       N       E                     dE             d eps       ncg     rms          ort
SDA:   1    -0.381272222480E+03    0.17031E-01    0.00000E+00  9152   0.658E-01 0.000E+00
CGA:   2    -0.381280452583E+03   -0.82301E-02   -0.82309E-02  9152   0.595E-01 0.384E-04
CGA:   3    -0.381285689935E+03   -0.52374E-02   -0.52167E-02  9152   0.209E-01 0.141E-04
CGA:   4    -0.381289089692E+03   -0.33998E-02   -0.33969E-02  9152   0.778E-02 0.648E-04
CGA:   5    -0.381289944919E+03   -0.85523E-03   -0.85222E-03  9152   0.330E-02-0.343E-04
CGA:   6    -0.381290309909E+03   -0.36499E-03   -0.36537E-03  9152   0.122E-02 0.636E-05
CGA:   7    -0.381290408358E+03   -0.98449E-04   -0.98412E-04  9152   0.506E-03-0.208E-07
CGA:   8    -0.381290480123E+03   -0.71765E-04   -0.71778E-04  9152   0.138E-03-0.927E-06
CGA:   9    -0.381290501830E+03   -0.21707E-04   -0.21712E-04  9152   0.118E-03-0.168E-06
CGA:  10    -0.381290511965E+03   -0.10135E-04   -0.10135E-04  9152   0.418E-04-0.274E-07
CGA:  11    -0.381290517898E+03   -0.59331E-05   -0.59312E-05  9152   0.292E-04 0.156E-06
  32 F= -.38129052E+03 E0= -.38128595E+03  d E =-.125737E-02  mag=    58.0000
       N       E                     dE             d eps       ncg     rms          ort
SDA:   1    -0.381286137838E+03    0.43741E-02    0.00000E+00  9152   0.187E-01 0.000E+00
CGA:   2    -0.381288159852E+03   -0.20220E-02   -0.20269E-02  9152   0.158E-01 0.754E-04
CGA:   3    -0.381289682518E+03   -0.15227E-02   -0.15205E-02  9152   0.551E-02-0.104E-04
CGA:   4    -0.381290570912E+03   -0.88839E-03   -0.88833E-03  9152   0.230E-02 0.123E-05
CGA:   5    -0.381290813388E+03   -0.24248E-03   -0.24252E-03  9152   0.838E-03 0.116E-05
CGA:   6    -0.381290911742E+03   -0.98354E-04   -0.98356E-04  9152   0.371E-03 0.216E-06
CGA:   7    -0.381290941167E+03   -0.29425E-04   -0.29378E-04  9152   0.141E-03 0.424E-07
CGA:   8    -0.381290960748E+03   -0.19581E-04   -0.19584E-04  9152   0.444E-04-0.256E-06
CGA:   9    -0.381290967742E+03   -0.69940E-05   -0.70018E-05  9152   0.322E-04-0.219E-06
  33 F= -.38129097E+03 E0= -.38128639E+03  d E =-.449844E-03  mag=    58.0000
       N       E                     dE             d eps       ncg     rms          ort
SDA:   1    -0.381251780685E+03    0.39180E-01    0.00000E+00  9152   0.132E+00 0.000E+00
CGA:   2    -0.381270830250E+03   -0.19050E-01   -0.19043E-01  9152   0.131E+00 0.215E-03
CGA:   3    -0.381281723900E+03   -0.10894E-01   -0.10826E-01  9152   0.460E-01 0.333E-04
CGA:   4    -0.381288862851E+03   -0.71390E-02   -0.71352E-02  9152   0.139E-01 0.856E-04
CGA:   5    -0.381290594743E+03   -0.17319E-02   -0.17317E-02  9152   0.685E-02-0.102E-03
CGA:   6    -0.381291208716E+03   -0.61397E-03   -0.61642E-03  9152   0.229E-02 0.926E-05
CGA:   7    -0.381291428264E+03   -0.21955E-03   -0.21953E-03  9152   0.109E-02-0.221E-06
CGA:   8    -0.381291554115E+03   -0.12585E-03   -0.12584E-03  9152   0.322E-03-0.997E-06
CGA:   9    -0.381291607069E+03   -0.52955E-04   -0.52972E-04  9152   0.205E-03-0.419E-06
CGA:  10    -0.381291624684E+03   -0.17614E-04   -0.17620E-04  9152   0.108E-03-0.260E-07
CGA:  11    -0.381291640673E+03   -0.15989E-04   -0.15982E-04  9152   0.467E-04 0.273E-06
CGA:  12    -0.381291648444E+03   -0.77718E-05   -0.77552E-05  9152   0.416E-04 0.372E-06
  34 F= -.38129165E+03 E0= -.38128705E+03  d E =-.680702E-03  mag=    58.0000
       N       E                     dE             d eps       ncg     rms          ort
SDA:   1    -0.381288266225E+03    0.33744E-02    0.00000E+00  9152   0.190E-01 0.000E+00
CGA:   2    -0.381289477248E+03   -0.12110E-02   -0.12031E-02  9152   0.879E-02 0.614E-04
CGA:   3    -0.381290957918E+03   -0.14807E-02   -0.14802E-02  9152   0.334E-02 0.888E-05
CGA:   4    -0.381291501254E+03   -0.54334E-03   -0.54340E-03  9152   0.109E-02-0.121E-05
CGA:   5    -0.381291648300E+03   -0.14705E-03   -0.14703E-03  9152   0.390E-03 0.871E-06
CGA:   6    -0.381291686363E+03   -0.38063E-04   -0.38023E-04  9152   0.162E-03-0.258E-06
CGA:   7    -0.381291703157E+03   -0.16794E-04   -0.16795E-04  9152   0.869E-04 0.509E-07
CGA:   8    -0.381291711160E+03   -0.80032E-05   -0.80023E-05  9152   0.276E-04-0.304E-07
  35 F= -.38129171E+03 E0= -.38128711E+03  d E =-.627158E-04  mag=    58.0000
       N       E                     dE             d eps       ncg     rms          ort
SDA:   1    -0.381241702539E+03    0.50001E-01    0.00000E+00  9152   0.148E+00 0.000E+00
CGA:   2    -0.381265122549E+03   -0.23420E-01   -0.23440E-01  9152   0.198E+00-0.419E-03
CGA:   3    -0.381282299034E+03   -0.17176E-01   -0.17107E-01  9152   0.501E-01-0.488E-04
CGA:   4    -0.381288336281E+03   -0.60372E-02   -0.60424E-02  9152   0.203E-01 0.469E-03
CGA:   5    -0.381290680355E+03   -0.23441E-02   -0.23404E-02  9152   0.555E-02-0.133E-03
CGA:   6    -0.381291378485E+03   -0.69813E-03   -0.69809E-03  9152   0.161E-02 0.120E-04
CGA:   7    -0.381291564218E+03   -0.18573E-03   -0.18568E-03  9152   0.118E-02-0.163E-05
CGA:   8    -0.381291660645E+03   -0.96426E-04   -0.96444E-04  9152   0.273E-03 0.684E-07
CGA:   9    -0.381291709872E+03   -0.49227E-04   -0.49257E-04  9152   0.113E-03-0.513E-06
CGA:  10    -0.381291723493E+03   -0.13621E-04   -0.13619E-04  9152   0.701E-04-0.380E-06
CGA:  11    -0.381291733557E+03   -0.10064E-04   -0.10065E-04  9152   0.535E-04-0.649E-07
CGA:  12    -0.381291738519E+03   -0.49620E-05   -0.49674E-05  9152   0.287E-04 0.101E-06
  36 F= -.38129174E+03 E0= -.38128713E+03  d E =-.273584E-04  mag=    58.0000
       N       E                     dE             d eps       ncg     rms          ort
SDA:   1    -0.381284244793E+03    0.74888E-02    0.00000E+00  9152   0.253E-01 0.000E+00
CGA:   2    -0.381287339107E+03   -0.30943E-02   -0.30898E-02  9152   0.274E-01-0.302E-03
CGA:   3    -0.381290092348E+03   -0.27532E-02   -0.27584E-02  9152   0.909E-02 0.458E-04
CGA:   4    -0.381291082234E+03   -0.98989E-03   -0.99036E-03  9152   0.383E-02 0.101E-04
CGA:   5    -0.381291542956E+03   -0.46072E-03   -0.46071E-03  9152   0.827E-03-0.573E-06
CGA:   6    -0.381291661106E+03   -0.11815E-03   -0.11815E-03  9152   0.239E-03 0.311E-07
CGA:   7    -0.381291695948E+03   -0.34842E-04   -0.34847E-04  9152   0.152E-03-0.288E-06
CGA:   8    -0.381291707042E+03   -0.11094E-04   -0.11082E-04  9152   0.529E-04-0.107E-06
CGA:   9    -0.381291715297E+03   -0.82551E-05   -0.82627E-05  9152   0.226E-04-0.244E-06
  37 F= -.38129172E+03 E0= -.38128711E+03  d E =0.232216E-04  mag=    58.0000
       N       E                     dE             d eps       ncg     rms          ort
SDA:   1    -0.381288976617E+03    0.27304E-02    0.00000E+00  9152   0.117E-01 0.000E+00
CGA:   2    -0.381289984005E+03   -0.10074E-02   -0.99478E-03  9152   0.806E-02-0.649E-05
CGA:   3    -0.381291062786E+03   -0.10788E-02   -0.10787E-02  9152   0.395E-02 0.490E-05
CGA:   4    -0.381291425078E+03   -0.36229E-03   -0.36248E-03  9152   0.131E-02 0.161E-05
CGA:   5    -0.381291631031E+03   -0.20595E-03   -0.20591E-03  9152   0.246E-03 0.135E-05
CGA:   6    -0.381291673998E+03   -0.42967E-04   -0.42986E-04  9152   0.956E-04-0.391E-06
CGA:   7    -0.381291682706E+03   -0.87080E-05   -0.87033E-05  9152   0.583E-04-0.130E-06
  38 F= -.38129168E+03 E0= -.38128708E+03  d E =0.325910E-04  mag=    58.0000
       N       E                     dE             d eps       ncg     rms          ort
SDA:   1    -0.381249058735E+03    0.42615E-01    0.00000E+00  9152   0.134E+00 0.000E+00
CGA:   2    -0.381265264685E+03   -0.16206E-01   -0.16167E-01  9152   0.173E+00-0.430E-02
CGA:   3    -0.381283824996E+03   -0.18560E-01   -0.18580E-01  9152   0.458E-01 0.536E-03
CGA:   4    -0.381288468692E+03   -0.46437E-02   -0.46539E-02  9152   0.181E-01 0.131E-03
CGA:   5    -0.381290728443E+03   -0.22598E-02   -0.22599E-02  9152   0.409E-02-0.457E-04
CGA:   6    -0.381291185067E+03   -0.45662E-03   -0.45675E-03  9152   0.287E-02 0.433E-05
CGA:   7    -0.381291408355E+03   -0.22329E-03   -0.22316E-03  9152   0.642E-03-0.303E-06
CGA:   8    -0.381291513291E+03   -0.10494E-03   -0.10498E-03  9152   0.215E-03-0.972E-06
CGA:   9    -0.381291545803E+03   -0.32511E-04   -0.32516E-04  9152   0.935E-04-0.230E-06
CGA:  10    -0.381291557773E+03   -0.11970E-04   -0.11971E-04  9152   0.440E-04-0.211E-06
CGA:  11    -0.381291565447E+03   -0.76744E-05   -0.76665E-05  9152   0.246E-04 0.151E-06
  39 F= -.38129157E+03 E0= -.38128696E+03  d E =0.117259E-03  mag=    58.0000
       N       E                     dE             d eps       ncg     rms          ort
SDA:   1    -0.381289546855E+03    0.20109E-02    0.00000E+00  9152   0.115E-01 0.000E+00
CGA:   2    -0.381290257756E+03   -0.71090E-03   -0.70799E-03  9152   0.504E-02 0.256E-04
CGA:   3    -0.381291186892E+03   -0.92914E-03   -0.92882E-03  9152   0.208E-02 0.477E-05
CGA:   4    -0.381291447720E+03   -0.26083E-03   -0.26083E-03  9152   0.789E-03-0.332E-05
CGA:   5    -0.381291545719E+03   -0.97999E-04   -0.98000E-04  9152   0.258E-03 0.252E-06
CGA:   6    -0.381291577448E+03   -0.31729E-04   -0.31728E-04  9152   0.542E-04-0.355E-06
CGA:   7    -0.381291587196E+03   -0.97477E-05   -0.97342E-05  9152   0.208E-04 0.248E-06
  40 F= -.38129159E+03 E0= -.38128698E+03  d E =-.217484E-04  mag=    58.0000
       N       E                     dE             d eps       ncg     rms          ort
SDA:   1    -0.381280258893E+03    0.11319E-01    0.00000E+00  9152   0.296E-01 0.000E+00
CGA:   2    -0.381287876224E+03   -0.76173E-02   -0.76181E-02  9152   0.194E-01-0.586E-05
CGA:   3    -0.381289958768E+03   -0.20825E-02   -0.20831E-02  9152   0.127E-01 0.635E-05
CGA:   4    -0.381290998051E+03   -0.10393E-02   -0.10371E-02  9152   0.273E-02 0.613E-05
CGA:   5    -0.381291372247E+03   -0.37420E-03   -0.37413E-03  9152   0.101E-02 0.448E-05
CGA:   6    -0.381291472003E+03   -0.99756E-04   -0.99564E-04  9152   0.342E-03-0.145E-05
CGA:   7    -0.381291513904E+03   -0.41901E-04   -0.41903E-04  9152   0.202E-03 0.133E-06
CGA:   8    -0.381291530135E+03   -0.16231E-04   -0.16233E-04  9152   0.607E-04 0.389E-07
CGA:   9    -0.381291540366E+03   -0.10231E-04   -0.10236E-04  9152   0.214E-04-0.113E-06
CGA:  10    -0.381291542952E+03   -0.25868E-05   -0.25868E-05  9152   0.177E-04-0.998E-08
  41 F= -.38129154E+03 E0= -.38128694E+03  d E =0.442432E-04  mag=    58.0000
       N       E                     dE             d eps       ncg     rms          ort
SDA:   1    -0.381288238602E+03    0.33018E-02    0.00000E+00  9152   0.884E-02 0.000E+00
CGA:   2    -0.381290132565E+03   -0.18940E-02   -0.18857E-02  9152   0.109E-01 0.862E-04
CGA:   3    -0.381290995257E+03   -0.86269E-03   -0.85603E-03  9152   0.313E-02 0.222E-04
CGA:   4    -0.381291333767E+03   -0.33851E-03   -0.33853E-03  9152   0.136E-02 0.225E-06
CGA:   5    -0.381291473940E+03   -0.14017E-03   -0.14021E-03  9152   0.288E-03 0.799E-06
CGA:   6    -0.381291518929E+03   -0.44989E-04   -0.44989E-04  9152   0.105E-03 0.142E-07
CGA:   7    -0.381291528009E+03   -0.90801E-05   -0.90812E-05  9152   0.601E-04 0.542E-07
  42 F= -.38129153E+03 E0= -.38128693E+03  d E =0.149430E-04  mag=    58.0000
       N       E                     dE             d eps       ncg     rms          ort
SDA:   1    -0.381251010166E+03    0.40509E-01    0.00000E+00  9152   0.105E+00 0.000E+00
CGA:   2    -0.381277039446E+03   -0.26029E-01   -0.26020E-01  9152   0.101E+00 0.747E-04
CGA:   3    -0.381285312210E+03   -0.82728E-02   -0.82626E-02  9152   0.386E-01 0.756E-05
CGA:   4    -0.381289253986E+03   -0.39418E-02   -0.39294E-02  9152   0.147E-01-0.110E-03
CGA:   5    -0.381290627043E+03   -0.13731E-02   -0.13828E-02  9152   0.377E-02 0.461E-04
CGA:   6    -0.381291185951E+03   -0.55891E-03   -0.55923E-03  9152   0.110E-02-0.910E-05
CGA:   7    -0.381291304831E+03   -0.11888E-03   -0.11896E-03  9152   0.789E-03 0.188E-05
CGA:   8    -0.381291377734E+03   -0.72903E-04   -0.72905E-04  9152   0.189E-03 0.424E-06
CGA:   9    -0.381291403856E+03   -0.26121E-04   -0.26125E-04  9152   0.101E-03-0.254E-06
CGA:  10    -0.381291415824E+03   -0.11968E-04   -0.11967E-04  9152   0.394E-04-0.200E-06
CGA:  11    -0.381291420497E+03   -0.46736E-05   -0.46725E-05  9152   0.337E-04-0.177E-06
  43 F= -.38129142E+03 E0= -.38128682E+03  d E =0.107512E-03  mag=    58.0000
       N       E                     dE             d eps       ncg     rms          ort
SDA:   1    -0.381283053376E+03    0.83624E-02    0.00000E+00  9152   0.351E-01 0.000E+00
CGA:   2    -0.381285944225E+03   -0.28908E-02   -0.28568E-02  9152   0.255E-01 0.170E-04
CGA:   3    -0.381289497502E+03   -0.35533E-02   -0.35521E-02  9152   0.895E-02 0.437E-04
CGA:   4    -0.381290743719E+03   -0.12462E-02   -0.12458E-02  9152   0.397E-02 0.150E-04
CGA:   5    -0.381291162330E+03   -0.41861E-03   -0.41843E-03  9152   0.937E-03-0.344E-05
CGA:   6    -0.381291309043E+03   -0.14671E-03   -0.14669E-03  9152   0.260E-03 0.791E-06
CGA:   7    -0.381291339075E+03   -0.30032E-04   -0.30035E-04  9152   0.196E-03 0.362E-06
CGA:   8    -0.381291356052E+03   -0.16977E-04   -0.16980E-04  9152   0.539E-04 0.263E-06
CGA:   9    -0.381291363954E+03   -0.79020E-05   -0.79009E-05  9152   0.286E-04 0.235E-07
  44 F= -.38129136E+03 E0= -.38128677E+03  d E =0.565434E-04  mag=    58.0000
       N       E                     dE             d eps       ncg     rms          ort
SDA:   1    -0.381286938381E+03    0.44177E-02    0.00000E+00  9152   0.147E-01 0.000E+00
CGA:   2    -0.381288860923E+03   -0.19225E-02   -0.19252E-02  9152   0.159E-01-0.188E-03
CGA:   3    -0.381290467901E+03   -0.16070E-02   -0.16096E-02  9152   0.584E-02 0.354E-04
CGA:   4    -0.381291047068E+03   -0.57917E-03   -0.57929E-03  9152   0.228E-02 0.204E-05
CGA:   5    -0.381291321005E+03   -0.27394E-03   -0.27393E-03  9152   0.490E-03-0.974E-06
CGA:   6    -0.381291399365E+03   -0.78360E-04   -0.78357E-04  9152   0.155E-03 0.956E-07
CGA:   7    -0.381291415192E+03   -0.15827E-04   -0.15832E-04  9152   0.104E-03 0.265E-06
CGA:   8    -0.381291424862E+03   -0.96696E-05   -0.96775E-05  9152   0.295E-04 0.324E-06
  45 F= -.38129142E+03 E0= -.38128683E+03  d E =-.609078E-04  mag=    58.0000
       N       E                     dE             d eps       ncg     rms          ort
SDA:   1    -0.381079088986E+03    0.21233E+00    0.00000E+00  9152   0.562E+00 0.000E+00
CGA:   2    -0.381221222724E+03   -0.14213E+00   -0.14207E+00  9152   0.371E+00 0.486E-03
CGA:   3    -0.381261595557E+03   -0.40373E-01   -0.40368E-01  9152   0.229E+00-0.737E-04
CGA:   4    -0.381280658683E+03   -0.19063E-01   -0.18877E-01  9152   0.544E-01 0.187E-03
CGA:   5    -0.381287477743E+03   -0.68191E-02   -0.68195E-02  9152   0.201E-01 0.595E-03
CGA:   6    -0.381289615767E+03   -0.21380E-02   -0.21271E-02  9152   0.621E-02-0.155E-03
CGA:   7    -0.381290414038E+03   -0.79827E-03   -0.79809E-03  9152   0.378E-02 0.204E-04
CGA:   8    -0.381290709678E+03   -0.29564E-03   -0.29549E-03  9152   0.114E-02 0.215E-05
CGA:   9    -0.381290894593E+03   -0.18491E-03   -0.18492E-03  9152   0.398E-03 0.608E-07
CGA:  10    -0.381290941953E+03   -0.47360E-04   -0.47360E-04  9152   0.287E-03-0.761E-07
CGA:  11    -0.381290974270E+03   -0.32317E-04   -0.32315E-04  9152   0.146E-03-0.346E-06
CGA:  12    -0.381290991305E+03   -0.17035E-04   -0.17032E-04  9152   0.785E-04-0.264E-06
CGA:  13    -0.381291005054E+03   -0.13749E-04   -0.13724E-04  9152   0.507E-04 0.458E-06
CGA:  14    -0.381291011036E+03   -0.59823E-05   -0.59847E-05  9152   0.406E-04 0.323E-06
  46 F= -.38129101E+03 E0= -.38128642E+03  d E =0.413825E-03  mag=    58.0000
       N       E                     dE             d eps       ncg     rms          ort
SDA:   1    -0.381248481190E+03    0.42524E-01    0.00000E+00  9152   0.147E+00 0.000E+00
CGA:   2    -0.381268687483E+03   -0.20206E-01   -0.20255E-01  9152   0.138E+00-0.225E-02
CGA:   3    -0.381280153254E+03   -0.11466E-01   -0.11634E-01  9152   0.565E-01 0.125E-03
CGA:   4    -0.381287862825E+03   -0.77096E-02   -0.77112E-02  9152   0.221E-01-0.760E-04
CGA:   5    -0.381290154336E+03   -0.22915E-02   -0.22905E-02  9152   0.710E-02-0.148E-04
CGA:   6    -0.381291055916E+03   -0.90158E-03   -0.90155E-03  9152   0.275E-02 0.496E-05
CGA:   7    -0.381291277810E+03   -0.22189E-03   -0.22247E-03  9152   0.126E-02-0.606E-07
CGA:   8    -0.381291436966E+03   -0.15916E-03   -0.15917E-03  9152   0.348E-03-0.168E-05
CGA:   9    -0.381291492349E+03   -0.55383E-04   -0.55369E-04  9152   0.218E-03 0.252E-06
CGA:  10    -0.381291511881E+03   -0.19532E-04   -0.19518E-04  9152   0.106E-03-0.535E-07
CGA:  11    -0.381291525669E+03   -0.13788E-04   -0.13788E-04  9152   0.537E-04 0.262E-07
CGA:  12    -0.381291532673E+03   -0.70035E-05   -0.70024E-05  9152   0.301E-04 0.130E-06
  47 F= -.38129153E+03 E0= -.38128695E+03  d E =-.521637E-03  mag=    58.0000
       N       E                     dE             d eps       ncg     rms          ort
SDA:   1    -0.381216144556E+03    0.75381E-01    0.00000E+00  9152   0.220E+00 0.000E+00
CGA:   2    -0.381254694205E+03   -0.38550E-01   -0.38680E-01  9152   0.267E+00-0.199E-02
CGA:   3    -0.381274585258E+03   -0.19891E-01   -0.20446E-01  9152   0.883E-01-0.163E-02
CGA:   4    -0.381287064255E+03   -0.12479E-01   -0.12482E-01  9152   0.226E-01-0.908E-04
CGA:   5    -0.381289812871E+03   -0.27486E-02   -0.27485E-02  9152   0.102E-01-0.129E-04
CGA:   6    -0.381290746827E+03   -0.93396E-03   -0.93421E-03  9152   0.346E-02 0.270E-05
CGA:   7    -0.381291080505E+03   -0.33368E-03   -0.33440E-03  9152   0.173E-02 0.769E-05
CGA:   8    -0.381291282859E+03   -0.20235E-03   -0.20230E-03  9152   0.463E-03-0.319E-05
CGA:   9    -0.381291358130E+03   -0.75272E-04   -0.75248E-04  9152   0.285E-03 0.469E-06
CGA:  10    -0.381291381259E+03   -0.23128E-04   -0.23110E-04  9152   0.127E-03-0.130E-06
CGA:  11    -0.381291400360E+03   -0.19101E-04   -0.19112E-04  9152   0.622E-04-0.377E-06
CGA:  12    -0.381291409415E+03   -0.90556E-05   -0.90543E-05  9152   0.461E-04 0.503E-07
  48 F= -.38129141E+03 E0= -.38128684E+03  d E =0.123258E-03  mag=    58.0000
       N       E                     dE             d eps       ncg     rms          ort
SDA:   1    -0.378763055276E+03    0.25283E+01    0.00000E+00  9152   0.798E+01 0.000E+00
CGA:   2    -0.379849221954E+03   -0.10862E+01   -0.10949E+01  9152   0.106E+02-0.441E+00
CGA:   3    -0.380770723629E+03   -0.92150E+00   -0.92954E+00  9152   0.242E+01 0.114E+00
CGA:   4    -0.381088811041E+03   -0.31809E+00   -0.32285E+00  9152   0.208E+01-0.314E+00
CGA:   5    -0.381191462346E+03   -0.10265E+00   -0.11440E+00  9152   0.639E+00-0.789E-01
CGA:   6    -0.381239414648E+03   -0.47952E-01   -0.48080E-01  9152   0.242E+00 0.527E-04
CGA:   7    -0.381268882561E+03   -0.29468E-01   -0.29471E-01  9152   0.522E-01-0.543E-03
CGA:   8    -0.381275909840E+03   -0.70273E-02   -0.69952E-02  9152   0.526E-01 0.125E-02
CGA:   9    -0.381279801411E+03   -0.38916E-02   -0.38672E-02  9152   0.101E-01 0.874E-04
CGA:  10    -0.381281933138E+03   -0.21317E-02   -0.21097E-02  9152   0.315E-02 0.214E-03
CGA:  11    -0.381282621313E+03   -0.68818E-03   -0.68991E-03  9152   0.216E-02-0.170E-04
CGA:  12    -0.381282898685E+03   -0.27737E-03   -0.27729E-03  9152   0.135E-02 0.173E-04
CGA:  13    -0.381283103853E+03   -0.20517E-03   -0.20478E-03  9152   0.105E-02 0.112E-04
CGA:  14    -0.381283207175E+03   -0.10332E-03   -0.10310E-03  9152   0.656E-03-0.938E-06
CGA:  15    -0.381283316249E+03   -0.10907E-03   -0.10897E-03  9152   0.231E-03 0.168E-05
CGA:  16    -0.381283379563E+03   -0.63314E-04   -0.63431E-04  9152   0.109E-03-0.803E-06
CGA:  17    -0.381283400035E+03   -0.20472E-04   -0.20437E-04  9152   0.143E-03 0.628E-06
CGA:  18    -0.381283412515E+03   -0.12479E-04   -0.12499E-04  9152   0.526E-04 0.461E-06
CGA:  19    -0.381283423010E+03   -0.10495E-04   -0.10494E-04  9152   0.294E-04 0.161E-07
CGA:  20    -0.381283429279E+03   -0.62690E-05   -0.62867E-05  9152   0.253E-04-0.238E-06
  49 F= -.38128343E+03 E0= -.38127884E+03  d E =0.798014E-02  mag=    58.0000
       N       E                     dE             d eps       ncg     rms          ort
SDA:   1    -0.373735633855E+03    0.75478E+01    0.00000E+00  9152   0.229E+02 0.000E+00
CGA:   2    -0.377773002491E+03   -0.40374E+01   -0.40232E+01  9152   0.219E+02 0.341E+00
CGA:   3    -0.379457088591E+03   -0.16841E+01   -0.15577E+01  9152   0.833E+01 0.153E+01
CGA:   4    -0.380758720950E+03   -0.13016E+01   -0.13035E+01  9152   0.259E+01-0.142E+00
CGA:   5    -0.381051001182E+03   -0.29228E+00   -0.29152E+00  9152   0.133E+01-0.538E-02
CGA:   6    -0.381179068903E+03   -0.12807E+00   -0.13061E+00  9152   0.295E+00 0.911E-02
CGA:   7    -0.381217946318E+03   -0.38877E-01   -0.38911E-01  9152   0.258E+00 0.299E-02
CGA:   8    -0.381235260340E+03   -0.17314E-01   -0.17035E-01  9152   0.563E-01 0.268E-02
CGA:   9    -0.381247087026E+03   -0.11827E-01   -0.11737E-01  9152   0.183E-01 0.990E-03
CGA:  10    -0.381249907637E+03   -0.28206E-02   -0.28226E-02  9152   0.239E-01-0.715E-04
CGA:  11    -0.381251931626E+03   -0.20240E-02   -0.20471E-02  9152   0.675E-02-0.198E-04
CGA:  12    -0.381253008613E+03   -0.10770E-02   -0.10754E-02  9152   0.644E-02 0.430E-04
CGA:  13    -0.381253876802E+03   -0.86819E-03   -0.86821E-03  9152   0.242E-02 0.719E-05
CGA:  14    -0.381254321486E+03   -0.44468E-03   -0.44417E-03  9152   0.289E-02 0.885E-05
CGA:  15    -0.381254556056E+03   -0.23457E-03   -0.23593E-03  9152   0.112E-02-0.193E-05
CGA:  16    -0.381254749302E+03   -0.19325E-03   -0.19316E-03  9152   0.529E-03 0.240E-05
CGA:  17    -0.381254852440E+03   -0.10314E-03   -0.10298E-03  9152   0.495E-03 0.242E-05
CGA:  18    -0.381254899848E+03   -0.47408E-04   -0.47353E-04  9152   0.274E-03 0.246E-06
CGA:  19    -0.381254938578E+03   -0.38730E-04   -0.38730E-04  9152   0.234E-03-0.143E-06
CGA:  20    -0.381254968914E+03   -0.30336E-04   -0.30335E-04  9152   0.107E-03-0.210E-06
CGA:  21    -0.381254990143E+03   -0.21230E-04   -0.21262E-04  9152   0.783E-04-0.536E-06
CGA:  22    -0.381254998043E+03   -0.78997E-05   -0.78866E-05  9152   0.653E-04-0.268E-06
  50 F= -.38125500E+03 E0= -.38125039E+03  d E =0.284312E-01  mag=    58.0000
       N       E                     dE             d eps       ncg     rms          ort
SDA:   1    -0.380311023719E+03    0.94397E+00    0.00000E+00  9152   0.346E+01 0.000E+00
CGA:   2    -0.380762989089E+03   -0.45197E+00   -0.45408E+00  9152   0.278E+01 0.132E+00
CGA:   3    -0.381029392817E+03   -0.26640E+00   -0.25257E+00  9152   0.113E+01 0.296E-01
CGA:   4    -0.381212746431E+03   -0.18335E+00   -0.18340E+00  9152   0.380E+00-0.110E-02
CGA:   5    -0.381256960398E+03   -0.44214E-01   -0.44304E-01  9152   0.166E+00 0.154E-02
CGA:   6    -0.381275358440E+03   -0.18398E-01   -0.18382E-01  9152   0.568E-01-0.171E-03
CGA:   7    -0.381280277375E+03   -0.49189E-02   -0.48557E-02  9152   0.303E-01 0.823E-04
CGA:   8    -0.381283808180E+03   -0.35308E-02   -0.35394E-02  9152   0.748E-02 0.207E-03
CGA:   9    -0.381285119388E+03   -0.13112E-02   -0.13146E-02  9152   0.499E-02-0.580E-04
CGA:  10    -0.381285623499E+03   -0.50411E-03   -0.50645E-03  9152   0.222E-02 0.161E-04
CGA:  11    -0.381285880916E+03   -0.25742E-03   -0.25741E-03  9152   0.177E-02 0.711E-07
CGA:  12    -0.381286091477E+03   -0.21056E-03   -0.21058E-03  9152   0.543E-03 0.872E-06
CGA:  13    -0.381286207783E+03   -0.11631E-03   -0.11614E-03  9152   0.508E-03 0.191E-05
CGA:  14    -0.381286261287E+03   -0.53504E-04   -0.53522E-04  9152   0.289E-03 0.369E-06
CGA:  15    -0.381286295985E+03   -0.34698E-04   -0.34690E-04  9152   0.204E-03-0.213E-06
CGA:  16    -0.381286323878E+03   -0.27893E-04   -0.27891E-04  9152   0.844E-04 0.132E-06
CGA:  17    -0.381286337575E+03   -0.13697E-04   -0.13703E-04  9152   0.594E-04-0.192E-06
CGA:  18    -0.381286345005E+03   -0.74306E-05   -0.74306E-05  9152   0.497E-04-0.498E-07
  51 F= -.38128635E+03 E0= -.38128175E+03  d E =-.313470E-01  mag=    58.0000
       N       E                     dE             d eps       ncg     rms          ort
SDA:   1    -0.381010262201E+03    0.27608E+00    0.00000E+00  9152   0.924E+00 0.000E+00
CGA:   2    -0.381154657642E+03   -0.14440E+00   -0.14358E+00  9152   0.722E+00 0.228E-01
CGA:   3    -0.381220834879E+03   -0.66177E-01   -0.63594E-01  9152   0.355E+00 0.282E-02
CGA:   4    -0.381270722147E+03   -0.49887E-01   -0.49882E-01  9152   0.101E+00 0.368E-03
CGA:   5    -0.381283460672E+03   -0.12739E-01   -0.12741E-01  9152   0.441E-01 0.194E-03
CGA:   6    -0.381288305774E+03   -0.48451E-02   -0.48420E-02  9152   0.133E-01-0.462E-04
CGA:   7    -0.381289671302E+03   -0.13655E-02   -0.13634E-02  9152   0.867E-02-0.182E-04
CGA:   8    -0.381290494734E+03   -0.82343E-03   -0.82663E-03  9152   0.208E-02 0.152E-04
CGA:   9    -0.381290884397E+03   -0.38966E-03   -0.39021E-03  9152   0.112E-02-0.719E-05
CGA:  10    -0.381291006119E+03   -0.12172E-03   -0.12191E-03  9152   0.593E-03 0.297E-05
CGA:  11    -0.381291083238E+03   -0.77119E-04   -0.77119E-04  9152   0.461E-03-0.258E-06
CGA:  12    -0.381291129029E+03   -0.45791E-04   -0.45795E-04  9152   0.154E-03 0.407E-07
CGA:  13    -0.381291165376E+03   -0.36347E-04   -0.36285E-04  9152   0.117E-03 0.581E-06
CGA:  14    -0.381291178364E+03   -0.12988E-04   -0.12987E-04  9152   0.790E-04-0.390E-07
CGA:  15    -0.381291189176E+03   -0.10812E-04   -0.10813E-04  9152   0.625E-04-0.208E-06
CGA:  16    -0.381291195973E+03   -0.67971E-05   -0.67963E-05  9152   0.208E-04-0.100E-06
  52 F= -.38129120E+03 E0= -.38128659E+03  d E =-.485097E-02  mag=    58.0000
       N       E                     dE             d eps       ncg     rms          ort
SDA:   1    -0.381258802754E+03    0.32386E-01    0.00000E+00  9152   0.950E-01 0.000E+00
CGA:   2    -0.381278496819E+03   -0.19694E-01   -0.19713E-01  9152   0.596E-01-0.220E-03
CGA:   3    -0.381286415228E+03   -0.79184E-02   -0.79296E-02  9152   0.296E-01 0.803E-03
CGA:   4    -0.381289464889E+03   -0.30497E-02   -0.30228E-02  9152   0.112E-01-0.818E-04
CGA:   5    -0.381290453435E+03   -0.98855E-03   -0.98937E-03  9152   0.485E-02-0.235E-05
CGA:   6    -0.381290979954E+03   -0.52652E-03   -0.52649E-03  9152   0.104E-02-0.948E-06
CGA:   7    -0.381291152224E+03   -0.17227E-03   -0.17230E-03  9152   0.448E-03-0.724E-06
CGA:   8    -0.381291200002E+03   -0.47778E-04   -0.47779E-04  9152   0.258E-03-0.483E-07
CGA:   9    -0.381291227885E+03   -0.27882E-04   -0.27881E-04  9152   0.130E-03-0.224E-06
CGA:  10    -0.381291241942E+03   -0.14057E-04   -0.14044E-04  9152   0.504E-04-0.287E-06
CGA:  11    -0.381291251897E+03   -0.99557E-05   -0.99478E-05  9152   0.290E-04 0.116E-06
  53 F= -.38129125E+03 E0= -.38128665E+03  d E =-.559249E-04  mag=    58.0000
       N       E                     dE             d eps       ncg     rms          ort
SDA:   1    -0.380666123990E+03    0.62512E+00    0.00000E+00  9152   0.176E+01 0.000E+00
CGA:   2    -0.381046414796E+03   -0.38029E+00   -0.37926E+00  9152   0.116E+01 0.110E-01
CGA:   3    -0.381177836104E+03   -0.13142E+00   -0.12917E+00  9152   0.864E+00-0.211E-01
CGA:   4    -0.381250280368E+03   -0.72444E-01   -0.73246E-01  9152   0.163E+00-0.125E-02
CGA:   5    -0.381276242396E+03   -0.25962E-01   -0.25964E-01  9152   0.449E-01-0.466E-04
CGA:   6    -0.381281760281E+03   -0.55179E-02   -0.55170E-02  9152   0.251E-01-0.306E-04
CGA:   7    -0.381284036231E+03   -0.22760E-02   -0.22757E-02  9152   0.900E-02-0.186E-05
CGA:   8    -0.381285001417E+03   -0.96519E-03   -0.96855E-03  9152   0.459E-02 0.365E-04
CGA:   9    -0.381285593291E+03   -0.59187E-03   -0.59175E-03  9152   0.126E-02-0.202E-04
CGA:  10    -0.381285818371E+03   -0.22508E-03   -0.22482E-03  9152   0.109E-02 0.422E-05
CGA:  11    -0.381285907262E+03   -0.88891E-04   -0.88823E-04  9152   0.407E-03 0.775E-06
CGA:  12    -0.381285982168E+03   -0.74906E-04   -0.74857E-04  9152   0.308E-03 0.912E-06
CGA:  13    -0.381286020321E+03   -0.38153E-04   -0.38160E-04  9152   0.150E-03 0.659E-06
CGA:  14    -0.381286045442E+03   -0.25121E-04   -0.25123E-04  9152   0.158E-03-0.104E-06
CGA:  15    -0.381286059755E+03   -0.14313E-04   -0.14292E-04  9152   0.515E-04-0.276E-06
CGA:  16    -0.381286070244E+03   -0.10488E-04   -0.10516E-04  9152   0.400E-04-0.396E-06
CGA:  17    -0.381286075076E+03   -0.48327E-05   -0.48303E-05  9152   0.242E-04-0.137E-06
  54 F= -.38128608E+03 E0= -.38128146E+03  d E =0.517682E-02  mag=    58.0000
       N       E                     dE             d eps       ncg     rms          ort
SDA:   1    -0.380182378663E+03    0.11037E+01    0.00000E+00  9152   0.316E+01 0.000E+00
CGA:   2    -0.380842784233E+03   -0.66041E+00   -0.66303E+00  9152   0.221E+01-0.291E-01
CGA:   3    -0.381122765370E+03   -0.27998E+00   -0.28250E+00  9152   0.978E+00 0.110E+00
CGA:   4    -0.381232644225E+03   -0.10988E+00   -0.10613E+00  9152   0.371E+00-0.132E-01
CGA:   5    -0.381263193418E+03   -0.30549E-01   -0.30808E-01  9152   0.153E+00-0.783E-03
CGA:   6    -0.381280526544E+03   -0.17333E-01   -0.17338E-01  9152   0.356E-01 0.916E-04
CGA:   7    -0.381286186792E+03   -0.56602E-02   -0.56620E-02  9152   0.157E-01-0.485E-04
CGA:   8    -0.381287922760E+03   -0.17360E-02   -0.17364E-02  9152   0.747E-02 0.514E-05
CGA:   9    -0.381288709549E+03   -0.78679E-03   -0.78778E-03  9152   0.424E-02 0.872E-05
CGA:  10    -0.381289134688E+03   -0.42514E-03   -0.42374E-03  9152   0.135E-02-0.682E-05
CGA:  11    -0.381289385542E+03   -0.25085E-03   -0.25034E-03  9152   0.776E-03 0.771E-05
CGA:  12    -0.381289481585E+03   -0.96043E-04   -0.95999E-04  9152   0.527E-03-0.150E-05
CGA:  13    -0.381289546143E+03   -0.64558E-04   -0.64569E-04  9152   0.387E-03 0.647E-06
CGA:  14    -0.381289591027E+03   -0.44883E-04   -0.44891E-04  9152   0.153E-03 0.438E-06
CGA:  15    -0.381289620118E+03   -0.29091E-04   -0.29077E-04  9152   0.104E-03 0.235E-06
CGA:  16    -0.381289632097E+03   -0.11979E-04   -0.11982E-04  9152   0.625E-04 0.160E-06
[...]
SDA:   1    -0.381222998077E+03    0.57387E-01    0.00000E+00  9152   0.149E+00 0.000E+00
CGA:   2    -0.381264295401E+03   -0.41297E-01   -0.41296E-01  9152   0.843E-01 0.904E-05
CGA:   3    -0.381274259742E+03   -0.99643E-02   -0.99604E-02  9152   0.475E-01-0.201E-04
CGA:   4    -0.381278322630E+03   -0.40629E-02   -0.40671E-02  9152   0.153E-01-0.834E-05
CGA:   5    -0.381279911448E+03   -0.15888E-02   -0.15750E-02  9152   0.411E-02-0.317E-04
CGA:   6    -0.381280440902E+03   -0.52945E-03   -0.52999E-03  9152   0.140E-02 0.170E-04
CGA:   7    -0.381280629042E+03   -0.18814E-03   -0.18810E-03  9152   0.796E-03-0.279E-05
CGA:   8    -0.381280694239E+03   -0.65197E-04   -0.65181E-04  9152   0.294E-03-0.531E-06
CGA:   9    -0.381280737803E+03   -0.43564E-04   -0.43566E-04  9152   0.105E-03-0.209E-06
CGA:  10    -0.381280756699E+03   -0.18896E-04   -0.18896E-04  9152   0.918E-04 0.138E-07
CGA:  11    -0.381280766527E+03   -0.98280E-05   -0.98343E-05  9152   0.613E-04 0.178E-06
 165 F= -.38128077E+03 E0= -.38127640E+03  d E =-.372413E-03  mag=    58.0000
       N       E                     dE             d eps       ncg     rms          ort
SDA:   1    -0.379104161953E+03    0.21766E+01    0.00000E+00  9152   0.568E+01 0.000E+00
CGA:   2    -0.380564622094E+03   -0.14605E+01   -0.14609E+01  9152   0.426E+01-0.947E-01
CGA:   3    -0.381014358819E+03   -0.44974E+00   -0.44353E+00  9152   0.157E+01 0.204E+00
CGA:   4    -0.381172511834E+03   -0.15815E+00   -0.15970E+00  9152   0.719E+00 0.117E-02
CGA:   5    -0.381241845236E+03   -0.69333E-01   -0.68957E-01  9152   0.167E+00-0.323E-03
CGA:   6    -0.381265485052E+03   -0.23640E-01   -0.23639E-01  9152   0.659E-01 0.116E-03
CGA:   7    -0.381271617448E+03   -0.61324E-02   -0.61186E-02  9152   0.343E-01 0.450E-05
CGA:   8    -0.381275571153E+03   -0.39537E-02   -0.39673E-02  9152   0.969E-02 0.211E-03
CGA:   9    -0.381276948362E+03   -0.13772E-02   -0.13782E-02  9152   0.538E-02-0.948E-04
CGA:  10    -0.381277488299E+03   -0.53994E-03   -0.54146E-03  9152   0.275E-02 0.771E-05
CGA:  11    -0.381277852501E+03   -0.36420E-03   -0.36420E-03  9152   0.161E-02 0.920E-06
CGA:  12    -0.381278089039E+03   -0.23654E-03   -0.23655E-03  9152   0.105E-02 0.577E-07
CGA:  13    -0.381278246265E+03   -0.15723E-03   -0.15723E-03  9152   0.910E-03 0.494E-06
CGA:  14    -0.381278348051E+03   -0.10179E-03   -0.10191E-03  9152   0.482E-03 0.233E-05
CGA:  15    -0.381278434294E+03   -0.86243E-04   -0.86244E-04  9152   0.275E-03 0.156E-06
CGA:  16    -0.381278467091E+03   -0.32797E-04   -0.32804E-04  9152   0.217E-03 0.508E-07
CGA:  17    -0.381278493966E+03   -0.26875E-04   -0.26871E-04  9152   0.888E-04-0.327E-06
CGA:  18    -0.381278508100E+03   -0.14134E-04   -0.14140E-04  9152   0.720E-04-0.265E-06
CGA:  19    -0.381278517420E+03   -0.93195E-05   -0.93191E-05  9152   0.468E-04-0.747E-07
 166 F= -.38127852E+03 E0= -.38127408E+03  d E =0.224911E-02  mag=    58.0000
       N       E                     dE             d eps       ncg     rms          ort
SDA:   1    -0.381197044915E+03    0.81463E-01    0.00000E+00  9152   0.253E+00 0.000E+00
CGA:   2    -0.381245851659E+03   -0.48807E-01   -0.48821E-01  9152   0.193E+00-0.186E-03
CGA:   3    -0.381263039344E+03   -0.17188E-01   -0.17186E-01  9152   0.102E+00-0.339E-04
CGA:   4    -0.381274410278E+03   -0.11371E-01   -0.11417E-01  9152   0.300E-01 0.551E-03
CGA:   5    -0.381278206957E+03   -0.37967E-02   -0.37893E-02  9152   0.115E-01-0.340E-03
CGA:   6    -0.381279569278E+03   -0.13623E-02   -0.13654E-02  9152   0.321E-02 0.790E-04
CGA:   7    -0.381279898228E+03   -0.32895E-03   -0.32873E-03  9152   0.205E-02-0.101E-05
CGA:   8    -0.381280108129E+03   -0.20990E-03   -0.20992E-03  9152   0.521E-03 0.411E-07
CGA:   9    -0.381280202514E+03   -0.94385E-04   -0.94370E-04  9152   0.265E-03 0.298E-06
CGA:  10    -0.381280233292E+03   -0.30778E-04   -0.30778E-04  9152   0.179E-03-0.128E-07
CGA:  11    -0.381280253137E+03   -0.19845E-04   -0.19839E-04  9152   0.908E-04-0.123E-06
CGA:  12    -0.381280266868E+03   -0.13732E-04   -0.13731E-04  9152   0.530E-04-0.478E-07
CGA:  13    -0.381280275622E+03   -0.87541E-05   -0.87616E-05  9152   0.385E-04-0.200E-06
 167 F= -.38128028E+03 E0= -.38127586E+03  d E =-.175820E-02  mag=    58.0000
       N       E                     dE             d eps       ncg     rms          ort
SDA:   1    -0.381182025194E+03    0.98242E-01    0.00000E+00  9152   0.270E+00 0.000E+00
CGA:   2    -0.381235461518E+03   -0.53436E-01   -0.53462E-01  9152   0.353E+00-0.289E-03
CGA:   3    -0.381262696240E+03   -0.27235E-01   -0.27102E-01  9152   0.911E-01 0.578E-03
CGA:   4    -0.381274962424E+03   -0.12266E-01   -0.12265E-01  9152   0.318E-01 0.143E-02
CGA:   5    -0.381278562329E+03   -0.35999E-02   -0.35735E-02  9152   0.830E-02-0.322E-03
CGA:   6    -0.381279793179E+03   -0.12308E-02   -0.12296E-02  9152   0.260E-02 0.454E-04
CGA:   7    -0.381280056757E+03   -0.26358E-03   -0.26323E-03  9152   0.183E-02-0.165E-05
CGA:   8    -0.381280250045E+03   -0.19329E-03   -0.19329E-03  9152   0.429E-03-0.226E-06
CGA:   9    -0.381280317650E+03   -0.67605E-04   -0.67610E-04  9152   0.239E-03-0.200E-06
CGA:  10    -0.381280350459E+03   -0.32809E-04   -0.32811E-04  9152   0.119E-03-0.364E-06
CGA:  11    -0.381280365754E+03   -0.15295E-04   -0.15294E-04  9152   0.119E-03-0.373E-07
CGA:  12    -0.381280380896E+03   -0.15143E-04   -0.15144E-04  9152   0.547E-04 0.154E-06
CGA:  13    -0.381280391940E+03   -0.11044E-04   -0.11034E-04  9152   0.413E-04 0.155E-06
CGA:  14    -0.381280398703E+03   -0.67626E-05   -0.67562E-05  9152   0.311E-04 0.212E-06
 168 F= -.38128040E+03 E0= -.38127599E+03  d E =-.123081E-03  mag=    58.0000
       N       E                     dE             d eps       ncg     rms          ort
SDA:   1    -0.380158995948E+03    0.11214E+01    0.00000E+00  9152   0.282E+01 0.000E+00
CGA:   2    -0.380956831451E+03   -0.79784E+00   -0.80097E+00  9152   0.208E+01-0.208E-01
CGA:   3    -0.381122345143E+03   -0.16551E+00   -0.17471E+00  9152   0.108E+01 0.839E-02
CGA:   4    -0.381236703843E+03   -0.11436E+00   -0.11425E+00  9152   0.213E+00-0.157E-04
CGA:   5    -0.381264252164E+03   -0.27548E-01   -0.27544E-01  9152   0.879E-01-0.202E-03
CGA:   6    -0.381272652175E+03   -0.84000E-02   -0.84041E-02  9152   0.336E-01 0.778E-05
CGA:   7    -0.381276316185E+03   -0.36640E-02   -0.36830E-02  9152   0.164E-01 0.201E-03
CGA:   8    -0.381278126372E+03   -0.18102E-02   -0.17999E-02  9152   0.448E-02-0.111E-03
CGA:   9    -0.381278809523E+03   -0.68315E-03   -0.68275E-03  9152   0.318E-02 0.118E-04
CGA:  10    -0.381279083952E+03   -0.27443E-03   -0.27421E-03  9152   0.119E-02-0.746E-07
CGA:  11    -0.381279332625E+03   -0.24867E-03   -0.24865E-03  9152   0.918E-03 0.198E-06
CGA:  12    -0.381279441091E+03   -0.10847E-03   -0.10848E-03  9152   0.697E-03 0.647E-06
CGA:  13    -0.381279553266E+03   -0.11218E-03   -0.11211E-03  9152   0.564E-03 0.212E-05
CGA:  14    -0.381279623523E+03   -0.70257E-04   -0.70229E-04  9152   0.277E-03-0.411E-06
CGA:  15    -0.381279671821E+03   -0.48298E-04   -0.48249E-04  9152   0.251E-03 0.111E-05
CGA:  16    -0.381279695220E+03   -0.23399E-04   -0.23408E-04  9152   0.942E-04 0.262E-06
CGA:  17    -0.381279712483E+03   -0.17263E-04   -0.17276E-04  9152   0.666E-04-0.277E-06
CGA:  18    -0.381279720077E+03   -0.75944E-05   -0.75930E-05  9152   0.425E-04-0.729E-07
 169 F= -.38127972E+03 E0= -.38127533E+03  d E =0.678626E-03  mag=    58.0000
       N       E                     dE             d eps       ncg     rms          ort
SDA:   1    -0.376459512749E+03    0.48202E+01    0.00000E+00  9152   0.120E+02 0.000E+00
CGA:   2    -0.379973797244E+03   -0.35143E+01   -0.35116E+01  9152   0.742E+01 0.212E-01
CGA:   3    -0.380679832316E+03   -0.70604E+00   -0.70152E+00  9152   0.460E+01-0.651E-01
CGA:   4    -0.381106183008E+03   -0.42635E+00   -0.43423E+00  9152   0.794E+00 0.345E-01
CGA:   5    -0.381224082415E+03   -0.11790E+00   -0.11828E+00  9152   0.274E+00-0.251E-01
CGA:   6    -0.381255495095E+03   -0.31413E-01   -0.31858E-01  9152   0.980E-01 0.781E-02
CGA:   7    -0.381269081606E+03   -0.13587E-01   -0.13571E-01  9152   0.467E-01-0.173E-02
CGA:   8    -0.381272884273E+03   -0.38027E-02   -0.38102E-02  9152   0.200E-01-0.265E-04
CGA:   9    -0.381275625753E+03   -0.27415E-02   -0.27415E-02  9152   0.628E-02-0.140E-04
CGA:  10    -0.381276782301E+03   -0.11565E-02   -0.11564E-02  9152   0.417E-02 0.157E-05
CGA:  11    -0.381277390077E+03   -0.60778E-03   -0.60771E-03  9152   0.335E-02 0.636E-05
CGA:  12    -0.381277785020E+03   -0.39494E-03   -0.39527E-03  9152   0.240E-02 0.671E-05
CGA:  13    -0.381278139790E+03   -0.35477E-03   -0.35504E-03  9152   0.143E-02-0.141E-04
CGA:  14    -0.381278391034E+03   -0.25124E-03   -0.25083E-03  9152   0.725E-03 0.854E-05
CGA:  15    -0.381278510519E+03   -0.11949E-03   -0.11951E-03  9152   0.704E-03-0.377E-06
CGA:  16    -0.381278574911E+03   -0.64392E-04   -0.64449E-04  9152   0.256E-03 0.382E-06
CGA:  17    -0.381278620460E+03   -0.45548E-04   -0.45545E-04  9152   0.185E-03 0.647E-07
CGA:  18    -0.381278648989E+03   -0.28529E-04   -0.28532E-04  9152   0.106E-03-0.234E-06
CGA:  19    -0.381278665949E+03   -0.16960E-04   -0.16960E-04  9152   0.118E-03-0.233E-07
CGA:  20    -0.381278679012E+03   -0.13063E-04   -0.13066E-04  9152   0.524E-04-0.962E-07
CGA:  21    -0.381278689225E+03   -0.10213E-04   -0.10241E-04  9152   0.350E-04-0.499E-06
CGA:  22    -0.381278694679E+03   -0.54536E-05   -0.54574E-05  9152   0.278E-04-0.292E-06
 170 F= -.38127869E+03 E0= -.38127434E+03  d E =0.102540E-02  mag=    58.0000
       N       E                     dE             d eps       ncg     rms          ort
SDA:   1    -0.359516878434E+03    0.21762E+02    0.00000E+00  9152   0.550E+02 0.000E+00
CGA:   2    -0.375231659198E+03   -0.15715E+02   -0.15691E+02  9152   0.312E+02 0.208E+00
CGA:   3    -0.378960829200E+03   -0.37292E+01   -0.37764E+01  9152   0.184E+02 0.275E+00
CGA:   4    -0.380452287296E+03   -0.14915E+01   -0.13891E+01  9152   0.327E+01 0.159E+01
CGA:   5    -0.381027550509E+03   -0.57526E+00   -0.57575E+00  9152   0.122E+01-0.168E-01
CGA:   6    -0.381139099406E+03   -0.11155E+00   -0.12064E+00  9152   0.776E+00 0.338E-01
CGA:   7    -0.381214937587E+03   -0.75838E-01   -0.75593E-01  9152   0.221E+00 0.241E-02
CGA:   8    -0.381242125019E+03   -0.27187E-01   -0.27095E-01  9152   0.114E+00-0.171E-02
CGA:   9    -0.381256342107E+03   -0.14217E-01   -0.14276E-01  9152   0.364E-01 0.174E-02
CGA:  10    -0.381260535057E+03   -0.41929E-02   -0.41788E-02  9152   0.370E-01-0.140E-03
CGA:  11    -0.381265004858E+03   -0.44698E-02   -0.44726E-02  9152   0.108E-01 0.695E-04
CGA:  12    -0.381267558758E+03   -0.25539E-02   -0.25395E-02  9152   0.113E-01 0.132E-03
CGA:  13    -0.381268825825E+03   -0.12671E-02   -0.12564E-02  9152   0.663E-02-0.620E-04
CGA:  14    -0.381269610804E+03   -0.78498E-03   -0.78578E-03  9152   0.535E-02 0.155E-04
CGA:  15    -0.381270335408E+03   -0.72460E-03   -0.72468E-03  9152   0.187E-02 0.123E-04
CGA:  16    -0.381270682396E+03   -0.34699E-03   -0.34725E-03  9152   0.154E-02-0.330E-05
CGA:  17    -0.381270844289E+03   -0.16189E-03   -0.16230E-03  9152   0.112E-02 0.312E-05
CGA:  18    -0.381270986530E+03   -0.14224E-03   -0.14228E-03  9152   0.548E-03 0.171E-05
CGA:  19    -0.381271093868E+03   -0.10734E-03   -0.10735E-03  9152   0.466E-03-0.257E-06
CGA:  20    -0.381271168755E+03   -0.74887E-04   -0.74866E-04  9152   0.260E-03 0.440E-06
CGA:  21    -0.381271204529E+03   -0.35774E-04   -0.35765E-04  9152   0.293E-03-0.137E-05
CGA:  22    -0.381271239029E+03   -0.34501E-04   -0.34467E-04  9152   0.106E-03-0.151E-05
CGA:  23    -0.381271258263E+03   -0.19233E-04   -0.19290E-04  9152   0.720E-04-0.140E-05
CGA:  24    -0.381271270295E+03   -0.12032E-04   -0.12078E-04  9152   0.492E-04-0.164E-05
CGA:  25    -0.381271276086E+03   -0.57911E-05   -0.57712E-05  9152   0.355E-04-0.822E-06
 171 F= -.38127128E+03 E0= -.38126688E+03  d E =0.741859E-02  mag=    58.0000
       N       E                     dE             d eps       ncg     rms          ort
SDA:   1    -0.380924120532E+03    0.34715E+00    0.00000E+00  9152   0.106E+01 0.000E+00
CGA:   2    -0.381087327101E+03   -0.16321E+00   -0.16348E+00  9152   0.129E+01-0.120E-01
CGA:   3    -0.381195582966E+03   -0.10826E+00   -0.11178E+00  9152   0.380E+00-0.651E-02
CGA:   4    -0.381250647552E+03   -0.55065E-01   -0.55080E-01  9152   0.107E+00-0.148E-02
CGA:   5    -0.381264716212E+03   -0.14069E-01   -0.14084E-01  9152   0.353E-01 0.922E-03
CGA:   6    -0.381268957054E+03   -0.42408E-02   -0.42324E-02  9152   0.104E-01-0.129E-03
CGA:   7    -0.381270486795E+03   -0.15297E-02   -0.15297E-02  9152   0.426E-02 0.407E-05
CGA:   8    -0.381270905079E+03   -0.41828E-03   -0.41885E-03  9152   0.267E-02 0.109E-05
CGA:   9    -0.381271200286E+03   -0.29521E-03   -0.29479E-03  9152   0.728E-03-0.389E-05
CGA:  10    -0.381271328233E+03   -0.12795E-03   -0.12783E-03  9152   0.401E-03 0.210E-05
CGA:  11    -0.381271385395E+03   -0.57162E-04   -0.57170E-04  9152   0.232E-03-0.100E-05
CGA:  12    -0.381271422754E+03   -0.37359E-04   -0.37344E-04  9152   0.194E-03 0.449E-06
CGA:  13    -0.381271442101E+03   -0.19347E-04   -0.19353E-04  9152   0.110E-03 0.172E-06
CGA:  14    -0.381271462483E+03   -0.20382E-04   -0.20372E-04  9152   0.528E-04 0.210E-06
CGA:  15    -0.381271472145E+03   -0.96620E-05   -0.96579E-05  9152   0.381E-04 0.870E-07
 172 F= -.38127147E+03 E0= -.38126707E+03  d E =-.196059E-03  mag=    58.0000
       N       E                     dE             d eps       ncg     rms          ort
SDA:   1    -0.377885392700E+03    0.33861E+01    0.00000E+00  9152   0.846E+01 0.000E+00
CGA:   2    -0.380375605750E+03   -0.24902E+01   -0.24924E+01  9152   0.438E+01-0.138E-01
CGA:   3    -0.381017769373E+03   -0.64216E+00   -0.64274E+00  9152   0.146E+01 0.158E+00
CGA:   4    -0.381175075879E+03   -0.15731E+00   -0.14087E+00  9152   0.590E+00 0.499E-01
CGA:   5    -0.381236586659E+03   -0.61511E-01   -0.61774E-01  9152   0.198E+00 0.206E-03
CGA:   6    -0.381259944935E+03   -0.23358E-01   -0.23397E-01  9152   0.662E-01 0.518E-03
CGA:   7    -0.381270255834E+03   -0.10311E-01   -0.10320E-01  9152   0.184E-01-0.409E-03
CGA:   8    -0.381273366945E+03   -0.31111E-02   -0.31069E-02  9152   0.723E-02 0.104E-03
CGA:   9    -0.381274396990E+03   -0.10300E-02   -0.10297E-02  9152   0.361E-02-0.490E-04
CGA:  10    -0.381275050651E+03   -0.65366E-03   -0.65225E-03  9152   0.213E-02 0.278E-04
CGA:  11    -0.381275310728E+03   -0.26008E-03   -0.25970E-03  9152   0.210E-02-0.397E-05
CGA:  12    -0.381275604265E+03   -0.29354E-03   -0.29353E-03  9152   0.105E-02-0.419E-06
CGA:  13    -0.381275772545E+03   -0.16828E-03   -0.16826E-03  9152   0.697E-03 0.834E-06
CGA:  14    -0.381275901437E+03   -0.12889E-03   -0.12890E-03  9152   0.284E-03 0.703E-07
CGA:  15    -0.381275956648E+03   -0.55211E-04   -0.55120E-04  9152   0.208E-03 0.190E-05
CGA:  16    -0.381275984800E+03   -0.28152E-04   -0.28166E-04  9152   0.128E-03 0.945E-06
CGA:  17    -0.381275999440E+03   -0.14640E-04   -0.14646E-04  9152   0.101E-03 0.360E-06
CGA:  18    -0.381276015562E+03   -0.16123E-04   -0.16118E-04  9152   0.506E-04 0.283E-06
CGA:  19    -0.381276025483E+03   -0.99205E-05   -0.99437E-05  9152   0.390E-04-0.459E-06
 173 F= -.38127603E+03 E0= -.38127165E+03  d E =-.455334E-02  mag=    58.0000
       N       E                     dE             d eps       ncg     rms          ort
SDA:   1    -0.378885114380E+03    0.23909E+01    0.00000E+00  9152   0.615E+01 0.000E+00
CGA:   2    -0.380556319507E+03   -0.16712E+01   -0.16707E+01  9152   0.345E+01 0.425E-02
CGA:   3    -0.381066237068E+03   -0.50992E+00   -0.50974E+00  9152   0.150E+01-0.728E-02
CGA:   4    -0.381183655612E+03   -0.11742E+00   -0.11922E+00  9152   0.567E+00-0.713E-02
CGA:   5    -0.381249291091E+03   -0.65635E-01   -0.65293E-01  9152   0.122E+00-0.133E-02
CGA:   6    -0.381267497715E+03   -0.18207E-01   -0.18213E-01  9152   0.554E-01 0.162E-02
CGA:   7    -0.381272930847E+03   -0.54331E-02   -0.52930E-02  9152   0.241E-01 0.290E-03
CGA:   8    -0.381275769342E+03   -0.28385E-02   -0.28391E-02  9152   0.990E-02 0.442E-05
CGA:   9    -0.381276913390E+03   -0.11440E-02   -0.11443E-02  9152   0.344E-02 0.471E-05
CGA:  10    -0.381277512138E+03   -0.59875E-03   -0.59868E-03  9152   0.248E-02 0.274E-05
CGA:  11    -0.381277740372E+03   -0.22823E-03   -0.22763E-03  9152   0.124E-02 0.242E-05
CGA:  12    -0.381277983549E+03   -0.24318E-03   -0.24288E-03  9152   0.740E-03 0.442E-05
CGA:  13    -0.381278092926E+03   -0.10938E-03   -0.10938E-03  9152   0.605E-03-0.337E-05
CGA:  14    -0.381278171609E+03   -0.78683E-04   -0.78694E-04  9152   0.401E-03 0.248E-06
CGA:  15    -0.381278217312E+03   -0.45703E-04   -0.45721E-04  9152   0.173E-03 0.669E-06
CGA:  16    -0.381278248536E+03   -0.31224E-04   -0.31185E-04  9152   0.105E-03 0.110E-05
CGA:  17    -0.381278261511E+03   -0.12975E-04   -0.12993E-04  9152   0.775E-04 0.775E-06
CGA:  18    -0.381278271179E+03   -0.96675E-05   -0.96799E-05  9152   0.432E-04 0.525E-06
 174 F= -.38127827E+03 E0= -.38127397E+03  d E =-.224570E-02  mag=    58.0000
       N       E                     dE             d eps       ncg     rms          ort
SDA:   1    -0.380735386927E+03    0.54287E+00    0.00000E+00  9152   0.152E+01 0.000E+00
CGA:   2    -0.381033558733E+03   -0.29817E+00   -0.30201E+00  9152   0.192E+01-0.550E-01
CGA:   3    -0.381167101163E+03   -0.13354E+00   -0.14322E+00  9152   0.620E+00-0.412E-01
CGA:   4    -0.381250735965E+03   -0.83635E-01   -0.83639E-01  9152   0.136E+00 0.270E-03
CGA:   5    -0.381269809225E+03   -0.19073E-01   -0.19073E-01  9152   0.575E-01-0.337E-04
CGA:   6    -0.381275105278E+03   -0.52961E-02   -0.52972E-02  9152   0.215E-01-0.185E-05
CGA:   7    -0.381277440485E+03   -0.23352E-02   -0.23478E-02  9152   0.975E-02 0.765E-04
CGA:   8    -0.381278541995E+03   -0.11015E-02   -0.10959E-02  9152   0.289E-02-0.481E-04
CGA:   9    -0.381279028392E+03   -0.48640E-03   -0.48599E-03  9152   0.140E-02 0.930E-05
CGA:  10    -0.381279154704E+03   -0.12631E-03   -0.12614E-03  9152   0.766E-03 0.165E-06
CGA:  11    -0.381279280579E+03   -0.12588E-03   -0.12589E-03  9152   0.320E-03-0.397E-06
CGA:  12    -0.381279330123E+03   -0.49543E-04   -0.49543E-04  9152   0.285E-03 0.112E-06
CGA:  13    -0.381279369180E+03   -0.39057E-04   -0.39057E-04  9152   0.179E-03 0.198E-06
CGA:  14    -0.381279389776E+03   -0.20596E-04   -0.20590E-04  9152   0.107E-03 0.132E-06
CGA:  15    -0.381279409636E+03   -0.19860E-04   -0.19834E-04  9152   0.510E-04 0.527E-06
CGA:  16    -0.381279416444E+03   -0.68073E-05   -0.68067E-05  9152   0.471E-04-0.191E-07
 175 F= -.38127942E+03 E0= -.38127510E+03  d E =-.114527E-02  mag=    58.0000
       N       E                     dE             d eps       ncg     rms          ort
SDA:   1    -0.381260473557E+03    0.18936E-01    0.00000E+00  9152   0.541E-01 0.000E+00
CGA:   2    -0.381271665981E+03   -0.11192E-01   -0.11235E-01  9152   0.502E-01-0.526E-03
CGA:   3    -0.381277272273E+03   -0.56063E-02   -0.56276E-02  9152   0.130E-01 0.178E-03
CGA:   4    -0.381279092852E+03   -0.18206E-02   -0.18206E-02  9152   0.604E-02 0.100E-04
CGA:   5    -0.381279538543E+03   -0.44569E-03   -0.44226E-03  9152   0.175E-02 0.218E-04
CGA:   6    -0.381279790105E+03   -0.25156E-03   -0.25156E-03  9152   0.425E-03-0.580E-06
CGA:   7    -0.381279858805E+03   -0.68700E-04   -0.68710E-04  9152   0.222E-03-0.306E-06
CGA:   8    -0.381279878360E+03   -0.19555E-04   -0.19574E-04  9152   0.101E-03 0.438E-07
CGA:   9    -0.381279891043E+03   -0.12683E-04   -0.12685E-04  9152   0.330E-04 0.147E-06
CGA:  10    -0.381279896554E+03   -0.55108E-05   -0.55075E-05  9152   0.226E-04 0.109E-06
 176 F= -.38127990E+03 E0= -.38127558E+03  d E =-.480110E-03  mag=    58.0000
