       N       E                     dE             d eps       ncg     rms          rms(c)
DAV:   1     0.168391400111E+04    0.16839E+04   -0.75362E+04108420   0.170E+03
DAV:   2    -0.304808531616E+02   -0.17144E+04   -0.15947E+04115725   0.510E+02
DAV:   3    -0.205416020359E+03   -0.17494E+03   -0.17285E+03113065   0.180E+02
DAV:   4    -0.208917382099E+03   -0.35014E+01   -0.34884E+01120845   0.271E+01
DAV:   5    -0.209018958051E+03   -0.10158E+00   -0.10155E+00151995   0.397E+00    0.468E+01
DAV:   6    -0.159819800102E+03    0.49199E+02   -0.10400E+02137675   0.574E+01    0.337E+01
DAV:   7    -0.162736189958E+03   -0.29164E+01   -0.11225E+01120195   0.143E+01    0.220E+01
DAV:   8    -0.163139940451E+03   -0.40375E+00   -0.48320E-01123615   0.489E+00    0.130E+01
DAV:   9    -0.163252316445E+03   -0.11238E+00   -0.28861E-01115855   0.286E+00    0.310E+00
DAV:  10    -0.163261950773E+03   -0.96343E-02   -0.52029E-02118985   0.138E+00    0.134E+00
DAV:  11    -0.163260786933E+03    0.11638E-02   -0.36227E-03116445   0.324E-01    0.643E-01
DAV:  12    -0.163262319785E+03   -0.15329E-02   -0.61634E-04116580   0.150E-01    0.450E-01
DAV:  13    -0.163261825208E+03    0.49458E-03   -0.56083E-04112240   0.137E-01    0.152E-01
DAV:  14    -0.163261999196E+03   -0.17399E-03   -0.85496E-05108375   0.561E-02    0.728E-02
DAV:  15    -0.163262003790E+03   -0.45938E-05   -0.13843E-05 77165   0.268E-02
   1 F= -.16326200E+03 E0= -.16326200E+03  d E =-.163262E+03  mag=    11.9984
