       N       E                     dE             d eps       ncg     rms          rms(c)
DAV:   1     0.687729757520E+04    0.68773E+04   -0.24923E+05 33280   0.160E+03
DAV:   2     0.645606951441E+03   -0.62317E+04   -0.59133E+04 34096   0.495E+02
DAV:   3    -0.375031740285E+03   -0.10206E+04   -0.10023E+04 36720   0.199E+02
DAV:   4    -0.426998020332E+03   -0.51966E+02   -0.49835E+02 44800   0.461E+01
DAV:   5    -0.431342934520E+03   -0.43449E+01   -0.42054E+01 62160   0.102E+01    0.625E+01
DAV:   6    -0.399632401491E+03    0.31711E+02   -0.42780E+02 50720   0.552E+01    0.683E+01
DAV:   7    -0.434281607072E+03   -0.34649E+02   -0.10880E+03 49760   0.449E+01    0.594E+01
DAV:   8    -0.439803377789E+03   -0.55218E+01   -0.35067E+02 46800   0.324E+01    0.692E+01
DAV:   9    -0.411626484408E+03    0.28177E+02   -0.15051E+02 46864   0.183E+01    0.546E+01
DAV:  10    -0.395483779915E+03    0.16143E+02   -0.93243E+01 47152   0.111E+01    0.452E+01
DAV:  11    -0.391994870915E+03    0.34889E+01   -0.84281E+01 47632   0.826E+00    0.405E+01
DAV:  12    -0.385466972389E+03    0.65279E+01   -0.58173E+01 49760   0.123E+01    0.423E+01
DAV:  13    -0.381455183672E+03    0.40118E+01   -0.46468E+01 49072   0.101E+01    0.331E+01
DAV:  14    -0.381187981820E+03    0.26720E+00   -0.32035E+01 47536   0.677E+00    0.309E+01
DAV:  15    -0.383182944821E+03   -0.19950E+01   -0.17864E+01 47040   0.529E+00    0.351E+01
DAV:  16    -0.382170855723E+03    0.10121E+01   -0.11370E+01 46464   0.501E+00    0.235E+01
DAV:  17    -0.381735739598E+03    0.43512E+00   -0.17362E+00 44400   0.242E+00    0.214E+01
DAV:  18    -0.382986306541E+03   -0.12506E+01   -0.20934E+00 44224   0.300E+00    0.190E+01
DAV:  19    -0.383433930730E+03   -0.44762E+00   -0.22829E+00 44736   0.302E+00    0.199E+01
DAV:  20    -0.383631984137E+03   -0.19805E+00   -0.14028E+00 44448   0.261E+00    0.148E+01
DAV:  21    -0.383899888274E+03   -0.26790E+00   -0.11949E+00 46400   0.235E+00    0.165E+01
DAV:  22    -0.384131560971E+03   -0.23167E+00   -0.10595E+00 45248   0.230E+00    0.129E+01
DAV:  23    -0.384357989860E+03   -0.22643E+00   -0.20362E+00 47568   0.259E+00    0.177E+01
DAV:  24    -0.384230800472E+03    0.12719E+00   -0.11022E+00 46896   0.217E+00    0.134E+01
DAV:  25    -0.384041640920E+03    0.18916E+00   -0.12418E+00 46432   0.196E+00    0.136E+01
DAV:  26    -0.384018317713E+03    0.23323E-01   -0.30397E-01 47184   0.139E+00    0.104E+01
DAV:  27    -0.384074779869E+03   -0.56462E-01   -0.23974E-01 45408   0.870E-01    0.861E+00
DAV:  28    -0.384106943146E+03   -0.32163E-01   -0.27956E-01 41568   0.920E-01    0.735E+00
DAV:  29    -0.384168102925E+03   -0.61160E-01   -0.20227E-01 42464   0.679E-01    0.708E+00
DAV:  30    -0.384169840690E+03   -0.17378E-02   -0.18306E-02 42768   0.392E-01    0.638E+00
DAV:  31    -0.384131032543E+03    0.38808E-01   -0.11435E-01 48304   0.848E-01    0.546E+00
DAV:  32    -0.384115285316E+03    0.15747E-01   -0.16352E-01 42928   0.898E-01    0.543E+00
DAV:  33    -0.384155554494E+03   -0.40269E-01   -0.53746E-02 42000   0.648E-01    0.444E+00
DAV:  34    -0.384171283983E+03   -0.15729E-01   -0.81656E-02 46464   0.743E-01    0.398E+00
DAV:  35    -0.384179869435E+03   -0.85855E-02   -0.80053E-02 45168   0.562E-01    0.322E+00
DAV:  36    -0.384195085619E+03   -0.15216E-01   -0.37805E-02 42016   0.526E-01    0.223E+00
DAV:  37    -0.384200084068E+03   -0.49984E-02   -0.21700E-02 42304   0.317E-01    0.224E+00
DAV:  38    -0.384193483915E+03    0.66002E-02   -0.27807E-02 44304   0.354E-01    0.152E+00
DAV:  39    -0.384195705431E+03   -0.22215E-02   -0.17983E-02 44688   0.338E-01    0.130E+00
DAV:  40    -0.384199528980E+03   -0.38235E-02   -0.92334E-03 43440   0.217E-01    0.117E+00
DAV:  41    -0.384200758091E+03   -0.12291E-02   -0.43595E-03 44736   0.184E-01    0.978E-01
DAV:  42    -0.384201665310E+03   -0.90722E-03   -0.73452E-03 46784   0.225E-01    0.882E-01
DAV:  43    -0.384201674432E+03   -0.91222E-05   -0.40041E-03 46352   0.175E-01    0.628E-01
DAV:  44    -0.384202440336E+03   -0.76590E-03   -0.20599E-03 45504   0.103E-01    0.526E-01
DAV:  45    -0.384202782963E+03   -0.34263E-03   -0.80876E-04 41760   0.731E-02    0.443E-01
DAV:  46    -0.384202831671E+03   -0.48708E-04   -0.10514E-03 43952   0.785E-02    0.242E-01
DAV:  47    -0.384202946579E+03   -0.11491E-03   -0.52660E-04 43744   0.597E-02    0.264E-01
DAV:  48    -0.384203107273E+03   -0.16069E-03   -0.36599E-04 40896   0.417E-02    0.304E-01
DAV:  49    -0.384203001683E+03    0.10559E-03   -0.56429E-04 43712   0.581E-02    0.175E-01
DAV:  50    -0.384203016141E+03   -0.14458E-04   -0.37378E-04 39264   0.378E-02    0.149E-01
DAV:  51    -0.384203093573E+03   -0.77432E-04   -0.17012E-04 37568   0.278E-02    0.118E-01
DAV:  52    -0.384203124628E+03   -0.31055E-04   -0.13429E-04 31648   0.230E-02    0.151E-01
DAV:  53    -0.384203145615E+03   -0.20986E-04   -0.13473E-04 35520   0.252E-02    0.793E-02
DAV:  54    -0.384203160308E+03   -0.14693E-04   -0.83199E-05 31008   0.160E-02    0.678E-02
DAV:  55    -0.384203164582E+03   -0.42736E-05   -0.24656E-05 27616   0.109E-02
   1 F= -.38420316E+03 E0= -.38418293E+03  d E =-.384203E+03  mag=    19.9780
       N       E                     dE             d eps       ncg     rms          rms(c)
DAV:   1    -0.384148155812E+03    0.55004E-01   -0.14438E+01 36400   0.103E+01    0.148E+00
DAV:   2    -0.384278925607E+03   -0.13077E+00   -0.13119E+00 33856   0.210E+00    0.330E+00
DAV:   3    -0.384268533588E+03    0.10392E-01   -0.18415E-01 46464   0.842E-01    0.222E+00
DAV:   4    -0.384273135075E+03   -0.46015E-02   -0.83180E-02 47648   0.516E-01    0.299E+00
DAV:   5    -0.384260275836E+03    0.12859E-01   -0.95324E-02 47056   0.384E-01    0.117E+00
DAV:   6    -0.384262309956E+03   -0.20341E-02   -0.36084E-02 49424   0.307E-01    0.168E+00
DAV:   7    -0.384259455204E+03    0.28548E-02   -0.27175E-02 47616   0.323E-01    0.149E+00
DAV:   8    -0.384258289982E+03    0.11652E-02   -0.16364E-02 47392   0.275E-01    0.126E+00
DAV:   9    -0.384259094134E+03   -0.80415E-03   -0.13450E-02 47184   0.252E-01    0.107E+00
DAV:  10    -0.384260049778E+03   -0.95564E-03   -0.14768E-02 47232   0.238E-01    0.123E+00
DAV:  11    -0.384259544475E+03    0.50530E-03   -0.76744E-03 47280   0.165E-01    0.967E-01
DAV:  12    -0.384259056265E+03    0.48821E-03   -0.22921E-03 46896   0.113E-01    0.688E-01
DAV:  13    -0.384259002045E+03    0.54221E-04   -0.10834E-03 47312   0.988E-02    0.613E-01
DAV:  14    -0.384258838260E+03    0.16379E-03   -0.11980E-03 47536   0.962E-02    0.502E-01
DAV:  15    -0.384258685328E+03    0.15293E-03   -0.10710E-03 47584   0.976E-02    0.401E-01
DAV:  16    -0.384258694690E+03   -0.93625E-05   -0.95562E-04 46160   0.898E-02    0.350E-01
DAV:  17    -0.384258742761E+03   -0.48070E-04   -0.83767E-04 46144   0.706E-02    0.303E-01
DAV:  18    -0.384258806106E+03   -0.63345E-04   -0.79986E-04 44016   0.680E-02    0.311E-01
DAV:  19    -0.384258669949E+03    0.13616E-03   -0.54484E-04 43280   0.533E-02    0.157E-01
DAV:  20    -0.384258705999E+03   -0.36050E-04   -0.38147E-04 41728   0.384E-02    0.142E-01
DAV:  21    -0.384258699050E+03    0.69494E-05   -0.23913E-04 33088   0.288E-02    0.109E-01
DAV:  22    -0.384258697136E+03    0.19138E-05   -0.10390E-04 34272   0.215E-02    0.582E-02
DAV:  23    -0.384258704635E+03   -0.74987E-05   -0.69947E-05 32320   0.160E-02
   2 F= -.38425870E+03 E0= -.38423790E+03  d E =-.555401E-01  mag=    19.9970
       N       E                     dE             d eps       ncg     rms          rms(c)
DAV:   1    -0.383355187155E+03    0.90351E+00   -0.13005E+02 37280   0.310E+01    0.498E+00
DAV:   2    -0.385194336049E+03   -0.18391E+01   -0.15301E+01 37216   0.687E+00    0.175E+01
DAV:   3    -0.384610190408E+03    0.58415E+00   -0.29492E+00 43184   0.346E+00    0.116E+01
DAV:   4    -0.384519151037E+03    0.91039E-01   -0.19869E+00 46992   0.191E+00    0.737E+00
DAV:   5    -0.384473361399E+03    0.45790E-01   -0.37795E-01 47344   0.167E+00    0.769E+00
DAV:   6    -0.384410418612E+03    0.62943E-01   -0.23899E-01 47280   0.106E+00    0.450E+00
DAV:   7    -0.384407888552E+03    0.25301E-02   -0.26413E-01 47328   0.953E-01    0.465E+00
DAV:   8    -0.384387577024E+03    0.20312E-01   -0.13667E-01 46544   0.810E-01    0.373E+00
DAV:   9    -0.384389179741E+03   -0.16027E-02   -0.18254E-01 47408   0.859E-01    0.428E+00
DAV:  10    -0.384386626781E+03    0.25530E-02   -0.16046E-01 47440   0.829E-01    0.378E+00
DAV:  11    -0.384423469046E+03   -0.36842E-01   -0.20000E-01 46640   0.792E-01    0.528E+00
DAV:  12    -0.384409443608E+03    0.14025E-01   -0.71654E-02 46368   0.548E-01    0.450E+00
DAV:  13    -0.384401572778E+03    0.78708E-02   -0.26932E-02 47616   0.392E-01    0.349E+00
DAV:  14    -0.384398038616E+03    0.35342E-02   -0.17976E-02 47744   0.353E-01    0.286E+00
DAV:  15    -0.384403061512E+03   -0.50229E-02   -0.16634E-02 47616   0.377E-01    0.310E+00
DAV:  16    -0.384405685846E+03   -0.26243E-02   -0.15603E-02 46912   0.337E-01    0.331E+00
DAV:  17    -0.384400698842E+03    0.49870E-02   -0.14806E-02 46672   0.341E-01    0.278E+00
DAV:  18    -0.384392985566E+03    0.77133E-02   -0.14898E-02 46192   0.312E-01    0.173E+00
DAV:  19    -0.384395451384E+03   -0.24658E-02   -0.84137E-03 43440   0.193E-01    0.188E+00
DAV:  20    -0.384394908191E+03    0.54319E-03   -0.60857E-03 46080   0.144E-01    0.174E+00
DAV:  21    -0.384393316164E+03    0.15920E-02   -0.34682E-03 43216   0.136E-01    0.132E+00
DAV:  22    -0.384393119325E+03    0.19684E-03   -0.40311E-03 44704   0.152E-01    0.934E-01
DAV:  23    -0.384393706583E+03   -0.58726E-03   -0.24025E-03 43184   0.117E-01    0.791E-01
DAV:  24    -0.384393688340E+03    0.18244E-04   -0.14453E-03 43504   0.955E-02    0.638E-01
DAV:  25    -0.384393848212E+03   -0.15987E-03   -0.47934E-04 42480   0.525E-02    0.615E-01
DAV:  26    -0.384394049045E+03   -0.20083E-03   -0.44437E-04 40208   0.481E-02    0.601E-01
DAV:  27    -0.384393976557E+03    0.72488E-04   -0.57944E-04 40976   0.487E-02    0.419E-01
DAV:  28    -0.384394081233E+03   -0.10468E-03   -0.32018E-04 38896   0.331E-02    0.364E-01
DAV:  29    -0.384394111198E+03   -0.29965E-04   -0.21042E-04 37168   0.258E-02    0.274E-01
DAV:  30    -0.384394166446E+03   -0.55248E-04   -0.24453E-04 38304   0.263E-02    0.197E-01
DAV:  31    -0.384394189948E+03   -0.23502E-04   -0.81949E-05 34080   0.162E-02    0.151E-01
DAV:  32    -0.384394203151E+03   -0.13203E-04   -0.39727E-05 31104   0.120E-02    0.121E-01
DAV:  33    -0.384394230065E+03   -0.26914E-04   -0.62356E-05 32864   0.130E-02    0.119E-01
DAV:  34    -0.384394232444E+03   -0.23797E-05   -0.32827E-05 30720   0.105E-02
   3 F= -.38439423E+03 E0= -.38437331E+03  d E =-.191068E+00  mag=    20.0000
       N       E                     dE             d eps       ncg     rms          rms(c)
DAV:   1    -0.379886033420E+03    0.45082E+01   -0.52139E+02 37120   0.616E+01    0.104E+01
DAV:   2    -0.389635395426E+03   -0.97494E+01   -0.60368E+01 37520   0.149E+01    0.401E+01
DAV:   3    -0.384870969675E+03    0.47644E+01   -0.43413E+01 45152   0.841E+00    0.123E+01
DAV:   4    -0.384734945035E+03    0.13602E+00   -0.23418E+00 46560   0.440E+00    0.140E+01
DAV:   5    -0.384263761613E+03    0.47118E+00   -0.15841E+00 47456   0.327E+00    0.103E+01
DAV:   6    -0.384125480322E+03    0.13828E+00   -0.86754E-01 46912   0.193E+00    0.843E+00
DAV:   7    -0.384051343102E+03    0.74137E-01   -0.32194E-01 47696   0.192E+00    0.722E+00
DAV:   8    -0.384048936256E+03    0.24068E-02   -0.49758E-01 46832   0.135E+00    0.571E+00
DAV:   9    -0.384065887653E+03   -0.16951E-01   -0.13813E-01 47024   0.108E+00    0.376E+00
DAV:  10    -0.384108384707E+03   -0.42497E-01   -0.10037E-01 46784   0.765E-01    0.408E+00
DAV:  11    -0.384113993332E+03   -0.56086E-02   -0.54575E-02 46560   0.499E-01    0.385E+00
DAV:  12    -0.384110581270E+03    0.34121E-02   -0.51785E-03 40576   0.174E-01    0.352E+00
DAV:  13    -0.384116737569E+03   -0.61563E-02   -0.25792E-02 47296   0.326E-01    0.354E+00
DAV:  14    -0.384123917036E+03   -0.71795E-02   -0.12130E-01 47584   0.900E-01    0.470E+00
DAV:  15    -0.384102106942E+03    0.21810E-01   -0.25197E-01 47680   0.881E-01    0.224E+00
DAV:  16    -0.384106544900E+03   -0.44380E-02   -0.51621E-02 46816   0.651E-01    0.229E+00
DAV:  17    -0.384099427259E+03    0.71176E-02   -0.38813E-02 47520   0.500E-01    0.199E+00
DAV:  18    -0.384096968711E+03    0.24585E-02   -0.12406E-02 46528   0.247E-01    0.138E+00
DAV:  19    -0.384097583833E+03   -0.61512E-03   -0.61981E-03 45456   0.180E-01    0.134E+00
DAV:  20    -0.384099825873E+03   -0.22420E-02   -0.14626E-02 47856   0.305E-01    0.160E+00
DAV:  21    -0.384096665052E+03    0.31608E-02   -0.16395E-02 47360   0.319E-01    0.108E+00
DAV:  22    -0.384096595727E+03    0.69325E-04   -0.13026E-02 46896   0.211E-01    0.582E-01
DAV:  23    -0.384096811494E+03   -0.21577E-03   -0.18073E-03 44064   0.122E-01    0.555E-01
DAV:  24    -0.384096543729E+03    0.26776E-03   -0.10445E-03 45856   0.853E-02    0.413E-01
DAV:  25    -0.384096379833E+03    0.16390E-03   -0.91310E-04 47056   0.611E-02    0.237E-01
DAV:  26    -0.384096400355E+03   -0.20522E-04   -0.51795E-04 41136   0.477E-02    0.135E-01
DAV:  27    -0.384096430075E+03   -0.29719E-04   -0.14482E-04 36064   0.319E-02    0.779E-02
DAV:  28    -0.384096440458E+03   -0.10384E-04   -0.52579E-05 33536   0.211E-02    0.584E-02
DAV:  29    -0.384096436321E+03    0.41369E-05   -0.21367E-05 28880   0.130E-02
   4 F= -.38409644E+03 E0= -.38407628E+03  d E =0.106728E+00  mag=    19.9838
       N       E                     dE             d eps       ncg     rms          rms(c)
DAV:   1    -0.381440767057E+03    0.26557E+01   -0.39385E+02 36736   0.527E+01    0.886E+00
DAV:   2    -0.393153338919E+03   -0.11713E+02   -0.46870E+01 36608   0.145E+01    0.479E+01
DAV:   3    -0.384597098190E+03    0.85562E+01   -0.42277E+01 45024   0.846E+00    0.108E+01
DAV:   4    -0.384499900018E+03    0.97198E-01   -0.19388E+00 46672   0.325E+00    0.118E+01
DAV:   5    -0.384477312103E+03    0.22588E-01   -0.19611E+00 45776   0.259E+00    0.127E+01
DAV:   6    -0.384384435911E+03    0.92876E-01   -0.16976E+00 47072   0.191E+00    0.731E+00
DAV:   7    -0.384441165728E+03   -0.56730E-01   -0.37164E-01 47440   0.154E+00    0.754E+00
DAV:   8    -0.384449924571E+03   -0.87588E-02   -0.53979E-01 46864   0.109E+00    0.583E+00
DAV:   9    -0.384458300316E+03   -0.83757E-02   -0.18102E-01 48080   0.945E-01    0.580E+00
DAV:  10    -0.384458546526E+03   -0.24621E-03   -0.20543E-01 46912   0.948E-01    0.521E+00
DAV:  11    -0.384432500753E+03    0.26046E-01   -0.11272E-01 48368   0.757E-01    0.465E+00
DAV:  12    -0.384418776817E+03    0.13724E-01   -0.19301E-01 48336   0.907E-01    0.451E+00
DAV:  13    -0.384427074863E+03   -0.82980E-02   -0.15402E-01 47520   0.891E-01    0.420E+00
DAV:  14    -0.384428082798E+03   -0.10079E-02   -0.22737E-01 47312   0.874E-01    0.471E+00
DAV:  15    -0.384401753892E+03    0.26329E-01   -0.91056E-02 47392   0.662E-01    0.210E+00
DAV:  16    -0.384416767317E+03   -0.15013E-01   -0.69543E-02 47312   0.616E-01    0.321E+00
DAV:  17    -0.384402973017E+03    0.13794E-01   -0.73601E-02 46768   0.473E-01    0.176E+00
DAV:  18    -0.384403768364E+03   -0.79535E-03   -0.23533E-02 47376   0.378E-01    0.166E+00
DAV:  19    -0.384401668353E+03    0.21000E-02   -0.86543E-03 46464   0.228E-01    0.100E+00
DAV:  20    -0.384401526557E+03    0.14180E-03   -0.33679E-03 47296   0.147E-01    0.104E+00
DAV:  21    -0.384400822357E+03    0.70420E-03   -0.31736E-03 45664   0.155E-01    0.102E+00
DAV:  22    -0.384401524447E+03   -0.70209E-03   -0.11857E-02 45392   0.281E-01    0.919E-01
DAV:  23    -0.384403164869E+03   -0.16404E-02   -0.55808E-03 44400   0.175E-01    0.877E-01
DAV:  24    -0.384403275613E+03   -0.11074E-03   -0.20238E-03 43808   0.119E-01    0.864E-01
DAV:  25    -0.384402841504E+03    0.43411E-03   -0.14422E-03 43424   0.941E-02    0.674E-01
DAV:  26    -0.384402610946E+03    0.23056E-03   -0.15957E-03 45312   0.102E-01    0.441E-01
DAV:  27    -0.384402624404E+03   -0.13458E-04   -0.83856E-04 45264   0.898E-02    0.281E-01
DAV:  28    -0.384402585909E+03    0.38495E-04   -0.58358E-04 45744   0.516E-02    0.187E-01
DAV:  29    -0.384402598940E+03   -0.13032E-04   -0.22818E-04 39040   0.383E-02    0.135E-01
DAV:  30    -0.384402592096E+03    0.68444E-05   -0.84461E-05 35344   0.223E-02
   5 F= -.38440259E+03 E0= -.38438151E+03  d E =-.199428E+00  mag=    19.9980
       N       E                     dE             d eps       ncg     rms          rms(c)
DAV:   1    -0.384397780158E+03    0.48188E-02   -0.27172E+00 37584   0.455E+00    0.523E-01
DAV:   2    -0.384427897570E+03   -0.30117E-01   -0.29201E-01 34288   0.891E-01    0.116E+00
DAV:   3    -0.384430945511E+03   -0.30479E-02   -0.49661E-02 47456   0.329E-01    0.164E+00
DAV:   4    -0.384427481834E+03    0.34637E-02   -0.12189E-02 46688   0.196E-01    0.768E-01
DAV:   5    -0.384427026730E+03    0.45510E-03   -0.27050E-03 51264   0.114E-01    0.542E-01
DAV:   6    -0.384426860150E+03    0.16658E-03   -0.46604E-04 44400   0.489E-02    0.456E-01
DAV:   7    -0.384426591471E+03    0.26868E-03   -0.91658E-04 46400   0.701E-02    0.469E-01
DAV:   8    -0.384427084543E+03   -0.49307E-03   -0.33154E-03 46736   0.103E-01    0.791E-01
DAV:   9    -0.384426698693E+03    0.38585E-03   -0.29772E-03 47152   0.132E-01    0.512E-01
DAV:  10    -0.384426616841E+03    0.81852E-04   -0.27071E-03 47392   0.120E-01    0.332E-01
DAV:  11    -0.384426901395E+03   -0.28455E-03   -0.13781E-03 46608   0.769E-02    0.430E-01
DAV:  12    -0.384426759462E+03    0.14193E-03   -0.10472E-03 41632   0.587E-02    0.283E-01
DAV:  13    -0.384426761954E+03   -0.24919E-05   -0.64254E-04 37904   0.509E-02    0.263E-01
DAV:  14    -0.384426755024E+03    0.69302E-05   -0.25284E-04 38016   0.425E-02    0.241E-01
DAV:  15    -0.384426749812E+03    0.52117E-05   -0.20318E-04 38144   0.401E-02    0.242E-01
DAV:  16    -0.384426728274E+03    0.21538E-04   -0.16974E-04 36944   0.350E-02    0.226E-01
DAV:  17    -0.384426714411E+03    0.13863E-04   -0.18678E-04 41760   0.366E-02    0.188E-01
DAV:  18    -0.384426704223E+03    0.10189E-04   -0.87636E-05 32384   0.226E-02    0.165E-01
DAV:  19    -0.384426694877E+03    0.93462E-05   -0.60322E-05 33568   0.216E-02
   6 F= -.38442669E+03 E0= -.38440548E+03  d E =-.241028E-01  mag=    19.9993
       N       E                     dE             d eps       ncg     rms          rms(c)
DAV:   1    -0.384217298274E+03    0.20941E+00   -0.24406E+01 37648   0.137E+01    0.162E+00
DAV:   2    -0.384490444242E+03   -0.27315E+00   -0.26761E+00 33312   0.268E+00    0.288E+00
DAV:   3    -0.384506048333E+03   -0.15604E-01   -0.25702E-01 46704   0.899E-01    0.357E+00
DAV:   4    -0.384492992798E+03    0.13056E-01   -0.10612E-01 47696   0.567E-01    0.244E+00
DAV:   5    -0.384486822648E+03    0.61701E-02   -0.49333E-02 47184   0.435E-01    0.198E+00
DAV:   6    -0.384483867196E+03    0.29555E-02   -0.10423E-02 49120   0.219E-01    0.147E+00
DAV:   7    -0.384481201471E+03    0.26657E-02   -0.21410E-02 46672   0.314E-01    0.162E+00
DAV:   8    -0.384481037934E+03    0.16354E-03   -0.37659E-02 46992   0.416E-01    0.202E+00
DAV:   9    -0.384486910812E+03   -0.58729E-02   -0.45350E-02 47888   0.426E-01    0.243E+00
DAV:  10    -0.384483273632E+03    0.36372E-02   -0.25601E-02 47232   0.360E-01    0.118E+00
DAV:  11    -0.384483542308E+03   -0.26868E-03   -0.77460E-03 47456   0.193E-01    0.977E-01
DAV:  12    -0.384484264488E+03   -0.72218E-03   -0.83898E-03 46768   0.150E-01    0.111E+00
DAV:  13    -0.384483485559E+03    0.77893E-03   -0.19931E-03 46432   0.903E-02    0.836E-01
DAV:  14    -0.384483778293E+03   -0.29273E-03   -0.30230E-03 47600   0.149E-01    0.943E-01
DAV:  15    -0.384482914284E+03    0.86401E-03   -0.50380E-03 47136   0.157E-01    0.658E-01
DAV:  16    -0.384482602740E+03    0.31154E-03   -0.18050E-03 46992   0.105E-01    0.516E-01
DAV:  17    -0.384482547001E+03    0.55738E-04   -0.18393E-03 46176   0.101E-01    0.396E-01
DAV:  18    -0.384482450144E+03    0.96858E-04   -0.51257E-04 46640   0.631E-02    0.290E-01
DAV:  19    -0.384482472173E+03   -0.22030E-04   -0.42118E-04 40480   0.441E-02    0.234E-01
DAV:  20    -0.384482435580E+03    0.36593E-04   -0.30862E-04 40992   0.416E-02    0.178E-01
DAV:  21    -0.384482446745E+03   -0.11165E-04   -0.19439E-04 38128   0.397E-02    0.193E-01
DAV:  22    -0.384482392739E+03    0.54006E-04   -0.24018E-04 36976   0.411E-02    0.112E-01
DAV:  23    -0.384482400301E+03   -0.75620E-05   -0.92136E-05 31920   0.221E-02
   7 F= -.38448240E+03 E0= -.38446073E+03  d E =-.798082E-01  mag=    19.9999
       N       E                     dE             d eps       ncg     rms          rms(c)
DAV:   1    -0.383470139755E+03    0.10123E+01   -0.97987E+01 38096   0.272E+01    0.374E+00
DAV:   2    -0.385106285041E+03   -0.16361E+01   -0.13149E+01 35424   0.592E+00    0.151E+01
DAV:   3    -0.384595925409E+03    0.51036E+00   -0.21973E+00 45680   0.271E+00    0.714E+00
DAV:   4    -0.384540168617E+03    0.55757E-01   -0.61990E-01 47888   0.163E+00    0.477E+00
DAV:   5    -0.384554414543E+03   -0.14246E-01   -0.23124E-01 47952   0.113E+00    0.590E+00
DAV:   6    -0.384513328291E+03    0.41086E-01   -0.25089E-01 47424   0.985E-01    0.322E+00
DAV:   7    -0.384514458677E+03   -0.11304E-02   -0.17006E-01 47520   0.771E-01    0.320E+00
DAV:   8    -0.384514846243E+03   -0.38757E-03   -0.10187E-01 47616   0.688E-01    0.359E+00
DAV:   9    -0.384505051070E+03    0.97952E-02   -0.99842E-02 47440   0.637E-01    0.210E+00
DAV:  10    -0.384509608954E+03   -0.45579E-02   -0.53780E-02 47360   0.484E-01    0.222E+00
DAV:  11    -0.384508452145E+03    0.11568E-02   -0.33426E-02 47008   0.393E-01    0.141E+00
DAV:  12    -0.384508271969E+03    0.18018E-03   -0.97765E-03 47744   0.283E-01    0.106E+00
DAV:  13    -0.384508821335E+03   -0.54937E-03   -0.12828E-02 46416   0.231E-01    0.116E+00
DAV:  14    -0.384507412046E+03    0.14093E-02   -0.61617E-03 47280   0.213E-01    0.869E-01
DAV:  15    -0.384507511761E+03   -0.99715E-04   -0.57032E-03 47120   0.210E-01    0.943E-01
DAV:  16    -0.384505960534E+03    0.15512E-02   -0.65132E-03 46608   0.225E-01    0.624E-01
DAV:  17    -0.384506387642E+03   -0.42711E-03   -0.45742E-03 45120   0.163E-01    0.624E-01
DAV:  18    -0.384506444483E+03   -0.56841E-04   -0.26701E-03 47248   0.141E-01    0.620E-01
DAV:  19    -0.384505919957E+03    0.52453E-03   -0.30243E-03 45504   0.135E-01    0.274E-01
DAV:  20    -0.384505858004E+03    0.61953E-04   -0.87603E-04 44128   0.646E-02    0.121E-01
DAV:  21    -0.384505882341E+03   -0.24337E-04   -0.16767E-04 39136   0.323E-02    0.979E-02
DAV:  22    -0.384505879612E+03    0.27285E-05   -0.64551E-05 33360   0.250E-02
   8 F= -.38450588E+03 E0= -.38448479E+03  d E =-.103288E+00  mag=    20.0000
       N       E                     dE             d eps       ncg     rms          rms(c)
DAV:   1    -0.384400334402E+03    0.10555E+00   -0.11050E+01 37392   0.890E+00    0.101E+00
DAV:   2    -0.384519155200E+03   -0.11882E+00   -0.11484E+00 33440   0.177E+00    0.221E+00
DAV:   3    -0.384521954760E+03   -0.27996E-02   -0.14327E-01 47216   0.685E-01    0.234E+00
DAV:   4    -0.384518439699E+03    0.35151E-02   -0.76227E-02 50128   0.454E-01    0.190E+00
DAV:   5    -0.384513445709E+03    0.49940E-02   -0.15792E-02 48432   0.256E-01    0.758E-01
DAV:   6    -0.384513453431E+03   -0.77211E-05   -0.45196E-03 49808   0.139E-01    0.747E-01
DAV:   7    -0.384512672751E+03    0.78068E-03   -0.75376E-03 47168   0.155E-01    0.782E-01
DAV:   8    -0.384513101003E+03   -0.42825E-03   -0.13165E-02 47504   0.201E-01    0.111E+00
DAV:   9    -0.384513234383E+03   -0.13338E-03   -0.98060E-03 47712   0.223E-01    0.108E+00
DAV:  10    -0.384512944933E+03    0.28945E-03   -0.79363E-03 47392   0.205E-01    0.671E-01
DAV:  11    -0.384512652075E+03    0.29286E-03   -0.17594E-03 47056   0.104E-01    0.426E-01
DAV:  12    -0.384512846088E+03   -0.19401E-03   -0.95495E-04 45808   0.631E-02    0.485E-01
DAV:  13    -0.384512646638E+03    0.19945E-03   -0.79845E-04 43760   0.518E-02    0.342E-01
DAV:  14    -0.384512692929E+03   -0.46292E-04   -0.88925E-04 44928   0.631E-02    0.389E-01
DAV:  15    -0.384512502274E+03    0.19066E-03   -0.11378E-03 46816   0.825E-02    0.259E-01
DAV:  16    -0.384512421328E+03    0.80946E-04   -0.58565E-04 46944   0.647E-02    0.166E-01
DAV:  17    -0.384512419343E+03    0.19845E-05   -0.19768E-04 38992   0.400E-02    0.124E-01
DAV:  18    -0.384512415483E+03    0.38600E-05   -0.86852E-05 31952   0.286E-02
   9 F= -.38451242E+03 E0= -.38449111E+03  d E =-.109823E+00  mag=    20.0000
       N       E                     dE             d eps       ncg     rms          rms(c)
DAV:   1    -0.384548266788E+03   -0.35847E-01   -0.51747E+00 35440   0.609E+00    0.920E-01
DAV:   2    -0.384578667601E+03   -0.30401E-01   -0.33775E-01 34208   0.129E+00    0.240E+00
DAV:   3    -0.384573533652E+03    0.51339E-02   -0.10052E-01 46752   0.582E-01    0.172E+00
DAV:   4    -0.384574381699E+03   -0.84805E-03   -0.50510E-02 47536   0.420E-01    0.184E+00
DAV:   5    -0.384569590731E+03    0.47910E-02   -0.36756E-02 47552   0.326E-01    0.108E+00
DAV:   6    -0.384568939063E+03    0.65167E-03   -0.15391E-02 48480   0.236E-01    0.923E-01
DAV:   7    -0.384570081770E+03   -0.11427E-02   -0.11648E-02 47424   0.234E-01    0.119E+00
DAV:   8    -0.384568031169E+03    0.20506E-02   -0.69566E-03 47424   0.201E-01    0.568E-01
DAV:   9    -0.384567832668E+03    0.19850E-03   -0.18415E-03 47072   0.113E-01    0.391E-01
DAV:  10    -0.384567771505E+03    0.61163E-04   -0.72675E-04 46544   0.666E-02    0.293E-01
DAV:  11    -0.384567683164E+03    0.88341E-04   -0.44418E-04 43824   0.602E-02    0.225E-01
DAV:  12    -0.384567746792E+03   -0.63627E-04   -0.73510E-04 39728   0.539E-02    0.304E-01
DAV:  13    -0.384567769686E+03   -0.22894E-04   -0.14625E-03 40576   0.651E-02    0.298E-01
DAV:  14    -0.384567634370E+03    0.13532E-03   -0.76746E-04 40128   0.568E-02    0.130E-01
DAV:  15    -0.384567619087E+03    0.15283E-04   -0.12653E-04 34752   0.311E-02    0.931E-02
DAV:  16    -0.384567631116E+03   -0.12028E-04   -0.11947E-04 33824   0.328E-02    0.116E-01
DAV:  17    -0.384567614972E+03    0.16144E-04   -0.14166E-04 31808   0.305E-02    0.798E-02
DAV:  18    -0.384567623323E+03   -0.83512E-05   -0.10243E-04 31616   0.230E-02    0.858E-02
DAV:  19    -0.384567619035E+03    0.42881E-05   -0.40576E-05 29104   0.169E-02
  10 F= -.38456762E+03 E0= -.38454624E+03  d E =-.552036E-01  mag=    20.0000
       N       E                     dE             d eps       ncg     rms          rms(c)
DAV:   1    -0.384501731159E+03    0.65892E-01   -0.46589E+01 35776   0.182E+01    0.281E+00
DAV:   2    -0.384845552535E+03   -0.34382E+00   -0.33614E+00 35344   0.399E+00    0.916E+00
DAV:   3    -0.384717037045E+03    0.12852E+00   -0.97080E-01 45728   0.177E+00    0.390E+00
DAV:   4    -0.384741077660E+03   -0.24041E-01   -0.30626E-01 48000   0.127E+00    0.552E+00
DAV:   5    -0.384708875796E+03    0.32202E-01   -0.46120E-01 47424   0.105E+00    0.404E+00
DAV:   6    -0.384677156139E+03    0.31720E-01   -0.97217E-02 48448   0.809E-01    0.182E+00
DAV:   7    -0.384695519662E+03   -0.18364E-01   -0.70658E-02 47680   0.709E-01    0.364E+00
DAV:   8    -0.384688000529E+03    0.75191E-02   -0.96020E-02 46960   0.630E-01    0.286E+00
DAV:   9    -0.384679164748E+03    0.88358E-02   -0.29087E-02 47088   0.405E-01    0.175E+00
DAV:  10    -0.384676875661E+03    0.22891E-02   -0.85335E-03 46624   0.205E-01    0.996E-01
DAV:  11    -0.384676818090E+03    0.57571E-04   -0.50760E-03 47248   0.183E-01    0.973E-01
DAV:  12    -0.384678071579E+03   -0.12535E-02   -0.10963E-02 47040   0.199E-01    0.124E+00
DAV:  13    -0.384676094236E+03    0.19773E-02   -0.11370E-02 46832   0.211E-01    0.751E-01
DAV:  14    -0.384676430271E+03   -0.33603E-03   -0.68226E-03 47632   0.184E-01    0.934E-01
DAV:  15    -0.384674943474E+03    0.14868E-02   -0.43310E-03 47424   0.159E-01    0.448E-01
DAV:  16    -0.384675704434E+03   -0.76096E-03   -0.46898E-03 47328   0.156E-01    0.713E-01
DAV:  17    -0.384675002746E+03    0.70169E-03   -0.33265E-03 47264   0.123E-01    0.287E-01
DAV:  18    -0.384675140445E+03   -0.13770E-03   -0.64207E-04 46832   0.650E-02    0.299E-01
DAV:  19    -0.384675050392E+03    0.90053E-04   -0.30304E-04 44288   0.554E-02    0.200E-01
DAV:  20    -0.384675028508E+03    0.21883E-04   -0.25404E-04 39632   0.460E-02    0.172E-01
DAV:  21    -0.384675035005E+03   -0.64965E-05   -0.23118E-04 37248   0.453E-02    0.188E-01
DAV:  22    -0.384674994236E+03    0.40769E-04   -0.32601E-04 38048   0.433E-02    0.121E-01
DAV:  23    -0.384674977850E+03    0.16386E-04   -0.13498E-04 31120   0.256E-02    0.483E-02
DAV:  24    -0.384674977622E+03    0.22777E-06   -0.30358E-05 27904   0.149E-02
  11 F= -.38467498E+03 E0= -.38465341E+03  d E =-.162562E+00  mag=    20.0000
       N       E                     dE             d eps       ncg     rms          rms(c)
DAV:   1    -0.383863683832E+03    0.81129E+00   -0.18578E+02 34640   0.363E+01    0.591E+00
DAV:   2    -0.386014566567E+03   -0.21509E+01   -0.15379E+01 36704   0.879E+00    0.223E+01
DAV:   3    -0.384919311265E+03    0.10953E+01   -0.46700E+00 44528   0.418E+00    0.109E+01
DAV:   4    -0.384818857975E+03    0.10045E+00   -0.19648E+00 46640   0.254E+00    0.842E+00
DAV:   5    -0.384810103013E+03    0.87550E-02   -0.75857E-01 47680   0.204E+00    0.103E+01
DAV:   6    -0.384681508785E+03    0.12859E+00   -0.44328E-01 47376   0.174E+00    0.664E+00
DAV:   7    -0.384682336982E+03   -0.82820E-03   -0.51201E-01 47008   0.131E+00    0.574E+00
DAV:   8    -0.384703219670E+03   -0.20883E-01   -0.30771E-01 47024   0.107E+00    0.599E+00
DAV:   9    -0.384640994374E+03    0.62225E-01   -0.13409E-01 47088   0.850E-01    0.290E+00
DAV:  10    -0.384659664742E+03   -0.18670E-01   -0.12947E-01 47472   0.851E-01    0.357E+00
DAV:  11    -0.384638123179E+03    0.21542E-01   -0.11115E-01 47088   0.785E-01    0.203E+00
DAV:  12    -0.384640107440E+03   -0.19843E-02   -0.48787E-02 47216   0.570E-01    0.210E+00
DAV:  13    -0.384634436644E+03    0.56708E-02   -0.37152E-02 47072   0.468E-01    0.179E+00
DAV:  14    -0.384634811673E+03   -0.37503E-03   -0.25499E-02 47120   0.393E-01    0.148E+00
DAV:  15    -0.384632004842E+03    0.28068E-02   -0.17943E-02 47056   0.330E-01    0.825E-01
DAV:  16    -0.384633126742E+03   -0.11219E-02   -0.14940E-02 47088   0.248E-01    0.107E+00
DAV:  17    -0.384631602708E+03    0.15240E-02   -0.59681E-03 47600   0.168E-01    0.617E-01
DAV:  18    -0.384632008159E+03   -0.40545E-03   -0.56116E-03 47168   0.154E-01    0.790E-01
DAV:  19    -0.384631610215E+03    0.39794E-03   -0.36531E-03 46800   0.134E-01    0.553E-01
DAV:  20    -0.384631370286E+03    0.23993E-03   -0.28126E-03 46880   0.117E-01    0.375E-01
DAV:  21    -0.384631351108E+03    0.19178E-04   -0.11632E-03 44608   0.728E-02    0.235E-01
DAV:  22    -0.384631336976E+03    0.14132E-04   -0.21321E-04 37904   0.395E-02    0.157E-01
DAV:  23    -0.384631320653E+03    0.16323E-04   -0.12753E-04 32976   0.305E-02    0.119E-01
DAV:  24    -0.384631313664E+03    0.69892E-05   -0.15743E-04 33312   0.269E-02    0.125E-01
DAV:  25    -0.384631293620E+03    0.20044E-04   -0.14285E-04 32208   0.241E-02    0.653E-02
DAV:  26    -0.384631294950E+03   -0.13297E-05   -0.45932E-05 27296   0.143E-02
  12 F= -.38463129E+03 E0= -.38460907E+03  d E =-.118879E+00  mag=    19.9977
       N       E                     dE             d eps       ncg     rms          rms(c)
DAV:   1    -0.384402602389E+03    0.22869E+00   -0.72711E+01 35008   0.228E+01    0.352E+00
DAV:   2    -0.384808099585E+03   -0.40550E+00   -0.48221E+00 33984   0.486E+00    0.773E+00
DAV:   3    -0.384759640458E+03    0.48459E-01   -0.71711E-01 46656   0.201E+00    0.482E+00
DAV:   4    -0.384835865318E+03   -0.76225E-01   -0.70352E-01 47376   0.153E+00    0.865E+00
DAV:   5    -0.384736108224E+03    0.99757E-01   -0.79233E-01 46960   0.131E+00    0.410E+00
DAV:   6    -0.384712252484E+03    0.23856E-01   -0.12636E-01 46960   0.883E-01    0.273E+00
DAV:   7    -0.384717568955E+03   -0.53165E-02   -0.14380E-01 47392   0.815E-01    0.321E+00
DAV:   8    -0.384707041822E+03    0.10527E-01   -0.13270E-01 46928   0.650E-01    0.211E+00
DAV:   9    -0.384700576672E+03    0.64651E-02   -0.40961E-02 47488   0.431E-01    0.116E+00
DAV:  10    -0.384702033062E+03   -0.14564E-02   -0.22697E-02 46880   0.302E-01    0.138E+00
DAV:  11    -0.384699248172E+03    0.27849E-02   -0.10807E-02 47312   0.248E-01    0.804E-01
DAV:  12    -0.384701664956E+03   -0.24168E-02   -0.13536E-02 47328   0.248E-01    0.141E+00
DAV:  13    -0.384699476399E+03    0.21886E-02   -0.85890E-03 47440   0.221E-01    0.812E-01
DAV:  14    -0.384700755243E+03   -0.12788E-02   -0.71195E-03 47360   0.194E-01    0.118E+00
DAV:  15    -0.384699048253E+03    0.17070E-02   -0.80083E-03 47200   0.194E-01    0.565E-01
DAV:  16    -0.384699078267E+03   -0.30014E-04   -0.16120E-03 47104   0.128E-01    0.521E-01
DAV:  17    -0.384698607223E+03    0.47104E-03   -0.16718E-03 46832   0.116E-01    0.236E-01
DAV:  18    -0.384698933876E+03   -0.32665E-03   -0.95965E-04 47056   0.869E-02    0.374E-01
DAV:  19    -0.384698689441E+03    0.24443E-03   -0.93250E-04 46384   0.803E-02    0.144E-01
DAV:  20    -0.384698714877E+03   -0.25436E-04   -0.19197E-04 37296   0.368E-02    0.109E-01
DAV:  21    -0.384698729657E+03   -0.14781E-04   -0.12674E-04 34304   0.283E-02    0.125E-01
DAV:  22    -0.384698704579E+03    0.25078E-04   -0.80652E-05 31344   0.271E-02    0.739E-02
DAV:  23    -0.384698703141E+03    0.14381E-05   -0.52358E-05 31280   0.181E-02
  13 F= -.38469870E+03 E0= -.38467698E+03  d E =-.186288E+00  mag=    19.9997
       N       E                     dE             d eps       ncg     rms          rms(c)
DAV:   1    -0.384727613468E+03   -0.28909E-01   -0.10827E+01 35472   0.838E+00    0.157E+00
DAV:   2    -0.384754724131E+03   -0.27111E-01   -0.60019E-01 34096   0.180E+00    0.296E+00
DAV:   3    -0.384761069249E+03   -0.63451E-02   -0.22506E-01 46608   0.825E-01    0.306E+00
DAV:   4    -0.384763343831E+03   -0.22746E-02   -0.17647E-01 47328   0.766E-01    0.368E+00
DAV:   5    -0.384738443774E+03    0.24900E-01   -0.93912E-02 46464   0.605E-01    0.110E+00
DAV:   6    -0.384740361199E+03   -0.19174E-02   -0.26039E-02 46672   0.362E-01    0.132E+00
DAV:   7    -0.384740810836E+03   -0.44964E-03   -0.33881E-02 47344   0.312E-01    0.158E+00
DAV:   8    -0.384738015516E+03    0.27953E-02   -0.18175E-02 47376   0.249E-01    0.782E-01
DAV:   9    -0.384738103994E+03   -0.88478E-04   -0.37478E-03 47104   0.119E-01    0.649E-01
DAV:  10    -0.384737511411E+03    0.59258E-03   -0.17597E-03 47088   0.911E-02    0.283E-01
DAV:  11    -0.384737505951E+03    0.54599E-05   -0.51651E-04 45664   0.632E-02    0.242E-01
DAV:  12    -0.384737653959E+03   -0.14801E-03   -0.11946E-03 45888   0.747E-02    0.384E-01
DAV:  13    -0.384737450409E+03    0.20355E-03   -0.90387E-04 45792   0.652E-02    0.197E-01
DAV:  14    -0.384737569761E+03   -0.11935E-03   -0.51299E-04 38384   0.555E-02    0.253E-01
DAV:  15    -0.384737458118E+03    0.11164E-03   -0.42098E-04 38272   0.442E-02    0.767E-02
DAV:  16    -0.384737467423E+03   -0.93049E-05   -0.54323E-05 31856   0.218E-02
  14 F= -.38473747E+03 E0= -.38471575E+03  d E =-.387643E-01  mag=    19.9999
       N       E                     dE             d eps       ncg     rms          rms(c)
DAV:   1    -0.384709155651E+03    0.28302E-01   -0.62411E+01 35456   0.202E+01    0.382E+00
DAV:   2    -0.384869916643E+03   -0.16076E+00   -0.35441E+00 34448   0.438E+00    0.725E+00
DAV:   3    -0.384894469251E+03   -0.24553E-01   -0.12390E+00 46336   0.198E+00    0.651E+00
DAV:   4    -0.384926298994E+03   -0.31830E-01   -0.80689E-01 47024   0.190E+00    0.842E+00
DAV:   5    -0.384795922613E+03    0.13038E+00   -0.37996E-01 47120   0.140E+00    0.388E+00
DAV:   6    -0.384772086496E+03    0.23836E-01   -0.91412E-02 47312   0.939E-01    0.248E+00
DAV:   7    -0.384805387644E+03   -0.33301E-01   -0.22433E-01 47312   0.873E-01    0.479E+00
DAV:   8    -0.384767921469E+03    0.37466E-01   -0.93044E-02 47184   0.695E-01    0.155E+00
DAV:   9    -0.384771574962E+03   -0.36535E-02   -0.40387E-02 47440   0.404E-01    0.198E+00
DAV:  10    -0.384766710702E+03    0.48643E-02   -0.20944E-02 47200   0.297E-01    0.997E-01
DAV:  11    -0.384765681139E+03    0.10296E-02   -0.68000E-03 48416   0.202E-01    0.622E-01
DAV:  12    -0.384766861160E+03   -0.11800E-02   -0.85399E-03 48352   0.188E-01    0.106E+00
DAV:  13    -0.384765022814E+03    0.18383E-02   -0.65989E-03 47616   0.199E-01    0.417E-01
DAV:  14    -0.384765844624E+03   -0.82181E-03   -0.36529E-03 48224   0.149E-01    0.633E-01
DAV:  15    -0.384765233168E+03    0.61146E-03   -0.13841E-03 47360   0.103E-01    0.341E-01
DAV:  16    -0.384765177921E+03    0.55247E-04   -0.14395E-03 46720   0.811E-02    0.248E-01
DAV:  17    -0.384765202335E+03   -0.24414E-04   -0.61727E-04 44512   0.637E-02    0.266E-01
DAV:  18    -0.384765241090E+03   -0.38755E-04   -0.11552E-03 45888   0.667E-02    0.264E-01
DAV:  19    -0.384765191635E+03    0.49455E-04   -0.24977E-04 36240   0.408E-02    0.194E-01
DAV:  20    -0.384765145281E+03    0.46355E-04   -0.30348E-04 33120   0.355E-02    0.766E-02
DAV:  21    -0.384765146225E+03   -0.94398E-06   -0.37689E-05 29008   0.162E-02
  15 F= -.38476515E+03 E0= -.38474360E+03  d E =-.664431E-01  mag=    20.0000
       N       E                     dE             d eps       ncg     rms          rms(c)
DAV:   1    -0.384765191190E+03   -0.45909E-04   -0.25105E+00 35520   0.405E+00    0.744E-01
DAV:   2    -0.384770702501E+03   -0.55113E-02   -0.13202E-01 34144   0.860E-01    0.126E+00
DAV:   3    -0.384772675291E+03   -0.19728E-02   -0.40791E-02 47184   0.430E-01    0.177E+00
DAV:   4    -0.384774419551E+03   -0.17443E-02   -0.60082E-02 47328   0.362E-01    0.195E+00
DAV:   5    -0.384767554285E+03    0.68653E-02   -0.28139E-02 46656   0.300E-01    0.633E-01
DAV:   6    -0.384767710194E+03   -0.15591E-03   -0.49470E-03 47696   0.167E-01    0.578E-01
DAV:   7    -0.384768992582E+03   -0.12824E-02   -0.63447E-03 47248   0.154E-01    0.107E+00
DAV:   8    -0.384767213343E+03    0.17792E-02   -0.35117E-03 47152   0.125E-01    0.291E-01
DAV:   9    -0.384767224361E+03   -0.11018E-04   -0.65859E-04 44048   0.582E-02    0.222E-01
DAV:  10    -0.384767199910E+03    0.24451E-04   -0.48481E-04 36432   0.423E-02    0.173E-01
DAV:  11    -0.384767149262E+03    0.50647E-04   -0.18124E-04 32944   0.347E-02    0.751E-02
DAV:  12    -0.384767192489E+03   -0.43227E-04   -0.14891E-04 33664   0.343E-02    0.178E-01
DAV:  13    -0.384767147903E+03    0.44587E-04   -0.15801E-04 32992   0.332E-02    0.102E-01
DAV:  14    -0.384767161279E+03   -0.13377E-04   -0.90087E-05 32064   0.260E-02    0.931E-02
DAV:  15    -0.384767149492E+03    0.11787E-04   -0.77742E-05 31184   0.206E-02    0.465E-02
DAV:  16    -0.384767150882E+03   -0.13894E-05   -0.19228E-05 26400   0.118E-02
  16 F= -.38476715E+03 E0= -.38474562E+03  d E =-.684477E-01  mag=    20.0000
       N       E                     dE             d eps       ncg     rms          rms(c)
DAV:   1    -0.384752703787E+03    0.14446E-01   -0.11788E+01 35328   0.897E+00    0.102E+00
DAV:   2    -0.384803969142E+03   -0.51265E-01   -0.56783E-01 33472   0.176E+00    0.249E+00
DAV:   3    -0.384799652722E+03    0.43164E-02   -0.13514E-01 45184   0.670E-01    0.190E+00
DAV:   4    -0.384802574965E+03   -0.29222E-02   -0.74853E-02 47664   0.447E-01    0.261E+00
DAV:   5    -0.384793834374E+03    0.87406E-02   -0.49889E-02 46848   0.321E-01    0.865E-01
DAV:   6    -0.384794583600E+03   -0.74923E-03   -0.14020E-02 48128   0.236E-01    0.994E-01
DAV:   7    -0.384795022448E+03   -0.43885E-03   -0.14738E-02 47408   0.242E-01    0.112E+00
DAV:   8    -0.384793029244E+03    0.19932E-02   -0.58496E-03 47504   0.190E-01    0.545E-01
DAV:   9    -0.384792988272E+03    0.40971E-04   -0.20937E-03 47440   0.106E-01    0.408E-01
DAV:  10    -0.384792760682E+03    0.22759E-03   -0.85859E-04 47328   0.782E-02    0.209E-01
DAV:  11    -0.384792818189E+03   -0.57507E-04   -0.55664E-04 44208   0.605E-02    0.217E-01
DAV:  12    -0.384792781251E+03    0.36938E-04   -0.56767E-04 37104   0.487E-02    0.121E-01
DAV:  13    -0.384792793128E+03   -0.11877E-04   -0.13461E-04 32912   0.300E-02    0.127E-01
DAV:  14    -0.384792772317E+03    0.20811E-04   -0.92344E-05 32592   0.270E-02    0.847E-02
DAV:  15    -0.384792779301E+03   -0.69839E-05   -0.90714E-05 31504   0.228E-02
  17 F= -.38479278E+03 E0= -.38477128E+03  d E =-.256284E-01  mag=    20.0000
       N       E                     dE             d eps       ncg     rms          rms(c)
DAV:   1    -0.384702757103E+03    0.90015E-01   -0.31452E+01 35152   0.146E+01    0.166E+00
DAV:   2    -0.384840992657E+03   -0.13824E+00   -0.15245E+00 33520   0.288E+00    0.390E+00
DAV:   3    -0.384830666400E+03    0.10326E-01   -0.27454E-01 45536   0.111E+00    0.305E+00
DAV:   4    -0.384847497738E+03   -0.16831E-01   -0.17581E-01 47536   0.767E-01    0.511E+00
DAV:   5    -0.384813891070E+03    0.33607E-01   -0.18129E-01 46640   0.537E-01    0.137E+00
DAV:   6    -0.384814888415E+03   -0.99734E-03   -0.22649E-02 50016   0.373E-01    0.131E+00
DAV:   7    -0.384817655789E+03   -0.27674E-02   -0.31308E-02 47744   0.361E-01    0.188E+00
DAV:   8    -0.384812128431E+03    0.55274E-02   -0.17664E-02 47408   0.309E-01    0.851E-01
DAV:   9    -0.384812391819E+03   -0.26339E-03   -0.60964E-03 47376   0.174E-01    0.759E-01
DAV:  10    -0.384811583395E+03    0.80842E-03   -0.38422E-03 47456   0.146E-01    0.384E-01
DAV:  11    -0.384811748052E+03   -0.16466E-03   -0.19702E-03 47552   0.112E-01    0.414E-01
DAV:  12    -0.384811689757E+03    0.58295E-04   -0.23168E-03 47248   0.928E-02    0.285E-01
DAV:  13    -0.384811652025E+03    0.37731E-04   -0.57119E-04 44544   0.622E-02    0.233E-01
DAV:  14    -0.384811637956E+03    0.14070E-04   -0.36873E-04 39968   0.469E-02    0.202E-01
DAV:  15    -0.384811588333E+03    0.49623E-04   -0.29618E-04 35968   0.418E-02    0.146E-01
DAV:  16    -0.384811558468E+03    0.29864E-04   -0.17900E-04 39216   0.378E-02    0.119E-01
DAV:  17    -0.384811548795E+03    0.96737E-05   -0.14326E-04 34688   0.342E-02    0.911E-02
DAV:  18    -0.384811556006E+03   -0.72114E-05   -0.77265E-05 31360   0.243E-02
  18 F= -.38481156E+03 E0= -.38479028E+03  d E =-.444051E-01  mag=    20.0000
       N       E                     dE             d eps       ncg     rms          rms(c)
DAV:   1    -0.384777995041E+03    0.33554E-01   -0.99115E+00 35520   0.857E+00    0.756E-01
DAV:   2    -0.384835798459E+03   -0.57803E-01   -0.54314E-01 33424   0.162E+00    0.211E+00
DAV:   3    -0.384833172578E+03    0.26259E-02   -0.10086E-01 44944   0.569E-01    0.171E+00
DAV:   4    -0.384831881670E+03    0.12909E-02   -0.31865E-02 50880   0.361E-01    0.151E+00
DAV:   5    -0.384828437325E+03    0.34443E-02   -0.14406E-02 47552   0.235E-01    0.661E-01
DAV:   6    -0.384828459273E+03   -0.21948E-04   -0.33641E-03 49104   0.141E-01    0.632E-01
DAV:   7    -0.384828568203E+03   -0.10893E-03   -0.46111E-03 47360   0.141E-01    0.700E-01
DAV:   8    -0.384827672471E+03    0.89573E-03   -0.38843E-03 47392   0.150E-01    0.336E-01
DAV:   9    -0.384828004320E+03   -0.33185E-03   -0.18439E-03 47280   0.103E-01    0.484E-01
DAV:  10    -0.384827705914E+03    0.29841E-03   -0.13174E-03 47280   0.892E-02    0.226E-01
DAV:  11    -0.384827775595E+03   -0.69681E-04   -0.56916E-04 39216   0.546E-02    0.220E-01
DAV:  12    -0.384827764080E+03    0.11515E-04   -0.35248E-04 34368   0.435E-02    0.167E-01
DAV:  13    -0.384827757168E+03    0.69122E-05   -0.11339E-04 32784   0.281E-02    0.150E-01
DAV:  14    -0.384827731574E+03    0.25593E-04   -0.12058E-04 36912   0.364E-02    0.125E-01
DAV:  15    -0.384827711826E+03    0.19748E-04   -0.13057E-04 33920   0.336E-02    0.959E-02
DAV:  16    -0.384827716496E+03   -0.46694E-05   -0.13570E-04 33744   0.301E-02    0.107E-01
DAV:  17    -0.384827699526E+03    0.16970E-04   -0.97205E-05 31504   0.272E-02    0.563E-02
DAV:  18    -0.384827711024E+03   -0.11498E-04   -0.45588E-05 30496   0.190E-02    0.720E-02
DAV:  19    -0.384827702791E+03    0.82327E-05   -0.29638E-05 28864   0.158E-02
  19 F= -.38482770E+03 E0= -.38480662E+03  d E =-.161468E-01  mag=    20.0000
       N       E                     dE             d eps       ncg     rms          rms(c)
DAV:   1    -0.384749447077E+03    0.78264E-01   -0.16658E+01 35744   0.111E+01    0.986E-01
DAV:   2    -0.384849389838E+03   -0.99943E-01   -0.92206E-01 33360   0.212E+00    0.299E+00
DAV:   3    -0.384841073872E+03    0.83160E-02   -0.17360E-01 44240   0.744E-01    0.205E+00
DAV:   4    -0.384840355092E+03    0.71878E-03   -0.44876E-02 50992   0.467E-01    0.201E+00
DAV:   5    -0.384834401678E+03    0.59534E-02   -0.25282E-02 47376   0.318E-01    0.967E-01
DAV:   6    -0.384834216679E+03    0.18500E-03   -0.62106E-03 48464   0.196E-01    0.817E-01
DAV:   7    -0.384834505235E+03   -0.28856E-03   -0.85147E-03 47440   0.186E-01    0.910E-01
DAV:   8    -0.384833036689E+03    0.14685E-02   -0.60726E-03 47392   0.185E-01    0.422E-01
DAV:   9    -0.384833127592E+03   -0.90903E-04   -0.22580E-03 47280   0.115E-01    0.417E-01
DAV:  10    -0.384832925581E+03    0.20201E-03   -0.15461E-03 47280   0.112E-01    0.261E-01
DAV:  11    -0.384833135699E+03   -0.21012E-03   -0.14992E-03 47408   0.830E-02    0.372E-01
DAV:  12    -0.384832981844E+03    0.15385E-03   -0.70138E-04 44480   0.624E-02    0.196E-01
DAV:  13    -0.384832982648E+03   -0.80311E-06   -0.26016E-04 34528   0.393E-02    0.171E-01
DAV:  14    -0.384832976825E+03    0.58225E-05   -0.17447E-04 35104   0.386E-02    0.155E-01
DAV:  15    -0.384832934289E+03    0.42537E-04   -0.12246E-04 33776   0.337E-02    0.802E-02
DAV:  16    -0.384832958175E+03   -0.23886E-04   -0.15136E-04 35328   0.350E-02    0.139E-01
DAV:  17    -0.384832923976E+03    0.34199E-04   -0.15888E-04 32688   0.322E-02    0.717E-02
DAV:  18    -0.384832940689E+03   -0.16713E-04   -0.55580E-05 30752   0.207E-02    0.780E-02
DAV:  19    -0.384832933878E+03    0.68108E-05   -0.36250E-05 29008   0.170E-02
  20 F= -.38483293E+03 E0= -.38481204E+03  d E =-.213779E-01  mag=    20.0000
       N       E                     dE             d eps       ncg     rms          rms(c)
DAV:   1    -0.384816656798E+03    0.16284E-01   -0.69797E+00 35360   0.662E+00    0.520E-01
DAV:   2    -0.384845875519E+03   -0.29219E-01   -0.27181E-01 33616   0.120E+00    0.158E+00
DAV:   3    -0.384844127480E+03    0.17480E-02   -0.49367E-02 47248   0.398E-01    0.121E+00
DAV:   4    -0.384843742508E+03    0.38497E-03   -0.14405E-02 51808   0.249E-01    0.115E+00
DAV:   5    -0.384841726289E+03    0.20162E-02   -0.53823E-03 47328   0.170E-01    0.326E-01
DAV:   6    -0.384841914287E+03   -0.18800E-03   -0.17755E-03 47760   0.976E-02    0.404E-01
DAV:   7    -0.384841762268E+03    0.15202E-03   -0.16836E-03 46656   0.102E-01    0.367E-01
DAV:   8    -0.384841564245E+03    0.19802E-03   -0.11146E-03 47504   0.890E-02    0.238E-01
DAV:   9    -0.384841748975E+03   -0.18473E-03   -0.11116E-03 46080   0.694E-02    0.389E-01
DAV:  10    -0.384841535670E+03    0.21331E-03   -0.87026E-04 42736   0.572E-02    0.140E-01
DAV:  11    -0.384841544727E+03   -0.90577E-05   -0.15850E-04 34112   0.358E-02    0.108E-01
DAV:  12    -0.384841548499E+03   -0.37720E-05   -0.71415E-05 31520   0.240E-02
  21 F= -.38484155E+03 E0= -.38482075E+03  d E =-.861462E-02  mag=    20.0000
       N       E                     dE             d eps       ncg     rms          rms(c)
DAV:   1    -0.384635733660E+03    0.20581E+00   -0.59494E+01 35376   0.193E+01    0.153E+00
DAV:   2    -0.384885555530E+03   -0.24982E+00   -0.23798E+00 33584   0.353E+00    0.420E+00
DAV:   3    -0.384877324750E+03    0.82308E-02   -0.24240E-01 45904   0.116E+00    0.358E+00
DAV:   4    -0.384868298673E+03    0.90261E-02   -0.12314E-01 51264   0.689E-01    0.301E+00
DAV:   5    -0.384854156296E+03    0.14142E-01   -0.65661E-02 47472   0.493E-01    0.115E+00
DAV:   6    -0.384856387576E+03   -0.22313E-02   -0.17909E-02 47584   0.301E-01    0.144E+00
DAV:   7    -0.384853519944E+03    0.28676E-02   -0.14516E-02 47024   0.293E-01    0.103E+00
DAV:   8    -0.384852286773E+03    0.12332E-02   -0.65778E-03 47072   0.205E-01    0.605E-01
DAV:   9    -0.384853059975E+03   -0.77320E-03   -0.70252E-03 47456   0.174E-01    0.834E-01
DAV:  10    -0.384851886503E+03    0.11735E-02   -0.56200E-03 47232   0.171E-01    0.391E-01
DAV:  11    -0.384852009179E+03   -0.12268E-03   -0.24258E-03 47392   0.132E-01    0.414E-01
DAV:  12    -0.384851925427E+03    0.83752E-04   -0.19519E-03 47424   0.112E-01    0.316E-01
DAV:  13    -0.384851936788E+03   -0.11361E-04   -0.11524E-03 47392   0.834E-02    0.278E-01
DAV:  14    -0.384851932440E+03    0.43482E-05   -0.68679E-04 44768   0.609E-02    0.230E-01
DAV:  15    -0.384851853774E+03    0.78667E-04   -0.31653E-04 39872   0.463E-02    0.110E-01
DAV:  16    -0.384851856371E+03   -0.25971E-05   -0.18261E-04 35216   0.363E-02    0.127E-01
DAV:  17    -0.384851845650E+03    0.10720E-04   -0.18057E-04 34688   0.397E-02    0.102E-01
DAV:  18    -0.384851846711E+03   -0.10608E-05   -0.13450E-04 31696   0.256E-02    0.775E-02
DAV:  19    -0.384851846297E+03    0.41399E-06   -0.42533E-05 31312   0.203E-02
  22 F= -.38485185E+03 E0= -.38483126E+03  d E =-.189124E-01  mag=    20.0000
       N       E                     dE             d eps       ncg     rms          rms(c)
DAV:   1    -0.384840614079E+03    0.11233E-01   -0.45851E+00 34816   0.583E+00    0.546E-01
DAV:   2    -0.384868140717E+03   -0.27527E-01   -0.25073E-01 33744   0.115E+00    0.197E+00
DAV:   3    -0.384863213534E+03    0.49272E-02   -0.40167E-02 45536   0.409E-01    0.860E-01
DAV:   4    -0.384866003803E+03   -0.27903E-02   -0.21007E-02 50112   0.246E-01    0.133E+00
DAV:   5    -0.384862834993E+03    0.31688E-02   -0.95593E-03 47680   0.197E-01    0.560E-01
DAV:   6    -0.384862598930E+03    0.23606E-03   -0.19320E-03 49344   0.111E-01    0.344E-01
DAV:   7    -0.384862925802E+03   -0.32687E-03   -0.16909E-03 47920   0.108E-01    0.561E-01
DAV:   8    -0.384862656923E+03    0.26888E-03   -0.31064E-03 47024   0.110E-01    0.428E-01
DAV:   9    -0.384862407983E+03    0.24894E-03   -0.13291E-03 47008   0.783E-02    0.184E-01
DAV:  10    -0.384862435282E+03   -0.27298E-04   -0.35184E-04 42576   0.496E-02    0.195E-01
DAV:  11    -0.384862361419E+03    0.73863E-04   -0.15948E-04 33184   0.343E-02    0.873E-02
DAV:  12    -0.384862375553E+03   -0.14134E-04   -0.16182E-04 32800   0.346E-02    0.122E-01
DAV:  13    -0.384862351303E+03    0.24250E-04   -0.11376E-04 33056   0.304E-02    0.635E-02
DAV:  14    -0.384862376138E+03   -0.24835E-04   -0.79441E-05 32208   0.269E-02    0.994E-02
DAV:  15    -0.384862357898E+03    0.18240E-04   -0.53786E-05 30976   0.236E-02    0.331E-02
DAV:  16    -0.384862361765E+03   -0.38678E-05   -0.19316E-05 25840   0.127E-02
  23 F= -.38486236E+03 E0= -.38484182E+03  d E =-.105155E-01  mag=    20.0000
       N       E                     dE             d eps       ncg     rms          rms(c)
DAV:   1    -0.384835701759E+03    0.26656E-01   -0.64083E+00 35056   0.690E+00    0.645E-01
DAV:   2    -0.384874261974E+03   -0.38560E-01   -0.34835E-01 33712   0.136E+00    0.238E+00
DAV:   3    -0.384866939263E+03    0.73227E-02   -0.56813E-02 45504   0.486E-01    0.101E+00
DAV:   4    -0.384870938563E+03   -0.39993E-02   -0.30419E-02 49664   0.293E-01    0.157E+00
DAV:   5    -0.384866570321E+03    0.43682E-02   -0.13157E-02 47344   0.232E-01    0.707E-01
DAV:   6    -0.384866106840E+03    0.46348E-03   -0.27486E-03 49440   0.131E-01    0.378E-01
DAV:   7    -0.384866692478E+03   -0.58564E-03   -0.24919E-03 47888   0.127E-01    0.705E-01
DAV:   8    -0.384866215719E+03    0.47676E-03   -0.48224E-03 47040   0.133E-01    0.501E-01
DAV:   9    -0.384865876946E+03    0.33877E-03   -0.18248E-03 47376   0.950E-02    0.218E-01
DAV:  10    -0.384865915129E+03   -0.38183E-04   -0.53159E-04 46160   0.605E-02    0.235E-01
DAV:  11    -0.384865806138E+03    0.10899E-03   -0.22366E-04 37664   0.412E-02    0.997E-02
DAV:  12    -0.384865832699E+03   -0.26560E-04   -0.20443E-04 34352   0.407E-02    0.146E-01
DAV:  13    -0.384865800567E+03    0.32131E-04   -0.14944E-04 34464   0.354E-02    0.741E-02
DAV:  14    -0.384865829706E+03   -0.29139E-04   -0.97773E-05 32736   0.303E-02    0.111E-01
DAV:  15    -0.384865806611E+03    0.23095E-04   -0.68169E-05 31776   0.269E-02    0.388E-02
DAV:  16    -0.384865811157E+03   -0.45465E-05   -0.23681E-05 27920   0.153E-02
  24 F= -.38486581E+03 E0= -.38484526E+03  d E =-.139649E-01  mag=    20.0000
       N       E                     dE             d eps       ncg     rms          rms(c)
DAV:   1    -0.384849827629E+03    0.15979E-01   -0.61630E+00 35232   0.652E+00    0.675E-01
DAV:   2    -0.384878749166E+03   -0.28922E-01   -0.28339E-01 33664   0.128E+00    0.189E+00
DAV:   3    -0.384876320881E+03    0.24283E-02   -0.43739E-02 46752   0.467E-01    0.147E+00
DAV:   4    -0.384876883484E+03   -0.56260E-03   -0.27802E-02 47936   0.297E-01    0.150E+00
DAV:   5    -0.384872669376E+03    0.42141E-02   -0.86942E-03 48560   0.240E-01    0.394E-01
DAV:   6    -0.384873039931E+03   -0.37055E-03   -0.29243E-03 47760   0.147E-01    0.571E-01
DAV:   7    -0.384873238823E+03   -0.19889E-03   -0.51323E-03 47392   0.148E-01    0.716E-01
DAV:   8    -0.384872742818E+03    0.49601E-03   -0.47396E-03 47312   0.130E-01    0.448E-01
DAV:   9    -0.384872455062E+03    0.28776E-03   -0.11411E-03 46640   0.751E-02    0.186E-01
DAV:  10    -0.384872522077E+03   -0.67015E-04   -0.63938E-04 38608   0.534E-02    0.247E-01
DAV:  11    -0.384872427597E+03    0.94479E-04   -0.51119E-04 36176   0.521E-02    0.136E-01
DAV:  12    -0.384872463587E+03   -0.35990E-04   -0.20740E-04 35040   0.421E-02    0.178E-01
DAV:  13    -0.384872417634E+03    0.45953E-04   -0.19154E-04 37664   0.437E-02    0.917E-02
DAV:  14    -0.384872444771E+03   -0.27137E-04   -0.13326E-04 32416   0.314E-02    0.122E-01
DAV:  15    -0.384872420466E+03    0.24305E-04   -0.78513E-05 30896   0.260E-02    0.439E-02
DAV:  16    -0.384872424847E+03   -0.43804E-05   -0.31102E-05 28016   0.158E-02
  25 F= -.38487242E+03 E0= -.38485194E+03  d E =-.661369E-02  mag=    20.0000
       N       E                     dE             d eps       ncg     rms          rms(c)
DAV:   1    -0.384845545952E+03    0.26875E-01   -0.75543E+00 35328   0.721E+00    0.748E-01
DAV:   2    -0.384881181711E+03   -0.35636E-01   -0.34720E-01 33904   0.141E+00    0.213E+00
DAV:   3    -0.384877959325E+03    0.32224E-02   -0.54008E-02 46928   0.518E-01    0.163E+00
DAV:   4    -0.384878529178E+03   -0.56985E-03   -0.32888E-02 47936   0.330E-01    0.162E+00
DAV:   5    -0.384873545684E+03    0.49835E-02   -0.10083E-02 48672   0.270E-01    0.449E-01
DAV:   6    -0.384874004613E+03   -0.45893E-03   -0.38650E-03 47584   0.165E-01    0.650E-01
DAV:   7    -0.384874123919E+03   -0.11931E-03   -0.61152E-03 47360   0.161E-01    0.756E-01
DAV:   8    -0.384873672358E+03    0.45156E-03   -0.54349E-03 47376   0.144E-01    0.518E-01
DAV:   9    -0.384873269224E+03    0.40313E-03   -0.14500E-03 47216   0.847E-02    0.210E-01
DAV:  10    -0.384873373858E+03   -0.10463E-03   -0.87283E-04 41872   0.626E-02    0.300E-01
DAV:  11    -0.384873227893E+03    0.14596E-03   -0.68306E-04 39232   0.584E-02    0.148E-01
DAV:  12    -0.384873274874E+03   -0.46981E-04   -0.24611E-04 38128   0.472E-02    0.192E-01
DAV:  13    -0.384873223083E+03    0.51790E-04   -0.22463E-04 40112   0.486E-02    0.107E-01
DAV:  14    -0.384873251051E+03   -0.27968E-04   -0.16442E-04 33392   0.352E-02    0.133E-01
DAV:  15    -0.384873223413E+03    0.27639E-04   -0.99192E-05 31984   0.292E-02    0.494E-02
DAV:  16    -0.384873227975E+03   -0.45623E-05   -0.36376E-05 28576   0.172E-02
  26 F= -.38487323E+03 E0= -.38485280E+03  d E =-.741682E-02  mag=    20.0000
       N       E                     dE             d eps       ncg     rms          rms(c)
DAV:   1    -0.384870318659E+03    0.29048E-02   -0.93803E-01 35296   0.254E+00    0.264E-01
DAV:   2    -0.384874762434E+03   -0.44438E-02   -0.43046E-02 33568   0.499E-01    0.746E-01
DAV:   3    -0.384874268509E+03    0.49392E-03   -0.76556E-03 48064   0.191E-01    0.542E-01
DAV:   4    -0.384874482680E+03   -0.21417E-03   -0.47555E-03 47264   0.116E-01    0.679E-01
DAV:   5    -0.384873808796E+03    0.67388E-03   -0.21744E-03 46896   0.890E-02    0.208E-01
DAV:   6    -0.384873848097E+03   -0.39301E-04   -0.65727E-04 44384   0.580E-02    0.242E-01
DAV:   7    -0.384873882239E+03   -0.34142E-04   -0.11500E-03 42608   0.631E-02    0.285E-01
DAV:   8    -0.384873743039E+03    0.13920E-03   -0.46674E-04 41136   0.502E-02    0.865E-02
DAV:   9    -0.384873751599E+03   -0.85601E-05   -0.12827E-04 32288   0.277E-02    0.968E-02
DAV:  10    -0.384873742345E+03    0.92539E-05   -0.78737E-05 30592   0.210E-02
  27 F= -.38487374E+03 E0= -.38485325E+03  d E =-.793119E-02  mag=    20.0000
       N       E                     dE             d eps       ncg     rms          rms(c)
DAV:   1    -0.384862237280E+03    0.11514E-01   -0.33554E+00 34960   0.502E+00    0.538E-01
DAV:   2    -0.384879339784E+03   -0.17103E-01   -0.19183E-01 33312   0.975E-01    0.741E-01
DAV:   3    -0.384882066001E+03   -0.27262E-02   -0.19177E-02 47584   0.339E-01    0.147E+00
DAV:   4    -0.384879745408E+03    0.23206E-02   -0.18222E-02 47136   0.238E-01    0.895E-01
DAV:   5    -0.384878655219E+03    0.10902E-02   -0.60766E-03 52032   0.155E-01    0.362E-01
DAV:   6    -0.384879085131E+03   -0.42991E-03   -0.32886E-03 48256   0.122E-01    0.610E-01
DAV:   7    -0.384879057830E+03    0.27301E-04   -0.52318E-03 47008   0.125E-01    0.618E-01
DAV:   8    -0.384878461001E+03    0.59683E-03   -0.21786E-03 47392   0.103E-01    0.209E-01
DAV:   9    -0.384878457668E+03    0.33337E-05   -0.48814E-04 45424   0.617E-02    0.166E-01
DAV:  10    -0.384878446571E+03    0.11097E-04   -0.27073E-04 39168   0.450E-02    0.163E-01
DAV:  11    -0.384878405210E+03    0.41361E-04   -0.14713E-04 32496   0.357E-02    0.908E-02
DAV:  12    -0.384878437404E+03   -0.32194E-04   -0.17639E-04 32064   0.281E-02    0.146E-01
DAV:  13    -0.384878412483E+03    0.24921E-04   -0.11361E-04 31520   0.263E-02    0.517E-02
DAV:  14    -0.384878421447E+03   -0.89645E-05   -0.34105E-05 29376   0.166E-02
  28 F= -.38487842E+03 E0= -.38485798E+03  d E =-.467910E-02  mag=    20.0000
       N       E                     dE             d eps       ncg     rms          rms(c)
DAV:   1    -0.384864941845E+03    0.13471E-01   -0.30734E+00 34960   0.481E+00    0.518E-01
DAV:   2    -0.384880916538E+03   -0.15975E-01   -0.17633E-01 33312   0.937E-01    0.813E-01
DAV:   3    -0.384882368271E+03   -0.14517E-02   -0.15798E-02 47728   0.329E-01    0.124E+00
DAV:   4    -0.384881159961E+03    0.12083E-02   -0.12554E-02 46976   0.217E-01    0.908E-01
DAV:   5    -0.384879987671E+03    0.11723E-02   -0.48949E-03 49936   0.150E-01    0.355E-01
DAV:   6    -0.384880173985E+03   -0.18631E-03   -0.18251E-03 48560   0.119E-01    0.440E-01
DAV:   7    -0.384880326632E+03   -0.15265E-03   -0.28907E-03 47392   0.120E-01    0.568E-01
DAV:   8    -0.384879891798E+03    0.43483E-03   -0.30160E-03 47088   0.953E-02    0.280E-01
DAV:   9    -0.384879812325E+03    0.79473E-04   -0.63625E-04 43264   0.547E-02    0.164E-01
DAV:  10    -0.384879853421E+03   -0.41096E-04   -0.49603E-04 36272   0.416E-02    0.206E-01
DAV:  11    -0.384879779297E+03    0.74124E-04   -0.30457E-04 32816   0.384E-02    0.732E-02
DAV:  12    -0.384879813527E+03   -0.34230E-04   -0.90072E-05 33376   0.297E-02    0.128E-01
DAV:  13    -0.384879786178E+03    0.27348E-04   -0.84708E-05 31968   0.276E-02    0.555E-02
DAV:  14    -0.384879797710E+03   -0.11531E-04   -0.40435E-05 30448   0.188E-02    0.709E-02
DAV:  15    -0.384879788979E+03    0.87303E-05   -0.19954E-05 28400   0.146E-02
  29 F= -.38487979E+03 E0= -.38485939E+03  d E =-.604663E-02  mag=    20.0000
       N       E                     dE             d eps       ncg     rms          rms(c)
DAV:   1    -0.384871244056E+03    0.85537E-02   -0.35713E+00 35312   0.463E+00    0.439E-01
DAV:   2    -0.384884781565E+03   -0.13538E-01   -0.14182E-01 33456   0.863E-01    0.844E-01
DAV:   3    -0.384885882470E+03   -0.11009E-02   -0.21323E-02 45840   0.310E-01    0.114E+00
DAV:   4    -0.384885017169E+03    0.86530E-03   -0.19227E-02 48352   0.218E-01    0.102E+00
DAV:   5    -0.384883396269E+03    0.16209E-02   -0.59878E-03 49392   0.158E-01    0.335E-01
DAV:   6    -0.384883480223E+03   -0.83954E-04   -0.12177E-03 47872   0.897E-02    0.375E-01
DAV:   7    -0.384883602459E+03   -0.12224E-03   -0.14216E-03 47088   0.905E-02    0.483E-01
DAV:   8    -0.384883209208E+03    0.39325E-03   -0.82720E-04 47280   0.803E-02    0.136E-01
DAV:   9    -0.384883307190E+03   -0.97982E-04   -0.55510E-04 38352   0.472E-02    0.250E-01
DAV:  10    -0.384883210953E+03    0.96237E-04   -0.36421E-04 38320   0.415E-02    0.716E-02
DAV:  11    -0.384883224316E+03   -0.13363E-04   -0.75769E-05 32160   0.265E-02    0.811E-02
DAV:  12    -0.384883219038E+03    0.52785E-05   -0.36035E-05 30496   0.205E-02
  30 F= -.38488322E+03 E0= -.38486293E+03  d E =-.343006E-02  mag=    20.0000
       N       E                     dE             d eps       ncg     rms          rms(c)
DAV:   1    -0.384866153683E+03    0.17071E-01   -0.55323E+00 35408   0.577E+00    0.552E-01
DAV:   2    -0.384887290450E+03   -0.21137E-01   -0.22103E-01 33536   0.108E+00    0.109E+00
DAV:   3    -0.384888579790E+03   -0.12893E-02   -0.37818E-02 44880   0.387E-01    0.138E+00
DAV:   4    -0.384887692577E+03    0.88721E-03   -0.29553E-02 48144   0.272E-01    0.134E+00
DAV:   5    -0.384884916092E+03    0.27765E-02   -0.97514E-03 48608   0.191E-01    0.388E-01
DAV:   6    -0.384885162199E+03   -0.24611E-03   -0.18585E-03 47872   0.114E-01    0.492E-01
DAV:   7    -0.384885325164E+03   -0.16296E-03   -0.23898E-03 47280   0.109E-01    0.624E-01
DAV:   8    -0.384884752066E+03    0.57310E-03   -0.19322E-03 47424   0.105E-01    0.233E-01
DAV:   9    -0.384884756156E+03   -0.40895E-05   -0.70941E-04 45168   0.581E-02    0.217E-01
DAV:  10    -0.384884750062E+03    0.60941E-05   -0.52421E-04 39504   0.512E-02    0.190E-01
DAV:  11    -0.384884695823E+03    0.54238E-04   -0.16920E-04 35152   0.378E-02    0.679E-02
DAV:  12    -0.384884717926E+03   -0.22103E-04   -0.90146E-05 33216   0.296E-02    0.102E-01
DAV:  13    -0.384884704381E+03    0.13545E-04   -0.63061E-05 31376   0.267E-02    0.383E-02
DAV:  14    -0.384884712187E+03   -0.78052E-05   -0.17788E-05 25200   0.120E-02
  31 F= -.38488471E+03 E0= -.38486443E+03  d E =-.492321E-02  mag=    20.0000
       N       E                     dE             d eps       ncg     rms          rms(c)
DAV:   1    -0.384874409371E+03    0.10295E-01   -0.40148E+00 35680   0.500E+00    0.401E-01
DAV:   2    -0.384889660767E+03   -0.15251E-01   -0.15021E-01 33488   0.902E-01    0.105E+00
DAV:   3    -0.384889916865E+03   -0.25610E-03   -0.22355E-02 45984   0.277E-01    0.107E+00
DAV:   4    -0.384889040337E+03    0.87653E-03   -0.10417E-02 49648   0.188E-01    0.737E-01
DAV:   5    -0.384888123162E+03    0.91718E-03   -0.39809E-03 48736   0.131E-01    0.304E-01
DAV:   6    -0.384888133469E+03   -0.10307E-04   -0.91418E-04 48496   0.755E-02    0.261E-01
DAV:   7    -0.384888205472E+03   -0.72003E-04   -0.11226E-03 47584   0.816E-02    0.367E-01
DAV:   8    -0.384887993688E+03    0.21178E-03   -0.11315E-03 47168   0.705E-02    0.212E-01
DAV:   9    -0.384888001793E+03   -0.81050E-05   -0.40600E-04 41840   0.448E-02    0.184E-01
DAV:  10    -0.384887961916E+03    0.39877E-04   -0.18486E-04 34240   0.361E-02    0.977E-02
DAV:  11    -0.384887953255E+03    0.86609E-05   -0.62942E-05 30384   0.247E-02
  32 F= -.38488795E+03 E0= -.38486777E+03  d E =-.324107E-02  mag=    20.0000
       N       E                     dE             d eps       ncg     rms          rms(c)
DAV:   1    -0.384844027741E+03    0.43934E-01   -0.13491E+01 35664   0.916E+00    0.741E-01
DAV:   2    -0.384894526511E+03   -0.50499E-01   -0.50480E-01 33504   0.166E+00    0.172E+00
DAV:   3    -0.384898137038E+03   -0.36105E-02   -0.71362E-02 46480   0.517E-01    0.214E+00
DAV:   4    -0.384893022485E+03    0.51146E-02   -0.35533E-02 49312   0.357E-01    0.118E+00
DAV:   5    -0.384890536300E+03    0.24862E-02   -0.87263E-03 48896   0.241E-01    0.590E-01
DAV:   6    -0.384890477157E+03    0.59144E-04   -0.29511E-03 49104   0.139E-01    0.478E-01
DAV:   7    -0.384890215133E+03    0.26202E-03   -0.35569E-03 43392   0.141E-01    0.454E-01
DAV:   8    -0.384890040460E+03    0.17467E-03   -0.24488E-03 46864   0.110E-01    0.363E-01
DAV:   9    -0.384890184774E+03   -0.14431E-03   -0.18729E-03 47424   0.866E-02    0.445E-01
DAV:  10    -0.384889883839E+03    0.30094E-03   -0.10470E-03 45920   0.694E-02    0.146E-01
DAV:  11    -0.384889892603E+03   -0.87640E-05   -0.23564E-04 37680   0.418E-02    0.108E-01
DAV:  12    -0.384889893111E+03   -0.50801E-06   -0.13016E-04 33136   0.319E-02    0.928E-02
DAV:  13    -0.384889887831E+03    0.52792E-05   -0.49792E-05 31104   0.243E-02
  33 F= -.38488989E+03 E0= -.38486980E+03  d E =-.517564E-02  mag=    20.0000
       N       E                     dE             d eps       ncg     rms          rms(c)
DAV:   1    -0.384878874994E+03    0.11018E-01   -0.34514E+00 34848   0.472E+00    0.374E-01
DAV:   2    -0.384892905580E+03   -0.14031E-01   -0.14309E-01 33392   0.861E-01    0.655E-01
DAV:   3    -0.384894230856E+03   -0.13253E-02   -0.15083E-02 47488   0.248E-01    0.108E+00
DAV:   4    -0.384893234784E+03    0.99607E-03   -0.11273E-02 49264   0.171E-01    0.677E-01
DAV:   5    -0.384892502233E+03    0.73255E-03   -0.40144E-03 47664   0.119E-01    0.286E-01
DAV:   6    -0.384892574651E+03   -0.72418E-04   -0.87512E-04 49328   0.749E-02    0.323E-01
DAV:   7    -0.384892492780E+03    0.81871E-04   -0.77648E-04 47168   0.781E-02    0.293E-01
DAV:   8    -0.384892346098E+03    0.14668E-03   -0.46290E-04 47040   0.633E-02    0.130E-01
DAV:   9    -0.384892387346E+03   -0.41247E-04   -0.24738E-04 38736   0.377E-02    0.186E-01
DAV:  10    -0.384892333755E+03    0.53591E-04   -0.21075E-04 32832   0.321E-02    0.874E-02
DAV:  11    -0.384892337811E+03   -0.40556E-05   -0.86866E-05 31232   0.243E-02
  34 F= -.38489234E+03 E0= -.38487226E+03  d E =-.244998E-02  mag=    20.0000
       N       E                     dE             d eps       ncg     rms          rms(c)
DAV:   1    -0.384849290597E+03    0.43043E-01   -0.11415E+01 34896   0.859E+00    0.675E-01
DAV:   2    -0.384895635271E+03   -0.46345E-01   -0.47317E-01 33360   0.156E+00    0.981E-01
DAV:   3    -0.384902737999E+03   -0.71027E-02   -0.50008E-02 47488   0.475E-01    0.211E+00
DAV:   4    -0.384896178477E+03    0.65595E-02   -0.34673E-02 48512   0.326E-01    0.101E+00
DAV:   5    -0.384894665956E+03    0.15125E-02   -0.89957E-03 50192   0.206E-01    0.523E-01
DAV:   6    -0.384894771284E+03   -0.10533E-03   -0.28498E-03 48976   0.139E-01    0.566E-01
DAV:   7    -0.384894608993E+03    0.16229E-03   -0.33235E-03 45536   0.133E-01    0.576E-01
DAV:   8    -0.384894141137E+03    0.46786E-03   -0.17677E-03 47264   0.114E-01    0.264E-01
DAV:   9    -0.384894275372E+03   -0.13424E-03   -0.11955E-03 47248   0.792E-02    0.369E-01
DAV:  10    -0.384894128464E+03    0.14691E-03   -0.11149E-03 45408   0.672E-02    0.223E-01
DAV:  11    -0.384894055743E+03    0.72721E-04   -0.30464E-04 37312   0.463E-02    0.863E-02
DAV:  12    -0.384894076096E+03   -0.20353E-04   -0.10781E-04 32304   0.331E-02    0.121E-01
DAV:  13    -0.384894056164E+03    0.19932E-04   -0.79027E-05 32688   0.282E-02    0.554E-02
DAV:  14    -0.384894068218E+03   -0.12054E-04   -0.42468E-05 31136   0.202E-02    0.755E-02
DAV:  15    -0.384894061481E+03    0.67375E-05   -0.25199E-05 28144   0.150E-02
  35 F= -.38489406E+03 E0= -.38487397E+03  d E =-.417365E-02  mag=    20.0000
       N       E                     dE             d eps       ncg     rms          rms(c)
DAV:   1    -0.384885878109E+03    0.81901E-02   -0.40956E+00 35552   0.497E+00    0.552E-01
DAV:   2    -0.384901723448E+03   -0.15845E-01   -0.16173E-01 34432   0.957E-01    0.160E+00
DAV:   3    -0.384899434749E+03    0.22887E-02   -0.37654E-02 45856   0.390E-01    0.117E+00
DAV:   4    -0.384900135070E+03   -0.70032E-03   -0.19298E-02 48592   0.266E-01    0.127E+00
DAV:   5    -0.384897182870E+03    0.29522E-02   -0.93527E-03 47296   0.219E-01    0.556E-01
DAV:   6    -0.384897026020E+03    0.15685E-03   -0.25158E-03 47248   0.116E-01    0.373E-01
DAV:   7    -0.384897365955E+03   -0.33993E-03   -0.25682E-03 47424   0.125E-01    0.530E-01
DAV:   8    -0.384896853030E+03    0.51292E-03   -0.16090E-03 47808   0.109E-01    0.250E-01
DAV:   9    -0.384896829879E+03    0.23151E-04   -0.51593E-04 44192   0.489E-02    0.195E-01
DAV:  10    -0.384896811067E+03    0.18812E-04   -0.27829E-04 35584   0.413E-02    0.146E-01
DAV:  11    -0.384896771844E+03    0.39223E-04   -0.12001E-04 33808   0.322E-02    0.616E-02
DAV:  12    -0.384896791711E+03   -0.19867E-04   -0.87395E-05 31888   0.275E-02    0.897E-02
DAV:  13    -0.384896785833E+03    0.58783E-05   -0.56651E-05 31440   0.253E-02
  36 F= -.38489679E+03 E0= -.38487668E+03  d E =-.272435E-02  mag=    20.0000
       N       E                     dE             d eps       ncg     rms          rms(c)
DAV:   1    -0.384875450066E+03    0.21342E-01   -0.83454E+00 35504   0.709E+00    0.785E-01
DAV:   2    -0.384906991663E+03   -0.31542E-01   -0.32923E-01 34400   0.136E+00    0.219E+00
DAV:   3    -0.384903619359E+03    0.33723E-02   -0.74270E-02 45952   0.535E-01    0.168E+00
DAV:   4    -0.384904719039E+03   -0.10997E-02   -0.37863E-02 48000   0.384E-01    0.184E+00
DAV:   5    -0.384898361400E+03    0.63576E-02   -0.17471E-02 47376   0.315E-01    0.695E-01
DAV:   6    -0.384898423133E+03   -0.61733E-04   -0.52909E-03 47808   0.166E-01    0.615E-01
DAV:   7    -0.384898625872E+03   -0.20274E-03   -0.54953E-03 47376   0.164E-01    0.673E-01
DAV:   8    -0.384897913062E+03    0.71281E-03   -0.21216E-03 47824   0.131E-01    0.286E-01
DAV:   9    -0.384897956682E+03   -0.43621E-04   -0.88799E-04 47232   0.672E-02    0.317E-01
DAV:  10    -0.384897893142E+03    0.63541E-04   -0.76209E-04 42016   0.573E-02    0.238E-01
DAV:  11    -0.384897793713E+03    0.99429E-04   -0.30042E-04 38032   0.443E-02    0.833E-02
DAV:  12    -0.384897847158E+03   -0.53446E-04   -0.20995E-04 36480   0.413E-02    0.148E-01
DAV:  13    -0.384897825440E+03    0.21718E-04   -0.14489E-04 34912   0.400E-02    0.964E-02
DAV:  14    -0.384897834194E+03   -0.87547E-05   -0.92089E-05 31328   0.244E-02
  37 F= -.38489783E+03 E0= -.38487775E+03  d E =-.377271E-02  mag=    20.0000
       N       E                     dE             d eps       ncg     rms          rms(c)
DAV:   1    -0.384882529929E+03    0.15296E-01   -0.59091E+00 35648   0.583E+00    0.454E-01
DAV:   2    -0.384904490439E+03   -0.21961E-01   -0.19848E-01 35296   0.105E+00    0.148E+00
DAV:   3    -0.384902022152E+03    0.24683E-02   -0.29932E-02 45696   0.362E-01    0.101E+00
DAV:   4    -0.384902244014E+03   -0.22186E-03   -0.11808E-02 49808   0.223E-01    0.953E-01
DAV:   5    -0.384900520463E+03    0.17236E-02   -0.49031E-03 47616   0.172E-01    0.416E-01
DAV:   6    -0.384900444370E+03    0.76092E-04   -0.19596E-03 47600   0.892E-02    0.319E-01
DAV:   7    -0.384900639141E+03   -0.19477E-03   -0.21346E-03 47344   0.101E-01    0.458E-01
DAV:   8    -0.384900365389E+03    0.27375E-03   -0.17956E-03 47104   0.911E-02    0.346E-01
DAV:   9    -0.384900224755E+03    0.14063E-03   -0.52445E-04 46368   0.550E-02    0.155E-01
DAV:  10    -0.384900227053E+03   -0.22983E-05   -0.18241E-04 36432   0.421E-02    0.145E-01
DAV:  11    -0.384900184193E+03    0.42860E-04   -0.12364E-04 34560   0.356E-02    0.658E-02
DAV:  12    -0.384900212786E+03   -0.28593E-04   -0.11510E-04 33216   0.329E-02    0.110E-01
DAV:  13    -0.384900198236E+03    0.14550E-04   -0.80690E-05 32672   0.305E-02    0.603E-02
DAV:  14    -0.384900203009E+03   -0.47724E-05   -0.41530E-05 29776   0.174E-02
  38 F= -.38490020E+03 E0= -.38488008E+03  d E =-.236881E-02  mag=    20.0000
       N       E                     dE             d eps       ncg     rms          rms(c)
DAV:   1    -0.384867641856E+03    0.32556E-01   -0.11201E+01 35728   0.803E+00    0.622E-01
DAV:   2    -0.384908428373E+03   -0.40787E-01   -0.37452E-01 34752   0.145E+00    0.189E+00
DAV:   3    -0.384905212532E+03    0.32158E-02   -0.56565E-02 45840   0.487E-01    0.145E+00
DAV:   4    -0.384904878178E+03    0.33435E-03   -0.22747E-02 48608   0.310E-01    0.125E+00
DAV:   5    -0.384901773172E+03    0.31050E-02   -0.76418E-03 47792   0.231E-01    0.487E-01
DAV:   6    -0.384901825088E+03   -0.51916E-04   -0.36925E-03 48224   0.121E-01    0.489E-01
DAV:   7    -0.384902103562E+03   -0.27847E-03   -0.44347E-03 47536   0.142E-01    0.637E-01
DAV:   8    -0.384901450119E+03    0.65344E-03   -0.27027E-03 47312   0.123E-01    0.364E-01
DAV:   9    -0.384901364934E+03    0.85185E-04   -0.83416E-04 47424   0.695E-02    0.257E-01
DAV:  10    -0.384901325827E+03    0.39107E-04   -0.44860E-04 43632   0.581E-02    0.194E-01
DAV:  11    -0.384901255643E+03    0.70184E-04   -0.26779E-04 41984   0.503E-02    0.961E-02
DAV:  12    -0.384901299062E+03   -0.43419E-04   -0.17362E-04 37728   0.435E-02    0.137E-01
DAV:  13    -0.384901276361E+03    0.22701E-04   -0.10944E-04 35008   0.378E-02    0.744E-02
DAV:  14    -0.384901284021E+03   -0.76591E-05   -0.58283E-05 30896   0.216E-02
  39 F= -.38490128E+03 E0= -.38488110E+03  d E =-.344983E-02  mag=    20.0000
       N       E                     dE             d eps       ncg     rms          rms(c)
DAV:   1    -0.384871412423E+03    0.29864E-01   -0.85231E+00 35760   0.755E+00    0.581E-01
DAV:   2    -0.384907128843E+03   -0.35716E-01   -0.34316E-01 33392   0.137E+00    0.145E+00
DAV:   3    -0.384906699872E+03    0.42897E-03   -0.30007E-02 46256   0.422E-01    0.133E+00
DAV:   4    -0.384905944835E+03    0.75504E-03   -0.18160E-02 47616   0.259E-01    0.924E-01
DAV:   5    -0.384904634258E+03    0.13106E-02   -0.62038E-03 48544   0.188E-01    0.494E-01
DAV:   6    -0.384904494844E+03    0.13941E-03   -0.21858E-03 50240   0.938E-02    0.368E-01
DAV:   7    -0.384904788695E+03   -0.29385E-03   -0.34159E-03 47536   0.121E-01    0.555E-01
DAV:   8    -0.384904425019E+03    0.36368E-03   -0.38798E-03 47168   0.113E-01    0.432E-01
DAV:   9    -0.384904174710E+03    0.25031E-03   -0.13238E-03 47376   0.841E-02    0.182E-01
DAV:  10    -0.384904210228E+03   -0.35518E-04   -0.39730E-04 45520   0.562E-02    0.189E-01
DAV:  11    -0.384904136868E+03    0.73360E-04   -0.23068E-04 39376   0.437E-02    0.820E-02
DAV:  12    -0.384904148370E+03   -0.11502E-04   -0.63520E-05 31856   0.290E-02    0.841E-02
DAV:  13    -0.384904142855E+03    0.55154E-05   -0.41015E-05 31136   0.221E-02
  40 F= -.38490414E+03 E0= -.38488395E+03  d E =-.285883E-02  mag=    20.0000
       N       E                     dE             d eps       ncg     rms          rms(c)
DAV:   1    -0.384890586387E+03    0.13562E-01   -0.36644E+00 35616   0.495E+00    0.384E-01
DAV:   2    -0.384906246841E+03   -0.15660E-01   -0.14722E-01 33424   0.900E-01    0.101E+00
DAV:   3    -0.384905603710E+03    0.64313E-03   -0.13164E-02 46544   0.296E-01    0.811E-01
DAV:   4    -0.384905483339E+03    0.12037E-03   -0.78484E-03 47360   0.167E-01    0.687E-01
DAV:   5    -0.384904763146E+03    0.72019E-03   -0.26713E-03 50432   0.124E-01    0.270E-01
DAV:   6    -0.384904807629E+03   -0.44482E-04   -0.74781E-04 47552   0.583E-02    0.290E-01
DAV:   7    -0.384904859381E+03   -0.51752E-04   -0.11336E-03 46624   0.760E-02    0.344E-01
DAV:   8    -0.384904750240E+03    0.10914E-03   -0.15257E-03 46720   0.779E-02    0.283E-01
DAV:   9    -0.384904652927E+03    0.97313E-04   -0.89978E-04 43984   0.532E-02    0.165E-01
DAV:  10    -0.384904648463E+03    0.44640E-05   -0.34436E-04 33840   0.400E-02    0.125E-01
DAV:  11    -0.384904616521E+03    0.31942E-04   -0.10198E-04 33344   0.310E-02    0.508E-02
DAV:  12    -0.384904629950E+03   -0.13429E-04   -0.46422E-05 31184   0.221E-02    0.810E-02
DAV:  13    -0.384904623450E+03    0.65001E-05   -0.37781E-05 30176   0.187E-02
  41 F= -.38490462E+03 E0= -.38488439E+03  d E =-.333943E-02  mag=    20.0000
       N       E                     dE             d eps       ncg     rms          rms(c)
DAV:   1    -0.384873378310E+03    0.31252E-01   -0.10701E+01 35216   0.799E+00    0.599E-01
DAV:   2    -0.384910169520E+03   -0.36791E-01   -0.36451E-01 33328   0.142E+00    0.120E+00
DAV:   3    -0.384911778601E+03   -0.16091E-02   -0.37290E-02 47328   0.442E-01    0.153E+00
DAV:   4    -0.384909874259E+03    0.19043E-02   -0.29369E-02 47328   0.289E-01    0.106E+00
DAV:   5    -0.384908363302E+03    0.15110E-02   -0.10887E-02 49536   0.206E-01    0.578E-01
DAV:   6    -0.384908082078E+03    0.28122E-03   -0.42479E-03 48432   0.106E-01    0.400E-01
DAV:   7    -0.384908297227E+03   -0.21515E-03   -0.28163E-03 47744   0.127E-01    0.551E-01
DAV:   8    -0.384907981192E+03    0.31603E-03   -0.24605E-03 47264   0.108E-01    0.446E-01
DAV:   9    -0.384907736610E+03    0.24458E-03   -0.96976E-04 47360   0.732E-02    0.206E-01
DAV:  10    -0.384907750664E+03   -0.14055E-04   -0.37989E-04 42784   0.552E-02    0.191E-01
DAV:  11    -0.384907680490E+03    0.70174E-04   -0.20599E-04 40112   0.428E-02    0.797E-02
DAV:  12    -0.384907699523E+03   -0.19033E-04   -0.13632E-04 32912   0.341E-02    0.110E-01
DAV:  13    -0.384907687150E+03    0.12373E-04   -0.97042E-05 32368   0.291E-02    0.638E-02
DAV:  14    -0.384907693761E+03   -0.66113E-05   -0.44557E-05 31456   0.224E-02
  42 F= -.38490769E+03 E0= -.38488745E+03  d E =-.307031E-02  mag=    20.0000
       N       E                     dE             d eps       ncg     rms          rms(c)
DAV:   1    -0.384865045191E+03    0.42642E-01   -0.13526E+01 35296   0.899E+00    0.673E-01
DAV:   2    -0.384910932657E+03   -0.45887E-01   -0.45975E-01 33312   0.159E+00    0.123E+00
DAV:   3    -0.384913374432E+03   -0.24418E-02   -0.40268E-02 47552   0.481E-01    0.171E+00
DAV:   4    -0.384910456178E+03    0.29183E-02   -0.30944E-02 46720   0.304E-01    0.105E+00
DAV:   5    -0.384909000609E+03    0.14556E-02   -0.10400E-02 49056   0.212E-01    0.507E-01
DAV:   6    -0.384909115360E+03   -0.11475E-03   -0.55862E-03 50000   0.113E-01    0.575E-01
DAV:   7    -0.384908970801E+03    0.14456E-03   -0.43699E-03 46864   0.147E-01    0.483E-01
DAV:   8    -0.384908762404E+03    0.20840E-03   -0.37556E-03 47120   0.121E-01    0.498E-01
DAV:   9    -0.384908451051E+03    0.31135E-03   -0.11663E-03 47376   0.776E-02    0.217E-01
DAV:  10    -0.384908442264E+03    0.87877E-05   -0.41317E-04 44144   0.572E-02    0.177E-01
DAV:  11    -0.384908392504E+03    0.49760E-04   -0.22031E-04 40080   0.460E-02    0.969E-02
DAV:  12    -0.384908417538E+03   -0.25034E-04   -0.11078E-04 34960   0.352E-02    0.127E-01
DAV:  13    -0.384908399046E+03    0.18492E-04   -0.97075E-05 32160   0.301E-02    0.592E-02
DAV:  14    -0.384908410709E+03   -0.11663E-04   -0.44360E-05 31536   0.217E-02    0.751E-02
DAV:  15    -0.384908402115E+03    0.85936E-05   -0.31535E-05 30464   0.189E-02
[...]
DAV:   1    -0.384882081373E+03    0.30782E-01   -0.10827E+01 34928   0.804E+00    0.644E-01
DAV:   2    -0.384919863465E+03   -0.37782E-01   -0.38363E-01 33600   0.145E+00    0.139E+00
DAV:   3    -0.384921632059E+03   -0.17686E-02   -0.51563E-02 46944   0.454E-01    0.169E+00
DAV:   4    -0.384920647649E+03    0.98441E-03   -0.31014E-02 49872   0.312E-01    0.151E+00
DAV:   5    -0.384917031710E+03    0.36159E-02   -0.14173E-02 48256   0.232E-01    0.514E-01
DAV:   6    -0.384917191219E+03   -0.15951E-03   -0.42803E-03 47744   0.134E-01    0.522E-01
DAV:   7    -0.384917418178E+03   -0.22696E-03   -0.34138E-03 47568   0.137E-01    0.671E-01
DAV:   8    -0.384916744517E+03    0.67366E-03   -0.30297E-03 47408   0.125E-01    0.401E-01
DAV:   9    -0.384916577756E+03    0.16676E-03   -0.10348E-03 47264   0.823E-02    0.182E-01
DAV:  10    -0.384916598658E+03   -0.20902E-04   -0.49244E-04 45232   0.526E-02    0.174E-01
DAV:  11    -0.384916543270E+03    0.55389E-04   -0.15740E-04 35920   0.401E-02    0.748E-02
DAV:  12    -0.384916549958E+03   -0.66883E-05   -0.71505E-05 31744   0.216E-02
  46 F= -.38491655E+03 E0= -.38489627E+03  d E =-.368656E-02  mag=    20.0000
       N       E                     dE             d eps       ncg     rms          rms(c)
DAV:   1    -0.384812005907E+03    0.10454E+00   -0.32999E+01 34848   0.141E+01    0.113E+00
DAV:   2    -0.384927529214E+03   -0.11552E+00   -0.11887E+00 33520   0.254E+00    0.227E+00
DAV:   3    -0.384939862711E+03   -0.12333E-01   -0.17915E-01 46304   0.777E-01    0.329E+00
DAV:   4    -0.384926490507E+03    0.13372E-01   -0.85834E-02 48624   0.570E-01    0.205E+00
DAV:   5    -0.384920280086E+03    0.62104E-02   -0.29477E-02 48960   0.375E-01    0.842E-01
DAV:   6    -0.384920519745E+03   -0.23966E-03   -0.11241E-02 47504   0.253E-01    0.765E-01
DAV:   7    -0.384921165708E+03   -0.64596E-03   -0.10852E-02 47520   0.243E-01    0.122E+00
DAV:   8    -0.384919383468E+03    0.17822E-02   -0.10311E-02 47376   0.193E-01    0.663E-01
DAV:   9    -0.384919001566E+03    0.38190E-03   -0.27361E-03 47680   0.131E-01    0.363E-01
DAV:  10    -0.384918921581E+03    0.79985E-04   -0.10725E-03 47280   0.966E-02    0.303E-01
DAV:  11    -0.384918813005E+03    0.10858E-03   -0.71227E-04 46768   0.702E-02    0.212E-01
DAV:  12    -0.384918829595E+03   -0.16590E-04   -0.47358E-04 43408   0.620E-02    0.156E-01
DAV:  13    -0.384918821062E+03    0.85333E-05   -0.44732E-04 39680   0.539E-02    0.125E-01
DAV:  14    -0.384918819518E+03    0.15437E-05   -0.20019E-04 32992   0.373E-02    0.996E-02
DAV:  15    -0.384918820424E+03   -0.90625E-06   -0.89608E-05 32080   0.250E-02
  47 F= -.38491882E+03 E0= -.38489859E+03  d E =-.595703E-02  mag=    20.0000
       N       E                     dE             d eps       ncg     rms          rms(c)
DAV:   1    -0.384898643726E+03    0.20176E-01   -0.67310E+00 35792   0.651E+00    0.500E-01
DAV:   2    -0.384923249654E+03   -0.24606E-01   -0.24435E-01 33456   0.117E+00    0.957E-01
DAV:   3    -0.384924922841E+03   -0.16732E-02   -0.26529E-02 47328   0.369E-01    0.132E+00
DAV:   4    -0.384924703358E+03    0.21948E-03   -0.24584E-02 50416   0.257E-01    0.131E+00
DAV:   5    -0.384921831976E+03    0.28714E-02   -0.87594E-03 47808   0.194E-01    0.369E-01
DAV:   6    -0.384921951565E+03   -0.11959E-03   -0.24451E-03 47856   0.984E-02    0.397E-01
DAV:   7    -0.384922076852E+03   -0.12529E-03   -0.19349E-03 47424   0.953E-02    0.479E-01
DAV:   8    -0.384921734605E+03    0.34225E-03   -0.14159E-03 47392   0.934E-02    0.268E-01
DAV:   9    -0.384921712850E+03    0.21754E-04   -0.69125E-04 46208   0.563E-02    0.219E-01
DAV:  10    -0.384921674745E+03    0.38105E-04   -0.31921E-04 39184   0.437E-02    0.146E-01
DAV:  11    -0.384921637663E+03    0.37082E-04   -0.97944E-05 32544   0.326E-02    0.505E-02
DAV:  12    -0.384921649691E+03   -0.12028E-04   -0.56413E-05 32000   0.260E-02    0.702E-02
DAV:  13    -0.384921652609E+03   -0.29177E-05   -0.68354E-05 30896   0.230E-02
  48 F= -.38492165E+03 E0= -.38490141E+03  d E =-.283218E-02  mag=    20.0000
       N       E                     dE             d eps       ncg     rms          rms(c)
DAV:   1    -0.384891136537E+03    0.30513E-01   -0.92249E+00 35792   0.762E+00    0.575E-01
DAV:   2    -0.384923620300E+03   -0.32484E-01   -0.33200E-01 33376   0.136E+00    0.744E-01
DAV:   3    -0.384927448057E+03   -0.38278E-02   -0.21378E-02 47664   0.413E-01    0.155E+00
DAV:   4    -0.384925805659E+03    0.16424E-02   -0.33059E-02 48720   0.296E-01    0.135E+00
DAV:   5    -0.384922876037E+03    0.29296E-02   -0.85518E-03 49200   0.192E-01    0.346E-01
DAV:   6    -0.384923176296E+03   -0.30026E-03   -0.24538E-03 49808   0.107E-01    0.499E-01
DAV:   7    -0.384923229421E+03   -0.53125E-04   -0.36670E-03 47504   0.121E-01    0.574E-01
DAV:   8    -0.384922755510E+03    0.47391E-03   -0.25892E-03 47312   0.108E-01    0.281E-01
DAV:   9    -0.384922723647E+03    0.31863E-04   -0.55116E-04 47600   0.695E-02    0.225E-01
DAV:  10    -0.384922701234E+03    0.22412E-04   -0.38798E-04 41600   0.417E-02    0.185E-01
DAV:  11    -0.384922656391E+03    0.44843E-04   -0.16977E-04 33008   0.324E-02    0.901E-02
DAV:  12    -0.384922654454E+03    0.19371E-05   -0.13399E-04 32704   0.311E-02    0.797E-02
DAV:  13    -0.384922663271E+03   -0.88172E-05   -0.11031E-04 31760   0.263E-02    0.843E-02
DAV:  14    -0.384922659914E+03    0.33568E-05   -0.62714E-05 31168   0.224E-02
  49 F= -.38492266E+03 E0= -.38490242E+03  d E =-.383949E-02  mag=    20.0000
       N       E                     dE             d eps       ncg     rms          rms(c)
DAV:   1    -0.384904828919E+03    0.17834E-01   -0.57610E+00 35312   0.611E+00    0.524E-01
DAV:   2    -0.384927296526E+03   -0.22468E-01   -0.22533E-01 33424   0.112E+00    0.111E+00
DAV:   3    -0.384928948288E+03   -0.16518E-02   -0.29970E-02 47760   0.356E-01    0.148E+00
DAV:   4    -0.384927543245E+03    0.14050E-02   -0.24605E-02 49904   0.256E-01    0.117E+00
DAV:   5    -0.384925606627E+03    0.19366E-02   -0.13298E-02 48112   0.192E-01    0.546E-01
DAV:   6    -0.384925511022E+03    0.95605E-04   -0.29830E-03 47504   0.110E-01    0.450E-01
DAV:   7    -0.384925568803E+03   -0.57781E-04   -0.22554E-03 47520   0.119E-01    0.435E-01
DAV:   8    -0.384925230063E+03    0.33874E-03   -0.14166E-03 47264   0.971E-02    0.257E-01
DAV:   9    -0.384925213646E+03    0.16417E-04   -0.53640E-04 44704   0.486E-02    0.195E-01
DAV:  10    -0.384925172483E+03    0.41163E-04   -0.24631E-04 35360   0.410E-02    0.115E-01
DAV:  11    -0.384925172567E+03   -0.83834E-07   -0.19188E-04 32496   0.380E-02    0.132E-01
DAV:  12    -0.384925159426E+03    0.13141E-04   -0.13024E-04 32448   0.336E-02    0.954E-02
DAV:  13    -0.384925159680E+03   -0.25444E-06   -0.75638E-05 31744   0.280E-02
  50 F= -.38492516E+03 E0= -.38490491E+03  d E =-.249977E-02  mag=    20.0000
       N       E                     dE             d eps       ncg     rms          rms(c)
DAV:   1    -0.384900687764E+03    0.24472E-01   -0.70858E+00 35296   0.678E+00    0.591E-01
DAV:   2    -0.384929616707E+03   -0.28929E-01   -0.28258E-01 33648   0.126E+00    0.146E+00
DAV:   3    -0.384930164818E+03   -0.54811E-03   -0.46234E-02 46848   0.430E-01    0.161E+00
DAV:   4    -0.384928742757E+03    0.14221E-02   -0.27597E-02 49680   0.294E-01    0.133E+00
DAV:   5    -0.384926290127E+03    0.24526E-02   -0.18814E-02 48080   0.232E-01    0.646E-01
DAV:   6    -0.384926068501E+03    0.22163E-03   -0.40880E-03 46480   0.132E-01    0.498E-01
DAV:   7    -0.384926261827E+03   -0.19333E-03   -0.27979E-03 47424   0.139E-01    0.520E-01
DAV:   8    -0.384925751115E+03    0.51071E-03   -0.16010E-03 47232   0.118E-01    0.269E-01
DAV:   9    -0.384925711316E+03    0.39798E-04   -0.54580E-04 47200   0.678E-02    0.188E-01
DAV:  10    -0.384925687194E+03    0.24123E-04   -0.28783E-04 37776   0.446E-02    0.169E-01
DAV:  11    -0.384925677150E+03    0.10044E-04   -0.33422E-04 33648   0.390E-02    0.178E-01
DAV:  12    -0.384925657700E+03    0.19449E-04   -0.20138E-04 32944   0.362E-02    0.116E-01
DAV:  13    -0.384925653852E+03    0.38484E-05   -0.11042E-04 33312   0.344E-02    0.824E-02
DAV:  14    -0.384925660914E+03   -0.70619E-05   -0.96164E-05 31760   0.310E-02
  51 F= -.38492566E+03 E0= -.38490532E+03  d E =-.300100E-02  mag=    20.0000
       N       E                     dE             d eps       ncg     rms          rms(c)
DAV:   1    -0.384913119893E+03    0.12534E-01   -0.48044E+00 34944   0.537E+00    0.529E-01
DAV:   2    -0.384933976970E+03   -0.20857E-01   -0.18539E-01 35536   0.103E+00    0.196E+00
DAV:   3    -0.384929274518E+03    0.47025E-02   -0.41260E-02 45312   0.397E-01    0.106E+00
DAV:   4    -0.384929838539E+03   -0.56402E-03   -0.21215E-02 49776   0.245E-01    0.115E+00
DAV:   5    -0.384928384933E+03    0.14536E-02   -0.15208E-02 47232   0.211E-01    0.795E-01
DAV:   6    -0.384927554057E+03    0.83088E-03   -0.37045E-03 47680   0.131E-01    0.325E-01
DAV:   7    -0.384928009878E+03   -0.45582E-03   -0.22047E-03 47584   0.123E-01    0.542E-01
DAV:   8    -0.384927714664E+03    0.29521E-03   -0.21061E-03 47376   0.102E-01    0.445E-01
DAV:   9    -0.384927428340E+03    0.28632E-03   -0.95918E-04 46512   0.685E-02    0.148E-01
DAV:  10    -0.384927430080E+03   -0.17393E-05   -0.19236E-04 36576   0.387E-02    0.126E-01
DAV:  11    -0.384927412027E+03    0.18053E-04   -0.14801E-04 33232   0.331E-02    0.115E-01
DAV:  12    -0.384927411122E+03    0.90501E-06   -0.12114E-04 33104   0.334E-02    0.109E-01
DAV:  13    -0.384927407195E+03    0.39265E-05   -0.11012E-04 32800   0.334E-02    0.927E-02
DAV:  14    -0.384927400127E+03    0.70687E-05   -0.70808E-05 31584   0.288E-02
  52 F= -.38492740E+03 E0= -.38490704E+03  d E =-.173921E-02  mag=    20.0000
       N       E                     dE             d eps       ncg     rms          rms(c)
DAV:   1    -0.384903048922E+03    0.24358E-01   -0.83969E+00 34944   0.710E+00    0.705E-01
DAV:   2    -0.384940965267E+03   -0.37916E-01   -0.32671E-01 35952   0.137E+00    0.264E+00
DAV:   3    -0.384931049728E+03    0.99155E-02   -0.74206E-02 45072   0.540E-01    0.137E+00
DAV:   4    -0.384932302087E+03   -0.12524E-02   -0.35385E-02 49840   0.321E-01    0.148E+00
DAV:   5    -0.384929967894E+03    0.23342E-02   -0.25645E-02 47296   0.281E-01    0.111E+00
DAV:   6    -0.384928271210E+03    0.16967E-02   -0.70087E-03 47584   0.177E-01    0.400E-01
DAV:   7    -0.384928961589E+03   -0.69038E-03   -0.37365E-03 47408   0.164E-01    0.636E-01
DAV:   8    -0.384928583736E+03    0.37785E-03   -0.34189E-03 47392   0.137E-01    0.607E-01
DAV:   9    -0.384928062868E+03    0.52087E-03   -0.16740E-03 47376   0.856E-02    0.188E-01
DAV:  10    -0.384928089956E+03   -0.27088E-04   -0.38399E-04 40000   0.515E-02    0.184E-01
DAV:  11    -0.384928045521E+03    0.44436E-04   -0.31440E-04 36704   0.433E-02    0.147E-01
DAV:  12    -0.384928044452E+03    0.10682E-05   -0.20042E-04 35792   0.421E-02    0.135E-01
DAV:  13    -0.384928021959E+03    0.22493E-04   -0.15046E-04 35184   0.423E-02    0.843E-02
DAV:  14    -0.384928033555E+03   -0.11596E-04   -0.98762E-05 32032   0.326E-02    0.980E-02
DAV:  15    -0.384928019624E+03    0.13931E-04   -0.50425E-05 31328   0.236E-02    0.487E-02
DAV:  16    -0.384928018890E+03    0.73355E-06   -0.25236E-05 30528   0.186E-02
  53 F= -.38492802E+03 E0= -.38490759E+03  d E =-.235798E-02  mag=    20.0000
       N       E                     dE             d eps       ncg     rms          rms(c)
DAV:   1    -0.384918693735E+03    0.93259E-02   -0.31417E+00 34944   0.463E+00    0.441E-01
DAV:   2    -0.384930995789E+03   -0.12302E-01   -0.13331E-01 33520   0.874E-01    0.743E-01
DAV:   3    -0.384932431521E+03   -0.14357E-02   -0.17425E-02 46640   0.290E-01    0.120E+00
DAV:   4    -0.384932069544E+03    0.36198E-03   -0.18146E-02 47984   0.213E-01    0.113E+00
DAV:   5    -0.384930118930E+03    0.19506E-02   -0.96509E-03 47216   0.160E-01    0.403E-01
DAV:   6    -0.384930186503E+03   -0.67573E-04   -0.22635E-03 48832   0.948E-02    0.397E-01
DAV:   7    -0.384930195246E+03   -0.87433E-05   -0.17593E-03 47952   0.937E-02    0.411E-01
DAV:   8    -0.384929945647E+03    0.24960E-03   -0.10606E-03 46816   0.747E-02    0.204E-01
DAV:   9    -0.384929970481E+03   -0.24834E-04   -0.53795E-04 42160   0.477E-02    0.204E-01
DAV:  10    -0.384929933426E+03    0.37055E-04   -0.23191E-04 35296   0.351E-02    0.112E-01
DAV:  11    -0.384929921335E+03    0.12091E-04   -0.80195E-05 31584   0.259E-02    0.688E-02
DAV:  12    -0.384929922261E+03   -0.92597E-06   -0.34770E-05 28400   0.161E-02
  54 F= -.38492992E+03 E0= -.38490944E+03  d E =-.190337E-02  mag=    20.0000
       N       E                     dE             d eps       ncg     rms          rms(c)
DAV:   1    -0.384925567880E+03    0.43535E-02   -0.13029E+00 34944   0.298E+00    0.287E-01
DAV:   2    -0.384930798456E+03   -0.52306E-02   -0.55776E-02 34000   0.566E-01    0.568E-01
DAV:   3    -0.384930835421E+03   -0.36965E-04   -0.68802E-03 46416   0.189E-01    0.612E-01
DAV:   4    -0.384930833906E+03    0.15148E-05   -0.47246E-03 48640   0.122E-01    0.627E-01
DAV:   5    -0.384930345471E+03    0.48844E-03   -0.31082E-03 47632   0.944E-02    0.311E-01
DAV:   6    -0.384930319611E+03    0.25860E-04   -0.12070E-03 43808   0.648E-02    0.278E-01
DAV:   7    -0.384930388220E+03   -0.68609E-04   -0.10841E-03 44976   0.683E-02    0.313E-01
DAV:   8    -0.384930234757E+03    0.15346E-03   -0.70860E-04 44784   0.583E-02    0.183E-01
DAV:   9    -0.384930206854E+03    0.27902E-04   -0.23566E-04 35280   0.320E-02    0.105E-01
DAV:  10    -0.384930201132E+03    0.57222E-05   -0.62078E-05 31136   0.206E-02
  55 F= -.38493020E+03 E0= -.38490960E+03  d E =-.218224E-02  mag=    20.0000
       N       E                     dE             d eps       ncg     rms          rms(c)
DAV:   1    -0.384926373939E+03    0.38329E-02   -0.13932E+00 35744   0.311E+00    0.275E-01
DAV:   2    -0.384932132698E+03   -0.57588E-02   -0.56962E-02 33472   0.584E-01    0.633E-01
DAV:   3    -0.384931950984E+03    0.18171E-03   -0.49768E-03 46880   0.195E-01    0.546E-01
DAV:   4    -0.384931951985E+03   -0.10004E-05   -0.29568E-03 47952   0.107E-01    0.553E-01
DAV:   5    -0.384931462998E+03    0.48899E-03   -0.16212E-03 47168   0.846E-02    0.218E-01
DAV:   6    -0.384931522035E+03   -0.59037E-04   -0.91786E-04 40832   0.531E-02    0.289E-01
DAV:   7    -0.384931584233E+03   -0.62198E-04   -0.12938E-03 44032   0.614E-02    0.356E-01
DAV:   8    -0.384931405338E+03    0.17889E-03   -0.95012E-04 42720   0.596E-02    0.193E-01
DAV:   9    -0.384931369818E+03    0.35520E-04   -0.37000E-04 35264   0.371E-02    0.921E-02
DAV:  10    -0.384931388010E+03   -0.18191E-04   -0.10752E-04 31376   0.280E-02    0.963E-02
DAV:  11    -0.384931367822E+03    0.20188E-04   -0.37494E-05 30400   0.224E-02    0.365E-02
DAV:  12    -0.384931370537E+03   -0.27156E-05   -0.17723E-05 24480   0.105E-02
  56 F= -.38493137E+03 E0= -.38491080E+03  d E =-.116941E-02  mag=    20.0000
       N       E                     dE             d eps       ncg     rms          rms(c)
DAV:   1    -0.384926838060E+03    0.45298E-02   -0.13592E+00 35760   0.307E+00    0.262E-01
DAV:   2    -0.384932061026E+03   -0.52230E-02   -0.55018E-02 33328   0.569E-01    0.414E-01
DAV:   3    -0.384932511629E+03   -0.45060E-03   -0.41006E-03 48560   0.163E-01    0.643E-01
DAV:   4    -0.384932095756E+03    0.41587E-03   -0.29945E-03 47408   0.106E-01    0.450E-01
DAV:   5    -0.384931793460E+03    0.30230E-03   -0.14403E-03 46336   0.762E-02    0.176E-01
DAV:   6    -0.384931868850E+03   -0.75390E-04   -0.68041E-04 44800   0.556E-02    0.280E-01
DAV:   7    -0.384931943348E+03   -0.74498E-04   -0.13191E-03 43952   0.650E-02    0.359E-01
DAV:   8    -0.384931737571E+03    0.20578E-03   -0.10073E-03 42080   0.534E-02    0.148E-01
DAV:   9    -0.384931736542E+03    0.10295E-05   -0.24060E-04 32592   0.286E-02    0.119E-01
DAV:  10    -0.384931726148E+03    0.10393E-04   -0.89394E-05 31152   0.215E-02    0.594E-02
DAV:  11    -0.384931722432E+03    0.37160E-05   -0.20859E-05 26784   0.141E-02
  57 F= -.38493172E+03 E0= -.38491109E+03  d E =-.152130E-02  mag=    20.0000
       N       E                     dE             d eps       ncg     rms          rms(c)
DAV:   1    -0.384928491243E+03    0.32349E-02   -0.12737E+00 35664   0.289E+00    0.261E-01
DAV:   2    -0.384935053944E+03   -0.65627E-02   -0.54021E-02 36176   0.547E-01    0.115E+00
DAV:   3    -0.384933142838E+03    0.19111E-02   -0.13462E-02 43552   0.208E-01    0.521E-01
DAV:   4    -0.384933311938E+03   -0.16910E-03   -0.49218E-03 51808   0.125E-01    0.559E-01
DAV:   5    -0.384932911524E+03    0.40041E-03   -0.30699E-03 46656   0.105E-01    0.329E-01
DAV:   6    -0.384932809602E+03    0.10192E-03   -0.80891E-04 44688   0.576E-02    0.178E-01
DAV:   7    -0.384932871321E+03   -0.61719E-04   -0.42370E-04 43072   0.534E-02    0.238E-01
DAV:   8    -0.384932813257E+03    0.58064E-04   -0.50762E-04 44704   0.493E-02    0.209E-01
DAV:   9    -0.384932758299E+03    0.54958E-04   -0.20594E-04 36416   0.340E-02    0.904E-02
DAV:  10    -0.384932762007E+03   -0.37076E-05   -0.50446E-05 30400   0.217E-02
  58 F= -.38493276E+03 E0= -.38491207E+03  d E =-.103957E-02  mag=    20.0000
       N       E                     dE             d eps       ncg     rms          rms(c)
DAV:   1    -0.384910862647E+03    0.21896E-01   -0.67826E+00 35552   0.668E+00    0.601E-01
DAV:   2    -0.384945734241E+03   -0.34872E-01   -0.28857E-01 35888   0.126E+00    0.255E+00
DAV:   3    -0.384935713855E+03    0.10020E-01   -0.70098E-02 43872   0.484E-01    0.116E+00
DAV:   4    -0.384936733208E+03   -0.10194E-02   -0.23363E-02 50784   0.291E-01    0.129E+00
DAV:   5    -0.384934663187E+03    0.20700E-02   -0.16591E-02 47024   0.244E-01    0.806E-01
DAV:   6    -0.384933944792E+03    0.71839E-03   -0.43635E-03 48320   0.141E-01    0.381E-01
DAV:   7    -0.384934344498E+03   -0.39971E-03   -0.23744E-03 47568   0.127E-01    0.578E-01
DAV:   8    -0.384934089735E+03    0.25476E-03   -0.32315E-03 47536   0.119E-01    0.524E-01
DAV:   9    -0.384933728301E+03    0.36143E-03   -0.15205E-03 47408   0.928E-02    0.245E-01
DAV:  10    -0.384933733331E+03   -0.50298E-05   -0.38380E-04 43216   0.543E-02    0.199E-01
DAV:  11    -0.384933673052E+03    0.60279E-04   -0.16691E-04 33264   0.375E-02    0.952E-02
DAV:  12    -0.384933668015E+03    0.50370E-05   -0.77408E-05 31696   0.265E-02
  59 F= -.38493367E+03 E0= -.38491290E+03  d E =-.194558E-02  mag=    20.0000
       N       E                     dE             d eps       ncg     rms          rms(c)
DAV:   1    -0.384927324836E+03    0.63482E-02   -0.19541E+00 35776   0.374E+00    0.362E-01
DAV:   2    -0.384938481098E+03   -0.11156E-01   -0.92823E-02 34224   0.714E-01    0.156E+00
DAV:   3    -0.384935437301E+03    0.30438E-02   -0.25284E-02 43616   0.278E-01    0.726E-01
DAV:   4    -0.384935865662E+03   -0.42836E-03   -0.96998E-03 47744   0.182E-01    0.837E-01
DAV:   5    -0.384934946854E+03    0.91881E-03   -0.47134E-03 47888   0.133E-01    0.408E-01
DAV:   6    -0.384934722387E+03    0.22447E-03   -0.97252E-04 49152   0.926E-02    0.193E-01
DAV:   7    -0.384934886961E+03   -0.16457E-03   -0.67570E-04 47312   0.808E-02    0.326E-01
DAV:   8    -0.384934689608E+03    0.19735E-03   -0.80866E-04 47136   0.797E-02    0.181E-01
DAV:   9    -0.384934665863E+03    0.23745E-04   -0.28272E-04 40128   0.455E-02    0.129E-01
DAV:  10    -0.384934673031E+03   -0.71683E-05   -0.18048E-04 32080   0.268E-02    0.135E-01
DAV:  11    -0.384934650462E+03    0.22569E-04   -0.10180E-04 30720   0.235E-02    0.744E-02
DAV:  12    -0.384934655537E+03   -0.50749E-05   -0.48194E-05 30672   0.188E-02
  60 F= -.38493466E+03 E0= -.38491381E+03  d E =-.987523E-03  mag=    20.0000
