       N       E                     dE             d eps       ncg     rms          rms(c)
DAV:   1     0.700022767127E+04    0.70002E+04   -0.24962E+05 32448   0.164E+03
DAV:   2     0.746409830186E+03   -0.62538E+04   -0.59646E+04 33080   0.509E+02
DAV:   3    -0.365315932675E+03   -0.11117E+04   -0.10901E+04 35136   0.208E+02
DAV:   4    -0.429611605999E+03   -0.64296E+02   -0.61859E+02 41544   0.523E+01
DAV:   5    -0.435186983157E+03   -0.55754E+01   -0.53964E+01 58024   0.126E+01    0.655E+01
DAV:   6    -0.397073334922E+03    0.38114E+02   -0.43481E+02 48992   0.591E+01    0.627E+01
DAV:   7    -0.439080981615E+03   -0.42008E+02   -0.42836E+02 48184   0.465E+01    0.612E+01
DAV:   8    -0.443523530414E+03   -0.44425E+01   -0.23380E+02 46784   0.323E+01    0.713E+01
DAV:   9    -0.407496497921E+03    0.36027E+02   -0.69018E+01 44480   0.192E+01    0.608E+01
DAV:  10    -0.390788908445E+03    0.16708E+02   -0.69394E+01 44936   0.115E+01    0.334E+01
DAV:  11    -0.389357493927E+03    0.14314E+01   -0.18552E+01 47328   0.112E+01    0.391E+01
DAV:  12    -0.382935983863E+03    0.64215E+01   -0.14117E+01 47536   0.935E+00    0.285E+01
DAV:  13    -0.384579296325E+03   -0.16433E+01   -0.56391E+01 46360   0.826E+00    0.314E+01
DAV:  14    -0.391005363006E+03   -0.64261E+01   -0.64139E+01 45744   0.110E+01    0.403E+01
DAV:  15    -0.384103744626E+03    0.69016E+01   -0.31776E+01 46104   0.875E+00    0.200E+01
DAV:  16    -0.383561340289E+03    0.54240E+00   -0.47254E+00 45800   0.521E+00    0.161E+01
DAV:  17    -0.384177810815E+03   -0.61647E+00   -0.24432E+00 43016   0.304E+00    0.170E+01
DAV:  18    -0.384258343359E+03   -0.80533E-01   -0.19459E-01 37808   0.103E+00    0.160E+01
DAV:  19    -0.384063520951E+03    0.19482E+00   -0.11558E-01 45504   0.956E-01    0.175E+01
DAV:  20    -0.384296872688E+03   -0.23335E+00   -0.74607E-02 43776   0.856E-01    0.162E+01
DAV:  21    -0.384560743738E+03   -0.26387E+00   -0.21674E-01 43992   0.125E+00    0.138E+01
DAV:  22    -0.385174547498E+03   -0.61380E+00   -0.84526E-01 44280   0.243E+00    0.144E+01
DAV:  23    -0.385205819653E+03   -0.31272E-01   -0.91012E-01 45880   0.270E+00    0.870E+00
DAV:  24    -0.385439486479E+03   -0.23367E+00   -0.40382E-01 44688   0.195E+00    0.757E+00
DAV:  25    -0.385592818283E+03   -0.15333E+00   -0.25213E-01 44776   0.147E+00    0.738E+00
DAV:  26    -0.385596869072E+03   -0.40508E-02   -0.16383E-01 44752   0.101E+00    0.706E+00
DAV:  27    -0.385494193555E+03    0.10268E+00   -0.54429E-01 47872   0.184E+00    0.630E+00
DAV:  28    -0.385548565466E+03   -0.54372E-01   -0.17967E-01 41720   0.108E+00    0.500E+00
DAV:  29    -0.385641986449E+03   -0.93421E-01   -0.12612E-01 44256   0.817E-01    0.675E+00
DAV:  30    -0.385640767641E+03    0.12188E-02   -0.11119E-02 34968   0.291E-01    0.747E+00
DAV:  31    -0.385674784777E+03   -0.34017E-01   -0.26738E-01 42624   0.763E-01    0.868E+00
DAV:  32    -0.385691282844E+03   -0.16498E-01   -0.13047E-02 38296   0.309E-01    0.851E+00
DAV:  33    -0.385695410276E+03   -0.41274E-02   -0.31863E-03 37600   0.140E-01    0.871E+00
DAV:  34    -0.385693466901E+03    0.19434E-02   -0.30950E-04 39856   0.448E-02    0.861E+00
DAV:  35    -0.385662831383E+03    0.30636E-01   -0.37282E-02 41760   0.493E-01    0.462E+00
DAV:  36    -0.385688432390E+03   -0.25601E-01   -0.57416E-02 43016   0.731E-01    0.283E+00
DAV:  37    -0.385709950303E+03   -0.21518E-01   -0.27423E-02 37760   0.333E-01    0.305E+00
DAV:  38    -0.385709555462E+03    0.39484E-03   -0.62763E-03 42624   0.225E-01    0.259E+00
DAV:  39    -0.385712063144E+03   -0.25077E-02   -0.12168E-02 44128   0.266E-01    0.214E+00
DAV:  40    -0.385709855758E+03    0.22074E-02   -0.30493E-02 42504   0.289E-01    0.182E+00
DAV:  41    -0.385713247290E+03   -0.33915E-02   -0.29647E-02 41352   0.255E-01    0.345E+00
DAV:  42    -0.385716273392E+03   -0.30261E-02   -0.23496E-03 35296   0.136E-01    0.390E+00
DAV:  43    -0.385716369559E+03   -0.96166E-04   -0.14479E-03 39528   0.642E-02    0.418E+00
DAV:  44    -0.385714991057E+03    0.13785E-02   -0.71945E-04 38168   0.558E-02    0.398E+00
DAV:  45    -0.385713727909E+03    0.12631E-02   -0.39287E-03 43744   0.116E-01    0.448E+00
DAV:  46    -0.385709299831E+03    0.44281E-02   -0.34610E-03 40328   0.167E-01    0.448E+00
DAV:  47    -0.385685898922E+03    0.23401E-01   -0.16673E-02 44600   0.349E-01    0.368E+00
DAV:  48    -0.385643121251E+03    0.42778E-01   -0.29812E-02 43192   0.417E-01    0.325E+00
DAV:  49    -0.385596615215E+03    0.46506E-01   -0.15142E-02 42720   0.308E-01    0.342E+00
DAV:  50    -0.385563122398E+03    0.33493E-01   -0.48409E-03 41888   0.167E-01    0.350E+00
DAV:  51    -0.385561490473E+03    0.16319E-02   -0.25852E-03 36552   0.868E-02    0.384E+00
DAV:  52    -0.385544395562E+03    0.17095E-01   -0.92538E-04 42152   0.832E-02    0.349E+00
DAV:  53    -0.385545323070E+03   -0.92751E-03   -0.22156E-04 36240   0.347E-02    0.350E+00
DAV:  54    -0.385542298814E+03    0.30243E-02   -0.86715E-04 41496   0.526E-02    0.377E+00
DAV:  55    -0.385538994680E+03    0.33041E-02   -0.64898E-04 41992   0.566E-02    0.379E+00
DAV:  56    -0.385552682683E+03   -0.13688E-01   -0.10254E-02 45216   0.187E-01    0.513E+00
DAV:  57    -0.385529105707E+03    0.23577E-01   -0.28323E-03 38472   0.147E-01    0.463E+00
DAV:  58    -0.385487948191E+03    0.41158E-01   -0.10807E-02 45304   0.268E-01    0.435E+00
DAV:  59    -0.385459075574E+03    0.28873E-01   -0.29734E-03 41992   0.140E-01    0.445E+00
DAV:  60    -0.385488470553E+03   -0.29395E-01   -0.19313E-03 41664   0.119E-01    0.437E+00
DAV:  61    -0.385444681748E+03    0.43789E-01   -0.12446E-02 43016   0.262E-01    0.489E+00
DAV:  62    -0.385423143962E+03    0.21538E-01   -0.33390E-03 43856   0.149E-01    0.490E+00
DAV:  63    -0.385423720412E+03   -0.57645E-03   -0.33395E-04 36368   0.424E-02    0.490E+00
DAV:  64    -0.385423574268E+03    0.14614E-03   -0.79670E-06 26672   0.690E-03    0.490E+00
DAV:  65    -0.385425458578E+03   -0.18843E-02   -0.10615E-04 34136   0.230E-02    0.486E+00
DAV:  66    -0.385374898021E+03    0.50561E-01   -0.40647E-03 43656   0.159E-01    0.510E+00
DAV:  67    -0.385390540153E+03   -0.15642E-01   -0.14798E-03 43536   0.905E-02    0.518E+00
DAV:  68    -0.385437534879E+03   -0.46995E-01   -0.35413E-03 41872   0.137E-01    0.513E+00
DAV:  69    -0.385428780985E+03    0.87539E-02   -0.26597E-03 41464   0.110E-01    0.525E+00
DAV:  70    -0.385436629023E+03   -0.78480E-02   -0.23521E-03 45008   0.122E-01    0.548E+00
DAV:  71    -0.385468439039E+03   -0.31810E-01   -0.68828E-03 45216   0.206E-01    0.563E+00
DAV:  72    -0.385467358527E+03    0.10805E-02   -0.63236E-04 34776   0.626E-02    0.570E+00
DAV:  73    -0.385464188635E+03    0.31699E-02   -0.20982E-04 40008   0.346E-02    0.564E+00
DAV:  74    -0.385465275270E+03   -0.10866E-02   -0.37883E-04 37816   0.405E-02    0.550E+00
DAV:  75    -0.385464259566E+03    0.10157E-02   -0.47207E-05 31584   0.204E-02    0.554E+00
DAV:  76    -0.385689056613E+03   -0.22480E+00   -0.58748E-01 44416   0.159E+00    0.279E+00
DAV:  77    -0.385756509607E+03   -0.67453E-01   -0.11507E-01 40768   0.649E-01    0.399E+00
DAV:  78    -0.385757729776E+03   -0.12202E-02   -0.55743E-03 37048   0.188E-01    0.405E+00
DAV:  79    -0.385757355639E+03    0.37414E-03   -0.58295E-04 44392   0.536E-02    0.416E+00
DAV:  80    -0.385749212069E+03    0.81436E-02   -0.48448E-03 42536   0.105E-01    0.349E+00
DAV:  81    -0.385753216827E+03   -0.40048E-02   -0.89071E-03 41496   0.198E-01    0.328E+00
DAV:  82    -0.385752835011E+03    0.38182E-03   -0.32687E-03 41320   0.120E-01    0.299E+00
DAV:  83    -0.385743476099E+03    0.93589E-02   -0.22741E-02 42640   0.304E-01    0.203E+00
DAV:  84    -0.385829365252E+03   -0.85889E-01   -0.27039E-02 40560   0.240E-01    0.897E+00
DAV:  85    -0.386128460425E+03   -0.29910E+00   -0.24948E-01 42232   0.520E-01    0.105E+01
DAV:  86    -0.385993566092E+03    0.13489E+00   -0.14116E-02 36736   0.265E-01    0.103E+01
DAV:  87    -0.385996830279E+03   -0.32642E-02   -0.80149E-04 37352   0.698E-02    0.104E+01
DAV:  88    -0.385945993931E+03    0.50836E-01   -0.16022E-03 40096   0.779E-02    0.103E+01
DAV:  89    -0.385801320368E+03    0.14467E+00   -0.12513E-02 41448   0.180E-01    0.884E+00
DAV:  90    -0.385692566983E+03    0.10875E+00   -0.16942E-01 43576   0.445E-01    0.135E+00
DAV:  91    -0.385685633627E+03    0.69334E-02   -0.22325E-01 43336   0.683E-01    0.284E+00
DAV:  92    -0.385689427314E+03   -0.37937E-02   -0.25472E-02 37648   0.289E-01    0.352E+00
DAV:  93    -0.385688680371E+03    0.74694E-03   -0.50560E-03 36576   0.130E-01    0.302E+00
DAV:  94    -0.385688613825E+03    0.66546E-04   -0.55697E-03 44696   0.147E-01    0.280E+00
DAV:  95    -0.385696183720E+03   -0.75699E-02   -0.14102E-02 42440   0.165E-01    0.244E+00
DAV:  96    -0.385703481481E+03   -0.72978E-02   -0.10548E-02 41248   0.133E-01    0.183E+00
DAV:  97    -0.385683613246E+03    0.19868E-01   -0.17237E-02 41048   0.205E-01    0.140E+00
DAV:  98    -0.385672553097E+03    0.11060E-01   -0.32044E-03 43352   0.127E-01    0.131E+00
DAV:  99    -0.385656177330E+03    0.16376E-01   -0.76897E-03 40624   0.160E-01    0.164E+00
DAV: 100    -0.385632492035E+03    0.23685E-01   -0.85809E-03 41944   0.164E-01    0.190E+00
DAV: 101    -0.385613057574E+03    0.19434E-01   -0.54887E-03 40720   0.123E-01    0.216E+00
DAV: 102    -0.385613133056E+03   -0.75482E-04   -0.38996E-04 34464   0.468E-02    0.215E+00
DAV: 103    -0.385612730631E+03    0.40243E-03   -0.23955E-05 29488   0.102E-02    0.216E+00
DAV: 104    -0.385610308892E+03    0.24217E-02   -0.13308E-04 34376   0.214E-02    0.222E+00
DAV: 105    -0.385607966067E+03    0.23428E-02   -0.55019E-05 31544   0.148E-02    0.223E+00
DAV: 106    -0.385648102296E+03   -0.40136E-01   -0.21202E-02 42456   0.262E-01    0.176E+00
DAV: 107    -0.385664750201E+03   -0.16648E-01   -0.76466E-03 41208   0.155E-01    0.147E+00
DAV: 108    -0.385677187704E+03   -0.12438E-01   -0.32083E-03 44256   0.959E-02    0.136E+00
DAV: 109    -0.385700439023E+03   -0.23251E-01   -0.12056E-02 45416   0.196E-01    0.142E+00
DAV: 110    -0.385713699735E+03   -0.13261E-01   -0.57237E-03 41536   0.133E-01    0.172E+00
DAV: 111    -0.385722002202E+03   -0.83025E-02   -0.41635E-03 43440   0.126E-01    0.185E+00
DAV: 112    -0.385719070189E+03    0.29320E-02   -0.11904E-03 36432   0.554E-02    0.173E+00
DAV: 113    -0.385725950544E+03   -0.68804E-02   -0.18378E-03 40136   0.738E-02    0.188E+00
DAV: 114    -0.385737715317E+03   -0.11765E-01   -0.55587E-03 40944   0.919E-02    0.237E+00
DAV: 115    -0.385738409336E+03   -0.69402E-03   -0.47941E-04 38336   0.422E-02    0.231E+00
DAV: 116    -0.385749421294E+03   -0.11012E-01   -0.61104E-03 42688   0.104E-01    0.310E+00
DAV: 117    -0.385741811831E+03    0.76095E-02   -0.14051E-03 37104   0.572E-02    0.280E+00
DAV: 118    -0.385737589104E+03    0.42227E-02   -0.13262E-03 39384   0.689E-02    0.284E+00
DAV: 119    -0.385718707399E+03    0.18882E-01   -0.12444E-02 41464   0.143E-01    0.243E+00
DAV: 120    -0.385713163228E+03    0.55442E-02   -0.23602E-03 40152   0.711E-02    0.239E+00
DAV: 121    -0.385694186319E+03    0.18977E-01   -0.14017E-02 42816   0.138E-01    0.227E+00
DAV: 122    -0.385698374328E+03   -0.41880E-02   -0.93687E-04 34400   0.650E-02    0.234E+00
DAV: 123    -0.385688631068E+03    0.97433E-02   -0.44065E-03 40480   0.974E-02    0.259E+00
DAV: 124    -0.385681672397E+03    0.69587E-02   -0.31001E-03 41120   0.926E-02    0.286E+00
DAV: 125    -0.385673459251E+03    0.82131E-02   -0.19485E-03 42104   0.705E-02    0.293E+00
DAV: 126    -0.385694805481E+03   -0.21346E-01   -0.71094E-03 41080   0.160E-01    0.338E+00
DAV: 127    -0.385695661057E+03   -0.85558E-03   -0.44573E-04 35576   0.420E-02    0.341E+00
DAV: 128    -0.385696242588E+03   -0.58153E-03   -0.10386E-04 37320   0.232E-02    0.346E+00
DAV: 129    -0.385695984228E+03    0.25836E-03   -0.24117E-05 26920   0.117E-02    0.348E+00
DAV: 130    -0.385695943612E+03    0.40616E-04   -0.19293E-06 19384   0.391E-03    0.348E+00
DAV: 131    -0.385805324869E+03   -0.10938E+00   -0.47161E-01 41128   0.703E-01    0.513E+00
DAV: 132    -0.385813256245E+03   -0.79314E-02   -0.13658E-02 37128   0.223E-01    0.523E+00
DAV: 133    -0.385815095787E+03   -0.18395E-02   -0.79907E-04 43480   0.520E-02    0.526E+00
DAV: 134    -0.385814722848E+03    0.37294E-03   -0.41772E-05 31840   0.145E-02    0.526E+00
DAV: 135    -0.385815048127E+03   -0.32528E-03   -0.14921E-05 26440   0.107E-02    0.528E+00
DAV: 136    -0.385824821570E+03   -0.97734E-02   -0.81832E-03 41216   0.226E-01    0.653E+00
DAV: 137    -0.386189760559E+03   -0.36494E+00   -0.38464E-01 43120   0.505E-01    0.108E+01
DAV: 138    -0.385646581892E+03    0.54318E+00   -0.44218E-01 40048   0.131E+00    0.254E+00
DAV: 139    -0.385651374454E+03   -0.47926E-02   -0.25228E-01 42056   0.574E-01    0.360E+00
DAV: 140    -0.385590619564E+03    0.60755E-01   -0.44796E-02 42808   0.374E-01    0.310E+00
DAV: 141    -0.385574148123E+03    0.16471E-01   -0.51315E-03 39008   0.140E-01    0.298E+00
DAV: 142    -0.385582919074E+03   -0.87710E-02   -0.78821E-04 38152   0.587E-02    0.300E+00
DAV: 143    -0.385588110924E+03   -0.51918E-02   -0.78205E-04 40112   0.376E-02    0.302E+00
DAV: 144    -0.385590649480E+03   -0.25386E-02   -0.85451E-05 33304   0.166E-02    0.302E+00
DAV: 145    -0.385598128469E+03   -0.74790E-02   -0.39472E-04 38064   0.351E-02    0.302E+00
DAV: 146    -0.385609808791E+03   -0.11680E-01   -0.67544E-04 42040   0.604E-02    0.310E+00
DAV: 147    -0.385624438486E+03   -0.14630E-01   -0.16939E-03 40064   0.752E-02    0.313E+00
DAV: 148    -0.385624623212E+03   -0.18473E-03   -0.13430E-04 34384   0.237E-02    0.313E+00
DAV: 149    -0.385631523557E+03   -0.69003E-02   -0.29220E-04 38376   0.368E-02    0.322E+00
DAV: 150    -0.385648481286E+03   -0.16958E-01   -0.19107E-03 42744   0.958E-02    0.356E+00
DAV: 151    -0.385435702786E+03    0.21278E+00   -0.15802E-01 42184   0.833E-01    0.331E+00
DAV: 152    -0.385442323983E+03   -0.66212E-02   -0.10810E-02 36248   0.191E-01    0.325E+00
DAV: 153    -0.385439036830E+03    0.32872E-02   -0.45730E-04 44544   0.349E-02    0.327E+00
DAV: 154    -0.385443087076E+03   -0.40502E-02   -0.74060E-05 34016   0.236E-02    0.325E+00
DAV: 155    -0.385431146702E+03    0.11940E-01   -0.33966E-04 41816   0.516E-02    0.332E+00
DAV: 156    -0.385402823320E+03    0.28323E-01   -0.31351E-03 41856   0.114E-01    0.355E+00
DAV: 157    -0.385378818173E+03    0.24005E-01   -0.13862E-03 43392   0.844E-02    0.370E+00
DAV: 158    -0.385380383609E+03   -0.15654E-02   -0.25380E-04 35864   0.333E-02    0.370E+00
DAV: 159    -0.385396745312E+03   -0.16362E-01   -0.53351E-04 40072   0.483E-02    0.358E+00
DAV: 160    -0.385413334415E+03   -0.16589E-01   -0.10629E-03 42192   0.611E-02    0.347E+00
DAV: 161    -0.385438958002E+03   -0.25624E-01   -0.23898E-02 41576   0.160E-01    0.331E+00
DAV: 162    -0.385414888894E+03    0.24069E-01   -0.36503E-03 41920   0.112E-01    0.343E+00
DAV: 163    -0.385410770801E+03    0.41181E-02   -0.25661E-04 37192   0.310E-02    0.345E+00
DAV: 164    -0.385412380495E+03   -0.16097E-02   -0.17640E-04 33024   0.214E-02    0.346E+00
DAV: 165    -0.385407441329E+03    0.49392E-02   -0.50906E-04 39584   0.407E-02    0.347E+00
DAV: 166    -0.385397437750E+03    0.10004E-01   -0.81477E-04 43888   0.656E-02    0.353E+00
DAV: 167    -0.385390446564E+03    0.69912E-02   -0.88381E-04 39792   0.431E-02    0.358E+00
DAV: 168    -0.385391141131E+03   -0.69457E-03   -0.47765E-05 32080   0.139E-02    0.357E+00
DAV: 169    -0.385389846009E+03    0.12951E-02   -0.59306E-05 35272   0.224E-02    0.358E+00
DAV: 170    -0.385380963847E+03    0.88822E-02   -0.16022E-04 42456   0.354E-02    0.363E+00
DAV: 171    -0.385374439579E+03    0.65243E-02   -0.30511E-02 40680   0.250E-01    0.377E+00
DAV: 172    -0.385406005475E+03   -0.31566E-01   -0.22874E-03 39288   0.124E-01    0.359E+00
DAV: 173    -0.385419476481E+03   -0.13471E-01   -0.55936E-04 39136   0.471E-02    0.351E+00
DAV: 174    -0.385403269270E+03    0.16207E-01   -0.57529E-04 42136   0.732E-02    0.359E+00
DAV: 175    -0.385427864337E+03   -0.24595E-01   -0.35777E-03 43024   0.111E-01    0.346E+00
DAV: 176    -0.385429244660E+03   -0.13803E-02   -0.96331E-03 42832   0.181E-01    0.344E+00
DAV: 177    -0.385417369060E+03    0.11876E-01   -0.26871E-03 37856   0.833E-02    0.345E+00
DAV: 178    -0.385423118788E+03   -0.57497E-02   -0.16838E-04 39600   0.337E-02    0.343E+00
DAV: 179    -0.385423524154E+03   -0.40537E-03   -0.15764E-05 28808   0.842E-03    0.343E+00
DAV: 180    -0.385426936036E+03   -0.34119E-02   -0.67342E-05 29464   0.170E-02    0.341E+00
DAV: 181    -0.385701223389E+03   -0.27429E+00   -0.42734E-01 43784   0.128E+00    0.326E+00
DAV: 182    -0.385728397983E+03   -0.27175E-01   -0.75574E-02 39832   0.605E-01    0.152E+00
DAV: 183    -0.385734341756E+03   -0.59438E-02   -0.13893E-02 39984   0.233E-01    0.120E+00
DAV: 184    -0.385732920390E+03    0.14214E-02   -0.19103E-03 40248   0.103E-01    0.113E+00
DAV: 185    -0.385743085074E+03   -0.10165E-01   -0.15677E-02 42848   0.299E-01    0.120E+00
DAV: 186    -0.385748208880E+03   -0.51238E-02   -0.15123E-02 45336   0.350E-01    0.102E+00
DAV: 187    -0.385748477883E+03   -0.26900E-03   -0.31217E-03 37016   0.119E-01    0.106E+00
DAV: 188    -0.385748262346E+03    0.21554E-03   -0.17752E-04 37888   0.310E-02    0.108E+00
DAV: 189    -0.385747114953E+03    0.11474E-02   -0.73984E-04 42440   0.544E-02    0.103E+00
DAV: 190    -0.385749200768E+03   -0.20858E-02   -0.26687E-03 42776   0.122E-01    0.958E-01
DAV: 191    -0.385758088777E+03   -0.88880E-02   -0.11968E-02 41352   0.227E-01    0.123E+00
DAV: 192    -0.385758888134E+03   -0.79936E-03   -0.18914E-03 36864   0.831E-02    0.122E+00
DAV: 193    -0.385759051298E+03   -0.16316E-03   -0.38708E-04 37464   0.379E-02    0.123E+00
DAV: 194    -0.385758238371E+03    0.81293E-03   -0.64646E-04 42432   0.464E-02    0.111E+00
DAV: 195    -0.385757382394E+03    0.85598E-03   -0.31187E-04 39680   0.376E-02    0.941E-01
DAV: 196    -0.385755679774E+03    0.17026E-02   -0.22518E-03 41696   0.109E-01    0.697E-01
DAV: 197    -0.385755675086E+03    0.46881E-05   -0.10783E-03 41704   0.823E-02    0.710E-01
DAV: 198    -0.385755750862E+03   -0.75776E-04   -0.29000E-04 38032   0.392E-02    0.672E-01
DAV: 199    -0.385755907298E+03   -0.15644E-03   -0.81038E-05 35288   0.242E-02    0.638E-01
DAV: 200    -0.385756242842E+03   -0.33554E-03   -0.14894E-04 34920   0.282E-02
   1 F= -.38575624E+03 E0= -.38573311E+03  d E =-.385756E+03  mag=    15.9896
       N       E                     dE             d eps       ncg     rms          rms(c)
DAV:   1    -0.385418588823E+03    0.33732E+00   -0.41788E+01 36888   0.216E+01    0.360E+00
DAV:   2    -0.386240049045E+03   -0.82146E+00   -0.76824E+00 33144   0.498E+00    0.123E+01
DAV:   3    -0.385962148231E+03    0.27790E+00   -0.15884E+00 41072   0.223E+00    0.346E+00
DAV:   4    -0.386087624071E+03   -0.12548E+00   -0.78295E-01 46656   0.162E+00    0.799E+00
DAV:   5    -0.386001684626E+03    0.85939E-01   -0.45262E-01 45784   0.145E+00    0.550E+00
DAV:   6    -0.385978041283E+03    0.23643E-01   -0.36126E-01 45936   0.106E+00    0.434E+00
DAV:   7    -0.385958693904E+03    0.19347E-01   -0.13535E-01 46528   0.655E-01    0.254E+00
DAV:   8    -0.385953214522E+03    0.54794E-02   -0.33542E-02 46424   0.527E-01    0.194E+00
DAV:   9    -0.385953513683E+03   -0.29916E-03   -0.57001E-02 45528   0.578E-01    0.210E+00
DAV:  10    -0.385953375173E+03    0.13851E-03   -0.38607E-02 46952   0.528E-01    0.194E+00
DAV:  11    -0.385948079238E+03    0.52959E-02   -0.24580E-02 45432   0.409E-01    0.983E-01
DAV:  12    -0.385951581729E+03   -0.35025E-02   -0.18153E-02 46752   0.375E-01    0.138E+00
DAV:  13    -0.385948324777E+03    0.32570E-02   -0.11055E-02 46424   0.305E-01    0.717E-01
DAV:  14    -0.385949021521E+03   -0.69674E-03   -0.55419E-03 44984   0.199E-01    0.753E-01
DAV:  15    -0.385948707921E+03    0.31360E-03   -0.33366E-03 45464   0.136E-01    0.579E-01
DAV:  16    -0.385948524638E+03    0.18328E-03   -0.11094E-03 43952   0.899E-02    0.473E-01
DAV:  17    -0.385948317056E+03    0.20758E-03   -0.16955E-03 44256   0.852E-02    0.329E-01
DAV:  18    -0.385948316570E+03    0.48533E-06   -0.95497E-04 43400   0.787E-02    0.274E-01
DAV:  19    -0.385948342147E+03   -0.25577E-04   -0.95114E-04 42096   0.803E-02    0.247E-01
DAV:  20    -0.385948392482E+03   -0.50335E-04   -0.78225E-04 38552   0.657E-02    0.241E-01
DAV:  21    -0.385948377806E+03    0.14676E-04   -0.25803E-04 30672   0.421E-02    0.224E-01
DAV:  22    -0.385948313088E+03    0.64718E-04   -0.29566E-04 30992   0.335E-02    0.129E-01
DAV:  23    -0.385948312965E+03    0.12265E-06   -0.14378E-04 30888   0.241E-02    0.829E-02
DAV:  24    -0.385948318352E+03   -0.53870E-05   -0.48360E-05 27600   0.161E-02
   2 F= -.38594832E+03 E0= -.38592611E+03  d E =-.192076E+00  mag=    15.9989
       N       E                     dE             d eps       ncg     rms          rms(c)
DAV:   1    -0.385424380959E+03    0.52393E+00   -0.50774E+01 36792   0.238E+01    0.402E+00
DAV:   2    -0.386530289878E+03   -0.11059E+01   -0.92558E+00 33312   0.558E+00    0.171E+01
DAV:   3    -0.386122568585E+03    0.40772E+00   -0.28999E+00 41456   0.277E+00    0.439E+00
DAV:   4    -0.386250706361E+03   -0.12814E+00   -0.10042E+00 46208   0.206E+00    0.963E+00
DAV:   5    -0.386051932171E+03    0.19877E+00   -0.91388E-01 46408   0.180E+00    0.333E+00
DAV:   6    -0.386089688116E+03   -0.37756E-01   -0.28622E-01 46600   0.110E+00    0.418E+00
DAV:   7    -0.386068619933E+03    0.21068E-01   -0.25288E-01 46400   0.970E-01    0.388E+00
DAV:   8    -0.386052163014E+03    0.16457E-01   -0.10958E-01 45864   0.556E-01    0.166E+00
DAV:   9    -0.386058553616E+03   -0.63906E-02   -0.29702E-02 45424   0.367E-01    0.200E+00
DAV:  10    -0.386054581382E+03    0.39722E-02   -0.12249E-02 45496   0.274E-01    0.129E+00
DAV:  11    -0.386059322660E+03   -0.47413E-02   -0.31472E-02 46416   0.336E-01    0.202E+00
DAV:  12    -0.386054660100E+03    0.46626E-02   -0.45400E-02 46520   0.440E-01    0.128E+00
DAV:  13    -0.386054865078E+03   -0.20498E-03   -0.17532E-02 46320   0.362E-01    0.122E+00
DAV:  14    -0.386054964738E+03   -0.99659E-04   -0.15170E-02 46368   0.298E-01    0.115E+00
DAV:  15    -0.386052503993E+03    0.24607E-02   -0.89716E-03 45576   0.242E-01    0.464E-01
DAV:  16    -0.386052797258E+03   -0.29327E-03   -0.21575E-03 46560   0.130E-01    0.502E-01
DAV:  17    -0.386052495655E+03    0.30160E-03   -0.10929E-03 44856   0.954E-02    0.299E-01
DAV:  18    -0.386052483522E+03    0.12133E-04   -0.95752E-04 44368   0.822E-02    0.239E-01
DAV:  19    -0.386052631757E+03   -0.14824E-03   -0.92943E-04 44640   0.838E-02    0.331E-01
DAV:  20    -0.386052534737E+03    0.97020E-04   -0.55754E-04 42680   0.652E-02    0.179E-01
DAV:  21    -0.386052584015E+03   -0.49279E-04   -0.30943E-04 37784   0.517E-02    0.172E-01
DAV:  22    -0.386052536948E+03    0.47067E-04   -0.19520E-04 32824   0.402E-02    0.915E-02
DAV:  23    -0.386052540241E+03   -0.32928E-05   -0.63953E-05 28600   0.225E-02
   3 F= -.38605254E+03 E0= -.38603123E+03  d E =-.296297E+00  mag=    15.9882
       N       E                     dE             d eps       ncg     rms          rms(c)
DAV:   1    -0.385979118528E+03    0.73418E-01   -0.68127E+00 36824   0.870E+00    0.144E+00
DAV:   2    -0.386097854912E+03   -0.11874E+00   -0.11744E+00 33352   0.199E+00    0.436E+00
DAV:   3    -0.386066247198E+03    0.31608E-01   -0.20429E-01 43360   0.918E-01    0.177E+00
DAV:   4    -0.386082983161E+03   -0.16736E-01   -0.13248E-01 46672   0.610E-01    0.363E+00
DAV:   5    -0.386062351969E+03    0.20631E-01   -0.75416E-02 46104   0.514E-01    0.137E+00
DAV:   6    -0.386063227938E+03   -0.87597E-03   -0.32269E-02 46424   0.349E-01    0.125E+00
DAV:   7    -0.386063614973E+03   -0.38703E-03   -0.30075E-02 46672   0.338E-01    0.140E+00
DAV:   8    -0.386059973539E+03    0.36414E-02   -0.17728E-02 46040   0.272E-01    0.451E-01
DAV:   9    -0.386060718386E+03   -0.74485E-03   -0.52865E-03 46344   0.168E-01    0.544E-01
DAV:  10    -0.386060333030E+03    0.38536E-03   -0.29855E-03 44920   0.132E-01    0.309E-01
DAV:  11    -0.386060209015E+03    0.12402E-03   -0.43848E-04 41032   0.584E-02    0.199E-01
DAV:  12    -0.386060197298E+03    0.11716E-04   -0.13963E-04 33024   0.314E-02    0.196E-01
DAV:  13    -0.386060168893E+03    0.28405E-04   -0.16022E-04 29560   0.327E-02    0.186E-01
DAV:  14    -0.386060228631E+03   -0.59738E-04   -0.40363E-04 39600   0.607E-02    0.242E-01
DAV:  15    -0.386060123481E+03    0.10515E-03   -0.52460E-04 39728   0.636E-02    0.121E-01
DAV:  16    -0.386060153442E+03   -0.29960E-04   -0.24401E-04 30576   0.411E-02    0.137E-01
DAV:  17    -0.386060127857E+03    0.25585E-04   -0.15670E-04 30784   0.358E-02    0.837E-02
DAV:  18    -0.386060134247E+03   -0.63902E-05   -0.75067E-05 28632   0.266E-02
   4 F= -.38606013E+03 E0= -.38603919E+03  d E =-.303891E+00  mag=    15.9976
       N       E                     dE             d eps       ncg     rms          rms(c)
DAV:   1    -0.385721595936E+03    0.33853E+00   -0.51934E+01 35864   0.220E+01    0.293E+00
DAV:   2    -0.386362286853E+03   -0.64069E+00   -0.57481E+00 33624   0.484E+00    0.103E+01
DAV:   3    -0.386184948808E+03    0.17734E+00   -0.10274E+00 43440   0.193E+00    0.269E+00
DAV:   4    -0.386254460527E+03   -0.69512E-01   -0.42456E-01 45480   0.123E+00    0.633E+00
DAV:   5    -0.386180022776E+03    0.74438E-01   -0.24454E-01 47336   0.897E-01    0.237E+00
DAV:   6    -0.386191806094E+03   -0.11783E-01   -0.11527E-01 46720   0.700E-01    0.312E+00
DAV:   7    -0.386188459992E+03    0.33461E-02   -0.10760E-01 45208   0.793E-01    0.285E+00
DAV:   8    -0.386174528464E+03    0.13932E-01   -0.83969E-02 45000   0.610E-01    0.139E+00
DAV:   9    -0.386185456164E+03   -0.10928E-01   -0.57533E-02 46408   0.521E-01    0.247E+00
DAV:  10    -0.386175787300E+03    0.96689E-02   -0.33963E-02 45712   0.381E-01    0.927E-01
DAV:  11    -0.386180109583E+03   -0.43223E-02   -0.18577E-02 45896   0.307E-01    0.163E+00
DAV:  12    -0.386177522889E+03    0.25867E-02   -0.69240E-03 43528   0.185E-01    0.113E+00
DAV:  13    -0.386178071707E+03   -0.54882E-03   -0.62582E-03 45008   0.165E-01    0.122E+00
DAV:  14    -0.386180196106E+03   -0.21244E-02   -0.96631E-03 45384   0.242E-01    0.154E+00
DAV:  15    -0.386177165032E+03    0.30311E-02   -0.86272E-03 45008   0.221E-01    0.922E-01
DAV:  16    -0.386178770036E+03   -0.16050E-02   -0.66623E-03 43712   0.170E-01    0.857E-01
DAV:  17    -0.386178915937E+03   -0.14590E-03   -0.27700E-03 44152   0.149E-01    0.736E-01
DAV:  18    -0.386179053553E+03   -0.13762E-03   -0.99214E-04 40832   0.848E-02    0.672E-01
DAV:  19    -0.386179626825E+03   -0.57327E-03   -0.85612E-04 39776   0.576E-02    0.745E-01
DAV:  20    -0.386179777894E+03   -0.15107E-03   -0.43909E-04 38104   0.562E-02    0.739E-01
DAV:  21    -0.386180028096E+03   -0.25020E-03   -0.14529E-03 39488   0.598E-02    0.644E-01
DAV:  22    -0.386180346854E+03   -0.31876E-03   -0.17719E-03 38880   0.610E-02    0.537E-01
DAV:  23    -0.386180516430E+03   -0.16958E-03   -0.48532E-04 38328   0.452E-02    0.512E-01
DAV:  24    -0.386180921796E+03   -0.40537E-03   -0.16468E-03 38904   0.567E-02    0.498E-01
DAV:  25    -0.386181260549E+03   -0.33875E-03   -0.30142E-03 39192   0.700E-02    0.376E-01
DAV:  26    -0.386181487636E+03   -0.22709E-03   -0.25254E-03 40136   0.650E-02    0.211E-01
DAV:  27    -0.386181736442E+03   -0.24881E-03   -0.66639E-04 36768   0.346E-02    0.243E-01
DAV:  28    -0.386181742972E+03   -0.65301E-05   -0.45255E-05 27792   0.130E-02
   5 F= -.38618174E+03 E0= -.38616113E+03  d E =-.121609E+00  mag=    16.0000
       N       E                     dE             d eps       ncg     rms          rms(c)
DAV:   1    -0.386123091576E+03    0.58645E-01   -0.95469E+00 35184   0.943E+00    0.128E+00
DAV:   2    -0.386244146164E+03   -0.12105E+00   -0.11261E+00 34032   0.205E+00    0.477E+00
DAV:   3    -0.386211764505E+03    0.32382E-01   -0.17777E-01 41592   0.100E+00    0.259E+00
DAV:   4    -0.386214277098E+03   -0.25126E-02   -0.11941E-01 45840   0.577E-01    0.253E+00
DAV:   5    -0.386204155501E+03    0.10122E-01   -0.69971E-02 45520   0.475E-01    0.144E+00
DAV:   6    -0.386201534357E+03    0.26211E-02   -0.18413E-02 46416   0.300E-01    0.982E-01
DAV:   7    -0.386202458378E+03   -0.92402E-03   -0.15143E-02 45784   0.273E-01    0.108E+00
DAV:   8    -0.386201293254E+03    0.11651E-02   -0.17024E-02 45680   0.290E-01    0.110E+00
DAV:   9    -0.386200353691E+03    0.93956E-03   -0.71484E-03 46104   0.215E-01    0.897E-01
DAV:  10    -0.386200044926E+03    0.30877E-03   -0.35203E-03 44816   0.147E-01    0.711E-01
DAV:  11    -0.386199730138E+03    0.31479E-03   -0.18666E-03 45048   0.121E-01    0.573E-01
DAV:  12    -0.386199625950E+03    0.10419E-03   -0.20959E-03 44120   0.983E-02    0.472E-01
DAV:  13    -0.386199307781E+03    0.31817E-03   -0.18460E-03 43952   0.943E-02    0.257E-01
DAV:  14    -0.386200057650E+03   -0.74987E-03   -0.25404E-03 44144   0.106E-01    0.630E-01
DAV:  15    -0.386199786494E+03    0.27116E-03   -0.13673E-03 42752   0.821E-02    0.496E-01
DAV:  16    -0.386199708605E+03    0.77889E-04   -0.22224E-04 34112   0.341E-02    0.381E-01
DAV:  17    -0.386199714627E+03   -0.60219E-05   -0.44177E-05 27000   0.175E-02
   6 F= -.38619971E+03 E0= -.38617928E+03  d E =-.139580E+00  mag=    16.0000
       N       E                     dE             d eps       ncg     rms          rms(c)
DAV:   1    -0.386178751215E+03    0.20957E-01   -0.32462E+01 33904   0.157E+01    0.234E+00
DAV:   2    -0.386348203497E+03   -0.16945E+00   -0.20400E+00 34104   0.332E+00    0.509E+00
DAV:   3    -0.386336239854E+03    0.11964E-01   -0.58177E-01 43792   0.152E+00    0.495E+00
DAV:   4    -0.386344226649E+03   -0.79868E-02   -0.45457E-01 46328   0.960E-01    0.518E+00
DAV:   5    -0.386298185036E+03    0.46042E-01   -0.21225E-01 45568   0.969E-01    0.296E+00
DAV:   6    -0.386287094591E+03    0.11090E-01   -0.10685E-01 45824   0.590E-01    0.195E+00
DAV:   7    -0.386295814451E+03   -0.87199E-02   -0.74154E-02 45776   0.509E-01    0.289E+00
DAV:   8    -0.386286340529E+03    0.94739E-02   -0.74215E-02 45136   0.584E-01    0.253E+00
DAV:   9    -0.386279894811E+03    0.64457E-02   -0.23001E-02 45640   0.389E-01    0.194E+00
DAV:  10    -0.386276604269E+03    0.32905E-02   -0.18222E-02 44304   0.301E-01    0.139E+00
DAV:  11    -0.386274594573E+03    0.20097E-02   -0.16615E-02 45856   0.327E-01    0.107E+00
DAV:  12    -0.386276645580E+03   -0.20510E-02   -0.14198E-02 45408   0.355E-01    0.123E+00
DAV:  13    -0.386275544634E+03    0.11009E-02   -0.12743E-02 46168   0.308E-01    0.813E-01
DAV:  14    -0.386279941819E+03   -0.43972E-02   -0.13365E-02 44912   0.243E-01    0.130E+00
DAV:  15    -0.386279430303E+03    0.51152E-03   -0.50750E-03 44072   0.199E-01    0.103E+00
DAV:  16    -0.386279647366E+03   -0.21706E-03   -0.87417E-04 40872   0.753E-02    0.946E-01
DAV:  17    -0.386279693894E+03   -0.46527E-04   -0.42474E-04 36000   0.533E-02    0.891E-01
DAV:  18    -0.386280125829E+03   -0.43194E-03   -0.30450E-04 38056   0.432E-02    0.914E-01
DAV:  19    -0.386280178120E+03   -0.52291E-04   -0.19662E-04 35904   0.450E-02    0.919E-01
DAV:  20    -0.386280283034E+03   -0.10491E-03   -0.29377E-04 36776   0.413E-02    0.896E-01
DAV:  21    -0.386280367281E+03   -0.84248E-04   -0.33952E-04 39616   0.516E-02    0.875E-01
DAV:  22    -0.386280272158E+03    0.95123E-04   -0.60496E-04 41504   0.635E-02    0.780E-01
DAV:  23    -0.386280536930E+03   -0.26477E-03   -0.55358E-03 42360   0.219E-01    0.592E-01
DAV:  24    -0.386280640569E+03   -0.10364E-03   -0.48063E-03 43288   0.161E-01    0.507E-01
DAV:  25    -0.386280797646E+03   -0.15708E-03   -0.84192E-04 38344   0.542E-02    0.496E-01
DAV:  26    -0.386280916796E+03   -0.11915E-03   -0.17475E-04 35040   0.288E-02    0.489E-01
DAV:  27    -0.386280978598E+03   -0.61803E-04   -0.53079E-04 39472   0.503E-02    0.435E-01
DAV:  28    -0.386281089658E+03   -0.11106E-03   -0.22890E-03 42208   0.130E-01    0.272E-01
DAV:  29    -0.386281119613E+03   -0.29955E-04   -0.12973E-03 41304   0.903E-02    0.207E-01
DAV:  30    -0.386281124697E+03   -0.50840E-05   -0.37256E-04 38024   0.416E-02    0.113E-01
DAV:  31    -0.386281162721E+03   -0.38024E-04   -0.16734E-04 35632   0.295E-02    0.128E-01
DAV:  32    -0.386281146429E+03    0.16292E-04   -0.62566E-05 28288   0.204E-02    0.759E-02
DAV:  33    -0.386281152460E+03   -0.60317E-05   -0.60540E-05 27560   0.203E-02
   7 F= -.38628115E+03 E0= -.38626053E+03  d E =-.814378E-01  mag=    16.0000
       N       E                     dE             d eps       ncg     rms          rms(c)
DAV:   1    -0.386056738762E+03    0.22441E+00   -0.75884E+01 34056   0.241E+01    0.351E+00
DAV:   2    -0.386440517224E+03   -0.38378E+00   -0.46186E+00 33824   0.510E+00    0.721E+00
DAV:   3    -0.386412763961E+03    0.27753E-01   -0.96356E-01 43864   0.202E+00    0.621E+00
DAV:   4    -0.386500847769E+03   -0.88084E-01   -0.88751E-01 44832   0.154E+00    0.950E+00
DAV:   5    -0.386335746707E+03    0.16510E+00   -0.52707E-01 45400   0.132E+00    0.353E+00
DAV:   6    -0.386326587547E+03    0.91592E-02   -0.13854E-01 45232   0.793E-01    0.277E+00
DAV:   7    -0.386334832570E+03   -0.82450E-02   -0.10037E-01 46816   0.652E-01    0.384E+00
DAV:   8    -0.386317118478E+03    0.17714E-01   -0.65455E-02 45192   0.445E-01    0.257E+00
DAV:   9    -0.386320542099E+03   -0.34236E-02   -0.61981E-02 45720   0.431E-01    0.302E+00
DAV:  10    -0.386309784854E+03    0.10757E-01   -0.65325E-02 43912   0.511E-01    0.244E+00
DAV:  11    -0.386306012896E+03    0.37720E-02   -0.58989E-02 45176   0.641E-01    0.236E+00
DAV:  12    -0.386306580376E+03   -0.56748E-03   -0.74557E-02 45192   0.611E-01    0.218E+00
DAV:  13    -0.386305150064E+03    0.14303E-02   -0.40236E-02 46088   0.487E-01    0.160E+00
DAV:  14    -0.386313118365E+03   -0.79683E-02   -0.33049E-02 43904   0.438E-01    0.207E+00
DAV:  15    -0.386309061144E+03    0.40572E-02   -0.26423E-02 45520   0.405E-01    0.134E+00
DAV:  16    -0.386308752424E+03    0.30872E-03   -0.13295E-02 39896   0.240E-01    0.846E-01
DAV:  17    -0.386310792538E+03   -0.20401E-02   -0.88923E-03 44784   0.266E-01    0.110E+00
DAV:  18    -0.386309923884E+03    0.86865E-03   -0.13381E-02 44240   0.265E-01    0.827E-01
DAV:  19    -0.386310269416E+03   -0.34553E-03   -0.46580E-03 45056   0.197E-01    0.760E-01
DAV:  20    -0.386309525653E+03    0.74376E-03   -0.40109E-03 44504   0.178E-01    0.462E-01
DAV:  21    -0.386309590953E+03   -0.65301E-04   -0.13775E-03 40520   0.107E-01    0.517E-01
DAV:  22    -0.386309530083E+03    0.60870E-04   -0.59076E-04 42856   0.637E-02    0.515E-01
DAV:  23    -0.386309520220E+03    0.98638E-05   -0.19579E-04 34976   0.350E-02    0.530E-01
DAV:  24    -0.386309363670E+03    0.15655E-03   -0.30711E-04 39360   0.460E-02    0.499E-01
DAV:  25    -0.386309105403E+03    0.25827E-03   -0.13454E-03 41552   0.101E-01    0.454E-01
DAV:  26    -0.386309172222E+03   -0.66820E-04   -0.26901E-03 40784   0.127E-01    0.400E-01
DAV:  27    -0.386309353629E+03   -0.18141E-03   -0.11797E-03 39392   0.814E-02    0.323E-01
DAV:  28    -0.386309377664E+03   -0.24035E-04   -0.55227E-04 41456   0.725E-02    0.182E-01
DAV:  29    -0.386309435939E+03   -0.58275E-04   -0.43300E-04 41536   0.551E-02    0.109E-01
DAV:  30    -0.386309444399E+03   -0.84605E-05   -0.14718E-04 35680   0.276E-02    0.823E-02
DAV:  31    -0.386309443514E+03    0.88525E-06   -0.49090E-05 29072   0.180E-02
   8 F= -.38630944E+03 E0= -.38628836E+03  d E =-.109729E+00  mag=    15.9999
       N       E                     dE             d eps       ncg     rms          rms(c)
DAV:   1    -0.386296619664E+03    0.12825E-01   -0.48420E+00 33696   0.608E+00    0.931E-01
DAV:   2    -0.386334260058E+03   -0.37640E-01   -0.34616E-01 35264   0.131E+00    0.346E+00
DAV:   3    -0.386324113121E+03    0.10147E-01   -0.21232E-01 42768   0.648E-01    0.254E+00
DAV:   4    -0.386318922077E+03    0.51910E-02   -0.53332E-02 44416   0.443E-01    0.147E+00
DAV:   5    -0.386317659834E+03    0.12622E-02   -0.57929E-02 45136   0.385E-01    0.152E+00
DAV:   6    -0.386314574744E+03    0.30851E-02   -0.24914E-02 46000   0.297E-01    0.962E-01
DAV:   7    -0.386315043099E+03   -0.46835E-03   -0.13473E-02 46440   0.245E-01    0.940E-01
DAV:   8    -0.386314299099E+03    0.74400E-03   -0.94766E-03 45568   0.235E-01    0.728E-01
DAV:   9    -0.386313388835E+03    0.91026E-03   -0.50064E-03 45232   0.157E-01    0.276E-01
DAV:  10    -0.386313468899E+03   -0.80064E-04   -0.55401E-04 39336   0.569E-02    0.276E-01
DAV:  11    -0.386313434304E+03    0.34595E-04   -0.47079E-04 33960   0.505E-02    0.266E-01
DAV:  12    -0.386313429709E+03    0.45949E-05   -0.49024E-04 34752   0.512E-02    0.272E-01
DAV:  13    -0.386313313346E+03    0.11636E-03   -0.54836E-04 36464   0.628E-02    0.215E-01
DAV:  14    -0.386313336335E+03   -0.22989E-04   -0.49888E-04 38928   0.646E-02    0.235E-01
DAV:  15    -0.386313224626E+03    0.11171E-03   -0.30113E-04 35896   0.520E-02    0.155E-01
DAV:  16    -0.386313336306E+03   -0.11168E-03   -0.45472E-04 37672   0.537E-02    0.278E-01
DAV:  17    -0.386313213587E+03    0.12272E-03   -0.44498E-04 38248   0.555E-02    0.184E-01
DAV:  18    -0.386313290970E+03   -0.77383E-04   -0.24066E-04 31104   0.454E-02    0.197E-01
DAV:  19    -0.386313253342E+03    0.37628E-04   -0.72531E-05 28904   0.326E-02    0.130E-01
DAV:  20    -0.386313256817E+03   -0.34752E-05   -0.75272E-06 20824   0.743E-03
   9 F= -.38631326E+03 E0= -.38629235E+03  d E =-.113542E+00  mag=    16.0000
       N       E                     dE             d eps       ncg     rms          rms(c)
DAV:   1    -0.386224793434E+03    0.88460E-01   -0.21756E+01 34656   0.138E+01    0.143E+00
DAV:   2    -0.386358887554E+03   -0.13409E+00   -0.14813E+00 32456   0.279E+00    0.235E+00
DAV:   3    -0.386386133214E+03   -0.27246E-01   -0.25774E-01 46120   0.102E+00    0.479E+00
DAV:   4    -0.386365770423E+03    0.20363E-01   -0.19868E-01 46056   0.646E-01    0.297E+00
DAV:   5    -0.386352640145E+03    0.13130E-01   -0.65193E-02 45696   0.494E-01    0.132E+00
DAV:   6    -0.386352680550E+03   -0.40406E-04   -0.12948E-02 45568   0.247E-01    0.119E+00
DAV:   7    -0.386352748558E+03   -0.68007E-04   -0.92742E-03 45784   0.185E-01    0.134E+00
DAV:   8    -0.386351611352E+03    0.11372E-02   -0.11945E-03 42656   0.824E-02    0.111E+00
DAV:   9    -0.386351852114E+03   -0.24076E-03   -0.56006E-04 38208   0.519E-02    0.112E+00
DAV:  10    -0.386352141207E+03   -0.28909E-03   -0.52450E-03 44288   0.147E-01    0.123E+00
DAV:  11    -0.386351905059E+03    0.23615E-03   -0.44535E-03 45240   0.162E-01    0.116E+00
DAV:  12    -0.386351759784E+03    0.14527E-03   -0.79151E-03 42552   0.217E-01    0.115E+00
DAV:  13    -0.386352535938E+03   -0.77615E-03   -0.10774E-03 37320   0.796E-02    0.121E+00
DAV:  14    -0.386351829418E+03    0.70652E-03   -0.21020E-02 43520   0.393E-01    0.134E+00
DAV:  15    -0.386350153626E+03    0.16758E-02   -0.12342E-02 45680   0.297E-01    0.102E+00
DAV:  16    -0.386349449492E+03    0.70413E-03   -0.93226E-03 46312   0.240E-01    0.766E-01
DAV:  17    -0.386348600909E+03    0.84858E-03   -0.52910E-03 45640   0.197E-01    0.428E-01
DAV:  18    -0.386348894560E+03   -0.29365E-03   -0.37198E-03 46592   0.155E-01    0.413E-01
DAV:  19    -0.386349049584E+03   -0.15502E-03   -0.25933E-03 44808   0.133E-01    0.432E-01
DAV:  20    -0.386349016300E+03    0.33284E-04   -0.23362E-03 43280   0.963E-02    0.270E-01
DAV:  21    -0.386349110272E+03   -0.93972E-04   -0.47615E-04 43168   0.591E-02    0.296E-01
DAV:  22    -0.386349056019E+03    0.54254E-04   -0.23596E-04 38168   0.398E-02    0.274E-01
DAV:  23    -0.386349058045E+03   -0.20262E-05   -0.36682E-05 27352   0.142E-02
  10 F= -.38634906E+03 E0= -.38632771E+03  d E =-.358012E-01  mag=    16.0000
       N       E                     dE             d eps       ncg     rms          rms(c)
DAV:   1    -0.386299467370E+03    0.49589E-01   -0.95697E+00 34608   0.916E+00    0.967E-01
DAV:   2    -0.386364339667E+03   -0.64872E-01   -0.67577E-01 33040   0.186E+00    0.254E+00
DAV:   3    -0.386372227747E+03   -0.78881E-02   -0.22211E-01 45376   0.693E-01    0.343E+00
DAV:   4    -0.386358778951E+03    0.13449E-01   -0.72803E-02 44952   0.473E-01    0.158E+00
DAV:   5    -0.386355320901E+03    0.34580E-02   -0.20572E-02 46096   0.325E-01    0.831E-01
DAV:   6    -0.386355843204E+03   -0.52230E-03   -0.11122E-02 46232   0.197E-01    0.959E-01
DAV:   7    -0.386354868831E+03    0.97437E-03   -0.73519E-03 46168   0.199E-01    0.676E-01
DAV:   8    -0.386354180120E+03    0.68871E-03   -0.34404E-03 46448   0.156E-01    0.486E-01
DAV:   9    -0.386354051331E+03    0.12879E-03   -0.24630E-03 45592   0.125E-01    0.467E-01
DAV:  10    -0.386353598864E+03    0.45247E-03   -0.19219E-03 45256   0.123E-01    0.434E-01
DAV:  11    -0.386354124697E+03   -0.52583E-03   -0.33079E-03 45112   0.149E-01    0.666E-01
DAV:  12    -0.386353714944E+03    0.40975E-03   -0.42789E-03 46096   0.150E-01    0.456E-01
DAV:  13    -0.386353796417E+03   -0.81473E-04   -0.28088E-03 44280   0.127E-01    0.388E-01
DAV:  14    -0.386353930283E+03   -0.13387E-03   -0.19211E-03 43272   0.877E-02    0.322E-01
DAV:  15    -0.386353888026E+03    0.42257E-04   -0.61570E-04 38200   0.603E-02    0.236E-01
DAV:  16    -0.386353946766E+03   -0.58739E-04   -0.14223E-04 31448   0.302E-02    0.237E-01
DAV:  17    -0.386353941718E+03    0.50479E-05   -0.32656E-05 26024   0.190E-02
  11 F= -.38635394E+03 E0= -.38633283E+03  d E =-.406849E-01  mag=    16.0000
       N       E                     dE             d eps       ncg     rms          rms(c)
DAV:   1    -0.386255854644E+03    0.98092E-01   -0.25706E+01 34136   0.141E+01    0.117E+00
DAV:   2    -0.386389538893E+03   -0.13368E+00   -0.13304E+00 32480   0.268E+00    0.259E+00
DAV:   3    -0.386397356217E+03   -0.78173E-02   -0.22803E-01 46360   0.749E-01    0.338E+00
DAV:   4    -0.386391453603E+03    0.59026E-02   -0.89898E-02 46624   0.547E-01    0.261E+00
DAV:   5    -0.386382240202E+03    0.92134E-02   -0.23303E-02 46736   0.331E-01    0.125E+00
DAV:   6    -0.386382571992E+03   -0.33179E-03   -0.74351E-04 41928   0.656E-02    0.123E+00
DAV:   7    -0.386382351871E+03    0.22012E-03   -0.16734E-03 46440   0.844E-02    0.114E+00
DAV:   8    -0.386382259770E+03    0.92101E-04   -0.48047E-03 45752   0.151E-01    0.120E+00
DAV:   9    -0.386383879852E+03   -0.16201E-02   -0.13817E-02 46856   0.277E-01    0.148E+00
DAV:  10    -0.386379934133E+03    0.39457E-02   -0.20587E-02 46032   0.330E-01    0.103E+00
DAV:  11    -0.386380363571E+03   -0.42944E-03   -0.80824E-03 43624   0.229E-01    0.125E+00
DAV:  12    -0.386379391094E+03    0.97248E-03   -0.46255E-03 42728   0.172E-01    0.128E+00
DAV:  13    -0.386380068448E+03   -0.67735E-03   -0.16817E-03 41744   0.999E-02    0.127E+00
DAV:  14    -0.386379559216E+03    0.50923E-03   -0.13862E-02 43704   0.272E-01    0.973E-01
DAV:  15    -0.386379209971E+03    0.34924E-03   -0.15919E-02 44632   0.362E-01    0.837E-01
DAV:  16    -0.386378028193E+03    0.11818E-02   -0.16106E-02 43288   0.337E-01    0.673E-01
DAV:  17    -0.386377974742E+03    0.53451E-04   -0.58485E-03 43392   0.183E-01    0.744E-01
DAV:  18    -0.386377487182E+03    0.48756E-03   -0.47682E-03 43920   0.184E-01    0.545E-01
DAV:  19    -0.386378125803E+03   -0.63862E-03   -0.40599E-03 46312   0.167E-01    0.722E-01
DAV:  20    -0.386378415236E+03   -0.28943E-03   -0.37757E-03 43664   0.158E-01    0.815E-01
DAV:  21    -0.386377741432E+03    0.67380E-03   -0.27809E-03 41424   0.116E-01    0.361E-01
DAV:  22    -0.386377782582E+03   -0.41150E-04   -0.79321E-04 42840   0.703E-02    0.255E-01
DAV:  23    -0.386377818088E+03   -0.35507E-04   -0.25377E-04 36776   0.384E-02    0.212E-01
DAV:  24    -0.386377857319E+03   -0.39230E-04   -0.95625E-05 30480   0.220E-02    0.244E-01
DAV:  25    -0.386377845063E+03    0.12255E-04   -0.32710E-05 25800   0.133E-02    0.217E-01
DAV:  26    -0.386377833613E+03    0.11450E-04   -0.86517E-05 33600   0.269E-02    0.198E-01
DAV:  27    -0.386377804388E+03    0.29225E-04   -0.20966E-04 39344   0.388E-02    0.160E-01
DAV:  28    -0.386377774886E+03    0.29502E-04   -0.14876E-04 35808   0.293E-02    0.678E-02
DAV:  29    -0.386377785860E+03   -0.10974E-04   -0.31265E-05 26824   0.174E-02    0.540E-02
DAV:  30    -0.386377784919E+03    0.94106E-06   -0.16580E-05 23352   0.112E-02
  12 F= -.38637778E+03 E0= -.38635642E+03  d E =-.238432E-01  mag=    16.0000
       N       E                     dE             d eps       ncg     rms          rms(c)
DAV:   1    -0.386355423106E+03    0.22363E-01   -0.54290E+00 34176   0.647E+00    0.524E-01
DAV:   2    -0.386382152721E+03   -0.26730E-01   -0.27330E-01 32608   0.122E+00    0.880E-01
DAV:   3    -0.386386182130E+03   -0.40294E-02   -0.34857E-02 47488   0.364E-01    0.185E+00
DAV:   4    -0.386383830305E+03    0.23518E-02   -0.30467E-02 45656   0.267E-01    0.136E+00
DAV:   5    -0.386381162358E+03    0.26679E-02   -0.10803E-02 46224   0.190E-01    0.472E-01
DAV:   6    -0.386381181507E+03   -0.19149E-04   -0.22258E-03 46560   0.924E-02    0.380E-01
DAV:   7    -0.386381153111E+03    0.28397E-04   -0.16958E-03 44848   0.834E-02    0.398E-01
DAV:   8    -0.386380881035E+03    0.27208E-03   -0.71352E-04 43544   0.635E-02    0.295E-01
DAV:   9    -0.386380852504E+03    0.28531E-04   -0.16093E-04 33920   0.359E-02    0.295E-01
DAV:  10    -0.386380774826E+03    0.77678E-04   -0.17359E-04 30888   0.376E-02    0.272E-01
DAV:  11    -0.386380927577E+03   -0.15275E-03   -0.12051E-03 42288   0.779E-02    0.428E-01
DAV:  12    -0.386380455213E+03    0.47236E-03   -0.17842E-03 43496   0.994E-02    0.284E-01
DAV:  13    -0.386380742666E+03   -0.28745E-03   -0.99162E-04 44296   0.941E-02    0.374E-01
DAV:  14    -0.386380685809E+03    0.56857E-04   -0.87011E-04 43960   0.784E-02    0.240E-01
DAV:  15    -0.386380727740E+03   -0.41930E-04   -0.45735E-04 35352   0.460E-02    0.223E-01
DAV:  16    -0.386380736756E+03   -0.90168E-05   -0.31793E-04 32000   0.402E-02    0.192E-01
DAV:  17    -0.386380723126E+03    0.13630E-04   -0.11446E-04 29592   0.276E-02    0.147E-01
DAV:  18    -0.386380737920E+03   -0.14793E-04   -0.77623E-05 30024   0.231E-02    0.131E-01
DAV:  19    -0.386380742822E+03   -0.49024E-05   -0.90771E-05 29568   0.296E-02
  13 F= -.38638074E+03 E0= -.38635933E+03  d E =-.268011E-01  mag=    15.9999
       N       E                     dE             d eps       ncg     rms          rms(c)
DAV:   1    -0.386315553582E+03    0.65184E-01   -0.15481E+01 35008   0.112E+01    0.868E-01
DAV:   2    -0.386410210638E+03   -0.94657E-01   -0.88106E-01 32528   0.210E+00    0.283E+00
DAV:   3    -0.386407606803E+03    0.26038E-02   -0.12946E-01 45088   0.627E-01    0.253E+00
DAV:   4    -0.386408587541E+03   -0.98074E-03   -0.71857E-02 46752   0.454E-01    0.232E+00
DAV:   5    -0.386400802539E+03    0.77850E-02   -0.39219E-02 45232   0.316E-01    0.863E-01
DAV:   6    -0.386400399316E+03    0.40322E-03   -0.55578E-03 48272   0.171E-01    0.506E-01
DAV:   7    -0.386400729628E+03   -0.33031E-03   -0.51776E-03 45544   0.150E-01    0.657E-01
DAV:   8    -0.386399965069E+03    0.76456E-03   -0.39514E-03 44792   0.137E-01    0.464E-01
DAV:   9    -0.386399879988E+03    0.85081E-04   -0.66169E-04 41416   0.576E-02    0.411E-01
DAV:  10    -0.386399863345E+03    0.16643E-04   -0.53249E-04 36496   0.538E-02    0.426E-01
DAV:  11    -0.386399803853E+03    0.59492E-04   -0.42449E-04 35144   0.506E-02    0.421E-01
DAV:  12    -0.386399308265E+03    0.49559E-03   -0.11486E-03 42416   0.976E-02    0.388E-01
DAV:  13    -0.386399597689E+03   -0.28942E-03   -0.36560E-03 44096   0.152E-01    0.649E-01
DAV:  14    -0.386399688649E+03   -0.90960E-04   -0.38746E-03 46016   0.155E-01    0.570E-01
DAV:  15    -0.386399487757E+03    0.20089E-03   -0.17339E-03 44320   0.119E-01    0.373E-01
DAV:  16    -0.386399568028E+03   -0.80271E-04   -0.62433E-04 42312   0.668E-02    0.308E-01
DAV:  17    -0.386399573366E+03   -0.53376E-05   -0.34177E-04 39752   0.499E-02    0.244E-01
DAV:  18    -0.386399603675E+03   -0.30309E-04   -0.12088E-04 33256   0.259E-02    0.221E-01
DAV:  19    -0.386399611003E+03   -0.73277E-05   -0.14917E-04 30080   0.284E-02    0.195E-01
DAV:  20    -0.386399613612E+03   -0.26095E-05   -0.17382E-04 35680   0.301E-02    0.138E-01
DAV:  21    -0.386399606767E+03    0.68455E-05   -0.40270E-05 29456   0.208E-02
  14 F= -.38639961E+03 E0= -.38637815E+03  d E =-.188639E-01  mag=    15.9997
       N       E                     dE             d eps       ncg     rms          rms(c)
DAV:   1    -0.386290711229E+03    0.10890E+00   -0.21338E+01 35184   0.131E+01    0.102E+00
DAV:   2    -0.386418519577E+03   -0.12781E+00   -0.11996E+00 32456   0.246E+00    0.313E+00
DAV:   3    -0.386418096354E+03    0.42322E-03   -0.18201E-01 45504   0.716E-01    0.309E+00
DAV:   4    -0.386416853056E+03    0.12433E-02   -0.98415E-02 46712   0.523E-01    0.249E+00
DAV:   5    -0.386407768951E+03    0.90841E-02   -0.58883E-02 45480   0.375E-01    0.111E+00
DAV:   6    -0.386406877999E+03    0.89095E-03   -0.10376E-02 47760   0.208E-01    0.618E-01
DAV:   7    -0.386407992606E+03   -0.11146E-02   -0.12821E-02 46000   0.226E-01    0.935E-01
DAV:   8    -0.386406270746E+03    0.17219E-02   -0.12554E-02 45632   0.228E-01    0.601E-01
DAV:   9    -0.386406136403E+03    0.13434E-03   -0.38373E-03 44576   0.137E-01    0.478E-01
DAV:  10    -0.386406174230E+03   -0.37828E-04   -0.18840E-03 44160   0.999E-02    0.449E-01
DAV:  11    -0.386406030965E+03    0.14327E-03   -0.26578E-04 36600   0.464E-02    0.379E-01
DAV:  12    -0.386406058888E+03   -0.27923E-04   -0.65965E-05 28976   0.225E-02    0.395E-01
DAV:  13    -0.386406073148E+03   -0.14260E-04   -0.13009E-05 22800   0.109E-02    0.400E-01
DAV:  14    -0.386406271567E+03   -0.19842E-03   -0.12337E-03 43080   0.857E-02    0.531E-01
DAV:  15    -0.386405729275E+03    0.54229E-03   -0.23666E-03 43936   0.133E-01    0.319E-01
DAV:  16    -0.386405959519E+03   -0.23024E-03   -0.18413E-03 44776   0.128E-01    0.364E-01
DAV:  17    -0.386405812464E+03    0.14705E-03   -0.88129E-04 43832   0.915E-02    0.228E-01
DAV:  18    -0.386405876543E+03   -0.64078E-04   -0.19597E-04 37872   0.449E-02    0.215E-01
DAV:  19    -0.386405874877E+03    0.16654E-05   -0.12913E-04 32048   0.347E-02    0.171E-01
DAV:  20    -0.386405886906E+03   -0.12029E-04   -0.68784E-05 30360   0.206E-02    0.156E-01
DAV:  21    -0.386405890775E+03   -0.38686E-05   -0.97376E-05 31160   0.254E-02
  15 F= -.38640589E+03 E0= -.38638430E+03  d E =-.251480E-01  mag=    15.9981
       N       E                     dE             d eps       ncg     rms          rms(c)
DAV:   1    -0.386385692244E+03    0.20195E-01   -0.10855E+01 33944   0.914E+00    0.126E+00
DAV:   2    -0.386436301907E+03   -0.50610E-01   -0.62695E-01 32872   0.184E+00    0.341E+00
DAV:   3    -0.386433104820E+03    0.31971E-02   -0.21088E-01 44232   0.672E-01    0.324E+00
DAV:   4    -0.386442835520E+03   -0.97307E-02   -0.15690E-01 45960   0.712E-01    0.348E+00
DAV:   5    -0.386419306079E+03    0.23529E-01   -0.11675E-01 45768   0.594E-01    0.127E+00
DAV:   6    -0.386419246476E+03    0.59603E-04   -0.22248E-02 47392   0.340E-01    0.983E-01
DAV:   7    -0.386421812036E+03   -0.25656E-02   -0.39622E-02 46104   0.343E-01    0.152E+00
DAV:   8    -0.386417346298E+03    0.44657E-02   -0.16420E-02 45448   0.268E-01    0.476E-01
DAV:   9    -0.386417475096E+03   -0.12880E-03   -0.27287E-03 45576   0.140E-01    0.427E-01
DAV:  10    -0.386417384891E+03    0.90205E-04   -0.13063E-03 45632   0.891E-02    0.308E-01
DAV:  11    -0.386417330387E+03    0.54505E-04   -0.41947E-04 40512   0.476E-02    0.219E-01
DAV:  12    -0.386417333417E+03   -0.30307E-05   -0.18751E-05 25768   0.116E-02
  16 F= -.38641733E+03 E0= -.38639572E+03  d E =-.114426E-01  mag=    15.9869
       N       E                     dE             d eps       ncg     rms          rms(c)
DAV:   1    -0.386349610026E+03    0.67720E-01   -0.25395E+01 33928   0.140E+01    0.196E+00
DAV:   2    -0.386453114307E+03   -0.10350E+00   -0.14305E+00 32616   0.281E+00    0.382E+00
DAV:   3    -0.386467518387E+03   -0.14404E-01   -0.35114E-01 45800   0.108E+00    0.496E+00
DAV:   4    -0.386488992869E+03   -0.21474E-01   -0.31202E-01 46016   0.100E+00    0.580E+00
DAV:   5    -0.386430152369E+03    0.58840E-01   -0.38278E-01 45512   0.931E-01    0.208E+00
DAV:   6    -0.386428997826E+03    0.11545E-02   -0.39242E-02 47264   0.498E-01    0.158E+00
DAV:   7    -0.386435016656E+03   -0.60188E-02   -0.77774E-02 45688   0.498E-01    0.247E+00
DAV:   8    -0.386428045690E+03    0.69710E-02   -0.40101E-02 45208   0.393E-01    0.132E+00
DAV:   9    -0.386428149365E+03   -0.10368E-03   -0.24094E-03 42272   0.132E-01    0.118E+00
DAV:  10    -0.386426660785E+03    0.14886E-02   -0.17713E-03 42824   0.722E-02    0.107E+00
DAV:  11    -0.386426010521E+03    0.65026E-03   -0.80565E-03 45328   0.220E-01    0.124E+00
DAV:  12    -0.386424114397E+03    0.18961E-02   -0.13007E-02 45512   0.213E-01    0.830E-01
DAV:  13    -0.386423196217E+03    0.91818E-03   -0.78960E-03 45896   0.192E-01    0.461E-01
DAV:  14    -0.386423522948E+03   -0.32673E-03   -0.25836E-03 43504   0.120E-01    0.571E-01
DAV:  15    -0.386423535821E+03   -0.12873E-04   -0.16461E-03 44304   0.112E-01    0.514E-01
DAV:  16    -0.386423771520E+03   -0.23570E-03   -0.25205E-03 44056   0.117E-01    0.524E-01
DAV:  17    -0.386423671780E+03    0.99740E-04   -0.13805E-03 43952   0.105E-01    0.403E-01
DAV:  18    -0.386423658166E+03    0.13614E-04   -0.44304E-04 39376   0.623E-02    0.352E-01
DAV:  19    -0.386423698673E+03   -0.40507E-04   -0.35432E-04 35472   0.517E-02    0.349E-01
DAV:  20    -0.386423796789E+03   -0.98116E-04   -0.47892E-04 41584   0.707E-02    0.403E-01
DAV:  21    -0.386423517970E+03    0.27882E-03   -0.50731E-04 40104   0.640E-02    0.266E-01
DAV:  22    -0.386423362642E+03    0.15533E-03   -0.68657E-04 39552   0.627E-02    0.193E-01
DAV:  23    -0.386423286785E+03    0.75858E-04   -0.52636E-04 41088   0.521E-02    0.189E-01
DAV:  24    -0.386423255299E+03    0.31486E-04   -0.20734E-04 36352   0.328E-02    0.160E-01
DAV:  25    -0.386423222587E+03    0.32711E-04   -0.19105E-04 36352   0.348E-02    0.139E-01
DAV:  26    -0.386423203873E+03    0.18714E-04   -0.12736E-04 35472   0.270E-02    0.116E-01
DAV:  27    -0.386423201517E+03    0.23563E-05   -0.20695E-05 26064   0.940E-03
  17 F= -.38642320E+03 E0= -.38640100E+03  d E =-.173107E-01  mag=    15.9581
       N       E                     dE             d eps       ncg     rms          rms(c)
DAV:   1    -0.386368973800E+03    0.54230E-01   -0.13102E+01 33824   0.103E+01    0.924E-01
DAV:   2    -0.386447970371E+03   -0.78997E-01   -0.75744E-01 32456   0.198E+00    0.246E+00
DAV:   3    -0.386451185659E+03   -0.32153E-02   -0.15145E-01 45168   0.653E-01    0.280E+00
DAV:   4    -0.386446974604E+03    0.42111E-02   -0.11075E-01 45912   0.456E-01    0.206E+00
DAV:   5    -0.386441375495E+03    0.55991E-02   -0.22874E-02 47856   0.310E-01    0.931E-01
DAV:   6    -0.386441394204E+03   -0.18709E-04   -0.15243E-03 42248   0.982E-02    0.767E-01
DAV:   7    -0.386441262327E+03    0.13188E-03   -0.17406E-04 38408   0.282E-02    0.747E-01
DAV:   8    -0.386441456926E+03   -0.19460E-03   -0.39505E-03 45192   0.162E-01    0.110E+00
DAV:   9    -0.386440785100E+03    0.67183E-03   -0.11545E-02 44104   0.205E-01    0.939E-01
DAV:  10    -0.386439442552E+03    0.13425E-02   -0.10372E-02 45296   0.239E-01    0.975E-01
DAV:  11    -0.386438554602E+03    0.88795E-03   -0.53142E-03 44872   0.180E-01    0.823E-01
DAV:  12    -0.386437875384E+03    0.67922E-03   -0.12672E-03 42480   0.915E-02    0.726E-01
DAV:  13    -0.386437815628E+03    0.59756E-04   -0.10898E-04 33432   0.272E-02    0.713E-01
DAV:  14    -0.386437962628E+03   -0.14700E-03   -0.84016E-05 29008   0.219E-02    0.701E-01
DAV:  15    -0.386438051284E+03   -0.88655E-04   -0.40319E-05 27120   0.170E-02    0.700E-01
DAV:  16    -0.386437547121E+03    0.50416E-03   -0.95422E-04 41128   0.800E-02    0.733E-01
DAV:  17    -0.386435430275E+03    0.21168E-02   -0.30595E-03 41856   0.151E-01    0.685E-01
DAV:  18    -0.386430755540E+03    0.46747E-02   -0.57737E-03 38648   0.169E-01    0.875E-01
DAV:  19    -0.386429684010E+03    0.10715E-02   -0.10806E-03 40336   0.771E-02    0.901E-01
DAV:  20    -0.386431351381E+03   -0.16674E-02   -0.49425E-04 37656   0.565E-02    0.801E-01
DAV:  21    -0.386435820802E+03   -0.44694E-02   -0.60269E-03 41288   0.212E-01    0.726E-01
DAV:  22    -0.386436481130E+03   -0.66033E-03   -0.47180E-03 43784   0.190E-01    0.460E-01
DAV:  23    -0.386437117015E+03   -0.63588E-03   -0.14385E-03 38624   0.891E-02    0.401E-01
DAV:  24    -0.386437075006E+03    0.42008E-04   -0.31131E-04 39792   0.451E-02    0.364E-01
DAV:  25    -0.386437158336E+03   -0.83329E-04   -0.25560E-04 39104   0.397E-02    0.349E-01
DAV:  26    -0.386437732764E+03   -0.57443E-03   -0.11294E-03 39648   0.837E-02    0.299E-01
DAV:  27    -0.386439054459E+03   -0.13217E-02   -0.17920E-03 39368   0.849E-02    0.424E-01
DAV:  28    -0.386440343043E+03   -0.12886E-02   -0.65960E-04 38704   0.487E-02    0.569E-01
DAV:  29    -0.386439938477E+03    0.40457E-03   -0.11545E-04 33584   0.236E-02    0.531E-01
DAV:  30    -0.386439156437E+03    0.78204E-03   -0.21424E-04 33832   0.296E-02    0.444E-01
DAV:  31    -0.386438225583E+03    0.93085E-03   -0.52778E-04 39248   0.491E-02    0.333E-01
DAV:  32    -0.386437490883E+03    0.73470E-03   -0.76487E-04 38296   0.528E-02    0.242E-01
DAV:  33    -0.386437250461E+03    0.24042E-03   -0.23636E-04 38448   0.305E-02    0.211E-01
DAV:  34    -0.386436987458E+03    0.26300E-03   -0.15439E-04 31840   0.221E-02    0.209E-01
DAV:  35    -0.386436726944E+03    0.26051E-03   -0.12903E-04 34080   0.204E-02    0.202E-01
DAV:  36    -0.386436529407E+03    0.19754E-03   -0.77007E-05 31168   0.162E-02    0.216E-01
DAV:  37    -0.386436181756E+03    0.34765E-03   -0.13592E-04 32992   0.221E-02    0.243E-01
DAV:  38    -0.386435992984E+03    0.18877E-03   -0.56080E-05 31632   0.130E-02    0.263E-01
DAV:  39    -0.386435854454E+03    0.13853E-03   -0.16239E-05 24616   0.711E-03    0.276E-01
DAV:  40    -0.386436429421E+03   -0.57497E-03   -0.29637E-04 34648   0.332E-02    0.224E-01
DAV:  41    -0.386436765246E+03   -0.33583E-03   -0.21077E-04 35344   0.269E-02    0.199E-01
DAV:  42    -0.386437165771E+03   -0.40052E-03   -0.29189E-04 35912   0.322E-02    0.191E-01
DAV:  43    -0.386437766706E+03   -0.60094E-03   -0.55892E-04 37688   0.440E-02    0.231E-01
DAV:  44    -0.386438713631E+03   -0.94692E-03   -0.70970E-04 37568   0.476E-02    0.354E-01
DAV:  45    -0.386438312102E+03    0.40153E-03   -0.17044E-04 34432   0.291E-02    0.300E-01
DAV:  46    -0.386437672441E+03    0.63966E-03   -0.34357E-04 35920   0.353E-02    0.223E-01
DAV:  47    -0.386436713621E+03    0.95882E-03   -0.14378E-03 38640   0.722E-02    0.190E-01
DAV:  48    -0.386435820005E+03    0.89362E-03   -0.12105E-03 38576   0.633E-02    0.272E-01
DAV:  49    -0.386435494724E+03    0.32528E-03   -0.20753E-04 38984   0.245E-02    0.311E-01
DAV:  50    -0.386435303538E+03    0.19119E-03   -0.22349E-05 25656   0.827E-03    0.330E-01
DAV:  51    -0.386435986357E+03   -0.68282E-03   -0.30272E-04 34440   0.340E-02    0.263E-01
DAV:  52    -0.386436929339E+03   -0.94298E-03   -0.12528E-03 37968   0.668E-02    0.187E-01
DAV:  53    -0.386437587063E+03   -0.65772E-03   -0.89288E-04 38624   0.539E-02    0.210E-01
DAV:  54    -0.386438885283E+03   -0.12982E-02   -0.12176E-03 37552   0.635E-02    0.381E-01
DAV:  55    -0.386441257667E+03   -0.23724E-02   -0.13177E-03 38184   0.634E-02    0.678E-01
DAV:  56    -0.386444004533E+03   -0.27469E-02   -0.78359E-04 38168   0.493E-02    0.950E-01
DAV:  57    -0.386444198107E+03   -0.19357E-03   -0.11237E-04 35208   0.230E-02    0.980E-01
DAV:  58    -0.386444009461E+03    0.18865E-03   -0.66640E-06 25080   0.591E-03    0.971E-01
DAV:  59    -0.386443916604E+03    0.92858E-04   -0.15570E-06 18704   0.311E-03    0.965E-01
DAV:  60    -0.386442670470E+03    0.12461E-02   -0.10708E-04 30800   0.195E-02    0.856E-01
DAV:  61    -0.386442388582E+03    0.28189E-03   -0.30883E-05 30856   0.119E-02    0.825E-01
DAV:  62    -0.386440990114E+03    0.13985E-02   -0.19936E-04 33952   0.267E-02    0.681E-01
DAV:  63    -0.386442376874E+03   -0.13868E-02   -0.16942E-04 33128   0.270E-02    0.814E-01
DAV:  64    -0.386442623018E+03   -0.24614E-03   -0.19851E-05 27632   0.880E-03    0.843E-01
DAV:  65    -0.386442601941E+03    0.21077E-04   -0.19704E-06 17968   0.373E-03    0.844E-01
DAV:  66    -0.386442613883E+03   -0.11942E-04   -0.42236E-07 17472   0.172E-03    0.847E-01
DAV:  67    -0.386443567937E+03   -0.95405E-03   -0.68205E-05 30280   0.156E-02    0.932E-01
DAV:  68    -0.386442730730E+03    0.83721E-03   -0.45265E-05 27856   0.148E-02    0.863E-01
DAV:  69    -0.386442625170E+03    0.10556E-03   -0.53284E-06 20800   0.457E-03    0.850E-01
DAV:  70    -0.386443187623E+03   -0.56245E-03   -0.22223E-05 25320   0.955E-03    0.898E-01
DAV:  71    -0.386443000652E+03    0.18697E-03   -0.29345E-06 18088   0.433E-03    0.883E-01
DAV:  72    -0.386441062746E+03    0.19379E-02   -0.32364E-04 34400   0.319E-02    0.693E-01
DAV:  73    -0.386442215224E+03   -0.11525E-02   -0.12018E-04 30328   0.257E-02    0.796E-01
DAV:  74    -0.386441174162E+03    0.10411E-02   -0.85793E-05 29208   0.183E-02    0.690E-01
DAV:  75    -0.386441853195E+03   -0.67903E-03   -0.42707E-05 27376   0.157E-02    0.753E-01
DAV:  76    -0.386441922859E+03   -0.69664E-04   -0.68096E-06 21400   0.567E-03    0.760E-01
DAV:  77    -0.386442751110E+03   -0.82825E-03   -0.63643E-05 30328   0.146E-02    0.841E-01
DAV:  78    -0.386442449343E+03    0.30177E-03   -0.10534E-05 22232   0.842E-03    0.817E-01
DAV:  79    -0.386442500817E+03   -0.51475E-04   -0.95664E-07 17472   0.281E-03    0.822E-01
DAV:  80    -0.386442492515E+03    0.83025E-05   -0.27616E-07 17448   0.134E-03
  18 F= -.38644249E+03 E0= -.38641684E+03  d E =-.192910E-01  mag=    15.7619
       N       E                     dE             d eps       ncg     rms          rms(c)
DAV:   1    -0.385812860191E+03    0.62964E+00   -0.11773E+02 33680   0.309E+01    0.318E+00
DAV:   2    -0.386834900288E+03   -0.10220E+01   -0.84966E+00 33472   0.625E+00    0.121E+01
DAV:   3    -0.386535015919E+03    0.29988E+00   -0.17038E+00 40184   0.231E+00    0.496E+00
DAV:   4    -0.386579231801E+03   -0.44216E-01   -0.55294E-01 46152   0.146E+00    0.582E+00
DAV:   5    -0.386555435056E+03    0.23797E-01   -0.17872E-01 47592   0.866E-01    0.463E+00
DAV:   6    -0.386554940907E+03    0.49415E-03   -0.43745E-02 43960   0.352E-01    0.460E+00
DAV:   7    -0.386555093969E+03   -0.15306E-03   -0.17862E-03 41096   0.106E-01    0.459E+00
DAV:   8    -0.386571782510E+03   -0.16689E-01   -0.28948E-02 47080   0.381E-01    0.465E+00
DAV:   9    -0.386567403689E+03    0.43788E-02   -0.11745E-01 48560   0.834E-01    0.432E+00
DAV:  10    -0.386591529043E+03   -0.24125E-01   -0.17662E-01 46680   0.945E-01    0.469E+00
DAV:  11    -0.386587678870E+03    0.38502E-02   -0.10438E-01 43544   0.782E-01    0.347E+00
DAV:  12    -0.386581748163E+03    0.59307E-02   -0.89901E-02 44776   0.556E-01    0.299E+00
DAV:  13    -0.386578314605E+03    0.34336E-02   -0.13395E-02 43248   0.275E-01    0.279E+00
DAV:  14    -0.386575939851E+03    0.23748E-02   -0.61542E-03 44664   0.189E-01    0.260E+00
DAV:  15    -0.386574586266E+03    0.13536E-02   -0.35156E-02 46248   0.420E-01    0.231E+00
DAV:  16    -0.386568942322E+03    0.56439E-02   -0.83819E-02 46304   0.629E-01    0.184E+00
DAV:  17    -0.386576104094E+03   -0.71618E-02   -0.67209E-02 46936   0.545E-01    0.268E+00
DAV:  18    -0.386571483731E+03    0.46204E-02   -0.25412E-02 44504   0.399E-01    0.184E+00
DAV:  19    -0.386572744410E+03   -0.12607E-02   -0.21103E-02 43632   0.325E-01    0.122E+00
DAV:  20    -0.386574140169E+03   -0.13958E-02   -0.67161E-03 43872   0.222E-01    0.121E+00
DAV:  21    -0.386574718041E+03   -0.57787E-03   -0.19677E-03 41216   0.121E-01    0.121E+00
DAV:  22    -0.386575959708E+03   -0.12417E-02   -0.16461E-03 44232   0.133E-01    0.132E+00
DAV:  23    -0.386575318921E+03    0.64079E-03   -0.11246E-03 42648   0.783E-02    0.118E+00
DAV:  24    -0.386575615221E+03   -0.29630E-03   -0.90352E-04 41648   0.676E-02    0.112E+00
DAV:  25    -0.386576799429E+03   -0.11842E-02   -0.36222E-03 43232   0.155E-01    0.104E+00
DAV:  26    -0.386578401859E+03   -0.16024E-02   -0.55957E-03 43832   0.195E-01    0.888E-01
DAV:  27    -0.386578901398E+03   -0.49954E-03   -0.34671E-03 41992   0.134E-01    0.734E-01
DAV:  28    -0.386580182360E+03   -0.12810E-02   -0.16188E-03 40896   0.953E-02    0.809E-01
DAV:  29    -0.386580716074E+03   -0.53371E-03   -0.29042E-04 37016   0.365E-02    0.857E-01
DAV:  30    -0.386580892337E+03   -0.17626E-03   -0.30635E-05 27448   0.125E-02    0.861E-01
DAV:  31    -0.386578894824E+03    0.19975E-02   -0.70436E-04 41736   0.723E-02    0.741E-01
DAV:  32    -0.386576057086E+03    0.28377E-02   -0.21002E-03 42072   0.119E-01    0.628E-01
DAV:  33    -0.386573119606E+03    0.29375E-02   -0.62315E-03 43032   0.197E-01    0.535E-01
DAV:  34    -0.386572736234E+03    0.38337E-03   -0.32744E-03 40592   0.125E-01    0.540E-01
DAV:  35    -0.386572762422E+03   -0.26188E-04   -0.11220E-03 37400   0.705E-02    0.525E-01
DAV:  36    -0.386573119739E+03   -0.35732E-03   -0.13514E-03 43208   0.116E-01    0.347E-01
DAV:  37    -0.386573380531E+03   -0.26079E-03   -0.21719E-03 43352   0.101E-01    0.356E-01
DAV:  38    -0.386573400915E+03   -0.20384E-04   -0.10590E-03 41936   0.849E-02    0.192E-01
DAV:  39    -0.386573442290E+03   -0.41375E-04   -0.23975E-04 37832   0.441E-02    0.180E-01
DAV:  40    -0.386573453932E+03   -0.11642E-04   -0.36342E-04 40896   0.436E-02    0.868E-02
DAV:  41    -0.386573462466E+03   -0.85341E-05   -0.95066E-05 34904   0.266E-02
  19 F= -.38657346E+03 E0= -.38655234E+03  d E =-.150261E+00  mag=    14.0105
       N       E                     dE             d eps       ncg     rms          rms(c)
DAV:   1    -0.386503896761E+03    0.69557E-01   -0.13623E+01 33760   0.105E+01    0.911E-01
DAV:   2    -0.386596820814E+03   -0.92924E-01   -0.88885E-01 32648   0.203E+00    0.365E+00
DAV:   3    -0.386583911410E+03    0.12909E-01   -0.27204E-01 43616   0.711E-01    0.242E+00
DAV:   4    -0.386584670201E+03   -0.75879E-03   -0.36934E-02 48480   0.375E-01    0.210E+00
DAV:   5    -0.386579158498E+03    0.55117E-02   -0.43459E-02 45680   0.366E-01    0.137E+00
DAV:   6    -0.386578234896E+03    0.92360E-03   -0.15274E-02 45616   0.209E-01    0.104E+00
DAV:   7    -0.386578065512E+03    0.16938E-03   -0.10185E-02 45944   0.183E-01    0.103E+00
DAV:   8    -0.386576613704E+03    0.14518E-02   -0.38480E-03 45080   0.151E-01    0.704E-01
DAV:   9    -0.386576750595E+03   -0.13689E-03   -0.30146E-03 44816   0.121E-01    0.745E-01
DAV:  10    -0.386576198758E+03    0.55184E-03   -0.33658E-03 43496   0.102E-01    0.533E-01
DAV:  11    -0.386576167819E+03    0.30939E-04   -0.17827E-03 43792   0.862E-02    0.469E-01
DAV:  12    -0.386576262561E+03   -0.94742E-04   -0.13203E-03 42640   0.816E-02    0.489E-01
DAV:  13    -0.386576080798E+03    0.18176E-03   -0.83780E-04 39648   0.658E-02    0.385E-01
DAV:  14    -0.386576254754E+03   -0.17396E-03   -0.16154E-03 43104   0.916E-02    0.439E-01
DAV:  15    -0.386576299526E+03   -0.44773E-04   -0.15276E-03 44208   0.121E-01    0.452E-01
DAV:  16    -0.386576364226E+03   -0.64700E-04   -0.20858E-03 43056   0.102E-01    0.425E-01
DAV:  17    -0.386576291556E+03    0.72670E-04   -0.95484E-04 42432   0.817E-02    0.362E-01
DAV:  18    -0.386576380494E+03   -0.88938E-04   -0.10273E-03 42408   0.789E-02    0.348E-01
DAV:  19    -0.386576240320E+03    0.14017E-03   -0.99554E-04 43616   0.794E-02    0.227E-01
DAV:  20    -0.386576344797E+03   -0.10448E-03   -0.51537E-04 41176   0.574E-02    0.249E-01
DAV:  21    -0.386576309256E+03    0.35541E-04   -0.97718E-05 31968   0.263E-02    0.226E-01
DAV:  22    -0.386576311982E+03   -0.27262E-05   -0.73499E-06 23392   0.739E-03
  20 F= -.38657631E+03 E0= -.38655488E+03  d E =-.153110E+00  mag=    14.0034
       N       E                     dE             d eps       ncg     rms          rms(c)
DAV:   1    -0.386576423278E+03   -0.11402E-03   -0.51677E-01 33672   0.210E+00    0.297E-01
DAV:   2    -0.386581668904E+03   -0.52456E-02   -0.41449E-02 33328   0.426E-01    0.829E-01
DAV:   3    -0.386580808791E+03    0.86011E-03   -0.54286E-03 42760   0.151E-01    0.574E-01
DAV:   4    -0.386581279083E+03   -0.47029E-03   -0.11757E-03 41744   0.532E-02    0.830E-01
DAV:   5    -0.386580757530E+03    0.52155E-03   -0.20699E-03 37824   0.604E-02    0.619E-01
DAV:   6    -0.386581036433E+03   -0.27890E-03   -0.29956E-03 40744   0.798E-02    0.735E-01
DAV:   7    -0.386580640346E+03    0.39609E-03   -0.22675E-03 42360   0.811E-02    0.596E-01
DAV:   8    -0.386580678582E+03   -0.38236E-04   -0.52841E-05 29576   0.178E-02    0.592E-01
DAV:   9    -0.386580615375E+03    0.63207E-04   -0.55277E-04 42128   0.468E-02    0.540E-01
DAV:  10    -0.386580601979E+03    0.13396E-04   -0.37895E-04 40296   0.483E-02    0.525E-01
DAV:  11    -0.386580594266E+03    0.77134E-05   -0.20185E-04 31008   0.305E-02    0.512E-01
DAV:  12    -0.386580605883E+03   -0.11617E-04   -0.96839E-05 29512   0.246E-02    0.528E-01
DAV:  13    -0.386580597709E+03    0.81739E-05   -0.28033E-04 33192   0.404E-02    0.549E-01
DAV:  14    -0.386580185717E+03    0.41199E-03   -0.17141E-03 39688   0.836E-02    0.467E-01
DAV:  15    -0.386580192047E+03   -0.63306E-05   -0.21364E-04 35336   0.283E-02    0.448E-01
DAV:  16    -0.386580254886E+03   -0.62839E-04   -0.63012E-05 28200   0.193E-02    0.432E-01
DAV:  17    -0.386580277688E+03   -0.22802E-04   -0.13259E-03 40488   0.816E-02    0.372E-01
DAV:  18    -0.386579901574E+03    0.37611E-03   -0.34732E-03 42104   0.141E-01    0.160E-01
DAV:  19    -0.386580172379E+03   -0.27081E-03   -0.12091E-03 42640   0.822E-02    0.332E-01
DAV:  20    -0.386579963513E+03    0.20887E-03   -0.46797E-04 43120   0.639E-02    0.146E-01
DAV:  21    -0.386580029765E+03   -0.66251E-04   -0.23307E-04 35408   0.363E-02    0.189E-01
DAV:  22    -0.386580007984E+03    0.21781E-04   -0.67025E-05 28488   0.220E-02    0.166E-01
DAV:  23    -0.386580023355E+03   -0.15371E-04   -0.54964E-05 28648   0.202E-02    0.140E-01
DAV:  24    -0.386580047690E+03   -0.24335E-04   -0.96541E-05 34088   0.227E-02    0.125E-01
DAV:  25    -0.386580075379E+03   -0.27689E-04   -0.30968E-05 28264   0.137E-02    0.128E-01
DAV:  26    -0.386580064484E+03    0.10895E-04   -0.57938E-06 20440   0.724E-03    0.126E-01
DAV:  27    -0.386580046849E+03    0.17635E-04   -0.43074E-06 18752   0.538E-03    0.122E-01
DAV:  28    -0.386580016320E+03    0.30528E-04   -0.12371E-05 26816   0.869E-03    0.115E-01
DAV:  29    -0.386579953691E+03    0.62630E-04   -0.62988E-05 31736   0.196E-02    0.996E-02
DAV:  30    -0.386579879934E+03    0.73756E-04   -0.15272E-04 35264   0.314E-02    0.599E-02
DAV:  31    -0.386579879249E+03    0.68554E-06   -0.13073E-04 34424   0.262E-02    0.509E-02
DAV:  32    -0.386579894034E+03   -0.14785E-04   -0.31141E-05 26136   0.143E-02    0.518E-02
DAV:  33    -0.386579892506E+03    0.15283E-05   -0.92044E-06 19744   0.791E-03
  21 F= -.38657989E+03 E0= -.38655862E+03  d E =-.358052E-02  mag=    14.0011
       N       E                     dE             d eps       ncg     rms          rms(c)
DAV:   1    -0.386557199901E+03    0.22694E-01   -0.46428E+00 33720   0.629E+00    0.579E-01
DAV:   2    -0.386591530899E+03   -0.34331E-01   -0.35138E-01 32448   0.124E+00    0.134E+00
DAV:   3    -0.386594986537E+03   -0.34556E-02   -0.86470E-02 46288   0.423E-01    0.206E+00
DAV:   4    -0.386592052809E+03    0.29337E-02   -0.52430E-02 46256   0.288E-01    0.134E+00
DAV:   5    -0.386589248017E+03    0.28048E-02   -0.12806E-02 46016   0.215E-01    0.566E-01
DAV:   6    -0.386589274302E+03   -0.26285E-04   -0.34599E-03 46496   0.113E-01    0.456E-01
DAV:   7    -0.386589242508E+03    0.31793E-04   -0.46748E-03 45472   0.106E-01    0.503E-01
DAV:   8    -0.386588939745E+03    0.30276E-03   -0.10992E-03 42728   0.655E-02    0.365E-01
DAV:   9    -0.386588920272E+03    0.19473E-04   -0.11079E-04 30184   0.272E-02    0.362E-01
DAV:  10    -0.386588934876E+03   -0.14605E-04   -0.35147E-05 25136   0.127E-02    0.374E-01
DAV:  11    -0.386588929374E+03    0.55023E-05   -0.25745E-05 21880   0.112E-02
  22 F= -.38658893E+03 E0= -.38656821E+03  d E =-.126174E-01  mag=    14.0007
       N       E                     dE             d eps       ncg     rms          rms(c)
DAV:   1    -0.386473514497E+03    0.11542E+00   -0.18580E+01 34040   0.126E+01    0.125E+00
DAV:   2    -0.386620797502E+03   -0.14728E+00   -0.14552E+00 32480   0.247E+00    0.400E+00
DAV:   3    -0.386620837200E+03   -0.39698E-04   -0.27209E-01 44152   0.909E-01    0.390E+00
DAV:   4    -0.386604044742E+03    0.16792E-01   -0.16374E-01 45152   0.542E-01    0.186E+00
DAV:   5    -0.386598787135E+03    0.52576E-02   -0.65113E-02 45904   0.392E-01    0.101E+00
DAV:   6    -0.386600082937E+03   -0.12958E-02   -0.27140E-02 47640   0.253E-01    0.142E+00
DAV:   7    -0.386597461035E+03    0.26219E-02   -0.11572E-02 45944   0.180E-01    0.804E-01
DAV:   8    -0.386597249280E+03    0.21176E-03   -0.22140E-03 45784   0.112E-01    0.806E-01
DAV:   9    -0.386597067816E+03    0.18146E-03   -0.53188E-04 42960   0.612E-02    0.788E-01
DAV:  10    -0.386596874852E+03    0.19296E-03   -0.54184E-04 41704   0.616E-02    0.787E-01
DAV:  11    -0.386597417952E+03   -0.54310E-03   -0.45988E-03 44664   0.194E-01    0.995E-01
DAV:  12    -0.386594476518E+03    0.29414E-02   -0.22632E-02 44760   0.323E-01    0.740E-01
DAV:  13    -0.386595984643E+03   -0.15081E-02   -0.97577E-03 45080   0.208E-01    0.707E-01
DAV:  14    -0.386596358069E+03   -0.37343E-03   -0.35405E-03 43136   0.148E-01    0.579E-01
DAV:  15    -0.386596522710E+03   -0.16464E-03   -0.10770E-03 41648   0.713E-02    0.563E-01
DAV:  16    -0.386596511898E+03    0.10813E-04   -0.59964E-05 31032   0.191E-02    0.554E-01
DAV:  17    -0.386596487144E+03    0.24754E-04   -0.38463E-05 27352   0.171E-02    0.562E-01
DAV:  18    -0.386596528673E+03   -0.41530E-04   -0.18721E-05 24456   0.119E-02    0.566E-01
DAV:  19    -0.386596561771E+03   -0.33098E-04   -0.72621E-04 42480   0.778E-02    0.414E-01
DAV:  20    -0.386596878594E+03   -0.31682E-03   -0.11975E-03 44128   0.984E-02    0.401E-01
DAV:  21    -0.386596777302E+03    0.10129E-03   -0.15784E-03 40280   0.989E-02    0.251E-01
DAV:  22    -0.386596933873E+03   -0.15657E-03   -0.11180E-03 42000   0.774E-02    0.250E-01
DAV:  23    -0.386596920144E+03    0.13729E-04   -0.40790E-04 40328   0.478E-02    0.184E-01
DAV:  24    -0.386596932728E+03   -0.12584E-04   -0.82935E-05 29496   0.225E-02    0.146E-01
DAV:  25    -0.386596995524E+03   -0.62796E-04   -0.58979E-05 31640   0.192E-02    0.155E-01
DAV:  26    -0.386597040920E+03   -0.45396E-04   -0.35858E-05 31312   0.155E-02    0.156E-01
DAV:  27    -0.386597073153E+03   -0.32233E-04   -0.11518E-05 22424   0.792E-03    0.164E-01
DAV:  28    -0.386597023278E+03    0.49875E-04   -0.10404E-05 24480   0.103E-02    0.156E-01
DAV:  29    -0.386596981851E+03    0.41427E-04   -0.11412E-05 25904   0.926E-03    0.152E-01
DAV:  30    -0.386596891854E+03    0.89997E-04   -0.57408E-05 31712   0.209E-02    0.157E-01
DAV:  31    -0.386596622041E+03    0.26981E-03   -0.64102E-04 41960   0.696E-02    0.159E-01
DAV:  32    -0.386596627436E+03   -0.53942E-05   -0.24701E-04 36336   0.309E-02    0.152E-01
DAV:  33    -0.386596589546E+03    0.37890E-04   -0.13048E-04 35688   0.308E-02    0.105E-01
DAV:  34    -0.386596587432E+03    0.21135E-05   -0.82052E-05 33496   0.189E-02
  23 F= -.38659659E+03 E0= -.38657578E+03  d E =-.202755E-01  mag=    14.0001
       N       E                     dE             d eps       ncg     rms          rms(c)
DAV:   1    -0.386604211441E+03   -0.76219E-02   -0.14737E-01 35608   0.130E+00    0.236E-01
DAV:   2    -0.386605850816E+03   -0.16394E-02   -0.23350E-02 33208   0.313E-01    0.394E-01
DAV:   3    -0.386606209719E+03   -0.35890E-03   -0.90347E-03 45512   0.159E-01    0.602E-01
DAV:   4    -0.386606009629E+03    0.20009E-03   -0.93673E-03 45280   0.116E-01    0.601E-01
DAV:   5    -0.386605548584E+03    0.46105E-03   -0.44156E-03 44128   0.850E-02    0.314E-01
DAV:   6    -0.386605489538E+03    0.59046E-04   -0.12610E-03 40584   0.522E-02    0.205E-01
DAV:   7    -0.386605510349E+03   -0.20811E-04   -0.74073E-04 35776   0.511E-02    0.209E-01
DAV:   8    -0.386605444241E+03    0.66108E-04   -0.39068E-04 30792   0.410E-02    0.120E-01
DAV:   9    -0.386605427624E+03    0.16617E-04   -0.69000E-05 26728   0.196E-02    0.757E-02
DAV:  10    -0.386605429010E+03   -0.13860E-05   -0.10675E-05 20144   0.763E-03
  24 F= -.38660543E+03 E0= -.38658462E+03  d E =-.884158E-02  mag=    14.0001
       N       E                     dE             d eps       ncg     rms          rms(c)
DAV:   1    -0.386618514362E+03   -0.13087E-01   -0.13269E+00 35784   0.391E+00    0.726E-01
DAV:   2    -0.386637930072E+03   -0.19416E-01   -0.22889E-01 33168   0.941E-01    0.237E+00
DAV:   3    -0.386633884285E+03    0.40458E-02   -0.13075E-01 43168   0.444E-01    0.180E+00
DAV:   4    -0.386633569508E+03    0.31478E-03   -0.54626E-02 45936   0.331E-01    0.144E+00
DAV:   5    -0.386628980560E+03    0.45889E-02   -0.16481E-02 45800   0.273E-01    0.409E-01
DAV:   6    -0.386629628479E+03   -0.64792E-03   -0.35888E-03 47136   0.158E-01    0.639E-01
DAV:   7    -0.386629215441E+03    0.41304E-03   -0.69685E-03 45832   0.141E-01    0.554E-01
DAV:   8    -0.386628861950E+03    0.35349E-03   -0.35000E-03 43600   0.915E-02    0.392E-01
DAV:   9    -0.386628808554E+03    0.53395E-04   -0.13114E-04 32072   0.294E-02    0.359E-01
DAV:  10    -0.386628804648E+03    0.39065E-05   -0.76882E-06 23096   0.781E-03
  25 F= -.38662880E+03 E0= -.38660827E+03  d E =-.322172E-01  mag=    14.0000
       N       E                     dE             d eps       ncg     rms          rms(c)
DAV:   1    -0.386621429511E+03    0.73790E-02   -0.53060E+00 35792   0.782E+00    0.148E+00
DAV:   2    -0.386683505143E+03   -0.62076E-01   -0.88021E-01 33216   0.185E+00    0.332E+00
DAV:   3    -0.386688247488E+03   -0.47423E-02   -0.47172E-01 44264   0.867E-01    0.396E+00
DAV:   4    -0.386677416538E+03    0.10831E-01   -0.18944E-01 45704   0.626E-01    0.274E+00
DAV:   5    -0.386663699201E+03    0.13717E-01   -0.93394E-02 45896   0.595E-01    0.145E+00
DAV:   6    -0.386664063691E+03   -0.36449E-03   -0.44276E-02 46008   0.359E-01    0.140E+00
DAV:   7    -0.386662133466E+03    0.19302E-02   -0.21181E-02 45912   0.328E-01    0.989E-01
DAV:   8    -0.386661397370E+03    0.73610E-03   -0.12721E-02 45960   0.265E-01    0.699E-01
DAV:   9    -0.386662724679E+03   -0.13273E-02   -0.10776E-02 44816   0.179E-01    0.802E-01
DAV:  10    -0.386662536128E+03    0.18855E-03   -0.35303E-03 44280   0.120E-01    0.622E-01
DAV:  11    -0.386662551738E+03   -0.15611E-04   -0.11962E-04 35312   0.274E-02    0.611E-01
DAV:  12    -0.386662696174E+03   -0.14444E-03   -0.25156E-04 29040   0.293E-02    0.636E-01
[...]
DAV:  14    -0.386731797476E+03    0.78398E-05   -0.44361E-05 26320   0.202E-02
  42 F= -.38673180E+03 E0= -.38671275E+03  d E =-.213799E-02  mag=    14.0000
       N       E                     dE             d eps       ncg     rms          rms(c)
DAV:   1    -0.386725819522E+03    0.59858E-02   -0.20755E+00 34336   0.364E+00    0.281E-01
DAV:   2    -0.386733042671E+03   -0.72231E-02   -0.72801E-02 33424   0.662E-01    0.702E-01
DAV:   3    -0.386732840809E+03    0.20186E-03   -0.13723E-02 45904   0.195E-01    0.614E-01
DAV:   4    -0.386732667998E+03    0.17281E-03   -0.95302E-03 46224   0.128E-01    0.567E-01
DAV:   5    -0.386732139594E+03    0.52840E-03   -0.21530E-03 46368   0.790E-02    0.203E-01
DAV:   6    -0.386732165142E+03   -0.25548E-04   -0.45958E-04 33928   0.425E-02    0.247E-01
DAV:   7    -0.386732018052E+03    0.14709E-03   -0.68834E-04 37776   0.505E-02    0.200E-01
DAV:   8    -0.386732001889E+03    0.16163E-04   -0.82500E-04 39008   0.547E-02    0.232E-01
DAV:   9    -0.386731997279E+03    0.46106E-05   -0.13179E-03 44384   0.762E-02    0.294E-01
DAV:  10    -0.386731926624E+03    0.70655E-04   -0.12547E-03 41800   0.711E-02    0.187E-01
DAV:  11    -0.386732009725E+03   -0.83101E-04   -0.42536E-04 34032   0.437E-02    0.167E-01
DAV:  12    -0.386732018317E+03   -0.85919E-05   -0.11984E-04 29680   0.299E-02    0.145E-01
DAV:  13    -0.386732027333E+03   -0.90165E-05   -0.10190E-04 29320   0.245E-02    0.134E-01
DAV:  14    -0.386732026758E+03    0.57529E-06   -0.12065E-04 33608   0.270E-02    0.902E-02
DAV:  15    -0.386732029437E+03   -0.26789E-05   -0.60376E-05 29192   0.213E-02
  43 F= -.38673203E+03 E0= -.38671296E+03  d E =-.236995E-02  mag=    14.0000
       N       E                     dE             d eps       ncg     rms          rms(c)
DAV:   1    -0.386721931794E+03    0.10095E-01   -0.31202E+00 34336   0.473E+00    0.303E-01
DAV:   2    -0.386734176569E+03   -0.12245E-01   -0.12322E-01 32848   0.841E-01    0.499E-01
DAV:   3    -0.386735533599E+03   -0.13570E-02   -0.22730E-02 47624   0.241E-01    0.955E-01
DAV:   4    -0.386734220797E+03    0.13128E-02   -0.14147E-02 44928   0.152E-01    0.533E-01
DAV:   5    -0.386733820230E+03    0.40057E-03   -0.25524E-03 47536   0.882E-02    0.192E-01
DAV:   6    -0.386733833336E+03   -0.13106E-04   -0.75277E-04 39432   0.545E-02    0.198E-01
DAV:   7    -0.386733840546E+03   -0.72096E-05   -0.11872E-03 42184   0.594E-02    0.249E-01
DAV:   8    -0.386733721339E+03    0.11921E-03   -0.74042E-04 43056   0.591E-02    0.132E-01
DAV:   9    -0.386733713141E+03    0.81985E-05   -0.63356E-04 36232   0.439E-02    0.120E-01
DAV:  10    -0.386733700886E+03    0.12254E-04   -0.21639E-04 29832   0.325E-02    0.955E-02
DAV:  11    -0.386733687625E+03    0.13261E-04   -0.67994E-05 28440   0.272E-02    0.582E-02
DAV:  12    -0.386733700220E+03   -0.12595E-04   -0.66648E-05 26720   0.187E-02    0.607E-02
DAV:  13    -0.386733700966E+03   -0.74574E-06   -0.34072E-05 24392   0.159E-02
  44 F= -.38673370E+03 E0= -.38671465E+03  d E =-.167153E-02  mag=    14.0000
       N       E                     dE             d eps       ncg     rms          rms(c)
DAV:   1    -0.386725399473E+03    0.83007E-02   -0.23001E+00 34336   0.406E+00    0.267E-01
DAV:   2    -0.386734385936E+03   -0.89865E-02   -0.90954E-02 33000   0.721E-01    0.403E-01
DAV:   3    -0.386735475226E+03   -0.10893E-02   -0.17808E-02 47704   0.197E-01    0.842E-01
DAV:   4    -0.386734405863E+03    0.10694E-02   -0.10342E-02 45176   0.127E-01    0.400E-01
DAV:   5    -0.386734195751E+03    0.21011E-03   -0.99420E-04 46184   0.696E-02    0.174E-01
DAV:   6    -0.386734184693E+03    0.11058E-04   -0.15619E-04 30816   0.282E-02    0.170E-01
DAV:   7    -0.386734148233E+03    0.36460E-04   -0.88834E-05 27608   0.228E-02    0.156E-01
DAV:   8    -0.386734125942E+03    0.22291E-04   -0.12372E-04 29112   0.281E-02    0.167E-01
DAV:   9    -0.386734124152E+03    0.17908E-05   -0.36792E-04 39792   0.543E-02    0.221E-01
DAV:  10    -0.386734079264E+03    0.44887E-04   -0.15619E-03 42312   0.726E-02    0.242E-01
DAV:  11    -0.386734087158E+03   -0.78938E-05   -0.13982E-03 38400   0.598E-02    0.204E-01
DAV:  12    -0.386734077143E+03    0.10015E-04   -0.24094E-04 30152   0.393E-02    0.129E-01
DAV:  13    -0.386734085408E+03   -0.82652E-05   -0.71682E-05 28944   0.244E-02
  45 F= -.38673409E+03 E0= -.38671506E+03  d E =-.205597E-02  mag=    14.0000
       N       E                     dE             d eps       ncg     rms          rms(c)
DAV:   1    -0.386726189883E+03    0.78873E-02   -0.18593E+00 34600   0.396E+00    0.315E-01
DAV:   2    -0.386737118446E+03   -0.10929E-01   -0.10279E-01 32592   0.753E-01    0.907E-01
DAV:   3    -0.386736284171E+03    0.83428E-03   -0.14954E-02 45464   0.250E-01    0.605E-01
DAV:   4    -0.386736275205E+03    0.89659E-05   -0.67857E-03 46728   0.128E-01    0.532E-01
DAV:   5    -0.386735836370E+03    0.43884E-03   -0.28271E-03 43576   0.830E-02    0.270E-01
DAV:   6    -0.386735824451E+03    0.11919E-04   -0.96138E-05 30736   0.204E-02    0.240E-01
DAV:   7    -0.386735826237E+03   -0.17859E-05   -0.67576E-06 21632   0.700E-03
  46 F= -.38673583E+03 E0= -.38671701E+03  d E =-.174083E-02  mag=    14.0000
       N       E                     dE             d eps       ncg     rms          rms(c)
DAV:   1    -0.386726775296E+03    0.90492E-02   -0.18779E+00 34488   0.398E+00    0.379E-01
DAV:   2    -0.386738073909E+03   -0.11299E-01   -0.11115E-01 33008   0.758E-01    0.117E+00
DAV:   3    -0.386736442559E+03    0.16313E-02   -0.29258E-02 43264   0.264E-01    0.698E-01
DAV:   4    -0.386736272154E+03    0.17041E-03   -0.76948E-03 47920   0.148E-01    0.517E-01
DAV:   5    -0.386735842546E+03    0.42961E-03   -0.40396E-03 45408   0.115E-01    0.392E-01
DAV:   6    -0.386735798650E+03    0.43896E-04   -0.37067E-03 43944   0.109E-01    0.380E-01
DAV:   7    -0.386736025448E+03   -0.22680E-03   -0.47393E-03 44664   0.125E-01    0.440E-01
DAV:   8    -0.386735891266E+03    0.13418E-03   -0.22617E-03 43664   0.101E-01    0.270E-01
DAV:   9    -0.386735923248E+03   -0.31982E-04   -0.23790E-04 34032   0.378E-02    0.243E-01
DAV:  10    -0.386735926732E+03   -0.34839E-05   -0.21830E-05 25832   0.127E-02
  47 F= -.38673593E+03 E0= -.38671710E+03  d E =-.184132E-02  mag=    14.0000
       N       E                     dE             d eps       ncg     rms          rms(c)
DAV:   1    -0.386735346401E+03    0.57685E-03   -0.12142E-01 34472   0.101E+00    0.254E-01
DAV:   2    -0.386737439499E+03   -0.20931E-02   -0.12785E-02 37816   0.241E-01    0.795E-01
DAV:   3    -0.386736586326E+03    0.85317E-03   -0.25260E-03 38360   0.101E-01    0.456E-01
DAV:   4    -0.386736766140E+03   -0.17981E-03   -0.25984E-03 43328   0.834E-02    0.559E-01
DAV:   5    -0.386736266439E+03    0.49970E-03   -0.19717E-03 42704   0.993E-02    0.399E-01
DAV:   6    -0.386736310641E+03   -0.44201E-04   -0.52849E-04 34576   0.370E-02    0.418E-01
DAV:   7    -0.386736314004E+03   -0.33629E-05   -0.18679E-05 25000   0.108E-02
  48 F= -.38673631E+03 E0= -.38671748E+03  d E =-.222860E-02  mag=    14.0000
       N       E                     dE             d eps       ncg     rms          rms(c)
DAV:   1    -0.386730896371E+03    0.54143E-02   -0.22595E+00 34248   0.400E+00    0.628E-01
DAV:   2    -0.386747702700E+03   -0.16806E-01   -0.12493E-01 36448   0.905E-01    0.208E+00
DAV:   3    -0.386738688303E+03    0.90144E-02   -0.49188E-02 43080   0.505E-01    0.983E-01
DAV:   4    -0.386738104510E+03    0.58379E-03   -0.10461E-02 43624   0.147E-01    0.658E-01
DAV:   5    -0.386737886710E+03    0.21780E-03   -0.11720E-03 41656   0.617E-02    0.603E-01
DAV:   6    -0.386737851478E+03    0.35232E-04   -0.50944E-05 29272   0.182E-02    0.601E-01
DAV:   7    -0.386737767395E+03    0.84082E-04   -0.46735E-05 26784   0.146E-02    0.595E-01
DAV:   8    -0.386738416861E+03   -0.64947E-03   -0.42531E-03 44040   0.129E-01    0.894E-01
DAV:   9    -0.386736848375E+03    0.15685E-02   -0.14769E-02 46072   0.263E-01    0.591E-01
DAV:  10    -0.386736678626E+03    0.16975E-03   -0.83148E-03 46424   0.223E-01    0.584E-01
DAV:  11    -0.386736738441E+03   -0.59815E-04   -0.37931E-03 45008   0.150E-01    0.491E-01
DAV:  12    -0.386736814635E+03   -0.76194E-04   -0.21267E-03 44320   0.103E-01    0.417E-01
DAV:  13    -0.386736806763E+03    0.78717E-05   -0.11330E-03 44016   0.817E-02    0.358E-01
DAV:  14    -0.386736901199E+03   -0.94435E-04   -0.14450E-03 41920   0.803E-02    0.288E-01
DAV:  15    -0.386736911940E+03   -0.10741E-04   -0.78565E-04 41008   0.643E-02    0.222E-01
DAV:  16    -0.386736907568E+03    0.43715E-05   -0.11107E-04 33464   0.289E-02    0.187E-01
DAV:  17    -0.386736909939E+03   -0.23703E-05   -0.62408E-05 28456   0.228E-02
  49 F= -.38673691E+03 E0= -.38671817E+03  d E =-.595935E-03  mag=    14.0000
       N       E                     dE             d eps       ncg     rms          rms(c)
DAV:   1    -0.386736054135E+03    0.85343E-03   -0.34440E-01 34304   0.156E+00    0.244E-01
DAV:   2    -0.386740021670E+03   -0.39675E-02   -0.24628E-02 38024   0.384E-01    0.115E+00
DAV:   3    -0.386737142279E+03    0.28794E-02   -0.13899E-02 42560   0.250E-01    0.432E-01
DAV:   4    -0.386737069235E+03    0.73044E-04   -0.32104E-03 43272   0.858E-02    0.240E-01
DAV:   5    -0.386737028415E+03    0.40820E-04   -0.84453E-04 37976   0.522E-02    0.204E-01
DAV:   6    -0.386736981557E+03    0.46858E-04   -0.20215E-04 28176   0.280E-02    0.150E-01
DAV:   7    -0.386736978745E+03    0.28126E-05   -0.15780E-05 22440   0.105E-02
  50 F= -.38673698E+03 E0= -.38671820E+03  d E =-.664741E-03  mag=    14.0000
       N       E                     dE             d eps       ncg     rms          rms(c)
DAV:   1    -0.386732053260E+03    0.49283E-02   -0.82941E-01 34696   0.287E+00    0.336E-01
DAV:   2    -0.386738955261E+03   -0.69020E-02   -0.72890E-02 32952   0.584E-01    0.794E-01
DAV:   3    -0.386738368529E+03    0.58673E-03   -0.19265E-02 45560   0.209E-01    0.582E-01
DAV:   4    -0.386738606942E+03   -0.23841E-03   -0.96704E-03 45288   0.143E-01    0.709E-01
DAV:   5    -0.386737726603E+03    0.88034E-03   -0.48233E-03 45448   0.113E-01    0.280E-01
DAV:   6    -0.386737958406E+03   -0.23180E-03   -0.25085E-03 44040   0.101E-01    0.412E-01
DAV:   7    -0.386737824725E+03    0.13368E-03   -0.46814E-03 44872   0.110E-01    0.354E-01
DAV:   8    -0.386737725206E+03    0.99519E-04   -0.23977E-03 43736   0.907E-02    0.234E-01
DAV:   9    -0.386737754424E+03   -0.29218E-04   -0.43760E-04 34008   0.496E-02    0.179E-01
DAV:  10    -0.386737761590E+03   -0.71664E-05   -0.84920E-05 27576   0.202E-02
  51 F= -.38673776E+03 E0= -.38671907E+03  d E =-.782846E-03  mag=    14.0000
       N       E                     dE             d eps       ncg     rms          rms(c)
DAV:   1    -0.386737547762E+03    0.20666E-03   -0.35459E-02 34760   0.594E-01    0.176E-01
DAV:   2    -0.386738125658E+03   -0.57790E-03   -0.39265E-03 34024   0.131E-01    0.331E-01
DAV:   3    -0.386738366419E+03   -0.24076E-03   -0.63335E-04 37080   0.463E-02    0.482E-01
DAV:   4    -0.386738059234E+03    0.30719E-03   -0.29126E-03 41664   0.767E-02    0.371E-01
DAV:   5    -0.386737948723E+03    0.11051E-03   -0.92164E-04 34744   0.462E-02    0.283E-01
DAV:   6    -0.386737997663E+03   -0.48940E-04   -0.77078E-05 27976   0.229E-02    0.310E-01
DAV:   7    -0.386737900759E+03    0.96904E-04   -0.65844E-04 40008   0.586E-02    0.235E-01
DAV:   8    -0.386737920711E+03   -0.19952E-04   -0.13777E-03 42912   0.782E-02    0.287E-01
DAV:   9    -0.386737793284E+03    0.12743E-03   -0.10041E-03 41376   0.607E-02    0.134E-01
DAV:  10    -0.386737787919E+03    0.53647E-05   -0.33572E-04 32816   0.407E-02    0.133E-01
DAV:  11    -0.386737760523E+03    0.27397E-04   -0.23787E-04 27832   0.268E-02    0.773E-02
DAV:  12    -0.386737758703E+03    0.18193E-05   -0.63040E-05 26440   0.214E-02
  52 F= -.38673776E+03 E0= -.38671903E+03  d E =-.779959E-03  mag=    14.0000
       N       E                     dE             d eps       ncg     rms          rms(c)
DAV:   1    -0.386736522718E+03    0.12378E-02   -0.92913E-01 34048   0.293E+00    0.508E-01
DAV:   2    -0.386740213661E+03   -0.36909E-02   -0.71781E-02 32984   0.648E-01    0.865E-01
DAV:   3    -0.386741348171E+03   -0.11345E-02   -0.35058E-02 45904   0.306E-01    0.124E+00
DAV:   4    -0.386740812465E+03    0.53571E-03   -0.33300E-02 45808   0.247E-01    0.115E+00
DAV:   5    -0.386738381989E+03    0.24305E-02   -0.16796E-02 45792   0.198E-01    0.302E-01
DAV:   6    -0.386738882855E+03   -0.50087E-03   -0.51280E-03 46384   0.129E-01    0.527E-01
DAV:   7    -0.386738310954E+03    0.57190E-03   -0.39652E-03 46080   0.116E-01    0.258E-01
DAV:   8    -0.386738328567E+03   -0.17613E-04   -0.11902E-03 45272   0.880E-02    0.260E-01
DAV:   9    -0.386738381541E+03   -0.52974E-04   -0.21341E-03 43240   0.840E-02    0.339E-01
DAV:  10    -0.386738355640E+03    0.25901E-04   -0.14661E-03 41824   0.742E-02    0.221E-01
DAV:  11    -0.386738330701E+03    0.24939E-04   -0.42894E-04 36240   0.590E-02    0.157E-01
DAV:  12    -0.386738376763E+03   -0.46062E-04   -0.16694E-04 31352   0.340E-02    0.149E-01
DAV:  13    -0.386738380046E+03   -0.32825E-05   -0.64499E-05 28624   0.235E-02
  53 F= -.38673838E+03 E0= -.38671965E+03  d E =-.621342E-03  mag=    14.0000
       N       E                     dE             d eps       ncg     rms          rms(c)
DAV:   1    -0.386738353555E+03    0.23208E-04   -0.15814E-02 34096   0.382E-01    0.131E-01
DAV:   2    -0.386738940897E+03   -0.58734E-03   -0.36295E-03 42848   0.127E-01    0.538E-01
DAV:   3    -0.386738467670E+03    0.47323E-03   -0.24900E-03 41976   0.841E-02    0.205E-01
DAV:   4    -0.386738502931E+03   -0.35261E-04   -0.29978E-05 25328   0.150E-02    0.217E-01
DAV:   5    -0.386738478447E+03    0.24484E-04   -0.21372E-04 27816   0.213E-02    0.183E-01
DAV:   6    -0.386738473903E+03    0.45438E-05   -0.20290E-05 21496   0.994E-03
  54 F= -.38673847E+03 E0= -.38671973E+03  d E =-.715199E-03  mag=    14.0000
       N       E                     dE             d eps       ncg     rms          rms(c)
DAV:   1    -0.386738417826E+03    0.60621E-04   -0.63040E-02 34064   0.763E-01    0.227E-01
DAV:   2    -0.386739524293E+03   -0.11065E-02   -0.83433E-03 40544   0.225E-01    0.691E-01
DAV:   3    -0.386738515788E+03    0.10085E-02   -0.63496E-03 42680   0.158E-01    0.318E-01
DAV:   4    -0.386738444291E+03    0.71498E-04   -0.11304E-03 40080   0.582E-02    0.249E-01
DAV:   5    -0.386738386395E+03    0.57895E-04   -0.42896E-04 30632   0.363E-02    0.220E-01
DAV:   6    -0.386738343556E+03    0.42839E-04   -0.35178E-04 28800   0.306E-02    0.216E-01
DAV:   7    -0.386738325532E+03    0.18024E-04   -0.42094E-04 29848   0.393E-02    0.238E-01
DAV:   8    -0.386738193764E+03    0.13177E-03   -0.12163E-03 45000   0.791E-02    0.273E-01
DAV:   9    -0.386738256360E+03   -0.62596E-04   -0.13842E-03 42896   0.825E-02    0.258E-01
DAV:  10    -0.386738318634E+03   -0.62274E-04   -0.92879E-04 38968   0.623E-02    0.210E-01
DAV:  11    -0.386738333388E+03   -0.14754E-04   -0.38379E-04 32112   0.420E-02    0.177E-01
DAV:  12    -0.386738327131E+03    0.62567E-05   -0.18035E-04 30568   0.314E-02    0.134E-01
DAV:  13    -0.386738338957E+03   -0.11826E-04   -0.16167E-04 36264   0.325E-02    0.910E-02
DAV:  14    -0.386738333910E+03    0.50477E-05   -0.73884E-05 28896   0.228E-02
  55 F= -.38673833E+03 E0= -.38671961E+03  d E =-.575206E-03  mag=    14.0000
       N       E                     dE             d eps       ncg     rms          rms(c)
DAV:   1    -0.386734218844E+03    0.41201E-02   -0.11015E+00 34072   0.300E+00    0.355E-01
DAV:   2    -0.386741324638E+03   -0.71058E-02   -0.70103E-02 33808   0.620E-01    0.114E+00
DAV:   3    -0.386739711129E+03    0.16135E-02   -0.28768E-02 44648   0.258E-01    0.720E-01
DAV:   4    -0.386739397521E+03    0.31361E-03   -0.78196E-03 46008   0.150E-01    0.499E-01
DAV:   5    -0.386738958808E+03    0.43871E-03   -0.29175E-03 45432   0.998E-02    0.291E-01
DAV:   6    -0.386738888169E+03    0.70638E-04   -0.75369E-04 43072   0.713E-02    0.259E-01
DAV:   7    -0.386738914010E+03   -0.25841E-04   -0.20060E-03 42600   0.728E-02    0.349E-01
DAV:   8    -0.386738692628E+03    0.22138E-03   -0.15270E-03 42592   0.795E-02    0.218E-01
DAV:   9    -0.386738958159E+03   -0.26553E-03   -0.17989E-03 43952   0.961E-02    0.372E-01
DAV:  10    -0.386738870402E+03    0.87757E-04   -0.26741E-03 42360   0.875E-02    0.278E-01
DAV:  11    -0.386738823542E+03    0.46861E-04   -0.11471E-03 37920   0.659E-02    0.191E-01
DAV:  12    -0.386738846159E+03   -0.22617E-04   -0.23757E-04 31648   0.413E-02    0.160E-01
DAV:  13    -0.386738872142E+03   -0.25983E-04   -0.16222E-04 31888   0.367E-02    0.175E-01
DAV:  14    -0.386738866243E+03    0.58995E-05   -0.60110E-05 29272   0.235E-02
  56 F= -.38673887E+03 E0= -.38672021E+03  d E =-.532333E-03  mag=    14.0000
       N       E                     dE             d eps       ncg     rms          rms(c)
DAV:   1    -0.386738863825E+03    0.83175E-05   -0.20894E-03 35304   0.131E-01    0.144E-01
DAV:   2    -0.386740189076E+03   -0.13253E-02   -0.66252E-03 45632   0.129E-01    0.892E-01
DAV:   3    -0.386738877177E+03    0.13119E-02   -0.75506E-03 44712   0.113E-01    0.243E-01
DAV:   4    -0.386738939849E+03   -0.62672E-04   -0.57705E-05 29328   0.197E-02    0.217E-01
DAV:   5    -0.386739034769E+03   -0.94920E-04   -0.58927E-04 32984   0.388E-02    0.317E-01
DAV:   6    -0.386738980485E+03    0.54284E-04   -0.37605E-04 30184   0.314E-02    0.285E-01
DAV:   7    -0.386739009334E+03   -0.28849E-04   -0.59358E-05 28016   0.201E-02    0.292E-01
DAV:   8    -0.386738970320E+03    0.39014E-04   -0.44085E-04 29824   0.390E-02    0.274E-01
DAV:   9    -0.386738912250E+03    0.58070E-04   -0.55509E-04 32864   0.432E-02    0.230E-01
DAV:  10    -0.386738869382E+03    0.42869E-04   -0.22212E-04 36592   0.412E-02    0.153E-01
DAV:  11    -0.386738833880E+03    0.35502E-04   -0.12233E-04 32152   0.331E-02    0.987E-02
DAV:  12    -0.386738834927E+03   -0.10470E-05   -0.33150E-05 26568   0.162E-02
  57 F= -.38673883E+03 E0= -.38672008E+03  d E =-.501017E-03  mag=    14.0000
       N       E                     dE             d eps       ncg     rms          rms(c)
DAV:   1    -0.386737692682E+03    0.11412E-02   -0.57795E-01 33920   0.217E+00    0.312E-01
DAV:   2    -0.386741305401E+03   -0.36127E-02   -0.37533E-02 34424   0.470E-01    0.972E-01
DAV:   3    -0.386739982525E+03    0.13229E-02   -0.15809E-02 43352   0.206E-01    0.532E-01
DAV:   4    -0.386739995250E+03   -0.12725E-04   -0.65465E-03 45464   0.115E-01    0.493E-01
DAV:   5    -0.386739527550E+03    0.46770E-03   -0.17916E-03 45152   0.783E-02    0.250E-01
DAV:   6    -0.386739498937E+03    0.28613E-04   -0.21925E-04 34824   0.430E-02    0.246E-01
DAV:   7    -0.386739406083E+03    0.92854E-04   -0.34025E-04 34184   0.441E-02    0.249E-01
DAV:   8    -0.386739376801E+03    0.29282E-04   -0.11843E-03 40520   0.638E-02    0.320E-01
DAV:   9    -0.386739489278E+03   -0.11248E-03   -0.25503E-03 44864   0.105E-01    0.409E-01
DAV:  10    -0.386739312903E+03    0.17638E-03   -0.22684E-03 43928   0.104E-01    0.273E-01
DAV:  11    -0.386739349665E+03   -0.36763E-04   -0.13753E-03 38304   0.685E-02    0.241E-01
DAV:  12    -0.386739390228E+03   -0.40562E-04   -0.71546E-04 38464   0.515E-02    0.192E-01
DAV:  13    -0.386739388350E+03    0.18776E-05   -0.13766E-04 32272   0.382E-02    0.165E-01
DAV:  14    -0.386739382708E+03    0.56419E-05   -0.11206E-04 34864   0.331E-02    0.119E-01
DAV:  15    -0.386739378007E+03    0.47007E-05   -0.10141E-04 30088   0.250E-02    0.927E-02
DAV:  16    -0.386739380388E+03   -0.23805E-05   -0.96620E-05 29144   0.198E-02
  58 F= -.38673938E+03 E0= -.38672073E+03  d E =-.545461E-03  mag=    14.0000
