       N       E                     dE             d eps       ncg     rms          rms(c)
DAV:   1     0.582615649317E+04    0.58262E+04   -0.21677E+05 28672   0.158E+03
DAV:   2     0.577875735589E+03   -0.52483E+04   -0.49142E+04 28912   0.474E+02
DAV:   3    -0.368794013455E+03   -0.94667E+03   -0.92816E+03 30240   0.206E+02
DAV:   4    -0.414448746802E+03   -0.45655E+02   -0.43676E+02 37224   0.490E+01
DAV:   5    -0.416380691618E+03   -0.19319E+01   -0.18947E+01 38336   0.946E+00    0.885E+01
DAV:   6    -0.309036032786E+03    0.10734E+03   -0.68774E+02 38688   0.804E+01    0.473E+01
DAV:   7    -0.335005563662E+03   -0.25970E+02   -0.68150E+02 38152   0.537E+01    0.393E+01
DAV:   8    -0.334853505276E+03    0.15206E+00   -0.79514E+01 37144   0.288E+01    0.472E+01
DAV:   9    -0.331452833361E+03    0.34007E+01   -0.22056E+02 36680   0.183E+01    0.379E+01
DAV:  10    -0.330203105629E+03    0.12497E+01   -0.65409E+00 38472   0.865E+00    0.346E+01
DAV:  11    -0.333112249856E+03   -0.29091E+01   -0.11547E+01 37472   0.128E+01    0.258E+01
DAV:  12    -0.339351221613E+03   -0.62390E+01   -0.11325E+01 39208   0.125E+01    0.317E+01
DAV:  13    -0.341285154161E+03   -0.19339E+01   -0.14225E+01 38016   0.947E+00    0.318E+01
DAV:  14    -0.340070351950E+03    0.12148E+01   -0.20111E+01 37040   0.924E+00    0.184E+01
DAV:  15    -0.340712879293E+03   -0.64253E+00   -0.21150E+00 38040   0.470E+00    0.190E+01
DAV:  16    -0.342714579710E+03   -0.20017E+01   -0.25886E+00 36960   0.545E+00    0.185E+01
DAV:  17    -0.343430500067E+03   -0.71592E+00   -0.18399E+00 35128   0.370E+00    0.141E+01
DAV:  18    -0.344177318080E+03   -0.74682E+00   -0.70469E-01 35688   0.258E+00    0.107E+01
DAV:  19    -0.344621772215E+03   -0.44445E+00   -0.37355E-01 36488   0.158E+00    0.117E+01
DAV:  20    -0.345716717652E+03   -0.10949E+01   -0.67818E-01 35304   0.214E+00    0.106E+01
DAV:  21    -0.345877078711E+03   -0.16036E+00   -0.13486E-01 32912   0.106E+00    0.856E+00
DAV:  22    -0.346066569229E+03   -0.18949E+00   -0.19991E-01 37448   0.126E+00    0.578E+00
DAV:  23    -0.346784009735E+03   -0.71744E+00   -0.41976E-01 35816   0.197E+00    0.896E+00
DAV:  24    -0.347262373967E+03   -0.47836E+00   -0.31191E-01 35224   0.176E+00    0.763E+00
DAV:  25    -0.347463124212E+03   -0.20075E+00   -0.33969E-01 36840   0.176E+00    0.367E+00
DAV:  26    -0.347666426987E+03   -0.20330E+00   -0.20556E-01 36496   0.150E+00    0.263E+00
DAV:  27    -0.347861948429E+03   -0.19552E+00   -0.14724E-01 32400   0.835E-01    0.447E+00
DAV:  28    -0.347854090973E+03    0.78575E-02   -0.69964E-02 35416   0.725E-01    0.205E+00
DAV:  29    -0.347942813480E+03   -0.88723E-01   -0.57776E-02 34360   0.672E-01    0.343E+00
DAV:  30    -0.347980279748E+03   -0.37466E-01   -0.51228E-02 34216   0.685E-01    0.163E+00
DAV:  31    -0.348009781817E+03   -0.29502E-01   -0.44416E-02 35256   0.565E-01    0.111E+00
DAV:  32    -0.348013741774E+03   -0.39600E-02   -0.77119E-03 31896   0.296E-01    0.956E-01
DAV:  33    -0.348017341566E+03   -0.35998E-02   -0.56239E-03 38280   0.160E-01    0.147E+00
DAV:  34    -0.348014690114E+03    0.26515E-02   -0.48868E-03 34376   0.186E-01    0.777E-01
DAV:  35    -0.348015226893E+03   -0.53678E-03   -0.46073E-03 32232   0.183E-01    0.510E-01
DAV:  36    -0.348015435922E+03   -0.20903E-03   -0.72099E-03 35976   0.190E-01    0.704E-01
DAV:  37    -0.348015561193E+03   -0.12527E-03   -0.16123E-03 32824   0.134E-01    0.805E-01
DAV:  38    -0.348014147285E+03    0.14139E-02   -0.15944E-03 37504   0.115E-01    0.362E-01
DAV:  39    -0.348014211200E+03   -0.63915E-04   -0.27761E-04 32024   0.501E-02    0.336E-01
DAV:  40    -0.348013912747E+03    0.29845E-03   -0.37235E-04 34648   0.540E-02    0.154E-01
DAV:  41    -0.348013807833E+03    0.10491E-03   -0.27693E-04 31208   0.456E-02    0.870E-02
DAV:  42    -0.348013825812E+03   -0.17978E-04   -0.57622E-05 26376   0.231E-02    0.121E-01
DAV:  43    -0.348013797218E+03    0.28594E-04   -0.43566E-05 23480   0.228E-02    0.118E-01
DAV:  44    -0.348013768272E+03    0.28945E-04   -0.33499E-05 22560   0.178E-02    0.785E-02
DAV:  45    -0.348013758447E+03    0.98256E-05   -0.25726E-05 18560   0.160E-02
   1 F= -.34801376E+03 E0= -.34799856E+03  d E =-.348014E+03  mag=     8.0104
       N       E                     dE             d eps       ncg     rms          rms(c)
DAV:   1    -0.348069820761E+03   -0.56052E-01   -0.38950E-02 31520   0.360E-01    0.401E-02
DAV:   2    -0.348069939306E+03   -0.11855E-03   -0.12592E-03 28432   0.660E-02    0.800E-02
DAV:   3    -0.348069932521E+03    0.67850E-05   -0.56692E-05 27968   0.235E-02    0.525E-02
DAV:   4    -0.348069927178E+03    0.53436E-05   -0.16224E-05 17520   0.142E-02
   2 F= -.34806993E+03 E0= -.34805473E+03  d E =-.561687E-01  mag=     8.0070
       N       E                     dE             d eps       ncg     rms          rms(c)
DAV:   1    -0.350160786041E+03   -0.20909E+01   -0.12954E+02 31336   0.208E+01    0.226E+00
DAV:   2    -0.350693453623E+03   -0.53267E+00   -0.57388E+00 29088   0.409E+00    0.324E+00
DAV:   3    -0.350700582853E+03   -0.71292E-02   -0.34441E-01 40824   0.144E+00    0.405E+00
DAV:   4    -0.350668316808E+03    0.32266E-01   -0.15990E-01 39064   0.925E-01    0.242E+00
DAV:   5    -0.350657013270E+03    0.11304E-01   -0.39427E-02 40104   0.690E-01    0.192E+00
DAV:   6    -0.350664885322E+03   -0.78721E-02   -0.50699E-02 39744   0.695E-01    0.337E+00
DAV:   7    -0.350642813675E+03    0.22072E-01   -0.84689E-02 39200   0.912E-01    0.177E+00
DAV:   8    -0.350641662423E+03    0.11513E-02   -0.59217E-02 38728   0.544E-01    0.132E+00
DAV:   9    -0.350638763477E+03    0.28989E-02   -0.18446E-02 39352   0.392E-01    0.765E-01
DAV:  10    -0.350637888409E+03    0.87507E-03   -0.63508E-03 37280   0.290E-01    0.698E-01
DAV:  11    -0.350637183918E+03    0.70449E-03   -0.69588E-03 39088   0.249E-01    0.454E-01
DAV:  12    -0.350637013250E+03    0.17067E-03   -0.23893E-03 38912   0.168E-01    0.282E-01
DAV:  13    -0.350637112045E+03   -0.98795E-04   -0.98363E-04 38504   0.128E-01    0.294E-01
DAV:  14    -0.350637195588E+03   -0.83543E-04   -0.86096E-04 37288   0.869E-02    0.313E-01
DAV:  15    -0.350637078310E+03    0.11728E-03   -0.36541E-04 33632   0.651E-02    0.137E-01
DAV:  16    -0.350637108496E+03   -0.30186E-04   -0.70642E-05 27112   0.364E-02    0.132E-01
DAV:  17    -0.350637095663E+03    0.12833E-04   -0.57315E-05 28144   0.338E-02    0.115E-01
DAV:  18    -0.350637050103E+03    0.45560E-04   -0.16133E-04 34960   0.466E-02    0.572E-02
DAV:  19    -0.350637055231E+03   -0.51281E-05   -0.58450E-05 25352   0.322E-02
   3 F= -.35063706E+03 E0= -.35062221E+03  d E =-.256713E+01  mag=     8.0007
       N       E                     dE             d eps       ncg     rms          rms(c)
DAV:   1    -0.350910324248E+03   -0.27327E+00   -0.37051E+02 31344   0.397E+01    0.484E+00
DAV:   2    -0.353803788110E+03   -0.28935E+01   -0.24801E+01 30832   0.880E+00    0.199E+01
DAV:   3    -0.353156619958E+03    0.64717E+00   -0.47141E+00 36656   0.398E+00    0.754E+00
DAV:   4    -0.353068835777E+03    0.87784E-01   -0.73055E-01 37272   0.205E+00    0.585E+00
DAV:   5    -0.353011623417E+03    0.57212E-01   -0.33481E-01 37992   0.154E+00    0.420E+00
DAV:   6    -0.353023952960E+03   -0.12330E-01   -0.17905E-01 39776   0.118E+00    0.410E+00
DAV:   7    -0.353009834771E+03    0.14118E-01   -0.18808E-01 39800   0.938E-01    0.306E+00
DAV:   8    -0.352993943669E+03    0.15891E-01   -0.70144E-02 38968   0.714E-01    0.219E+00
DAV:   9    -0.352996786232E+03   -0.28426E-02   -0.55353E-02 39432   0.815E-01    0.333E+00
DAV:  10    -0.352969773598E+03    0.27013E-01   -0.39591E-02 40568   0.783E-01    0.143E+00
DAV:  11    -0.352969142861E+03    0.63074E-03   -0.32194E-02 39344   0.685E-01    0.172E+00
DAV:  12    -0.352966870338E+03    0.22725E-02   -0.30821E-02 38520   0.571E-01    0.173E+00
DAV:  13    -0.352963849929E+03    0.30204E-02   -0.19491E-02 39376   0.394E-01    0.101E+00
DAV:  14    -0.352963353542E+03    0.49639E-03   -0.60816E-03 38320   0.299E-01    0.447E-01
DAV:  15    -0.352963888363E+03   -0.53482E-03   -0.31576E-03 38296   0.210E-01    0.536E-01
DAV:  16    -0.352963890088E+03   -0.17256E-05   -0.23025E-03 38872   0.173E-01    0.586E-01
DAV:  17    -0.352963330879E+03    0.55921E-03   -0.11442E-03 38848   0.135E-01    0.221E-01
DAV:  18    -0.352963504494E+03   -0.17361E-03   -0.34975E-04 37216   0.690E-02    0.159E-01
DAV:  19    -0.352963559901E+03   -0.55408E-04   -0.16846E-04 32184   0.534E-02    0.146E-01
DAV:  20    -0.352963565155E+03   -0.52539E-05   -0.81570E-05 28728   0.384E-02
   4 F= -.35296357E+03 E0= -.35294897E+03  d E =-.232651E+01  mag=     8.0001
       N       E                     dE             d eps       ncg     rms          rms(c)
DAV:   1    -0.352754517051E+03    0.20904E+00   -0.17248E+02 31472   0.312E+01    0.320E+00
DAV:   2    -0.353990138311E+03   -0.12356E+01   -0.10424E+01 29768   0.651E+00    0.158E+01
DAV:   3    -0.353679605958E+03    0.31053E+00   -0.28890E+00 38344   0.281E+00    0.442E+00
DAV:   4    -0.353714940239E+03   -0.35334E-01   -0.34021E-01 38016   0.146E+00    0.501E+00
DAV:   5    -0.353664454424E+03    0.50486E-01   -0.18534E-01 39128   0.114E+00    0.223E+00
DAV:   6    -0.353683829770E+03   -0.19375E-01   -0.93524E-02 39512   0.814E-01    0.298E+00
DAV:   7    -0.353673022061E+03    0.10808E-01   -0.83418E-02 39624   0.684E-01    0.175E+00
DAV:   8    -0.353672084592E+03    0.93747E-03   -0.14808E-02 39376   0.446E-01    0.137E+00
DAV:   9    -0.353673036202E+03   -0.95161E-03   -0.12654E-02 38960   0.407E-01    0.168E+00
DAV:  10    -0.353666689368E+03    0.63468E-02   -0.10740E-02 39568   0.407E-01    0.650E-01
DAV:  11    -0.353670408827E+03   -0.37195E-02   -0.16545E-02 39800   0.388E-01    0.150E+00
DAV:  12    -0.353664938101E+03    0.54707E-02   -0.11280E-02 38656   0.328E-01    0.551E-01
DAV:  13    -0.353665108269E+03   -0.17017E-03   -0.32376E-03 38552   0.226E-01    0.474E-01
DAV:  14    -0.353664888379E+03    0.21989E-03   -0.19295E-03 40064   0.177E-01    0.394E-01
DAV:  15    -0.353664912616E+03   -0.24237E-04   -0.17173E-03 38088   0.121E-01    0.409E-01
DAV:  16    -0.353664666357E+03    0.24626E-03   -0.93774E-04 38104   0.105E-01    0.206E-01
DAV:  17    -0.353664628115E+03    0.38243E-04   -0.38978E-04 39368   0.879E-02    0.146E-01
DAV:  18    -0.353664686463E+03   -0.58349E-04   -0.26824E-04 37704   0.566E-02    0.108E-01
DAV:  19    -0.353664718535E+03   -0.32072E-04   -0.13727E-04 34464   0.487E-02    0.878E-02
DAV:  20    -0.353664714579E+03    0.39559E-05   -0.69834E-05 25720   0.369E-02
   5 F= -.35366471E+03 E0= -.35364995E+03  d E =-.701149E+00  mag=     8.0000
       N       E                     dE             d eps       ncg     rms          rms(c)
DAV:   1    -0.352994026398E+03    0.67069E+00   -0.23828E+02 30264   0.365E+01    0.335E+00
DAV:   2    -0.354264933592E+03   -0.12709E+01   -0.11800E+01 30776   0.767E+00    0.114E+01
DAV:   3    -0.354127705952E+03    0.13723E+00   -0.20900E+00 38984   0.280E+00    0.590E+00
DAV:   4    -0.354080998605E+03    0.46707E-01   -0.26531E-01 39752   0.140E+00    0.382E+00
DAV:   5    -0.354078854401E+03    0.21442E-02   -0.14844E-01 39784   0.988E-01    0.385E+00
DAV:   6    -0.354077433424E+03    0.14210E-02   -0.12671E-01 39856   0.814E-01    0.335E+00
DAV:   7    -0.354068387674E+03    0.90458E-02   -0.91551E-02 38632   0.687E-01    0.290E+00
DAV:   8    -0.354063485516E+03    0.49022E-02   -0.25858E-02 40096   0.626E-01    0.282E+00
DAV:   9    -0.354053149353E+03    0.10336E-01   -0.45473E-02 40056   0.726E-01    0.229E+00
DAV:  10    -0.354048545178E+03    0.46042E-02   -0.25317E-02 39840   0.702E-01    0.149E+00
DAV:  11    -0.354054873934E+03   -0.63288E-02   -0.25963E-02 39976   0.628E-01    0.216E+00
DAV:  12    -0.354049221067E+03    0.56529E-02   -0.16865E-02 39856   0.517E-01    0.135E+00
DAV:  13    -0.354046794476E+03    0.24266E-02   -0.89089E-03 39240   0.385E-01    0.647E-01
DAV:  14    -0.354047510506E+03   -0.71603E-03   -0.25359E-03 37896   0.187E-01    0.542E-01
DAV:  15    -0.354047380062E+03    0.13044E-03   -0.13285E-03 39344   0.154E-01    0.444E-01
DAV:  16    -0.354047116892E+03    0.26317E-03   -0.10706E-03 39464   0.139E-01    0.287E-01
DAV:  17    -0.354047699615E+03   -0.58272E-03   -0.14861E-03 37976   0.116E-01    0.533E-01
DAV:  18    -0.354047315956E+03    0.38366E-03   -0.94185E-04 36400   0.932E-02    0.191E-01
DAV:  19    -0.354047450715E+03   -0.13476E-03   -0.16526E-04 32696   0.533E-02    0.173E-01
DAV:  20    -0.354047482507E+03   -0.31792E-04   -0.11589E-04 32928   0.456E-02    0.162E-01
DAV:  21    -0.354047461202E+03    0.21305E-04   -0.60077E-05 26448   0.291E-02    0.122E-01
DAV:  22    -0.354047458834E+03    0.23682E-05   -0.52160E-05 26272   0.245E-02
   6 F= -.35404746E+03 E0= -.35403245E+03  d E =-.382744E+00  mag=     8.0000
       N       E                     dE             d eps       ncg     rms          rms(c)
DAV:   1    -0.353188084073E+03    0.85938E+00   -0.20418E+02 31192   0.376E+01    0.328E+00
DAV:   2    -0.354293547190E+03   -0.11055E+01   -0.11223E+01 28408   0.755E+00    0.490E+00
DAV:   3    -0.354328668197E+03   -0.35121E-01   -0.79859E-01 39824   0.257E+00    0.646E+00
DAV:   4    -0.354240174845E+03    0.88493E-01   -0.40951E-01 40368   0.149E+00    0.310E+00
DAV:   5    -0.354238763557E+03    0.14113E-02   -0.95044E-02 39472   0.917E-01    0.268E+00
DAV:   6    -0.354230277590E+03    0.84860E-02   -0.45956E-02 39072   0.724E-01    0.210E+00
DAV:   7    -0.354227477685E+03    0.27999E-02   -0.30815E-02 39344   0.783E-01    0.221E+00
DAV:   8    -0.354220289783E+03    0.71879E-02   -0.46718E-02 38992   0.648E-01    0.152E+00
DAV:   9    -0.354218233339E+03    0.20564E-02   -0.38847E-02 38616   0.534E-01    0.112E+00
DAV:  10    -0.354216994129E+03    0.12392E-02   -0.86428E-03 39856   0.321E-01    0.533E-01
DAV:  11    -0.354217826457E+03   -0.83233E-03   -0.35480E-03 38720   0.229E-01    0.761E-01
DAV:  12    -0.354217282122E+03    0.54433E-03   -0.24124E-03 39696   0.178E-01    0.499E-01
DAV:  13    -0.354217066049E+03    0.21607E-03   -0.91196E-04 38968   0.136E-01    0.317E-01
DAV:  14    -0.354217535243E+03   -0.46919E-03   -0.18948E-03 40064   0.153E-01    0.568E-01
DAV:  15    -0.354217174034E+03    0.36121E-03   -0.15668E-03 39144   0.114E-01    0.353E-01
DAV:  16    -0.354217007002E+03    0.16703E-03   -0.62923E-04 38872   0.932E-02    0.171E-01
DAV:  17    -0.354217077639E+03   -0.70637E-04   -0.53443E-04 39352   0.858E-02    0.182E-01
DAV:  18    -0.354217039234E+03    0.38405E-04   -0.45407E-04 38176   0.799E-02    0.112E-01
DAV:  19    -0.354217061339E+03   -0.22105E-04   -0.82515E-05 31648   0.333E-02    0.106E-01
DAV:  20    -0.354217049761E+03    0.11578E-04   -0.29694E-05 22672   0.226E-02    0.816E-02
DAV:  21    -0.354217036313E+03    0.13448E-04   -0.36522E-05 23400   0.218E-02    0.528E-02
DAV:  22    -0.354217039065E+03   -0.27525E-05   -0.22790E-05 21304   0.216E-02
   7 F= -.35421704E+03 E0= -.35420175E+03  d E =-.169580E+00  mag=     8.0000
       N       E                     dE             d eps       ncg     rms          rms(c)
DAV:   1    -0.353841185041E+03    0.37585E+00   -0.13062E+02 31552   0.299E+01    0.232E+00
DAV:   2    -0.354395007009E+03   -0.55382E+00   -0.56426E+00 28360   0.554E+00    0.412E+00
DAV:   3    -0.354391486305E+03    0.35207E-02   -0.41268E-01 37512   0.183E+00    0.418E+00
DAV:   4    -0.354365589618E+03    0.25897E-01   -0.21587E-01 38512   0.107E+00    0.303E+00
DAV:   5    -0.354354354149E+03    0.11235E-01   -0.62697E-02 40008   0.739E-01    0.185E+00
DAV:   6    -0.354354201346E+03    0.15280E-03   -0.51961E-02 39040   0.577E-01    0.177E+00
DAV:   7    -0.354351841631E+03    0.23597E-02   -0.35192E-02 40160   0.640E-01    0.186E+00
DAV:   8    -0.354349485677E+03    0.23560E-02   -0.22260E-02 40088   0.568E-01    0.183E+00
DAV:   9    -0.354344897102E+03    0.45886E-02   -0.16073E-02 38752   0.464E-01    0.740E-01
DAV:  10    -0.354346137459E+03   -0.12404E-02   -0.57200E-03 39040   0.253E-01    0.702E-01
DAV:  11    -0.354345689095E+03    0.44836E-03   -0.28101E-03 38064   0.191E-01    0.481E-01
DAV:  12    -0.354345646804E+03    0.42290E-04   -0.11495E-03 40000   0.133E-01    0.286E-01
DAV:  13    -0.354345667060E+03   -0.20255E-04   -0.45874E-04 38800   0.893E-02    0.245E-01
DAV:  14    -0.354345928924E+03   -0.26186E-03   -0.85485E-04 38384   0.906E-02    0.454E-01
DAV:  15    -0.354345596733E+03    0.33219E-03   -0.79655E-04 38248   0.840E-02    0.204E-01
DAV:  16    -0.354345579623E+03    0.17111E-04   -0.29044E-04 36976   0.658E-02    0.117E-01
DAV:  17    -0.354345609683E+03   -0.30061E-04   -0.26713E-04 38240   0.647E-02    0.122E-01
DAV:  18    -0.354345591071E+03    0.18612E-04   -0.12287E-04 31568   0.448E-02    0.678E-02
DAV:  19    -0.354345592426E+03   -0.13546E-05   -0.24516E-05 21184   0.178E-02
   8 F= -.35434559E+03 E0= -.35433002E+03  d E =-.128553E+00  mag=     8.0000
       N       E                     dE             d eps       ncg     rms          rms(c)
DAV:   1    -0.353559997642E+03    0.78559E+00   -0.19256E+02 30096   0.377E+01    0.313E+00
DAV:   2    -0.354558561024E+03   -0.99856E+00   -0.99954E+00 28720   0.736E+00    0.639E+00
DAV:   3    -0.354519066186E+03    0.39495E-01   -0.74456E-01 37240   0.254E+00    0.526E+00
DAV:   4    -0.354481948851E+03    0.37117E-01   -0.36860E-01 39472   0.146E+00    0.403E+00
DAV:   5    -0.354462382630E+03    0.19566E-01   -0.10735E-01 39904   0.986E-01    0.274E+00
DAV:   6    -0.354457582560E+03    0.48001E-02   -0.84413E-02 38800   0.740E-01    0.218E+00
DAV:   7    -0.354459548251E+03   -0.19657E-02   -0.78557E-02 39368   0.888E-01    0.267E+00
DAV:   8    -0.354447975338E+03    0.11573E-01   -0.59601E-02 39872   0.765E-01    0.228E+00
DAV:   9    -0.354443303652E+03    0.46717E-02   -0.34159E-02 38728   0.609E-01    0.145E+00
DAV:  10    -0.354442461823E+03    0.84183E-03   -0.10552E-02 39984   0.428E-01    0.728E-01
DAV:  11    -0.354442489638E+03   -0.27815E-04   -0.39627E-03 39592   0.287E-01    0.621E-01
DAV:  12    -0.354443031828E+03   -0.54219E-03   -0.39810E-03 39760   0.198E-01    0.835E-01
DAV:  13    -0.354441970745E+03    0.10611E-02   -0.27086E-03 39736   0.175E-01    0.341E-01
DAV:  14    -0.354442113345E+03   -0.14260E-03   -0.13371E-03 39688   0.154E-01    0.342E-01
DAV:  15    -0.354442190669E+03   -0.77323E-04   -0.16845E-03 39648   0.139E-01    0.411E-01
DAV:  16    -0.354442128634E+03    0.62034E-04   -0.74709E-04 39064   0.105E-01    0.321E-01
DAV:  17    -0.354442038955E+03    0.89679E-04   -0.31146E-04 36264   0.733E-02    0.193E-01
DAV:  18    -0.354442019881E+03    0.19073E-04   -0.37311E-04 38768   0.687E-02    0.130E-01
DAV:  19    -0.354442032325E+03   -0.12444E-04   -0.13644E-04 34696   0.477E-02    0.108E-01
DAV:  20    -0.354442016495E+03    0.15831E-04   -0.69812E-05 24624   0.328E-02    0.673E-02
DAV:  21    -0.354442009497E+03    0.69976E-05   -0.30156E-05 22912   0.212E-02
   9 F= -.35444201E+03 E0= -.35442595E+03  d E =-.964171E-01  mag=     8.0000
       N       E                     dE             d eps       ncg     rms          rms(c)
DAV:   1    -0.350547650375E+03    0.38944E+01   -0.36182E+02 31232   0.530E+01    0.996E+00
DAV:   2    -0.353733545993E+03   -0.31859E+01   -0.34901E+01 28608   0.126E+01    0.135E+01
DAV:   3    -0.353666757519E+03    0.66788E-01   -0.22768E+00 36680   0.404E+00    0.114E+01
DAV:   4    -0.353671035290E+03   -0.42778E-02   -0.16064E+00 38640   0.291E+00    0.119E+01
DAV:   5    -0.353479264563E+03    0.19177E+00   -0.14160E+00 38912   0.295E+00    0.840E+00
DAV:   6    -0.354196846371E+03   -0.71758E+00   -0.19561E+00 39256   0.419E+00    0.200E+01
DAV:   7    -0.353759116209E+03    0.43773E+00   -0.15914E+00 37392   0.370E+00    0.132E+01
DAV:   8    -0.353487221064E+03    0.27190E+00   -0.13774E+00 37464   0.251E+00    0.826E+00
DAV:   9    -0.353411209769E+03    0.76011E-01   -0.27580E-01 38016   0.174E+00    0.496E+00
DAV:  10    -0.353403448428E+03    0.77613E-02   -0.19014E-01 38712   0.131E+00    0.337E+00
DAV:  11    -0.353397020018E+03    0.64284E-02   -0.51022E-02 39560   0.870E-01    0.196E+00
DAV:  12    -0.353395983503E+03    0.10365E-02   -0.15613E-02 36512   0.410E-01    0.148E+00
DAV:  13    -0.353396020921E+03   -0.37418E-04   -0.43324E-03 38536   0.240E-01    0.127E+00
DAV:  14    -0.353399378838E+03   -0.33579E-02   -0.65128E-03 39816   0.329E-01    0.166E+00
DAV:  15    -0.353399367466E+03    0.11372E-04   -0.97692E-03 40016   0.377E-01    0.167E+00
DAV:  16    -0.353395378954E+03    0.39885E-02   -0.75040E-03 39600   0.345E-01    0.919E-01
DAV:  17    -0.353394338665E+03    0.10403E-02   -0.42409E-03 38784   0.240E-01    0.649E-01
DAV:  18    -0.353394332271E+03    0.63947E-05   -0.42282E-03 38040   0.237E-01    0.628E-01
DAV:  19    -0.353393888047E+03    0.44422E-03   -0.18238E-03 37568   0.185E-01    0.381E-01
DAV:  20    -0.353393778045E+03    0.11000E-03   -0.10624E-03 38096   0.119E-01    0.243E-01
DAV:  21    -0.353393744653E+03    0.33392E-04   -0.41550E-04 36632   0.779E-02    0.171E-01
DAV:  22    -0.353393717126E+03    0.27528E-04   -0.20176E-04 36920   0.586E-02    0.133E-01
DAV:  23    -0.353393697800E+03    0.19326E-04   -0.14869E-04 35840   0.499E-02    0.871E-02
DAV:  24    -0.353393695676E+03    0.21244E-05   -0.75502E-05 29680   0.323E-02
  10 F= -.35339370E+03 E0= -.35337851E+03  d E =0.104831E+01  mag=     8.0000
       N       E                     dE             d eps       ncg     rms          rms(c)
DAV:   1    -0.353606056176E+03   -0.21236E+00   -0.12520E+02 32600   0.272E+01    0.791E+00
DAV:   2    -0.356350244917E+03   -0.27442E+01   -0.12826E+01 31152   0.847E+00    0.326E+01
DAV:   3    -0.354899533566E+03    0.14507E+01   -0.45412E+01 37456   0.553E+00    0.109E+01
DAV:   4    -0.354746708989E+03    0.15282E+00   -0.38231E-01 34264   0.132E+00    0.872E+00
DAV:   5    -0.354778997265E+03   -0.32288E-01   -0.19544E-01 35392   0.107E+00    0.889E+00
DAV:   6    -0.355248634548E+03   -0.46964E+00   -0.14825E+00 37296   0.321E+00    0.156E+01
DAV:   7    -0.354852003614E+03    0.39663E+00   -0.22881E+00 37920   0.372E+00    0.125E+01
DAV:   8    -0.354743056681E+03    0.10895E+00   -0.66911E-01 38136   0.301E+00    0.124E+01
DAV:   9    -0.354496745526E+03    0.24631E+00   -0.58675E-01 37304   0.195E+00    0.407E+00
DAV:  10    -0.354523029574E+03   -0.26284E-01   -0.63520E-02 35928   0.783E-01    0.366E+00
DAV:  11    -0.354528072360E+03   -0.50428E-02   -0.25947E-02 36520   0.481E-01    0.302E+00
DAV:  12    -0.354530800257E+03   -0.27279E-02   -0.21203E-03 32296   0.166E-01    0.293E+00
DAV:  13    -0.354514478655E+03    0.16322E-01   -0.90670E-03 39184   0.291E-01    0.332E+00
DAV:  14    -0.354504574966E+03    0.99037E-02   -0.42098E-03 39104   0.207E-01    0.320E+00
DAV:  15    -0.354528500961E+03   -0.23926E-01   -0.66665E-03 37968   0.306E-01    0.306E+00
DAV:  16    -0.354558370521E+03   -0.29870E-01   -0.28486E-02 38352   0.650E-01    0.239E+00
DAV:  17    -0.354577699048E+03   -0.19329E-01   -0.24235E-02 37752   0.630E-01    0.197E+00
DAV:  18    -0.354578343906E+03   -0.64486E-03   -0.90227E-03 35864   0.379E-01    0.188E+00
DAV:  19    -0.354572798758E+03    0.55451E-02   -0.23657E-03 37280   0.208E-01    0.162E+00
DAV:  20    -0.354566554412E+03    0.62443E-02   -0.33573E-03 40952   0.188E-01    0.121E+00
DAV:  21    -0.354564975194E+03    0.15792E-02   -0.18457E-03 39592   0.129E-01    0.970E-01
DAV:  22    -0.354564381463E+03    0.59373E-03   -0.73264E-04 38688   0.896E-02    0.801E-01
DAV:  23    -0.354565012093E+03   -0.63063E-03   -0.85882E-04 38992   0.950E-02    0.683E-01
DAV:  24    -0.354564177967E+03    0.83413E-03   -0.13989E-03 38400   0.103E-01    0.409E-01
DAV:  25    -0.354564068362E+03    0.10961E-03   -0.94091E-04 39000   0.919E-02    0.214E-01
DAV:  26    -0.354564141776E+03   -0.73413E-04   -0.18668E-04 29992   0.466E-02    0.190E-01
DAV:  27    -0.354564165971E+03   -0.24195E-04   -0.97002E-05 31072   0.296E-02    0.140E-01
DAV:  28    -0.354564204462E+03   -0.38492E-04   -0.15410E-04 33776   0.392E-02    0.688E-02
DAV:  29    -0.354564228415E+03   -0.23953E-04   -0.77888E-05 31192   0.244E-02    0.487E-02
DAV:  30    -0.354564228459E+03   -0.43670E-07   -0.15801E-05 19984   0.131E-02
  11 F= -.35456423E+03 E0= -.35454862E+03  d E =-.117053E+01  mag=     7.9824
       N       E                     dE             d eps       ncg     rms          rms(c)
DAV:   1    -0.354563159121E+03    0.10693E-02   -0.47341E+00 32176   0.708E+00    0.689E-01
DAV:   2    -0.354611634910E+03   -0.48476E-01   -0.53221E-01 28688   0.153E+00    0.154E+00
DAV:   3    -0.354607989773E+03    0.36451E-02   -0.27626E-02 37192   0.492E-01    0.760E-01
DAV:   4    -0.354609293450E+03   -0.13037E-02   -0.13517E-02 38448   0.275E-01    0.102E+00
DAV:   5    -0.354607538233E+03    0.17552E-02   -0.79418E-03 36360   0.232E-01    0.674E-01
DAV:   6    -0.354608035070E+03   -0.49684E-03   -0.65645E-03 38296   0.193E-01    0.841E-01
DAV:   7    -0.354608545084E+03   -0.51001E-03   -0.10804E-02 37960   0.277E-01    0.106E+00
DAV:   8    -0.354607083117E+03    0.14620E-02   -0.56427E-03 37656   0.259E-01    0.768E-01
DAV:   9    -0.354606440845E+03    0.64227E-03   -0.22260E-03 38112   0.174E-01    0.416E-01
DAV:  10    -0.354606187826E+03    0.25302E-03   -0.61235E-04 38680   0.116E-01    0.181E-01
DAV:  11    -0.354606201009E+03   -0.13182E-04   -0.31216E-04 37936   0.662E-02    0.161E-01
DAV:  12    -0.354606167817E+03    0.33192E-04   -0.11914E-04 29176   0.416E-02    0.789E-02
DAV:  13    -0.354606160841E+03    0.69760E-05   -0.27008E-05 23048   0.220E-02
  12 F= -.35460616E+03 E0= -.35459049E+03  d E =-.419324E-01  mag=     7.9964
       N       E                     dE             d eps       ncg     rms          rms(c)
DAV:   1    -0.354607877248E+03   -0.17094E-02   -0.21773E+00 30784   0.455E+00    0.381E-01
DAV:   2    -0.354624323695E+03   -0.16446E-01   -0.19175E-01 28528   0.913E-01    0.589E-01
DAV:   3    -0.354625752955E+03   -0.14293E-02   -0.15364E-02 37648   0.293E-01    0.954E-01
DAV:   4    -0.354624125644E+03    0.16273E-02   -0.61685E-03 37048   0.200E-01    0.450E-01
DAV:   5    -0.354624028632E+03    0.97011E-04   -0.17406E-03 37976   0.140E-01    0.387E-01
DAV:   6    -0.354623847929E+03    0.18070E-03   -0.99592E-04 37192   0.103E-01    0.279E-01
DAV:   7    -0.354623651062E+03    0.19687E-03   -0.10503E-03 36464   0.108E-01    0.223E-01
DAV:   8    -0.354623642114E+03    0.89483E-05   -0.71233E-04 38784   0.107E-01    0.268E-01
DAV:   9    -0.354623557658E+03    0.84455E-04   -0.48141E-04 36224   0.736E-02    0.191E-01
DAV:  10    -0.354623487400E+03    0.70259E-04   -0.16574E-04 30952   0.522E-02    0.435E-02
DAV:  11    -0.354623514967E+03   -0.27567E-04   -0.68640E-05 25688   0.288E-02    0.106E-01
DAV:  12    -0.354623496476E+03    0.18490E-04   -0.45052E-05 22320   0.255E-02    0.371E-02
DAV:  13    -0.354623498120E+03   -0.16436E-05   -0.11551E-05 17776   0.155E-02
  13 F= -.35462350E+03 E0= -.35460784E+03  d E =-.173373E-01  mag=     7.9992
       N       E                     dE             d eps       ncg     rms          rms(c)
DAV:   1    -0.354631187819E+03   -0.76913E-02   -0.21428E+00 29824   0.397E+00    0.353E-01
DAV:   2    -0.354641030563E+03   -0.98427E-02   -0.99306E-02 28464   0.806E-01    0.793E-01
DAV:   3    -0.354639909086E+03    0.11215E-02   -0.43522E-03 37392   0.216E-01    0.401E-01
DAV:   4    -0.354640491548E+03   -0.58246E-03   -0.28374E-03 39016   0.135E-01    0.652E-01
DAV:   5    -0.354639788870E+03    0.70268E-03   -0.21645E-03 38168   0.118E-01    0.352E-01
DAV:   6    -0.354640017713E+03   -0.22884E-03   -0.19514E-03 37976   0.107E-01    0.442E-01
DAV:   7    -0.354640066718E+03   -0.49006E-04   -0.22985E-03 37920   0.135E-01    0.483E-01
DAV:   8    -0.354639883842E+03    0.18288E-03   -0.13705E-03 39440   0.135E-01    0.400E-01
DAV:   9    -0.354639673221E+03    0.21062E-03   -0.76094E-04 38768   0.962E-02    0.223E-01
DAV:  10    -0.354639598871E+03    0.74350E-04   -0.26231E-04 32168   0.637E-02    0.970E-02
DAV:  11    -0.354639601051E+03   -0.21802E-05   -0.99306E-05 26488   0.385E-02
  14 F= -.35463960E+03 E0= -.35462403E+03  d E =-.161029E-01  mag=     7.9998
       N       E                     dE             d eps       ncg     rms          rms(c)
DAV:   1    -0.354593798524E+03    0.45800E-01   -0.24447E+01 31616   0.123E+01    0.112E+00
DAV:   2    -0.354681653450E+03   -0.87855E-01   -0.89891E-01 29360   0.237E+00    0.214E+00
DAV:   3    -0.354672364499E+03    0.92890E-02   -0.36362E-02 37520   0.657E-01    0.104E+00
DAV:   4    -0.354678253197E+03   -0.58887E-02   -0.32968E-02 40056   0.465E-01    0.193E+00
DAV:   5    -0.354670816433E+03    0.74368E-02   -0.23322E-02 38896   0.382E-01    0.844E-01
DAV:   6    -0.354675205804E+03   -0.43894E-02   -0.21355E-02 39432   0.351E-01    0.158E+00
DAV:   7    -0.354673762031E+03    0.14438E-02   -0.25909E-02 37176   0.397E-01    0.139E+00
DAV:   8    -0.354672607103E+03    0.11549E-02   -0.12000E-02 39040   0.363E-01    0.111E+00
DAV:   9    -0.354670408965E+03    0.21981E-02   -0.43330E-03 38272   0.253E-01    0.484E-01
DAV:  10    -0.354670103990E+03    0.30497E-03   -0.14601E-03 38600   0.152E-01    0.225E-01
DAV:  11    -0.354670195411E+03   -0.91421E-04   -0.49457E-04 38432   0.787E-02    0.175E-01
DAV:  12    -0.354670206369E+03   -0.10958E-04   -0.13034E-04 28824   0.394E-02    0.162E-01
DAV:  13    -0.354670179995E+03    0.26374E-04   -0.29757E-05 21288   0.237E-02    0.120E-01
DAV:  14    -0.354670163845E+03    0.16150E-04   -0.29234E-05 21256   0.213E-02    0.849E-02
DAV:  15    -0.354670162159E+03    0.16857E-05   -0.35950E-05 21232   0.236E-02
  15 F= -.35467016E+03 E0= -.35465487E+03  d E =-.305611E-01  mag=     8.0000
       N       E                     dE             d eps       ncg     rms          rms(c)
DAV:   1    -0.354088712889E+03    0.58145E+00   -0.14971E+02 30520   0.321E+01    0.266E+00
DAV:   2    -0.354746638145E+03   -0.65793E+00   -0.70297E+00 28328   0.593E+00    0.325E+00
DAV:   3    -0.354777080471E+03   -0.30442E-01   -0.40735E-01 38648   0.191E+00    0.520E+00
DAV:   4    -0.354732280182E+03    0.44800E-01   -0.23444E-01 40800   0.124E+00    0.301E+00
DAV:   5    -0.354725009173E+03    0.72710E-02   -0.84936E-02 39888   0.769E-01    0.199E+00
DAV:   6    -0.354734401083E+03   -0.93919E-02   -0.70216E-02 39648   0.717E-01    0.265E+00
DAV:   7    -0.354719569309E+03    0.14832E-01   -0.34300E-02 38024   0.701E-01    0.145E+00
DAV:   8    -0.354717821246E+03    0.17481E-02   -0.21574E-02 38808   0.423E-01    0.949E-01
DAV:   9    -0.354717692782E+03    0.12846E-03   -0.12599E-02 39192   0.333E-01    0.666E-01
DAV:  10    -0.354717211866E+03    0.48092E-03   -0.48553E-03 38648   0.234E-01    0.369E-01
DAV:  11    -0.354717692995E+03   -0.48113E-03   -0.15643E-03 39288   0.138E-01    0.564E-01
DAV:  12    -0.354717167227E+03    0.52577E-03   -0.95915E-04 37736   0.110E-01    0.229E-01
DAV:  13    -0.354717202205E+03   -0.34978E-04   -0.29999E-04 37904   0.680E-02    0.172E-01
DAV:  14    -0.354717188402E+03    0.13803E-04   -0.17650E-04 34112   0.535E-02    0.152E-01
DAV:  15    -0.354717312273E+03   -0.12387E-03   -0.37929E-04 32432   0.628E-02    0.315E-01
DAV:  16    -0.354717142888E+03    0.16938E-03   -0.37995E-04 32048   0.635E-02    0.130E-01
DAV:  17    -0.354717147446E+03   -0.45582E-05   -0.11729E-04 31288   0.506E-02    0.692E-02
DAV:  18    -0.354717157931E+03   -0.10485E-04   -0.68290E-05 26072   0.327E-02    0.543E-02
DAV:  19    -0.354717159258E+03   -0.13265E-05   -0.21656E-05 20592   0.200E-02
  16 F= -.35471716E+03 E0= -.35470215E+03  d E =-.469971E-01  mag=     8.0000
       N       E                     dE             d eps       ncg     rms          rms(c)
DAV:   1    -0.352382767978E+03    0.23344E+01   -0.18571E+02 32024   0.415E+01    0.629E+00
DAV:   2    -0.354364296559E+03   -0.19815E+01   -0.20683E+01 29128   0.949E+00    0.977E+00
DAV:   3    -0.354446389589E+03   -0.82093E-01   -0.40020E+00 37624   0.495E+00    0.144E+01
DAV:   4    -0.354146077977E+03    0.30031E+00   -0.23931E+00 38376   0.337E+00    0.724E+00
DAV:   5    -0.354137204652E+03    0.88733E-02   -0.44142E-01 39368   0.220E+00    0.759E+00
DAV:   6    -0.354029266025E+03    0.10794E+00   -0.28760E-01 37824   0.139E+00    0.235E+00
DAV:   7    -0.354050905976E+03   -0.21640E-01   -0.63133E-02 40032   0.938E-01    0.317E+00
DAV:   8    -0.354046804428E+03    0.41015E-02   -0.95019E-02 38656   0.901E-01    0.320E+00
DAV:   9    -0.354030288023E+03    0.16516E-01   -0.92831E-02 39384   0.855E-01    0.187E+00
DAV:  10    -0.354025978638E+03    0.43094E-02   -0.43885E-02 39320   0.739E-01    0.159E+00
DAV:  11    -0.354024560394E+03    0.14182E-02   -0.20118E-02 38184   0.538E-01    0.137E+00
DAV:  12    -0.354024230658E+03    0.32974E-03   -0.15048E-02 38840   0.396E-01    0.143E+00
DAV:  13    -0.354020646118E+03    0.35845E-02   -0.97182E-03 38768   0.350E-01    0.563E-01
DAV:  14    -0.354021511395E+03   -0.86528E-03   -0.30915E-03 38616   0.194E-01    0.613E-01
DAV:  15    -0.354021313424E+03    0.19797E-03   -0.27692E-03 38776   0.210E-01    0.626E-01
DAV:  16    -0.354020952035E+03    0.36139E-03   -0.24187E-03 38920   0.182E-01    0.454E-01
DAV:  17    -0.354021020236E+03   -0.68202E-04   -0.10065E-03 38600   0.112E-01    0.402E-01
DAV:  18    -0.354020656803E+03    0.36343E-03   -0.60566E-04 38856   0.103E-01    0.239E-01
DAV:  19    -0.354020647837E+03    0.89658E-05   -0.69164E-04 39200   0.108E-01    0.196E-01
DAV:  20    -0.354020601927E+03    0.45910E-04   -0.43544E-04 39176   0.866E-02    0.103E-01
DAV:  21    -0.354020666320E+03   -0.64392E-04   -0.16768E-04 31800   0.406E-02    0.933E-02
DAV:  22    -0.354020666868E+03   -0.54829E-06   -0.47719E-05 24272   0.278E-02
  17 F= -.35402067E+03 E0= -.35400544E+03  d E =0.696492E+00  mag=     7.9991
       N       E                     dE             d eps       ncg     rms          rms(c)
DAV:   1    -0.354222356977E+03   -0.20169E+00   -0.44946E+01 32408   0.202E+01    0.269E+00
DAV:   2    -0.354726940781E+03   -0.50458E+00   -0.55159E+00 29224   0.478E+00    0.593E+00
DAV:   3    -0.354670428525E+03    0.56512E-01   -0.28538E-01 37240   0.154E+00    0.371E+00
DAV:   4    -0.354680017684E+03   -0.95892E-02   -0.11858E-01 38176   0.861E-01    0.433E+00
DAV:   5    -0.354665873299E+03    0.14144E-01   -0.11809E-01 36240   0.792E-01    0.371E+00
DAV:   6    -0.354659664888E+03    0.62084E-02   -0.16013E-01 35744   0.848E-01    0.324E+00
DAV:   7    -0.354649097394E+03    0.10567E-01   -0.96015E-02 37592   0.103E+00    0.250E+00
DAV:   8    -0.354661013822E+03   -0.11916E-01   -0.84151E-02 38712   0.997E-01    0.357E+00
DAV:   9    -0.354637026913E+03    0.23987E-01   -0.59300E-02 39336   0.774E-01    0.777E-01
DAV:  10    -0.354643219504E+03   -0.61926E-02   -0.15218E-02 36792   0.427E-01    0.161E+00
DAV:  11    -0.354638194434E+03    0.50251E-02   -0.73642E-03 36816   0.335E-01    0.477E-01
DAV:  12    -0.354638633722E+03   -0.43929E-03   -0.18287E-03 38360   0.165E-01    0.372E-01
DAV:  13    -0.354638506688E+03    0.12703E-03   -0.96816E-04 38672   0.122E-01    0.289E-01
DAV:  14    -0.354638435353E+03    0.71335E-04   -0.38276E-04 34208   0.693E-02    0.234E-01
DAV:  15    -0.354638370882E+03    0.64471E-04   -0.21985E-04 32320   0.576E-02    0.175E-01
DAV:  16    -0.354638401943E+03   -0.31061E-04   -0.33056E-04 36056   0.666E-02    0.205E-01
DAV:  17    -0.354638342284E+03    0.59659E-04   -0.39383E-04 36968   0.802E-02    0.142E-01
DAV:  18    -0.354638353744E+03   -0.11460E-04   -0.14364E-04 31824   0.493E-02    0.146E-01
DAV:  19    -0.354638295487E+03    0.58257E-04   -0.98557E-05 30688   0.413E-02    0.796E-02
DAV:  20    -0.354638305877E+03   -0.10390E-04   -0.59794E-05 25256   0.295E-02    0.460E-02
DAV:  21    -0.354638316721E+03   -0.10844E-04   -0.32786E-05 22560   0.219E-02    0.440E-02
DAV:  22    -0.354638318124E+03   -0.14033E-05   -0.22554E-05 21616   0.204E-02
  18 F= -.35463832E+03 E0= -.35462303E+03  d E =-.617651E+00  mag=     7.9999
       N       E                     dE             d eps       ncg     rms          rms(c)
DAV:   1    -0.354605691191E+03    0.32626E-01   -0.14623E+01 32680   0.111E+01    0.110E+00
DAV:   2    -0.354748158968E+03   -0.14247E+00   -0.17129E+00 28520   0.227E+00    0.125E+00
DAV:   3    -0.354764883636E+03   -0.16725E-01   -0.12934E-01 38056   0.815E-01    0.284E+00
DAV:   4    -0.354747492439E+03    0.17391E-01   -0.65107E-02 37048   0.570E-01    0.112E+00
DAV:   5    -0.354746656017E+03    0.83642E-03   -0.96239E-03 37912   0.346E-01    0.767E-01
DAV:   6    -0.354747191931E+03   -0.53591E-03   -0.14214E-02 37648   0.322E-01    0.105E+00
DAV:   7    -0.354743774031E+03    0.34179E-02   -0.11208E-02 38448   0.334E-01    0.573E-01
DAV:   8    -0.354744460537E+03   -0.68651E-03   -0.53907E-03 37872   0.267E-01    0.788E-01
DAV:   9    -0.354743251139E+03    0.12094E-02   -0.25845E-03 38608   0.197E-01    0.269E-01
DAV:  10    -0.354743191427E+03    0.59712E-04   -0.77456E-04 38056   0.104E-01    0.133E-01
DAV:  11    -0.354743251022E+03   -0.59595E-04   -0.32751E-04 38112   0.643E-02    0.206E-01
DAV:  12    -0.354743179981E+03    0.71041E-04   -0.19588E-04 31232   0.534E-02    0.116E-01
DAV:  13    -0.354743161552E+03    0.18429E-04   -0.80299E-05 24952   0.430E-02    0.728E-02
DAV:  14    -0.354743170993E+03   -0.94408E-05   -0.68978E-05 23712   0.345E-02
  19 F= -.35474317E+03 E0= -.35472793E+03  d E =-.104853E+00  mag=     8.0000
       N       E                     dE             d eps       ncg     rms          rms(c)
DAV:   1    -0.354741544629E+03    0.16169E-02   -0.21556E+00 31448   0.359E+00    0.370E-01
DAV:   2    -0.354756334005E+03   -0.14789E-01   -0.15120E-01 28312   0.786E-01    0.991E-01
DAV:   3    -0.354754686372E+03    0.16476E-02   -0.82760E-03 37240   0.256E-01    0.535E-01
DAV:   4    -0.354754906040E+03   -0.21967E-03   -0.23822E-03 38384   0.130E-01    0.560E-01
DAV:   5    -0.354754741186E+03    0.16485E-03   -0.19089E-03 36912   0.108E-01    0.512E-01
DAV:   6    -0.354754563254E+03    0.17793E-03   -0.10509E-03 35648   0.100E-01    0.424E-01
DAV:   7    -0.354754934441E+03   -0.37119E-03   -0.18006E-03 37600   0.148E-01    0.639E-01
DAV:   8    -0.354754318687E+03    0.61575E-03   -0.28277E-03 38264   0.164E-01    0.353E-01
DAV:   9    -0.354754252437E+03    0.66250E-04   -0.12438E-03 38616   0.111E-01    0.255E-01
DAV:  10    -0.354754198895E+03    0.53542E-04   -0.38330E-04 35944   0.751E-02    0.179E-01
DAV:  11    -0.354754167063E+03    0.31832E-04   -0.14124E-04 29584   0.449E-02    0.698E-02
DAV:  12    -0.354754170105E+03   -0.30419E-05   -0.41588E-05 22096   0.244E-02
  20 F= -.35475417E+03 E0= -.35473894E+03  d E =-.109991E-01  mag=     8.0000
       N       E                     dE             d eps       ncg     rms          rms(c)
DAV:   1    -0.354758449383E+03   -0.42823E-02   -0.18076E+00 31512   0.298E+00    0.310E-01
DAV:   2    -0.354765798862E+03   -0.73495E-02   -0.66566E-02 31104   0.625E-01    0.912E-01
DAV:   3    -0.354764086068E+03    0.17128E-02   -0.32648E-03 35624   0.190E-01    0.514E-01
DAV:   4    -0.354764255159E+03   -0.16909E-03   -0.85986E-04 37624   0.959E-02    0.543E-01
DAV:   5    -0.354763858738E+03    0.39642E-03   -0.74281E-04 34320   0.837E-02    0.352E-01
DAV:   6    -0.354764235627E+03   -0.37689E-03   -0.15350E-03 36040   0.986E-02    0.525E-01
DAV:   7    -0.354764181180E+03    0.54447E-04   -0.24762E-03 36824   0.127E-01    0.493E-01
DAV:   8    -0.354764062638E+03    0.11854E-03   -0.20325E-03 35784   0.125E-01    0.410E-01
DAV:   9    -0.354763785393E+03    0.27725E-03   -0.10714E-03 37720   0.106E-01    0.194E-01
DAV:  10    -0.354763769795E+03    0.15597E-04   -0.23803E-04 33960   0.684E-02    0.122E-01
DAV:  11    -0.354763768371E+03    0.14240E-05   -0.56436E-05 24768   0.308E-02
  21 F= -.35476377E+03 E0= -.35474859E+03  d E =-.959827E-02  mag=     8.0000
       N       E                     dE             d eps       ncg     rms          rms(c)
DAV:   1    -0.354754506198E+03    0.92636E-02   -0.52050E+00 29648   0.502E+00    0.495E-01
DAV:   2    -0.354775177816E+03   -0.20672E-01   -0.19270E-01 30576   0.102E+00    0.139E+00
DAV:   3    -0.354771419920E+03    0.37579E-02   -0.86554E-03 35200   0.280E-01    0.809E-01
DAV:   4    -0.354771787190E+03   -0.36727E-03   -0.25173E-03 39384   0.147E-01    0.839E-01
DAV:   5    -0.354770886011E+03    0.90118E-03   -0.23640E-03 37000   0.137E-01    0.604E-01
DAV:   6    -0.354772324125E+03   -0.14381E-02   -0.24903E-03 38360   0.186E-01    0.102E+00
DAV:   7    -0.354771258985E+03    0.10651E-02   -0.44067E-03 36912   0.221E-01    0.679E-01
DAV:   8    -0.354771254735E+03    0.42492E-05   -0.45903E-03 37760   0.191E-01    0.685E-01
DAV:   9    -0.354770610314E+03    0.64442E-03   -0.33816E-03 37592   0.150E-01    0.377E-01
DAV:  10    -0.354770487641E+03    0.12267E-03   -0.87183E-04 38336   0.107E-01    0.179E-01
DAV:  11    -0.354770507263E+03   -0.19621E-04   -0.15118E-04 31488   0.460E-02    0.946E-02
DAV:  12    -0.354770513949E+03   -0.66867E-05   -0.32949E-05 21696   0.221E-02
  22 F= -.35477051E+03 E0= -.35475540E+03  d E =-.674558E-02  mag=     8.0000
       N       E                     dE             d eps       ncg     rms          rms(c)
DAV:   1    -0.354768836546E+03    0.16707E-02   -0.10829E+00 30336   0.297E+00    0.214E-01
DAV:   2    -0.354773618416E+03   -0.47819E-02   -0.47887E-02 28784   0.558E-01    0.444E-01
DAV:   3    -0.354773227244E+03    0.39117E-03   -0.21943E-03 37464   0.174E-01    0.175E-01
DAV:   4    -0.354773458053E+03   -0.23081E-03   -0.78618E-04 38728   0.920E-02    0.353E-01
DAV:   5    -0.354773200416E+03    0.25764E-03   -0.38394E-04 32536   0.704E-02    0.110E-01
DAV:   6    -0.354773314862E+03   -0.11445E-03   -0.35640E-04 26184   0.499E-02    0.239E-01
DAV:   7    -0.354773254165E+03    0.60698E-04   -0.51737E-04 32056   0.628E-02    0.176E-01
DAV:   8    -0.354773231863E+03    0.22302E-04   -0.30056E-04 33552   0.531E-02    0.147E-01
DAV:   9    -0.354773207885E+03    0.23978E-04   -0.85947E-05 24376   0.340E-02    0.876E-02
DAV:  10    -0.354773199292E+03    0.85923E-05   -0.41119E-05 20760   0.254E-02
  23 F= -.35477320E+03 E0= -.35475811E+03  d E =-.268534E-02  mag=     8.0000
       N       E                     dE             d eps       ncg     rms          rms(c)
DAV:   1    -0.354530132089E+03    0.24308E+00   -0.78746E+01 30488   0.239E+01    0.142E+00
DAV:   2    -0.354798270382E+03   -0.26814E+00   -0.27878E+00 28288   0.414E+00    0.180E+00
DAV:   3    -0.354827953231E+03   -0.29683E-01   -0.26957E-01 38984   0.118E+00    0.410E+00
DAV:   4    -0.354790621588E+03    0.37332E-01   -0.11299E-01 39416   0.759E-01    0.122E+00
DAV:   5    -0.354791719434E+03   -0.10978E-02   -0.12143E-02 39904   0.372E-01    0.905E-01
DAV:   6    -0.354791898205E+03   -0.17877E-03   -0.96451E-03 38936   0.341E-01    0.105E+00
DAV:   7    -0.354789295724E+03    0.26025E-02   -0.73642E-03 36472   0.350E-01    0.690E-01
DAV:   8    -0.354789305425E+03   -0.97014E-05   -0.37138E-03 39520   0.218E-01    0.631E-01
DAV:   9    -0.354788935881E+03    0.36954E-03   -0.19233E-03 38224   0.180E-01    0.361E-01
DAV:  10    -0.354788799281E+03    0.13660E-03   -0.87209E-04 38680   0.127E-01    0.186E-01
DAV:  11    -0.354788854701E+03   -0.55420E-04   -0.38964E-04 37112   0.683E-02    0.172E-01
DAV:  12    -0.354788834884E+03    0.19817E-04   -0.27064E-04 28688   0.463E-02    0.135E-01
DAV:  13    -0.354788823836E+03    0.11048E-04   -0.75512E-05 23768   0.333E-02    0.118E-01
DAV:  14    -0.354788871469E+03   -0.47633E-04   -0.17912E-04 26640   0.431E-02    0.210E-01
DAV:  15    -0.354788785388E+03    0.86082E-04   -0.19295E-04 27808   0.483E-02    0.774E-02
DAV:  16    -0.354788795658E+03   -0.10270E-04   -0.66312E-05 24760   0.361E-02    0.597E-02
DAV:  17    -0.354788793501E+03    0.21572E-05   -0.31595E-05 21696   0.260E-02
  24 F= -.35478879E+03 E0= -.35477367E+03  d E =-.155942E-01  mag=     8.0000
       N       E                     dE             d eps       ncg     rms          rms(c)
DAV:   1    -0.353018035195E+03    0.17708E+01   -0.15524E+02 32320   0.362E+01    0.496E+00
DAV:   2    -0.354334464762E+03   -0.13164E+01   -0.14937E+01 28544   0.798E+00    0.777E+00
DAV:   3    -0.354407304257E+03   -0.72839E-01   -0.18380E+00 37288   0.383E+00    0.105E+01
DAV:   4    -0.354261858938E+03    0.14545E+00   -0.10104E+00 38184   0.251E+00    0.669E+00
DAV:   5    -0.354213624156E+03    0.48235E-01   -0.45823E-01 38344   0.178E+00    0.524E+00
DAV:   6    -0.354169001827E+03    0.44622E-01   -0.21740E-01 39304   0.123E+00    0.240E+00
DAV:   7    -0.354187730655E+03   -0.18729E-01   -0.92890E-02 37992   0.111E+00    0.429E+00
DAV:   8    -0.354155648234E+03    0.32082E-01   -0.11568E-01 37800   0.100E+00    0.226E+00
DAV:   9    -0.354147945278E+03    0.77030E-02   -0.29600E-02 38432   0.754E-01    0.128E+00
DAV:  10    -0.354148680133E+03   -0.73485E-03   -0.14335E-02 39432   0.480E-01    0.136E+00
DAV:  11    -0.354145613650E+03    0.30665E-02   -0.10088E-02 38360   0.359E-01    0.735E-01
DAV:  12    -0.354145598625E+03    0.15025E-04   -0.51628E-03 39072   0.247E-01    0.712E-01
DAV:  13    -0.354144936002E+03    0.66262E-03   -0.59380E-03 39152   0.243E-01    0.648E-01
DAV:  14    -0.354145271464E+03   -0.33546E-03   -0.64891E-03 38680   0.243E-01    0.878E-01
DAV:  15    -0.354143740428E+03    0.15310E-02   -0.37204E-03 38816   0.234E-01    0.364E-01
DAV:  16    -0.354143855536E+03   -0.11511E-03   -0.11050E-03 39024   0.150E-01    0.268E-01
DAV:  17    -0.354143854432E+03    0.11046E-05   -0.69160E-04 38800   0.993E-02    0.183E-01
DAV:  18    -0.354143887301E+03   -0.32869E-04   -0.26722E-04 37872   0.729E-02    0.147E-01
DAV:  19    -0.354143864145E+03    0.23156E-04   -0.16218E-04 33904   0.505E-02    0.869E-02
DAV:  20    -0.354143843214E+03    0.20931E-04   -0.89224E-05 29944   0.319E-02    0.704E-02
DAV:  21    -0.354143818761E+03    0.24452E-04   -0.45080E-05 24472   0.291E-02    0.568E-02
DAV:  22    -0.354143798173E+03    0.20588E-04   -0.37635E-05 22936   0.254E-02    0.346E-02
DAV:  23    -0.354143788028E+03    0.10145E-04   -0.21789E-05 19016   0.154E-02    0.267E-02
DAV:  24    -0.354143782268E+03    0.57602E-05   -0.12047E-05 16336   0.116E-02
  25 F= -.35414378E+03 E0= -.35412850E+03  d E =0.645011E+00  mag=     8.0000
       N       E                     dE             d eps       ncg     rms          rms(c)
DAV:   1    -0.354380280108E+03   -0.23649E+00   -0.32281E+01 32792   0.176E+01    0.208E+00
DAV:   2    -0.354723314400E+03   -0.34303E+00   -0.39513E+00 28752   0.419E+00    0.535E+00
DAV:   3    -0.354689334490E+03    0.33980E-01   -0.24026E-01 37440   0.136E+00    0.330E+00
DAV:   4    -0.354686385288E+03    0.29492E-02   -0.81498E-02 38168   0.625E-01    0.297E+00
DAV:   5    -0.354680815513E+03    0.55698E-02   -0.21970E-02 36608   0.448E-01    0.261E+00
DAV:   6    -0.354689504704E+03   -0.86892E-02   -0.27222E-02 37960   0.640E-01    0.345E+00
DAV:   7    -0.354682925690E+03    0.65790E-02   -0.63562E-02 38760   0.100E+00    0.304E+00
DAV:   8    -0.354666933772E+03    0.15992E-01   -0.66406E-02 38040   0.858E-01    0.159E+00
DAV:   9    -0.354665985085E+03    0.94869E-03   -0.29698E-02 38872   0.524E-01    0.126E+00
DAV:  10    -0.354664064759E+03    0.19203E-02   -0.10760E-02 38304   0.331E-01    0.608E-01
DAV:  11    -0.354663659940E+03    0.40482E-03   -0.21426E-03 38352   0.214E-01    0.266E-01
DAV:  12    -0.354663859327E+03   -0.19939E-03   -0.10087E-03 37768   0.110E-01    0.320E-01
DAV:  13    -0.354663737412E+03    0.12191E-03   -0.72652E-04 36176   0.877E-02    0.224E-01
DAV:  14    -0.354663702419E+03    0.34994E-04   -0.33848E-04 34440   0.731E-02    0.183E-01
DAV:  15    -0.354663794577E+03   -0.92159E-04   -0.47350E-04 37088   0.753E-02    0.302E-01
DAV:  16    -0.354663591101E+03    0.20348E-03   -0.39450E-04 33104   0.654E-02    0.116E-01
DAV:  17    -0.354663565999E+03    0.25102E-04   -0.13480E-04 32416   0.455E-02    0.736E-02
DAV:  18    -0.354663577420E+03   -0.11421E-04   -0.87003E-05 28664   0.405E-02    0.776E-02
DAV:  19    -0.354663571019E+03    0.64010E-05   -0.54624E-05 24048   0.344E-02
  26 F= -.35466357E+03 E0= -.35464826E+03  d E =-.519789E+00  mag=     8.0000
       N       E                     dE             d eps       ncg     rms          rms(c)
DAV:   1    -0.354710595651E+03   -0.47018E-01   -0.35767E+00 32864   0.573E+00    0.575E-01
DAV:   2    -0.354743816295E+03   -0.33221E-01   -0.40781E-01 28368   0.121E+00    0.103E+00
DAV:   3    -0.354745835594E+03   -0.20193E-02   -0.37614E-02 36496   0.472E-01    0.133E+00
DAV:   4    -0.354742920505E+03    0.29151E-02   -0.16066E-02 38216   0.291E-01    0.681E-01
DAV:   5    -0.354742475086E+03    0.44542E-03   -0.45892E-03 38240   0.210E-01    0.548E-01
DAV:   6    -0.354742135058E+03    0.34003E-03   -0.44765E-03 38440   0.193E-01    0.486E-01
DAV:   7    -0.354741872909E+03    0.26215E-03   -0.44370E-03 38344   0.195E-01    0.616E-01
DAV:   8    -0.354741236753E+03    0.63616E-03   -0.18611E-03 38280   0.162E-01    0.343E-01
DAV:   9    -0.354741174574E+03    0.62179E-04   -0.70400E-04 38336   0.106E-01    0.207E-01
DAV:  10    -0.354741081127E+03    0.93447E-04   -0.29814E-04 33424   0.668E-02    0.786E-02
DAV:  11    -0.354741104979E+03   -0.23852E-04   -0.10985E-04 26896   0.387E-02    0.121E-01
DAV:  12    -0.354741076251E+03    0.28728E-04   -0.70514E-05 23376   0.328E-02    0.656E-02
DAV:  13    -0.354741070486E+03    0.57655E-05   -0.21204E-05 21432   0.211E-02
  27 F= -.35474107E+03 E0= -.35472584E+03  d E =-.774995E-01  mag=     8.0000
       N       E                     dE             d eps       ncg     rms          rms(c)
DAV:   1    -0.354707808460E+03    0.33268E-01   -0.10448E+01 32176   0.892E+00    0.851E-01
DAV:   2    -0.354790580244E+03   -0.82772E-01   -0.98185E-01 28384   0.187E+00    0.168E+00
DAV:   3    -0.354793626909E+03   -0.30467E-02   -0.99741E-02 35336   0.715E-01    0.191E+00
DAV:   4    -0.354787780161E+03    0.58467E-02   -0.27700E-02 36616   0.391E-01    0.106E+00
DAV:   5    -0.354786573441E+03    0.12067E-02   -0.10597E-02 36872   0.302E-01    0.757E-01
DAV:   6    -0.354786049229E+03    0.52421E-03   -0.67670E-03 38584   0.294E-01    0.761E-01
DAV:   7    -0.354785722247E+03    0.32698E-03   -0.77631E-03 37624   0.298E-01    0.102E+00
DAV:   8    -0.354783847777E+03    0.18745E-02   -0.59285E-03 36984   0.271E-01    0.500E-01
DAV:   9    -0.354783664868E+03    0.18291E-03   -0.23696E-03 38856   0.181E-01    0.352E-01
DAV:  10    -0.354783530005E+03    0.13486E-03   -0.94015E-04 37920   0.120E-01    0.258E-01
DAV:  11    -0.354783450909E+03    0.79096E-04   -0.34967E-04 37600   0.761E-02    0.134E-01
DAV:  12    -0.354783455769E+03   -0.48598E-05   -0.17041E-04 31752   0.536E-02    0.131E-01
DAV:  13    -0.354783438033E+03    0.17735E-04   -0.10902E-04 26664   0.426E-02    0.114E-01
DAV:  14    -0.354783421463E+03    0.16570E-04   -0.70664E-05 21992   0.304E-02    0.679E-02
DAV:  15    -0.354783413579E+03    0.78846E-05   -0.44945E-05 23264   0.244E-02
  28 F= -.35478341E+03 E0= -.35476823E+03  d E =-.423431E-01  mag=     8.0000
       N       E                     dE             d eps       ncg     rms          rms(c)
DAV:   1    -0.354784204118E+03   -0.78265E-03   -0.15853E+00 30576   0.239E+00    0.284E-01
DAV:   2    -0.354790714574E+03   -0.65105E-02   -0.60261E-02 30304   0.524E-01    0.838E-01
DAV:   3    -0.354789450063E+03    0.12645E-02   -0.30719E-03 36504   0.160E-01    0.505E-01
DAV:   4    -0.354789511488E+03   -0.61425E-04   -0.53028E-04 34880   0.653E-02    0.497E-01
DAV:   5    -0.354789414856E+03    0.96632E-04   -0.64483E-04 30920   0.607E-02    0.456E-01
DAV:   6    -0.354789349848E+03    0.65008E-04   -0.58424E-04 31384   0.672E-02    0.411E-01
DAV:   7    -0.354789716094E+03   -0.36625E-03   -0.13058E-03 37264   0.118E-01    0.593E-01
DAV:   8    -0.354789236878E+03    0.47922E-03   -0.22545E-03 37472   0.136E-01    0.325E-01
DAV:   9    -0.354789139966E+03    0.96912E-04   -0.94368E-04 37920   0.997E-02    0.214E-01
DAV:  10    -0.354789113263E+03    0.26703E-04   -0.30163E-04 33584   0.663E-02    0.152E-01
DAV:  11    -0.354789094403E+03    0.18860E-04   -0.90486E-05 24840   0.407E-02    0.674E-02
DAV:  12    -0.354789098488E+03   -0.40854E-05   -0.28401E-05 20440   0.201E-02
  29 F= -.35478910E+03 E0= -.35477387E+03  d E =-.568491E-02  mag=     8.0000
       N       E                     dE             d eps       ncg     rms          rms(c)
DAV:   1    -0.354783406534E+03    0.56879E-02   -0.61851E+00 31024   0.496E+00    0.576E-01
DAV:   2    -0.354806461254E+03   -0.23055E-01   -0.20050E-01 31688   0.106E+00    0.177E+00
DAV:   3    -0.354801024164E+03    0.54371E-02   -0.10620E-02 35664   0.301E-01    0.110E+00
DAV:   4    -0.354801233682E+03   -0.20952E-03   -0.31110E-03 38320   0.136E-01    0.113E+00
DAV:   5    -0.354800042041E+03    0.11916E-02   -0.27340E-03 37264   0.132E-01    0.876E-01
DAV:   6    -0.354799974919E+03    0.67123E-04   -0.22607E-03 37232   0.150E-01    0.809E-01
DAV:   7    -0.354801337686E+03   -0.13628E-02   -0.33724E-03 38048   0.224E-01    0.112E+00
DAV:   8    -0.354800032381E+03    0.13053E-02   -0.69928E-03 37640   0.264E-01    0.723E-01
DAV:   9    -0.354799297287E+03    0.73509E-03   -0.41999E-03 38352   0.206E-01    0.388E-01
DAV:  10    -0.354799225412E+03    0.71875E-04   -0.11900E-03 38464   0.136E-01    0.259E-01
DAV:  11    -0.354799199172E+03    0.26240E-04   -0.34457E-04 34120   0.702E-02    0.120E-01
DAV:  12    -0.354799215847E+03   -0.16675E-04   -0.69893E-05 23968   0.342E-02    0.115E-01
DAV:  13    -0.354799205916E+03    0.99313E-05   -0.20975E-05 20536   0.195E-02
  30 F= -.35479921E+03 E0= -.35478402E+03  d E =-.101074E-01  mag=     8.0000
       N       E                     dE             d eps       ncg     rms          rms(c)
DAV:   1    -0.354801006636E+03   -0.17908E-02   -0.27392E-01 31664   0.155E+00    0.140E-01
DAV:   2    -0.354802611049E+03   -0.16044E-02   -0.16565E-02 28336   0.314E-01    0.390E-01
DAV:   3    -0.354802451193E+03    0.15986E-03   -0.19863E-03 36296   0.128E-01    0.254E-01
DAV:   4    -0.354802414105E+03    0.37088E-04   -0.50327E-04 33584   0.622E-02    0.186E-01
DAV:   5    -0.354802368931E+03    0.45174E-04   -0.14548E-04 24008   0.384E-02    0.113E-01
DAV:   6    -0.354802362713E+03    0.62179E-05   -0.48264E-05 22872   0.268E-02
  31 F= -.35480236E+03 E0= -.35478722E+03  d E =-.315680E-02  mag=     8.0000
       N       E                     dE             d eps       ncg     rms          rms(c)
DAV:   1    -0.354804202025E+03   -0.18331E-02   -0.40161E-01 31304   0.177E+00    0.248E-01
DAV:   2    -0.354810427117E+03   -0.62251E-02   -0.28529E-02 33280   0.498E-01    0.157E+00
DAV:   3    -0.354804996101E+03    0.54310E-02   -0.10534E-02 36648   0.335E-01    0.288E-01
DAV:   4    -0.354805537475E+03   -0.54137E-03   -0.87262E-04 37112   0.880E-02    0.186E-01
DAV:   5    -0.354805580884E+03   -0.43409E-04   -0.41707E-04 31776   0.599E-02    0.165E-01
DAV:   6    -0.354805557114E+03    0.23770E-04   -0.22886E-04 27072   0.467E-02    0.147E-01
DAV:   7    -0.354805535208E+03    0.21906E-04   -0.12046E-04 26408   0.399E-02    0.111E-01
DAV:   8    -0.354805551272E+03   -0.16064E-04   -0.17885E-04 30480   0.485E-02    0.154E-01
DAV:   9    -0.354805529282E+03    0.21990E-04   -0.17243E-04 32120   0.497E-02    0.129E-01
DAV:  10    -0.354805501285E+03    0.27997E-04   -0.12996E-04 21776   0.340E-02    0.622E-02
DAV:  11    -0.354805498142E+03    0.31428E-05   -0.18836E-05 18744   0.203E-02
  32 F= -.35480550E+03 E0= -.35479033E+03  d E =-.313543E-02  mag=     8.0000
       N       E                     dE             d eps       ncg     rms          rms(c)
DAV:   1    -0.354805429533E+03    0.71752E-04   -0.29870E+00 30784   0.438E+00    0.266E-01
DAV:   2    -0.354814454114E+03   -0.90246E-02   -0.92475E-02 28320   0.746E-01    0.403E-01
DAV:   3    -0.354814899166E+03   -0.44505E-03   -0.47766E-03 41320   0.213E-01    0.613E-01
DAV:   4    -0.354814252741E+03    0.64643E-03   -0.25350E-03 38720   0.133E-01    0.317E-01
DAV:   5    -0.354814160016E+03    0.92725E-04   -0.93340E-04 38344   0.822E-02    0.196E-01
DAV:   6    -0.354814149492E+03    0.10524E-04   -0.35610E-04 33584   0.646E-02    0.183E-01
DAV:   7    -0.354814177384E+03   -0.27892E-04   -0.41999E-04 37848   0.706E-02    0.246E-01
DAV:   8    -0.354814054463E+03    0.12292E-03   -0.44895E-04 37680   0.625E-02    0.104E-01
DAV:   9    -0.354814046372E+03    0.80906E-05   -0.10732E-04 26480   0.364E-02    0.608E-02
DAV:  10    -0.354814053864E+03   -0.74920E-05   -0.36728E-05 22320   0.256E-02
  33 F= -.35481405E+03 E0= -.35479884E+03  d E =-.855572E-02  mag=     8.0000
       N       E                     dE             d eps       ncg     rms          rms(c)
DAV:   1    -0.354597522659E+03    0.21652E+00   -0.74400E+01 30208   0.225E+01    0.131E+00
DAV:   2    -0.354841672049E+03   -0.24415E+00   -0.25249E+00 28288   0.389E+00    0.197E+00
DAV:   3    -0.354852403179E+03   -0.10731E-01   -0.11793E-01 39488   0.109E+00    0.294E+00
DAV:   4    -0.354834523783E+03    0.17879E-01   -0.49354E-02 40136   0.659E-01    0.125E+00
DAV:   5    -0.354834433323E+03    0.90460E-04   -0.20836E-02 39480   0.350E-01    0.101E+00
DAV:   6    -0.354833825343E+03    0.60798E-03   -0.11585E-02 38776   0.321E-01    0.102E+00
DAV:   7    -0.354832792154E+03    0.10332E-02   -0.10318E-02 37592   0.352E-01    0.105E+00
DAV:   8    -0.354830847480E+03    0.19447E-02   -0.10426E-02 39216   0.298E-01    0.477E-01
DAV:   9    -0.354830762989E+03    0.84491E-04   -0.46905E-03 39016   0.197E-01    0.383E-01
DAV:  10    -0.354830697338E+03    0.65651E-04   -0.13997E-03 38472   0.145E-01    0.349E-01
DAV:  11    -0.354830533601E+03    0.16374E-03   -0.67285E-04 37432   0.930E-02    0.163E-01
DAV:  12    -0.354830583828E+03   -0.50227E-04   -0.19378E-04 32792   0.509E-02    0.113E-01
DAV:  13    -0.354830589398E+03   -0.55701E-05   -0.65923E-05 25528   0.342E-02
  34 F= -.35483059E+03 E0= -.35481531E+03  d E =-.165355E-01  mag=     8.0000
       N       E                     dE             d eps       ncg     rms          rms(c)
DAV:   1    -0.354466458436E+03    0.36413E+00   -0.13073E+02 30544   0.293E+01    0.166E+00
DAV:   2    -0.354883623733E+03   -0.41717E+00   -0.42783E+00 28288   0.501E+00    0.259E+00
DAV:   3    -0.354908811793E+03   -0.25188E-01   -0.31060E-01 39008   0.141E+00    0.422E+00
DAV:   4    -0.354868866158E+03    0.39946E-01   -0.13465E-01 40104   0.883E-01    0.158E+00
DAV:   5    -0.354868927209E+03   -0.61051E-04   -0.25360E-02 40424   0.469E-01    0.123E+00
DAV:   6    -0.354867990890E+03    0.93632E-03   -0.11268E-02 38016   0.352E-01    0.115E+00
DAV:   7    -0.354865788145E+03    0.22027E-02   -0.99000E-03 37232   0.376E-01    0.108E+00
DAV:   8    -0.354863948841E+03    0.18393E-02   -0.12818E-02 38328   0.331E-01    0.658E-01
DAV:   9    -0.354863768899E+03    0.17994E-03   -0.82024E-03 38240   0.252E-01    0.548E-01
DAV:  10    -0.354863316580E+03    0.45232E-03   -0.32169E-03 38696   0.193E-01    0.396E-01
DAV:  11    -0.354863275929E+03    0.40651E-04   -0.13845E-03 37936   0.128E-01    0.321E-01
DAV:  12    -0.354863249106E+03    0.26823E-04   -0.72189E-04 38512   0.956E-02    0.202E-01
DAV:  13    -0.354863250567E+03   -0.14608E-05   -0.24931E-04 36560   0.737E-02    0.126E-01
DAV:  14    -0.354863314781E+03   -0.64215E-04   -0.15676E-04 27680   0.444E-02    0.176E-01
DAV:  15    -0.354863277923E+03    0.36859E-04   -0.11492E-04 24336   0.350E-02    0.111E-01
DAV:  16    -0.354863286220E+03   -0.82975E-05   -0.48641E-05 23184   0.342E-02
  35 F= -.35486329E+03 E0= -.35484792E+03  d E =-.326968E-01  mag=     8.0000
       N       E                     dE             d eps       ncg     rms          rms(c)
DAV:   1    -0.354789674742E+03    0.73603E-01   -0.10907E+01 31056   0.963E+00    0.933E-01
DAV:   2    -0.354871897253E+03   -0.82223E-01   -0.77868E-01 28368   0.205E+00    0.283E+00
DAV:   3    -0.354858126987E+03    0.13770E-01   -0.38976E-02 37808   0.668E-01    0.114E+00
DAV:   4    -0.354858994093E+03   -0.86711E-03   -0.60711E-03 40112   0.248E-01    0.994E-01
DAV:   5    -0.354860159854E+03   -0.11658E-02   -0.10557E-02 38016   0.295E-01    0.121E+00
DAV:   6    -0.354859085555E+03    0.10743E-02   -0.10931E-02 38848   0.269E-01    0.108E+00
DAV:   7    -0.354863544469E+03   -0.44589E-02   -0.24206E-02 38704   0.373E-01    0.188E+00
DAV:   8    -0.354858135174E+03    0.54093E-02   -0.29900E-02 37440   0.417E-01    0.948E-01
DAV:   9    -0.354857376272E+03    0.75890E-03   -0.85539E-03 38976   0.259E-01    0.681E-01
DAV:  10    -0.354856977482E+03    0.39879E-03   -0.20206E-03 38488   0.164E-01    0.460E-01
DAV:  11    -0.354856761151E+03    0.21633E-03   -0.86415E-04 37432   0.107E-01    0.166E-01
DAV:  12    -0.354856805393E+03   -0.44242E-04   -0.18175E-04 34152   0.520E-02    0.119E-01
DAV:  13    -0.354856799759E+03    0.56342E-05   -0.43018E-05 22784   0.260E-02
  36 F= -.35485680E+03 E0= -.35484137E+03  d E =0.648646E-02  mag=     8.0000
       N       E                     dE             d eps       ncg     rms          rms(c)
DAV:   1    -0.354836104099E+03    0.20701E-01   -0.57984E+00 31240   0.707E+00    0.475E-01
DAV:   2    -0.354864299900E+03   -0.28196E-01   -0.26737E-01 28488   0.132E+00    0.148E+00
DAV:   3    -0.354860681110E+03    0.36188E-02   -0.14539E-02 37608   0.396E-01    0.652E-01
DAV:   4    -0.354860738439E+03   -0.57328E-04   -0.32626E-03 40208   0.179E-01    0.513E-01
DAV:   5    -0.354861057725E+03   -0.31929E-03   -0.37095E-03 37672   0.153E-01    0.639E-01
DAV:   6    -0.354860462912E+03    0.59481E-03   -0.22420E-03 38576   0.133E-01    0.417E-01
DAV:   7    -0.354861027065E+03   -0.56415E-03   -0.21698E-03 39216   0.150E-01    0.685E-01
DAV:   8    -0.354860409354E+03    0.61771E-03   -0.44504E-03 37720   0.182E-01    0.426E-01
DAV:   9    -0.354860211620E+03    0.19773E-03   -0.22751E-03 38480   0.136E-01    0.286E-01
DAV:  10    -0.354860187901E+03    0.23719E-04   -0.51616E-04 38456   0.850E-02    0.227E-01
DAV:  11    -0.354860122984E+03    0.64916E-04   -0.22769E-04 30344   0.576E-02    0.112E-01
DAV:  12    -0.354860116888E+03    0.60960E-05   -0.67804E-05 22768   0.335E-02
  37 F= -.35486012E+03 E0= -.35484478E+03  d E =-.331713E-02  mag=     8.0000
       N       E                     dE             d eps       ncg     rms          rms(c)
DAV:   1    -0.354857924626E+03    0.21984E-02   -0.11133E+00 31576   0.280E+00    0.157E-01
DAV:   2    -0.354861406482E+03   -0.34819E-02   -0.35012E-02 28288   0.472E-01    0.283E-01
DAV:   3    -0.354861484096E+03   -0.77614E-04   -0.14121E-03 40176   0.126E-01    0.343E-01
DAV:   4    -0.354861281701E+03    0.20239E-03   -0.42850E-04 36704   0.730E-02    0.146E-01
DAV:   5    -0.354861293165E+03   -0.11464E-04   -0.26687E-04 27776   0.461E-02    0.149E-01
DAV:   6    -0.354861272497E+03    0.20668E-04   -0.21531E-04 24600   0.414E-02    0.119E-01
DAV:   7    -0.354861272948E+03   -0.45169E-06   -0.12995E-04 30520   0.372E-02    0.142E-01
DAV:   8    -0.354861238764E+03    0.34184E-04   -0.10445E-04 24584   0.353E-02    0.806E-02
DAV:   9    -0.354861238964E+03   -0.19991E-06   -0.39274E-05 22024   0.275E-02
  38 F= -.35486124E+03 E0= -.35484588E+03  d E =-.112208E-02  mag=     8.0000
       N       E                     dE             d eps       ncg     rms          rms(c)
DAV:   1    -0.354802478154E+03    0.58761E-01   -0.23548E+01 30704   0.123E+01    0.633E-01
DAV:   2    -0.354868011543E+03   -0.65533E-01   -0.67023E-01 28288   0.202E+00    0.592E-01
DAV:   3    -0.354871598817E+03   -0.35873E-02   -0.30636E-02 41536   0.468E-01    0.142E+00
DAV:   4    -0.354866796981E+03    0.48018E-02   -0.13023E-02 39232   0.332E-01    0.393E-01
DAV:   5    -0.354867413128E+03   -0.61615E-03   -0.30743E-03 39752   0.146E-01    0.543E-01
DAV:   6    -0.354866961336E+03    0.45179E-03   -0.30717E-03 37488   0.144E-01    0.420E-01
DAV:   7    -0.354866560934E+03    0.40040E-03   -0.17679E-03 35848   0.157E-01    0.371E-01
DAV:   8    -0.354866457953E+03    0.10298E-03   -0.12912E-03 36912   0.122E-01    0.265E-01
DAV:   9    -0.354866413359E+03    0.44594E-04   -0.68728E-04 38440   0.895E-02    0.178E-01
DAV:  10    -0.354866454218E+03   -0.40859E-04   -0.27591E-04 38248   0.667E-02    0.203E-01
DAV:  11    -0.354866410946E+03    0.43272E-04   -0.15368E-04 26856   0.507E-02    0.962E-02
DAV:  12    -0.354866429288E+03   -0.18342E-04   -0.54676E-05 22704   0.293E-02    0.721E-02
DAV:  13    -0.354866427776E+03    0.15126E-05   -0.20761E-05 18856   0.183E-02
  39 F= -.35486643E+03 E0= -.35485101E+03  d E =-.518881E-02  mag=     8.0000
       N       E                     dE             d eps       ncg     rms          rms(c)
DAV:   1    -0.354163277939E+03    0.70315E+00   -0.79799E+01 32880   0.303E+01    0.265E+00
DAV:   2    -0.354803495932E+03   -0.64022E+00   -0.60561E+00 28288   0.613E+00    0.815E+00
DAV:   3    -0.354698742168E+03    0.10475E+00   -0.80063E-01 36784   0.229E+00    0.361E+00
DAV:   4    -0.354706013528E+03   -0.72714E-02   -0.19344E-01 38704   0.115E+00    0.348E+00
DAV:   5    -0.354690022658E+03    0.15991E-01   -0.10265E-01 37784   0.907E-01    0.270E+00
DAV:   6    -0.354689550932E+03    0.47173E-03   -0.86372E-02 37272   0.768E-01    0.244E+00
DAV:   7    -0.354687581595E+03    0.19693E-02   -0.81938E-02 39832   0.772E-01    0.244E+00
DAV:   8    -0.354681322738E+03    0.62589E-02   -0.41730E-02 38936   0.757E-01    0.206E+00
DAV:   9    -0.354676228012E+03    0.50947E-02   -0.27579E-02 38432   0.600E-01    0.134E+00
DAV:  10    -0.354675292893E+03    0.93512E-03   -0.13069E-02 38656   0.422E-01    0.735E-01
DAV:  11    -0.354676157391E+03   -0.86450E-03   -0.52414E-03 38728   0.273E-01    0.700E-01
DAV:  12    -0.354676169693E+03   -0.12302E-04   -0.30086E-03 38368   0.188E-01    0.610E-01
DAV:  13    -0.354675677577E+03    0.49212E-03   -0.17929E-03 38848   0.157E-01    0.334E-01
DAV:  14    -0.354675694718E+03   -0.17141E-04   -0.58515E-04 38920   0.948E-02    0.374E-01
DAV:  15    -0.354675612828E+03    0.81890E-04   -0.74881E-04 37136   0.967E-02    0.396E-01
DAV:  16    -0.354675340630E+03    0.27220E-03   -0.87772E-04 37344   0.109E-01    0.265E-01
DAV:  17    -0.354675359382E+03   -0.18752E-04   -0.72481E-04 39616   0.896E-02    0.180E-01
DAV:  18    -0.354675429804E+03   -0.70422E-04   -0.28263E-04 37520   0.806E-02    0.142E-01
DAV:  19    -0.354675412927E+03    0.16877E-04   -0.18699E-04 37032   0.585E-02    0.691E-02
DAV:  20    -0.354675415577E+03   -0.26500E-05   -0.55531E-05 24336   0.277E-02
  40 F= -.35467542E+03 E0= -.35465984E+03  d E =0.191012E+00  mag=     8.0000
       N       E                     dE             d eps       ncg     rms          rms(c)
DAV:   1    -0.354732954041E+03   -0.57541E-01   -0.11540E+01 32544   0.123E+01    0.135E+00
DAV:   2    -0.354865083263E+03   -0.13213E+00   -0.13160E+00 28528   0.281E+00    0.355E+00
DAV:   3    -0.354846176994E+03    0.18906E-01   -0.85306E-02 36872   0.910E-01    0.193E+00
DAV:   4    -0.354844434027E+03    0.17430E-02   -0.18193E-02 38232   0.337E-01    0.160E+00
DAV:   5    -0.354847206768E+03   -0.27727E-02   -0.19905E-02 37272   0.321E-01    0.197E+00
DAV:   6    -0.354842387704E+03    0.48191E-02   -0.20671E-02 37872   0.381E-01    0.137E+00
DAV:   7    -0.354850709403E+03   -0.83217E-02   -0.22339E-02 38408   0.562E-01    0.256E+00
DAV:   8    -0.354843948915E+03    0.67605E-02   -0.34833E-02 38456   0.575E-01    0.181E+00
DAV:   9    -0.354840097034E+03    0.38519E-02   -0.25452E-02 37968   0.476E-01    0.962E-01
DAV:  10    -0.354839380208E+03    0.71683E-03   -0.58586E-03 37984   0.256E-01    0.621E-01
DAV:  11    -0.354839067908E+03    0.31230E-03   -0.18713E-03 38512   0.163E-01    0.379E-01
DAV:  12    -0.354838899568E+03    0.16834E-03   -0.69171E-04 37408   0.101E-01    0.236E-01
DAV:  13    -0.354838873623E+03    0.25946E-04   -0.11437E-04 30128   0.369E-02    0.202E-01
DAV:  14    -0.354838948990E+03   -0.75367E-04   -0.23933E-04 26728   0.500E-02    0.296E-01
DAV:  15    -0.354838869400E+03    0.79590E-04   -0.43866E-04 37576   0.794E-02    0.209E-01
DAV:  16    -0.354838819287E+03    0.50113E-04   -0.21996E-04 37488   0.639E-02    0.130E-01
DAV:  17    -0.354838788365E+03    0.30922E-04   -0.73803E-05 27104   0.359E-02    0.723E-02
DAV:  18    -0.354838787799E+03    0.56571E-06   -0.65574E-05 28896   0.269E-02
  41 F= -.35483879E+03 E0= -.35482330E+03  d E =-.163372E+00  mag=     8.0000
       N       E                     dE             d eps       ncg     rms          rms(c)
DAV:   1    -0.354845264710E+03   -0.64763E-02   -0.16912E+00 33304   0.512E+00    0.471E-01
DAV:   2    -0.354866141171E+03   -0.20876E-01   -0.21838E-01 28288   0.111E+00    0.115E+00
DAV:   3    -0.354864911935E+03    0.12292E-02   -0.15658E-02 36656   0.389E-01    0.739E-01
DAV:   4    -0.354864489412E+03    0.42252E-03   -0.49650E-03 39104   0.180E-01    0.502E-01
DAV:   5    -0.354864504118E+03   -0.14706E-04   -0.28283E-03 36608   0.147E-01    0.526E-01
DAV:   6    -0.354864165139E+03    0.33898E-03   -0.24055E-03 38760   0.146E-01    0.399E-01
DAV:   7    -0.354864741688E+03   -0.57655E-03   -0.20916E-03 37752   0.177E-01    0.737E-01
DAV:   8    -0.354863946992E+03    0.79470E-03   -0.31020E-03 38208   0.174E-01    0.444E-01
DAV:   9    -0.354863776117E+03    0.17088E-03   -0.15745E-03 37720   0.125E-01    0.252E-01
DAV:  10    -0.354863740937E+03    0.35180E-04   -0.49530E-04 35008   0.747E-02    0.188E-01
DAV:  11    -0.354863712030E+03    0.28907E-04   -0.16640E-04 31144   0.511E-02    0.115E-01
DAV:  12    -0.354863704116E+03    0.79145E-05   -0.72277E-05 23760   0.326E-02
  42 F= -.35486370E+03 E0= -.35484830E+03  d E =-.249163E-01  mag=     8.0000
       N       E                     dE             d eps       ncg     rms          rms(c)
DAV:   1    -0.354856841711E+03    0.68703E-02   -0.11270E+00 32880   0.444E+00    0.364E-01
DAV:   2    -0.354872145570E+03   -0.15304E-01   -0.16216E-01 28288   0.945E-01    0.674E-01
DAV:   3    -0.354872620611E+03   -0.47504E-03   -0.90145E-03 37816   0.321E-01    0.749E-01
DAV:   4    -0.354871870440E+03    0.75017E-03   -0.25827E-03 39672   0.171E-01    0.385E-01
DAV:   5    -0.354871854815E+03    0.15625E-04   -0.20068E-03 37552   0.124E-01    0.387E-01
DAV:   6    -0.354871646269E+03    0.20855E-03   -0.12056E-03 35904   0.972E-02    0.258E-01
DAV:   7    -0.354871992114E+03   -0.34585E-03   -0.19972E-03 38080   0.117E-01    0.491E-01
DAV:   8    -0.354871435857E+03    0.55626E-03   -0.17166E-03 37464   0.110E-01    0.187E-01
DAV:   9    -0.354871455509E+03   -0.19652E-04   -0.38267E-04 37480   0.798E-02    0.154E-01
DAV:  10    -0.354871471600E+03   -0.16091E-04   -0.23194E-04 30704   0.575E-02    0.164E-01
DAV:  11    -0.354871425520E+03    0.46080E-04   -0.10617E-04 25016   0.426E-02    0.476E-02
DAV:  12    -0.354871436868E+03   -0.11348E-04   -0.27167E-05 20384   0.224E-02    0.437E-02
DAV:  13    -0.354871438851E+03   -0.19830E-05   -0.12638E-05 17040   0.151E-02
  43 F= -.35487144E+03 E0= -.35485606E+03  d E =-.773474E-02  mag=     8.0000
       N       E                     dE             d eps       ncg     rms          rms(c)
DAV:   1    -0.354868828871E+03    0.26080E-02   -0.40187E-01 32088   0.236E+00    0.179E-01
DAV:   2    -0.354873039278E+03   -0.42104E-02   -0.42322E-02 28288   0.484E-01    0.391E-01
DAV:   3    -0.354872919441E+03    0.11984E-03   -0.16668E-03 38416   0.136E-01    0.280E-01
DAV:   4    -0.354872913806E+03    0.56350E-05   -0.56485E-04 38528   0.797E-02    0.229E-01
DAV:   5    -0.354872837657E+03    0.76149E-04   -0.32586E-04 32336   0.616E-02    0.133E-01
DAV:   6    -0.354872901460E+03   -0.63803E-04   -0.29843E-04 26800   0.447E-02    0.228E-01
DAV:   7    -0.354872835724E+03    0.65736E-04   -0.27499E-04 32728   0.518E-02    0.158E-01
DAV:   8    -0.354872846475E+03   -0.10751E-04   -0.30842E-04 33512   0.542E-02    0.183E-01
DAV:   9    -0.354872798915E+03    0.47561E-04   -0.23912E-04 27072   0.484E-02    0.111E-01
DAV:  10    -0.354872783388E+03    0.15527E-04   -0.77481E-05 23296   0.337E-02    0.469E-02
DAV:  11    -0.354872790954E+03   -0.75667E-05   -0.44117E-05 20136   0.245E-02
  44 F= -.35487279E+03 E0= -.35485739E+03  d E =-.135210E-02  mag=     8.0000
       N       E                     dE             d eps       ncg     rms          rms(c)
DAV:   1    -0.354870575221E+03    0.22082E-02   -0.38335E-01 32576   0.197E+00    0.158E-01
DAV:   2    -0.354873192226E+03   -0.26170E-02   -0.22235E-02 28608   0.415E-01    0.584E-01
DAV:   3    -0.354872579961E+03    0.61226E-03   -0.12241E-03 36752   0.119E-01    0.261E-01
DAV:   4    -0.354872650542E+03   -0.70581E-04   -0.33003E-04 34792   0.559E-02    0.279E-01
DAV:   5    -0.354872607967E+03    0.42576E-04   -0.34213E-04 26704   0.498E-02    0.235E-01
DAV:   6    -0.354872554398E+03    0.53569E-04   -0.23154E-04 22640   0.408E-02    0.162E-01
DAV:   7    -0.354872651377E+03   -0.96979E-04   -0.26168E-04 32072   0.530E-02    0.272E-01
DAV:   8    -0.354872604511E+03    0.46866E-04   -0.35457E-04 34944   0.680E-02    0.222E-01
DAV:   9    -0.354872548340E+03    0.56171E-04   -0.29327E-04 33480   0.561E-02    0.148E-01
DAV:  10    -0.354872529335E+03    0.19005E-04   -0.10770E-04 23248   0.450E-02    0.108E-01
DAV:  11    -0.354872514316E+03    0.15018E-04   -0.58906E-05 20864   0.265E-02    0.317E-02
DAV:  12    -0.354872518237E+03   -0.39203E-05   -0.81678E-06 16640   0.120E-02
  45 F= -.35487252E+03 E0= -.35485708E+03  d E =0.272717E-03  mag=     8.0000
       N       E                     dE             d eps       ncg     rms          rms(c)
DAV:   1    -0.354871644960E+03    0.86936E-03   -0.85776E-02 32128   0.854E-01    0.733E-02
DAV:   2    -0.354872080136E+03   -0.43518E-03   -0.36746E-03 29016   0.176E-01    0.243E-01
DAV:   3    -0.354871966789E+03    0.11335E-03   -0.22392E-04 35424   0.551E-02    0.107E-01
DAV:   4    -0.354871981172E+03   -0.14383E-04   -0.82699E-05 22320   0.275E-02    0.120E-01
DAV:   5    -0.354871970314E+03    0.10857E-04   -0.89557E-05 19816   0.243E-02    0.995E-02
DAV:   6    -0.354871960065E+03    0.10250E-04   -0.58826E-05 18680   0.207E-02    0.637E-02
DAV:   7    -0.354871971922E+03   -0.11858E-04   -0.44579E-05 21376   0.242E-02    0.985E-02
DAV:   8    -0.354871974618E+03   -0.26957E-05   -0.62684E-05 22528   0.316E-02
  46 F= -.35487197E+03 E0= -.35485655E+03  d E =0.543619E-03  mag=     8.0000
       N       E                     dE             d eps       ncg     rms          rms(c)
DAV:   1    -0.354869586258E+03    0.23857E-02   -0.38731E-01 31432   0.176E+00    0.133E-01
DAV:   2    -0.354870990449E+03   -0.14042E-02   -0.14046E-02 28472   0.320E-01    0.233E-01
DAV:   3    -0.354871019608E+03   -0.29158E-04   -0.10621E-03 38184   0.102E-01    0.265E-01
DAV:   4    -0.354870915380E+03    0.10423E-03   -0.24948E-04 32480   0.550E-02    0.137E-01
DAV:   5    -0.354870902535E+03    0.12845E-04   -0.38645E-05 21360   0.213E-02    0.974E-02
DAV:   6    -0.354870953392E+03   -0.50857E-04   -0.16548E-04 22016   0.327E-02    0.193E-01
DAV:   7    -0.354870907447E+03    0.45945E-04   -0.27008E-04 31864   0.502E-02    0.150E-01
DAV:   8    -0.354870882026E+03    0.25420E-04   -0.14273E-04 27680   0.423E-02    0.103E-01
DAV:   9    -0.354870870565E+03    0.11461E-04   -0.66111E-05 22560   0.330E-02    0.478E-02
DAV:  10    -0.354870877314E+03   -0.67486E-05   -0.29613E-05 18064   0.206E-02
  47 F= -.35487088E+03 E0= -.35485535E+03  d E =0.109730E-02  mag=     8.0000
       N       E                     dE             d eps       ncg     rms          rms(c)
DAV:   1    -0.354870551334E+03    0.31923E-03   -0.27671E-01 30880   0.152E+00    0.915E-02
DAV:   2    -0.354871758270E+03   -0.12069E-02   -0.11036E-02 28288   0.275E-01    0.316E-01
DAV:   3    -0.354871598194E+03    0.16008E-03   -0.76337E-04 36568   0.882E-02    0.134E-01
DAV:   4    -0.354871610164E+03   -0.11971E-04   -0.19452E-04 27192   0.432E-02    0.130E-01
DAV:   5    -0.354871588110E+03    0.22055E-04   -0.12608E-04 21184   0.331E-02    0.815E-02
DAV:   6    -0.354871581712E+03    0.63978E-05   -0.42766E-05 21072   0.238E-02
  48 F= -.35487158E+03 E0= -.35485609E+03  d E =-.704398E-03  mag=     8.0000
       N       E                     dE             d eps       ncg     rms          rms(c)
DAV:   1    -0.354868186255E+03    0.34019E-02   -0.27442E+00 31368   0.458E+00    0.273E-01
DAV:   2    -0.354877953516E+03   -0.97673E-02   -0.94675E-02 28328   0.806E-01    0.712E-01
DAV:   3    -0.354877036536E+03    0.91698E-03   -0.45910E-03 38176   0.221E-01    0.274E-01
DAV:   4    -0.354877188104E+03   -0.15157E-03   -0.16457E-03 40800   0.124E-01    0.339E-01
DAV:   5    -0.354876977437E+03    0.21067E-03   -0.74597E-04 38136   0.974E-02    0.229E-01
DAV:   6    -0.354876971256E+03    0.61804E-05   -0.32839E-04 33656   0.650E-02    0.228E-01
DAV:   7    -0.354877054999E+03   -0.83743E-04   -0.83604E-04 37456   0.883E-02    0.339E-01
DAV:   8    -0.354876967029E+03    0.87969E-04   -0.13152E-03 36720   0.880E-02    0.294E-01
DAV:   9    -0.354876861072E+03    0.10596E-03   -0.58468E-04 35792   0.742E-02    0.172E-01
DAV:  10    -0.354876843276E+03    0.17796E-04   -0.17075E-04 27360   0.483E-02    0.132E-01
DAV:  11    -0.354876826713E+03    0.16563E-04   -0.92005E-05 23264   0.348E-02    0.570E-02
DAV:  12    -0.354876832519E+03   -0.58064E-05   -0.19663E-05 19680   0.197E-02
  49 F= -.35487683E+03 E0= -.35486129E+03  d E =-.525081E-02  mag=     8.0000
       N       E                     dE             d eps       ncg     rms          rms(c)
DAV:   1    -0.354879246403E+03   -0.24197E-02   -0.54112E-01 30152   0.214E+00    0.188E-01
DAV:   2    -0.354882012106E+03   -0.27657E-02   -0.30465E-02 28424   0.409E-01    0.242E-01
DAV:   3    -0.354882177606E+03   -0.16550E-03   -0.18393E-03 38376   0.139E-01    0.369E-01
DAV:   4    -0.354882007959E+03    0.16965E-03   -0.87982E-04 38664   0.849E-02    0.249E-01
DAV:   5    -0.354881930599E+03    0.77359E-04   -0.46007E-04 31832   0.632E-02    0.152E-01
DAV:   6    -0.354881967216E+03   -0.36616E-04   -0.36587E-04 27048   0.531E-02    0.195E-01
DAV:   7    -0.354881973599E+03   -0.63836E-05   -0.39227E-04 36168   0.620E-02    0.221E-01
DAV:   8    -0.354881886287E+03    0.87312E-04   -0.16433E-04 31856   0.477E-02    0.981E-02
DAV:   9    -0.354881893722E+03   -0.74341E-05   -0.69773E-05 22600   0.335E-02
  50 F= -.35488189E+03 E0= -.35486638E+03  d E =-.506120E-02  mag=     8.0000
       N       E                     dE             d eps       ncg     rms          rms(c)
DAV:   1    -0.354883947498E+03   -0.20612E-02   -0.15660E-01 29880   0.109E+00    0.108E-01
DAV:   2    -0.354884772799E+03   -0.82530E-03   -0.79349E-03 28592   0.216E-01    0.285E-01
DAV:   3    -0.354884622657E+03    0.15014E-03   -0.80738E-04 36512   0.809E-02    0.122E-01
DAV:   4    -0.354884681477E+03   -0.58820E-04   -0.28507E-04 27168   0.476E-02    0.197E-01
DAV:   5    -0.354884609102E+03    0.72376E-04   -0.26399E-04 22216   0.420E-02    0.769E-02
DAV:   6    -0.354884611858E+03   -0.27561E-05   -0.68314E-05 23448   0.322E-02
  51 F= -.35488461E+03 E0= -.35486902E+03  d E =-.271814E-02  mag=     8.0000
       N       E                     dE             d eps       ncg     rms          rms(c)
DAV:   1    -0.354887048792E+03   -0.24397E-02   -0.58740E-01 31328   0.204E+00    0.213E-01
DAV:   2    -0.354890911939E+03   -0.38631E-02   -0.23990E-02 31024   0.438E-01    0.103E+00
DAV:   3    -0.354888719619E+03    0.21923E-02   -0.37736E-03 36896   0.241E-01    0.181E-01
DAV:   4    -0.354889105085E+03   -0.38547E-03   -0.77920E-04 37128   0.938E-02    0.313E-01
DAV:   5    -0.354888939655E+03    0.16543E-03   -0.51410E-04 33720   0.729E-02    0.145E-01
DAV:   6    -0.354888932303E+03    0.73523E-05   -0.21090E-04 26680   0.464E-02    0.115E-01
DAV:   7    -0.354888952036E+03   -0.19734E-04   -0.25956E-04 25448   0.406E-02    0.156E-01
DAV:   8    -0.354888924960E+03    0.27076E-04   -0.22693E-04 27224   0.438E-02    0.120E-01
DAV:   9    -0.354888915404E+03    0.95560E-05   -0.10862E-04 27416   0.424E-02    0.108E-01
DAV:  10    -0.354888901058E+03    0.14346E-04   -0.78534E-05 21352   0.292E-02    0.551E-02
DAV:  11    -0.354888899863E+03    0.11951E-05   -0.24359E-05 18152   0.189E-02
  52 F= -.35488890E+03 E0= -.35487333E+03  d E =-.428801E-02  mag=     8.0000
       N       E                     dE             d eps       ncg     rms          rms(c)
DAV:   1    -0.354887103967E+03    0.17971E-02   -0.31108E+00 31024   0.480E+00    0.316E-01
DAV:   2    -0.354898414157E+03   -0.11310E-01   -0.11379E-01 28432   0.835E-01    0.655E-01
DAV:   3    -0.354898242018E+03    0.17214E-03   -0.76846E-03 39000   0.259E-01    0.595E-01
DAV:   4    -0.354898081096E+03    0.16092E-03   -0.38520E-03 38448   0.161E-01    0.532E-01
DAV:   5    -0.354897598361E+03    0.48273E-03   -0.17889E-03 37632   0.116E-01    0.230E-01
DAV:   6    -0.354897601040E+03   -0.26788E-05   -0.56930E-04 35928   0.749E-02    0.196E-01
DAV:   7    -0.354897692058E+03   -0.91019E-04   -0.43783E-04 38016   0.744E-02    0.314E-01
DAV:   8    -0.354897502202E+03    0.18986E-03   -0.60124E-04 38720   0.711E-02    0.143E-01
DAV:   9    -0.354897485792E+03    0.16410E-04   -0.19184E-04 30016   0.426E-02    0.109E-01
DAV:  10    -0.354897482166E+03    0.36257E-05   -0.11414E-04 24296   0.379E-02    0.111E-01
DAV:  11    -0.354897480371E+03    0.17950E-05   -0.10319E-04 23808   0.344E-02    0.936E-02
DAV:  12    -0.354897479996E+03    0.37563E-06   -0.51949E-05 21456   0.292E-02
  53 F= -.35489748E+03 E0= -.35488185E+03  d E =-.858013E-02  mag=     8.0000
       N       E                     dE             d eps       ncg     rms          rms(c)
DAV:   1    -0.354861937107E+03    0.35543E-01   -0.15231E+01 31352   0.108E+01    0.625E-01
DAV:   2    -0.354914933264E+03   -0.52996E-01   -0.53979E-01 28320   0.186E+00    0.995E-01
DAV:   3    -0.354915986660E+03   -0.10534E-02   -0.30300E-02 38992   0.507E-01    0.125E+00
DAV:   4    -0.354914418874E+03    0.15678E-02   -0.20972E-02 38736   0.316E-01    0.999E-01
DAV:   5    -0.354912798200E+03    0.16207E-02   -0.60515E-03 39112   0.206E-01    0.406E-01
DAV:   6    -0.354913017789E+03   -0.21959E-03   -0.27759E-03 38384   0.151E-01    0.453E-01
DAV:   7    -0.354912732218E+03    0.28557E-03   -0.18672E-03 37072   0.152E-01    0.443E-01
DAV:   8    -0.354912489308E+03    0.24291E-03   -0.10332E-03 38560   0.122E-01    0.340E-01
DAV:   9    -0.354912372945E+03    0.11636E-03   -0.74057E-04 39128   0.860E-02    0.226E-01
DAV:  10    -0.354912341352E+03    0.31592E-04   -0.50237E-04 37904   0.707E-02    0.189E-01
DAV:  11    -0.354912358225E+03   -0.16872E-04   -0.30314E-04 33512   0.601E-02    0.181E-01
DAV:  12    -0.354912344403E+03    0.13822E-04   -0.15238E-04 28288   0.528E-02    0.102E-01
DAV:  13    -0.354912354914E+03   -0.10511E-04   -0.78931E-05 25856   0.387E-02    0.660E-02
DAV:  14    -0.354912381324E+03   -0.26410E-04   -0.62637E-05 24784   0.287E-02    0.876E-02
DAV:  15    -0.354912378532E+03    0.27920E-05   -0.50829E-05 21504   0.246E-02
  54 F= -.35491238E+03 E0= -.35489662E+03  d E =-.148985E-01  mag=     8.0000
       N       E                     dE             d eps       ncg     rms          rms(c)
DAV:   1    -0.354792738560E+03    0.11964E+00   -0.41975E+01 31496   0.180E+01    0.944E-01
DAV:   2    -0.354933221698E+03   -0.14048E+00   -0.14202E+00 28288   0.308E+00    0.149E+00
DAV:   3    -0.354935621435E+03   -0.23997E-02   -0.70821E-02 38184   0.775E-01    0.192E+00
DAV:   4    -0.354931485126E+03    0.41363E-02   -0.56632E-02 38936   0.483E-01    0.145E+00
DAV:   5    -0.354928136497E+03    0.33486E-02   -0.13462E-02 38976   0.301E-01    0.623E-01
DAV:   6    -0.354928905004E+03   -0.76851E-03   -0.60952E-03 37728   0.213E-01    0.810E-01
DAV:   7    -0.354927549733E+03    0.13553E-02   -0.46669E-03 38184   0.215E-01    0.527E-01
DAV:   8    -0.354927287587E+03    0.26215E-03   -0.20733E-03 38128   0.171E-01    0.552E-01
DAV:   9    -0.354926845505E+03    0.44208E-03   -0.15733E-03 38416   0.135E-01    0.359E-01
DAV:  10    -0.354926618566E+03    0.22694E-03   -0.13172E-03 38520   0.120E-01    0.199E-01
DAV:  11    -0.354926824359E+03   -0.20579E-03   -0.70102E-04 39112   0.103E-01    0.279E-01
DAV:  12    -0.354926868310E+03   -0.43951E-04   -0.57482E-04 38440   0.925E-02    0.258E-01
DAV:  13    -0.354926852251E+03    0.16060E-04   -0.39687E-04 31752   0.645E-02    0.178E-01
DAV:  14    -0.354926914325E+03   -0.62075E-04   -0.22176E-04 34816   0.506E-02    0.154E-01
DAV:  15    -0.354926907389E+03    0.69363E-05   -0.89481E-05 25752   0.333E-02
  55 F= -.35492691E+03 E0= -.35491091E+03  d E =-.145289E-01  mag=     8.0000
       N       E                     dE             d eps       ncg     rms          rms(c)
DAV:   1    -0.354853429733E+03    0.73485E-01   -0.13866E+01 30640   0.107E+01    0.764E-01
DAV:   2    -0.354912466977E+03   -0.59037E-01   -0.63054E-01 28368   0.195E+00    0.822E-01
DAV:   3    -0.354916647838E+03   -0.41809E-02   -0.34653E-02 39088   0.516E-01    0.153E+00
DAV:   4    -0.354912290913E+03    0.43569E-02   -0.15822E-02 38232   0.347E-01    0.859E-01
DAV:   5    -0.354911775575E+03    0.51534E-03   -0.50237E-03 40168   0.211E-01    0.603E-01
DAV:   6    -0.354912587360E+03   -0.81178E-03   -0.53238E-03 39664   0.202E-01    0.954E-01
DAV:   7    -0.354910629248E+03    0.19581E-02   -0.36203E-03 37632   0.202E-01    0.480E-01
DAV:   8    -0.354911386332E+03   -0.75708E-03   -0.33831E-03 38736   0.216E-01    0.888E-01
DAV:   9    -0.354910113987E+03    0.12723E-02   -0.34386E-03 39360   0.201E-01    0.402E-01
DAV:  10    -0.354910295122E+03   -0.18114E-03   -0.15809E-03 39264   0.156E-01    0.259E-01
DAV:  11    -0.354910721282E+03   -0.42616E-03   -0.15770E-03 38088   0.115E-01    0.364E-01
DAV:  12    -0.354910546086E+03    0.17520E-03   -0.10148E-03 37880   0.841E-02    0.200E-01
DAV:  13    -0.354910581381E+03   -0.35295E-04   -0.12982E-04 32600   0.432E-02    0.196E-01
DAV:  14    -0.354910639211E+03   -0.57830E-04   -0.18596E-04 34888   0.452E-02    0.185E-01
DAV:  15    -0.354910632655E+03    0.65568E-05   -0.13432E-04 29832   0.429E-02    0.126E-01
DAV:  16    -0.354910625486E+03    0.71687E-05   -0.13240E-04 32264   0.443E-02    0.721E-02
DAV:  17    -0.354910623000E+03    0.24857E-05   -0.82957E-05 32392   0.352E-02
  56 F= -.35491062E+03 E0= -.35489483E+03  d E =0.162844E-01  mag=     8.0000
       N       E                     dE             d eps       ncg     rms          rms(c)
DAV:   1    -0.354889450810E+03    0.21175E-01   -0.32250E+00 30864   0.583E+00    0.382E-01
DAV:   2    -0.354906797406E+03   -0.17347E-01   -0.19025E-01 28288   0.110E+00    0.555E-01
DAV:   3    -0.354908027460E+03   -0.12301E-02   -0.12207E-02 37488   0.301E-01    0.928E-01
DAV:   4    -0.354906459071E+03    0.15684E-02   -0.47851E-03 38696   0.184E-01    0.367E-01
DAV:   5    -0.354906724722E+03   -0.26565E-03   -0.24260E-03 37648   0.138E-01    0.481E-01
DAV:   6    -0.354906389425E+03    0.33530E-03   -0.15998E-03 37472   0.125E-01    0.315E-01
DAV:   7    -0.354906448487E+03   -0.59061E-04   -0.16973E-03 37640   0.136E-01    0.381E-01
DAV:   8    -0.354906188108E+03    0.26038E-03   -0.15973E-03 38904   0.105E-01    0.239E-01
DAV:   9    -0.354906127880E+03    0.60228E-04   -0.37827E-04 36048   0.721E-02    0.163E-01
DAV:  10    -0.354906110541E+03    0.17339E-04   -0.20301E-04 33888   0.568E-02    0.140E-01
DAV:  11    -0.354906087697E+03    0.22844E-04   -0.90742E-05 25096   0.380E-02    0.762E-02
DAV:  12    -0.354906090637E+03   -0.29401E-05   -0.47297E-05 23192   0.287E-02
  57 F= -.35490609E+03 E0= -.35489032E+03  d E =0.453236E-02  mag=     8.0000
       N       E                     dE             d eps       ncg     rms          rms(c)
DAV:   1    -0.354903306041E+03    0.27817E-02   -0.20537E+00 30296   0.425E+00    0.248E-01
DAV:   2    -0.354912115652E+03   -0.88096E-02   -0.90775E-02 28288   0.761E-01    0.504E-01
DAV:   3    -0.354911956140E+03    0.15951E-03   -0.54582E-03 37488   0.218E-01    0.397E-01
DAV:   4    -0.354911752665E+03    0.20348E-03   -0.14296E-03 38672   0.112E-01    0.244E-01
DAV:   5    -0.354911686699E+03    0.65965E-04   -0.52765E-04 37696   0.738E-02    0.203E-01
DAV:   6    -0.354911687316E+03   -0.61660E-06   -0.39972E-04 31320   0.545E-02    0.231E-01
DAV:   7    -0.354911623958E+03    0.63358E-04   -0.41575E-04 33336   0.565E-02    0.192E-01
DAV:   8    -0.354911585023E+03    0.38935E-04   -0.28338E-04 32920   0.511E-02    0.183E-01
DAV:   9    -0.354911534031E+03    0.50992E-04   -0.20494E-04 30448   0.514E-02    0.142E-01
DAV:  10    -0.354911578616E+03   -0.44585E-04   -0.22632E-04 28496   0.534E-02    0.213E-01
DAV:  11    -0.354911521351E+03    0.57265E-04   -0.24748E-04 29752   0.549E-02    0.105E-01
DAV:  12    -0.354911531617E+03   -0.10266E-04   -0.75131E-05 23912   0.347E-02    0.826E-02
DAV:  13    -0.354911531056E+03    0.56155E-06   -0.32343E-05 21760   0.239E-02
  58 F= -.35491153E+03 E0= -.35489570E+03  d E =-.544042E-02  mag=     8.0000
       N       E                     dE             d eps       ncg     rms          rms(c)
DAV:   1    -0.354908593107E+03    0.29385E-02   -0.55991E-01 31288   0.222E+00    0.158E-01
DAV:   2    -0.354911630316E+03   -0.30372E-02   -0.24242E-02 29432   0.425E-01    0.728E-01
DAV:   3    -0.354910582190E+03    0.10481E-02   -0.31384E-03 35760   0.169E-01    0.129E-01
DAV:   4    -0.354910757002E+03   -0.17481E-03   -0.31984E-04 30192   0.495E-02    0.198E-01
DAV:   5    -0.354910687728E+03    0.69273E-04   -0.22749E-04 24104   0.379E-02    0.106E-01
DAV:   6    -0.354910696861E+03   -0.91330E-05   -0.80568E-05 23392   0.344E-02
  59 F= -.35491070E+03 E0= -.35489491E+03  d E =0.834194E-03  mag=     8.0000
       N       E                     dE             d eps       ncg     rms          rms(c)
DAV:   1    -0.354344339487E+03    0.56635E+00   -0.14971E+02 31000   0.353E+01    0.193E+00
DAV:   2    -0.354896533687E+03   -0.55219E+00   -0.57280E+00 28392   0.614E+00    0.210E+00
DAV:   3    -0.354945392786E+03   -0.48859E-01   -0.23970E-01 37440   0.149E+00    0.539E+00
DAV:   4    -0.354888444800E+03    0.56948E-01   -0.12746E-01 38880   0.105E+00    0.195E+00
DAV:   5    -0.354886266627E+03    0.21782E-02   -0.34947E-02 38104   0.459E-01    0.965E-01
DAV:   6    -0.354889110458E+03   -0.28438E-02   -0.24757E-02 37312   0.488E-01    0.164E+00
DAV:   7    -0.354882955767E+03    0.61547E-02   -0.25428E-02 38000   0.472E-01    0.961E-01
DAV:   8    -0.354882348827E+03    0.60694E-03   -0.79462E-03 39072   0.318E-01    0.685E-01
DAV:   9    -0.354882243199E+03    0.10563E-03   -0.45745E-03 39000   0.257E-01    0.561E-01
DAV:  10    -0.354882031299E+03    0.21190E-03   -0.27894E-03 38032   0.173E-01    0.396E-01
DAV:  11    -0.354881818891E+03    0.21241E-03   -0.96049E-04 37536   0.106E-01    0.171E-01
DAV:  12    -0.354881820318E+03   -0.14268E-05   -0.17558E-04 31880   0.488E-02    0.124E-01
DAV:  13    -0.354881845234E+03   -0.24916E-04   -0.13169E-04 26496   0.415E-02    0.181E-01
DAV:  14    -0.354881799926E+03    0.45308E-04   -0.17231E-04 26440   0.411E-02    0.131E-01
DAV:  15    -0.354881784741E+03    0.15184E-04   -0.12745E-04 25920   0.480E-02    0.103E-01
DAV:  16    -0.354881781474E+03    0.32676E-05   -0.88780E-05 27984   0.392E-02
  60 F= -.35488178E+03 E0= -.35486621E+03  d E =0.289154E-01  mag=     8.0000
       N       E                     dE             d eps       ncg     rms          rms(c)
DAV:   1    -0.354471437904E+03    0.41035E+00   -0.61058E+01 32736   0.258E+01    0.171E+00
DAV:   2    -0.354847693958E+03   -0.37626E+00   -0.40569E+00 28464   0.493E+00    0.313E+00
DAV:   3    -0.354854356295E+03   -0.66623E-02   -0.21960E-01 38768   0.150E+00    0.371E+00
DAV:   4    -0.354836924777E+03    0.17432E-01   -0.11182E-01 39352   0.829E-01    0.206E+00
DAV:   5    -0.354834270063E+03    0.26547E-02   -0.51763E-02 36792   0.524E-01    0.168E+00
DAV:   6    -0.354833132856E+03    0.11372E-02   -0.22683E-02 37880   0.430E-01    0.158E+00
DAV:   7    -0.354830250905E+03    0.28820E-02   -0.18803E-02 38608   0.405E-01    0.122E+00
DAV:   8    -0.354826114520E+03    0.41364E-02   -0.16970E-02 37088   0.412E-01    0.942E-01
DAV:   9    -0.354827028213E+03   -0.91369E-03   -0.87718E-03 38048   0.339E-01    0.129E+00
DAV:  10    -0.354823718993E+03    0.33092E-02   -0.88258E-03 38776   0.317E-01    0.574E-01
DAV:  11    -0.354824485793E+03   -0.76680E-03   -0.41229E-03 39560   0.260E-01    0.739E-01
DAV:  12    -0.354825343377E+03   -0.85758E-03   -0.79555E-03 38000   0.249E-01    0.890E-01
DAV:  13    -0.354824168297E+03    0.11751E-02   -0.38490E-03 37080   0.186E-01    0.367E-01
DAV:  14    -0.354824635834E+03   -0.46754E-03   -0.80681E-04 38072   0.988E-02    0.384E-01
DAV:  15    -0.354824651341E+03   -0.15507E-04   -0.53314E-04 37344   0.762E-02    0.342E-01
DAV:  16    -0.354824666425E+03   -0.15084E-04   -0.18379E-04 33808   0.517E-02    0.284E-01
DAV:  17    -0.354824739878E+03   -0.73453E-04   -0.26777E-04 34720   0.591E-02    0.254E-01
DAV:  18    -0.354824727741E+03    0.12137E-04   -0.47517E-04 37032   0.853E-02    0.149E-01
DAV:  19    -0.354824728719E+03   -0.97750E-06   -0.34221E-04 39392   0.713E-02    0.104E-01
DAV:  20    -0.354824702895E+03    0.25824E-04   -0.12206E-04 30816   0.429E-02    0.546E-02
DAV:  21    -0.354824704828E+03   -0.19334E-05   -0.41513E-05 24696   0.284E-02
  61 F= -.35482470E+03 E0= -.35480847E+03  d E =0.570766E-01  mag=     8.0000
       N       E                     dE             d eps       ncg     rms          rms(c)
DAV:   1    -0.354326322952E+03    0.49838E+00   -0.14661E+02 30880   0.360E+01    0.205E+00
DAV:   2    -0.354923856983E+03   -0.59753E+00   -0.62731E+00 28336   0.639E+00    0.223E+00
DAV:   3    -0.354968068373E+03   -0.44211E-01   -0.35857E-01 38008   0.164E+00    0.477E+00
DAV:   4    -0.354912462331E+03    0.55606E-01   -0.16305E-01 38616   0.106E+00    0.160E+00
DAV:   5    -0.354915977912E+03   -0.35156E-02   -0.28523E-02 39248   0.549E-01    0.175E+00
DAV:   6    -0.354913584268E+03    0.23936E-02   -0.20593E-02 39136   0.516E-01    0.164E+00
DAV:   7    -0.354911729504E+03    0.18548E-02   -0.30156E-02 37432   0.507E-01    0.163E+00
DAV:   8    -0.354907179744E+03    0.45498E-02   -0.18629E-02 39048   0.398E-01    0.882E-01
DAV:   9    -0.354907521727E+03   -0.34198E-03   -0.12203E-02 39224   0.338E-01    0.865E-01
DAV:  10    -0.354907047261E+03    0.47447E-03   -0.74708E-03 37576   0.261E-01    0.733E-01
DAV:  11    -0.354906310310E+03    0.73695E-03   -0.24460E-03 39056   0.182E-01    0.262E-01
DAV:  12    -0.354906623682E+03   -0.31337E-03   -0.61107E-04 38560   0.962E-02    0.243E-01
DAV:  13    -0.354906667485E+03   -0.43803E-04   -0.28324E-04 35912   0.658E-02    0.224E-01
DAV:  14    -0.354906680165E+03   -0.12680E-04   -0.90448E-05 27144   0.318E-02    0.219E-01
DAV:  15    -0.354906657895E+03    0.22270E-04   -0.42294E-05 22176   0.212E-02    0.205E-01
DAV:  16    -0.354906670170E+03   -0.12275E-04   -0.68995E-05 26344   0.312E-02    0.185E-01
DAV:  17    -0.354906659323E+03    0.10847E-04   -0.17069E-04 34544   0.566E-02    0.149E-01
DAV:  18    -0.354906597877E+03    0.61446E-04   -0.27366E-04 36152   0.684E-02    0.879E-02
DAV:  19    -0.354906589125E+03    0.87526E-05   -0.11315E-04 31352   0.417E-02    0.848E-02
DAV:  20    -0.354906595356E+03   -0.62314E-05   -0.39684E-05 23000   0.278E-02
  62 F= -.35490660E+03 E0= -.35489069E+03  d E =-.818905E-01  mag=     8.0000
       N       E                     dE             d eps       ncg     rms          rms(c)
DAV:   1    -0.354749750249E+03    0.15684E+00   -0.16754E+01 33136   0.140E+01    0.116E+00
DAV:   2    -0.354878745470E+03   -0.12900E+00   -0.13204E+00 28616   0.282E+00    0.211E+00
DAV:   3    -0.354875645416E+03    0.31001E-02   -0.69885E-02 35896   0.683E-01    0.169E+00
DAV:   4    -0.354874688651E+03    0.95677E-03   -0.29430E-02 37928   0.399E-01    0.149E+00
DAV:   5    -0.354874140305E+03    0.54835E-03   -0.14142E-02 37928   0.364E-01    0.144E+00
DAV:   6    -0.354873044700E+03    0.10956E-02   -0.14123E-02 38016   0.334E-01    0.130E+00
DAV:   7    -0.354872574175E+03    0.47053E-03   -0.13792E-02 37536   0.441E-01    0.127E+00
DAV:   8    -0.354870582779E+03    0.19914E-02   -0.12101E-02 38616   0.421E-01    0.103E+00
DAV:   9    -0.354870217094E+03    0.36569E-03   -0.65053E-03 38504   0.276E-01    0.809E-01
DAV:  10    -0.354869690295E+03    0.52680E-03   -0.34087E-03 38216   0.209E-01    0.367E-01
DAV:  11    -0.354869843975E+03   -0.15368E-03   -0.16959E-03 38136   0.112E-01    0.338E-01
DAV:  12    -0.354869802738E+03    0.41238E-04   -0.18099E-04 30640   0.476E-02    0.285E-01
DAV:  13    -0.354869808745E+03   -0.60073E-05   -0.24470E-05 21720   0.201E-02
  63 F= -.35486981E+03 E0= -.35485416E+03  d E =0.367866E-01  mag=     8.0000
       N       E                     dE             d eps       ncg     rms          rms(c)
DAV:   1    -0.354798640165E+03    0.71163E-01   -0.18029E+01 32432   0.142E+01    0.104E+00
DAV:   2    -0.354917949671E+03   -0.11931E+00   -0.11816E+00 28624   0.278E+00    0.234E+00
DAV:   3    -0.354910382858E+03    0.75668E-02   -0.47152E-02 37384   0.720E-01    0.139E+00
DAV:   4    -0.354910413366E+03   -0.30507E-04   -0.11117E-02 38632   0.312E-01    0.131E+00
DAV:   5    -0.354910925672E+03   -0.51231E-03   -0.11986E-02 36832   0.286E-01    0.142E+00
DAV:   6    -0.354909512897E+03    0.14128E-02   -0.93391E-03 37576   0.254E-01    0.126E+00
DAV:   7    -0.354908116175E+03    0.13967E-02   -0.71432E-03 39200   0.305E-01    0.112E+00
DAV:   8    -0.354904150957E+03    0.39652E-02   -0.95417E-03 37352   0.388E-01    0.764E-01
DAV:   9    -0.354906920840E+03   -0.27699E-02   -0.96927E-03 38560   0.374E-01    0.134E+00
DAV:  10    -0.354905449794E+03    0.14710E-02   -0.81422E-03 39400   0.311E-01    0.722E-01
DAV:  11    -0.354905840296E+03   -0.39050E-03   -0.19663E-03 37824   0.188E-01    0.472E-01
DAV:  12    -0.354906008396E+03   -0.16810E-03   -0.92858E-04 34888   0.100E-01    0.500E-01
DAV:  13    -0.354905915010E+03    0.93386E-04   -0.30618E-04 37536   0.665E-02    0.427E-01
DAV:  14    -0.354906324410E+03   -0.40940E-03   -0.10213E-03 39104   0.104E-01    0.501E-01
DAV:  15    -0.354906432051E+03   -0.10764E-03   -0.28391E-03 37736   0.159E-01    0.457E-01
DAV:  16    -0.354906128130E+03    0.30392E-03   -0.14462E-03 37992   0.131E-01    0.207E-01
DAV:  17    -0.354906114477E+03    0.13653E-04   -0.39266E-04 38664   0.770E-02    0.123E-01
DAV:  18    -0.354906113270E+03    0.12070E-05   -0.15934E-04 37512   0.524E-02    0.850E-02
DAV:  19    -0.354906108484E+03    0.47858E-05   -0.84961E-05 26744   0.386E-02
  64 F= -.35490611E+03 E0= -.35489024E+03  d E =-.362997E-01  mag=     8.0000
