       N       E                     dE             d eps       ncg     rms          ort
DAV:   1     0.691754940878E+04    0.69175E+04   -0.27067E+05  8320   0.167E+03
DAV:   2     0.722024134403E+03   -0.61955E+04   -0.58828E+04  8320   0.497E+02
DAV:   3    -0.360981086190E+03   -0.10830E+04   -0.10614E+04  8320   0.204E+02
DAV:   4    -0.424798429506E+03   -0.63817E+02   -0.61023E+02  8320   0.505E+01
DAV:   5    -0.430781043713E+03   -0.59826E+01   -0.57708E+01  8320   0.120E+01
SDA:   6    -0.144757323741E+03    0.28602E+03   -0.57708E+01  8320   0.234E+04 0.000E+00
CGA:   7    -0.222094804864E+03   -0.77337E+02   -0.13632E+03  8320   0.514E+04-0.178E+04
CGA:   8     0.370643099996E+01    0.22580E+03   -0.32087E+03  8320   0.722E+04-0.308E+04
CGA:   9     0.122288283436E+03    0.11858E+03   -0.32108E+03  8320   0.184E+05-0.339E+04
CGA:  10    -0.241587365948E+03   -0.36388E+03   -0.32186E+03  8320   0.415E+04 0.223E+04
CGA:  11    -0.279372716344E+03   -0.37785E+02   -0.30056E+03  8320   0.595E+04-0.545E+04
CGA:  12    -0.281964492670E+03   -0.25918E+01   -0.37576E+03  8320   0.284E+04-0.291E+04
CGA:  13    -0.346467965848E+03   -0.64503E+02   -0.40637E+02  8320   0.251E+03 0.347E+03
CGA:  14    -0.357000220552E+03   -0.10532E+02   -0.24282E+01  8320   0.378E+03 0.643E+03
CGA:  15    -0.362983500082E+03   -0.59833E+01   -0.49386E+01  8320   0.103E+03 0.151E+03
CGA:  16    -0.366461215116E+03   -0.34777E+01   -0.22281E+01  8320   0.463E+02 0.803E+02
CGA:  17    -0.367397353692E+03   -0.93614E+00   -0.49070E+00  8320   0.379E+02 0.424E+02
CGA:  18    -0.368243842747E+03   -0.84649E+00   -0.43619E+00  8320   0.316E+02 0.358E+02
CGA:  19    -0.369115989908E+03   -0.87215E+00   -0.44814E+00  8320   0.250E+02 0.297E+02
CGA:  20    -0.370035260745E+03   -0.91927E+00   -0.49652E+00  8320   0.160E+02 0.202E+02
CGA:  21    -0.371553462367E+03   -0.15182E+01   -0.12547E+01  8320   0.439E+02-0.278E+00
CGA:  22    -0.374925306122E+03   -0.33718E+01   -0.36338E+01  8320   0.484E+02 0.158E+01
CGA:  23    -0.376613074289E+03   -0.16878E+01   -0.20797E+01  8320   0.218E+02-0.174E+02
CGA:  24    -0.377193074774E+03   -0.58000E+00   -0.53277E+00  8320   0.124E+02 0.962E+00
CGA:  25    -0.377737629303E+03   -0.54455E+00   -0.39279E+00  8320   0.948E+01 0.447E+01
CGA:  26    -0.378345136019E+03   -0.60751E+00   -0.48627E+00  8320   0.116E+02 0.241E+01
CGA:  27    -0.378729735811E+03   -0.38460E+00   -0.46880E+00  8320   0.137E+02-0.312E+01
CGA:  28    -0.378934536380E+03   -0.20480E+00   -0.29599E+00  8320   0.187E+02-0.228E+01
CGA:  29    -0.379343272043E+03   -0.40874E+00   -0.41757E+00  8320   0.171E+02-0.555E+00
CGA:  30    -0.379687972768E+03   -0.34470E+00   -0.34655E+00  8320   0.108E+02-0.950E+00
CGA:  31    -0.379909799009E+03   -0.22183E+00   -0.26998E+00  8320   0.994E+01-0.130E+01
CGA:  32    -0.380114462784E+03   -0.20466E+00   -0.22848E+00  8320   0.632E+01-0.474E+00
CGA:  33    -0.380263051004E+03   -0.14859E+00   -0.15844E+00  8320   0.447E+01-0.298E+00
CGA:  34    -0.380478475460E+03   -0.21542E+00   -0.22128E+00  8320   0.869E+01-0.466E-01
CGA:  35    -0.380862171957E+03   -0.38370E+00   -0.32507E+00  8320   0.466E+01 0.117E+01
CGA:  36    -0.380994236084E+03   -0.13206E+00   -0.11988E+00  8320   0.338E+01 0.339E+00
CGA:  37    -0.381125664562E+03   -0.13143E+00   -0.12335E+00  8320   0.504E+01 0.158E+00
CGA:  38    -0.381241575136E+03   -0.11591E+00   -0.10452E+00  8320   0.412E+01 0.384E+00
CGA:  39    -0.381316509487E+03   -0.74934E-01   -0.88457E-01  8320   0.320E+01-0.583E+00
CGA:  40    -0.381376074419E+03   -0.59565E-01   -0.66176E-01  8320   0.428E+01-0.222E+00
CGA:  41    -0.381511507920E+03   -0.13543E+00   -0.15105E+00  8320   0.737E+01-0.100E+00
CGA:  42    -0.381673570536E+03   -0.16206E+00   -0.10721E+00  8320   0.363E+01 0.308E+01
CGA:  43    -0.381746642637E+03   -0.73072E-01   -0.58902E-01  8320   0.159E+01 0.981E+00
CGA:  44    -0.381783400436E+03   -0.36758E-01   -0.29709E-01  8320   0.204E+01 0.381E+00
CGA:  45    -0.381819595517E+03   -0.36195E-01   -0.28076E-01  8320   0.290E+01 0.608E+00
CGA:  46    -0.381859432167E+03   -0.39837E-01   -0.35299E-01  8320   0.363E+01 0.358E+00
CGA:  47    -0.381889872762E+03   -0.30441E-01   -0.38081E-01  8320   0.428E+01-0.756E+00
CGA:  48    -0.381908851659E+03   -0.18979E-01   -0.24352E-01  8320   0.439E+01-0.656E+00
CGA:  49    -0.381932793667E+03   -0.23942E-01   -0.25871E-01  8320   0.444E+01-0.259E+00
CGA:  50    -0.381966036528E+03   -0.33243E-01   -0.40030E-01  8320   0.590E+01-0.630E+00
SDA:  51    -0.382011056241E+03   -0.45020E-01   -0.44581E-01  8320   0.664E+01-0.563E-01
CGA:  52    -0.382174641627E+03   -0.16359E+00   -0.16733E+00  8320   0.219E+01-0.989E-01
CGA:  53    -0.382270610824E+03   -0.95969E-01   -0.97866E-01  8320   0.807E+00-0.197E+00
CGA:  54    -0.382310381098E+03   -0.39770E-01   -0.39463E-01  8320   0.595E+00 0.177E-01
CGA:  55    -0.382365200976E+03   -0.54820E-01   -0.58350E-01  8320   0.200E+01-0.693E-01
CGA:  56    -0.382421744945E+03   -0.56544E-01   -0.53515E-01  8320   0.906E+00-0.945E-02
CGA:  57    -0.382440346883E+03   -0.18602E-01   -0.16719E-01  8320   0.708E+00 0.637E-01
CGA:  58    -0.382469439516E+03   -0.29093E-01   -0.28978E-01  8320   0.128E+01-0.163E-01
CGA:  59    -0.382490359265E+03   -0.20920E-01   -0.21450E-01  8320   0.656E+00-0.240E-01
CGA:  60    -0.382505655202E+03   -0.15296E-01   -0.15258E-01  8320   0.986E+00-0.132E-02
CGA:  61    -0.382534205940E+03   -0.28551E-01   -0.27596E-01  8320   0.158E+01-0.132E-01
CGA:  62    -0.382562805235E+03   -0.28599E-01   -0.29492E-01  8320   0.138E+01-0.461E-01
CGA:  63    -0.382582519369E+03   -0.19714E-01   -0.21551E-01  8320   0.867E+00-0.831E-01
CGA:  64    -0.382595273175E+03   -0.12754E-01   -0.13817E-01  8320   0.692E+00-0.379E-01
CGA:  65    -0.382615691084E+03   -0.20418E-01   -0.20603E-01  8320   0.808E+00 0.162E-01
CGA:  66    -0.382629266139E+03   -0.13575E-01   -0.13586E-01  8320   0.310E+00-0.376E-02
CGA:  67    -0.382638249981E+03   -0.89838E-02   -0.89933E-02  8320   0.548E+00 0.327E-03
CGA:  68    -0.382659230480E+03   -0.20980E-01   -0.20998E-01  8320   0.608E+00-0.300E-02
CGA:  69    -0.382672496243E+03   -0.13266E-01   -0.12921E-01  8320   0.701E+00 0.282E-02
CGA:  70    -0.382696298309E+03   -0.23802E-01   -0.23813E-01  8320   0.116E+01-0.336E-01
CGA:  71    -0.382711698689E+03   -0.15400E-01   -0.16144E-01  8320   0.427E+00-0.314E-01
CGA:  72    -0.382717436668E+03   -0.57380E-02   -0.56666E-02  8320   0.309E+00 0.327E-02
CGA:  73    -0.382727196736E+03   -0.97601E-02   -0.97592E-02  8320   0.587E+00-0.954E-03
CGA:  74    -0.382736325668E+03   -0.91289E-02   -0.89694E-02  8320   0.300E+00 0.519E-02
CGA:  75    -0.382741452768E+03   -0.51271E-02   -0.51127E-02  8320   0.362E+00 0.334E-03
CGA:  76    -0.382754030755E+03   -0.12578E-01   -0.12610E-01  8320   0.968E+00-0.414E-02
CGA:  77    -0.382770538497E+03   -0.16508E-01   -0.16273E-01  8320   0.634E+00 0.360E-02
CGA:  78    -0.382778114025E+03   -0.75755E-02   -0.75813E-02  8320   0.371E+00-0.256E-02
CGA:  79    -0.382783975961E+03   -0.58619E-02   -0.58799E-02  8320   0.328E+00-0.104E-02
CGA:  80    -0.382789111881E+03   -0.51359E-02   -0.51024E-02  8320   0.333E+00 0.607E-03
CGA:  81    -0.382795433140E+03   -0.63213E-02   -0.62237E-02  8320   0.432E+00-0.217E-03
SDA:  82    -0.382801482925E+03   -0.60498E-02   -0.59775E-02  8320   0.350E+00 0.213E-02
CGA:  83    -0.382809869442E+03   -0.83865E-02   -0.83765E-02  8320   0.207E+00-0.163E-02
CGA:  84    -0.382816764048E+03   -0.68946E-02   -0.69054E-02  8320   0.107E+00-0.111E-02
CGA:  85    -0.382830578822E+03   -0.13815E-01   -0.11069E-04  8320   0.547E+00-0.304E-01
CGA:  86    -0.382842996780E+03   -0.12418E-01   -0.12108E-01  8320   0.325E+00-0.308E-02
CGA:  87    -0.382850925122E+03   -0.79283E-02   -0.82119E-02  8320   0.236E+00-0.596E-02
CGA:  88    -0.382860187648E+03   -0.92625E-02   -0.90333E-02  8320   0.216E+00-0.857E-02
CGA:  89    -0.382868677577E+03   -0.84899E-02   -0.83266E-02  8320   0.438E+00-0.922E-02
CGA:  90    -0.382881471769E+03   -0.12794E-01   -0.12427E-01  8320   0.406E+00 0.431E-02
CGA:  91    -0.382887408738E+03   -0.59370E-02   -0.58143E-02  8320   0.172E+00 0.642E-02
CGA:  92    -0.382891278893E+03   -0.38702E-02   -0.39578E-02  8320   0.198E+00-0.176E-02
CGA:  93    -0.382895689874E+03   -0.44110E-02   -0.44440E-02  8320   0.125E+00-0.688E-04
CGA:  94    -0.382897719014E+03   -0.20291E-02   -0.19599E-02  8320   0.792E-01 0.341E-02
CGA:  95    -0.382900201977E+03   -0.24830E-02   -0.24321E-02  8320   0.153E+00-0.704E-03
CGA:  96    -0.382903347920E+03   -0.31459E-02   -0.28974E-02  8320   0.166E+00 0.723E-02
CGA:  97    -0.382905968721E+03   -0.26208E-02   -0.24664E-02  8320   0.150E+00 0.744E-02
CGA:  98    -0.382908703151E+03   -0.27344E-02   -0.27076E-02  8320   0.209E+00 0.492E-03
CGA:  99    -0.382912190327E+03   -0.34872E-02   -0.36155E-02  8320   0.212E+00-0.426E-02
CGA: 100    -0.382914597301E+03   -0.24070E-02   -0.24199E-02  8320   0.117E+00-0.998E-03
CGA: 101    -0.382916236815E+03   -0.16395E-02   -0.16625E-02  8320   0.115E+00-0.120E-02
CGA: 102    -0.382918403350E+03   -0.21665E-02   -0.21691E-02  8320   0.133E+00-0.425E-04
CGA: 103    -0.382920153461E+03   -0.17501E-02   -0.17097E-02  8320   0.760E-01 0.216E-02
CGA: 104    -0.382921167690E+03   -0.10142E-02   -0.10137E-02  8320   0.628E-01-0.326E-04
CGA: 105    -0.382922510785E+03   -0.13431E-02   -0.13372E-02  8320   0.115E+00-0.478E-04
CGA: 106    -0.382924777406E+03   -0.22666E-02   -0.22210E-02  8320   0.162E+00 0.216E-03
CGA: 107    -0.382927044756E+03   -0.22673E-02   -0.22603E-02  8320   0.157E+00 0.176E-03
CGA: 108    -0.382929387497E+03   -0.23427E-02   -0.24050E-02  8320   0.176E+00-0.164E-02
CGA: 109    -0.382932085502E+03   -0.26980E-02   -0.27410E-02  8320   0.137E+00-0.285E-03
CGA: 110    -0.382933560968E+03   -0.14755E-02   -0.14084E-02  8320   0.582E-01 0.504E-02
CGA: 111    -0.382934271421E+03   -0.71045E-03   -0.69859E-03  8320   0.442E-01 0.645E-03
CGA: 112    -0.382935117452E+03   -0.84603E-03   -0.83999E-03  8320   0.800E-01-0.126E-03
SDA: 113    -0.382936575024E+03   -0.14576E-02   -0.14284E-02  8320   0.122E+00-0.277E-03
CGA: 114    -0.382939246931E+03   -0.26719E-02   -0.26706E-02  8320   0.296E-01-0.138E-03
CGA: 115    -0.382941238983E+03   -0.19921E-02   -0.19833E-02  8320   0.303E-01 0.233E-03
CGA: 116    -0.382945698446E+03   -0.44595E-02   -0.39326E-04  8320   0.131E+00-0.569E-02
CGA: 117    -0.382947242296E+03   -0.15439E-02   -0.15721E-02  8320   0.414E-01-0.145E-02
CGA: 118    -0.382948596253E+03   -0.13540E-02   -0.13532E-02  8320   0.446E-01 0.386E-04
CGA: 119    -0.382949338953E+03   -0.74270E-03   -0.73680E-03  8320   0.233E-01 0.361E-03
CGA: 120    -0.382951182647E+03   -0.18437E-02   -0.18563E-02  8320   0.117E+00-0.357E-03
CGA: 121    -0.382953542155E+03   -0.23595E-02   -0.24137E-02  8320   0.457E-01-0.108E-02
CGA: 122    -0.382954379832E+03   -0.83768E-03   -0.86069E-03  8320   0.317E-01-0.688E-03
CGA: 123    -0.382955040215E+03   -0.66038E-03   -0.65593E-03  8320   0.207E-01 0.202E-03
CGA: 124    -0.382955581885E+03   -0.54167E-03   -0.53216E-03  8320   0.207E-01 0.124E-03
CGA: 125    -0.382956055770E+03   -0.47388E-03   -0.47895E-03  8320   0.246E-01-0.128E-03
CGA: 126    -0.382957485741E+03   -0.14300E-02   -0.13921E-02  8320   0.503E-01 0.183E-02
CGA: 127    -0.382958364974E+03   -0.87923E-03   -0.75612E-03  8320   0.224E-01 0.677E-02
CGA: 128    -0.382959227590E+03   -0.86262E-03   -0.84321E-03  8320   0.396E-01-0.732E-03
CGA: 129    -0.382959744344E+03   -0.51675E-03   -0.53013E-03  8320   0.187E-01-0.731E-03
CGA: 130    -0.382960014563E+03   -0.27022E-03   -0.28516E-03  8320   0.213E-01-0.695E-03
CGA: 131    -0.382960919658E+03   -0.90509E-03   -0.89960E-03  8320   0.519E-01 0.526E-03
CGA: 132    -0.382961630771E+03   -0.71111E-03   -0.52770E-03  8320   0.353E-01 0.160E-01
CGA: 133    -0.382962316287E+03   -0.68552E-03   -0.61683E-03  8320   0.426E-01 0.393E-02
CGA: 134    -0.382962969594E+03   -0.65331E-03   -0.65066E-03  8320   0.566E-01 0.563E-03
CGA: 135    -0.382963626651E+03   -0.65706E-03   -0.72484E-03  8320   0.511E-01-0.260E-02
CGA: 136    -0.382964150362E+03   -0.52371E-03   -0.49520E-03  8320   0.314E-01 0.271E-02
CGA: 137    -0.382964486962E+03   -0.33660E-03   -0.31331E-03  8320   0.224E-01 0.208E-02
CGA: 138    -0.382964803398E+03   -0.31644E-03   -0.30328E-03  8320   0.314E-01 0.777E-03
CGA: 139    -0.382965237777E+03   -0.43438E-03   -0.42195E-03  8320   0.440E-01 0.796E-03
CGA: 140    -0.382965673336E+03   -0.43556E-03   -0.46080E-03  8320   0.329E-01-0.143E-02
CGA: 141    -0.382965953187E+03   -0.27985E-03   -0.30831E-03  8320   0.246E-01-0.200E-02
CGA: 142    -0.382966312173E+03   -0.35899E-03   -0.37373E-03  8320   0.416E-01-0.172E-03
CGA: 143    -0.382967078777E+03   -0.76660E-03   -0.73961E-03  8320   0.490E-01 0.268E-03
SDA: 144    -0.382967608885E+03   -0.53011E-03   -0.46889E-03  8320   0.429E-01 0.481E-02
CGA: 145    -0.382968925900E+03   -0.13170E-02   -0.13157E-02  8320   0.335E-01 0.160E-03
CGA: 146    -0.382969897504E+03   -0.97160E-03   -0.97244E-03  8320   0.306E-01-0.183E-03
CGA: 147    -0.382971433746E+03   -0.15362E-02   -0.15382E-02  8320   0.475E-01-0.653E-04
CGA: 148    -0.382973888947E+03   -0.24552E-02   -0.25072E-02  8320   0.391E-01-0.220E-02
CGA: 149    -0.382977061532E+03   -0.31726E-02   -0.29693E-02  8320   0.337E-01 0.429E-02
CGA: 150    -0.382978085214E+03   -0.10237E-02   -0.10203E-02  8320   0.352E-01-0.303E-03
CGA: 151    -0.382979392416E+03   -0.13072E-02   -0.12824E-02  8320   0.203E-01 0.278E-02
CGA: 152    -0.382980122086E+03   -0.72967E-03   -0.73054E-03  8320   0.142E-01-0.189E-03
CGA: 153    -0.382980999648E+03   -0.87756E-03   -0.90008E-03  8320   0.261E-01-0.719E-03
CGA: 154    -0.382981623641E+03   -0.62399E-03   -0.63819E-03  8320   0.192E-01 0.525E-03
CGA: 155    -0.382982526579E+03   -0.90294E-03   -0.90906E-03  8320   0.695E-02-0.357E-03
CGA: 156    -0.382983337092E+03   -0.81051E-03   -0.81089E-03  8320   0.155E-01-0.131E-04
CGA: 157    -0.382984276712E+03   -0.93962E-03   -0.11672E-02  8320   0.784E-01-0.640E-02
CGA: 158    -0.382984659164E+03   -0.38245E-03   -0.29945E-03  8320   0.843E-01 0.115E-01
CGA: 159    -0.382985555282E+03   -0.89612E-03   -0.12135E-02  8320   0.223E-01-0.170E-01
CGA: 160    -0.382985845459E+03   -0.29018E-03   -0.30402E-03  8320   0.188E-01-0.479E-03
CGA: 161    -0.382986269351E+03   -0.42389E-03   -0.42004E-03  8320   0.143E-01 0.105E-04
CGA: 162    -0.382986697772E+03   -0.42842E-03   -0.42750E-03  8320   0.250E-01-0.510E-04
CGA: 163    -0.382987499601E+03   -0.80183E-03   -0.80664E-03  8320   0.359E-01 0.930E-03
CGA: 164    -0.382989002356E+03   -0.15028E-02   -0.15122E-02  8320   0.420E-01-0.108E-02
CGA: 165    -0.382989625794E+03   -0.62344E-03   -0.58565E-03  8320   0.210E-01 0.176E-02
CGA: 166    -0.382990135748E+03   -0.50995E-03   -0.50900E-03  8320   0.239E-01 0.232E-04
CGA: 167    -0.382990540409E+03   -0.40466E-03   -0.41705E-03  8320   0.168E-01-0.286E-03
CGA: 168    -0.382991339786E+03   -0.79938E-03   -0.77634E-03  8320   0.679E-01 0.129E-02
CGA: 169    -0.382993877225E+03   -0.25374E-02   -0.26705E-02  8320   0.463E-01-0.242E-01
CGA: 170    -0.382994482640E+03   -0.60542E-03   -0.58340E-03  8320   0.387E-01 0.522E-03
CGA: 171    -0.382995050277E+03   -0.56764E-03   -0.59543E-03  8320   0.136E-01-0.954E-03
CGA: 172    -0.382995496062E+03   -0.44579E-03   -0.44540E-03  8320   0.173E-01 0.130E-03
CGA: 173    -0.382995974710E+03   -0.47865E-03   -0.47793E-03  8320   0.201E-01-0.293E-04
CGA: 174    -0.382996682155E+03   -0.70745E-03   -0.70698E-03  8320   0.243E-01 0.111E-03
SDA: 175    -0.382997425096E+03   -0.74294E-03   -0.74439E-03  8320   0.203E-01 0.524E-03
CGA: 176    -0.382997924653E+03   -0.49956E-03   -0.49895E-03  8320   0.174E-01-0.850E-05
CGA: 177    -0.382998405595E+03   -0.48094E-03   -0.48130E-03  8320   0.924E-02 0.422E-04
CGA: 178    -0.382999156165E+03   -0.75057E-03   -0.73969E-03  8320   0.212E-01 0.242E-03
CGA: 179    -0.383000478399E+03   -0.13222E-02   -0.13248E-02  8320   0.222E-01-0.106E-03
CGA: 180    -0.383001688192E+03   -0.12098E-02   -0.11823E-02  8320   0.176E-01 0.123E-02
CGA: 181    -0.383002000831E+03   -0.31264E-03   -0.30722E-03  8320   0.688E-02 0.173E-03
CGA: 182    -0.383002442106E+03   -0.44128E-03   -0.44057E-03  8320   0.390E-02 0.174E-04
CGA: 183    -0.383002727955E+03   -0.28585E-03   -0.28897E-03  8320   0.394E-02-0.847E-04
CGA: 184    -0.383002854164E+03   -0.12621E-03   -0.12607E-03  8320   0.414E-02-0.256E-04
CGA: 185    -0.383003017891E+03   -0.16373E-03   -0.16385E-03  8320   0.498E-02-0.499E-04
CGA: 186    -0.383003156775E+03   -0.13888E-03   -0.13960E-03  8320   0.106E-02-0.152E-05
CGA: 187    -0.383003264044E+03   -0.10727E-03   -0.10528E-03  8320   0.145E-02 0.315E-04
CGA: 188    -0.383003447091E+03   -0.18305E-03   -0.17789E-03  8320   0.258E-02 0.648E-04
CGA: 189    -0.383003511084E+03   -0.63993E-04   -0.63890E-04  8320   0.200E-02 0.306E-04
CGA: 190    -0.383003577318E+03   -0.66234E-04   -0.66531E-04  8320   0.798E-03 0.179E-04
CGA: 191    -0.383003636729E+03   -0.59410E-04   -0.59475E-04  8320   0.217E-02-0.292E-05
CGA: 192    -0.383003815677E+03   -0.17895E-03   -0.18749E-03  8320   0.252E-02-0.211E-03
CGA: 193    -0.383003869286E+03   -0.53609E-04   -0.54163E-04  8320   0.188E-02-0.273E-04
CGA: 194    -0.383003921165E+03   -0.51879E-04   -0.51355E-04  8320   0.489E-03-0.296E-05
CGA: 195    -0.383004017694E+03   -0.96529E-04   -0.96804E-04  8320   0.231E-02-0.584E-05
CGA: 196    -0.383004089158E+03   -0.71464E-04   -0.72033E-04  8320   0.161E-02 0.405E-05
CGA: 197    -0.383004132058E+03   -0.42900E-04   -0.42648E-04  8320   0.122E-02 0.128E-04
CGA: 198    -0.383004177126E+03   -0.45069E-04   -0.45168E-04  8320   0.773E-03 0.695E-05
CGA: 199    -0.383004248576E+03   -0.71450E-04   -0.70504E-04  8320   0.879E-03 0.222E-04
CGA: 200    -0.383004296921E+03   -0.48345E-04   -0.48367E-04  8320   0.213E-02-0.376E-05
   1 F= -.38300430E+03 E0= -.38298090E+03  d E =-.383004E+03  mag=     5.0174
       N       E                     dE             d eps       ncg     rms          ort
SDA:   1    -0.321042289505E+03    0.61962E+02    0.00000E+00  8320   0.334E+04 0.000E+00
CGA:   2    -0.373227910439E+03   -0.52186E+02   -0.56267E+02  8320   0.386E+03 0.497E+03
CGA:   3    -0.379856944327E+03   -0.66290E+01   -0.77265E+01  8320   0.846E+02 0.912E+01
CGA:   4    -0.381579879460E+03   -0.17229E+01   -0.10888E+01  8320   0.185E+02 0.454E+02
CGA:   5    -0.382070597014E+03   -0.49072E+00   -0.42804E+00  8320   0.933E+01 0.135E+01
CGA:   6    -0.382511174399E+03   -0.44058E+00   -0.44059E+00  8320   0.884E+01 0.393E-02
CGA:   7    -0.382626103019E+03   -0.11493E+00   -0.65603E-01  8320   0.531E+01 0.679E+01
CGA:   8    -0.382770108045E+03   -0.14401E+00   -0.15757E+00  8320   0.273E+01 0.668E-01
CGA:   9    -0.382836127989E+03   -0.66020E-01   -0.33637E-01  8320   0.132E+01 0.235E+01
CGA:  10    -0.382868178540E+03   -0.32051E-01   -0.26263E-01  8320   0.590E+00 0.157E+00
CGA:  11    -0.382911414935E+03   -0.43236E-01   -0.49758E-01  8320   0.255E+01-0.180E+00
CGA:  12    -0.382938255973E+03   -0.26841E-01   -0.29710E-01  8320   0.240E+01-0.108E+00
CGA:  13    -0.382964140913E+03   -0.25885E-01   -0.26486E-01  8320   0.115E+01-0.433E-01
CGA:  14    -0.382983675990E+03   -0.19535E-01   -0.19237E-01  8320   0.774E+00 0.102E-01
CGA:  15    -0.382991497884E+03   -0.78219E-02   -0.69016E-02  8320   0.193E+00 0.888E-01
CGA:  16    -0.382993692413E+03   -0.21945E-02   -0.20908E-02  8320   0.118E+00 0.872E-02
CGA:  17    -0.382996878047E+03   -0.31856E-02   -0.31679E-02  8320   0.320E+00-0.280E-03
CGA:  18    -0.383002059363E+03   -0.51813E-02   -0.50718E-02  8320   0.311E+00 0.430E-02
CGA:  19    -0.383005280917E+03   -0.32216E-02   -0.32901E-02  8320   0.210E+00-0.485E-02
CGA:  20    -0.383008619243E+03   -0.33383E-02   -0.34056E-02  8320   0.290E+00-0.180E-02
CGA:  21    -0.383012360050E+03   -0.37408E-02   -0.37893E-02  8320   0.137E+00-0.222E-02
CGA:  22    -0.383013474321E+03   -0.11143E-02   -0.10763E-02  8320   0.449E-01 0.393E-02
CGA:  23    -0.383014064841E+03   -0.59052E-03   -0.58633E-03  8320   0.480E-01 0.186E-03
CGA:  24    -0.383014851029E+03   -0.78619E-03   -0.78939E-03  8320   0.529E-01-0.636E-04
CGA:  25    -0.383015442279E+03   -0.59125E-03   -0.59831E-03  8320   0.348E-01-0.419E-03
CGA:  26    -0.383015954446E+03   -0.51217E-03   -0.51249E-03  8320   0.422E-01-0.266E-04
CGA:  27    -0.383016623089E+03   -0.66864E-03   -0.66921E-03  8320   0.425E-01-0.140E-04
CGA:  28    -0.383017145659E+03   -0.52257E-03   -0.51568E-03  8320   0.331E-01 0.315E-03
CGA:  29    -0.383017607296E+03   -0.46164E-03   -0.46132E-03  8320   0.312E-01-0.407E-05
CGA:  30    -0.383017997635E+03   -0.39034E-03   -0.39203E-03  8320   0.249E-01-0.812E-04
CGA:  31    -0.383018357610E+03   -0.35997E-03   -0.36035E-03  8320   0.272E-01-0.112E-04
CGA:  32    -0.383018714324E+03   -0.35671E-03   -0.35345E-03  8320   0.172E-01 0.110E-03
CGA:  33    -0.383018873598E+03   -0.15927E-03   -0.15794E-03  8320   0.803E-02 0.113E-03
CGA:  34    -0.383018985119E+03   -0.11152E-03   -0.11140E-03  8320   0.966E-02 0.870E-05
CGA:  35    -0.383019133722E+03   -0.14860E-03   -0.14880E-03  8320   0.915E-02 0.111E-04
CGA:  36    -0.383019232854E+03   -0.99132E-04   -0.99440E-04  8320   0.673E-02-0.608E-05
CGA:  37    -0.383019366642E+03   -0.13379E-03   -0.13382E-03  8320   0.147E-01 0.151E-04
CGA:  38    -0.383019640467E+03   -0.27382E-03   -0.27392E-03  8320   0.140E-01 0.199E-04
CGA:  39    -0.383019751400E+03   -0.11093E-03   -0.10993E-03  8320   0.311E-02 0.985E-04
SDA:  40    -0.383019781000E+03   -0.29600E-04   -0.29523E-04  8320   0.204E-02 0.489E-05
CGA:  41    -0.383019844590E+03   -0.63590E-04   -0.63601E-04  8320   0.231E-02-0.265E-05
CGA:  42    -0.383019911312E+03   -0.66722E-04   -0.66806E-04  8320   0.140E-02-0.965E-05
CGA:  43    -0.383020057647E+03   -0.14633E-03   -0.53312E-06  8320   0.186E-02-0.315E-03
CGA:  44    -0.383020091438E+03   -0.33791E-04   -0.33741E-04  8320   0.688E-03-0.437E-05
CGA:  45    -0.383020114675E+03   -0.23238E-04   -0.23240E-04  8320   0.533E-03 0.487E-06
CGA:  46    -0.383020134197E+03   -0.19522E-04   -0.19523E-04  8320   0.781E-03 0.441E-05
CGA:  47    -0.383020187610E+03   -0.53413E-04   -0.52843E-04  8320   0.873E-03 0.185E-04
CGA:  48    -0.383020211529E+03   -0.23919E-04   -0.24005E-04  8320   0.460E-03 0.695E-05
CGA:  49    -0.383020230347E+03   -0.18817E-04   -0.18795E-04  8320   0.202E-03 0.656E-05
CGA:  50    -0.383020240240E+03   -0.98930E-05   -0.98866E-05  8320   0.453E-03 0.570E-06
CGA:  51    -0.383020279354E+03   -0.39114E-04   -0.39077E-04  8320   0.102E-02 0.830E-06
CGA:  52    -0.383020307826E+03   -0.28471E-04   -0.28196E-04  8320   0.751E-03-0.927E-06
CGA:  53    -0.383020331199E+03   -0.23373E-04   -0.23383E-04  8320   0.216E-03-0.150E-07
CGA:  54    -0.383020337687E+03   -0.64888E-05   -0.65047E-05  8320   0.201E-03 0.176E-05
CGA:  55    -0.383020353617E+03   -0.15929E-04   -0.15587E-04  8320   0.384E-03 0.894E-05
CGA:  56    -0.383020373171E+03   -0.19554E-04   -0.19456E-04  8320   0.619E-03 0.129E-04
CGA:  57    -0.383020390020E+03   -0.16849E-04   -0.17002E-04  8320   0.220E-03 0.115E-04
CGA:  58    -0.383020395982E+03   -0.59624E-05   -0.60020E-05  8320   0.179E-03 0.272E-05
CGA:  59    -0.383020406222E+03   -0.10240E-04   -0.10224E-04  8320   0.195E-03 0.860E-06
CGA:  60    -0.383020421347E+03   -0.15125E-04   -0.15237E-04  8320   0.567E-03-0.309E-05
CGA:  61    -0.383020442081E+03   -0.20734E-04   -0.20723E-04  8320   0.203E-03-0.337E-05
CGA:  62    -0.383020449348E+03   -0.72663E-05   -0.72725E-05  8320   0.298E-03 0.114E-05
CGA:  63    -0.383020461935E+03   -0.12588E-04   -0.12589E-04  8320   0.258E-03 0.630E-05
CGA:  64    -0.383020470857E+03   -0.89218E-05   -0.89748E-05  8320   0.257E-03 0.704E-05
CGA:  65    -0.383020482303E+03   -0.11445E-04   -0.11424E-04  8320   0.230E-03 0.135E-04
CGA:  66    -0.383020501554E+03   -0.19251E-04   -0.18417E-04  8320   0.530E-03 0.242E-04
CGA:  67    -0.383020520712E+03   -0.19158E-04   -0.19418E-04  8320   0.160E-03 0.223E-04
CGA:  68    -0.383020529168E+03   -0.84557E-05   -0.84168E-05  8320   0.140E-03 0.512E-05
   2 F= -.38302053E+03 E0= -.38299739E+03  d E =-.162322E-01  mag=     5.0207
       N       E                     dE             d eps       ncg     rms          ort
SDA:   1    -0.382880939599E+03    0.13958E+00    0.00000E+00  8320   0.443E+01 0.000E+00
CGA:   2    -0.382945250550E+03   -0.64311E-01   -0.53999E-01  8320   0.116E+01 0.676E+00
CGA:   3    -0.383032725670E+03   -0.87475E-01   -0.88773E-01  8320   0.389E+01-0.468E-01
CGA:   4    -0.383105604415E+03   -0.72879E-01   -0.74082E-01  8320   0.301E+01-0.365E-01
CGA:   5    -0.383167937003E+03   -0.62333E-01   -0.64117E-01  8320   0.190E+01-0.364E-01
CGA:   6    -0.383194608406E+03   -0.26671E-01   -0.26585E-01  8320   0.617E+00 0.224E-02
CGA:   7    -0.383206295569E+03   -0.11687E-01   -0.11664E-01  8320   0.373E+00 0.418E-03
CGA:   8    -0.383216386029E+03   -0.10090E-01   -0.10109E-01  8320   0.657E+00 0.273E-04
CGA:   9    -0.383241820932E+03   -0.25435E-01   -0.25433E-01  8320   0.529E+00 0.747E-03
CGA:  10    -0.383248342256E+03   -0.65213E-02   -0.63429E-02  8320   0.162E+00 0.112E-01
CGA:  11    -0.383254005744E+03   -0.56635E-02   -0.56567E-02  8320   0.213E+00-0.133E-02
CGA:  12    -0.383256630998E+03   -0.26253E-02   -0.26161E-02  8320   0.410E-01 0.448E-03
CGA:  13    -0.383257589829E+03   -0.95883E-03   -0.96250E-03  8320   0.695E-01-0.911E-05
CGA:  14    -0.383260177982E+03   -0.25882E-02   -0.25881E-02  8320   0.773E-01 0.819E-05
CGA:  15    -0.383261423376E+03   -0.12454E-02   -0.12476E-02  8320   0.450E-01-0.864E-04
CGA:  16    -0.383262365571E+03   -0.94219E-03   -0.94248E-03  8320   0.268E-01-0.134E-04
CGA:  17    -0.383262845027E+03   -0.47946E-03   -0.47930E-03  8320   0.156E-01-0.483E-05
CGA:  18    -0.383263113835E+03   -0.26881E-03   -0.26783E-03  8320   0.824E-02 0.277E-04
CGA:  19    -0.383263376161E+03   -0.26233E-03   -0.26233E-03  8320   0.170E-01-0.927E-05
CGA:  20    -0.383263784128E+03   -0.40797E-03   -0.40809E-03  8320   0.901E-02 0.725E-05
CGA:  21    -0.383263957361E+03   -0.17323E-03   -0.17368E-03  8320   0.999E-02-0.110E-05
CGA:  22    -0.383264273769E+03   -0.31641E-03   -0.31637E-03  8320   0.765E-02 0.259E-04
CGA:  23    -0.383264385942E+03   -0.11217E-03   -0.11191E-03  8320   0.472E-02 0.168E-04
CGA:  24    -0.383264556833E+03   -0.17089E-03   -0.17080E-03  8320   0.555E-02 0.925E-05
CGA:  25    -0.383264630268E+03   -0.73434E-04   -0.73732E-04  8320   0.186E-02-0.175E-04
CGA:  26    -0.383264691436E+03   -0.61169E-04   -0.61166E-04  8320   0.337E-02-0.102E-05
CGA:  27    -0.383264773427E+03   -0.81990E-04   -0.81992E-04  8320   0.311E-02-0.184E-05
CGA:  28    -0.383264852052E+03   -0.78625E-04   -0.78614E-04  8320   0.299E-02-0.140E-05
CGA:  29    -0.383264921188E+03   -0.69137E-04   -0.69134E-04  8320   0.328E-02-0.636E-06
CGA:  30    -0.383264998818E+03   -0.77630E-04   -0.77628E-04  8320   0.144E-02 0.309E-06
CGA:  31    -0.383265017915E+03   -0.19096E-04   -0.19135E-04  8320   0.743E-03 0.223E-05
SDA:  32    -0.383265059349E+03   -0.41435E-04   -0.41089E-04  8320   0.219E-02 0.125E-04
CGA:  33    -0.383265087721E+03   -0.28371E-04   -0.28408E-04  8320   0.511E-03-0.150E-05
CGA:  34    -0.383265119055E+03   -0.31335E-04   -0.31164E-04  8320   0.592E-03 0.518E-05
CGA:  35    -0.383265153518E+03   -0.34463E-04   -0.34211E-04  8320   0.832E-03 0.910E-05
CGA:  36    -0.383265193685E+03   -0.40167E-04   -0.39981E-04  8320   0.325E-03 0.112E-04
CGA:  37    -0.383265216618E+03   -0.22933E-04   -0.22809E-04  8320   0.241E-03 0.321E-05
CGA:  38    -0.383265232182E+03   -0.15564E-04   -0.15513E-04  8320   0.654E-03 0.166E-05
CGA:  39    -0.383265248294E+03   -0.16112E-04   -0.16123E-04  8320   0.214E-03 0.142E-05
CGA:  40    -0.383265267672E+03   -0.19378E-04   -0.19432E-04  8320   0.189E-03-0.101E-05
CGA:  41    -0.383265285690E+03   -0.18018E-04   -0.17847E-04  8320   0.163E-03 0.300E-05
CGA:  42    -0.383265294814E+03   -0.91240E-05   -0.90880E-05  8320   0.255E-03 0.245E-05
CGA:  43    -0.383265305284E+03   -0.10470E-04   -0.10473E-04  8320   0.265E-03 0.415E-05
CGA:  44    -0.383265313533E+03   -0.82481E-05   -0.82841E-05  8320   0.250E-03 0.337E-05
   3 F= -.38326531E+03 E0= -.38324237E+03  d E =-.244784E+00  mag=     5.0010
       N       E                     dE             d eps       ncg     rms          ort
SDA:   1    -0.377053770679E+03    0.62115E+01    0.00000E+00  8320   0.474E+02 0.000E+00
CGA:   2    -0.378178991552E+03   -0.11252E+01   -0.92302E+00  8320   0.314E+02 0.559E+01
CGA:   3    -0.380020847778E+03   -0.18419E+01   -0.18419E+01  8320   0.418E+02-0.354E-01
CGA:   4    -0.382318390350E+03   -0.22975E+01   -0.22762E+01  8320   0.297E+02-0.303E+00
CGA:   5    -0.382856222259E+03   -0.53783E+00   -0.48977E+00  8320   0.676E+01 0.151E+01
CGA:   6    -0.383041795561E+03   -0.18557E+00   -0.17644E+00  8320   0.697E+01 0.477E-01
CGA:   7    -0.383444365621E+03   -0.40257E+00   -0.40186E+00  8320   0.142E+02 0.284E-01
CGA:   8    -0.383664298756E+03   -0.21993E+00   -0.21787E+00  8320   0.486E+01 0.506E-01
CGA:   9    -0.383809697577E+03   -0.14540E+00   -0.14427E+00  8320   0.389E+01-0.222E-01
CGA:  10    -0.383862146473E+03   -0.52449E-01   -0.57638E-01  8320   0.112E+01-0.222E+00
CGA:  11    -0.383888935164E+03   -0.26789E-01   -0.26542E-01  8320   0.121E+01-0.130E-02
CGA:  12    -0.383938294070E+03   -0.49359E-01   -0.49342E-01  8320   0.145E+01 0.218E-02
CGA:  13    -0.383964168792E+03   -0.25875E-01   -0.26157E-01  8320   0.764E+00-0.879E-02
CGA:  14    -0.383993464786E+03   -0.29296E-01   -0.29281E-01  8320   0.483E+00 0.271E-02
CGA:  15    -0.384000832579E+03   -0.73678E-02   -0.77138E-02  8320   0.165E+00-0.123E-01
CGA:  16    -0.384006820227E+03   -0.59876E-02   -0.59762E-02  8320   0.193E+00 0.266E-02
CGA:  17    -0.384014374591E+03   -0.75544E-02   -0.75421E-02  8320   0.166E+00 0.203E-02
CGA:  18    -0.384023038762E+03   -0.86642E-02   -0.86051E-02  8320   0.183E+00 0.280E-02
CGA:  19    -0.384026478044E+03   -0.34393E-02   -0.34642E-02  8320   0.775E-01-0.692E-03
CGA:  20    -0.384029899994E+03   -0.34220E-02   -0.34042E-02  8320   0.461E-01 0.135E-02
CGA:  21    -0.384032218835E+03   -0.23188E-02   -0.23132E-02  8320   0.640E-01 0.319E-03
CGA:  22    -0.384034114253E+03   -0.18954E-02   -0.18978E-02  8320   0.410E-01 0.913E-04
CGA:  23    -0.384035446591E+03   -0.13323E-02   -0.13325E-02  8320   0.481E-01 0.112E-04
CGA:  24    -0.384037901824E+03   -0.24552E-02   -0.24447E-02  8320   0.202E-01 0.541E-03
CGA:  25    -0.384038860956E+03   -0.95913E-03   -0.95789E-03  8320   0.303E-01 0.865E-04
CGA:  26    -0.384039577002E+03   -0.71605E-03   -0.71459E-03  8320   0.140E-01 0.344E-04
CGA:  27    -0.384040280094E+03   -0.70309E-03   -0.70260E-03  8320   0.206E-01 0.330E-04
CGA:  28    -0.384041241038E+03   -0.96094E-03   -0.95888E-03  8320   0.171E-01 0.162E-03
CGA:  29    -0.384041965330E+03   -0.72429E-03   -0.72387E-03  8320   0.143E-01 0.687E-04
CGA:  30    -0.384042222388E+03   -0.25706E-03   -0.25772E-03  8320   0.477E-02-0.164E-05
CGA:  31    -0.384042618072E+03   -0.39568E-03   -0.39741E-03  8320   0.711E-02-0.394E-04
SDA:  32    -0.384042918573E+03   -0.30050E-03   -0.30034E-03  8320   0.838E-02 0.270E-04
CGA:  33    -0.384043096038E+03   -0.17747E-03   -0.17703E-03  8320   0.363E-02 0.858E-05
CGA:  34    -0.384043208360E+03   -0.11232E-03   -0.11231E-03  8320   0.264E-02-0.608E-06
CGA:  35    -0.384043298802E+03   -0.90442E-04   -0.90456E-04  8320   0.249E-02-0.156E-05
CGA:  36    -0.384043561166E+03   -0.26236E-03   -0.26310E-03  8320   0.224E-02-0.112E-04
CGA:  37    -0.384043685223E+03   -0.12406E-03   -0.12397E-03  8320   0.767E-03 0.364E-05
CGA:  38    -0.384043737916E+03   -0.52692E-04   -0.52700E-04  8320   0.149E-02-0.368E-06
CGA:  39    -0.384043773444E+03   -0.35528E-04   -0.35538E-04  8320   0.962E-03 0.334E-05
CGA:  40    -0.384043839262E+03   -0.65819E-04   -0.65559E-04  8320   0.736E-03 0.958E-05
CGA:  41    -0.384043882901E+03   -0.43639E-04   -0.43563E-04  8320   0.117E-02 0.507E-05
CGA:  42    -0.384043936149E+03   -0.53247E-04   -0.53242E-04  8320   0.492E-03 0.577E-05
CGA:  43    -0.384043957625E+03   -0.21477E-04   -0.21479E-04  8320   0.902E-03 0.149E-05
CGA:  44    -0.384043986693E+03   -0.29068E-04   -0.29075E-04  8320   0.515E-03 0.112E-05
CGA:  45    -0.384044034679E+03   -0.47985E-04   -0.48037E-04  8320   0.362E-03-0.126E-05
CGA:  46    -0.384044058331E+03   -0.23652E-04   -0.23630E-04  8320   0.261E-03 0.930E-06
CGA:  47    -0.384044064784E+03   -0.64527E-05   -0.64595E-05  8320   0.286E-03 0.353E-06
CGA:  48    -0.384044098509E+03   -0.33726E-04   -0.33604E-04  8320   0.316E-03 0.167E-05
CGA:  49    -0.384044105982E+03   -0.74726E-05   -0.74847E-05  8320   0.862E-04 0.797E-06
   4 F= -.38404411E+03 E0= -.38402200E+03  d E =-.778792E+00  mag=     4.9506
       N       E                     dE             d eps       ncg     rms          ort
SDA:   1    -0.376996760032E+03    0.70473E+01    0.00000E+00  8320   0.473E+02 0.000E+00
CGA:   2    -0.378160848389E+03   -0.11641E+01   -0.89095E+00  8320   0.283E+02 0.979E+01
CGA:   3    -0.380444946842E+03   -0.22841E+01   -0.22768E+01  8320   0.427E+02 0.603E-01
CGA:   4    -0.382650357756E+03   -0.22054E+01   -0.21987E+01  8320   0.315E+02 0.138E+01
CGA:   5    -0.383179451292E+03   -0.52909E+00   -0.43809E+00  8320   0.647E+01 0.464E+01
CGA:   6    -0.383352910822E+03   -0.17346E+00   -0.16469E+00  8320   0.111E+02 0.197E+00
CGA:   7    -0.383722628011E+03   -0.36972E+00   -0.37207E+00  8320   0.163E+02 0.195E-01
CGA:   8    -0.383983887228E+03   -0.26126E+00   -0.28145E+00  8320   0.120E+02-0.867E+00
CGA:   9    -0.384158243175E+03   -0.17436E+00   -0.18033E+00  8320   0.500E+01-0.301E+00
CGA:  10    -0.384224698626E+03   -0.66455E-01   -0.64615E-01  8320   0.312E+01 0.102E+00
CGA:  11    -0.384293759365E+03   -0.69061E-01   -0.66014E-01  8320   0.230E+01 0.797E-01
CGA:  12    -0.384323146621E+03   -0.29387E-01   -0.30470E-01  8320   0.117E+01-0.575E-01
CGA:  13    -0.384355306084E+03   -0.32159E-01   -0.32352E-01  8320   0.205E+01 0.253E-02
CGA:  14    -0.384398361122E+03   -0.43055E-01   -0.43018E-01  8320   0.164E+01-0.993E-03
CGA:  15    -0.384436764759E+03   -0.38404E-01   -0.40091E-01  8320   0.141E+01 0.407E-03
CGA:  16    -0.384457187099E+03   -0.20422E-01   -0.21021E-01  8320   0.416E+00-0.267E-01
CGA:  17    -0.384466653486E+03   -0.94664E-02   -0.94080E-02  8320   0.253E+00 0.277E-03
CGA:  18    -0.384471739877E+03   -0.50864E-02   -0.50977E-02  8320   0.202E+00-0.133E-03
CGA:  19    -0.384480298593E+03   -0.85587E-02   -0.85218E-02  8320   0.312E+00 0.321E-02
CGA:  20    -0.384489206482E+03   -0.89079E-02   -0.89500E-02  8320   0.344E+00 0.168E-02
CGA:  21    -0.384498930709E+03   -0.97242E-02   -0.97748E-02  8320   0.161E+00 0.238E-02
CGA:  22    -0.384502321702E+03   -0.33910E-02   -0.33515E-02  8320   0.901E-01 0.495E-03
CGA:  23    -0.384504293346E+03   -0.19716E-02   -0.19559E-02  8320   0.563E-01 0.527E-04
CGA:  24    -0.384506745969E+03   -0.24526E-02   -0.24678E-02  8320   0.102E+00-0.107E-02
CGA:  25    -0.384508893410E+03   -0.21474E-02   -0.21343E-02  8320   0.637E-01 0.788E-04
CGA:  26    -0.384510605386E+03   -0.17120E-02   -0.17150E-02  8320   0.577E-01 0.142E-03
CGA:  27    -0.384511824950E+03   -0.12196E-02   -0.12297E-02  8320   0.434E-01-0.286E-04
CGA:  28    -0.384513289888E+03   -0.14649E-02   -0.14626E-02  8320   0.364E-01 0.708E-03
CGA:  29    -0.384513994295E+03   -0.70441E-03   -0.70140E-03  8320   0.224E-01 0.452E-04
CGA:  30    -0.384514795474E+03   -0.80118E-03   -0.80261E-03  8320   0.205E-01-0.196E-03
CGA:  31    -0.384515301476E+03   -0.50600E-03   -0.50642E-03  8320   0.210E-01 0.243E-04
SDA:  32    -0.384515982676E+03   -0.68120E-03   -0.68104E-03  8320   0.188E-01 0.911E-04
CGA:  33    -0.384516743988E+03   -0.76131E-03   -0.76107E-03  8320   0.936E-02 0.201E-04
CGA:  34    -0.384516960051E+03   -0.21606E-03   -0.21660E-03  8320   0.705E-02 0.947E-05
CGA:  35    -0.384517437322E+03   -0.47727E-03   -0.47649E-03  8320   0.710E-02 0.197E-04
CGA:  36    -0.384517898827E+03   -0.46151E-03   -0.46387E-03  8320   0.918E-02-0.741E-04
CGA:  37    -0.384518261958E+03   -0.36313E-03   -0.36317E-03  8320   0.621E-02-0.309E-05
CGA:  38    -0.384518687342E+03   -0.42538E-03   -0.42042E-03  8320   0.282E-02 0.147E-03
CGA:  39    -0.384518776732E+03   -0.89390E-04   -0.89367E-04  8320   0.371E-02-0.118E-05
CGA:  40    -0.384518962118E+03   -0.18539E-03   -0.18542E-03  8320   0.304E-02-0.429E-05
CGA:  41    -0.384519283176E+03   -0.32106E-03   -0.32186E-03  8320   0.371E-02-0.128E-04
CGA:  42    -0.384519374218E+03   -0.91042E-04   -0.90911E-04  8320   0.102E-02 0.502E-06
CGA:  43    -0.384519443916E+03   -0.69698E-04   -0.69606E-04  8320   0.130E-02 0.272E-05
CGA:  44    -0.384519500887E+03   -0.56971E-04   -0.56968E-04  8320   0.246E-02 0.183E-05
CGA:  45    -0.384519590487E+03   -0.89600E-04   -0.89616E-04  8320   0.404E-03 0.322E-05
CGA:  46    -0.384519622741E+03   -0.32254E-04   -0.32258E-04  8320   0.501E-03-0.345E-06
CGA:  47    -0.384519646974E+03   -0.24232E-04   -0.24235E-04  8320   0.696E-03-0.102E-05
CGA:  48    -0.384519699654E+03   -0.52680E-04   -0.52704E-04  8320   0.277E-03-0.102E-05
CGA:  49    -0.384519718786E+03   -0.19131E-04   -0.19160E-04  8320   0.561E-03-0.131E-05
CGA:  50    -0.384519733994E+03   -0.15209E-04   -0.15182E-04  8320   0.426E-03-0.268E-05
CGA:  51    -0.384519762207E+03   -0.28212E-04   -0.28350E-04  8320   0.313E-03-0.636E-05
CGA:  52    -0.384519783248E+03   -0.21041E-04   -0.21090E-04  8320   0.396E-03-0.237E-05
CGA:  53    -0.384519796799E+03   -0.13551E-04   -0.13540E-04  8320   0.208E-03-0.145E-05
CGA:  54    -0.384519811452E+03   -0.14653E-04   -0.14657E-04  8320   0.260E-03-0.347E-06
CGA:  55    -0.384519818922E+03   -0.74700E-05   -0.74829E-05  8320   0.282E-03 0.782E-06
CGA:  56    -0.384519836052E+03   -0.17130E-04   -0.17093E-04  8320   0.175E-03 0.261E-05
CGA:  57    -0.384519852143E+03   -0.16092E-04   -0.16031E-04  8320   0.685E-04 0.134E-05
CGA:  58    -0.384519855085E+03   -0.29417E-05   -0.29423E-05  8320   0.147E-03-0.106E-08
CGA:  59    -0.384519865312E+03   -0.10227E-04   -0.10226E-04  8320   0.220E-03 0.698E-07
CGA:  60    -0.384519873379E+03   -0.80665E-05   -0.80547E-05  8320   0.141E-03-0.103E-05
   5 F= -.38451987E+03 E0= -.38449829E+03  d E =-.475767E+00  mag=     4.9114
       N       E                     dE             d eps       ncg     rms          ort
SDA:   1    -0.368839222476E+03    0.15681E+02    0.00000E+00  8320   0.103E+03 0.000E+00
CGA:   2    -0.371666902214E+03   -0.28277E+01   -0.17671E+01  8320   0.441E+02 0.407E+02
CGA:   3    -0.374259068752E+03   -0.25922E+01   -0.25411E+01  8320   0.151E+03-0.222E+01
CGA:   4    -0.376141014590E+03   -0.18819E+01   -0.21579E+01  8320   0.181E+03-0.201E+02
CGA:   5    -0.377528545648E+03   -0.13875E+01   -0.23789E+01  8320   0.158E+03-0.256E+02
CGA:   6    -0.379666718166E+03   -0.21382E+01   -0.18972E+01  8320   0.841E+02 0.156E+01
CGA:   7    -0.380607175764E+03   -0.94046E+00   -0.62962E+00  8320   0.503E+02 0.396E+02
CGA:   8    -0.381084601649E+03   -0.47743E+00   -0.29062E+00  8320   0.266E+02 0.424E+02
CGA:   9    -0.381741106431E+03   -0.65650E+00   -0.53262E+00  8320   0.282E+02 0.269E+01
CGA:  10    -0.383745272845E+03   -0.20042E+01   -0.19726E+01  8320   0.180E+02 0.101E+01
CGA:  11    -0.384200555146E+03   -0.45528E+00   -0.49440E+00  8320   0.148E+02 0.819E-01
CGA:  12    -0.384467687237E+03   -0.26713E+00   -0.25766E+00  8320   0.294E+01 0.445E+00
CGA:  13    -0.384533799976E+03   -0.66113E-01   -0.70677E-01  8320   0.191E+01-0.285E-01
CGA:  14    -0.384616888946E+03   -0.83089E-01   -0.82387E-01  8320   0.238E+01 0.671E-01
CGA:  15    -0.384675161351E+03   -0.58272E-01   -0.57480E-01  8320   0.230E+01 0.508E-03
CGA:  16    -0.384809927708E+03   -0.13477E+00   -0.13668E+00  8320   0.985E+00-0.792E-01
CGA:  17    -0.384831836930E+03   -0.21909E-01   -0.22636E-01  8320   0.761E+00-0.307E-02
CGA:  18    -0.384852406045E+03   -0.20569E-01   -0.20935E-01  8320   0.299E+00 0.650E-02
CGA:  19    -0.384883248879E+03   -0.30843E-01   -0.30691E-01  8320   0.260E+00 0.130E-02
CGA:  20    -0.384897209434E+03   -0.13961E-01   -0.13616E-01  8320   0.207E+00 0.200E-01
CGA:  21    -0.384903523114E+03   -0.63137E-02   -0.63344E-02  8320   0.161E+00 0.797E-04
CGA:  22    -0.384910440983E+03   -0.69179E-02   -0.69328E-02  8320   0.987E-01-0.261E-02
CGA:  23    -0.384912663415E+03   -0.22224E-02   -0.22018E-02  8320   0.370E-01 0.314E-03
CGA:  24    -0.384916722655E+03   -0.40592E-02   -0.39719E-02  8320   0.533E-01 0.141E-02
CGA:  25    -0.384920266576E+03   -0.35439E-02   -0.35451E-02  8320   0.375E-01-0.501E-04
CGA:  26    -0.384921134918E+03   -0.86834E-03   -0.87543E-03  8320   0.283E-01-0.134E-03
CGA:  27    -0.384923305127E+03   -0.21702E-02   -0.21509E-02  8320   0.258E-01 0.528E-03
CGA:  28    -0.384925463562E+03   -0.21584E-02   -0.21531E-02  8320   0.470E-01 0.136E-03
CGA:  29    -0.384926862546E+03   -0.13990E-02   -0.13967E-02  8320   0.952E-02 0.225E-04
CGA:  30    -0.384927453200E+03   -0.59065E-03   -0.59054E-03  8320   0.145E-01 0.721E-05
CGA:  31    -0.384927920808E+03   -0.46761E-03   -0.46899E-03  8320   0.160E-01 0.483E-05
CGA:  32    -0.384929018734E+03   -0.10979E-02   -0.10981E-02  8320   0.551E-02-0.827E-05
CGA:  33    -0.384929382574E+03   -0.36384E-03   -0.36237E-03  8320   0.309E-02 0.588E-04
CGA:  34    -0.384929658251E+03   -0.27568E-03   -0.27649E-03  8320   0.600E-02-0.209E-04
CGA:  35    -0.384929921289E+03   -0.26304E-03   -0.26282E-03  8320   0.722E-02-0.193E-04
CGA:  36    -0.384930239962E+03   -0.31867E-03   -0.31882E-03  8320   0.490E-02 0.403E-05
CGA:  37    -0.384930358197E+03   -0.11823E-03   -0.11827E-03  8320   0.258E-02-0.617E-05
CGA:  38    -0.384930627239E+03   -0.26904E-03   -0.26885E-03  8320   0.249E-02 0.321E-05
SDA:  39    -0.384930864862E+03   -0.23762E-03   -0.23763E-03  8320   0.217E-02-0.121E-05
CGA:  40    -0.384930969914E+03   -0.10505E-03   -0.10502E-03  8320   0.137E-02-0.475E-05
CGA:  41    -0.384931024143E+03   -0.54230E-04   -0.54107E-04  8320   0.150E-02-0.148E-05
CGA:  42    -0.384931109744E+03   -0.85600E-04   -0.85619E-04  8320   0.168E-02-0.355E-05
CGA:  43    -0.384931162544E+03   -0.52800E-04   -0.52759E-04  8320   0.170E-02-0.225E-05
CGA:  44    -0.384931282794E+03   -0.12025E-03   -0.12032E-03  8320   0.100E-02-0.446E-05
CGA:  45    -0.384931347255E+03   -0.64461E-04   -0.64447E-04  8320   0.542E-03-0.294E-06
CGA:  46    -0.384931397923E+03   -0.50668E-04   -0.50885E-04  8320   0.178E-02-0.578E-05
CGA:  47    -0.384931481792E+03   -0.83870E-04   -0.83826E-04  8320   0.212E-02-0.729E-05
CGA:  48    -0.384931591205E+03   -0.10941E-03   -0.10935E-03  8320   0.287E-02-0.141E-04
CGA:  49    -0.384931665093E+03   -0.73888E-04   -0.73993E-04  8320   0.577E-03-0.128E-04
CGA:  50    -0.384931712934E+03   -0.47841E-04   -0.47952E-04  8320   0.805E-03-0.413E-05
CGA:  51    -0.384931814309E+03   -0.10137E-03   -0.10247E-03  8320   0.276E-02-0.154E-04
CGA:  52    -0.384931871461E+03   -0.57152E-04   -0.57184E-04  8320   0.504E-03-0.134E-04
CGA:  53    -0.384931890420E+03   -0.18959E-04   -0.18936E-04  8320   0.528E-03-0.198E-05
CGA:  54    -0.384931913278E+03   -0.22857E-04   -0.22838E-04  8320   0.337E-03-0.180E-05
CGA:  55    -0.384931966626E+03   -0.53349E-04   -0.53515E-04  8320   0.976E-03-0.168E-05
CGA:  56    -0.384931985600E+03   -0.18974E-04   -0.18886E-04  8320   0.325E-03 0.256E-05
CGA:  57    -0.384931999207E+03   -0.13606E-04   -0.13601E-04  8320   0.157E-03-0.388E-06
CGA:  58    -0.384932010778E+03   -0.11572E-04   -0.11564E-04  8320   0.525E-03 0.378E-06
CGA:  59    -0.384932050338E+03   -0.39560E-04   -0.39569E-04  8320   0.428E-03-0.150E-06
CGA:  60    -0.384932057488E+03   -0.71497E-05   -0.71616E-05  8320   0.102E-03-0.128E-05
   6 F= -.38493206E+03 E0= -.38491114E+03  d E =-.412184E+00  mag=     4.8796
       N       E                     dE             d eps       ncg     rms          ort
SDA:   1    -0.369506281272E+03    0.15426E+02    0.00000E+00  8320   0.721E+02 0.000E+00
CGA:   2    -0.371916677163E+03   -0.24104E+01   -0.17347E+01  8320   0.568E+02 0.133E+02
CGA:   3    -0.376932110024E+03   -0.50154E+01   -0.51220E+01  8320   0.131E+03-0.437E+01
CGA:   4    -0.379475784343E+03   -0.25437E+01   -0.29202E+01  8320   0.948E+02-0.375E+01
CGA:   5    -0.381826303527E+03   -0.23505E+01   -0.20056E+01  8320   0.310E+02 0.929E+01
CGA:   6    -0.382350065942E+03   -0.52376E+00   -0.43382E+00  8320   0.171E+02 0.558E+01
CGA:   7    -0.382974081708E+03   -0.62402E+00   -0.60238E+00  8320   0.308E+02-0.231E+00
CGA:   8    -0.383431197115E+03   -0.45712E+00   -0.52644E+00  8320   0.331E+02-0.309E+01
CGA:   9    -0.384021829678E+03   -0.59063E+00   -0.61070E+00  8320   0.345E+02-0.630E+00
CGA:  10    -0.384451044331E+03   -0.42921E+00   -0.46205E+00  8320   0.102E+02-0.227E+01
CGA:  11    -0.384550212155E+03   -0.99168E-01   -0.11115E+00  8320   0.404E+01-0.965E+00
CGA:  12    -0.384611667955E+03   -0.61456E-01   -0.64932E-01  8320   0.293E+01-0.127E+00
CGA:  13    -0.384688795664E+03   -0.77128E-01   -0.77529E-01  8320   0.521E+01-0.218E-02
CGA:  14    -0.384850504214E+03   -0.16171E+00   -0.16184E+00  8320   0.687E+01 0.845E-03
CGA:  15    -0.384970896392E+03   -0.12039E+00   -0.12709E+00  8320   0.271E+01-0.203E+00
CGA:  16    -0.385009549314E+03   -0.38653E-01   -0.40341E-01  8320   0.895E+00-0.762E-01
CGA:  17    -0.385030073181E+03   -0.20524E-01   -0.20947E-01  8320   0.673E+00-0.277E-02
CGA:  18    -0.385048490283E+03   -0.18417E-01   -0.18661E-01  8320   0.748E+00 0.360E-02
CGA:  19    -0.385088127099E+03   -0.39637E-01   -0.39392E-01  8320   0.106E+01 0.125E-01
CGA:  20    -0.385114335352E+03   -0.26208E-01   -0.26363E-01  8320   0.710E+00-0.107E-02
CGA:  21    -0.385133603338E+03   -0.19268E-01   -0.19323E-01  8320   0.230E+00 0.706E-03
CGA:  22    -0.385138730336E+03   -0.51270E-02   -0.50840E-02  8320   0.174E+00 0.584E-03
CGA:  23    -0.385146042443E+03   -0.73121E-02   -0.73605E-02  8320   0.216E+00-0.534E-02
CGA:  24    -0.385152409310E+03   -0.63669E-02   -0.63692E-02  8320   0.218E+00 0.663E-04
CGA:  25    -0.385158643440E+03   -0.62341E-02   -0.62456E-02  8320   0.133E+00 0.305E-03
CGA:  26    -0.385162039622E+03   -0.33962E-02   -0.34114E-02  8320   0.858E-01 0.115E-03
CGA:  27    -0.385164619053E+03   -0.25794E-02   -0.25990E-02  8320   0.650E-01 0.128E-02
CGA:  28    -0.385166415273E+03   -0.17962E-02   -0.18066E-02  8320   0.350E-01 0.299E-03
CGA:  29    -0.385168180052E+03   -0.17648E-02   -0.17799E-02  8320   0.477E-01-0.790E-03
CGA:  30    -0.385169406130E+03   -0.12261E-02   -0.12295E-02  8320   0.327E-01 0.653E-04
CGA:  31    -0.385170981470E+03   -0.15753E-02   -0.15732E-02  8320   0.316E-01 0.126E-03
SDA:  32    -0.385171839753E+03   -0.85828E-03   -0.85785E-03  8320   0.228E-01 0.112E-04
CGA:  33    -0.385172403242E+03   -0.56349E-03   -0.56505E-03  8320   0.124E-01 0.793E-05
CGA:  34    -0.385172834242E+03   -0.43100E-03   -0.43100E-03  8320   0.831E-02-0.107E-04
CGA:  35    -0.385173833137E+03   -0.99889E-03   -0.99485E-03  8320   0.155E-01 0.566E-04
CGA:  36    -0.385174342703E+03   -0.50957E-03   -0.50921E-03  8320   0.770E-02-0.163E-04
CGA:  37    -0.385174748610E+03   -0.40591E-03   -0.40686E-03  8320   0.272E-02-0.535E-04
CGA:  38    -0.385174977905E+03   -0.22930E-03   -0.22838E-03  8320   0.715E-02 0.207E-04
CGA:  39    -0.385175215447E+03   -0.23754E-03   -0.23725E-03  8320   0.492E-02-0.114E-04
CGA:  40    -0.385175554993E+03   -0.33955E-03   -0.33991E-03  8320   0.351E-02-0.141E-04
CGA:  41    -0.385175881752E+03   -0.32676E-03   -0.33235E-03  8320   0.453E-02-0.113E-03
CGA:  42    -0.385175997440E+03   -0.11569E-03   -0.11569E-03  8320   0.209E-02-0.662E-05
CGA:  43    -0.385176141438E+03   -0.14400E-03   -0.14432E-03  8320   0.377E-02-0.124E-04
CGA:  44    -0.385176290085E+03   -0.14865E-03   -0.14863E-03  8320   0.345E-02-0.484E-05
CGA:  45    -0.385176482160E+03   -0.19207E-03   -0.19215E-03  8320   0.791E-03-0.682E-05
CGA:  46    -0.385176554624E+03   -0.72463E-04   -0.72269E-04  8320   0.137E-02 0.383E-05
CGA:  47    -0.385176616524E+03   -0.61900E-04   -0.61912E-04  8320   0.171E-02 0.453E-05
CGA:  48    -0.385176726462E+03   -0.10994E-03   -0.10978E-03  8320   0.104E-02 0.904E-05
CGA:  49    -0.385176751213E+03   -0.24751E-04   -0.24726E-04  8320   0.519E-03 0.271E-05
CGA:  50    -0.385176781415E+03   -0.30202E-04   -0.30185E-04  8320   0.366E-03 0.834E-06
CGA:  51    -0.385176836905E+03   -0.55491E-04   -0.56028E-04  8320   0.512E-03-0.532E-05
CGA:  52    -0.385176850375E+03   -0.13470E-04   -0.13411E-04  8320   0.269E-03-0.289E-05
CGA:  53    -0.385176868780E+03   -0.18405E-04   -0.18497E-04  8320   0.301E-03-0.529E-05
CGA:  54    -0.385176878361E+03   -0.95805E-05   -0.95254E-05  8320   0.274E-03-0.294E-05
CGA:  55    -0.385176895893E+03   -0.17532E-04   -0.17600E-04  8320   0.227E-03-0.535E-05
CGA:  56    -0.385176913883E+03   -0.17990E-04   -0.18071E-04  8320   0.211E-03-0.301E-05
CGA:  57    -0.385176926190E+03   -0.12307E-04   -0.12310E-04  8320   0.297E-03-0.586E-06
CGA:  58    -0.385176937084E+03   -0.10894E-04   -0.10897E-04  8320   0.123E-03 0.237E-07
CGA:  59    -0.385176949959E+03   -0.12875E-04   -0.12673E-04  8320   0.482E-03 0.394E-05
CGA:  60    -0.385176965936E+03   -0.15978E-04   -0.16118E-04  8320   0.827E-04 0.505E-05
CGA:  61    -0.385176971299E+03   -0.53627E-05   -0.53513E-05  8320   0.846E-04 0.110E-05
   7 F= -.38517697E+03 E0= -.38515712E+03  d E =-.244914E+00  mag=     4.8402
       N       E                     dE             d eps       ncg     rms          ort
SDA:   1    -0.364155568117E+03    0.21021E+02    0.00000E+00  8320   0.735E+02 0.000E+00
CGA:   2    -0.368444627911E+03   -0.42891E+01   -0.42981E+01  8320   0.176E+03-0.184E+01
CGA:   3    -0.376807908645E+03   -0.83633E+01   -0.85122E+01  8320   0.126E+03 0.108E+02
CGA:   4    -0.379751013969E+03   -0.29431E+01   -0.16888E+01  8320   0.470E+02 0.882E+02
CGA:   5    -0.380886908408E+03   -0.11359E+01   -0.11034E+01  8320   0.242E+02-0.393E+00
CGA:   6    -0.381865378006E+03   -0.97847E+00   -0.95569E+00  8320   0.222E+02-0.462E+00
CGA:   7    -0.384030433503E+03   -0.21651E+01   -0.21162E+01  8320   0.107E+02 0.933E+00
CGA:   8    -0.384280484964E+03   -0.25005E+00   -0.19854E+00  8320   0.516E+01 0.236E+01
CGA:   9    -0.384633104082E+03   -0.35262E+00   -0.35198E+00  8320   0.113E+02 0.781E-01
CGA:  10    -0.384909951921E+03   -0.27685E+00   -0.30901E+00  8320   0.649E+01-0.398E+00
CGA:  11    -0.385133618023E+03   -0.22367E+00   -0.22661E+00  8320   0.426E+01 0.297E-01
CGA:  12    -0.385214846842E+03   -0.81229E-01   -0.59339E-01  8320   0.116E+01 0.143E+01
CGA:  13    -0.385240269671E+03   -0.25423E-01   -0.22654E-01  8320   0.531E+00 0.154E+00
CGA:  14    -0.385255868591E+03   -0.15599E-01   -0.15667E-01  8320   0.515E+00-0.596E-03
CGA:  15    -0.385266545154E+03   -0.10677E-01   -0.10655E-01  8320   0.533E+00 0.685E-03
CGA:  16    -0.385284893014E+03   -0.18348E-01   -0.18561E-01  8320   0.884E+00 0.641E-02
CGA:  17    -0.385302368402E+03   -0.17475E-01   -0.17373E-01  8320   0.401E+00 0.258E-02
CGA:  18    -0.385309626554E+03   -0.72582E-02   -0.72816E-02  8320   0.221E+00-0.860E-03
CGA:  19    -0.385313935216E+03   -0.43087E-02   -0.43638E-02  8320   0.118E+00-0.130E-02
CGA:  20    -0.385316631366E+03   -0.26961E-02   -0.27808E-02  8320   0.118E+00-0.820E-03
CGA:  21    -0.385322474266E+03   -0.58429E-02   -0.57971E-02  8320   0.228E+00 0.307E-02
CGA:  22    -0.385328467773E+03   -0.59935E-02   -0.59614E-02  8320   0.102E+00 0.113E-03
CGA:  23    -0.385331369565E+03   -0.29018E-02   -0.28931E-02  8320   0.987E-01-0.135E-03
CGA:  24    -0.385334073081E+03   -0.27035E-02   -0.27653E-02  8320   0.430E-01 0.854E-03
CGA:  25    -0.385335167315E+03   -0.10942E-02   -0.11055E-02  8320   0.398E-01 0.756E-06
CGA:  26    -0.385337569792E+03   -0.24025E-02   -0.23976E-02  8320   0.559E-01 0.176E-03
CGA:  27    -0.385338946819E+03   -0.13770E-02   -0.13736E-02  8320   0.289E-01 0.201E-04
CGA:  28    -0.385340026424E+03   -0.10796E-02   -0.10797E-02  8320   0.280E-01 0.517E-04
CGA:  29    -0.385340787222E+03   -0.76080E-03   -0.76322E-03  8320   0.137E-01 0.317E-04
CGA:  30    -0.385341349361E+03   -0.56214E-03   -0.56205E-03  8320   0.189E-01 0.206E-04
CGA:  31    -0.385342032037E+03   -0.68268E-03   -0.68281E-03  8320   0.148E-01 0.626E-04
CGA:  32    -0.385342793939E+03   -0.76190E-03   -0.76085E-03  8320   0.231E-01 0.580E-04
CGA:  33    -0.385343467858E+03   -0.67392E-03   -0.67359E-03  8320   0.101E-01 0.179E-05
CGA:  34    -0.385343812819E+03   -0.34496E-03   -0.34509E-03  8320   0.772E-02 0.163E-04
SDA:  35    -0.385344037162E+03   -0.22434E-03   -0.22454E-03  8320   0.371E-02 0.444E-05
CGA:  36    -0.385344204133E+03   -0.16697E-03   -0.16699E-03  8320   0.449E-02-0.377E-05
CGA:  37    -0.385344427221E+03   -0.22309E-03   -0.22292E-03  8320   0.538E-02 0.616E-05
CGA:  38    -0.385344776707E+03   -0.34949E-03   -0.35037E-03  8320   0.486E-02-0.323E-04
CGA:  39    -0.385344958556E+03   -0.18185E-03   -0.18182E-03  8320   0.231E-02-0.122E-04
CGA:  40    -0.385345091558E+03   -0.13300E-03   -0.13321E-03  8320   0.150E-02-0.103E-04
CGA:  41    -0.385345256117E+03   -0.16456E-03   -0.16411E-03  8320   0.144E-02 0.660E-05
CGA:  42    -0.385345412883E+03   -0.15677E-03   -0.15585E-03  8320   0.303E-02 0.144E-04
CGA:  43    -0.385345492409E+03   -0.79526E-04   -0.79355E-04  8320   0.125E-02 0.956E-05
CGA:  44    -0.385345595049E+03   -0.10264E-03   -0.10324E-03  8320   0.802E-03-0.156E-04
CGA:  45    -0.385345696359E+03   -0.10131E-03   -0.10206E-03  8320   0.231E-02-0.104E-04
CGA:  46    -0.385345797435E+03   -0.10108E-03   -0.10116E-03  8320   0.964E-03 0.292E-05
CGA:  47    -0.385345840148E+03   -0.42713E-04   -0.42682E-04  8320   0.527E-03-0.295E-05
CGA:  48    -0.385345878172E+03   -0.38023E-04   -0.38093E-04  8320   0.159E-02-0.351E-05
CGA:  49    -0.385345974489E+03   -0.96317E-04   -0.96388E-04  8320   0.926E-03-0.798E-05
CGA:  50    -0.385346029591E+03   -0.55102E-04   -0.55150E-04  8320   0.408E-03-0.553E-05
CGA:  51    -0.385346068216E+03   -0.38625E-04   -0.38707E-04  8320   0.413E-03-0.198E-05
CGA:  52    -0.385346095374E+03   -0.27158E-04   -0.27141E-04  8320   0.723E-03 0.101E-05
CGA:  53    -0.385346134812E+03   -0.39438E-04   -0.39436E-04  8320   0.257E-03-0.120E-05
CGA:  54    -0.385346145166E+03   -0.10354E-04   -0.10357E-04  8320   0.316E-03-0.347E-07
CGA:  55    -0.385346159904E+03   -0.14739E-04   -0.14738E-04  8320   0.156E-03 0.821E-06
CGA:  56    -0.385346175053E+03   -0.15149E-04   -0.15078E-04  8320   0.153E-03 0.157E-05
CGA:  57    -0.385346189142E+03   -0.14089E-04   -0.14013E-04  8320   0.125E-03 0.212E-05
CGA:  58    -0.385346194986E+03   -0.58434E-05   -0.58474E-05  8320   0.985E-04 0.428E-06
   8 F= -.38534619E+03 E0= -.38532758E+03  d E =-.169224E+00  mag=     4.7655
       N       E                     dE             d eps       ncg     rms          ort
SDA:   1    -0.349426437837E+03    0.35920E+02    0.00000E+00  8320   0.132E+03 0.000E+00
CGA:   2    -0.356833468714E+03   -0.74070E+01   -0.72069E+01  8320   0.364E+03-0.401E+02
CGA:   3    -0.363310955419E+03   -0.64775E+01   -0.67841E+01  8320   0.729E+03-0.341E+02
CGA:   4    -0.371795009225E+03   -0.84841E+01   -0.12598E+02  8320   0.230E+03-0.128E+03
CGA:   5    -0.375201068713E+03   -0.34061E+01   -0.25586E+01  8320   0.118E+03 0.137E+02
CGA:   6    -0.376890388100E+03   -0.16893E+01   -0.11626E+01  8320   0.104E+03 0.520E+02
CGA:   7    -0.378086630359E+03   -0.11962E+01   -0.88913E+00  8320   0.631E+02 0.377E+02
CGA:   8    -0.378683448087E+03   -0.59682E+00   -0.64969E+00  8320   0.112E+03-0.144E+02
CGA:   9    -0.378692890101E+03   -0.94420E-02   -0.57532E+00  8320   0.267E+03-0.697E+02
CGA:  10    -0.380422177989E+03   -0.17293E+01   -0.37669E+01  8320   0.104E+03-0.969E+02
CGA:  11    -0.381944601641E+03   -0.15224E+01   -0.15021E+01  8320   0.239E+02 0.176E+00
CGA:  12    -0.382521750803E+03   -0.57715E+00   -0.55881E+00  8320   0.238E+02 0.937E-01
CGA:  13    -0.383710461222E+03   -0.11887E+01   -0.11862E+01  8320   0.250E+02 0.170E+00
CGA:  14    -0.384592623865E+03   -0.88216E+00   -0.86436E+00  8320   0.128E+02-0.864E+00
CGA:  15    -0.384762317132E+03   -0.16969E+00   -0.20945E+00  8320   0.379E+01-0.141E+01
CGA:  16    -0.384899864304E+03   -0.13755E+00   -0.13764E+00  8320   0.424E+01-0.271E-01
CGA:  17    -0.385043081513E+03   -0.14322E+00   -0.14460E+00  8320   0.436E+01 0.110E+00
CGA:  18    -0.385263771703E+03   -0.22069E+00   -0.21705E+00  8320   0.246E+01 0.261E+00
CGA:  19    -0.385335470539E+03   -0.71699E-01   -0.73306E-01  8320   0.154E+01 0.171E-01
CGA:  20    -0.385392573608E+03   -0.57103E-01   -0.57221E-01  8320   0.910E+00 0.303E-01
CGA:  21    -0.385442318671E+03   -0.49745E-01   -0.48922E-01  8320   0.812E+00 0.451E-01
CGA:  22    -0.385467733168E+03   -0.25414E-01   -0.25835E-01  8320   0.418E+00 0.915E-02
CGA:  23    -0.385484666757E+03   -0.16934E-01   -0.16932E-01  8320   0.208E+00 0.576E-03
CGA:  24    -0.385494089333E+03   -0.94226E-02   -0.93899E-02  8320   0.215E+00 0.347E-02
CGA:  25    -0.385504131039E+03   -0.10042E-01   -0.99817E-02  8320   0.151E+00 0.605E-02
CGA:  26    -0.385511524208E+03   -0.73932E-02   -0.73669E-02  8320   0.118E+00 0.226E-02
CGA:  27    -0.385516327870E+03   -0.48037E-02   -0.48037E-02  8320   0.103E+00-0.122E-03
CGA:  28    -0.385522894278E+03   -0.65664E-02   -0.65163E-02  8320   0.963E-01 0.186E-02
CGA:  29    -0.385526882934E+03   -0.39887E-02   -0.39886E-02  8320   0.747E-01-0.197E-04
CGA:  30    -0.385530305538E+03   -0.34226E-02   -0.34129E-02  8320   0.520E-01 0.128E-02
CGA:  31    -0.385533369102E+03   -0.30636E-02   -0.30653E-02  8320   0.629E-01-0.673E-04
CGA:  32    -0.385535827558E+03   -0.24585E-02   -0.24613E-02  8320   0.312E-01 0.413E-03
CGA:  33    -0.385537276701E+03   -0.14491E-02   -0.14490E-02  8320   0.226E-01 0.230E-04
CGA:  34    -0.385538260493E+03   -0.98379E-03   -0.98339E-03  8320   0.197E-01 0.169E-03
CGA:  35    -0.385539374486E+03   -0.11140E-02   -0.11145E-02  8320   0.147E-01-0.189E-04
CGA:  36    -0.385539943925E+03   -0.56944E-03   -0.57020E-03  8320   0.102E-01 0.776E-04
CGA:  37    -0.385540447727E+03   -0.50380E-03   -0.50378E-03  8320   0.767E-02 0.851E-05
CGA:  38    -0.385540874044E+03   -0.42632E-03   -0.42566E-03  8320   0.899E-02 0.410E-04
CGA:  39    -0.385541267103E+03   -0.39306E-03   -0.39305E-03  8320   0.499E-02-0.101E-04
SDA:  40    -0.385541522527E+03   -0.25542E-03   -0.25514E-03  8320   0.503E-02 0.243E-04
CGA:  41    -0.385541608009E+03   -0.85482E-04   -0.84897E-04  8320   0.133E-02 0.236E-04
CGA:  42    -0.385542008916E+03   -0.40091E-03   -0.33850E-04  8320   0.301E-02 0.101E-03
CGA:  43    -0.385542164590E+03   -0.15567E-03   -0.15552E-03  8320   0.231E-02-0.595E-05
CGA:  44    -0.385542241026E+03   -0.76436E-04   -0.76256E-04  8320   0.189E-02 0.187E-05
CGA:  45    -0.385542388388E+03   -0.14736E-03   -0.14734E-03  8320   0.268E-02 0.258E-05
CGA:  46    -0.385542530448E+03   -0.14206E-03   -0.14189E-03  8320   0.183E-02-0.347E-05
CGA:  47    -0.385542604287E+03   -0.73839E-04   -0.73760E-04  8320   0.841E-03-0.427E-06
CGA:  48    -0.385542656194E+03   -0.51907E-04   -0.51898E-04  8320   0.147E-02-0.179E-05
CGA:  49    -0.385542710505E+03   -0.54311E-04   -0.54024E-04  8320   0.954E-03 0.613E-06
CGA:  50    -0.385542794116E+03   -0.83611E-04   -0.83636E-04  8320   0.379E-03-0.217E-05
CGA:  51    -0.385542818991E+03   -0.24875E-04   -0.24879E-04  8320   0.744E-03 0.155E-06
CGA:  52    -0.385542846092E+03   -0.27101E-04   -0.27090E-04  8320   0.512E-03 0.260E-05
CGA:  53    -0.385542893369E+03   -0.47277E-04   -0.47166E-04  8320   0.484E-03 0.449E-05
CGA:  54    -0.385542919586E+03   -0.26217E-04   -0.26250E-04  8320   0.380E-03 0.238E-05
CGA:  55    -0.385542933090E+03   -0.13504E-04   -0.13562E-04  8320   0.316E-03 0.213E-05
CGA:  56    -0.385542953584E+03   -0.20494E-04   -0.20501E-04  8320   0.494E-03 0.265E-05
CGA:  57    -0.385542977237E+03   -0.23654E-04   -0.23677E-04  8320   0.311E-03 0.177E-05
CGA:  58    -0.385542993119E+03   -0.15882E-04   -0.15915E-04  8320   0.134E-03 0.155E-05
CGA:  59    -0.385543002373E+03   -0.92536E-05   -0.92523E-05  8320   0.291E-03 0.205E-06
   9 F= -.38554300E+03 E0= -.38552453E+03  d E =-.196807E+00  mag=     4.7364
       N       E                     dE             d eps       ncg     rms          ort
SDA:   1    -0.383237845305E+03    0.23051E+01    0.00000E+00  8320   0.127E+02 0.000E+00
CGA:   2    -0.383694466057E+03   -0.45662E+00   -0.40514E+00  8320   0.115E+02 0.736E+00
CGA:   3    -0.384464807740E+03   -0.77034E+00   -0.76970E+00  8320   0.133E+02 0.381E+00
CGA:   4    -0.384996859677E+03   -0.53205E+00   -0.52134E+00  8320   0.618E+01 0.624E-01
CGA:   5    -0.385190422688E+03   -0.19356E+00   -0.18388E+00  8320   0.208E+01 0.278E+00
CGA:   6    -0.385375967118E+03   -0.18554E+00   -0.18387E+00  8320   0.328E+01 0.525E-01
CGA:   7    -0.385476307232E+03   -0.10034E+00   -0.98408E-01  8320   0.165E+01 0.329E-01
CGA:   8    -0.385541535242E+03   -0.65228E-01   -0.64665E-01  8320   0.443E+00 0.182E-02
CGA:   9    -0.385562754857E+03   -0.21220E-01   -0.21292E-01  8320   0.332E+00 0.206E-02
CGA:  10    -0.385574299837E+03   -0.11545E-01   -0.11454E-01  8320   0.234E+00 0.915E-03
CGA:  11    -0.385589421954E+03   -0.15122E-01   -0.15102E-01  8320   0.229E+00 0.157E-02
CGA:  12    -0.385594548252E+03   -0.51263E-02   -0.50026E-02  8320   0.352E-01 0.402E-02
CGA:  13    -0.385597834715E+03   -0.32865E-02   -0.32710E-02  8320   0.545E-01 0.368E-03
CGA:  14    -0.385599593810E+03   -0.17591E-02   -0.17766E-02  8320   0.402E-01-0.183E-03
CGA:  15    -0.385601327005E+03   -0.17332E-02   -0.17335E-02  8320   0.207E-01-0.147E-05
CGA:  16    -0.385602557258E+03   -0.12303E-02   -0.12299E-02  8320   0.243E-01 0.433E-04
CGA:  17    -0.385603386433E+03   -0.82918E-03   -0.82785E-03  8320   0.876E-02 0.237E-04
CGA:  18    -0.385603839468E+03   -0.45303E-03   -0.45299E-03  8320   0.129E-01-0.497E-05
CGA:  19    -0.385604408165E+03   -0.56870E-03   -0.56899E-03  8320   0.119E-01 0.739E-05
CGA:  20    -0.385605143921E+03   -0.73576E-03   -0.73560E-03  8320   0.619E-02 0.146E-04
CGA:  21    -0.385605453495E+03   -0.30957E-03   -0.30956E-03  8320   0.725E-02 0.108E-05
CGA:  22    -0.385605675053E+03   -0.22156E-03   -0.22237E-03  8320   0.315E-02-0.104E-04
CGA:  23    -0.385605953742E+03   -0.27869E-03   -0.27888E-03  8320   0.812E-02-0.550E-05
CGA:  24    -0.385606262358E+03   -0.30862E-03   -0.30846E-03  8320   0.147E-02 0.465E-06
CGA:  25    -0.385606337162E+03   -0.74804E-04   -0.74815E-04  8320   0.191E-02 0.211E-05
CGA:  26    -0.385606407946E+03   -0.70784E-04   -0.70701E-04  8320   0.147E-02 0.645E-06
CGA:  27    -0.385606506247E+03   -0.98302E-04   -0.98294E-04  8320   0.960E-03 0.544E-06
CGA:  28    -0.385606548251E+03   -0.42004E-04   -0.42018E-04  8320   0.684E-03 0.107E-05
CGA:  29    -0.385606572545E+03   -0.24293E-04   -0.24282E-04  8320   0.391E-03 0.145E-06
CGA:  30    -0.385606599029E+03   -0.26484E-04   -0.26476E-04  8320   0.811E-03 0.495E-06
CGA:  31    -0.385606632569E+03   -0.33539E-04   -0.33557E-04  8320   0.396E-03 0.210E-05
SDA:  32    -0.385606652269E+03   -0.19700E-04   -0.19701E-04  8320   0.157E-03 0.392E-06
CGA:  33    -0.385606660232E+03   -0.79625E-05   -0.79621E-05  8320   0.224E-03-0.610E-06
CGA:  34    -0.385606672333E+03   -0.12101E-04   -0.12102E-04  8320   0.301E-03-0.315E-07
CGA:  35    -0.385606689066E+03   -0.16734E-04   -0.16735E-04  8320   0.186E-03-0.625E-06
CGA:  36    -0.385606695711E+03   -0.66450E-05   -0.66357E-05  8320   0.104E-03-0.568E-06
  10 F= -.38560670E+03 E0= -.38558792E+03  d E =-.636933E-01  mag=     4.7315
       N       E                     dE             d eps       ncg     rms          ort
SDA:   1    -0.385384742609E+03    0.22195E+00    0.00000E+00  8320   0.909E+00 0.000E+00
CGA:   2    -0.385442696974E+03   -0.57954E-01   -0.58214E-01  8320   0.161E+01-0.151E-01
CGA:   3    -0.385536552347E+03   -0.93855E-01   -0.93814E-01  8320   0.122E+01 0.405E-02
CGA:   4    -0.385574994867E+03   -0.38443E-01   -0.37643E-01  8320   0.331E+00 0.758E-02
CGA:   5    -0.385588012788E+03   -0.13018E-01   -0.13160E-01  8320   0.365E+00 0.216E-02
CGA:   6    -0.385610386218E+03   -0.22373E-01   -0.22456E-01  8320   0.160E+00-0.556E-02
CGA:   7    -0.385619444903E+03   -0.90587E-02   -0.90213E-02  8320   0.799E-01 0.423E-02
CGA:   8    -0.385621219637E+03   -0.17747E-02   -0.17369E-02  8320   0.225E-01 0.118E-02
CGA:   9    -0.385623391682E+03   -0.21720E-02   -0.21694E-02  8320   0.287E-01 0.563E-04
CGA:  10    -0.385624683023E+03   -0.12913E-02   -0.12898E-02  8320   0.151E-01-0.853E-04
CGA:  11    -0.385625028729E+03   -0.34571E-03   -0.34758E-03  8320   0.324E-02-0.659E-04
CGA:  12    -0.385625261092E+03   -0.23236E-03   -0.23235E-03  8320   0.385E-02 0.140E-05
CGA:  13    -0.385625488875E+03   -0.22778E-03   -0.22766E-03  8320   0.460E-02 0.141E-04
CGA:  14    -0.385625633707E+03   -0.14483E-03   -0.14479E-03  8320   0.146E-02 0.104E-04
CGA:  15    -0.385625709077E+03   -0.75371E-04   -0.75370E-04  8320   0.757E-03 0.283E-05
CGA:  16    -0.385625739163E+03   -0.30085E-04   -0.30076E-04  8320   0.826E-03 0.189E-06
CGA:  17    -0.385625809296E+03   -0.70133E-04   -0.70101E-04  8320   0.930E-03 0.654E-06
CGA:  18    -0.385625846476E+03   -0.37180E-04   -0.37184E-04  8320   0.660E-03 0.673E-06
CGA:  19    -0.385625871539E+03   -0.25063E-04   -0.25060E-04  8320   0.302E-03-0.608E-06
CGA:  20    -0.385625899730E+03   -0.28191E-04   -0.28191E-04  8320   0.577E-03 0.127E-07
CGA:  21    -0.385625918403E+03   -0.18674E-04   -0.18691E-04  8320   0.295E-03-0.325E-06
CGA:  22    -0.385625938506E+03   -0.20103E-04   -0.20112E-04  8320   0.322E-03-0.556E-06
CGA:  23    -0.385625957253E+03   -0.18747E-04   -0.18753E-04  8320   0.225E-03-0.136E-05
CGA:  24    -0.385625962895E+03   -0.56423E-05   -0.56330E-05  8320   0.848E-04-0.302E-06
  11 F= -.38562596E+03 E0= -.38560712E+03  d E =-.192672E-01  mag=     4.7226
       N       E                     dE             d eps       ncg     rms          ort
SDA:   1    -0.375782329583E+03    0.98436E+01    0.00000E+00  8320   0.434E+02 0.000E+00
CGA:   2    -0.377350111530E+03   -0.15678E+01   -0.13639E+01  8320   0.472E+02 0.348E+01
CGA:   3    -0.382509559474E+03   -0.51594E+01   -0.51469E+01  8320   0.333E+02-0.324E+01
CGA:   4    -0.383555716103E+03   -0.10462E+01   -0.89202E+00  8320   0.150E+02 0.267E+01
CGA:   5    -0.384064707978E+03   -0.50899E+00   -0.52587E+00  8320   0.182E+02-0.137E+00
CGA:   6    -0.384640977761E+03   -0.57627E+00   -0.59711E+00  8320   0.155E+02-0.526E-01
CGA:   7    -0.385197659868E+03   -0.55668E+00   -0.55664E+00  8320   0.685E+01 0.743E-01
CGA:   8    -0.385402490665E+03   -0.20483E+00   -0.19626E+00  8320   0.381E+01 0.153E+00
CGA:   9    -0.385469580380E+03   -0.67090E-01   -0.63706E-01  8320   0.120E+01 0.156E+00
CGA:  10    -0.385538914064E+03   -0.69334E-01   -0.69426E-01  8320   0.172E+01-0.829E-02
CGA:  11    -0.385634233338E+03   -0.95319E-01   -0.94918E-01  8320   0.149E+01 0.398E-01
CGA:  12    -0.385661054625E+03   -0.26821E-01   -0.27597E-01  8320   0.387E+00-0.339E-01
CGA:  13    -0.385669925840E+03   -0.88712E-02   -0.90008E-02  8320   0.240E+00-0.270E-02
CGA:  14    -0.385684948276E+03   -0.15022E-01   -0.14858E-01  8320   0.312E+00 0.798E-02
CGA:  15    -0.385699236131E+03   -0.14288E-01   -0.14239E-01  8320   0.334E+00-0.598E-02
CGA:  16    -0.385709197381E+03   -0.99612E-02   -0.10693E-01  8320   0.178E+00 0.404E-02
CGA:  17    -0.385714190531E+03   -0.49932E-02   -0.49376E-02  8320   0.792E-01 0.595E-03
CGA:  18    -0.385716714042E+03   -0.25235E-02   -0.25521E-02  8320   0.464E-01 0.224E-03
CGA:  19    -0.385720103228E+03   -0.33892E-02   -0.34243E-02  8320   0.668E-01-0.111E-02
CGA:  20    -0.385723625876E+03   -0.35226E-02   -0.34747E-02  8320   0.659E-01 0.431E-02
CGA:  21    -0.385725573876E+03   -0.19480E-02   -0.19276E-02  8320   0.214E-01 0.161E-03
CGA:  22    -0.385726328034E+03   -0.75416E-03   -0.75580E-03  8320   0.152E-01 0.356E-04
CGA:  23    -0.385727531055E+03   -0.12030E-02   -0.12078E-02  8320   0.232E-01-0.124E-03
CGA:  24    -0.385728264417E+03   -0.73336E-03   -0.73667E-03  8320   0.114E-01 0.224E-04
CGA:  25    -0.385728890914E+03   -0.62650E-03   -0.62601E-03  8320   0.136E-01 0.387E-04
CGA:  26    -0.385729545286E+03   -0.65437E-03   -0.65431E-03  8320   0.939E-02 0.272E-04
CGA:  27    -0.385729846684E+03   -0.30140E-03   -0.30239E-03  8320   0.512E-02 0.239E-05
CGA:  28    -0.385730133130E+03   -0.28645E-03   -0.28647E-03  8320   0.497E-02-0.258E-05
CGA:  29    -0.385730385580E+03   -0.25245E-03   -0.25231E-03  8320   0.624E-02 0.186E-04
CGA:  30    -0.385730708344E+03   -0.32276E-03   -0.32270E-03  8320   0.479E-02 0.763E-05
CGA:  31    -0.385730881457E+03   -0.17311E-03   -0.17337E-03  8320   0.224E-02 0.701E-05
SDA:  32    -0.385730982419E+03   -0.10096E-03   -0.10097E-03  8320   0.233E-02 0.483E-05
CGA:  33    -0.385731037656E+03   -0.55236E-04   -0.55413E-04  8320   0.144E-02-0.707E-06
CGA:  34    -0.385731129704E+03   -0.92049E-04   -0.91981E-04  8320   0.166E-02 0.379E-05
CGA:  35    -0.385731250495E+03   -0.12079E-03   -0.12051E-03  8320   0.113E-02 0.103E-04
CGA:  36    -0.385731310830E+03   -0.60335E-04   -0.60334E-04  8320   0.148E-02 0.159E-05
CGA:  37    -0.385731358895E+03   -0.48065E-04   -0.48133E-04  8320   0.538E-03 0.648E-06
CGA:  38    -0.385731420703E+03   -0.61808E-04   -0.61898E-04  8320   0.573E-03-0.141E-05
CGA:  39    -0.385731457445E+03   -0.36742E-04   -0.36759E-04  8320   0.566E-03-0.171E-05
CGA:  40    -0.385731480002E+03   -0.22557E-04   -0.22542E-04  8320   0.739E-03-0.168E-05
CGA:  41    -0.385731520370E+03   -0.40367E-04   -0.40373E-04  8320   0.236E-03-0.135E-05
CGA:  42    -0.385731543182E+03   -0.22813E-04   -0.22743E-04  8320   0.241E-03 0.146E-05
CGA:  43    -0.385731571271E+03   -0.28088E-04   -0.27753E-04  8320   0.433E-03 0.540E-05
CGA:  44    -0.385731582009E+03   -0.10739E-04   -0.10777E-04  8320   0.163E-03 0.209E-05
CGA:  45    -0.385731592495E+03   -0.10485E-04   -0.10487E-04  8320   0.122E-03-0.134E-06
CGA:  46    -0.385731601197E+03   -0.87026E-05   -0.87259E-05  8320   0.245E-03-0.140E-05
  12 F= -.38573160E+03 E0= -.38571121E+03  d E =-.105638E+00  mag=     4.6658
       N       E                     dE             d eps       ncg     rms          ort
SDA:   1    -0.371417479980E+03    0.14314E+02    0.00000E+00  8320   0.576E+02 0.000E+00
CGA:   2    -0.373107942296E+03   -0.16905E+01   -0.12406E+01  8320   0.544E+02 0.127E+02
CGA:   3    -0.380007558087E+03   -0.68996E+01   -0.69422E+01  8320   0.192E+03-0.642E+00
CGA:   4    -0.381299595062E+03   -0.12920E+01   -0.27267E+01  8320   0.109E+03-0.787E+02
CGA:   5    -0.381987560204E+03   -0.68797E+00   -0.79169E+00  8320   0.378E+02-0.604E+01
CGA:   6    -0.382427405410E+03   -0.43985E+00   -0.32705E+00  8320   0.230E+02 0.999E+01
CGA:   7    -0.382868202521E+03   -0.44080E+00   -0.36854E+00  8320   0.325E+02 0.410E+01
CGA:   8    -0.383383298808E+03   -0.51510E+00   -0.61815E+00  8320   0.495E+02-0.469E+01
CGA:   9    -0.383756633431E+03   -0.37333E+00   -0.46887E+00  8320   0.549E+02-0.664E+01
CGA:  10    -0.384264759526E+03   -0.50813E+00   -0.53056E+00  8320   0.421E+02-0.125E+01
CGA:  11    -0.384604746957E+03   -0.33999E+00   -0.32566E+00  8320   0.245E+02 0.113E+01
CGA:  12    -0.384841267233E+03   -0.23652E+00   -0.21373E+00  8320   0.176E+02 0.217E+01
CGA:  13    -0.384984691294E+03   -0.14342E+00   -0.16721E+00  8320   0.778E+01-0.219E+01
CGA:  14    -0.385036260984E+03   -0.51570E-01   -0.64476E-01  8320   0.496E+01-0.108E+01
CGA:  15    -0.385109147120E+03   -0.72886E-01   -0.76195E-01  8320   0.709E+01-0.936E-01
CGA:  16    -0.385200699341E+03   -0.91552E-01   -0.91604E-01  8320   0.399E+01 0.277E-02
CGA:  17    -0.385279633005E+03   -0.78934E-01   -0.77130E-01  8320   0.712E+01 0.308E-01
CGA:  18    -0.385430311936E+03   -0.15068E+00   -0.15559E+00  8320   0.735E+01-0.245E-02
CGA:  19    -0.385519388666E+03   -0.89077E-01   -0.90162E-01  8320   0.434E+01-0.627E-01
CGA:  20    -0.385585642748E+03   -0.66254E-01   -0.65581E-01  8320   0.228E+01 0.220E-01
CGA:  21    -0.385611940408E+03   -0.26298E-01   -0.27122E-01  8320   0.131E+01-0.484E-01
CGA:  22    -0.385637922027E+03   -0.25982E-01   -0.26440E-01  8320   0.143E+01 0.190E-02
CGA:  23    -0.385664588472E+03   -0.26666E-01   -0.26764E-01  8320   0.133E+01-0.161E-03
CGA:  24    -0.385690064684E+03   -0.25476E-01   -0.24681E-01  8320   0.106E+01 0.970E-02
CGA:  25    -0.385710309598E+03   -0.20245E-01   -0.20283E-01  8320   0.148E+01 0.576E-03
CGA:  26    -0.385745170897E+03   -0.34861E-01   -0.34762E-01  8320   0.122E+01-0.562E-02
CGA:  27    -0.385759792057E+03   -0.14621E-01   -0.15145E-01  8320   0.649E+00-0.251E-01
CGA:  28    -0.385773837332E+03   -0.14045E-01   -0.14164E-01  8320   0.613E+00 0.676E-02
CGA:  29    -0.385783143168E+03   -0.93058E-02   -0.93127E-02  8320   0.352E+00 0.312E-03
CGA:  30    -0.385792813452E+03   -0.96703E-02   -0.96664E-02  8320   0.415E+00 0.188E-02
CGA:  31    -0.385799167640E+03   -0.63542E-02   -0.64193E-02  8320   0.205E+00-0.123E-02
SDA:  32    -0.385805288710E+03   -0.61211E-02   -0.61133E-02  8320   0.295E+00 0.120E-02
CGA:  33    -0.385810516510E+03   -0.52278E-02   -0.51261E-02  8320   0.141E+00-0.358E-04
CGA:  34    -0.385815412543E+03   -0.48960E-02   -0.48742E-02  8320   0.118E+00 0.184E-02
CGA:  35    -0.385819939685E+03   -0.45271E-02   -0.45139E-02  8320   0.116E+00 0.908E-03
CGA:  36    -0.385824966878E+03   -0.50272E-02   -0.50362E-02  8320   0.627E-01-0.485E-03
CGA:  37    -0.385828410768E+03   -0.34439E-02   -0.34215E-02  8320   0.887E-01 0.803E-03
CGA:  38    -0.385829993519E+03   -0.15828E-02   -0.15784E-02  8320   0.314E-01 0.594E-04
CGA:  39    -0.385831855732E+03   -0.18622E-02   -0.18587E-02  8320   0.103E-01 0.105E-03
CGA:  40    -0.385832604378E+03   -0.74865E-03   -0.74608E-03  8320   0.126E-01 0.637E-04
CGA:  41    -0.385833073640E+03   -0.46926E-03   -0.46960E-03  8320   0.164E-01-0.396E-04
CGA:  42    -0.385833729756E+03   -0.65612E-03   -0.65563E-03  8320   0.196E-01 0.445E-04
CGA:  43    -0.385834277098E+03   -0.54734E-03   -0.54721E-03  8320   0.107E-01-0.963E-05
CGA:  44    -0.385834595558E+03   -0.31846E-03   -0.31852E-03  8320   0.312E-02 0.112E-04
CGA:  45    -0.385835258572E+03   -0.66301E-03   -0.37954E-04  8320   0.614E-02 0.296E-04
CGA:  46    -0.385835578451E+03   -0.31988E-03   -0.31974E-03  8320   0.109E-01-0.123E-04
CGA:  47    -0.385835793030E+03   -0.21458E-03   -0.21592E-03  8320   0.334E-02-0.594E-04
CGA:  48    -0.385835968696E+03   -0.17567E-03   -0.17563E-03  8320   0.295E-02-0.683E-05
CGA:  49    -0.385836290062E+03   -0.32137E-03   -0.32077E-03  8320   0.104E-01 0.110E-04
CGA:  50    -0.385836584781E+03   -0.29472E-03   -0.29435E-03  8320   0.244E-02 0.811E-05
CGA:  51    -0.385836646608E+03   -0.61827E-04   -0.61646E-04  8320   0.254E-02 0.634E-05
CGA:  52    -0.385836740327E+03   -0.93720E-04   -0.93837E-04  8320   0.900E-03 0.343E-05
CGA:  53    -0.385836831071E+03   -0.90744E-04   -0.90524E-04  8320   0.110E-02 0.454E-05
CGA:  54    -0.385836887638E+03   -0.56567E-04   -0.56585E-04  8320   0.136E-02 0.289E-05
CGA:  55    -0.385836914411E+03   -0.26773E-04   -0.26901E-04  8320   0.631E-03-0.469E-06
CGA:  56    -0.385836945605E+03   -0.31194E-04   -0.31192E-04  8320   0.672E-03 0.414E-07
CGA:  57    -0.385836969833E+03   -0.24228E-04   -0.24224E-04  8320   0.575E-03-0.155E-05
CGA:  58    -0.385837003112E+03   -0.33279E-04   -0.33292E-04  8320   0.243E-03-0.275E-05
CGA:  59    -0.385837032181E+03   -0.29068E-04   -0.29131E-04  8320   0.788E-03-0.105E-05
CGA:  60    -0.385837044668E+03   -0.12487E-04   -0.12510E-04  8320   0.169E-03-0.679E-06
CGA:  61    -0.385837054474E+03   -0.98059E-05   -0.98041E-05  8320   0.214E-03 0.591E-06
CGA:  62    -0.385837068278E+03   -0.13804E-04   -0.13792E-04  8320   0.395E-03 0.106E-05
SDA:  63    -0.385837082501E+03   -0.14224E-04   -0.14244E-04  8320   0.132E-03 0.168E-05
CGA:  64    -0.385837086228E+03   -0.37265E-05   -0.37184E-05  8320   0.122E-03-0.363E-06
  13 F= -.38583709E+03 E0= -.38581338E+03  d E =-.105485E+00  mag=     4.6350
       N       E                     dE             d eps       ncg     rms          ort
SDA:   1    -0.384943478689E+03    0.89360E+00    0.00000E+00  8320   0.366E+01 0.000E+00
CGA:   2    -0.385100632846E+03   -0.15715E+00   -0.15944E+00  8320   0.898E+01 0.802E-01
CGA:   3    -0.385501202211E+03   -0.40057E+00   -0.39883E+00  8320   0.500E+01-0.691E-01
CGA:   4    -0.385641180680E+03   -0.13998E+00   -0.14488E+00  8320   0.168E+01-0.636E-01
CGA:   5    -0.385688722659E+03   -0.47542E-01   -0.43873E-01  8320   0.129E+01 0.625E-01
CGA:   6    -0.385767624078E+03   -0.78901E-01   -0.78640E-01  8320   0.238E+01 0.176E-01
CGA:   7    -0.385820735154E+03   -0.53111E-01   -0.52413E-01  8320   0.527E+00 0.175E-01
CGA:   8    -0.385844327643E+03   -0.23592E-01   -0.23617E-01  8320   0.182E+00 0.303E-02
CGA:   9    -0.385848506677E+03   -0.41790E-02   -0.40837E-02  8320   0.161E+00 0.242E-02
CGA:  10    -0.385857299282E+03   -0.87926E-02   -0.87836E-02  8320   0.147E+00 0.779E-03
CGA:  11    -0.385862637603E+03   -0.53383E-02   -0.53359E-02  8320   0.872E-01-0.818E-04
CGA:  12    -0.385864586608E+03   -0.19490E-02   -0.19490E-02  8320   0.257E-01-0.131E-04
CGA:  13    -0.385865454309E+03   -0.86770E-03   -0.86470E-03  8320   0.309E-01-0.394E-04
CGA:  14    -0.385866345972E+03   -0.89166E-03   -0.89673E-03  8320   0.137E-01-0.374E-05
CGA:  15    -0.385867704579E+03   -0.13586E-02   -0.13629E-02  8320   0.195E-01-0.839E-04
CGA:  16    -0.385868050843E+03   -0.34626E-03   -0.34823E-03  8320   0.813E-02-0.612E-04
CGA:  17    -0.385868328865E+03   -0.27802E-03   -0.27805E-03  8320   0.432E-02 0.323E-05
CGA:  18    -0.385868555026E+03   -0.22616E-03   -0.22593E-03  8320   0.687E-02 0.192E-04
CGA:  19    -0.385868805238E+03   -0.25021E-03   -0.24991E-03  8320   0.546E-02-0.802E-05
CGA:  20    -0.385869024600E+03   -0.21936E-03   -0.21941E-03  8320   0.765E-02 0.754E-05
CGA:  21    -0.385869213748E+03   -0.18915E-03   -0.18893E-03  8320   0.191E-02 0.478E-05
CGA:  22    -0.385869426983E+03   -0.21324E-03   -0.21302E-03  8320   0.414E-02 0.339E-05
CGA:  23    -0.385869506115E+03   -0.79132E-04   -0.78838E-04  8320   0.209E-02 0.103E-04
CGA:  24    -0.385869615933E+03   -0.10982E-03   -0.10981E-03  8320   0.230E-02 0.111E-05
CGA:  25    -0.385869742637E+03   -0.12670E-03   -0.12675E-03  8320   0.306E-02-0.429E-05
CGA:  26    -0.385869817429E+03   -0.74792E-04   -0.74779E-04  8320   0.965E-03-0.193E-05
CGA:  27    -0.385869845857E+03   -0.28427E-04   -0.28362E-04  8320   0.110E-02-0.193E-05
CGA:  28    -0.385869890201E+03   -0.44344E-04   -0.44332E-04  8320   0.714E-03-0.397E-05
CGA:  29    -0.385869945994E+03   -0.55793E-04   -0.56018E-04  8320   0.924E-03-0.649E-05
CGA:  30    -0.385869963798E+03   -0.17804E-04   -0.17800E-04  8320   0.500E-03-0.144E-05
CGA:  31    -0.385869984358E+03   -0.20561E-04   -0.20556E-04  8320   0.268E-03-0.130E-05
SDA:  32    -0.385869999117E+03   -0.14758E-04   -0.14768E-04  8320   0.457E-03-0.971E-06
CGA:  33    -0.385870006347E+03   -0.72300E-05   -0.72134E-05  8320   0.167E-03 0.128E-05
  14 F= -.38587001E+03 E0= -.38584619E+03  d E =-.329201E-01  mag=     4.6095
       N       E                     dE             d eps       ncg     rms          ort
[...]
CGA:  10    -0.386236886563E+03   -0.35258E-02   -0.35251E-02  8320   0.236E-01 0.279E-04
CGA:  11    -0.386237555124E+03   -0.66856E-03   -0.67401E-03  8320   0.109E-01-0.930E-04
CGA:  12    -0.386238191784E+03   -0.63666E-03   -0.63649E-03  8320   0.861E-02-0.527E-04
CGA:  13    -0.386238778062E+03   -0.58628E-03   -0.58587E-03  8320   0.846E-02 0.377E-04
CGA:  14    -0.386239190542E+03   -0.41248E-03   -0.41236E-03  8320   0.199E-02 0.107E-04
CGA:  15    -0.386239318206E+03   -0.12766E-03   -0.12767E-03  8320   0.225E-02-0.257E-06
CGA:  16    -0.386239417396E+03   -0.99191E-04   -0.99245E-04  8320   0.200E-02 0.361E-05
CGA:  17    -0.386239544929E+03   -0.12753E-03   -0.12752E-03  8320   0.138E-02 0.273E-05
CGA:  18    -0.386239622501E+03   -0.77572E-04   -0.77571E-04  8320   0.553E-03-0.531E-06
CGA:  19    -0.386239652705E+03   -0.30203E-04   -0.30200E-04  8320   0.581E-03-0.702E-06
CGA:  20    -0.386239719416E+03   -0.66711E-04   -0.66922E-04  8320   0.774E-03-0.372E-05
CGA:  21    -0.386239740476E+03   -0.21060E-04   -0.21080E-04  8320   0.290E-03-0.224E-06
CGA:  22    -0.386239763736E+03   -0.23261E-04   -0.23265E-04  8320   0.247E-03-0.173E-06
CGA:  23    -0.386239780075E+03   -0.16339E-04   -0.16337E-04  8320   0.191E-03 0.265E-06
CGA:  24    -0.386239791745E+03   -0.11670E-04   -0.11671E-04  8320   0.168E-03 0.945E-06
CGA:  25    -0.386239801176E+03   -0.94305E-05   -0.94302E-05  8320   0.142E-03-0.887E-07
 103 F= -.38623980E+03 E0= -.38622415E+03  d E =-.134273E-01  mag=     4.5386
       N       E                     dE             d eps       ncg     rms          ort
SDA:   1    -0.385038775600E+03    0.12010E+01    0.00000E+00  8320   0.335E+01 0.000E+00
CGA:   2    -0.385533863735E+03   -0.49509E+00   -0.47911E+00  8320   0.856E+01 0.217E+00
CGA:   3    -0.385978797237E+03   -0.44493E+00   -0.42943E+00  8320   0.170E+01-0.142E+00
CGA:   4    -0.386083595555E+03   -0.10480E+00   -0.10481E+00  8320   0.147E+01 0.139E-01
CGA:   5    -0.386187789417E+03   -0.10419E+00   -0.10407E+00  8320   0.717E+00 0.105E-01
CGA:   6    -0.386211060477E+03   -0.23271E-01   -0.23323E-01  8320   0.295E+00-0.700E-03
CGA:   7    -0.386223524868E+03   -0.12464E-01   -0.12591E-01  8320   0.188E+00 0.378E-03
CGA:   8    -0.386233172096E+03   -0.96472E-02   -0.95942E-02  8320   0.110E+00-0.150E-02
CGA:   9    -0.386240172625E+03   -0.70005E-02   -0.69976E-02  8320   0.427E-01 0.492E-03
CGA:  10    -0.386242192811E+03   -0.20202E-02   -0.20222E-02  8320   0.177E-01 0.355E-04
CGA:  11    -0.386243367819E+03   -0.11750E-02   -0.11749E-02  8320   0.173E-01 0.107E-04
CGA:  12    -0.386244412830E+03   -0.10450E-02   -0.10450E-02  8320   0.120E-01 0.288E-04
CGA:  13    -0.386244785811E+03   -0.37298E-03   -0.37293E-03  8320   0.503E-02-0.549E-05
CGA:  14    -0.386245051172E+03   -0.26536E-03   -0.26547E-03  8320   0.261E-02 0.762E-05
CGA:  15    -0.386245224326E+03   -0.17315E-03   -0.17318E-03  8320   0.267E-02-0.111E-05
CGA:  16    -0.386245434657E+03   -0.21033E-03   -0.21008E-03  8320   0.148E-02 0.108E-04
CGA:  17    -0.386245511156E+03   -0.76498E-04   -0.76530E-04  8320   0.772E-03 0.391E-05
CGA:  18    -0.386245598194E+03   -0.87039E-04   -0.86870E-04  8320   0.140E-02 0.316E-05
CGA:  19    -0.386245684035E+03   -0.85841E-04   -0.85839E-04  8320   0.682E-03-0.508E-06
CGA:  20    -0.386245730759E+03   -0.46724E-04   -0.46721E-04  8320   0.547E-03 0.799E-08
CGA:  21    -0.386245756983E+03   -0.26223E-04   -0.26188E-04  8320   0.579E-03-0.163E-05
CGA:  22    -0.386245793181E+03   -0.36198E-04   -0.36199E-04  8320   0.599E-03-0.752E-06
CGA:  23    -0.386245820139E+03   -0.26959E-04   -0.26936E-04  8320   0.201E-03-0.149E-05
CGA:  24    -0.386245833085E+03   -0.12946E-04   -0.12943E-04  8320   0.169E-03 0.439E-06
CGA:  25    -0.386245849610E+03   -0.16525E-04   -0.16533E-04  8320   0.154E-03-0.247E-06
CGA:  26    -0.386245856512E+03   -0.69025E-05   -0.68977E-05  8320   0.719E-04-0.193E-06
 104 F= -.38624586E+03 E0= -.38623007E+03  d E =-.605534E-02  mag=     4.5546
       N       E                     dE             d eps       ncg     rms          ort
SDA:   1    -0.385973096573E+03    0.27275E+00    0.00000E+00  8320   0.189E+01 0.000E+00
CGA:   2    -0.386017744100E+03   -0.44648E-01   -0.47557E-01  8320   0.104E+01-0.793E-01
CGA:   3    -0.386161062799E+03   -0.14332E+00   -0.14355E+00  8320   0.103E+01-0.298E-02
CGA:   4    -0.386195342221E+03   -0.34279E-01   -0.35008E-01  8320   0.338E+00-0.103E-01
CGA:   5    -0.386216224948E+03   -0.20883E-01   -0.20873E-01  8320   0.368E+00-0.270E-02
CGA:   6    -0.386235274978E+03   -0.19050E-01   -0.19051E-01  8320   0.212E+00 0.501E-04
CGA:   7    -0.386241433740E+03   -0.61588E-02   -0.61058E-02  8320   0.447E-01 0.102E-02
CGA:   8    -0.386244243257E+03   -0.28095E-02   -0.28091E-02  8320   0.282E-01 0.260E-03
CGA:   9    -0.386246115663E+03   -0.18724E-02   -0.18730E-02  8320   0.370E-01-0.769E-04
CGA:  10    -0.386247363823E+03   -0.12482E-02   -0.12455E-02  8320   0.686E-02 0.392E-04
CGA:  11    -0.386247799578E+03   -0.43575E-03   -0.43573E-03  8320   0.450E-02 0.357E-05
CGA:  12    -0.386248002526E+03   -0.20295E-03   -0.20313E-03  8320   0.361E-02 0.370E-05
CGA:  13    -0.386248212168E+03   -0.20964E-03   -0.20964E-03  8320   0.302E-02-0.863E-06
CGA:  14    -0.386248359227E+03   -0.14706E-03   -0.14710E-03  8320   0.172E-02-0.604E-07
CGA:  15    -0.386248426362E+03   -0.67135E-04   -0.67060E-04  8320   0.521E-03-0.175E-05
CGA:  16    -0.386248481712E+03   -0.55350E-04   -0.55262E-04  8320   0.129E-02 0.178E-05
CGA:  17    -0.386248531053E+03   -0.49341E-04   -0.49316E-04  8320   0.480E-03-0.116E-05
CGA:  18    -0.386248564930E+03   -0.33877E-04   -0.33877E-04  8320   0.389E-03-0.366E-06
CGA:  19    -0.386248591452E+03   -0.26522E-04   -0.26529E-04  8320   0.500E-03-0.847E-06
CGA:  20    -0.386248612955E+03   -0.21502E-04   -0.21524E-04  8320   0.308E-03 0.104E-05
CGA:  21    -0.386248633000E+03   -0.20046E-04   -0.20046E-04  8320   0.247E-03-0.252E-06
CGA:  22    -0.386248648959E+03   -0.15959E-04   -0.15960E-04  8320   0.304E-03-0.200E-06
CGA:  23    -0.386248664695E+03   -0.15736E-04   -0.15727E-04  8320   0.105E-03-0.862E-06
CGA:  24    -0.386248668507E+03   -0.38127E-05   -0.38237E-05  8320   0.863E-04 0.398E-06
 105 F= -.38624867E+03 E0= -.38623288E+03  d E =-.281200E-02  mag=     4.5567
       N       E                     dE             d eps       ncg     rms          ort
SDA:   1    -0.384750095054E+03    0.14986E+01    0.00000E+00  8320   0.435E+01 0.000E+00
CGA:   2    -0.385245492924E+03   -0.49540E+00   -0.48640E+00  8320   0.137E+02 0.180E+00
CGA:   3    -0.385813582578E+03   -0.56809E+00   -0.58343E+00  8320   0.401E+01 0.260E-01
CGA:   4    -0.386007877102E+03   -0.19429E+00   -0.20092E+00  8320   0.143E+01 0.175E+00
CGA:   5    -0.386133215658E+03   -0.12534E+00   -0.12624E+00  8320   0.158E+01-0.308E-01
CGA:   6    -0.386201467221E+03   -0.68252E-01   -0.69360E-01  8320   0.597E+00 0.564E-02
CGA:   7    -0.386219682243E+03   -0.18215E-01   -0.18262E-01  8320   0.202E+00-0.126E-02
CGA:   8    -0.386229099072E+03   -0.94168E-02   -0.94464E-02  8320   0.214E+00 0.500E-03
CGA:   9    -0.386243190104E+03   -0.14091E-01   -0.14103E-01  8320   0.608E-01-0.123E-02
CGA:  10    -0.386246743390E+03   -0.35533E-02   -0.35531E-02  8320   0.341E-01-0.762E-04
CGA:  11    -0.386247964543E+03   -0.12212E-02   -0.12228E-02  8320   0.252E-01-0.153E-04
CGA:  12    -0.386249418031E+03   -0.14535E-02   -0.14534E-02  8320   0.174E-01-0.326E-04
CGA:  13    -0.386250421554E+03   -0.10035E-02   -0.10035E-02  8320   0.843E-02-0.365E-05
CGA:  14    -0.386250826678E+03   -0.40512E-03   -0.40523E-03  8320   0.531E-02-0.447E-05
CGA:  15    -0.386251218200E+03   -0.39152E-03   -0.39220E-03  8320   0.300E-02-0.328E-04
CGA:  16    -0.386251352721E+03   -0.13452E-03   -0.13446E-03  8320   0.320E-02-0.213E-05
CGA:  17    -0.386251517315E+03   -0.16459E-03   -0.16460E-03  8320   0.208E-02-0.206E-05
CGA:  18    -0.386251671185E+03   -0.15387E-03   -0.15379E-03  8320   0.152E-02 0.494E-05
CGA:  19    -0.386251780145E+03   -0.10896E-03   -0.10890E-03  8320   0.119E-02 0.464E-05
CGA:  20    -0.386251837783E+03   -0.57637E-04   -0.57654E-04  8320   0.801E-03 0.192E-05
CGA:  21    -0.386251929289E+03   -0.91506E-04   -0.91390E-04  8320   0.164E-02 0.203E-05
CGA:  22    -0.386251981634E+03   -0.52346E-04   -0.52326E-04  8320   0.623E-03-0.606E-06
CGA:  23    -0.386252018492E+03   -0.36857E-04   -0.36857E-04  8320   0.319E-03 0.705E-06
CGA:  24    -0.386252045228E+03   -0.26736E-04   -0.26686E-04  8320   0.342E-03 0.196E-05
CGA:  25    -0.386252073086E+03   -0.27858E-04   -0.27835E-04  8320   0.353E-03 0.123E-05
CGA:  26    -0.386252088613E+03   -0.15527E-04   -0.15538E-04  8320   0.114E-03 0.296E-06
CGA:  27    -0.386252096340E+03   -0.77270E-05   -0.77236E-05  8320   0.194E-03 0.473E-06
 106 F= -.38625210E+03 E0= -.38623642E+03  d E =-.342783E-02  mag=     4.5626
       N       E                     dE             d eps       ncg     rms          ort
SDA:   1    -0.384358618898E+03    0.18935E+01    0.00000E+00  8320   0.523E+01 0.000E+00
CGA:   2    -0.385222393001E+03   -0.86377E+00   -0.90294E+00  8320   0.182E+02-0.399E+00
CGA:   3    -0.385776675467E+03   -0.55428E+00   -0.56598E+00  8320   0.326E+01-0.191E+00
CGA:   4    -0.385956783798E+03   -0.18011E+00   -0.18217E+00  8320   0.272E+01 0.882E-01
CGA:   5    -0.386089496035E+03   -0.13271E+00   -0.12895E+00  8320   0.217E+01-0.242E-01
CGA:   6    -0.386187553617E+03   -0.98058E-01   -0.99787E-01  8320   0.676E+00 0.154E-01
CGA:   7    -0.386209781803E+03   -0.22228E-01   -0.22039E-01  8320   0.293E+00 0.247E-02
CGA:   8    -0.386228132865E+03   -0.18351E-01   -0.18349E-01  8320   0.185E+00 0.102E-02
CGA:   9    -0.386242396123E+03   -0.14263E-01   -0.14284E-01  8320   0.130E+00-0.935E-03
CGA:  10    -0.386246687107E+03   -0.42910E-02   -0.43293E-02  8320   0.519E-01-0.473E-03
CGA:  11    -0.386248963802E+03   -0.22767E-02   -0.22764E-02  8320   0.278E-01-0.520E-05
CGA:  12    -0.386250521028E+03   -0.15572E-02   -0.15578E-02  8320   0.309E-01 0.697E-04
CGA:  13    -0.386252292238E+03   -0.17712E-02   -0.17714E-02  8320   0.123E-01 0.337E-04
CGA:  14    -0.386252925478E+03   -0.63324E-03   -0.63328E-03  8320   0.446E-02-0.667E-06
CGA:  15    -0.386253325723E+03   -0.40025E-03   -0.40080E-03  8320   0.800E-02-0.137E-04
CGA:  16    -0.386253611101E+03   -0.28538E-03   -0.28651E-03  8320   0.245E-02 0.237E-05
CGA:  17    -0.386253764813E+03   -0.15371E-03   -0.15369E-03  8320   0.374E-02 0.458E-05
CGA:  18    -0.386253989297E+03   -0.22448E-03   -0.22448E-03  8320   0.176E-02 0.824E-05
CGA:  19    -0.386254101336E+03   -0.11204E-03   -0.11204E-03  8320   0.108E-02 0.109E-05
CGA:  20    -0.386254213783E+03   -0.11245E-03   -0.11242E-03  8320   0.181E-02 0.456E-06
CGA:  21    -0.386254297074E+03   -0.83292E-04   -0.83216E-04  8320   0.145E-02-0.275E-05
CGA:  22    -0.386254378346E+03   -0.81272E-04   -0.81259E-04  8320   0.946E-03-0.245E-05
CGA:  23    -0.386254414716E+03   -0.36370E-04   -0.36330E-04  8320   0.491E-03-0.207E-05
CGA:  24    -0.386254451884E+03   -0.37168E-04   -0.37158E-04  8320   0.524E-03 0.468E-06
CGA:  25    -0.386254503982E+03   -0.52098E-04   -0.52092E-04  8320   0.288E-03 0.169E-06
CGA:  26    -0.386254517985E+03   -0.14003E-04   -0.14010E-04  8320   0.248E-03 0.253E-06
CGA:  27    -0.386254529895E+03   -0.11909E-04   -0.11898E-04  8320   0.184E-03-0.751E-06
CGA:  28    -0.386254543692E+03   -0.13797E-04   -0.13818E-04  8320   0.280E-03-0.142E-05
CGA:  29    -0.386254555938E+03   -0.12246E-04   -0.12206E-04  8320   0.891E-04-0.215E-05
CGA:  30    -0.386254563614E+03   -0.76766E-05   -0.76722E-05  8320   0.690E-04 0.158E-06
 107 F= -.38625456E+03 E0= -.38623893E+03  d E =-.246727E-02  mag=     4.5565
       N       E                     dE             d eps       ncg     rms          ort
SDA:   1    -0.385842032546E+03    0.41252E+00    0.00000E+00  8320   0.227E+01 0.000E+00
CGA:   2    -0.385919714490E+03   -0.77682E-01   -0.72749E-01  8320   0.162E+01 0.656E-01
CGA:   3    -0.386074809384E+03   -0.15509E+00   -0.15379E+00  8320   0.237E+01 0.351E-01
CGA:   4    -0.386158414789E+03   -0.83605E-01   -0.83182E-01  8320   0.687E+00 0.418E-02
CGA:   5    -0.386200172201E+03   -0.41757E-01   -0.41780E-01  8320   0.422E+00 0.854E-02
CGA:   6    -0.386232805085E+03   -0.32633E-01   -0.32617E-01  8320   0.240E+00 0.774E-03
CGA:   7    -0.386245346929E+03   -0.12542E-01   -0.12536E-01  8320   0.160E+00-0.179E-03
CGA:   8    -0.386249594620E+03   -0.42477E-02   -0.43413E-02  8320   0.378E-01-0.204E-02
CGA:   9    -0.386252374381E+03   -0.27798E-02   -0.27825E-02  8320   0.488E-01-0.125E-03
CGA:  10    -0.386254706349E+03   -0.23320E-02   -0.23359E-02  8320   0.194E-01 0.784E-04
CGA:  11    -0.386255730609E+03   -0.10243E-02   -0.10246E-02  8320   0.573E-02 0.188E-04
CGA:  12    -0.386256179575E+03   -0.44897E-03   -0.44915E-03  8320   0.676E-02-0.622E-05
CGA:  13    -0.386256434488E+03   -0.25491E-03   -0.25563E-03  8320   0.515E-02 0.421E-05
CGA:  14    -0.386256767748E+03   -0.33326E-03   -0.33323E-03  8320   0.162E-02 0.636E-05
CGA:  15    -0.386256855199E+03   -0.87451E-04   -0.87473E-04  8320   0.122E-02 0.259E-05
CGA:  16    -0.386256937613E+03   -0.82414E-04   -0.82405E-04  8320   0.117E-02 0.161E-06
CGA:  17    -0.386257015783E+03   -0.78170E-04   -0.78175E-04  8320   0.705E-03-0.923E-06
CGA:  18    -0.386257058917E+03   -0.43135E-04   -0.43134E-04  8320   0.685E-03 0.140E-05
CGA:  19    -0.386257081696E+03   -0.22779E-04   -0.22754E-04  8320   0.345E-03-0.114E-05
CGA:  20    -0.386257124752E+03   -0.43056E-04   -0.43312E-04  8320   0.305E-03-0.390E-05
CGA:  21    -0.386257148926E+03   -0.24174E-04   -0.24177E-04  8320   0.270E-03-0.208E-06
CGA:  22    -0.386257162960E+03   -0.14033E-04   -0.14035E-04  8320   0.210E-03 0.149E-07
CGA:  23    -0.386257177591E+03   -0.14631E-04   -0.14623E-04  8320   0.125E-03 0.119E-05
CGA:  24    -0.386257183422E+03   -0.58308E-05   -0.58342E-05  8320   0.117E-03 0.247E-06
 108 F= -.38625718E+03 E0= -.38624160E+03  d E =-.261981E-02  mag=     4.5526
       N       E                     dE             d eps       ncg     rms          ort
SDA:   1    -0.385883458599E+03    0.37372E+00    0.00000E+00  8320   0.137E+01 0.000E+00
CGA:   2    -0.385975218023E+03   -0.91759E-01   -0.91447E-01  8320   0.223E+01 0.358E-01
CGA:   3    -0.386105132697E+03   -0.12991E+00   -0.12923E+00  8320   0.201E+01-0.480E-01
CGA:   4    -0.386176187588E+03   -0.71055E-01   -0.72375E-01  8320   0.537E+00-0.684E-02
CGA:   5    -0.386205707374E+03   -0.29520E-01   -0.29552E-01  8320   0.479E+00 0.243E-02
CGA:   6    -0.386234896988E+03   -0.29190E-01   -0.29192E-01  8320   0.205E+00-0.211E-02
CGA:   7    -0.386245766760E+03   -0.10870E-01   -0.10897E-01  8320   0.733E-01 0.153E-02
CGA:   8    -0.386248320977E+03   -0.25542E-02   -0.25478E-02  8320   0.511E-01 0.633E-04
CGA:   9    -0.386251760727E+03   -0.34397E-02   -0.34409E-02  8320   0.300E-01-0.860E-04
CGA:  10    -0.386253226720E+03   -0.14660E-02   -0.14697E-02  8320   0.124E-01 0.118E-03
CGA:  11    -0.386253849065E+03   -0.62234E-03   -0.62182E-03  8320   0.102E-01-0.214E-04
CGA:  12    -0.386254292582E+03   -0.44352E-03   -0.44352E-03  8320   0.478E-02-0.108E-06
CGA:  13    -0.386254533703E+03   -0.24112E-03   -0.24109E-03  8320   0.401E-02-0.213E-05
CGA:  14    -0.386254758943E+03   -0.22524E-03   -0.22525E-03  8320   0.169E-02 0.106E-04
CGA:  15    -0.386254868199E+03   -0.10926E-03   -0.10927E-03  8320   0.183E-02-0.196E-05
CGA:  16    -0.386254945395E+03   -0.77197E-04   -0.77200E-04  8320   0.115E-02 0.665E-06
CGA:  17    -0.386255003249E+03   -0.57854E-04   -0.57854E-04  8320   0.502E-03-0.778E-08
CGA:  18    -0.386255049008E+03   -0.45759E-04   -0.45685E-04  8320   0.711E-03 0.203E-05
CGA:  19    -0.386255084280E+03   -0.35272E-04   -0.35266E-04  8320   0.623E-03-0.325E-06
CGA:  20    -0.386255116008E+03   -0.31728E-04   -0.31734E-04  8320   0.351E-03 0.814E-06
CGA:  21    -0.386255133744E+03   -0.17736E-04   -0.17737E-04  8320   0.261E-03-0.132E-07
CGA:  22    -0.386255154162E+03   -0.20418E-04   -0.20364E-04  8320   0.337E-03 0.253E-05
CGA:  23    -0.386255176079E+03   -0.21916E-04   -0.21904E-04  8320   0.229E-03 0.187E-05
CGA:  24    -0.386255183175E+03   -0.70963E-05   -0.71248E-05  8320   0.974E-04 0.812E-06
 109 F= -.38625518E+03 E0= -.38623961E+03  d E =0.200025E-02  mag=     4.5568
       N       E                     dE             d eps       ncg     rms          ort
SDA:   1    -0.386141911017E+03    0.11327E+00    0.00000E+00  8320   0.643E+00 0.000E+00
CGA:   2    -0.386160777706E+03   -0.18867E-01   -0.18614E-01  8320   0.469E+00 0.401E-02
CGA:   3    -0.386209463496E+03   -0.48686E-01   -0.48401E-01  8320   0.445E+00 0.580E-02
CGA:   4    -0.386233861948E+03   -0.24398E-01   -0.24456E-01  8320   0.222E+00 0.450E-02
CGA:   5    -0.386242749732E+03   -0.88878E-02   -0.88545E-02  8320   0.948E-01-0.522E-05
CGA:   6    -0.386248141568E+03   -0.53918E-02   -0.53942E-02  8320   0.986E-01 0.852E-03
CGA:   7    -0.386252316691E+03   -0.41751E-02   -0.41695E-02  8320   0.523E-01-0.271E-04
CGA:   8    -0.386254413426E+03   -0.20967E-02   -0.20883E-02  8320   0.830E-02-0.194E-04
CGA:   9    -0.386255173640E+03   -0.76021E-03   -0.75911E-03  8320   0.641E-02 0.277E-04
CGA:  10    -0.386255611867E+03   -0.43823E-03   -0.43852E-03  8320   0.797E-02-0.223E-04
CGA:  11    -0.386255848486E+03   -0.23662E-03   -0.23484E-03  8320   0.148E-02 0.154E-04
CGA:  12    -0.386255939616E+03   -0.91130E-04   -0.91128E-04  8320   0.847E-03 0.264E-07
CGA:  13    -0.386256023305E+03   -0.83689E-04   -0.83723E-04  8320   0.109E-02-0.695E-06
CGA:  14    -0.386256069189E+03   -0.45884E-04   -0.45914E-04  8320   0.445E-03 0.591E-06
CGA:  15    -0.386256093108E+03   -0.23919E-04   -0.23917E-04  8320   0.263E-03-0.471E-07
CGA:  16    -0.386256102302E+03   -0.91939E-05   -0.92082E-05  8320   0.189E-03 0.691E-06
CGA:  17    -0.386256125964E+03   -0.23663E-04   -0.23661E-04  8320   0.170E-03 0.303E-08
CGA:  18    -0.386256137768E+03   -0.11804E-04   -0.11792E-04  8320   0.922E-04 0.134E-05
CGA:  19    -0.386256143923E+03   -0.61545E-05   -0.61561E-05  8320   0.118E-03-0.251E-06
 110 F= -.38625614E+03 E0= -.38624058E+03  d E =-.960747E-03  mag=     4.5570
       N       E                     dE             d eps       ncg     rms          ort
SDA:   1    -0.386213161413E+03    0.42976E-01    0.00000E+00  8320   0.479E+00 0.000E+00
CGA:   2    -0.386223462013E+03   -0.10301E-01   -0.10346E-01  8320   0.144E+00-0.197E-02
CGA:   3    -0.386235895195E+03   -0.12433E-01   -0.12594E-01  8320   0.184E+00-0.462E-02
CGA:   4    -0.386247752348E+03   -0.11857E-01   -0.11840E-01  8320   0.667E-01 0.160E-02
CGA:   5    -0.386251550517E+03   -0.37982E-02   -0.37968E-02  8320   0.621E-01-0.155E-03
CGA:   6    -0.386253926540E+03   -0.23760E-02   -0.23782E-02  8320   0.321E-01-0.518E-05
CGA:   7    -0.386255975127E+03   -0.20486E-02   -0.20498E-02  8320   0.193E-01-0.142E-03
CGA:   8    -0.386256550646E+03   -0.57552E-03   -0.58018E-03  8320   0.341E-02-0.668E-04
CGA:   9    -0.386256883015E+03   -0.33237E-03   -0.33188E-03  8320   0.460E-02 0.121E-04
CGA:  10    -0.386257067195E+03   -0.18418E-03   -0.18431E-03  8320   0.281E-02 0.523E-05
CGA:  11    -0.386257178919E+03   -0.11172E-03   -0.11162E-03  8320   0.778E-03-0.592E-06
CGA:  12    -0.386257232538E+03   -0.53619E-04   -0.53610E-04  8320   0.441E-03 0.618E-06
CGA:  13    -0.386257259598E+03   -0.27059E-04   -0.27065E-04  8320   0.598E-03-0.193E-05
CGA:  14    -0.386257285864E+03   -0.26266E-04   -0.26257E-04  8320   0.281E-03-0.944E-06
CGA:  15    -0.386257300908E+03   -0.15044E-04   -0.15039E-04  8320   0.125E-03-0.113E-05
CGA:  16    -0.386257308104E+03   -0.71958E-05   -0.71960E-05  8320   0.118E-03-0.227E-06
 111 F= -.38625731E+03 E0= -.38624174E+03  d E =-.116418E-02  mag=     4.5579
