       N       E                     dE             d eps       ncg     rms          rms(c)
DAV:   1     0.717583643731E+04    0.71758E+04   -0.33736E+05 41440   0.173E+03
DAV:   2     0.494955900343E+03   -0.66809E+04   -0.62836E+04 39976   0.524E+02
DAV:   3    -0.273093568955E+03   -0.76805E+03   -0.74188E+03 41376   0.194E+02
DAV:   4    -0.307681983541E+03   -0.34588E+02   -0.34336E+02 44912   0.402E+01
DAV:   5    -0.310392597352E+03   -0.27106E+01   -0.27028E+01 69976   0.780E+00    0.270E+00
DAV:   6    -0.311729823534E+03   -0.13372E+01   -0.28248E+00 50768   0.542E+00    0.119E+01
DAV:   7    -0.311459392500E+03    0.27043E+00   -0.16748E+00 48280   0.365E+00    0.608E+00
DAV:   8    -0.311485795074E+03   -0.26403E-01   -0.65177E-01 48176   0.323E+00    0.548E+00
DAV:   9    -0.311479784315E+03    0.60108E-02   -0.24465E-01 47000   0.221E+00    0.569E+00
DAV:  10    -0.311467463914E+03    0.12320E-01   -0.33849E-01 44784   0.124E+00    0.290E+00
DAV:  11    -0.311481125858E+03   -0.13662E-01   -0.17666E-01 44192   0.131E+00    0.318E+00
DAV:  12    -0.311473751688E+03    0.73742E-02   -0.10640E-01 44320   0.109E+00    0.224E+00
DAV:  13    -0.311473485984E+03    0.26570E-03   -0.50757E-02 44392   0.759E-01    0.167E+00
DAV:  14    -0.311473314738E+03    0.17125E-03   -0.16591E-02 47800   0.427E-01    0.967E-01
DAV:  15    -0.311474197304E+03   -0.88257E-03   -0.37797E-03 46416   0.273E-01    0.936E-01
DAV:  16    -0.311473986911E+03    0.21039E-03   -0.96453E-04 45600   0.123E-01    0.836E-01
DAV:  17    -0.311474031232E+03   -0.44321E-04   -0.74623E-04 46400   0.113E-01    0.762E-01
DAV:  18    -0.311474072655E+03   -0.41422E-04   -0.75362E-04 46416   0.129E-01    0.586E-01
DAV:  19    -0.311474270149E+03   -0.19749E-03   -0.13891E-03 47640   0.137E-01    0.454E-01
DAV:  20    -0.311474444328E+03   -0.17418E-03   -0.49670E-04 45016   0.107E-01    0.372E-01
DAV:  21    -0.311474530253E+03   -0.85925E-04   -0.24091E-04 40568   0.720E-02    0.352E-01
DAV:  22    -0.311474556599E+03   -0.26346E-04   -0.11099E-04 32704   0.539E-02    0.357E-01
DAV:  23    -0.311474519962E+03    0.36637E-04   -0.27080E-05 25024   0.217E-02    0.330E-01
DAV:  24    -0.311474510485E+03    0.94769E-05   -0.26305E-05 22472   0.204E-02
   1 F= -.31147451E+03 E0= -.31145258E+03  d E =-.311475E+03  mag=    25.9084
