       N       E                     dE             d eps       ncg     rms          ort
DAV:   1     0.567908528975E+04    0.56791E+04   -0.26813E+05  7488   0.168E+03
DAV:   2     0.254435628692E+03   -0.54246E+04   -0.50081E+04  7488   0.472E+02
DAV:   3    -0.385276051929E+03   -0.63971E+03   -0.62952E+03  7488   0.178E+02
DAV:   4    -0.402333355614E+03   -0.17057E+02   -0.16946E+02  7488   0.305E+01
DAV:   5    -0.402892720076E+03   -0.55936E+00   -0.55823E+00  7488   0.463E+00
SDA:   6    -0.164693786695E+03    0.23820E+03   -0.55823E+00  7488   0.106E+04 0.000E+00
CGA:   7    -0.250582452331E+03   -0.85889E+02   -0.11234E+03  7488   0.230E+04-0.106E+03
CGA:   8    -0.282854078188E+03   -0.32272E+02   -0.58623E+02  7488   0.214E+03-0.295E+03
CGA:   9    -0.295105808011E+03   -0.12252E+02   -0.52697E+01  7488   0.204E+03 0.254E+03
CGA:  10    -0.282649697269E+03    0.12456E+02   -0.11837E+02  7488   0.271E+04-0.464E+03
CGA:  11    -0.302386105513E+03   -0.19736E+02   -0.10444E+03  7488   0.322E+03-0.112E+03
CGA:  12    -0.309536725886E+03   -0.71506E+01   -0.81675E+01  7488   0.196E+03-0.117E+01
CGA:  13    -0.283676738680E+03    0.25860E+02   -0.82259E+01  7488   0.132E+04-0.404E+03
CGA:  14    -0.314247011236E+03   -0.30570E+02   -0.28165E+02  7488   0.670E+03-0.711E+03
CGA:  15    -0.303688898230E+03    0.10558E+02   -0.35012E+02  7488   0.812E+03-0.267E+03
CGA:  16    -0.308053358593E+03   -0.43645E+01   -0.13637E+02  7488   0.119E+04-0.370E+03
CGA:  17    -0.304606261667E+03    0.34471E+01   -0.32562E+02  7488   0.816E+03-0.745E+02
CGA:  18    -0.322641953720E+03   -0.18036E+02   -0.20868E+02  7488   0.524E+03 0.123E+03
CGA:  19    -0.308596512686E+03    0.14045E+02   -0.26623E+02  7488   0.770E+03-0.328E+03
CGA:  20    -0.328620061311E+03   -0.20024E+02   -0.15408E+02  7488   0.934E+02-0.139E+03
CGA:  21    -0.331317137118E+03   -0.26971E+01   -0.15620E+01  7488   0.458E+02 0.245E+02
CGA:  22    -0.330229366635E+03    0.10878E+01   -0.13851E+01  7488   0.230E+03-0.106E+03
CGA:  23    -0.327930427648E+03    0.22989E+01   -0.11129E+02  7488   0.213E+03-0.379E+02
CGA:  24    -0.324762619881E+03    0.31678E+01   -0.60465E+01  7488   0.611E+03-0.450E+02
CGA:  25    -0.316314767994E+03    0.84479E+01   -0.20850E+02  7488   0.323E+03-0.120E+02
CGA:  26    -0.326590250391E+03   -0.10275E+02   -0.92730E+01  7488   0.316E+03-0.558E+03
CGA:  27    -0.325405494365E+03    0.11848E+01   -0.10423E+02  7488   0.331E+03-0.258E+03
CGA:  28    -0.326332814615E+03   -0.92732E+00   -0.92785E+01  7488   0.281E+03-0.257E+03
CGA:  29    -0.324407055508E+03    0.19258E+01   -0.84291E+01  7488   0.384E+03-0.339E+03
CGA:  30    -0.326454651144E+03   -0.20476E+01   -0.10352E+02  7488   0.276E+03-0.304E+03
CGA:  31    -0.326306723771E+03    0.14793E+00   -0.76342E+01  7488   0.379E+03-0.374E+03
CGA:  32    -0.326003579834E+03    0.30314E+00   -0.10907E+02  7488   0.279E+03-0.264E+03
CGA:  33    -0.328085051200E+03   -0.20815E+01   -0.72290E+01  7488   0.366E+03-0.423E+03
CGA:  34    -0.327500631309E+03    0.58442E+00   -0.10047E+02  7488   0.248E+03-0.236E+03
CGA:  35    -0.330257672333E+03   -0.27570E+01   -0.58068E+01  7488   0.299E+03-0.389E+03
CGA:  36    -0.329702291429E+03    0.55538E+00   -0.75630E+01  7488   0.199E+03-0.187E+03
CGA:  37    -0.332354502808E+03   -0.26522E+01   -0.40056E+01  7488   0.175E+03-0.270E+03
CGA:  38    -0.332102834675E+03    0.25167E+00   -0.39426E+01  7488   0.141E+03-0.131E+03
CGA:  39    -0.333684508299E+03   -0.15817E+01   -0.23680E+01  7488   0.616E+02-0.116E+03
CGA:  40    -0.333888379540E+03   -0.20387E+00   -0.11284E+01  7488   0.380E+02-0.446E+02
CGA:  41    -0.334303741426E+03   -0.41536E+00   -0.44951E+00  7488   0.145E+01-0.597E+01
CGA:  42    -0.334330374883E+03   -0.26633E-01   -0.26910E-01  7488   0.889E+00-0.103E-01
CGA:  43    -0.334503708949E+03   -0.17333E+00   -0.14791E+00  7488   0.476E+01 0.198E+00
CGA:  44    -0.334568315986E+03   -0.64607E-01   -0.39782E-01  7488   0.231E+01 0.347E+01
CGA:  45    -0.334605037493E+03   -0.36722E-01   -0.44971E-01  7488   0.595E+00-0.303E+00
CGA:  46    -0.334617170803E+03   -0.12133E-01   -0.11857E-01  7488   0.621E+00 0.767E-02
CGA:  47    -0.334654182629E+03   -0.37012E-01   -0.38539E-01  7488   0.196E+01-0.136E+00
CGA:  48    -0.334727439975E+03   -0.73257E-01   -0.45833E-01  7488   0.219E+01 0.881E+00
CGA:  49    -0.334753591679E+03   -0.26152E-01   -0.16569E-01  7488   0.616E+00 0.176E+01
CGA:  50    -0.334761784476E+03   -0.81928E-02   -0.93793E-02  7488   0.347E+00-0.616E-01
CGA:  51    -0.334770012099E+03   -0.82276E-02   -0.81588E-02  7488   0.397E+00 0.820E-03
CGA:  52    -0.334789679808E+03   -0.19668E-01   -0.19623E-01  7488   0.321E+00 0.192E-01
CGA:  53    -0.334805018688E+03   -0.15339E-01   -0.15392E-01  7488   0.665E+00 0.100E-01
CGA:  54    -0.334820420943E+03   -0.15402E-01   -0.15150E-01  7488   0.597E+00 0.144E-01
CGA:  55    -0.334837665111E+03   -0.17244E-01   -0.15837E-01  7488   0.267E+00 0.212E-01
CGA:  56    -0.334849244489E+03   -0.11579E-01   -0.11476E-01  7488   0.212E+00-0.984E-02
CGA:  57    -0.334854074560E+03   -0.48301E-02   -0.45668E-02  7488   0.139E+00 0.610E-02
CGA:  58    -0.334856557393E+03   -0.24828E-02   -0.24905E-02  7488   0.111E+00-0.836E-03
CGA:  59    -0.334865843327E+03   -0.92859E-02   -0.87751E-02  7488   0.948E-01 0.116E-01
CGA:  60    -0.334868322974E+03   -0.24796E-02   -0.25352E-02  7488   0.825E-01-0.106E-02
CGA:  61    -0.334870166881E+03   -0.18439E-02   -0.18492E-02  7488   0.705E-01-0.310E-03
CGA:  62    -0.334872430647E+03   -0.22638E-02   -0.22388E-02  7488   0.559E-01-0.593E-03
CGA:  63    -0.334874283373E+03   -0.18527E-02   -0.18443E-02  7488   0.394E-01-0.451E-03
CGA:  64    -0.334878068963E+03   -0.37856E-02   -0.34805E-02  7488   0.498E-01 0.626E-02
CGA:  65    -0.334879022064E+03   -0.95310E-03   -0.91477E-03  7488   0.303E-01 0.159E-02
CGA:  66    -0.334880411973E+03   -0.13899E-02   -0.13910E-02  7488   0.484E-01-0.405E-03
CGA:  67    -0.334881407739E+03   -0.99577E-03   -0.96198E-03  7488   0.154E-01 0.805E-03
CGA:  68    -0.334883450560E+03   -0.20428E-02   -0.23744E-02  7488   0.954E-01-0.457E-02
CGA:  69    -0.334884563127E+03   -0.11126E-02   -0.11576E-02  7488   0.635E-01 0.977E-04
CGA:  70    -0.334885509153E+03   -0.94603E-03   -0.10987E-02  7488   0.528E-01-0.593E-02
CGA:  71    -0.334886509800E+03   -0.10006E-02   -0.85659E-03  7488   0.180E-01 0.556E-02
CGA:  72    -0.334886874893E+03   -0.36509E-03   -0.34872E-03  7488   0.217E-01 0.594E-03
CGA:  73    -0.334887603675E+03   -0.72878E-03   -0.73225E-03  7488   0.254E-01 0.805E-04
CGA:  74    -0.334887990583E+03   -0.38691E-03   -0.38212E-03  7488   0.248E-01 0.230E-03
CGA:  75    -0.334888864443E+03   -0.87386E-03   -0.85083E-03  7488   0.409E-01-0.117E-02
CGA:  76    -0.334889269337E+03   -0.40489E-03   -0.38991E-03  7488   0.198E-01 0.161E-02
CGA:  77    -0.334889576599E+03   -0.30726E-03   -0.34478E-03  7488   0.299E-01-0.134E-02
CGA:  78    -0.334890173390E+03   -0.59679E-03   -0.57786E-03  7488   0.196E-01 0.779E-03
CGA:  79    -0.334890464537E+03   -0.29115E-03   -0.24687E-03  7488   0.227E-01 0.276E-02
SDA:  80    -0.334891076507E+03   -0.61197E-03   -0.56534E-03  7488   0.462E-01 0.548E-03
CGA:  81    -0.334891464379E+03   -0.38787E-03   -0.38617E-03  7488   0.922E-02 0.171E-03
CGA:  82    -0.334892660689E+03   -0.11963E-02   -0.12494E-02  7488   0.208E-01-0.688E-03
CGA:  83    -0.334893699623E+03   -0.10389E-02   -0.10336E-02  7488   0.721E-01 0.268E-03
CGA:  84    -0.334895084238E+03   -0.13846E-02   -0.13703E-02  7488   0.194E-01 0.411E-03
CGA:  85    -0.334895838182E+03   -0.75394E-03   -0.75375E-03  7488   0.423E-01 0.149E-03
CGA:  86    -0.334896630524E+03   -0.79234E-03   -0.77536E-03  7488   0.166E-01 0.466E-03
CGA:  87    -0.334897385331E+03   -0.75481E-03   -0.75632E-03  7488   0.438E-01-0.130E-03
CGA:  88    -0.334898145245E+03   -0.75991E-03   -0.76665E-03  7488   0.723E-02-0.193E-03
CGA:  89    -0.334898412392E+03   -0.26715E-03   -0.26711E-03  7488   0.165E-01 0.286E-04
CGA:  90    -0.334898753074E+03   -0.34068E-03   -0.33884E-03  7488   0.618E-02 0.623E-04
CGA:  91    -0.334898959225E+03   -0.20615E-03   -0.20653E-03  7488   0.109E-01 0.774E-04
CGA:  92    -0.334899138936E+03   -0.17971E-03   -0.17496E-03  7488   0.245E-02 0.208E-03
CGA:  93    -0.334899242403E+03   -0.10347E-03   -0.10316E-03  7488   0.706E-02 0.327E-04
CGA:  94    -0.334899419426E+03   -0.17702E-03   -0.17531E-03  7488   0.307E-02 0.423E-05
CGA:  95    -0.334899580487E+03   -0.16106E-03   -0.16360E-03  7488   0.103E-01-0.119E-03
CGA:  96    -0.334899751447E+03   -0.17096E-03   -0.17136E-03  7488   0.244E-02 0.207E-04
CGA:  97    -0.334900106783E+03   -0.35534E-03   -0.37629E-03  7488   0.786E-02-0.340E-03
CGA:  98    -0.334900187951E+03   -0.81168E-04   -0.80888E-04  7488   0.396E-02 0.290E-04
CGA:  99    -0.334900282058E+03   -0.94107E-04   -0.95502E-04  7488   0.288E-02-0.212E-04
CGA: 100    -0.334900312187E+03   -0.30128E-04   -0.28678E-04  7488   0.137E-02 0.100E-03
CGA: 101    -0.334900396145E+03   -0.83958E-04   -0.86482E-04  7488   0.623E-02-0.981E-04
CGA: 102    -0.334900456486E+03   -0.60342E-04   -0.64927E-04  7488   0.196E-02-0.387E-03
CGA: 103    -0.334900493736E+03   -0.37249E-04   -0.37246E-04  7488   0.312E-02-0.186E-04
CGA: 104    -0.334900531208E+03   -0.37472E-04   -0.35692E-04  7488   0.100E-02 0.862E-04
CGA: 105    -0.334900555504E+03   -0.24296E-04   -0.24046E-04  7488   0.279E-02-0.652E-05
CGA: 106    -0.334900609926E+03   -0.54422E-04   -0.54145E-04  7488   0.203E-02-0.768E-05
CGA: 107    -0.334900630880E+03   -0.20954E-04   -0.21379E-04  7488   0.179E-02-0.360E-04
CGA: 108    -0.334900670371E+03   -0.39491E-04   -0.39746E-04  7488   0.154E-02 0.272E-05
CGA: 109    -0.334900683187E+03   -0.12816E-04   -0.12689E-04  7488   0.707E-03 0.194E-04
CGA: 110    -0.334900703003E+03   -0.19815E-04   -0.19836E-04  7488   0.165E-02 0.747E-05
SDA: 111    -0.334900722034E+03   -0.19031E-04   -0.19511E-04  7488   0.880E-03-0.468E-05
CGA: 112    -0.334900755345E+03   -0.33311E-04   -0.33313E-04  7488   0.220E-02-0.516E-06
CGA: 113    -0.334900789541E+03   -0.34196E-04   -0.34242E-04  7488   0.632E-03 0.561E-05
CGA: 114    -0.334900834531E+03   -0.44990E-04   -0.44373E-04  7488   0.411E-02 0.130E-04
CGA: 115    -0.334900926755E+03   -0.92223E-04   -0.93905E-04  7488   0.684E-03 0.388E-04
CGA: 116    -0.334901011543E+03   -0.84788E-04   -0.82977E-04  7488   0.350E-02 0.570E-05
CGA: 117    -0.334901063167E+03   -0.51624E-04   -0.52944E-04  7488   0.176E-02 0.125E-04
CGA: 118    -0.334901118452E+03   -0.55285E-04   -0.52665E-04  7488   0.127E-02-0.202E-03
CGA: 119    -0.334901129105E+03   -0.10653E-04   -0.10901E-04  7488   0.379E-03-0.181E-04
CGA: 120    -0.334901140291E+03   -0.11185E-04   -0.11185E-04  7488   0.695E-03-0.263E-05
CGA: 121    -0.334901149735E+03   -0.94443E-05   -0.91551E-05  7488   0.552E-03 0.640E-05
CGA: 122    -0.334901173563E+03   -0.23828E-04   -0.24028E-04  7488   0.151E-02-0.192E-04
CGA: 123    -0.334901190421E+03   -0.16858E-04   -0.15366E-04  7488   0.483E-03 0.124E-03
CGA: 124    -0.334901200937E+03   -0.10516E-04   -0.10271E-04  7488   0.880E-03-0.477E-05
CGA: 125    -0.334901213961E+03   -0.13025E-04   -0.99894E-05  7488   0.765E-03 0.193E-03
CGA: 126    -0.334901223739E+03   -0.97779E-05   -0.79535E-05  7488   0.795E-03 0.169E-03
CGA: 127    -0.334901237564E+03   -0.13825E-04   -0.10781E-04  7488   0.154E-02 0.201E-03
CGA: 128    -0.334901245227E+03   -0.76630E-05   -0.44518E-05  7488   0.150E-02 0.134E-02
CGA: 129    -0.334901263797E+03   -0.18570E-04   -0.18590E-04  7488   0.879E-03-0.149E-05
CGA: 130    -0.334901290626E+03   -0.26829E-04   -0.26817E-04  7488   0.433E-03 0.241E-06
CGA: 131    -0.334901375429E+03   -0.84803E-04   -0.98495E-05  7488   0.953E-03 0.598E-04
CGA: 132    -0.334901400952E+03   -0.25523E-04   -0.25756E-04  7488   0.208E-02-0.156E-05
CGA: 133    -0.334901451843E+03   -0.50890E-04   -0.51845E-04  7488   0.674E-03-0.999E-05
CGA: 134    -0.334901492596E+03   -0.40754E-04   -0.41751E-04  7488   0.338E-02-0.479E-04
CGA: 135    -0.334901516074E+03   -0.23478E-04   -0.15175E-04  7488   0.167E-02 0.169E-02
CGA: 136    -0.334901528780E+03   -0.12706E-04   -0.12728E-04  7488   0.318E-03-0.623E-05
CGA: 137    -0.334901542920E+03   -0.14139E-04   -0.14154E-04  7488   0.362E-03-0.589E-05
CGA: 138    -0.334901548664E+03   -0.57440E-05   -0.56772E-05  7488   0.368E-03-0.359E-05
CGA: 139    -0.334901573089E+03   -0.24425E-04   -0.25386E-04  7488   0.239E-03-0.332E-04
CGA: 140    -0.334901583401E+03   -0.10312E-04   -0.10317E-04  7488   0.313E-03-0.321E-05
CGA: 141    -0.334901586790E+03   -0.33886E-05   -0.33458E-05  7488   0.153E-03-0.713E-06
CGA: 142    -0.334901604709E+03   -0.17919E-04   -0.19312E-04  7488   0.595E-03-0.236E-04
CGA: 143    -0.334901613442E+03   -0.87329E-05   -0.60088E-05  7488   0.549E-03 0.208E-03
CGA: 144    -0.334901628023E+03   -0.14581E-04   -0.10725E-04  7488   0.429E-03 0.231E-03
CGA: 145    -0.334901634481E+03   -0.64580E-05   -0.58631E-05  7488   0.153E-03 0.630E-04
   1 F= -.33490163E+03 E0= -.33486738E+03  d E =-.334902E+03  mag=    32.0000
       N       E                     dE             d eps       ncg     rms          ort
SDA:   1    -0.334435542243E+03    0.46609E+00    0.00000E+00  7488   0.611E+02 0.000E+00
CGA:   2    -0.334700503306E+03   -0.26496E+00   -0.65329E+00  7488   0.188E+02-0.313E+02
CGA:   3    -0.334835582463E+03   -0.13508E+00   -0.11253E+00  7488   0.623E+00 0.316E+01
CGA:   4    -0.334840921474E+03   -0.53390E-02   -0.51080E-02  7488   0.193E+00 0.283E-01
CGA:   5    -0.334853891210E+03   -0.12970E-01   -0.13034E-01  7488   0.101E+01-0.216E-02
CGA:   6    -0.334866075817E+03   -0.12185E-01   -0.12024E-01  7488   0.498E+00 0.888E-02
CGA:   7    -0.334877138063E+03   -0.11062E-01   -0.11071E-01  7488   0.854E+00-0.641E-03
CGA:   8    -0.334886380873E+03   -0.92428E-02   -0.93946E-02  7488   0.113E+00-0.958E-02
CGA:   9    -0.334887617180E+03   -0.12363E-02   -0.12408E-02  7488   0.112E+00-0.300E-03
CGA:  10    -0.334894064360E+03   -0.64472E-02   -0.64396E-02  7488   0.313E+00 0.274E-03
CGA:  11    -0.334896768562E+03   -0.27042E-02   -0.27017E-02  7488   0.697E-01 0.758E-03
CGA:  12    -0.334898203040E+03   -0.14345E-02   -0.14516E-02  7488   0.738E-01 0.533E-04
CGA:  13    -0.334898944838E+03   -0.74180E-03   -0.75987E-03  7488   0.206E-01-0.113E-02
CGA:  14    -0.334899763308E+03   -0.81847E-03   -0.81903E-03  7488   0.692E-01-0.132E-04
CGA:  15    -0.334900648788E+03   -0.88548E-03   -0.88004E-03  7488   0.104E-01 0.526E-03
CGA:  16    -0.334900827191E+03   -0.17840E-03   -0.17893E-03  7488   0.158E-01 0.191E-04
CGA:  17    -0.334901213480E+03   -0.38629E-03   -0.38736E-03  7488   0.947E-02 0.959E-04
CGA:  18    -0.334901384316E+03   -0.17084E-03   -0.17111E-03  7488   0.146E-01 0.167E-04
CGA:  19    -0.334901716264E+03   -0.33195E-03   -0.33241E-03  7488   0.373E-02 0.417E-04
CGA:  20    -0.334901750295E+03   -0.34031E-04   -0.34017E-04  7488   0.195E-02 0.479E-05
CGA:  21    -0.334901907149E+03   -0.15685E-03   -0.15773E-03  7488   0.840E-02-0.180E-04
CGA:  22    -0.334901985820E+03   -0.78671E-04   -0.78715E-04  7488   0.171E-02-0.146E-04
CGA:  23    -0.334902027288E+03   -0.41468E-04   -0.41490E-04  7488   0.231E-02-0.110E-05
CGA:  24    -0.334902053043E+03   -0.25754E-04   -0.25795E-04  7488   0.757E-03-0.788E-05
CGA:  25    -0.334902087882E+03   -0.34840E-04   -0.34932E-04  7488   0.320E-02-0.505E-05
CGA:  26    -0.334902133774E+03   -0.45892E-04   -0.45798E-04  7488   0.626E-03-0.643E-05
CGA:  27    -0.334902144195E+03   -0.10421E-04   -0.10408E-04  7488   0.745E-03-0.132E-05
CGA:  28    -0.334902156320E+03   -0.12126E-04   -0.12142E-04  7488   0.285E-03-0.155E-05
CGA:  29    -0.334902164371E+03   -0.80507E-05   -0.80507E-05  7488   0.898E-03-0.512E-07
CGA:  30    -0.334902191725E+03   -0.27354E-04   -0.27356E-04  7488   0.316E-03-0.187E-06
CGA:  31    -0.334902194406E+03   -0.26804E-05   -0.26808E-05  7488   0.125E-03-0.825E-07
   2 F= -.33490219E+03 E0= -.33486796E+03  d E =-.559925E-03  mag=    32.0000
       N       E                     dE             d eps       ncg     rms          ort
SDA:   1    -0.334877814781E+03    0.24377E-01    0.00000E+00  7488   0.278E+01 0.000E+00
CGA:   2    -0.334895012662E+03   -0.17198E-01   -0.17809E-01  7488   0.705E-01-0.844E-01
CGA:   3    -0.334896493922E+03   -0.14813E-02   -0.14739E-02  7488   0.601E-01-0.325E-03
CGA:   4    -0.334897246276E+03   -0.75235E-03   -0.75212E-03  7488   0.207E-01 0.141E-03
CGA:   5    -0.334899866175E+03   -0.26199E-02   -0.60622E-05  7488   0.107E+00-0.489E-02
CGA:   6    -0.334900382655E+03   -0.51648E-03   -0.52360E-03  7488   0.161E-01-0.529E-03
CGA:   7    -0.334900564730E+03   -0.18207E-03   -0.18186E-03  7488   0.218E-01 0.206E-04
CGA:   8    -0.334901051559E+03   -0.48683E-03   -0.48030E-03  7488   0.231E-01 0.992E-04
CGA:   9    -0.334901239975E+03   -0.18842E-03   -0.18586E-03  7488   0.131E-01 0.174E-03
CGA:  10    -0.334901562665E+03   -0.32269E-03   -0.32227E-03  7488   0.254E-01-0.718E-04
CGA:  11    -0.334901759908E+03   -0.19724E-03   -0.19816E-03  7488   0.537E-02-0.310E-03
CGA:  12    -0.334901833783E+03   -0.73874E-04   -0.73626E-04  7488   0.872E-02-0.382E-04
CGA:  13    -0.334901983387E+03   -0.14960E-03   -0.14986E-03  7488   0.408E-02-0.929E-04
CGA:  14    -0.334902011866E+03   -0.28479E-04   -0.28134E-04  7488   0.175E-02-0.602E-05
CGA:  15    -0.334902073566E+03   -0.61700E-04   -0.61727E-04  7488   0.653E-02-0.261E-04
CGA:  16    -0.334902134919E+03   -0.61353E-04   -0.60575E-04  7488   0.109E-02-0.628E-05
CGA:  17    -0.334902142717E+03   -0.77983E-05   -0.77542E-05  7488   0.555E-03-0.348E-05
CGA:  18    -0.334902160303E+03   -0.17587E-04   -0.17586E-04  7488   0.209E-02-0.147E-05
CGA:  19    -0.334902187938E+03   -0.27635E-04   -0.27664E-04  7488   0.980E-03-0.365E-05
CGA:  20    -0.334902195929E+03   -0.79905E-05   -0.80019E-05  7488   0.477E-03-0.214E-06
   3 F= -.33490220E+03 E0= -.33486796E+03  d E =-.561448E-03  mag=    32.0000
       N       E                     dE             d eps       ncg     rms          ort
SDA:   1    -0.323495276396E+03    0.11407E+02    0.00000E+00  7488   0.143E+03 0.000E+00
CGA:   2    -0.326210185010E+03   -0.27149E+01   -0.13811E+01  7488   0.161E+03 0.199E+03
CGA:   3    -0.331258922341E+03   -0.50487E+01   -0.13624E+01  7488   0.124E+03 0.268E+03
CGA:   4    -0.332706818665E+03   -0.14479E+01   -0.12878E+01  7488   0.695E+02 0.247E+02
CGA:   5    -0.333213680878E+03   -0.50686E+00   -0.20887E+00  7488   0.783E+02 0.123E+03
CGA:   6    -0.334239844802E+03   -0.10262E+01   -0.49799E+00  7488   0.459E+02 0.747E+02
CGA:   7    -0.334683881275E+03   -0.44404E+00   -0.26522E+00  7488   0.116E+02 0.258E+02
CGA:   8    -0.334801286039E+03   -0.11740E+00   -0.94876E-01  7488   0.192E+01 0.198E+01
CGA:   9    -0.334847380955E+03   -0.46095E-01   -0.45252E-01  7488   0.182E+01-0.130E+00
CGA:  10    -0.334858888293E+03   -0.11507E-01   -0.99397E-02  7488   0.556E+00 0.228E+00
CGA:  11    -0.334862840458E+03   -0.39522E-02   -0.39521E-02  7488   0.325E+00-0.126E-03
CGA:  12    -0.334868234026E+03   -0.53936E-02   -0.54118E-02  7488   0.826E+00 0.174E-02
CGA:  13    -0.334878427397E+03   -0.10193E-01   -0.10633E-01  7488   0.599E+00-0.535E-02
CGA:  14    -0.334882832162E+03   -0.44048E-02   -0.43894E-02  7488   0.336E+00 0.130E-02
CGA:  15    -0.334888567951E+03   -0.57358E-02   -0.57093E-02  7488   0.665E+00-0.358E-02
CGA:  16    -0.334894400995E+03   -0.58330E-02   -0.55085E-02  7488   0.271E+00 0.245E-01
CGA:  17    -0.334895850790E+03   -0.14498E-02   -0.14224E-02  7488   0.729E-01 0.434E-02
CGA:  18    -0.334896562955E+03   -0.71216E-03   -0.71502E-03  7488   0.976E-01-0.129E-03
CGA:  19    -0.334897844105E+03   -0.12811E-02   -0.12952E-02  7488   0.104E+00 0.548E-03
CGA:  20    -0.334898504771E+03   -0.66067E-03   -0.66916E-03  7488   0.347E-01-0.907E-03
CGA:  21    -0.334898884476E+03   -0.37970E-03   -0.37966E-03  7488   0.537E-01 0.145E-04
CGA:  22    -0.334899827843E+03   -0.94337E-03   -0.94418E-03  7488   0.820E-01-0.493E-03
CGA:  23    -0.334900345918E+03   -0.51807E-03   -0.51391E-03  7488   0.228E-01 0.511E-03
CGA:  24    -0.334900516629E+03   -0.17071E-03   -0.17078E-03  7488   0.196E-01 0.113E-04
CGA:  25    -0.334900861729E+03   -0.34510E-03   -0.34460E-03  7488   0.434E-01 0.180E-03
CGA:  26    -0.334901240822E+03   -0.37909E-03   -0.38274E-03  7488   0.168E-01-0.122E-03
CGA:  27    -0.334901360912E+03   -0.12009E-03   -0.12000E-03  7488   0.113E-01 0.208E-04
CGA:  28    -0.334901556383E+03   -0.19547E-03   -0.19565E-03  7488   0.229E-01-0.490E-04
CGA:  29    -0.334901744042E+03   -0.18766E-03   -0.18653E-03  7488   0.788E-02 0.731E-04
CGA:  30    -0.334901791045E+03   -0.47003E-04   -0.47010E-04  7488   0.355E-02 0.427E-05
CGA:  31    -0.334901844201E+03   -0.53157E-04   -0.53153E-04  7488   0.759E-02 0.404E-05
CGA:  32    -0.334901932484E+03   -0.88283E-04   -0.88375E-04  7488   0.520E-02 0.923E-05
CGA:  33    -0.334901966357E+03   -0.33873E-04   -0.33859E-04  7488   0.249E-02-0.150E-07
CGA:  34    -0.334902002510E+03   -0.36154E-04   -0.36157E-04  7488   0.505E-02-0.455E-05
CGA:  35    -0.334902061278E+03   -0.58767E-04   -0.58678E-04  7488   0.339E-02-0.153E-04
CGA:  36    -0.334902081469E+03   -0.20191E-04   -0.20153E-04  7488   0.128E-02 0.825E-06
CGA:  37    -0.334902097565E+03   -0.16096E-04   -0.16095E-04  7488   0.242E-02-0.124E-05
SDA:  38    -0.334902133618E+03   -0.36053E-04   -0.36039E-04  7488   0.276E-02 0.450E-05
CGA:  39    -0.334902155190E+03   -0.21571E-04   -0.21577E-04  7488   0.354E-03-0.510E-06
CGA:  40    -0.334902170607E+03   -0.15417E-04   -0.15434E-04  7488   0.350E-03-0.676E-06
CGA:  41    -0.334902178383E+03   -0.77755E-05   -0.77698E-05  7488   0.686E-03 0.734E-06
CGA:  42    -0.334902198278E+03   -0.19895E-04   -0.19859E-04  7488   0.171E-03 0.258E-05
CGA:  43    -0.334902214533E+03   -0.16255E-04   -0.47073E-06  7488   0.241E-03-0.138E-04
CGA:  44    -0.334902225641E+03   -0.11109E-04   -0.11143E-04  7488   0.818E-04-0.163E-05
CGA:  45    -0.334902229717E+03   -0.40755E-05   -0.41053E-05  7488   0.248E-03-0.146E-05
   4 F= -.33490223E+03 E0= -.33486800E+03  d E =-.595236E-03  mag=    32.0000
       N       E                     dE             d eps       ncg     rms          ort
SDA:   1    -0.320752982412E+03    0.14149E+02    0.00000E+00  7488   0.143E+04 0.000E+00
CGA:   2    -0.329143874095E+03   -0.83909E+01   -0.21677E+02  7488   0.310E+03-0.335E+03
CGA:   3    -0.332417558402E+03   -0.32737E+01   -0.27239E+01  7488   0.176E+03 0.313E+02
CGA:   4    -0.334404377223E+03   -0.19868E+01   -0.87750E+00  7488   0.732E+02 0.129E+03
CGA:   5    -0.334803662865E+03   -0.39929E+00   -0.67083E+00  7488   0.108E+02-0.241E+02
CGA:   6    -0.334890225848E+03   -0.86563E-01   -0.76174E-01  7488   0.279E+00 0.655E+00
CGA:   7    -0.334894019609E+03   -0.37938E-02   -0.37248E-02  7488   0.174E+00 0.293E-02
CGA:   8    -0.334896163378E+03   -0.21438E-02   -0.20794E-02  7488   0.234E-01 0.306E-02
CGA:   9    -0.334897141575E+03   -0.97820E-03   -0.97852E-03  7488   0.114E+00-0.140E-04
CGA:  10    -0.334899876536E+03   -0.27350E-02   -0.27382E-02  7488   0.382E-01 0.168E-02
CGA:  11    -0.334900273403E+03   -0.39687E-03   -0.39644E-03  7488   0.214E-01 0.512E-04
CGA:  12    -0.334900815530E+03   -0.54213E-03   -0.54284E-03  7488   0.103E-01-0.334E-03
CGA:  13    -0.334900927628E+03   -0.11210E-03   -0.11242E-03  7488   0.831E-02-0.166E-04
CGA:  14    -0.334901295738E+03   -0.36811E-03   -0.36853E-03  7488   0.824E-02-0.210E-04
CGA:  15    -0.334901394212E+03   -0.98474E-04   -0.98305E-04  7488   0.738E-02-0.898E-07
CGA:  16    -0.334901686223E+03   -0.29201E-03   -0.28940E-03  7488   0.682E-02 0.149E-03
CGA:  17    -0.334901755881E+03   -0.69659E-04   -0.69463E-04  7488   0.335E-02 0.509E-05
CGA:  18    -0.334901906392E+03   -0.15051E-03   -0.15135E-03  7488   0.588E-02-0.392E-04
CGA:  19    -0.334901961716E+03   -0.55324E-04   -0.56689E-04  7488   0.174E-02-0.101E-03
CGA:  20    -0.334902022889E+03   -0.61173E-04   -0.61255E-04  7488   0.144E-02-0.629E-05
CGA:  21    -0.334902039779E+03   -0.16890E-04   -0.16835E-04  7488   0.125E-02 0.251E-05
CGA:  22    -0.334902153247E+03   -0.11347E-03   -0.11481E-03  7488   0.307E-02-0.273E-04
CGA:  23    -0.334902177021E+03   -0.23774E-04   -0.24710E-04  7488   0.405E-03-0.853E-04
CGA:  24    -0.334902191410E+03   -0.14390E-04   -0.14388E-04  7488   0.948E-03 0.252E-06
CGA:  25    -0.334902205050E+03   -0.13640E-04   -0.13632E-04  7488   0.435E-03 0.122E-05
CGA:  26    -0.334902226862E+03   -0.21812E-04   -0.21714E-04  7488   0.332E-03 0.408E-05
CGA:  27    -0.334902229953E+03   -0.30909E-05   -0.30901E-05  7488   0.146E-03 0.260E-06
CGA:  28    -0.334902240998E+03   -0.11046E-04   -0.11010E-04  7488   0.237E-03 0.805E-06
CGA:  29    -0.334902244232E+03   -0.32331E-05   -0.32311E-05  7488   0.178E-03 0.140E-06
   5 F= -.33490224E+03 E0= -.33486798E+03  d E =-.609751E-03  mag=    32.0000
       N       E                     dE             d eps       ncg     rms          ort
SDA:   1    -0.334843448029E+03    0.58793E-01    0.00000E+00  7488   0.292E+01 0.000E+00
CGA:   2    -0.334862423684E+03   -0.18976E-01   -0.18239E-01  7488   0.168E+00 0.972E-01
CGA:   3    -0.334868740151E+03   -0.63165E-02   -0.62556E-02  7488   0.306E+00 0.514E-02
CGA:   4    -0.334874070067E+03   -0.53299E-02   -0.54013E-02  7488   0.287E+00-0.795E-03
CGA:   5    -0.334888263957E+03   -0.14194E-01   -0.14250E-01  7488   0.608E+00-0.239E-02
CGA:   6    -0.334893917685E+03   -0.56537E-02   -0.56631E-02  7488   0.785E-01-0.794E-03
CGA:   7    -0.334897207725E+03   -0.32900E-02   -0.33125E-02  7488   0.129E+00-0.132E-02
CGA:   8    -0.334898450023E+03   -0.12423E-02   -0.12148E-02  7488   0.360E-01 0.214E-02
CGA:   9    -0.334899628893E+03   -0.11789E-02   -0.11779E-02  7488   0.825E-01 0.121E-03
CGA:  10    -0.334900889293E+03   -0.12604E-02   -0.12657E-02  7488   0.283E-01-0.144E-03
CGA:  11    -0.334901468018E+03   -0.57872E-03   -0.57798E-03  7488   0.447E-01-0.306E-04
CGA:  12    -0.334902153552E+03   -0.68553E-03   -0.68499E-03  7488   0.811E-02-0.213E-05
CGA:  13    -0.334902335603E+03   -0.18205E-03   -0.18206E-03  7488   0.174E-01-0.373E-05
CGA:  14    -0.334902670213E+03   -0.33461E-03   -0.33367E-03  7488   0.404E-02-0.366E-04
CGA:  15    -0.334902723010E+03   -0.52797E-04   -0.52690E-04  7488   0.342E-02-0.143E-05
CGA:  16    -0.334902813324E+03   -0.90313E-04   -0.90354E-04  7488   0.370E-02-0.182E-04
CGA:  17    -0.334902870756E+03   -0.57432E-04   -0.57323E-04  7488   0.410E-02-0.441E-05
CGA:  18    -0.334903020768E+03   -0.15001E-03   -0.14995E-03  7488   0.271E-02 0.201E-05
CGA:  19    -0.334903040594E+03   -0.19827E-04   -0.19816E-04  7488   0.529E-03-0.252E-05
CGA:  20    -0.334903067453E+03   -0.26859E-04   -0.26955E-04  7488   0.122E-02-0.364E-05
CGA:  21    -0.334903079172E+03   -0.11719E-04   -0.11691E-04  7488   0.372E-03 0.136E-05
CGA:  22    -0.334903094467E+03   -0.15294E-04   -0.15276E-04  7488   0.146E-02 0.113E-05
CGA:  23    -0.334903124179E+03   -0.29713E-04   -0.29736E-04  7488   0.382E-03 0.294E-05
CGA:  24    -0.334903128062E+03   -0.38829E-05   -0.38852E-05  7488   0.231E-03 0.178E-06
   6 F= -.33490313E+03 E0= -.33486890E+03  d E =-.883831E-03  mag=    32.0000
       N       E                     dE             d eps       ncg     rms          ort
SDA:   1    -0.334685848208E+03    0.21728E+00    0.00000E+00  7488   0.692E+01 0.000E+00
CGA:   2    -0.334732798134E+03   -0.46950E-01   -0.45965E-01  7488   0.741E+00 0.101E+00
CGA:   3    -0.334764484607E+03   -0.31686E-01   -0.30324E-01  7488   0.761E+00 0.736E-01
CGA:   4    -0.334791625469E+03   -0.27141E-01   -0.27089E-01  7488   0.227E+01 0.510E-02
CGA:   5    -0.334864872742E+03   -0.73247E-01   -0.73644E-01  7488   0.618E+00-0.404E-01
CGA:   6    -0.334870467845E+03   -0.55951E-02   -0.57396E-02  7488   0.296E+00-0.109E-01
CGA:   7    -0.334885264809E+03   -0.14797E-01   -0.16001E-01  7488   0.186E+00-0.440E-01
CGA:   8    -0.334888820323E+03   -0.35555E-02   -0.35521E-02  7488   0.350E+00-0.322E-03
CGA:   9    -0.334896471031E+03   -0.76507E-02   -0.76767E-02  7488   0.794E-01 0.204E-02
CGA:  10    -0.334898951899E+03   -0.24809E-02   -0.24770E-02  7488   0.105E+00 0.478E-03
CGA:  11    -0.334900224683E+03   -0.12728E-02   -0.12803E-02  7488   0.332E-01-0.376E-03
CGA:  12    -0.334902025319E+03   -0.18006E-02   -0.18107E-02  7488   0.477E-01-0.357E-03
CGA:  13    -0.334902447980E+03   -0.42266E-03   -0.42433E-03  7488   0.824E-02-0.160E-03
CGA:  14    -0.334903508810E+03   -0.10608E-02   -0.10620E-02  7488   0.232E-01-0.673E-05
CGA:  15    -0.334903711382E+03   -0.20257E-03   -0.20213E-03  7488   0.448E-02 0.297E-04
CGA:  16    -0.334903890843E+03   -0.17946E-03   -0.17938E-03  7488   0.339E-02 0.532E-05
CGA:  17    -0.334903953804E+03   -0.62960E-04   -0.63036E-04  7488   0.458E-02-0.726E-06
CGA:  18    -0.334904123758E+03   -0.16995E-03   -0.16989E-03  7488   0.278E-02 0.594E-05
CGA:  19    -0.334904189371E+03   -0.65613E-04   -0.65635E-04  7488   0.455E-02 0.127E-05
CGA:  20    -0.334904272793E+03   -0.83423E-04   -0.83200E-04  7488   0.583E-03 0.332E-05
CGA:  21    -0.334904306766E+03   -0.33973E-04   -0.33907E-04  7488   0.264E-02 0.226E-05
CGA:  22    -0.334904348265E+03   -0.41499E-04   -0.41554E-04  7488   0.560E-03 0.174E-05
CGA:  23    -0.334904370067E+03   -0.21802E-04   -0.21793E-04  7488   0.862E-03 0.123E-05
CGA:  24    -0.334904381771E+03   -0.11704E-04   -0.11703E-04  7488   0.482E-03 0.149E-05
CGA:  25    -0.334904415699E+03   -0.33928E-04   -0.33853E-04  7488   0.749E-03 0.177E-05
CGA:  26    -0.334904422589E+03   -0.68896E-05   -0.68999E-05  7488   0.162E-03 0.311E-06
   7 F= -.33490442E+03 E0= -.33487021E+03  d E =-.217836E-02  mag=    32.0000
       N       E                     dE             d eps       ncg     rms          ort
SDA:   1    -0.334852110483E+03    0.52305E-01    0.00000E+00  7488   0.644E+01 0.000E+00
CGA:   2    -0.334891311006E+03   -0.39201E-01   -0.40996E-01  7488   0.167E+00-0.273E+00
CGA:   3    -0.334894745953E+03   -0.34349E-02   -0.33638E-02  7488   0.911E-01-0.224E-03
CGA:   4    -0.334895738866E+03   -0.99291E-03   -0.99020E-03  7488   0.332E-01 0.182E-03
CGA:   5    -0.334899322744E+03   -0.35839E-02   -0.36435E-02  7488   0.111E+00-0.929E-03
CGA:   6    -0.334900590095E+03   -0.12674E-02   -0.12757E-02  7488   0.562E-01-0.503E-03
CGA:   7    -0.334902643681E+03   -0.20536E-02   -0.20497E-02  7488   0.148E-01 0.535E-03
CGA:   8    -0.334902919177E+03   -0.27550E-03   -0.27597E-03  7488   0.182E-01-0.465E-05
CGA:   9    -0.334903295124E+03   -0.37595E-03   -0.37547E-03  7488   0.694E-02 0.708E-05
CGA:  10    -0.334903665346E+03   -0.37022E-03   -0.36966E-03  7488   0.189E-01 0.241E-04
CGA:  11    -0.334903885558E+03   -0.22021E-03   -0.21969E-03  7488   0.321E-02 0.455E-04
CGA:  12    -0.334904012323E+03   -0.12677E-03   -0.12687E-03  7488   0.379E-02-0.704E-05
CGA:  13    -0.334904059379E+03   -0.47056E-04   -0.47091E-04  7488   0.212E-02 0.480E-05
CGA:  14    -0.334904135106E+03   -0.75726E-04   -0.75705E-04  7488   0.426E-03 0.563E-05
CGA:  15    -0.334904142268E+03   -0.71621E-05   -0.71777E-05  7488   0.640E-03 0.115E-05
CGA:  16    -0.334904192321E+03   -0.50053E-04   -0.49527E-04  7488   0.406E-03 0.113E-04
CGA:  17    -0.334904198950E+03   -0.66293E-05   -0.66400E-05  7488   0.350E-03 0.965E-06
   8 F= -.33490420E+03 E0= -.33486998E+03  d E =-.195472E-02  mag=    32.0000
       N       E                     dE             d eps       ncg     rms          ort
SDA:   1    -0.326607328563E+03    0.82969E+01    0.00000E+00  7488   0.351E+03 0.000E+00
CGA:   2    -0.334844171315E+03   -0.82368E+01   -0.30871E+01  7488   0.642E+01 0.718E+02
CGA:   3    -0.334885652256E+03   -0.41481E-01   -0.38320E-01  7488   0.562E+00 0.544E+00
CGA:   4    -0.334891045309E+03   -0.53931E-02   -0.55751E-02  7488   0.283E+00-0.152E-01
CGA:   5    -0.334894469687E+03   -0.34244E-02   -0.35486E-02  7488   0.158E+00-0.528E-02
CGA:   6    -0.334895838988E+03   -0.13693E-02   -0.13671E-02  7488   0.601E-01 0.172E-03
CGA:   7    -0.334897289136E+03   -0.14501E-02   -0.14491E-02  7488   0.164E+00-0.233E-03
CGA:   8    -0.334899836655E+03   -0.25475E-02   -0.25276E-02  7488   0.796E-01 0.304E-03
CGA:   9    -0.334900604969E+03   -0.76831E-03   -0.76991E-03  7488   0.580E-01-0.132E-03
CGA:  10    -0.334901845427E+03   -0.12405E-02   -0.12411E-02  7488   0.808E-01 0.632E-04
CGA:  11    -0.334902629645E+03   -0.78422E-03   -0.78353E-03  7488   0.209E-01 0.410E-04
CGA:  12    -0.334902809111E+03   -0.17947E-03   -0.18007E-03  7488   0.108E-01-0.473E-04
CGA:  13    -0.334903098682E+03   -0.28957E-03   -0.28967E-03  7488   0.260E-01-0.140E-04
CGA:  14    -0.334903396102E+03   -0.29742E-03   -0.29608E-03  7488   0.124E-01 0.703E-04
CGA:  15    -0.334903605280E+03   -0.20918E-03   -0.20919E-03  7488   0.201E-01 0.560E-05
CGA:  16    -0.334903911885E+03   -0.30661E-03   -0.30730E-03  7488   0.113E-01 0.154E-04
CGA:  17    -0.334904006842E+03   -0.94957E-04   -0.95371E-04  7488   0.384E-02-0.275E-04
CGA:  18    -0.334904068913E+03   -0.62071E-04   -0.62035E-04  7488   0.634E-02-0.163E-05
CGA:  19    -0.334904200446E+03   -0.13153E-03   -0.13153E-03  7488   0.479E-02-0.303E-07
CGA:  20    -0.334904235936E+03   -0.35490E-04   -0.35458E-04  7488   0.138E-02 0.109E-05
CGA:  21    -0.334904263466E+03   -0.27530E-04   -0.27530E-04  7488   0.235E-02-0.113E-05
CGA:  22    -0.334904294414E+03   -0.30948E-04   -0.30922E-04  7488   0.136E-02-0.411E-05
CGA:  23    -0.334904311595E+03   -0.17181E-04   -0.17160E-04  7488   0.128E-02-0.332E-05
CGA:  24    -0.334904340576E+03   -0.28981E-04   -0.29006E-04  7488   0.216E-02-0.768E-05
CGA:  25    -0.334904362118E+03   -0.21542E-04   -0.21455E-04  7488   0.510E-03-0.456E-05
CGA:  26    -0.334904368016E+03   -0.58980E-05   -0.58837E-05  7488   0.531E-03-0.187E-05
CGA:  27    -0.334904379220E+03   -0.11204E-04   -0.11210E-04  7488   0.492E-03-0.283E-05
CGA:  28    -0.334904383429E+03   -0.42091E-05   -0.41989E-05  7488   0.171E-03-0.156E-05
   9 F= -.33490438E+03 E0= -.33487017E+03  d E =-.213920E-02  mag=    32.0000
       N       E                     dE             d eps       ncg     rms          ort
SDA:   1    -0.334066600002E+03    0.83778E+00    0.00000E+00  7488   0.123E+03 0.000E+00
CGA:   2    -0.334876223923E+03   -0.80962E+00   -0.94031E+00  7488   0.422E+01-0.156E+02
CGA:   3    -0.334902012353E+03   -0.25788E-01   -0.25048E-01  7488   0.195E+00 0.722E-01
CGA:   4    -0.334903421997E+03   -0.14096E-02   -0.14176E-02  7488   0.205E-01-0.721E-03
CGA:   5    -0.334903720505E+03   -0.29851E-03   -0.29880E-03  7488   0.178E-01 0.493E-04
CGA:   6    -0.334903947758E+03   -0.22725E-03   -0.22741E-03  7488   0.430E-02 0.659E-05
CGA:   7    -0.334904013671E+03   -0.65913E-04   -0.65903E-04  7488   0.439E-02-0.417E-05
CGA:   8    -0.334904116468E+03   -0.10280E-03   -0.10281E-03  7488   0.511E-02-0.170E-05
CGA:   9    -0.334904183438E+03   -0.66970E-04   -0.66908E-04  7488   0.290E-02-0.564E-05
CGA:  10    -0.334904273256E+03   -0.89818E-04   -0.89924E-04  7488   0.503E-02-0.717E-05
CGA:  11    -0.334904325025E+03   -0.51769E-04   -0.51807E-04  7488   0.105E-02-0.152E-05
CGA:  12    -0.334904341401E+03   -0.16376E-04   -0.16376E-04  7488   0.112E-02-0.179E-06
CGA:  13    -0.334904374544E+03   -0.33143E-04   -0.33127E-04  7488   0.146E-02 0.121E-05
CGA:  14    -0.334904389204E+03   -0.14660E-04   -0.14663E-04  7488   0.467E-03 0.681E-06
CGA:  15    -0.334904401199E+03   -0.11995E-04   -0.11985E-04  7488   0.656E-03 0.107E-05
CGA:  16    -0.334904410174E+03   -0.89747E-05   -0.89743E-05  7488   0.365E-03-0.240E-06
  10 F= -.33490441E+03 E0= -.33487021E+03  d E =-.216594E-02  mag=    32.0000
       N       E                     dE             d eps       ncg     rms          ort
SDA:   1    -0.334771957817E+03    0.13244E+00    0.00000E+00  7488   0.210E+02 0.000E+00
CGA:   2    -0.334899753534E+03   -0.12780E+00   -0.14596E+00  7488   0.427E+00-0.186E+01
CGA:   3    -0.334903018561E+03   -0.32650E-02   -0.32568E-02  7488   0.645E-01 0.483E-03
CGA:   4    -0.334904039804E+03   -0.10212E-02   -0.10224E-02  7488   0.165E-01 0.664E-03
CGA:   5    -0.334904210482E+03   -0.17068E-03   -0.17089E-03  7488   0.257E-02-0.384E-05
CGA:   6    -0.334904296832E+03   -0.86350E-04   -0.86138E-04  7488   0.261E-02 0.123E-04
CGA:   7    -0.334904329092E+03   -0.32259E-04   -0.32275E-04  7488   0.790E-03 0.135E-05
CGA:   8    -0.334904348627E+03   -0.19535E-04   -0.19524E-04  7488   0.106E-02 0.134E-05
CGA:   9    -0.334904365308E+03   -0.16681E-04   -0.16685E-04  7488   0.460E-03 0.166E-05
CGA:  10    -0.334904382351E+03   -0.17042E-04   -0.17017E-04  7488   0.835E-03 0.125E-05
CGA:  11    -0.334904397237E+03   -0.14886E-04   -0.14887E-04  7488   0.318E-03 0.114E-05
CGA:  12    -0.334904408243E+03   -0.11006E-04   -0.10994E-04  7488   0.429E-03 0.734E-06
CGA:  13    -0.334904413566E+03   -0.53226E-05   -0.53216E-05  7488   0.828E-04-0.116E-06
  11 F= -.33490441E+03 E0= -.33487021E+03  d E =-.216933E-02  mag=    32.0000
       N       E                     dE             d eps       ncg     rms          ort
SDA:   1    -0.334891095931E+03    0.13312E-01    0.00000E+00  7488   0.218E+01 0.000E+00
CGA:   2    -0.334904263464E+03   -0.13168E-01   -0.13452E-01  7488   0.874E-02-0.358E-01
CGA:   3    -0.334904340734E+03   -0.77270E-04   -0.77069E-04  7488   0.233E-02 0.115E-04
CGA:   4    -0.334904396109E+03   -0.55375E-04   -0.55325E-04  7488   0.409E-03 0.654E-05
CGA:   5    -0.334904407647E+03   -0.11538E-04   -0.11527E-04  7488   0.650E-03 0.101E-05
CGA:   6    -0.334904415813E+03   -0.81653E-05   -0.81725E-05  7488   0.142E-03 0.872E-06
CGA:   7    -0.334904426068E+03   -0.10256E-04   -0.10273E-04  7488   0.156E-03-0.362E-06
CGA:   8    -0.334904427895E+03   -0.18272E-05   -0.18249E-05  7488   0.103E-03-0.306E-06
  12 F= -.33490443E+03 E0= -.33487022E+03  d E =-.218366E-02  mag=    32.0000
       N       E                     dE             d eps       ncg     rms          ort
SDA:   1    -0.334841544025E+03    0.62882E-01    0.00000E+00  7488   0.270E+01 0.000E+00
CGA:   2    -0.334860593508E+03   -0.19049E-01   -0.18073E-01  7488   0.141E+00 0.113E+00
CGA:   3    -0.334866677453E+03   -0.60839E-02   -0.59867E-02  7488   0.476E+00 0.486E-02
CGA:   4    -0.334877137031E+03   -0.10460E-01   -0.10469E-01  7488   0.319E+00 0.348E-02
CGA:   5    -0.334897318102E+03   -0.20181E-01   -0.20604E-01  7488   0.780E-01-0.120E-01
CGA:   6    -0.334898175866E+03   -0.85776E-03   -0.86111E-03  7488   0.599E-01-0.170E-03
CGA:   7    -0.334901574317E+03   -0.33985E-02   -0.33738E-02  7488   0.577E-01 0.816E-03
CGA:   8    -0.334902766483E+03   -0.11922E-02   -0.11925E-02  7488   0.685E-01 0.237E-05
CGA:   9    -0.334903986373E+03   -0.12199E-02   -0.12085E-02  7488   0.107E-01-0.122E-03
CGA:  10    -0.334904516569E+03   -0.53020E-03   -0.53284E-03  7488   0.134E-01-0.107E-03
CGA:  11    -0.334904654383E+03   -0.13781E-03   -0.13763E-03  7488   0.609E-02 0.349E-05
CGA:  12    -0.334905101802E+03   -0.44742E-03   -0.44516E-03  7488   0.676E-02 0.560E-04
CGA:  13    -0.334905167239E+03   -0.65437E-04   -0.65242E-04  7488   0.188E-02 0.113E-04
CGA:  14    -0.334905267973E+03   -0.10073E-03   -0.10038E-03  7488   0.153E-02 0.132E-04
CGA:  15    -0.334905358400E+03   -0.90427E-04   -0.90450E-04  7488   0.119E-02-0.780E-06
CGA:  16    -0.334905370899E+03   -0.12499E-04   -0.12515E-04  7488   0.673E-03-0.222E-06
CGA:  17    -0.334905420734E+03   -0.49834E-04   -0.49720E-04  7488   0.102E-02 0.253E-05
CGA:  18    -0.334905432624E+03   -0.11890E-04   -0.11910E-04  7488   0.465E-03-0.151E-07
CGA:  19    -0.334905447278E+03   -0.14655E-04   -0.14657E-04  7488   0.157E-03-0.557E-06
CGA:  20    -0.334905459948E+03   -0.12670E-04   -0.12670E-04  7488   0.318E-03-0.164E-07
CGA:  21    -0.334905463395E+03   -0.34468E-05   -0.34444E-05  7488   0.174E-03-0.486E-07
CGA:  22    -0.334905473977E+03   -0.10582E-04   -0.10567E-04  7488   0.641E-04 0.474E-06
CGA:  23    -0.334905476945E+03   -0.29684E-05   -0.29700E-05  7488   0.202E-03-0.131E-06
  13 F= -.33490548E+03 E0= -.33487126E+03  d E =-.104905E-02  mag=    32.0000
       N       E                     dE             d eps       ncg     rms          ort
SDA:   1    -0.333190996853E+03    0.17145E+01    0.00000E+00  7488   0.143E+03 0.000E+00
CGA:   2    -0.334449717016E+03   -0.12587E+01   -0.89915E+00  7488   0.939E+01 0.348E+02
CGA:   3    -0.334517745619E+03   -0.68029E-01   -0.58895E-01  7488   0.121E+01 0.157E+01
CGA:   4    -0.334537791622E+03   -0.20046E-01   -0.20659E-01  7488   0.252E+01-0.229E-01
CGA:   5    -0.334620499362E+03   -0.82708E-01   -0.81940E-01  7488   0.946E+01 0.126E+00
CGA:   6    -0.334737121793E+03   -0.11662E+00   -0.11815E+00  7488   0.327E+01-0.666E-01
CGA:   7    -0.334783331666E+03   -0.46210E-01   -0.44145E-01  7488   0.410E+01 0.866E-01
CGA:   8    -0.334833472758E+03   -0.50141E-01   -0.39712E-01  7488   0.146E+01 0.892E+00
CGA:   9    -0.334843897442E+03   -0.10425E-01   -0.10065E-01  7488   0.263E+00 0.560E-01
CGA:  10    -0.334852321689E+03   -0.84242E-02   -0.84429E-02  7488   0.117E+01-0.254E-02
CGA:  11    -0.334871885591E+03   -0.19564E-01   -0.19112E-01  7488   0.977E+00 0.492E-02
CGA:  12    -0.334880246697E+03   -0.83611E-02   -0.83008E-02  7488   0.691E+00 0.500E-02
CGA:  13    -0.334889825026E+03   -0.95783E-02   -0.10023E-01  7488   0.452E+00-0.889E-02
CGA:  14    -0.334892557678E+03   -0.27327E-02   -0.28365E-02  7488   0.853E-01-0.134E-01
CGA:  15    -0.334894100978E+03   -0.15433E-02   -0.15476E-02  7488   0.169E+00 0.219E-03
CGA:  16    -0.334896508112E+03   -0.24071E-02   -0.24056E-02  7488   0.867E-01 0.770E-04
CGA:  17    -0.334897896601E+03   -0.13885E-02   -0.13859E-02  7488   0.142E+00-0.355E-04
CGA:  18    -0.334900820788E+03   -0.29242E-02   -0.29242E-02  7488   0.116E+00 0.445E-05
CGA:  19    -0.334901830290E+03   -0.10095E-02   -0.10177E-02  7488   0.457E-01-0.628E-03
CGA:  20    -0.334902716732E+03   -0.88644E-03   -0.88522E-03  7488   0.673E-01-0.215E-03
CGA:  21    -0.334903437589E+03   -0.72086E-03   -0.71997E-03  7488   0.209E-01 0.590E-04
CGA:  22    -0.334903726430E+03   -0.28884E-03   -0.28875E-03  7488   0.306E-01 0.548E-05
CGA:  23    -0.334904446917E+03   -0.72049E-03   -0.72074E-03  7488   0.298E-01-0.495E-04
CGA:  24    -0.334904742345E+03   -0.29543E-03   -0.29494E-03  7488   0.226E-01 0.363E-04
CGA:  25    -0.334905243833E+03   -0.50149E-03   -0.50073E-03  7488   0.193E-01 0.236E-03
CGA:  26    -0.334905387992E+03   -0.14416E-03   -0.14481E-03  7488   0.627E-02-0.535E-04
CGA:  27    -0.334905660254E+03   -0.27226E-03   -0.27228E-03  7488   0.288E-01-0.907E-06
CGA:  28    -0.334906005572E+03   -0.34532E-03   -0.34564E-03  7488   0.826E-02-0.545E-05
CGA:  29    -0.334906123017E+03   -0.11744E-03   -0.11730E-03  7488   0.879E-02-0.154E-05
CGA:  30    -0.334906222207E+03   -0.99190E-04   -0.98799E-04  7488   0.232E-02 0.130E-04
CGA:  31    -0.334906256198E+03   -0.33991E-04   -0.33993E-04  7488   0.383E-02-0.210E-06
SDA:  32    -0.334906382478E+03   -0.12628E-03   -0.12606E-03  7488   0.586E-02 0.144E-04
CGA:  33    -0.334906433902E+03   -0.51424E-04   -0.51416E-04  7488   0.139E-02 0.268E-06
CGA:  34    -0.334906479632E+03   -0.45729E-04   -0.45632E-04  7488   0.102E-02 0.658E-05
CGA:  35    -0.334906505083E+03   -0.25451E-04   -0.25454E-04  7488   0.249E-02-0.640E-06
CGA:  36    -0.334906604134E+03   -0.99051E-04   -0.99164E-04  7488   0.537E-03-0.581E-05
CGA:  37    -0.334906638116E+03   -0.33981E-04   -0.33845E-04  7488   0.654E-03 0.369E-05
CGA:  38    -0.334906664695E+03   -0.26580E-04   -0.26566E-04  7488   0.153E-02 0.799E-06
CGA:  39    -0.334906685414E+03   -0.20719E-04   -0.20720E-04  7488   0.149E-03 0.105E-05
CGA:  40    -0.334906692490E+03   -0.70761E-05   -0.70521E-05  7488   0.783E-03 0.992E-06
CGA:  41    -0.334906714741E+03   -0.22251E-04   -0.22243E-04  7488   0.126E-03 0.299E-05
CGA:  42    -0.334906729771E+03   -0.15030E-04   -0.14642E-04  7488   0.113E-03 0.436E-05
CGA:  43    -0.334906738707E+03   -0.89363E-05   -0.88655E-05  7488   0.318E-03 0.152E-05
  14 F= -.33490674E+03 E0= -.33487247E+03  d E =-.231081E-02  mag=    32.0000
       N       E                     dE             d eps       ncg     rms          ort
SDA:   1    -0.306002113937E+03    0.28905E+02    0.00000E+00  7488   0.571E+03 0.000E+00
CGA:   2    -0.322719742393E+03   -0.16718E+02   -0.13599E+02  7488   0.261E+03-0.265E+03
CGA:   3    -0.327100670848E+03   -0.43809E+01   -0.13795E+01  7488   0.313E+03 0.176E+03
CGA:   4    -0.331076286623E+03   -0.39756E+01   -0.25672E+01  7488   0.169E+03 0.273E+03
CGA:   5    -0.333019854481E+03   -0.19436E+01   -0.92634E+00  7488   0.616E+02 0.139E+03
CGA:   6    -0.333487226889E+03   -0.46737E+00   -0.35794E+00  7488   0.680E+01 0.146E+02
CGA:   7    -0.333581985389E+03   -0.94758E-01   -0.83665E-01  7488   0.808E+01 0.829E+00
CGA:   8    -0.333689449314E+03   -0.10746E+00   -0.77462E-01  7488   0.960E+01 0.278E+01
CGA:   9    -0.333768329041E+03   -0.78880E-01   -0.64834E-01  7488   0.644E+01 0.244E+01
CGA:  10    -0.333825172827E+03   -0.56844E-01   -0.56606E-01  7488   0.101E+02 0.937E-02
CGA:  11    -0.333915739030E+03   -0.90566E-01   -0.91009E-01  7488   0.284E+02-0.528E-01
CGA:  12    -0.334105030417E+03   -0.18929E+00   -0.15912E+00  7488   0.433E+02 0.458E+01
CGA:  13    -0.334326056882E+03   -0.22103E+00   -0.20849E+00  7488   0.311E+02 0.224E+01
CGA:  14    -0.334434012814E+03   -0.10796E+00   -0.14621E+00  7488   0.171E+02-0.741E+01
CGA:  15    -0.334481765780E+03   -0.47753E-01   -0.54476E-01  7488   0.133E+02-0.140E+01
CGA:  16    -0.334538764485E+03   -0.56999E-01   -0.77460E-01  7488   0.120E+02-0.230E+01
CGA:  17    -0.334591404681E+03   -0.52640E-01   -0.56770E-01  7488   0.400E+01-0.401E+00
CGA:  18    -0.334607039408E+03   -0.15635E-01   -0.14050E-01  7488   0.130E+01 0.378E+00
CGA:  19    -0.334616018351E+03   -0.89789E-02   -0.86666E-02  7488   0.159E+01 0.367E-01
CGA:  20    -0.334634803646E+03   -0.18785E-01   -0.18418E-01  7488   0.449E+01-0.288E-02
CGA:  21    -0.334663104583E+03   -0.28301E-01   -0.25340E-01  7488   0.513E+01 0.393E+00
CGA:  22    -0.334687295492E+03   -0.24191E-01   -0.23603E-01  7488   0.385E+01 0.113E+00
CGA:  23    -0.334707918325E+03   -0.20623E-01   -0.21501E-01  7488   0.503E+01-0.116E+00
CGA:  24    -0.334738382788E+03   -0.30464E-01   -0.31685E-01  7488   0.668E+01-0.108E+00
CGA:  25    -0.334766685574E+03   -0.28303E-01   -0.29801E-01  7488   0.316E+01-0.230E+00
CGA:  26    -0.334776715732E+03   -0.10030E-01   -0.10237E-01  7488   0.967E+00-0.517E-01
CGA:  27    -0.334780579088E+03   -0.38634E-02   -0.38150E-02  7488   0.660E+00 0.939E-02
CGA:  28    -0.334785576501E+03   -0.49974E-02   -0.49687E-02  7488   0.131E+01 0.119E-02
CGA:  29    -0.334797270871E+03   -0.11694E-01   -0.11712E-01  7488   0.264E+01 0.158E-02
CGA:  30    -0.334811386677E+03   -0.14116E-01   -0.13907E-01  7488   0.180E+01 0.309E-01
CGA:  31    -0.334818426921E+03   -0.70402E-02   -0.70487E-02  7488   0.846E+00-0.119E-05
CGA:  32    -0.334822510457E+03   -0.40835E-02   -0.40656E-02  7488   0.763E+00 0.223E-02
CGA:  33    -0.334827623049E+03   -0.51126E-02   -0.51064E-02  7488   0.109E+01 0.413E-03
CGA:  34    -0.334833970562E+03   -0.63475E-02   -0.64082E-02  7488   0.929E+00-0.354E-02
CGA:  35    -0.334837782345E+03   -0.38118E-02   -0.37790E-02  7488   0.451E+00 0.563E-02
SDA:  36    -0.334839934115E+03   -0.21518E-02   -0.21541E-02  7488   0.417E+00-0.300E-03
CGA:  37    -0.334850311310E+03   -0.10377E-01   -0.10286E-01  7488   0.556E+00 0.667E-02
CGA:  38    -0.334859731191E+03   -0.94199E-02   -0.94529E-02  7488   0.249E+00-0.490E-02
CGA:  39    -0.334875318258E+03   -0.15587E-01   -0.24571E-03  7488   0.225E+00-0.372E-01
CGA:  40    -0.334877716250E+03   -0.23980E-02   -0.23951E-02  7488   0.203E+00 0.558E-04
CGA:  41    -0.334890509438E+03   -0.12793E-01   -0.12418E-01  7488   0.141E+00 0.103E-01
CGA:  42    -0.334893650469E+03   -0.31410E-02   -0.31431E-02  7488   0.135E+00 0.128E-02
CGA:  43    -0.334895349741E+03   -0.16993E-02   -0.17034E-02  7488   0.340E-01-0.885E-04
CGA:  44    -0.334896534185E+03   -0.11844E-02   -0.11834E-02  7488   0.966E-01 0.695E-04
CGA:  45    -0.334898331999E+03   -0.17978E-02   -0.17897E-02  7488   0.158E-01-0.659E-03
CGA:  46    -0.334899262007E+03   -0.93001E-03   -0.92231E-03  7488   0.258E-01 0.235E-03
CGA:  47    -0.334899517376E+03   -0.25537E-03   -0.25643E-03  7488   0.906E-02-0.711E-04
CGA:  48    -0.334900241014E+03   -0.72364E-03   -0.72675E-03  7488   0.289E-01-0.654E-04
CGA:  49    -0.334900525404E+03   -0.28439E-03   -0.28690E-03  7488   0.196E-02-0.172E-03
CGA:  50    -0.334900625267E+03   -0.99863E-04   -0.99262E-04  7488   0.181E-02 0.232E-04
CGA:  51    -0.334900682351E+03   -0.57084E-04   -0.57040E-04  7488   0.401E-02 0.832E-05
CGA:  52    -0.334900767833E+03   -0.85482E-04   -0.85529E-04  7488   0.101E-02 0.112E-04
CGA:  53    -0.334900801482E+03   -0.33649E-04   -0.33597E-04  7488   0.324E-02 0.733E-05
CGA:  54    -0.334900885276E+03   -0.83793E-04   -0.83810E-04  7488   0.110E-02 0.164E-04
CGA:  55    -0.334900924926E+03   -0.39650E-04   -0.39616E-04  7488   0.840E-03 0.460E-05
CGA:  56    -0.334900937425E+03   -0.12499E-04   -0.12513E-04  7488   0.706E-03 0.177E-05
CGA:  57    -0.334901002168E+03   -0.64743E-04   -0.64229E-04  7488   0.324E-03 0.829E-05
CGA:  58    -0.334901007776E+03   -0.56086E-05   -0.56051E-05  7488   0.520E-03-0.273E-06
CGA:  59    -0.334901041602E+03   -0.33826E-04   -0.33914E-04  7488   0.522E-03-0.251E-05
CGA:  60    -0.334901050672E+03   -0.90703E-05   -0.90577E-05  7488   0.591E-03-0.870E-06
CGA:  61    -0.334901070949E+03   -0.20277E-04   -0.20281E-04  7488   0.173E-03-0.147E-05
CGA:  62    -0.334901080390E+03   -0.94414E-05   -0.94627E-05  7488   0.266E-03-0.922E-06
  15 F= -.33490108E+03 E0= -.33486672E+03  d E =0.334750E-02  mag=    32.0000
       N       E                     dE             d eps       ncg     rms          ort
SDA:   1    -0.310448239651E+03    0.24453E+02    0.00000E+00  7488   0.648E+03 0.000E+00
CGA:   2    -0.329771498442E+03   -0.19323E+02   -0.14091E+02  7488   0.122E+03-0.252E+03
CGA:   3    -0.332833107507E+03   -0.30616E+01   -0.21688E+01  7488   0.213E+03-0.319E+03
CGA:   4    -0.334173141486E+03   -0.13400E+01   -0.21462E+01  7488   0.475E+02-0.796E+02
CGA:   5    -0.334567375433E+03   -0.39423E+00   -0.30218E+00  7488   0.865E+01 0.671E+01
CGA:   6    -0.334634094668E+03   -0.66719E-01   -0.65802E-01  7488   0.158E+01 0.894E-01
CGA:   7    -0.334660046057E+03   -0.25951E-01   -0.24826E-01  7488   0.173E+01 0.263E-01
CGA:   8    -0.334682646483E+03   -0.22600E-01   -0.20571E-01  7488   0.130E+01 0.109E+00
CGA:   9    -0.334709840932E+03   -0.27194E-01   -0.27109E-01  7488   0.365E+01-0.256E-02
CGA:  10    -0.334794628583E+03   -0.84788E-01   -0.85040E-01  7488   0.639E+01 0.484E-01
CGA:  11    -0.334841281177E+03   -0.46653E-01   -0.51495E-01  7488   0.144E+01-0.479E+00
CGA:  12    -0.334852419797E+03   -0.11139E-01   -0.10790E-01  7488   0.586E+00 0.317E-01
CGA:  13    -0.334860368657E+03   -0.79489E-02   -0.76537E-02  7488   0.542E+00 0.990E-02
CGA:  14    -0.334865631861E+03   -0.52632E-02   -0.51007E-02  7488   0.306E+00 0.119E-01
CGA:  15    -0.334870473243E+03   -0.48414E-02   -0.48669E-02  7488   0.665E+00 0.218E-03
CGA:  16    -0.334885008596E+03   -0.14535E-01   -0.14541E-01  7488   0.799E+00 0.112E-01
CGA:  17    -0.334890339525E+03   -0.53309E-02   -0.53383E-02  7488   0.139E+00-0.101E-02
CGA:  18    -0.334891711561E+03   -0.13720E-02   -0.13660E-02  7488   0.126E+00 0.358E-03
CGA:  19    -0.334894897511E+03   -0.31860E-02   -0.31833E-02  7488   0.337E+00 0.405E-03
CGA:  20    -0.334898821476E+03   -0.39240E-02   -0.39218E-02  7488   0.114E+00 0.196E-03
CGA:  21    -0.334899614077E+03   -0.79260E-03   -0.78590E-03  7488   0.459E-01 0.737E-03
CGA:  22    -0.334900556159E+03   -0.94208E-03   -0.94229E-03  7488   0.894E-01-0.176E-03
CGA:  23    -0.334901403640E+03   -0.84748E-03   -0.86304E-03  7488   0.289E-01-0.805E-03
CGA:  24    -0.334901695986E+03   -0.29235E-03   -0.29333E-03  7488   0.283E-01-0.365E-04
CGA:  25    -0.334902305698E+03   -0.60971E-03   -0.60940E-03  7488   0.492E-01 0.740E-04
CGA:  26    -0.334902830850E+03   -0.52515E-03   -0.52603E-03  7488   0.246E-01-0.257E-04
CGA:  27    -0.334903112622E+03   -0.28177E-03   -0.28224E-03  7488   0.237E-01-0.759E-05
CGA:  28    -0.334903512820E+03   -0.40020E-03   -0.40003E-03  7488   0.214E-01-0.530E-04
CGA:  29    -0.334903682129E+03   -0.16931E-03   -0.16860E-03  7488   0.846E-02 0.529E-04
CGA:  30    -0.334903867590E+03   -0.18546E-03   -0.18546E-03  7488   0.237E-01-0.263E-06
CGA:  31    -0.334904241635E+03   -0.37404E-03   -0.37446E-03  7488   0.131E-01 0.757E-04
CGA:  32    -0.334904336906E+03   -0.95271E-04   -0.95659E-04  7488   0.437E-02-0.335E-04
CGA:  33    -0.334904399153E+03   -0.62247E-04   -0.62247E-04  7488   0.522E-02 0.201E-06
SDA:  34    -0.334904471104E+03   -0.71951E-04   -0.71910E-04  7488   0.396E-02-0.331E-05
CGA:  35    -0.334904511763E+03   -0.40659E-04   -0.40697E-04  7488   0.220E-02-0.916E-06
CGA:  36    -0.334904591474E+03   -0.79711E-04   -0.79719E-04  7488   0.180E-02-0.524E-06
CGA:  37    -0.334904641581E+03   -0.50107E-04   -0.50078E-04  7488   0.372E-02 0.229E-05
CGA:  38    -0.334904725868E+03   -0.84287E-04   -0.84315E-04  7488   0.814E-03-0.417E-05
CGA:  39    -0.334904818899E+03   -0.93031E-04   -0.38621E-05  7488   0.107E-02-0.274E-04
CGA:  40    -0.334904851210E+03   -0.32311E-04   -0.32310E-04  7488   0.149E-02-0.386E-06
CGA:  41    -0.334904867220E+03   -0.16010E-04   -0.15999E-04  7488   0.366E-03 0.259E-06
CGA:  42    -0.334904887841E+03   -0.20621E-04   -0.20662E-04  7488   0.313E-03-0.175E-05
CGA:  43    -0.334904897240E+03   -0.93996E-05   -0.93974E-05  7488   0.830E-03-0.907E-06
CGA:  44    -0.334904921632E+03   -0.24392E-04   -0.24390E-04  7488   0.215E-03-0.186E-05
CGA:  45    -0.334904925924E+03   -0.42920E-05   -0.42862E-05  7488   0.400E-03-0.546E-06
CGA:  46    -0.334904946840E+03   -0.20916E-04   -0.20984E-04  7488   0.209E-03-0.338E-05
CGA:  47    -0.334904953431E+03   -0.65906E-05   -0.65909E-05  7488   0.102E-03-0.117E-06
  16 F= -.33490495E+03 E0= -.33487062E+03  d E =-.525535E-03  mag=    32.0000
       N       E                     dE             d eps       ncg     rms          ort
SDA:   1    -0.324667274615E+03    0.10238E+02    0.00000E+00  7488   0.601E+03 0.000E+00
CGA:   2    -0.328579811717E+03   -0.39125E+01   -0.89153E+01  7488   0.479E+03-0.598E+03
CGA:   3    -0.333865142398E+03   -0.52853E+01   -0.49053E+01  7488   0.157E+03-0.348E+03
CGA:   4    -0.334657125406E+03   -0.79198E+00   -0.14347E+01  7488   0.340E+02-0.703E+02
CGA:   5    -0.334879249866E+03   -0.22212E+00   -0.20950E+00  7488   0.846E+00 0.675E+00
CGA:   6    -0.334885862092E+03   -0.66122E-02   -0.64068E-02  7488   0.903E-01 0.225E-01
CGA:   7    -0.334888787967E+03   -0.29259E-02   -0.29318E-02  7488   0.136E+00-0.885E-03
CGA:   8    -0.334890637291E+03   -0.18493E-02   -0.18356E-02  7488   0.113E+00 0.526E-03
CGA:   9    -0.334897332842E+03   -0.66956E-02   -0.66395E-02  7488   0.118E+00 0.183E-02
CGA:  10    -0.334898383762E+03   -0.10509E-02   -0.10557E-02  7488   0.478E-01-0.419E-03
CGA:  11    -0.334900837130E+03   -0.24534E-02   -0.24866E-02  7488   0.570E-01-0.132E-02
CGA:  12    -0.334901399591E+03   -0.56246E-03   -0.56064E-03  7488   0.216E-01 0.117E-03
CGA:  13    -0.334902328892E+03   -0.92930E-03   -0.92404E-03  7488   0.450E-01 0.296E-03
CGA:  14    -0.334902786331E+03   -0.45744E-03   -0.45627E-03  7488   0.777E-02 0.619E-04
CGA:  15    -0.334903546743E+03   -0.76041E-03   -0.76156E-03  7488   0.301E-01-0.132E-04
CGA:  16    -0.334903811973E+03   -0.26523E-03   -0.26461E-03  7488   0.536E-02 0.276E-04
CGA:  17    -0.334903964773E+03   -0.15280E-03   -0.15290E-03  7488   0.177E-02 0.256E-04
CGA:  18    -0.334903992954E+03   -0.28181E-04   -0.28150E-04  7488   0.243E-02-0.220E-07
CGA:  19    -0.334904126647E+03   -0.13369E-03   -0.13376E-03  7488   0.309E-02-0.261E-05
CGA:  20    -0.334904157292E+03   -0.30645E-04   -0.30598E-04  7488   0.881E-03 0.427E-05
CGA:  21    -0.334904185333E+03   -0.28041E-04   -0.28027E-04  7488   0.572E-03 0.415E-05
CGA:  22    -0.334904195773E+03   -0.10439E-04   -0.10451E-04  7488   0.972E-03 0.878E-06
CGA:  23    -0.334904234809E+03   -0.39037E-04   -0.39003E-04  7488   0.148E-03 0.314E-05
CGA:  24    -0.334904237646E+03   -0.28362E-05   -0.28389E-05  7488   0.289E-03 0.267E-06
CGA:  25    -0.334904252323E+03   -0.14677E-04   -0.14636E-04  7488   0.227E-03 0.189E-05
CGA:  26    -0.334904254813E+03   -0.24909E-05   -0.24961E-05  7488   0.109E-03 0.284E-06
  17 F= -.33490425E+03 E0= -.33486992E+03  d E =0.173082E-03  mag=    32.0000
       N       E                     dE             d eps       ncg     rms          ort
SDA:   1    -0.334873666422E+03    0.30586E-01    0.00000E+00  7488   0.298E+01 0.000E+00
CGA:   2    -0.334892393011E+03   -0.18727E-01   -0.17825E-01  7488   0.843E-01 0.128E+00
CGA:   3    -0.334894369055E+03   -0.19760E-02   -0.19583E-02  7488   0.931E-01-0.560E-03
CGA:   4    -0.334895466790E+03   -0.10977E-02   -0.10883E-02  7488   0.483E-01 0.520E-03
CGA:   5    -0.334897821435E+03   -0.23546E-02   -0.23539E-02  7488   0.227E+00 0.333E-04
CGA:   6    -0.334901620473E+03   -0.37990E-02   -0.38050E-02  7488   0.544E-01-0.111E-03
CGA:   7    -0.334902247666E+03   -0.62719E-03   -0.63066E-03  7488   0.445E-01-0.191E-03
CGA:   8    -0.334903435821E+03   -0.11882E-02   -0.11887E-02  7488   0.164E-01 0.537E-03
CGA:   9    -0.334903614864E+03   -0.17904E-03   -0.17854E-03  7488   0.127E-01 0.362E-04
CGA:  10    -0.334904145034E+03   -0.53017E-03   -0.52772E-03  7488   0.107E-01 0.143E-03
CGA:  11    -0.334904277881E+03   -0.13285E-03   -0.13314E-03  7488   0.858E-02-0.435E-05
CGA:  12    -0.334904492615E+03   -0.21473E-03   -0.21465E-03  7488   0.473E-02-0.203E-04
CGA:  13    -0.334904552098E+03   -0.59483E-04   -0.59494E-04  7488   0.385E-02 0.539E-05
CGA:  14    -0.334904709165E+03   -0.15707E-03   -0.15704E-03  7488   0.360E-02 0.305E-05
CGA:  15    -0.334904736014E+03   -0.26849E-04   -0.26836E-04  7488   0.531E-03 0.672E-05
CGA:  16    -0.334904762586E+03   -0.26572E-04   -0.26584E-04  7488   0.141E-02-0.503E-06
CGA:  17    -0.334904779495E+03   -0.16909E-04   -0.16918E-04  7488   0.889E-03 0.712E-06
CGA:  18    -0.334904817384E+03   -0.37889E-04   -0.37848E-04  7488   0.773E-03 0.225E-05
CGA:  19    -0.334904823358E+03   -0.59746E-05   -0.59694E-05  7488   0.128E-03 0.416E-06
  18 F= -.33490482E+03 E0= -.33487050E+03  d E =-.395463E-03  mag=    32.0000
       N       E                     dE             d eps       ncg     rms          ort
SDA:   1    -0.334813012127E+03    0.91805E-01    0.00000E+00  7488   0.143E+02 0.000E+00
CGA:   2    -0.334901555275E+03   -0.88543E-01   -0.10933E+00  7488   0.439E+00-0.225E+01
CGA:   3    -0.334904395524E+03   -0.28402E-02   -0.27808E-02  7488   0.119E-01 0.621E-02
CGA:   4    -0.334904495177E+03   -0.99653E-04   -0.99792E-04  7488   0.294E-02-0.123E-04
CGA:   5    -0.334904602992E+03   -0.10782E-03   -0.10794E-03  7488   0.297E-02-0.855E-05
CGA:   6    -0.334904652684E+03   -0.49692E-04   -0.49687E-04  7488   0.385E-02-0.164E-06
CGA:   7    -0.334904759902E+03   -0.10722E-03   -0.10717E-03  7488   0.175E-02 0.776E-05
CGA:   8    -0.334904784471E+03   -0.24569E-04   -0.24585E-04  7488   0.149E-02-0.406E-06
CGA:   9    -0.334904858815E+03   -0.74344E-04   -0.74461E-04  7488   0.227E-02-0.455E-05
CGA:  10    -0.334904880788E+03   -0.21974E-04   -0.21987E-04  7488   0.783E-03-0.116E-05
CGA:  11    -0.334904906573E+03   -0.25785E-04   -0.25769E-04  7488   0.480E-03 0.141E-05
CGA:  12    -0.334904913017E+03   -0.64443E-05   -0.64432E-05  7488   0.390E-03 0.237E-06
CGA:  13    -0.334904928614E+03   -0.15597E-04   -0.15568E-04  7488   0.610E-03 0.183E-05
CGA:  14    -0.334904935354E+03   -0.67406E-05   -0.67482E-05  7488   0.198E-03 0.105E-05
  19 F= -.33490494E+03 E0= -.33487061E+03  d E =-.507459E-03  mag=    32.0000
       N       E                     dE             d eps       ncg     rms          ort
SDA:   1    -0.334868930408E+03    0.35998E-01    0.00000E+00  7488   0.571E+01 0.000E+00
CGA:   2    -0.334904636402E+03   -0.35706E-01   -0.34175E-01  7488   0.313E-01 0.203E+00
CGA:   3    -0.334904857757E+03   -0.22136E-03   -0.22067E-03  7488   0.139E-02 0.806E-04
CGA:   4    -0.334904898121E+03   -0.40364E-04   -0.40359E-04  7488   0.273E-02 0.650E-06
CGA:   5    -0.334904932637E+03   -0.34516E-04   -0.34487E-04  7488   0.372E-03 0.830E-06
CGA:   6    -0.334904944094E+03   -0.11457E-04   -0.11456E-04  7488   0.371E-03 0.217E-06
CGA:   7    -0.334904948351E+03   -0.42564E-05   -0.42626E-05  7488   0.163E-03 0.431E-06
  20 F= -.33490495E+03 E0= -.33487063E+03  d E =-.520455E-03  mag=    32.0000
       N       E                     dE             d eps       ncg     rms          ort
SDA:   1    -0.334841892418E+03    0.63052E-01    0.00000E+00  7488   0.896E+01 0.000E+00
CGA:   2    -0.334902650234E+03   -0.60758E-01   -0.53417E-01  7488   0.153E+00 0.997E+00
CGA:   3    -0.334903792670E+03   -0.11424E-02   -0.11302E-02  7488   0.169E-01 0.146E-02
CGA:   4    -0.334904198858E+03   -0.40619E-03   -0.40557E-03  7488   0.169E-01 0.213E-03
CGA:   5    -0.334904361744E+03   -0.16289E-03   -0.16249E-03  7488   0.211E-02 0.264E-04
CGA:   6    -0.334904499562E+03   -0.13782E-03   -0.13748E-03  7488   0.789E-02 0.900E-05
CGA:   7    -0.334904595136E+03   -0.95574E-04   -0.95591E-04  7488   0.370E-02 0.156E-06
CGA:   8    -0.334904760270E+03   -0.16513E-03   -0.16556E-03  7488   0.356E-02-0.194E-04
CGA:   9    -0.334904797213E+03   -0.36944E-04   -0.36890E-04  7488   0.134E-02 0.753E-06
CGA:  10    -0.334904859684E+03   -0.62471E-04   -0.62663E-04  7488   0.267E-02-0.826E-05
CGA:  11    -0.334904883871E+03   -0.24186E-04   -0.24147E-04  7488   0.302E-03-0.304E-05
CGA:  12    -0.334904895131E+03   -0.11261E-04   -0.11313E-04  7488   0.367E-03-0.378E-05
CGA:  13    -0.334904900286E+03   -0.51546E-05   -0.51380E-05  7488   0.392E-03-0.158E-05
CGA:  14    -0.334904921141E+03   -0.20855E-04   -0.21101E-04  7488   0.234E-03-0.820E-05
CGA:  15    -0.334904923028E+03   -0.18870E-05   -0.18768E-05  7488   0.433E-04-0.554E-06
  21 F= -.33490492E+03 E0= -.33487060E+03  d E =0.253225E-04  mag=    32.0000
       N       E                     dE             d eps       ncg     rms          ort
SDA:   1    -0.334878029037E+03    0.26892E-01    0.00000E+00  7488   0.435E+01 0.000E+00
CGA:   2    -0.334904582796E+03   -0.26554E-01   -0.28312E-01  7488   0.318E-01-0.231E+00
CGA:   3    -0.334904796820E+03   -0.21402E-03   -0.21287E-03  7488   0.254E-02 0.130E-03
CGA:   4    -0.334904859227E+03   -0.62407E-04   -0.62417E-04  7488   0.607E-03-0.755E-05
CGA:   5    -0.334904869941E+03   -0.10714E-04   -0.10719E-04  7488   0.712E-03 0.844E-06
CGA:   6    -0.334904897138E+03   -0.27197E-04   -0.27134E-04  7488   0.349E-03 0.417E-05
CGA:   7    -0.334904907428E+03   -0.10291E-04   -0.10283E-04  7488   0.790E-03 0.149E-05
CGA:   8    -0.334904920699E+03   -0.13271E-04   -0.13274E-04  7488   0.207E-03 0.158E-05
CGA:   9    -0.334904929463E+03   -0.87636E-05   -0.87427E-05  7488   0.384E-03 0.115E-05
  22 F= -.33490493E+03 E0= -.33487061E+03  d E =0.188878E-04  mag=    32.0000
       N       E                     dE             d eps       ncg     rms          ort
SDA:   1    -0.330275855099E+03    0.46291E+01    0.00000E+00  7488   0.636E+03 0.000E+00
CGA:   2    -0.333372234824E+03   -0.30964E+01   -0.71850E+01  7488   0.141E+03-0.195E+03
CGA:   3    -0.334585051631E+03   -0.12128E+01   -0.83697E+00  7488   0.446E+02 0.286E+02
CGA:   4    -0.334861448212E+03   -0.27640E+00   -0.23102E+00  7488   0.617E+01 0.803E+01
CGA:   5    -0.334896551891E+03   -0.35104E-01   -0.40094E-01  7488   0.819E+00-0.773E+00
CGA:   6    -0.334901020542E+03   -0.44687E-02   -0.45086E-02  7488   0.234E+00-0.518E-02
CGA:   7    -0.334902710982E+03   -0.16904E-02   -0.16610E-02  7488   0.750E-01 0.301E-02
CGA:   8    -0.334903240632E+03   -0.52965E-03   -0.52537E-03  7488   0.286E-01 0.450E-03
CGA:   9    -0.334903504477E+03   -0.26385E-03   -0.26234E-03  7488   0.186E-01 0.903E-04
CGA:  10    -0.334903681488E+03   -0.17701E-03   -0.17710E-03  7488   0.149E-01-0.290E-05
CGA:  11    -0.334903897178E+03   -0.21569E-03   -0.21580E-03  7488   0.247E-01 0.764E-05
CGA:  12    -0.334904220068E+03   -0.32289E-03   -0.32228E-03  7488   0.267E-01-0.145E-04
CGA:  13    -0.334904489202E+03   -0.26913E-03   -0.26894E-03  7488   0.184E-01 0.474E-05
CGA:  14    -0.334904634404E+03   -0.14520E-03   -0.14551E-03  7488   0.753E-02-0.232E-04
CGA:  15    -0.334904700175E+03   -0.65770E-04   -0.65882E-04  7488   0.531E-02-0.654E-05
CGA:  16    -0.334904757055E+03   -0.56880E-04   -0.56816E-04  7488   0.390E-02-0.132E-05
CGA:  17    -0.334904791352E+03   -0.34297E-04   -0.34238E-04  7488   0.231E-02 0.410E-06
CGA:  18    -0.334904812357E+03   -0.21005E-04   -0.21005E-04  7488   0.139E-02-0.106E-05
CGA:  19    -0.334904826783E+03   -0.14426E-04   -0.14427E-04  7488   0.150E-02-0.413E-06
CGA:  20    -0.334904851668E+03   -0.24885E-04   -0.24884E-04  7488   0.254E-02-0.859E-07
CGA:  21    -0.334904878721E+03   -0.27053E-04   -0.27035E-04  7488   0.185E-02-0.247E-05
CGA:  22    -0.334904894942E+03   -0.16220E-04   -0.16210E-04  7488   0.886E-03-0.130E-05
CGA:  23    -0.334904901655E+03   -0.67137E-05   -0.67127E-05  7488   0.417E-03-0.455E-06
  23 F= -.33490490E+03 E0= -.33487059E+03  d E =0.466952E-04  mag=    32.0000
       N       E                     dE             d eps       ncg     rms          ort
SDA:   1    -0.323762232286E+03    0.11143E+02    0.00000E+00  7488   0.151E+03 0.000E+00
CGA:   2    -0.332186205789E+03   -0.84240E+01    0.11413E+01  7488   0.126E+03 0.115E+03
CGA:   3    -0.333644246798E+03   -0.14580E+01   -0.19067E+01  7488   0.209E+03-0.303E+03
CGA:   4    -0.334825186250E+03   -0.11809E+01   -0.14931E+01  7488   0.725E+01-0.277E+02
CGA:   5    -0.334873971671E+03   -0.48785E-01   -0.47708E-01  7488   0.524E+00 0.529E-01
CGA:   6    -0.334882261691E+03   -0.82900E-02   -0.83120E-02  7488   0.354E+00-0.668E-02
CGA:   7    -0.334887786254E+03   -0.55246E-02   -0.55476E-02  7488   0.157E+00-0.688E-02
CGA:   8    -0.334891403377E+03   -0.36171E-02   -0.36282E-02  7488   0.342E+00-0.103E-02
CGA:   9    -0.334899662780E+03   -0.82594E-02   -0.81968E-02  7488   0.935E-01 0.574E-02
CGA:  10    -0.334900893516E+03   -0.12307E-02   -0.12318E-02  7488   0.735E-01 0.192E-03
CGA:  11    -0.334902500756E+03   -0.16072E-02   -0.16220E-02  7488   0.443E-01-0.169E-02
CGA:  12    -0.334902950169E+03   -0.44941E-03   -0.45030E-03  7488   0.162E-01 0.148E-04
CGA:  13    -0.334903587733E+03   -0.63756E-03   -0.63346E-03  7488   0.337E-01 0.185E-03
CGA:  14    -0.334903959981E+03   -0.37225E-03   -0.37289E-03  7488   0.117E-01 0.194E-04
CGA:  15    -0.334904352902E+03   -0.39292E-03   -0.39279E-03  7488   0.147E-01 0.618E-05
CGA:  16    -0.334904507616E+03   -0.15471E-03   -0.15478E-03  7488   0.347E-02 0.947E-05
CGA:  17    -0.334904594485E+03   -0.86868E-04   -0.86866E-04  7488   0.784E-02 0.928E-06
CGA:  18    -0.334904779646E+03   -0.18516E-03   -0.18507E-03  7488   0.160E-02 0.127E-04
CGA:  19    -0.334904798828E+03   -0.19181E-04   -0.19189E-04  7488   0.125E-02 0.104E-05
CGA:  20    -0.334904837472E+03   -0.38644E-04   -0.38684E-04  7488   0.150E-02-0.272E-05
CGA:  21    -0.334904859786E+03   -0.22314E-04   -0.22315E-04  7488   0.110E-02 0.213E-06
CGA:  22    -0.334904892893E+03   -0.33107E-04   -0.33102E-04  7488   0.915E-03 0.362E-06
CGA:  23    -0.334904901277E+03   -0.83842E-05   -0.83815E-05  7488   0.291E-03-0.581E-06
CGA:  24    -0.334904914102E+03   -0.12825E-04   -0.12873E-04  7488   0.522E-03-0.187E-05
CGA:  25    -0.334904919825E+03   -0.57235E-05   -0.57205E-05  7488   0.160E-03-0.538E-06
  24 F= -.33490492E+03 E0= -.33487059E+03  d E =0.285254E-04  mag=    32.0000
       N       E                     dE             d eps       ncg     rms          ort
SDA:   1    -0.334898919036E+03    0.59951E-02    0.00000E+00  7488   0.826E+00 0.000E+00
CGA:   2    -0.334904237918E+03   -0.53189E-02   -0.52323E-02  7488   0.225E-01 0.101E-01
CGA:   3    -0.334904687059E+03   -0.44914E-03   -0.44941E-03  7488   0.186E-01-0.126E-03
CGA:   4    -0.334904891253E+03   -0.20419E-03   -0.20321E-03  7488   0.103E-02 0.216E-04
CGA:   5    -0.334904914835E+03   -0.23582E-04   -0.23591E-04  7488   0.624E-03-0.199E-05
CGA:   6    -0.334904920386E+03   -0.55508E-05   -0.55482E-05  7488   0.133E-03-0.109E-05
  25 F= -.33490492E+03 E0= -.33487060E+03  d E =0.279648E-04  mag=    32.0000
       N       E                     dE             d eps       ncg     rms          ort
SDA:   1    -0.334836542502E+03    0.68372E-01    0.00000E+00  7488   0.950E+01 0.000E+00
CGA:   2    -0.334904222353E+03   -0.67680E-01   -0.62515E-01  7488   0.473E-01 0.569E+00
CGA:   3    -0.334904647306E+03   -0.42495E-03   -0.42227E-03  7488   0.116E-01 0.201E-03
CGA:   4    -0.334904882933E+03   -0.23563E-03   -0.23566E-03  7488   0.100E-02-0.213E-04
CGA:   5    -0.334904894210E+03   -0.11277E-04   -0.11274E-04  7488   0.637E-03 0.279E-06
CGA:   6    -0.334904917618E+03   -0.23408E-04   -0.23375E-04  7488   0.239E-03 0.185E-05
CGA:   7    -0.334904922294E+03   -0.46765E-05   -0.46765E-05  7488   0.360E-03 0.117E-06
  26 F= -.33490492E+03 E0= -.33487060E+03  d E =0.260563E-04  mag=    32.0000
       N       E                     dE             d eps       ncg     rms          ort
SDA:   1    -0.334902441063E+03    0.24766E-02    0.00000E+00  7488   0.188E+00 0.000E+00
CGA:   2    -0.334904084405E+03   -0.16433E-02   -0.16447E-02  7488   0.384E-01-0.104E-03
CGA:   3    -0.334904812835E+03   -0.72843E-03   -0.72749E-03  7488   0.419E-02-0.709E-03
CGA:   4    -0.334904850563E+03   -0.37728E-04   -0.37759E-04  7488   0.167E-02-0.183E-05
CGA:   5    -0.334904909850E+03   -0.59287E-04   -0.59496E-04  7488   0.365E-03-0.122E-04
CGA:   6    -0.334904922095E+03   -0.12245E-04   -0.12272E-04  7488   0.360E-03-0.184E-05
CGA:   7    -0.334904925480E+03   -0.33858E-05   -0.33851E-05  7488   0.112E-03-0.183E-06
  27 F= -.33490493E+03 E0= -.33487061E+03  d E =0.228702E-04  mag=    32.0000
       N       E                     dE             d eps       ncg     rms          ort
SDA:   1    -0.334897483078E+03    0.74390E-02    0.00000E+00  7488   0.806E+00 0.000E+00
CGA:   2    -0.334903437556E+03   -0.59545E-02   -0.60175E-02  7488   0.613E-01-0.662E-02
CGA:   3    -0.334904777978E+03   -0.13404E-02   -0.13398E-02  7488   0.204E-01 0.890E-03
CGA:   4    -0.334904940573E+03   -0.16259E-03   -0.16362E-03  7488   0.205E-02-0.908E-04
CGA:   5    -0.334904994595E+03   -0.54022E-04   -0.53991E-04  7488   0.492E-03 0.395E-05
CGA:   6    -0.334905000367E+03   -0.57727E-05   -0.57763E-05  7488   0.276E-03 0.465E-07
CGA:   7    -0.334905014985E+03   -0.14617E-04   -0.14634E-04  7488   0.369E-03-0.543E-06
CGA:   8    -0.334905019350E+03   -0.43652E-05   -0.43668E-05  7488   0.188E-03 0.682E-07
  28 F= -.33490502E+03 E0= -.33487069E+03  d E =-.938694E-04  mag=    32.0000
       N       E                     dE             d eps       ncg     rms          ort
SDA:   1    -0.334895786944E+03    0.92280E-02    0.00000E+00  7488   0.127E+01 0.000E+00
CGA:   2    -0.334904212001E+03   -0.84251E-02   -0.80543E-02  7488   0.340E-01 0.467E-01
CGA:   3    -0.334904784139E+03   -0.57214E-03   -0.56887E-03  7488   0.236E-01-0.935E-04
CGA:   4    -0.334905051863E+03   -0.26772E-03   -0.26561E-03  7488   0.236E-02 0.767E-04
CGA:   5    -0.334905106507E+03   -0.54644E-04   -0.54658E-04  7488   0.443E-02-0.627E-05
CGA:   6    -0.334905175983E+03   -0.69475E-04   -0.69330E-04  7488   0.751E-03-0.115E-04
CGA:   7    -0.334905193291E+03   -0.17309E-04   -0.17316E-04  7488   0.140E-02-0.323E-05
CGA:   8    -0.334905219505E+03   -0.26213E-04   -0.26197E-04  7488   0.693E-03-0.633E-05
CGA:   9    -0.334905239460E+03   -0.19956E-04   -0.19984E-04  7488   0.179E-02-0.353E-05
CGA:  10    -0.334905275256E+03   -0.35796E-04   -0.35794E-04  7488   0.528E-03-0.391E-05
CGA:  11    -0.334905286260E+03   -0.11004E-04   -0.11004E-04  7488   0.793E-03-0.780E-06
CGA:  12    -0.334905297048E+03   -0.10788E-04   -0.10782E-04  7488   0.832E-04 0.435E-06
CGA:  13    -0.334905298892E+03   -0.18436E-05   -0.18420E-05  7488   0.189E-03 0.113E-05
  29 F= -.33490530E+03 E0= -.33487098E+03  d E =-.373411E-03  mag=    32.0000
       N       E                     dE             d eps       ncg     rms          ort
SDA:   1    -0.334845072443E+03    0.60225E-01    0.00000E+00  7488   0.881E+01 0.000E+00
CGA:   2    -0.334902982343E+03   -0.57910E-01   -0.63856E-01  7488   0.161E+00-0.636E+00
CGA:   3    -0.334904722884E+03   -0.17405E-02   -0.17408E-02  7488   0.450E-01-0.146E-04
CGA:   4    -0.334905281982E+03   -0.55910E-03   -0.56316E-03  7488   0.670E-02-0.742E-04
CGA:   5    -0.334905347720E+03   -0.65738E-04   -0.65655E-04  7488   0.184E-02-0.193E-05
CGA:   6    -0.334905442319E+03   -0.94599E-04   -0.95301E-04  7488   0.477E-02-0.221E-04
CGA:   7    -0.334905547547E+03   -0.10523E-03   -0.10526E-03  7488   0.422E-02-0.250E-04
CGA:   8    -0.334905679570E+03   -0.13202E-03   -0.13223E-03  7488   0.187E-02-0.214E-04
CGA:   9    -0.334905708037E+03   -0.28467E-04   -0.28444E-04  7488   0.124E-02-0.357E-05
CGA:  10    -0.334905760664E+03   -0.52627E-04   -0.52575E-04  7488   0.109E-02 0.250E-05
CGA:  11    -0.334905780711E+03   -0.20047E-04   -0.20051E-04  7488   0.926E-03 0.154E-05
CGA:  12    -0.334905805276E+03   -0.24566E-04   -0.24548E-04  7488   0.577E-03 0.425E-05
CGA:  13    -0.334905814272E+03   -0.89958E-05   -0.90082E-05  7488   0.460E-03 0.213E-05
CGA:  14    -0.334905824643E+03   -0.10371E-04   -0.10370E-04  7488   0.247E-03 0.370E-05
CGA:  15    -0.334905829269E+03   -0.46266E-05   -0.46328E-05  7488   0.241E-03 0.175E-05
  30 F= -.33490583E+03 E0= -.33487152E+03  d E =-.903789E-03  mag=    32.0000
       N       E                     dE             d eps       ncg     rms          ort
SDA:   1    -0.334883420141E+03    0.22405E-01    0.00000E+00  7488   0.309E+01 0.000E+00
CGA:   2    -0.334904072889E+03   -0.20653E-01   -0.21845E-01  7488   0.406E-01-0.134E+00
CGA:   3    -0.334904670733E+03   -0.59784E-03   -0.60005E-03  7488   0.244E-01 0.164E-04
CGA:   4    -0.334905017861E+03   -0.34713E-03   -0.34847E-03  7488   0.856E-02-0.178E-04
CGA:   5    -0.334905273788E+03   -0.25593E-03   -0.25635E-03  7488   0.210E-01-0.441E-04
CGA:   6    -0.334905921120E+03   -0.64733E-03   -0.64858E-03  7488   0.779E-02-0.122E-03
CGA:   7    -0.334906095497E+03   -0.17438E-03   -0.17438E-03  7488   0.981E-02-0.170E-04
CGA:   8    -0.334906344854E+03   -0.24936E-03   -0.24931E-03  7488   0.537E-02 0.144E-05
CGA:   9    -0.334906510106E+03   -0.16525E-03   -0.16527E-03  7488   0.748E-02-0.284E-05
CGA:  10    -0.334906606334E+03   -0.96227E-04   -0.96234E-04  7488   0.156E-02 0.224E-05
CGA:  11    -0.334906641264E+03   -0.34930E-04   -0.34929E-04  7488   0.255E-02 0.449E-05
CGA:  12    -0.334906719976E+03   -0.78713E-04   -0.78456E-04  7488   0.118E-02 0.277E-04
CGA:  13    -0.334906746375E+03   -0.26399E-04   -0.26402E-04  7488   0.139E-02 0.668E-05
CGA:  14    -0.334906778633E+03   -0.32259E-04   -0.32255E-04  7488   0.369E-03 0.902E-05
CGA:  15    -0.334906785521E+03   -0.68880E-05   -0.68931E-05  7488   0.367E-03 0.145E-05
  31 F= -.33490679E+03 E0= -.33487249E+03  d E =-.186004E-02  mag=    32.0000
       N       E                     dE             d eps       ncg     rms          ort
SDA:   1    -0.334874395445E+03    0.32383E-01    0.00000E+00  7488   0.378E+01 0.000E+00
CGA:   2    -0.334897614442E+03   -0.23219E-01   -0.23663E-01  7488   0.118E+00-0.625E-01
CGA:   3    -0.334900921770E+03   -0.33073E-02   -0.33842E-02  7488   0.405E-01-0.783E-02
CGA:   4    -0.334901575551E+03   -0.65378E-03   -0.65415E-03  7488   0.576E-01-0.602E-05
CGA:   5    -0.334904097490E+03   -0.25219E-02   -0.25386E-02  7488   0.381E-01-0.753E-03
CGA:   6    -0.334905328465E+03   -0.12310E-02   -0.12302E-02  7488   0.759E-01 0.467E-04
CGA:   7    -0.334906427760E+03   -0.10993E-02   -0.10954E-02  7488   0.144E-01-0.614E-05
CGA:   8    -0.334906967934E+03   -0.54017E-03   -0.53871E-03  7488   0.286E-01 0.891E-04
CGA:   9    -0.334907370246E+03   -0.40231E-03   -0.40291E-03  7488   0.100E-01-0.212E-05
CGA:  10    -0.334907864710E+03   -0.49446E-03   -0.49466E-03  7488   0.129E-01-0.909E-05
CGA:  11    -0.334907988080E+03   -0.12337E-03   -0.12334E-03  7488   0.283E-02 0.211E-04
CGA:  12    -0.334908189922E+03   -0.20184E-03   -0.20074E-03  7488   0.732E-02 0.227E-04
CGA:  13    -0.334908264755E+03   -0.74833E-04   -0.74907E-04  7488   0.887E-03 0.134E-04
CGA:  14    -0.334908301939E+03   -0.37184E-04   -0.37115E-04  7488   0.203E-02 0.405E-05
CGA:  15    -0.334908333015E+03   -0.31076E-04   -0.31093E-04  7488   0.106E-02 0.195E-05
CGA:  16    -0.334908388495E+03   -0.55480E-04   -0.55429E-04  7488   0.131E-02 0.190E-05
CGA:  17    -0.334908400756E+03   -0.12261E-04   -0.12259E-04  7488   0.182E-03 0.420E-06
CGA:  18    -0.334908409846E+03   -0.90905E-05   -0.90977E-05  7488   0.568E-03-0.307E-06
  32 F= -.33490841E+03 E0= -.33487415E+03  d E =-.348437E-02  mag=    32.0000
       N       E                     dE             d eps       ncg     rms          ort
SDA:   1    -0.324781061652E+03    0.10127E+02    0.00000E+00  7488   0.664E+03 0.000E+00
CGA:   2    -0.331399536014E+03   -0.66185E+01   -0.82829E+01  7488   0.349E+03-0.598E+03
CGA:   3    -0.334673893659E+03   -0.32744E+01   -0.28838E+01  7488   0.298E+02-0.776E+02
CGA:   4    -0.334844695411E+03   -0.17080E+00   -0.19979E+00  7488   0.398E+01-0.266E+01
CGA:   5    -0.334870383947E+03   -0.25689E-01   -0.26653E-01  7488   0.749E+00-0.107E+00
CGA:   6    -0.334876983373E+03   -0.65994E-02   -0.63136E-02  7488   0.229E+00 0.233E-01
CGA:   7    -0.334880224225E+03   -0.32409E-02   -0.32024E-02  7488   0.225E+00 0.703E-03
CGA:   8    -0.334883618141E+03   -0.33939E-02   -0.33920E-02  7488   0.234E+00-0.564E-04
CGA:   9    -0.334888257954E+03   -0.46398E-02   -0.46421E-02  7488   0.431E+00 0.379E-03
CGA:  10    -0.334895208349E+03   -0.69504E-02   -0.69456E-02  7488   0.403E+00-0.267E-03
CGA:  11    -0.334899489493E+03   -0.42811E-02   -0.43075E-02  7488   0.155E+00-0.138E-02
CGA:  12    -0.334900970033E+03   -0.14805E-02   -0.14895E-02  7488   0.910E-01-0.590E-03
CGA:  13    -0.334902762062E+03   -0.17920E-02   -0.17919E-02  7488   0.118E+00-0.105E-03
CGA:  14    -0.334904124689E+03   -0.13626E-02   -0.13501E-02  7488   0.660E-01 0.377E-03
CGA:  15    -0.334904938972E+03   -0.81428E-03   -0.81603E-03  7488   0.534E-01-0.306E-04
CGA:  16    -0.334906060411E+03   -0.11214E-02   -0.11210E-02  7488   0.107E+00 0.156E-03
CGA:  17    -0.334907630724E+03   -0.15703E-02   -0.15688E-02  7488   0.558E-01-0.422E-04
CGA:  18    -0.334908165158E+03   -0.53443E-03   -0.53269E-03  7488   0.247E-01 0.103E-03
CGA:  19    -0.334908475661E+03   -0.31050E-03   -0.31123E-03  7488   0.197E-01 0.889E-05
CGA:  20    -0.334908819021E+03   -0.34336E-03   -0.34350E-03  7488   0.220E-01 0.641E-04
CGA:  21    -0.334909098905E+03   -0.27988E-03   -0.27982E-03  7488   0.172E-01 0.115E-04
CGA:  22    -0.334909390488E+03   -0.29158E-03   -0.29158E-03  7488   0.159E-01 0.800E-05
CGA:  23    -0.334909557008E+03   -0.16652E-03   -0.16640E-03  7488   0.716E-02 0.164E-04
CGA:  24    -0.334909644899E+03   -0.87891E-04   -0.87852E-04  7488   0.528E-02 0.510E-05
CGA:  25    -0.334909759933E+03   -0.11503E-03   -0.11499E-03  7488   0.114E-01 0.930E-05
[...]
CGA:   2    -0.334908534998E+03   -0.13576E-01   -0.13854E-01  7488   0.900E-01-0.300E-01
CGA:   3    -0.334910323899E+03   -0.17889E-02   -0.17844E-02  7488   0.268E-01-0.850E-03
CGA:   4    -0.334910540855E+03   -0.21696E-03   -0.21732E-03  7488   0.507E-02-0.525E-04
CGA:   5    -0.334910865314E+03   -0.32446E-03   -0.32349E-03  7488   0.840E-02 0.368E-04
CGA:   6    -0.334910998615E+03   -0.13330E-03   -0.13299E-03  7488   0.775E-02-0.298E-04
CGA:   7    -0.334911503476E+03   -0.50486E-03   -0.51071E-03  7488   0.526E-02-0.138E-03
CGA:   8    -0.334911546847E+03   -0.43371E-04   -0.43225E-04  7488   0.145E-02-0.463E-05
CGA:   9    -0.334911613593E+03   -0.66747E-04   -0.66466E-04  7488   0.172E-02 0.129E-04
CGA:  10    -0.334911641623E+03   -0.28030E-04   -0.28108E-04  7488   0.149E-02 0.779E-05
CGA:  11    -0.334911688600E+03   -0.46977E-04   -0.46856E-04  7488   0.446E-03 0.195E-04
CGA:  12    -0.334911694548E+03   -0.59479E-05   -0.59953E-05  7488   0.456E-03 0.377E-05
CGA:  13    -0.334911724072E+03   -0.29524E-04   -0.28701E-04  7488   0.323E-03 0.219E-04
CGA:  14    -0.334911727749E+03   -0.36768E-05   -0.37101E-05  7488   0.114E-03 0.215E-05
  45 F= -.33491173E+03 E0= -.33487765E+03  d E =-.141567E-03  mag=    32.0000
       N       E                     dE             d eps       ncg     rms          ort
SDA:   1    -0.334896619835E+03    0.15104E-01    0.00000E+00  7488   0.106E+01 0.000E+00
CGA:   2    -0.334903668325E+03   -0.70485E-02   -0.73129E-02  7488   0.560E-01-0.319E-01
CGA:   3    -0.334904907775E+03   -0.12395E-02   -0.12363E-02  7488   0.577E-01-0.541E-03
CGA:   4    -0.334905754466E+03   -0.84669E-03   -0.84421E-03  7488   0.365E-01-0.432E-04
CGA:   5    -0.334909915748E+03   -0.41613E-02   -0.42210E-02  7488   0.346E-01-0.685E-03
CGA:   6    -0.334910325042E+03   -0.40929E-03   -0.40961E-03  7488   0.185E-01-0.691E-04
CGA:   7    -0.334911015429E+03   -0.69039E-03   -0.68987E-03  7488   0.959E-02 0.466E-04
CGA:   8    -0.334911277230E+03   -0.26180E-03   -0.26189E-03  7488   0.176E-01 0.485E-04
CGA:   9    -0.334911536361E+03   -0.25913E-03   -0.26064E-03  7488   0.305E-02 0.315E-04
CGA:  10    -0.334911692203E+03   -0.15584E-03   -0.15435E-03  7488   0.894E-02 0.657E-04
CGA:  11    -0.334911823624E+03   -0.13142E-03   -0.13201E-03  7488   0.139E-02 0.579E-04
CGA:  12    -0.334911883945E+03   -0.60320E-04   -0.59927E-04  7488   0.252E-02 0.262E-04
CGA:  13    -0.334911910474E+03   -0.26529E-04   -0.26678E-04  7488   0.297E-03 0.660E-05
CGA:  14    -0.334911921230E+03   -0.10756E-04   -0.10782E-04  7488   0.944E-03-0.323E-05
CGA:  15    -0.334911950780E+03   -0.29550E-04   -0.29594E-04  7488   0.385E-03-0.142E-04
CGA:  16    -0.334911959537E+03   -0.87575E-05   -0.87283E-05  7488   0.301E-03-0.544E-05
  46 F= -.33491196E+03 E0= -.33487791E+03  d E =-.373355E-03  mag=    32.0000
       N       E                     dE             d eps       ncg     rms          ort
SDA:   1    -0.323389025538E+03    0.11523E+02    0.00000E+00  7488   0.982E+03 0.000E+00
CGA:   2    -0.330150218088E+03   -0.67612E+01   -0.13442E+02  7488   0.322E+03-0.450E+03
CGA:   3    -0.333710049244E+03   -0.35598E+01   -0.26678E+01  7488   0.137E+03 0.145E+02
CGA:   4    -0.334657282739E+03   -0.94723E+00   -0.59661E+00  7488   0.354E+02 0.624E+02
CGA:   5    -0.334859047058E+03   -0.20176E+00   -0.23245E+00  7488   0.580E+01-0.755E+01
CGA:   6    -0.334885805458E+03   -0.26758E-01   -0.26798E-01  7488   0.218E+01-0.158E-01
CGA:   7    -0.334899099166E+03   -0.13294E-01   -0.13498E-01  7488   0.946E+00-0.275E-01
CGA:   8    -0.334904835352E+03   -0.57362E-02   -0.53484E-02  7488   0.330E+00 0.563E-01
CGA:   9    -0.334906732935E+03   -0.18976E-02   -0.18594E-02  7488   0.113E+00 0.598E-02
CGA:  10    -0.334907470605E+03   -0.73767E-03   -0.72957E-03  7488   0.605E-01 0.983E-03
CGA:  11    -0.334907906086E+03   -0.43548E-03   -0.43642E-03  7488   0.441E-01-0.973E-04
CGA:  12    -0.334908337161E+03   -0.43108E-03   -0.43263E-03  7488   0.621E-01-0.798E-04
CGA:  13    -0.334909037670E+03   -0.70051E-03   -0.70243E-03  7488   0.818E-01-0.529E-04
CGA:  14    -0.334909702798E+03   -0.66513E-03   -0.66147E-03  7488   0.634E-01 0.262E-03
CGA:  15    -0.334910185740E+03   -0.48294E-03   -0.48118E-03  7488   0.430E-01 0.135E-03
CGA:  16    -0.334910488634E+03   -0.30289E-03   -0.30412E-03  7488   0.284E-01-0.124E-03
CGA:  17    -0.334910744362E+03   -0.25573E-03   -0.25870E-03  7488   0.323E-01-0.143E-03
CGA:  18    -0.334911052481E+03   -0.30812E-03   -0.30928E-03  7488   0.289E-01-0.479E-04
CGA:  19    -0.334911263347E+03   -0.21087E-03   -0.20943E-03  7488   0.175E-01 0.103E-03
CGA:  20    -0.334911390822E+03   -0.12747E-03   -0.12718E-03  7488   0.102E-01 0.130E-04
CGA:  21    -0.334911462960E+03   -0.72138E-04   -0.72284E-04  7488   0.673E-02-0.171E-04
CGA:  22    -0.334911527498E+03   -0.64538E-04   -0.64832E-04  7488   0.773E-02-0.577E-05
CGA:  23    -0.334911598462E+03   -0.70964E-04   -0.71038E-04  7488   0.621E-02-0.604E-05
CGA:  24    -0.334911645154E+03   -0.46692E-04   -0.46522E-04  7488   0.401E-02 0.530E-05
CGA:  25    -0.334911676694E+03   -0.31540E-04   -0.31471E-04  7488   0.276E-02 0.188E-06
CGA:  26    -0.334911699935E+03   -0.23241E-04   -0.23270E-04  7488   0.270E-02-0.267E-05
CGA:  27    -0.334911734339E+03   -0.34403E-04   -0.34435E-04  7488   0.472E-02 0.177E-04
CGA:  28    -0.334911788237E+03   -0.53899E-04   -0.53942E-04  7488   0.531E-02 0.268E-05
CGA:  29    -0.334911837178E+03   -0.48941E-04   -0.48414E-04  7488   0.452E-02-0.901E-05
CGA:  30    -0.334911872208E+03   -0.35029E-04   -0.34837E-04  7488   0.271E-02 0.378E-05
CGA:  31    -0.334911891507E+03   -0.19299E-04   -0.19408E-04  7488   0.169E-02-0.709E-05
SDA:  32    -0.334911905440E+03   -0.13933E-04   -0.13994E-04  7488   0.116E-02-0.131E-05
CGA:  33    -0.334911913648E+03   -0.82088E-05   -0.82061E-05  7488   0.195E-03-0.318E-06
  47 F= -.33491191E+03 E0= -.33487773E+03  d E =0.458888E-04  mag=    32.0000
       N       E                     dE             d eps       ncg     rms          ort
SDA:   1    -0.334903685252E+03    0.82202E-02    0.00000E+00  7488   0.104E+01 0.000E+00
CGA:   2    -0.334910989637E+03   -0.73044E-02   -0.75570E-02  7488   0.478E-01-0.265E-01
CGA:   3    -0.334911873618E+03   -0.88398E-03   -0.88700E-03  7488   0.110E-01 0.498E-03
CGA:   4    -0.334911955412E+03   -0.81793E-04   -0.81996E-04  7488   0.480E-03-0.199E-04
CGA:   5    -0.334911966888E+03   -0.11477E-04   -0.11482E-04  7488   0.578E-03-0.141E-05
CGA:   6    -0.334911977009E+03   -0.10121E-04   -0.10118E-04  7488   0.252E-03-0.118E-05
CGA:   7    -0.334911988712E+03   -0.11703E-04   -0.11758E-04  7488   0.321E-03-0.209E-05
CGA:   8    -0.334911992200E+03   -0.34884E-05   -0.34865E-05  7488   0.110E-03-0.464E-06
  48 F= -.33491199E+03 E0= -.33487792E+03  d E =-.326634E-04  mag=    32.0000
       N       E                     dE             d eps       ncg     rms          ort
SDA:   1    -0.334875380535E+03    0.36608E-01    0.00000E+00  7488   0.565E+01 0.000E+00
CGA:   2    -0.334911481268E+03   -0.36101E-01   -0.34051E-01  7488   0.457E-01 0.267E+00
CGA:   3    -0.334911829468E+03   -0.34820E-03   -0.34811E-03  7488   0.493E-02 0.713E-05
CGA:   4    -0.334911941686E+03   -0.11222E-03   -0.11218E-03  7488   0.281E-02 0.122E-04
CGA:   5    -0.334911965891E+03   -0.24205E-04   -0.24193E-04  7488   0.545E-03 0.439E-07
CGA:   6    -0.334911987636E+03   -0.21745E-04   -0.21800E-04  7488   0.313E-03-0.277E-05
CGA:   7    -0.334911990796E+03   -0.31601E-05   -0.31598E-05  7488   0.147E-03-0.141E-06
  49 F= -.33491199E+03 E0= -.33487793E+03  d E =-.312594E-04  mag=    32.0000
       N       E                     dE             d eps       ncg     rms          ort
SDA:   1    -0.334883540040E+03    0.28448E-01    0.00000E+00  7488   0.407E+01 0.000E+00
CGA:   2    -0.334911350697E+03   -0.27811E-01   -0.26196E-01  7488   0.372E-01 0.191E+00
CGA:   3    -0.334911761240E+03   -0.41054E-03   -0.41333E-03  7488   0.145E-01-0.124E-03
CGA:   4    -0.334911963534E+03   -0.20229E-03   -0.20366E-03  7488   0.524E-03 0.155E-04
CGA:   5    -0.334911972581E+03   -0.90476E-05   -0.90464E-05  7488   0.688E-03-0.215E-06
CGA:   6    -0.334911989332E+03   -0.16751E-04   -0.16757E-04  7488   0.216E-03-0.896E-06
CGA:   7    -0.334911993739E+03   -0.44066E-05   -0.44066E-05  7488   0.252E-03-0.250E-07
  50 F= -.33491199E+03 E0= -.33487793E+03  d E =-.342016E-04  mag=    32.0000
       N       E                     dE             d eps       ncg     rms          ort
SDA:   1    -0.334910768249E+03    0.12211E-02    0.00000E+00  7488   0.571E-01 0.000E+00
CGA:   2    -0.334911759423E+03   -0.99117E-03   -0.99397E-03  7488   0.193E-01 0.423E-03
CGA:   3    -0.334911938922E+03   -0.17950E-03   -0.18045E-03  7488   0.845E-03-0.580E-04
CGA:   4    -0.334911976118E+03   -0.37195E-04   -0.37325E-04  7488   0.127E-02-0.541E-05
CGA:   5    -0.334911988304E+03   -0.12187E-04   -0.12175E-04  7488   0.233E-03-0.105E-05
CGA:   6    -0.334911994674E+03   -0.63696E-05   -0.63765E-05  7488   0.168E-03-0.947E-06
  51 F= -.33491199E+03 E0= -.33487794E+03  d E =-.351369E-04  mag=    32.0000
       N       E                     dE             d eps       ncg     rms          ort
SDA:   1    -0.334490039026E+03    0.42195E+00    0.00000E+00  7488   0.643E+02 0.000E+00
CGA:   2    -0.334900766692E+03   -0.41073E+00   -0.48700E+00  7488   0.160E+01-0.824E+01
CGA:   3    -0.334911186840E+03   -0.10420E-01   -0.10157E-01  7488   0.572E-01 0.248E-01
CGA:   4    -0.334911646408E+03   -0.45957E-03   -0.46181E-03  7488   0.102E-01-0.177E-03
CGA:   5    -0.334911846545E+03   -0.20014E-03   -0.20011E-03  7488   0.312E-02 0.103E-04
CGA:   6    -0.334911872697E+03   -0.26152E-04   -0.26141E-04  7488   0.885E-03-0.732E-06
CGA:   7    -0.334911920571E+03   -0.47874E-04   -0.47983E-04  7488   0.329E-02-0.307E-05
CGA:   8    -0.334911968592E+03   -0.48021E-04   -0.48005E-04  7488   0.507E-03-0.259E-05
CGA:   9    -0.334911975928E+03   -0.73361E-05   -0.73327E-05  7488   0.584E-03-0.561E-06
CGA:  10    -0.334911994843E+03   -0.18915E-04   -0.18940E-04  7488   0.265E-03-0.175E-05
CGA:  11    -0.334911997868E+03   -0.30244E-05   -0.30269E-05  7488   0.149E-03 0.150E-06
  52 F= -.33491200E+03 E0= -.33487794E+03  d E =-.383304E-04  mag=    32.0000
       N       E                     dE             d eps       ncg     rms          ort
SDA:   1    -0.334856975581E+03    0.55019E-01    0.00000E+00  7488   0.846E+01 0.000E+00
CGA:   2    -0.334911365254E+03   -0.54390E-01   -0.50274E-01  7488   0.697E-01 0.528E+00
CGA:   3    -0.334911858921E+03   -0.49367E-03   -0.49151E-03  7488   0.391E-02 0.237E-03
CGA:   4    -0.334911929121E+03   -0.70200E-04   -0.70193E-04  7488   0.363E-02-0.422E-05
CGA:   5    -0.334911972010E+03   -0.42889E-04   -0.42831E-04  7488   0.486E-03-0.275E-05
CGA:   6    -0.334911988471E+03   -0.16461E-04   -0.16513E-04  7488   0.849E-03-0.332E-05
CGA:   7    -0.334911996984E+03   -0.85127E-05   -0.84965E-05  7488   0.122E-03-0.203E-05
  53 F= -.33491200E+03 E0= -.33487795E+03  d E =-.374470E-04  mag=    32.0000
       N       E                     dE             d eps       ncg     rms          ort
SDA:   1    -0.334855118170E+03    0.56870E-01    0.00000E+00  7488   0.815E+01 0.000E+00
CGA:   2    -0.334911628239E+03   -0.56510E-01   -0.55304E-01  7488   0.148E-01 0.109E+00
CGA:   3    -0.334911822217E+03   -0.19398E-03   -0.19383E-03  7488   0.970E-02-0.164E-05
CGA:   4    -0.334911963079E+03   -0.14086E-03   -0.14088E-03  7488   0.791E-03 0.279E-05
CGA:   5    -0.334911985410E+03   -0.22330E-04   -0.22309E-04  7488   0.117E-02 0.205E-05
CGA:   6    -0.334912000531E+03   -0.15122E-04   -0.15136E-04  7488   0.101E-03 0.162E-05
CGA:   7    -0.334912006381E+03   -0.58498E-05   -0.57657E-05  7488   0.202E-03 0.220E-05
  54 F= -.33491201E+03 E0= -.33487795E+03  d E =-.468440E-04  mag=    32.0000
       N       E                     dE             d eps       ncg     rms          ort
SDA:   1    -0.333124480297E+03    0.17875E+01    0.00000E+00  7488   0.287E+03 0.000E+00
CGA:   2    -0.334803059222E+03   -0.16786E+01   -0.21514E+01  7488   0.172E+02-0.702E+02
CGA:   3    -0.334910952134E+03   -0.10789E+00   -0.10343E+00  7488   0.424E-01 0.322E+00
CGA:   4    -0.334911327693E+03   -0.37556E-03   -0.37338E-03  7488   0.107E-01 0.144E-03
CGA:   5    -0.334911601510E+03   -0.27382E-03   -0.27342E-03  7488   0.610E-02 0.431E-04
CGA:   6    -0.334911678930E+03   -0.77420E-04   -0.77361E-04  7488   0.433E-02 0.867E-06
CGA:   7    -0.334911844923E+03   -0.16599E-03   -0.16534E-03  7488   0.171E-02 0.331E-04
CGA:   8    -0.334911920709E+03   -0.75786E-04   -0.75782E-04  7488   0.410E-02 0.733E-07
CGA:   9    -0.334911962800E+03   -0.42090E-04   -0.42006E-04  7488   0.372E-03 0.362E-05
CGA:  10    -0.334911976257E+03   -0.13457E-04   -0.13483E-04  7488   0.105E-02-0.161E-05
CGA:  11    -0.334911996586E+03   -0.20329E-04   -0.20325E-04  7488   0.178E-03-0.351E-05
CGA:  12    -0.334912001756E+03   -0.51706E-05   -0.51900E-05  7488   0.322E-03-0.225E-05
  55 F= -.33491200E+03 E0= -.33487794E+03  d E =-.422192E-04  mag=    32.0000
       N       E                     dE             d eps       ncg     rms          ort
SDA:   1    -0.333276545121E+03    0.16355E+01    0.00000E+00  7488   0.223E+03 0.000E+00
CGA:   2    -0.334899275130E+03   -0.16227E+01   -0.14746E+01  7488   0.177E+01-0.522E+01
CGA:   3    -0.334910977651E+03   -0.11703E-01   -0.12050E-01  7488   0.196E-01-0.373E-01
CGA:   4    -0.334911349751E+03   -0.37210E-03   -0.37211E-03  7488   0.171E-01-0.382E-04
CGA:   5    -0.334911574828E+03   -0.22508E-03   -0.22426E-03  7488   0.484E-02-0.111E-04
CGA:   6    -0.334911701508E+03   -0.12668E-03   -0.12672E-03  7488   0.877E-02-0.610E-05
CGA:   7    -0.334911866238E+03   -0.16473E-03   -0.16472E-03  7488   0.147E-02-0.165E-04
CGA:   8    -0.334911919895E+03   -0.53658E-04   -0.53786E-04  7488   0.302E-02-0.736E-05
CGA:   9    -0.334911961853E+03   -0.41957E-04   -0.41969E-04  7488   0.859E-03-0.178E-05
CGA:  10    -0.334911981476E+03   -0.19623E-04   -0.19623E-04  7488   0.113E-02-0.120E-06
CGA:  11    -0.334911998796E+03   -0.17321E-04   -0.17335E-04  7488   0.231E-03 0.137E-05
CGA:  12    -0.334912008407E+03   -0.96107E-05   -0.95628E-05  7488   0.333E-03 0.220E-05
  56 F= -.33491201E+03 E0= -.33487796E+03  d E =-.665077E-05  mag=    32.0000
       N       E                     dE             d eps       ncg     rms          ort
SDA:   1    -0.331671650235E+03    0.32403E+01    0.00000E+00  7488   0.544E+03 0.000E+00
CGA:   2    -0.334164946497E+03   -0.24933E+01   -0.50727E+01  7488   0.951E+02-0.192E+03
CGA:   3    -0.334881117951E+03   -0.71617E+00   -0.61844E+00  7488   0.438E+01 0.398E+01
CGA:   4    -0.334910315512E+03   -0.29198E-01   -0.29408E-01  7488   0.724E-01-0.316E-01
CGA:   5    -0.334910887105E+03   -0.57159E-03   -0.57063E-03  7488   0.185E-01 0.788E-04
CGA:   6    -0.334911266969E+03   -0.37986E-03   -0.38025E-03  7488   0.107E-01-0.102E-03
CGA:   7    -0.334911415192E+03   -0.14822E-03   -0.14816E-03  7488   0.784E-02-0.148E-05
CGA:   8    -0.334911681500E+03   -0.26631E-03   -0.26612E-03  7488   0.138E-01 0.114E-04
CGA:   9    -0.334911824096E+03   -0.14260E-03   -0.14257E-03  7488   0.170E-02 0.465E-05
CGA:  10    -0.334911874394E+03   -0.50297E-04   -0.50309E-04  7488   0.428E-02-0.101E-05
CGA:  11    -0.334911961416E+03   -0.87022E-04   -0.87023E-04  7488   0.175E-02-0.764E-07
CGA:  12    -0.334911978964E+03   -0.17549E-04   -0.17537E-04  7488   0.574E-03 0.316E-07
CGA:  13    -0.334911993765E+03   -0.14801E-04   -0.14802E-04  7488   0.391E-03-0.398E-06
CGA:  14    -0.334911998381E+03   -0.46156E-05   -0.46130E-05  7488   0.273E-03-0.493E-06
CGA:  15    -0.334912012394E+03   -0.14014E-04   -0.14118E-04  7488   0.760E-03-0.316E-05
CGA:  16    -0.334912021625E+03   -0.92311E-05   -0.92141E-05  7488   0.114E-03-0.201E-05
  57 F= -.33491202E+03 E0= -.33487797E+03  d E =-.198692E-04  mag=    32.0000
       N       E                     dE             d eps       ncg     rms          ort
SDA:   1    -0.334890019090E+03    0.21993E-01    0.00000E+00  7488   0.315E+01 0.000E+00
CGA:   2    -0.334911600711E+03   -0.21582E-01   -0.21213E-01  7488   0.108E-01 0.371E-01
CGA:   3    -0.334911894068E+03   -0.29336E-03   -0.29417E-03  7488   0.119E-01-0.842E-04
CGA:   4    -0.334912005154E+03   -0.11109E-03   -0.11002E-03  7488   0.418E-03 0.586E-04
CGA:   5    -0.334912011959E+03   -0.68050E-05   -0.68016E-05  7488   0.385E-03-0.146E-05
CGA:   6    -0.334912018715E+03   -0.67559E-05   -0.67535E-05  7488   0.132E-03-0.244E-05
  58 F= -.33491202E+03 E0= -.33487796E+03  d E =-.169589E-04  mag=    32.0000
       N       E                     dE             d eps       ncg     rms          ort
SDA:   1    -0.334832436191E+03    0.79576E-01    0.00000E+00  7488   0.118E+02 0.000E+00
CGA:   2    -0.334910544649E+03   -0.78108E-01   -0.69942E-01  7488   0.159E+00 0.106E+01
CGA:   3    -0.334911698987E+03   -0.11543E-02   -0.11438E-02  7488   0.127E-01 0.119E-02
CGA:   4    -0.334911914693E+03   -0.21571E-03   -0.21573E-03  7488   0.810E-02 0.438E-05
CGA:   5    -0.334911989366E+03   -0.74673E-04   -0.74495E-04  7488   0.462E-03 0.942E-05
CGA:   6    -0.334912001635E+03   -0.12269E-04   -0.12273E-04  7488   0.100E-02-0.481E-06
CGA:   7    -0.334912016487E+03   -0.14852E-04   -0.14856E-04  7488   0.180E-03 0.171E-06
CGA:   8    -0.334912020827E+03   -0.43397E-05   -0.43408E-05  7488   0.367E-03-0.205E-06
  59 F= -.33491202E+03 E0= -.33487797E+03  d E =-.190703E-04  mag=    32.0000
       N       E                     dE             d eps       ncg     rms          ort
SDA:   1    -0.334908913351E+03    0.31031E-02    0.00000E+00  7488   0.308E+00 0.000E+00
CGA:   2    -0.334911245204E+03   -0.23319E-02   -0.23575E-02  7488   0.267E-01-0.227E-02
CGA:   3    -0.334911899376E+03   -0.65417E-03   -0.65231E-03  7488   0.312E-02 0.234E-03
CGA:   4    -0.334911947058E+03   -0.47682E-04   -0.47676E-04  7488   0.314E-02-0.872E-06
CGA:   5    -0.334912010544E+03   -0.63486E-04   -0.63486E-04  7488   0.352E-03-0.104E-05
CGA:   6    -0.334912018525E+03   -0.79818E-05   -0.79817E-05  7488   0.443E-03-0.840E-07
  60 F= -.33491202E+03 E0= -.33487797E+03  d E =-.167691E-04  mag=    32.0000
       N       E                     dE             d eps       ncg     rms          ort
SDA:   1    -0.334906016822E+03    0.59937E-02    0.00000E+00  7488   0.474E+00 0.000E+00
CGA:   2    -0.334910437865E+03   -0.44210E-02   -0.44485E-02  7488   0.102E+00-0.152E-02
CGA:   3    -0.334911992447E+03   -0.15546E-02   -0.15682E-02  7488   0.165E-02 0.131E-02
CGA:   4    -0.334912006535E+03   -0.14088E-04   -0.14077E-04  7488   0.481E-03-0.482E-06
CGA:   5    -0.334912021127E+03   -0.14592E-04   -0.14615E-04  7488   0.212E-03-0.183E-05
CGA:   6    -0.334912032672E+03   -0.11544E-04   -0.11669E-04  7488   0.630E-03-0.338E-05
CGA:   7    -0.334912040038E+03   -0.73659E-05   -0.73533E-05  7488   0.676E-04-0.218E-05
  61 F= -.33491204E+03 E0= -.33487799E+03  d E =-.215121E-04  mag=    32.0000
       N       E                     dE             d eps       ncg     rms          ort
SDA:   1    -0.334860668287E+03    0.51364E-01    0.00000E+00  7488   0.791E+01 0.000E+00
CGA:   2    -0.334911461167E+03   -0.50793E-01   -0.46881E-01  7488   0.668E-01 0.512E+00
CGA:   3    -0.334911929303E+03   -0.46814E-03   -0.46639E-03  7488   0.313E-02 0.200E-03
CGA:   4    -0.334911979604E+03   -0.50301E-04   -0.50336E-04  7488   0.261E-02 0.159E-05
CGA:   5    -0.334912013686E+03   -0.34082E-04   -0.34097E-04  7488   0.525E-03-0.237E-05
CGA:   6    -0.334912034222E+03   -0.20536E-04   -0.20590E-04  7488   0.940E-03-0.270E-05
CGA:   7    -0.334912043408E+03   -0.91856E-05   -0.91672E-05  7488   0.127E-03-0.150E-05
  62 F= -.33491204E+03 E0= -.33487799E+03  d E =-.248823E-04  mag=    32.0000
