       N       E                     dE             d eps       ncg     rms          ort
DAV:   1     0.580616527290E+04    0.58062E+04   -0.23491E+05  7072   0.165E+03
DAV:   2     0.567312482438E+03   -0.52389E+04   -0.49007E+04  7072   0.474E+02
DAV:   3    -0.374804604575E+03   -0.94212E+03   -0.92459E+03  7072   0.205E+02
DAV:   4    -0.417036176383E+03   -0.42232E+02   -0.41157E+02  7072   0.484E+01
DAV:   5    -0.418979522900E+03   -0.19433E+01   -0.18437E+01  7072   0.955E+00
SDA:   6    -0.172748487071E+03    0.24623E+03   -0.18437E+01  7072   0.334E+04 0.000E+00
CGA:   7    -0.101621962489E+03    0.71127E+02   -0.29332E+03  7072   0.429E+04-0.381E+03
CGA:   8    -0.255241171821E+03   -0.15362E+03   -0.24826E+03  7072   0.864E+03-0.877E+03
CGA:   9    -0.277831157468E+03   -0.22590E+02   -0.37874E+02  7072   0.646E+03 0.734E+02
CGA:  10    -0.287090627552E+03   -0.92595E+01   -0.31886E+02  7072   0.179E+04-0.117E+04
CGA:  11    -0.229888247025E+03    0.57202E+02   -0.12039E+03  7072   0.190E+04-0.906E+03
CGA:  12    -0.183294415640E+03    0.46594E+02   -0.15071E+03  7072   0.730E+04 0.286E+03
CGA:  13    -0.168649698179E+03    0.14645E+02   -0.64386E+03  7072   0.344E+04-0.242E+03
CGA:  14    -0.255457226551E+03   -0.86808E+02   -0.26644E+03  7072   0.530E+03-0.258E+03
CGA:  15    -0.292634940210E+03   -0.37178E+02   -0.16419E+02  7072   0.384E+03 0.347E+03
CGA:  16    -0.308416391043E+03   -0.15781E+02   -0.11101E+02  7072   0.256E+03 0.131E+02
CGA:  17    -0.316281414146E+03   -0.78650E+01   -0.16392E+02  7072   0.717E+03-0.414E+03
CGA:  18    -0.310418839559E+03    0.58626E+01   -0.46586E+02  7072   0.276E+03-0.115E+03
CGA:  19    -0.338572558644E+03   -0.28154E+02   -0.78600E+01  7072   0.134E+03 0.231E+02
CGA:  20    -0.338272341408E+03    0.30022E+00   -0.41596E+01  7072   0.164E+03-0.118E+03
CGA:  21    -0.336281150621E+03    0.19912E+01   -0.71578E+01  7072   0.570E+03-0.363E+03
CGA:  22    -0.329929968574E+03    0.63512E+01   -0.21927E+02  7072   0.482E+03-0.316E+03
CGA:  23    -0.327612770431E+03    0.23172E+01   -0.24071E+02  7072   0.180E+03-0.123E+03
CGA:  24    -0.335528475032E+03   -0.79157E+01   -0.22176E+01  7072   0.411E+03 0.461E+03
CGA:  25    -0.339461400342E+03   -0.39329E+01   -0.11661E+02  7072   0.309E+03-0.335E+03
CGA:  26    -0.336883436279E+03    0.25780E+01   -0.11458E+02  7072   0.282E+03-0.215E+03
CGA:  27    -0.346721327579E+03   -0.98379E+01   -0.66133E+01  7072   0.212E+03-0.423E+03
CGA:  28    -0.341852009006E+03    0.48693E+01   -0.75731E+01  7072   0.347E+03-0.188E+03
CGA:  29    -0.343751932887E+03   -0.18999E+01   -0.88351E+01  7072   0.370E+03-0.403E+03
CGA:  30    -0.339662166911E+03    0.40898E+01   -0.13564E+02  7072   0.267E+03-0.185E+03
CGA:  31    -0.344847573455E+03   -0.51854E+01   -0.19522E+01  7072   0.348E+03 0.306E+03
CGA:  32    -0.343580993756E+03    0.12666E+01   -0.82222E+01  7072   0.474E+03-0.413E+03
CGA:  33    -0.339273214285E+03    0.43078E+01   -0.16174E+02  7072   0.302E+03-0.212E+03
CGA:  34    -0.345289667341E+03   -0.60165E+01   -0.23893E+01  7072   0.348E+03 0.360E+03
CGA:  35    -0.345721879205E+03   -0.43221E+00   -0.70872E+01  7072   0.460E+03-0.463E+03
CGA:  36    -0.341406107473E+03    0.43158E+01   -0.13974E+02  7072   0.279E+03-0.187E+03
CGA:  37    -0.346787595170E+03   -0.53815E+01   -0.22206E+01  7072   0.290E+03 0.249E+03
CGA:  38    -0.348894836260E+03   -0.21072E+01   -0.50103E+01  7072   0.306E+03-0.394E+03
CGA:  39    -0.346333929189E+03    0.25609E+01   -0.77113E+01  7072   0.273E+03-0.182E+03
CGA:  40    -0.350765355131E+03   -0.44314E+01   -0.43046E+01  7072   0.126E+03-0.276E+03
CGA:  41    -0.350463901650E+03    0.30145E+00   -0.25379E+01  7072   0.127E+03-0.102E+03
CGA:  42    -0.351724004533E+03   -0.12601E+01   -0.17246E+01  7072   0.316E+02-0.675E+02
CGA:  43    -0.351930644654E+03   -0.20664E+00   -0.46793E+00  7072   0.141E+02-0.152E+02
CGA:  44    -0.352284775692E+03   -0.35413E+00   -0.35605E+00  7072   0.831E+01 0.108E+00
CGA:  45    -0.352469493461E+03   -0.18472E+00   -0.22980E+00  7072   0.791E+01-0.795E+00
CGA:  46    -0.353079890482E+03   -0.61040E+00   -0.57409E+00  7072   0.104E+02 0.686E+00
CGA:  47    -0.353497474516E+03   -0.41758E+00   -0.47271E+00  7072   0.315E+01 0.133E+01
CGA:  48    -0.353639555292E+03   -0.14208E+00   -0.14071E+00  7072   0.256E+01-0.350E-02
CGA:  49    -0.353854368902E+03   -0.21481E+00   -0.19492E+00  7072   0.139E+01 0.639E+00
CGA:  50    -0.353989170853E+03   -0.13480E+00   -0.14046E+00  7072   0.224E+01-0.232E+00
CGA:  51    -0.354039839442E+03   -0.50669E-01   -0.41679E-01  7072   0.187E+01 0.300E+00
CGA:  52    -0.354107944142E+03   -0.68105E-01   -0.73968E-01  7072   0.231E+01 0.259E-01
CGA:  53    -0.354208047204E+03   -0.10010E+00   -0.10564E+00  7072   0.734E+00 0.268E+00
CGA:  54    -0.354232719133E+03   -0.24672E-01   -0.24033E-01  7072   0.375E+00 0.125E-01
CGA:  55    -0.354257601818E+03   -0.24883E-01   -0.24456E-01  7072   0.462E+00 0.227E-01
CGA:  56    -0.354287529963E+03   -0.29928E-01   -0.29513E-01  7072   0.249E+00 0.303E-01
CGA:  57    -0.354301758247E+03   -0.14228E-01   -0.14220E-01  7072   0.263E+00 0.459E-02
CGA:  58    -0.354326486814E+03   -0.24729E-01   -0.24666E-01  7072   0.146E+00-0.228E-02
CGA:  59    -0.354333831606E+03   -0.73448E-02   -0.73784E-02  7072   0.117E+00 0.405E-02
CGA:  60    -0.354345543739E+03   -0.11712E-01   -0.12131E-01  7072   0.101E+00-0.913E-02
CGA:  61    -0.354355861944E+03   -0.10318E-01   -0.98086E-02  7072   0.167E+00 0.927E-02
CGA:  62    -0.354370597580E+03   -0.14736E-01   -0.15282E-01  7072   0.967E-01-0.178E-01
CGA:  63    -0.354378744139E+03   -0.81466E-02   -0.79297E-02  7072   0.853E-01 0.562E-02
CGA:  64    -0.354390120857E+03   -0.11377E-01   -0.12391E-01  7072   0.202E+00-0.177E-01
CGA:  65    -0.354397331299E+03   -0.72104E-02   -0.61162E-02  7072   0.226E+00 0.598E-02
CGA:  66    -0.354403412492E+03   -0.60812E-02   -0.68946E-02  7072   0.119E+00-0.158E-01
CGA:  67    -0.354407037872E+03   -0.36254E-02   -0.38394E-02  7072   0.905E-01-0.221E-02
CGA:  68    -0.354411076360E+03   -0.40385E-02   -0.40503E-02  7072   0.690E-01 0.326E-03
CGA:  69    -0.354414374498E+03   -0.32981E-02   -0.32254E-02  7072   0.955E-01-0.943E-03
CGA:  70    -0.354419525129E+03   -0.51506E-02   -0.51099E-02  7072   0.166E+00-0.282E-02
CGA:  71    -0.354424675310E+03   -0.51502E-02   -0.49790E-02  7072   0.119E+00 0.517E-02
CGA:  72    -0.354427625736E+03   -0.29504E-02   -0.25862E-02  7072   0.765E-01 0.126E-01
SDA:  73    -0.354429822280E+03   -0.21965E-02   -0.20063E-02  7072   0.774E-01 0.530E-02
CGA:  74    -0.354434483904E+03   -0.46616E-02   -0.46616E-02  7072   0.109E+00-0.176E-05
CGA:  75    -0.354451455737E+03   -0.16972E-01   -0.17894E-01  7072   0.301E+00-0.106E-01
CGA:  76    -0.354471032449E+03   -0.19577E-01   -0.22920E-01  7072   0.492E+00-0.110E+00
CGA:  77    -0.354479378512E+03   -0.83461E-02   -0.75416E-02  7072   0.450E+00 0.228E-01
CGA:  78    -0.354489509760E+03   -0.10131E-01   -0.10241E-01  7072   0.173E+00-0.461E-02
CGA:  79    -0.354494351383E+03   -0.48416E-02   -0.48956E-02  7072   0.168E+00-0.108E-02
CGA:  80    -0.354501074038E+03   -0.67227E-02   -0.66915E-02  7072   0.156E+00-0.112E-03
CGA:  81    -0.354504749032E+03   -0.36750E-02   -0.35743E-02  7072   0.802E-01 0.284E-02
CGA:  82    -0.354507146434E+03   -0.23974E-02   -0.23621E-02  7072   0.739E-01 0.518E-03
CGA:  83    -0.354509491040E+03   -0.23446E-02   -0.22975E-02  7072   0.755E-01 0.469E-03
CGA:  84    -0.354511686357E+03   -0.21953E-02   -0.21667E-02  7072   0.761E-01 0.413E-03
CGA:  85    -0.354513764196E+03   -0.20778E-02   -0.20676E-02  7072   0.666E-01 0.201E-03
CGA:  86    -0.354515492723E+03   -0.17285E-02   -0.17039E-02  7072   0.609E-01 0.492E-03
CGA:  87    -0.354517119276E+03   -0.16266E-02   -0.16090E-02  7072   0.573E-01 0.304E-03
CGA:  88    -0.354518549585E+03   -0.14303E-02   -0.14234E-02  7072   0.521E-01 0.153E-03
CGA:  89    -0.354519979458E+03   -0.14299E-02   -0.14215E-02  7072   0.604E-01 0.982E-04
CGA:  90    -0.354521722384E+03   -0.17429E-02   -0.17259E-02  7072   0.701E-01 0.107E-03
CGA:  91    -0.354523318261E+03   -0.15959E-02   -0.15277E-02  7072   0.502E-01 0.179E-02
CGA:  92    -0.354524191796E+03   -0.87353E-03   -0.82452E-03  7072   0.270E-01 0.221E-02
CGA:  93    -0.354524703816E+03   -0.51202E-03   -0.50716E-03  7072   0.228E-01 0.151E-03
CGA:  94    -0.354525265539E+03   -0.56172E-03   -0.56394E-03  7072   0.319E-01-0.457E-04
CGA:  95    -0.354526040564E+03   -0.77502E-03   -0.79056E-03  7072   0.354E-01-0.145E-03
CGA:  96    -0.354526776870E+03   -0.73631E-03   -0.74355E-03  7072   0.291E-01-0.180E-03
CGA:  97    -0.354527475675E+03   -0.69880E-03   -0.68895E-03  7072   0.313E-01 0.641E-04
CGA:  98    -0.354528138115E+03   -0.66244E-03   -0.62348E-03  7072   0.257E-01 0.886E-03
CGA:  99    -0.354528560176E+03   -0.42206E-03   -0.40207E-03  7072   0.173E-01 0.823E-03
CGA: 100    -0.354528841574E+03   -0.28140E-03   -0.27894E-03  7072   0.133E-01 0.703E-04
CGA: 101    -0.354529059723E+03   -0.21815E-03   -0.22008E-03  7072   0.116E-01-0.777E-04
CGA: 102    -0.354529268113E+03   -0.20839E-03   -0.20986E-03  7072   0.126E-01-0.413E-04
CGA: 103    -0.354529535900E+03   -0.26779E-03   -0.26863E-03  7072   0.164E-01-0.132E-04
SDA: 104    -0.354529846018E+03   -0.31012E-03   -0.30634E-03  7072   0.150E-01 0.461E-04
CGA: 105    -0.354530341654E+03   -0.49564E-03   -0.49572E-03  7072   0.699E-02-0.349E-04
CGA: 106    -0.354530751520E+03   -0.40987E-03   -0.40951E-03  7072   0.568E-02 0.117E-04
CGA: 107    -0.354531485337E+03   -0.73382E-03   -0.72234E-03  7072   0.475E-02 0.137E-03
CGA: 108    -0.354532157196E+03   -0.67186E-03   -0.63366E-03  7072   0.886E-02 0.521E-03
CGA: 109    -0.354532717541E+03   -0.56035E-03   -0.58977E-03  7072   0.130E-01-0.170E-02
CGA: 110    -0.354533060372E+03   -0.34283E-03   -0.25214E-03  7072   0.186E-01 0.182E-02
CGA: 111    -0.354533394393E+03   -0.33402E-03   -0.28421E-03  7072   0.186E-01 0.266E-02
CGA: 112    -0.354533664301E+03   -0.26991E-03   -0.29662E-03  7072   0.158E-01-0.135E-02
CGA: 113    -0.354533833385E+03   -0.16908E-03   -0.16344E-03  7072   0.121E-01 0.697E-03
CGA: 114    -0.354533997179E+03   -0.16379E-03   -0.15118E-03  7072   0.106E-01 0.946E-03
CGA: 115    -0.354534154873E+03   -0.15769E-03   -0.14891E-03  7072   0.973E-02 0.539E-03
CGA: 116    -0.354534267926E+03   -0.11305E-03   -0.10994E-03  7072   0.619E-02 0.221E-03
CGA: 117    -0.354534329485E+03   -0.61559E-04   -0.60901E-04  7072   0.382E-02 0.405E-04
CGA: 118    -0.354534373043E+03   -0.43559E-04   -0.43035E-04  7072   0.357E-02 0.223E-04
CGA: 119    -0.354534419214E+03   -0.46171E-04   -0.45726E-04  7072   0.396E-02 0.109E-04
CGA: 120    -0.354534465976E+03   -0.46762E-04   -0.46590E-04  7072   0.381E-02-0.241E-05
CGA: 121    -0.354534510983E+03   -0.45007E-04   -0.44825E-04  7072   0.416E-02-0.216E-05
CGA: 122    -0.354534569802E+03   -0.58819E-04   -0.58485E-04  7072   0.612E-02-0.519E-05
CGA: 123    -0.354534654108E+03   -0.84306E-04   -0.83814E-04  7072   0.748E-02-0.194E-04
CGA: 124    -0.354534733022E+03   -0.78915E-04   -0.78735E-04  7072   0.554E-02-0.487E-04
CGA: 125    -0.354534786894E+03   -0.53872E-04   -0.53284E-04  7072   0.407E-02-0.263E-06
CGA: 126    -0.354534833797E+03   -0.46903E-04   -0.46325E-04  7072   0.410E-02 0.169E-05
CGA: 127    -0.354534883148E+03   -0.49351E-04   -0.48937E-04  7072   0.398E-02-0.346E-05
CGA: 128    -0.354534924743E+03   -0.41595E-04   -0.41386E-04  7072   0.300E-02-0.499E-05
CGA: 129    -0.354534957372E+03   -0.32630E-04   -0.32369E-04  7072   0.283E-02 0.492E-05
CGA: 130    -0.354534996880E+03   -0.39507E-04   -0.38668E-04  7072   0.414E-02 0.131E-04
CGA: 131    -0.354535048940E+03   -0.52060E-04   -0.47016E-04  7072   0.546E-02 0.227E-03
CGA: 132    -0.354535096227E+03   -0.47288E-04   -0.39828E-04  7072   0.556E-02 0.811E-03
CGA: 133    -0.354535139502E+03   -0.43274E-04   -0.38536E-04  7072   0.542E-02 0.585E-03
CGA: 134    -0.354535174613E+03   -0.35111E-04   -0.33611E-04  7072   0.545E-02 0.177E-03
SDA: 135    -0.354535203901E+03   -0.29289E-04   -0.29728E-04  7072   0.524E-02-0.914E-04
CGA: 136    -0.354535358069E+03   -0.15417E-03   -0.15414E-03  7072   0.395E-02 0.324E-05
CGA: 137    -0.354535643642E+03   -0.28557E-03   -0.28384E-03  7072   0.286E-02 0.330E-04
CGA: 138    -0.354535931715E+03   -0.28807E-03   -0.28363E-03  7072   0.505E-02 0.654E-04
CGA: 139    -0.354536235869E+03   -0.30415E-03   -0.30463E-03  7072   0.469E-02-0.125E-04
CGA: 140    -0.354536547730E+03   -0.31186E-03   -0.31487E-03  7072   0.225E-02-0.137E-03
CGA: 141    -0.354536609241E+03   -0.61511E-04   -0.61567E-04  7072   0.111E-02 0.213E-04
CGA: 142    -0.354536684181E+03   -0.74940E-04   -0.76733E-04  7072   0.185E-02-0.534E-04
CGA: 143    -0.354536608375E+03    0.75807E-04   -0.26275E-03  7072   0.161E-01-0.538E-02
CGA: 144    -0.354536883749E+03   -0.27537E-03   -0.27581E-03  7072   0.264E-02-0.720E-05
CGA: 145    -0.354537028311E+03   -0.14456E-03   -0.14477E-03  7072   0.753E-03-0.117E-04
CGA: 146    -0.354537054792E+03   -0.26481E-04   -0.26477E-04  7072   0.336E-03-0.315E-05
CGA: 147    -0.354537082225E+03   -0.27433E-04   -0.27868E-04  7072   0.493E-03-0.103E-04
CGA: 148    -0.354537151711E+03   -0.69486E-04   -0.68967E-04  7072   0.881E-03 0.792E-05
CGA: 149    -0.354537197557E+03   -0.45846E-04   -0.47685E-04  7072   0.136E-02-0.152E-03
CGA: 150    -0.354537222881E+03   -0.25323E-04   -0.24023E-04  7072   0.638E-03 0.352E-04
CGA: 151    -0.354537233556E+03   -0.10675E-04   -0.11052E-04  7072   0.330E-03-0.160E-04
CGA: 152    -0.354537244581E+03   -0.11025E-04   -0.11014E-04  7072   0.332E-03 0.426E-06
CGA: 153    -0.354537251723E+03   -0.71428E-05   -0.69718E-05  7072   0.267E-03 0.642E-05
CGA: 154    -0.354537262085E+03   -0.10361E-04   -0.10351E-04  7072   0.407E-03 0.194E-05
CGA: 155    -0.354537268897E+03   -0.68123E-05   -0.70676E-05  7072   0.127E-03 0.233E-05
   1 F= -.35453727E+03 E0= -.35451810E+03  d E =-.354537E+03  mag=     0.0529
       N       E                     dE             d eps       ncg     rms          ort
SDA:   1    -0.354428121419E+03    0.10914E+00    0.00000E+00  7072   0.762E+01 0.000E+00
CGA:   2    -0.354534788908E+03   -0.10667E+00   -0.10420E+00  7072   0.140E+00 0.565E-01
CGA:   3    -0.354538077553E+03   -0.32886E-02   -0.32887E-02  7072   0.974E-02-0.206E-04
CGA:   4    -0.354538343977E+03   -0.26642E-03   -0.26675E-03  7072   0.248E-02 0.140E-04
CGA:   5    -0.354538428414E+03   -0.84437E-04   -0.84442E-04  7072   0.170E-02 0.106E-05
CGA:   6    -0.354538485205E+03   -0.56791E-04   -0.56814E-04  7072   0.694E-03 0.610E-05
CGA:   7    -0.354538536982E+03   -0.51777E-04   -0.51620E-04  7072   0.358E-03 0.414E-05
CGA:   8    -0.354538559741E+03   -0.22759E-04   -0.22737E-04  7072   0.343E-03 0.954E-06
CGA:   9    -0.354538566856E+03   -0.71153E-05   -0.71439E-05  7072   0.705E-04 0.170E-05
   2 F= -.35453857E+03 E0= -.35451944E+03  d E =-.129796E-02  mag=     0.0492
       N       E                     dE             d eps       ncg     rms          ort
SDA:   1    -0.354536529933E+03    0.20298E-02    0.00000E+00  7072   0.387E+00 0.000E+00
CGA:   2    -0.354546103986E+03   -0.95741E-02   -0.94404E-02  7072   0.858E-01 0.152E-02
CGA:   3    -0.354556636802E+03   -0.10533E-01   -0.10560E-01  7072   0.157E+00-0.371E-03
CGA:   4    -0.354563802164E+03   -0.71654E-02   -0.71651E-02  7072   0.222E-01 0.101E-03
CGA:   5    -0.354567108654E+03   -0.33065E-02   -0.33046E-02  7072   0.464E-01 0.246E-04
CGA:   6    -0.354568059294E+03   -0.95064E-03   -0.95163E-03  7072   0.104E-01-0.184E-04
CGA:   7    -0.354568752170E+03   -0.69288E-03   -0.69431E-03  7072   0.471E-02-0.623E-04
CGA:   8    -0.354569070119E+03   -0.31795E-03   -0.31794E-03  7072   0.267E-02-0.673E-06
CGA:   9    -0.354569166858E+03   -0.96740E-04   -0.96652E-04  7072   0.230E-02-0.479E-05
CGA:  10    -0.354569267188E+03   -0.10033E-03   -0.10035E-03  7072   0.148E-02 0.203E-05
CGA:  11    -0.354569332124E+03   -0.64936E-04   -0.64935E-04  7072   0.532E-03-0.326E-06
CGA:  12    -0.354569354956E+03   -0.22832E-04   -0.22839E-04  7072   0.397E-03 0.440E-06
CGA:  13    -0.354569394343E+03   -0.39387E-04   -0.39533E-04  7072   0.500E-03-0.292E-05
CGA:  14    -0.354569407367E+03   -0.13024E-04   -0.13049E-04  7072   0.264E-03 0.107E-05
CGA:  15    -0.354569424279E+03   -0.16913E-04   -0.16907E-04  7072   0.137E-03 0.467E-06
CGA:  16    -0.354569433768E+03   -0.94885E-05   -0.94784E-05  7072   0.143E-03 0.533E-06
CGA:  17    -0.354569449115E+03   -0.15347E-04   -0.15450E-04  7072   0.315E-03-0.184E-05
CGA:  18    -0.354569456050E+03   -0.69355E-05   -0.69483E-05  7072   0.545E-04 0.349E-06
   3 F= -.35456946E+03 E0= -.35455027E+03  d E =-.308892E-01  mag=     0.0425
       N       E                     dE             d eps       ncg     rms          ort
SDA:   1    -0.354414925249E+03    0.15452E+00    0.00000E+00  7072   0.918E+00 0.000E+00
CGA:   2    -0.354475317300E+03   -0.60392E-01   -0.60540E-01  7072   0.169E+01-0.899E-02
CGA:   3    -0.354581019863E+03   -0.10570E+00   -0.10542E+00  7072   0.637E+00 0.250E-01
CGA:   4    -0.354599726435E+03   -0.18707E-01   -0.18494E-01  7072   0.402E+00 0.344E-02
CGA:   5    -0.354617529363E+03   -0.17803E-01   -0.17793E-01  7072   0.296E+00-0.264E-03
CGA:   6    -0.354642303744E+03   -0.24774E-01   -0.24742E-01  7072   0.125E+00 0.960E-03
CGA:   7    -0.354647545208E+03   -0.52415E-02   -0.52190E-02  7072   0.398E-01-0.258E-03
CGA:   8    -0.354649115326E+03   -0.15701E-02   -0.15720E-02  7072   0.505E-01 0.145E-04
CGA:   9    -0.354652018779E+03   -0.29035E-02   -0.29038E-02  7072   0.269E-01-0.838E-04
CGA:  10    -0.354652735556E+03   -0.71678E-03   -0.72296E-03  7072   0.670E-02-0.121E-03
CGA:  11    -0.354653375948E+03   -0.64039E-03   -0.64008E-03  7072   0.422E-02 0.698E-05
CGA:  12    -0.354653730644E+03   -0.35470E-03   -0.35418E-03  7072   0.476E-02 0.158E-04
CGA:  13    -0.354653949350E+03   -0.21871E-03   -0.21857E-03  7072   0.505E-02-0.702E-05
CGA:  14    -0.354654101871E+03   -0.15252E-03   -0.15247E-03  7072   0.147E-02 0.179E-05
CGA:  15    -0.354654221940E+03   -0.12007E-03   -0.12005E-03  7072   0.149E-02 0.555E-06
CGA:  16    -0.354654409193E+03   -0.18725E-03   -0.18725E-03  7072   0.169E-02-0.208E-06
CGA:  17    -0.354654468261E+03   -0.59068E-04   -0.58979E-04  7072   0.790E-03 0.161E-06
CGA:  18    -0.354654538418E+03   -0.70158E-04   -0.70027E-04  7072   0.118E-02 0.394E-05
CGA:  19    -0.354654576602E+03   -0.38183E-04   -0.38155E-04  7072   0.882E-03-0.635E-06
CGA:  20    -0.354654630244E+03   -0.53642E-04   -0.53634E-04  7072   0.788E-03 0.363E-05
CGA:  21    -0.354654683918E+03   -0.53674E-04   -0.53652E-04  7072   0.208E-03 0.263E-05
CGA:  22    -0.354654704175E+03   -0.20257E-04   -0.20146E-04  7072   0.264E-03 0.299E-05
CGA:  23    -0.354654716801E+03   -0.12626E-04   -0.12640E-04  7072   0.390E-03 0.101E-05
CGA:  24    -0.354654732695E+03   -0.15893E-04   -0.15962E-04  7072   0.995E-04 0.347E-05
CGA:  25    -0.354654739056E+03   -0.63612E-05   -0.63548E-05  7072   0.587E-04 0.159E-05
   4 F= -.35465474E+03 E0= -.35463559E+03  d E =-.852830E-01  mag=     0.0374
       N       E                     dE             d eps       ncg     rms          ort
SDA:   1    -0.354202028042E+03    0.45270E+00    0.00000E+00  7072   0.179E+01 0.000E+00
CGA:   2    -0.354503558412E+03   -0.30153E+00   -0.29668E+00  7072   0.378E+01 0.540E-01
CGA:   3    -0.354608638880E+03   -0.10508E+00   -0.97569E-01  7072   0.866E+00 0.190E+00
CGA:   4    -0.354645612644E+03   -0.36974E-01   -0.37321E-01  7072   0.980E+00-0.120E-02
CGA:   5    -0.354711317874E+03   -0.65705E-01   -0.65800E-01  7072   0.712E+00-0.115E-01
CGA:   6    -0.354742326667E+03   -0.31009E-01   -0.31127E-01  7072   0.161E+00 0.117E-03
CGA:   7    -0.354751340875E+03   -0.90142E-02   -0.90161E-02  7072   0.125E+00 0.875E-04
CGA:   8    -0.354755996340E+03   -0.46555E-02   -0.46641E-02  7072   0.109E+00-0.625E-04
CGA:   9    -0.354760842472E+03   -0.48461E-02   -0.48405E-02  7072   0.531E-01-0.820E-04
CGA:  10    -0.354762653176E+03   -0.18107E-02   -0.18276E-02  7072   0.239E-01-0.165E-03
CGA:  11    -0.354763960090E+03   -0.13069E-02   -0.13065E-02  7072   0.896E-02-0.593E-04
CGA:  12    -0.354764850875E+03   -0.89078E-03   -0.88951E-03  7072   0.248E-01 0.297E-04
CGA:  13    -0.354765590175E+03   -0.73930E-03   -0.73885E-03  7072   0.635E-02 0.464E-05
CGA:  14    -0.354765863028E+03   -0.27285E-03   -0.27278E-03  7072   0.389E-02 0.967E-06
CGA:  15    -0.354766198043E+03   -0.33502E-03   -0.33537E-03  7072   0.673E-02-0.110E-04
CGA:  16    -0.354766510734E+03   -0.31269E-03   -0.31303E-03  7072   0.392E-02 0.560E-05
CGA:  17    -0.354766705202E+03   -0.19447E-03   -0.19446E-03  7072   0.542E-02-0.154E-05
CGA:  18    -0.354766909228E+03   -0.20403E-03   -0.20423E-03  7072   0.128E-02 0.503E-05
CGA:  19    -0.354767090779E+03   -0.18155E-03   -0.18137E-03  7072   0.319E-02 0.217E-05
CGA:  20    -0.354767235286E+03   -0.14451E-03   -0.14462E-03  7072   0.266E-02 0.372E-05
CGA:  21    -0.354767324800E+03   -0.89514E-04   -0.89382E-04  7072   0.998E-03 0.128E-05
CGA:  22    -0.354767362422E+03   -0.37622E-04   -0.37709E-04  7072   0.719E-03 0.328E-05
CGA:  23    -0.354767426025E+03   -0.63602E-04   -0.63448E-04  7072   0.819E-03 0.529E-05
CGA:  24    -0.354767469838E+03   -0.43814E-04   -0.43844E-04  7072   0.468E-03 0.487E-05
CGA:  25    -0.354767484381E+03   -0.14542E-04   -0.14541E-04  7072   0.350E-03 0.178E-06
CGA:  26    -0.354767503992E+03   -0.19611E-04   -0.19616E-04  7072   0.117E-03 0.203E-05
CGA:  27    -0.354767514876E+03   -0.10884E-04   -0.10866E-04  7072   0.271E-03 0.543E-06
CGA:  28    -0.354767526660E+03   -0.11784E-04   -0.11811E-04  7072   0.118E-03 0.169E-05
CGA:  29    -0.354767530616E+03   -0.39562E-05   -0.39443E-05  7072   0.856E-04-0.466E-06
   5 F= -.35476753E+03 E0= -.35474851E+03  d E =-.112792E+00  mag=     0.0331
       N       E                     dE             d eps       ncg     rms          ort
SDA:   1    -0.353481748083E+03    0.12858E+01    0.00000E+00  7072   0.480E+01 0.000E+00
CGA:   2    -0.354095680355E+03   -0.61393E+00   -0.57783E+00  7072   0.907E+01 0.585E+00
CGA:   3    -0.354464824835E+03   -0.36914E+00   -0.33398E+00  7072   0.371E+01 0.367E+00
CGA:   4    -0.354579650520E+03   -0.11483E+00   -0.11794E+00  7072   0.188E+01-0.558E-01
CGA:   5    -0.354714733883E+03   -0.13508E+00   -0.13527E+00  7072   0.239E+01-0.800E-02
CGA:   6    -0.354825083280E+03   -0.11035E+00   -0.11034E+00  7072   0.596E+00-0.121E-02
CGA:   7    -0.354842177932E+03   -0.17095E-01   -0.17033E-01  7072   0.431E+00 0.586E-03
CGA:   8    -0.354864202325E+03   -0.22024E-01   -0.21985E-01  7072   0.307E+00-0.307E-02
CGA:   9    -0.354882056054E+03   -0.17854E-01   -0.17848E-01  7072   0.929E-01 0.113E-02
CGA:  10    -0.354885541331E+03   -0.34853E-02   -0.35141E-02  7072   0.511E-01 0.845E-05
CGA:  11    -0.354888788467E+03   -0.32471E-02   -0.32521E-02  7072   0.744E-01-0.377E-03
CGA:  12    -0.354891121458E+03   -0.23330E-02   -0.23439E-02  7072   0.367E-01-0.974E-04
CGA:  13    -0.354892904871E+03   -0.17834E-02   -0.17831E-02  7072   0.163E-01-0.254E-04
CGA:  14    -0.354894263461E+03   -0.13586E-02   -0.13610E-02  7072   0.185E-01-0.696E-04
CGA:  15    -0.354895020005E+03   -0.75654E-03   -0.75825E-03  7072   0.167E-01 0.247E-04
CGA:  16    -0.354895750448E+03   -0.73044E-03   -0.73018E-03  7072   0.162E-01-0.579E-05
CGA:  17    -0.354896532550E+03   -0.78210E-03   -0.78246E-03  7072   0.920E-02 0.302E-04
CGA:  18    -0.354897120524E+03   -0.58797E-03   -0.58795E-03  7072   0.627E-02 0.336E-05
CGA:  19    -0.354897602118E+03   -0.48159E-03   -0.48170E-03  7072   0.108E-01-0.457E-05
CGA:  20    -0.354897942990E+03   -0.34087E-03   -0.34147E-03  7072   0.620E-02 0.287E-05
CGA:  21    -0.354898286576E+03   -0.34359E-03   -0.34360E-03  7072   0.475E-02-0.699E-05
CGA:  22    -0.354898512473E+03   -0.22590E-03   -0.22589E-03  7072   0.227E-02 0.431E-05
CGA:  23    -0.354898665505E+03   -0.15303E-03   -0.15290E-03  7072   0.220E-02 0.867E-05
CGA:  24    -0.354898781674E+03   -0.11617E-03   -0.11617E-03  7072   0.306E-02 0.879E-06
CGA:  25    -0.354898876516E+03   -0.94842E-04   -0.95070E-04  7072   0.651E-03 0.550E-05
CGA:  26    -0.354898913109E+03   -0.36593E-04   -0.36589E-04  7072   0.600E-03 0.163E-05
CGA:  27    -0.354898957950E+03   -0.44840E-04   -0.44792E-04  7072   0.629E-03 0.248E-05
CGA:  28    -0.354898988217E+03   -0.30267E-04   -0.30287E-04  7072   0.380E-03 0.279E-05
CGA:  29    -0.354898998743E+03   -0.10526E-04   -0.10508E-04  7072   0.219E-03-0.471E-06
CGA:  30    -0.354899013836E+03   -0.15093E-04   -0.15082E-04  7072   0.158E-03 0.743E-06
CGA:  31    -0.354899025514E+03   -0.11678E-04   -0.11677E-04  7072   0.170E-03 0.995E-07
SDA:  32    -0.354899035128E+03   -0.96140E-05   -0.96142E-05  7072   0.117E-03-0.331E-08
   6 F= -.35489904E+03 E0= -.35488024E+03  d E =-.131505E+00  mag=     0.0282
       N       E                     dE             d eps       ncg     rms          ort
SDA:   1    -0.351901635807E+03    0.29974E+01    0.00000E+00  7072   0.107E+02 0.000E+00
CGA:   2    -0.353190750356E+03   -0.12891E+01   -0.11682E+01  7072   0.157E+02 0.212E+01
CGA:   3    -0.354021475055E+03   -0.83072E+00   -0.74455E+00  7072   0.923E+01-0.525E+00
CGA:   4    -0.354322415048E+03   -0.30094E+00   -0.30538E+00  7072   0.525E+01-0.725E-01
CGA:   5    -0.354575934724E+03   -0.25352E+00   -0.25262E+00  7072   0.390E+01-0.636E-01
CGA:   6    -0.354787299307E+03   -0.21136E+00   -0.21141E+00  7072   0.273E+01-0.286E-01
CGA:   7    -0.354865549950E+03   -0.78251E-01   -0.78512E-01  7072   0.154E+01-0.850E-02
CGA:   8    -0.354924572635E+03   -0.59023E-01   -0.57923E-01  7072   0.520E+00-0.934E-02
CGA:   9    -0.354963043610E+03   -0.38471E-01   -0.38478E-01  7072   0.395E+00-0.207E-03
CGA:  10    -0.354977927097E+03   -0.14883E-01   -0.15089E-01  7072   0.222E+00 0.151E-02
CGA:  11    -0.354985412340E+03   -0.74852E-02   -0.74700E-02  7072   0.145E+00 0.543E-05
CGA:  12    -0.354991030298E+03   -0.56180E-02   -0.56399E-02  7072   0.798E-01 0.342E-03
CGA:  13    -0.354996979238E+03   -0.59489E-02   -0.59325E-02  7072   0.570E-01 0.577E-03
CGA:  14    -0.354999501484E+03   -0.25222E-02   -0.25155E-02  7072   0.553E-01-0.260E-03
CGA:  15    -0.355001342797E+03   -0.18413E-02   -0.18434E-02  7072   0.335E-01 0.215E-04
CGA:  16    -0.355003608517E+03   -0.22657E-02   -0.22654E-02  7072   0.351E-01 0.160E-04
CGA:  17    -0.355005388134E+03   -0.17796E-02   -0.17795E-02  7072   0.217E-01-0.546E-04
CGA:  18    -0.355006447286E+03   -0.10592E-02   -0.10592E-02  7072   0.290E-01 0.231E-04
CGA:  19    -0.355007532859E+03   -0.10856E-02   -0.10832E-02  7072   0.173E-01-0.183E-04
CGA:  20    -0.355008898010E+03   -0.13652E-02   -0.13621E-02  7072   0.143E-01 0.937E-04
CGA:  21    -0.355009602159E+03   -0.70415E-03   -0.70446E-03  7072   0.135E-01 0.478E-04
CGA:  22    -0.355010136279E+03   -0.53412E-03   -0.53359E-03  7072   0.121E-01-0.105E-04
CGA:  23    -0.355010677241E+03   -0.54096E-03   -0.54122E-03  7072   0.805E-02 0.246E-04
CGA:  24    -0.355011109105E+03   -0.43186E-03   -0.43181E-03  7072   0.381E-02 0.144E-04
CGA:  25    -0.355011330343E+03   -0.22124E-03   -0.22135E-03  7072   0.541E-02-0.115E-04
CGA:  26    -0.355011501834E+03   -0.17149E-03   -0.17163E-03  7072   0.267E-02 0.415E-05
CGA:  27    -0.355011643801E+03   -0.14197E-03   -0.14197E-03  7072   0.166E-02-0.915E-07
CGA:  28    -0.355011724794E+03   -0.80993E-04   -0.80987E-04  7072   0.115E-02-0.146E-05
CGA:  29    -0.355011782142E+03   -0.57348E-04   -0.57349E-04  7072   0.136E-02 0.147E-05
CGA:  30    -0.355011827401E+03   -0.45259E-04   -0.45201E-04  7072   0.663E-03-0.185E-05
CGA:  31    -0.355011867089E+03   -0.39689E-04   -0.39673E-04  7072   0.370E-03 0.149E-05
SDA:  32    -0.355011891416E+03   -0.24326E-04   -0.24311E-04  7072   0.504E-03 0.100E-05
CGA:  33    -0.355011900605E+03   -0.91890E-05   -0.91510E-05  7072   0.115E-03-0.194E-06
CGA:  34    -0.355011911252E+03   -0.10648E-04   -0.10581E-04  7072   0.392E-03 0.161E-05
CGA:  35    -0.355011947190E+03   -0.35938E-04   -0.35881E-04  7072   0.129E-03 0.149E-05
CGA:  36    -0.355011954975E+03   -0.77849E-05   -0.77892E-05  7072   0.868E-04-0.665E-06
   7 F= -.35501195E+03 E0= -.35499347E+03  d E =-.112920E+00  mag=     0.0210
       N       E                     dE             d eps       ncg     rms          ort
SDA:   1    -0.350488985344E+03    0.45230E+01    0.00000E+00  7072   0.148E+02 0.000E+00
CGA:   2    -0.351770899332E+03   -0.12819E+01   -0.13069E+01  7072   0.479E+02-0.482E+00
CGA:   3    -0.353722452596E+03   -0.19516E+01   -0.19650E+01  7072   0.106E+02 0.272E-02
CGA:   4    -0.354127731919E+03   -0.40528E+00   -0.36273E+00  7072   0.597E+01 0.129E+00
CGA:   5    -0.354486639082E+03   -0.35891E+00   -0.36335E+00  7072   0.665E+01-0.518E+00
CGA:   6    -0.354796564335E+03   -0.30993E+00   -0.31029E+00  7072   0.477E+01 0.324E-01
CGA:   7    -0.354916720853E+03   -0.12016E+00   -0.11614E+00  7072   0.150E+01 0.737E-01
CGA:   8    -0.354977569207E+03   -0.60848E-01   -0.60836E-01  7072   0.620E+00-0.164E-02
CGA:   9    -0.355004506612E+03   -0.26937E-01   -0.27146E-01  7072   0.549E+00 0.656E-02
CGA:  10    -0.355029818132E+03   -0.25312E-01   -0.25247E-01  7072   0.446E+00-0.308E-02
CGA:  11    -0.355042412780E+03   -0.12595E-01   -0.12707E-01  7072   0.233E+00-0.151E-02
CGA:  12    -0.355054181595E+03   -0.11769E-01   -0.11770E-01  7072   0.682E-01 0.131E-02
CGA:  13    -0.355056912419E+03   -0.27308E-02   -0.27311E-02  7072   0.103E+00 0.844E-05
CGA:  14    -0.355062468394E+03   -0.55560E-02   -0.55490E-02  7072   0.424E-01 0.115E-02
CGA:  15    -0.355064354805E+03   -0.18864E-02   -0.18876E-02  7072   0.470E-01 0.801E-04
CGA:  16    -0.355067105653E+03   -0.27508E-02   -0.27568E-02  7072   0.446E-01-0.454E-03
CGA:  17    -0.355068182618E+03   -0.10770E-02   -0.10866E-02  7072   0.165E-01-0.172E-03
CGA:  18    -0.355069295235E+03   -0.11126E-02   -0.11093E-02  7072   0.178E-01 0.143E-03
CGA:  19    -0.355070403589E+03   -0.11084E-02   -0.11088E-02  7072   0.367E-01-0.301E-04
CGA:  20    -0.355071687411E+03   -0.12838E-02   -0.12867E-02  7072   0.142E-01 0.237E-04
CGA:  21    -0.355072451500E+03   -0.76409E-03   -0.76418E-03  7072   0.105E-01-0.792E-05
CGA:  22    -0.355072848755E+03   -0.39726E-03   -0.39682E-03  7072   0.117E-01-0.614E-05
CGA:  23    -0.355073456392E+03   -0.60764E-03   -0.60747E-03  7072   0.105E-01 0.500E-04
CGA:  24    -0.355073900712E+03   -0.44432E-03   -0.44427E-03  7072   0.774E-02-0.833E-05
CGA:  25    -0.355074315988E+03   -0.41528E-03   -0.41538E-03  7072   0.602E-02-0.194E-04
CGA:  26    -0.355074445606E+03   -0.12962E-03   -0.12977E-03  7072   0.195E-02-0.183E-05
CGA:  27    -0.355074707982E+03   -0.26238E-03   -0.26191E-03  7072   0.307E-02 0.557E-05
CGA:  28    -0.355074785630E+03   -0.77649E-04   -0.77557E-04  7072   0.174E-02-0.305E-05
CGA:  29    -0.355074874825E+03   -0.89194E-04   -0.89194E-04  7072   0.974E-03 0.860E-07
CGA:  30    -0.355074917659E+03   -0.42834E-04   -0.42841E-04  7072   0.820E-03 0.380E-06
CGA:  31    -0.355074953455E+03   -0.35796E-04   -0.35782E-04  7072   0.756E-03-0.150E-05
SDA:  32    -0.355074981606E+03   -0.28151E-04   -0.28188E-04  7072   0.621E-03 0.206E-05
CGA:  33    -0.355075000896E+03   -0.19290E-04   -0.19259E-04  7072   0.310E-03-0.258E-06
CGA:  34    -0.355075015206E+03   -0.14310E-04   -0.14314E-04  7072   0.292E-03 0.136E-05
CGA:  35    -0.355075029159E+03   -0.13953E-04   -0.13953E-04  7072   0.346E-03-0.672E-06
CGA:  36    -0.355075057117E+03   -0.27958E-04   -0.27888E-04  7072   0.262E-03 0.212E-05
CGA:  37    -0.355075077172E+03   -0.20055E-04   -0.20028E-04  7072   0.169E-03 0.988E-06
CGA:  38    -0.355075090298E+03   -0.13126E-04   -0.13120E-04  7072   0.903E-04 0.213E-06
CGA:  39    -0.355075103295E+03   -0.12996E-04   -0.12829E-04  7072   0.133E-03 0.185E-05
CGA:  40    -0.355075108928E+03   -0.56336E-05   -0.56278E-05  7072   0.129E-03-0.285E-06
   8 F= -.35507511E+03 E0= -.35505679E+03  d E =-.631540E-01  mag=     0.0196
       N       E                     dE             d eps       ncg     rms          ort
SDA:   1    -0.349352763044E+03    0.57223E+01    0.00000E+00  7072   0.172E+02 0.000E+00
CGA:   2    -0.351280002480E+03   -0.19272E+01   -0.16934E+01  7072   0.337E+02 0.488E+01
CGA:   3    -0.353075865818E+03   -0.17959E+01   -0.17249E+01  7072   0.258E+02-0.376E+00
CGA:   4    -0.353900469611E+03   -0.82460E+00   -0.90220E+00  7072   0.135E+02-0.852E+00
CGA:   5    -0.354259318063E+03   -0.35885E+00   -0.40598E+00  7072   0.114E+02-0.647E+00
CGA:   6    -0.354524741134E+03   -0.26542E+00   -0.24793E+00  7072   0.505E+01 0.412E+00
CGA:   7    -0.354746953546E+03   -0.22221E+00   -0.21569E+00  7072   0.581E+01-0.112E+00
CGA:   8    -0.354896011331E+03   -0.14906E+00   -0.15320E+00  7072   0.306E+01-0.858E-01
CGA:   9    -0.354998720747E+03   -0.10271E+00   -0.10347E+00  7072   0.111E+01-0.144E-02
CGA:  10    -0.355022203162E+03   -0.23482E-01   -0.22990E-01  7072   0.571E+00 0.140E-01
CGA:  11    -0.355043774287E+03   -0.21571E-01   -0.21513E-01  7072   0.531E+00-0.959E-03
CGA:  12    -0.355060763719E+03   -0.16989E-01   -0.17090E-01  7072   0.582E+00-0.114E-05
CGA:  13    -0.355078817888E+03   -0.18054E-01   -0.17902E-01  7072   0.203E+00 0.398E-03
CGA:  14    -0.355084226321E+03   -0.54084E-02   -0.53359E-02  7072   0.133E+00 0.963E-03
CGA:  15    -0.355087883112E+03   -0.36568E-02   -0.36895E-02  7072   0.767E-01-0.251E-03
CGA:  16    -0.355091671761E+03   -0.37886E-02   -0.37813E-02  7072   0.128E+00 0.101E-02
CGA:  17    -0.355095204132E+03   -0.35324E-02   -0.35273E-02  7072   0.596E-01 0.687E-04
CGA:  18    -0.355097168270E+03   -0.19641E-02   -0.19537E-02  7072   0.361E-01-0.125E-03
CGA:  19    -0.355098058375E+03   -0.89010E-03   -0.89125E-03  7072   0.245E-01 0.128E-04
CGA:  20    -0.355099366528E+03   -0.13082E-02   -0.13067E-02  7072   0.289E-01 0.986E-04
CGA:  21    -0.355100214317E+03   -0.84779E-03   -0.84699E-03  7072   0.240E-01-0.357E-05
CGA:  22    -0.355101038030E+03   -0.82371E-03   -0.82440E-03  7072   0.145E-01 0.323E-04
CGA:  23    -0.355101576706E+03   -0.53868E-03   -0.53915E-03  7072   0.195E-01 0.439E-04
CGA:  24    -0.355102277234E+03   -0.70053E-03   -0.70008E-03  7072   0.130E-01-0.364E-05
CGA:  25    -0.355102766257E+03   -0.48902E-03   -0.48861E-03  7072   0.121E-01-0.391E-04
CGA:  26    -0.355103085757E+03   -0.31950E-03   -0.32017E-03  7072   0.753E-02 0.824E-05
CGA:  27    -0.355103495436E+03   -0.40968E-03   -0.40876E-03  7072   0.106E-01 0.511E-04
CGA:  28    -0.355103803153E+03   -0.30772E-03   -0.30751E-03  7072   0.799E-02-0.698E-05
CGA:  29    -0.355104099836E+03   -0.29668E-03   -0.29664E-03  7072   0.446E-02-0.438E-05
CGA:  30    -0.355104219153E+03   -0.11932E-03   -0.11939E-03  7072   0.354E-02 0.377E-05
CGA:  31    -0.355104362009E+03   -0.14286E-03   -0.14286E-03  7072   0.316E-02-0.535E-05
SDA:  32    -0.355104499493E+03   -0.13748E-03   -0.13751E-03  7072   0.411E-02-0.682E-05
CGA:  33    -0.355104562589E+03   -0.63097E-04   -0.63201E-04  7072   0.528E-03 0.390E-05
CGA:  34    -0.355104660695E+03   -0.98105E-04   -0.77765E-07  7072   0.278E-02-0.140E-03
CGA:  35    -0.355104724484E+03   -0.63790E-04   -0.63852E-04  7072   0.115E-02-0.921E-07
CGA:  36    -0.355104766221E+03   -0.41736E-04   -0.41771E-04  7072   0.942E-03-0.937E-07
CGA:  37    -0.355104801248E+03   -0.35027E-04   -0.35013E-04  7072   0.559E-03-0.119E-06
CGA:  38    -0.355104821469E+03   -0.20221E-04   -0.20216E-04  7072   0.373E-03-0.161E-06
CGA:  39    -0.355104837147E+03   -0.15678E-04   -0.15662E-04  7072   0.418E-03-0.636E-06
CGA:  40    -0.355104864630E+03   -0.27483E-04   -0.27487E-04  7072   0.540E-03-0.130E-05
CGA:  41    -0.355104879663E+03   -0.15034E-04   -0.15039E-04  7072   0.219E-03 0.138E-06
CGA:  42    -0.355104889842E+03   -0.10179E-04   -0.10182E-04  7072   0.210E-03 0.209E-06
CGA:  43    -0.355104897084E+03   -0.72412E-05   -0.72481E-05  7072   0.139E-03 0.179E-06
   9 F= -.35510490E+03 E0= -.35508682E+03  d E =-.297882E-01  mag=     0.0264
       N       E                     dE             d eps       ncg     rms          ort
SDA:   1    -0.342832567627E+03    0.12272E+02    0.00000E+00  7072   0.332E+02 0.000E+00
CGA:   2    -0.348190480535E+03   -0.53579E+01   -0.46119E+01  7072   0.673E+02 0.898E+01
CGA:   3    -0.351440620667E+03   -0.32501E+01   -0.27121E+01  7072   0.309E+02 0.980E+01
CGA:   4    -0.352612423248E+03   -0.11718E+01   -0.14055E+01  7072   0.320E+02-0.157E+01
CGA:   5    -0.353489820738E+03   -0.87740E+00   -0.98888E+00  7072   0.337E+02-0.207E+01
CGA:   6    -0.354252885164E+03   -0.76306E+00   -0.50339E+00  7072   0.861E+01 0.134E+02
CGA:   7    -0.354437552408E+03   -0.18467E+00   -0.17603E+00  7072   0.500E+01 0.303E+00
CGA:   8    -0.354600376234E+03   -0.16282E+00   -0.16745E+00  7072   0.844E+01-0.583E-01
CGA:   9    -0.354779693577E+03   -0.17932E+00   -0.19913E+00  7072   0.546E+01-0.453E+00
CGA:  10    -0.354955059435E+03   -0.17537E+00   -0.17884E+00  7072   0.474E+01 0.829E-03
CGA:  11    -0.355021128848E+03   -0.66069E-01   -0.54657E-01  7072   0.108E+01 0.826E+00
CGA:  12    -0.355038427954E+03   -0.17299E-01   -0.15769E-01  7072   0.481E+00 0.990E-01
CGA:  13    -0.355049507730E+03   -0.11080E-01   -0.11087E-01  7072   0.589E+00-0.816E-03
CGA:  14    -0.355064321220E+03   -0.14813E-01   -0.15364E-01  7072   0.933E+00-0.711E-02
CGA:  15    -0.355088655253E+03   -0.24334E-01   -0.24780E-01  7072   0.109E+01-0.419E-02
CGA:  16    -0.355104287267E+03   -0.15632E-01   -0.15028E-01  7072   0.380E+00 0.331E-01
CGA:  17    -0.355110372073E+03   -0.60848E-02   -0.60793E-02  7072   0.258E+00 0.128E-03
CGA:  18    -0.355115203434E+03   -0.48314E-02   -0.49256E-02  7072   0.160E+00-0.262E-02
CGA:  19    -0.355117373441E+03   -0.21700E-02   -0.22443E-02  7072   0.752E-01-0.372E-02
CGA:  20    -0.355119561198E+03   -0.21878E-02   -0.21988E-02  7072   0.150E+00 0.212E-03
CGA:  21    -0.355124086707E+03   -0.45255E-02   -0.45119E-02  7072   0.132E+00-0.449E-03
CGA:  22    -0.355126232707E+03   -0.21460E-02   -0.21303E-02  7072   0.676E-01 0.455E-03
CGA:  23    -0.355127642756E+03   -0.14100E-02   -0.14083E-02  7072   0.484E-01-0.142E-04
CGA:  24    -0.355128548559E+03   -0.90580E-03   -0.91432E-03  7072   0.328E-01-0.200E-03
CGA:  25    -0.355129465207E+03   -0.91665E-03   -0.92054E-03  7072   0.397E-01 0.132E-03
CGA:  26    -0.355130330499E+03   -0.86529E-03   -0.86388E-03  7072   0.258E-01 0.551E-05
CGA:  27    -0.355131003874E+03   -0.67337E-03   -0.67361E-03  7072   0.293E-01 0.961E-05
CGA:  28    -0.355131729965E+03   -0.72609E-03   -0.72922E-03  7072   0.217E-01 0.107E-03
CGA:  29    -0.355132245728E+03   -0.51576E-03   -0.51652E-03  7072   0.203E-01 0.274E-04
CGA:  30    -0.355132715615E+03   -0.46989E-03   -0.46963E-03  7072   0.925E-02 0.115E-04
CGA:  31    -0.355132866828E+03   -0.15121E-03   -0.15107E-03  7072   0.540E-02-0.357E-06
SDA:  32    -0.355133111354E+03   -0.24453E-03   -0.24460E-03  7072   0.143E-01-0.520E-05
CGA:  33    -0.355133348743E+03   -0.23739E-03   -0.23784E-03  7072   0.291E-02-0.187E-05
CGA:  34    -0.355133723992E+03   -0.37525E-03   -0.37605E-03  7072   0.542E-02-0.715E-05
CGA:  35    -0.355134016850E+03   -0.29286E-03   -0.29300E-03  7072   0.425E-02-0.738E-05
CGA:  36    -0.355134246078E+03   -0.22923E-03   -0.22907E-03  7072   0.254E-02 0.820E-05
CGA:  37    -0.355134369002E+03   -0.12292E-03   -0.12294E-03  7072   0.281E-02-0.842E-06
CGA:  38    -0.355134472167E+03   -0.10316E-03   -0.10319E-03  7072   0.191E-02 0.136E-04
CGA:  39    -0.355134663673E+03   -0.19151E-03   -0.19033E-03  7072   0.166E-02 0.195E-04
CGA:  40    -0.355134796850E+03   -0.13318E-03   -0.13258E-03  7072   0.488E-03 0.157E-04
CGA:  41    -0.355134825350E+03   -0.28499E-04   -0.28460E-04  7072   0.128E-02 0.265E-05
CGA:  42    -0.355134933499E+03   -0.10815E-03   -0.10837E-03  7072   0.773E-03-0.544E-05
CGA:  43    -0.355134985871E+03   -0.52372E-04   -0.52389E-04  7072   0.329E-03-0.115E-05
CGA:  44    -0.355135002040E+03   -0.16169E-04   -0.16167E-04  7072   0.400E-03 0.851E-06
CGA:  45    -0.355135029814E+03   -0.27774E-04   -0.27763E-04  7072   0.574E-03 0.454E-06
CGA:  46    -0.355135048031E+03   -0.18217E-04   -0.18260E-04  7072   0.227E-03 0.257E-05
CGA:  47    -0.355135060005E+03   -0.11974E-04   -0.11974E-04  7072   0.159E-03-0.430E-07
CGA:  48    -0.355135077144E+03   -0.17140E-04   -0.17160E-04  7072   0.971E-04-0.412E-06
CGA:  49    -0.355135081906E+03   -0.47614E-05   -0.47612E-05  7072   0.179E-03-0.508E-07
  10 F= -.35513508E+03 E0= -.35511716E+03  d E =-.301848E-01  mag=     0.0180
       N       E                     dE             d eps       ncg     rms          ort
SDA:   1    -0.348694390998E+03    0.64407E+01    0.00000E+00  7072   0.178E+02 0.000E+00
CGA:   2    -0.351580157657E+03   -0.28858E+01   -0.26376E+01  7072   0.327E+02 0.305E+01
CGA:   3    -0.353461987041E+03   -0.18818E+01   -0.17508E+01  7072   0.214E+02-0.402E+01
CGA:   4    -0.354136587896E+03   -0.67460E+00   -0.70075E+00  7072   0.893E+01-0.219E-01
CGA:   5    -0.354512665199E+03   -0.37608E+00   -0.34717E+00  7072   0.709E+01-0.301E+00
CGA:   6    -0.354843928562E+03   -0.33126E+00   -0.33072E+00  7072   0.350E+01-0.394E-01
CGA:   7    -0.355031450544E+03   -0.18752E+00   -0.18757E+00  7072   0.141E+01-0.394E-01
CGA:   8    -0.355076739814E+03   -0.45289E-01   -0.44955E-01  7072   0.611E+00 0.207E-02
CGA:   9    -0.355116916057E+03   -0.40176E-01   -0.40454E-01  7072   0.417E+00-0.143E-01
CGA:  10    -0.355142422847E+03   -0.25507E-01   -0.25430E-01  7072   0.373E+00 0.537E-02
CGA:  11    -0.355151729737E+03   -0.93069E-02   -0.91033E-02  7072   0.100E+00 0.490E-02
CGA:  12    -0.355157044034E+03   -0.53143E-02   -0.53130E-02  7072   0.935E-01 0.151E-02
CGA:  13    -0.355161707805E+03   -0.46638E-02   -0.46616E-02  7072   0.702E-01-0.337E-03
CGA:  14    -0.355165810065E+03   -0.41023E-02   -0.41000E-02  7072   0.204E-01 0.205E-03
CGA:  15    -0.355166988584E+03   -0.11785E-02   -0.11769E-02  7072   0.199E-01 0.182E-03
CGA:  16    -0.355167696820E+03   -0.70824E-03   -0.70640E-03  7072   0.158E-01-0.129E-04
CGA:  17    -0.355168643210E+03   -0.94639E-03   -0.94613E-03  7072   0.135E-01 0.194E-04
CGA:  18    -0.355169165780E+03   -0.52257E-03   -0.52214E-03  7072   0.667E-02-0.621E-05
CGA:  19    -0.355169577125E+03   -0.41134E-03   -0.41116E-03  7072   0.388E-02 0.113E-04
CGA:  20    -0.355169961228E+03   -0.38410E-03   -0.38403E-03  7072   0.397E-02 0.621E-06
CGA:  21    -0.355170199512E+03   -0.23828E-03   -0.23825E-03  7072   0.439E-02 0.500E-05
CGA:  22    -0.355170386199E+03   -0.18669E-03   -0.18702E-03  7072   0.274E-02 0.893E-05
CGA:  23    -0.355170505662E+03   -0.11946E-03   -0.11937E-03  7072   0.268E-02-0.431E-05
CGA:  24    -0.355170616935E+03   -0.11127E-03   -0.11138E-03  7072   0.131E-02 0.373E-05
CGA:  25    -0.355170726039E+03   -0.10910E-03   -0.10904E-03  7072   0.927E-03 0.206E-05
CGA:  26    -0.355170793028E+03   -0.66989E-04   -0.67005E-04  7072   0.976E-03-0.573E-06
CGA:  27    -0.355170831466E+03   -0.38437E-04   -0.38497E-04  7072   0.485E-03 0.263E-05
CGA:  28    -0.355170857408E+03   -0.25942E-04   -0.25943E-04  7072   0.516E-03 0.133E-05
CGA:  29    -0.355170876047E+03   -0.18639E-04   -0.18706E-04  7072   0.396E-03 0.287E-05
CGA:  30    -0.355170907734E+03   -0.31687E-04   -0.31624E-04  7072   0.231E-03 0.242E-05
CGA:  31    -0.355170922363E+03   -0.14629E-04   -0.14618E-04  7072   0.167E-03 0.137E-05
SDA:  32    -0.355170930907E+03   -0.85441E-05   -0.85449E-05  7072   0.167E-03 0.114E-06
  11 F= -.35517093E+03 E0= -.35515297E+03  d E =-.358490E-01  mag=     0.0273
       N       E                     dE             d eps       ncg     rms          ort
SDA:   1    -0.348088101883E+03    0.70828E+01    0.00000E+00  7072   0.207E+02 0.000E+00
CGA:   2    -0.350561721296E+03   -0.24736E+01   -0.22717E+01  7072   0.374E+02 0.428E+01
CGA:   3    -0.353063446451E+03   -0.25017E+01   -0.24452E+01  7072   0.327E+02-0.112E+02
CGA:   4    -0.354054804960E+03   -0.99136E+00   -0.10044E+01  7072   0.884E+01 0.196E+00
CGA:   5    -0.354351113480E+03   -0.29631E+00   -0.22234E+00  7072   0.414E+01 0.160E+01
CGA:   6    -0.354777250910E+03   -0.42614E+00   -0.43060E+00  7072   0.980E+01-0.113E+00
CGA:   7    -0.354973627623E+03   -0.19638E+00   -0.21698E+00  7072   0.380E+01-0.637E+00
CGA:   8    -0.355047795061E+03   -0.74167E-01   -0.78071E-01  7072   0.108E+01-0.118E+00
CGA:   9    -0.355075045283E+03   -0.27250E-01   -0.27258E-01  7072   0.602E+00 0.406E-02
CGA:  10    -0.355111548473E+03   -0.36503E-01   -0.36350E-01  7072   0.120E+01 0.111E-01
CGA:  11    -0.355150188822E+03   -0.38640E-01   -0.38108E-01  7072   0.332E+00 0.454E-02
CGA:  12    -0.355161931191E+03   -0.11742E-01   -0.11743E-01  7072   0.241E+00 0.143E-03
CGA:  13    -0.355168350753E+03   -0.64196E-02   -0.65065E-02  7072   0.962E-01-0.125E-02
CGA:  14    -0.355173014356E+03   -0.46636E-02   -0.46636E-02  7072   0.144E+00 0.327E-03
CGA:  15    -0.355179860197E+03   -0.68458E-02   -0.68456E-02  7072   0.711E-01-0.112E-03
CGA:  16    -0.355182228455E+03   -0.23683E-02   -0.23670E-02  7072   0.563E-01-0.248E-04
CGA:  17    -0.355184287452E+03   -0.20590E-02   -0.20517E-02  7072   0.238E-01-0.142E-03
CGA:  18    -0.355185305218E+03   -0.10178E-02   -0.10188E-02  7072   0.239E-01 0.920E-04
CGA:  19    -0.355186500531E+03   -0.11953E-02   -0.11947E-02  7072   0.234E-01 0.127E-03
CGA:  20    -0.355187394657E+03   -0.89413E-03   -0.89299E-03  7072   0.163E-01-0.368E-04
CGA:  21    -0.355187921296E+03   -0.52664E-03   -0.52782E-03  7072   0.790E-02 0.956E-05
CGA:  22    -0.355188528940E+03   -0.60764E-03   -0.60421E-03  7072   0.116E-01 0.102E-03
CGA:  23    -0.355188847520E+03   -0.31858E-03   -0.31822E-03  7072   0.413E-02 0.980E-05
CGA:  24    -0.355189099492E+03   -0.25197E-03   -0.25141E-03  7072   0.873E-02 0.292E-04
CGA:  25    -0.355189607038E+03   -0.50755E-03   -0.50736E-03  7072   0.458E-02 0.949E-05
CGA:  26    -0.355189803664E+03   -0.19663E-03   -0.19645E-03  7072   0.408E-02-0.179E-04
CGA:  27    -0.355189938657E+03   -0.13499E-03   -0.13501E-03  7072   0.226E-02-0.191E-06
CGA:  28    -0.355190075553E+03   -0.13690E-03   -0.13690E-03  7072   0.368E-02-0.426E-06
CGA:  29    -0.355190267332E+03   -0.19178E-03   -0.19175E-03  7072   0.246E-02 0.565E-05
CGA:  30    -0.355190379850E+03   -0.11252E-03   -0.11253E-03  7072   0.201E-02 0.486E-05
CGA:  31    -0.355190444549E+03   -0.64699E-04   -0.64709E-04  7072   0.120E-02 0.854E-07
SDA:  32    -0.355190507472E+03   -0.62923E-04   -0.62889E-04  7072   0.925E-03 0.555E-05
CGA:  33    -0.355190545032E+03   -0.37560E-04   -0.37556E-04  7072   0.699E-03 0.162E-06
CGA:  34    -0.355190598684E+03   -0.53651E-04   -0.53614E-04  7072   0.588E-03 0.115E-05
CGA:  35    -0.355190647908E+03   -0.49225E-04   -0.49301E-04  7072   0.121E-02-0.221E-05
CGA:  36    -0.355190681926E+03   -0.34018E-04   -0.34061E-04  7072   0.368E-03 0.148E-05
CGA:  37    -0.355190709918E+03   -0.27992E-04   -0.28010E-04  7072   0.162E-03-0.759E-06
CGA:  38    -0.355190736785E+03   -0.26867E-04   -0.26944E-04  7072   0.315E-03-0.728E-06
CGA:  39    -0.355190751103E+03   -0.14318E-04   -0.14314E-04  7072   0.264E-03-0.419E-06
CGA:  40    -0.355190759095E+03   -0.79921E-05   -0.79407E-05  7072   0.136E-03-0.178E-05
CGA:  41    -0.355190772268E+03   -0.13173E-04   -0.13243E-04  7072   0.852E-04-0.165E-05
CGA:  42    -0.355190784171E+03   -0.11903E-04   -0.11851E-04  7072   0.102E-03 0.578E-06
CGA:  43    -0.355190789425E+03   -0.52541E-05   -0.52489E-05  7072   0.104E-03-0.536E-06
  12 F= -.35519079E+03 E0= -.35517287E+03  d E =-.198585E-01  mag=     0.0548
       N       E                     dE             d eps       ncg     rms          ort
SDA:   1    -0.353941638958E+03    0.12491E+01    0.00000E+00  7072   0.477E+01 0.000E+00
CGA:   2    -0.354127168194E+03   -0.18553E+00   -0.19148E+00  7072   0.788E+01-0.721E-02
CGA:   3    -0.354860714141E+03   -0.73355E+00   -0.73769E+00  7072   0.337E+01-0.109E+00
CGA:   4    -0.354977253721E+03   -0.11654E+00   -0.12007E+00  7072   0.142E+01-0.296E-01
CGA:   5    -0.355059331842E+03   -0.82078E-01   -0.82052E-01  7072   0.203E+01-0.166E-01
CGA:   6    -0.355136553312E+03   -0.77221E-01   -0.77946E-01  7072   0.105E+01-0.204E-02
CGA:   7    -0.355168867882E+03   -0.32315E-01   -0.31646E-01  7072   0.212E+00 0.990E-02
CGA:   8    -0.355180698516E+03   -0.11831E-01   -0.11836E-01  7072   0.116E+00 0.228E-02
CGA:   9    -0.355190667617E+03   -0.99691E-02   -0.10013E-01  7072   0.181E+00-0.126E-02
CGA:  10    -0.355194783013E+03   -0.41154E-02   -0.41323E-02  7072   0.322E-01-0.448E-03
CGA:  11    -0.355196563090E+03   -0.17801E-02   -0.17799E-02  7072   0.247E-01-0.875E-04
CGA:  12    -0.355198040425E+03   -0.14773E-02   -0.14770E-02  7072   0.165E-01 0.503E-04
CGA:  13    -0.355198942372E+03   -0.90195E-03   -0.90184E-03  7072   0.133E-01-0.355E-04
CGA:  14    -0.355199593880E+03   -0.65151E-03   -0.65187E-03  7072   0.885E-02 0.159E-04
CGA:  15    -0.355199802822E+03   -0.20894E-03   -0.20817E-03  7072   0.242E-02 0.749E-05
CGA:  16    -0.355200105250E+03   -0.30243E-03   -0.30210E-03  7072   0.314E-02 0.489E-05
CGA:  17    -0.355200322396E+03   -0.21715E-03   -0.21735E-03  7072   0.312E-02-0.144E-04
CGA:  18    -0.355200414633E+03   -0.92237E-04   -0.92386E-04  7072   0.107E-02-0.221E-05
CGA:  19    -0.355200460687E+03   -0.46055E-04   -0.46016E-04  7072   0.131E-02-0.200E-05
CGA:  20    -0.355200579021E+03   -0.11833E-03   -0.11805E-03  7072   0.102E-02 0.780E-05
CGA:  21    -0.355200653838E+03   -0.74817E-04   -0.74780E-04  7072   0.678E-03 0.257E-05
CGA:  22    -0.355200679823E+03   -0.25985E-04   -0.26056E-04  7072   0.546E-03 0.297E-05
CGA:  23    -0.355200701339E+03   -0.21516E-04   -0.21512E-04  7072   0.399E-03 0.126E-06
CGA:  24    -0.355200741400E+03   -0.40061E-04   -0.40004E-04  7072   0.398E-03 0.120E-05
CGA:  25    -0.355200754854E+03   -0.13454E-04   -0.13435E-04  7072   0.132E-03-0.244E-06
CGA:  26    -0.355200764677E+03   -0.98229E-05   -0.98086E-05  7072   0.211E-03 0.794E-06
  13 F= -.35520076E+03 E0= -.35518280E+03  d E =-.997525E-02  mag=     0.0576
       N       E                     dE             d eps       ncg     rms          ort
SDA:   1    -0.354882721624E+03    0.31803E+00    0.00000E+00  7072   0.981E+00 0.000E+00
CGA:   2    -0.354960003518E+03   -0.77282E-01   -0.77578E-01  7072   0.310E+01-0.968E-02
CGA:   3    -0.355099342909E+03   -0.13934E+00   -0.13941E+00  7072   0.122E+01 0.264E-03
CGA:   4    -0.355149623164E+03   -0.50280E-01   -0.50459E-01  7072   0.353E+00-0.135E-03
CGA:   5    -0.355171232452E+03   -0.21609E-01   -0.21601E-01  7072   0.402E+00 0.107E-02
CGA:   6    -0.355189053705E+03   -0.17821E-01   -0.17890E-01  7072   0.243E+00 0.118E-02
CGA:   7    -0.355196280214E+03   -0.72265E-02   -0.70968E-02  7072   0.111E+00 0.201E-02
CGA:   8    -0.355200342922E+03   -0.40627E-02   -0.40716E-02  7072   0.320E-01 0.451E-06
CGA:   9    -0.355203279978E+03   -0.29371E-02   -0.29375E-02  7072   0.189E-01-0.905E-05
CGA:  10    -0.355204119975E+03   -0.84000E-03   -0.83973E-03  7072   0.233E-01-0.947E-05
CGA:  11    -0.355204950246E+03   -0.83027E-03   -0.83036E-03  7072   0.715E-02 0.835E-05
CGA:  12    -0.355205267492E+03   -0.31725E-03   -0.31694E-03  7072   0.324E-02-0.989E-05
CGA:  13    -0.355205498531E+03   -0.23104E-03   -0.23103E-03  7072   0.428E-02-0.528E-06
CGA:  14    -0.355205710527E+03   -0.21200E-03   -0.21203E-03  7072   0.152E-02 0.257E-05
CGA:  15    -0.355205757285E+03   -0.46758E-04   -0.46643E-04  7072   0.118E-02-0.187E-05
CGA:  16    -0.355205815408E+03   -0.58122E-04   -0.58122E-04  7072   0.431E-03 0.142E-06
CGA:  17    -0.355205867617E+03   -0.52210E-04   -0.52354E-04  7072   0.451E-03-0.219E-05
CGA:  18    -0.355205892335E+03   -0.24717E-04   -0.24714E-04  7072   0.339E-03-0.246E-05
CGA:  19    -0.355205906613E+03   -0.14278E-04   -0.14283E-04  7072   0.206E-03 0.132E-06
CGA:  20    -0.355205915367E+03   -0.87539E-05   -0.87535E-05  7072   0.227E-03-0.816E-07
CGA:  21    -0.355205926131E+03   -0.10764E-04   -0.10781E-04  7072   0.135E-03 0.204E-05
CGA:  22    -0.355205936393E+03   -0.10262E-04   -0.10240E-04  7072   0.103E-03 0.104E-05
CGA:  23    -0.355205947214E+03   -0.10821E-04   -0.10825E-04  7072   0.956E-04-0.960E-07
CGA:  24    -0.355205949243E+03   -0.20292E-05   -0.20472E-05  7072   0.357E-04 0.466E-06
  14 F= -.35520595E+03 E0= -.35518788E+03  d E =-.518457E-02  mag=     0.0552
       N       E                     dE             d eps       ncg     rms          ort
SDA:   1    -0.354376462229E+03    0.82948E+00    0.00000E+00  7072   0.258E+01 0.000E+00
CGA:   2    -0.354554707016E+03   -0.17824E+00   -0.18274E+00  7072   0.759E+01-0.250E+00
CGA:   3    -0.354952440896E+03   -0.39773E+00   -0.39776E+00  7072   0.437E+01 0.669E-02
CGA:   4    -0.355051997051E+03   -0.99556E-01   -0.93455E-01  7072   0.765E+00 0.178E+00
CGA:   5    -0.355121921280E+03   -0.69924E-01   -0.70058E-01  7072   0.155E+01-0.354E-02
CGA:   6    -0.355165674613E+03   -0.43753E-01   -0.44531E-01  7072   0.676E+00-0.142E-01
CGA:   7    -0.355188129647E+03   -0.22455E-01   -0.22193E-01  7072   0.231E+00 0.252E-02
CGA:   8    -0.355195616143E+03   -0.74865E-02   -0.75814E-02  7072   0.119E+00-0.934E-03
CGA:   9    -0.355201583884E+03   -0.59677E-02   -0.59733E-02  7072   0.997E-01 0.473E-03
CGA:  10    -0.355205033385E+03   -0.34495E-02   -0.34003E-02  7072   0.717E-01 0.287E-03
CGA:  11    -0.355208109444E+03   -0.30761E-02   -0.30780E-02  7072   0.288E-01 0.527E-04
CGA:  12    -0.355209459208E+03   -0.13498E-02   -0.13512E-02  7072   0.224E-01 0.815E-04
CGA:  13    -0.355210177891E+03   -0.71868E-03   -0.71759E-03  7072   0.830E-02 0.832E-05
CGA:  14    -0.355210553881E+03   -0.37599E-03   -0.37623E-03  7072   0.122E-01 0.145E-04
CGA:  15    -0.355211194702E+03   -0.64082E-03   -0.64083E-03  7072   0.350E-02-0.764E-05
CGA:  16    -0.355211366993E+03   -0.17229E-03   -0.17226E-03  7072   0.369E-02-0.736E-05
CGA:  17    -0.355211513350E+03   -0.14636E-03   -0.14639E-03  7072   0.189E-02 0.106E-05
CGA:  18    -0.355211583900E+03   -0.70550E-04   -0.70486E-04  7072   0.169E-02-0.233E-05
CGA:  19    -0.355211672059E+03   -0.88159E-04   -0.88158E-04  7072   0.131E-02-0.149E-06
CGA:  20    -0.355211754198E+03   -0.82139E-04   -0.82185E-04  7072   0.945E-03-0.392E-05
CGA:  21    -0.355211794657E+03   -0.40459E-04   -0.40437E-04  7072   0.998E-03-0.160E-05
CGA:  22    -0.355211839105E+03   -0.44448E-04   -0.44477E-04  7072   0.630E-03 0.373E-05
CGA:  23    -0.355211862147E+03   -0.23041E-04   -0.23042E-04  7072   0.521E-03 0.397E-06
CGA:  24    -0.355211906851E+03   -0.44704E-04   -0.44658E-04  7072   0.540E-03 0.128E-05
CGA:  25    -0.355211936398E+03   -0.29547E-04   -0.29543E-04  7072   0.705E-03 0.950E-06
CGA:  26    -0.355211958343E+03   -0.21945E-04   -0.21910E-04  7072   0.184E-03-0.158E-05
CGA:  27    -0.355211965706E+03   -0.73629E-05   -0.73671E-05  7072   0.220E-03 0.224E-06
CGA:  28    -0.355211990032E+03   -0.24326E-04   -0.24286E-04  7072   0.124E-03 0.620E-06
CGA:  29    -0.355211994177E+03   -0.41457E-05   -0.41387E-05  7072   0.104E-03-0.291E-06
  15 F= -.35521199E+03 E0= -.35519384E+03  d E =-.604493E-02  mag=     0.0530
       N       E                     dE             d eps       ncg     rms          ort
SDA:   1    -0.348842837263E+03    0.63692E+01    0.00000E+00  7072   0.187E+02 0.000E+00
CGA:   2    -0.350879291077E+03   -0.20365E+01   -0.18605E+01  7072   0.390E+02 0.383E+01
CGA:   3    -0.353051638446E+03   -0.21723E+01   -0.21121E+01  7072   0.329E+02-0.180E+01
CGA:   4    -0.353996164900E+03   -0.94453E+00   -0.10118E+01  7072   0.112E+02-0.701E+00
CGA:   5    -0.354363728736E+03   -0.36756E+00   -0.38379E+00  7072   0.989E+01-0.102E+00
CGA:   6    -0.354594291346E+03   -0.23056E+00   -0.21951E+00  7072   0.846E+01 0.175E+00
CGA:   7    -0.354852603232E+03   -0.25831E+00   -0.24385E+00  7072   0.713E+01 0.154E+00
CGA:   8    -0.355004275393E+03   -0.15167E+00   -0.16788E+00  7072   0.303E+01-0.403E+00
CGA:   9    -0.355098126838E+03   -0.93851E-01   -0.93804E-01  7072   0.143E+01-0.238E-02
CGA:  10    -0.355123456597E+03   -0.25330E-01   -0.25286E-01  7072   0.673E+00-0.106E-02
CGA:  11    -0.355148289910E+03   -0.24833E-01   -0.24781E-01  7072   0.774E+00-0.160E-02
CGA:  12    -0.355168879621E+03   -0.20590E-01   -0.21020E-01  7072   0.626E+00-0.407E-02
CGA:  13    -0.355190480107E+03   -0.21600E-01   -0.21480E-01  7072   0.305E+00-0.240E-02
CGA:  14    -0.355197437864E+03   -0.69578E-02   -0.68917E-02  7072   0.169E+00 0.125E-02
CGA:  15    -0.355201845284E+03   -0.44074E-02   -0.44754E-02  7072   0.883E-01-0.549E-03
CGA:  16    -0.355205141148E+03   -0.32959E-02   -0.33063E-02  7072   0.130E+00 0.890E-03
CGA:  17    -0.355209412616E+03   -0.42715E-02   -0.42601E-02  7072   0.677E-01-0.255E-03
CGA:  18    -0.355211756258E+03   -0.23436E-02   -0.23381E-02  7072   0.511E-01-0.259E-03
CGA:  19    -0.355212963425E+03   -0.12072E-02   -0.12143E-02  7072   0.243E-01-0.942E-04
CGA:  20    -0.355213951013E+03   -0.98759E-03   -0.98745E-03  7072   0.203E-01 0.162E-03
CGA:  21    -0.355214602737E+03   -0.65172E-03   -0.65126E-03  7072   0.210E-01-0.271E-04
CGA:  22    -0.355215428232E+03   -0.82549E-03   -0.82555E-03  7072   0.155E-01 0.520E-04
CGA:  23    -0.355216009712E+03   -0.58148E-03   -0.58187E-03  7072   0.173E-01 0.757E-04
CGA:  24    -0.355216485055E+03   -0.47534E-03   -0.47328E-03  7072   0.703E-02-0.172E-04
CGA:  25    -0.355216781976E+03   -0.29692E-03   -0.29703E-03  7072   0.831E-02-0.203E-04
CGA:  26    -0.355217062876E+03   -0.28090E-03   -0.28122E-03  7072   0.849E-02 0.245E-04
CGA:  27    -0.355217482002E+03   -0.41913E-03   -0.41856E-03  7072   0.741E-02 0.434E-04
CGA:  28    -0.355217706691E+03   -0.22469E-03   -0.22467E-03  7072   0.617E-02 0.119E-05
CGA:  29    -0.355217904797E+03   -0.19811E-03   -0.19832E-03  7072   0.334E-02 0.154E-04
CGA:  30    -0.355218056983E+03   -0.15219E-03   -0.15205E-03  7072   0.481E-02 0.167E-04
CGA:  31    -0.355218201949E+03   -0.14497E-03   -0.14482E-03  7072   0.286E-02-0.225E-05
SDA:  32    -0.355218321493E+03   -0.11954E-03   -0.11955E-03  7072   0.244E-02 0.640E-06
CGA:  33    -0.355218366641E+03   -0.45148E-04   -0.45260E-04  7072   0.686E-03 0.188E-05
CGA:  34    -0.355218423995E+03   -0.57354E-04   -0.57394E-04  7072   0.154E-02-0.954E-06
CGA:  35    -0.355218503992E+03   -0.79997E-04   -0.79946E-04  7072   0.772E-03 0.355E-05
CGA:  36    -0.355218559058E+03   -0.55066E-04   -0.55036E-04  7072   0.671E-03 0.846E-06
CGA:  37    -0.355218605458E+03   -0.46400E-04   -0.46406E-04  7072   0.288E-03-0.126E-06
CGA:  38    -0.355218615201E+03   -0.97428E-05   -0.97592E-05  7072   0.332E-03 0.150E-05
CGA:  39    -0.355218639950E+03   -0.24749E-04   -0.24744E-04  7072   0.196E-03 0.109E-06
CGA:  40    -0.355218659810E+03   -0.19860E-04   -0.19671E-04  7072   0.329E-03 0.337E-05
CGA:  41    -0.355218672969E+03   -0.13158E-04   -0.13171E-04  7072   0.109E-03 0.169E-05
CGA:  42    -0.355218681303E+03   -0.83341E-05   -0.82909E-05  7072   0.131E-03 0.147E-05
  16 F= -.35521868E+03 E0= -.35520014E+03  d E =-.668713E-02  mag=     0.0508
       N       E                     dE             d eps       ncg     rms          ort
SDA:   1    -0.351068190425E+03    0.41505E+01    0.00000E+00  7072   0.151E+02 0.000E+00
CGA:   2    -0.352167758670E+03   -0.10996E+01   -0.10494E+01  7072   0.187E+02 0.196E+01
CGA:   3    -0.353407084578E+03   -0.12393E+01   -0.13584E+01  7072   0.268E+02-0.642E+01
CGA:   4    -0.353906460311E+03   -0.49938E+00   -0.50094E+00  7072   0.154E+02-0.885E-01
CGA:   5    -0.354200512956E+03   -0.29405E+00   -0.35345E+00  7072   0.114E+02-0.177E+01
CGA:   6    -0.354425327220E+03   -0.22481E+00   -0.20245E+00  7072   0.851E+01 0.560E+00
CGA:   7    -0.354678990127E+03   -0.25366E+00   -0.24625E+00  7072   0.878E+01 0.250E-01
CGA:   8    -0.354862050746E+03   -0.18306E+00   -0.21101E+00  7072   0.386E+01-0.478E+00
CGA:   9    -0.354937344417E+03   -0.75294E-01   -0.79621E-01  7072   0.273E+01-0.112E+00
CGA:  10    -0.354991057180E+03   -0.53713E-01   -0.48232E-01  7072   0.940E+00 0.188E+00
CGA:  11    -0.355013675069E+03   -0.22618E-01   -0.22097E-01  7072   0.903E+00 0.984E-02
CGA:  12    -0.355039668510E+03   -0.25993E-01   -0.26200E-01  7072   0.902E+00 0.978E-03
CGA:  13    -0.355057802845E+03   -0.18134E-01   -0.18597E-01  7072   0.706E+00-0.114E-01
CGA:  14    -0.355076778333E+03   -0.18975E-01   -0.19081E-01  7072   0.483E+00 0.432E-03
CGA:  15    -0.355087421259E+03   -0.10643E-01   -0.10601E-01  7072   0.377E+00 0.433E-03
CGA:  16    -0.355096400924E+03   -0.89797E-02   -0.90934E-02  7072   0.195E+00-0.549E-03
CGA:  17    -0.355099699091E+03   -0.32982E-02   -0.33770E-02  7072   0.102E+00-0.249E-02
CGA:  18    -0.355104058465E+03   -0.43594E-02   -0.43106E-02  7072   0.154E+00 0.485E-02
CGA:  19    -0.355108682224E+03   -0.46238E-02   -0.45894E-02  7072   0.143E+00-0.937E-03
CGA:  20    -0.355112673980E+03   -0.39918E-02   -0.39762E-02  7072   0.822E-01-0.426E-03
CGA:  21    -0.355114287448E+03   -0.16135E-02   -0.16406E-02  7072   0.465E-01-0.427E-03
CGA:  22    -0.355115681850E+03   -0.13944E-02   -0.13988E-02  7072   0.260E-01 0.339E-03
CGA:  23    -0.355116236045E+03   -0.55419E-03   -0.55289E-03  7072   0.166E-01-0.253E-05
CGA:  24    -0.355116909058E+03   -0.67301E-03   -0.67371E-03  7072   0.203E-01-0.753E-04
CGA:  25    -0.355117520730E+03   -0.61167E-03   -0.61337E-03  7072   0.217E-01 0.161E-03
CGA:  26    -0.355118294553E+03   -0.77382E-03   -0.77317E-03  7072   0.106E-01 0.293E-03
CGA:  27    -0.355118523959E+03   -0.22941E-03   -0.22895E-03  7072   0.550E-02-0.658E-05
CGA:  28    -0.355118701331E+03   -0.17737E-03   -0.17739E-03  7072   0.341E-02 0.372E-05
CGA:  29    -0.355118814948E+03   -0.11362E-03   -0.11362E-03  7072   0.413E-02 0.141E-04
CGA:  30    -0.355118973744E+03   -0.15880E-03   -0.15874E-03  7072   0.299E-02 0.590E-05
CGA:  31    -0.355119080316E+03   -0.10657E-03   -0.10661E-03  7072   0.309E-02-0.160E-04
SDA:  32    -0.355119163331E+03   -0.83015E-04   -0.83044E-04  7072   0.154E-02-0.340E-05
CGA:  33    -0.355119210775E+03   -0.47444E-04   -0.47446E-04  7072   0.665E-03-0.744E-07
CGA:  34    -0.355119280200E+03   -0.69424E-04   -0.69606E-04  7072   0.511E-03-0.225E-05
CGA:  35    -0.355119315912E+03   -0.35712E-04   -0.35736E-04  7072   0.100E-02-0.898E-06
CGA:  36    -0.355119354194E+03   -0.38282E-04   -0.38279E-04  7072   0.667E-03-0.666E-05
CGA:  37    -0.355119408113E+03   -0.53920E-04   -0.54072E-04  7072   0.201E-03-0.386E-05
CGA:  38    -0.355119420359E+03   -0.12246E-04   -0.12246E-04  7072   0.132E-03-0.119E-06
CGA:  39    -0.355119433239E+03   -0.12880E-04   -0.12778E-04  7072   0.248E-03 0.178E-05
CGA:  40    -0.355119441807E+03   -0.85676E-05   -0.85612E-05  7072   0.195E-03-0.554E-06
CGA:  41    -0.355119459002E+03   -0.17196E-04   -0.17111E-04  7072   0.135E-03 0.174E-05
CGA:  42    -0.355119463584E+03   -0.45812E-05   -0.45880E-05  7072   0.543E-04 0.559E-06
  17 F= -.35511946E+03 E0= -.35510216E+03  d E =0.992177E-01  mag=     0.0770
       N       E                     dE             d eps       ncg     rms          ort
SDA:   1    -0.354645717653E+03    0.47374E+00    0.00000E+00  7072   0.189E+01 0.000E+00
CGA:   2    -0.354863949665E+03   -0.21823E+00   -0.21981E+00  7072   0.367E+01-0.231E-01
CGA:   3    -0.354972417960E+03   -0.10847E+00   -0.10750E+00  7072   0.192E+01 0.695E-02
CGA:   4    -0.355048382214E+03   -0.75964E-01   -0.76653E-01  7072   0.878E+00 0.101E-01
CGA:   5    -0.355138840312E+03   -0.90458E-01   -0.91223E-01  7072   0.795E+00-0.152E-01
CGA:   6    -0.355167534251E+03   -0.28694E-01   -0.28698E-01  7072   0.293E+00-0.336E-03
CGA:   7    -0.355180038944E+03   -0.12505E-01   -0.12467E-01  7072   0.149E+00-0.837E-03
CGA:   8    -0.355184556225E+03   -0.45173E-02   -0.45662E-02  7072   0.982E-01-0.487E-03
CGA:   9    -0.355190504380E+03   -0.59482E-02   -0.59521E-02  7072   0.381E-01-0.285E-03
CGA:  10    -0.355193709429E+03   -0.32050E-02   -0.31998E-02  7072   0.199E-01 0.143E-03
CGA:  11    -0.355194468743E+03   -0.75931E-03   -0.75559E-03  7072   0.154E-01-0.224E-04
CGA:  12    -0.355195132616E+03   -0.66387E-03   -0.66387E-03  7072   0.136E-01 0.521E-05
CGA:  13    -0.355195907758E+03   -0.77514E-03   -0.77524E-03  7072   0.797E-02-0.141E-04
CGA:  14    -0.355196211485E+03   -0.30373E-03   -0.30413E-03  7072   0.281E-02 0.530E-05
CGA:  15    -0.355196405476E+03   -0.19399E-03   -0.19407E-03  7072   0.184E-02-0.480E-05
CGA:  16    -0.355196479684E+03   -0.74208E-04   -0.74247E-04  7072   0.234E-02 0.272E-05
CGA:  17    -0.355196614555E+03   -0.13487E-03   -0.13488E-03  7072   0.876E-03-0.134E-05
CGA:  18    -0.355196669714E+03   -0.55159E-04   -0.55149E-04  7072   0.512E-03 0.978E-06
CGA:  19    -0.355196691039E+03   -0.21325E-04   -0.21304E-04  7072   0.445E-03-0.791E-06
CGA:  20    -0.355196714195E+03   -0.23156E-04   -0.23157E-04  7072   0.468E-03 0.226E-05
CGA:  21    -0.355196733877E+03   -0.19682E-04   -0.19679E-04  7072   0.241E-03 0.201E-06
CGA:  22    -0.355196747902E+03   -0.14026E-04   -0.14012E-04  7072   0.169E-03 0.199E-05
CGA:  23    -0.355196761126E+03   -0.13223E-04   -0.13208E-04  7072   0.166E-03 0.523E-06
CGA:  24    -0.355196764971E+03   -0.38450E-05   -0.38773E-05  7072   0.575E-04 0.103E-05
  18 F= -.35519676E+03 E0= -.35517901E+03  d E =-.773014E-01  mag=     0.0660
       N       E                     dE             d eps       ncg     rms          ort
SDA:   1    -0.354992030727E+03    0.20473E+00    0.00000E+00  7072   0.103E+01 0.000E+00
CGA:   2    -0.355031840928E+03   -0.39810E-01   -0.38541E-01  7072   0.135E+01-0.458E-03
CGA:   3    -0.355120770280E+03   -0.88929E-01   -0.88937E-01  7072   0.889E+00-0.290E-03
CGA:   4    -0.355152654767E+03   -0.31884E-01   -0.31822E-01  7072   0.392E+00-0.478E-03
CGA:   5    -0.355181976228E+03   -0.29321E-01   -0.29222E-01  7072   0.403E+00 0.383E-02
CGA:   6    -0.355207449185E+03   -0.25473E-01   -0.25512E-01  7072   0.107E+00-0.371E-02
CGA:   7    -0.355212061733E+03   -0.46125E-02   -0.46090E-02  7072   0.815E-01-0.676E-04
CGA:   8    -0.355214304837E+03   -0.22431E-02   -0.22505E-02  7072   0.346E-01-0.127E-03
CGA:   9    -0.355217230448E+03   -0.29256E-02   -0.29286E-02  7072   0.182E-01-0.848E-04
CGA:  10    -0.355218017864E+03   -0.78742E-03   -0.78793E-03  7072   0.127E-01 0.126E-04
CGA:  11    -0.355218679332E+03   -0.66147E-03   -0.66145E-03  7072   0.594E-02-0.456E-05
CGA:  12    -0.355218888125E+03   -0.20879E-03   -0.20908E-03  7072   0.609E-02 0.190E-05
CGA:  13    -0.355219282853E+03   -0.39473E-03   -0.39488E-03  7072   0.307E-02-0.120E-04
CGA:  14    -0.355219445652E+03   -0.16280E-03   -0.16281E-03  7072   0.117E-02 0.136E-05
CGA:  15    -0.355219516035E+03   -0.70383E-04   -0.70422E-04  7072   0.140E-02-0.499E-05
CGA:  16    -0.355219560734E+03   -0.44699E-04   -0.44705E-04  7072   0.727E-03 0.916E-06
CGA:  17    -0.355219604178E+03   -0.43445E-04   -0.43463E-04  7072   0.651E-03-0.288E-05
CGA:  18    -0.355219631961E+03   -0.27782E-04   -0.27785E-04  7072   0.296E-03-0.167E-06
CGA:  19    -0.355219653318E+03   -0.21357E-04   -0.21380E-04  7072   0.200E-03-0.122E-05
CGA:  20    -0.355219659750E+03   -0.64313E-05   -0.64595E-05  7072   0.176E-03 0.115E-05
CGA:  21    -0.355219671163E+03   -0.11413E-04   -0.11397E-04  7072   0.893E-04 0.143E-05
CGA:  22    -0.355219678691E+03   -0.75282E-05   -0.74918E-05  7072   0.130E-03 0.122E-05
  19 F= -.35521968E+03 E0= -.35520161E+03  d E =-.229137E-01  mag=     0.0573
       N       E                     dE             d eps       ncg     rms          ort
SDA:   1    -0.355137489020E+03    0.82182E-01    0.00000E+00  7072   0.859E+00 0.000E+00
CGA:   2    -0.355153364960E+03   -0.15876E-01   -0.15389E-01  7072   0.262E+00 0.190E-01
CGA:   3    -0.355185277131E+03   -0.31912E-01   -0.31937E-01  7072   0.365E+00-0.386E-03
CGA:   4    -0.355201715634E+03   -0.16439E-01   -0.16531E-01  7072   0.146E+00 0.218E-02
CGA:   5    -0.355207492746E+03   -0.57771E-02   -0.57566E-02  7072   0.164E+00-0.114E-03
CGA:   6    -0.355216627051E+03   -0.91343E-02   -0.91341E-02  7072   0.132E+00 0.176E-03
CGA:   7    -0.355220512633E+03   -0.38856E-02   -0.38571E-02  7072   0.239E-01 0.375E-03
CGA:   8    -0.355221983049E+03   -0.14704E-02   -0.14707E-02  7072   0.122E-01-0.302E-04
CGA:   9    -0.355222615218E+03   -0.63217E-03   -0.63227E-03  7072   0.193E-01 0.199E-04
CGA:  10    -0.355223268965E+03   -0.65375E-03   -0.65350E-03  7072   0.398E-02-0.882E-05
CGA:  11    -0.355223592527E+03   -0.32356E-03   -0.32404E-03  7072   0.301E-02-0.144E-04
CGA:  12    -0.355223698867E+03   -0.10634E-03   -0.10639E-03  7072   0.140E-02-0.131E-05
CGA:  13    -0.355223829684E+03   -0.13082E-03   -0.13098E-03  7072   0.230E-02-0.404E-05
CGA:  14    -0.355223892523E+03   -0.62839E-04   -0.62902E-04  7072   0.911E-03-0.330E-06
CGA:  15    -0.355223926672E+03   -0.34149E-04   -0.34096E-04  7072   0.324E-03-0.255E-05
CGA:  16    -0.355223959013E+03   -0.32341E-04   -0.32402E-04  7072   0.193E-03-0.129E-05
CGA:  17    -0.355223971943E+03   -0.12930E-04   -0.12938E-04  7072   0.306E-03-0.858E-06
CGA:  18    -0.355223982978E+03   -0.11036E-04   -0.10994E-04  7072   0.150E-03-0.203E-05
CGA:  19    -0.355223988536E+03   -0.55578E-05   -0.55641E-05  7072   0.103E-03 0.299E-06
  20 F= -.35522399E+03 E0= -.35520574E+03  d E =-.430984E-02  mag=     0.0513
       N       E                     dE             d eps       ncg     rms          ort
SDA:   1    -0.355215518362E+03    0.84646E-02    0.00000E+00  7072   0.668E-01 0.000E+00
CGA:   2    -0.355217725902E+03   -0.22075E-02   -0.22005E-02  7072   0.364E-01 0.458E-04
CGA:   3    -0.355219506859E+03   -0.17810E-02   -0.17812E-02  7072   0.388E-01 0.292E-04
CGA:   4    -0.355221362441E+03   -0.18556E-02   -0.18541E-02  7072   0.424E-01-0.115E-03
CGA:   5    -0.355223116456E+03   -0.17540E-02   -0.17590E-02  7072   0.781E-02 0.108E-03
CGA:   6    -0.355223763137E+03   -0.64668E-03   -0.64699E-03  7072   0.672E-02-0.103E-04
CGA:   7    -0.355224196491E+03   -0.43335E-03   -0.43343E-03  7072   0.188E-02-0.796E-05
CGA:   8    -0.355224349446E+03   -0.15295E-03   -0.15299E-03  7072   0.109E-02-0.186E-05
CGA:   9    -0.355224375457E+03   -0.26011E-04   -0.25933E-04  7072   0.601E-03-0.207E-05
CGA:  10    -0.355224432854E+03   -0.57396E-04   -0.57336E-04  7072   0.313E-03 0.145E-05
CGA:  11    -0.355224448286E+03   -0.15432E-04   -0.15432E-04  7072   0.133E-03 0.844E-07
CGA:  12    -0.355224456580E+03   -0.82945E-05   -0.82937E-05  7072   0.225E-03 0.107E-06
  21 F= -.35522446E+03 E0= -.35520616E+03  d E =-.468044E-03  mag=     0.0483
       N       E                     dE             d eps       ncg     rms          ort
SDA:   1    -0.355174889807E+03    0.49558E-01    0.00000E+00  7072   0.215E+00 0.000E+00
CGA:   2    -0.355183571446E+03   -0.86816E-02   -0.86609E-02  7072   0.287E+00-0.239E-03
CGA:   3    -0.355199262086E+03   -0.15691E-01   -0.15689E-01  7072   0.280E+00 0.165E-02
CGA:   4    -0.355215701793E+03   -0.16440E-01   -0.16448E-01  7072   0.721E-01-0.104E-02
CGA:   5    -0.355221159910E+03   -0.54581E-02   -0.54627E-02  7072   0.258E-01-0.143E-03
CGA:   6    -0.355223165837E+03   -0.20059E-02   -0.20011E-02  7072   0.486E-01 0.170E-03
CGA:   7    -0.355224502146E+03   -0.13363E-02   -0.13354E-02  7072   0.110E-01-0.595E-05
CGA:   8    -0.355224921828E+03   -0.41968E-03   -0.42009E-03  7072   0.440E-02 0.291E-05
CGA:   9    -0.355225118472E+03   -0.19664E-03   -0.19657E-03  7072   0.279E-02-0.346E-05
CGA:  10    -0.355225347482E+03   -0.22901E-03   -0.22889E-03  7072   0.168E-02 0.397E-05
CGA:  11    -0.355225423432E+03   -0.75949E-04   -0.75918E-04  7072   0.945E-03-0.161E-05
CGA:  12    -0.355225450731E+03   -0.27299E-04   -0.27357E-04  7072   0.625E-03 0.820E-06
CGA:  13    -0.355225493952E+03   -0.43221E-04   -0.43259E-04  7072   0.194E-03-0.233E-05
CGA:  14    -0.355225510713E+03   -0.16762E-04   -0.16760E-04  7072   0.321E-03 0.522E-07
CGA:  15    -0.355225522985E+03   -0.12272E-04   -0.12256E-04  7072   0.100E-03-0.639E-06
CGA:  16    -0.355225527114E+03   -0.41291E-05   -0.41298E-05  7072   0.118E-03 0.542E-07
  22 F= -.35522553E+03 E0= -.35520722E+03  d E =-.107053E-02  mag=     0.0469
       N       E                     dE             d eps       ncg     rms          ort
SDA:   1    -0.355213402731E+03    0.12120E-01    0.00000E+00  7072   0.138E+00 0.000E+00
CGA:   2    -0.355216517044E+03   -0.31143E-02   -0.30715E-02  7072   0.473E-01 0.121E-02
CGA:   3    -0.355218638380E+03   -0.21213E-02   -0.21237E-02  7072   0.491E-01 0.105E-03
CGA:   4    -0.355222576933E+03   -0.39386E-02   -0.39489E-02  7072   0.528E-01-0.313E-03
CGA:   5    -0.355224410310E+03   -0.18334E-02   -0.18409E-02  7072   0.123E-01-0.682E-05
CGA:   6    -0.355225229546E+03   -0.81924E-03   -0.81899E-03  7072   0.606E-02 0.146E-04
CGA:   7    -0.355225799676E+03   -0.57013E-03   -0.56993E-03  7072   0.256E-02 0.503E-05
CGA:   8    -0.355225939452E+03   -0.13978E-03   -0.13978E-03  7072   0.280E-02 0.704E-05
CGA:   9    -0.355226017386E+03   -0.77934E-04   -0.77829E-04  7072   0.778E-03-0.108E-05
CGA:  10    -0.355226051428E+03   -0.34041E-04   -0.34056E-04  7072   0.659E-03 0.112E-05
CGA:  11    -0.355226087827E+03   -0.36399E-04   -0.36401E-04  7072   0.303E-03-0.420E-06
CGA:  12    -0.355226104499E+03   -0.16671E-04   -0.16669E-04  7072   0.165E-03 0.151E-05
CGA:  13    -0.355226117710E+03   -0.13212E-04   -0.13229E-04  7072   0.185E-03-0.662E-06
CGA:  14    -0.355226121614E+03   -0.39031E-05   -0.39233E-05  7072   0.491E-04 0.485E-06
  23 F= -.35522612E+03 E0= -.35520781E+03  d E =-.594499E-03  mag=     0.0483
       N       E                     dE             d eps       ncg     rms          ort
SDA:   1    -0.354917514235E+03    0.30860E+00    0.00000E+00  7072   0.858E+00 0.000E+00
CGA:   2    -0.355062293381E+03   -0.14478E+00   -0.14548E+00  7072   0.206E+01-0.681E-02
CGA:   3    -0.355126983253E+03   -0.64690E-01   -0.66483E-01  7072   0.148E+01-0.282E-01
CGA:   4    -0.355177421914E+03   -0.50439E-01   -0.50193E-01  7072   0.338E+00 0.160E-02
CGA:   5    -0.355200898235E+03   -0.23476E-01   -0.23462E-01  7072   0.254E+00 0.112E-02
CGA:   6    -0.355214450143E+03   -0.13552E-01   -0.13529E-01  7072   0.191E+00-0.116E-02
CGA:   7    -0.355220980817E+03   -0.65307E-02   -0.65789E-02  7072   0.825E-01-0.460E-03
CGA:   8    -0.355223709806E+03   -0.27290E-02   -0.27117E-02  7072   0.445E-01 0.183E-03
CGA:   9    -0.355225333696E+03   -0.16239E-02   -0.16358E-02  7072   0.134E-01-0.229E-04
CGA:  10    -0.355227252947E+03   -0.19193E-02   -0.19214E-02  7072   0.916E-02-0.261E-04
CGA:  11    -0.355227506040E+03   -0.25309E-03   -0.25334E-03  7072   0.541E-02 0.413E-05
CGA:  12    -0.355227740503E+03   -0.23446E-03   -0.23434E-03  7072   0.300E-02-0.173E-06
CGA:  13    -0.355227954660E+03   -0.21416E-03   -0.21405E-03  7072   0.186E-02 0.787E-05
CGA:  14    -0.355228079319E+03   -0.12466E-03   -0.12468E-03  7072   0.209E-02-0.237E-05
CGA:  15    -0.355228135561E+03   -0.56242E-04   -0.56316E-04  7072   0.526E-03 0.520E-06
CGA:  16    -0.355228158748E+03   -0.23187E-04   -0.23153E-04  7072   0.634E-03-0.140E-05
CGA:  17    -0.355228214744E+03   -0.55997E-04   -0.55998E-04  7072   0.390E-03-0.902E-07
CGA:  18    -0.355228237405E+03   -0.22661E-04   -0.22661E-04  7072   0.298E-03-0.587E-06
CGA:  19    -0.355228246000E+03   -0.85946E-05   -0.86282E-05  7072   0.201E-03 0.104E-05
CGA:  20    -0.355228265925E+03   -0.19925E-04   -0.19921E-04  7072   0.227E-03 0.113E-06
CGA:  21    -0.355228282034E+03   -0.16110E-04   -0.16099E-04  7072   0.188E-03 0.792E-06
CGA:  22    -0.355228290335E+03   -0.83004E-05   -0.82927E-05  7072   0.182E-03-0.405E-06
  24 F= -.35522829E+03 E0= -.35521001E+03  d E =-.216872E-02  mag=     0.0533
       N       E                     dE             d eps       ncg     rms          ort
SDA:   1    -0.354962858366E+03    0.26542E+00    0.00000E+00  7072   0.923E+00 0.000E+00
CGA:   2    -0.355013307493E+03   -0.50449E-01   -0.50619E-01  7072   0.174E+01 0.251E-01
CGA:   3    -0.355127461244E+03   -0.11415E+00   -0.11440E+00  7072   0.178E+01-0.235E-01
CGA:   4    -0.355173541356E+03   -0.46080E-01   -0.47839E-01  7072   0.397E+00-0.367E-01
CGA:   5    -0.355196899585E+03   -0.23358E-01   -0.23346E-01  7072   0.293E+00 0.201E-02
CGA:   6    -0.355218428948E+03   -0.21529E-01   -0.21611E-01  7072   0.132E+00-0.353E-02
CGA:   7    -0.355223493381E+03   -0.50644E-02   -0.51012E-02  7072   0.653E-01 0.478E-04
CGA:   8    -0.355225917979E+03   -0.24246E-02   -0.24149E-02  7072   0.438E-01 0.564E-05
CGA:   9    -0.355227565995E+03   -0.16480E-02   -0.16492E-02  7072   0.296E-01 0.107E-04
CGA:  10    -0.355228983367E+03   -0.14174E-02   -0.14164E-02  7072   0.941E-02-0.544E-04
CGA:  11    -0.355229765870E+03   -0.78250E-03   -0.78134E-03  7072   0.714E-02 0.350E-04
CGA:  12    -0.355230044532E+03   -0.27866E-03   -0.27891E-03  7072   0.320E-02 0.129E-05
CGA:  13    -0.355230336222E+03   -0.29169E-03   -0.29207E-03  7072   0.242E-02-0.960E-05
CGA:  14    -0.355230441523E+03   -0.10530E-03   -0.10540E-03  7072   0.127E-02 0.112E-05
CGA:  15    -0.355230494649E+03   -0.53127E-04   -0.53056E-04  7072   0.144E-02-0.330E-05
CGA:  16    -0.355230561424E+03   -0.66774E-04   -0.66781E-04  7072   0.702E-03-0.130E-07
CGA:  17    -0.355230587279E+03   -0.25855E-04   -0.25819E-04  7072   0.326E-03-0.173E-05
CGA:  18    -0.355230634068E+03   -0.46789E-04   -0.46835E-04  7072   0.403E-03-0.517E-06
CGA:  19    -0.355230651441E+03   -0.17373E-04   -0.17370E-04  7072   0.177E-03-0.255E-06
CGA:  20    -0.355230662481E+03   -0.11040E-04   -0.11036E-04  7072   0.188E-03 0.803E-06
CGA:  21    -0.355230679761E+03   -0.17281E-04   -0.17286E-04  7072   0.409E-03-0.171E-06
CGA:  22    -0.355230691436E+03   -0.11675E-04   -0.11728E-04  7072   0.129E-03 0.130E-05
CGA:  23    -0.355230697378E+03   -0.59423E-05   -0.59453E-05  7072   0.791E-04 0.268E-06
  25 F= -.35523070E+03 E0= -.35521237E+03  d E =-.240704E-02  mag=     0.0578
       N       E                     dE             d eps       ncg     rms          ort
SDA:   1    -0.351502971600E+03    0.37277E+01    0.00000E+00  7072   0.105E+02 0.000E+00
CGA:   2    -0.352769507137E+03   -0.12665E+01   -0.11482E+01  7072   0.228E+02 0.212E+01
CGA:   3    -0.354003502812E+03   -0.12340E+01   -0.11610E+01  7072   0.178E+02-0.266E+00
CGA:   4    -0.354510454706E+03   -0.50695E+00   -0.57437E+00  7072   0.754E+01-0.117E+01
CGA:   5    -0.354795492924E+03   -0.28504E+00   -0.29827E+00  7072   0.489E+01 0.713E-01
CGA:   6    -0.354942902363E+03   -0.14741E+00   -0.14157E+00  7072   0.365E+01 0.778E-01
CGA:   7    -0.355066598060E+03   -0.12370E+00   -0.12638E+00  7072   0.238E+01-0.294E-01
CGA:   8    -0.355129573421E+03   -0.62975E-01   -0.66669E-01  7072   0.187E+01-0.681E-01
CGA:   9    -0.355174759408E+03   -0.45186E-01   -0.43398E-01  7072   0.442E+00 0.422E-01
CGA:  10    -0.355189394271E+03   -0.14635E-01   -0.14006E-01  7072   0.404E+00 0.562E-02
CGA:  11    -0.355202645150E+03   -0.13251E-01   -0.13359E-01  7072   0.317E+00-0.317E-03
CGA:  12    -0.355215536606E+03   -0.12891E-01   -0.12989E-01  7072   0.265E+00 0.257E-02
CGA:  13    -0.355221237771E+03   -0.57012E-02   -0.57024E-02  7072   0.113E+00-0.117E-03
CGA:  14    -0.355224855593E+03   -0.36178E-02   -0.36103E-02  7072   0.654E-01 0.171E-04
CGA:  15    -0.355226723073E+03   -0.18675E-02   -0.18748E-02  7072   0.644E-01-0.411E-04
CGA:  16    -0.355229331153E+03   -0.26081E-02   -0.26067E-02  7072   0.400E-01-0.708E-04
[...]
CGA:  16    -0.355234696692E+03   -0.58247E-03   -0.57938E-03  7072   0.115E-01 0.964E-04
CGA:  17    -0.355235156794E+03   -0.46010E-03   -0.45979E-03  7072   0.845E-02-0.763E-05
CGA:  18    -0.355235524244E+03   -0.36745E-03   -0.36764E-03  7072   0.476E-02 0.141E-04
CGA:  19    -0.355235755515E+03   -0.23127E-03   -0.23126E-03  7072   0.336E-02-0.909E-05
CGA:  20    -0.355235875286E+03   -0.11977E-03   -0.11994E-03  7072   0.168E-02 0.136E-05
CGA:  21    -0.355235981781E+03   -0.10649E-03   -0.10656E-03  7072   0.282E-02-0.372E-05
CGA:  22    -0.355236099393E+03   -0.11761E-03   -0.11773E-03  7072   0.128E-02 0.932E-05
CGA:  23    -0.355236180640E+03   -0.81248E-04   -0.81265E-04  7072   0.103E-02-0.152E-06
CGA:  24    -0.355236214712E+03   -0.34072E-04   -0.34135E-04  7072   0.792E-03 0.176E-05
CGA:  25    -0.355236265284E+03   -0.50571E-04   -0.50603E-04  7072   0.473E-03-0.231E-05
CGA:  26    -0.355236288019E+03   -0.22735E-04   -0.22738E-04  7072   0.521E-03 0.200E-05
CGA:  27    -0.355236314812E+03   -0.26793E-04   -0.26793E-04  7072   0.463E-03-0.173E-06
CGA:  28    -0.355236333362E+03   -0.18550E-04   -0.18568E-04  7072   0.215E-03 0.158E-05
CGA:  29    -0.355236342041E+03   -0.86794E-05   -0.86749E-05  7072   0.167E-03-0.463E-06
CGA:  30    -0.355236354060E+03   -0.12019E-04   -0.11988E-04  7072   0.157E-03 0.124E-05
CGA:  31    -0.355236359096E+03   -0.50357E-05   -0.50322E-05  7072   0.112E-03-0.214E-06
  49 F= -.35523636E+03 E0= -.35521772E+03  d E =0.627635E-02  mag=     0.0719
       N       E                     dE             d eps       ncg     rms          ort
SDA:   1    -0.351531419462E+03    0.37049E+01    0.00000E+00  7072   0.131E+02 0.000E+00
CGA:   2    -0.352081553185E+03   -0.55013E+00   -0.55996E+00  7072   0.230E+02 0.368E+00
CGA:   3    -0.354140433359E+03   -0.20589E+01   -0.20666E+01  7072   0.100E+02-0.358E+00
CGA:   4    -0.354541138668E+03   -0.40071E+00   -0.39780E+00  7072   0.615E+01-0.760E-01
CGA:   5    -0.354746466117E+03   -0.20533E+00   -0.19627E+00  7072   0.514E+01 0.447E-01
CGA:   6    -0.355057264282E+03   -0.31080E+00   -0.30831E+00  7072   0.219E+01 0.176E+00
CGA:   7    -0.355132085569E+03   -0.74821E-01   -0.72846E-01  7072   0.689E+00 0.533E-02
CGA:   8    -0.355169055101E+03   -0.36970E-01   -0.37006E-01  7072   0.437E+00-0.552E-02
CGA:   9    -0.355209718362E+03   -0.40663E-01   -0.40401E-01  7072   0.154E+00 0.571E-02
CGA:  10    -0.355218460384E+03   -0.87420E-02   -0.87364E-02  7072   0.123E+00 0.875E-03
CGA:  11    -0.355223475291E+03   -0.50149E-02   -0.49756E-02  7072   0.104E+00-0.678E-03
CGA:  12    -0.355227214010E+03   -0.37387E-02   -0.37685E-02  7072   0.638E-01 0.197E-03
CGA:  13    -0.355229974435E+03   -0.27604E-02   -0.27561E-02  7072   0.399E-01-0.193E-03
CGA:  14    -0.355231981014E+03   -0.20066E-02   -0.20067E-02  7072   0.133E-01 0.222E-03
CGA:  15    -0.355232959578E+03   -0.97856E-03   -0.97815E-03  7072   0.101E-01 0.971E-05
CGA:  16    -0.355233445388E+03   -0.48581E-03   -0.48615E-03  7072   0.127E-01 0.405E-04
CGA:  17    -0.355233882366E+03   -0.43698E-03   -0.43614E-03  7072   0.535E-02-0.779E-05
CGA:  18    -0.355234221325E+03   -0.33896E-03   -0.33869E-03  7072   0.467E-02 0.125E-04
CGA:  19    -0.355234425551E+03   -0.20423E-03   -0.20412E-03  7072   0.219E-02-0.773E-05
CGA:  20    -0.355234537067E+03   -0.11152E-03   -0.11152E-03  7072   0.187E-02 0.101E-04
CGA:  21    -0.355234633451E+03   -0.96384E-04   -0.96383E-04  7072   0.310E-02 0.117E-05
CGA:  22    -0.355234781550E+03   -0.14810E-03   -0.14817E-03  7072   0.100E-02 0.149E-04
CGA:  23    -0.355234863709E+03   -0.82159E-04   -0.82074E-04  7072   0.807E-03 0.244E-05
CGA:  24    -0.355234898753E+03   -0.35044E-04   -0.35076E-04  7072   0.652E-03 0.287E-05
CGA:  25    -0.355234931691E+03   -0.32938E-04   -0.32939E-04  7072   0.767E-03 0.755E-06
CGA:  26    -0.355234965438E+03   -0.33747E-04   -0.33798E-04  7072   0.599E-03 0.528E-05
CGA:  27    -0.355234990218E+03   -0.24780E-04   -0.24811E-04  7072   0.158E-03 0.299E-05
CGA:  28    -0.355235002279E+03   -0.12061E-04   -0.12012E-04  7072   0.143E-03 0.188E-05
CGA:  29    -0.355235013953E+03   -0.11674E-04   -0.11644E-04  7072   0.289E-03 0.929E-06
CGA:  30    -0.355235022305E+03   -0.83520E-05   -0.84026E-05  7072   0.784E-04 0.179E-05
  50 F= -.35523502E+03 E0= -.35521594E+03  d E =0.133679E-02  mag=     0.0515
       N       E                     dE             d eps       ncg     rms          ort
SDA:   1    -0.349358617208E+03    0.58764E+01    0.00000E+00  7072   0.149E+02 0.000E+00
CGA:   2    -0.352507209229E+03   -0.31486E+01   -0.32184E+01  7072   0.546E+02-0.399E+00
CGA:   3    -0.353654038331E+03   -0.11468E+01   -0.14119E+01  7072   0.235E+02-0.792E+01
CGA:   4    -0.354244305417E+03   -0.59027E+00   -0.54374E+00  7072   0.582E+01 0.957E+00
CGA:   5    -0.354682343814E+03   -0.43804E+00   -0.43667E+00  7072   0.970E+01 0.779E-01
CGA:   6    -0.354999937490E+03   -0.31759E+00   -0.33941E+00  7072   0.343E+01-0.189E+00
CGA:   7    -0.355076692437E+03   -0.76755E-01   -0.74665E-01  7072   0.129E+01 0.494E-01
CGA:   8    -0.355133202933E+03   -0.56510E-01   -0.57019E-01  7072   0.700E+00 0.115E-01
CGA:   9    -0.355165112420E+03   -0.31909E-01   -0.31847E-01  7072   0.107E+01-0.199E-02
CGA:  10    -0.355198788981E+03   -0.33677E-01   -0.33065E-01  7072   0.277E+00 0.661E-02
CGA:  11    -0.355214073099E+03   -0.15284E-01   -0.15279E-01  7072   0.343E+00 0.141E-02
CGA:  12    -0.355222182115E+03   -0.81090E-02   -0.82077E-02  7072   0.104E+00-0.246E-02
CGA:  13    -0.355226176930E+03   -0.39948E-02   -0.39820E-02  7072   0.733E-01-0.164E-03
CGA:  14    -0.355230347728E+03   -0.41708E-02   -0.41811E-02  7072   0.101E+00-0.977E-03
CGA:  15    -0.355233580910E+03   -0.32332E-02   -0.32351E-02  7072   0.537E-01 0.245E-04
CGA:  16    -0.355234998783E+03   -0.14179E-02   -0.14172E-02  7072   0.111E-01 0.736E-05
CGA:  17    -0.355235731449E+03   -0.73267E-03   -0.73292E-03  7072   0.200E-01-0.137E-04
CGA:  18    -0.355236311132E+03   -0.57968E-03   -0.58054E-03  7072   0.108E-01-0.197E-05
CGA:  19    -0.355237074560E+03   -0.76343E-03   -0.76324E-03  7072   0.769E-02 0.816E-05
CGA:  20    -0.355237291053E+03   -0.21649E-03   -0.21563E-03  7072   0.420E-02 0.124E-04
CGA:  21    -0.355237448947E+03   -0.15789E-03   -0.15800E-03  7072   0.303E-02 0.741E-05
CGA:  22    -0.355237572819E+03   -0.12387E-03   -0.12387E-03  7072   0.218E-02-0.143E-06
CGA:  23    -0.355237781321E+03   -0.20850E-03   -0.20869E-03  7072   0.488E-02-0.426E-05
CGA:  24    -0.355237890384E+03   -0.10906E-03   -0.10928E-03  7072   0.108E-02 0.176E-05
CGA:  25    -0.355237946404E+03   -0.56020E-04   -0.56012E-04  7072   0.879E-03 0.256E-05
CGA:  26    -0.355237989426E+03   -0.43021E-04   -0.43022E-04  7072   0.123E-02 0.723E-06
CGA:  27    -0.355238030577E+03   -0.41151E-04   -0.41220E-04  7072   0.619E-03 0.350E-05
CGA:  28    -0.355238067035E+03   -0.36458E-04   -0.36456E-04  7072   0.780E-03 0.332E-07
CGA:  29    -0.355238096116E+03   -0.29082E-04   -0.29069E-04  7072   0.338E-03-0.882E-06
CGA:  30    -0.355238103973E+03   -0.78561E-05   -0.78890E-05  7072   0.167E-03 0.109E-05
CGA:  31    -0.355238120470E+03   -0.16498E-04   -0.16415E-04  7072   0.221E-03 0.159E-05
SDA:  32    -0.355238128484E+03   -0.80138E-05   -0.80094E-05  7072   0.228E-03-0.300E-06
  51 F= -.35523813E+03 E0= -.35521928E+03  d E =-.310618E-02  mag=     0.0486
       N       E                     dE             d eps       ncg     rms          ort
SDA:   1    -0.346114659874E+03    0.91235E+01    0.00000E+00  7072   0.295E+02 0.000E+00
CGA:   2    -0.348429192609E+03   -0.23145E+01   -0.21795E+01  7072   0.447E+02 0.475E+01
CGA:   3    -0.351988737872E+03   -0.35595E+01   -0.37154E+01  7072   0.390E+02-0.655E+01
CGA:   4    -0.353537125050E+03   -0.15484E+01   -0.15283E+01  7072   0.109E+02-0.230E+01
CGA:   5    -0.354217277236E+03   -0.68015E+00   -0.66188E+00  7072   0.135E+02 0.874E+00
CGA:   6    -0.354600019286E+03   -0.38274E+00   -0.36084E+00  7072   0.587E+01 0.289E+00
CGA:   7    -0.354863500141E+03   -0.26348E+00   -0.26363E+00  7072   0.253E+01 0.752E-02
CGA:   8    -0.354967094207E+03   -0.10359E+00   -0.10226E+00  7072   0.172E+01-0.481E-01
CGA:   9    -0.355031379423E+03   -0.64285E-01   -0.63845E-01  7072   0.848E+00-0.110E-01
CGA:  10    -0.355075743790E+03   -0.44364E-01   -0.44255E-01  7072   0.112E+01 0.141E-01
CGA:  11    -0.355103834235E+03   -0.28090E-01   -0.27469E-01  7072   0.342E+00 0.120E-01
CGA:  12    -0.355123221579E+03   -0.19387E-01   -0.19212E-01  7072   0.147E+00 0.132E-01
CGA:  13    -0.355138225311E+03   -0.15004E-01   -0.14592E-01  7072   0.157E+00 0.836E-02
CGA:  14    -0.355143797092E+03   -0.55718E-02   -0.55107E-02  7072   0.147E+00-0.361E-04
CGA:  15    -0.355148752119E+03   -0.49550E-02   -0.50869E-02  7072   0.478E-01 0.990E-03
CGA:  16    -0.355151509713E+03   -0.27576E-02   -0.27331E-02  7072   0.465E-01 0.184E-02
CGA:  17    -0.355153056025E+03   -0.15463E-02   -0.15235E-02  7072   0.310E-01 0.458E-04
CGA:  18    -0.355154410060E+03   -0.13540E-02   -0.13571E-02  7072   0.300E-01 0.322E-03
CGA:  19    -0.355155586837E+03   -0.11768E-02   -0.11835E-02  7072   0.126E-01 0.239E-03
CGA:  20    -0.355156376170E+03   -0.78933E-03   -0.79174E-03  7072   0.892E-02-0.122E-03
CGA:  21    -0.355156679480E+03   -0.30331E-03   -0.30541E-03  7072   0.919E-02 0.226E-04
CGA:  22    -0.355157121192E+03   -0.44171E-03   -0.44175E-03  7072   0.362E-02-0.308E-04
CGA:  23    -0.355157436624E+03   -0.31543E-03   -0.31557E-03  7072   0.261E-02-0.776E-05
CGA:  24    -0.355157640491E+03   -0.20387E-03   -0.20204E-03  7072   0.329E-02 0.558E-04
CGA:  25    -0.355157740079E+03   -0.99589E-04   -0.99112E-04  7072   0.212E-02-0.152E-05
CGA:  26    -0.355157869380E+03   -0.12930E-03   -0.12933E-03  7072   0.159E-02-0.384E-05
CGA:  27    -0.355157943189E+03   -0.73809E-04   -0.73824E-04  7072   0.112E-02-0.284E-06
CGA:  28    -0.355158006951E+03   -0.63762E-04   -0.63780E-04  7072   0.533E-03-0.279E-05
CGA:  29    -0.355158048765E+03   -0.41814E-04   -0.41865E-04  7072   0.627E-03-0.204E-05
CGA:  30    -0.355158067518E+03   -0.18754E-04   -0.18689E-04  7072   0.451E-03-0.254E-05
CGA:  31    -0.355158094710E+03   -0.27191E-04   -0.27175E-04  7072   0.207E-03 0.115E-05
SDA:  32    -0.355158111405E+03   -0.16695E-04   -0.16714E-04  7072   0.140E-03-0.725E-06
CGA:  33    -0.355158116132E+03   -0.47273E-05   -0.47359E-05  7072   0.720E-04 0.332E-06
  52 F= -.35515812E+03 E0= -.35513975E+03  d E =0.800124E-01  mag=     0.0599
       N       E                     dE             d eps       ncg     rms          ort
SDA:   1    -0.347131307091E+03    0.80268E+01    0.00000E+00  7072   0.426E+02 0.000E+00
CGA:   2    -0.348274691431E+03   -0.11434E+01   -0.14492E+01  7072   0.434E+02-0.646E+00
CGA:   3    -0.351309461506E+03   -0.30348E+01   -0.30998E+01  7072   0.535E+02-0.321E+01
CGA:   4    -0.353353501222E+03   -0.20440E+01   -0.20688E+01  7072   0.220E+02-0.316E+00
CGA:   5    -0.353935976500E+03   -0.58248E+00   -0.47013E+00  7072   0.737E+01 0.338E+01
CGA:   6    -0.354382580902E+03   -0.44660E+00   -0.44653E+00  7072   0.934E+01 0.311E-01
CGA:   7    -0.354876558415E+03   -0.49398E+00   -0.49401E+00  7072   0.434E+01-0.141E-01
CGA:   8    -0.355035743930E+03   -0.15919E+00   -0.15658E+00  7072   0.231E+01-0.742E-02
CGA:   9    -0.355083097274E+03   -0.47353E-01   -0.51493E-01  7072   0.109E+01-0.109E+00
CGA:  10    -0.355153825886E+03   -0.70729E-01   -0.71078E-01  7072   0.935E+00-0.146E-01
CGA:  11    -0.355194804845E+03   -0.40979E-01   -0.41255E-01  7072   0.437E+00 0.193E-01
CGA:  12    -0.355208704206E+03   -0.13899E-01   -0.13870E-01  7072   0.328E+00 0.142E-04
CGA:  13    -0.355221340833E+03   -0.12637E-01   -0.12770E-01  7072   0.108E+00 0.341E-02
CGA:  14    -0.355227544506E+03   -0.62037E-02   -0.62212E-02  7072   0.158E+00-0.131E-02
CGA:  15    -0.355236063325E+03   -0.85188E-02   -0.84792E-02  7072   0.844E-01 0.422E-02
CGA:  16    -0.355238524540E+03   -0.24612E-02   -0.24539E-02  7072   0.307E-01 0.542E-04
CGA:  17    -0.355239545242E+03   -0.10207E-02   -0.10294E-02  7072   0.194E-01 0.497E-04
CGA:  18    -0.355241357890E+03   -0.18126E-02   -0.18134E-02  7072   0.251E-01-0.184E-04
CGA:  19    -0.355242398637E+03   -0.10407E-02   -0.10444E-02  7072   0.206E-01 0.146E-03
CGA:  20    -0.355243106265E+03   -0.70763E-03   -0.70632E-03  7072   0.680E-02-0.133E-04
CGA:  21    -0.355243406284E+03   -0.30002E-03   -0.30024E-03  7072   0.464E-02 0.205E-04
CGA:  22    -0.355243612430E+03   -0.20615E-03   -0.20611E-03  7072   0.422E-02-0.676E-05
CGA:  23    -0.355243925753E+03   -0.31332E-03   -0.31183E-03  7072   0.644E-02 0.492E-04
CGA:  24    -0.355244152538E+03   -0.22679E-03   -0.22657E-03  7072   0.270E-02 0.494E-05
CGA:  25    -0.355244261668E+03   -0.10913E-03   -0.10925E-03  7072   0.130E-02 0.998E-05
CGA:  26    -0.355244349087E+03   -0.87418E-04   -0.87367E-04  7072   0.219E-02 0.199E-05
CGA:  27    -0.355244423337E+03   -0.74250E-04   -0.74468E-04  7072   0.692E-03 0.574E-05
CGA:  28    -0.355244477147E+03   -0.53809E-04   -0.53675E-04  7072   0.122E-02 0.448E-05
CGA:  29    -0.355244526492E+03   -0.49345E-04   -0.49445E-04  7072   0.585E-03 0.832E-05
CGA:  30    -0.355244546728E+03   -0.20236E-04   -0.20244E-04  7072   0.277E-03 0.835E-06
CGA:  31    -0.355244562231E+03   -0.15503E-04   -0.15487E-04  7072   0.377E-03 0.202E-05
SDA:  32    -0.355244583106E+03   -0.20875E-04   -0.20871E-04  7072   0.230E-03 0.529E-06
CGA:  33    -0.355244589786E+03   -0.66798E-05   -0.66987E-05  7072   0.169E-03 0.680E-06
  53 F= -.35524459E+03 E0= -.35522584E+03  d E =-.864737E-01  mag=     0.0542
       N       E                     dE             d eps       ncg     rms          ort
SDA:   1    -0.353137992628E+03    0.21066E+01    0.00000E+00  7072   0.574E+01 0.000E+00
CGA:   2    -0.353946815825E+03   -0.80882E+00   -0.77875E+00  7072   0.164E+02 0.401E+00
CGA:   3    -0.354531004911E+03   -0.58419E+00   -0.57174E+00  7072   0.882E+01-0.815E-01
CGA:   4    -0.354852731724E+03   -0.32173E+00   -0.32368E+00  7072   0.246E+01-0.275E-01
CGA:   5    -0.355033324731E+03   -0.18059E+00   -0.18311E+00  7072   0.292E+01-0.825E-01
CGA:   6    -0.355151504986E+03   -0.11818E+00   -0.11796E+00  7072   0.864E+00-0.687E-02
CGA:   7    -0.355190267534E+03   -0.38763E-01   -0.38642E-01  7072   0.241E+00-0.690E-02
CGA:   8    -0.355211375019E+03   -0.21107E-01   -0.21051E-01  7072   0.361E+00 0.144E-02
CGA:   9    -0.355220174029E+03   -0.87990E-02   -0.87741E-02  7072   0.134E+00 0.423E-03
CGA:  10    -0.355227953544E+03   -0.77795E-02   -0.77695E-02  7072   0.641E-01 0.931E-03
CGA:  11    -0.355230757876E+03   -0.28043E-02   -0.28013E-02  7072   0.357E-01-0.124E-03
CGA:  12    -0.355232714968E+03   -0.19571E-02   -0.19571E-02  7072   0.291E-01-0.635E-05
CGA:  13    -0.355234943928E+03   -0.22290E-02   -0.22289E-02  7072   0.780E-02-0.133E-06
CGA:  14    -0.355235462970E+03   -0.51904E-03   -0.51916E-03  7072   0.532E-02-0.978E-05
CGA:  15    -0.355235794780E+03   -0.33181E-03   -0.33195E-03  7072   0.627E-02-0.130E-04
CGA:  16    -0.355236054946E+03   -0.26017E-03   -0.26058E-03  7072   0.355E-02 0.499E-05
CGA:  17    -0.355236184849E+03   -0.12990E-03   -0.12976E-03  7072   0.297E-02-0.571E-05
CGA:  18    -0.355236313240E+03   -0.12839E-03   -0.12842E-03  7072   0.108E-02 0.889E-06
CGA:  19    -0.355236395218E+03   -0.81978E-04   -0.81959E-04  7072   0.813E-03 0.758E-06
CGA:  20    -0.355236469253E+03   -0.74035E-04   -0.73909E-04  7072   0.815E-03 0.323E-05
CGA:  21    -0.355236503210E+03   -0.33956E-04   -0.33966E-04  7072   0.717E-03 0.124E-05
CGA:  22    -0.355236543949E+03   -0.40739E-04   -0.40721E-04  7072   0.708E-03 0.705E-05
CGA:  23    -0.355236562685E+03   -0.18736E-04   -0.18745E-04  7072   0.199E-03 0.231E-05
CGA:  24    -0.355236579269E+03   -0.16584E-04   -0.16524E-04  7072   0.232E-03 0.206E-05
CGA:  25    -0.355236600903E+03   -0.21634E-04   -0.21485E-04  7072   0.107E-03 0.400E-05
CGA:  26    -0.355236605330E+03   -0.44269E-05   -0.44482E-05  7072   0.923E-04 0.131E-05
  54 F= -.35523661E+03 E0= -.35521773E+03  d E =0.798446E-02  mag=     0.0582
       N       E                     dE             d eps       ncg     rms          ort
SDA:   1    -0.354892535319E+03    0.34407E+00    0.00000E+00  7072   0.156E+01 0.000E+00
CGA:   2    -0.354946397311E+03   -0.53862E-01   -0.53465E-01  7072   0.206E+01-0.984E-04
CGA:   3    -0.355098283772E+03   -0.15189E+00   -0.15188E+00  7072   0.115E+01 0.469E-03
CGA:   4    -0.355157605736E+03   -0.59322E-01   -0.59309E-01  7072   0.554E+00-0.147E-02
CGA:   5    -0.355196736558E+03   -0.39131E-01   -0.38893E-01  7072   0.620E+00 0.111E-01
CGA:   6    -0.355224503588E+03   -0.27767E-01   -0.27410E-01  7072   0.214E+00-0.652E-02
CGA:   7    -0.355233542325E+03   -0.90387E-02   -0.90652E-02  7072   0.103E+00 0.519E-03
CGA:   8    -0.355236404138E+03   -0.28618E-02   -0.28619E-02  7072   0.653E-01 0.265E-05
CGA:   9    -0.355240881954E+03   -0.44778E-02   -0.44712E-02  7072   0.265E-01 0.326E-03
CGA:  10    -0.355242606048E+03   -0.17241E-02   -0.17260E-02  7072   0.281E-01-0.115E-03
CGA:  11    -0.355243518529E+03   -0.91248E-03   -0.91303E-03  7072   0.808E-02 0.138E-04
CGA:  12    -0.355243826343E+03   -0.30781E-03   -0.30739E-03  7072   0.894E-02-0.976E-06
CGA:  13    -0.355244350889E+03   -0.52455E-03   -0.52427E-03  7072   0.566E-02 0.340E-04
CGA:  14    -0.355244689028E+03   -0.33814E-03   -0.33795E-03  7072   0.168E-02 0.205E-04
CGA:  15    -0.355244779079E+03   -0.90051E-04   -0.90049E-04  7072   0.175E-02 0.704E-05
CGA:  16    -0.355244847828E+03   -0.68749E-04   -0.68728E-04  7072   0.145E-02 0.257E-05
CGA:  17    -0.355244910299E+03   -0.62470E-04   -0.62539E-04  7072   0.733E-03 0.719E-05
CGA:  18    -0.355244942802E+03   -0.32504E-04   -0.32513E-04  7072   0.583E-03 0.135E-05
CGA:  19    -0.355244988773E+03   -0.45971E-04   -0.45866E-04  7072   0.214E-03 0.373E-05
CGA:  20    -0.355244997817E+03   -0.90441E-05   -0.90351E-05  7072   0.273E-03-0.863E-06
CGA:  21    -0.355245010002E+03   -0.12184E-04   -0.12186E-04  7072   0.168E-03 0.155E-06
CGA:  22    -0.355245024263E+03   -0.14261E-04   -0.14350E-04  7072   0.220E-03-0.270E-05
CGA:  23    -0.355245032436E+03   -0.81729E-05   -0.81476E-05  7072   0.847E-04-0.180E-05
  55 F= -.35524503E+03 E0= -.35522609E+03  d E =-.842711E-02  mag=     0.0470
       N       E                     dE             d eps       ncg     rms          ort
SDA:   1    -0.355217837577E+03    0.27187E-01    0.00000E+00  7072   0.616E+00 0.000E+00
CGA:   2    -0.355226719844E+03   -0.88823E-02   -0.87897E-02  7072   0.565E-01 0.438E-02
CGA:   3    -0.355234696255E+03   -0.79764E-02   -0.79660E-02  7072   0.114E+00 0.137E-03
CGA:   4    -0.355240609613E+03   -0.59134E-02   -0.59140E-02  7072   0.488E-01 0.531E-04
CGA:   5    -0.355242122879E+03   -0.15133E-02   -0.14996E-02  7072   0.304E-01 0.173E-03
CGA:   6    -0.355243671869E+03   -0.15490E-02   -0.15498E-02  7072   0.313E-01 0.860E-04
CGA:   7    -0.355244747274E+03   -0.10754E-02   -0.10735E-02  7072   0.953E-02 0.980E-05
CGA:   8    -0.355245233508E+03   -0.48623E-03   -0.48626E-03  7072   0.244E-02 0.520E-05
CGA:   9    -0.355245482331E+03   -0.24882E-03   -0.24886E-03  7072   0.142E-02-0.568E-06
CGA:  10    -0.355245574326E+03   -0.91994E-04   -0.92023E-04  7072   0.192E-02-0.204E-05
CGA:  11    -0.355245631637E+03   -0.57312E-04   -0.57415E-04  7072   0.573E-03 0.171E-05
CGA:  12    -0.355245650616E+03   -0.18979E-04   -0.18948E-04  7072   0.393E-03-0.977E-06
CGA:  13    -0.355245675976E+03   -0.25360E-04   -0.25353E-04  7072   0.284E-03 0.437E-06
CGA:  14    -0.355245695262E+03   -0.19287E-04   -0.19289E-04  7072   0.113E-03-0.129E-06
CGA:  15    -0.355245703104E+03   -0.78411E-05   -0.78303E-05  7072   0.675E-04 0.759E-06
  56 F= -.35524570E+03 E0= -.35522682E+03  d E =-.670668E-03  mag=     0.0520
