       N       E                     dE             d eps       ncg     rms          ort
DAV:   1     0.684376236621E+04    0.68438E+04   -0.31212E+05 26048   0.175E+03
DAV:   2     0.116884851906E+03   -0.67269E+04   -0.62709E+04 26048   0.506E+02
DAV:   3    -0.760314812647E+03   -0.87720E+03   -0.86407E+03 26048   0.189E+02
DAV:   4    -0.800552986133E+03   -0.40238E+02   -0.40006E+02 26048   0.383E+01
DAV:   5    -0.803792328453E+03   -0.32393E+01   -0.32321E+01 26048   0.747E+00
SDA:   6    -0.650439023855E+03    0.15335E+03   -0.32321E+01 26048   0.476E+02 0.000E+00
CGA:   7    -0.657387365487E+03   -0.69483E+01   -0.69926E+01 26048   0.527E+01 0.505E+00
CGA:   8    -0.658352633271E+03   -0.96527E+00   -0.96762E+00 26048   0.174E+01 0.152E+00
CGA:   9    -0.658690523858E+03   -0.33789E+00   -0.33858E+00 26048   0.588E+00 0.879E-01
CGA:  10    -0.658827410621E+03   -0.13689E+00   -0.13617E+00 26048   0.303E+00 0.289E-01
CGA:  11    -0.658898603632E+03   -0.71193E-01   -0.71043E-01 26048   0.152E+00 0.497E-02
CGA:  12    -0.658942282138E+03   -0.43679E-01   -0.42849E-01 26048   0.713E-01 0.102E-01
CGA:  13    -0.658957989319E+03   -0.15707E-01   -0.15663E-01 26048   0.240E-01 0.136E-01
CGA:  14    -0.658964081682E+03   -0.60924E-02   -0.60214E-02 26048   0.895E-02 0.893E-02
CGA:  15    -0.658966525444E+03   -0.24438E-02   -0.24576E-02 26048   0.419E-02 0.460E-02
CGA:  16    -0.658967786878E+03   -0.12614E-02   -0.11474E-02 26048   0.218E-02 0.160E-02
CGA:  17    -0.658968850569E+03   -0.10637E-02   -0.89572E-03 26048   0.119E-02 0.185E-02
CGA:  18    -0.658969200009E+03   -0.34944E-03   -0.31066E-03 26048   0.686E-03 0.781E-03
CGA:  19    -0.658969360703E+03   -0.16069E-03   -0.15407E-03 26048   0.521E-03 0.600E-03
CGA:  20    -0.658969486690E+03   -0.12599E-03   -0.11913E-03 26048   0.411E-03 0.472E-03
CGA:  21    -0.658969577824E+03   -0.91134E-04   -0.89728E-04 26048   0.330E-03 0.378E-03
CGA:  22    -0.658969645314E+03   -0.67491E-04   -0.69187E-04 26048   0.270E-03 0.309E-03
CGA:  23    -0.658969696977E+03   -0.51663E-04   -0.54773E-04 26048   0.225E-03 0.256E-03
CGA:  24    -0.658969737110E+03   -0.40133E-04   -0.44039E-04 26048   0.189E-03 0.215E-03
CGA:  25    -0.658969769077E+03   -0.31967E-04   -0.36056E-04 26048   0.160E-03 0.181E-03
CGA:  26    -0.658969794748E+03   -0.25671E-04   -0.29772E-04 26048   0.137E-03 0.155E-03
CGA:  27    -0.658969815663E+03   -0.20915E-04   -0.24832E-04 26048   0.118E-03 0.132E-03
CGA:  28    -0.658969832738E+03   -0.17075E-04   -0.20791E-04 26048   0.101E-03 0.114E-03
CGA:  29    -0.658969846844E+03   -0.14106E-04   -0.17538E-04 26048   0.878E-04 0.986E-04
CGA:  30    -0.658969858478E+03   -0.11634E-04   -0.14816E-04 26048   0.763E-04 0.855E-04
CGA:  31    -0.658969868259E+03   -0.97814E-05   -0.12636E-04 26048   0.665E-04 0.743E-04
CGA:  32    -0.658969876402E+03   -0.81434E-05   -0.10756E-04 26048   0.582E-04 0.648E-04
   1 F= -.65896988E+03 E0= -.65896988E+03  d E =-.658970E+03  mag=    60.0000
