       N       E                     dE             d eps       ncg     rms          rms(c)
DAV:   1     0.627640395762E+04    0.62764E+04   -0.27077E+05 35808   0.155E+03
DAV:   2     0.398059834093E+03   -0.58783E+04   -0.55689E+04 35744   0.468E+02
DAV:   3    -0.348745417450E+03   -0.74681E+03   -0.72548E+03 40352   0.172E+02
DAV:   4    -0.384969447364E+03   -0.36224E+02   -0.35666E+02 47664   0.404E+01
DAV:   5    -0.387638809707E+03   -0.26694E+01   -0.26652E+01 66480   0.808E+00    0.396E-01
DAV:   6    -0.387801476318E+03   -0.16267E+00   -0.54428E-01 50752   0.124E+00    0.425E-01
DAV:   7    -0.387804329343E+03   -0.28530E-02   -0.29349E-02 62960   0.274E-01    0.576E-01
DAV:   8    -0.387804007540E+03    0.32180E-03   -0.86714E-03 51952   0.143E-01    0.327E-01
DAV:   9    -0.387804010535E+03   -0.29951E-05   -0.14377E-03 50096   0.739E-02    0.188E-01
DAV:  10    -0.387803985406E+03    0.25128E-04   -0.24279E-04 40432   0.374E-02    0.117E-01
DAV:  11    -0.387803992568E+03   -0.71611E-05   -0.58761E-05 32080   0.185E-02
   1 F= -.38780399E+03 E0= -.38779118E+03  d E =-.387804E+03  mag=    34.0000
