       N       E                     dE             d eps       ncg     rms          ort
DAV:   1     0.501869360568E+04    0.50187E+04   -0.26911E+05 27440   0.173E+03
DAV:   2    -0.137196651719E+03   -0.51559E+04   -0.47589E+04 27440   0.480E+02
DAV:   3    -0.630170681630E+03   -0.49297E+03   -0.48429E+03 27440   0.165E+02
DAV:   4    -0.640567741230E+03   -0.10397E+02   -0.10078E+02 27440   0.247E+01
DAV:   5    -0.640842810641E+03   -0.27507E+00   -0.27081E+00 27440   0.365E+00
SDA:   6    -0.507403645550E+03    0.13344E+03   -0.27081E+00 27440   0.338E+02 0.000E+00
CGA:   7    -0.512297846196E+03   -0.48942E+01   -0.49104E+01 27440   0.340E+01 0.980E-01
CGA:   8    -0.512970172196E+03   -0.67233E+00   -0.67232E+00 27440   0.841E+00 0.263E-01
CGA:   9    -0.513131484205E+03   -0.16131E+00   -0.16128E+00 27440   0.284E+00-0.417E-02
CGA:  10    -0.513183312813E+03   -0.51829E-01   -0.51560E-01 27440   0.957E-01-0.186E-01
CGA:  11    -0.513204876657E+03   -0.21564E-01   -0.23185E-01 27440   0.549E-01-0.257E-01
CGA:  12    -0.513213992533E+03   -0.91159E-02   -0.14118E-01 27440   0.636E-01-0.329E-01
CGA:  13    -0.513222665866E+03   -0.86733E-02   -0.87255E-02 27440   0.112E-01 0.729E-03
CGA:  14    -0.513225559310E+03   -0.28934E-02   -0.28665E-02 27440   0.290E-02 0.541E-03
CGA:  15    -0.513226533519E+03   -0.97421E-03   -0.11689E-02 27440   0.201E-02-0.110E-02
CGA:  16    -0.513227212519E+03   -0.67900E-03    0.50519E-03 27440   0.651E-03-0.157E-04
CGA:  17    -0.513227729543E+03   -0.51702E-03    0.80552E-04 27440   0.306E-03 0.768E-05
CGA:  18    -0.513228116764E+03   -0.38722E-03    0.17435E-04 27440   0.144E-03 0.739E-04
CGA:  19    -0.513228364156E+03   -0.24739E-03    0.86129E-05 27440   0.529E-04 0.226E-04
CGA:  20    -0.513228486231E+03   -0.12208E-03    0.18047E-05 27440   0.182E-04 0.103E-04
CGA:  21    -0.513228546412E+03   -0.60181E-04    0.42803E-06 27440   0.724E-05 0.471E-05
CGA:  22    -0.513228581601E+03   -0.35189E-04    0.12260E-06 27440   0.401E-05 0.319E-05
CGA:  23    -0.513228609494E+03   -0.27893E-04    0.60548E-07 27440   0.254E-05 0.243E-05
CGA:  24    -0.513228616514E+03   -0.70206E-05    0.50070E-07 27440   0.105E-05 0.132E-05
   1 F= -.51322862E+03 E0= -.51322862E+03  d E =-.513229E+03  mag=    30.0000
