       N       E                     dE             d eps       ncg     rms          rms(c)
DAV:   1     0.824898968218E+03    0.82490E+03   -0.43761E+04260292   0.234E+03
DAV:   2    -0.315504202122E+02   -0.85645E+03   -0.83131E+03232977   0.679E+02
DAV:   3    -0.793841735853E+02   -0.47834E+02   -0.45791E+02248574   0.188E+02
DAV:   4    -0.803628114854E+02   -0.97864E+00   -0.97619E+00253857   0.276E+01
DAV:   5    -0.803879653167E+02   -0.25154E-01   -0.25153E-01258411   0.426E+00    0.254E+01
DAV:   6    -0.680787142608E+02    0.12309E+02   -0.64441E+01243318   0.102E+02    0.265E+01
DAV:   7    -0.644168539724E+02    0.36619E+01   -0.11950E+01252261   0.423E+01    0.518E+00
DAV:   8    -0.646284141261E+02   -0.21156E+00   -0.33447E-01243963   0.496E+00    0.249E+00
DAV:   9    -0.646376107611E+02   -0.91966E-02   -0.24843E-02250251   0.145E+00    0.104E+00
DAV:  10    -0.646559092776E+02   -0.18299E-01   -0.19122E-02273858   0.120E+00    0.422E-01
DAV:  11    -0.646573440386E+02   -0.14348E-02   -0.34131E-03271737   0.129E+00    0.351E-01
DAV:  12    -0.646599377004E+02   -0.25937E-02   -0.49437E-03262017   0.932E-01    0.129E-01
DAV:  13    -0.646617512329E+02   -0.18135E-02   -0.11744E-03272904   0.300E-01    0.842E-02
DAV:  14    -0.646617914216E+02   -0.40189E-04   -0.17608E-04260703   0.283E-01    0.768E-02
DAV:  15    -0.646617573475E+02    0.34074E-04   -0.90859E-05238041   0.203E-01    0.277E-02
DAV:  16    -0.646617744871E+02   -0.17140E-04   -0.30997E-05199113   0.554E-02    0.149E-02
DAV:  17    -0.646618234849E+02   -0.48998E-04   -0.74407E-06123834   0.569E-02    0.167E-02
DAV:  18    -0.646618388710E+02   -0.15386E-04   -0.47079E-06119058   0.498E-02    0.389E-03
DAV:  19    -0.646618416277E+02   -0.27567E-05   -0.13591E-06118212   0.128E-02
   1 F= -.64661842E+02 E0= -.64658734E+02  d E =-.646618E+02  mag=     3.1688
       N       E                     dE             d eps       ncg     rms          rms(c)
DAV:   1    -0.992535666042E+02   -0.34592E+02   -0.38353E+02236652   0.231E+02    0.606E+01
DAV:   2    -0.717953147673E+02    0.27458E+02   -0.21204E+02236232   0.194E+02    0.314E+01
DAV:   3    -0.653546282425E+02    0.64407E+01   -0.33222E+01247917   0.694E+01    0.151E+01
DAV:   4    -0.649681633275E+02    0.38646E+00   -0.72154E-01251163   0.750E+00    0.942E+00
DAV:   5    -0.647230466367E+02    0.24512E+00   -0.86607E-02271596   0.247E+00    0.557E+00
DAV:   6    -0.646532554094E+02    0.69791E-01   -0.69492E-02245373   0.333E+00    0.888E-01
DAV:   7    -0.646536495130E+02   -0.39410E-03   -0.23692E-02249639   0.346E+00    0.531E-01
DAV:   8    -0.646559537702E+02   -0.23043E-02   -0.70612E-03264117   0.136E+00    0.190E-01
DAV:   9    -0.646568261896E+02   -0.87242E-03   -0.10410E-03235749   0.399E-01    0.115E-01
DAV:  10    -0.646567307981E+02    0.95391E-04   -0.21878E-04255459   0.365E-01    0.957E-02
DAV:  11    -0.646563753825E+02    0.35542E-03   -0.13103E-04239577   0.200E-01    0.359E-02
DAV:  12    -0.646566622041E+02   -0.28682E-03   -0.50044E-05214401   0.765E-02    0.160E-02
DAV:  13    -0.646566332970E+02    0.28907E-04   -0.80004E-06124416   0.639E-02    0.138E-02
DAV:  14    -0.646565924971E+02    0.40800E-04   -0.37200E-06116772   0.389E-02    0.464E-03
DAV:  15    -0.646566101184E+02   -0.17621E-04   -0.10160E-06116682   0.109E-02    0.215E-03
DAV:  16    -0.646566185782E+02   -0.84598E-05   -0.24982E-07116526   0.563E-03
   2 F= -.64656619E+02 E0= -.64653757E+02  d E =0.522305E-02  mag=     2.8764
       N       E                     dE             d eps       ncg     rms          rms(c)
DAV:   1    -0.739104526244E+02   -0.92538E+01   -0.91027E+01233280   0.129E+02    0.316E+01
DAV:   2    -0.678214126548E+02    0.60890E+01   -0.83947E+01241596   0.977E+01    0.188E+01
DAV:   3    -0.647602973569E+02    0.30611E+01   -0.91581E+00245460   0.413E+01    0.742E+00
DAV:   4    -0.648624380081E+02   -0.10214E+00   -0.20669E-01251217   0.394E+00    0.489E+00
DAV:   5    -0.647934404006E+02    0.68998E-01   -0.28722E-01239238   0.560E+00    0.189E+00
DAV:   6    -0.647882144737E+02    0.52259E-02   -0.57726E-02252111   0.356E+00    0.751E-01
DAV:   7    -0.647881037711E+02    0.11070E-03   -0.14193E-02253062   0.260E+00    0.372E-01
DAV:   8    -0.647893039255E+02   -0.12002E-02   -0.28794E-03247866   0.876E-01    0.130E-01
DAV:   9    -0.647890854218E+02    0.21850E-03   -0.53561E-04266499   0.396E-01    0.114E-01
DAV:  10    -0.647889533190E+02    0.13210E-03   -0.23769E-04259815   0.386E-01    0.541E-02
DAV:  11    -0.647889173745E+02    0.35945E-04   -0.83250E-05237516   0.124E-01    0.257E-02
DAV:  12    -0.647888694230E+02    0.47951E-04   -0.11928E-05130221   0.630E-02    0.173E-02
DAV:  13    -0.647888490409E+02    0.20382E-04   -0.70838E-06116664   0.591E-02    0.863E-03
DAV:  14    -0.647888162073E+02    0.32834E-04   -0.33412E-06116574   0.261E-02    0.555E-03
DAV:  15    -0.647888204596E+02   -0.42523E-05   -0.11912E-06116634   0.165E-02
   3 F= -.64788820E+02 E0= -.64785770E+02  d E =-.126979E+00  mag=     2.9518
