       N       E                     dE             d eps       ncg     rms          ort
DAV:   1     0.528271075305E+04    0.52827E+04   -0.27204E+05  7488   0.169E+03
DAV:   2     0.202242034343E+03   -0.50805E+04   -0.47116E+04  7488   0.468E+02
DAV:   3    -0.318187263530E+03   -0.52043E+03   -0.50566E+03  7488   0.163E+02
DAV:   4    -0.332650549907E+03   -0.14463E+02   -0.14338E+02  7488   0.265E+01
DAV:   5    -0.333237767759E+03   -0.58722E+00   -0.58317E+00  7488   0.384E+00
SDA:   6    -0.333807737451E+03   -0.56997E+00   -0.58317E+00  7488   0.572E+01 0.000E+00
CGA:   7    -0.333842521470E+03   -0.34784E-01   -0.67547E-01  7488   0.344E+01-0.291E+01
CGA:   8    -0.333856706292E+03   -0.14185E-01   -0.31900E-01  7488   0.135E+01-0.192E+01
CGA:   9    -0.333864646189E+03   -0.79399E-02   -0.96238E-02  7488   0.146E+00-0.238E+00
CGA:  10    -0.333867201543E+03   -0.25554E-02   -0.26101E-02  7488   0.155E+00-0.232E-02
CGA:  11    -0.333870875142E+03   -0.36736E-02   -0.37196E-02  7488   0.186E+00-0.169E-02
CGA:  12    -0.333875624015E+03   -0.47489E-02   -0.46683E-02  7488   0.209E+00 0.283E-02
CGA:  13    -0.333879716146E+03   -0.40921E-02   -0.40428E-02  7488   0.127E+00 0.233E-02
CGA:  14    -0.333881955164E+03   -0.22390E-02   -0.22669E-02  7488   0.988E-01-0.147E-02
CGA:  15    -0.333884700835E+03   -0.27457E-02   -0.28328E-02  7488   0.154E+00-0.260E-02
CGA:  16    -0.333887656813E+03   -0.29560E-02   -0.31251E-02  7488   0.832E-01-0.733E-02
CGA:  17    -0.333888678512E+03   -0.10217E-02   -0.10685E-02  7488   0.315E-01-0.326E-02
CGA:  18    -0.333889415671E+03   -0.73716E-03   -0.74406E-03  7488   0.481E-01-0.249E-03
CGA:  19    -0.333891130890E+03   -0.17152E-02   -0.17209E-02  7488   0.855E-01-0.133E-03
CGA:  20    -0.333892700556E+03   -0.15697E-02   -0.15585E-02  7488   0.387E-01 0.531E-03
CGA:  21    -0.333893279033E+03   -0.57848E-03   -0.57427E-03  7488   0.175E-01 0.236E-03
CGA:  22    -0.333893641717E+03   -0.36268E-03   -0.36036E-03  7488   0.169E-01 0.737E-04
CGA:  23    -0.333894143259E+03   -0.50154E-03   -0.49944E-03  7488   0.290E-01 0.169E-04
CGA:  24    -0.333894982453E+03   -0.83919E-03   -0.83587E-03  7488   0.324E-01 0.115E-04
CGA:  25    -0.333895462466E+03   -0.48001E-03   -0.48015E-03  7488   0.877E-02-0.114E-03
CGA:  26    -0.333895574068E+03   -0.11160E-03   -0.11148E-03  7488   0.324E-02-0.281E-04
CGA:  27    -0.333895659144E+03   -0.85076E-04   -0.84812E-04  7488   0.550E-02-0.104E-04
CGA:  28    -0.333895855730E+03   -0.19659E-03   -0.19595E-03  7488   0.904E-02-0.213E-04
CGA:  29    -0.333896009921E+03   -0.15419E-03   -0.15347E-03  7488   0.383E-02-0.245E-04
CGA:  30    -0.333896069219E+03   -0.59298E-04   -0.58898E-04  7488   0.197E-02-0.406E-06
CGA:  31    -0.333896111200E+03   -0.41981E-04   -0.41781E-04  7488   0.184E-02-0.551E-06
CGA:  32    -0.333896155082E+03   -0.43882E-04   -0.43762E-04  7488   0.197E-02 0.653E-07
CGA:  33    -0.333896197077E+03   -0.41994E-04   -0.41952E-04  7488   0.144E-02 0.123E-05
CGA:  34    -0.333896220720E+03   -0.23643E-04   -0.23704E-04  7488   0.745E-03 0.537E-06
CGA:  35    -0.333896237185E+03   -0.16464E-04   -0.16570E-04  7488   0.929E-03 0.172E-05
CGA:  36    -0.333896268544E+03   -0.31359E-04   -0.31560E-04  7488   0.153E-02 0.613E-05
CGA:  37    -0.333896295267E+03   -0.26723E-04   -0.27044E-04  7488   0.621E-03 0.396E-05
CGA:  38    -0.333896304130E+03   -0.88628E-05   -0.89757E-05  7488   0.310E-03 0.191E-05
   1 F= -.33389630E+03 E0= -.33385608E+03  d E =-.333896E+03  mag=    32.0000
       N       E                     dE             d eps       ncg     rms          ort
SDA:   1    -0.310604195353E+03    0.23292E+02    0.00000E+00  7488   0.763E+03 0.000E+00
CGA:   2    -0.312866675859E+03   -0.22625E+01   -0.15502E+02  7488   0.686E+03-0.541E+03
CGA:   3    -0.316600959880E+03   -0.37343E+01   -0.13500E+02  7488   0.538E+03-0.585E+03
CGA:   4    -0.319063858430E+03   -0.24629E+01   -0.91890E+01  7488   0.751E+03-0.833E+03
CGA:   5    -0.317385573829E+03    0.16783E+01   -0.12646E+02  7488   0.102E+04-0.892E+03
CGA:   6    -0.315056894575E+03    0.23287E+01   -0.18938E+02  7488   0.583E+03-0.501E+03
CGA:   7    -0.332023221323E+03   -0.16966E+02   -0.47746E+01  7488   0.866E+02 0.158E+03
CGA:   8    -0.332474634293E+03   -0.45141E+00   -0.76938E+00  7488   0.682E+02-0.564E+02
CGA:   9    -0.332878130929E+03   -0.40350E+00   -0.50194E+00  7488   0.115E+02-0.161E+02
CGA:  10    -0.332977543403E+03   -0.99412E-01   -0.10597E+00  7488   0.263E+01-0.456E+00
CGA:  11    -0.333129104694E+03   -0.15156E+00   -0.15311E+00  7488   0.146E+02-0.607E-01
CGA:  12    -0.333416447514E+03   -0.28734E+00   -0.29011E+00  7488   0.129E+02-0.206E+00
CGA:  13    -0.333606300592E+03   -0.18985E+00   -0.19016E+00  7488   0.347E+01-0.144E+00
CGA:  14    -0.333646938824E+03   -0.40638E-01   -0.41335E-01  7488   0.261E+01-0.512E-01
CGA:  15    -0.333733454576E+03   -0.86516E-01   -0.86816E-01  7488   0.327E+01 0.370E-01
CGA:  16    -0.333781172361E+03   -0.47718E-01   -0.50103E-01  7488   0.201E+01-0.108E+00
CGA:  17    -0.333802622510E+03   -0.21450E-01   -0.21507E-01  7488   0.601E+00-0.621E-02
CGA:  18    -0.333820638755E+03   -0.18016E-01   -0.18113E-01  7488   0.592E+00 0.786E-02
CGA:  19    -0.333832680010E+03   -0.12041E-01   -0.12105E-01  7488   0.993E+00-0.112E-02
CGA:  20    -0.333854232505E+03   -0.21552E-01   -0.21838E-01  7488   0.612E+00-0.880E-03
CGA:  21    -0.333866767898E+03   -0.12535E-01   -0.12331E-01  7488   0.239E+00 0.228E-02
CGA:  22    -0.333868949205E+03   -0.21813E-02   -0.21824E-02  7488   0.743E-01-0.116E-03
CGA:  23    -0.333871358708E+03   -0.24095E-02   -0.24094E-02  7488   0.137E+00 0.490E-04
CGA:  24    -0.333875022229E+03   -0.36635E-02   -0.36663E-02  7488   0.243E+00 0.197E-03
CGA:  25    -0.333879665446E+03   -0.46432E-02   -0.46808E-02  7488   0.733E-01-0.393E-03
CGA:  26    -0.333880674044E+03   -0.10086E-02   -0.10110E-02  7488   0.450E-01-0.987E-04
CGA:  27    -0.333881352064E+03   -0.67802E-03   -0.68269E-03  7488   0.276E-01-0.146E-03
CGA:  28    -0.333882504832E+03   -0.11528E-02   -0.11496E-02  7488   0.451E-01 0.198E-03
CGA:  29    -0.333883347206E+03   -0.84237E-03   -0.85012E-03  7488   0.494E-01-0.614E-04
CGA:  30    -0.333884115759E+03   -0.76855E-03   -0.76806E-03  7488   0.134E-01 0.934E-05
CGA:  31    -0.333884441800E+03   -0.32604E-03   -0.32628E-03  7488   0.137E-01 0.206E-04
CGA:  32    -0.333884716170E+03   -0.27437E-03   -0.27458E-03  7488   0.201E-01 0.232E-05
CGA:  33    -0.333885328935E+03   -0.61276E-03   -0.61197E-03  7488   0.108E-01 0.172E-03
CGA:  34    -0.333885479531E+03   -0.15060E-03   -0.15040E-03  7488   0.591E-02 0.919E-05
CGA:  35    -0.333885587036E+03   -0.10750E-03   -0.10796E-03  7488   0.452E-02 0.196E-05
CGA:  36    -0.333885798619E+03   -0.21158E-03   -0.21167E-03  7488   0.130E-01-0.362E-05
CGA:  37    -0.333885990815E+03   -0.19220E-03   -0.19516E-03  7488   0.522E-02-0.782E-04
CGA:  38    -0.333886096425E+03   -0.10561E-03   -0.10576E-03  7488   0.166E-02 0.526E-05
SDA:  39    -0.333886124548E+03   -0.28124E-04   -0.28154E-04  7488   0.188E-02 0.594E-07
CGA:  40    -0.333886139059E+03   -0.14511E-04   -0.14510E-04  7488   0.650E-03-0.645E-07
CGA:  41    -0.333886205667E+03   -0.66608E-04   -0.66453E-04  7488   0.259E-02 0.221E-05
CGA:  42    -0.333886271781E+03   -0.66114E-04   -0.66137E-04  7488   0.868E-03 0.349E-05
CGA:  43    -0.333886297770E+03   -0.25988E-04   -0.25987E-04  7488   0.244E-02 0.132E-05
CGA:  44    -0.333886344054E+03   -0.46284E-04   -0.46262E-04  7488   0.931E-03 0.263E-05
CGA:  45    -0.333886392911E+03   -0.48857E-04   -0.48712E-04  7488   0.521E-03 0.596E-05
CGA:  46    -0.333886401780E+03   -0.88687E-05   -0.88833E-05  7488   0.365E-03 0.529E-06
   2 F= -.33388640E+03 E0= -.33384606E+03  d E =0.990235E-02  mag=    32.0000
       N       E                     dE             d eps       ncg     rms          ort
SDA:   1    -0.323766632048E+03    0.10120E+02    0.00000E+00  7488   0.115E+04 0.000E+00
CGA:   2    -0.326365804091E+03   -0.25992E+01   -0.13614E+02  7488   0.848E+03-0.973E+03
CGA:   3    -0.330328559622E+03   -0.39628E+01   -0.87208E+01  7488   0.461E+03-0.701E+03
CGA:   4    -0.332594303829E+03   -0.22657E+01   -0.40044E+01  7488   0.115E+03-0.233E+03
CGA:   5    -0.333280512769E+03   -0.68621E+00   -0.72407E+00  7488   0.236E+01-0.909E+01
CGA:   6    -0.333323453859E+03   -0.42941E-01   -0.42929E-01  7488   0.386E+01-0.717E-03
CGA:   7    -0.333560706973E+03   -0.23725E+00   -0.24122E+00  7488   0.107E+02-0.113E+00
CGA:   8    -0.333698227926E+03   -0.13752E+00   -0.13839E+00  7488   0.224E+01-0.404E-01
CGA:   9    -0.333727903175E+03   -0.29675E-01   -0.29762E-01  7488   0.113E+01-0.360E-02
CGA:  10    -0.333773794094E+03   -0.45891E-01   -0.45425E-01  7488   0.283E+01 0.274E-01
CGA:  11    -0.333824285221E+03   -0.50491E-01   -0.50159E-01  7488   0.912E+00 0.259E-03
CGA:  12    -0.333841310179E+03   -0.17025E-01   -0.16941E-01  7488   0.908E+00-0.125E-02
CGA:  13    -0.333859314749E+03   -0.18005E-01   -0.17667E-01  7488   0.316E+00-0.103E-01
CGA:  14    -0.333866137101E+03   -0.68224E-02   -0.68253E-02  7488   0.522E+00 0.322E-03
CGA:  15    -0.333882481352E+03   -0.16344E-01   -0.16288E-01  7488   0.181E+00 0.625E-02
CGA:  16    -0.333884225332E+03   -0.17440E-02   -0.17435E-02  7488   0.492E-01 0.373E-04
CGA:  17    -0.333886209856E+03   -0.19845E-02   -0.19831E-02  7488   0.140E+00 0.794E-04
CGA:  18    -0.333890141243E+03   -0.39314E-02   -0.39322E-02  7488   0.126E+00-0.170E-03
CGA:  19    -0.333891784364E+03   -0.16431E-02   -0.16517E-02  7488   0.316E-01-0.295E-03
CGA:  20    -0.333892423021E+03   -0.63866E-03   -0.63961E-03  7488   0.300E-01 0.625E-04
CGA:  21    -0.333892913453E+03   -0.49043E-03   -0.49180E-03  7488   0.133E-01 0.329E-05
CGA:  22    -0.333893400399E+03   -0.48695E-03   -0.48685E-03  7488   0.382E-01 0.734E-05
CGA:  23    -0.333894310079E+03   -0.90968E-03   -0.90955E-03  7488   0.104E-01-0.530E-04
CGA:  24    -0.333894423009E+03   -0.11293E-03   -0.11301E-03  7488   0.453E-02-0.180E-05
CGA:  25    -0.333894656212E+03   -0.23320E-03   -0.23302E-03  7488   0.141E-01 0.667E-05
CGA:  26    -0.333894913820E+03   -0.25761E-03   -0.25773E-03  7488   0.518E-02 0.437E-05
CGA:  27    -0.333894983748E+03   -0.69928E-04   -0.69901E-04  7488   0.243E-02 0.115E-05
CGA:  28    -0.333895063969E+03   -0.80221E-04   -0.80265E-04  7488   0.494E-02-0.410E-05
CGA:  29    -0.333895164483E+03   -0.10051E-03   -0.10047E-03  7488   0.313E-02-0.308E-05
CGA:  30    -0.333895258931E+03   -0.94448E-04   -0.94446E-04  7488   0.483E-02-0.455E-07
CGA:  31    -0.333895326037E+03   -0.67106E-04   -0.67156E-04  7488   0.727E-03-0.163E-05
CGA:  32    -0.333895338985E+03   -0.12948E-04   -0.12952E-04  7488   0.101E-02 0.444E-06
CGA:  33    -0.333895408513E+03   -0.69528E-04   -0.69375E-04  7488   0.197E-02 0.339E-05
CGA:  34    -0.333895429157E+03   -0.20644E-04   -0.20669E-04  7488   0.455E-03-0.331E-07
SDA:  35    -0.333895445949E+03   -0.16792E-04   -0.16796E-04  7488   0.116E-02-0.335E-06
CGA:  36    -0.333895453924E+03   -0.79753E-05   -0.79732E-05  7488   0.195E-03-0.111E-06
CGA:  37    -0.333895464677E+03   -0.10753E-04   -0.10782E-04  7488   0.508E-03-0.981E-06
CGA:  38    -0.333895478539E+03   -0.13862E-04   -0.13864E-04  7488   0.284E-03-0.199E-05
CGA:  39    -0.333895482529E+03   -0.39898E-05   -0.39878E-05  7488   0.215E-03-0.602E-06
CGA:  40    -0.333895500709E+03   -0.18181E-04   -0.18214E-04  7488   0.343E-03-0.533E-06
CGA:  41    -0.333895507007E+03   -0.62976E-05   -0.62955E-05  7488   0.423E-03-0.239E-06
   3 F= -.33389551E+03 E0= -.33385531E+03  d E =0.797123E-03  mag=    32.0000
       N       E                     dE             d eps       ncg     rms          ort
SDA:   1    -0.333886937334E+03    0.85634E-02    0.00000E+00  7488   0.606E+00 0.000E+00
CGA:   2    -0.333893072394E+03   -0.61351E-02   -0.63423E-02  7488   0.399E-01-0.139E-01
CGA:   3    -0.333893370300E+03   -0.29791E-03   -0.29748E-03  7488   0.846E-02 0.453E-04
CGA:   4    -0.333894118686E+03   -0.74839E-03   -0.75050E-03  7488   0.474E-01-0.408E-04
CGA:   5    -0.333894775782E+03   -0.65710E-03   -0.66030E-03  7488   0.107E-01-0.124E-03
CGA:   6    -0.333894994824E+03   -0.21904E-03   -0.21889E-03  7488   0.713E-02-0.177E-05
CGA:   7    -0.333895253186E+03   -0.25836E-03   -0.25811E-03  7488   0.120E-01 0.224E-04
CGA:   8    -0.333895386269E+03   -0.13308E-03   -0.13294E-03  7488   0.454E-02 0.878E-05
CGA:   9    -0.333895554217E+03   -0.16795E-03   -0.16817E-03  7488   0.136E-02-0.177E-04
CGA:  10    -0.333895587964E+03   -0.33747E-04   -0.33741E-04  7488   0.237E-02-0.287E-06
CGA:  11    -0.333895664018E+03   -0.76055E-04   -0.76038E-04  7488   0.280E-02 0.315E-05
CGA:  12    -0.333895711197E+03   -0.47179E-04   -0.47169E-04  7488   0.238E-03 0.125E-05
CGA:  13    -0.333895714951E+03   -0.37543E-05   -0.37556E-05  7488   0.355E-03 0.124E-06
CGA:  14    -0.333895735362E+03   -0.20411E-04   -0.20381E-04  7488   0.323E-03 0.977E-06
CGA:  15    -0.333895741400E+03   -0.60379E-05   -0.60391E-05  7488   0.963E-04 0.227E-06
   4 F= -.33389574E+03 E0= -.33385554E+03  d E =0.562730E-03  mag=    32.0000
       N       E                     dE             d eps       ncg     rms          ort
SDA:   1    -0.333756588263E+03    0.13915E+00    0.00000E+00  7488   0.184E+02 0.000E+00
CGA:   2    -0.333862717463E+03   -0.10613E+00   -0.10866E+00  7488   0.133E+00-0.466E+00
CGA:   3    -0.333866813336E+03   -0.40959E-02   -0.40918E-02  7488   0.350E+00 0.596E-03
CGA:   4    -0.333875858401E+03   -0.90451E-02   -0.90554E-02  7488   0.321E+00 0.261E-02
CGA:   5    -0.333882558724E+03   -0.67003E-02   -0.67323E-02  7488   0.216E+00 0.887E-03
CGA:   6    -0.333886549213E+03   -0.39905E-02   -0.39578E-02  7488   0.161E+00-0.254E-04
CGA:   7    -0.333888897075E+03   -0.23479E-02   -0.23320E-02  7488   0.425E-01 0.459E-03
CGA:   8    -0.333891336810E+03   -0.24397E-02   -0.24370E-02  7488   0.191E+00 0.921E-04
CGA:   9    -0.333894071180E+03   -0.27344E-02   -0.27250E-02  7488   0.184E-01 0.312E-03
CGA:  10    -0.333894486441E+03   -0.41526E-03   -0.41568E-03  7488   0.216E-01 0.310E-04
CGA:  11    -0.333895084234E+03   -0.59779E-03   -0.59784E-03  7488   0.370E-01-0.249E-04
CGA:  12    -0.333895690572E+03   -0.60634E-03   -0.60599E-03  7488   0.385E-02 0.522E-05
CGA:  13    -0.333895786009E+03   -0.95437E-04   -0.95453E-04  7488   0.668E-02 0.507E-05
CGA:  14    -0.333895908412E+03   -0.12240E-03   -0.12263E-03  7488   0.303E-02 0.307E-05
CGA:  15    -0.333896048879E+03   -0.14047E-03   -0.14052E-03  7488   0.831E-02-0.234E-05
CGA:  16    -0.333896153582E+03   -0.10470E-03   -0.10463E-03  7488   0.102E-02 0.506E-05
CGA:  17    -0.333896171139E+03   -0.17557E-04   -0.17561E-04  7488   0.690E-03 0.414E-06
CGA:  18    -0.333896194796E+03   -0.23657E-04   -0.23653E-04  7488   0.203E-02 0.448E-06
CGA:  19    -0.333896244504E+03   -0.49708E-04   -0.49708E-04  7488   0.354E-03 0.711E-06
CGA:  20    -0.333896251842E+03   -0.73379E-05   -0.73378E-05  7488   0.528E-03 0.101E-06
CGA:  21    -0.333896263635E+03   -0.11794E-04   -0.11792E-04  7488   0.336E-03 0.767E-07
CGA:  22    -0.333896272832E+03   -0.91966E-05   -0.91957E-05  7488   0.378E-03 0.419E-06
   5 F= -.33389627E+03 E0= -.33385609E+03  d E =0.312982E-04  mag=    32.0000
       N       E                     dE             d eps       ncg     rms          ort
SDA:   1    -0.333860061707E+03    0.36202E-01    0.00000E+00  7488   0.387E+01 0.000E+00
CGA:   2    -0.333885732904E+03   -0.25671E-01   -0.25848E-01  7488   0.262E+00-0.276E-01
CGA:   3    -0.333888416670E+03   -0.26838E-02   -0.27073E-02  7488   0.279E-01-0.145E-02
CGA:   4    -0.333889999107E+03   -0.15824E-02   -0.15809E-02  7488   0.121E+00 0.507E-04
CGA:   5    -0.333892284784E+03   -0.22857E-02   -0.22776E-02  7488   0.476E-01-0.184E-03
CGA:   6    -0.333894195878E+03   -0.19111E-02   -0.18948E-02  7488   0.304E-01 0.956E-03
CGA:   7    -0.333894487191E+03   -0.29131E-03   -0.29155E-03  7488   0.132E-01-0.144E-04
CGA:   8    -0.333895645076E+03   -0.11579E-02   -0.11547E-02  7488   0.105E-01 0.611E-04
CGA:   9    -0.333895746673E+03   -0.10160E-03   -0.10143E-03  7488   0.452E-02 0.146E-04
CGA:  10    -0.333896000554E+03   -0.25388E-03   -0.25362E-03  7488   0.117E-01 0.928E-05
CGA:  11    -0.333896215236E+03   -0.21468E-03   -0.21487E-03  7488   0.444E-02 0.152E-05
CGA:  12    -0.333896257160E+03   -0.41924E-04   -0.41928E-04  7488   0.636E-03 0.274E-06
CGA:  13    -0.333896299287E+03   -0.42127E-04   -0.42096E-04  7488   0.276E-02 0.848E-06
CGA:  14    -0.333896336699E+03   -0.37412E-04   -0.37420E-04  7488   0.900E-03-0.388E-06
CGA:  15    -0.333896365435E+03   -0.28736E-04   -0.28742E-04  7488   0.564E-03-0.108E-05
CGA:  16    -0.333896372783E+03   -0.73481E-05   -0.73427E-05  7488   0.282E-03 0.211E-06
   6 F= -.33389637E+03 E0= -.33385618E+03  d E =-.686530E-04  mag=    32.0000
       N       E                     dE             d eps       ncg     rms          ort
SDA:   1    -0.333602653745E+03    0.29371E+00    0.00000E+00  7488   0.438E+02 0.000E+00
CGA:   2    -0.333883826713E+03   -0.28117E+00   -0.26458E+00  7488   0.111E+01 0.178E+01
CGA:   3    -0.333893015645E+03   -0.91889E-02   -0.82540E-02  7488   0.997E-01 0.106E+00
CGA:   4    -0.333894106795E+03   -0.10911E-02   -0.10916E-02  7488   0.266E-01-0.289E-04
CGA:   5    -0.333894414191E+03   -0.30740E-03   -0.30697E-03  7488   0.172E-01 0.215E-04
CGA:   6    -0.333894829220E+03   -0.41503E-03   -0.41508E-03  7488   0.126E-01-0.122E-03
CGA:   7    -0.333895023824E+03   -0.19460E-03   -0.19443E-03  7488   0.194E-01 0.139E-05
CGA:   8    -0.333895632950E+03   -0.60913E-03   -0.60778E-03  7488   0.101E-01 0.129E-03
CGA:   9    -0.333895736246E+03   -0.10330E-03   -0.10329E-03  7488   0.621E-02 0.267E-05
CGA:  10    -0.333895871745E+03   -0.13550E-03   -0.13552E-03  7488   0.759E-02 0.870E-05
CGA:  11    -0.333896124331E+03   -0.25259E-03   -0.25265E-03  7488   0.110E-01-0.476E-05
CGA:  12    -0.333896208156E+03   -0.83825E-04   -0.83892E-04  7488   0.122E-02-0.442E-05
CGA:  13    -0.333896251854E+03   -0.43698E-04   -0.43701E-04  7488   0.377E-02-0.325E-06
CGA:  14    -0.333896305010E+03   -0.53156E-04   -0.53224E-04  7488   0.187E-02-0.300E-05
CGA:  15    -0.333896346671E+03   -0.41661E-04   -0.41662E-04  7488   0.219E-02-0.121E-06
CGA:  16    -0.333896377050E+03   -0.30379E-04   -0.30339E-04  7488   0.107E-02-0.823E-06
CGA:  17    -0.333896390383E+03   -0.13333E-04   -0.13323E-04  7488   0.378E-03-0.562E-07
CGA:  18    -0.333896394600E+03   -0.42168E-05   -0.42179E-05  7488   0.207E-03-0.363E-07
CGA:  19    -0.333896406616E+03   -0.12016E-04   -0.12017E-04  7488   0.769E-03-0.262E-07
CGA:  20    -0.333896413500E+03   -0.68837E-05   -0.68872E-05  7488   0.872E-04-0.254E-06
   7 F= -.33389641E+03 E0= -.33385624E+03  d E =-.109370E-03  mag=    32.0000
