       N       E                     dE             d eps       ncg     rms          ort
DAV:   1     0.725515556804E+04    0.72552E+04   -0.31229E+05 31280   0.184E+03
DAV:   2     0.307517595072E+03   -0.69476E+04   -0.64427E+04 31280   0.510E+02
DAV:   3    -0.714410286733E+03   -0.10219E+04   -0.99619E+03 31280   0.207E+02
DAV:   4    -0.773787180636E+03   -0.59377E+02   -0.58967E+02 31280   0.458E+01
DAV:   5    -0.777326322696E+03   -0.35391E+01   -0.35231E+01 31280   0.812E+00
SDA:   6    -0.624502407967E+03    0.15282E+03   -0.35231E+01 31280   0.473E+02 0.000E+00
CGA:   7    -0.631526880604E+03   -0.70245E+01   -0.70661E+01 31280   0.558E+01 0.503E+00
CGA:   8    -0.632468485963E+03   -0.94161E+00   -0.94592E+00 31280   0.193E+01 0.147E+00
CGA:   9    -0.632853146142E+03   -0.38466E+00   -0.38485E+00 31280   0.688E+00 0.946E-01
CGA:  10    -0.633005983551E+03   -0.15284E+00   -0.15235E+00 31280   0.370E+00 0.314E-01
CGA:  11    -0.633088913205E+03   -0.82930E-01   -0.82808E-01 31280   0.158E+00 0.605E-02
CGA:  12    -0.633131675678E+03   -0.42762E-01   -0.42331E-01 31280   0.790E-01 0.608E-02
CGA:  13    -0.633148791753E+03   -0.17116E-01   -0.17045E-01 31280   0.239E-01 0.997E-02
CGA:  14    -0.633154941984E+03   -0.61502E-02   -0.60098E-02 31280   0.897E-02 0.631E-02
CGA:  15    -0.633157468601E+03   -0.25266E-02   -0.24746E-02 31280   0.402E-02 0.324E-02
CGA:  16    -0.633158561790E+03   -0.10932E-02   -0.10991E-02 31280   0.233E-02 0.278E-02
CGA:  17    -0.633159108422E+03   -0.54663E-03   -0.52159E-03 31280   0.108E-02 0.119E-02
CGA:  18    -0.633159644320E+03   -0.53590E-03   -0.41522E-03 31280   0.710E-03 0.671E-03
CGA:  19    -0.633159721528E+03   -0.77208E-04   -0.10931E-03 31280   0.461E-03 0.544E-03
CGA:  20    -0.633159819771E+03   -0.98243E-04   -0.97605E-04 31280   0.355E-03 0.422E-03
CGA:  21    -0.633159891909E+03   -0.72138E-04   -0.73365E-04 31280   0.281E-03 0.330E-03
CGA:  22    -0.633159942548E+03   -0.50639E-04   -0.54681E-04 31280   0.227E-03 0.264E-03
CGA:  23    -0.633159979485E+03   -0.36936E-04   -0.42106E-04 31280   0.187E-03 0.216E-03
CGA:  24    -0.633160007197E+03   -0.27712E-04   -0.33207E-04 31280   0.156E-03 0.179E-03
CGA:  25    -0.633160028471E+03   -0.21274E-04   -0.26687E-04 31280   0.132E-03 0.151E-03
CGA:  26    -0.633160045137E+03   -0.16666E-04   -0.21787E-04 31280   0.113E-03 0.128E-03
CGA:  27    -0.633160058435E+03   -0.13298E-04   -0.18025E-04 31280   0.972E-04 0.110E-03
CGA:  28    -0.633160069224E+03   -0.10789E-04   -0.15083E-04 31280   0.842E-04 0.947E-04
CGA:  29    -0.633160078115E+03   -0.88913E-05   -0.12747E-04 31280   0.734E-04 0.823E-04
CGA:  30    -0.633160085550E+03   -0.74348E-05   -0.10868E-04 31280   0.642E-04 0.719E-04
   1 F= -.63316009E+03 E0= -.63316009E+03  d E =-.633160E+03  mag=    48.0000
       N       E                     dE             d eps       ncg     rms          ort
SDA:   1    -0.633142777646E+03    0.17300E-01    0.00000E+00 31280   0.486E-01 0.000E+00
CGA:   2    -0.633154545381E+03   -0.11768E-01   -0.11682E-01 31280   0.266E-01 0.174E-02
CGA:   3    -0.633159045954E+03   -0.45006E-02   -0.45136E-02 31280   0.619E-02 0.435E-03
CGA:   4    -0.633160094787E+03   -0.10488E-02   -0.10548E-02 31280   0.163E-02 0.242E-03
CGA:   5    -0.633160314238E+03   -0.21945E-03   -0.23848E-03 31280   0.435E-03 0.382E-03
CGA:   6    -0.633160358188E+03   -0.43950E-04   -0.63876E-04 31280   0.203E-03 0.286E-03
CGA:   7    -0.633160372590E+03   -0.14402E-04   -0.23958E-04 31280   0.117E-03 0.143E-03
CGA:   8    -0.633160374447E+03   -0.18566E-05   -0.11098E-04 31280   0.912E-04 0.106E-03
   2 F= -.63316037E+03 E0= -.63316037E+03  d E =-.288897E-03  mag=    48.0000
       N       E                     dE             d eps       ncg     rms          ort
SDA:   1    -0.633000196467E+03    0.16018E+00    0.00000E+00 31280   0.435E+00 0.000E+00
CGA:   2    -0.633107088413E+03   -0.10689E+00   -0.10655E+00 31280   0.246E+00 0.459E-02
CGA:   3    -0.633147302937E+03   -0.40215E-01   -0.40211E-01 31280   0.548E-01-0.216E-03
CGA:   4    -0.633156595627E+03   -0.92927E-02   -0.92894E-02 31280   0.137E-01-0.573E-03
CGA:   5    -0.633158755253E+03   -0.21596E-02   -0.21643E-02 31280   0.329E-02 0.285E-03
CGA:   6    -0.633159348379E+03   -0.59313E-03   -0.59255E-03 31280   0.885E-03 0.272E-03
CGA:   7    -0.633159538327E+03   -0.18995E-03   -0.18802E-03 31280   0.289E-03 0.887E-04
CGA:   8    -0.633159596739E+03   -0.58413E-04   -0.57788E-04 31280   0.114E-03 0.103E-03
CGA:   9    -0.633159609681E+03   -0.12942E-04   -0.18529E-04 31280   0.670E-04 0.990E-04
CGA:  10    -0.633159612374E+03   -0.26923E-05   -0.66515E-05 31280   0.460E-04 0.536E-04
   3 F= -.63315961E+03 E0= -.63315961E+03  d E =0.473176E-03  mag=    48.0000
       N       E                     dE             d eps       ncg     rms          ort
SDA:   1    -0.633136399334E+03    0.23210E-01    0.00000E+00 31280   0.640E-01 0.000E+00
CGA:   2    -0.633152533384E+03   -0.16134E-01   -0.16245E-01 31280   0.385E-01-0.127E-02
CGA:   3    -0.633158371236E+03   -0.58379E-02   -0.58426E-02 31280   0.799E-02 0.308E-03
CGA:   4    -0.633159664718E+03   -0.12935E-02   -0.12966E-02 31280   0.183E-02 0.381E-03
CGA:   5    -0.633159982810E+03   -0.31809E-03   -0.31819E-03 31280   0.465E-03 0.376E-04
CGA:   6    -0.633160065152E+03   -0.82342E-04   -0.82129E-04 31280   0.124E-03 0.474E-04
CGA:   7    -0.633160077216E+03   -0.12064E-04   -0.15607E-04 31280   0.435E-04 0.646E-04
CGA:   8    -0.633160078236E+03   -0.10193E-05   -0.36583E-05 31280   0.257E-04 0.321E-04
   4 F= -.63316008E+03 E0= -.63316008E+03  d E =0.731447E-05  mag=    48.0000
       N       E                     dE             d eps       ncg     rms          ort
SDA:   1    -0.633144659769E+03    0.15417E-01    0.00000E+00 31280   0.420E-01 0.000E+00
CGA:   2    -0.633155247545E+03   -0.10588E-01   -0.10697E-01 31280   0.255E-01-0.114E-02
CGA:   3    -0.633159060519E+03   -0.38130E-02   -0.38149E-02 31280   0.531E-02 0.223E-03
CGA:   4    -0.633159921980E+03   -0.86146E-03   -0.86178E-03 31280   0.123E-02 0.309E-03
CGA:   5    -0.633160142597E+03   -0.22062E-03   -0.22051E-03 31280   0.320E-03 0.127E-04
CGA:   6    -0.633160201485E+03   -0.58887E-04   -0.58524E-04 31280   0.909E-04 0.194E-04
CGA:   7    -0.633160210883E+03   -0.93982E-05   -0.11363E-04 31280   0.310E-04 0.434E-04
   5 F= -.63316021E+03 E0= -.63316021E+03  d E =-.125333E-03  mag=    48.0000
       N       E                     dE             d eps       ncg     rms          ort
SDA:   1    -0.633159271199E+03    0.93029E-03    0.00000E+00 31280   0.254E-02 0.000E+00
CGA:   2    -0.633159929830E+03   -0.65863E-03   -0.69150E-03 31280   0.182E-02-0.284E-03
CGA:   3    -0.633160150741E+03   -0.22091E-03   -0.22251E-03 31280   0.363E-03 0.644E-04
CGA:   4    -0.633160195573E+03   -0.44832E-04   -0.47851E-04 31280   0.998E-04 0.885E-04
CGA:   5    -0.633160210609E+03   -0.15036E-04   -0.15985E-04 31280   0.268E-04 0.308E-04
CGA:   6    -0.633160216026E+03   -0.54177E-05   -0.54403E-05 31280   0.119E-04 0.834E-05
   6 F= -.63316022E+03 E0= -.63316022E+03  d E =-.130476E-03  mag=    48.0000
       N       E                     dE             d eps       ncg     rms          ort
SDA:   1    -0.633151803305E+03    0.84073E-02    0.00000E+00 31280   0.224E-01 0.000E+00
CGA:   2    -0.633157954846E+03   -0.61515E-02   -0.61051E-02 31280   0.118E-01 0.387E-03
CGA:   3    -0.633159835061E+03   -0.18802E-02   -0.18801E-02 31280   0.271E-02-0.345E-04
CGA:   4    -0.633160284450E+03   -0.44939E-03   -0.44947E-03 31280   0.607E-03-0.124E-04
CGA:   5    -0.633160378714E+03   -0.94265E-04   -0.94404E-04 31280   0.146E-03 0.345E-04
CGA:   6    -0.633160407552E+03   -0.28837E-04   -0.28595E-04 31280   0.405E-04 0.945E-05
CGA:   7    -0.633160417858E+03   -0.10306E-04   -0.11101E-04 31280   0.229E-04-0.830E-05
CGA:   8    -0.633160420862E+03   -0.30033E-05   -0.30075E-05 31280   0.990E-05 0.547E-05
   7 F= -.63316042E+03 E0= -.63316042E+03  d E =-.204835E-03  mag=    48.0000
       N       E                     dE             d eps       ncg     rms          ort
SDA:   1    -0.633082491463E+03    0.77926E-01    0.00000E+00 31280   0.203E+00 0.000E+00
CGA:   2    -0.633138438632E+03   -0.55947E-01   -0.55801E-01 31280   0.108E+00 0.125E-02
CGA:   3    -0.633155313734E+03   -0.16875E-01   -0.16873E-01 31280   0.247E-01-0.148E-03
CGA:   4    -0.633159425245E+03   -0.41115E-02   -0.41114E-02 31280   0.553E-02-0.990E-04
CGA:   5    -0.633160328535E+03   -0.90329E-03   -0.90360E-03 31280   0.139E-02 0.799E-04
CGA:   6    -0.633160598535E+03   -0.27000E-03   -0.26986E-03 31280   0.384E-03 0.547E-05
CGA:   7    -0.633160683793E+03   -0.85258E-04   -0.88289E-04 31280   0.158E-03-0.504E-04
CGA:   8    -0.633160716735E+03   -0.32942E-04   -0.33675E-04 31280   0.719E-04-0.997E-05
CGA:   9    -0.633160731728E+03   -0.14993E-04   -0.14303E-04 31280   0.287E-04 0.186E-04
CGA:  10    -0.633160738890E+03   -0.71622E-05   -0.69347E-05 31280   0.153E-04 0.157E-04
   8 F= -.63316074E+03 E0= -.63316074E+03  d E =-.522863E-03  mag=    48.0000
       N       E                     dE             d eps       ncg     rms          ort
SDA:   1    -0.633149352757E+03    0.11379E-01    0.00000E+00 31280   0.299E-01 0.000E+00
CGA:   2    -0.633157712819E+03   -0.83601E-02   -0.83844E-02 31280   0.173E-01-0.273E-03
CGA:   3    -0.633160242094E+03   -0.25293E-02   -0.25385E-02 31280   0.361E-02 0.203E-03
CGA:   4    -0.633160818971E+03   -0.57688E-03   -0.57993E-03 31280   0.844E-03 0.939E-04
CGA:   5    -0.633160964700E+03   -0.14573E-03   -0.14543E-03 31280   0.242E-03-0.140E-04
CGA:   6    -0.633161009555E+03   -0.44854E-04   -0.44855E-04 31280   0.750E-04-0.615E-05
CGA:   7    -0.633161022269E+03   -0.12715E-04   -0.12824E-04 31280   0.222E-04 0.837E-05
CGA:   8    -0.633161027798E+03   -0.55282E-05   -0.53413E-05 31280   0.114E-04 0.654E-05
   9 F= -.63316103E+03 E0= -.63316103E+03  d E =-.288908E-03  mag=    48.0000
       N       E                     dE             d eps       ncg     rms          ort
SDA:   1    -0.633056654497E+03    0.10437E+00    0.00000E+00 31280   0.269E+00 0.000E+00
CGA:   2    -0.633131610978E+03   -0.74956E-01   -0.75005E-01 31280   0.152E+00-0.634E-03
CGA:   3    -0.633154591856E+03   -0.22981E-01   -0.23009E-01 31280   0.320E-01 0.612E-03
CGA:   4    -0.633159845614E+03   -0.52538E-02   -0.52618E-02 31280   0.718E-02 0.254E-03
CGA:   5    -0.633161065835E+03   -0.12202E-02   -0.12190E-02 31280   0.196E-02-0.503E-04
CGA:   6    -0.633161427581E+03   -0.36175E-03   -0.36167E-03 31280   0.532E-03-0.133E-04
CGA:   7    -0.633161524626E+03   -0.97045E-04   -0.97235E-04 31280   0.146E-03 0.238E-04
CGA:   8    -0.633161559900E+03   -0.35274E-04   -0.34722E-04 31280   0.590E-04 0.154E-04
CGA:   9    -0.633161578616E+03   -0.18717E-04   -0.17861E-04 31280   0.321E-04 0.105E-04
CGA:  10    -0.633161588590E+03   -0.99732E-05   -0.93098E-05 31280   0.177E-04 0.136E-04
  10 F= -.63316159E+03 E0= -.63316159E+03  d E =-.849700E-03  mag=    48.0000
       N       E                     dE             d eps       ncg     rms          ort
SDA:   1    -0.633145008425E+03    0.16570E-01    0.00000E+00 31280   0.428E-01 0.000E+00
CGA:   2    -0.633156994119E+03   -0.11986E-01   -0.12010E-01 31280   0.245E-01-0.309E-03
CGA:   3    -0.633160616577E+03   -0.36225E-02   -0.36358E-02 31280   0.507E-02 0.244E-03
CGA:   4    -0.633161444525E+03   -0.82795E-03   -0.83228E-03 31280   0.115E-02 0.110E-03
CGA:   5    -0.633161642819E+03   -0.19829E-03   -0.19774E-03 31280   0.321E-03-0.179E-04
CGA:   6    -0.633161704777E+03   -0.61958E-04   -0.61943E-04 31280   0.940E-04-0.645E-05
CGA:   7    -0.633161721416E+03   -0.16639E-04   -0.16799E-04 31280   0.287E-04 0.101E-04
CGA:   8    -0.633161728872E+03   -0.74554E-05   -0.72273E-05 31280   0.151E-04 0.756E-05
  11 F= -.63316173E+03 E0= -.63316173E+03  d E =-.989982E-03  mag=    48.0000
       N       E                     dE             d eps       ncg     rms          ort
SDA:   1    -0.633095093594E+03    0.66628E-01    0.00000E+00 31280   0.171E+00 0.000E+00
CGA:   2    -0.633142744369E+03   -0.47651E-01   -0.47688E-01 31280   0.967E-01-0.533E-03
CGA:   3    -0.633157329228E+03   -0.14585E-01   -0.14612E-01 31280   0.202E-01 0.485E-03
CGA:   4    -0.633160660836E+03   -0.33316E-02   -0.33398E-02 31280   0.440E-02 0.206E-03
CGA:   5    -0.633161431116E+03   -0.77028E-03   -0.76920E-03 31280   0.120E-02-0.377E-04
CGA:   6    -0.633161656707E+03   -0.22559E-03   -0.22551E-03 31280   0.324E-03-0.795E-05
CGA:   7    -0.633161716046E+03   -0.59339E-04   -0.59624E-04 31280   0.929E-04 0.190E-04
CGA:   8    -0.633161738791E+03   -0.22745E-04   -0.22392E-04 31280   0.405E-04 0.125E-04
CGA:   9    -0.633161751782E+03   -0.12991E-04   -0.12289E-04 31280   0.235E-04 0.105E-04
CGA:  10    -0.633161759187E+03   -0.74043E-05   -0.69853E-05 31280   0.145E-04 0.132E-04
  12 F= -.63316176E+03 E0= -.63316176E+03  d E =-.102030E-02  mag=    48.0000
       N       E                     dE             d eps       ncg     rms          ort
SDA:   1    -0.633149718737E+03    0.12033E-01    0.00000E+00 31280   0.310E-01 0.000E+00
CGA:   2    -0.633158279100E+03   -0.85604E-02   -0.85383E-02 31280   0.171E-01 0.318E-03
CGA:   3    -0.633160987703E+03   -0.27086E-02   -0.26970E-02 31280   0.382E-02-0.208E-03
CGA:   4    -0.633161618309E+03   -0.63061E-03   -0.62701E-03 31280   0.917E-03-0.854E-04
CGA:   5    -0.633161755252E+03   -0.13694E-03   -0.13778E-03 31280   0.239E-03 0.156E-04
CGA:   6    -0.633161797407E+03   -0.42155E-04   -0.42498E-04 31280   0.634E-04 0.120E-04
CGA:   7    -0.633161811831E+03   -0.14423E-04   -0.14471E-04 31280   0.245E-04-0.314E-05
CGA:   8    -0.633161818240E+03   -0.64089E-05   -0.64281E-05 31280   0.151E-04-0.271E-06
  13 F= -.63316182E+03 E0= -.63316182E+03  d E =-.107935E-02  mag=    48.0000
       N       E                     dE             d eps       ncg     rms          ort
SDA:   1    -0.633155274215E+03    0.65376E-02    0.00000E+00 31280   0.167E-01 0.000E+00
CGA:   2    -0.633160308986E+03   -0.50348E-02   -0.50347E-02 31280   0.846E-02-0.247E-05
CGA:   3    -0.633161564297E+03   -0.12553E-02   -0.12602E-02 31280   0.188E-02 0.707E-04
CGA:   4    -0.633161871303E+03   -0.30701E-03   -0.30749E-03 31280   0.456E-03 0.914E-05
CGA:   5    -0.633161944430E+03   -0.73128E-04   -0.72869E-04 31280   0.124E-03-0.492E-05
CGA:   6    -0.633161967334E+03   -0.22904E-04   -0.22983E-04 31280   0.336E-04 0.340E-05
CGA:   7    -0.633161973772E+03   -0.64375E-05   -0.65315E-05 31280   0.121E-04 0.478E-05
  14 F= -.63316197E+03 E0= -.63316197E+03  d E =-.155532E-03  mag=    48.0000
       N       E                     dE             d eps       ncg     rms          ort
SDA:   1    -0.633101767535E+03    0.60200E-01    0.00000E+00 31280   0.151E+00 0.000E+00
CGA:   2    -0.633147274005E+03   -0.45506E-01   -0.45498E-01 31280   0.758E-01 0.649E-04
CGA:   3    -0.633158694380E+03   -0.11420E-01   -0.11434E-01 31280   0.167E-01 0.216E-03
CGA:   4    -0.633161422345E+03   -0.27280E-02   -0.27289E-02 31280   0.368E-02 0.177E-04
CGA:   5    -0.633162040780E+03   -0.61844E-03   -0.61778E-03 31280   0.101E-02-0.165E-04
CGA:   6    -0.633162225739E+03   -0.18496E-03   -0.18519E-03 31280   0.253E-03 0.963E-05
CGA:   7    -0.633162273498E+03   -0.47759E-04   -0.47988E-04 31280   0.734E-04 0.127E-04
CGA:   8    -0.633162292499E+03   -0.19001E-04   -0.18755E-04 31280   0.344E-04 0.643E-05
CGA:   9    -0.633162303678E+03   -0.11179E-04   -0.10619E-04 31280   0.210E-04 0.728E-05
CGA:  10    -0.633162310410E+03   -0.67317E-05   -0.63132E-05 31280   0.129E-04 0.111E-04
  15 F= -.63316231E+03 E0= -.63316231E+03  d E =-.492170E-03  mag=    48.0000
       N       E                     dE             d eps       ncg     rms          ort
SDA:   1    -0.632920147355E+03    0.24216E+00    0.00000E+00 31280   0.603E+00 0.000E+00
CGA:   2    -0.633102275830E+03   -0.18213E+00   -0.18209E+00 31280   0.303E+00 0.317E-03
CGA:   3    -0.633148012077E+03   -0.45736E-01   -0.45764E-01 31280   0.668E-01 0.419E-03
CGA:   4    -0.633159015974E+03   -0.11004E-01   -0.11005E-01 31280   0.142E-01 0.199E-04
CGA:   5    -0.633161439646E+03   -0.24237E-02   -0.24225E-02 31280   0.386E-02-0.282E-04
CGA:   6    -0.633162156702E+03   -0.71706E-03   -0.71774E-03 31280   0.941E-03 0.257E-04
CGA:   7    -0.633162338969E+03   -0.18227E-03   -0.18274E-03 31280   0.274E-03 0.263E-04
CGA:   8    -0.633162408050E+03   -0.69080E-04   -0.68684E-04 31280   0.121E-03 0.116E-04
CGA:   9    -0.633162445208E+03   -0.37158E-04   -0.36202E-04 31280   0.670E-04 0.127E-04
CGA:  10    -0.633162466835E+03   -0.21627E-04   -0.20396E-04 31280   0.345E-04 0.203E-04
CGA:  11    -0.633162480255E+03   -0.13420E-04   -0.12552E-04 31280   0.199E-04 0.142E-04
CGA:  12    -0.633162493345E+03   -0.13090E-04   -0.12682E-04 31280   0.246E-04 0.170E-05
CGA:  13    -0.633162507214E+03   -0.13869E-04   -0.13612E-04 31280   0.346E-04 0.773E-06
CGA:  14    -0.633162521054E+03   -0.13840E-04   -0.12697E-04 31280   0.377E-04 0.102E-04
CGA:  15    -0.633162542158E+03   -0.21104E-04   -0.19019E-04 31280   0.403E-04 0.148E-04
CGA:  16    -0.633162577556E+03   -0.35398E-04   -0.33072E-04 31280   0.684E-04 0.629E-05
CGA:  17    -0.633162621241E+03   -0.43685E-04   -0.42087E-04 31280   0.109E-03 0.411E-05
CGA:  18    -0.633162672816E+03   -0.51575E-04   -0.50098E-04 31280   0.133E-03 0.610E-05
CGA:  19    -0.633162728599E+03   -0.55783E-04   -0.55425E-04 31280   0.117E-03-0.955E-06
CGA:  20    -0.633162772623E+03   -0.44024E-04   -0.45482E-04 31280   0.944E-04-0.187E-04
CGA:  21    -0.633162802967E+03   -0.30344E-04   -0.33610E-04 31280   0.875E-04-0.294E-04
CGA:  22    -0.633162824344E+03   -0.21377E-04   -0.22846E-04 31280   0.747E-04-0.235E-04
CGA:  23    -0.633162843200E+03   -0.18856E-04   -0.19766E-04 31280   0.552E-04-0.211E-04
CGA:  24    -0.633162856264E+03   -0.13065E-04   -0.20488E-04 31280   0.648E-04-0.388E-04
CGA:  25    -0.633162888276E+03   -0.32012E-04   -0.33309E-04 31280   0.460E-04-0.698E-05
CGA:  26    -0.633162904058E+03   -0.15782E-04   -0.15486E-04 31280   0.303E-04 0.721E-05
CGA:  27    -0.633162922574E+03   -0.18517E-04   -0.16998E-04 31280   0.211E-04 0.103E-04
CGA:  28    -0.633162945266E+03   -0.22692E-04   -0.21936E-04 31280   0.413E-04 0.172E-05
CGA:  29    -0.633162969568E+03   -0.24301E-04   -0.22540E-04 31280   0.396E-04 0.127E-04
CGA:  30    -0.633162990752E+03   -0.21184E-04   -0.20723E-04 31280   0.290E-04 0.171E-04
CGA:  31    -0.633163008457E+03   -0.17704E-04   -0.17193E-04 31280   0.187E-04 0.131E-04
CGA:  32    -0.633163019586E+03   -0.11129E-04   -0.10893E-04 31280   0.132E-04 0.100E-04
CGA:  33    -0.633163024509E+03   -0.49231E-05   -0.49353E-05 31280   0.561E-05 0.311E-05
  16 F= -.63316302E+03 E0= -.63316302E+03  d E =-.120627E-02  mag=    48.0000
       N       E                     dE             d eps       ncg     rms          ort
SDA:   1    -0.633121868728E+03    0.41151E-01    0.00000E+00 31280   0.104E+00 0.000E+00
CGA:   2    -0.633153049146E+03   -0.31180E-01   -0.31251E-01 31280   0.505E-01 0.824E-03
CGA:   3    -0.633161080743E+03   -0.80316E-02   -0.79309E-02 31280   0.113E-01-0.443E-03
CGA:   4    -0.633162965717E+03   -0.18850E-02   -0.18568E-02 31280   0.246E-02-0.140E-03
CGA:   5    -0.633163351973E+03   -0.38626E-03   -0.39613E-03 31280   0.644E-03 0.502E-04
CGA:   6    -0.633163466702E+03   -0.11473E-03   -0.11856E-03 31280   0.153E-03 0.227E-04
CGA:   7    -0.633163501429E+03   -0.34727E-04   -0.33684E-04 31280   0.537E-04-0.827E-05
CGA:   8    -0.633163515206E+03   -0.13776E-04   -0.13364E-04 31280   0.276E-04-0.588E-05
CGA:   9    -0.633163521600E+03   -0.63943E-05   -0.65144E-05 31280   0.132E-04 0.183E-05
  17 F= -.63316352E+03 E0= -.63316352E+03  d E =-.497091E-03  mag=    48.0000
       N       E                     dE             d eps       ncg     rms          ort
SDA:   1    -0.632853490731E+03    0.31002E+00    0.00000E+00 31280   0.775E+00 0.000E+00
CGA:   2    -0.633086855908E+03   -0.23337E+00   -0.23343E+00 31280   0.378E+00 0.294E-02
CGA:   3    -0.633145780538E+03   -0.58925E-01   -0.58669E-01 31280   0.829E-01-0.141E-02
CGA:   4    -0.633159571179E+03   -0.13791E-01   -0.13720E-01 31280   0.180E-01-0.485E-03
CGA:   5    -0.633162508174E+03   -0.29370E-02   -0.29605E-02 31280   0.496E-02 0.163E-03
CGA:   6    -0.633163402517E+03   -0.89434E-03   -0.90391E-03 31280   0.121E-02 0.794E-04
CGA:   7    -0.633163653308E+03   -0.25079E-03   -0.24845E-03 31280   0.386E-03-0.261E-04
CGA:   8    -0.633163749539E+03   -0.96231E-04   -0.95551E-04 31280   0.177E-03-0.194E-04
CGA:   9    -0.633163797522E+03   -0.47983E-04   -0.47991E-04 31280   0.875E-04 0.406E-05
CGA:  10    -0.633163825160E+03   -0.27638E-04   -0.27487E-04 31280   0.413E-04 0.730E-05
CGA:  11    -0.633163841168E+03   -0.16008E-04   -0.16311E-04 31280   0.237E-04-0.401E-05
CGA:  12    -0.633163849390E+03   -0.82217E-05   -0.93764E-05 31280   0.212E-04-0.788E-05
  18 F= -.63316385E+03 E0= -.63316385E+03  d E =-.824881E-03  mag=    48.0000
       N       E                     dE             d eps       ncg     rms          ort
SDA:   1    -0.633145470334E+03    0.18371E-01    0.00000E+00 31280   0.459E-01 0.000E+00
CGA:   2    -0.633159520472E+03   -0.14050E-01   -0.14055E-01 31280   0.233E-01-0.672E-03
CGA:   3    -0.633162868159E+03   -0.33477E-02   -0.34035E-02 31280   0.482E-02 0.366E-03
CGA:   4    -0.633163643675E+03   -0.77552E-03   -0.79416E-03 31280   0.104E-02 0.143E-03
CGA:   5    -0.633163836499E+03   -0.19282E-03   -0.18834E-03 31280   0.319E-03-0.412E-04
CGA:   6    -0.633163895567E+03   -0.59068E-04   -0.57722E-04 31280   0.911E-04-0.147E-04
CGA:   7    -0.633163908629E+03   -0.13062E-04   -0.14187E-04 31280   0.240E-04 0.998E-05
CGA:   8    -0.633163912966E+03   -0.43369E-05   -0.49606E-05 31280   0.965E-05 0.744E-05
  19 F= -.63316391E+03 E0= -.63316391E+03  d E =-.888457E-03  mag=    48.0000
       N       E                     dE             d eps       ncg     rms          ort
SDA:   1    -0.633137889727E+03    0.26019E-01    0.00000E+00 31280   0.704E-01 0.000E+00
CGA:   2    -0.633156024448E+03   -0.18135E-01   -0.18140E-01 31280   0.399E-01 0.745E-03
CGA:   3    -0.633162527607E+03   -0.65032E-02   -0.64672E-02 31280   0.887E-02-0.347E-03
CGA:   4    -0.633164009903E+03   -0.14823E-02   -0.14648E-02 31280   0.214E-02-0.190E-03
CGA:   5    -0.633164339429E+03   -0.32953E-03   -0.33161E-03 31280   0.535E-03 0.213E-04
CGA:   6    -0.633164432727E+03   -0.93298E-04   -0.95252E-04 31280   0.138E-03 0.265E-04
CGA:   7    -0.633164463680E+03   -0.30953E-04   -0.30694E-04 31280   0.482E-04-0.755E-05
CGA:   8    -0.633164476755E+03   -0.13075E-04   -0.13936E-04 31280   0.338E-04-0.140E-04
CGA:   9    -0.633164483017E+03   -0.62626E-05   -0.62935E-05 31280   0.163E-04-0.199E-05
  20 F= -.63316448E+03 E0= -.63316448E+03  d E =-.570052E-03  mag=    48.0000
       N       E                     dE             d eps       ncg     rms          ort
SDA:   1    -0.633104914805E+03    0.59562E-01    0.00000E+00 31280   0.158E+00 0.000E+00
CGA:   2    -0.633145876131E+03   -0.40961E-01   -0.40944E-01 31280   0.900E-01 0.128E-02
CGA:   3    -0.633160439869E+03   -0.14564E-01   -0.14514E-01 31280   0.197E-01-0.568E-03
CGA:   4    -0.633163726032E+03   -0.32862E-02   -0.32620E-02 31280   0.463E-02-0.322E-03
CGA:   5    -0.633164458902E+03   -0.73287E-03   -0.73562E-03 31280   0.120E-02 0.346E-04
CGA:   6    -0.633164673678E+03   -0.21478E-03   -0.21723E-03 31280   0.317E-03 0.440E-04
CGA:   7    -0.633164743083E+03   -0.69405E-04   -0.69121E-04 31280   0.110E-03-0.131E-04
CGA:   8    -0.633164772661E+03   -0.29578E-04   -0.30953E-04 31280   0.684E-04-0.224E-04
CGA:   9    -0.633164787498E+03   -0.14837E-04   -0.14909E-04 31280   0.325E-04-0.187E-05
CGA:  10    -0.633164795341E+03   -0.78421E-05   -0.77745E-05 31280   0.139E-04 0.681E-05
  21 F= -.63316480E+03 E0= -.63316480E+03  d E =-.882375E-03  mag=    48.0000
       N       E                     dE             d eps       ncg     rms          ort
SDA:   1    -0.633139219561E+03    0.25568E-01    0.00000E+00 31280   0.678E-01 0.000E+00
CGA:   2    -0.633157660902E+03   -0.18441E-01   -0.18460E-01 31280   0.388E-01-0.612E-03
CGA:   3    -0.633163475922E+03   -0.58150E-02   -0.58403E-02 31280   0.833E-02 0.279E-03
CGA:   4    -0.633164813492E+03   -0.13376E-02   -0.13532E-02 31280   0.185E-02 0.203E-03
CGA:   5    -0.633165139127E+03   -0.32564E-03   -0.32464E-03 31280   0.501E-03-0.160E-04
CGA:   6    -0.633165242105E+03   -0.10298E-03   -0.10192E-03 31280   0.161E-03-0.406E-04
CGA:   7    -0.633165271613E+03   -0.29508E-04   -0.29292E-04 31280   0.523E-04-0.689E-05
CGA:   8    -0.633165282100E+03   -0.10487E-04   -0.10597E-04 31280   0.195E-04 0.661E-05
CGA:   9    -0.633165286493E+03   -0.43933E-05   -0.45522E-05 31280   0.940E-05 0.795E-05
  22 F= -.63316529E+03 E0= -.63316529E+03  d E =-.491153E-03  mag=    48.0000
       N       E                     dE             d eps       ncg     rms          ort
SDA:   1    -0.632966942573E+03    0.19834E+00    0.00000E+00 31280   0.517E+00 0.000E+00
CGA:   2    -0.633106831287E+03   -0.13989E+00   -0.13994E+00 31280   0.292E+00-0.141E-02
CGA:   3    -0.633151558821E+03   -0.44728E-01   -0.44791E-01 31280   0.635E-01 0.854E-03
CGA:   4    -0.633161945364E+03   -0.10387E-01   -0.10420E-01 31280   0.143E-01 0.534E-03
CGA:   5    -0.633164362854E+03   -0.24175E-02   -0.24147E-02 31280   0.388E-02-0.553E-04
CGA:   6    -0.633165101922E+03   -0.73907E-03   -0.73621E-03 31280   0.112E-02-0.101E-03
CGA:   7    -0.633165315752E+03   -0.21383E-03   -0.21350E-03 31280   0.346E-03-0.158E-04
CGA:   8    -0.633165395127E+03   -0.79375E-04   -0.79071E-04 31280   0.137E-03 0.200E-04
CGA:   9    -0.633165432812E+03   -0.37685E-04   -0.36683E-04 31280   0.629E-04 0.275E-04
CGA:  10    -0.633165454952E+03   -0.22140E-04   -0.21125E-04 31280   0.329E-04 0.167E-04
CGA:  11    -0.633165469278E+03   -0.14326E-04   -0.13969E-04 31280   0.206E-04 0.310E-05
CGA:  12    -0.633165477828E+03   -0.85495E-05   -0.91139E-05 31280   0.162E-04-0.326E-05
  23 F= -.63316548E+03 E0= -.63316548E+03  d E =-.682487E-03  mag=    48.0000
       N       E                     dE             d eps       ncg     rms          ort
SDA:   1    -0.633117992961E+03    0.47476E-01    0.00000E+00 31280   0.124E+00 0.000E+00
CGA:   2    -0.633151273604E+03   -0.33281E-01   -0.33273E-01 31280   0.689E-01 0.951E-03
CGA:   3    -0.633162192819E+03   -0.10919E-01   -0.10881E-01 31280   0.155E-01-0.369E-03
CGA:   4    -0.633164783965E+03   -0.25911E-02   -0.25676E-02 31280   0.364E-02-0.268E-03
CGA:   5    -0.633165360595E+03   -0.57663E-03   -0.57871E-03 31280   0.924E-03 0.227E-04
CGA:   6    -0.633165519430E+03   -0.15883E-03   -0.16262E-03 31280   0.257E-03 0.527E-04
CGA:   7    -0.633165569257E+03   -0.49828E-04   -0.50756E-04 31280   0.786E-04 0.165E-04
CGA:   8    -0.633165592364E+03   -0.23106E-04   -0.23238E-04 31280   0.430E-04-0.355E-05
CGA:   9    -0.633165606740E+03   -0.14377E-04   -0.16445E-04 31280   0.406E-04-0.131E-04
CGA:  10    -0.633165614857E+03   -0.81167E-05   -0.83643E-05 31280   0.218E-04-0.536E-05
  24 F= -.63316561E+03 E0= -.63316561E+03  d E =-.819517E-03  mag=    48.0000
       N       E                     dE             d eps       ncg     rms          ort
SDA:   1    -0.633161577160E+03    0.40296E-02    0.00000E+00 31280   0.105E-01 0.000E+00
CGA:   2    -0.633164463403E+03   -0.28862E-02   -0.28924E-02 31280   0.621E-02-0.259E-03
CGA:   3    -0.633165355996E+03   -0.89259E-03   -0.90407E-03 31280   0.127E-02 0.111E-03
CGA:   4    -0.633165553212E+03   -0.19722E-03   -0.20474E-03 31280   0.266E-03 0.847E-04
CGA:   5    -0.633165605552E+03   -0.52340E-04   -0.52031E-04 31280   0.856E-04-0.528E-05
CGA:   6    -0.633165623378E+03   -0.17826E-04   -0.17337E-04 31280   0.357E-04-0.149E-04
CGA:   7    -0.633165629465E+03   -0.60870E-05   -0.59183E-05 31280   0.138E-04-0.455E-05
  25 F= -.63316563E+03 E0= -.63316563E+03  d E =-.834125E-03  mag=    48.0000
       N       E                     dE             d eps       ncg     rms          ort
SDA:   1    -0.633122350429E+03    0.43273E-01    0.00000E+00 31280   0.112E+00 0.000E+00
CGA:   2    -0.633154569706E+03   -0.32219E-01   -0.32259E-01 31280   0.582E-01-0.771E-03
CGA:   3    -0.633163327915E+03   -0.87582E-02   -0.87819E-02 31280   0.127E-01 0.281E-03
CGA:   4    -0.633165420166E+03   -0.20923E-02   -0.21067E-02 31280   0.281E-02 0.209E-03
CGA:   5    -0.633165907688E+03   -0.48752E-03   -0.48460E-03 31280   0.789E-03-0.495E-04
CGA:   6    -0.633166061003E+03   -0.15332E-03   -0.15173E-03 31280   0.230E-03-0.516E-04
CGA:   7    -0.633166101412E+03   -0.40409E-04   -0.40419E-04 31280   0.665E-04 0.164E-06
CGA:   8    -0.633166115714E+03   -0.14302E-04   -0.14356E-04 31280   0.247E-04 0.734E-05
CGA:   9    -0.633166123599E+03   -0.78849E-05   -0.76623E-05 31280   0.139E-04 0.395E-05
  26 F= -.63316612E+03 E0= -.63316612E+03  d E =-.494134E-03  mag=    48.0000
       N       E                     dE             d eps       ncg     rms          ort
SDA:   1    -0.633117370386E+03    0.48745E-01    0.00000E+00 31280   0.125E+00 0.000E+00
CGA:   2    -0.633153427977E+03   -0.36058E-01   -0.36105E-01 31280   0.653E-01-0.832E-03
CGA:   3    -0.633163268948E+03   -0.98410E-02   -0.98652E-02 31280   0.145E-01 0.307E-03
CGA:   4    -0.633165634680E+03   -0.23657E-02   -0.23803E-02 31280   0.318E-02 0.226E-03
CGA:   5    -0.633166171907E+03   -0.53723E-03   -0.53428E-03 31280   0.925E-03-0.505E-04
CGA:   6    -0.633166348586E+03   -0.17668E-03   -0.17501E-03 31280   0.272E-03-0.570E-04
CGA:   7    -0.633166396749E+03   -0.48163E-04   -0.48159E-04 31280   0.786E-04-0.242E-06
CGA:   8    -0.633166414468E+03   -0.17718E-04   -0.17671E-04 31280   0.306E-04 0.743E-05
CGA:   9    -0.633166424864E+03   -0.10397E-04   -0.10150E-04 31280   0.192E-04 0.290E-05
CGA:  10    -0.633166431367E+03   -0.65031E-05   -0.62121E-05 31280   0.115E-04 0.399E-05
  27 F= -.63316643E+03 E0= -.63316643E+03  d E =-.801902E-03  mag=    48.0000
       N       E                     dE             d eps       ncg     rms          ort
SDA:   1    -0.633149847076E+03    0.16578E-01    0.00000E+00 31280   0.458E-01 0.000E+00
CGA:   2    -0.633161262286E+03   -0.11415E-01   -0.11408E-01 31280   0.259E-01 0.354E-03
CGA:   3    -0.633165469975E+03   -0.42077E-02   -0.41958E-02 31280   0.573E-02-0.167E-03
CGA:   4    -0.633166455298E+03   -0.98532E-03   -0.97785E-03 31280   0.147E-02-0.134E-03
CGA:   5    -0.633166691775E+03   -0.23648E-03   -0.23429E-03 31280   0.377E-03-0.360E-04
CGA:   6    -0.633166756568E+03   -0.64793E-04   -0.65395E-04 31280   0.994E-04 0.135E-04
CGA:   7    -0.633166773315E+03   -0.16747E-04   -0.17662E-04 31280   0.285E-04 0.188E-04
CGA:   8    -0.633166780275E+03   -0.69603E-05   -0.70433E-05 31280   0.130E-04 0.826E-05
  28 F= -.63316678E+03 E0= -.63316678E+03  d E =-.348908E-03  mag=    48.0000
