       N       E                     dE             d eps       ncg     rms          ort
DAV:   1     0.649112699966E+04    0.64911E+04   -0.30327E+05  9152   0.159E+03
DAV:   2     0.336650520816E+03   -0.61545E+04   -0.57888E+04  9152   0.465E+02
DAV:   3    -0.384294886025E+03   -0.72095E+03   -0.70821E+03  9152   0.170E+02
DAV:   4    -0.413881599451E+03   -0.29587E+02   -0.29106E+02  9152   0.310E+01
DAV:   5    -0.416365061254E+03   -0.24835E+01   -0.24724E+01  9152   0.666E+00
SDA:   6    -0.267767298819E+03    0.14860E+03   -0.24724E+01  9152   0.942E+03 0.000E+00
CGA:   7    -0.360124592394E+03   -0.92357E+02   -0.77677E+02  9152   0.122E+03 0.164E+03
CGA:   8    -0.374521214365E+03   -0.14397E+02   -0.15919E+02  9152   0.586E+02-0.414E+01
CGA:   9    -0.375752883545E+03   -0.12317E+01   -0.40671E+01  9152   0.486E+02-0.129E+02
CGA:  10    -0.377018850527E+03   -0.12660E+01   -0.21630E+01  9152   0.204E+03-0.905E+02
CGA:  11    -0.374096740059E+03    0.29221E+01   -0.14099E+02  9152   0.726E+02-0.251E+02
CGA:  12    -0.378933331775E+03   -0.48366E+01   -0.12490E+01  9152   0.931E+02 0.146E+03
CGA:  13    -0.379408114509E+03   -0.47478E+00   -0.33625E+01  9152   0.169E+03-0.155E+03
CGA:  14    -0.376926892788E+03    0.24812E+01   -0.95378E+01  9152   0.167E+03-0.882E+02
CGA:  15    -0.376770937230E+03    0.15596E+00   -0.71392E+01  9152   0.250E+03-0.226E+03
CGA:  16    -0.376667487608E+03    0.10345E+00   -0.11601E+02  9152   0.150E+03-0.133E+03
CGA:  17    -0.381804036803E+03   -0.51365E+01   -0.56025E+01  9152   0.532E+02-0.144E+03
CGA:  18    -0.382103546023E+03   -0.29951E+00   -0.24909E+01  9152   0.142E+02-0.705E+01
CGA:  19    -0.382568383272E+03   -0.46484E+00   -0.25512E+00  9152   0.872E+01 0.103E+02
CGA:  20    -0.382820625334E+03   -0.25224E+00   -0.14005E+00  9152   0.357E+01 0.603E+01
CGA:  21    -0.382950030956E+03   -0.12941E+00   -0.92515E-01  9152   0.173E+01 0.120E+01
CGA:  22    -0.383338067840E+03   -0.38804E+00   -0.37504E+00  9152   0.134E+02 0.240E+00
CGA:  23    -0.383981690088E+03   -0.64362E+00   -0.66121E+00  9152   0.761E+01 0.878E+00
CGA:  24    -0.384081504058E+03   -0.99814E-01   -0.21157E+00  9152   0.246E+01-0.531E+01
CGA:  25    -0.384210848622E+03   -0.12934E+00   -0.14567E+00  9152   0.148E+01-0.146E+00
CGA:  26    -0.384340110674E+03   -0.12926E+00   -0.12380E+00  9152   0.884E+00-0.728E-01
CGA:  27    -0.384411865968E+03   -0.71755E-01   -0.75161E-01  9152   0.336E+00 0.577E-01
CGA:  28    -0.384435722836E+03   -0.23857E-01   -0.23780E-01  9152   0.297E+00 0.273E-03
CGA:  29    -0.384455927258E+03   -0.20204E-01   -0.20731E-01  9152   0.157E+00 0.755E-03
CGA:  30    -0.384465342334E+03   -0.94151E-02   -0.10227E-01  9152   0.530E-01 0.935E-04
CGA:  31    -0.384470795727E+03   -0.54534E-02   -0.54539E-02  9152   0.719E-01-0.208E-03
CGA:  32    -0.384475625688E+03   -0.48300E-02   -0.48967E-02  9152   0.440E-01-0.958E-04
CGA:  33    -0.384479858494E+03   -0.42328E-02   -0.42382E-02  9152   0.215E-01 0.764E-03
CGA:  34    -0.384484134927E+03   -0.42764E-02   -0.42912E-02  9152   0.374E-01-0.149E-03
CGA:  35    -0.384486042389E+03   -0.19075E-02   -0.18800E-02  9152   0.150E-01 0.788E-04
CGA:  36    -0.384487832820E+03   -0.17904E-02   -0.17879E-02  9152   0.152E-01 0.679E-04
CGA:  37    -0.384489494177E+03   -0.16614E-02   -0.16604E-02  9152   0.807E-02 0.651E-04
CGA:  38    -0.384489994643E+03   -0.50047E-03   -0.49948E-03  9152   0.679E-02-0.286E-04
CGA:  39    -0.384490794312E+03   -0.79967E-03   -0.80056E-03  9152   0.263E-02-0.643E-04
CGA:  40    -0.384491228378E+03   -0.43407E-03   -0.43989E-03  9152   0.549E-02-0.867E-04
CGA:  41    -0.384491489766E+03   -0.26139E-03   -0.25784E-03  9152   0.126E-02-0.379E-04
CGA:  42    -0.384491729707E+03   -0.23994E-03   -0.24121E-03  9152   0.223E-02-0.148E-04
CGA:  43    -0.384491854396E+03   -0.12469E-03   -0.12428E-03  9152   0.125E-02-0.273E-05
CGA:  44    -0.384491962870E+03   -0.10847E-03   -0.10824E-03  9152   0.805E-03-0.893E-05
CGA:  45    -0.384492061246E+03   -0.98376E-04   -0.98741E-04  9152   0.846E-03-0.155E-04
CGA:  46    -0.384492105785E+03   -0.44538E-04   -0.44041E-04  9152   0.439E-03-0.173E-05
CGA:  47    -0.384492151685E+03   -0.45900E-04   -0.45943E-04  9152   0.316E-03-0.849E-05
CGA:  48    -0.384492180337E+03   -0.28652E-04   -0.28599E-04  9152   0.268E-03-0.350E-06
CGA:  49    -0.384492193443E+03   -0.13106E-04   -0.13281E-04  9152   0.133E-03 0.545E-05
CGA:  50    -0.384492216302E+03   -0.22860E-04   -0.21762E-04  9152   0.153E-03 0.178E-04
CGA:  51    -0.384492223920E+03   -0.76175E-05   -0.79441E-05  9152   0.765E-04 0.648E-05
CGA:  52    -0.384492237643E+03   -0.13723E-04   -0.12939E-04  9152   0.632E-04 0.124E-04
CGA:  53    -0.384492245209E+03   -0.75659E-05   -0.75619E-05  9152   0.867E-04 0.473E-05
   1 F= -.38449225E+03 E0= -.38448621E+03  d E =-.384492E+03  mag=    46.0000
       N       E                     dE             d eps       ncg     rms          ort
SDA:   1    -0.384492465312E+03   -0.22767E-03    0.00000E+00  9152   0.192E-01 0.000E+00
CGA:   2    -0.384493119466E+03   -0.65415E-03   -0.65804E-03  9152   0.250E-02-0.964E-04
CGA:   3    -0.384493243867E+03   -0.12440E-03   -0.12334E-03  9152   0.296E-03 0.715E-05
CGA:   4    -0.384493303484E+03   -0.59617E-04   -0.60421E-04  9152   0.157E-03-0.763E-05
CGA:   5    -0.384493325721E+03   -0.22237E-04   -0.22169E-04  9152   0.142E-03 0.150E-05
CGA:   6    -0.384493333726E+03   -0.80052E-05   -0.80359E-05  9152   0.599E-04 0.714E-06
   2 F= -.38449333E+03 E0= -.38448732E+03  d E =-.108852E-02  mag=    46.0000
       N       E                     dE             d eps       ncg     rms          ort
SDA:   1    -0.384380236725E+03    0.11309E+00    0.00000E+00  9152   0.468E+00 0.000E+00
CGA:   2    -0.384444517165E+03   -0.64280E-01   -0.64089E-01  9152   0.852E+00 0.415E-02
CGA:   3    -0.384493382196E+03   -0.48865E-01   -0.48430E-01  9152   0.192E+00 0.123E-02
CGA:   4    -0.384517106705E+03   -0.23725E-01   -0.23764E-01  9152   0.142E+00-0.109E-02
CGA:   5    -0.384528145853E+03   -0.11039E-01   -0.11056E-01  9152   0.302E-01 0.175E-03
CGA:   6    -0.384530757198E+03   -0.26113E-02   -0.26111E-02  9152   0.310E-01-0.706E-05
CGA:   7    -0.384532719586E+03   -0.19624E-02   -0.19603E-02  9152   0.650E-02 0.102E-05
CGA:   8    -0.384533375416E+03   -0.65583E-03   -0.65578E-03  9152   0.319E-02 0.861E-05
CGA:   9    -0.384533743102E+03   -0.36769E-03   -0.36768E-03  9152   0.317E-02 0.468E-06
CGA:  10    -0.384533897172E+03   -0.15407E-03   -0.15408E-03  9152   0.696E-03 0.219E-05
CGA:  11    -0.384534026819E+03   -0.12965E-03   -0.12944E-03  9152   0.632E-03 0.227E-05
CGA:  12    -0.384534069408E+03   -0.42590E-04   -0.42622E-04  9152   0.310E-03 0.750E-06
CGA:  13    -0.384534095709E+03   -0.26300E-04   -0.26298E-04  9152   0.309E-03-0.149E-06
CGA:  14    -0.384534129106E+03   -0.33398E-04   -0.33390E-04  9152   0.115E-03 0.605E-06
CGA:  15    -0.384534144507E+03   -0.15401E-04   -0.15384E-04  9152   0.141E-03 0.480E-06
CGA:  16    -0.384534153704E+03   -0.91966E-05   -0.92199E-05  9152   0.806E-04 0.633E-06
   3 F= -.38453415E+03 E0= -.38452813E+03  d E =-.408200E-01  mag=    46.0000
       N       E                     dE             d eps       ncg     rms          ort
SDA:   1    -0.383336335739E+03    0.11978E+01    0.00000E+00  9152   0.367E+01 0.000E+00
CGA:   2    -0.384143591691E+03   -0.80726E+00   -0.80857E+00  9152   0.329E+01-0.909E-02
CGA:   3    -0.384322032799E+03   -0.17844E+00   -0.17693E+00  9152   0.205E+01-0.656E-01
CGA:   4    -0.384544343285E+03   -0.22231E+00   -0.22261E+00  9152   0.551E+00-0.199E-01
CGA:   5    -0.384597520640E+03   -0.53177E-01   -0.53222E-01  9152   0.272E+00 0.412E-02
CGA:   6    -0.384615956310E+03   -0.18436E-01   -0.18526E-01  9152   0.193E+00-0.223E-03
CGA:   7    -0.384628771934E+03   -0.12816E-01   -0.12957E-01  9152   0.336E-01 0.429E-04
CGA:   8    -0.384634919459E+03   -0.61475E-02   -0.61611E-02  9152   0.196E-01-0.154E-03
CGA:   9    -0.384636040444E+03   -0.11210E-02   -0.11200E-02  9152   0.132E-01 0.667E-05
CGA:  10    -0.384637384429E+03   -0.13440E-02   -0.13440E-02  9152   0.628E-02-0.157E-05
CGA:  11    -0.384638057077E+03   -0.67265E-03   -0.67274E-03  9152   0.341E-02-0.800E-05
CGA:  12    -0.384638363086E+03   -0.30601E-03   -0.30609E-03  9152   0.348E-02 0.441E-05
CGA:  13    -0.384638637663E+03   -0.27458E-03   -0.27463E-03  9152   0.184E-02 0.187E-05
CGA:  14    -0.384638812783E+03   -0.17512E-03   -0.17512E-03  9152   0.113E-02 0.857E-06
CGA:  15    -0.384638974308E+03   -0.16153E-03   -0.16135E-03  9152   0.989E-03 0.337E-05
CGA:  16    -0.384639029405E+03   -0.55097E-04   -0.55182E-04  9152   0.557E-03 0.122E-05
CGA:  17    -0.384639116319E+03   -0.86914E-04   -0.86704E-04  9152   0.285E-03 0.358E-05
CGA:  18    -0.384639147472E+03   -0.31153E-04   -0.31144E-04  9152   0.301E-03 0.141E-05
CGA:  19    -0.384639168143E+03   -0.20671E-04   -0.20709E-04  9152   0.188E-03 0.100E-05
CGA:  20    -0.384639190264E+03   -0.22122E-04   -0.22088E-04  9152   0.751E-04 0.197E-05
CGA:  21    -0.384639199980E+03   -0.97157E-05   -0.97132E-05  9152   0.114E-03 0.941E-07
   4 F= -.38463920E+03 E0= -.38463314E+03  d E =-.105046E+00  mag=    46.0000
       N       E                     dE             d eps       ncg     rms          ort
SDA:   1    -0.382175974068E+03    0.24632E+01    0.00000E+00  9152   0.759E+01 0.000E+00
CGA:   2    -0.383573652244E+03   -0.13977E+01   -0.13664E+01  9152   0.927E+01 0.425E+00
CGA:   3    -0.384102246963E+03   -0.52859E+00   -0.49795E+00  9152   0.335E+01-0.511E+00
CGA:   4    -0.384567645288E+03   -0.46540E+00   -0.46741E+00  9152   0.128E+01-0.365E-01
CGA:   5    -0.384651110466E+03   -0.83465E-01   -0.84213E-01  9152   0.804E+00-0.402E-02
CGA:   6    -0.384706392684E+03   -0.55282E-01   -0.55112E-01  9152   0.318E+00-0.162E-02
CGA:   7    -0.384734309865E+03   -0.27917E-01   -0.28023E-01  9152   0.955E-01 0.296E-02
CGA:   8    -0.384741825894E+03   -0.75160E-02   -0.75136E-02  9152   0.861E-01-0.451E-04
CGA:   9    -0.384748869719E+03   -0.70438E-02   -0.70458E-02  9152   0.328E-01 0.321E-04
CGA:  10    -0.384751376466E+03   -0.25067E-02   -0.25117E-02  9152   0.158E-01 0.525E-04
CGA:  11    -0.384753274420E+03   -0.18980E-02   -0.18976E-02  9152   0.177E-01 0.129E-04
CGA:  12    -0.384754273672E+03   -0.99925E-03   -0.10018E-02  9152   0.498E-02-0.940E-05
CGA:  13    -0.384755129358E+03   -0.85569E-03   -0.85512E-03  9152   0.552E-02 0.718E-05
CGA:  14    -0.384755487873E+03   -0.35852E-03   -0.35874E-03  9152   0.354E-02 0.305E-05
CGA:  15    -0.384755864081E+03   -0.37621E-03   -0.37615E-03  9152   0.240E-02 0.547E-05
CGA:  16    -0.384756128380E+03   -0.26430E-03   -0.26431E-03  9152   0.183E-02 0.715E-06
CGA:  17    -0.384756263282E+03   -0.13490E-03   -0.13497E-03  9152   0.132E-02 0.115E-05
CGA:  18    -0.384756396525E+03   -0.13324E-03   -0.13324E-03  9152   0.831E-03 0.306E-05
CGA:  19    -0.384756473536E+03   -0.77011E-04   -0.77028E-04  9152   0.460E-03 0.276E-05
CGA:  20    -0.384756514974E+03   -0.41437E-04   -0.41455E-04  9152   0.517E-03 0.217E-05
CGA:  21    -0.384756561301E+03   -0.46328E-04   -0.46340E-04  9152   0.159E-03 0.150E-05
CGA:  22    -0.384756582738E+03   -0.21436E-04   -0.21409E-04  9152   0.244E-03 0.735E-06
CGA:  23    -0.384756599878E+03   -0.17140E-04   -0.17136E-04  9152   0.107E-03-0.144E-06
CGA:  24    -0.384756612041E+03   -0.12163E-04   -0.12170E-04  9152   0.882E-04-0.375E-06
CGA:  25    -0.384756620607E+03   -0.85660E-05   -0.85651E-05  9152   0.733E-04-0.450E-06
   5 F= -.38475662E+03 E0= -.38475050E+03  d E =-.117421E+00  mag=    46.0000
       N       E                     dE             d eps       ncg     rms          ort
SDA:   1    -0.379849055179E+03    0.49076E+01    0.00000E+00  9152   0.146E+02 0.000E+00
CGA:   2    -0.382848402352E+03   -0.29993E+01   -0.29258E+01  9152   0.128E+02 0.812E+00
CGA:   3    -0.383649132379E+03   -0.80073E+00   -0.76387E+00  9152   0.807E+01-0.188E+01
CGA:   4    -0.384520411489E+03   -0.87128E+00   -0.87148E+00  9152   0.203E+01-0.728E-02
CGA:   5    -0.384670730650E+03   -0.15032E+00   -0.15129E+00  9152   0.170E+01-0.410E-02
CGA:   6    -0.384768087340E+03   -0.97357E-01   -0.98596E-01  9152   0.785E+00-0.926E-02
CGA:   7    -0.384818521633E+03   -0.50434E-01   -0.51623E-01  9152   0.240E+00 0.193E-03
CGA:   8    -0.384835485988E+03   -0.16964E-01   -0.16809E-01  9152   0.226E+00-0.873E-03
CGA:   9    -0.384849506663E+03   -0.14021E-01   -0.14064E-01  9152   0.862E-01 0.606E-04
CGA:  10    -0.384857298619E+03   -0.77920E-02   -0.77956E-02  9152   0.441E-01 0.577E-03
CGA:  11    -0.384860000080E+03   -0.27015E-02   -0.27082E-02  9152   0.403E-01-0.339E-05
CGA:  12    -0.384863416246E+03   -0.34162E-02   -0.34168E-02  9152   0.131E-01 0.468E-04
CGA:  13    -0.384864864728E+03   -0.14485E-02   -0.14489E-02  9152   0.189E-01-0.122E-04
CGA:  14    -0.384865954615E+03   -0.10899E-02   -0.10904E-02  9152   0.830E-02 0.535E-05
CGA:  15    -0.384866750932E+03   -0.79632E-03   -0.79655E-03  9152   0.651E-02-0.213E-04
CGA:  16    -0.384867528331E+03   -0.77740E-03   -0.77631E-03  9152   0.758E-02 0.307E-04
CGA:  17    -0.384867892720E+03   -0.36439E-03   -0.36508E-03  9152   0.281E-02 0.198E-05
CGA:  18    -0.384868360741E+03   -0.46802E-03   -0.46849E-03  9152   0.248E-02-0.589E-05
CGA:  19    -0.384868537421E+03   -0.17668E-03   -0.17673E-03  9152   0.227E-02 0.218E-05
CGA:  20    -0.384868699229E+03   -0.16181E-03   -0.16195E-03  9152   0.113E-02 0.483E-05
CGA:  21    -0.384868827168E+03   -0.12794E-03   -0.12791E-03  9152   0.714E-03 0.165E-05
CGA:  22    -0.384868884085E+03   -0.56917E-04   -0.56936E-04  9152   0.737E-03 0.901E-06
CGA:  23    -0.384868937917E+03   -0.53832E-04   -0.53854E-04  9152   0.419E-03 0.102E-05
CGA:  24    -0.384868980897E+03   -0.42980E-04   -0.42983E-04  9152   0.174E-03-0.148E-06
CGA:  25    -0.384869000172E+03   -0.19275E-04   -0.19296E-04  9152   0.344E-03-0.107E-05
CGA:  26    -0.384869025891E+03   -0.25718E-04   -0.25697E-04  9152   0.901E-04-0.124E-05
CGA:  27    -0.384869035746E+03   -0.98550E-05   -0.98728E-05  9152   0.941E-04-0.955E-06
   6 F= -.38486904E+03 E0= -.38486285E+03  d E =-.112415E+00  mag=    46.0000
       N       E                     dE             d eps       ncg     rms          ort
SDA:   1    -0.375615025247E+03    0.92540E+01    0.00000E+00  9152   0.256E+02 0.000E+00
CGA:   2    -0.381804715373E+03   -0.61897E+01   -0.64037E+01  9152   0.211E+02-0.164E+01
CGA:   3    -0.383471243671E+03   -0.16665E+01   -0.17478E+01  9152   0.733E+01 0.249E+01
CGA:   4    -0.384473012981E+03   -0.10018E+01   -0.10021E+01  9152   0.417E+01 0.243E-02
CGA:   5    -0.384677683569E+03   -0.20467E+00   -0.20704E+00  9152   0.177E+01-0.183E+00
CGA:   6    -0.384816485518E+03   -0.13880E+00   -0.13906E+00  9152   0.776E+00 0.741E-02
CGA:   7    -0.384885848227E+03   -0.69363E-01   -0.68842E-01  9152   0.246E+00-0.209E-01
CGA:   8    -0.384917123337E+03   -0.31275E-01   -0.31072E-01  9152   0.114E+00 0.466E-02
CGA:   9    -0.384926813985E+03   -0.96906E-02   -0.96881E-02  9152   0.958E-01-0.676E-04
CGA:  10    -0.384932819046E+03   -0.60051E-02   -0.60095E-02  9152   0.487E-01-0.205E-04
CGA:  11    -0.384937001948E+03   -0.41829E-02   -0.41899E-02  9152   0.193E-01 0.255E-03
CGA:  12    -0.384940053291E+03   -0.30513E-02   -0.30563E-02  9152   0.155E-01-0.703E-04
CGA:  13    -0.384941827324E+03   -0.17740E-02   -0.17718E-02  9152   0.110E-01 0.964E-04
CGA:  14    -0.384942753550E+03   -0.92623E-03   -0.92619E-03  9152   0.129E-01 0.778E-05
CGA:  15    -0.384943846582E+03   -0.10930E-02   -0.10933E-02  9152   0.655E-02 0.124E-04
CGA:  16    -0.384944604956E+03   -0.75837E-03   -0.75731E-03  9152   0.385E-02 0.425E-04
CGA:  17    -0.384945213156E+03   -0.60820E-03   -0.60852E-03  9152   0.238E-02-0.456E-05
CGA:  18    -0.384945497286E+03   -0.28413E-03   -0.28382E-03  9152   0.159E-02 0.127E-04
CGA:  19    -0.384945716988E+03   -0.21970E-03   -0.21968E-03  9152   0.122E-02 0.889E-06
CGA:  20    -0.384945790548E+03   -0.73561E-04   -0.73645E-04  9152   0.862E-03 0.154E-05
CGA:  21    -0.384945882291E+03   -0.91743E-04   -0.91736E-04  9152   0.616E-03 0.181E-05
CGA:  22    -0.384945957334E+03   -0.75043E-04   -0.75055E-04  9152   0.311E-03-0.345E-06
CGA:  23    -0.384946005049E+03   -0.47715E-04   -0.47783E-04  9152   0.317E-03-0.140E-05
CGA:  24    -0.384946033325E+03   -0.28276E-04   -0.28251E-04  9152   0.307E-03-0.144E-05
CGA:  25    -0.384946053409E+03   -0.20085E-04   -0.20021E-04  9152   0.137E-03-0.171E-05
CGA:  26    -0.384946072357E+03   -0.18948E-04   -0.19002E-04  9152   0.982E-04-0.156E-05
CGA:  27    -0.384946084053E+03   -0.11696E-04   -0.11718E-04  9152   0.516E-04-0.134E-05
CGA:  28    -0.384946090184E+03   -0.61305E-05   -0.61327E-05  9152   0.618E-04-0.179E-06
   7 F= -.38494609E+03 E0= -.38493983E+03  d E =-.770544E-01  mag=    46.0000
       N       E                     dE             d eps       ncg     rms          ort
SDA:   1    -0.373943133101E+03    0.11003E+02    0.00000E+00  9152   0.303E+02 0.000E+00
CGA:   2    -0.380536102933E+03   -0.65930E+01   -0.62802E+01  9152   0.256E+02 0.314E+01
CGA:   3    -0.382595964419E+03   -0.20599E+01   -0.17112E+01  9152   0.163E+02-0.458E+01
CGA:   4    -0.384300933961E+03   -0.17050E+01   -0.17177E+01  9152   0.442E+01-0.421E+00
CGA:   5    -0.384601932239E+03   -0.30100E+00   -0.28012E+00  9152   0.382E+01 0.988E-01
CGA:   6    -0.384780989434E+03   -0.17906E+00   -0.18902E+00  9152   0.134E+01-0.107E+00
CGA:   7    -0.384886603439E+03   -0.10561E+00   -0.10761E+00  9152   0.132E+01 0.266E-01
CGA:   8    -0.384935009351E+03   -0.48406E-01   -0.45847E-01  9152   0.220E+00 0.519E-01
CGA:   9    -0.384961316607E+03   -0.26307E-01   -0.26137E-01  9152   0.324E+00 0.697E-02
CGA:  10    -0.384978178443E+03   -0.16862E-01   -0.17018E-01  9152   0.127E+00-0.150E-02
CGA:  11    -0.384984186808E+03   -0.60084E-02   -0.59824E-02  9152   0.462E-01 0.164E-03
CGA:  12    -0.384990738824E+03   -0.65520E-02   -0.65295E-02  9152   0.766E-01 0.401E-03
CGA:  13    -0.384993612774E+03   -0.28739E-02   -0.28997E-02  9152   0.150E-01-0.502E-03
CGA:  14    -0.384995847860E+03   -0.22351E-02   -0.22337E-02  9152   0.178E-01 0.212E-04
CGA:  15    -0.384996777042E+03   -0.92918E-03   -0.93600E-03  9152   0.136E-01-0.409E-04
CGA:  16    -0.384998151407E+03   -0.13744E-02   -0.13740E-02  9152   0.573E-02 0.326E-04
CGA:  17    -0.384998705797E+03   -0.55439E-03   -0.55435E-03  9152   0.761E-02 0.124E-04
CGA:  18    -0.384999146284E+03   -0.44049E-03   -0.44161E-03  9152   0.348E-02-0.456E-05
CGA:  19    -0.384999478286E+03   -0.33200E-03   -0.33194E-03  9152   0.280E-02 0.129E-04
CGA:  20    -0.384999752097E+03   -0.27381E-03   -0.27377E-03  9152   0.215E-02 0.575E-05
CGA:  21    -0.384999848972E+03   -0.96875E-04   -0.96994E-04  9152   0.936E-03 0.108E-07
CGA:  22    -0.385000029255E+03   -0.18028E-03   -0.18000E-03  9152   0.631E-03 0.280E-05
CGA:  23    -0.385000064421E+03   -0.35167E-04   -0.35213E-04  9152   0.569E-03 0.396E-06
CGA:  24    -0.385000130878E+03   -0.66457E-04   -0.66407E-04  9152   0.301E-03 0.211E-05
CGA:  25    -0.385000167869E+03   -0.36991E-04   -0.36995E-04  9152   0.290E-03-0.275E-06
CGA:  26    -0.385000184242E+03   -0.16373E-04   -0.16321E-04  9152   0.199E-03-0.104E-05
CGA:  27    -0.385000207037E+03   -0.22795E-04   -0.22834E-04  9152   0.163E-03-0.182E-05
CGA:  28    -0.385000220477E+03   -0.13440E-04   -0.13434E-04  9152   0.663E-04-0.672E-06
CGA:  29    -0.385000227134E+03   -0.66571E-05   -0.66619E-05  9152   0.129E-03-0.737E-06
CGA:  30    -0.385000237302E+03   -0.10168E-04   -0.10153E-04  9152   0.245E-04-0.993E-06
CGA:  31    -0.385000241009E+03   -0.37068E-05   -0.37321E-05  9152   0.501E-04-0.430E-06
   8 F= -.38500024E+03 E0= -.38499394E+03  d E =-.541508E-01  mag=    46.0000
       N       E                     dE             d eps       ncg     rms          ort
SDA:   1    -0.384066305553E+03    0.93393E+00    0.00000E+00  9152   0.275E+01 0.000E+00
CGA:   2    -0.384607156414E+03   -0.54085E+00   -0.53960E+00  9152   0.375E+01 0.166E-01
CGA:   3    -0.384767314092E+03   -0.16016E+00   -0.16849E+00  9152   0.139E+01-0.216E+00
CGA:   4    -0.384952447579E+03   -0.18513E+00   -0.18522E+00  9152   0.409E+00-0.115E-02
CGA:   5    -0.384978444191E+03   -0.25997E-01   -0.26162E-01  9152   0.333E+00-0.114E-02
CGA:   6    -0.385006325722E+03   -0.27882E-01   -0.27861E-01  9152   0.814E-01-0.517E-03
CGA:   7    -0.385012061787E+03   -0.57361E-02   -0.57222E-02  9152   0.491E-01-0.798E-04
CGA:   8    -0.385016275266E+03   -0.42135E-02   -0.42126E-02  9152   0.324E-01-0.388E-04
CGA:   9    -0.385018216208E+03   -0.19409E-02   -0.19442E-02  9152   0.104E-01-0.156E-04
CGA:  10    -0.385019366655E+03   -0.11504E-02   -0.11511E-02  9152   0.858E-02-0.253E-04
CGA:  11    -0.385019940533E+03   -0.57388E-03   -0.57426E-03  9152   0.533E-02 0.487E-05
CGA:  12    -0.385020377019E+03   -0.43649E-03   -0.43653E-03  9152   0.187E-02 0.632E-05
CGA:  13    -0.385020594701E+03   -0.21768E-03   -0.21763E-03  9152   0.280E-02 0.187E-05
CGA:  14    -0.385020784229E+03   -0.18953E-03   -0.18947E-03  9152   0.824E-03 0.892E-06
CGA:  15    -0.385020882122E+03   -0.97893E-04   -0.97894E-04  9152   0.105E-02 0.791E-07
CGA:  16    -0.385020964261E+03   -0.82139E-04   -0.82137E-04  9152   0.547E-03 0.569E-06
CGA:  17    -0.385021005461E+03   -0.41200E-04   -0.41195E-04  9152   0.378E-03-0.209E-06
CGA:  18    -0.385021050988E+03   -0.45527E-04   -0.45512E-04  9152   0.248E-03 0.495E-06
CGA:  19    -0.385021066043E+03   -0.15055E-04   -0.15047E-04  9152   0.166E-03-0.323E-06
CGA:  20    -0.385021088892E+03   -0.22849E-04   -0.22869E-04  9152   0.104E-03-0.434E-06
CGA:  21    -0.385021096222E+03   -0.73293E-05   -0.73234E-05  9152   0.826E-04-0.287E-06
   9 F= -.38502110E+03 E0= -.38501477E+03  d E =-.208552E-01  mag=    46.0000
       N       E                     dE             d eps       ncg     rms          ort
SDA:   1    -0.384981447811E+03    0.39641E-01    0.00000E+00  9152   0.186E+00 0.000E+00
CGA:   2    -0.384992606508E+03   -0.11159E-01   -0.11133E-01  9152   0.187E+00-0.686E-04
CGA:   3    -0.385012454794E+03   -0.19848E-01   -0.19837E-01  9152   0.683E-01 0.514E-03
CGA:   4    -0.385019763027E+03   -0.73082E-02   -0.73112E-02  9152   0.347E-01-0.131E-03
CGA:   5    -0.385023136615E+03   -0.33736E-02   -0.33723E-02  9152   0.145E-01 0.156E-03
CGA:   6    -0.385024438040E+03   -0.13014E-02   -0.13009E-02  9152   0.340E-02-0.629E-04
CGA:   7    -0.385024957638E+03   -0.51960E-03   -0.51949E-03  9152   0.231E-02 0.169E-05
CGA:   8    -0.385025051987E+03   -0.94349E-04   -0.94354E-04  9152   0.796E-03-0.124E-05
CGA:   9    -0.385025165173E+03   -0.11319E-03   -0.11327E-03  9152   0.536E-03-0.149E-05
CGA:  10    -0.385025206668E+03   -0.41496E-04   -0.41514E-04  9152   0.198E-03 0.480E-06
CGA:  11    -0.385025233218E+03   -0.26550E-04   -0.26530E-04  9152   0.189E-03 0.559E-06
CGA:  12    -0.385025244575E+03   -0.11357E-04   -0.11357E-04  9152   0.129E-03-0.186E-07
CGA:  13    -0.385025256720E+03   -0.12145E-04   -0.12145E-04  9152   0.487E-04 0.605E-08
CGA:  14    -0.385025265928E+03   -0.92083E-05   -0.92258E-05  9152   0.507E-04-0.183E-06
  10 F= -.38502527E+03 E0= -.38501894E+03  d E =-.416971E-02  mag=    46.0000
       N       E                     dE             d eps       ncg     rms          ort
SDA:   1    -0.384749755990E+03    0.27550E+00    0.00000E+00  9152   0.875E+00 0.000E+00
CGA:   2    -0.384844874319E+03   -0.95118E-01   -0.95028E-01  9152   0.180E+01 0.600E-02
CGA:   3    -0.384975593312E+03   -0.13072E+00   -0.13056E+00  9152   0.250E+00-0.249E-02
CGA:   4    -0.385018446058E+03   -0.42853E-01   -0.42737E-01  9152   0.139E+00 0.147E-02
CGA:   5    -0.385026970819E+03   -0.85248E-02   -0.84144E-02  9152   0.588E-01 0.426E-03
CGA:   6    -0.385031025977E+03   -0.40552E-02   -0.40497E-02  9152   0.393E-01-0.249E-04
CGA:   7    -0.385033698206E+03   -0.26722E-02   -0.26741E-02  9152   0.859E-02-0.284E-05
CGA:   8    -0.385034716012E+03   -0.10178E-02   -0.10181E-02  9152   0.424E-02-0.969E-05
CGA:   9    -0.385035144427E+03   -0.42841E-03   -0.42839E-03  9152   0.432E-02 0.348E-05
CGA:  10    -0.385035353473E+03   -0.20905E-03   -0.20863E-03  9152   0.927E-03 0.532E-05
CGA:  11    -0.385035495601E+03   -0.14213E-03   -0.14217E-03  9152   0.978E-03-0.509E-06
CGA:  12    -0.385035574892E+03   -0.79291E-04   -0.79342E-04  9152   0.379E-03 0.192E-05
CGA:  13    -0.385035610220E+03   -0.35328E-04   -0.35329E-04  9152   0.575E-03-0.108E-07
CGA:  14    -0.385035661159E+03   -0.50939E-04   -0.50937E-04  9152   0.207E-03 0.133E-07
CGA:  15    -0.385035696438E+03   -0.35279E-04   -0.35282E-04  9152   0.192E-03-0.409E-07
CGA:  16    -0.385035710805E+03   -0.14367E-04   -0.14358E-04  9152   0.171E-03-0.309E-06
CGA:  17    -0.385035724741E+03   -0.13937E-04   -0.13926E-04  9152   0.106E-03-0.611E-06
CGA:  18    -0.385035734766E+03   -0.10025E-04   -0.10026E-04  9152   0.539E-04 0.404E-06
CGA:  19    -0.385035740785E+03   -0.60193E-05   -0.60125E-05  9152   0.323E-04 0.519E-06
  11 F= -.38503574E+03 E0= -.38502941E+03  d E =-.104749E-01  mag=    46.0000
       N       E                     dE             d eps       ncg     rms          ort
SDA:   1    -0.381927111833E+03    0.31086E+01    0.00000E+00  9152   0.880E+01 0.000E+00
CGA:   2    -0.383528784878E+03   -0.16017E+01   -0.15274E+01  9152   0.129E+02 0.105E+01
CGA:   3    -0.384340210939E+03   -0.81143E+00   -0.79545E+00  9152   0.499E+01-0.189E+01
CGA:   4    -0.384776466547E+03   -0.43626E+00   -0.43662E+00  9152   0.227E+01-0.518E-01
CGA:   5    -0.384924764691E+03   -0.14830E+00   -0.14679E+00  9152   0.107E+01-0.675E-02
CGA:   6    -0.384998504993E+03   -0.73740E-01   -0.73656E-01  9152   0.529E+00-0.352E-02
CGA:   7    -0.385035273620E+03   -0.36769E-01   -0.36771E-01  9152   0.159E+00-0.780E-03
CGA:   8    -0.385047667552E+03   -0.12394E-01   -0.12375E-01  9152   0.121E+00-0.366E-03
CGA:   9    -0.385055876388E+03   -0.82088E-02   -0.82164E-02  9152   0.454E-01 0.184E-04
CGA:  10    -0.385059743257E+03   -0.38669E-02   -0.38677E-02  9152   0.267E-01 0.490E-04
CGA:  11    -0.385061684038E+03   -0.19408E-02   -0.19429E-02  9152   0.175E-01 0.247E-04
CGA:  12    -0.385063056030E+03   -0.13720E-02   -0.13719E-02  9152   0.868E-02-0.215E-06
CGA:  13    -0.385063846927E+03   -0.79090E-03   -0.79089E-03  9152   0.631E-02 0.522E-05
CGA:  14    -0.385064342806E+03   -0.49588E-03   -0.49593E-03  9152   0.527E-02 0.513E-05
CGA:  15    -0.385064869209E+03   -0.52640E-03   -0.52628E-03  9152   0.308E-02 0.874E-05
CGA:  16    -0.385065145613E+03   -0.27640E-03   -0.27641E-03  9152   0.312E-02 0.436E-05
CGA:  17    -0.385065430198E+03   -0.28458E-03   -0.28458E-03  9152   0.226E-02 0.117E-05
CGA:  18    -0.385065618844E+03   -0.18865E-03   -0.18864E-03  9152   0.121E-02 0.552E-07
CGA:  19    -0.385065732350E+03   -0.11351E-03   -0.11350E-03  9152   0.130E-02 0.364E-07
CGA:  20    -0.385065834684E+03   -0.10233E-03   -0.10234E-03  9152   0.550E-03 0.732E-06
CGA:  21    -0.385065886462E+03   -0.51778E-04   -0.51775E-04  9152   0.469E-03 0.588E-06
CGA:  22    -0.385065924027E+03   -0.37565E-04   -0.37580E-04  9152   0.331E-03 0.150E-05
CGA:  23    -0.385065952247E+03   -0.28220E-04   -0.28224E-04  9152   0.186E-03 0.807E-06
CGA:  24    -0.385065970660E+03   -0.18413E-04   -0.18410E-04  9152   0.175E-03 0.273E-06
CGA:  25    -0.385065984288E+03   -0.13628E-04   -0.13623E-04  9152   0.120E-03-0.468E-06
CGA:  26    -0.385065996724E+03   -0.12436E-04   -0.12440E-04  9152   0.803E-04-0.312E-06
CGA:  27    -0.385066003306E+03   -0.65824E-05   -0.65764E-05  9152   0.713E-04-0.746E-06
  12 F= -.38506600E+03 E0= -.38505966E+03  d E =-.302625E-01  mag=    46.0000
       N       E                     dE             d eps       ncg     rms          ort
SDA:   1    -0.379289066954E+03    0.57769E+01    0.00000E+00  9152   0.161E+02 0.000E+00
CGA:   2    -0.382376408479E+03   -0.30873E+01   -0.28354E+01  9152   0.154E+02 0.313E+01
CGA:   3    -0.383626466182E+03   -0.12501E+01   -0.12231E+01  9152   0.126E+02-0.414E+01
CGA:   4    -0.384481402487E+03   -0.85494E+00   -0.85492E+00  9152   0.611E+01 0.734E-01
CGA:   5    -0.384723315023E+03   -0.24191E+00   -0.23320E+00  9152   0.305E+01-0.331E+00
CGA:   6    -0.384847421308E+03   -0.12411E+00   -0.11594E+00  9152   0.172E+01 0.469E-01
CGA:   7    -0.384930412305E+03   -0.82991E-01   -0.84322E-01  9152   0.191E+01-0.207E-01
CGA:   8    -0.385015515655E+03   -0.85103E-01   -0.88815E-01  9152   0.754E+00-0.367E-01
CGA:   9    -0.385035153464E+03   -0.19638E-01   -0.19234E-01  9152   0.235E+00 0.786E-02
CGA:  10    -0.385048505259E+03   -0.13352E-01   -0.13256E-01  9152   0.267E+00-0.356E-03
CGA:  11    -0.385059611505E+03   -0.11106E-01   -0.11178E-01  9152   0.206E+00-0.936E-03
CGA:  12    -0.385070203134E+03   -0.10592E-01   -0.10665E-01  9152   0.169E+00-0.139E-04
CGA:  13    -0.385075242647E+03   -0.50395E-02   -0.51627E-02  9152   0.381E-01-0.273E-02
CGA:  14    -0.385076929340E+03   -0.16867E-02   -0.16859E-02  9152   0.413E-01-0.285E-05
CGA:  15    -0.385079627652E+03   -0.26983E-02   -0.26972E-02  9152   0.370E-01-0.617E-04
CGA:  16    -0.385081173524E+03   -0.15459E-02   -0.15518E-02  9152   0.249E-01-0.412E-04
CGA:  17    -0.385082286161E+03   -0.11126E-02   -0.11222E-02  9152   0.103E-01-0.131E-04
CGA:  18    -0.385082690053E+03   -0.40389E-03   -0.40475E-03  9152   0.805E-02 0.182E-05
CGA:  19    -0.385083421943E+03   -0.73189E-03   -0.73181E-03  9152   0.112E-01 0.632E-05
CGA:  20    -0.385083855575E+03   -0.43363E-03   -0.43635E-03  9152   0.549E-02-0.172E-04
CGA:  21    -0.385084173422E+03   -0.31785E-03   -0.31818E-03  9152   0.422E-02 0.142E-04
CGA:  22    -0.385084352749E+03   -0.17933E-03   -0.17954E-03  9152   0.289E-02 0.108E-06
CGA:  23    -0.385084604091E+03   -0.25134E-03   -0.25156E-03  9152   0.404E-02-0.878E-05
CGA:  24    -0.385084761403E+03   -0.15731E-03   -0.15749E-03  9152   0.180E-02-0.602E-05
CGA:  25    -0.385084884831E+03   -0.12343E-03   -0.12342E-03  9152   0.220E-02 0.605E-06
CGA:  26    -0.385084985448E+03   -0.10062E-03   -0.10072E-03  9152   0.128E-02 0.139E-05
CGA:  27    -0.385085073027E+03   -0.87580E-04   -0.87574E-04  9152   0.145E-02 0.146E-05
CGA:  28    -0.385085134964E+03   -0.61937E-04   -0.61980E-04  9152   0.740E-03 0.586E-06
CGA:  29    -0.385085190529E+03   -0.55564E-04   -0.55544E-04  9152   0.108E-02 0.172E-05
CGA:  30    -0.385085239712E+03   -0.49184E-04   -0.49239E-04  9152   0.456E-03 0.223E-05
CGA:  31    -0.385085266382E+03   -0.26670E-04   -0.26671E-04  9152   0.486E-03 0.444E-06
SDA:  32    -0.385085291539E+03   -0.25157E-04   -0.25145E-04  9152   0.294E-03-0.640E-06
CGA:  33    -0.385085308094E+03   -0.16555E-04   -0.16558E-04  9152   0.990E-04 0.688E-07
CGA:  34    -0.385085328571E+03   -0.20476E-04   -0.20703E-04  9152   0.230E-03-0.152E-05
CGA:  35    -0.385085339740E+03   -0.11169E-04   -0.11141E-04  9152   0.716E-04-0.129E-05
CGA:  36    -0.385085350594E+03   -0.10855E-04   -0.10892E-04  9152   0.303E-04-0.443E-06
CGA:  37    -0.385085355916E+03   -0.53220E-05   -0.53109E-05  9152   0.503E-04 0.945E-07
  13 F= -.38508536E+03 E0= -.38507898E+03  d E =-.193526E-01  mag=    46.0000
       N       E                     dE             d eps       ncg     rms          ort
SDA:   1    -0.384988604983E+03    0.96746E-01    0.00000E+00  9152   0.365E+00 0.000E+00
CGA:   2    -0.385031249372E+03   -0.42644E-01   -0.42584E-01  9152   0.531E+00 0.141E-02
CGA:   3    -0.385058858857E+03   -0.27609E-01   -0.27486E-01  9152   0.139E+00-0.245E-03
CGA:   4    -0.385080941866E+03   -0.22083E-01   -0.22009E-01  9152   0.105E+00 0.947E-03
CGA:   5    -0.385088274534E+03   -0.73327E-02   -0.73147E-02  9152   0.355E-01-0.462E-03
CGA:   6    -0.385091190236E+03   -0.29157E-02   -0.29153E-02  9152   0.293E-01 0.133E-03
CGA:   7    -0.385092835679E+03   -0.16454E-02   -0.16460E-02  9152   0.840E-02 0.281E-05
CGA:   8    -0.385093732713E+03   -0.89703E-03   -0.89579E-03  9152   0.282E-02 0.360E-04
CGA:   9    -0.385094058113E+03   -0.32540E-03   -0.32544E-03  9152   0.370E-02-0.804E-06
CGA:  10    -0.385094249643E+03   -0.19153E-03   -0.19165E-03  9152   0.784E-03-0.138E-05
CGA:  11    -0.385094345767E+03   -0.96124E-04   -0.96150E-04  9152   0.800E-03-0.460E-06
CGA:  12    -0.385094416405E+03   -0.70638E-04   -0.70634E-04  9152   0.269E-03 0.813E-06
CGA:  13    -0.385094434387E+03   -0.17982E-04   -0.17981E-04  9152   0.249E-03-0.413E-08
CGA:  14    -0.385094460645E+03   -0.26258E-04   -0.26282E-04  9152   0.105E-03-0.103E-05
CGA:  15    -0.385094472957E+03   -0.12311E-04   -0.12314E-04  9152   0.749E-04-0.816E-07
CGA:  16    -0.385094477601E+03   -0.46443E-05   -0.46357E-05  9152   0.544E-04-0.362E-06
  14 F= -.38509448E+03 E0= -.38508810E+03  d E =-.912168E-02  mag=    46.0000
       N       E                     dE             d eps       ncg     rms          ort
SDA:   1    -0.385085074837E+03    0.93981E-02    0.00000E+00  9152   0.687E-01 0.000E+00
CGA:   2    -0.385088369212E+03   -0.32944E-02   -0.32897E-02  9152   0.354E-01 0.624E-05
CGA:   3    -0.385091770000E+03   -0.34008E-02   -0.34009E-02  9152   0.310E-01-0.215E-05
CGA:   4    -0.385093965997E+03   -0.21960E-02   -0.21999E-02  9152   0.908E-02 0.856E-04
CGA:   5    -0.385095650549E+03   -0.16846E-02   -0.16869E-02  9152   0.213E-02-0.235E-04
CGA:   6    -0.385095935172E+03   -0.28462E-03   -0.28447E-03  9152   0.200E-02 0.292E-05
CGA:   7    -0.385096049916E+03   -0.11474E-03   -0.11467E-03  9152   0.676E-03-0.196E-06
CGA:   8    -0.385096088569E+03   -0.38653E-04   -0.38659E-04  9152   0.378E-03 0.426E-06
CGA:   9    -0.385096139297E+03   -0.50728E-04   -0.50701E-04  9152   0.980E-04 0.599E-06
CGA:  10    -0.385096154022E+03   -0.14725E-04   -0.14735E-04  9152   0.118E-03-0.168E-06
CGA:  11    -0.385096161755E+03   -0.77329E-05   -0.77308E-05  9152   0.583E-04-0.774E-07
  15 F= -.38509616E+03 E0= -.38508978E+03  d E =-.168415E-02  mag=    46.0000
       N       E                     dE             d eps       ncg     rms          ort
SDA:   1    -0.384888503589E+03    0.20765E+00    0.00000E+00  9152   0.613E+00 0.000E+00
CGA:   2    -0.385002562043E+03   -0.11406E+00   -0.11400E+00  9152   0.860E+00 0.749E-03
CGA:   3    -0.385041065432E+03   -0.38503E-01   -0.38873E-01  9152   0.312E+00-0.747E-02
CGA:   4    -0.385078837383E+03   -0.37772E-01   -0.37820E-01  9152   0.196E+00-0.116E-02
CGA:   5    -0.385091219569E+03   -0.12382E-01   -0.12484E-01  9152   0.412E-01 0.153E-04
CGA:   6    -0.385096913064E+03   -0.56935E-02   -0.56937E-02  9152   0.398E-01-0.123E-05
CGA:   7    -0.385098481538E+03   -0.15685E-02   -0.15727E-02  9152   0.734E-02-0.788E-04
CGA:   8    -0.385099662588E+03   -0.11811E-02   -0.11798E-02  9152   0.504E-02 0.169E-04
CGA:   9    -0.385100015694E+03   -0.35311E-03   -0.35255E-03  9152   0.230E-02-0.342E-05
CGA:  10    -0.385100196439E+03   -0.18075E-03   -0.18070E-03  9152   0.214E-02-0.634E-06
CGA:  11    -0.385100358636E+03   -0.16220E-03   -0.16223E-03  9152   0.762E-03 0.459E-06
CGA:  12    -0.385100443685E+03   -0.85049E-04   -0.85060E-04  9152   0.387E-03-0.190E-06
CGA:  13    -0.385100481345E+03   -0.37660E-04   -0.37663E-04  9152   0.552E-03-0.714E-06
CGA:  14    -0.385100522152E+03   -0.40807E-04   -0.40785E-04  9152   0.162E-03-0.847E-06
CGA:  15    -0.385100538756E+03   -0.16605E-04   -0.16614E-04  9152   0.148E-03-0.874E-06
CGA:  16    -0.385100556249E+03   -0.17493E-04   -0.17496E-04  9152   0.114E-03-0.109E-06
CGA:  17    -0.385100562148E+03   -0.58992E-05   -0.58941E-05  9152   0.557E-04-0.135E-06
  16 F= -.38510056E+03 E0= -.38509419E+03  d E =-.440039E-02  mag=    46.0000
       N       E                     dE             d eps       ncg     rms          ort
SDA:   1    -0.385045867882E+03    0.54688E-01    0.00000E+00  9152   0.182E+00 0.000E+00
CGA:   2    -0.385065004113E+03   -0.19136E-01   -0.19134E-01  9152   0.307E+00 0.163E-03
CGA:   3    -0.385086823366E+03   -0.21819E-01   -0.21829E-01  9152   0.111E+00-0.193E-05
CGA:   4    -0.385094489815E+03   -0.76664E-02   -0.77301E-02  9152   0.498E-01 0.339E-03
CGA:   5    -0.385100633094E+03   -0.61433E-02   -0.61515E-02  9152   0.101E-01-0.208E-03
CGA:   6    -0.385101880328E+03   -0.12472E-02   -0.12481E-02  9152   0.627E-02-0.223E-04
CGA:   7    -0.385102258289E+03   -0.37796E-03   -0.37796E-03  9152   0.368E-02-0.122E-05
CGA:   8    -0.385102493381E+03   -0.23509E-03   -0.23482E-03  9152   0.122E-02 0.642E-06
CGA:   9    -0.385102611303E+03   -0.11792E-03   -0.11791E-03  9152   0.755E-03 0.125E-05
CGA:  10    -0.385102698975E+03   -0.87671E-04   -0.87718E-04  9152   0.216E-03-0.172E-05
CGA:  11    -0.385102718542E+03   -0.19567E-04   -0.19567E-04  9152   0.329E-03 0.523E-07
CGA:  12    -0.385102745664E+03   -0.27122E-04   -0.27129E-04  9152   0.103E-03 0.613E-06
CGA:  13    -0.385102755553E+03   -0.98886E-05   -0.98901E-05  9152   0.807E-04-0.346E-06
CGA:  14    -0.385102768279E+03   -0.12726E-04   -0.12741E-04  9152   0.693E-04-0.221E-06
CGA:  15    -0.385102772666E+03   -0.43866E-05   -0.43817E-05  9152   0.534E-04-0.150E-06
  17 F= -.38510277E+03 E0= -.38509641E+03  d E =-.221052E-02  mag=    46.0000
       N       E                     dE             d eps       ncg     rms          ort
SDA:   1    -0.384785333100E+03    0.31744E+00    0.00000E+00  9152   0.887E+00 0.000E+00
CGA:   2    -0.384959376931E+03   -0.17404E+00   -0.17496E+00  9152   0.147E+01-0.771E-02
CGA:   3    -0.385035457920E+03   -0.76081E-01   -0.75976E-01  9152   0.487E+00-0.123E-01
CGA:   4    -0.385070117219E+03   -0.34659E-01   -0.34823E-01  9152   0.302E+00 0.772E-03
CGA:   5    -0.385097891135E+03   -0.27774E-01   -0.27749E-01  9152   0.588E-01-0.245E-02
CGA:   6    -0.385103367766E+03   -0.54766E-02   -0.54760E-02  9152   0.541E-01-0.127E-03
CGA:   7    -0.385106213215E+03   -0.28454E-02   -0.28505E-02  9152   0.159E-01-0.489E-04
CGA:   8    -0.385107850146E+03   -0.16369E-02   -0.16386E-02  9152   0.559E-02-0.107E-03
CGA:   9    -0.385108344180E+03   -0.49403E-03   -0.49405E-03  9152   0.598E-02 0.679E-06
CGA:  10    -0.385108760178E+03   -0.41600E-03   -0.41574E-03  9152   0.202E-02-0.102E-05
CGA:  11    -0.385108900201E+03   -0.14002E-03   -0.13989E-03  9152   0.972E-03-0.134E-05
CGA:  12    -0.385109050993E+03   -0.15079E-03   -0.15075E-03  9152   0.104E-02 0.753E-06
CGA:  13    -0.385109100931E+03   -0.49938E-04   -0.49957E-04  9152   0.383E-03-0.216E-06
CGA:  14    -0.385109171923E+03   -0.70991E-04   -0.70994E-04  9152   0.414E-03-0.303E-07
CGA:  15    -0.385109205307E+03   -0.33384E-04   -0.33382E-04  9152   0.357E-03-0.292E-06
CGA:  16    -0.385109233071E+03   -0.27764E-04   -0.27755E-04  9152   0.203E-03-0.241E-06
CGA:  17    -0.385109254059E+03   -0.20988E-04   -0.20992E-04  9152   0.161E-03-0.363E-06
CGA:  18    -0.385109270247E+03   -0.16188E-04   -0.16186E-04  9152   0.110E-03 0.487E-06
CGA:  19    -0.385109276812E+03   -0.65648E-05   -0.65645E-05  9152   0.628E-04 0.335E-08
  18 F= -.38510928E+03 E0= -.38510292E+03  d E =-.650415E-02  mag=    46.0000
       N       E                     dE             d eps       ncg     rms          ort
SDA:   1    -0.380085340213E+03    0.50239E+01    0.00000E+00  9152   0.138E+02 0.000E+00
CGA:   2    -0.383221516842E+03   -0.31362E+01   -0.31746E+01  9152   0.140E+02-0.206E+00
CGA:   3    -0.384135705678E+03   -0.91419E+00   -0.98109E+00  9152   0.536E+01-0.152E+00
CGA:   4    -0.384856266342E+03   -0.72056E+00   -0.72486E+00  9152   0.197E+01-0.913E-01
CGA:   5    -0.384950084204E+03   -0.93818E-01   -0.97171E-01  9152   0.118E+01-0.700E-01
CGA:   6    -0.385056715763E+03   -0.10663E+00   -0.10671E+00  9152   0.354E+00 0.520E-02
CGA:   7    -0.385082626911E+03   -0.25911E-01   -0.25295E-01  9152   0.139E+00-0.227E-02
CGA:   8    -0.385104482295E+03   -0.21855E-01   -0.21714E-01  9152   0.429E-01 0.209E-02
CGA:   9    -0.385109109381E+03   -0.46271E-02   -0.46302E-02  9152   0.427E-01-0.348E-03
CGA:  10    -0.385112413412E+03   -0.33040E-02   -0.33060E-02  9152   0.292E-01 0.230E-04
CGA:  11    -0.385114160771E+03   -0.17474E-02   -0.17508E-02  9152   0.110E-01-0.943E-05
CGA:  12    -0.385115644329E+03   -0.14836E-02   -0.14849E-02  9152   0.877E-02-0.253E-04
CGA:  13    -0.385116955419E+03   -0.13111E-02   -0.13080E-02  9152   0.619E-02 0.535E-04
CGA:  14    -0.385117358020E+03   -0.40260E-03   -0.40271E-03  9152   0.499E-02 0.126E-05
CGA:  15    -0.385117922113E+03   -0.56409E-03   -0.56410E-03  9152   0.510E-02-0.181E-06
CGA:  16    -0.385118356673E+03   -0.43456E-03   -0.43514E-03  9152   0.124E-02 0.127E-04
CGA:  17    -0.385118625157E+03   -0.26848E-03   -0.26881E-03  9152   0.212E-02-0.286E-05
CGA:  18    -0.385118738321E+03   -0.11316E-03   -0.11321E-03  9152   0.768E-03-0.572E-07
CGA:  19    -0.385118798930E+03   -0.60609E-04   -0.60634E-04  9152   0.563E-03 0.576E-06
CGA:  20    -0.385118885739E+03   -0.86809E-04   -0.86769E-04  9152   0.311E-03 0.828E-06
CGA:  21    -0.385118920996E+03   -0.35257E-04   -0.35256E-04  9152   0.305E-03 0.721E-07
CGA:  22    -0.385118941990E+03   -0.20994E-04   -0.20991E-04  9152   0.235E-03 0.584E-07
CGA:  23    -0.385118968613E+03   -0.26623E-04   -0.26625E-04  9152   0.156E-03-0.337E-06
CGA:  24    -0.385118984025E+03   -0.15412E-04   -0.15413E-04  9152   0.817E-04-0.178E-07
CGA:  25    -0.385118995579E+03   -0.11554E-04   -0.11587E-04  9152   0.116E-03-0.882E-06
CGA:  26    -0.385119002003E+03   -0.64241E-05   -0.64104E-05  9152   0.474E-04-0.281E-06
  19 F= -.38511900E+03 E0= -.38511269E+03  d E =-.972519E-02  mag=    46.0000
       N       E                     dE             d eps       ncg     rms          ort
SDA:   1    -0.384041037776E+03    0.10780E+01    0.00000E+00  9152   0.342E+01 0.000E+00
CGA:   2    -0.384665377348E+03   -0.62434E+00   -0.62394E+00  9152   0.227E+01 0.567E-02
CGA:   3    -0.384811735127E+03   -0.14636E+00   -0.15144E+00  9152   0.235E+01-0.479E-01
CGA:   4    -0.385038336104E+03   -0.22660E+00   -0.22632E+00  9152   0.465E+00-0.151E-01
CGA:   5    -0.385093542329E+03   -0.55206E-01   -0.55207E-01  9152   0.350E+00 0.540E-05
CGA:   6    -0.385114776522E+03   -0.21234E-01   -0.21399E-01  9152   0.145E+00-0.102E-02
CGA:   7    -0.385123868141E+03   -0.90916E-02   -0.91752E-02  9152   0.712E-01-0.356E-03
CGA:   8    -0.385130072560E+03   -0.62044E-02   -0.61969E-02  9152   0.304E-01-0.162E-03
CGA:   9    -0.385133282103E+03   -0.32095E-02   -0.32080E-02  9152   0.198E-01 0.215E-03
CGA:  10    -0.385134295588E+03   -0.10135E-02   -0.10114E-02  9152   0.905E-02 0.268E-04
CGA:  11    -0.385135715130E+03   -0.14195E-02   -0.14189E-02  9152   0.352E-02 0.914E-05
CGA:  12    -0.385135946416E+03   -0.23129E-03   -0.23127E-03  9152   0.331E-02 0.850E-06
CGA:  13    -0.385136334988E+03   -0.38857E-03   -0.38846E-03  9152   0.138E-02 0.401E-05
CGA:  14    -0.385136452414E+03   -0.11743E-03   -0.11739E-03  9152   0.111E-02-0.153E-05
CGA:  15    -0.385136542827E+03   -0.90413E-04   -0.90418E-04  9152   0.777E-03-0.128E-05
CGA:  16    -0.385136609783E+03   -0.66956E-04   -0.66972E-04  9152   0.486E-03 0.383E-06
CGA:  17    -0.385136656481E+03   -0.46698E-04   -0.46700E-04  9152   0.257E-03 0.508E-06
CGA:  18    -0.385136676705E+03   -0.20224E-04   -0.20236E-04  9152   0.273E-03 0.614E-06
CGA:  19    -0.385136705163E+03   -0.28458E-04   -0.28452E-04  9152   0.909E-04 0.862E-06
CGA:  20    -0.385136715432E+03   -0.10268E-04   -0.10256E-04  9152   0.129E-03 0.853E-06
CGA:  21    -0.385136724143E+03   -0.87108E-05   -0.87254E-05  9152   0.453E-04 0.422E-06
  20 F= -.38513672E+03 E0= -.38513040E+03  d E =-.177221E-01  mag=    46.0000
       N       E                     dE             d eps       ncg     rms          ort
SDA:   1    -0.385117989512E+03    0.18726E-01    0.00000E+00  9152   0.137E+00 0.000E+00
CGA:   2    -0.385123245127E+03   -0.52556E-02   -0.52433E-02  9152   0.555E-01 0.886E-04
CGA:   3    -0.385132414400E+03   -0.91693E-02   -0.91701E-02  9152   0.338E-01-0.111E-04
CGA:   4    -0.385135103196E+03   -0.26888E-02   -0.26797E-02  9152   0.172E-01-0.106E-03
CGA:   5    -0.385137297007E+03   -0.21938E-02   -0.21932E-02  9152   0.450E-02 0.183E-04
CGA:   6    -0.385137554774E+03   -0.25777E-03   -0.25773E-03  9152   0.357E-02 0.118E-05
CGA:   7    -0.385137906072E+03   -0.35130E-03   -0.35130E-03  9152   0.684E-03-0.167E-05
CGA:   8    -0.385137978932E+03   -0.72859E-04   -0.72852E-04  9152   0.613E-03 0.597E-06
CGA:   9    -0.385138027117E+03   -0.48186E-04   -0.48178E-04  9152   0.349E-03-0.265E-06
CGA:  10    -0.385138046739E+03   -0.19622E-04   -0.19636E-04  9152   0.138E-03 0.410E-06
CGA:  11    -0.385138063925E+03   -0.17186E-04   -0.17169E-04  9152   0.754E-04 0.554E-06
CGA:  12    -0.385138072233E+03   -0.83082E-05   -0.83107E-05  9152   0.666E-04-0.156E-06
  21 F= -.38513807E+03 E0= -.38513176E+03  d E =-.134809E-02  mag=    46.0000
       N       E                     dE             d eps       ncg     rms          ort
SDA:   1    -0.385012254368E+03    0.12581E+00    0.00000E+00  9152   0.359E+00 0.000E+00
CGA:   2    -0.385065423628E+03   -0.53169E-01   -0.53254E-01  9152   0.826E+00-0.117E-02
CGA:   3    -0.385113160798E+03   -0.47737E-01   -0.47491E-01  9152   0.161E+00 0.198E-03
CGA:   4    -0.385127200277E+03   -0.14039E-01   -0.14066E-01  9152   0.992E-01 0.120E-02
CGA:   5    -0.385136951182E+03   -0.97509E-02   -0.97525E-02  9152   0.181E-01-0.426E-03
CGA:   6    -0.385138984499E+03   -0.20333E-02   -0.20325E-02  9152   0.188E-01 0.307E-04
CGA:   7    -0.385139843464E+03   -0.85897E-03   -0.85908E-03  9152   0.394E-02 0.392E-05
CGA:   8    -0.385140318940E+03   -0.47548E-03   -0.47571E-03  9152   0.207E-02-0.661E-05
CGA:   9    -0.385140510601E+03   -0.19166E-03   -0.19168E-03  9152   0.112E-02 0.480E-05
CGA:  10    -0.385140591887E+03   -0.81287E-04   -0.81319E-04  9152   0.705E-03 0.682E-07
CGA:  11    -0.385140636350E+03   -0.44463E-04   -0.44471E-04  9152   0.332E-03 0.279E-07
CGA:  12    -0.385140676393E+03   -0.40043E-04   -0.40049E-04  9152   0.125E-03-0.293E-06
CGA:  13    -0.385140695013E+03   -0.18620E-04   -0.18619E-04  9152   0.215E-03 0.267E-07
CGA:  14    -0.385140707016E+03   -0.12002E-04   -0.12002E-04  9152   0.689E-04-0.105E-06
CGA:  15    -0.385140715604E+03   -0.85880E-05   -0.85771E-05  9152   0.772E-04 0.367E-06
  22 F= -.38514072E+03 E0= -.38513442E+03  d E =-.264337E-02  mag=    46.0000
       N       E                     dE             d eps       ncg     rms          ort
SDA:   1    -0.385049683030E+03    0.91024E-01    0.00000E+00  9152   0.273E+00 0.000E+00
CGA:   2    -0.385082071536E+03   -0.32389E-01   -0.32391E-01  9152   0.574E+00-0.174E-04
CGA:   3    -0.385122104288E+03   -0.40033E-01   -0.39949E-01  9152   0.117E+00-0.509E-03
CGA:   4    -0.385132800713E+03   -0.10696E-01   -0.10708E-01  9152   0.727E-01 0.901E-03
CGA:   5    -0.385139764703E+03   -0.69640E-02   -0.69632E-02  9152   0.137E-01-0.260E-03
CGA:   6    -0.385141236123E+03   -0.14714E-02   -0.14712E-02  9152   0.151E-01 0.123E-04
CGA:   7    -0.385141944243E+03   -0.70812E-03   -0.70837E-03  9152   0.264E-02 0.127E-05
CGA:   8    -0.385142300280E+03   -0.35604E-03   -0.35628E-03  9152   0.170E-02-0.493E-05
CGA:   9    -0.385142438115E+03   -0.13784E-03   -0.13794E-03  9152   0.741E-03 0.263E-05
CGA:  10    -0.385142496224E+03   -0.58109E-04   -0.58121E-04  9152   0.616E-03 0.495E-07
CGA:  11    -0.385142536586E+03   -0.40362E-04   -0.40370E-04  9152   0.229E-03 0.659E-07
CGA:  12    -0.385142565033E+03   -0.28447E-04   -0.28455E-04  9152   0.110E-03-0.313E-06
CGA:  13    -0.385142579891E+03   -0.14858E-04   -0.14852E-04  9152   0.171E-03 0.150E-06
CGA:  14    -0.385142589780E+03   -0.98888E-05   -0.98932E-05  9152   0.598E-04 0.115E-07
  23 F= -.38514259E+03 E0= -.38513630E+03  d E =-.187418E-02  mag=    46.0000
       N       E                     dE             d eps       ncg     rms          ort
SDA:   1    -0.382234624483E+03    0.29080E+01    0.00000E+00  9152   0.794E+01 0.000E+00
CGA:   2    -0.383890988987E+03   -0.16564E+01   -0.16556E+01  9152   0.117E+02 0.502E-01
CGA:   3    -0.384412826102E+03   -0.52184E+00   -0.59781E+00  9152   0.537E+01-0.178E+01
CGA:   4    -0.384884252891E+03   -0.47143E+00   -0.47299E+00  9152   0.182E+01-0.199E+00
CGA:   5    -0.385009707486E+03   -0.12545E+00   -0.12704E+00  9152   0.108E+01-0.181E-02
CGA:   6    -0.385077050666E+03   -0.67343E-01   -0.66346E-01  9152   0.351E+00 0.703E-03
CGA:   7    -0.385107942539E+03   -0.30892E-01   -0.30887E-01  9152   0.211E+00-0.235E-03
CGA:   8    -0.385121668101E+03   -0.13726E-01   -0.13686E-01  9152   0.802E-01-0.613E-04
CGA:   9    -0.385128024725E+03   -0.63566E-02   -0.63580E-02  9152   0.559E-01 0.160E-04
CGA:  10    -0.385132842098E+03   -0.48174E-02   -0.48144E-02  9152   0.214E-01-0.160E-03
CGA:  11    -0.385134270901E+03   -0.14288E-02   -0.14301E-02  9152   0.151E-01 0.156E-05
CGA:  12    -0.385135892485E+03   -0.16216E-02   -0.16218E-02  9152   0.668E-02-0.708E-05
CGA:  13    -0.385136342964E+03   -0.45048E-03   -0.45078E-03  9152   0.493E-02 0.178E-05
CGA:  14    -0.385136913193E+03   -0.57023E-03   -0.57038E-03  9152   0.335E-02-0.291E-05
CGA:  15    -0.385137164214E+03   -0.25102E-03   -0.25107E-03  9152   0.219E-02 0.114E-05
CGA:  16    -0.385137379030E+03   -0.21482E-03   -0.21483E-03  9152   0.181E-02-0.624E-06
CGA:  17    -0.385137539806E+03   -0.16078E-03   -0.16078E-03  9152   0.117E-02-0.188E-06
CGA:  18    -0.385137643126E+03   -0.10332E-03   -0.10332E-03  9152   0.837E-03 0.708E-06
CGA:  19    -0.385137710675E+03   -0.67549E-04   -0.67554E-04  9152   0.561E-03 0.296E-06
CGA:  20    -0.385137771714E+03   -0.61039E-04   -0.61027E-04  9152   0.388E-03 0.683E-06
CGA:  21    -0.385137795942E+03   -0.24228E-04   -0.24240E-04  9152   0.204E-03 0.162E-06
CGA:  22    -0.385137824213E+03   -0.28271E-04   -0.28200E-04  9152   0.189E-03 0.149E-05
CGA:  23    -0.385137835969E+03   -0.11757E-04   -0.11763E-04  9152   0.897E-04 0.132E-06
CGA:  24    -0.385137847453E+03   -0.11483E-04   -0.11480E-04  9152   0.107E-03 0.879E-07
CGA:  25    -0.385137856133E+03   -0.86798E-05   -0.86780E-05  9152   0.573E-04-0.175E-06
  24 F= -.38513786E+03 E0= -.38513153E+03  d E =0.473365E-02  mag=    46.0000
       N       E                     dE             d eps       ncg     rms          ort
SDA:   1    -0.384074865002E+03    0.10630E+01    0.00000E+00  9152   0.469E+01 0.000E+00
CGA:   2    -0.384375037457E+03   -0.30017E+00   -0.30427E+00  9152   0.467E+01-0.780E-01
CGA:   3    -0.384801836257E+03   -0.42680E+00   -0.42685E+00  9152   0.143E+01-0.150E-01
CGA:   4    -0.384991198850E+03   -0.18936E+00   -0.18667E+00  9152   0.106E+01 0.552E-01
CGA:   5    -0.385092966628E+03   -0.10177E+00   -0.10165E+00  9152   0.294E+00-0.425E-01
CGA:   6    -0.385124546109E+03   -0.31579E-01   -0.31438E-01  9152   0.150E+00 0.514E-02
CGA:   7    -0.385134244964E+03   -0.96989E-02   -0.96998E-02  9152   0.107E+00-0.791E-04
CGA:   8    -0.385141740907E+03   -0.74959E-02   -0.74981E-02  9152   0.264E-01-0.544E-05
CGA:   9    -0.385145177204E+03   -0.34363E-02   -0.34241E-02  9152   0.183E-01 0.253E-03
CGA:  10    -0.385146921220E+03   -0.17440E-02   -0.17442E-02  9152   0.632E-02-0.101E-03
CGA:  11    -0.385147785188E+03   -0.86397E-03   -0.86362E-03  9152   0.682E-02 0.748E-05
CGA:  12    -0.385148131145E+03   -0.34596E-03   -0.34602E-03  9152   0.261E-02 0.356E-06
CGA:  13    -0.385148422970E+03   -0.29182E-03   -0.29190E-03  9152   0.151E-02-0.189E-05
CGA:  14    -0.385148589629E+03   -0.16666E-03   -0.16660E-03  9152   0.850E-03 0.277E-05
CGA:  15    -0.385148688261E+03   -0.98632E-04   -0.98649E-04  9152   0.669E-03-0.442E-06
CGA:  16    -0.385148728298E+03   -0.40037E-04   -0.40055E-04  9152   0.438E-03 0.366E-06
CGA:  17    -0.385148779444E+03   -0.51147E-04   -0.51088E-04  9152   0.206E-03 0.253E-05
CGA:  18    -0.385148804965E+03   -0.25521E-04   -0.25531E-04  9152   0.159E-03-0.269E-06
CGA:  19    -0.385148822133E+03   -0.17168E-04   -0.17170E-04  9152   0.115E-03-0.203E-06
CGA:  20    -0.385148829555E+03   -0.74216E-05   -0.74075E-05  9152   0.866E-04-0.420E-06
  25 F= -.38514883E+03 E0= -.38514258E+03  d E =-.109734E-01  mag=    46.0000
       N       E                     dE             d eps       ncg     rms          ort
SDA:   1    -0.385110503922E+03    0.38318E-01    0.00000E+00  9152   0.141E+00 0.000E+00
CGA:   2    -0.385129160456E+03   -0.18657E-01   -0.18732E-01  9152   0.134E+00-0.158E-02
CGA:   3    -0.385140190824E+03   -0.11030E-01   -0.11048E-01  9152   0.553E-01 0.371E-03
CGA:   4    -0.385145182664E+03   -0.49918E-02   -0.49906E-02  9152   0.642E-01-0.758E-04
CGA:   5    -0.385149205312E+03   -0.40226E-02   -0.40194E-02  9152   0.109E-01-0.160E-04
CGA:   6    -0.385150557890E+03   -0.13526E-02   -0.13516E-02  9152   0.474E-02 0.247E-04
CGA:   7    -0.385151003445E+03   -0.44556E-03   -0.44558E-03  9152   0.416E-02 0.411E-05
CGA:   8    -0.385151208620E+03   -0.20517E-03   -0.20494E-03  9152   0.912E-03 0.419E-05
CGA:   9    -0.385151369424E+03   -0.16080E-03   -0.16065E-03  9152   0.445E-03 0.186E-05
CGA:  10    -0.385151403055E+03   -0.33631E-04   -0.33631E-04  9152   0.380E-03-0.833E-07
CGA:  11    -0.385151434309E+03   -0.31254E-04   -0.31248E-04  9152   0.225E-03-0.520E-06
CGA:  12    -0.385151451141E+03   -0.16833E-04   -0.16841E-04  9152   0.889E-04 0.210E-06
CGA:  13    -0.385151463414E+03   -0.12272E-04   -0.12278E-04  9152   0.597E-04-0.156E-06
CGA:  14    -0.385151467648E+03   -0.42344E-05   -0.42319E-05  9152   0.552E-04-0.912E-07
  26 F= -.38515147E+03 E0= -.38514520E+03  d E =-.263809E-02  mag=    46.0000
       N       E                     dE             d eps       ncg     rms          ort
SDA:   1    -0.384584058900E+03    0.56740E+00    0.00000E+00  9152   0.168E+01 0.000E+00
CGA:   2    -0.384830262037E+03   -0.24620E+00   -0.24526E+00  9152   0.325E+01 0.198E-01
CGA:   3    -0.385009725476E+03   -0.17946E+00   -0.17645E+00  9152   0.686E+00-0.754E-02
CGA:   4    -0.385105696026E+03   -0.95971E-01   -0.95886E-01  9152   0.423E+00 0.161E-02
CGA:   5    -0.385131653154E+03   -0.25957E-01   -0.25950E-01  9152   0.156E+00-0.624E-03
CGA:   6    -0.385142229874E+03   -0.10577E-01   -0.10594E-01  9152   0.103E+00 0.268E-04
CGA:   7    -0.385149878738E+03   -0.76489E-02   -0.76683E-02  9152   0.205E-01 0.224E-03
CGA:   8    -0.385152762899E+03   -0.28842E-02   -0.28786E-02  9152   0.153E-01 0.101E-03
CGA:   9    -0.385153583325E+03   -0.82043E-03   -0.82066E-03  9152   0.780E-02 0.233E-06
CGA:  10    -0.385154328984E+03   -0.74566E-03   -0.74563E-03  9152   0.346E-02 0.122E-04
CGA:  11    -0.385154695745E+03   -0.36676E-03   -0.36680E-03  9152   0.211E-02-0.214E-05
CGA:  12    -0.385154871113E+03   -0.17537E-03   -0.17539E-03  9152   0.159E-02 0.684E-06
CGA:  13    -0.385154986072E+03   -0.11496E-03   -0.11499E-03  9152   0.109E-02 0.684E-06
CGA:  14    -0.385155106720E+03   -0.12065E-03   -0.12069E-03  9152   0.434E-03-0.196E-05
CGA:  15    -0.385155174578E+03   -0.67858E-04   -0.67772E-04  9152   0.783E-03 0.135E-05
CGA:  16    -0.385155218881E+03   -0.44303E-04   -0.44306E-04  9152   0.224E-03 0.305E-07
CGA:  17    -0.385155247893E+03   -0.29012E-04   -0.29026E-04  9152   0.238E-03-0.370E-06
CGA:  18    -0.385155271237E+03   -0.23344E-04   -0.23344E-04  9152   0.120E-03-0.544E-07
CGA:  19    -0.385155279006E+03   -0.77694E-05   -0.77837E-05  9152   0.943E-04 0.460E-06
CGA:  20    -0.385155289975E+03   -0.10969E-04   -0.10958E-04  9152   0.371E-04 0.560E-06
CGA:  21    -0.385155294785E+03   -0.48104E-05   -0.48092E-05  9152   0.447E-04 0.333E-07
  27 F= -.38515529E+03 E0= -.38514902E+03  d E =-.382714E-02  mag=    46.0000
       N       E                     dE             d eps       ncg     rms          ort
SDA:   1    -0.380309752065E+03    0.48455E+01    0.00000E+00  9152   0.137E+02 0.000E+00
CGA:   2    -0.383155822456E+03   -0.28461E+01   -0.28212E+01  9152   0.123E+02 0.230E+00
CGA:   3    -0.384169941616E+03   -0.10141E+01   -0.10489E+01  9152   0.571E+01 0.469E+00
CGA:   4    -0.384771779975E+03   -0.60184E+00   -0.60192E+00  9152   0.340E+01-0.691E-01
CGA:   5    -0.384934118177E+03   -0.16234E+00   -0.16654E+00  9152   0.149E+01-0.791E-01
CGA:   6    -0.385052217899E+03   -0.11810E+00   -0.11890E+00  9152   0.370E+00 0.141E-01
CGA:   7    -0.385100020697E+03   -0.47803E-01   -0.48288E-01  9152   0.229E+00-0.116E-01
CGA:   8    -0.385111809729E+03   -0.11789E-01   -0.11790E-01  9152   0.122E+00-0.320E-03
CGA:   9    -0.385122286894E+03   -0.10477E-01   -0.10491E-01  9152   0.587E-01 0.486E-03
CGA:  10    -0.385127609576E+03   -0.53227E-02   -0.53144E-02  9152   0.261E-01-0.585E-03
CGA:  11    -0.385130886974E+03   -0.32774E-02   -0.32708E-02  9152   0.170E-01 0.158E-03
CGA:  12    -0.385131743440E+03   -0.85647E-03   -0.85595E-03  9152   0.988E-02 0.772E-05
CGA:  13    -0.385133251366E+03   -0.15079E-02   -0.15045E-02  9152   0.502E-02 0.525E-04
CGA:  14    -0.385133866907E+03   -0.61554E-03   -0.61476E-03  9152   0.369E-02 0.231E-04
CGA:  15    -0.385134318306E+03   -0.45140E-03   -0.45152E-03  9152   0.380E-02-0.327E-05
CGA:  16    -0.385134586583E+03   -0.26828E-03   -0.26843E-03  9152   0.274E-02 0.131E-05
CGA:  17    -0.385134779600E+03   -0.19302E-03   -0.19333E-03  9152   0.955E-03 0.371E-05
CGA:  18    -0.385134989606E+03   -0.21001E-03   -0.21001E-03  9152   0.566E-03-0.120E-06
CGA:  19    -0.385135046033E+03   -0.56427E-04   -0.56436E-04  9152   0.591E-03 0.184E-05
CGA:  20    -0.385135086374E+03   -0.40341E-04   -0.40401E-04  9152   0.371E-03 0.164E-05
CGA:  21    -0.385135121643E+03   -0.35269E-04   -0.35268E-04  9152   0.221E-03 0.493E-07
CGA:  22    -0.385135150369E+03   -0.28727E-04   -0.28724E-04  9152   0.107E-03 0.279E-07
CGA:  23    -0.385135171089E+03   -0.20720E-04   -0.20707E-04  9152   0.103E-03 0.146E-06
CGA:  24    -0.385135180706E+03   -0.96167E-05   -0.96130E-05  9152   0.123E-03-0.271E-06
  28 F= -.38513518E+03 E0= -.38512884E+03  d E =0.201141E-01  mag=    46.0000
       N       E                     dE             d eps       ncg     rms          ort
SDA:   1    -0.340100326546E+03    0.45035E+02    0.00000E+00  9152   0.274E+03 0.000E+00
CGA:   2    -0.357316640607E+03   -0.17216E+02   -0.19243E+02  9152   0.123E+03 0.458E+02
CGA:   3    -0.369576750872E+03   -0.12260E+02   -0.12180E+02  9152   0.724E+02-0.585E+01
CGA:   4    -0.378142921897E+03   -0.85662E+01   -0.84319E+01  9152   0.381E+02-0.153E+01
CGA:   5    -0.380879718412E+03   -0.27368E+01   -0.24118E+01  9152   0.219E+02-0.826E+00
CGA:   6    -0.382080703213E+03   -0.12010E+01   -0.12247E+01  9152   0.340E+02-0.247E+00
CGA:   7    -0.383251312949E+03   -0.11706E+01   -0.12766E+01  9152   0.964E+01-0.388E+01
CGA:   8    -0.383676843300E+03   -0.42553E+00   -0.42673E+00  9152   0.101E+02-0.315E+00
CGA:   9    -0.383891431604E+03   -0.21459E+00   -0.15909E+00  9152   0.506E+01 0.278E+01
CGA:  10    -0.384019594780E+03   -0.12816E+00   -0.14453E+00  9152   0.489E+01-0.835E+00
CGA:  11    -0.384109086391E+03   -0.89492E-01   -0.11889E+00  9152   0.728E+01-0.746E+00
CGA:  12    -0.384255235001E+03   -0.14615E+00   -0.18853E+00  9152   0.691E+01-0.742E+00
CGA:  13    -0.384385324930E+03   -0.13009E+00   -0.15572E+00  9152   0.171E+01-0.114E+01
CGA:  14    -0.384421639808E+03   -0.36315E-01   -0.40626E-01  9152   0.126E+01-0.115E+00
CGA:  15    -0.384469529740E+03   -0.47890E-01   -0.41379E-01  9152   0.110E+01 0.113E+00
CGA:  16    -0.384512390000E+03   -0.42860E-01   -0.43373E-01  9152   0.129E+01-0.730E-02
CGA:  17    -0.384560958705E+03   -0.48569E-01   -0.50784E-01  9152   0.123E+01-0.184E-01
CGA:  18    -0.384595541289E+03   -0.34583E-01   -0.40108E-01  9152   0.411E+00-0.689E-01
CGA:  19    -0.384608781191E+03   -0.13240E-01   -0.14145E-01  9152   0.242E+00-0.103E-01
CGA:  20    -0.384625518248E+03   -0.16737E-01   -0.16665E-01  9152   0.209E+00 0.101E-01
CGA:  21    -0.384638324843E+03   -0.12807E-01   -0.12797E-01  9152   0.137E+00-0.523E-03
CGA:  22    -0.384646760735E+03   -0.84359E-02   -0.84151E-02  9152   0.947E-01-0.183E-02
CGA:  23    -0.384652445484E+03   -0.56847E-02   -0.56739E-02  9152   0.746E-01-0.838E-03
CGA:  24    -0.384656371133E+03   -0.39256E-02   -0.39230E-02  9152   0.499E-01-0.521E-04
CGA:  25    -0.384660121315E+03   -0.37502E-02   -0.37322E-02  9152   0.397E-01 0.117E-02
CGA:  26    -0.384661732253E+03   -0.16109E-02   -0.15981E-02  9152   0.130E-01 0.119E-03
CGA:  27    -0.384663156847E+03   -0.14246E-02   -0.14472E-02  9152   0.300E-01-0.463E-03
CGA:  28    -0.384664958500E+03   -0.18017E-02   -0.18042E-02  9152   0.157E-01 0.256E-03
CGA:  29    -0.384665638892E+03   -0.68039E-03   -0.67541E-03  9152   0.776E-02 0.134E-05
CGA:  30    -0.384666083177E+03   -0.44428E-03   -0.44398E-03  9152   0.625E-02-0.223E-04
CGA:  31    -0.384666604629E+03   -0.52145E-03   -0.52547E-03  9152   0.993E-02-0.158E-03
SDA:  32    -0.384667111475E+03   -0.50685E-03   -0.50688E-03  9152   0.534E-02-0.937E-05
CGA:  33    -0.384667427959E+03   -0.31648E-03   -0.31659E-03  9152   0.237E-02 0.126E-04
CGA:  34    -0.384667690810E+03   -0.26285E-03   -0.26210E-03  9152   0.309E-02 0.163E-04
CGA:  35    -0.384667926889E+03   -0.23608E-03   -0.23599E-03  9152   0.112E-02 0.106E-04
CGA:  36    -0.384668063916E+03   -0.13703E-03   -0.13683E-03  9152   0.937E-03 0.360E-05
CGA:  37    -0.384668221993E+03   -0.15808E-03   -0.15832E-03  9152   0.412E-03-0.265E-05
CGA:  38    -0.384668294797E+03   -0.72805E-04   -0.73254E-04  9152   0.553E-03-0.432E-05
CGA:  39    -0.384668349299E+03   -0.54502E-04   -0.54728E-04  9152   0.793E-03-0.866E-05
CGA:  40    -0.384668407802E+03   -0.58502E-04   -0.58535E-04  9152   0.195E-03 0.225E-05
CGA:  41    -0.384668457979E+03   -0.50178E-04   -0.48839E-04  9152   0.316E-03 0.810E-05
CGA:  42    -0.384668472746E+03   -0.14766E-04   -0.14787E-04  9152   0.121E-03 0.202E-05
CGA:  43    -0.384668497259E+03   -0.24513E-04   -0.24568E-04  9152   0.105E-03-0.460E-06
CGA:  44    -0.384668514170E+03   -0.16911E-04   -0.17163E-04  9152   0.586E-04-0.351E-05
CGA:  45    -0.384668519528E+03   -0.53582E-05   -0.53564E-05  9152   0.586E-04-0.107E-05
  29 F= -.38466852E+03 E0= -.38466206E+03  d E =0.466661E+00  mag=    46.0000
       N       E                     dE             d eps       ncg     rms          ort
SDA:   1    -0.370357719277E+03    0.14311E+02    0.00000E+00  9152   0.692E+02 0.000E+00
CGA:   2    -0.377156886818E+03   -0.67992E+01   -0.68017E+01  9152   0.312E+02 0.136E+01
CGA:   3    -0.380380660434E+03   -0.32238E+01   -0.28589E+01  9152   0.393E+02-0.143E+02
CGA:   4    -0.381511031863E+03   -0.11304E+01   -0.14121E+01  9152   0.893E+02 0.173E+00
CGA:   5    -0.382180701142E+03   -0.66967E+00   -0.24517E+01  9152   0.371E+02-0.555E+02
CGA:   6    -0.383265899414E+03   -0.10852E+01   -0.12663E+01  9152   0.262E+02-0.151E+02
CGA:   7    -0.383774763436E+03   -0.50886E+00   -0.60203E+00  9152   0.213E+02-0.167E+01
CGA:   8    -0.384324627441E+03   -0.54986E+00   -0.83376E+00  9152   0.170E+02-0.397E+01
CGA:   9    -0.384751036894E+03   -0.42641E+00   -0.41611E+00  9152   0.413E+01-0.556E+00
CGA:  10    -0.384828412015E+03   -0.77375E-01   -0.70493E-01  9152   0.236E+01 0.211E+00
CGA:  11    -0.384893614387E+03   -0.65202E-01   -0.56760E-01  9152   0.153E+01 0.202E+00
CGA:  12    -0.384920124489E+03   -0.26510E-01   -0.37728E-01  9152   0.142E+01-0.400E+00
CGA:  13    -0.384971548487E+03   -0.51424E-01   -0.55436E-01  9152   0.243E+01 0.267E-01
CGA:  14    -0.385036515573E+03   -0.64967E-01   -0.73204E-01  9152   0.489E+00-0.178E+00
CGA:  15    -0.385056402483E+03   -0.19887E-01   -0.20035E-01  9152   0.460E+00-0.105E-02
CGA:  16    -0.385077302305E+03   -0.20900E-01   -0.22663E-01  9152   0.200E+00 0.129E-01
CGA:  17    -0.385092133468E+03   -0.14831E-01   -0.14772E-01  9152   0.251E+00 0.101E-01
CGA:  18    -0.385107161860E+03   -0.15028E-01   -0.15066E-01  9152   0.599E-01 0.113E-02
CGA:  19    -0.385112489122E+03   -0.53273E-02   -0.53141E-02  9152   0.417E-01 0.487E-03
CGA:  20    -0.385116307313E+03   -0.38182E-02   -0.37933E-02  9152   0.419E-01 0.860E-03
CGA:  21    -0.385118909087E+03   -0.26018E-02   -0.26038E-02  9152   0.211E-01 0.703E-04
CGA:  22    -0.385120928771E+03   -0.20197E-02   -0.20184E-02  9152   0.797E-02 0.296E-04
CGA:  23    -0.385123064549E+03   -0.21358E-02   -0.21136E-02  9152   0.133E-01 0.140E-03
CGA:  24    -0.385123601044E+03   -0.53650E-03   -0.53838E-03  9152   0.303E-02-0.284E-04
CGA:  25    -0.385124209636E+03   -0.60859E-03   -0.60721E-03  9152   0.478E-02 0.122E-04
CGA:  26    -0.385124652521E+03   -0.44289E-03   -0.44252E-03  9152   0.130E-02 0.298E-04
CGA:  27    -0.385124878610E+03   -0.22609E-03   -0.22641E-03  9152   0.111E-02-0.355E-05
CGA:  28    -0.385125046172E+03   -0.16756E-03   -0.16792E-03  9152   0.138E-02-0.573E-05
CGA:  29    -0.385125121591E+03   -0.75419E-04   -0.75332E-04  9152   0.667E-03-0.960E-06
CGA:  30    -0.385125217101E+03   -0.95510E-04   -0.95225E-04  9152   0.581E-03 0.538E-05
CGA:  31    -0.385125293757E+03   -0.76656E-04   -0.76477E-04  9152   0.376E-03 0.469E-05
CGA:  32    -0.385125334094E+03   -0.40337E-04   -0.40345E-04  9152   0.244E-03-0.360E-06
CGA:  33    -0.385125364020E+03   -0.29926E-04   -0.29937E-04  9152   0.465E-03-0.393E-06
CGA:  34    -0.385125396210E+03   -0.32190E-04   -0.32138E-04  9152   0.755E-04-0.120E-05
CGA:  35    -0.385125415302E+03   -0.19092E-04   -0.19169E-04  9152   0.132E-03-0.478E-06
SDA:  36    -0.385125427175E+03   -0.11873E-04   -0.11882E-04  9152   0.493E-04 0.593E-06
CGA:  37    -0.385125430919E+03   -0.37435E-05   -0.37458E-05  9152   0.432E-04 0.743E-07
  30 F= -.38512543E+03 E0= -.38511934E+03  d E =-.456911E+00  mag=    46.0000
       N       E                     dE             d eps       ncg     rms          ort
SDA:   1    -0.381269127588E+03    0.38563E+01    0.00000E+00  9152   0.183E+02 0.000E+00
CGA:   2    -0.382484547798E+03   -0.12154E+01   -0.13451E+01  9152   0.153E+02-0.354E+00
CGA:   3    -0.383866006537E+03   -0.13815E+01   -0.13514E+01  9152   0.714E+01-0.122E+01
CGA:   4    -0.384468262386E+03   -0.60226E+00   -0.60802E+00  9152   0.342E+01 0.364E+00
CGA:   5    -0.384936875111E+03   -0.46861E+00   -0.48337E+00  9152   0.146E+01-0.321E+00
CGA:   6    -0.385048909316E+03   -0.11203E+00   -0.11280E+00  9152   0.608E+00 0.154E-01
CGA:   7    -0.385088489169E+03   -0.39580E-01   -0.41439E-01  9152   0.570E+00 0.375E-02
CGA:   8    -0.385124736520E+03   -0.36247E-01   -0.36031E-01  9152   0.101E+00 0.802E-04
CGA:   9    -0.385136788797E+03   -0.12052E-01   -0.11967E-01  9152   0.876E-01 0.263E-02
CGA:  10    -0.385143508935E+03   -0.67201E-02   -0.67088E-02  9152   0.559E-01-0.115E-03
CGA:  11    -0.385146772893E+03   -0.32640E-02   -0.32905E-02  9152   0.186E-01-0.455E-04
CGA:  12    -0.385149586678E+03   -0.28138E-02   -0.28111E-02  9152   0.131E-01 0.439E-04
CGA:  13    -0.385150675707E+03   -0.10890E-02   -0.10900E-02  9152   0.819E-02 0.271E-04
CGA:  14    -0.385151219516E+03   -0.54381E-03   -0.54390E-03  9152   0.558E-02-0.948E-06
CGA:  15    -0.385151874386E+03   -0.65487E-03   -0.65407E-03  9152   0.270E-02 0.247E-04
CGA:  16    -0.385152196260E+03   -0.32187E-03   -0.32212E-03  9152   0.225E-02-0.874E-05
CGA:  17    -0.385152372544E+03   -0.17628E-03   -0.17635E-03  9152   0.198E-02 0.899E-06
CGA:  18    -0.385152536134E+03   -0.16359E-03   -0.16357E-03  9152   0.992E-03-0.425E-06
CGA:  19    -0.385152660248E+03   -0.12411E-03   -0.12407E-03  9152   0.546E-03 0.160E-05
CGA:  20    -0.385152717486E+03   -0.57238E-04   -0.57234E-04  9152   0.650E-03 0.681E-06
CGA:  21    -0.385152764057E+03   -0.46570E-04   -0.46612E-04  9152   0.333E-03 0.133E-05
CGA:  22    -0.385152794880E+03   -0.30824E-04   -0.30822E-04  9152   0.159E-03-0.261E-06
CGA:  23    -0.385152823051E+03   -0.28171E-04   -0.28142E-04  9152   0.231E-03 0.350E-06
CGA:  24    -0.385152837202E+03   -0.14151E-04   -0.14135E-04  9152   0.120E-03-0.401E-06
CGA:  25    -0.385152848927E+03   -0.11725E-04   -0.11726E-04  9152   0.913E-04-0.291E-06
CGA:  26    -0.385152863563E+03   -0.14636E-04   -0.14658E-04  9152   0.678E-04-0.354E-06
CGA:  27    -0.385152868546E+03   -0.49830E-05   -0.49814E-05  9152   0.581E-04-0.711E-07
  31 F= -.38515287E+03 E0= -.38514666E+03  d E =-.274376E-01  mag=    46.0000
       N       E                     dE             d eps       ncg     rms          ort
SDA:   1    -0.385011445664E+03    0.14142E+00    0.00000E+00  9152   0.493E+00 0.000E+00
CGA:   2    -0.385084235569E+03   -0.72790E-01   -0.73074E-01  9152   0.497E+00-0.471E-02
CGA:   3    -0.385118718911E+03   -0.34483E-01   -0.34461E-01  9152   0.259E+00-0.607E-03
CGA:   4    -0.385137961427E+03   -0.19243E-01   -0.19246E-01  9152   0.197E+00-0.174E-04
CGA:   5    -0.385154866844E+03   -0.16905E-01   -0.16874E-01  9152   0.386E-01-0.758E-03
CGA:   6    -0.385159105106E+03   -0.42383E-02   -0.42387E-02  9152   0.314E-01-0.162E-04
CGA:   7    -0.385160846743E+03   -0.17416E-02   -0.17400E-02  9152   0.127E-01 0.319E-05
CGA:   8    -0.385161946401E+03   -0.10997E-02   -0.10987E-02  9152   0.353E-02-0.373E-04
CGA:   9    -0.385162424660E+03   -0.47826E-03   -0.47831E-03  9152   0.453E-02-0.120E-05
CGA:  10    -0.385162651771E+03   -0.22711E-03   -0.22712E-03  9152   0.945E-03 0.145E-05
CGA:  11    -0.385162793119E+03   -0.14135E-03   -0.14140E-03  9152   0.101E-02-0.790E-06
CGA:  12    -0.385162864661E+03   -0.71542E-04   -0.71599E-04  9152   0.423E-03 0.129E-05
CGA:  13    -0.385162894013E+03   -0.29352E-04   -0.29356E-04  9152   0.281E-03 0.354E-06
CGA:  14    -0.385162927193E+03   -0.33180E-04   -0.33167E-04  9152   0.160E-03 0.559E-06
CGA:  15    -0.385162943053E+03   -0.15860E-04   -0.15860E-04  9152   0.136E-03-0.126E-06
CGA:  16    -0.385162951341E+03   -0.82886E-05   -0.83022E-05  9152   0.596E-04 0.356E-06
  32 F= -.38516295E+03 E0= -.38515675E+03  d E =-.100828E-01  mag=    46.0000
       N       E                     dE             d eps       ncg     rms          ort
SDA:   1    -0.382629299697E+03    0.25336E+01    0.00000E+00  9152   0.884E+01 0.000E+00
CGA:   2    -0.383534673916E+03   -0.90537E+00   -0.90248E+00  9152   0.104E+02 0.471E+00
CGA:   3    -0.384368195123E+03   -0.83352E+00   -0.79957E+00  9152   0.464E+01-0.371E+00
CGA:   4    -0.384775980333E+03   -0.40779E+00   -0.40836E+00  9152   0.242E+01 0.377E-01
CGA:   5    -0.385008499368E+03   -0.23252E+00   -0.23223E+00  9152   0.127E+01-0.665E-01
CGA:   6    -0.385076211425E+03   -0.67712E-01   -0.68355E-01  9152   0.490E+00-0.804E-02
CGA:   7    -0.385116698559E+03   -0.40487E-01   -0.40484E-01  9152   0.213E+00-0.229E-03
CGA:   8    -0.385137941247E+03   -0.21243E-01   -0.21240E-01  9152   0.100E+00 0.238E-03
CGA:   9    -0.385143537276E+03   -0.55960E-02   -0.56044E-02  9152   0.526E-01-0.943E-04
CGA:  10    -0.385149758615E+03   -0.62213E-02   -0.62035E-02  9152   0.262E-01 0.497E-03
CGA:  11    -0.385151935114E+03   -0.21765E-02   -0.21744E-02  9152   0.149E-01-0.662E-04
CGA:  12    -0.385153170816E+03   -0.12357E-02   -0.12363E-02  9152   0.125E-01 0.238E-04
CGA:  13    -0.385154162292E+03   -0.99148E-03   -0.99147E-03  9152   0.441E-02 0.335E-05
CGA:  14    -0.385154688646E+03   -0.52635E-03   -0.52548E-03  9152   0.349E-02 0.245E-04
CGA:  15    -0.385154953666E+03   -0.26502E-03   -0.26502E-03  9152   0.278E-02 0.531E-06
CGA:  16    -0.385155214293E+03   -0.26063E-03   -0.26062E-03  9152   0.125E-02 0.542E-05
CGA:  17    -0.385155348829E+03   -0.13454E-03   -0.13454E-03  9152   0.103E-02 0.442E-06
CGA:  18    -0.385155442422E+03   -0.93593E-04   -0.93602E-04  9152   0.915E-03 0.340E-05
CGA:  19    -0.385155510962E+03   -0.68540E-04   -0.68562E-04  9152   0.358E-03 0.124E-05
CGA:  20    -0.385155556169E+03   -0.45207E-04   -0.45223E-04  9152   0.319E-03-0.502E-06
CGA:  21    -0.385155584030E+03   -0.27862E-04   -0.27859E-04  9152   0.278E-03-0.490E-06
CGA:  22    -0.385155604590E+03   -0.20559E-04   -0.20567E-04  9152   0.106E-03 0.305E-06
CGA:  23    -0.385155620566E+03   -0.15976E-04   -0.15986E-04  9152   0.136E-03-0.181E-06
CGA:  24    -0.385155631610E+03   -0.11044E-04   -0.11049E-04  9152   0.864E-04 0.345E-06
CGA:  25    -0.385155638129E+03   -0.65190E-05   -0.65208E-05  9152   0.525E-04 0.100E-06
  33 F= -.38515564E+03 E0= -.38514944E+03  d E =0.731321E-02  mag=    46.0000
       N       E                     dE             d eps       ncg     rms          ort
SDA:   1    -0.384853827324E+03    0.30180E+00    0.00000E+00  9152   0.994E+00 0.000E+00
CGA:   2    -0.385003867968E+03   -0.15004E+00   -0.14928E+00  9152   0.124E+01 0.130E-01
CGA:   3    -0.385074218608E+03   -0.70351E-01   -0.69356E-01  9152   0.537E+00-0.303E-03
CGA:   4    -0.385126351722E+03   -0.52133E-01   -0.52132E-01  9152   0.289E+00-0.520E-03
CGA:   5    -0.385153564717E+03   -0.27213E-01   -0.27185E-01  9152   0.939E-01-0.364E-02
CGA:   6    -0.385161131767E+03   -0.75671E-02   -0.75860E-02  9152   0.485E-01 0.373E-03
CGA:   7    -0.385164333188E+03   -0.32014E-02   -0.32029E-02  9152   0.304E-01-0.484E-05
CGA:   8    -0.385166693107E+03   -0.23599E-02   -0.23587E-02  9152   0.662E-02-0.173E-04
CGA:   9    -0.385167670672E+03   -0.97756E-03   -0.97555E-03  9152   0.545E-02 0.330E-04
CGA:  10    -0.385167988057E+03   -0.31739E-03   -0.31774E-03  9152   0.306E-02-0.445E-06
CGA:  11    -0.385168280305E+03   -0.29225E-03   -0.29225E-03  9152   0.112E-02 0.475E-07
CGA:  12    -0.385168415403E+03   -0.13510E-03   -0.13497E-03  9152   0.106E-02 0.394E-05
CGA:  13    -0.385168500565E+03   -0.85162E-04   -0.85172E-04  9152   0.602E-03-0.680E-07
CGA:  14    -0.385168539742E+03   -0.39176E-04   -0.39175E-04  9152   0.316E-03-0.396E-06
CGA:  15    -0.385168589660E+03   -0.49919E-04   -0.50006E-04  9152   0.220E-03-0.136E-05
CGA:  16    -0.385168608848E+03   -0.19188E-04   -0.19188E-04  9152   0.177E-03-0.106E-06
CGA:  17    -0.385168621076E+03   -0.12228E-04   -0.12222E-04  9152   0.100E-03-0.276E-06
CGA:  18    -0.385168636615E+03   -0.15539E-04   -0.15538E-04  9152   0.533E-04 0.270E-07
CGA:  19    -0.385168640818E+03   -0.42022E-05   -0.42058E-05  9152   0.461E-04 0.203E-06
  34 F= -.38516864E+03 E0= -.38516240E+03  d E =-.130027E-01  mag=    46.0000
       N       E                     dE             d eps       ncg     rms          ort
SDA:   1    -0.381457709234E+03    0.37109E+01    0.00000E+00  9152   0.113E+02 0.000E+00
CGA:   2    -0.383547882949E+03   -0.20902E+01   -0.20012E+01  9152   0.769E+01 0.965E+00
CGA:   3    -0.384298634825E+03   -0.75075E+00   -0.75866E+00  9152   0.715E+01 0.229E+00
CGA:   4    -0.384767484383E+03   -0.46885E+00   -0.45078E+00  9152   0.279E+01-0.867E-01
CGA:   5    -0.385016194608E+03   -0.24871E+00   -0.24798E+00  9152   0.111E+01-0.332E-01
CGA:   6    -0.385086578683E+03   -0.70384E-01   -0.71064E-01  9152   0.622E+00-0.321E-02
CGA:   7    -0.385123031026E+03   -0.36452E-01   -0.36416E-01  9152   0.297E+00-0.204E-04
CGA:   8    -0.385148319926E+03   -0.25289E-01   -0.25204E-01  9152   0.912E-01-0.324E-02
CGA:   9    -0.385160196676E+03   -0.11877E-01   -0.11797E-01  9152   0.402E-01 0.169E-02
CGA:  10    -0.385163451846E+03   -0.32552E-02   -0.32601E-02  9152   0.483E-01 0.925E-04
CGA:  11    -0.385166970621E+03   -0.35188E-02   -0.35287E-02  9152   0.964E-02 0.844E-04
CGA:  12    -0.385168622360E+03   -0.16517E-02   -0.16451E-02  9152   0.789E-02 0.818E-04
CGA:  13    -0.385169322882E+03   -0.70052E-03   -0.70065E-03  9152   0.729E-02 0.591E-05
CGA:  14    -0.385169793414E+03   -0.47053E-03   -0.47143E-03  9152   0.370E-02-0.107E-05
CGA:  15    -0.385170192953E+03   -0.39954E-03   -0.39920E-03  9152   0.245E-02 0.177E-04
CGA:  16    -0.385170504012E+03   -0.31106E-03   -0.31107E-03  9152   0.145E-02-0.224E-06
CGA:  17    -0.385170655415E+03   -0.15140E-03   -0.15142E-03  9152   0.162E-02-0.177E-05
CGA:  18    -0.385170747242E+03   -0.91827E-04   -0.91886E-04  9152   0.635E-03 0.602E-06
CGA:  19    -0.385170858665E+03   -0.11142E-03   -0.11100E-03  9152   0.281E-03 0.525E-05
CGA:  20    -0.385170895671E+03   -0.37007E-04   -0.37005E-04  9152   0.419E-03 0.130E-06
CGA:  21    -0.385170920712E+03   -0.25040E-04   -0.25065E-04  9152   0.196E-03 0.557E-06
CGA:  22    -0.385170943638E+03   -0.22927E-04   -0.22918E-04  9152   0.115E-03 0.528E-06
CGA:  23    -0.385170958211E+03   -0.14572E-04   -0.14565E-04  9152   0.997E-04 0.249E-06
CGA:  24    -0.385170968241E+03   -0.10030E-04   -0.10030E-04  9152   0.107E-03-0.446E-06
CGA:  25    -0.385170975216E+03   -0.69753E-05   -0.69542E-05  9152   0.570E-04-0.575E-06
  35 F= -.38517098E+03 E0= -.38516462E+03  d E =-.233440E-02  mag=    46.0000
       N       E                     dE             d eps       ncg     rms          ort
SDA:   1    -0.316797717241E+03    0.68373E+02    0.00000E+00  9152   0.284E+03 0.000E+00
CGA:   2    -0.344858185148E+03   -0.28060E+02   -0.28069E+02  9152   0.254E+03 0.277E+01
CGA:   3    -0.363263589587E+03   -0.18405E+02   -0.19269E+02  9152   0.102E+03-0.145E+02
CGA:   4    -0.372318191350E+03   -0.90546E+01   -0.75436E+01  9152   0.140E+03-0.257E+02
CGA:   5    -0.377547129622E+03   -0.52289E+01   -0.57137E+01  9152   0.613E+02-0.678E+01
CGA:   6    -0.380107132480E+03   -0.25600E+01   -0.26340E+01  9152   0.340E+02-0.227E+01
CGA:   7    -0.381720528210E+03   -0.16134E+01   -0.14561E+01  9152   0.172E+02-0.828E+01
CGA:   8    -0.382440510267E+03   -0.71998E+00   -0.59380E+00  9152   0.186E+02 0.110E+01
CGA:   9    -0.382960570391E+03   -0.52006E+00   -0.48854E+00  9152   0.147E+02-0.291E+00
CGA:  10    -0.383205078822E+03   -0.24451E+00   -0.32703E+00  9152   0.217E+02-0.429E+01
CGA:  11    -0.383446963507E+03   -0.24188E+00   -0.25394E+00  9152   0.190E+02 0.301E+00
CGA:  12    -0.383571609632E+03   -0.12465E+00   -0.24369E+00  9152   0.987E+01-0.116E+02
CGA:  13    -0.383854254420E+03   -0.28264E+00   -0.37525E+00  9152   0.713E+01-0.105E+01
CGA:  14    -0.383975798461E+03   -0.12154E+00   -0.17347E+00  9152   0.249E+01-0.117E+01
CGA:  15    -0.384083659129E+03   -0.10786E+00   -0.10853E+00  9152   0.219E+01-0.571E-02
CGA:  16    -0.384238037387E+03   -0.15438E+00   -0.15441E+00  9152   0.617E+00 0.454E-01
CGA:  17    -0.384302201242E+03   -0.64164E-01   -0.62691E-01  9152   0.757E+00 0.376E-01
CGA:  18    -0.384332819806E+03   -0.30619E-01   -0.33059E-01  9152   0.489E+00-0.204E-01
CGA:  19    -0.384367761309E+03   -0.34942E-01   -0.34946E-01  9152   0.360E+00-0.106E-02
CGA:  20    -0.384383364325E+03   -0.15603E-01   -0.16068E-01  9152   0.141E+00-0.198E-02
CGA:  21    -0.384397823480E+03   -0.14459E-01   -0.14031E-01  9152   0.124E+00 0.113E-01
CGA:  22    -0.384405706303E+03   -0.78828E-02   -0.80926E-02  9152   0.867E-01 0.655E-02
CGA:  23    -0.384414079822E+03   -0.83735E-02   -0.83487E-02  9152   0.576E-01 0.870E-03
CGA:  24    -0.384417655712E+03   -0.35759E-02   -0.36051E-02  9152   0.368E-01 0.106E-02
CGA:  25    -0.384421992822E+03   -0.43371E-02   -0.41866E-02  9152   0.154E-01 0.316E-02
CGA:  26    -0.384423308959E+03   -0.13161E-02   -0.13143E-02  9152   0.145E-01 0.204E-03
CGA:  27    -0.384424751473E+03   -0.14425E-02   -0.14397E-02  9152   0.100E-01 0.872E-04
CGA:  28    -0.384425904076E+03   -0.11526E-02   -0.11327E-02  9152   0.486E-02 0.440E-03
CGA:  29    -0.384426344594E+03   -0.44052E-03   -0.44019E-03  9152   0.423E-02 0.197E-04
CGA:  30    -0.384426794400E+03   -0.44981E-03   -0.44985E-03  9152   0.424E-02-0.245E-05
CGA:  31    -0.384427229223E+03   -0.43482E-03   -0.43503E-03  9152   0.227E-02-0.739E-05
CGA:  32    -0.384427466471E+03   -0.23725E-03   -0.23784E-03  9152   0.148E-02-0.200E-04
CGA:  33    -0.384427617805E+03   -0.15133E-03   -0.15172E-03  9152   0.189E-02-0.145E-04
CGA:  34    -0.384427792098E+03   -0.17429E-03   -0.17451E-03  9152   0.731E-03-0.161E-04
[...]
CGA:  14    -0.385209139559E+03   -0.24727E-03   -0.24741E-03  9152   0.204E-02 0.176E-05
CGA:  15    -0.385209405693E+03   -0.26613E-03   -0.26611E-03  9152   0.155E-02 0.902E-06
CGA:  16    -0.385209510665E+03   -0.10497E-03   -0.10501E-03  9152   0.102E-02 0.826E-06
CGA:  17    -0.385209602401E+03   -0.91737E-04   -0.91744E-04  9152   0.678E-03 0.245E-05
CGA:  18    -0.385209687750E+03   -0.85348E-04   -0.85313E-04  9152   0.550E-03 0.885E-06
CGA:  19    -0.385209717092E+03   -0.29343E-04   -0.29362E-04  9152   0.239E-03 0.208E-06
CGA:  20    -0.385209752568E+03   -0.35476E-04   -0.35496E-04  9152   0.224E-03-0.385E-06
CGA:  21    -0.385209768789E+03   -0.16221E-04   -0.16218E-04  9152   0.137E-03-0.144E-06
CGA:  22    -0.385209778554E+03   -0.97648E-05   -0.97603E-05  9152   0.763E-04-0.217E-06
CGA:  23    -0.385209790354E+03   -0.11800E-04   -0.11756E-04  9152   0.743E-04 0.710E-06
CGA:  24    -0.385209794619E+03   -0.42648E-05   -0.42640E-05  9152   0.386E-04-0.203E-07
 125 F= -.38520979E+03 E0= -.38520324E+03  d E =-.219203E-02  mag=    46.0000
       N       E                     dE             d eps       ncg     rms          ort
SDA:   1    -0.384597652596E+03    0.61214E+00    0.00000E+00  9152   0.223E+01 0.000E+00
CGA:   2    -0.384770509853E+03   -0.17286E+00   -0.17505E+00  9152   0.302E+01 0.252E-01
CGA:   3    -0.385033997968E+03   -0.26349E+00   -0.26296E+00  9152   0.765E+00-0.243E-01
CGA:   4    -0.385133998609E+03   -0.10000E+00   -0.99474E-01  9152   0.568E+00 0.112E-01
CGA:   5    -0.385170794179E+03   -0.36796E-01   -0.36757E-01  9152   0.258E+00-0.608E-03
CGA:   6    -0.385184219754E+03   -0.13426E-01   -0.13403E-01  9152   0.893E-01 0.905E-04
CGA:   7    -0.385195332313E+03   -0.11113E-01   -0.11087E-01  9152   0.252E-01 0.626E-03
CGA:   8    -0.385197611503E+03   -0.22792E-02   -0.22779E-02  9152   0.239E-01-0.130E-03
CGA:   9    -0.385198961536E+03   -0.13500E-02   -0.13496E-02  9152   0.905E-02 0.300E-05
CGA:  10    -0.385199977059E+03   -0.10155E-02   -0.10149E-02  9152   0.389E-02 0.226E-04
CGA:  11    -0.385200379909E+03   -0.40285E-03   -0.40298E-03  9152   0.274E-02-0.805E-05
CGA:  12    -0.385200580802E+03   -0.20089E-03   -0.20089E-03  9152   0.256E-02-0.957E-06
CGA:  13    -0.385200783855E+03   -0.20305E-03   -0.20306E-03  9152   0.620E-03 0.966E-06
CGA:  14    -0.385200909194E+03   -0.12534E-03   -0.12545E-03  9152   0.899E-03-0.975E-06
CGA:  15    -0.385200962423E+03   -0.53229E-04   -0.53288E-04  9152   0.482E-03 0.727E-06
CGA:  16    -0.385200999574E+03   -0.37151E-04   -0.37172E-04  9152   0.271E-03 0.897E-06
CGA:  17    -0.385201044845E+03   -0.45271E-04   -0.45230E-04  9152   0.169E-03 0.584E-06
CGA:  18    -0.385201058612E+03   -0.13767E-04   -0.13771E-04  9152   0.169E-03 0.178E-06
CGA:  19    -0.385201070185E+03   -0.11572E-04   -0.11587E-04  9152   0.726E-04 0.378E-06
CGA:  20    -0.385201081514E+03   -0.11329E-04   -0.11355E-04  9152   0.507E-04-0.429E-06
CGA:  21    -0.385201085815E+03   -0.43009E-05   -0.43058E-05  9152   0.363E-04 0.336E-06
 126 F= -.38520109E+03 E0= -.38519460E+03  d E =0.870880E-02  mag=    46.0000
       N       E                     dE             d eps       ncg     rms          ort
SDA:   1    -0.384358247928E+03    0.84283E+00    0.00000E+00  9152   0.298E+01 0.000E+00
CGA:   2    -0.384650576011E+03   -0.29233E+00   -0.29218E+00  9152   0.441E+01 0.668E-01
CGA:   3    -0.384955800477E+03   -0.30522E+00   -0.30211E+00  9152   0.122E+01-0.291E-01
CGA:   4    -0.385098804164E+03   -0.14300E+00   -0.14399E+00  9152   0.948E+00-0.295E-01
CGA:   5    -0.385167914927E+03   -0.69111E-01   -0.69120E-01  9152   0.361E+00-0.590E-03
CGA:   6    -0.385185527718E+03   -0.17613E-01   -0.17657E-01  9152   0.138E+00-0.709E-03
CGA:   7    -0.385203760180E+03   -0.18232E-01   -0.18249E-01  9152   0.494E-01-0.322E-03
CGA:   8    -0.385206209299E+03   -0.24491E-02   -0.24540E-02  9152   0.274E-01-0.541E-04
CGA:   9    -0.385209860824E+03   -0.36515E-02   -0.36508E-02  9152   0.113E-01 0.150E-04
CGA:  10    -0.385210563333E+03   -0.70251E-03   -0.70263E-03  9152   0.764E-02 0.167E-05
CGA:  11    -0.385211290687E+03   -0.72735E-03   -0.72740E-03  9152   0.509E-02-0.110E-04
CGA:  12    -0.385211722916E+03   -0.43223E-03   -0.43236E-03  9152   0.224E-02 0.859E-05
CGA:  13    -0.385211877631E+03   -0.15472E-03   -0.15476E-03  9152   0.177E-02 0.192E-06
CGA:  14    -0.385212065970E+03   -0.18834E-03   -0.18834E-03  9152   0.102E-02 0.153E-07
CGA:  15    -0.385212162073E+03   -0.96104E-04   -0.96105E-04  9152   0.886E-03-0.389E-06
CGA:  16    -0.385212216315E+03   -0.54242E-04   -0.54256E-04  9152   0.350E-03 0.664E-06
CGA:  17    -0.385212277066E+03   -0.60751E-04   -0.60790E-04  9152   0.492E-03-0.492E-06
CGA:  18    -0.385212301745E+03   -0.24679E-04   -0.24711E-04  9152   0.134E-03 0.327E-06
CGA:  19    -0.385212318909E+03   -0.17164E-04   -0.17145E-04  9152   0.169E-03 0.519E-06
CGA:  20    -0.385212333579E+03   -0.14669E-04   -0.14672E-04  9152   0.995E-04 0.346E-06
CGA:  21    -0.385212339422E+03   -0.58430E-05   -0.58328E-05  9152   0.396E-04-0.293E-06
 127 F= -.38521234E+03 E0= -.38520576E+03  d E =-.112536E-01  mag=    46.0000
       N       E                     dE             d eps       ncg     rms          ort
SDA:   1    -0.384886256172E+03    0.32608E+00    0.00000E+00  9152   0.247E+01 0.000E+00
CGA:   2    -0.384973455168E+03   -0.87199E-01   -0.93028E-01  9152   0.960E+00-0.151E+00
CGA:   3    -0.385133076645E+03   -0.15962E+00   -0.15966E+00  9152   0.479E+00-0.668E-04
CGA:   4    -0.385170611086E+03   -0.37534E-01   -0.37337E-01  9152   0.308E+00-0.265E-02
CGA:   5    -0.385191521425E+03   -0.20910E-01   -0.20814E-01  9152   0.196E+00-0.486E-03
CGA:   6    -0.385204892173E+03   -0.13371E-01   -0.13451E-01  9152   0.323E-01 0.395E-03
CGA:   7    -0.385209141221E+03   -0.42490E-02   -0.42559E-02  9152   0.231E-01-0.143E-03
CGA:   8    -0.385210330305E+03   -0.11891E-02   -0.11888E-02  9152   0.106E-01 0.404E-05
CGA:   9    -0.385211169813E+03   -0.83951E-03   -0.83977E-03  9152   0.328E-02 0.725E-05
CGA:  10    -0.385211585529E+03   -0.41572E-03   -0.41597E-03  9152   0.266E-02-0.599E-05
CGA:  11    -0.385211786760E+03   -0.20123E-03   -0.20126E-03  9152   0.181E-02 0.208E-06
CGA:  12    -0.385211887355E+03   -0.10060E-03   -0.10077E-03  9152   0.569E-03 0.389E-06
CGA:  13    -0.385212011899E+03   -0.12454E-03   -0.12473E-03  9152   0.464E-03-0.163E-05
CGA:  14    -0.385212038795E+03   -0.26897E-04   -0.26916E-04  9152   0.325E-03 0.268E-06
CGA:  15    -0.385212075185E+03   -0.36390E-04   -0.36398E-04  9152   0.298E-03-0.462E-06
CGA:  16    -0.385212109689E+03   -0.34504E-04   -0.34525E-04  9152   0.128E-03-0.106E-05
CGA:  17    -0.385212120378E+03   -0.10689E-04   -0.10690E-04  9152   0.150E-03 0.526E-07
CGA:  18    -0.385212132426E+03   -0.12047E-04   -0.12059E-04  9152   0.675E-04 0.684E-06
CGA:  19    -0.385212141407E+03   -0.89815E-05   -0.89744E-05  9152   0.349E-04 0.173E-06
 128 F= -.38521214E+03 E0= -.38520551E+03  d E =0.198015E-03  mag=    46.0000
       N       E                     dE             d eps       ncg     rms          ort
SDA:   1    -0.385156344228E+03    0.55788E-01    0.00000E+00  9152   0.184E+00 0.000E+00
CGA:   2    -0.385182568754E+03   -0.26225E-01   -0.26186E-01  9152   0.263E+00 0.723E-03
CGA:   3    -0.385194851388E+03   -0.12283E-01   -0.12311E-01  9152   0.802E-01-0.671E-03
CGA:   4    -0.385206443044E+03   -0.11592E-01   -0.11554E-01  9152   0.417E-01 0.653E-03
CGA:   5    -0.385209977622E+03   -0.35346E-02   -0.35239E-02  9152   0.164E-01-0.233E-03
CGA:   6    -0.385211164052E+03   -0.11864E-02   -0.11878E-02  9152   0.130E-01 0.112E-04
CGA:   7    -0.385211954008E+03   -0.78996E-03   -0.79055E-03  9152   0.337E-02-0.240E-08
CGA:   8    -0.385212347514E+03   -0.39351E-03   -0.39366E-03  9152   0.127E-02-0.460E-05
CGA:   9    -0.385212465000E+03   -0.11749E-03   -0.11749E-03  9152   0.154E-02 0.215E-06
CGA:  10    -0.385212561052E+03   -0.96052E-04   -0.96137E-04  9152   0.406E-03 0.550E-06
CGA:  11    -0.385212603679E+03   -0.42627E-04   -0.42639E-04  9152   0.276E-03-0.100E-05
CGA:  12    -0.385212635819E+03   -0.32140E-04   -0.32131E-04  9152   0.223E-03 0.386E-06
CGA:  13    -0.385212646205E+03   -0.10386E-04   -0.10385E-04  9152   0.750E-04-0.544E-07
CGA:  14    -0.385212659879E+03   -0.13674E-04   -0.13675E-04  9152   0.521E-04-0.381E-08
CGA:  15    -0.385212664128E+03   -0.42496E-05   -0.42504E-05  9152   0.494E-04 0.605E-07
 129 F= -.38521266E+03 E0= -.38520605E+03  d E =-.522721E-03  mag=    46.0000
       N       E                     dE             d eps       ncg     rms          ort
SDA:   1    -0.385064511254E+03    0.14815E+00    0.00000E+00  9152   0.395E+00 0.000E+00
CGA:   2    -0.385154684523E+03   -0.90173E-01   -0.89835E-01  9152   0.625E+00 0.283E-02
CGA:   3    -0.385181395651E+03   -0.26711E-01   -0.26833E-01  9152   0.180E+00-0.435E-02
CGA:   4    -0.385199589756E+03   -0.18194E-01   -0.18197E-01  9152   0.105E+00-0.636E-03
CGA:   5    -0.385208658029E+03   -0.90683E-02   -0.90810E-02  9152   0.195E-01 0.367E-03
CGA:   6    -0.385210744684E+03   -0.20867E-02   -0.20864E-02  9152   0.235E-01 0.201E-04
CGA:   7    -0.385211882493E+03   -0.11378E-02   -0.11396E-02  9152   0.401E-02-0.183E-04
CGA:   8    -0.385212366770E+03   -0.48428E-03   -0.48381E-03  9152   0.206E-02 0.147E-04
CGA:   9    -0.385212579222E+03   -0.21245E-03   -0.21248E-03  9152   0.159E-02-0.358E-05
CGA:  10    -0.385212663167E+03   -0.83945E-04   -0.84014E-04  9152   0.657E-03-0.463E-07
CGA:  11    -0.385212718980E+03   -0.55813E-04   -0.55823E-04  9152   0.292E-03 0.547E-06
CGA:  12    -0.385212769299E+03   -0.50319E-04   -0.50327E-04  9152   0.192E-03-0.108E-06
CGA:  13    -0.385212779364E+03   -0.10065E-04   -0.10064E-04  9152   0.133E-03-0.585E-07
CGA:  14    -0.385212802034E+03   -0.22670E-04   -0.22625E-04  9152   0.110E-03 0.623E-06
CGA:  15    -0.385212812240E+03   -0.10206E-04   -0.10204E-04  9152   0.615E-04-0.277E-06
CGA:  16    -0.385212817916E+03   -0.56754E-05   -0.56767E-05  9152   0.852E-04 0.185E-06
 130 F= -.38521282E+03 E0= -.38520620E+03  d E =-.153788E-03  mag=    46.0000
       N       E                     dE             d eps       ncg     rms          ort
SDA:   1    -0.384735778559E+03    0.47703E+00    0.00000E+00  9152   0.195E+01 0.000E+00
CGA:   2    -0.384851971166E+03   -0.11619E+00   -0.11877E+00  9152   0.206E+01-0.220E-01
CGA:   3    -0.385092567732E+03   -0.24060E+00   -0.24162E+00  9152   0.813E+00-0.305E-01
CGA:   4    -0.385155203920E+03   -0.62636E-01   -0.63773E-01  9152   0.285E+00 0.171E-01
CGA:   5    -0.385197118218E+03   -0.41914E-01   -0.42105E-01  9152   0.745E-01-0.336E-02
CGA:   6    -0.385204906549E+03   -0.77883E-02   -0.77837E-02  9152   0.491E-01 0.425E-03
CGA:   7    -0.385207596791E+03   -0.26902E-02   -0.26895E-02  9152   0.255E-01 0.616E-05
CGA:   8    -0.385209415004E+03   -0.18182E-02   -0.18193E-02  9152   0.748E-02 0.457E-05
CGA:   9    -0.385210238529E+03   -0.82352E-03   -0.82271E-03  9152   0.358E-02 0.377E-04
CGA:  10    -0.385210711252E+03   -0.47272E-03   -0.47324E-03  9152   0.295E-02-0.119E-04
CGA:  11    -0.385210835647E+03   -0.12440E-03   -0.12444E-03  9152   0.914E-03-0.403E-06
CGA:  12    -0.385210999138E+03   -0.16349E-03   -0.16337E-03  9152   0.717E-03 0.145E-05
CGA:  13    -0.385211067434E+03   -0.68296E-04   -0.68295E-04  9152   0.359E-03-0.819E-07
CGA:  14    -0.385211101693E+03   -0.34258E-04   -0.34262E-04  9152   0.573E-03 0.710E-06
CGA:  15    -0.385211151201E+03   -0.49508E-04   -0.49536E-04  9152   0.170E-03 0.200E-05
CGA:  16    -0.385211175988E+03   -0.24787E-04   -0.24785E-04  9152   0.132E-03 0.535E-09
CGA:  17    -0.385211189686E+03   -0.13699E-04   -0.13698E-04  9152   0.160E-03 0.259E-06
CGA:  18    -0.385211199540E+03   -0.98538E-05   -0.98456E-05  9152   0.622E-04-0.247E-06
 131 F= -.38521120E+03 E0= -.38520464E+03  d E =0.161838E-02  mag=    46.0000
       N       E                     dE             d eps       ncg     rms          ort
SDA:   1    -0.384968802624E+03    0.24239E+00    0.00000E+00  9152   0.879E+00 0.000E+00
CGA:   2    -0.385032256311E+03   -0.63454E-01   -0.63754E-01  9152   0.120E+01-0.233E-03
CGA:   3    -0.385157495409E+03   -0.12524E+00   -0.12529E+00  9152   0.278E+00-0.480E-02
CGA:   4    -0.385188631929E+03   -0.31137E-01   -0.31411E-01  9152   0.186E+00-0.115E-01
CGA:   5    -0.385205236151E+03   -0.16604E-01   -0.16617E-01  9152   0.527E-01 0.939E-03
CGA:   6    -0.385207955135E+03   -0.27190E-02   -0.27171E-02  9152   0.325E-01 0.583E-05
CGA:   7    -0.385211396833E+03   -0.34417E-02   -0.34423E-02  9152   0.685E-02-0.422E-04
CGA:   8    -0.385212036268E+03   -0.63944E-03   -0.63960E-03  9152   0.554E-02 0.230E-04
CGA:   9    -0.385212396925E+03   -0.36066E-03   -0.36082E-03  9152   0.323E-02-0.149E-05
CGA:  10    -0.385212650784E+03   -0.25386E-03   -0.25383E-03  9152   0.104E-02-0.578E-06
CGA:  11    -0.385212760968E+03   -0.11018E-03   -0.11017E-03  9152   0.706E-03 0.826E-06
CGA:  12    -0.385212809520E+03   -0.48552E-04   -0.48568E-04  9152   0.605E-03 0.567E-06
CGA:  13    -0.385212866764E+03   -0.57244E-04   -0.57245E-04  9152   0.142E-03-0.316E-06
CGA:  14    -0.385212890005E+03   -0.23241E-04   -0.23247E-04  9152   0.362E-03-0.892E-07
CGA:  15    -0.385212912216E+03   -0.22211E-04   -0.22191E-04  9152   0.615E-04-0.446E-06
CGA:  16    -0.385212923140E+03   -0.10924E-04   -0.10924E-04  9152   0.100E-03-0.358E-08
CGA:  17    -0.385212929248E+03   -0.61084E-05   -0.61054E-05  9152   0.529E-04-0.881E-07
 132 F= -.38521293E+03 E0= -.38520633E+03  d E =-.172971E-02  mag=    46.0000
       N       E                     dE             d eps       ncg     rms          ort
SDA:   1    -0.384970507708E+03    0.24242E+00    0.00000E+00  9152   0.821E+00 0.000E+00
CGA:   2    -0.385037112814E+03   -0.66605E-01   -0.66779E-01  9152   0.128E+01 0.238E-02
CGA:   3    -0.385157423839E+03   -0.12031E+00   -0.12030E+00  9152   0.274E+00-0.240E-02
CGA:   4    -0.385188937520E+03   -0.31514E-01   -0.31613E-01  9152   0.181E+00-0.341E-02
CGA:   5    -0.385205167022E+03   -0.16230E-01   -0.16239E-01  9152   0.440E-01 0.652E-03
CGA:   6    -0.385207769650E+03   -0.26026E-02   -0.26044E-02  9152   0.359E-01-0.166E-04
CGA:   7    -0.385211043566E+03   -0.32739E-02   -0.32739E-02  9152   0.570E-02-0.121E-04
CGA:   8    -0.385211698195E+03   -0.65463E-03   -0.65382E-03  9152   0.539E-02 0.277E-04
CGA:   9    -0.385212078157E+03   -0.37996E-03   -0.37992E-03  9152   0.324E-02-0.884E-06
CGA:  10    -0.385212264583E+03   -0.18643E-03   -0.18631E-03  9152   0.822E-03 0.713E-06
CGA:  11    -0.385212406647E+03   -0.14206E-03   -0.14200E-03  9152   0.672E-03 0.833E-06
CGA:  12    -0.385212450998E+03   -0.44351E-04   -0.44352E-04  9152   0.525E-03 0.264E-06
CGA:  13    -0.385212492448E+03   -0.41450E-04   -0.41435E-04  9152   0.214E-03-0.569E-06
CGA:  14    -0.385212535206E+03   -0.42759E-04   -0.42746E-04  9152   0.264E-03 0.104E-06
CGA:  15    -0.385212550017E+03   -0.14811E-04   -0.14797E-04  9152   0.134E-03-0.369E-06
CGA:  16    -0.385212562280E+03   -0.12263E-04   -0.12262E-04  9152   0.110E-03-0.502E-07
CGA:  17    -0.385212578614E+03   -0.16334E-04   -0.16310E-04  9152   0.479E-04 0.454E-06
CGA:  18    -0.385212581490E+03   -0.28764E-05   -0.28808E-05  9152   0.411E-04 0.115E-06
 133 F= -.38521258E+03 E0= -.38520596E+03  d E =0.347758E-03  mag=    46.0000
       N       E                     dE             d eps       ncg     rms          ort
SDA:   1    -0.385127718823E+03    0.84860E-01    0.00000E+00  9152   0.350E+00 0.000E+00
CGA:   2    -0.385150359690E+03   -0.22641E-01   -0.22723E-01  9152   0.376E+00-0.457E-03
CGA:   3    -0.385187008104E+03   -0.36648E-01   -0.36648E-01  9152   0.186E+00-0.197E-03
CGA:   4    -0.385201121795E+03   -0.14114E-01   -0.14202E-01  9152   0.573E-01 0.933E-03
CGA:   5    -0.385210007609E+03   -0.88858E-02   -0.88945E-02  9152   0.131E-01-0.132E-03
CGA:   6    -0.385211638664E+03   -0.16311E-02   -0.16285E-02  9152   0.985E-02 0.746E-04
CGA:   7    -0.385212133319E+03   -0.49465E-03   -0.49503E-03  9152   0.459E-02-0.279E-05
CGA:   8    -0.385212504473E+03   -0.37115E-03   -0.37107E-03  9152   0.138E-02 0.101E-06
CGA:   9    -0.385212661800E+03   -0.15733E-03   -0.15725E-03  9152   0.795E-03 0.331E-05
CGA:  10    -0.385212759504E+03   -0.97703E-04   -0.97759E-04  9152   0.351E-03-0.199E-05
CGA:  11    -0.385212778752E+03   -0.19248E-04   -0.19238E-04  9152   0.275E-03-0.342E-06
CGA:  12    -0.385212816427E+03   -0.37675E-04   -0.37649E-04  9152   0.102E-03 0.653E-06
CGA:  13    -0.385212827834E+03   -0.11407E-04   -0.11409E-04  9152   0.831E-04-0.232E-06
CGA:  14    -0.385212837819E+03   -0.99853E-05   -0.99754E-05  9152   0.107E-03 0.476E-06
 134 F= -.38521284E+03 E0= -.38520623E+03  d E =-.256329E-03  mag=    46.0000
       N       E                     dE             d eps       ncg     rms          ort
SDA:   1    -0.385120477595E+03    0.92350E-01    0.00000E+00  9152   0.318E+00 0.000E+00
CGA:   2    -0.385155754139E+03   -0.35277E-01   -0.35246E-01  9152   0.493E+00 0.160E-02
CGA:   3    -0.385182622401E+03   -0.26868E-01   -0.26795E-01  9152   0.114E+00-0.230E-04
CGA:   4    -0.385204100345E+03   -0.21478E-01   -0.21498E-01  9152   0.494E-01-0.216E-03
CGA:   5    -0.385207725957E+03   -0.36256E-02   -0.36374E-02  9152   0.358E-01 0.582E-04
CGA:   6    -0.385209992677E+03   -0.22667E-02   -0.22685E-02  9152   0.167E-01-0.798E-05
CGA:   7    -0.385211245174E+03   -0.12525E-02   -0.12515E-02  9152   0.432E-02-0.846E-05
CGA:   8    -0.385211770548E+03   -0.52537E-03   -0.52524E-03  9152   0.340E-02 0.475E-05
CGA:   9    -0.385211950284E+03   -0.17974E-03   -0.17979E-03  9152   0.175E-02 0.190E-05
CGA:  10    -0.385212127564E+03   -0.17728E-03   -0.17728E-03  9152   0.548E-03-0.612E-07
CGA:  11    -0.385212203182E+03   -0.75619E-04   -0.75604E-04  9152   0.774E-03 0.380E-06
CGA:  12    -0.385212242502E+03   -0.39320E-04   -0.39287E-04  9152   0.200E-03-0.433E-06
CGA:  13    -0.385212264989E+03   -0.22486E-04   -0.22497E-04  9152   0.175E-03-0.626E-06
CGA:  14    -0.385212285150E+03   -0.20161E-04   -0.20162E-04  9152   0.131E-03-0.936E-07
CGA:  15    -0.385212291510E+03   -0.63603E-05   -0.63701E-05  9152   0.517E-04 0.206E-06
 135 F= -.38521229E+03 E0= -.38520567E+03  d E =0.546309E-03  mag=    46.0000
       N       E                     dE             d eps       ncg     rms          ort
SDA:   1    -0.385164227353E+03    0.48058E-01    0.00000E+00  9152   0.159E+00 0.000E+00
CGA:   2    -0.385185942532E+03   -0.21715E-01   -0.21739E-01  9152   0.243E+00-0.501E-03
CGA:   3    -0.385197362947E+03   -0.11420E-01   -0.11386E-01  9152   0.676E-01 0.172E-03
CGA:   4    -0.385207896888E+03   -0.10534E-01   -0.10522E-01  9152   0.324E-01 0.178E-03
CGA:   5    -0.385210751103E+03   -0.28542E-02   -0.28507E-02  9152   0.132E-01-0.844E-04
CGA:   6    -0.385211801983E+03   -0.10509E-02   -0.10508E-02  9152   0.104E-01-0.764E-06
CGA:   7    -0.385212362703E+03   -0.56072E-03   -0.56118E-03  9152   0.308E-02-0.251E-05
CGA:   8    -0.385212698343E+03   -0.33564E-03   -0.33574E-03  9152   0.947E-03-0.670E-05
CGA:   9    -0.385212825795E+03   -0.12745E-03   -0.12747E-03  9152   0.123E-02-0.477E-06
CGA:  10    -0.385212883192E+03   -0.57397E-04   -0.57337E-04  9152   0.293E-03-0.155E-06
CGA:  11    -0.385212919425E+03   -0.36232E-04   -0.36238E-04  9152   0.236E-03-0.156E-06
CGA:  12    -0.385212943907E+03   -0.24483E-04   -0.24479E-04  9152   0.107E-03 0.731E-06
CGA:  13    -0.385212949997E+03   -0.60895E-05   -0.61001E-05  9152   0.781E-04 0.274E-06
CGA:  14    -0.385212960364E+03   -0.10367E-04   -0.10369E-04  9152   0.343E-04-0.699E-07
CGA:  15    -0.385212964355E+03   -0.39912E-05   -0.39878E-05  9152   0.323E-04 0.205E-06
 136 F= -.38521296E+03 E0= -.38520636E+03  d E =-.672845E-03  mag=    46.0000
