       N       E                     dE             d eps       ncg     rms          ort
DAV:   1     0.713014639964E+04    0.71301E+04   -0.27573E+05  8528   0.167E+03
DAV:   2     0.743180103006E+03   -0.63870E+04   -0.60541E+04  8528   0.503E+02
DAV:   3    -0.363564064500E+03   -0.11067E+04   -0.10824E+04  8528   0.205E+02
DAV:   4    -0.427530584657E+03   -0.63967E+02   -0.61826E+02  8528   0.508E+01
DAV:   5    -0.432938956094E+03   -0.54084E+01   -0.52519E+01  8528   0.117E+01
SDA:   6    -0.168134463775E+03    0.26480E+03   -0.52519E+01  8528   0.185E+04 0.000E+00
CGA:   7    -0.273494359279E+03   -0.10536E+03   -0.86118E+02  8528   0.174E+04 0.454E+02
CGA:   8    -0.350374508407E+03   -0.76880E+02   -0.77483E+02  8528   0.410E+03 0.128E+03
CGA:   9    -0.354108160689E+03   -0.37337E+01   -0.13581E+02  8528   0.478E+03-0.281E+03
CGA:  10    -0.362783901340E+03   -0.86757E+01   -0.88970E+01  8528   0.116E+03-0.143E+03
CGA:  11    -0.369117187779E+03   -0.63333E+01   -0.45545E+01  8528   0.522E+02 0.279E+02
CGA:  12    -0.372662731933E+03   -0.35455E+01   -0.32951E+01  8528   0.866E+02 0.435E+01
CGA:  13    -0.376819046354E+03   -0.41563E+01   -0.45355E+01  8528   0.108E+03-0.527E+02
CGA:  14    -0.375852561665E+03    0.96648E+00   -0.29779E+01  8528   0.245E+03-0.128E+03
CGA:  15    -0.374276341344E+03    0.15762E+01   -0.61529E+01  8528   0.376E+03-0.261E+03
CGA:  16    -0.375117225117E+03   -0.84088E+00   -0.81944E+01  8528   0.339E+03-0.323E+03
CGA:  17    -0.377160843133E+03   -0.20436E+01   -0.67973E+01  8528   0.199E+03-0.237E+03
CGA:  18    -0.378045052340E+03   -0.88421E+00   -0.43356E+01  8528   0.158E+03-0.157E+03
CGA:  19    -0.379077891538E+03   -0.10328E+01   -0.33384E+01  8528   0.867E+02-0.945E+02
CGA:  20    -0.379605237406E+03   -0.52735E+00   -0.20485E+01  8528   0.665E+02-0.595E+02
CGA:  21    -0.380281883316E+03   -0.67665E+00   -0.14438E+01  8528   0.279E+02-0.275E+02
CGA:  22    -0.381241370524E+03   -0.95949E+00   -0.11552E+01  8528   0.152E+02 0.654E+00
CGA:  23    -0.381769165607E+03   -0.52780E+00   -0.87239E+00  8528   0.131E+02-0.953E+00
CGA:  24    -0.382475163173E+03   -0.70600E+00   -0.54058E+00  8528   0.788E+01-0.223E+01
CGA:  25    -0.383224373046E+03   -0.74921E+00   -0.73698E+00  8528   0.126E+02-0.470E+00
CGA:  26    -0.383359713919E+03   -0.13534E+00   -0.90874E-01  8528   0.123E+02 0.491E+01
CGA:  27    -0.383058709765E+03    0.30100E+00   -0.48143E+00  8528   0.423E+02-0.235E+02
CGA:  28    -0.383586395649E+03   -0.52769E+00   -0.16220E+01  8528   0.691E+01-0.855E+01
CGA:  29    -0.383756463975E+03   -0.17007E+00   -0.89607E-01  8528   0.454E+01 0.496E+01
CGA:  30    -0.383845282349E+03   -0.88818E-01   -0.46072E-01  8528   0.316E+01 0.413E+01
CGA:  31    -0.383919123886E+03   -0.73842E-01   -0.41234E-01  8528   0.163E+01 0.236E+01
CGA:  32    -0.383984915713E+03   -0.65792E-01   -0.47711E-01  8528   0.110E+01 0.460E+00
CGA:  33    -0.384040090909E+03   -0.55175E-01   -0.26767E+00  8528   0.268E+02-0.208E+01
CGA:  34    -0.384279636197E+03   -0.23955E+00   -0.11094E+01  8528   0.341E+01-0.282E+01
CGA:  35    -0.384398443735E+03   -0.11881E+00   -0.63493E-01  8528   0.192E+01 0.255E+01
CGA:  36    -0.384452314881E+03   -0.53871E-01   -0.28637E-01  8528   0.106E+01 0.159E+01
CGA:  37    -0.384490390105E+03   -0.38075E-01   -0.25050E-01  8528   0.359E+00 0.444E+00
CGA:  38    -0.384515875178E+03   -0.25485E-01   -0.23098E-01  8528   0.117E+01 0.833E-02
CGA:  39    -0.384567228622E+03   -0.51353E-01   -0.40375E-01  8528   0.480E+01 0.248E+00
CGA:  40    -0.384619131281E+03   -0.51903E-01   -0.46161E-01  8528   0.658E+01-0.621E+00
CGA:  41    -0.384581360445E+03    0.37771E-01   -0.39126E-01  8528   0.151E+02-0.128E+02
CGA:  42    -0.384766126559E+03   -0.18477E+00   -0.33780E+00  8528   0.704E+01-0.528E+01
CGA:  43    -0.384897192012E+03   -0.13107E+00   -0.15185E+00  8528   0.433E+00-0.292E-01
CGA:  44    -0.384918488064E+03   -0.21296E-01   -0.20910E-01  8528   0.738E+00-0.934E-02
CGA:  45    -0.384941490804E+03   -0.23003E-01   -0.18854E-01  8528   0.710E+00 0.106E+00
CGA:  46    -0.384980692735E+03   -0.39202E-01   -0.39478E-01  8528   0.204E+01 0.101E-01
CGA:  47    -0.385074202739E+03   -0.93510E-01   -0.99612E-01  8528   0.324E+01 0.227E+00
CGA:  48    -0.385200664922E+03   -0.12646E+00   -0.90198E-01  8528   0.212E+01 0.775E+00
CGA:  49    -0.385245614306E+03   -0.44949E-01   -0.31637E-01  8528   0.164E+01 0.102E+01
CGA:  50    -0.385285630369E+03   -0.40016E-01   -0.31082E-01  8528   0.130E+01 0.635E+00
CGA:  51    -0.385312262550E+03   -0.26632E-01   -0.23132E-01  8528   0.106E+01 0.239E+00
CGA:  52    -0.385329814152E+03   -0.17552E-01   -0.18188E-01  8528   0.132E+01-0.328E-01
CGA:  53    -0.385350630119E+03   -0.20816E-01   -0.23933E-01  8528   0.234E+01-0.986E-01
CGA:  54    -0.385384279499E+03   -0.33649E-01   -0.35649E-01  8528   0.218E+01-0.337E-01
CGA:  55    -0.385407664047E+03   -0.23385E-01   -0.31187E-01  8528   0.118E+01-0.363E+00
CGA:  56    -0.385422774673E+03   -0.15111E-01   -0.19803E-01  8528   0.752E+00-0.837E-01
CGA:  57    -0.385445534082E+03   -0.22759E-01   -0.23191E-01  8528   0.660E+00 0.176E-01
CGA:  58    -0.385483095449E+03   -0.37561E-01   -0.37717E-01  8528   0.874E+00-0.886E-02
CGA:  59    -0.385514288510E+03   -0.31193E-01   -0.30520E-01  8528   0.641E+00-0.263E-01
CGA:  60    -0.385531532131E+03   -0.17244E-01   -0.16547E-01  8528   0.569E+00 0.678E-02
CGA:  61    -0.385548909844E+03   -0.17378E-01   -0.17305E-01  8528   0.647E+00-0.298E-03
CGA:  62    -0.385568916846E+03   -0.20007E-01   -0.20332E-01  8528   0.664E+00 0.771E-02
CGA:  63    -0.385589906290E+03   -0.20989E-01   -0.20498E-01  8528   0.465E+00-0.477E-02
CGA:  64    -0.385600808130E+03   -0.10902E-01   -0.98497E-02  8528   0.398E+00 0.200E-01
CGA:  65    -0.385610446069E+03   -0.96379E-02   -0.93647E-02  8528   0.496E+00 0.204E-02
CGA:  66    -0.385621790098E+03   -0.11344E-01   -0.11484E-01  8528   0.620E+00-0.346E-03
CGA:  67    -0.385635133765E+03   -0.13344E-01   -0.11488E-01  8528   0.633E+00 0.779E-01
CGA:  68    -0.385643723762E+03   -0.85900E-02   -0.54140E-02  8528   0.592E+00 0.390E+00
CGA:  69    -0.385677866619E+03   -0.34143E-01   -0.33844E-01  8528   0.307E+00 0.963E-02
CGA:  70    -0.385686846289E+03   -0.89797E-02   -0.87780E-02  8528   0.252E+00-0.612E-02
CGA:  71    -0.385703302831E+03   -0.16457E-01   -0.16297E-01  8528   0.345E+00 0.383E-02
CGA:  72    -0.385715003488E+03   -0.11701E-01   -0.11809E-01  8528   0.357E+00 0.140E-01
CGA:  73    -0.385733148187E+03   -0.18145E-01   -0.21488E-01  8528   0.390E+00-0.141E+00
CGA:  74    -0.385744220466E+03   -0.11072E-01   -0.11956E-01  8528   0.469E+00-0.567E-01
CGA:  75    -0.385752340917E+03   -0.81205E-02   -0.81543E-02  8528   0.286E+00 0.502E-03
CGA:  76    -0.385761460437E+03   -0.91195E-02   -0.91590E-02  8528   0.295E+00 0.251E-02
CGA:  77    -0.385771307127E+03   -0.98467E-02   -0.98094E-02  8528   0.325E+00-0.312E-02
CGA:  78    -0.385779586860E+03   -0.82797E-02   -0.82158E-02  8528   0.212E+00-0.213E-03
CGA:  79    -0.385785904364E+03   -0.63175E-02   -0.63402E-02  8528   0.257E+00 0.991E-03
CGA:  80    -0.385794166351E+03   -0.82620E-02   -0.82317E-02  8528   0.195E+00-0.259E-02
CGA:  81    -0.385797839471E+03   -0.36731E-02   -0.36348E-02  8528   0.832E-01 0.751E-03
CGA:  82    -0.385799787871E+03   -0.19484E-02   -0.19574E-02  8528   0.667E-01-0.344E-04
CGA:  83    -0.385802009713E+03   -0.22218E-02   -0.22223E-02  8528   0.900E-01 0.131E-03
CGA:  84    -0.385804708318E+03   -0.26986E-02   -0.26931E-02  8528   0.808E-01-0.445E-03
CGA:  85    -0.385806962567E+03   -0.22542E-02   -0.22515E-02  8528   0.103E+00-0.142E-03
CGA:  86    -0.385810936462E+03   -0.39739E-02   -0.39961E-02  8528   0.145E+00-0.280E-02
CGA:  87    -0.385813794134E+03   -0.28577E-02   -0.27119E-02  8528   0.105E+00 0.290E-02
CGA:  88    -0.385815728912E+03   -0.19348E-02   -0.19054E-02  8528   0.764E-01 0.796E-03
CGA:  89    -0.385817257591E+03   -0.15287E-02   -0.15350E-02  8528   0.760E-01 0.761E-05
CGA:  90    -0.385818882788E+03   -0.16252E-02   -0.16231E-02  8528   0.624E-01 0.600E-04
CGA:  91    -0.385819983377E+03   -0.11006E-02   -0.10914E-02  8528   0.530E-01 0.284E-03
CGA:  92    -0.385821385495E+03   -0.14021E-02   -0.13955E-02  8528   0.881E-01-0.386E-03
CGA:  93    -0.385823221246E+03   -0.18358E-02   -0.18338E-02  8528   0.941E-01 0.287E-03
CGA:  94    -0.385824751732E+03   -0.15305E-02   -0.14952E-02  8528   0.657E-01 0.172E-02
CGA:  95    -0.385825790637E+03   -0.10389E-02   -0.99284E-03  8528   0.500E-01 0.177E-02
CGA:  96    -0.385826542347E+03   -0.75171E-03   -0.74397E-03  8528   0.405E-01 0.316E-03
CGA:  97    -0.385827145715E+03   -0.60337E-03   -0.61799E-03  8528   0.333E-01-0.355E-03
CGA:  98    -0.385827640498E+03   -0.49478E-03   -0.49823E-03  8528   0.253E-01-0.701E-04
SDA:  99    -0.385828068895E+03   -0.42840E-03   -0.42609E-03  8528   0.270E-01-0.523E-05
CGA: 100    -0.385829031289E+03   -0.96239E-03   -0.96415E-03  8528   0.105E-01-0.154E-03
CGA: 101    -0.385829559856E+03   -0.52857E-03   -0.53299E-03  8528   0.204E-01-0.182E-03
CGA: 102    -0.385830690455E+03   -0.11306E-02   -0.11339E-02  8528   0.287E-01-0.136E-03
CGA: 103    -0.385832286563E+03   -0.15961E-02   -0.15909E-02  8528   0.888E-02 0.276E-03
CGA: 104    -0.385832943080E+03   -0.65652E-03   -0.65803E-03  8528   0.139E-01-0.396E-04
CGA: 105    -0.385833278539E+03   -0.33546E-03   -0.32336E-03  8528   0.102E-01-0.106E-03
CGA: 106    -0.385834080989E+03   -0.80245E-03   -0.86900E-03  8528   0.332E-01-0.187E-02
CGA: 107    -0.385834560578E+03   -0.47959E-03   -0.49758E-03  8528   0.140E-01 0.134E-03
CGA: 108    -0.385834752532E+03   -0.19195E-03   -0.19931E-03  8528   0.655E-02-0.341E-03
CGA: 109    -0.385834951375E+03   -0.19884E-03   -0.19823E-03  8528   0.427E-02-0.131E-03
CGA: 110    -0.385835032449E+03   -0.81074E-04   -0.78687E-04  8528   0.391E-02 0.394E-04
CGA: 111    -0.385835166264E+03   -0.13382E-03   -0.13374E-03  8528   0.485E-02 0.191E-04
CGA: 112    -0.385835308738E+03   -0.14247E-03   -0.14507E-03  8528   0.791E-02 0.381E-03
CGA: 113    -0.385835543618E+03   -0.23488E-03   -0.31893E-03  8528   0.233E-01-0.113E-01
CGA: 114    -0.385835827789E+03   -0.28417E-03   -0.28318E-03  8528   0.616E-02 0.514E-04
CGA: 115    -0.385836167853E+03   -0.34006E-03   -0.33777E-03  8528   0.365E-02 0.909E-04
CGA: 116    -0.385836320652E+03   -0.15280E-03   -0.15310E-03  8528   0.233E-02-0.224E-04
CGA: 117    -0.385836687624E+03   -0.36697E-03   -0.35733E-03  8528   0.756E-02 0.732E-04
CGA: 118    -0.385836927255E+03   -0.23963E-03   -0.22266E-03  8528   0.125E-01-0.142E-03
CGA: 119    -0.385837221690E+03   -0.29444E-03   -0.27508E-03  8528   0.121E-01 0.619E-03
CGA: 120    -0.385837388298E+03   -0.16661E-03   -0.21697E-03  8528   0.544E-02-0.153E-02
CGA: 121    -0.385837515401E+03   -0.12710E-03   -0.12095E-03  8528   0.163E-02-0.101E-04
CGA: 122    -0.385837583419E+03   -0.68018E-04   -0.68056E-04  8528   0.105E-02-0.996E-05
CGA: 123    -0.385837622615E+03   -0.39196E-04   -0.39221E-04  8528   0.730E-03-0.210E-04
CGA: 124    -0.385837663282E+03   -0.40667E-04   -0.41324E-04  8528   0.716E-03-0.311E-04
CGA: 125    -0.385837687711E+03   -0.24430E-04   -0.24396E-04  8528   0.349E-03-0.170E-04
CGA: 126    -0.385837697769E+03   -0.10057E-04   -0.10017E-04  8528   0.220E-03-0.472E-05
CGA: 127    -0.385837703128E+03   -0.53593E-05   -0.53561E-05  8528   0.239E-03-0.575E-06
   1 F= -.38583770E+03 E0= -.38581087E+03  d E =-.385838E+03  mag=    14.7202
       N       E                     dE             d eps       ncg     rms          ort
SDA:   1    -0.385834579867E+03    0.31179E-02    0.00000E+00  8528   0.670E+00 0.000E+00
CGA:   2    -0.385842804157E+03   -0.82243E-02   -0.84023E-02  8528   0.159E+00-0.106E-01
CGA:   3    -0.385845420375E+03   -0.26162E-02   -0.25522E-02  8528   0.124E-01 0.230E-02
CGA:   4    -0.385845848612E+03   -0.42824E-03   -0.42826E-03  8528   0.363E-02 0.237E-04
CGA:   5    -0.385845984774E+03   -0.13616E-03   -0.13613E-03  8528   0.421E-02 0.882E-05
CGA:   6    -0.385846060445E+03   -0.75671E-04   -0.75807E-04  8528   0.221E-02-0.137E-05
CGA:   7    -0.385846193077E+03   -0.13263E-03   -0.13229E-03  8528   0.244E-02 0.127E-04
CGA:   8    -0.385846308323E+03   -0.11525E-03   -0.11524E-03  8528   0.500E-03 0.216E-05
CGA:   9    -0.385846321384E+03   -0.13061E-04   -0.13054E-04  8528   0.627E-03-0.985E-06
CGA:  10    -0.385846339024E+03   -0.17640E-04   -0.17631E-04  8528   0.430E-03-0.126E-05
CGA:  11    -0.385846363687E+03   -0.24663E-04   -0.24781E-04  8528   0.121E-03-0.513E-05
CGA:  12    -0.385846374854E+03   -0.11166E-04   -0.11483E-04  8528   0.126E-03-0.528E-05
CGA:  13    -0.385846378255E+03   -0.34015E-05   -0.33841E-05  8528   0.508E-04-0.168E-05
   2 F= -.38584638E+03 E0= -.38581971E+03  d E =-.867513E-02  mag=    14.7195
       N       E                     dE             d eps       ncg     rms          ort
SDA:   1    -0.385807939015E+03    0.38436E-01    0.00000E+00  8528   0.454E+01 0.000E+00
CGA:   2    -0.385849486822E+03   -0.41548E-01   -0.41099E-01  8528   0.212E+00 0.409E-01
CGA:   3    -0.385853291967E+03   -0.38051E-02   -0.37234E-02  8528   0.311E-02 0.247E-02
CGA:   4    -0.385853383646E+03   -0.91679E-04   -0.91660E-04  8528   0.404E-02-0.679E-06
CGA:   5    -0.385853482783E+03   -0.99137E-04   -0.99183E-04  8528   0.278E-02 0.462E-05
CGA:   6    -0.385853591974E+03   -0.10919E-03   -0.10917E-03  8528   0.117E-02 0.368E-05
CGA:   7    -0.385853677419E+03   -0.85446E-04   -0.85455E-04  8528   0.216E-02-0.272E-06
CGA:   8    -0.385853706568E+03   -0.29149E-04   -0.29134E-04  8528   0.562E-03 0.201E-05
CGA:   9    -0.385853735001E+03   -0.28433E-04   -0.28484E-04  8528   0.270E-03-0.334E-05
CGA:  10    -0.385853749773E+03   -0.14772E-04   -0.14865E-04  8528   0.378E-03-0.492E-05
CGA:  11    -0.385853755751E+03   -0.59776E-05   -0.59319E-05  8528   0.191E-03-0.208E-05
CGA:  12    -0.385853766464E+03   -0.10714E-04   -0.10853E-04  8528   0.109E-03-0.670E-05
CGA:  13    -0.385853770668E+03   -0.42039E-05   -0.42126E-05  8528   0.733E-04-0.309E-05
   3 F= -.38585377E+03 E0= -.38582710E+03  d E =-.739241E-02  mag=    14.7196
       N       E                     dE             d eps       ncg     rms          ort
SDA:   1    -0.371451362238E+03    0.14402E+02    0.00000E+00  8528   0.868E+02 0.000E+00
CGA:   2    -0.373426887567E+03   -0.19755E+01   -0.17791E+01  8528   0.787E+02 0.215E+01
CGA:   3    -0.377382556819E+03   -0.39557E+01   -0.41873E+01  8528   0.177E+03-0.966E+01
CGA:   4    -0.382020177242E+03   -0.46376E+01   -0.46511E+01  8528   0.908E+02-0.286E+00
CGA:   5    -0.383735929567E+03   -0.17158E+01   -0.93614E+00  8528   0.366E+02 0.638E+02
CGA:   6    -0.384483785676E+03   -0.74786E+00   -0.59896E+00  8528   0.870E+01 0.408E+01
CGA:   7    -0.384943258673E+03   -0.45947E+00   -0.45786E+00  8528   0.320E+02 0.112E+00
CGA:   8    -0.385695811435E+03   -0.75255E+00   -0.75279E+00  8528   0.158E+02 0.417E-01
CGA:   9    -0.386001426968E+03   -0.30562E+00   -0.31603E+00  8528   0.787E+01-0.156E+00
CGA:  10    -0.386188886789E+03   -0.18746E+00   -0.18917E+00  8528   0.776E+01 0.331E-01
CGA:  11    -0.386350719072E+03   -0.16183E+00   -0.16245E+00  8528   0.434E+01-0.608E-02
CGA:  12    -0.386462576802E+03   -0.11186E+00   -0.11360E+00  8528   0.268E+01 0.818E-01
CGA:  13    -0.386586290297E+03   -0.12371E+00   -0.12091E+00  8528   0.433E+01 0.174E+00
CGA:  14    -0.386719565212E+03   -0.13327E+00   -0.13327E+00  8528   0.357E+01-0.921E-03
CGA:  15    -0.386770950040E+03   -0.51385E-01   -0.53576E-01  8528   0.769E+00-0.838E-01
CGA:  16    -0.386795129413E+03   -0.24179E-01   -0.24170E-01  8528   0.348E+00 0.617E-02
CGA:  17    -0.386805807888E+03   -0.10678E-01   -0.10684E-01  8528   0.268E+00 0.273E-02
CGA:  18    -0.386813067316E+03   -0.72594E-02   -0.72796E-02  8528   0.315E+00 0.151E-02
CGA:  19    -0.386824212460E+03   -0.11145E-01   -0.11135E-01  8528   0.281E+00 0.147E-02
CGA:  20    -0.386835603254E+03   -0.11391E-01   -0.11371E-01  8528   0.130E+00 0.156E-02
CGA:  21    -0.386840870956E+03   -0.52677E-02   -0.52568E-02  8528   0.100E+00 0.889E-03
CGA:  22    -0.386845291233E+03   -0.44203E-02   -0.44105E-02  8528   0.833E-01 0.636E-03
CGA:  23    -0.386848172851E+03   -0.28816E-02   -0.28810E-02  8528   0.114E+00 0.205E-03
CGA:  24    -0.386851019648E+03   -0.28468E-02   -0.28514E-02  8528   0.630E-01 0.769E-04
CGA:  25    -0.386853795822E+03   -0.27762E-02   -0.27751E-02  8528   0.571E-01 0.599E-04
CGA:  26    -0.386856358898E+03   -0.25631E-02   -0.25584E-02  8528   0.327E-01 0.301E-03
CGA:  27    -0.386857513733E+03   -0.11548E-02   -0.11544E-02  8528   0.288E-01 0.155E-03
CGA:  28    -0.386858260040E+03   -0.74631E-03   -0.74637E-03  8528   0.271E-01 0.282E-04
CGA:  29    -0.386859365829E+03   -0.11058E-02   -0.11046E-02  8528   0.301E-01 0.123E-03
CGA:  30    -0.386861071647E+03   -0.17058E-02   -0.17026E-02  8528   0.169E-01 0.140E-03
CGA:  31    -0.386861485757E+03   -0.41411E-03   -0.41353E-03  8528   0.872E-02 0.101E-04
CGA:  32    -0.386861781922E+03   -0.29617E-03   -0.29616E-03  8528   0.162E-01-0.423E-05
CGA:  33    -0.386862849398E+03   -0.10675E-02   -0.10685E-02  8528   0.164E-01-0.320E-04
CGA:  34    -0.386863358827E+03   -0.50943E-03   -0.50983E-03  8528   0.638E-02 0.214E-04
CGA:  35    -0.386863629145E+03   -0.27032E-03   -0.27019E-03  8528   0.771E-02 0.113E-04
SDA:  36    -0.386863835350E+03   -0.20621E-03   -0.20627E-03  8528   0.667E-02 0.459E-05
CGA:  37    -0.386863946184E+03   -0.11083E-03   -0.11121E-03  8528   0.356E-02-0.144E-04
CGA:  38    -0.386864063542E+03   -0.11736E-03   -0.11735E-03  8528   0.346E-02 0.258E-05
CGA:  39    -0.386864368348E+03   -0.30481E-03   -0.30308E-03  8528   0.296E-02 0.340E-04
CGA:  40    -0.386864531553E+03   -0.16321E-03   -0.16319E-03  8528   0.204E-02 0.137E-05
CGA:  41    -0.386864640149E+03   -0.10860E-03   -0.10862E-03  8528   0.114E-02-0.257E-05
CGA:  42    -0.386864696629E+03   -0.56481E-04   -0.56574E-04  8528   0.284E-02-0.986E-05
CGA:  43    -0.386864774468E+03   -0.77838E-04   -0.77699E-04  8528   0.191E-02-0.142E-04
CGA:  44    -0.386864899314E+03   -0.12485E-03   -0.12553E-03  8528   0.134E-02-0.254E-04
CGA:  45    -0.386864954583E+03   -0.55269E-04   -0.55293E-04  8528   0.519E-03-0.117E-04
CGA:  46    -0.386865007821E+03   -0.53237E-04   -0.53214E-04  8528   0.128E-02 0.150E-06
CGA:  47    -0.386865041822E+03   -0.34001E-04   -0.33995E-04  8528   0.157E-02-0.574E-06
CGA:  48    -0.386865099567E+03   -0.57745E-04   -0.57757E-04  8528   0.339E-03 0.173E-05
CGA:  49    -0.386865134619E+03   -0.35052E-04   -0.34985E-04  8528   0.350E-03 0.820E-06
CGA:  50    -0.386865151290E+03   -0.16670E-04   -0.16671E-04  8528   0.263E-03-0.572E-07
CGA:  51    -0.386865176389E+03   -0.25099E-04   -0.25123E-04  8528   0.716E-03-0.630E-06
CGA:  52    -0.386865191536E+03   -0.15147E-04   -0.15158E-04  8528   0.474E-03-0.147E-06
CGA:  53    -0.386865207353E+03   -0.15817E-04   -0.15807E-04  8528   0.213E-03-0.944E-06
CGA:  54    -0.386865218191E+03   -0.10838E-04   -0.10836E-04  8528   0.767E-04 0.307E-06
CGA:  55    -0.386865232481E+03   -0.14289E-04   -0.14062E-04  8528   0.195E-03 0.155E-05
CGA:  56    -0.386865237926E+03   -0.54452E-05   -0.54561E-05  8528   0.166E-03 0.199E-06
   4 F= -.38686524E+03 E0= -.38683963E+03  d E =-.101147E+01  mag=    14.6800
       N       E                     dE             d eps       ncg     rms          ort
SDA:   1    -0.384457129344E+03    0.24081E+01    0.00000E+00  8528   0.111E+02 0.000E+00
CGA:   2    -0.384792904283E+03   -0.33577E+00   -0.31554E+00  8528   0.195E+02 0.207E+00
CGA:   3    -0.385938788941E+03   -0.11459E+01   -0.11647E+01  8528   0.250E+02-0.129E+01
CGA:   4    -0.386563642338E+03   -0.62485E+00   -0.63822E+00  8528   0.581E+01-0.296E+00
CGA:   5    -0.386668073487E+03   -0.10443E+00   -0.11136E+00  8528   0.449E+01-0.239E+00
CGA:   6    -0.386900706465E+03   -0.23263E+00   -0.23245E+00  8528   0.383E+01 0.168E-01
CGA:   7    -0.387035293739E+03   -0.13459E+00   -0.13385E+00  8528   0.228E+01-0.963E-02
CGA:   8    -0.387091163667E+03   -0.55870E-01   -0.56369E-01  8528   0.186E+01-0.925E-02
CGA:   9    -0.387137488600E+03   -0.46325E-01   -0.46741E-01  8528   0.562E+00-0.711E-02
CGA:  10    -0.387154739950E+03   -0.17251E-01   -0.17281E-01  8528   0.272E+00 0.414E-04
CGA:  11    -0.387164138446E+03   -0.93985E-02   -0.93962E-02  8528   0.447E+00-0.682E-04
CGA:  12    -0.387179974261E+03   -0.15836E-01   -0.15852E-01  8528   0.223E+00 0.577E-03
CGA:  13    -0.387187496638E+03   -0.75224E-02   -0.75405E-02  8528   0.113E+00 0.412E-03
CGA:  14    -0.387189975429E+03   -0.24788E-02   -0.24819E-02  8528   0.583E-01-0.783E-04
CGA:  15    -0.387191413322E+03   -0.14379E-02   -0.14347E-02  8528   0.338E-01 0.447E-04
CGA:  16    -0.387194257840E+03   -0.28445E-02   -0.28398E-02  8528   0.609E-01 0.115E-03
CGA:  17    -0.387195738126E+03   -0.14803E-02   -0.14859E-02  8528   0.430E-01-0.546E-04
CGA:  18    -0.387196835675E+03   -0.10975E-02   -0.11012E-02  8528   0.126E-01-0.952E-05
CGA:  19    -0.387197334861E+03   -0.49919E-03   -0.49922E-03  8528   0.115E-01 0.148E-04
CGA:  20    -0.387197728181E+03   -0.39332E-03   -0.39341E-03  8528   0.153E-01 0.589E-05
CGA:  21    -0.387198246654E+03   -0.51847E-03   -0.51854E-03  8528   0.118E-01-0.328E-05
CGA:  22    -0.387198937174E+03   -0.69052E-03   -0.69056E-03  8528   0.107E-01-0.503E-05
CGA:  23    -0.387199176398E+03   -0.23922E-03   -0.23903E-03  8528   0.673E-02-0.290E-05
CGA:  24    -0.387199370916E+03   -0.19452E-03   -0.19451E-03  8528   0.422E-02 0.523E-05
CGA:  25    -0.387199690784E+03   -0.31987E-03   -0.31923E-03  8528   0.769E-02 0.177E-04
CGA:  26    -0.387199906982E+03   -0.21620E-03   -0.21622E-03  8528   0.687E-02 0.142E-04
CGA:  27    -0.387200122057E+03   -0.21508E-03   -0.21518E-03  8528   0.471E-02 0.132E-04
CGA:  28    -0.387200321875E+03   -0.19982E-03   -0.19979E-03  8528   0.208E-02 0.143E-04
CGA:  29    -0.387200376221E+03   -0.54346E-04   -0.54393E-04  8528   0.248E-02 0.564E-06
CGA:  30    -0.387200523345E+03   -0.14712E-03   -0.14698E-03  8528   0.330E-02 0.646E-05
CGA:  31    -0.387200639030E+03   -0.11568E-03   -0.11568E-03  8528   0.139E-02 0.496E-06
SDA:  32    -0.387200671925E+03   -0.32895E-04   -0.32936E-04  8528   0.123E-02 0.189E-05
CGA:  33    -0.387200691307E+03   -0.19383E-04   -0.19384E-04  8528   0.690E-03-0.126E-05
CGA:  34    -0.387200728401E+03   -0.37094E-04   -0.37058E-04  8528   0.817E-03 0.202E-05
CGA:  35    -0.387200774216E+03   -0.45815E-04   -0.45775E-04  8528   0.518E-03 0.213E-05
CGA:  36    -0.387200822525E+03   -0.48308E-04   -0.48331E-04  8528   0.393E-03-0.558E-06
CGA:  37    -0.387200836787E+03   -0.14262E-04   -0.14256E-04  8528   0.567E-03-0.871E-06
CGA:  38    -0.387200850343E+03   -0.13556E-04   -0.13548E-04  8528   0.293E-03-0.359E-06
CGA:  39    -0.387200870194E+03   -0.19851E-04   -0.19941E-04  8528   0.255E-03-0.343E-05
CGA:  40    -0.387200887679E+03   -0.17485E-04   -0.17557E-04  8528   0.230E-03-0.284E-05
CGA:  41    -0.387200895563E+03   -0.78841E-05   -0.78694E-05  8528   0.260E-03-0.181E-05
   5 F= -.38720090E+03 E0= -.38717543E+03  d E =-.335658E+00  mag=    14.6551
       N       E                     dE             d eps       ncg     rms          ort
SDA:   1    -0.353289869896E+03    0.33911E+02    0.00000E+00  8528   0.226E+03 0.000E+00
CGA:   2    -0.359995396521E+03   -0.67055E+01   -0.43878E+01  8528   0.126E+03 0.515E+02
CGA:   3    -0.363621819364E+03   -0.36264E+01   -0.33200E+01  8528   0.209E+03-0.608E+01
CGA:   4    -0.372445968543E+03   -0.88241E+01   -0.85985E+01  8528   0.424E+03 0.451E+02
CGA:   5    -0.377893814116E+03   -0.54478E+01   -0.54833E+01  8528   0.161E+03-0.177E+03
CGA:   6    -0.380123295048E+03   -0.22295E+01   -0.21510E+01  8528   0.173E+03 0.832E+00
CGA:   7    -0.381632582092E+03   -0.15093E+01   -0.17332E+01  8528   0.538E+02-0.237E+02
CGA:   8    -0.382304008287E+03   -0.67143E+00   -0.57635E+00  8528   0.484E+02 0.333E+01
CGA:   9    -0.382987875838E+03   -0.68387E+00   -0.64032E+00  8528   0.581E+02 0.164E+01
CGA:  10    -0.383774416677E+03   -0.78654E+00   -0.86815E+00  8528   0.686E+02-0.385E+01
CGA:  11    -0.384491206630E+03   -0.71679E+00   -0.89061E+00  8528   0.794E+02-0.809E+01
CGA:  12    -0.385647250468E+03   -0.11560E+01   -0.11191E+01  8528   0.646E+02 0.164E+01
CGA:  13    -0.386281633733E+03   -0.63438E+00   -0.54829E+00  8528   0.172E+02 0.711E+01
CGA:  14    -0.386426706010E+03   -0.14507E+00   -0.13313E+00  8528   0.771E+01 0.116E+01
CGA:  15    -0.386528083607E+03   -0.10138E+00   -0.10015E+00  8528   0.810E+01 0.433E-01
CGA:  16    -0.386598090945E+03   -0.70007E-01   -0.63242E-01  8528   0.624E+01 0.707E+00
CGA:  17    -0.386685034104E+03   -0.86943E-01   -0.83846E-01  8528   0.139E+02 0.129E+00
CGA:  18    -0.386891220161E+03   -0.20619E+00   -0.20500E+00  8528   0.351E+02-0.854E-01
CGA:  19    -0.387146281007E+03   -0.25506E+00   -0.24332E+00  8528   0.227E+02 0.172E+01
CGA:  20    -0.387262228163E+03   -0.11595E+00   -0.11570E+00  8528   0.110E+02-0.163E-02
CGA:  21    -0.387338873965E+03   -0.76646E-01   -0.87562E-01  8528   0.119E+02-0.969E+00
CGA:  22    -0.387410175063E+03   -0.71301E-01   -0.85107E-01  8528   0.617E+01-0.117E+01
CGA:  23    -0.387440414812E+03   -0.30240E-01   -0.39078E-01  8528   0.242E+01-0.945E+00
CGA:  24    -0.387465841142E+03   -0.25426E-01   -0.27380E-01  8528   0.256E+01-0.237E-01
CGA:  25    -0.387501622820E+03   -0.35782E-01   -0.35957E-01  8528   0.159E+01 0.831E-03
CGA:  26    -0.387547337944E+03   -0.45715E-01   -0.45791E-01  8528   0.386E+01-0.751E-02
CGA:  27    -0.387615187874E+03   -0.67850E-01   -0.67736E-01  8528   0.286E+01-0.479E-02
CGA:  28    -0.387663148875E+03   -0.47961E-01   -0.48701E-01  8528   0.288E+01 0.510E-01
CGA:  29    -0.387711760658E+03   -0.48612E-01   -0.49110E-01  8528   0.110E+01 0.312E-01
CGA:  30    -0.387728676244E+03   -0.16916E-01   -0.16935E-01  8528   0.794E+00 0.501E-03
CGA:  31    -0.387746359256E+03   -0.17683E-01   -0.17643E-01  8528   0.499E+00 0.133E-01
SDA:  32    -0.387757040958E+03   -0.10682E-01   -0.10682E-01  8528   0.705E+00-0.791E-03
CGA:  33    -0.387769286765E+03   -0.12246E-01   -0.12225E-01  8528   0.446E+00-0.199E-02
CGA:  34    -0.387787083824E+03   -0.17797E-01   -0.17795E-01  8528   0.417E+00 0.455E-04
CGA:  35    -0.387809042564E+03   -0.21959E-01   -0.21483E-01  8528   0.313E+00 0.171E-01
CGA:  36    -0.387822976087E+03   -0.13934E-01   -0.13791E-01  8528   0.381E+00 0.690E-02
CGA:  37    -0.387830738014E+03   -0.77619E-02   -0.77716E-02  8528   0.159E+00 0.693E-03
CGA:  38    -0.387834918949E+03   -0.41809E-02   -0.41919E-02  8528   0.461E-01-0.251E-02
CGA:  39    -0.387842266261E+03   -0.73473E-02   -0.52626E-03  8528   0.912E-01 0.218E-02
CGA:  40    -0.387846475558E+03   -0.42093E-02   -0.42092E-02  8528   0.598E-01 0.846E-04
CGA:  41    -0.387847926159E+03   -0.14506E-02   -0.14530E-02  8528   0.467E-01-0.275E-04
CGA:  42    -0.387849099890E+03   -0.11737E-02   -0.11818E-02  8528   0.164E-01-0.611E-04
CGA:  43    -0.387850719746E+03   -0.16199E-02   -0.16146E-02  8528   0.323E-01 0.972E-04
CGA:  44    -0.387852660999E+03   -0.19413E-02   -0.19418E-02  8528   0.298E-01-0.201E-04
CGA:  45    -0.387854416913E+03   -0.17559E-02   -0.17481E-02  8528   0.164E-01 0.427E-03
CGA:  46    -0.387855276829E+03   -0.85992E-03   -0.85930E-03  8528   0.151E-01 0.676E-04
CGA:  47    -0.387855702172E+03   -0.42534E-03   -0.42610E-03  8528   0.204E-01-0.680E-05
CGA:  48    -0.387856706668E+03   -0.10045E-02   -0.10044E-02  8528   0.129E-01 0.210E-04
CGA:  49    -0.387857440938E+03   -0.73427E-03   -0.73343E-03  8528   0.787E-02 0.514E-04
CGA:  50    -0.387857846878E+03   -0.40594E-03   -0.40576E-03  8528   0.546E-02 0.220E-04
CGA:  51    -0.387858072190E+03   -0.22531E-03   -0.22530E-03  8528   0.744E-02 0.136E-05
CGA:  52    -0.387858298164E+03   -0.22597E-03   -0.22583E-03  8528   0.881E-02 0.173E-05
CGA:  53    -0.387858722317E+03   -0.42415E-03   -0.42407E-03  8528   0.205E-02 0.194E-04
CGA:  54    -0.387858813089E+03   -0.90772E-04   -0.90778E-04  8528   0.179E-02 0.293E-05
CGA:  55    -0.387858900245E+03   -0.87156E-04   -0.87152E-04  8528   0.398E-02-0.512E-09
CGA:  56    -0.387859008253E+03   -0.10801E-03   -0.10819E-03  8528   0.195E-02-0.128E-05
CGA:  57    -0.387859147566E+03   -0.13931E-03   -0.13920E-03  8528   0.942E-03 0.380E-05
CGA:  58    -0.387859184790E+03   -0.37224E-04   -0.37225E-04  8528   0.121E-02 0.547E-06
CGA:  59    -0.387859216907E+03   -0.32117E-04   -0.32171E-04  8528   0.114E-02 0.262E-05
CGA:  60    -0.387859285061E+03   -0.68154E-04   -0.68050E-04  8528   0.784E-03 0.619E-05
CGA:  61    -0.387859322959E+03   -0.37898E-04   -0.37891E-04  8528   0.658E-03 0.237E-05
CGA:  62    -0.387859343110E+03   -0.20151E-04   -0.20164E-04  8528   0.652E-03 0.125E-05
SDA:  63    -0.387859359714E+03   -0.16604E-04   -0.16579E-04  8528   0.425E-03-0.447E-06
CGA:  64    -0.387859370636E+03   -0.10922E-04   -0.10914E-04  8528   0.295E-03-0.649E-06
CGA:  65    -0.387859379796E+03   -0.91601E-05   -0.91394E-05  8528   0.359E-03-0.196E-05
CGA:  66    -0.387859398599E+03   -0.18803E-04   -0.18844E-04  8528   0.336E-03-0.388E-05
CGA:  67    -0.387859422453E+03   -0.23853E-04   -0.23994E-04  8528   0.233E-03-0.491E-05
CGA:  68    -0.387859432906E+03   -0.10454E-04   -0.10455E-04  8528   0.177E-03-0.914E-06
CGA:  69    -0.387859439690E+03   -0.67839E-05   -0.67836E-05  8528   0.348E-03-0.109E-06
CGA:  70    -0.387859453593E+03   -0.13903E-04   -0.13910E-04  8528   0.199E-03 0.176E-05
CGA:  71    -0.387859470367E+03   -0.16774E-04   -0.16667E-04  8528   0.199E-03 0.265E-05
CGA:  72    -0.387859478160E+03   -0.77928E-05   -0.77999E-05  8528   0.142E-03 0.896E-06
   6 F= -.38785948E+03 E0= -.38783385E+03  d E =-.658583E+00  mag=    14.5500
       N       E                     dE             d eps       ncg     rms          ort
SDA:   1    -0.384144499134E+03    0.37150E+01    0.00000E+00  8528   0.191E+02 0.000E+00
CGA:   2    -0.384555575138E+03   -0.41108E+00   -0.38902E+00  8528   0.198E+02 0.256E+00
CGA:   3    -0.386500916751E+03   -0.19453E+01   -0.18875E+01  8528   0.162E+02 0.908E+00
CGA:   4    -0.387200824771E+03   -0.69991E+00   -0.65368E+00  8528   0.615E+01-0.173E+01
CGA:   5    -0.387395601560E+03   -0.19478E+00   -0.19469E+00  8528   0.787E+01-0.126E-01
CGA:   6    -0.387597781875E+03   -0.20218E+00   -0.19656E+00  8528   0.505E+01 0.464E-01
CGA:   7    -0.387812156626E+03   -0.21437E+00   -0.21533E+00  8528   0.186E+01 0.289E+00
CGA:   8    -0.387901732529E+03   -0.89576E-01   -0.89845E-01  8528   0.916E+00-0.805E-01
CGA:   9    -0.387931618384E+03   -0.29886E-01   -0.30179E-01  8528   0.828E+00 0.686E-02
CGA:  10    -0.387947050969E+03   -0.15433E-01   -0.14994E-01  8528   0.316E+00 0.145E-01
CGA:  11    -0.387971891593E+03   -0.24841E-01   -0.24777E-01  8528   0.211E+00 0.166E-02
CGA:  12    -0.387980447720E+03   -0.85561E-02   -0.85533E-02  8528   0.147E+00-0.310E-03
CGA:  13    -0.387983774566E+03   -0.33268E-02   -0.33627E-02  8528   0.103E+00-0.711E-03
CGA:  14    -0.387986876200E+03   -0.31016E-02   -0.31099E-02  8528   0.528E-01 0.655E-04
CGA:  15    -0.387989869546E+03   -0.29933E-02   -0.29807E-02  8528   0.501E-01 0.673E-03
CGA:  16    -0.387992015587E+03   -0.21460E-02   -0.21461E-02  8528   0.464E-01 0.947E-04
CGA:  17    -0.387993093854E+03   -0.10783E-02   -0.10826E-02  8528   0.309E-01-0.562E-04
CGA:  18    -0.387994064246E+03   -0.97039E-03   -0.97124E-03  8528   0.138E-01 0.256E-04
CGA:  19    -0.387995348724E+03   -0.12845E-02   -0.12793E-02  8528   0.161E-01 0.103E-03
CGA:  20    -0.387995857519E+03   -0.50879E-03   -0.50879E-03  8528   0.225E-01 0.113E-04
CGA:  21    -0.387996646477E+03   -0.78896E-03   -0.78883E-03  8528   0.122E-01 0.185E-05
CGA:  22    -0.387997302190E+03   -0.65571E-03   -0.65519E-03  8528   0.745E-02 0.336E-04
CGA:  23    -0.387997768454E+03   -0.46626E-03   -0.46578E-03  8528   0.136E-01 0.181E-04
CGA:  24    -0.387998086965E+03   -0.31851E-03   -0.31844E-03  8528   0.958E-02 0.441E-05
CGA:  25    -0.387998555781E+03   -0.46882E-03   -0.46861E-03  8528   0.457E-02 0.211E-04
CGA:  26    -0.387998760182E+03   -0.20440E-03   -0.20440E-03  8528   0.383E-02-0.641E-06
CGA:  27    -0.387998929613E+03   -0.16943E-03   -0.16943E-03  8528   0.486E-02 0.568E-06
CGA:  28    -0.387999046947E+03   -0.11733E-03   -0.11731E-03  8528   0.316E-02 0.377E-05
CGA:  29    -0.387999180549E+03   -0.13360E-03   -0.13360E-03  8528   0.153E-02 0.190E-05
CGA:  30    -0.387999272815E+03   -0.92266E-04   -0.92251E-04  8528   0.119E-02 0.790E-06
CGA:  31    -0.387999318215E+03   -0.45400E-04   -0.45403E-04  8528   0.187E-02 0.152E-06
SDA:  32    -0.387999367459E+03   -0.49244E-04   -0.49232E-04  8528   0.756E-03 0.248E-05
CGA:  33    -0.387999391710E+03   -0.24251E-04   -0.24253E-04  8528   0.638E-03-0.632E-06
CGA:  34    -0.387999406518E+03   -0.14809E-04   -0.14817E-04  8528   0.505E-03 0.427E-06
CGA:  35    -0.387999448923E+03   -0.42404E-04   -0.42363E-04  8528   0.689E-03 0.818E-06
CGA:  36    -0.387999492227E+03   -0.43304E-04   -0.43310E-04  8528   0.641E-03-0.607E-06
CGA:  37    -0.387999516253E+03   -0.24026E-04   -0.24020E-04  8528   0.385E-03-0.103E-05
CGA:  38    -0.387999526201E+03   -0.99480E-05   -0.99256E-05  8528   0.381E-03-0.142E-05
CGA:  39    -0.387999541303E+03   -0.15102E-04   -0.15096E-04  8528   0.359E-03-0.176E-05
CGA:  40    -0.387999571027E+03   -0.29724E-04   -0.29907E-04  8528   0.241E-03-0.447E-05
CGA:  41    -0.387999585813E+03   -0.14786E-04   -0.14795E-04  8528   0.105E-03-0.556E-06
CGA:  42    -0.387999589039E+03   -0.32254E-05   -0.32285E-05  8528   0.165E-03 0.852E-07
   7 F= -.38799959E+03 E0= -.38797341E+03  d E =-.140111E+00  mag=    14.5053
       N       E                     dE             d eps       ncg     rms          ort
SDA:   1    -0.363242091868E+03    0.24757E+02    0.00000E+00  8528   0.142E+03 0.000E+00
CGA:   2    -0.366432767176E+03   -0.31907E+01   -0.20805E+01  8528   0.693E+02 0.295E+02
CGA:   3    -0.371996074867E+03   -0.55633E+01   -0.52896E+01  8528   0.348E+03 0.744E+01
CGA:   4    -0.379169967059E+03   -0.71739E+01   -0.66505E+01  8528   0.216E+03 0.303E+02
CGA:   5    -0.380679676344E+03   -0.15097E+01   -0.33443E+01  8528   0.258E+03-0.107E+03
CGA:   6    -0.381577993218E+03   -0.89832E+00   -0.82407E+00  8528   0.201E+03-0.259E+01
CGA:   7    -0.381643625986E+03   -0.65633E-01   -0.15921E+01  8528   0.152E+03-0.237E+03
CGA:   8    -0.383648856142E+03   -0.20052E+01   -0.20759E+01  8528   0.443E+02-0.388E+01
CGA:   9    -0.384296402319E+03   -0.64755E+00   -0.63563E+00  8528   0.359E+02 0.222E+00
CGA:  10    -0.386431599555E+03   -0.21352E+01   -0.25330E+01  8528   0.672E+02-0.110E+02
CGA:  11    -0.387207979427E+03   -0.77638E+00   -0.80895E+00  8528   0.207E+02-0.164E+01
CGA:  12    -0.387493776932E+03   -0.28580E+00   -0.28626E+00  8528   0.617E+01-0.202E+00
CGA:  13    -0.387698027077E+03   -0.20425E+00   -0.20278E+00  8528   0.234E+01-0.234E+00
CGA:  14    -0.387810277990E+03   -0.11225E+00   -0.11456E+00  8528   0.346E+01-0.126E+00
CGA:  15    -0.387914190596E+03   -0.10391E+00   -0.10509E+00  8528   0.379E+01 0.107E+00
CGA:  16    -0.388022311204E+03   -0.10812E+00   -0.10741E+00  8528   0.332E+01-0.162E-01
CGA:  17    -0.388106774763E+03   -0.84464E-01   -0.84334E-01  8528   0.115E+01 0.138E-01
CGA:  18    -0.388131610973E+03   -0.24836E-01   -0.24958E-01  8528   0.356E+00-0.106E-02
CGA:  19    -0.388141542527E+03   -0.99316E-02   -0.10013E-01  8528   0.449E+00 0.377E-02
CGA:  20    -0.388172490803E+03   -0.30948E-01   -0.30824E-01  8528   0.753E+00 0.381E-02
CGA:  21    -0.388189948659E+03   -0.17458E-01   -0.17520E-01  8528   0.345E+00 0.315E-03
CGA:  22    -0.388199843247E+03   -0.98946E-02   -0.99567E-02  8528   0.137E+00 0.274E-02
CGA:  23    -0.388203393427E+03   -0.35502E-02   -0.35699E-02  8528   0.102E+00 0.356E-03
CGA:  24    -0.388207319010E+03   -0.39256E-02   -0.39200E-02  8528   0.114E+00 0.878E-03
CGA:  25    -0.388212165424E+03   -0.48464E-02   -0.48358E-02  8528   0.140E+00 0.957E-03
CGA:  26    -0.388216876970E+03   -0.47115E-02   -0.47111E-02  8528   0.863E-01-0.115E-03
CGA:  27    -0.388219356204E+03   -0.24792E-02   -0.24830E-02  8528   0.646E-01 0.208E-03
CGA:  28    -0.388221297390E+03   -0.19412E-02   -0.19422E-02  8528   0.401E-01 0.907E-04
CGA:  29    -0.388223873527E+03   -0.25761E-02   -0.25781E-02  8528   0.880E-01-0.618E-04
CGA:  30    -0.388226340784E+03   -0.24673E-02   -0.24694E-02  8528   0.581E-01 0.697E-04
CGA:  31    -0.388228914692E+03   -0.25739E-02   -0.25541E-02  8528   0.540E-01 0.161E-02
CGA:  32    -0.388230384339E+03   -0.14696E-02   -0.14697E-02  8528   0.207E-01 0.625E-05
CGA:  33    -0.388231028096E+03   -0.64376E-03   -0.64363E-03  8528   0.209E-01-0.188E-05
CGA:  34    -0.388231823188E+03   -0.79509E-03   -0.79470E-03  8528   0.213E-01 0.887E-04
CGA:  35    -0.388232902057E+03   -0.10789E-02   -0.10781E-02  8528   0.151E-01 0.490E-04
CGA:  36    -0.388233257655E+03   -0.35560E-03   -0.35596E-03  8528   0.104E-01 0.175E-05
CGA:  37    -0.388233631138E+03   -0.37348E-03   -0.37349E-03  8528   0.576E-02-0.401E-05
SDA:  38    -0.388233907278E+03   -0.27614E-03   -0.27612E-03  8528   0.883E-02-0.558E-06
CGA:  39    -0.388234039068E+03   -0.13179E-03   -0.13152E-03  8528   0.355E-02 0.119E-04
CGA:  40    -0.388234207148E+03   -0.16808E-03   -0.16818E-03  8528   0.388E-02-0.879E-05
CGA:  41    -0.388234370616E+03   -0.16347E-03   -0.16355E-03  8528   0.346E-02-0.118E-04
CGA:  42    -0.388234662842E+03   -0.29223E-03   -0.29344E-03  8528   0.323E-02-0.255E-04
CGA:  43    -0.388234820621E+03   -0.15778E-03   -0.15781E-03  8528   0.184E-02-0.380E-05
CGA:  44    -0.388234936433E+03   -0.11581E-03   -0.11606E-03  8528   0.569E-02-0.879E-05
CGA:  45    -0.388235085670E+03   -0.14924E-03   -0.14907E-03  8528   0.260E-02 0.869E-05
CGA:  46    -0.388235283582E+03   -0.19791E-03   -0.19739E-03  8528   0.235E-02 0.142E-04
CGA:  47    -0.388235394715E+03   -0.11113E-03   -0.11115E-03  8528   0.174E-02-0.181E-05
CGA:  48    -0.388235425432E+03   -0.30717E-04   -0.30649E-04  8528   0.942E-03 0.169E-05
CGA:  49    -0.388235481143E+03   -0.55711E-04   -0.55815E-04  8528   0.893E-03-0.585E-05
CGA:  50    -0.388235535774E+03   -0.54632E-04   -0.54802E-04  8528   0.116E-02-0.851E-05
CGA:  51    -0.388235572184E+03   -0.36409E-04   -0.36347E-04  8528   0.662E-03-0.501E-05
CGA:  52    -0.388235587012E+03   -0.14828E-04   -0.14804E-04  8528   0.463E-03-0.192E-05
CGA:  53    -0.388235602270E+03   -0.15258E-04   -0.15261E-04  8528   0.257E-03 0.265E-06
CGA:  54    -0.388235652502E+03   -0.50232E-04   -0.48992E-04  8528   0.295E-03 0.819E-05
CGA:  55    -0.388235658243E+03   -0.57410E-05   -0.57673E-05  8528   0.189E-03 0.896E-06
   8 F= -.38823566E+03 E0= -.38820834E+03  d E =-.236069E+00  mag=    14.4027
       N       E                     dE             d eps       ncg     rms          ort
SDA:   1    -0.373283943946E+03    0.14952E+02    0.00000E+00  8528   0.696E+02 0.000E+00
CGA:   2    -0.374843026694E+03   -0.15591E+01   -0.11616E+01  8528   0.480E+02 0.123E+02
CGA:   3    -0.380747904579E+03   -0.59049E+01   -0.55566E+01  8528   0.206E+03 0.704E+01
CGA:   4    -0.384043845978E+03   -0.32959E+01   -0.32503E+01  8528   0.673E+02-0.370E+02
CGA:   5    -0.385675257884E+03   -0.16314E+01   -0.12913E+01  8528   0.196E+02 0.619E+01
CGA:   6    -0.386043919379E+03   -0.36866E+00   -0.32298E+00  8528   0.212E+02 0.203E+01
CGA:   7    -0.386461375586E+03   -0.41746E+00   -0.38363E+00  8528   0.271E+02 0.240E+00
CGA:   8    -0.386832041837E+03   -0.37067E+00   -0.37597E+00  8528   0.351E+02-0.429E+00
CGA:   9    -0.387245819036E+03   -0.41378E+00   -0.45901E+00  8528   0.405E+02-0.304E+01
CGA:  10    -0.387576343162E+03   -0.33052E+00   -0.34359E+00  8528   0.165E+02-0.147E+01
CGA:  11    -0.387732727296E+03   -0.15638E+00   -0.19794E+00  8528   0.173E+02-0.240E+01
CGA:  12    -0.387900719188E+03   -0.16799E+00   -0.17838E+00  8528   0.524E+01-0.645E+00
CGA:  13    -0.387952302444E+03   -0.51583E-01   -0.57326E-01  8528   0.345E+01-0.398E+00
CGA:  14    -0.388003855382E+03   -0.51553E-01   -0.50723E-01  8528   0.241E+01 0.259E-01
CGA:  15    -0.388040909925E+03   -0.37055E-01   -0.37751E-01  8528   0.267E+01-0.277E-01
CGA:  16    -0.388116719546E+03   -0.75810E-01   -0.76057E-01  8528   0.441E+01 0.290E-01
CGA:  17    -0.388179239801E+03   -0.62520E-01   -0.60879E-01  8528   0.275E+01 0.723E-01
CGA:  18    -0.388234490197E+03   -0.55250E-01   -0.55451E-01  8528   0.244E+01-0.245E-02
CGA:  19    -0.388262893191E+03   -0.28403E-01   -0.29296E-01  8528   0.898E+00-0.439E-01
CGA:  20    -0.388276901145E+03   -0.14008E-01   -0.13238E-01  8528   0.579E+00 0.273E-01
CGA:  21    -0.388284695903E+03   -0.77948E-02   -0.77174E-02  8528   0.334E+00 0.366E-02
CGA:  22    -0.388291701811E+03   -0.70059E-02   -0.70481E-02  8528   0.552E+00 0.913E-03
CGA:  23    -0.388304314532E+03   -0.12613E-01   -0.12636E-01  8528   0.581E+00 0.122E-02
CGA:  24    -0.388314406756E+03   -0.10092E-01   -0.10152E-01  8528   0.697E+00 0.895E-04
CGA:  25    -0.388330865009E+03   -0.16458E-01   -0.16452E-01  8528   0.529E+00-0.680E-03
CGA:  26    -0.388336198306E+03   -0.53333E-02   -0.55550E-02  8528   0.139E+00-0.144E-01
CGA:  27    -0.388338935493E+03   -0.27372E-02   -0.27453E-02  8528   0.140E+00 0.292E-03
CGA:  28    -0.388341275105E+03   -0.23396E-02   -0.23428E-02  8528   0.796E-01-0.176E-04
CGA:  29    -0.388343428491E+03   -0.21534E-02   -0.21531E-02  8528   0.132E+00 0.941E-04
CGA:  30    -0.388346103772E+03   -0.26753E-02   -0.26773E-02  8528   0.817E-01 0.120E-03
CGA:  31    -0.388348109520E+03   -0.20057E-02   -0.20062E-02  8528   0.119E+00 0.411E-03
SDA:  32    -0.388350637554E+03   -0.25280E-02   -0.25292E-02  8528   0.565E-01 0.126E-03
CGA:  33    -0.388351766185E+03   -0.11286E-02   -0.11283E-02  8528   0.214E-01-0.173E-04
CGA:  34    -0.388352460021E+03   -0.69384E-03   -0.69369E-03  8528   0.254E-01 0.103E-04
CGA:  35    -0.388353502343E+03   -0.10423E-02   -0.10467E-02  8528   0.197E-01-0.249E-03
CGA:  36    -0.388354425803E+03   -0.92346E-03   -0.92740E-03  8528   0.177E-01-0.176E-03
CGA:  37    -0.388355515944E+03   -0.10901E-02   -0.10818E-02  8528   0.745E-02 0.252E-03
CGA:  38    -0.388355743907E+03   -0.22796E-03   -0.22793E-03  8528   0.101E-01 0.125E-04
CGA:  39    -0.388356108701E+03   -0.36479E-03   -0.36476E-03  8528   0.554E-02 0.699E-05
CGA:  40    -0.388356537618E+03   -0.42892E-03   -0.42644E-03  8528   0.628E-02 0.532E-04
CGA:  41    -0.388357047120E+03   -0.50950E-03   -0.50851E-03  8528   0.537E-02 0.179E-04
CGA:  42    -0.388357185787E+03   -0.13867E-03   -0.13857E-03  8528   0.199E-02 0.338E-05
CGA:  43    -0.388357372682E+03   -0.18690E-03   -0.18730E-03  8528   0.792E-02-0.757E-05
CGA:  44    -0.388357612425E+03   -0.23974E-03   -0.23980E-03  8528   0.695E-02-0.231E-05
CGA:  45    -0.388357891852E+03   -0.27943E-03   -0.27952E-03  8528   0.208E-02-0.175E-04
CGA:  46    -0.388358002495E+03   -0.11064E-03   -0.11073E-03  8528   0.144E-02-0.512E-05
CGA:  47    -0.388358123682E+03   -0.12119E-03   -0.12117E-03  8528   0.160E-02 0.292E-06
CGA:  48    -0.388358202963E+03   -0.79281E-04   -0.79286E-04  8528   0.344E-02-0.294E-06
CGA:  49    -0.388358286361E+03   -0.83398E-04   -0.83382E-04  8528   0.719E-03-0.130E-05
CGA:  50    -0.388358323976E+03   -0.37616E-04   -0.37605E-04  8528   0.997E-03 0.482E-06
CGA:  51    -0.388358372021E+03   -0.48045E-04   -0.48049E-04  8528   0.566E-03-0.679E-06
CGA:  52    -0.388358405107E+03   -0.33086E-04   -0.33118E-04  8528   0.480E-03-0.191E-05
CGA:  53    -0.388358421843E+03   -0.16736E-04   -0.16729E-04  8528   0.363E-03-0.884E-06
CGA:  54    -0.388358428944E+03   -0.71004E-05   -0.70798E-05  8528   0.180E-03-0.961E-06
CGA:  55    -0.388358452179E+03   -0.23235E-04   -0.23562E-04  8528   0.241E-03-0.365E-05
CGA:  56    -0.388358472018E+03   -0.19839E-04   -0.19943E-04  8528   0.265E-03-0.268E-05
CGA:  57    -0.388358480766E+03   -0.87485E-05   -0.87433E-05  8528   0.286E-03-0.312E-06
   9 F= -.38835848E+03 E0= -.38833179E+03  d E =-.122823E+00  mag=    14.3530
       N       E                     dE             d eps       ncg     rms          ort
SDA:   1    -0.376047441396E+03    0.12311E+02    0.00000E+00  8528   0.436E+02 0.000E+00
CGA:   2    -0.377741196281E+03   -0.16938E+01   -0.15961E+01  8528   0.972E+02-0.400E+01
CGA:   3    -0.382839179212E+03   -0.50980E+01   -0.50306E+01  8528   0.119E+03 0.400E+01
CGA:   4    -0.384826417627E+03   -0.19872E+01   -0.18116E+01  8528   0.564E+02 0.441E+01
CGA:   5    -0.386176935396E+03   -0.13505E+01   -0.10806E+01  8528   0.151E+02 0.573E+01
CGA:   6    -0.386431923548E+03   -0.25499E+00   -0.24523E+00  8528   0.166E+02 0.410E+00
CGA:   7    -0.387123446571E+03   -0.69152E+00   -0.69161E+00  8528   0.309E+02 0.192E+00
CGA:   8    -0.387505307615E+03   -0.38186E+00   -0.40344E+00  8528   0.204E+02-0.137E+01
CGA:   9    -0.387901127063E+03   -0.39582E+00   -0.41806E+00  8528   0.164E+02-0.480E+00
CGA:  10    -0.388083184086E+03   -0.18206E+00   -0.20803E+00  8528   0.366E+01-0.120E+01
CGA:  11    -0.388166737780E+03   -0.83554E-01   -0.76560E-01  8528   0.184E+01 0.714E-01
CGA:  12    -0.388196082268E+03   -0.29344E-01   -0.30168E-01  8528   0.135E+01-0.335E-01
CGA:  13    -0.388263824495E+03   -0.67742E-01   -0.67426E-01  8528   0.271E+01 0.167E-01
CGA:  14    -0.388318261130E+03   -0.54437E-01   -0.55293E-01  8528   0.181E+01-0.109E-01
CGA:  15    -0.388358728542E+03   -0.40467E-01   -0.41000E-01  8528   0.483E+00-0.934E-03
CGA:  16    -0.388367742823E+03   -0.90143E-02   -0.93154E-02  8528   0.312E+00-0.606E-02
CGA:  17    -0.388375079922E+03   -0.73371E-02   -0.73745E-02  8528   0.164E+00 0.332E-03
CGA:  18    -0.388382413822E+03   -0.73339E-02   -0.73281E-02  8528   0.308E+00 0.369E-03
CGA:  19    -0.388391397301E+03   -0.89835E-02   -0.89908E-02  8528   0.284E+00 0.415E-03
CGA:  20    -0.388400395745E+03   -0.89984E-02   -0.90008E-02  8528   0.137E+00 0.380E-03
CGA:  21    -0.388403290376E+03   -0.28946E-02   -0.28944E-02  8528   0.605E-01 0.593E-05
CGA:  22    -0.388404537581E+03   -0.12472E-02   -0.12557E-02  8528   0.332E-01-0.640E-04
CGA:  23    -0.388406832090E+03   -0.22945E-02   -0.22685E-02  8528   0.693E-01 0.726E-03
CGA:  24    -0.388408761708E+03   -0.19296E-02   -0.19288E-02  8528   0.601E-01 0.108E-04
CGA:  25    -0.388410439060E+03   -0.16774E-02   -0.16786E-02  8528   0.235E-01 0.793E-04
CGA:  26    -0.388411323435E+03   -0.88438E-03   -0.88398E-03  8528   0.237E-01 0.620E-04
CGA:  27    -0.388411872415E+03   -0.54898E-03   -0.54901E-03  8528   0.162E-01 0.273E-05
CGA:  28    -0.388412809639E+03   -0.93722E-03   -0.93216E-03  8528   0.282E-01 0.191E-03
CGA:  29    -0.388413948655E+03   -0.11390E-02   -0.11387E-02  8528   0.294E-01 0.210E-04
CGA:  30    -0.388414526570E+03   -0.57792E-03   -0.57826E-03  8528   0.901E-02-0.199E-04
CGA:  31    -0.388414804258E+03   -0.27769E-03   -0.27763E-03  8528   0.638E-02-0.967E-05
SDA:  32    -0.388415114692E+03   -0.31043E-03   -0.31007E-03  8528   0.122E-01 0.208E-04
CGA:  33    -0.388415303124E+03   -0.18843E-03   -0.18788E-03  8528   0.378E-02 0.295E-04
CGA:  34    -0.388415489528E+03   -0.18640E-03   -0.18621E-03  8528   0.485E-02 0.111E-04
CGA:  35    -0.388415847250E+03   -0.35772E-03   -0.35654E-03  8528   0.509E-02 0.303E-04
CGA:  36    -0.388416088820E+03   -0.24157E-03   -0.24139E-03  8528   0.442E-02 0.144E-04
CGA:  37    -0.388416295468E+03   -0.20665E-03   -0.20660E-03  8528   0.142E-02 0.507E-05
CGA:  38    -0.388416411385E+03   -0.11592E-03   -0.11617E-03  8528   0.279E-02-0.605E-05
CGA:  39    -0.388416496132E+03   -0.84747E-04   -0.84731E-04  8528   0.316E-02-0.447E-05
CGA:  40    -0.388416651554E+03   -0.15542E-03   -0.15552E-03  8528   0.902E-03-0.963E-05
CGA:  41    -0.388416750725E+03   -0.99171E-04   -0.99024E-04  8528   0.795E-03 0.188E-05
CGA:  42    -0.388416832205E+03   -0.81480E-04   -0.81201E-04  8528   0.177E-02 0.449E-05
CGA:  43    -0.388416882914E+03   -0.50709E-04   -0.50725E-04  8528   0.102E-02 0.360E-05
CGA:  44    -0.388416906647E+03   -0.23733E-04   -0.23742E-04  8528   0.372E-03 0.836E-06
CGA:  45    -0.388416942833E+03   -0.36185E-04   -0.36227E-04  8528   0.936E-03-0.947E-06
CGA:  46    -0.388416977790E+03   -0.34957E-04   -0.34931E-04  8528   0.235E-03-0.213E-05
CGA:  47    -0.388416998525E+03   -0.20735E-04   -0.20754E-04  8528   0.308E-03-0.579E-06
CGA:  48    -0.388417014294E+03   -0.15769E-04   -0.15769E-04  8528   0.531E-03-0.118E-06
CGA:  49    -0.388417026943E+03   -0.12649E-04   -0.12657E-04  8528   0.161E-03 0.282E-06
CGA:  50    -0.388417041543E+03   -0.14599E-04   -0.14590E-04  8528   0.124E-03 0.495E-07
CGA:  51    -0.388417049272E+03   -0.77297E-05   -0.77224E-05  8528   0.108E-03 0.426E-06
  10 F= -.38841705E+03 E0= -.38839260E+03  d E =-.585685E-01  mag=    14.3290
       N       E                     dE             d eps       ncg     rms          ort
SDA:   1    -0.374868404223E+03    0.13549E+02    0.00000E+00  8528   0.478E+02 0.000E+00
CGA:   2    -0.377046695144E+03   -0.21783E+01   -0.21363E+01  8528   0.116E+03-0.311E+01
CGA:   3    -0.383281585559E+03   -0.62349E+01   -0.62680E+01  8528   0.782E+02-0.265E+01
CGA:   4    -0.385010872885E+03   -0.17293E+01   -0.16555E+01  8528   0.387E+02 0.515E+01
CGA:   5    -0.385756400307E+03   -0.74553E+00   -0.58716E+00  8528   0.182E+02 0.910E+01
CGA:   6    -0.386473153671E+03   -0.71675E+00   -0.67752E+00  8528   0.259E+02 0.928E-01
CGA:   7    -0.386876437994E+03   -0.40328E+00   -0.46009E+00  8528   0.240E+02-0.210E+01
CGA:   8    -0.387383767437E+03   -0.50733E+00   -0.53647E+00  8528   0.241E+02-0.399E+00
CGA:   9    -0.387740100166E+03   -0.35633E+00   -0.38632E+00  8528   0.956E+01-0.135E+01
CGA:  10    -0.388029192194E+03   -0.28909E+00   -0.22233E+00  8528   0.603E+01 0.169E+01
CGA:  11    -0.388111178380E+03   -0.81986E-01   -0.65074E-01  8528   0.246E+01 0.160E+01
CGA:  12    -0.388153803644E+03   -0.42625E-01   -0.43395E-01  8528   0.201E+01-0.533E-01
CGA:  13    -0.388183053776E+03   -0.29250E-01   -0.28785E-01  8528   0.234E+01 0.192E-01
CGA:  14    -0.388223719955E+03   -0.40666E-01   -0.42705E-01  8528   0.342E+01-0.570E-01
CGA:  15    -0.388281823435E+03   -0.58103E-01   -0.59930E-01  8528   0.366E+01-0.454E-01
CGA:  16    -0.388324908583E+03   -0.43085E-01   -0.44269E-01  8528   0.151E+01-0.718E-01
CGA:  17    -0.388344668294E+03   -0.19760E-01   -0.20320E-01  8528   0.115E+01-0.283E-01
CGA:  18    -0.388361913358E+03   -0.17245E-01   -0.17120E-01  8528   0.635E+00 0.505E-02
CGA:  19    -0.388369242689E+03   -0.73293E-02   -0.75490E-02  8528   0.304E+00-0.128E-01
CGA:  20    -0.388374615182E+03   -0.53725E-02   -0.54749E-02  8528   0.306E+00-0.154E-02
CGA:  21    -0.388380646724E+03   -0.60315E-02   -0.60983E-02  8528   0.320E+00-0.248E-03
CGA:  22    -0.388389266623E+03   -0.86199E-02   -0.86294E-02  8528   0.498E+00 0.979E-03
CGA:  23    -0.388399116000E+03   -0.98494E-02   -0.98578E-02  8528   0.325E+00-0.127E-03
CGA:  24    -0.388404430143E+03   -0.53141E-02   -0.52945E-02  8528   0.200E+00 0.422E-03
CGA:  25    -0.388407819909E+03   -0.33898E-02   -0.33572E-02  8528   0.124E+00 0.513E-03
CGA:  26    -0.388410079684E+03   -0.22598E-02   -0.22644E-02  8528   0.987E-01-0.329E-04
CGA:  27    -0.388411902142E+03   -0.18225E-02   -0.18325E-02  8528   0.651E-01 0.165E-04
CGA:  28    -0.388413133386E+03   -0.12312E-02   -0.12315E-02  8528   0.618E-01 0.299E-04
CGA:  29    -0.388414777836E+03   -0.16445E-02   -0.16447E-02  8528   0.693E-01 0.469E-03
CGA:  30    -0.388416088812E+03   -0.13110E-02   -0.13155E-02  8528   0.550E-01 0.766E-04
CGA:  31    -0.388417526454E+03   -0.14376E-02   -0.14377E-02  8528   0.543E-01 0.148E-03
SDA:  32    -0.388418411234E+03   -0.88478E-03   -0.88514E-03  8528   0.274E-01 0.295E-04
CGA:  33    -0.388419443078E+03   -0.10318E-02   -0.10322E-02  8528   0.122E-01-0.281E-04
CGA:  34    -0.388420364890E+03   -0.92181E-03   -0.92272E-03  8528   0.103E-01-0.191E-04
CGA:  35    -0.388420872796E+03   -0.50791E-03   -0.50781E-03  8528   0.137E-01 0.191E-05
CGA:  36    -0.388421551229E+03   -0.67843E-03   -0.67825E-03  8528   0.135E-01 0.668E-05
CGA:  37    -0.388421912512E+03   -0.36128E-03   -0.36152E-03  8528   0.726E-02 0.193E-04
CGA:  38    -0.388422292732E+03   -0.38022E-03   -0.37972E-03  8528   0.285E-02 0.221E-04
CGA:  39    -0.388422575011E+03   -0.28228E-03   -0.27911E-03  8528   0.336E-02 0.510E-04
CGA:  40    -0.388422764790E+03   -0.18978E-03   -0.18956E-03  8528   0.493E-02 0.117E-04
CGA:  41    -0.388422945338E+03   -0.18055E-03   -0.18054E-03  8528   0.500E-02 0.210E-04
CGA:  42    -0.388423146329E+03   -0.20099E-03   -0.20100E-03  8528   0.122E-02 0.488E-05
CGA:  43    -0.388423248042E+03   -0.10171E-03   -0.10181E-03  8528   0.127E-02-0.201E-05
CGA:  44    -0.388423377888E+03   -0.12985E-03   -0.13060E-03  8528   0.169E-02-0.118E-04
CGA:  45    -0.388423425276E+03   -0.47388E-04   -0.47328E-04  8528   0.118E-02-0.528E-05
CGA:  46    -0.388423468660E+03   -0.43384E-04   -0.43373E-04  8528   0.651E-03-0.285E-05
CGA:  47    -0.388423497005E+03   -0.28344E-04   -0.28342E-04  8528   0.675E-03 0.402E-06
CGA:  48    -0.388423564212E+03   -0.67207E-04   -0.66854E-04  8528   0.733E-03 0.605E-05
CGA:  49    -0.388423595553E+03   -0.31341E-04   -0.31346E-04  8528   0.260E-03 0.212E-05
CGA:  50    -0.388423614087E+03   -0.18533E-04   -0.18492E-04  8528   0.524E-03 0.143E-05
CGA:  51    -0.388423628630E+03   -0.14543E-04   -0.14557E-04  8528   0.309E-03 0.414E-06
CGA:  52    -0.388423658929E+03   -0.30299E-04   -0.30296E-04  8528   0.136E-03 0.910E-08
CGA:  53    -0.388423665032E+03   -0.61032E-05   -0.61036E-05  8528   0.186E-03 0.135E-06
CGA:  54    -0.388423679560E+03   -0.14527E-04   -0.14506E-04  8528   0.433E-03 0.677E-06
CGA:  55    -0.388423693767E+03   -0.14207E-04   -0.14207E-04  8528   0.232E-03-0.915E-07
CGA:  56    -0.388423704165E+03   -0.10398E-04   -0.10398E-04  8528   0.149E-03 0.298E-07
CGA:  57    -0.388423711644E+03   -0.74791E-05   -0.74778E-05  8528   0.866E-04 0.302E-06
  11 F= -.38842371E+03 E0= -.38840158E+03  d E =-.666237E-02  mag=    14.3084
       N       E                     dE             d eps       ncg     rms          ort
SDA:   1    -0.384444204278E+03    0.39795E+01    0.00000E+00  8528   0.175E+02 0.000E+00
CGA:   2    -0.384963345809E+03   -0.51914E+00   -0.46748E+00  8528   0.189E+02 0.734E+00
CGA:   3    -0.386765824988E+03   -0.18025E+01   -0.18208E+01  8528   0.292E+02-0.333E+00
CGA:   4    -0.387682287131E+03   -0.91646E+00   -0.88882E+00  8528   0.742E+01 0.313E+00
CGA:   5    -0.387819776675E+03   -0.13749E+00   -0.13237E+00  8528   0.362E+01 0.146E+00
CGA:   6    -0.388214612171E+03   -0.39484E+00   -0.39739E+00  8528   0.678E+01-0.421E-01
CGA:   7    -0.388320743573E+03   -0.10613E+00   -0.11682E+00  8528   0.232E+01-0.479E+00
CGA:   8    -0.388389018901E+03   -0.68275E-01   -0.65353E-01  8528   0.449E+00 0.204E-01
CGA:   9    -0.388410836273E+03   -0.21817E-01   -0.21816E-01  8528   0.641E+00-0.149E-02
CGA:  10    -0.388432010831E+03   -0.21175E-01   -0.21358E-01  8528   0.515E+00 0.631E-03
CGA:  11    -0.388448308640E+03   -0.16298E-01   -0.16120E-01  8528   0.287E+00 0.253E-03
CGA:  12    -0.388459477557E+03   -0.11169E-01   -0.11171E-01  8528   0.103E+00 0.187E-03
CGA:  13    -0.388461585379E+03   -0.21078E-02   -0.21275E-02  8528   0.605E-01-0.578E-03
CGA:  14    -0.388465576116E+03   -0.39907E-02   -0.39686E-02  8528   0.564E-01 0.861E-03
CGA:  15    -0.388468111918E+03   -0.25358E-02   -0.25353E-02  8528   0.493E-01-0.110E-03
CGA:  16    -0.388469477367E+03   -0.13654E-02   -0.13715E-02  8528   0.366E-01-0.739E-04
CGA:  17    -0.388470885645E+03   -0.14083E-02   -0.14095E-02  8528   0.115E-01 0.408E-04
CGA:  18    -0.388471528764E+03   -0.64312E-03   -0.64358E-03  8528   0.157E-01-0.291E-04
CGA:  19    -0.388471914454E+03   -0.38569E-03   -0.38771E-03  8528   0.781E-02-0.342E-04
CGA:  20    -0.388472333387E+03   -0.41893E-03   -0.41888E-03  8528   0.865E-02 0.204E-05
CGA:  21    -0.388472814533E+03   -0.48115E-03   -0.48091E-03  8528   0.105E-01 0.176E-04
CGA:  22    -0.388473163252E+03   -0.34872E-03   -0.34928E-03  8528   0.701E-02 0.844E-05
CGA:  23    -0.388473334328E+03   -0.17108E-03   -0.17111E-03  8528   0.249E-02-0.807E-06
CGA:  24    -0.388473612172E+03   -0.27784E-03   -0.27798E-03  8528   0.499E-02-0.148E-05
CGA:  25    -0.388473758836E+03   -0.14666E-03   -0.14677E-03  8528   0.459E-02-0.560E-05
CGA:  26    -0.388473956379E+03   -0.19754E-03   -0.19756E-03  8528   0.257E-02 0.300E-06
CGA:  27    -0.388474075017E+03   -0.11864E-03   -0.11864E-03  8528   0.144E-02 0.158E-05
CGA:  28    -0.388474120182E+03   -0.45165E-04   -0.45210E-04  8528   0.159E-02 0.849E-06
CGA:  29    -0.388474203874E+03   -0.83693E-04   -0.83667E-04  8528   0.139E-02 0.388E-05
CGA:  30    -0.388474270595E+03   -0.66721E-04   -0.66707E-04  8528   0.118E-02 0.562E-05
CGA:  31    -0.388474319335E+03   -0.48740E-04   -0.48758E-04  8528   0.719E-03 0.229E-05
SDA:  32    -0.388474335935E+03   -0.16600E-04   -0.16603E-04  8528   0.392E-03-0.594E-07
CGA:  33    -0.388474347825E+03   -0.11890E-04   -0.11875E-04  8528   0.409E-03-0.172E-05
CGA:  34    -0.388474372658E+03   -0.24833E-04   -0.24899E-04  8528   0.549E-03-0.408E-05
CGA:  35    -0.388474394018E+03   -0.21360E-04   -0.21340E-04  8528   0.334E-03-0.385E-05
CGA:  36    -0.388474413610E+03   -0.19592E-04   -0.19619E-04  8528   0.188E-03-0.226E-05
CGA:  37    -0.388474425001E+03   -0.11391E-04   -0.11378E-04  8528   0.163E-03 0.484E-06
CGA:  38    -0.388474437318E+03   -0.12317E-04   -0.12266E-04  8528   0.204E-03 0.136E-05
CGA:  39    -0.388474443539E+03   -0.62211E-05   -0.62402E-05  8528   0.175E-03 0.100E-05
  12 F= -.38847444E+03 E0= -.38845318E+03  d E =-.507319E-01  mag=    14.2987
       N       E                     dE             d eps       ncg     rms          ort
SDA:   1    -0.370154836435E+03    0.18320E+02    0.00000E+00  8528   0.752E+02 0.000E+00
CGA:   2    -0.373558500864E+03   -0.34037E+01   -0.33591E+01  8528   0.124E+03-0.113E+02
CGA:   3    -0.379869917517E+03   -0.63114E+01   -0.62270E+01  8528   0.156E+03 0.501E+01
CGA:   4    -0.383813171053E+03   -0.39433E+01   -0.33358E+01  8528   0.435E+02 0.343E+02
CGA:   5    -0.384791669086E+03   -0.97850E+00   -0.10959E+01  8528   0.392E+02-0.720E+01
CGA:   6    -0.385472154475E+03   -0.68049E+00   -0.71013E+00  8528   0.373E+02-0.623E+00
CGA:   7    -0.386414704212E+03   -0.94255E+00   -0.88116E+00  8528   0.390E+02 0.109E+01
CGA:   8    -0.387128586951E+03   -0.71388E+00   -0.75160E+00  8528   0.256E+02-0.133E+01
CGA:   9    -0.387611381813E+03   -0.48279E+00   -0.49131E+00  8528   0.154E+02 0.325E+00
CGA:  10    -0.387922583328E+03   -0.31120E+00   -0.30409E+00  8528   0.936E+01 0.406E+00
CGA:  11    -0.388075396114E+03   -0.15281E+00   -0.14396E+00  8528   0.262E+01 0.409E+00
CGA:  12    -0.388124019202E+03   -0.48623E-01   -0.50213E-01  8528   0.224E+01-0.394E-01
CGA:  13    -0.388217542149E+03   -0.93523E-01   -0.93173E-01  8528   0.374E+01 0.407E-01
CGA:  14    -0.388290278062E+03   -0.72736E-01   -0.73772E-01  8528   0.191E+01-0.105E-01
CGA:  15    -0.388339556552E+03   -0.49278E-01   -0.49188E-01  8528   0.160E+01 0.168E-02
CGA:  16    -0.388372960099E+03   -0.33404E-01   -0.33617E-01  8528   0.757E+00-0.177E-02
CGA:  17    -0.388389144221E+03   -0.16184E-01   -0.16865E-01  8528   0.408E+00-0.190E-02
CGA:  18    -0.388398803736E+03   -0.96595E-02   -0.98770E-02  8528   0.213E+00 0.190E-02
CGA:  19    -0.388407821338E+03   -0.90176E-02   -0.90682E-02  8528   0.407E+00-0.395E-02
CGA:  20    -0.388421365486E+03   -0.13544E-01   -0.13545E-01  8528   0.272E+00 0.618E-03
CGA:  21    -0.388427827551E+03   -0.64621E-02   -0.66124E-02  8528   0.163E+00 0.157E-02
CGA:  22    -0.388432406699E+03   -0.45791E-02   -0.45769E-02  8528   0.998E-01-0.109E-03
CGA:  23    -0.388434793308E+03   -0.23866E-02   -0.23991E-02  8528   0.511E-01 0.148E-03
CGA:  24    -0.388436964692E+03   -0.21714E-02   -0.21632E-02  8528   0.582E-01 0.633E-03
CGA:  25    -0.388439265588E+03   -0.23009E-02   -0.23028E-02  8528   0.856E-01-0.227E-03
CGA:  26    -0.388442629323E+03   -0.33637E-02   -0.33576E-02  8528   0.542E-01 0.714E-03
CGA:  27    -0.388443952269E+03   -0.13229E-02   -0.13308E-02  8528   0.278E-01 0.983E-04
CGA:  28    -0.388445061944E+03   -0.11097E-02   -0.11089E-02  8528   0.317E-01 0.893E-04
CGA:  29    -0.388445979579E+03   -0.91763E-03   -0.91882E-03  8528   0.208E-01 0.788E-04
CGA:  30    -0.388447096828E+03   -0.11172E-02   -0.11176E-02  8528   0.308E-01-0.198E-04
CGA:  31    -0.388448057433E+03   -0.96061E-03   -0.96033E-03  8528   0.234E-01-0.271E-04
SDA:  32    -0.388448757738E+03   -0.70030E-03   -0.70075E-03  8528   0.134E-01 0.398E-04
CGA:  33    -0.388449089801E+03   -0.33206E-03   -0.33247E-03  8528   0.442E-02 0.720E-05
CGA:  34    -0.388449408436E+03   -0.31864E-03   -0.31627E-03  8528   0.628E-02 0.628E-04
CGA:  35    -0.388449650958E+03   -0.24252E-03   -0.24252E-03  8528   0.914E-02 0.569E-05
CGA:  36    -0.388450149759E+03   -0.49880E-03   -0.49911E-03  8528   0.259E-02-0.126E-04
CGA:  37    -0.388450389173E+03   -0.23941E-03   -0.23969E-03  8528   0.331E-02-0.503E-05
CGA:  38    -0.388450580700E+03   -0.19153E-03   -0.19171E-03  8528   0.250E-02-0.986E-05
CGA:  39    -0.388450682767E+03   -0.10207E-03   -0.10207E-03  8528   0.292E-02-0.341E-05
CGA:  40    -0.388450776453E+03   -0.93686E-04   -0.93590E-04  8528   0.161E-02-0.519E-05
CGA:  41    -0.388450868705E+03   -0.92252E-04   -0.92342E-04  8528   0.183E-02-0.470E-05
CGA:  42    -0.388450968765E+03   -0.10006E-03   -0.10001E-03  8528   0.109E-02 0.423E-05
CGA:  43    -0.388451033035E+03   -0.64270E-04   -0.64167E-04  8528   0.774E-03 0.549E-05
CGA:  44    -0.388451089669E+03   -0.56634E-04   -0.56626E-04  8528   0.544E-03 0.247E-06
CGA:  45    -0.388451110461E+03   -0.20792E-04   -0.20790E-04  8528   0.869E-03-0.612E-06
CGA:  46    -0.388451155900E+03   -0.45439E-04   -0.45460E-04  8528   0.361E-03-0.229E-05
CGA:  47    -0.388451176372E+03   -0.20472E-04   -0.20486E-04  8528   0.331E-03-0.142E-05
CGA:  48    -0.388451193138E+03   -0.16766E-04   -0.16781E-04  8528   0.312E-03-0.222E-05
CGA:  49    -0.388451212770E+03   -0.19632E-04   -0.19620E-04  8528   0.407E-03 0.428E-06
CGA:  50    -0.388451223979E+03   -0.11209E-04   -0.11224E-04  8528   0.268E-03 0.948E-06
CGA:  51    -0.388451236940E+03   -0.12961E-04   -0.12956E-04  8528   0.898E-04 0.134E-05
CGA:  52    -0.388451245200E+03   -0.82606E-05   -0.81783E-05  8528   0.129E-03 0.168E-05
  13 F= -.38845125E+03 E0= -.38842964E+03  d E =0.231983E-01  mag=    14.2918
       N       E                     dE             d eps       ncg     rms          ort
SDA:   1    -0.385174359487E+03    0.32769E+01    0.00000E+00  8528   0.109E+02 0.000E+00
CGA:   2    -0.386195618326E+03   -0.10213E+01   -0.10470E+01  8528   0.348E+02-0.760E+00
CGA:   3    -0.387130382663E+03   -0.93476E+00   -0.10049E+01  8528   0.167E+02-0.227E+00
CGA:   4    -0.387544822823E+03   -0.41444E+00   -0.37787E+00  8528   0.838E+01 0.846E+00
CGA:   5    -0.387994022266E+03   -0.44920E+00   -0.44959E+00  8528   0.361E+01-0.683E-01
CGA:   6    -0.388196978391E+03   -0.20296E+00   -0.20211E+00  8528   0.397E+01 0.543E-01
CGA:   7    -0.388370903185E+03   -0.17392E+00   -0.17356E+00  8528   0.221E+01-0.273E-01
CGA:   8    -0.388410756805E+03   -0.39854E-01   -0.45982E-01  8528   0.831E+00-0.177E+00
CGA:   9    -0.388434896406E+03   -0.24140E-01   -0.23684E-01  8528   0.393E+00 0.852E-04
CGA:  10    -0.388457596186E+03   -0.22700E-01   -0.22698E-01  8528   0.276E+00 0.120E-03
CGA:  11    -0.388469391754E+03   -0.11796E-01   -0.11828E-01  8528   0.316E+00 0.386E-02
CGA:  12    -0.388478270960E+03   -0.88792E-02   -0.88515E-02  8528   0.172E+00 0.261E-03
CGA:  13    -0.388484942569E+03   -0.66716E-02   -0.66679E-02  8528   0.487E-01-0.173E-03
CGA:  14    -0.388486592877E+03   -0.16503E-02   -0.16534E-02  8528   0.299E-01 0.544E-04
CGA:  15    -0.388489177046E+03   -0.25842E-02   -0.25827E-02  8528   0.471E-01 0.324E-04
CGA:  16    -0.388490416857E+03   -0.12398E-02   -0.12467E-02  8528   0.330E-01-0.857E-04
CGA:  17    -0.388491651992E+03   -0.12351E-02   -0.12340E-02  8528   0.910E-02-0.354E-04
CGA:  18    -0.388492155304E+03   -0.50331E-03   -0.50249E-03  8528   0.648E-02 0.571E-04
CGA:  19    -0.388492527749E+03   -0.37245E-03   -0.37221E-03  8528   0.951E-02 0.156E-04
CGA:  20    -0.388493013077E+03   -0.48533E-03   -0.48546E-03  8528   0.944E-02-0.136E-04
CGA:  21    -0.388493239281E+03   -0.22620E-03   -0.22722E-03  8528   0.483E-02-0.169E-04
CGA:  22    -0.388493536599E+03   -0.29732E-03   -0.29713E-03  8528   0.187E-02 0.979E-05
CGA:  23    -0.388493650155E+03   -0.11356E-03   -0.11366E-03  8528   0.263E-02-0.595E-05
CGA:  24    -0.388493839842E+03   -0.18969E-03   -0.18955E-03  8528   0.513E-02 0.422E-05
CGA:  25    -0.388493959709E+03   -0.11987E-03   -0.11994E-03  8528   0.136E-02-0.932E-06
CGA:  26    -0.388494014375E+03   -0.54666E-04   -0.54687E-04  8528   0.100E-02 0.136E-05
CGA:  27    -0.388494064066E+03   -0.49691E-04   -0.49679E-04  8528   0.566E-03 0.264E-05
CGA:  28    -0.388494116924E+03   -0.52858E-04   -0.52843E-04  8528   0.875E-03 0.256E-06
CGA:  29    -0.388494146015E+03   -0.29091E-04   -0.29111E-04  8528   0.761E-03 0.103E-05
CGA:  30    -0.388494166737E+03   -0.20722E-04   -0.20716E-04  8528   0.199E-03 0.193E-05
CGA:  31    -0.388494188818E+03   -0.22081E-04   -0.22017E-04  8528   0.461E-03 0.919E-06
SDA:  32    -0.388494206723E+03   -0.17906E-04   -0.17895E-04  8528   0.173E-03-0.889E-06
CGA:  33    -0.388494213358E+03   -0.66351E-05   -0.66321E-05  8528   0.146E-03-0.406E-06
  14 F= -.38849421E+03 E0= -.38847293E+03  d E =-.429682E-01  mag=    14.2788
       N       E                     dE             d eps       ncg     rms          ort
SDA:   1    -0.387038690822E+03    0.14555E+01    0.00000E+00  8528   0.402E+01 0.000E+00
CGA:   2    -0.387522919541E+03   -0.48423E+00   -0.45760E+00  8528   0.146E+02 0.440E+00
CGA:   3    -0.387995080890E+03   -0.47216E+00   -0.44702E+00  8528   0.792E+01 0.354E+00
CGA:   4    -0.388233619743E+03   -0.23854E+00   -0.23406E+00  8528   0.139E+01 0.479E-01
CGA:   5    -0.388353182070E+03   -0.11956E+00   -0.11961E+00  8528   0.215E+01-0.856E-03
CGA:   6    -0.388410727457E+03   -0.57545E-01   -0.58943E-01  8528   0.132E+01-0.240E-01
CGA:   7    -0.388450873984E+03   -0.40147E-01   -0.39527E-01  8528   0.502E+00 0.419E-02
CGA:   8    -0.388469363198E+03   -0.18489E-01   -0.18621E-01  8528   0.169E+00 0.183E-02
CGA:   9    -0.388476973095E+03   -0.76099E-02   -0.75730E-02  8528   0.119E+00-0.382E-02
CGA:  10    -0.388483993312E+03   -0.70202E-02   -0.69942E-02  8528   0.188E+00 0.154E-02
CGA:  11    -0.388488267585E+03   -0.42743E-02   -0.42521E-02  8528   0.375E-01 0.589E-03
CGA:  12    -0.388489807926E+03   -0.15403E-02   -0.15426E-02  8528   0.172E-01 0.118E-03
CGA:  13    -0.388490805659E+03   -0.99773E-03   -0.99865E-03  8528   0.236E-01-0.559E-04
CGA:  14    -0.388491559602E+03   -0.75394E-03   -0.75628E-03  8528   0.163E-01-0.479E-06
CGA:  15    -0.388492133623E+03   -0.57402E-03   -0.57143E-03  8528   0.925E-02-0.397E-04
CGA:  16    -0.388492544550E+03   -0.41093E-03   -0.41104E-03  8528   0.359E-02 0.246E-04
CGA:  17    -0.388492697224E+03   -0.15267E-03   -0.15264E-03  8528   0.349E-02-0.474E-05
CGA:  18    -0.388492811428E+03   -0.11420E-03   -0.11430E-03  8528   0.333E-02-0.882E-06
CGA:  19    -0.388493018785E+03   -0.20736E-03   -0.20742E-03  8528   0.217E-02-0.351E-05
CGA:  20    -0.388493134044E+03   -0.11526E-03   -0.11528E-03  8528   0.202E-02-0.267E-05
CGA:  21    -0.388493198639E+03   -0.64595E-04   -0.64561E-04  8528   0.142E-02-0.889E-06
CGA:  22    -0.388493246301E+03   -0.47663E-04   -0.47689E-04  8528   0.989E-03-0.772E-06
CGA:  23    -0.388493307530E+03   -0.61229E-04   -0.61338E-04  8528   0.126E-02-0.600E-05
CGA:  24    -0.388493390539E+03   -0.83008E-04   -0.83031E-04  8528   0.976E-03-0.160E-05
CGA:  25    -0.388493411981E+03   -0.21442E-04   -0.21360E-04  8528   0.427E-03 0.555E-06
CGA:  26    -0.388493430013E+03   -0.18032E-04   -0.18028E-04  8528   0.351E-03-0.690E-06
CGA:  27    -0.388493468272E+03   -0.38259E-04   -0.37951E-04  8528   0.447E-03 0.495E-05
CGA:  28    -0.388493479975E+03   -0.11703E-04   -0.11724E-04  8528   0.198E-03 0.525E-06
CGA:  29    -0.388493487082E+03   -0.71070E-05   -0.70988E-05  8528   0.215E-03-0.428E-06
CGA:  30    -0.388493500038E+03   -0.12956E-04   -0.12966E-04  8528   0.172E-03-0.764E-06
CGA:  31    -0.388493508038E+03   -0.80003E-05   -0.79986E-05  8528   0.113E-03-0.125E-05
  15 F= -.38849351E+03 E0= -.38847195E+03  d E =0.705320E-03  mag=    14.2668
       N       E                     dE             d eps       ncg     rms          ort
SDA:   1    -0.348285574134E+03    0.40208E+02    0.00000E+00  8528   0.134E+03 0.000E+00
CGA:   2    -0.353667147818E+03   -0.53816E+01   -0.42784E+01  8528   0.256E+03-0.127E+01
CGA:   3    -0.369776178728E+03   -0.16109E+02   -0.15469E+02  8528   0.532E+03 0.365E+02
CGA:   4    -0.373229944281E+03   -0.34538E+01   -0.96320E+01  8528   0.494E+03-0.220E+03
CGA:   5    -0.378847721722E+03   -0.56178E+01   -0.41163E+01  8528   0.196E+03 0.246E+02
CGA:   6    -0.380279623187E+03   -0.14319E+01   -0.15235E+01  8528   0.607E+02-0.201E+02
CGA:   7    -0.380903641438E+03   -0.62402E+00   -0.45885E+00  8528   0.666E+02 0.160E+02
CGA:   8    -0.381907969857E+03   -0.10043E+01   -0.10956E+01  8528   0.113E+03-0.129E+02
CGA:   9    -0.382256441942E+03   -0.34847E+00   -0.95826E+00  8528   0.201E+03-0.460E+02
CGA:  10    -0.382996733128E+03   -0.74029E+00   -0.10195E+01  8528   0.226E+03-0.158E+02
CGA:  11    -0.384700612085E+03   -0.17039E+01   -0.16229E+01  8528   0.103E+03 0.672E+01
CGA:  12    -0.385230292335E+03   -0.52968E+00   -0.95152E+00  8528   0.654E+02-0.503E+02
CGA:  13    -0.385436658605E+03   -0.20637E+00   -0.14445E+00  8528   0.601E+02 0.140E+02
CGA:  14    -0.385989767853E+03   -0.55311E+00   -0.37844E+00  8528   0.320E+02 0.243E+02
CGA:  15    -0.386185730419E+03   -0.19596E+00   -0.22877E+00  8528   0.211E+02-0.115E+02
CGA:  16    -0.386219238539E+03   -0.33508E-01   -0.34901E-01  8528   0.221E+02-0.619E+00
CGA:  17    -0.386295177574E+03   -0.75939E-01   -0.75251E-01  8528   0.244E+02 0.445E-01
CGA:  18    -0.386386505091E+03   -0.91328E-01   -0.10750E+00  8528   0.334E+02-0.342E+01
CGA:  19    -0.386488196003E+03   -0.10169E+00   -0.10498E+00  8528   0.406E+02-0.296E+00
CGA:  20    -0.386624409561E+03   -0.13621E+00   -0.12658E+00  8528   0.339E+02 0.257E+01
CGA:  21    -0.386728883282E+03   -0.10447E+00   -0.10466E+00  8528   0.267E+02-0.346E+00
CGA:  22    -0.386806914429E+03   -0.78031E-01   -0.94397E-01  8528   0.320E+02-0.446E+01
CGA:  23    -0.386879427523E+03   -0.72513E-01   -0.11744E+00  8528   0.515E+02-0.926E+01
CGA:  24    -0.386963005099E+03   -0.83578E-01   -0.14225E+00  8528   0.613E+02-0.129E+02
CGA:  25    -0.387077476636E+03   -0.11447E+00   -0.15904E+00  8528   0.505E+02-0.108E+02
CGA:  26    -0.387198382455E+03   -0.12091E+00   -0.16684E+00  8528   0.389E+02-0.104E+02
CGA:  27    -0.387302665280E+03   -0.10428E+00   -0.11953E+00  8528   0.315E+02-0.377E+01
CGA:  28    -0.387405501832E+03   -0.10284E+00   -0.11368E+00  8528   0.237E+02-0.253E+01
CGA:  29    -0.387487272403E+03   -0.81771E-01   -0.95889E-01  8528   0.172E+02-0.261E+01
CGA:  30    -0.387551201636E+03   -0.63929E-01   -0.65579E-01  8528   0.117E+02-0.255E+00
CGA:  31    -0.387602250304E+03   -0.51049E-01   -0.48111E-01  8528   0.788E+01 0.599E+00
SDA:  32    -0.387640876470E+03   -0.38626E-01   -0.37654E-01  8528   0.614E+01 0.175E+00
CGA:  33    -0.387764124575E+03   -0.12325E+00   -0.12088E+00  8528   0.500E+01 0.358E+00
CGA:  34    -0.387989929256E+03   -0.22580E+00   -0.22779E+00  8528   0.699E+01-0.812E-01
CGA:  35    -0.388238383874E+03   -0.24845E+00   -0.24866E+00  8528   0.353E+01-0.460E-02
CGA:  36    -0.388327875409E+03   -0.89492E-01   -0.88725E-01  8528   0.113E+01 0.786E-01
CGA:  37    -0.388361810560E+03   -0.33935E-01   -0.33282E-01  8528   0.778E+00 0.518E-01
CGA:  38    -0.388387722140E+03   -0.25912E-01   -0.25968E-01  8528   0.952E+00-0.415E-02
CGA:  39    -0.388425667550E+03   -0.37945E-01   -0.37135E-01  8528   0.761E+00 0.408E-01
CGA:  40    -0.388474878196E+03   -0.49211E-01   -0.48362E-01  8528   0.412E+00 0.241E-01
CGA:  41    -0.388482364237E+03   -0.74860E-02   -0.75271E-02  8528   0.175E+00 0.258E-02
CGA:  42    -0.388489417427E+03   -0.70532E-02   -0.71278E-02  8528   0.114E+00-0.386E-02
CGA:  43    -0.388494359574E+03   -0.49421E-02   -0.48961E-02  8528   0.122E+00 0.213E-02
CGA:  44    -0.388498290776E+03   -0.39312E-02   -0.39315E-02  8528   0.130E+00-0.355E-04
CGA:  45    -0.388505957006E+03   -0.76662E-02   -0.75026E-02  8528   0.144E+00 0.526E-02
CGA:  46    -0.388511550222E+03   -0.55932E-02   -0.55983E-02  8528   0.584E-01-0.383E-03
CGA:  47    -0.388512582542E+03   -0.10323E-02   -0.10367E-02  8528   0.126E-01 0.534E-05
CGA:  48    -0.388513278821E+03   -0.69628E-03   -0.69879E-03  8528   0.290E-01-0.914E-04
CGA:  49    -0.388514752921E+03   -0.14741E-02   -0.14687E-02  8528   0.213E-01 0.225E-03
CGA:  50    -0.388515608949E+03   -0.85603E-03   -0.85353E-03  8528   0.172E-01 0.191E-03
CGA:  51    -0.388516038040E+03   -0.42909E-03   -0.43003E-03  8528   0.929E-02 0.949E-04
CGA:  52    -0.388516835773E+03   -0.79773E-03   -0.79775E-03  8528   0.140E-01-0.535E-05
CGA:  53    -0.388517239933E+03   -0.40416E-03   -0.40451E-03  8528   0.118E-01 0.530E-04
CGA:  54    -0.388517895961E+03   -0.65603E-03   -0.65238E-03  8528   0.114E-01 0.140E-03
CGA:  55    -0.388518294684E+03   -0.39872E-03   -0.39862E-03  8528   0.659E-02 0.261E-04
CGA:  56    -0.388518511117E+03   -0.21643E-03   -0.21643E-03  8528   0.580E-02-0.674E-05
CGA:  57    -0.388518815175E+03   -0.30406E-03   -0.30390E-03  8528   0.648E-02 0.659E-05
CGA:  58    -0.388519052970E+03   -0.23780E-03   -0.23788E-03  8528   0.598E-02-0.225E-04
CGA:  59    -0.388519367313E+03   -0.31434E-03   -0.31429E-03  8528   0.455E-02 0.237E-06
CGA:  60    -0.388519491510E+03   -0.12420E-03   -0.12413E-03  8528   0.290E-02-0.727E-05
CGA:  61    -0.388519593802E+03   -0.10229E-03   -0.10229E-03  8528   0.109E-02-0.101E-05
CGA:  62    -0.388519669723E+03   -0.75921E-04   -0.76368E-04  8528   0.325E-02-0.130E-04
SDA:  63    -0.388519787240E+03   -0.11752E-03   -0.11752E-03  8528   0.104E-02-0.683E-05
CGA:  64    -0.388519815830E+03   -0.28590E-04   -0.28599E-04  8528   0.960E-03 0.198E-05
CGA:  65    -0.388519850739E+03   -0.34908E-04   -0.34905E-04  8528   0.610E-03 0.806E-05
CGA:  66    -0.388519885440E+03   -0.34701E-04   -0.34559E-04  8528   0.944E-03 0.699E-05
CGA:  67    -0.388519939617E+03   -0.54177E-04   -0.53883E-04  8528   0.774E-03 0.150E-04
CGA:  68    -0.388519984381E+03   -0.44764E-04   -0.44677E-04  8528   0.531E-03 0.459E-05
CGA:  69    -0.388520019093E+03   -0.34713E-04   -0.34739E-04  8528   0.564E-03-0.111E-05
CGA:  70    -0.388520072866E+03   -0.53772E-04   -0.54453E-04  8528   0.158E-02-0.121E-04
CGA:  71    -0.388520105164E+03   -0.32298E-04   -0.32161E-04  8528   0.523E-03-0.546E-05
CGA:  72    -0.388520136308E+03   -0.31144E-04   -0.31236E-04  8528   0.158E-03-0.511E-05
CGA:  73    -0.388520149576E+03   -0.13269E-04   -0.13236E-04  8528   0.645E-03 0.738E-06
CGA:  74    -0.388520174875E+03   -0.25299E-04   -0.25321E-04  8528   0.335E-03 0.333E-05
CGA:  75    -0.388520182298E+03   -0.74232E-05   -0.74331E-05  8528   0.103E-03 0.532E-06
  16 F= -.38852018E+03 E0= -.38849763E+03  d E =-.266743E-01  mag=    14.2057
       N       E                     dE             d eps       ncg     rms          ort
SDA:   1    -0.367988563940E+03    0.20532E+02    0.00000E+00  8528   0.763E+02 0.000E+00
CGA:   2    -0.371169408724E+03   -0.31808E+01   -0.30054E+01  8528   0.173E+03-0.150E+02
CGA:   3    -0.378377336149E+03   -0.72079E+01   -0.73385E+01  8528   0.285E+03-0.788E+01
CGA:   4    -0.381020575861E+03   -0.26432E+01   -0.36881E+01  8528   0.120E+03-0.977E+02
CGA:   5    -0.383613549273E+03   -0.25930E+01   -0.16699E+01  8528   0.552E+02 0.388E+02
CGA:   6    -0.384546231493E+03   -0.93268E+00   -0.67215E+00  8528   0.301E+02 0.228E+02
CGA:   7    -0.385176984663E+03   -0.63075E+00   -0.66061E+00  8528   0.506E+02-0.520E+01
CGA:   8    -0.385416996220E+03   -0.24001E+00   -0.37318E+00  8528   0.536E+02-0.125E+02
CGA:   9    -0.385644089024E+03   -0.22709E+00   -0.28916E+00  8528   0.543E+02-0.716E+01
CGA:  10    -0.386113697725E+03   -0.46961E+00   -0.49506E+00  8528   0.763E+02-0.162E+01
CGA:  11    -0.386856122085E+03   -0.74242E+00   -0.83423E+00  8528   0.630E+02-0.815E+01
CGA:  12    -0.387176902748E+03   -0.32078E+00   -0.28972E+00  8528   0.253E+02 0.440E+01
CGA:  13    -0.387330224400E+03   -0.15332E+00   -0.13250E+00  8528   0.159E+02 0.381E+01
CGA:  14    -0.387480131552E+03   -0.14991E+00   -0.11572E+00  8528   0.199E+02 0.507E+01
CGA:  15    -0.387624630215E+03   -0.14450E+00   -0.86269E-01  8528   0.192E+02 0.173E+02
CGA:  16    -0.387844087668E+03   -0.21946E+00   -0.23790E+00  8528   0.723E+01-0.951E+00
CGA:  17    -0.388027718181E+03   -0.18363E+00   -0.18125E+00  8528   0.419E+01-0.105E+01
CGA:  18    -0.388243309490E+03   -0.21559E+00   -0.20634E+00  8528   0.268E+01 0.304E+00
CGA:  19    -0.388357600064E+03   -0.11429E+00   -0.11320E+00  8528   0.379E+01 0.795E-01
CGA:  20    -0.388454649748E+03   -0.97050E-01   -0.97560E-01  8528   0.204E+01 0.378E-01
CGA:  21    -0.388491035757E+03   -0.36386E-01   -0.36939E-01  8528   0.456E+00-0.643E-02
CGA:  22    -0.388512223118E+03   -0.21187E-01   -0.21337E-01  8528   0.410E+00-0.714E-02
CGA:  23    -0.388536471538E+03   -0.24248E-01   -0.22548E-01  8528   0.256E+00 0.587E-01
CGA:  24    -0.388547890775E+03   -0.11419E-01   -0.11369E-01  8528   0.437E+00 0.448E-02
CGA:  25    -0.388561331667E+03   -0.13441E-01   -0.13453E-01  8528   0.197E+00 0.549E-02
CGA:  26    -0.388567506035E+03   -0.61744E-02   -0.61752E-02  8528   0.133E+00 0.177E-02
CGA:  27    -0.388571673045E+03   -0.41670E-02   -0.41677E-02  8528   0.870E-01 0.465E-02
CGA:  28    -0.388575053288E+03   -0.33802E-02   -0.33649E-02  8528   0.101E+00 0.162E-02
CGA:  29    -0.388578830037E+03   -0.37767E-02   -0.37718E-02  8528   0.509E-01 0.608E-03
CGA:  30    -0.388581401202E+03   -0.25712E-02   -0.25642E-02  8528   0.369E-01 0.329E-03
CGA:  31    -0.388584292281E+03   -0.28911E-02   -0.28731E-02  8528   0.428E-01 0.419E-03
CGA:  32    -0.388585410415E+03   -0.11181E-02   -0.11236E-02  8528   0.279E-01 0.120E-03
CGA:  33    -0.388586604946E+03   -0.11945E-02   -0.11942E-02  8528   0.296E-01 0.369E-04
CGA:  34    -0.388588682848E+03   -0.20779E-02   -0.20669E-02  8528   0.227E-01 0.313E-03
CGA:  35    -0.388589442345E+03   -0.75950E-03   -0.75855E-03  8528   0.156E-01-0.911E-04
CGA:  36    -0.388590435761E+03   -0.99342E-03   -0.98937E-03  8528   0.724E-02 0.138E-03
CGA:  37    -0.388590829091E+03   -0.39333E-03   -0.39419E-03  8528   0.638E-02-0.414E-04
CGA:  38    -0.388591147930E+03   -0.31884E-03   -0.31847E-03  8528   0.885E-02 0.233E-04
CGA:  39    -0.388591413188E+03   -0.26526E-03   -0.26499E-03  8528   0.462E-02-0.875E-05
CGA:  40    -0.388591652311E+03   -0.23912E-03   -0.23867E-03  8528   0.445E-02 0.261E-04
CGA:  41    -0.388591828734E+03   -0.17642E-03   -0.17642E-03  8528   0.268E-02 0.343E-06
CGA:  42    -0.388591962535E+03   -0.13380E-03   -0.13394E-03  8528   0.187E-02-0.111E-04
CGA:  43    -0.388592086932E+03   -0.12440E-03   -0.12461E-03  8528   0.200E-02-0.823E-05
CGA:  44    -0.388592215692E+03   -0.12876E-03   -0.12869E-03  8528   0.206E-02 0.150E-05
[...]
CGA:  16    -0.389780939276E+03   -0.91656E-04   -0.91735E-04  8528   0.155E-02 0.407E-05
CGA:  17    -0.389781010485E+03   -0.71209E-04   -0.71213E-04  8528   0.101E-02 0.207E-05
CGA:  18    -0.389781057450E+03   -0.46966E-04   -0.46952E-04  8528   0.617E-03-0.135E-05
CGA:  19    -0.389781088607E+03   -0.31156E-04   -0.31157E-04  8528   0.568E-03 0.343E-06
CGA:  20    -0.389781127923E+03   -0.39316E-04   -0.39300E-04  8528   0.686E-03 0.595E-06
CGA:  21    -0.389781156727E+03   -0.28804E-04   -0.28796E-04  8528   0.547E-03 0.368E-07
CGA:  22    -0.389781189327E+03   -0.32600E-04   -0.32610E-04  8528   0.279E-03-0.140E-05
CGA:  23    -0.389781205433E+03   -0.16105E-04   -0.16109E-04  8528   0.339E-03-0.655E-06
CGA:  24    -0.389781220014E+03   -0.14582E-04   -0.14576E-04  8528   0.246E-03-0.100E-05
CGA:  25    -0.389781234030E+03   -0.14016E-04   -0.14017E-04  8528   0.164E-03-0.366E-06
CGA:  26    -0.389781243685E+03   -0.96556E-05   -0.96599E-05  8528   0.123E-03-0.638E-06
 141 F= -.38978124E+03 E0= -.38976342E+03  d E =-.330820E-02  mag=    12.0891
       N       E                     dE             d eps       ncg     rms          ort
SDA:   1    -0.389454878887E+03    0.32636E+00    0.00000E+00  8528   0.101E+01 0.000E+00
CGA:   2    -0.389579309991E+03   -0.12443E+00   -0.12347E+00  8528   0.211E+01 0.179E-01
CGA:   3    -0.389692022276E+03   -0.11271E+00   -0.11255E+00  8528   0.779E+00-0.334E-01
CGA:   4    -0.389722915204E+03   -0.30893E-01   -0.30139E-01  8528   0.391E+00-0.568E-02
CGA:   5    -0.389751051296E+03   -0.28136E-01   -0.27909E-01  8528   0.540E+00 0.944E-02
CGA:   6    -0.389766223205E+03   -0.15172E-01   -0.15034E-01  8528   0.130E+00 0.244E-02
CGA:   7    -0.389773423357E+03   -0.72002E-02   -0.71945E-02  8528   0.449E-01 0.170E-02
CGA:   8    -0.389776418830E+03   -0.29955E-02   -0.29898E-02  8528   0.547E-01 0.312E-03
CGA:   9    -0.389778214678E+03   -0.17958E-02   -0.17949E-02  8528   0.185E-01 0.842E-05
CGA:  10    -0.389779133144E+03   -0.91847E-03   -0.91781E-03  8528   0.162E-01-0.776E-04
CGA:  11    -0.389779775078E+03   -0.64193E-03   -0.64239E-03  8528   0.474E-02 0.274E-05
CGA:  12    -0.389780157182E+03   -0.38210E-03   -0.38201E-03  8528   0.494E-02 0.340E-05
CGA:  13    -0.389780309394E+03   -0.15221E-03   -0.15228E-03  8528   0.267E-02-0.230E-05
CGA:  14    -0.389780463862E+03   -0.15447E-03   -0.15445E-03  8528   0.162E-02 0.168E-05
CGA:  15    -0.389780566179E+03   -0.10232E-03   -0.10235E-03  8528   0.136E-02-0.198E-05
CGA:  16    -0.389780620606E+03   -0.54427E-04   -0.54478E-04  8528   0.817E-03 0.161E-05
CGA:  17    -0.389780661772E+03   -0.41166E-04   -0.41171E-04  8528   0.744E-03 0.927E-06
CGA:  18    -0.389780696516E+03   -0.34744E-04   -0.34739E-04  8528   0.591E-03 0.226E-06
CGA:  19    -0.389780735476E+03   -0.38959E-04   -0.38967E-04  8528   0.387E-03-0.312E-06
CGA:  20    -0.389780766923E+03   -0.31447E-04   -0.31382E-04  8528   0.630E-03 0.240E-05
CGA:  21    -0.389780785921E+03   -0.18998E-04   -0.19018E-04  8528   0.209E-03 0.159E-06
CGA:  22    -0.389780804579E+03   -0.18658E-04   -0.18634E-04  8528   0.281E-03 0.579E-06
CGA:  23    -0.389780819626E+03   -0.15047E-04   -0.15046E-04  8528   0.280E-03-0.705E-06
CGA:  24    -0.389780833041E+03   -0.13415E-04   -0.13415E-04  8528   0.115E-03-0.288E-07
CGA:  25    -0.389780836588E+03   -0.35467E-05   -0.35427E-05  8528   0.740E-04-0.241E-06
 142 F= -.38978084E+03 E0= -.38976305E+03  d E =0.407098E-03  mag=    12.0921
       N       E                     dE             d eps       ncg     rms          ort
SDA:   1    -0.389588954506E+03    0.19188E+00    0.00000E+00  8528   0.866E+00 0.000E+00
CGA:   2    -0.389623474963E+03   -0.34520E-01   -0.34195E-01  8528   0.999E+00-0.170E-02
CGA:   3    -0.389692018946E+03   -0.68544E-01   -0.68219E-01  8528   0.106E+01 0.183E-01
CGA:   4    -0.389735817032E+03   -0.43798E-01   -0.43568E-01  8528   0.402E+00-0.199E-02
CGA:   5    -0.389751100404E+03   -0.15283E-01   -0.15147E-01  8528   0.182E+00-0.273E-03
CGA:   6    -0.389766082809E+03   -0.14982E-01   -0.14967E-01  8528   0.191E+00 0.502E-03
CGA:   7    -0.389771999680E+03   -0.59169E-02   -0.60713E-02  8528   0.113E+00-0.174E-02
CGA:   8    -0.389775555074E+03   -0.35554E-02   -0.35927E-02  8528   0.166E-01-0.365E-03
CGA:   9    -0.389777278280E+03   -0.17232E-02   -0.17331E-02  8528   0.173E-01-0.194E-03
CGA:  10    -0.389777967670E+03   -0.68939E-03   -0.69274E-03  8528   0.169E-01 0.207E-04
CGA:  11    -0.389778542747E+03   -0.57508E-03   -0.57729E-03  8528   0.289E-02-0.190E-04
CGA:  12    -0.389778785919E+03   -0.24317E-03   -0.24357E-03  8528   0.226E-02-0.122E-04
CGA:  13    -0.389778935757E+03   -0.14984E-03   -0.14987E-03  8528   0.185E-02-0.280E-05
CGA:  14    -0.389779009811E+03   -0.74054E-04   -0.74068E-04  8528   0.136E-02-0.224E-05
CGA:  15    -0.389779071337E+03   -0.61526E-04   -0.61493E-04  8528   0.883E-03-0.160E-05
CGA:  16    -0.389779106936E+03   -0.35599E-04   -0.35601E-04  8528   0.619E-03-0.160E-05
CGA:  17    -0.389779144520E+03   -0.37583E-04   -0.37604E-04  8528   0.210E-03-0.304E-05
CGA:  18    -0.389779175574E+03   -0.31054E-04   -0.31118E-04  8528   0.343E-03-0.755E-06
CGA:  19    -0.389779195647E+03   -0.20073E-04   -0.20072E-04  8528   0.377E-03-0.708E-06
CGA:  20    -0.389779205806E+03   -0.10159E-04   -0.10179E-04  8528   0.105E-03 0.239E-06
CGA:  21    -0.389779218604E+03   -0.12799E-04   -0.12710E-04  8528   0.166E-03 0.137E-05
CGA:  22    -0.389779229876E+03   -0.11272E-04   -0.11263E-04  8528   0.984E-04 0.140E-05
CGA:  23    -0.389779234284E+03   -0.44075E-05   -0.44180E-05  8528   0.744E-04 0.571E-06
 143 F= -.38977923E+03 E0= -.38976147E+03  d E =0.160230E-02  mag=    12.0867
       N       E                     dE             d eps       ncg     rms          ort
SDA:   1    -0.389460218587E+03    0.31901E+00    0.00000E+00  8528   0.952E+00 0.000E+00
CGA:   2    -0.389601432522E+03   -0.14121E+00   -0.14184E+00  8528   0.211E+01-0.755E-02
CGA:   3    -0.389676139389E+03   -0.74707E-01   -0.73077E-01  8528   0.110E+01 0.171E-01
CGA:   4    -0.389718644065E+03   -0.42505E-01   -0.40817E-01  8528   0.314E+00 0.141E-01
CGA:   5    -0.389748347763E+03   -0.29704E-01   -0.30411E-01  8528   0.471E+00-0.183E-01
CGA:   6    -0.389763167769E+03   -0.14820E-01   -0.15255E-01  8528   0.173E+00-0.531E-02
CGA:   7    -0.389769251532E+03   -0.60838E-02   -0.57162E-02  8528   0.551E-01 0.493E-02
CGA:   8    -0.389771923862E+03   -0.26723E-02   -0.26664E-02  8528   0.469E-01-0.878E-04
CGA:   9    -0.389774132857E+03   -0.22090E-02   -0.22072E-02  8528   0.210E-01-0.230E-04
CGA:  10    -0.389775349980E+03   -0.12171E-02   -0.12178E-02  8528   0.207E-01 0.210E-03
CGA:  11    -0.389775980430E+03   -0.63045E-03   -0.62860E-03  8528   0.602E-02 0.330E-04
CGA:  12    -0.389776396623E+03   -0.41619E-03   -0.41615E-03  8528   0.437E-02 0.281E-05
CGA:  13    -0.389776552810E+03   -0.15619E-03   -0.15617E-03  8528   0.311E-02 0.158E-05
CGA:  14    -0.389776740687E+03   -0.18788E-03   -0.18784E-03  8528   0.241E-02 0.617E-05
CGA:  15    -0.389776855680E+03   -0.11499E-03   -0.11496E-03  8528   0.146E-02 0.979E-07
CGA:  16    -0.389776914015E+03   -0.58335E-04   -0.58451E-04  8528   0.930E-03 0.870E-06
CGA:  17    -0.389776966056E+03   -0.52040E-04   -0.52041E-04  8528   0.688E-03 0.840E-06
CGA:  18    -0.389776994386E+03   -0.28331E-04   -0.28314E-04  8528   0.564E-03-0.101E-05
CGA:  19    -0.389777032926E+03   -0.38539E-04   -0.38552E-04  8528   0.442E-03-0.812E-06
CGA:  20    -0.389777059828E+03   -0.26902E-04   -0.26903E-04  8528   0.615E-03-0.288E-06
CGA:  21    -0.389777083661E+03   -0.23833E-04   -0.23831E-04  8528   0.244E-03-0.437E-06
CGA:  22    -0.389777099409E+03   -0.15748E-04   -0.15759E-04  8528   0.203E-03-0.132E-05
CGA:  23    -0.389777108059E+03   -0.86500E-05   -0.86494E-05  8528   0.209E-03 0.680E-07
CGA:  24    -0.389777124556E+03   -0.16497E-04   -0.16492E-04  8528   0.205E-03 0.287E-06
CGA:  25    -0.389777131859E+03   -0.73029E-05   -0.73110E-05  8528   0.820E-04 0.423E-06
 144 F= -.38977713E+03 E0= -.38975942E+03  d E =0.210242E-02  mag=    12.0790
       N       E                     dE             d eps       ncg     rms          ort
SDA:   1    -0.389532339927E+03    0.24478E+00    0.00000E+00  8528   0.893E+00 0.000E+00
CGA:   2    -0.389606373291E+03   -0.74033E-01   -0.72198E-01  8528   0.174E+01 0.586E-01
CGA:   3    -0.389679747210E+03   -0.73374E-01   -0.74142E-01  8528   0.108E+01 0.402E-02
CGA:   4    -0.389723529489E+03   -0.43782E-01   -0.43984E-01  8528   0.271E+00 0.672E-03
CGA:   5    -0.389746620730E+03   -0.23091E-01   -0.23293E-01  8528   0.416E+00-0.570E-02
CGA:   6    -0.389762518523E+03   -0.15898E-01   -0.15926E-01  8528   0.145E+00 0.758E-04
CGA:   7    -0.389767592931E+03   -0.50744E-02   -0.51004E-02  8528   0.854E-01-0.828E-04
CGA:   8    -0.389770470694E+03   -0.28778E-02   -0.28639E-02  8528   0.396E-01 0.959E-04
CGA:   9    -0.389773685497E+03   -0.32148E-02   -0.32132E-02  8528   0.140E-01 0.512E-04
CGA:  10    -0.389774336072E+03   -0.65057E-03   -0.65135E-03  8528   0.141E-01 0.325E-04
CGA:  11    -0.389774833853E+03   -0.49778E-03   -0.49494E-03  8528   0.827E-02 0.113E-04
CGA:  12    -0.389775302160E+03   -0.46831E-03   -0.46823E-03  8528   0.381E-02 0.130E-04
CGA:  13    -0.389775447888E+03   -0.14573E-03   -0.14584E-03  8528   0.228E-02 0.105E-05
CGA:  14    -0.389775592344E+03   -0.14446E-03   -0.14445E-03  8528   0.226E-02 0.425E-06
CGA:  15    -0.389775678748E+03   -0.86404E-04   -0.86367E-04  8528   0.204E-02-0.514E-06
CGA:  16    -0.389775773804E+03   -0.95056E-04   -0.95073E-04  8528   0.605E-03 0.265E-05
CGA:  17    -0.389775830280E+03   -0.56476E-04   -0.56396E-04  8528   0.734E-03 0.187E-05
CGA:  18    -0.389775857262E+03   -0.26982E-04   -0.26997E-04  8528   0.690E-03 0.182E-06
CGA:  19    -0.389775894725E+03   -0.37463E-04   -0.37463E-04  8528   0.512E-03 0.635E-06
CGA:  20    -0.389775929616E+03   -0.34891E-04   -0.34877E-04  8528   0.475E-03 0.415E-06
CGA:  21    -0.389775948480E+03   -0.18864E-04   -0.18856E-04  8528   0.250E-03-0.834E-06
CGA:  22    -0.389775965834E+03   -0.17354E-04   -0.17364E-04  8528   0.420E-03-0.778E-06
CGA:  23    -0.389775980311E+03   -0.14477E-04   -0.14459E-04  8528   0.217E-03-0.134E-05
CGA:  24    -0.389775995719E+03   -0.15409E-04   -0.15426E-04  8528   0.885E-04-0.929E-06
CGA:  25    -0.389776001912E+03   -0.61930E-05   -0.61946E-05  8528   0.132E-03-0.939E-07
 145 F= -.38977600E+03 E0= -.38975830E+03  d E =0.112995E-02  mag=    12.0781
       N       E                     dE             d eps       ncg     rms          ort
SDA:   1    -0.389659724567E+03    0.11627E+00    0.00000E+00  8528   0.516E+00 0.000E+00
CGA:   2    -0.389679719013E+03   -0.19994E-01   -0.20248E-01  8528   0.701E+00 0.216E-02
CGA:   3    -0.389727888291E+03   -0.48169E-01   -0.48152E-01  8528   0.567E+00 0.695E-03
CGA:   4    -0.389753710871E+03   -0.25823E-01   -0.25777E-01  8528   0.172E+00-0.177E-02
CGA:   5    -0.389762275563E+03   -0.85647E-02   -0.85625E-02  8528   0.167E+00-0.273E-03
CGA:   6    -0.389770631218E+03   -0.83557E-02   -0.83625E-02  8528   0.108E+00 0.919E-03
CGA:   7    -0.389774246328E+03   -0.36151E-02   -0.35926E-02  8528   0.580E-01 0.117E-03
CGA:   8    -0.389776645448E+03   -0.23991E-02   -0.24047E-02  8528   0.118E-01 0.122E-03
CGA:   9    -0.389777663143E+03   -0.10177E-02   -0.10185E-02  8528   0.795E-02-0.200E-04
CGA:  10    -0.389778084951E+03   -0.42181E-03   -0.42181E-03  8528   0.110E-01-0.680E-06
CGA:  11    -0.389778464686E+03   -0.37974E-03   -0.37985E-03  8528   0.198E-02 0.263E-05
CGA:  12    -0.389778581067E+03   -0.11638E-03   -0.11637E-03  8528   0.192E-02 0.579E-06
CGA:  13    -0.389778670942E+03   -0.89876E-04   -0.89879E-04  8528   0.897E-03 0.581E-06
CGA:  14    -0.389778734995E+03   -0.64052E-04   -0.64063E-04  8528   0.107E-02-0.457E-06
CGA:  15    -0.389778772533E+03   -0.37538E-04   -0.37553E-04  8528   0.645E-03 0.123E-05
CGA:  16    -0.389778799062E+03   -0.26529E-04   -0.26539E-04  8528   0.210E-03 0.203E-06
CGA:  17    -0.389778819908E+03   -0.20846E-04   -0.20806E-04  8528   0.207E-03 0.767E-06
CGA:  18    -0.389778834192E+03   -0.14284E-04   -0.14276E-04  8528   0.318E-03 0.539E-06
CGA:  19    -0.389778844810E+03   -0.10619E-04   -0.10639E-04  8528   0.113E-03 0.990E-06
CGA:  20    -0.389778852032E+03   -0.72217E-05   -0.72162E-05  8528   0.168E-03 0.404E-06
 146 F= -.38977885E+03 E0= -.38976109E+03  d E =-.285012E-02  mag=    12.0818
       N       E                     dE             d eps       ncg     rms          ort
SDA:   1    -0.389607639570E+03    0.17121E+00    0.00000E+00  8528   0.583E+00 0.000E+00
CGA:   2    -0.389660610509E+03   -0.52971E-01   -0.55822E-01  8528   0.170E+01-0.645E-01
CGA:   3    -0.389713086871E+03   -0.52476E-01   -0.51809E-01  8528   0.820E+00 0.424E-02
CGA:   4    -0.389746312683E+03   -0.33226E-01   -0.33511E-01  8528   0.227E+00 0.210E-02
CGA:   5    -0.389757324859E+03   -0.11012E-01   -0.10991E-01  8528   0.314E+00-0.119E-02
CGA:   6    -0.389768693256E+03   -0.11368E-01   -0.11290E-01  8528   0.141E+00 0.550E-06
CGA:   7    -0.389776977340E+03   -0.82841E-02   -0.82846E-02  8528   0.573E-01-0.639E-04
CGA:   8    -0.389778489724E+03   -0.15124E-02   -0.15031E-02  8528   0.304E-01 0.187E-03
CGA:   9    -0.389780062727E+03   -0.15730E-02   -0.15729E-02  8528   0.231E-01-0.773E-04
CGA:  10    -0.389780893275E+03   -0.83055E-03   -0.83113E-03  8528   0.108E-01-0.523E-05
CGA:  11    -0.389781572963E+03   -0.67969E-03   -0.67957E-03  8528   0.817E-02 0.511E-05
CGA:  12    -0.389781763250E+03   -0.19029E-03   -0.18992E-03  8528   0.317E-02 0.302E-05
CGA:  13    -0.389782019295E+03   -0.25604E-03   -0.25563E-03  8528   0.188E-02 0.119E-04
CGA:  14    -0.389782108369E+03   -0.89074E-04   -0.89081E-04  8528   0.212E-02 0.243E-05
CGA:  15    -0.389782172978E+03   -0.64609E-04   -0.64323E-04  8528   0.790E-03 0.362E-05
CGA:  16    -0.389782254596E+03   -0.81618E-04   -0.81383E-04  8528   0.982E-03 0.453E-05
CGA:  17    -0.389782282748E+03   -0.28152E-04   -0.28171E-04  8528   0.417E-03 0.187E-05
CGA:  18    -0.389782301878E+03   -0.19129E-04   -0.19123E-04  8528   0.436E-03-0.596E-06
CGA:  19    -0.389782323414E+03   -0.21536E-04   -0.21537E-04  8528   0.322E-03 0.307E-07
CGA:  20    -0.389782347258E+03   -0.23844E-04   -0.23844E-04  8528   0.349E-03 0.504E-07
CGA:  21    -0.389782360222E+03   -0.12965E-04   -0.12960E-04  8528   0.341E-03-0.466E-06
CGA:  22    -0.389782376694E+03   -0.16472E-04   -0.16473E-04  8528   0.150E-03-0.313E-07
CGA:  23    -0.389782386482E+03   -0.97876E-05   -0.97888E-05  8528   0.136E-03-0.291E-07
 147 F= -.38978239E+03 E0= -.38976465E+03  d E =-.353445E-02  mag=    12.0811
       N       E                     dE             d eps       ncg     rms          ort
SDA:   1    -0.389735460851E+03    0.46916E-01    0.00000E+00  8528   0.111E+01 0.000E+00
CGA:   2    -0.389753432766E+03   -0.17972E-01   -0.17658E-01  8528   0.119E+00 0.119E-01
CGA:   3    -0.389763958632E+03   -0.10526E-01   -0.10621E-01  8528   0.142E+00-0.235E-02
CGA:   4    -0.389775042041E+03   -0.11083E-01   -0.11087E-01  8528   0.485E-01-0.101E-03
CGA:   5    -0.389778217924E+03   -0.31759E-02   -0.31745E-02  8528   0.283E-01 0.856E-04
CGA:   6    -0.389780467491E+03   -0.22496E-02   -0.22570E-02  8528   0.383E-01-0.242E-03
CGA:   7    -0.389781435309E+03   -0.96782E-03   -0.96171E-03  8528   0.914E-02 0.156E-03
CGA:   8    -0.389781951583E+03   -0.51627E-03   -0.51608E-03  8528   0.782E-02 0.494E-04
CGA:   9    -0.389782254762E+03   -0.30318E-03   -0.30282E-03  8528   0.233E-02 0.169E-05
CGA:  10    -0.389782423843E+03   -0.16908E-03   -0.16902E-03  8528   0.136E-02 0.262E-05
CGA:  11    -0.389782505428E+03   -0.81585E-04   -0.81589E-04  8528   0.136E-02-0.405E-06
CGA:  12    -0.389782546633E+03   -0.41205E-04   -0.41247E-04  8528   0.688E-03 0.167E-06
CGA:  13    -0.389782584348E+03   -0.37714E-04   -0.37715E-04  8528   0.320E-03-0.647E-06
CGA:  14    -0.389782607140E+03   -0.22793E-04   -0.22814E-04  8528   0.232E-03-0.115E-05
CGA:  15    -0.389782618837E+03   -0.11696E-04   -0.11696E-04  8528   0.202E-03-0.843E-07
CGA:  16    -0.389782632669E+03   -0.13833E-04   -0.13834E-04  8528   0.137E-03-0.972E-07
CGA:  17    -0.389782639291E+03   -0.66216E-05   -0.66233E-05  8528   0.179E-03 0.294E-06
 148 F= -.38978264E+03 E0= -.38976488E+03  d E =-.252809E-03  mag=    12.0803
       N       E                     dE             d eps       ncg     rms          ort
SDA:   1    -0.389693668334E+03    0.88964E-01    0.00000E+00  8528   0.296E+00 0.000E+00
CGA:   2    -0.389722616060E+03   -0.28948E-01   -0.28909E-01  8528   0.682E+00 0.994E-03
CGA:   3    -0.389751605867E+03   -0.28990E-01   -0.28675E-01  8528   0.376E+00-0.363E-02
CGA:   4    -0.389764709825E+03   -0.13104E-01   -0.12803E-01  8528   0.127E+00 0.166E-02
CGA:   5    -0.389771282443E+03   -0.65726E-02   -0.65847E-02  8528   0.112E+00 0.211E-02
CGA:   6    -0.389778215101E+03   -0.69327E-02   -0.69714E-02  8528   0.520E-01-0.323E-02
CGA:   7    -0.389780719874E+03   -0.25048E-02   -0.25037E-02  8528   0.303E-01-0.946E-04
CGA:   8    -0.389781488513E+03   -0.76864E-03   -0.75611E-03  8528   0.116E-01 0.287E-03
CGA:   9    -0.389782454233E+03   -0.96572E-03   -0.96478E-03  8528   0.708E-02 0.272E-04
CGA:  10    -0.389782692511E+03   -0.23828E-03   -0.23826E-03  8528   0.268E-02 0.145E-05
CGA:  11    -0.389782929608E+03   -0.23710E-03   -0.23710E-03  8528   0.190E-02 0.472E-06
CGA:  12    -0.389783035700E+03   -0.10609E-03   -0.10609E-03  8528   0.155E-02 0.508E-05
CGA:  13    -0.389783076907E+03   -0.41207E-04   -0.41387E-04  8528   0.558E-03-0.344E-06
CGA:  14    -0.389783115825E+03   -0.38918E-04   -0.38947E-04  8528   0.607E-03-0.149E-05
CGA:  15    -0.389783145208E+03   -0.29383E-04   -0.29380E-04  8528   0.338E-03-0.435E-06
CGA:  16    -0.389783167770E+03   -0.22562E-04   -0.22569E-04  8528   0.161E-03-0.655E-06
CGA:  17    -0.389783179779E+03   -0.12010E-04   -0.12022E-04  8528   0.135E-03-0.639E-06
CGA:  18    -0.389783188346E+03   -0.85670E-05   -0.85746E-05  8528   0.167E-03-0.916E-06
 149 F= -.38978319E+03 E0= -.38976531E+03  d E =-.549055E-03  mag=    12.0833
       N       E                     dE             d eps       ncg     rms          ort
SDA:   1    -0.389739554262E+03    0.43626E-01    0.00000E+00  8528   0.103E+01 0.000E+00
CGA:   2    -0.389755675691E+03   -0.16121E-01   -0.16807E-01  8528   0.124E+00-0.351E-01
CGA:   3    -0.389765467796E+03   -0.97921E-02   -0.97511E-02  8528   0.136E+00 0.128E-02
CGA:   4    -0.389775039089E+03   -0.95713E-02   -0.96163E-02  8528   0.127E+00-0.218E-02
CGA:   5    -0.389778242621E+03   -0.32035E-02   -0.32074E-02  8528   0.379E-01-0.810E-04
CGA:   6    -0.389780571924E+03   -0.23293E-02   -0.23295E-02  8528   0.275E-01-0.575E-05
CGA:   7    -0.389782233982E+03   -0.16621E-02   -0.16612E-02  8528   0.252E-01 0.102E-03
CGA:   8    -0.389783072132E+03   -0.83815E-03   -0.83523E-03  8528   0.809E-02 0.337E-04
CGA:   9    -0.389783404942E+03   -0.33281E-03   -0.33298E-03  8528   0.564E-02 0.569E-05
CGA:  10    -0.389783618729E+03   -0.21379E-03   -0.21461E-03  8528   0.185E-02 0.107E-04
CGA:  11    -0.389783753777E+03   -0.13505E-03   -0.13526E-03  8528   0.167E-02-0.743E-05
CGA:  12    -0.389783811479E+03   -0.57703E-04   -0.57756E-04  8528   0.128E-02 0.322E-05
CGA:  13    -0.389783879641E+03   -0.68162E-04   -0.68160E-04  8528   0.286E-03 0.269E-05
CGA:  14    -0.389783898059E+03   -0.18418E-04   -0.18416E-04  8528   0.396E-03 0.466E-06
CGA:  15    -0.389783914080E+03   -0.16021E-04   -0.16018E-04  8528   0.299E-03 0.155E-06
CGA:  16    -0.389783930757E+03   -0.16676E-04   -0.16672E-04  8528   0.128E-03 0.154E-05
CGA:  17    -0.389783939169E+03   -0.84123E-05   -0.83987E-05  8528   0.144E-03 0.112E-05
 150 F= -.38978394E+03 E0= -.38976608E+03  d E =-.750823E-03  mag=    12.0803
