       N       E                     dE             d eps       ncg     rms          rms(c)
DAV:   1     0.665424172801E+04    0.66542E+04   -0.28427E+05 38336   0.152E+03
DAV:   2     0.358147039535E+03   -0.62961E+04   -0.59287E+04 38816   0.468E+02
DAV:   3    -0.385629870067E+03   -0.74378E+03   -0.73006E+03 40864   0.170E+02
DAV:   4    -0.416995636949E+03   -0.31366E+02   -0.30882E+02 50832   0.313E+01
DAV:   5    -0.419608057806E+03   -0.26124E+01   -0.25971E+01 66480   0.683E+00    0.600E+01
DAV:   6    -0.371504465343E+03    0.48104E+02   -0.25691E+02 43688   0.362E+01    0.367E+01
DAV:   7    -0.379173817943E+03   -0.76694E+01   -0.30449E+01 39824   0.149E+01    0.258E+01
DAV:   8    -0.381418531685E+03   -0.22447E+01   -0.36050E+00 47144   0.403E+00    0.147E+01
DAV:   9    -0.383929824542E+03   -0.25113E+01   -0.35210E+00 41544   0.358E+00    0.634E+00
DAV:  10    -0.385277839306E+03   -0.13480E+01   -0.13589E+00 45016   0.304E+00    0.592E+00
DAV:  11    -0.386090720118E+03   -0.81288E+00   -0.40608E-01 44144   0.164E+00    0.358E+00
DAV:  12    -0.387357804047E+03   -0.12671E+01   -0.65247E-01 44904   0.199E+00    0.253E+00
DAV:  13    -0.388825704564E+03   -0.14679E+01   -0.99475E-01 41320   0.145E+00    0.215E+00
DAV:  14    -0.389412284247E+03   -0.58658E+00   -0.37389E-01 45432   0.125E+00    0.165E+00
DAV:  15    -0.389699171074E+03   -0.28689E+00   -0.21229E-01 40376   0.946E-01    0.893E-01
DAV:  16    -0.389858008932E+03   -0.15884E+00   -0.15773E-01 43616   0.739E-01    0.204E+00
DAV:  17    -0.389857817536E+03    0.19140E-03   -0.22827E-02 42616   0.606E-01    0.822E-01
DAV:  18    -0.389859760299E+03   -0.19428E-02   -0.62530E-03 41856   0.303E-01    0.163E-01
DAV:  19    -0.389860261581E+03   -0.50128E-03   -0.17007E-03 45272   0.923E-02    0.401E-01
DAV:  20    -0.389859725694E+03    0.53589E-03   -0.43313E-04 45024   0.791E-02    0.136E-01
DAV:  21    -0.389859712782E+03    0.12912E-04   -0.18285E-04 43792   0.338E-02    0.461E-02
DAV:  22    -0.389859710354E+03    0.24282E-05   -0.39952E-05 37784   0.193E-02
   1 F= -.38985971E+03 E0= -.38985646E+03  d E =-.389860E+03  mag=    48.0010
