       N       E                     dE             d eps       ncg     rms          rms(c)
DAV:   1     0.532748558733E+04    0.53275E+04   -0.22188E+05 28736   0.160E+03
DAV:   2     0.430176831293E+03   -0.48973E+04   -0.45441E+04 30104   0.467E+02
DAV:   3    -0.318153397049E+03   -0.74833E+03   -0.69661E+03 31488   0.186E+02
DAV:   4    -0.354035593389E+03   -0.35882E+02   -0.35089E+02 32784   0.421E+01
DAV:   5    -0.355293532202E+03   -0.12579E+01   -0.12476E+01 42896   0.751E+00    0.302E-01
DAV:   6    -0.355368892301E+03   -0.75360E-01   -0.38969E-01 44120   0.112E+00    0.819E-01
DAV:   7    -0.355369303522E+03   -0.41122E-03   -0.16515E-02 43688   0.327E-01    0.576E-01
DAV:   8    -0.355369157749E+03    0.14577E-03   -0.26619E-03 39248   0.160E-01    0.413E-01
DAV:   9    -0.355369038649E+03    0.11910E-03   -0.15880E-03 39104   0.100E-01    0.290E-01
DAV:  10    -0.355368933382E+03    0.10527E-03   -0.89195E-04 31064   0.614E-02    0.147E-01
DAV:  11    -0.355368930935E+03    0.24475E-05   -0.18228E-04 24384   0.342E-02    0.119E-01
DAV:  12    -0.355368918625E+03    0.12310E-04   -0.51348E-05 21536   0.235E-02    0.797E-02
DAV:  13    -0.355368920285E+03   -0.16602E-05   -0.12882E-05 18664   0.147E-02
   1 F= -.35536892E+03 E0= -.35535307E+03  d E =-.355369E+03  mag=     8.0000
