       N       E                     dE             d eps       ncg     rms          rms(c)
DAV:   1     0.602623789753E+04    0.60262E+04   -0.25179E+05 35112   0.157E+03
DAV:   2     0.352811771200E+03   -0.56734E+04   -0.51870E+04 34256   0.463E+02
DAV:   3    -0.359223290419E+03   -0.71204E+03   -0.69709E+03 34536   0.183E+02
DAV:   4    -0.381078557741E+03   -0.21855E+02   -0.21675E+02 38072   0.333E+01
DAV:   5    -0.381435254040E+03   -0.35670E+00   -0.35158E+00 43200   0.399E+00    0.925E+01
DAV:   6    -0.287217119819E+03    0.94218E+02   -0.36819E+02 40168   0.654E+01    0.770E+01
DAV:   7    -0.305186926195E+03   -0.17970E+02   -0.10683E+02 35512   0.581E+01    0.848E+01
DAV:   8    -0.320026218140E+03   -0.14839E+02   -0.85218E+01 37568   0.386E+01    0.942E+01
DAV:   9    -0.290174659559E+03    0.29852E+02   -0.82758E+01 35848   0.238E+01    0.537E+01
DAV:  10    -0.320005032287E+03   -0.29830E+02   -0.12024E+02 36424   0.299E+01    0.915E+01
DAV:  11    -0.299332514455E+03    0.20673E+02   -0.54705E+01 34992   0.301E+01    0.644E+01
DAV:  12    -0.283751113342E+03    0.15581E+02   -0.32113E+01 35936   0.240E+01    0.576E+01
DAV:  13    -0.285018867790E+03   -0.12678E+01   -0.52971E+01 35672   0.161E+01    0.516E+01
DAV:  14    -0.285856925092E+03   -0.83806E+00   -0.26660E+01 36488   0.135E+01    0.455E+01
DAV:  15    -0.286094604288E+03   -0.23768E+00   -0.16335E+01 35456   0.797E+00    0.376E+01
DAV:  16    -0.289681020717E+03   -0.35864E+01   -0.14804E+01 35648   0.696E+00    0.387E+01
DAV:  17    -0.289691908413E+03   -0.10888E-01   -0.96516E-01 33320   0.225E+00    0.337E+01
DAV:  18    -0.289744424665E+03   -0.52516E-01   -0.11687E-01 34648   0.795E-01    0.338E+01
DAV:  19    -0.289579226346E+03    0.16520E+00   -0.22867E-02 35104   0.600E-01    0.340E+01
DAV:  20    -0.288677021982E+03    0.90220E+00   -0.17395E-01 38104   0.175E+00    0.344E+01
DAV:  21    -0.289368876237E+03   -0.69185E+00   -0.68758E-02 34920   0.972E-01    0.337E+01
DAV:  22    -0.291503862586E+03   -0.21350E+01   -0.92394E-01 38712   0.259E+00    0.295E+01
DAV:  23    -0.293319583901E+03   -0.18157E+01   -0.15009E+00 34768   0.188E+00    0.243E+01
DAV:  24    -0.295079457015E+03   -0.17599E+01   -0.29445E-01 35056   0.154E+00    0.224E+01
DAV:  25    -0.301761922243E+03   -0.66825E+01   -0.29427E+00 37048   0.482E+00    0.172E+01
DAV:  26    -0.305924572126E+03   -0.41626E+01   -0.38797E+00 36472   0.517E+00    0.158E+01
DAV:  27    -0.306666901114E+03   -0.74233E+00   -0.79184E-01 35624   0.168E+00    0.168E+01
DAV:  28    -0.306767763081E+03   -0.10086E+00   -0.57315E-02 34520   0.652E-01    0.166E+01
DAV:  29    -0.306769725891E+03   -0.19628E-02   -0.95901E-03 36888   0.388E-01    0.161E+01
DAV:  30    -0.307366385503E+03   -0.59666E+00   -0.10422E-01 37128   0.103E+00    0.157E+01
DAV:  31    -0.307774358438E+03   -0.40797E+00   -0.12364E-01 35712   0.955E-01    0.146E+01
DAV:  32    -0.307855689873E+03   -0.81331E-01   -0.18744E-02 35400   0.383E-01    0.144E+01
DAV:  33    -0.308326536107E+03   -0.47085E+00   -0.88110E-02 37832   0.115E+00    0.130E+01
DAV:  34    -0.309145582192E+03   -0.81905E+00   -0.19706E-01 35904   0.153E+00    0.110E+01
DAV:  35    -0.309662589742E+03   -0.51701E+00   -0.16906E-01 37248   0.138E+00    0.955E+00
DAV:  36    -0.309697394242E+03   -0.34804E-01   -0.49573E-02 34568   0.741E-01    0.897E+00
DAV:  37    -0.309838937835E+03   -0.14154E+00   -0.27016E-02 37528   0.527E-01    0.831E+00
DAV:  38    -0.310031092675E+03   -0.19215E+00   -0.57301E-02 38368   0.834E-01    0.722E+00
DAV:  39    -0.310337159546E+03   -0.30607E+00   -0.11232E-01 36512   0.109E+00    0.608E+00
DAV:  40    -0.310506929259E+03   -0.16977E+00   -0.58379E-02 37528   0.752E-01    0.538E+00
DAV:  41    -0.310577903350E+03   -0.70974E-01   -0.32926E-02 35256   0.525E-01    0.475E+00
DAV:  42    -0.310620982062E+03   -0.43079E-01   -0.30854E-02 36560   0.594E-01    0.431E+00
DAV:  43    -0.310636304028E+03   -0.15322E-01   -0.22239E-02 34944   0.460E-01    0.430E+00
DAV:  44    -0.310644165424E+03   -0.78614E-02   -0.69364E-03 35528   0.205E-01    0.426E+00
DAV:  45    -0.310651453651E+03   -0.72882E-02   -0.18357E-03 36504   0.149E-01    0.429E+00
DAV:  46    -0.310666068819E+03   -0.14615E-01   -0.87833E-03 37512   0.396E-01    0.422E+00
DAV:  47    -0.310666908312E+03   -0.83949E-03   -0.11038E-02 37848   0.399E-01    0.415E+00
DAV:  48    -0.310655197689E+03    0.11711E-01   -0.36222E-03 35320   0.184E-01    0.418E+00
DAV:  49    -0.310645050721E+03    0.10147E-01   -0.11727E-03 38008   0.998E-02    0.425E+00
DAV:  50    -0.310618835319E+03    0.26215E-01   -0.21966E-03 40544   0.185E-01    0.448E+00
DAV:  51    -0.310602106812E+03    0.16729E-01   -0.60999E-03 36120   0.382E-01    0.489E+00
DAV:  52    -0.310601177033E+03    0.92978E-03   -0.26494E-03 38264   0.190E-01    0.510E+00
DAV:  53    -0.310592155589E+03    0.90214E-02   -0.12517E-03 39216   0.141E-01    0.533E+00
DAV:  54    -0.310585704070E+03    0.64515E-02   -0.54347E-04 34032   0.610E-02    0.544E+00
DAV:  55    -0.310585803169E+03   -0.99099E-04   -0.66900E-05 31104   0.196E-02    0.543E+00
DAV:  56    -0.310537910711E+03    0.47892E-01   -0.62952E-03 37816   0.370E-01    0.605E+00
DAV:  57    -0.310540059478E+03   -0.21488E-02   -0.12572E-03 35040   0.973E-02    0.608E+00
DAV:  58    -0.310539521100E+03    0.53838E-03   -0.15952E-04 35568   0.460E-02    0.610E+00
DAV:  59    -0.310536509264E+03    0.30118E-02   -0.45973E-04 41576   0.958E-02    0.622E+00
DAV:  60    -0.310537852797E+03   -0.13435E-02   -0.33447E-04 36904   0.468E-02    0.624E+00
DAV:  61    -0.310620252016E+03   -0.82399E-01   -0.13015E-01 38536   0.207E+00    0.312E+00
DAV:  62    -0.310654442741E+03   -0.34191E-01   -0.40644E-02 35664   0.627E-01    0.222E+00
DAV:  63    -0.310660841909E+03   -0.63992E-02   -0.81098E-03 35360   0.298E-01    0.194E+00
DAV:  64    -0.310655739716E+03    0.51022E-02   -0.38247E-03 39936   0.248E-01    0.179E+00
DAV:  65    -0.310647952579E+03    0.77871E-02   -0.47120E-03 37816   0.221E-01    0.171E+00
DAV:  66    -0.310647738564E+03    0.21401E-03   -0.30963E-03 39448   0.197E-01    0.156E+00
DAV:  67    -0.310648583350E+03   -0.84479E-03   -0.82089E-04 33864   0.953E-02    0.145E+00
DAV:  68    -0.310650184611E+03   -0.16013E-02   -0.81194E-04 41536   0.104E-01    0.125E+00
DAV:  69    -0.310651555792E+03   -0.13712E-02   -0.25572E-03 37240   0.201E-01    0.930E-01
DAV:  70    -0.310652385753E+03   -0.82996E-03   -0.18517E-03 40624   0.160E-01    0.722E-01
DAV:  71    -0.310653474413E+03   -0.10887E-02   -0.45224E-03 35856   0.293E-01    0.342E-01
DAV:  72    -0.310653829405E+03   -0.35499E-03   -0.13630E-03 33736   0.849E-02    0.358E-01
DAV:  73    -0.310653861682E+03   -0.32277E-04   -0.85850E-05 33464   0.285E-02    0.348E-01
DAV:  74    -0.310653863433E+03   -0.17508E-05   -0.37767E-05 24672   0.160E-02
   1 F= -.31065386E+03 E0= -.31064919E+03  d E =-.310654E+03  mag=    40.0181
       N       E                     dE             d eps       ncg     rms          rms(c)
DAV:   1    -0.310760319032E+03   -0.10646E+00   -0.37901E-02 36016   0.350E-01    0.356E-01
DAV:   2    -0.310760874054E+03   -0.55502E-03   -0.35685E-03 34024   0.161E-01    0.338E-01
DAV:   3    -0.310761018521E+03   -0.14447E-03   -0.13534E-03 35608   0.162E-01    0.305E-01
DAV:   4    -0.310761057388E+03   -0.38867E-04   -0.73201E-04 36016   0.948E-02    0.190E-01
DAV:   5    -0.310761267781E+03   -0.21039E-03   -0.11427E-03 35072   0.908E-02    0.147E-01
DAV:   6    -0.310761420366E+03   -0.15258E-03   -0.99401E-04 36256   0.685E-02    0.103E-01
DAV:   7    -0.310761554264E+03   -0.13390E-03   -0.32371E-04 31592   0.394E-02    0.789E-02
DAV:   8    -0.310761643365E+03   -0.89101E-04   -0.21403E-04 25384   0.217E-02    0.684E-02
DAV:   9    -0.310761679899E+03   -0.36534E-04   -0.58465E-05 23272   0.125E-02    0.764E-02
DAV:  10    -0.310761279474E+03    0.40042E-03   -0.83919E-04 30960   0.500E-02    0.131E-01
DAV:  11    -0.310761140306E+03    0.13917E-03   -0.43736E-04 28776   0.220E-02    0.130E-01
DAV:  12    -0.310761223701E+03   -0.83395E-04   -0.67970E-05 26568   0.150E-02    0.110E-01
DAV:  13    -0.310761332693E+03   -0.10899E-03   -0.57373E-05 27552   0.203E-02    0.922E-02
DAV:  14    -0.310761359645E+03   -0.26952E-04   -0.18265E-05 21896   0.127E-02    0.889E-02
DAV:  15    -0.310761349272E+03    0.10373E-04   -0.51223E-06 19208   0.814E-03    0.927E-02
DAV:  16    -0.310761299147E+03    0.50125E-04   -0.25595E-05 19904   0.935E-03    0.101E-01
DAV:  17    -0.310761286112E+03    0.13036E-04   -0.96422E-06 19512   0.445E-03    0.991E-02
DAV:  18    -0.310761289319E+03   -0.32080E-05   -0.28882E-06 19024   0.298E-03
   2 F= -.31076129E+03 E0= -.31075665E+03  d E =-.107426E+00  mag=    40.0019
       N       E                     dE             d eps       ncg     rms          rms(c)
DAV:   1    -0.312788873494E+03   -0.20276E+01   -0.24641E+01 35512   0.888E+00    0.176E+00
DAV:   2    -0.312885195755E+03   -0.96322E-01   -0.13366E+00 35408   0.186E+00    0.157E+00
DAV:   3    -0.312885392572E+03   -0.19682E-03   -0.61058E-02 43216   0.717E-01    0.178E+00
DAV:   4    -0.312879539626E+03    0.58529E-02   -0.15513E-02 39280   0.516E-01    0.864E-01
DAV:   5    -0.312879296267E+03    0.24336E-03   -0.11445E-02 39624   0.419E-01    0.115E+00
DAV:   6    -0.312877671289E+03    0.16250E-02   -0.86856E-03 39800   0.349E-01    0.393E-01
DAV:   7    -0.312877862559E+03   -0.19127E-03   -0.17199E-03 36264   0.160E-01    0.230E-01
DAV:   8    -0.312877891380E+03   -0.28821E-04   -0.54260E-04 34048   0.946E-02    0.137E-01
DAV:   9    -0.312877940377E+03   -0.48996E-04   -0.30321E-04 34832   0.533E-02    0.963E-02
DAV:  10    -0.312877995053E+03   -0.54676E-04   -0.27882E-04 31800   0.395E-02    0.566E-02
DAV:  11    -0.312878056981E+03   -0.61928E-04   -0.22342E-04 28984   0.273E-02    0.606E-02
DAV:  12    -0.312878110720E+03   -0.53739E-04   -0.20212E-04 26584   0.245E-02    0.468E-02
DAV:  13    -0.312878161392E+03   -0.50672E-04   -0.19818E-04 24816   0.202E-02    0.361E-02
DAV:  14    -0.312878211378E+03   -0.49986E-04   -0.34004E-04 28792   0.228E-02    0.263E-02
DAV:  15    -0.312878253174E+03   -0.41796E-04   -0.63998E-04 32096   0.306E-02    0.309E-02
DAV:  16    -0.312878337975E+03   -0.84801E-04   -0.13359E-04 27352   0.208E-02    0.258E-02
DAV:  17    -0.312878365058E+03   -0.27083E-04   -0.36496E-04 26464   0.216E-02    0.128E-02
DAV:  18    -0.312878418612E+03   -0.53554E-04   -0.82918E-05 24320   0.141E-02    0.210E-02
DAV:  19    -0.312878441287E+03   -0.22676E-04   -0.54668E-05 20728   0.837E-03    0.215E-02
DAV:  20    -0.312878415806E+03    0.25481E-04   -0.42064E-05 26120   0.162E-02    0.398E-02
DAV:  21    -0.312878440813E+03   -0.25007E-04   -0.21527E-05 20992   0.912E-03    0.280E-02
DAV:  22    -0.312878460917E+03   -0.20104E-04   -0.74807E-05 21832   0.122E-02    0.186E-02
DAV:  23    -0.312878479597E+03   -0.18680E-04   -0.91301E-05 21288   0.103E-02    0.151E-02
DAV:  24    -0.312878499045E+03   -0.19448E-04   -0.74038E-05 19560   0.795E-03    0.149E-02
DAV:  25    -0.312878515190E+03   -0.16145E-04   -0.33370E-05 20128   0.607E-03    0.182E-02
DAV:  26    -0.312878513307E+03    0.18828E-05   -0.64874E-06 20568   0.766E-03
   3 F= -.31287851E+03 E0= -.31287386E+03  d E =-.211722E+01  mag=    40.0000
       N       E                     dE             d eps       ncg     rms          rms(c)
DAV:   1    -0.314413858078E+03   -0.15353E+01   -0.81541E+01 37304   0.194E+01    0.312E+00
DAV:   2    -0.314872965794E+03   -0.45911E+00   -0.51353E+00 35392   0.378E+00    0.267E+00
DAV:   3    -0.314876611695E+03   -0.36459E-02   -0.17749E-01 42600   0.123E+00    0.275E+00
DAV:   4    -0.314863917557E+03    0.12694E-01   -0.35531E-02 38816   0.798E-01    0.136E+00
DAV:   5    -0.314861181425E+03    0.27361E-02   -0.26056E-02 38904   0.686E-01    0.186E+00
DAV:   6    -0.314856536678E+03    0.46447E-02   -0.25706E-02 39120   0.602E-01    0.627E-01
DAV:   7    -0.314857052481E+03   -0.51580E-03   -0.46396E-03 36648   0.271E-01    0.495E-01
DAV:   8    -0.314856773442E+03    0.27904E-03   -0.16153E-03 36072   0.174E-01    0.225E-01
DAV:   9    -0.314856753028E+03    0.20414E-04   -0.34634E-04 36448   0.809E-02    0.128E-01
DAV:  10    -0.314856737251E+03    0.15777E-04   -0.15313E-04 33856   0.578E-02    0.763E-02
DAV:  11    -0.314856740973E+03   -0.37221E-05   -0.96617E-05 30160   0.363E-02
   4 F= -.31485674E+03 E0= -.31485189E+03  d E =-.197823E+01  mag=    40.0000
       N       E                     dE             d eps       ncg     rms          rms(c)
DAV:   1    -0.315087418442E+03   -0.23068E+00   -0.91711E+01 37808   0.272E+01    0.381E+00
DAV:   2    -0.315859868202E+03   -0.77245E+00   -0.77175E+00 35472   0.499E+00    0.296E+00
DAV:   3    -0.315877728568E+03   -0.17860E-01   -0.24240E-01 39648   0.144E+00    0.270E+00
DAV:   4    -0.315868645586E+03    0.90830E-02   -0.54125E-02 37784   0.882E-01    0.142E+00
DAV:   5    -0.315864154970E+03    0.44906E-02   -0.16853E-02 36264   0.494E-01    0.122E+00
DAV:   6    -0.315861646252E+03    0.25087E-02   -0.13040E-02 38048   0.509E-01    0.895E-01
DAV:   7    -0.315861078293E+03    0.56796E-03   -0.63970E-03 35384   0.333E-01    0.565E-01
DAV:   8    -0.315860903019E+03    0.17527E-03   -0.30064E-03 37880   0.211E-01    0.267E-01
DAV:   9    -0.315860891210E+03    0.11809E-04   -0.63383E-04 34584   0.991E-02    0.160E-01
DAV:  10    -0.315860865609E+03    0.25600E-04   -0.15284E-04 33416   0.556E-02    0.640E-02
DAV:  11    -0.315860863511E+03    0.20985E-05   -0.55874E-05 28840   0.277E-02
   5 F= -.31586086E+03 E0= -.31585604E+03  d E =-.100412E+01  mag=    40.0000
       N       E                     dE             d eps       ncg     rms          rms(c)
DAV:   1    -0.314282637326E+03    0.15782E+01   -0.19103E+02 38888   0.454E+01    0.746E+00
DAV:   2    -0.316656033694E+03   -0.23734E+01   -0.22819E+01 35216   0.840E+00    0.749E+00
DAV:   3    -0.316720819927E+03   -0.64786E-01   -0.86601E-01 37200   0.313E+00    0.479E+00
DAV:   4    -0.316702934535E+03    0.17885E-01   -0.16755E-01 38024   0.156E+00    0.246E+00
DAV:   5    -0.316696297743E+03    0.66368E-02   -0.43415E-02 35904   0.764E-01    0.169E+00
DAV:   6    -0.316691053827E+03    0.52439E-02   -0.15214E-02 36568   0.527E-01    0.105E+00
DAV:   7    -0.316689913570E+03    0.11403E-02   -0.14641E-02 35984   0.505E-01    0.115E+00
DAV:   8    -0.316688484428E+03    0.14291E-02   -0.96494E-03 36240   0.399E-01    0.375E-01
DAV:   9    -0.316688747899E+03   -0.26347E-03   -0.22844E-03 35576   0.185E-01    0.367E-01
DAV:  10    -0.316688625097E+03    0.12280E-03   -0.60009E-04 34672   0.104E-01    0.937E-02
DAV:  11    -0.316688644912E+03   -0.19815E-04   -0.11113E-04 32080   0.486E-02    0.936E-02
DAV:  12    -0.316688638936E+03    0.59759E-05   -0.78976E-05 31512   0.387E-02
   6 F= -.31668864E+03 E0= -.31668397E+03  d E =-.827775E+00  mag=    40.0000
       N       E                     dE             d eps       ncg     rms          rms(c)
DAV:   1    -0.315671350692E+03    0.10173E+01   -0.15234E+02 36832   0.367E+01    0.499E+00
DAV:   2    -0.317041506154E+03   -0.13702E+01   -0.13338E+01 34456   0.698E+00    0.497E+00
DAV:   3    -0.317072573757E+03   -0.31068E-01   -0.44248E-01 38488   0.228E+00    0.424E+00
DAV:   4    -0.317052227766E+03    0.20346E-01   -0.77803E-02 38704   0.132E+00    0.164E+00
DAV:   5    -0.317048951798E+03    0.32760E-02   -0.15859E-02 35488   0.520E-01    0.121E+00
DAV:   6    -0.317044801301E+03    0.41505E-02   -0.10047E-02 36688   0.448E-01    0.917E-01
DAV:   7    -0.317044159835E+03    0.64147E-03   -0.11645E-02 36960   0.410E-01    0.889E-01
DAV:   8    -0.317043462816E+03    0.69702E-03   -0.70856E-03 39128   0.314E-01    0.333E-01
DAV:   9    -0.317043554785E+03   -0.91969E-04   -0.92360E-04 34408   0.124E-01    0.216E-01
DAV:  10    -0.317043512110E+03    0.42675E-04   -0.22489E-04 34288   0.685E-02    0.106E-01
DAV:  11    -0.317043510959E+03    0.11508E-05   -0.60962E-05 29024   0.351E-02
   7 F= -.31704351E+03 E0= -.31703876E+03  d E =-.354872E+00  mag=    40.0000
       N       E                     dE             d eps       ncg     rms          rms(c)
DAV:   1    -0.315403332082E+03    0.16402E+01   -0.23880E+02 36608   0.473E+01    0.590E+00
DAV:   2    -0.317299617131E+03   -0.18963E+01   -0.18533E+01 34160   0.914E+00    0.659E+00
DAV:   3    -0.317342457154E+03   -0.42840E-01   -0.74031E-01 37304   0.311E+00    0.587E+00
DAV:   4    -0.317305083867E+03    0.37373E-01   -0.17989E-01 37264   0.155E+00    0.200E+00
DAV:   5    -0.317302981044E+03    0.21028E-02   -0.25778E-02 36736   0.643E-01    0.184E+00
DAV:   6    -0.317297546561E+03    0.54345E-02   -0.17245E-02 36112   0.579E-01    0.124E+00
DAV:   7    -0.317296304241E+03    0.12423E-02   -0.19110E-02 36232   0.625E-01    0.109E+00
DAV:   8    -0.317295421469E+03    0.88277E-03   -0.11663E-02 36288   0.441E-01    0.429E-01
DAV:   9    -0.317295471698E+03   -0.50229E-04   -0.23367E-03 33856   0.199E-01    0.330E-01
DAV:  10    -0.317295347765E+03    0.12393E-03   -0.57474E-04 35352   0.106E-01    0.153E-01
DAV:  11    -0.317295329961E+03    0.17804E-04   -0.16707E-04 31872   0.479E-02    0.118E-01
DAV:  12    -0.317295308905E+03    0.21056E-04   -0.81673E-05 31424   0.404E-02    0.482E-02
DAV:  13    -0.317295306419E+03    0.24863E-05   -0.38023E-05 28016   0.276E-02
   8 F= -.31729531E+03 E0= -.31729047E+03  d E =-.251795E+00  mag=    40.0000
       N       E                     dE             d eps       ncg     rms          rms(c)
DAV:   1    -0.312295201424E+03    0.50001E+01   -0.30272E+02 38512   0.649E+01    0.130E+01
DAV:   2    -0.317419464694E+03   -0.51243E+01   -0.47973E+01 34936   0.144E+01    0.225E+01
DAV:   3    -0.317196386346E+03    0.22308E+00   -0.38393E+00 35048   0.769E+00    0.807E+00
DAV:   4    -0.317225930393E+03   -0.29544E-01   -0.61482E-01 35208   0.274E+00    0.626E+00
DAV:   5    -0.317194596661E+03    0.31334E-01   -0.18502E-01 36032   0.161E+00    0.334E+00
DAV:   6    -0.317184755988E+03    0.98407E-02   -0.33524E-02 34384   0.685E-01    0.214E+00
DAV:   7    -0.317184455794E+03    0.30019E-03   -0.25629E-02 36504   0.715E-01    0.228E+00
DAV:   8    -0.317179743918E+03    0.47119E-02   -0.22827E-02 35928   0.660E-01    0.112E+00
DAV:   9    -0.317179648412E+03    0.95506E-04   -0.99484E-03 35136   0.368E-01    0.615E-01
DAV:  10    -0.317179595868E+03    0.52544E-04   -0.28062E-03 34512   0.218E-01    0.374E-01
DAV:  11    -0.317179523314E+03    0.72554E-04   -0.11009E-03 34592   0.126E-01    0.249E-01
DAV:  12    -0.317179511069E+03    0.12245E-04   -0.35983E-04 33776   0.874E-02    0.177E-01
DAV:  13    -0.317179480258E+03    0.30811E-04   -0.25931E-04 32664   0.662E-02    0.809E-02
DAV:  14    -0.317179481091E+03   -0.83326E-06   -0.54470E-05 28560   0.317E-02
   9 F= -.31717948E+03 E0= -.31717476E+03  d E =0.115825E+00  mag=    40.0000
       N       E                     dE             d eps       ncg     rms          rms(c)
DAV:   1    -0.315430337988E+03    0.17491E+01   -0.82648E+01 43608   0.457E+01    0.781E+00
DAV:   2    -0.317479309854E+03   -0.20490E+01   -0.19079E+01 34832   0.868E+00    0.108E+01
DAV:   3    -0.317522131085E+03   -0.42821E-01   -0.13585E+00 35992   0.449E+00    0.670E+00
DAV:   4    -0.317502441077E+03    0.19690E-01   -0.23574E-01 36072   0.184E+00    0.227E+00
DAV:   5    -0.317500338063E+03    0.21030E-02   -0.40705E-02 36368   0.757E-01    0.129E+00
DAV:   6    -0.317497523751E+03    0.28143E-02   -0.16793E-02 35816   0.516E-01    0.106E+00
DAV:   7    -0.317496421502E+03    0.11022E-02   -0.13461E-02 37160   0.468E-01    0.999E-01
DAV:   8    -0.317495385805E+03    0.10357E-02   -0.77470E-03 35168   0.364E-01    0.468E-01
DAV:   9    -0.317495427144E+03   -0.41339E-04   -0.24278E-03 35056   0.202E-01    0.338E-01
DAV:  10    -0.317495316479E+03    0.11066E-03   -0.65417E-04 34536   0.111E-01    0.102E-01
DAV:  11    -0.317495317800E+03   -0.13205E-05   -0.15267E-04 33616   0.532E-02    0.110E-01
DAV:  12    -0.317495300487E+03    0.17313E-04   -0.10069E-04 32160   0.408E-02    0.615E-02
DAV:  13    -0.317495293039E+03    0.74479E-05   -0.37488E-05 24664   0.283E-02
  10 F= -.31749529E+03 E0= -.31749051E+03  d E =-.315812E+00  mag=    40.0000
       N       E                     dE             d eps       ncg     rms          rms(c)
DAV:   1    -0.317475022153E+03    0.20278E-01   -0.24548E+00 42240   0.743E+00    0.101E+00
DAV:   2    -0.317522907605E+03   -0.47885E-01   -0.47541E-01 34496   0.132E+00    0.670E-01
DAV:   3    -0.317525585745E+03   -0.26781E-02   -0.21271E-02 33768   0.415E-01    0.723E-01
DAV:   4    -0.317525071920E+03    0.51382E-03   -0.35085E-03 37208   0.212E-01    0.297E-01
DAV:   5    -0.317524913904E+03    0.15802E-03   -0.62359E-04 35528   0.942E-02    0.238E-01
DAV:   6    -0.317524722790E+03    0.19111E-03   -0.55070E-04 36672   0.100E-01    0.177E-01
DAV:   7    -0.317524690496E+03    0.32294E-04   -0.32825E-04 35840   0.854E-02    0.153E-01
DAV:   8    -0.317524666343E+03    0.24153E-04   -0.19627E-04 34320   0.581E-02    0.531E-02
DAV:   9    -0.317524664349E+03    0.19938E-05   -0.30452E-05 24952   0.224E-02
  11 F= -.31752466E+03 E0= -.31751992E+03  d E =-.293713E-01  mag=    40.0000
       N       E                     dE             d eps       ncg     rms          rms(c)
DAV:   1    -0.317479458249E+03    0.45208E-01   -0.63381E+00 38368   0.954E+00    0.108E+00
DAV:   2    -0.317546039368E+03   -0.66581E-01   -0.64844E-01 34056   0.173E+00    0.776E-01
DAV:   3    -0.317548707337E+03   -0.26680E-02   -0.22518E-02 34672   0.475E-01    0.843E-01
DAV:   4    -0.317547918630E+03    0.78871E-03   -0.34940E-03 37808   0.243E-01    0.281E-01
DAV:   5    -0.317547720138E+03    0.19849E-03   -0.71377E-04 35968   0.106E-01    0.246E-01
DAV:   6    -0.317547538318E+03    0.18182E-03   -0.77004E-04 36488   0.114E-01    0.193E-01
DAV:   7    -0.317547488643E+03    0.49675E-04   -0.48858E-04 36768   0.922E-02    0.140E-01
DAV:   8    -0.317547476983E+03    0.11660E-04   -0.21404E-04 34352   0.533E-02    0.675E-02
DAV:   9    -0.317547473160E+03    0.38222E-05   -0.40355E-05 25416   0.246E-02
  12 F= -.31754747E+03 E0= -.31754273E+03  d E =-.228088E-01  mag=    40.0000
       N       E                     dE             d eps       ncg     rms          rms(c)
DAV:   1    -0.317411725002E+03    0.13575E+00   -0.24688E+01 36152   0.156E+01    0.168E+00
DAV:   2    -0.317584699077E+03   -0.17297E+00   -0.16710E+00 33624   0.286E+00    0.141E+00
DAV:   3    -0.317590052117E+03   -0.53530E-02   -0.51950E-02 37464   0.784E-01    0.166E+00
DAV:   4    -0.317587023094E+03    0.30290E-02   -0.14084E-02 36192   0.447E-01    0.452E-01
DAV:   5    -0.317586848668E+03    0.17443E-03   -0.18794E-03 34400   0.164E-01    0.414E-01
DAV:   6    -0.317586363752E+03    0.48492E-03   -0.12219E-03 36192   0.158E-01    0.248E-01
DAV:   7    -0.317586325719E+03    0.38033E-04   -0.11889E-03 35872   0.144E-01    0.276E-01
DAV:   8    -0.317586263918E+03    0.61802E-04   -0.62114E-04 37296   0.920E-02    0.869E-02
DAV:   9    -0.317586277124E+03   -0.13206E-04   -0.88089E-05 30672   0.352E-02    0.730E-02
DAV:  10    -0.317586271973E+03    0.51507E-05   -0.24481E-05 24096   0.240E-02
  13 F= -.31758627E+03 E0= -.31758152E+03  d E =-.387988E-01  mag=    40.0000
       N       E                     dE             d eps       ncg     rms          rms(c)
DAV:   1    -0.311211057850E+03    0.63752E+01   -0.29375E+02 40776   0.754E+01    0.128E+01
DAV:   2    -0.316863322114E+03   -0.56523E+01   -0.54867E+01 34704   0.154E+01    0.199E+01
DAV:   3    -0.316805906358E+03    0.57416E-01   -0.37921E+00 35208   0.706E+00    0.612E+00
DAV:   4    -0.316851285382E+03   -0.45379E-01   -0.37555E-01 35456   0.224E+00    0.487E+00
DAV:   5    -0.316840470752E+03    0.10815E-01   -0.17800E-01 37320   0.161E+00    0.426E+00
DAV:   6    -0.316821479670E+03    0.18991E-01   -0.10279E-01 36392   0.134E+00    0.290E+00
DAV:   7    -0.316820026471E+03    0.14532E-02   -0.83992E-02 37032   0.107E+00    0.287E+00
DAV:   8    -0.316812682966E+03    0.73435E-02   -0.56913E-02 36032   0.860E-01    0.104E+00
DAV:   9    -0.316812398731E+03    0.28424E-03   -0.10597E-02 35392   0.471E-01    0.522E-01
DAV:  10    -0.316812114901E+03    0.28383E-03   -0.25819E-03 35040   0.222E-01    0.312E-01
DAV:  11    -0.316811970289E+03    0.14461E-03   -0.86907E-04 35160   0.127E-01    0.170E-01
DAV:  12    -0.316811899050E+03    0.71239E-04   -0.36158E-04 33712   0.790E-02    0.153E-01
DAV:  13    -0.316811805969E+03    0.93081E-04   -0.20632E-04 33944   0.609E-02    0.808E-02
DAV:  14    -0.316811773541E+03    0.32428E-04   -0.71787E-05 32768   0.352E-02    0.547E-02
DAV:  15    -0.316811747981E+03    0.25560E-04   -0.32644E-05 25840   0.230E-02    0.298E-02
DAV:  16    -0.316811728601E+03    0.19380E-04   -0.20424E-05 22384   0.137E-02    0.251E-02
DAV:  17    -0.316811716372E+03    0.12229E-04   -0.15840E-05 21240   0.132E-02    0.233E-02
DAV:  18    -0.316811707878E+03    0.84946E-05   -0.16533E-05 20128   0.117E-02
  14 F= -.31681171E+03 E0= -.31680678E+03  d E =0.774564E+00  mag=    40.0000
       N       E                     dE             d eps       ncg     rms          rms(c)
DAV:   1    -0.315023073183E+03    0.17886E+01   -0.11443E+02 43768   0.448E+01    0.103E+01
DAV:   2    -0.317803678059E+03   -0.27806E+01   -0.27190E+01 34984   0.100E+01    0.165E+01
DAV:   3    -0.317667978533E+03    0.13570E+00   -0.22465E+00 34736   0.570E+00    0.737E+00
DAV:   4    -0.317674642573E+03   -0.66640E-02   -0.30414E-01 36272   0.201E+00    0.462E+00
DAV:   5    -0.317663617890E+03    0.11025E-01   -0.12053E-01 36400   0.128E+00    0.331E+00
DAV:   6    -0.317655362791E+03    0.82551E-02   -0.86121E-02 35512   0.121E+00    0.285E+00
DAV:   7    -0.317651520585E+03    0.38422E-02   -0.83690E-02 36344   0.121E+00    0.232E+00
DAV:   8    -0.317645981400E+03    0.55392E-02   -0.31450E-02 35032   0.728E-01    0.748E-01
DAV:   9    -0.317645727999E+03    0.25340E-03   -0.46908E-03 34784   0.297E-01    0.356E-01
DAV:  10    -0.317645574182E+03    0.15382E-03   -0.12209E-03 35280   0.141E-01    0.189E-01
DAV:  11    -0.317645499303E+03    0.74879E-04   -0.38245E-04 35048   0.804E-02    0.106E-01
DAV:  12    -0.317645441915E+03    0.57388E-04   -0.13559E-04 32680   0.532E-02    0.977E-02
DAV:  13    -0.317645385389E+03    0.56526E-04   -0.83181E-05 32632   0.408E-02    0.481E-02
DAV:  14    -0.317645353768E+03    0.31621E-04   -0.35804E-05 28752   0.238E-02    0.428E-02
DAV:  15    -0.317645338165E+03    0.15603E-04   -0.16512E-05 23424   0.161E-02    0.230E-02
DAV:  16    -0.317645326754E+03    0.11411E-04   -0.93641E-06 20352   0.101E-02    0.174E-02
DAV:  17    -0.317645320731E+03    0.60239E-05   -0.49974E-06 20400   0.817E-03
  15 F= -.31764532E+03 E0= -.31764064E+03  d E =-.833613E+00  mag=    40.0000
       N       E                     dE             d eps       ncg     rms          rms(c)
DAV:   1    -0.317622682887E+03    0.22644E-01   -0.19830E+00 44312   0.720E+00    0.923E-01
DAV:   2    -0.317663593013E+03   -0.40910E-01   -0.40532E-01 34784   0.122E+00    0.557E-01
DAV:   3    -0.317666030148E+03   -0.24371E-02   -0.18034E-02 33744   0.370E-01    0.576E-01
DAV:   4    -0.317665683242E+03    0.34691E-03   -0.31455E-03 37552   0.188E-01    0.276E-01
DAV:   5    -0.317665527284E+03    0.15596E-03   -0.43931E-04 35888   0.858E-02    0.196E-01
DAV:   6    -0.317665403311E+03    0.12397E-03   -0.39197E-04 37608   0.911E-02    0.177E-01
DAV:   7    -0.317665347186E+03    0.56124E-04   -0.23242E-04 35800   0.760E-02    0.993E-02
DAV:   8    -0.317665340188E+03    0.69990E-05   -0.11294E-04 33208   0.444E-02    0.610E-02
DAV:   9    -0.317665333780E+03    0.64079E-05   -0.29671E-05 23816   0.231E-02
  16 F= -.31766533E+03 E0= -.31766067E+03  d E =-.200130E-01  mag=    40.0000
       N       E                     dE             d eps       ncg     rms          rms(c)
DAV:   1    -0.317647881087E+03    0.17459E-01   -0.24216E+00 39720   0.683E+00    0.818E-01
DAV:   2    -0.317680496820E+03   -0.32616E-01   -0.31589E-01 34312   0.121E+00    0.591E-01
DAV:   3    -0.317682146042E+03   -0.16492E-02   -0.13426E-02 33944   0.372E-01    0.689E-01
DAV:   4    -0.317681717894E+03    0.42815E-03   -0.24693E-03 36552   0.183E-01    0.261E-01
DAV:   5    -0.317681665326E+03    0.52567E-04   -0.62749E-04 35808   0.922E-02    0.238E-01
DAV:   6    -0.317681554829E+03    0.11050E-03   -0.56498E-04 35736   0.102E-01    0.145E-01
DAV:   7    -0.317681548343E+03    0.64860E-05   -0.31908E-04 35832   0.736E-02    0.104E-01
DAV:   8    -0.317681539195E+03    0.91473E-05   -0.12409E-04 33232   0.439E-02    0.399E-02
DAV:   9    -0.317681536745E+03    0.24507E-05   -0.22827E-05 23024   0.208E-02
  17 F= -.31768154E+03 E0= -.31767687E+03  d E =-.162030E-01  mag=    40.0000
       N       E                     dE             d eps       ncg     rms          rms(c)
DAV:   1    -0.317669168075E+03    0.12371E-01   -0.23960E+00 36312   0.544E+00    0.718E-01
DAV:   2    -0.317694374373E+03   -0.25206E-01   -0.24382E-01 34208   0.104E+00    0.639E-01
DAV:   3    -0.317695378166E+03   -0.10038E-02   -0.11380E-02 35704   0.346E-01    0.779E-01
DAV:   4    -0.317694799285E+03    0.57888E-03   -0.27678E-03 35328   0.180E-01    0.250E-01
DAV:   5    -0.317694784982E+03    0.14303E-04   -0.35167E-04 35200   0.735E-02    0.193E-01
DAV:   6    -0.317694699826E+03    0.85156E-04   -0.36751E-04 34352   0.865E-02    0.139E-01
DAV:   7    -0.317694713572E+03   -0.13746E-04   -0.33953E-04 36272   0.706E-02    0.126E-01
DAV:   8    -0.317694694780E+03    0.18792E-04   -0.12179E-04 31848   0.457E-02    0.369E-02
DAV:   9    -0.317694695589E+03   -0.80928E-06   -0.17535E-05 23512   0.180E-02
  18 F= -.31769470E+03 E0= -.31769000E+03  d E =-.131588E-01  mag=    40.0000
       N       E                     dE             d eps       ncg     rms          rms(c)
DAV:   1    -0.317620080419E+03    0.74614E-01   -0.13109E+01 35584   0.113E+01    0.133E+00
DAV:   2    -0.317712862540E+03   -0.92782E-01   -0.90119E-01 33872   0.213E+00    0.138E+00
DAV:   3    -0.317715534309E+03   -0.26718E-02   -0.43109E-02 35104   0.668E-01    0.150E+00
DAV:   4    -0.317713338203E+03    0.21961E-02   -0.10727E-02 35024   0.351E-01    0.476E-01
DAV:   5    -0.317713265119E+03    0.73084E-04   -0.15626E-03 36680   0.155E-01    0.357E-01
DAV:   6    -0.317712941399E+03    0.32372E-03   -0.13440E-03 34536   0.163E-01    0.253E-01
DAV:   7    -0.317712990648E+03   -0.49249E-04   -0.12223E-03 37664   0.131E-01    0.228E-01
DAV:   8    -0.317712940210E+03    0.50439E-04   -0.38890E-04 35088   0.822E-02    0.755E-02
DAV:   9    -0.317712942373E+03   -0.21632E-05   -0.54496E-05 30168   0.313E-02
  19 F= -.31771294E+03 E0= -.31770820E+03  d E =-.182468E-01  mag=    40.0000
       N       E                     dE             d eps       ncg     rms          rms(c)
DAV:   1    -0.317258485423E+03    0.45445E+00   -0.93279E+01 36440   0.288E+01    0.257E+00
DAV:   2    -0.317752727907E+03   -0.49424E+00   -0.48563E+00 32760   0.518E+00    0.237E+00
DAV:   3    -0.317765880081E+03   -0.13152E-01   -0.17234E-01 34928   0.133E+00    0.303E+00
DAV:   4    -0.317755595374E+03    0.10285E-01   -0.47789E-02 35440   0.723E-01    0.706E-01
DAV:   5    -0.317755375069E+03    0.22030E-03   -0.58148E-03 35320   0.295E-01    0.701E-01
DAV:   6    -0.317754031294E+03    0.13438E-02   -0.37643E-03 34592   0.264E-01    0.385E-01
DAV:   7    -0.317753944355E+03    0.86939E-04   -0.28232E-03 35504   0.219E-01    0.403E-01
DAV:   8    -0.317753857078E+03    0.87277E-04   -0.16641E-03 37576   0.162E-01    0.153E-01
DAV:   9    -0.317753882668E+03   -0.25590E-04   -0.35613E-04 34456   0.640E-02    0.956E-02
DAV:  10    -0.317753880116E+03    0.25521E-05   -0.78865E-05 30576   0.367E-02
  20 F= -.31775388E+03 E0= -.31774910E+03  d E =-.409377E-01  mag=    40.0000
       N       E                     dE             d eps       ncg     rms          rms(c)
DAV:   1    -0.314170645506E+03    0.35832E+01   -0.25085E+02 39168   0.645E+01    0.857E+00
DAV:   2    -0.317354853013E+03   -0.31842E+01   -0.31404E+01 35048   0.123E+01    0.890E+00
DAV:   3    -0.317431984300E+03   -0.77131E-01   -0.13025E+00 34392   0.439E+00    0.567E+00
DAV:   4    -0.317411834667E+03    0.20150E-01   -0.19577E-01 37064   0.179E+00    0.285E+00
DAV:   5    -0.317407733187E+03    0.41015E-02   -0.98526E-02 35792   0.106E+00    0.319E+00
DAV:   6    -0.317396305125E+03    0.11428E-01   -0.46473E-02 36744   0.885E-01    0.189E+00
DAV:   7    -0.317394271846E+03    0.20333E-02   -0.32611E-02 36672   0.829E-01    0.136E+00
DAV:   8    -0.317393327265E+03    0.94458E-03   -0.23680E-02 36368   0.616E-01    0.754E-01
DAV:   9    -0.317392830456E+03    0.49681E-03   -0.49018E-03 34392   0.332E-01    0.419E-01
DAV:  10    -0.317392604001E+03    0.22646E-03   -0.10393E-03 35384   0.156E-01    0.160E-01
DAV:  11    -0.317392539598E+03    0.64403E-04   -0.30831E-04 34968   0.709E-02    0.937E-02
DAV:  12    -0.317392504948E+03    0.34650E-04   -0.13403E-04 33912   0.489E-02    0.730E-02
DAV:  13    -0.317392474551E+03    0.30397E-04   -0.67943E-05 31616   0.353E-02    0.533E-02
DAV:  14    -0.317392464045E+03    0.10506E-04   -0.29428E-05 27032   0.230E-02    0.321E-02
DAV:  15    -0.317392459551E+03    0.44935E-05   -0.11516E-05 21000   0.134E-02
  21 F= -.31739246E+03 E0= -.31738783E+03  d E =0.361421E+00  mag=    40.0000
       N       E                     dE             d eps       ncg     rms          rms(c)
DAV:   1    -0.316835007906E+03    0.55746E+00   -0.39201E+01 44360   0.327E+01    0.432E+00
DAV:   2    -0.317685936604E+03   -0.85093E+00   -0.83881E+00 34728   0.561E+00    0.292E+00
DAV:   3    -0.317731419641E+03   -0.45483E-01   -0.33687E-01 33672   0.166E+00    0.223E+00
DAV:   4    -0.317725896922E+03    0.55227E-02   -0.48783E-02 37536   0.846E-01    0.116E+00
DAV:   5    -0.317722930211E+03    0.29667E-02   -0.93079E-03 37104   0.383E-01    0.849E-01
DAV:   6    -0.317721354503E+03    0.15757E-02   -0.81603E-03 37648   0.403E-01    0.852E-01
DAV:   7    -0.317720224751E+03    0.11298E-02   -0.67060E-03 36696   0.346E-01    0.519E-01
DAV:   8    -0.317720134968E+03    0.89783E-04   -0.34819E-03 36096   0.214E-01    0.345E-01
DAV:   9    -0.317720021855E+03    0.11311E-03   -0.70832E-04 34520   0.114E-01    0.129E-01
DAV:  10    -0.317720002041E+03    0.19814E-04   -0.19149E-04 34248   0.593E-02    0.858E-02
DAV:  11    -0.317719982328E+03    0.19713E-04   -0.57879E-05 29824   0.334E-02    0.573E-02
DAV:  12    -0.317719966753E+03    0.15575E-04   -0.29453E-05 26352   0.267E-02    0.363E-02
DAV:  13    -0.317719959913E+03    0.68399E-05   -0.17973E-05 23416   0.171E-02
  22 F= -.31771996E+03 E0= -.31771529E+03  d E =-.327500E+00  mag=    40.0000
       N       E                     dE             d eps       ncg     rms          rms(c)
DAV:   1    -0.317572271120E+03    0.14770E+00   -0.12667E+01 42728   0.160E+01    0.222E+00
DAV:   2    -0.317775780976E+03   -0.20351E+00   -0.19655E+00 34448   0.282E+00    0.145E+00
DAV:   3    -0.317786868774E+03   -0.11088E-01   -0.67747E-02 33496   0.825E-01    0.163E+00
DAV:   4    -0.317784584931E+03    0.22838E-02   -0.12636E-02 37088   0.408E-01    0.695E-01
DAV:   5    -0.317784073299E+03    0.51163E-03   -0.37669E-03 36400   0.239E-01    0.668E-01
DAV:   6    -0.317783344252E+03    0.72905E-03   -0.45938E-03 35464   0.286E-01    0.396E-01
DAV:   7    -0.317783277765E+03    0.66487E-04   -0.18761E-03 35928   0.187E-01    0.278E-01
DAV:   8    -0.317783215397E+03    0.62368E-04   -0.89359E-04 35832   0.114E-01    0.133E-01
DAV:   9    -0.317783197470E+03    0.17927E-04   -0.18133E-04 33784   0.528E-02    0.775E-02
DAV:  10    -0.317783185577E+03    0.11892E-04   -0.42848E-05 26864   0.306E-02    0.334E-02
DAV:  11    -0.317783178584E+03    0.69929E-05   -0.11786E-05 21112   0.161E-02
  23 F= -.31778318E+03 E0= -.31777848E+03  d E =-.632187E-01  mag=    40.0000
       N       E                     dE             d eps       ncg     rms          rms(c)
DAV:   1    -0.317783774864E+03   -0.58929E-03   -0.19450E+00 37264   0.486E+00    0.641E-01
DAV:   2    -0.317800664908E+03   -0.16890E-01   -0.16470E-01 34536   0.880E-01    0.552E-01
DAV:   3    -0.317801314690E+03   -0.64978E-03   -0.79943E-03 35240   0.298E-01    0.600E-01
DAV:   4    -0.317800977097E+03    0.33759E-03   -0.17911E-03 35608   0.152E-01    0.250E-01
DAV:   5    -0.317800949060E+03    0.28038E-04   -0.61194E-04 35360   0.887E-02    0.222E-01
DAV:   6    -0.317800876460E+03    0.72600E-04   -0.47858E-04 35280   0.925E-02    0.139E-01
DAV:   7    -0.317800884256E+03   -0.77968E-05   -0.31384E-04 35624   0.692E-02    0.120E-01
DAV:   8    -0.317800867795E+03    0.16462E-04   -0.97830E-05 30352   0.410E-02    0.393E-02
DAV:   9    -0.317800867350E+03    0.44439E-06   -0.16416E-05 22376   0.173E-02
  24 F= -.31780087E+03 E0= -.31779616E+03  d E =-.176888E-01  mag=    40.0000
       N       E                     dE             d eps       ncg     rms          rms(c)
DAV:   1    -0.317743683511E+03    0.57184E-01   -0.10390E+01 36480   0.104E+01    0.135E+00
DAV:   2    -0.317821474562E+03   -0.77791E-01   -0.76147E-01 34672   0.194E+00    0.124E+00
DAV:   3    -0.317823964689E+03   -0.24901E-02   -0.37396E-02 35016   0.636E-01    0.132E+00
DAV:   4    -0.317822322507E+03    0.16422E-02   -0.89701E-03 35808   0.334E-01    0.557E-01
DAV:   5    -0.317822157539E+03    0.16497E-03   -0.29425E-03 36824   0.196E-01    0.474E-01
DAV:   6    -0.317821797173E+03    0.36037E-03   -0.22518E-03 35280   0.197E-01    0.314E-01
DAV:   7    -0.317821820155E+03   -0.22982E-04   -0.15025E-03 36784   0.152E-01    0.258E-01
DAV:   8    -0.317821751027E+03    0.69128E-04   -0.45591E-04 34744   0.884E-02    0.882E-02
DAV:   9    -0.317821747769E+03    0.32582E-05   -0.79451E-05 29840   0.372E-02
  25 F= -.31782175E+03 E0= -.31781702E+03  d E =-.208804E-01  mag=    40.0000
       N       E                     dE             d eps       ncg     rms          rms(c)
DAV:   1    -0.317817034299E+03    0.47167E-02   -0.22460E+00 36416   0.427E+00    0.433E-01
DAV:   2    -0.317827676158E+03   -0.10642E-01   -0.10492E-01 33432   0.764E-01    0.429E-01
DAV:   3    -0.317827896442E+03   -0.22028E-03   -0.42149E-03 34960   0.217E-01    0.453E-01
DAV:   4    -0.317827695797E+03    0.20065E-03   -0.11317E-03 35056   0.116E-01    0.174E-01
DAV:   5    -0.317827679459E+03    0.16338E-04   -0.26882E-04 35648   0.621E-02    0.140E-01
DAV:   6    -0.317827651496E+03    0.27963E-04   -0.20411E-04 34112   0.617E-02    0.112E-01
DAV:   7    -0.317827651739E+03   -0.24326E-06   -0.17124E-04 34808   0.504E-02    0.846E-02
DAV:   8    -0.317827646067E+03    0.56715E-05   -0.41535E-05 25600   0.271E-02
  26 F= -.31782765E+03 E0= -.31782289E+03  d E =-.589830E-02  mag=    40.0000
       N       E                     dE             d eps       ncg     rms          rms(c)
DAV:   1    -0.317616317065E+03    0.21133E+00   -0.47501E+01 35608   0.200E+01    0.176E+00
DAV:   2    -0.317856182641E+03   -0.23987E+00   -0.23635E+00 32696   0.357E+00    0.143E+00
DAV:   3    -0.317862162108E+03   -0.59795E-02   -0.73437E-02 34504   0.864E-01    0.183E+00
DAV:   4    -0.317858116081E+03    0.40460E-02   -0.20996E-02 35216   0.469E-01    0.457E-01
DAV:   5    -0.317857910991E+03    0.20509E-03   -0.22556E-03 34680   0.179E-01    0.475E-01
DAV:   6    -0.317857386119E+03    0.52487E-03   -0.17609E-03 36424   0.175E-01    0.300E-01
DAV:   7    -0.317857314974E+03    0.71145E-04   -0.13852E-03 36048   0.158E-01    0.313E-01
DAV:   8    -0.317857244322E+03    0.70652E-04   -0.69447E-04 36880   0.103E-01    0.793E-02
DAV:   9    -0.317857270171E+03   -0.25849E-04   -0.18625E-04 33928   0.438E-02    0.745E-02
DAV:  10    -0.317857270529E+03   -0.35751E-06   -0.34926E-05 24736   0.246E-02
  27 F= -.31785727E+03 E0= -.31785244E+03  d E =-.296245E-01  mag=    40.0000
       N       E                     dE             d eps       ncg     rms          rms(c)
DAV:   1    -0.314911027126E+03    0.29462E+01   -0.28417E+02 37448   0.534E+01    0.734E+00
DAV:   2    -0.317661946162E+03   -0.27509E+01   -0.27399E+01 35328   0.107E+01    0.853E+00
DAV:   3    -0.317691474339E+03   -0.29528E-01   -0.97302E-01 35080   0.340E+00    0.465E+00
DAV:   4    -0.317677794680E+03    0.13680E-01   -0.15744E-01 36464   0.155E+00    0.315E+00
DAV:   5    -0.317666988352E+03    0.10806E-01   -0.52099E-02 36128   0.834E-01    0.183E+00
DAV:   6    -0.317658840029E+03    0.81483E-02   -0.31459E-02 35480   0.718E-01    0.148E+00
DAV:   7    -0.317656146477E+03    0.26936E-02   -0.39374E-02 36672   0.730E-01    0.149E+00
DAV:   8    -0.317654149670E+03    0.19968E-02   -0.20904E-02 38464   0.513E-01    0.880E-01
DAV:   9    -0.317653744403E+03    0.40527E-03   -0.73339E-03 35264   0.324E-01    0.458E-01
DAV:  10    -0.317653521323E+03    0.22308E-03   -0.19317E-03 35432   0.174E-01    0.143E-01
DAV:  11    -0.317653504804E+03    0.16519E-04   -0.28930E-04 34152   0.741E-02    0.133E-01
DAV:  12    -0.317653468229E+03    0.36575E-04   -0.12033E-04 34104   0.507E-02    0.679E-02
DAV:  13    -0.317653445823E+03    0.22406E-04   -0.59241E-05 30920   0.327E-02    0.430E-02
DAV:  14    -0.317653437854E+03    0.79695E-05   -0.29688E-05 27544   0.244E-02
  28 F= -.31765344E+03 E0= -.31764859E+03  d E =0.203833E+00  mag=    40.0000
       N       E                     dE             d eps       ncg     rms          rms(c)
DAV:   1    -0.316681673225E+03    0.97177E+00   -0.52517E+01 44232   0.341E+01    0.546E+00
DAV:   2    -0.317832036456E+03   -0.11504E+01   -0.11116E+01 34712   0.622E+00    0.645E+00
DAV:   3    -0.317877891785E+03   -0.45855E-01   -0.73487E-01 35096   0.295E+00    0.525E+00
DAV:   4    -0.317857277575E+03    0.20614E-01   -0.15063E-01 35048   0.135E+00    0.182E+00
DAV:   5    -0.317855085999E+03    0.21916E-02   -0.29389E-02 36176   0.619E-01    0.125E+00
DAV:   6    -0.317851027651E+03    0.40583E-02   -0.11014E-02 35384   0.432E-01    0.848E-01
DAV:   7    -0.317849502656E+03    0.15250E-02   -0.98376E-03 36200   0.412E-01    0.812E-01
DAV:   8    -0.317848662195E+03    0.84046E-03   -0.61187E-03 35792   0.330E-01    0.322E-01
DAV:   9    -0.317848660039E+03    0.21560E-05   -0.12882E-03 35104   0.149E-01    0.224E-01
DAV:  10    -0.317848581296E+03    0.78743E-04   -0.30687E-04 35152   0.798E-02    0.733E-02
DAV:  11    -0.317848552856E+03    0.28440E-04   -0.73137E-05 32240   0.365E-02    0.545E-02
DAV:  12    -0.317848532004E+03    0.20852E-04   -0.39535E-05 30048   0.291E-02    0.384E-02
DAV:  13    -0.317848517241E+03    0.14763E-04   -0.22506E-05 24360   0.200E-02    0.304E-02
DAV:  14    -0.317848511852E+03    0.53893E-05   -0.11219E-05 22168   0.129E-02
  29 F= -.31784851E+03 E0= -.31784375E+03  d E =-.195074E+00  mag=    40.0000
       N       E                     dE             d eps       ncg     rms          rms(c)
DAV:   1    -0.317837789124E+03    0.10728E-01   -0.18369E+00 43368   0.598E+00    0.860E-01
DAV:   2    -0.317866104388E+03   -0.28315E-01   -0.27467E-01 34064   0.100E+00    0.529E-01
DAV:   3    -0.317868029939E+03   -0.19256E-02   -0.11264E-02 33216   0.322E-01    0.603E-01
DAV:   4    -0.317867719146E+03    0.31079E-03   -0.17772E-03 36952   0.154E-01    0.256E-01
DAV:   5    -0.317867650148E+03    0.68998E-04   -0.66120E-04 35288   0.924E-02    0.263E-01
DAV:   6    -0.317867541264E+03    0.10888E-03   -0.76025E-04 35424   0.108E-01    0.153E-01
DAV:   7    -0.317867523533E+03    0.17731E-04   -0.23410E-04 34256   0.680E-02    0.911E-02
DAV:   8    -0.317867517805E+03    0.57278E-05   -0.11633E-04 32664   0.409E-02    0.486E-02
DAV:   9    -0.317867515296E+03    0.25086E-05   -0.28004E-05 23720   0.211E-02
  30 F= -.31786752E+03 E0= -.31786273E+03  d E =-.190034E-01  mag=    40.0000
       N       E                     dE             d eps       ncg     rms          rms(c)
DAV:   1    -0.317877634384E+03   -0.10117E-01   -0.47808E+00 36208   0.548E+00    0.817E-01
DAV:   2    -0.317898683872E+03   -0.21049E-01   -0.20810E-01 34816   0.102E+00    0.804E-01
DAV:   3    -0.317898951406E+03   -0.26753E-03   -0.11111E-02 35528   0.383E-01    0.802E-01
DAV:   4    -0.317898411193E+03    0.54021E-03   -0.30294E-03 35504   0.196E-01    0.419E-01
DAV:   5    -0.317898350133E+03    0.61060E-04   -0.19153E-03 36792   0.154E-01    0.380E-01
DAV:   6    -0.317898223603E+03    0.12653E-03   -0.11024E-03 34304   0.129E-01    0.201E-01
DAV:   7    -0.317898228043E+03   -0.44402E-05   -0.53308E-04 35288   0.877E-02    0.130E-01
DAV:   8    -0.317898209311E+03    0.18732E-04   -0.13141E-04 30384   0.473E-02    0.577E-02
DAV:   9    -0.317898205884E+03    0.34275E-05   -0.20996E-05 23224   0.207E-02
  31 F= -.31789821E+03 E0= -.31789341E+03  d E =-.306906E-01  mag=    40.0000
       N       E                     dE             d eps       ncg     rms          rms(c)
DAV:   1    -0.317870842299E+03    0.27367E-01   -0.10780E+01 35368   0.807E+00    0.123E+00
DAV:   2    -0.317926974715E+03   -0.56132E-01   -0.55571E-01 35160   0.156E+00    0.114E+00
DAV:   3    -0.317927864162E+03   -0.88945E-03   -0.24658E-02 35904   0.542E-01    0.120E+00
DAV:   4    -0.317926501116E+03    0.13630E-02   -0.69268E-03 35504   0.298E-01    0.572E-01
DAV:   5    -0.317926402372E+03    0.98744E-04   -0.39474E-03 36336   0.218E-01    0.555E-01
DAV:   6    -0.317926019658E+03    0.38271E-03   -0.26509E-03 34824   0.197E-01    0.285E-01
DAV:   7    -0.317926054206E+03   -0.34549E-04   -0.12079E-03 35568   0.132E-01    0.209E-01
DAV:   8    -0.317926008588E+03    0.45618E-04   -0.36038E-04 32888   0.758E-02    0.941E-02
DAV:   9    -0.317926000057E+03    0.85316E-05   -0.51222E-05 26336   0.311E-02
  32 F= -.31792600E+03 E0= -.31792118E+03  d E =-.277942E-01  mag=    40.0000
       N       E                     dE             d eps       ncg     rms          rms(c)
DAV:   1    -0.317913725830E+03    0.12283E-01   -0.44320E+00 35472   0.562E+00    0.741E-01
DAV:   2    -0.317934157752E+03   -0.20432E-01   -0.20186E-01 34592   0.104E+00    0.750E-01
DAV:   3    -0.317934480489E+03   -0.32274E-03   -0.10478E-02 35024   0.346E-01    0.768E-01
DAV:   4    -0.317933955910E+03    0.52458E-03   -0.33115E-03 35224   0.195E-01    0.363E-01
DAV:   5    -0.317933881082E+03    0.74828E-04   -0.12914E-03 36928   0.130E-01    0.273E-01
DAV:   6    -0.317933819841E+03    0.61241E-04   -0.73268E-04 34152   0.110E-01    0.193E-01
DAV:   7    -0.317933818381E+03    0.14601E-05   -0.51057E-04 35880   0.844E-02    0.138E-01
DAV:   8    -0.317933799886E+03    0.18495E-04   -0.11829E-04 30040   0.443E-02    0.560E-02
DAV:   9    -0.317933797027E+03    0.28591E-05   -0.20551E-05 23000   0.208E-02
  33 F= -.31793380E+03 E0= -.31792894E+03  d E =-.779697E-02  mag=    40.0000
       N       E                     dE             d eps       ncg     rms          rms(c)
DAV:   1    -0.317930329613E+03    0.34703E-02   -0.14116E+00 36088   0.373E+00    0.354E-01
DAV:   2    -0.317939166473E+03   -0.88369E-02   -0.87415E-02 33304   0.679E-01    0.255E-01
DAV:   3    -0.317939443525E+03   -0.27705E-03   -0.27400E-03 34352   0.164E-01    0.312E-01
DAV:   4    -0.317939326648E+03    0.11688E-03   -0.69372E-04 35880   0.867E-02    0.970E-02
DAV:   5    -0.317939311445E+03    0.15203E-04   -0.67303E-05 30976   0.329E-02    0.791E-02
DAV:   6    -0.317939296474E+03    0.14971E-04   -0.77402E-05 32464   0.370E-02    0.781E-02
DAV:   7    -0.317939289983E+03    0.64906E-05   -0.66262E-05 30872   0.334E-02
  34 F= -.31793929E+03 E0= -.31793443E+03  d E =-.549296E-02  mag=    40.0000
       N       E                     dE             d eps       ncg     rms          rms(c)
DAV:   1    -0.317754857437E+03    0.18444E+00   -0.41792E+01 35184   0.185E+01    0.167E+00
DAV:   2    -0.317966290783E+03   -0.21143E+00   -0.20909E+00 33024   0.334E+00    0.135E+00
DAV:   3    -0.317971698429E+03   -0.54076E-02   -0.67972E-02 34544   0.832E-01    0.175E+00
DAV:   4    -0.317967837800E+03    0.38606E-02   -0.20959E-02 35840   0.457E-01    0.439E-01
DAV:   5    -0.317967614264E+03    0.22354E-03   -0.16365E-03 33888   0.157E-01    0.396E-01
DAV:   6    -0.317967288306E+03    0.32596E-03   -0.16469E-03 38080   0.168E-01    0.355E-01
DAV:   7    -0.317967140663E+03    0.14764E-03   -0.12949E-03 35008   0.154E-01    0.261E-01
DAV:   8    -0.317967099941E+03    0.40723E-04   -0.56282E-04 36256   0.974E-02    0.766E-02
DAV:   9    -0.317967126746E+03   -0.26806E-04   -0.18556E-04 32792   0.436E-02    0.102E-01
DAV:  10    -0.317967119817E+03    0.69291E-05   -0.45089E-05 26552   0.284E-02
  35 F= -.31796712E+03 E0= -.31796223E+03  d E =-.278298E-01  mag=    40.0000
       N       E                     dE             d eps       ncg     rms          rms(c)
DAV:   1    -0.316332433899E+03    0.16347E+01   -0.32183E+02 35080   0.500E+01    0.465E+00
DAV:   2    -0.318043976201E+03   -0.17115E+01   -0.17147E+01 32904   0.929E+00    0.363E+00
DAV:   3    -0.318066378320E+03   -0.22402E-01   -0.42827E-01 35032   0.225E+00    0.449E+00
DAV:   4    -0.318040348345E+03    0.26030E-01   -0.14843E-01 36144   0.117E+00    0.129E+00
DAV:   5    -0.318037320852E+03    0.30275E-02   -0.15168E-02 34008   0.487E-01    0.115E+00
DAV:   6    -0.318034488108E+03    0.28327E-02   -0.96329E-03 37528   0.405E-01    0.817E-01
DAV:   7    -0.318032654636E+03    0.18335E-02   -0.54167E-03 34696   0.320E-01    0.489E-01
DAV:   8    -0.318032587429E+03    0.67207E-04   -0.38794E-03 37680   0.256E-01    0.384E-01
DAV:   9    -0.318032656953E+03   -0.69524E-04   -0.17677E-03 34808   0.153E-01    0.275E-01
DAV:  10    -0.318032634934E+03    0.22019E-04   -0.64266E-04 34880   0.910E-02    0.187E-01
DAV:  11    -0.318032615030E+03    0.19904E-04   -0.15822E-04 31736   0.502E-02    0.623E-02
DAV:  12    -0.318032615783E+03   -0.75263E-06   -0.33761E-05 24488   0.265E-02
  36 F= -.31803262E+03 E0= -.31802765E+03  d E =-.654960E-01  mag=    40.0000
       N       E                     dE             d eps       ncg     rms          rms(c)
DAV:   1    -0.317492085550E+03    0.54053E+00   -0.26328E+01 42112   0.235E+01    0.325E+00
DAV:   2    -0.317947805013E+03   -0.45572E+00   -0.45336E+00 34856   0.411E+00    0.258E+00
DAV:   3    -0.317974190750E+03   -0.26386E-01   -0.21403E-01 34080   0.147E+00    0.200E+00
DAV:   4    -0.317969215702E+03    0.49750E-02   -0.36152E-02 35960   0.761E-01    0.869E-01
DAV:   5    -0.317967465173E+03    0.17505E-02   -0.81923E-03 35128   0.316E-01    0.721E-01
DAV:   6    -0.317965900383E+03    0.15648E-02   -0.60222E-03 36936   0.306E-01    0.580E-01
DAV:   7    -0.317965193980E+03    0.70640E-03   -0.37724E-03 36568   0.247E-01    0.421E-01
DAV:   8    -0.317965007646E+03    0.18633E-03   -0.17734E-03 35640   0.163E-01    0.198E-01
DAV:   9    -0.317964978898E+03    0.28748E-04   -0.37765E-04 34512   0.766E-02    0.142E-01
DAV:  10    -0.317964948818E+03    0.30081E-04   -0.15602E-04 33848   0.495E-02    0.735E-02
DAV:  11    -0.317964935230E+03    0.13588E-04   -0.70550E-05 27016   0.310E-02    0.687E-02
DAV:  12    -0.317964919780E+03    0.15450E-04   -0.33996E-05 25248   0.253E-02    0.331E-02
DAV:  13    -0.317964910854E+03    0.89253E-05   -0.16112E-05 21304   0.156E-02
  37 F= -.31796491E+03 E0= -.31795995E+03  d E =0.677049E-01  mag=    40.0000
       N       E                     dE             d eps       ncg     rms          rms(c)
DAV:   1    -0.317941373269E+03    0.23547E-01   -0.36279E+00 44584   0.928E+00    0.140E+00
DAV:   2    -0.318025062072E+03   -0.83689E-01   -0.83334E-01 34880   0.159E+00    0.113E+00
DAV:   3    -0.318030935370E+03   -0.58733E-02   -0.50818E-02 34072   0.693E-01    0.147E+00
DAV:   4    -0.318028734117E+03    0.22013E-02   -0.11640E-02 35848   0.365E-01    0.439E-01
DAV:   5    -0.318028590767E+03    0.14335E-03   -0.13410E-03 37112   0.150E-01    0.344E-01
DAV:   6    -0.318028189284E+03    0.40148E-03   -0.12877E-03 36880   0.151E-01    0.217E-01
DAV:   7    -0.318028141134E+03    0.48150E-04   -0.62084E-04 36024   0.111E-01    0.192E-01
DAV:   8    -0.318028106764E+03    0.34370E-04   -0.29447E-04 33824   0.716E-02    0.727E-02
DAV:   9    -0.318028104005E+03    0.27587E-05   -0.55990E-05 27752   0.321E-02
  38 F= -.31802810E+03 E0= -.31802316E+03  d E =-.631932E-01  mag=    40.0000
       N       E                     dE             d eps       ncg     rms          rms(c)
DAV:   1    -0.318017145951E+03    0.10961E-01   -0.11697E+00 43928   0.533E+00    0.781E-01
DAV:   2    -0.318043565304E+03   -0.26419E-01   -0.26349E-01 35016   0.904E-01    0.523E-01
DAV:   3    -0.318045487053E+03   -0.19217E-02   -0.14185E-02 33920   0.344E-01    0.697E-01
DAV:   4    -0.318044951075E+03    0.53598E-03   -0.29923E-03 36112   0.183E-01    0.215E-01
DAV:   5    -0.318044872395E+03    0.78680E-04   -0.35107E-04 34848   0.734E-02    0.164E-01
DAV:   6    -0.318044742235E+03    0.13016E-03   -0.32435E-04 36080   0.761E-02    0.110E-01
DAV:   7    -0.318044702556E+03    0.39679E-04   -0.15077E-04 34808   0.580E-02    0.737E-02
DAV:   8    -0.318044697611E+03    0.49455E-05   -0.76598E-05 32312   0.355E-02
  39 F= -.31804470E+03 E0= -.31803976E+03  d E =-.165936E-01  mag=    40.0000
       N       E                     dE             d eps       ncg     rms          rms(c)
DAV:   1    -0.318037415585E+03    0.72870E-02   -0.56983E-01 41656   0.365E+00    0.506E-01
DAV:   2    -0.318049143990E+03   -0.11728E-01   -0.11683E-01 34904   0.633E-01    0.314E-01
DAV:   3    -0.318049935800E+03   -0.79181E-03   -0.57614E-03 34240   0.208E-01    0.411E-01
DAV:   4    -0.318049744614E+03    0.19119E-03   -0.11532E-03 35992   0.107E-01    0.128E-01
DAV:   5    -0.318049708367E+03    0.36247E-04   -0.12912E-04 32688   0.448E-02    0.102E-01
DAV:   6    -0.318049659653E+03    0.48715E-04   -0.11413E-04 35208   0.475E-02    0.867E-02
DAV:   7    -0.318049641026E+03    0.18626E-04   -0.89597E-05 34328   0.425E-02    0.821E-02
DAV:   8    -0.318049632667E+03    0.83594E-05   -0.52927E-05 29184   0.289E-02
  40 F= -.31804963E+03 E0= -.31804470E+03  d E =-.493506E-02  mag=    40.0000
       N       E                     dE             d eps       ncg     rms          rms(c)
DAV:   1    -0.318050132061E+03   -0.49103E-03   -0.20780E-01 36120   0.157E+00    0.180E-01
DAV:   2    -0.318051963235E+03   -0.18312E-02   -0.18364E-02 34176   0.291E-01    0.105E-01
DAV:   3    -0.318052024005E+03   -0.60770E-04   -0.46735E-04 34432   0.648E-02    0.980E-02
DAV:   4    -0.318052013469E+03    0.10536E-04   -0.59170E-05 30808   0.324E-02    0.509E-02
DAV:   5    -0.318052005359E+03    0.81095E-05   -0.19681E-05 23712   0.192E-02
  41 F= -.31805201E+03 E0= -.31804707E+03  d E =-.237269E-02  mag=    40.0000
       N       E                     dE             d eps       ncg     rms          rms(c)
DAV:   1    -0.318051053204E+03    0.96026E-03   -0.15454E+00 35416   0.350E+00    0.335E-01
DAV:   2    -0.318058432444E+03   -0.73792E-02   -0.74660E-02 33712   0.626E-01    0.232E-01
DAV:   3    -0.318058572243E+03   -0.13980E-03   -0.16830E-03 35896   0.143E-01    0.253E-01
DAV:   4    -0.318058494063E+03    0.78179E-04   -0.51094E-04 37064   0.844E-02    0.131E-01
DAV:   5    -0.318058472399E+03    0.21664E-04   -0.17781E-04 32984   0.511E-02    0.131E-01
DAV:   6    -0.318058443909E+03    0.28490E-04   -0.16284E-04 34624   0.544E-02    0.726E-02
DAV:   7    -0.318058446234E+03   -0.23256E-05   -0.53856E-05 30600   0.307E-02
  42 F= -.31805845E+03 E0= -.31805352E+03  d E =-.644088E-02  mag=    40.0000
       N       E                     dE             d eps       ncg     rms          rms(c)
DAV:   1    -0.318058992986E+03   -0.54908E-03   -0.97645E-01 35536   0.277E+00    0.245E-01
DAV:   2    -0.318063396076E+03   -0.44031E-02   -0.44363E-02 33120   0.492E-01    0.142E-01
DAV:   3    -0.318063477766E+03   -0.81689E-04   -0.91571E-04 35832   0.937E-02    0.154E-01
DAV:   4    -0.318063450679E+03    0.27087E-04   -0.21990E-04 35224   0.484E-02    0.780E-02
DAV:   5    -0.318063433999E+03    0.16680E-04   -0.50286E-05 28368   0.293E-02    0.689E-02
DAV:   6    -0.318063422951E+03    0.11048E-04   -0.46498E-05 32224   0.304E-02    0.355E-02
DAV:   7    -0.318063423767E+03   -0.81598E-06   -0.21510E-05 25976   0.191E-02
  43 F= -.31806342E+03 E0= -.31805850E+03  d E =-.497753E-02  mag=    40.0000
       N       E                     dE             d eps       ncg     rms          rms(c)
DAV:   1    -0.318064008874E+03   -0.58592E-03   -0.47781E-01 35744   0.199E+00    0.174E-01
DAV:   2    -0.318066333775E+03   -0.23249E-02   -0.23248E-02 33304   0.356E-01    0.965E-02
DAV:   3    -0.318066375730E+03   -0.41955E-04   -0.42555E-04 35088   0.621E-02    0.786E-02
DAV:   4    -0.318066367336E+03    0.83938E-05   -0.64427E-05 32112   0.303E-02
  44 F= -.31806637E+03 E0= -.31806144E+03  d E =-.294357E-02  mag=    40.0000
       N       E                     dE             d eps       ncg     rms          rms(c)
DAV:   1    -0.318057079523E+03    0.92962E-02   -0.40974E+00 35864   0.559E+00    0.442E-01
DAV:   2    -0.318074065617E+03   -0.16986E-01   -0.16966E-01 32688   0.964E-01    0.267E-01
DAV:   3    -0.318074275436E+03   -0.20982E-03   -0.30158E-03 35584   0.169E-01    0.249E-01
DAV:   4    -0.318074197907E+03    0.77528E-04   -0.64444E-04 38264   0.860E-02    0.151E-01
DAV:   5    -0.318074127026E+03    0.70881E-04   -0.19705E-04 35312   0.543E-02    0.128E-01
DAV:   6    -0.318074076356E+03    0.50670E-04   -0.17365E-04 35456   0.563E-02    0.707E-02
DAV:   7    -0.318074078976E+03   -0.26196E-05   -0.10208E-04 35080   0.382E-02    0.531E-02
DAV:   8    -0.318074078262E+03    0.71313E-06   -0.35564E-05 27448   0.217E-02
  45 F= -.31807408E+03 E0= -.31806915E+03  d E =-.771093E-02  mag=    40.0000
       N       E                     dE             d eps       ncg     rms          rms(c)
DAV:   1    -0.317875825118E+03    0.19825E+00   -0.44012E+01 35576   0.194E+01    0.165E+00
DAV:   2    -0.318093859031E+03   -0.21803E+00   -0.21728E+00 32720   0.346E+00    0.934E-01
DAV:   3    -0.318097064500E+03   -0.32055E-02   -0.38685E-02 34616   0.594E-01    0.698E-01
DAV:   4    -0.318096454083E+03    0.61042E-03   -0.53949E-03 39624   0.256E-01    0.484E-01
DAV:   5    -0.318095829890E+03    0.62419E-03   -0.23310E-03 35056   0.177E-01    0.410E-01
DAV:   6    -0.318095401679E+03    0.42821E-03   -0.23673E-03 36096   0.185E-01    0.305E-01
DAV:   7    -0.318095319583E+03    0.82096E-04   -0.11584E-03 35520   0.144E-01    0.179E-01
DAV:   8    -0.318095331999E+03   -0.12417E-04   -0.36016E-04 35664   0.744E-02    0.101E-01
DAV:   9    -0.318095327873E+03    0.41256E-05   -0.80541E-05 30792   0.383E-02
  46 F= -.31809533E+03 E0= -.31809040E+03  d E =-.212496E-01  mag=    40.0000
       N       E                     dE             d eps       ncg     rms          rms(c)
DAV:   1    -0.317283604236E+03    0.81173E+00   -0.50227E+01 37296   0.279E+01    0.384E+00
DAV:   2    -0.317954915329E+03   -0.67131E+00   -0.68172E+00 34816   0.522E+00    0.338E+00
DAV:   3    -0.317982844171E+03   -0.27929E-01   -0.29219E-01 34456   0.169E+00    0.243E+00
DAV:   4    -0.317975329069E+03    0.75151E-02   -0.52910E-02 36232   0.912E-01    0.130E+00
DAV:   5    -0.317973486351E+03    0.18427E-02   -0.26443E-02 36592   0.501E-01    0.139E+00
DAV:   6    -0.317969720588E+03    0.37658E-02   -0.16061E-02 35832   0.440E-01    0.640E-01
DAV:   7    -0.317969536501E+03    0.18409E-03   -0.56106E-03 35968   0.329E-01    0.764E-01
DAV:   8    -0.317968933474E+03    0.60303E-03   -0.30700E-03 36552   0.241E-01    0.241E-01
DAV:   9    -0.317968955931E+03   -0.22458E-04   -0.68440E-04 34864   0.108E-01    0.169E-01
DAV:  10    -0.317968914875E+03    0.41056E-04   -0.28090E-04 34208   0.700E-02    0.104E-01
DAV:  11    -0.317968891433E+03    0.23442E-04   -0.10111E-04 31600   0.393E-02    0.612E-02
DAV:  12    -0.317968872919E+03    0.18514E-04   -0.39679E-05 27864   0.290E-02    0.437E-02
DAV:  13    -0.317968863702E+03    0.92170E-05   -0.21752E-05 24712   0.187E-02
  47 F= -.31796886E+03 E0= -.31796383E+03  d E =0.126464E+00  mag=    40.0000
       N       E                     dE             d eps       ncg     rms          rms(c)
DAV:   1    -0.317966733361E+03    0.21396E-02   -0.37431E+00 45512   0.899E+00    0.142E+00
DAV:   2    -0.318053763132E+03   -0.87030E-01   -0.87678E-01 34536   0.156E+00    0.113E+00
DAV:   3    -0.318059312243E+03   -0.55491E-02   -0.47656E-02 33800   0.637E-01    0.131E+00
DAV:   4    -0.318057636982E+03    0.16753E-02   -0.10560E-02 35656   0.347E-01    0.486E-01
DAV:   5    -0.318057441575E+03    0.19541E-03   -0.17927E-03 37592   0.172E-01    0.428E-01
DAV:   6    -0.318056987305E+03    0.45427E-03   -0.17431E-03 37224   0.180E-01    0.247E-01
DAV:   7    -0.318056951650E+03    0.35655E-04   -0.73146E-04 36592   0.113E-01    0.181E-01
DAV:   8    -0.318056927890E+03    0.23760E-04   -0.36437E-04 33776   0.743E-02    0.882E-02
DAV:   9    -0.318056920404E+03    0.74864E-05   -0.59964E-05 29416   0.333E-02
  48 F= -.31805692E+03 E0= -.31805191E+03  d E =-.880567E-01  mag=    40.0000
       N       E                     dE             d eps       ncg     rms          rms(c)
DAV:   1    -0.318064313888E+03   -0.73860E-02   -0.65369E-01 45984   0.382E+00    0.580E-01
DAV:   2    -0.318078788797E+03   -0.14475E-01   -0.14556E-01 34688   0.642E-01    0.388E-01
DAV:   3    -0.318079835056E+03   -0.10463E-02   -0.76656E-03 33872   0.243E-01    0.515E-01
DAV:   4    -0.318079540714E+03    0.29434E-03   -0.16481E-03 35344   0.133E-01    0.162E-01
DAV:   5    -0.318079498631E+03    0.42083E-04   -0.19993E-04 34640   0.574E-02    0.141E-01
DAV:   6    -0.318079440996E+03    0.57635E-04   -0.21819E-04 35248   0.659E-02    0.121E-01
DAV:   7    -0.318079427807E+03    0.13189E-04   -0.14561E-04 33976   0.512E-02    0.105E-01
DAV:   8    -0.318079415465E+03    0.12342E-04   -0.59869E-05 27592   0.339E-02    0.276E-02
DAV:   9    -0.318079414663E+03    0.80193E-06   -0.11806E-05 21624   0.143E-02
  49 F= -.31807941E+03 E0= -.31807441E+03  d E =-.224943E-01  mag=    40.0000
       N       E                     dE             d eps       ncg     rms          rms(c)
DAV:   1    -0.318034659862E+03    0.44756E-01   -0.28794E+00 45816   0.825E+00    0.121E+00
DAV:   2    -0.318098522605E+03   -0.63863E-01   -0.64003E-01 34536   0.139E+00    0.821E-01
DAV:   3    -0.318102970054E+03   -0.44474E-02   -0.32994E-02 33752   0.521E-01    0.104E+00
DAV:   4    -0.318101808540E+03    0.11615E-02   -0.71277E-03 35536   0.275E-01    0.332E-01
DAV:   5    -0.318101638076E+03    0.17046E-03   -0.87939E-04 37264   0.120E-01    0.278E-01
DAV:   6    -0.318101381366E+03    0.25671E-03   -0.79827E-04 36728   0.125E-01    0.218E-01
DAV:   7    -0.318101329427E+03    0.51939E-04   -0.60470E-04 36160   0.102E-01    0.218E-01
DAV:   8    -0.318101278118E+03    0.51309E-04   -0.30221E-04 33288   0.698E-02    0.639E-02
DAV:   9    -0.318101275559E+03    0.25588E-05   -0.50535E-05 28744   0.299E-02
  50 F= -.31810128E+03 E0= -.31809629E+03  d E =-.218609E-01  mag=    40.0000
       N       E                     dE             d eps       ncg     rms          rms(c)
DAV:   1    -0.318099960710E+03    0.13174E-02   -0.17183E-01 39720   0.199E+00    0.244E-01
DAV:   2    -0.318102687677E+03   -0.27270E-02   -0.27032E-02 34200   0.347E-01    0.161E-01
DAV:   3    -0.318102851756E+03   -0.16408E-03   -0.10598E-03 34392   0.105E-01    0.195E-01
DAV:   4    -0.318102811221E+03    0.40535E-04   -0.17355E-04 33568   0.504E-02    0.645E-02
DAV:   5    -0.318102802878E+03    0.83435E-05   -0.39928E-05 25536   0.244E-02
  51 F= -.31810280E+03 E0= -.31809782E+03  d E =-.152732E-02  mag=    40.0000
       N       E                     dE             d eps       ncg     rms          rms(c)
DAV:   1    -0.318093691226E+03    0.91200E-02   -0.12127E+00 38168   0.445E+00    0.470E-01
DAV:   2    -0.318105699961E+03   -0.12009E-01   -0.11850E-01 33632   0.792E-01    0.386E-01
DAV:   3    -0.318106188409E+03   -0.48845E-03   -0.42544E-03 34728   0.239E-01    0.392E-01
DAV:   4    -0.318106036250E+03    0.15216E-03   -0.74571E-04 35592   0.110E-01    0.147E-01
DAV:   5    -0.318106016306E+03    0.19944E-04   -0.23655E-04 35184   0.560E-02    0.126E-01
DAV:   6    -0.318105970753E+03    0.45553E-04   -0.19346E-04 34464   0.596E-02    0.718E-02
DAV:   7    -0.318105972668E+03   -0.19149E-05   -0.94689E-05 34064   0.397E-02
  52 F= -.31810597E+03 E0= -.31810100E+03  d E =-.316979E-02  mag=    40.0000
       N       E                     dE             d eps       ncg     rms          rms(c)
DAV:   1    -0.318105343151E+03    0.62760E-03   -0.11257E+00 37032   0.318E+00    0.305E-01
DAV:   2    -0.318111331599E+03   -0.59884E-02   -0.60620E-02 33328   0.573E-01    0.287E-01
DAV:   3    -0.318111510160E+03   -0.17856E-03   -0.21547E-03 36720   0.167E-01    0.327E-01
DAV:   4    -0.318111384115E+03    0.12605E-03   -0.50033E-04 35088   0.900E-02    0.102E-01
DAV:   5    -0.318111374391E+03    0.97239E-05   -0.86716E-05 31976   0.381E-02
  53 F= -.31811137E+03 E0= -.31810642E+03  d E =-.540172E-02  mag=    40.0000
       N       E                     dE             d eps       ncg     rms          rms(c)
DAV:   1    -0.318110489099E+03    0.89502E-03   -0.81601E-01 36016   0.283E+00    0.289E-01
DAV:   2    -0.318115532554E+03   -0.50435E-02   -0.51383E-02 34016   0.515E-01    0.371E-01
DAV:   3    -0.318115650369E+03   -0.11782E-03   -0.27023E-03 36256   0.171E-01    0.285E-01
DAV:   4    -0.318115550115E+03    0.10025E-03   -0.44270E-04 34432   0.808E-02    0.941E-02
DAV:   5    -0.318115530529E+03    0.19585E-04   -0.10744E-04 32960   0.421E-02    0.929E-02
DAV:   6    -0.318115506778E+03    0.23752E-04   -0.10398E-04 34720   0.435E-02    0.560E-02
DAV:   7    -0.318115508665E+03   -0.18866E-05   -0.64755E-05 30240   0.294E-02
  54 F= -.31811551E+03 E0= -.31811054E+03  d E =-.413427E-02  mag=    40.0000
       N       E                     dE             d eps       ncg     rms          rms(c)
DAV:   1    -0.318116518406E+03   -0.10116E-02   -0.27389E-01 34480   0.136E+00    0.116E-01
DAV:   2    -0.318117534506E+03   -0.10161E-02   -0.10390E-02 33400   0.236E-01    0.871E-02
DAV:   3    -0.318117549410E+03   -0.14904E-04   -0.24874E-04 36184   0.563E-02    0.964E-02
DAV:   4    -0.318117537436E+03    0.11974E-04   -0.67671E-05 27624   0.290E-02    0.419E-02
DAV:   5    -0.318117534933E+03    0.25031E-05   -0.19252E-05 21744   0.171E-02
  55 F= -.31811753E+03 E0= -.31811258E+03  d E =-.202627E-02  mag=    40.0000
       N       E                     dE             d eps       ncg     rms          rms(c)
DAV:   1    -0.318098953057E+03    0.18584E-01   -0.80633E+00 35288   0.740E+00    0.577E-01
DAV:   2    -0.318127709975E+03   -0.28757E-01   -0.29063E-01 32840   0.125E+00    0.430E-01
DAV:   3    -0.318128065251E+03   -0.35528E-03   -0.58031E-03 36704   0.274E-01    0.477E-01
DAV:   4    -0.318127767866E+03    0.29739E-03   -0.15543E-03 36080   0.148E-01    0.205E-01
DAV:   5    -0.318127690635E+03    0.77231E-04   -0.35338E-04 36840   0.740E-02    0.171E-01
DAV:   6    -0.318127580082E+03    0.11055E-03   -0.32453E-04 34048   0.752E-02    0.948E-02
DAV:   7    -0.318127593644E+03   -0.13562E-04   -0.26767E-04 36416   0.543E-02    0.110E-01
DAV:   8    -0.318127585986E+03    0.76572E-05   -0.89712E-05 30648   0.325E-02
  56 F= -.31812759E+03 E0= -.31812264E+03  d E =-.100511E-01  mag=    40.0000
       N       E                     dE             d eps       ncg     rms          rms(c)
DAV:   1    -0.318079160970E+03    0.48433E-01   -0.11955E+01 35656   0.101E+01    0.843E-01
DAV:   2    -0.318136080249E+03   -0.56919E-01   -0.56639E-01 32672   0.178E+00    0.557E-01
DAV:   3    -0.318137322913E+03   -0.12427E-02   -0.12736E-02 35608   0.365E-01    0.697E-01
DAV:   4    -0.318136799529E+03    0.52338E-03   -0.34228E-03 37288   0.193E-01    0.249E-01
DAV:   5    -0.318136675345E+03    0.12418E-03   -0.45430E-04 34128   0.851E-02    0.182E-01
DAV:   6    -0.318136545834E+03    0.12951E-03   -0.39320E-04 35784   0.928E-02    0.137E-01
DAV:   7    -0.318136534764E+03    0.11070E-04   -0.33180E-04 34592   0.745E-02    0.104E-01
DAV:   8    -0.318136533958E+03    0.80526E-06   -0.14827E-04 34544   0.433E-02    0.539E-02
DAV:   9    -0.318136534671E+03   -0.71251E-06   -0.24385E-05 24120   0.199E-02
  57 F= -.31813653E+03 E0= -.31813159E+03  d E =-.894868E-02  mag=    40.0000
       N       E                     dE             d eps       ncg     rms          rms(c)
DAV:   1    -0.317955172701E+03    0.18136E+00   -0.41045E+01 35352   0.186E+01    0.156E+00
DAV:   2    -0.318147819395E+03   -0.19265E+00   -0.19297E+00 32736   0.330E+00    0.110E+00
DAV:   3    -0.318151604779E+03   -0.37854E-02   -0.43141E-02 35360   0.680E-01    0.134E+00
DAV:   4    -0.318149594268E+03    0.20105E-02   -0.11730E-02 37232   0.367E-01    0.500E-01
DAV:   5    -0.318149106905E+03    0.48736E-03   -0.22283E-03 34088   0.182E-01    0.366E-01
DAV:   6    -0.318148623586E+03    0.48332E-03   -0.18500E-03 35928   0.192E-01    0.262E-01
DAV:   7    -0.318148558766E+03    0.64820E-04   -0.11662E-03 36064   0.140E-01    0.168E-01
DAV:   8    -0.318148579200E+03   -0.20434E-04   -0.38416E-04 35448   0.737E-02    0.117E-01
DAV:   9    -0.318148573344E+03    0.58566E-05   -0.65060E-05 30888   0.356E-02
  58 F= -.31814857E+03 E0= -.31814361E+03  d E =-.120387E-01  mag=    40.0000
       N       E                     dE             d eps       ncg     rms          rms(c)
DAV:   1    -0.316873602573E+03    0.12750E+01   -0.25443E+02 35568   0.462E+01    0.407E+00
DAV:   2    -0.318178862969E+03   -0.13053E+01   -0.13255E+01 32944   0.840E+00    0.318E+00
DAV:   3    -0.318199765688E+03   -0.20903E-01   -0.32180E-01 35648   0.188E+00    0.402E+00
DAV:   4    -0.318180398490E+03    0.19367E-01   -0.93217E-02 38040   0.104E+00    0.126E+00
DAV:   5    -0.318177185596E+03    0.32129E-02   -0.15446E-02 33752   0.494E-01    0.883E-01
DAV:   6    -0.318174982209E+03    0.22034E-02   -0.12948E-02 35480   0.516E-01    0.803E-01
DAV:   7    -0.318174133771E+03    0.84844E-03   -0.86949E-03 37200   0.374E-01    0.442E-01
DAV:   8    -0.318174415059E+03   -0.28129E-03   -0.27423E-03 34880   0.184E-01    0.394E-01
DAV:   9    -0.318174289584E+03    0.12548E-03   -0.87664E-04 35144   0.127E-01    0.172E-01
DAV:  10    -0.318174291376E+03   -0.17923E-05   -0.16766E-04 34664   0.562E-02    0.968E-02
DAV:  11    -0.318174287042E+03    0.43340E-05   -0.68165E-05 30144   0.359E-02
  59 F= -.31817429E+03 E0= -.31816931E+03  d E =-.257137E-01  mag=    40.0000
       N       E                     dE             d eps       ncg     rms          rms(c)
DAV:   1    -0.318135895934E+03    0.38395E-01   -0.33638E+00 37232   0.738E+00    0.945E-01
DAV:   2    -0.318178021478E+03   -0.42126E-01   -0.44010E-01 34088   0.144E+00    0.130E+00
DAV:   3    -0.318179010375E+03   -0.98890E-03   -0.31363E-02 36136   0.567E-01    0.108E+00
DAV:   4    -0.318177827120E+03    0.11833E-02   -0.62357E-03 35360   0.276E-01    0.294E-01
DAV:   5    -0.318177778324E+03    0.48796E-04   -0.10418E-03 37736   0.140E-01    0.328E-01
DAV:   6    -0.318177600290E+03    0.17803E-03   -0.10462E-03 37648   0.139E-01    0.192E-01
DAV:   7    -0.318177595264E+03    0.50265E-05   -0.39493E-04 35400   0.828E-02    0.133E-01
DAV:   8    -0.318177577470E+03    0.17793E-04   -0.11672E-04 34024   0.480E-02    0.335E-02
DAV:   9    -0.318177580192E+03   -0.27214E-05   -0.23972E-05 23040   0.182E-02
  60 F= -.31817758E+03 E0= -.31817260E+03  d E =-.329315E-02  mag=    40.0000
       N       E                     dE             d eps       ncg     rms          rms(c)
DAV:   1    -0.318169528629E+03    0.80488E-02   -0.99949E-01 36080   0.357E+00    0.365E-01
DAV:   2    -0.318177258428E+03   -0.77298E-02   -0.78132E-02 34200   0.643E-01    0.236E-01
DAV:   3    -0.318177507327E+03   -0.24890E-03   -0.20069E-03 34480   0.149E-01    0.211E-01
DAV:   4    -0.318177452349E+03    0.54979E-04   -0.26191E-04 36552   0.675E-02    0.951E-02
DAV:   5    -0.318177419779E+03    0.32570E-04   -0.11255E-04 33592   0.462E-02    0.962E-02
DAV:   6    -0.318177409926E+03    0.98536E-05   -0.11020E-04 35184   0.451E-02    0.758E-02
DAV:   7    -0.318177408654E+03    0.12710E-05   -0.58954E-05 27912   0.293E-02
  61 F= -.31817741E+03 E0= -.31817241E+03  d E =0.171537E-03  mag=    40.0000
       N       E                     dE             d eps       ncg     rms          rms(c)
DAV:   1    -0.318111730090E+03    0.65680E-01   -0.15435E+01 36152   0.116E+01    0.102E+00
DAV:   2    -0.318186749142E+03   -0.75019E-01   -0.76331E-01 32944   0.205E+00    0.762E-01
DAV:   3    -0.318188359140E+03   -0.16100E-02   -0.18487E-02 35520   0.443E-01    0.101E+00
DAV:   4    -0.318187201784E+03    0.11574E-02   -0.60897E-03 36872   0.258E-01    0.339E-01
DAV:   5    -0.318187027863E+03    0.17392E-03   -0.13792E-03 35088   0.144E-01    0.299E-01
DAV:   6    -0.318186815879E+03    0.21198E-03   -0.12480E-03 36184   0.147E-01    0.190E-01
DAV:   7    -0.318186810978E+03    0.49009E-05   -0.50405E-04 35568   0.854E-02    0.120E-01
DAV:   8    -0.318186808163E+03    0.28150E-05   -0.13123E-04 34632   0.473E-02    0.589E-02
DAV:   9    -0.318186806676E+03    0.14871E-05   -0.21428E-05 24200   0.202E-02
  62 F= -.31818681E+03 E0= -.31818181E+03  d E =-.939802E-02  mag=    40.0000
       N       E                     dE             d eps       ncg     rms          rms(c)
DAV:   1    -0.316978366666E+03    0.12084E+01   -0.13675E+02 37080   0.411E+01    0.439E+00
DAV:   2    -0.318096343075E+03   -0.11180E+01   -0.11101E+01 34200   0.761E+00    0.371E+00
DAV:   3    -0.318130023364E+03   -0.33680E-01   -0.35610E-01 35552   0.204E+00    0.336E+00
DAV:   4    -0.318118101384E+03    0.11922E-01   -0.74557E-02 37320   0.100E+00    0.131E+00
DAV:   5    -0.318115474542E+03    0.26268E-02   -0.17928E-02 34952   0.452E-01    0.111E+00
DAV:   6    -0.318112495589E+03    0.29790E-02   -0.15321E-02 35232   0.482E-01    0.911E-01
DAV:   7    -0.318111571303E+03    0.92429E-03   -0.11551E-02 36928   0.413E-01    0.783E-01
DAV:   8    -0.318111091438E+03    0.47986E-03   -0.44238E-03 37480   0.290E-01    0.295E-01
DAV:   9    -0.318111134301E+03   -0.42862E-04   -0.10638E-03 34496   0.133E-01    0.199E-01
DAV:  10    -0.318111104639E+03    0.29661E-04   -0.23047E-04 35320   0.665E-02    0.673E-02
DAV:  11    -0.318111099094E+03    0.55456E-05   -0.42859E-05 27928   0.263E-02
  63 F= -.31811110E+03 E0= -.31810623E+03  d E =0.757076E-01  mag=    40.0000
       N       E                     dE             d eps       ncg     rms          rms(c)
DAV:   1    -0.316788391458E+03    0.13227E+01   -0.50233E+01 44064   0.338E+01    0.601E+00
DAV:   2    -0.318121342065E+03   -0.13330E+01   -0.13182E+01 35032   0.659E+00    0.820E+00
DAV:   3    -0.318153026747E+03   -0.31685E-01   -0.11245E+00 35040   0.347E+00    0.438E+00
DAV:   4    -0.318142111698E+03    0.10915E-01   -0.17953E-01 35088   0.157E+00    0.237E+00
DAV:   5    -0.318136615796E+03    0.54959E-02   -0.43113E-02 35704   0.735E-01    0.148E+00
DAV:   6    -0.318131898749E+03    0.47170E-02   -0.10490E-02 34424   0.389E-01    0.836E-01
DAV:   7    -0.318130035120E+03    0.18636E-02   -0.83024E-03 36656   0.412E-01    0.105E+00
DAV:   8    -0.318128419531E+03    0.16156E-02   -0.81366E-03 36120   0.362E-01    0.470E-01
DAV:   9    -0.318128240413E+03    0.17912E-03   -0.27027E-03 34976   0.181E-01    0.204E-01
DAV:  10    -0.318128222512E+03    0.17901E-04   -0.55482E-04 34680   0.947E-02    0.160E-01
DAV:  11    -0.318128168115E+03    0.54397E-04   -0.14413E-04 33088   0.544E-02    0.832E-02
DAV:  12    -0.318128137734E+03    0.30381E-04   -0.54934E-05 30952   0.331E-02    0.588E-02
DAV:  13    -0.318128112210E+03    0.25524E-04   -0.53589E-05 26544   0.275E-02    0.422E-02
DAV:  14    -0.318128098009E+03    0.14201E-04   -0.20881E-05 23768   0.174E-02    0.270E-02
DAV:  15    -0.318128093159E+03    0.48505E-05   -0.75173E-06 20680   0.102E-02
  64 F= -.31812809E+03 E0= -.31812317E+03  d E =-.169941E-01  mag=    40.0000
       N       E                     dE             d eps       ncg     rms          rms(c)
DAV:   1    -0.317987225600E+03    0.14087E+00   -0.86649E+00 43416   0.131E+01    0.219E+00
DAV:   2    -0.318192295244E+03   -0.20507E+00   -0.20692E+00 35128   0.231E+00    0.187E+00
DAV:   3    -0.318205152068E+03   -0.12857E-01   -0.12521E-01 34240   0.100E+00    0.193E+00
DAV:   4    -0.318201174587E+03    0.39775E-02   -0.28008E-02 35328   0.555E-01    0.702E-01
DAV:   5    -0.318200601480E+03    0.57311E-03   -0.36454E-03 36864   0.233E-01    0.488E-01
DAV:   6    -0.318199740760E+03    0.86072E-03   -0.23290E-03 36112   0.196E-01    0.362E-01
DAV:   7    -0.318199518413E+03    0.22235E-03   -0.16174E-03 36552   0.169E-01    0.365E-01
DAV:   8    -0.318199333658E+03    0.18475E-03   -0.78025E-04 35408   0.127E-01    0.102E-01
DAV:   9    -0.318199330575E+03    0.30830E-05   -0.15675E-04 32384   0.480E-02    0.757E-02
DAV:  10    -0.318199319395E+03    0.11180E-04   -0.51386E-05 30280   0.308E-02    0.396E-02
DAV:  11    -0.318199313189E+03    0.62060E-05   -0.16039E-05 23064   0.169E-02
  65 F= -.31819931E+03 E0= -.31819440E+03  d E =-.712200E-01  mag=    40.0000
       N       E                     dE             d eps       ncg     rms          rms(c)
DAV:   1    -0.318193945268E+03    0.53741E-02   -0.41283E-01 41872   0.271E+00    0.421E-01
DAV:   2    -0.318201930616E+03   -0.79853E-02   -0.80528E-02 35112   0.469E-01    0.240E-01
DAV:   3    -0.318202469466E+03   -0.53885E-03   -0.36449E-03 33832   0.151E-01    0.247E-01
DAV:   4    -0.318202385510E+03    0.83956E-04   -0.65507E-04 34616   0.846E-02    0.120E-01
DAV:   5    -0.318202342467E+03    0.43042E-04   -0.10893E-04 30216   0.359E-02    0.855E-02
DAV:   6    -0.318202309917E+03    0.32550E-04   -0.94065E-05 32840   0.394E-02    0.743E-02
DAV:   7    -0.318202293160E+03    0.16757E-04   -0.50395E-05 29376   0.308E-02    0.359E-02
DAV:   8    -0.318202292291E+03    0.86896E-06   -0.25725E-05 25024   0.186E-02
  66 F= -.31820229E+03 E0= -.31819739E+03  d E =-.297910E-02  mag=    40.0000
       N       E                     dE             d eps       ncg     rms          rms(c)
DAV:   1    -0.318193750813E+03    0.85423E-02   -0.58827E-01 38768   0.361E+00    0.442E-01
DAV:   2    -0.318203625550E+03   -0.98747E-02   -0.95479E-02 34688   0.655E-01    0.327E-01
DAV:   3    -0.318204162112E+03   -0.53656E-03   -0.43189E-03 35416   0.196E-01    0.428E-01
DAV:   4    -0.318203978829E+03    0.18328E-03   -0.10330E-03 35552   0.102E-01    0.113E-01
DAV:   5    -0.318203966487E+03    0.12342E-04   -0.11531E-04 32408   0.420E-02    0.972E-02
DAV:   6    -0.318203938766E+03    0.27721E-04   -0.95179E-05 34344   0.416E-02    0.721E-02
DAV:   7    -0.318203928936E+03    0.98296E-05   -0.66784E-05 33280   0.376E-02
  67 F= -.31820393E+03 E0= -.31819903E+03  d E =-.163664E-02  mag=    40.0000
       N       E                     dE             d eps       ncg     rms          rms(c)
DAV:   1    -0.318199274279E+03    0.46645E-02   -0.70283E-01 35944   0.301E+00    0.324E-01
DAV:   2    -0.318205511905E+03   -0.62376E-02   -0.60677E-02 34720   0.568E-01    0.300E-01
DAV:   3    -0.318205770219E+03   -0.25831E-03   -0.29985E-03 35416   0.168E-01    0.394E-01
DAV:   4    -0.318205599496E+03    0.17072E-03   -0.80746E-04 34656   0.917E-02    0.823E-02
DAV:   5    -0.318205597626E+03    0.18703E-05   -0.61385E-05 31800   0.308E-02
[...]
  72 F= -.31820998E+03 E0= -.31820512E+03  d E =-.132204E-02  mag=    40.0000
       N       E                     dE             d eps       ncg     rms          rms(c)
DAV:   1    -0.318207328018E+03    0.26563E-02   -0.51639E-01 36600   0.243E+00    0.241E-01
DAV:   2    -0.318211025802E+03   -0.36978E-02   -0.37190E-02 34064   0.434E-01    0.190E-01
DAV:   3    -0.318211177674E+03   -0.15187E-03   -0.14260E-03 35424   0.116E-01    0.245E-01
DAV:   4    -0.318211104804E+03    0.72870E-04   -0.35743E-04 34240   0.661E-02    0.715E-02
DAV:   5    -0.318211094164E+03    0.10640E-04   -0.48824E-05 28120   0.260E-02    0.622E-02
DAV:   6    -0.318211082662E+03    0.11501E-04   -0.64541E-05 30920   0.320E-02    0.578E-02
DAV:   7    -0.318211078656E+03    0.40062E-05   -0.32997E-05 25544   0.227E-02
  73 F= -.31821108E+03 E0= -.31820622E+03  d E =-.109777E-02  mag=    40.0000
       N       E                     dE             d eps       ncg     rms          rms(c)
DAV:   1    -0.318193406250E+03    0.17676E-01   -0.39116E+00 35952   0.604E+00    0.539E-01
DAV:   2    -0.318213864484E+03   -0.20458E-01   -0.20266E-01 33136   0.108E+00    0.436E-01
DAV:   3    -0.318214411665E+03   -0.54718E-03   -0.57376E-03 35368   0.249E-01    0.534E-01
DAV:   4    -0.318214097768E+03    0.31390E-03   -0.15916E-03 35504   0.134E-01    0.151E-01
DAV:   5    -0.318214077932E+03    0.19836E-04   -0.23743E-04 34888   0.583E-02    0.131E-01
DAV:   6    -0.318214021817E+03    0.56115E-04   -0.18722E-04 34272   0.605E-02    0.855E-02
DAV:   7    -0.318214018887E+03    0.29294E-05   -0.13818E-04 34488   0.470E-02    0.753E-02
DAV:   8    -0.318214016724E+03    0.21636E-05   -0.54121E-05 29568   0.298E-02
  74 F= -.31821402E+03 E0= -.31820916E+03  d E =-.293807E-02  mag=    40.0000
       N       E                     dE             d eps       ncg     rms          rms(c)
DAV:   1    -0.317203733292E+03    0.10103E+01   -0.17832E+02 36184   0.407E+01    0.367E+00
DAV:   2    -0.318175839369E+03   -0.97211E+00   -0.97845E+00 33176   0.736E+00    0.250E+00
DAV:   3    -0.318193425735E+03   -0.17586E-01   -0.21547E-01 35488   0.149E+00    0.254E+00
DAV:   4    -0.318186429922E+03    0.69958E-02   -0.49412E-02 38912   0.752E-01    0.118E+00
DAV:   5    -0.318183162860E+03    0.32671E-02   -0.12704E-02 34560   0.432E-01    0.852E-01
DAV:   6    -0.318181000082E+03    0.21628E-02   -0.12509E-02 35248   0.449E-01    0.744E-01
DAV:   7    -0.318180320559E+03    0.67952E-03   -0.76477E-03 37208   0.345E-01    0.488E-01
DAV:   8    -0.318180321428E+03   -0.86811E-06   -0.19869E-03 35184   0.190E-01    0.260E-01
DAV:   9    -0.318180299091E+03    0.22337E-04   -0.46899E-04 34784   0.951E-02    0.120E-01
DAV:  10    -0.318180297884E+03    0.12067E-05   -0.16498E-04 34160   0.497E-02    0.846E-02
DAV:  11    -0.318180289235E+03    0.86493E-05   -0.54558E-05 28120   0.316E-02
  75 F= -.31818029E+03 E0= -.31817551E+03  d E =0.337275E-01  mag=    40.0000
       N       E                     dE             d eps       ncg     rms          rms(c)
DAV:   1    -0.317860011477E+03    0.32029E+00   -0.38208E+01 36576   0.225E+01    0.256E+00
DAV:   2    -0.318223334014E+03   -0.36332E+00   -0.36559E+00 34376   0.414E+00    0.225E+00
DAV:   3    -0.318237533941E+03   -0.14200E-01   -0.15543E-01 34152   0.132E+00    0.194E+00
DAV:   4    -0.318233139561E+03    0.43944E-02   -0.29599E-02 35576   0.651E-01    0.807E-01
DAV:   5    -0.318232509972E+03    0.62959E-03   -0.75147E-03 36152   0.302E-01    0.757E-01
DAV:   6    -0.318231281119E+03    0.12289E-02   -0.54938E-03 35168   0.285E-01    0.518E-01
DAV:   7    -0.318231206286E+03    0.74833E-04   -0.35211E-03 36952   0.246E-01    0.509E-01
DAV:   8    -0.318230972656E+03    0.23363E-03   -0.13809E-03 35984   0.163E-01    0.119E-01
DAV:   9    -0.318230994884E+03   -0.22228E-04   -0.26149E-04 33944   0.674E-02    0.113E-01
DAV:  10    -0.318230976739E+03    0.18146E-04   -0.93814E-05 31736   0.425E-02    0.408E-02
DAV:  11    -0.318230971695E+03    0.50437E-05   -0.24135E-05 23656   0.200E-02
  76 F= -.31823097E+03 E0= -.31822618E+03  d E =-.506825E-01  mag=    40.0000
       N       E                     dE             d eps       ncg     rms          rms(c)
DAV:   1    -0.318110053268E+03    0.12092E+00   -0.23564E+01 36152   0.147E+01    0.128E+00
DAV:   2    -0.318229823933E+03   -0.11977E+00   -0.12002E+00 32696   0.265E+00    0.975E-01
DAV:   3    -0.318232802868E+03   -0.29789E-02   -0.33396E-02 35280   0.608E-01    0.126E+00
DAV:   4    -0.318230956742E+03    0.18461E-02   -0.91184E-03 35280   0.322E-01    0.363E-01
DAV:   5    -0.318230733058E+03    0.22368E-03   -0.18194E-03 35528   0.164E-01    0.378E-01
DAV:   6    -0.318230393375E+03    0.33968E-03   -0.20343E-03 35832   0.177E-01    0.268E-01
DAV:   7    -0.318230357355E+03    0.36020E-04   -0.87128E-04 36320   0.118E-01    0.175E-01
DAV:   8    -0.318230351203E+03    0.61523E-05   -0.28797E-04 36344   0.731E-02    0.593E-02
DAV:   9    -0.318230353207E+03   -0.20037E-05   -0.53565E-05 29680   0.298E-02
  77 F= -.31823035E+03 E0= -.31822555E+03  d E =0.618488E-03  mag=    40.0000
       N       E                     dE             d eps       ncg     rms          rms(c)
DAV:   1    -0.318157404099E+03    0.72947E-01   -0.15939E+01 36376   0.119E+01    0.101E+00
DAV:   2    -0.318233986164E+03   -0.76582E-01   -0.75870E-01 33048   0.210E+00    0.781E-01
DAV:   3    -0.318235386362E+03   -0.14002E-02   -0.16137E-02 35712   0.459E-01    0.832E-01
DAV:   4    -0.318234583156E+03    0.80321E-03   -0.37459E-03 37168   0.231E-01    0.295E-01
DAV:   5    -0.318234425014E+03    0.15814E-03   -0.94751E-04 35232   0.108E-01    0.260E-01
DAV:   6    -0.318234206239E+03    0.21877E-03   -0.10541E-03 35024   0.130E-01    0.203E-01
DAV:   7    -0.318234185259E+03    0.20981E-04   -0.70580E-04 36080   0.974E-02    0.148E-01
DAV:   8    -0.318234178082E+03    0.71762E-05   -0.22305E-04 35264   0.581E-02    0.599E-02
DAV:   9    -0.318234179562E+03   -0.14791E-05   -0.31299E-05 26152   0.235E-02
  78 F= -.31823418E+03 E0= -.31822939E+03  d E =-.382636E-02  mag=    40.0000
       N       E                     dE             d eps       ncg     rms          rms(c)
DAV:   1    -0.317362324952E+03    0.87185E+00   -0.12996E+02 35768   0.352E+01    0.421E+00
DAV:   2    -0.318130454918E+03   -0.76813E+00   -0.76387E+00 34448   0.646E+00    0.412E+00
DAV:   3    -0.318144100470E+03   -0.13646E-01   -0.32317E-01 36056   0.226E+00    0.323E+00
DAV:   4    -0.318131997726E+03    0.12103E-01   -0.52756E-02 35384   0.102E+00    0.131E+00
DAV:   5    -0.318130822063E+03    0.11757E-02   -0.20340E-02 36008   0.642E-01    0.144E+00
DAV:   6    -0.318128041746E+03    0.27803E-02   -0.20147E-02 35584   0.590E-01    0.724E-01
DAV:   7    -0.318128585831E+03   -0.54408E-03   -0.11781E-02 35272   0.327E-01    0.758E-01
DAV:   8    -0.318127955872E+03    0.62996E-03   -0.40267E-03 34064   0.218E-01    0.186E-01
DAV:   9    -0.318128003926E+03   -0.48054E-04   -0.46599E-04 34280   0.835E-02    0.157E-01
DAV:  10    -0.318127969599E+03    0.34327E-04   -0.21258E-04 33336   0.574E-02    0.894E-02
DAV:  11    -0.318127952894E+03    0.16704E-04   -0.88729E-05 31064   0.365E-02    0.580E-02
DAV:  12    -0.318127946046E+03    0.68481E-05   -0.41471E-05 28632   0.274E-02
  79 F= -.31812795E+03 E0= -.31812334E+03  d E =0.106234E+00  mag=    40.0000
       N       E                     dE             d eps       ncg     rms          rms(c)
DAV:   1    -0.318121739092E+03    0.62138E-02   -0.44421E+00 43576   0.936E+00    0.123E+00
DAV:   2    -0.318183550688E+03   -0.61812E-01   -0.61087E-01 34072   0.159E+00    0.939E-01
DAV:   3    -0.318186690200E+03   -0.31395E-02   -0.23840E-02 32704   0.520E-01    0.782E-01
DAV:   4    -0.318186115404E+03    0.57480E-03   -0.28813E-03 36152   0.226E-01    0.417E-01
DAV:   5    -0.318185985139E+03    0.13026E-03   -0.19777E-03 36584   0.182E-01    0.456E-01
DAV:   6    -0.318185848541E+03    0.13660E-03   -0.17627E-03 35640   0.190E-01    0.291E-01
DAV:   7    -0.318185753765E+03    0.94776E-04   -0.44512E-04 34704   0.106E-01    0.823E-02
DAV:   8    -0.318185760581E+03   -0.68163E-05   -0.18793E-04 34928   0.488E-02    0.891E-02
DAV:   9    -0.318185749070E+03    0.11512E-04   -0.66182E-05 25912   0.293E-02    0.317E-02
DAV:  10    -0.318185748291E+03    0.77843E-06   -0.13300E-05 20416   0.149E-02
  80 F= -.31818575E+03 E0= -.31818114E+03  d E =-.578022E-01  mag=    40.0000
       N       E                     dE             d eps       ncg     rms          rms(c)
DAV:   1    -0.318192954928E+03   -0.72059E-02   -0.59030E-01 41304   0.297E+00    0.432E-01
DAV:   2    -0.318198781273E+03   -0.58263E-02   -0.56824E-02 33912   0.514E-01    0.333E-01
DAV:   3    -0.318199032778E+03   -0.25151E-03   -0.25435E-03 33144   0.192E-01    0.296E-01
DAV:   4    -0.318198944865E+03    0.87913E-04   -0.36838E-04 34824   0.884E-02    0.146E-01
DAV:   5    -0.318198972749E+03   -0.27884E-04   -0.47412E-04 34440   0.734E-02    0.217E-01
DAV:   6    -0.318198921649E+03    0.51100E-04   -0.51848E-04 34760   0.761E-02    0.935E-02
DAV:   7    -0.318198921544E+03    0.10492E-06   -0.78351E-05 27032   0.364E-02
  81 F= -.31819892E+03 E0= -.31819432E+03  d E =-.131733E-01  mag=    40.0000
       N       E                     dE             d eps       ncg     rms          rms(c)
DAV:   1    -0.318188898713E+03    0.10023E-01   -0.38305E+00 39584   0.670E+00    0.103E+00
DAV:   2    -0.318217699671E+03   -0.28801E-01   -0.28212E-01 34584   0.116E+00    0.798E-01
DAV:   3    -0.318218823904E+03   -0.11242E-02   -0.12959E-02 33512   0.433E-01    0.708E-01
DAV:   4    -0.318218298259E+03    0.52565E-03   -0.26061E-03 35896   0.218E-01    0.376E-01
DAV:   5    -0.318218478658E+03   -0.18040E-03   -0.31111E-03 35880   0.174E-01    0.535E-01
DAV:   6    -0.318218177335E+03    0.30132E-03   -0.26497E-03 35952   0.174E-01    0.204E-01
DAV:   7    -0.318218181572E+03   -0.42369E-05   -0.42489E-04 33488   0.877E-02    0.147E-01
DAV:   8    -0.318218155551E+03    0.26021E-04   -0.12088E-04 32624   0.530E-02    0.493E-02
DAV:   9    -0.318218154789E+03    0.76200E-06   -0.19536E-05 22704   0.208E-02
  82 F= -.31821815E+03 E0= -.31821354E+03  d E =-.192332E-01  mag=    40.0000
       N       E                     dE             d eps       ncg     rms          rms(c)
DAV:   1    -0.318220392125E+03   -0.22366E-02   -0.38127E-01 34872   0.145E+00    0.263E-01
DAV:   2    -0.318221778324E+03   -0.13862E-02   -0.14017E-02 35136   0.279E-01    0.283E-01
DAV:   3    -0.318221754536E+03    0.23788E-04   -0.11901E-03 36376   0.129E-01    0.209E-01
DAV:   4    -0.318221722171E+03    0.32364E-04   -0.31150E-04 32720   0.626E-02    0.145E-01
DAV:   5    -0.318221708850E+03    0.13321E-04   -0.18238E-04 32776   0.516E-02    0.934E-02
DAV:   6    -0.318221710778E+03   -0.19279E-05   -0.13898E-04 30136   0.404E-02    0.879E-02
DAV:   7    -0.318221702599E+03    0.81789E-05   -0.57862E-05 25432   0.296E-02
  83 F= -.31822170E+03 E0= -.31821708E+03  d E =-.354781E-02  mag=    40.0000
       N       E                     dE             d eps       ncg     rms          rms(c)
DAV:   1    -0.318218787582E+03    0.29232E-02   -0.26863E+00 34968   0.386E+00    0.605E-01
DAV:   2    -0.318227796148E+03   -0.90086E-02   -0.93083E-02 34568   0.706E-01    0.628E-01
DAV:   3    -0.318227752672E+03    0.43476E-04   -0.67106E-03 37944   0.290E-01    0.528E-01
DAV:   4    -0.318227494621E+03    0.25805E-03   -0.23802E-03 35200   0.156E-01    0.351E-01
DAV:   5    -0.318227399973E+03    0.94648E-04   -0.10971E-03 37328   0.124E-01    0.203E-01
DAV:   6    -0.318227394724E+03    0.52485E-05   -0.62551E-04 35240   0.917E-02    0.173E-01
DAV:   7    -0.318227368923E+03    0.25801E-04   -0.26440E-04 33312   0.628E-02    0.870E-02
DAV:   8    -0.318227362287E+03    0.66358E-05   -0.30632E-05 25040   0.295E-02
  84 F= -.31822736E+03 E0= -.31822271E+03  d E =-.565969E-02  mag=    40.0000
       N       E                     dE             d eps       ncg     rms          rms(c)
DAV:   1    -0.318228161461E+03   -0.79254E-03   -0.14818E-01 35360   0.107E+00    0.114E-01
DAV:   2    -0.318228852637E+03   -0.69118E-03   -0.72102E-03 34104   0.198E-01    0.167E-01
DAV:   3    -0.318228847763E+03    0.48736E-05   -0.45123E-04 37360   0.695E-02    0.102E-01
DAV:   4    -0.318228835995E+03    0.11769E-04   -0.72633E-05 27168   0.296E-02    0.499E-02
DAV:   5    -0.318228833070E+03    0.29240E-05   -0.20946E-05 23344   0.205E-02
  85 F= -.31822883E+03 E0= -.31822417E+03  d E =-.147078E-02  mag=    40.0000
       N       E                     dE             d eps       ncg     rms          rms(c)
DAV:   1    -0.318227082937E+03    0.17531E-02   -0.13806E+00 34080   0.301E+00    0.316E-01
DAV:   2    -0.318232488095E+03   -0.54052E-02   -0.57160E-02 34016   0.539E-01    0.420E-01
DAV:   3    -0.318232490651E+03   -0.25553E-05   -0.32791E-03 38856   0.180E-01    0.313E-01
DAV:   4    -0.318232337473E+03    0.15318E-03   -0.66740E-04 34472   0.869E-02    0.120E-01
DAV:   5    -0.318232329422E+03    0.80517E-05   -0.24035E-04 36696   0.637E-02    0.158E-01
DAV:   6    -0.318232279524E+03    0.49898E-04   -0.20585E-04 34880   0.558E-02    0.664E-02
DAV:   7    -0.318232283587E+03   -0.40625E-05   -0.58865E-05 31840   0.311E-02
  86 F= -.31823228E+03 E0= -.31822761E+03  d E =-.345052E-02  mag=    40.0000
       N       E                     dE             d eps       ncg     rms          rms(c)
DAV:   1    -0.318231274770E+03    0.10048E-02   -0.63189E-01 35360   0.218E+00    0.238E-01
DAV:   2    -0.318234024900E+03   -0.27501E-02   -0.28467E-02 34056   0.392E-01    0.217E-01
DAV:   3    -0.318234076845E+03   -0.51945E-04   -0.11482E-03 38232   0.121E-01    0.233E-01
DAV:   4    -0.318234009923E+03    0.66922E-04   -0.43622E-04 34672   0.676E-02    0.108E-01
DAV:   5    -0.318234000061E+03    0.98617E-05   -0.99691E-05 31816   0.421E-02
  87 F= -.31823400E+03 E0= -.31822931E+03  d E =-.171647E-02  mag=    40.0000
       N       E                     dE             d eps       ncg     rms          rms(c)
DAV:   1    -0.318227423440E+03    0.65865E-02   -0.17474E+00 35528   0.383E+00    0.379E-01
DAV:   2    -0.318236139375E+03   -0.87159E-02   -0.89032E-02 33952   0.702E-01    0.474E-01
DAV:   3    -0.318236259761E+03   -0.12039E-03   -0.43663E-03 37208   0.220E-01    0.402E-01
DAV:   4    -0.318236060012E+03    0.19975E-03   -0.96945E-04 35376   0.105E-01    0.127E-01
DAV:   5    -0.318236047654E+03    0.12358E-04   -0.24765E-04 34792   0.602E-02    0.142E-01
DAV:   6    -0.318235994138E+03    0.53516E-04   -0.21585E-04 35288   0.585E-02    0.736E-02
DAV:   7    -0.318235995523E+03   -0.13851E-05   -0.78978E-05 32656   0.365E-02
  88 F= -.31823600E+03 E0= -.31823132E+03  d E =-.199546E-02  mag=    40.0000
       N       E                     dE             d eps       ncg     rms          rms(c)
DAV:   1    -0.318235534170E+03    0.45997E-03   -0.11723E-01 35248   0.112E+00    0.131E-01
DAV:   2    -0.318236328783E+03   -0.79461E-03   -0.79443E-03 34424   0.212E-01    0.111E-01
DAV:   3    -0.318236351623E+03   -0.22840E-04   -0.31156E-04 33552   0.663E-02    0.108E-01
DAV:   4    -0.318236338851E+03    0.12772E-04   -0.80228E-05 27904   0.337E-02    0.549E-02
DAV:   5    -0.318236337343E+03    0.15080E-05   -0.36050E-05 22752   0.202E-02
  89 F= -.31823634E+03 E0= -.31823166E+03  d E =-.341820E-03  mag=    40.0000
       N       E                     dE             d eps       ncg     rms          rms(c)
DAV:   1    -0.318236031659E+03    0.30719E-03   -0.59266E-02 33624   0.589E-01    0.767E-02
DAV:   2    -0.318236248476E+03   -0.21682E-03   -0.21852E-03 34520   0.116E-01    0.152E-01
DAV:   3    -0.318236229327E+03    0.19149E-04   -0.15443E-04 34504   0.518E-02    0.390E-02
DAV:   4    -0.318236228525E+03    0.80266E-06   -0.12204E-05 22288   0.143E-02
  90 F= -.31823623E+03 E0= -.31823156E+03  d E =0.108818E-03  mag=    40.0000
       N       E                     dE             d eps       ncg     rms          rms(c)
DAV:   1    -0.318233492308E+03    0.27370E-02   -0.40621E-01 36016   0.224E+00    0.232E-01
DAV:   2    -0.318236770733E+03   -0.32784E-02   -0.32212E-02 34240   0.422E-01    0.251E-01
DAV:   3    -0.318236865842E+03   -0.95109E-04   -0.14183E-03 34688   0.135E-01    0.245E-01
DAV:   4    -0.318236803070E+03    0.62773E-04   -0.31900E-04 33576   0.645E-02    0.697E-02
DAV:   5    -0.318236800819E+03    0.22502E-05   -0.60913E-05 27264   0.275E-02
  91 F= -.31823680E+03 E0= -.31823214E+03  d E =-.572295E-03  mag=    40.0000
       N       E                     dE             d eps       ncg     rms          rms(c)
DAV:   1    -0.318203708904E+03    0.33094E-01   -0.55751E+00 36904   0.807E+00    0.759E-01
DAV:   2    -0.318239608365E+03   -0.35899E-01   -0.35598E-01 33080   0.147E+00    0.806E-01
DAV:   3    -0.318240528193E+03   -0.91983E-03   -0.12928E-02 34528   0.416E-01    0.783E-01
DAV:   4    -0.318239874365E+03    0.65383E-03   -0.33495E-03 35664   0.209E-01    0.240E-01
DAV:   5    -0.318239856877E+03    0.17487E-04   -0.92032E-04 35448   0.106E-01    0.250E-01
DAV:   6    -0.318239700323E+03    0.15655E-03   -0.55131E-04 35864   0.992E-02    0.993E-02
DAV:   7    -0.318239715435E+03   -0.15112E-04   -0.21895E-04 36464   0.575E-02    0.907E-02
DAV:   8    -0.318239714340E+03    0.10949E-05   -0.72618E-05 31912   0.369E-02
  92 F= -.31823971E+03 E0= -.31823510E+03  d E =-.291352E-02  mag=    40.0000
       N       E                     dE             d eps       ncg     rms          rms(c)
DAV:   1    -0.318207120372E+03    0.32595E-01   -0.45465E+00 36016   0.743E+00    0.767E-01
DAV:   2    -0.318242647646E+03   -0.35527E-01   -0.35693E-01 33792   0.141E+00    0.637E-01
DAV:   3    -0.318243715498E+03   -0.10679E-02   -0.11800E-02 34280   0.364E-01    0.771E-01
DAV:   4    -0.318243068514E+03    0.64698E-03   -0.34369E-03 36664   0.196E-01    0.235E-01
DAV:   5    -0.318243042691E+03    0.25823E-04   -0.69017E-04 35168   0.102E-01    0.237E-01
DAV:   6    -0.318242912506E+03    0.13018E-03   -0.54989E-04 37112   0.997E-02    0.123E-01
DAV:   7    -0.318242916650E+03   -0.41442E-05   -0.23210E-04 35344   0.644E-02    0.988E-02
DAV:   8    -0.318242912091E+03    0.45590E-05   -0.82047E-05 32832   0.402E-02
  93 F= -.31824291E+03 E0= -.31823832E+03  d E =-.319775E-02  mag=    40.0000
       N       E                     dE             d eps       ncg     rms          rms(c)
DAV:   1    -0.318231973605E+03    0.10943E-01   -0.10920E+00 35680   0.416E+00    0.472E-01
DAV:   2    -0.318244317695E+03   -0.12344E-01   -0.12271E-01 34008   0.808E-01    0.359E-01
DAV:   3    -0.318244799801E+03   -0.48211E-03   -0.48260E-03 33968   0.231E-01    0.442E-01
DAV:   4    -0.318244577959E+03    0.22184E-03   -0.13943E-03 36152   0.125E-01    0.149E-01
DAV:   5    -0.318244561767E+03    0.16192E-04   -0.13964E-04 33168   0.492E-02    0.112E-01
DAV:   6    -0.318244524134E+03    0.37634E-04   -0.15573E-04 35560   0.594E-02    0.905E-02
DAV:   7    -0.318244522216E+03    0.19176E-05   -0.11057E-04 34528   0.455E-02    0.760E-02
DAV:   8    -0.318244517356E+03    0.48601E-05   -0.36010E-05 25848   0.282E-02
  94 F= -.31824452E+03 E0= -.31823992E+03  d E =-.160526E-02  mag=    40.0000
       N       E                     dE             d eps       ncg     rms          rms(c)
DAV:   1    -0.318243543899E+03    0.97832E-03   -0.64424E-02 43616   0.124E+00    0.170E-01
DAV:   2    -0.318244947432E+03   -0.14035E-02   -0.14003E-02 34728   0.221E-01    0.149E-01
DAV:   3    -0.318245045978E+03   -0.98546E-04   -0.95763E-04 33616   0.934E-02    0.190E-01
DAV:   4    -0.318245006009E+03    0.39969E-04   -0.24223E-04 31368   0.508E-02    0.581E-02
DAV:   5    -0.318245004690E+03    0.13190E-05   -0.20143E-05 23832   0.187E-02
  95 F= -.31824500E+03 E0= -.31824040E+03  d E =-.487334E-03  mag=    40.0000
