       N       E                     dE             d eps       ncg     rms          rms(c)
DAV:   1     0.714704335857E+04    0.71470E+04   -0.28876E+05 39040   0.160E+03
DAV:   2     0.503164409700E+03   -0.66439E+04   -0.61841E+04 38432   0.485E+02
DAV:   3    -0.384670386135E+03   -0.88783E+03   -0.87351E+03 40328   0.188E+02
DAV:   4    -0.425869261402E+03   -0.41199E+02   -0.40726E+02 48408   0.374E+01
DAV:   5    -0.428783717387E+03   -0.29145E+01   -0.28959E+01 64936   0.716E+00    0.529E+01
DAV:   6    -0.387166242323E+03    0.41617E+02   -0.21865E+02 46648   0.314E+01    0.391E+01
DAV:   7    -0.388484839000E+03   -0.13186E+01   -0.17551E+01 42360   0.989E+00    0.288E+01
DAV:   8    -0.388178845068E+03    0.30599E+00   -0.22023E+00 46888   0.359E+00    0.146E+01
DAV:   9    -0.388335754331E+03   -0.15691E+00   -0.74768E-01 42776   0.252E+00    0.260E+00
DAV:  10    -0.388392914020E+03   -0.57160E-01   -0.18438E-01 45184   0.878E-01    0.947E-01
DAV:  11    -0.388411176422E+03   -0.18262E-01   -0.20852E-02 53712   0.298E-01    0.555E-01
DAV:  12    -0.388424498290E+03   -0.13322E-01   -0.66103E-03 41272   0.192E-01    0.360E-01
DAV:  13    -0.388429502793E+03   -0.50045E-02   -0.40734E-03 42232   0.169E-01    0.219E-01
DAV:  14    -0.388430299744E+03   -0.79695E-03   -0.18988E-03 44072   0.103E-01    0.147E-01
DAV:  15    -0.388430324680E+03   -0.24936E-04   -0.45569E-04 40728   0.516E-02    0.977E-02
DAV:  16    -0.388430400525E+03   -0.75846E-04   -0.38230E-04 42280   0.456E-02    0.483E-02
DAV:  17    -0.388430443398E+03   -0.42873E-04   -0.10672E-04 41768   0.222E-02    0.235E-02
DAV:  18    -0.388430461573E+03   -0.18175E-04   -0.34887E-05 35528   0.126E-02    0.136E-02
DAV:  19    -0.388430470998E+03   -0.94246E-05   -0.64924E-06 26544   0.646E-03
   1 F= -.38843047E+03 E0= -.38843047E+03  d E =-.388430E+03  mag=    60.0020
