       N       E                     dE             d eps       ncg     rms          ort
DAV:   1     0.699824118250E+04    0.69982E+04   -0.30508E+05  9152   0.168E+03
DAV:   2     0.482613851596E+03   -0.65156E+04   -0.60529E+04  9152   0.482E+02
DAV:   3    -0.384710525954E+03   -0.86732E+03   -0.85310E+03  9152   0.188E+02
DAV:   4    -0.422582575817E+03   -0.37872E+02   -0.37433E+02  9152   0.372E+01
DAV:   5    -0.425213795142E+03   -0.26312E+01   -0.26176E+01  9152   0.691E+00
SDA:   6    -0.277572791185E+03    0.14764E+03   -0.26176E+01  9152   0.836E+03 0.000E+00
CGA:   7    -0.355973540770E+03   -0.78401E+02   -0.90789E+02  9152   0.409E+03-0.855E+02
CGA:   8    -0.364805415088E+03   -0.88319E+01   -0.25624E+02  9152   0.101E+03-0.955E+02
CGA:   9    -0.367570475126E+03   -0.27651E+01   -0.61718E+01  9152   0.263E+03-0.290E+02
CGA:  10    -0.361103017728E+03    0.64675E+01   -0.81252E+01  9152   0.176E+03-0.874E+02
CGA:  11    -0.370272518420E+03   -0.91695E+01   -0.53025E+01  9152   0.105E+03-0.131E+03
CGA:  12    -0.371429757733E+03   -0.11572E+01   -0.78112E+01  9152   0.150E+03-0.399E+02
CGA:  13    -0.377149698296E+03   -0.57199E+01   -0.41090E+01  9152   0.367E+02-0.640E+02
CGA:  14    -0.378250219446E+03   -0.11005E+01   -0.75170E+00  9152   0.627E+01 0.472E+01
CGA:  15    -0.378605247950E+03   -0.35503E+00   -0.50979E+00  9152   0.219E+02-0.136E+01
CGA:  16    -0.379076886461E+03   -0.47164E+00   -0.39412E+00  9152   0.185E+02 0.292E+01
CGA:  17    -0.379460493812E+03   -0.38361E+00   -0.39414E+00  9152   0.543E+01-0.176E+01
CGA:  18    -0.379536320157E+03   -0.75826E-01   -0.18588E+00  9152   0.998E+01-0.212E+01
CGA:  19    -0.379739401635E+03   -0.20308E+00   -0.13220E+00  9152   0.796E+01 0.337E+01
CGA:  20    -0.379915383824E+03   -0.17598E+00   -0.38896E+00  9152   0.104E+02-0.506E+01
CGA:  21    -0.380055253377E+03   -0.13987E+00   -0.44259E+00  9152   0.720E+01-0.516E+01
CGA:  22    -0.380361064557E+03   -0.30581E+00   -0.32544E+00  9152   0.479E+00 0.169E+00
CGA:  23    -0.380421866156E+03   -0.60802E-01   -0.59786E-01  9152   0.292E+00 0.950E-01
CGA:  24    -0.380460624683E+03   -0.38759E-01   -0.38875E-01  9152   0.572E+00 0.990E-02
CGA:  25    -0.380538115995E+03   -0.77491E-01   -0.76655E-01  9152   0.232E+00 0.360E-01
CGA:  26    -0.380556664717E+03   -0.18549E-01   -0.18519E-01  9152   0.777E-01 0.116E-03
CGA:  27    -0.380565890291E+03   -0.92256E-02   -0.91972E-02  9152   0.963E-01 0.435E-02
CGA:  28    -0.380573535910E+03   -0.76456E-02   -0.78536E-02  9152   0.244E-01 0.285E-03
CGA:  29    -0.380576271543E+03   -0.27356E-02   -0.27349E-02  9152   0.133E-01-0.244E-03
CGA:  30    -0.380578162707E+03   -0.18912E-02   -0.18804E-02  9152   0.921E-02 0.238E-03
CGA:  31    -0.380579146349E+03   -0.98364E-03   -0.98658E-03  9152   0.957E-02 0.751E-04
CGA:  32    -0.380581082923E+03   -0.19366E-02   -0.19239E-02  9152   0.404E-02 0.107E-03
CGA:  33    -0.380581627015E+03   -0.54409E-03   -0.54560E-03  9152   0.566E-02-0.105E-03
CGA:  34    -0.380582301822E+03   -0.67481E-03   -0.67427E-03  9152   0.205E-02 0.194E-04
CGA:  35    -0.380582655768E+03   -0.35395E-03   -0.36676E-03  9152   0.221E-02-0.211E-03
CGA:  36    -0.380582896470E+03   -0.24070E-03   -0.24085E-03  9152   0.128E-02 0.686E-04
CGA:  37    -0.380583036221E+03   -0.13975E-03   -0.13751E-03  9152   0.860E-03-0.392E-04
CGA:  38    -0.380583162231E+03   -0.12601E-03   -0.12389E-03  9152   0.538E-03 0.540E-04
CGA:  39    -0.380583226625E+03   -0.64394E-04   -0.63743E-04  9152   0.344E-03-0.162E-04
CGA:  40    -0.380583276404E+03   -0.49779E-04   -0.49609E-04  9152   0.373E-03 0.915E-05
CGA:  41    -0.380583312365E+03   -0.35961E-04   -0.35763E-04  9152   0.179E-03 0.794E-05
CGA:  42    -0.380583334820E+03   -0.22455E-04   -0.22450E-04  9152   0.186E-03 0.558E-05
CGA:  43    -0.380583363156E+03   -0.28336E-04   -0.28261E-04  9152   0.151E-03 0.297E-05
CGA:  44    -0.380583379641E+03   -0.16485E-04   -0.16462E-04  9152   0.137E-03-0.371E-06
CGA:  45    -0.380583399179E+03   -0.19537E-04   -0.19465E-04  9152   0.146E-03 0.249E-05
CGA:  46    -0.380583414802E+03   -0.15624E-04   -0.15709E-04  9152   0.816E-04 0.298E-05
CGA:  47    -0.380583428077E+03   -0.13274E-04   -0.13036E-04  9152   0.102E-03 0.657E-05
CGA:  48    -0.380583441191E+03   -0.13115E-04   -0.13169E-04  9152   0.494E-04 0.865E-05
CGA:  49    -0.380583447946E+03   -0.67547E-05   -0.67478E-05  9152   0.536E-04 0.362E-05
   1 F= -.38058345E+03 E0= -.38058008E+03  d E =-.380583E+03  mag=    58.0000
       N       E                     dE             d eps       ncg     rms          ort
SDA:   1    -0.380585940397E+03   -0.24992E-02    0.00000E+00  9152   0.127E-01 0.000E+00
CGA:   2    -0.380587301770E+03   -0.13614E-02   -0.13614E-02  9152   0.856E-02-0.224E-05
CGA:   3    -0.380588099193E+03   -0.79742E-03   -0.79247E-03  9152   0.519E-02-0.296E-04
CGA:   4    -0.380588712362E+03   -0.61317E-03   -0.61334E-03  9152   0.151E-02 0.193E-04
CGA:   5    -0.380588952586E+03   -0.24022E-03   -0.24024E-03  9152   0.380E-03 0.737E-08
CGA:   6    -0.380588996150E+03   -0.43564E-04   -0.43572E-04  9152   0.310E-03-0.127E-06
CGA:   7    -0.380589020274E+03   -0.24123E-04   -0.24030E-04  9152   0.646E-04-0.170E-05
CGA:   8    -0.380589029930E+03   -0.96563E-05   -0.96569E-05  9152   0.306E-04-0.977E-08
   2 F= -.38058903E+03 E0= -.38058565E+03  d E =-.558198E-02  mag=    58.0000
       N       E                     dE             d eps       ncg     rms          ort
SDA:   1    -0.379028236668E+03    0.15608E+01    0.00000E+00  9152   0.556E+01 0.000E+00
CGA:   2    -0.379808555155E+03   -0.78032E+00   -0.78751E+00  9152   0.628E+01-0.247E+00
CGA:   3    -0.380194281094E+03   -0.38573E+00   -0.45315E+00  9152   0.244E+01-0.128E+00
CGA:   4    -0.380540708132E+03   -0.34643E+00   -0.34944E+00  9152   0.757E+00-0.839E-01
CGA:   5    -0.380639837186E+03   -0.99129E-01   -0.99133E-01  9152   0.220E+00-0.175E-03
CGA:   6    -0.380664301260E+03   -0.24464E-01   -0.24352E-01  9152   0.164E+00-0.325E-02
CGA:   7    -0.380675541334E+03   -0.11240E-01   -0.11526E-01  9152   0.372E-01-0.124E-02
CGA:   8    -0.380681448091E+03   -0.59068E-02   -0.59120E-02  9152   0.135E-01-0.955E-04
CGA:   9    -0.380683299652E+03   -0.18516E-02   -0.18491E-02  9152   0.883E-02 0.106E-03
CGA:  10    -0.380684017891E+03   -0.71824E-03   -0.71245E-03  9152   0.442E-02 0.536E-05
CGA:  11    -0.380684565158E+03   -0.54727E-03   -0.54728E-03  9152   0.142E-02-0.336E-05
CGA:  12    -0.380684832545E+03   -0.26739E-03   -0.26750E-03  9152   0.105E-02-0.176E-05
CGA:  13    -0.380684914002E+03   -0.81457E-04   -0.81759E-04  9152   0.580E-03 0.780E-06
CGA:  14    -0.380685000965E+03   -0.86963E-04   -0.86997E-04  9152   0.269E-03-0.680E-06
CGA:  15    -0.380685043768E+03   -0.42803E-04   -0.42731E-04  9152   0.185E-03 0.187E-05
CGA:  16    -0.380685060345E+03   -0.16577E-04   -0.16551E-04  9152   0.129E-03-0.382E-06
CGA:  17    -0.380685078259E+03   -0.17914E-04   -0.17911E-04  9152   0.414E-04 0.220E-06
CGA:  18    -0.380685085423E+03   -0.71636E-05   -0.71747E-05  9152   0.440E-04-0.230E-06
   3 F= -.38068509E+03 E0= -.38068160E+03  d E =-.960555E-01  mag=    58.0000
       N       E                     dE             d eps       ncg     rms          ort
SDA:   1    -0.378458900328E+03    0.22262E+01    0.00000E+00  9152   0.737E+01 0.000E+00
CGA:   2    -0.379497003364E+03   -0.10381E+01   -0.10488E+01  9152   0.936E+01-0.370E+00
CGA:   3    -0.380055239063E+03   -0.55824E+00   -0.66942E+00  9152   0.340E+01-0.212E+00
CGA:   4    -0.380518579597E+03   -0.46334E+00   -0.46564E+00  9152   0.102E+01-0.858E-01
CGA:   5    -0.380653313070E+03   -0.13473E+00   -0.13513E+00  9152   0.342E+00-0.199E-01
CGA:   6    -0.380680858369E+03   -0.27545E-01   -0.28747E-01  9152   0.223E+00 0.179E-02
CGA:   7    -0.380701022130E+03   -0.20164E-01   -0.19840E-01  9152   0.458E-01-0.113E-02
CGA:   8    -0.380708686037E+03   -0.76639E-02   -0.76674E-02  9152   0.203E-01-0.543E-04
CGA:   9    -0.380710755908E+03   -0.20699E-02   -0.20686E-02  9152   0.152E-01-0.145E-04
CGA:  10    -0.380712025875E+03   -0.12700E-02   -0.12802E-02  9152   0.521E-02 0.235E-04
CGA:  11    -0.380712818295E+03   -0.79242E-03   -0.79291E-03  9152   0.205E-02-0.113E-04
CGA:  12    -0.380713113617E+03   -0.29532E-03   -0.29486E-03  9152   0.230E-02 0.136E-04
CGA:  13    -0.380713295991E+03   -0.18237E-03   -0.18205E-03  9152   0.682E-03-0.211E-05
CGA:  14    -0.380713436484E+03   -0.14049E-03   -0.14040E-03  9152   0.496E-03 0.120E-05
CGA:  15    -0.380713488975E+03   -0.52491E-04   -0.52475E-04  9152   0.429E-03-0.283E-06
CGA:  16    -0.380713531592E+03   -0.42617E-04   -0.42696E-04  9152   0.170E-03 0.200E-05
CGA:  17    -0.380713563785E+03   -0.32193E-04   -0.32176E-04  9152   0.979E-04 0.294E-06
CGA:  18    -0.380713572867E+03   -0.90814E-05   -0.91127E-05  9152   0.829E-04 0.761E-06
CGA:  19    -0.380713583725E+03   -0.10858E-04   -0.10857E-04  9152   0.336E-04 0.143E-06
CGA:  20    -0.380713589724E+03   -0.59992E-05   -0.59956E-05  9152   0.313E-04 0.667E-07
   4 F= -.38071359E+03 E0= -.38070998E+03  d E =-.285043E-01  mag=    58.0000
       N       E                     dE             d eps       ncg     rms          ort
SDA:   1    -0.380420933655E+03    0.29265E+00    0.00000E+00  9152   0.779E+00 0.000E+00
CGA:   2    -0.380562984243E+03   -0.14205E+00   -0.14584E+00  9152   0.173E+01-0.505E-01
CGA:   3    -0.380659845097E+03   -0.96861E-01   -0.10545E+00  9152   0.266E+00-0.634E-01
CGA:   4    -0.380696785436E+03   -0.36940E-01   -0.36919E-01  9152   0.132E+00 0.717E-03
CGA:   5    -0.380704952494E+03   -0.81671E-02   -0.78033E-02  9152   0.507E-01 0.345E-02
CGA:   6    -0.380710484706E+03   -0.55322E-02   -0.55397E-02  9152   0.132E-01 0.156E-03
CGA:   7    -0.380712223046E+03   -0.17383E-02   -0.17378E-02  9152   0.740E-02 0.403E-04
CGA:   8    -0.380712712646E+03   -0.48960E-03   -0.48257E-03  9152   0.350E-02 0.477E-04
CGA:   9    -0.380713172137E+03   -0.45949E-03   -0.45940E-03  9152   0.744E-03 0.717E-05
CGA:  10    -0.380713299340E+03   -0.12720E-03   -0.12716E-03  9152   0.786E-03 0.787E-06
CGA:  11    -0.380713349039E+03   -0.49699E-04   -0.49370E-04  9152   0.254E-03 0.171E-07
CGA:  12    -0.380713392984E+03   -0.43945E-04   -0.44034E-04  9152   0.164E-03-0.163E-05
CGA:  13    -0.380713424557E+03   -0.31573E-04   -0.31571E-04  9152   0.116E-03 0.179E-07
CGA:  14    -0.380713435713E+03   -0.11156E-04   -0.11143E-04  9152   0.128E-03-0.177E-06
CGA:  15    -0.380713453309E+03   -0.17595E-04   -0.17578E-04  9152   0.466E-04 0.127E-05
CGA:  16    -0.380713461858E+03   -0.85496E-05   -0.85099E-05  9152   0.343E-04 0.706E-06
   5 F= -.38071346E+03 E0= -.38070986E+03  d E =0.127866E-03  mag=    58.0000
       N       E                     dE             d eps       ncg     rms          ort
SDA:   1    -0.380204639204E+03    0.50881E+00    0.00000E+00  9152   0.140E+01 0.000E+00
CGA:   2    -0.380436178015E+03   -0.23154E+00   -0.23677E+00  9152   0.298E+01-0.937E-01
CGA:   3    -0.380609764633E+03   -0.17359E+00   -0.19049E+00  9152   0.538E+00-0.107E+00
CGA:   4    -0.380680060989E+03   -0.70296E-01   -0.70283E-01  9152   0.287E+00 0.898E-03
CGA:   5    -0.380697244802E+03   -0.17184E-01   -0.16022E-01  9152   0.938E-01 0.127E-01
CGA:   6    -0.380708535022E+03   -0.11290E-01   -0.11295E-01  9152   0.284E-01 0.241E-03
CGA:   7    -0.380711629286E+03   -0.30943E-02   -0.30952E-02  9152   0.199E-01 0.284E-04
CGA:   8    -0.380712934332E+03   -0.13050E-02   -0.12682E-02  9152   0.589E-02 0.268E-03
CGA:   9    -0.380713882976E+03   -0.94864E-03   -0.94864E-03  9152   0.197E-02 0.133E-05
CGA:  10    -0.380714067332E+03   -0.18436E-03   -0.18463E-03  9152   0.188E-02 0.352E-05
CGA:  11    -0.380714247981E+03   -0.18065E-03   -0.18036E-03  9152   0.483E-03-0.418E-05
CGA:  12    -0.380714332911E+03   -0.84930E-04   -0.85029E-04  9152   0.340E-03-0.170E-05
CGA:  13    -0.380714379349E+03   -0.46438E-04   -0.46431E-04  9152   0.396E-03 0.313E-06
CGA:  14    -0.380714410572E+03   -0.31223E-04   -0.31126E-04  9152   0.147E-03-0.523E-06
CGA:  15    -0.380714445408E+03   -0.34836E-04   -0.34636E-04  9152   0.948E-04 0.172E-05
CGA:  16    -0.380714460032E+03   -0.14624E-04   -0.14600E-04  9152   0.901E-04 0.933E-06
CGA:  17    -0.380714467570E+03   -0.75380E-05   -0.75291E-05  9152   0.597E-04-0.281E-07
   6 F= -.38071447E+03 E0= -.38071092E+03  d E =-.100571E-02  mag=    58.0000
       N       E                     dE             d eps       ncg     rms          ort
SDA:   1    -0.379958590035E+03    0.75587E+00    0.00000E+00  9152   0.188E+01 0.000E+00
CGA:   2    -0.380474035631E+03   -0.51545E+00   -0.51953E+00  9152   0.224E+01-0.278E-01
CGA:   3    -0.380590378101E+03   -0.11634E+00   -0.14819E+00  9152   0.837E+00-0.213E+00
CGA:   4    -0.380678750558E+03   -0.88372E-01   -0.87165E-01  9152   0.205E+00-0.288E-01
CGA:   5    -0.380698040896E+03   -0.19290E-01   -0.19742E-01  9152   0.109E+00 0.306E-02
CGA:   6    -0.380707323613E+03   -0.92827E-02   -0.91101E-02  9152   0.285E-01 0.205E-03
CGA:   7    -0.380710861036E+03   -0.35374E-02   -0.35379E-02  9152   0.169E-01 0.132E-03
CGA:   8    -0.380712273135E+03   -0.14121E-02   -0.13967E-02  9152   0.588E-02 0.117E-04
CGA:   9    -0.380712975253E+03   -0.70212E-03   -0.70247E-03  9152   0.274E-02 0.425E-04
CGA:  10    -0.380713227670E+03   -0.25242E-03   -0.25147E-03  9152   0.140E-02-0.647E-05
CGA:  11    -0.380713394378E+03   -0.16671E-03   -0.16671E-03  9152   0.676E-03 0.769E-06
CGA:  12    -0.380713474540E+03   -0.80162E-04   -0.80146E-04  9152   0.568E-03-0.353E-05
CGA:  13    -0.380713541843E+03   -0.67303E-04   -0.67311E-04  9152   0.303E-03 0.184E-05
CGA:  14    -0.380713586021E+03   -0.44178E-04   -0.44216E-04  9152   0.320E-03-0.113E-05
CGA:  15    -0.380713620469E+03   -0.34448E-04   -0.34482E-04  9152   0.157E-03 0.200E-05
CGA:  16    -0.380713644035E+03   -0.23566E-04   -0.23559E-04  9152   0.146E-03 0.299E-06
CGA:  17    -0.380713658403E+03   -0.14369E-04   -0.14406E-04  9152   0.713E-04 0.125E-05
CGA:  18    -0.380713668319E+03   -0.99158E-05   -0.99156E-05  9152   0.492E-04 0.674E-07
   7 F= -.38071367E+03 E0= -.38071018E+03  d E =0.799251E-03  mag=    58.0000
       N       E                     dE             d eps       ncg     rms          ort
SDA:   1    -0.379153785804E+03    0.15599E+01    0.00000E+00  9152   0.395E+01 0.000E+00
CGA:   2    -0.380251318449E+03   -0.10975E+01   -0.10975E+01  9152   0.218E+01 0.470E-03
CGA:   3    -0.380589089004E+03   -0.33777E+00   -0.33722E+00  9152   0.640E+00 0.144E-01
CGA:   4    -0.380670211313E+03   -0.81122E-01   -0.81023E-01  9152   0.291E+00-0.927E-02
CGA:   5    -0.380689631710E+03   -0.19420E-01   -0.20918E-01  9152   0.128E+00-0.707E-02
CGA:   6    -0.380702515002E+03   -0.12883E-01   -0.12847E-01  9152   0.313E-01-0.383E-03
CGA:   7    -0.380707542938E+03   -0.50279E-02   -0.50290E-02  9152   0.122E-01-0.196E-04
CGA:   8    -0.380708679267E+03   -0.11363E-02   -0.11320E-02  9152   0.866E-02-0.177E-04
CGA:   9    -0.380709501084E+03   -0.82182E-03   -0.82470E-03  9152   0.231E-02 0.194E-04
CGA:  10    -0.380709887688E+03   -0.38660E-03   -0.38697E-03  9152   0.139E-02-0.714E-05
CGA:  11    -0.380710061406E+03   -0.17372E-03   -0.17374E-03  9152   0.132E-02 0.749E-05
CGA:  12    -0.380710185626E+03   -0.12422E-03   -0.12417E-03  9152   0.561E-03-0.789E-06
CGA:  13    -0.380710309138E+03   -0.12351E-03   -0.12326E-03  9152   0.375E-03 0.270E-05
CGA:  14    -0.380710351011E+03   -0.41873E-04   -0.41860E-04  9152   0.375E-03-0.194E-06
CGA:  15    -0.380710393940E+03   -0.42929E-04   -0.42968E-04  9152   0.149E-03 0.196E-05
CGA:  16    -0.380710418372E+03   -0.24433E-04   -0.24434E-04  9152   0.834E-04 0.199E-07
CGA:  17    -0.380710428745E+03   -0.10373E-04   -0.10378E-04  9152   0.860E-04 0.800E-06
CGA:  18    -0.380710437343E+03   -0.85978E-05   -0.85956E-05  9152   0.306E-04-0.683E-07
   8 F= -.38071044E+03 E0= -.38070704E+03  d E =0.323098E-02  mag=    58.0000
       N       E                     dE             d eps       ncg     rms          ort
SDA:   1    -0.372982764858E+03    0.77277E+01    0.00000E+00  9152   0.220E+02 0.000E+00
CGA:   2    -0.377146395109E+03   -0.41636E+01   -0.43168E+01  9152   0.293E+02-0.194E+01
CGA:   3    -0.378854596011E+03   -0.17082E+01   -0.21865E+01  9152   0.108E+02 0.143E+00
CGA:   4    -0.380080109253E+03   -0.12255E+01   -0.11907E+01  9152   0.331E+01-0.356E+00
CGA:   5    -0.380482562681E+03   -0.40245E+00   -0.40206E+00  9152   0.775E+00-0.266E-01
CGA:   6    -0.380603710127E+03   -0.12115E+00   -0.12091E+00  9152   0.281E+00 0.606E-02
CGA:   7    -0.380630933646E+03   -0.27224E-01   -0.26027E-01  9152   0.195E+00-0.129E-02
CGA:   8    -0.380647633348E+03   -0.16700E-01   -0.16790E-01  9152   0.643E-01-0.807E-06
CGA:   9    -0.380656156358E+03   -0.85230E-02   -0.85254E-02  9152   0.210E-01-0.323E-03
CGA:  10    -0.380659889719E+03   -0.37334E-02   -0.37269E-02  9152   0.935E-02 0.103E-03
CGA:  11    -0.380660999806E+03   -0.11101E-02   -0.11077E-02  9152   0.823E-02-0.697E-04
CGA:  12    -0.380661732360E+03   -0.73255E-03   -0.73515E-03  9152   0.405E-02 0.642E-05
CGA:  13    -0.380662312209E+03   -0.57985E-03   -0.57977E-03  9152   0.165E-02 0.341E-05
CGA:  14    -0.380662711987E+03   -0.39978E-03   -0.39895E-03  9152   0.133E-02 0.734E-05
CGA:  15    -0.380662819406E+03   -0.10742E-03   -0.10697E-03  9152   0.900E-03 0.125E-05
CGA:  16    -0.380662955326E+03   -0.13592E-03   -0.13581E-03  9152   0.425E-03 0.442E-05
CGA:  17    -0.380663024127E+03   -0.68801E-04   -0.68760E-04  9152   0.204E-03 0.149E-05
CGA:  18    -0.380663059891E+03   -0.35764E-04   -0.35691E-04  9152   0.256E-03 0.178E-05
CGA:  19    -0.380663080347E+03   -0.20456E-04   -0.20425E-04  9152   0.971E-04-0.110E-06
CGA:  20    -0.380663099472E+03   -0.19125E-04   -0.19137E-04  9152   0.744E-04-0.200E-06
CGA:  21    -0.380663111918E+03   -0.12446E-04   -0.12473E-04  9152   0.562E-04-0.839E-06
CGA:  22    -0.380663117046E+03   -0.51285E-05   -0.51350E-05  9152   0.437E-04 0.635E-07
   9 F= -.38066312E+03 E0= -.38065967E+03  d E =0.473203E-01  mag=    58.0000
       N       E                     dE             d eps       ncg     rms          ort
SDA:   1    -0.374106476581E+03    0.65566E+01    0.00000E+00  9152   0.182E+02 0.000E+00
CGA:   2    -0.378376463590E+03   -0.42700E+01   -0.42673E+01  9152   0.105E+02 0.335E-01
CGA:   3    -0.380027299752E+03   -0.16508E+01   -0.16454E+01  9152   0.387E+01 0.231E+00
CGA:   4    -0.380394796567E+03   -0.36750E+00   -0.31612E+00  9152   0.216E+01 0.224E+00
CGA:   5    -0.380588903933E+03   -0.19411E+00   -0.20318E+00  9152   0.547E+00-0.997E-02
CGA:   6    -0.380668231074E+03   -0.79327E-01   -0.79256E-01  9152   0.148E+00 0.476E-02
CGA:   7    -0.380694369271E+03   -0.26138E-01   -0.26192E-01  9152   0.531E-01-0.103E-02
CGA:   8    -0.380701354718E+03   -0.69854E-02   -0.69957E-02  9152   0.413E-01 0.670E-03
CGA:   9    -0.380704514963E+03   -0.31602E-02   -0.30730E-02  9152   0.139E-01 0.533E-03
CGA:  10    -0.380706743460E+03   -0.22285E-02   -0.22289E-02  9152   0.656E-02-0.661E-05
CGA:  11    -0.380707953937E+03   -0.12105E-02   -0.12104E-02  9152   0.333E-02 0.257E-05
CGA:  12    -0.380708466849E+03   -0.51291E-03   -0.51276E-03  9152   0.421E-02 0.792E-05
CGA:  13    -0.380708825436E+03   -0.35859E-03   -0.35563E-03  9152   0.144E-02 0.788E-05
CGA:  14    -0.380709102301E+03   -0.27686E-03   -0.27666E-03  9152   0.805E-03 0.327E-05
CGA:  15    -0.380709245909E+03   -0.14361E-03   -0.14373E-03  9152   0.558E-03-0.252E-05
CGA:  16    -0.380709295661E+03   -0.49752E-04   -0.49922E-04  9152   0.427E-03 0.363E-06
CGA:  17    -0.380709356016E+03   -0.60355E-04   -0.60356E-04  9152   0.166E-03-0.710E-06
CGA:  18    -0.380709391518E+03   -0.35502E-04   -0.35470E-04  9152   0.138E-03 0.404E-06
CGA:  19    -0.380709409314E+03   -0.17796E-04   -0.17792E-04  9152   0.146E-03-0.222E-06
CGA:  20    -0.380709423601E+03   -0.14287E-04   -0.14332E-04  9152   0.585E-04 0.678E-06
CGA:  21    -0.380709436180E+03   -0.12579E-04   -0.12601E-04  9152   0.362E-04-0.292E-06
CGA:  22    -0.380709441458E+03   -0.52780E-05   -0.52784E-05  9152   0.349E-04-0.829E-07
  10 F= -.38070944E+03 E0= -.38070608E+03  d E =-.463244E-01  mag=    58.0000
       N       E                     dE             d eps       ncg     rms          ort
SDA:   1    -0.374596794621E+03    0.61126E+01    0.00000E+00  9152   0.151E+02 0.000E+00
CGA:   2    -0.379159423670E+03   -0.45626E+01   -0.45569E+01  9152   0.741E+01 0.382E-01
CGA:   3    -0.380113206896E+03   -0.95378E+00   -0.93278E+00  9152   0.704E+01-0.292E+00
CGA:   4    -0.380458380377E+03   -0.34517E+00   -0.46040E+00  9152   0.155E+01-0.852E+00
CGA:   5    -0.380628335311E+03   -0.16995E+00   -0.16761E+00  9152   0.456E+00-0.350E-01
CGA:   6    -0.380666701828E+03   -0.38367E-01   -0.40428E-01  9152   0.255E+00-0.270E-02
CGA:   7    -0.380691864613E+03   -0.25163E-01   -0.24688E-01  9152   0.823E-01-0.661E-03
CGA:   8    -0.380701846958E+03   -0.99823E-02   -0.10011E-01  9152   0.398E-01 0.636E-03
CGA:   9    -0.380705214557E+03   -0.33676E-02   -0.32893E-02  9152   0.173E-01 0.242E-03
CGA:  10    -0.380707433535E+03   -0.22190E-02   -0.22202E-02  9152   0.735E-02 0.839E-04
CGA:  11    -0.380708248597E+03   -0.81506E-03   -0.81310E-03  9152   0.609E-02-0.194E-04
CGA:  12    -0.380708970422E+03   -0.72182E-03   -0.72271E-03  9152   0.281E-02 0.306E-04
CGA:  13    -0.380709393884E+03   -0.42346E-03   -0.42400E-03  9152   0.301E-02-0.189E-04
CGA:  14    -0.380709706758E+03   -0.31287E-03   -0.31357E-03  9152   0.159E-02 0.685E-05
CGA:  15    -0.380709945521E+03   -0.23876E-03   -0.23883E-03  9152   0.122E-02-0.290E-05
CGA:  16    -0.380710081876E+03   -0.13635E-03   -0.13651E-03  9152   0.869E-03 0.356E-05
CGA:  17    -0.380710180071E+03   -0.98196E-04   -0.98116E-04  9152   0.401E-03-0.135E-05
CGA:  18    -0.380710239113E+03   -0.59042E-04   -0.58981E-04  9152   0.372E-03 0.310E-05
CGA:  19    -0.380710274309E+03   -0.35195E-04   -0.35166E-04  9152   0.162E-03-0.137E-06
CGA:  20    -0.380710302792E+03   -0.28483E-04   -0.28445E-04  9152   0.160E-03 0.789E-06
CGA:  21    -0.380710318169E+03   -0.15377E-04   -0.15343E-04  9152   0.855E-04-0.557E-06
CGA:  22    -0.380710332340E+03   -0.14171E-04   -0.14151E-04  9152   0.711E-04 0.497E-06
CGA:  23    -0.380710340102E+03   -0.77618E-05   -0.77451E-05  9152   0.481E-04-0.603E-06
  11 F= -.38071034E+03 E0= -.38070690E+03  d E =-.898643E-03  mag=    58.0000
       N       E                     dE             d eps       ncg     rms          ort
SDA:   1    -0.237711160589E+03    0.14300E+03    0.00000E+00  9152   0.612E+03 0.000E+00
CGA:   2    -0.322206715501E+03   -0.84496E+02   -0.85316E+02  9152   0.195E+03-0.392E+02
CGA:   3    -0.355604788335E+03   -0.33398E+02   -0.37062E+02  9152   0.967E+02 0.999E+01
CGA:   4    -0.369860838699E+03   -0.14256E+02   -0.14523E+02  9152   0.455E+02-0.156E+02
CGA:   5    -0.374649002438E+03   -0.47882E+01   -0.48183E+01  9152   0.175E+02 0.154E+01
CGA:   6    -0.376597473263E+03   -0.19485E+01   -0.10774E+01  9152   0.768E+01 0.343E+01
CGA:   7    -0.377415593656E+03   -0.81812E+00   -0.83933E+00  9152   0.468E+01 0.233E+00
CGA:   8    -0.377999269693E+03   -0.58368E+00   -0.53182E+00  9152   0.406E+01-0.117E+01
CGA:   9    -0.378103878761E+03   -0.10461E+00   -0.17667E+00  9152   0.664E+01-0.138E+01
CGA:  10    -0.378250582227E+03   -0.14670E+00   -0.16150E+00  9152   0.571E+01-0.251E+00
CGA:  11    -0.378501108429E+03   -0.25053E+00   -0.16659E+00  9152   0.349E+01 0.182E+01
CGA:  12    -0.378469205169E+03    0.31903E-01   -0.14709E+00  9152   0.615E+01-0.599E+01
CGA:  13    -0.378687159802E+03   -0.21795E+00   -0.34528E+00  9152   0.251E+01-0.131E+01
CGA:  14    -0.378868963520E+03   -0.18180E+00   -0.17582E+00  9152   0.757E+00-0.991E-01
CGA:  15    -0.378969228613E+03   -0.10027E+00   -0.98277E-01  9152   0.306E+00 0.524E-01
CGA:  16    -0.378997967251E+03   -0.28739E-01   -0.27844E-01  9152   0.268E+00-0.849E-02
CGA:  17    -0.379022283237E+03   -0.24316E-01   -0.24926E-01  9152   0.138E+00 0.193E-01
CGA:  18    -0.379042970322E+03   -0.20687E-01   -0.20979E-01  9152   0.775E-01-0.595E-02
CGA:  19    -0.379049588359E+03   -0.66180E-02   -0.65817E-02  9152   0.994E-01-0.517E-03
CGA:  20    -0.379059103882E+03   -0.95155E-02   -0.96292E-02  9152   0.317E-01 0.430E-02
CGA:  21    -0.379062773829E+03   -0.36699E-02   -0.36702E-02  9152   0.390E-01-0.448E-04
CGA:  22    -0.379065315837E+03   -0.25420E-02   -0.25334E-02  9152   0.127E-01 0.994E-05
CGA:  23    -0.379067185834E+03   -0.18700E-02   -0.18671E-02  9152   0.110E-01 0.529E-04
CGA:  24    -0.379067757885E+03   -0.57205E-03   -0.58604E-03  9152   0.430E-02-0.124E-03
CGA:  25    -0.379068360050E+03   -0.60217E-03   -0.60781E-03  9152   0.218E-02-0.112E-03
CGA:  26    -0.379068648586E+03   -0.28854E-03   -0.28924E-03  9152   0.286E-02-0.149E-04
CGA:  27    -0.379068818880E+03   -0.17029E-03   -0.17258E-03  9152   0.737E-03-0.256E-05
CGA:  28    -0.379068945612E+03   -0.12673E-03   -0.12744E-03  9152   0.451E-03-0.895E-05
CGA:  29    -0.379069001636E+03   -0.56025E-04   -0.56098E-04  9152   0.726E-03-0.266E-05
CGA:  30    -0.379069056876E+03   -0.55239E-04   -0.55439E-04  9152   0.183E-03 0.168E-05
CGA:  31    -0.379069091378E+03   -0.34502E-04   -0.34762E-04  9152   0.178E-03-0.314E-05
CGA:  32    -0.379069105400E+03   -0.14022E-04   -0.13939E-04  9152   0.181E-03-0.200E-05
CGA:  33    -0.379069126387E+03   -0.20987E-04   -0.21005E-04  9152   0.684E-04-0.265E-05
CGA:  34    -0.379069136170E+03   -0.97832E-05   -0.98290E-05  9152   0.973E-04-0.133E-05
  12 F= -.37906914E+03 E0= -.37906413E+03  d E =0.164120E+01  mag=    58.0000
       N       E                     dE             d eps       ncg     rms          ort
SDA:   1     0.273486910869E+03    0.65256E+03    0.00000E+00  9152   0.106E+05 0.000E+00
CGA:   2    -0.214347832058E+03   -0.48783E+03   -0.42992E+03  9152   0.539E+03 0.832E+03
CGA:   3    -0.315339833174E+03   -0.10099E+03   -0.10566E+03  9152   0.245E+03-0.143E+02
CGA:   4    -0.356007309030E+03   -0.40667E+02   -0.39770E+02  9152   0.903E+02 0.140E+02
CGA:   5    -0.368668248929E+03   -0.12661E+02   -0.12341E+02  9152   0.465E+02 0.121E+02
CGA:   6    -0.374228323305E+03   -0.55601E+01   -0.55010E+01  9152   0.214E+02-0.308E+01
CGA:   7    -0.376767096213E+03   -0.25388E+01   -0.30214E+01  9152   0.263E+02-0.134E+02
CGA:   8    -0.377646252416E+03   -0.87916E+00   -0.14601E+01  9152   0.140E+02-0.716E+01
CGA:   9    -0.378837401085E+03   -0.11911E+01   -0.12349E+01  9152   0.861E+01-0.297E+01
CGA:  10    -0.379246309962E+03   -0.40891E+00   -0.52037E+00  9152   0.239E+01 0.352E+00
CGA:  11    -0.379557216312E+03   -0.31091E+00   -0.31770E+00  9152   0.424E+01-0.259E+00
CGA:  12    -0.379921419959E+03   -0.36420E+00   -0.36064E+00  9152   0.930E+00-0.551E-01
CGA:  13    -0.380161873998E+03   -0.24045E+00   -0.23629E+00  9152   0.645E+00 0.271E-01
CGA:  14    -0.380217101883E+03   -0.55228E-01   -0.52004E-01  9152   0.321E+00 0.353E-02
CGA:  15    -0.380258121682E+03   -0.41020E-01   -0.40927E-01  9152   0.363E+00 0.533E-02
CGA:  16    -0.380299069089E+03   -0.40947E-01   -0.40996E-01  9152   0.124E+00 0.370E-02
CGA:  17    -0.380319659301E+03   -0.20590E-01   -0.20509E-01  9152   0.711E-01 0.129E-02
CGA:  18    -0.380327116137E+03   -0.74568E-02   -0.73566E-02  9152   0.716E-01-0.202E-02
CGA:  19    -0.380335898496E+03   -0.87824E-02   -0.87816E-02  9152   0.161E-01 0.544E-04
CGA:  20    -0.380339046124E+03   -0.31476E-02   -0.31130E-02  9152   0.162E-01 0.402E-03
CGA:  21    -0.380341400971E+03   -0.23548E-02   -0.23574E-02  9152   0.720E-02-0.930E-04
CGA:  22    -0.380342100918E+03   -0.69995E-03   -0.70354E-03  9152   0.656E-02 0.307E-04
CGA:  23    -0.380343176721E+03   -0.10758E-02   -0.10813E-02  9152   0.203E-02-0.105E-03
CGA:  24    -0.380343579392E+03   -0.40267E-03   -0.40742E-03  9152   0.198E-02-0.544E-04
CGA:  25    -0.380343787654E+03   -0.20826E-03   -0.20740E-03  9152   0.137E-02-0.178E-04
CGA:  26    -0.380343930892E+03   -0.14324E-03   -0.14328E-03  9152   0.497E-03-0.498E-06
CGA:  27    -0.380344041706E+03   -0.11081E-03   -0.11050E-03  9152   0.414E-03 0.297E-05
CGA:  28    -0.380344103188E+03   -0.61482E-04   -0.61483E-04  9152   0.185E-03 0.925E-06
CGA:  29    -0.380344126621E+03   -0.23434E-04   -0.23427E-04  9152   0.241E-03-0.429E-06
CGA:  30    -0.380344159557E+03   -0.32936E-04   -0.32922E-04  9152   0.915E-04 0.223E-05
CGA:  31    -0.380344178578E+03   -0.19022E-04   -0.18994E-04  9152   0.803E-04 0.427E-06
CGA:  32    -0.380344192915E+03   -0.14336E-04   -0.14312E-04  9152   0.406E-04 0.547E-06
CGA:  33    -0.380344200739E+03   -0.78245E-05   -0.78197E-05  9152   0.611E-04 0.373E-07
  13 F= -.38034420E+03 E0= -.38034087E+03  d E =-.127506E+01  mag=    58.0000
       N       E                     dE             d eps       ncg     rms          ort
SDA:   1    -0.377114885658E+03    0.32293E+01    0.00000E+00  9152   0.127E+02 0.000E+00
CGA:   2    -0.378643509308E+03   -0.15286E+01   -0.14928E+01  9152   0.127E+02-0.586E+00
CGA:   3    -0.379519053290E+03   -0.87554E+00   -0.10399E+01  9152   0.521E+01 0.567E-01
CGA:   4    -0.380210900638E+03   -0.69185E+00   -0.69166E+00  9152   0.184E+01-0.418E-01
CGA:   5    -0.380427335403E+03   -0.21643E+00   -0.21430E+00  9152   0.125E+01-0.457E-01
CGA:   6    -0.380488777225E+03   -0.61442E-01   -0.75809E-01  9152   0.412E+00-0.123E+00
CGA:   7    -0.380536102544E+03   -0.47325E-01   -0.47332E-01  9152   0.965E-01 0.135E-02
CGA:   8    -0.380550525403E+03   -0.14423E-01   -0.14435E-01  9152   0.529E-01-0.383E-03
CGA:   9    -0.380554642969E+03   -0.41176E-02   -0.42564E-02  9152   0.314E-01-0.283E-03
CGA:  10    -0.380557747144E+03   -0.31042E-02   -0.31085E-02  9152   0.928E-02 0.438E-04
CGA:  11    -0.380559463421E+03   -0.17163E-02   -0.17154E-02  9152   0.316E-02 0.132E-04
CGA:  12    -0.380560096412E+03   -0.63299E-03   -0.63276E-03  9152   0.180E-02 0.217E-05
CGA:  13    -0.380560307619E+03   -0.21121E-03   -0.21100E-03  9152   0.144E-02-0.630E-05
CGA:  14    -0.380560429067E+03   -0.12145E-03   -0.12161E-03  9152   0.634E-03 0.160E-05
CGA:  15    -0.380560535457E+03   -0.10639E-03   -0.10634E-03  9152   0.247E-03 0.156E-05
CGA:  16    -0.380560580014E+03   -0.44557E-04   -0.44469E-04  9152   0.130E-03 0.190E-05
CGA:  17    -0.380560603541E+03   -0.23527E-04   -0.23485E-04  9152   0.523E-04 0.933E-06
CGA:  18    -0.380560610560E+03   -0.70189E-05   -0.70180E-05  9152   0.615E-04-0.242E-06
  14 F= -.38056061E+03 E0= -.38055717E+03  d E =-.216410E+00  mag=    58.0000
       N       E                     dE             d eps       ncg     rms          ort
SDA:   1    -0.364690864017E+03    0.15870E+02    0.00000E+00  9152   0.592E+02 0.000E+00
CGA:   2    -0.372443107617E+03   -0.77522E+01   -0.77154E+01  9152   0.522E+02-0.481E+01
CGA:   3    -0.376008997615E+03   -0.35659E+01   -0.42190E+01  9152   0.240E+02 0.128E+01
CGA:   4    -0.379179774822E+03   -0.31708E+01   -0.31761E+01  9152   0.778E+01 0.119E+01
CGA:   5    -0.379623778672E+03   -0.44400E+00   -0.23137E+00  9152   0.471E+01 0.680E+01
CGA:   6    -0.380058625603E+03   -0.43485E+00   -0.38597E+00  9152   0.548E+01 0.311E-01
CGA:   7    -0.380337097337E+03   -0.27847E+00   -0.32607E+00  9152   0.169E+01-0.400E+00
CGA:   8    -0.380532441594E+03   -0.19534E+00   -0.19530E+00  9152   0.457E+00 0.611E-02
CGA:   9    -0.380614705172E+03   -0.82264E-01   -0.81320E-01  9152   0.521E+00 0.131E-01
CGA:  10    -0.380648786915E+03   -0.34082E-01   -0.30949E-01  9152   0.216E+00 0.288E-01
CGA:  11    -0.380674832542E+03   -0.26046E-01   -0.26106E-01  9152   0.766E-01 0.465E-02
CGA:  12    -0.380686338757E+03   -0.11506E-01   -0.11484E-01  9152   0.431E-01 0.562E-03
CGA:  13    -0.380688881586E+03   -0.25428E-02   -0.24085E-02  9152   0.181E-01 0.136E-02
CGA:  14    -0.380692558460E+03   -0.36769E-02   -0.36719E-02  9152   0.773E-02 0.536E-04
CGA:  15    -0.380693442739E+03   -0.88428E-03   -0.88578E-03  9152   0.685E-02 0.818E-04
CGA:  16    -0.380694024655E+03   -0.58192E-03   -0.58119E-03  9152   0.471E-02-0.599E-05
CGA:  17    -0.380694670816E+03   -0.64616E-03   -0.64595E-03  9152   0.107E-02 0.854E-05
CGA:  18    -0.380694865873E+03   -0.19506E-03   -0.19382E-03  9152   0.154E-02 0.183E-04
CGA:  19    -0.380694964912E+03   -0.99039E-04   -0.98984E-04  9152   0.382E-03 0.419E-05
CGA:  20    -0.380695023175E+03   -0.58262E-04   -0.58250E-04  9152   0.196E-03 0.112E-05
CGA:  21    -0.380695067217E+03   -0.44042E-04   -0.44057E-04  9152   0.960E-04-0.117E-06
CGA:  22    -0.380695080722E+03   -0.13505E-04   -0.13507E-04  9152   0.153E-03-0.204E-06
CGA:  23    -0.380695094936E+03   -0.14214E-04   -0.14239E-04  9152   0.603E-04 0.685E-06
CGA:  24    -0.380695104324E+03   -0.93882E-05   -0.93858E-05  9152   0.350E-04 0.105E-06
  15 F= -.38069510E+03 E0= -.38069134E+03  d E =-.134494E+00  mag=    58.0000
       N       E                     dE             d eps       ncg     rms          ort
SDA:   1    -0.380258894740E+03    0.43620E+00    0.00000E+00  9152   0.124E+01 0.000E+00
CGA:   2    -0.380534872789E+03   -0.27598E+00   -0.27626E+00  9152   0.960E+00-0.275E-02
CGA:   3    -0.380617461167E+03   -0.82588E-01   -0.88022E-01  9152   0.696E+00-0.618E-04
CGA:   4    -0.380679587484E+03   -0.62126E-01   -0.59591E-01  9152   0.125E+00 0.480E-02
CGA:   5    -0.380698513871E+03   -0.18926E-01   -0.18901E-01  9152   0.509E-01 0.979E-03
CGA:   6    -0.380702119892E+03   -0.36060E-02   -0.34758E-02  9152   0.240E-01 0.935E-03
CGA:   7    -0.380705219621E+03   -0.30997E-02   -0.31000E-02  9152   0.608E-02 0.232E-04
CGA:   8    -0.380705990868E+03   -0.77125E-03   -0.77110E-03  9152   0.567E-02-0.195E-04
CGA:   9    -0.380706414916E+03   -0.42405E-03   -0.42701E-03  9152   0.155E-02-0.104E-04
CGA:  10    -0.380706627715E+03   -0.21280E-03   -0.21286E-03  9152   0.879E-03-0.334E-05
CGA:  11    -0.380706722604E+03   -0.94890E-04   -0.95028E-04  9152   0.693E-03 0.400E-05
CGA:  12    -0.380706785045E+03   -0.62440E-04   -0.62418E-04  9152   0.246E-03 0.266E-06
CGA:  13    -0.380706833927E+03   -0.48883E-04   -0.48759E-04  9152   0.261E-03 0.168E-05
CGA:  14    -0.380706853378E+03   -0.19451E-04   -0.19382E-04  9152   0.115E-03-0.172E-06
CGA:  15    -0.380706875011E+03   -0.21633E-04   -0.21613E-04  9152   0.895E-04 0.309E-06
CGA:  16    -0.380706883671E+03   -0.86596E-05   -0.86383E-05  9152   0.593E-04-0.586E-06
  16 F= -.38070688E+03 E0= -.38070313E+03  d E =-.117793E-01  mag=    58.0000
       N       E                     dE             d eps       ncg     rms          ort
SDA:   1    -0.374477262731E+03    0.62296E+01    0.00000E+00  9152   0.158E+02 0.000E+00
CGA:   2    -0.378834134852E+03   -0.43569E+01   -0.43484E+01  9152   0.948E+01 0.539E-01
CGA:   3    -0.380092776596E+03   -0.12586E+01   -0.12571E+01  9152   0.504E+01-0.384E+00
CGA:   4    -0.380412133794E+03   -0.31936E+00   -0.38166E+00  9152   0.236E+01-0.198E+00
CGA:   5    -0.380604204957E+03   -0.19207E+00   -0.17612E+00  9152   0.437E+00 0.591E-01
CGA:   6    -0.380673926730E+03   -0.69722E-01   -0.69574E-01  9152   0.172E+00 0.373E-02
CGA:   7    -0.380688046054E+03   -0.14119E-01   -0.13447E-01  9152   0.119E+00 0.216E-02
CGA:   8    -0.380701530746E+03   -0.13485E-01   -0.13498E-01  9152   0.226E-01 0.298E-03
CGA:   9    -0.380705013386E+03   -0.34826E-02   -0.34847E-02  9152   0.229E-01-0.511E-04
CGA:  10    -0.380706570512E+03   -0.15571E-02   -0.15815E-02  9152   0.754E-02-0.128E-03
CGA:  11    -0.380707644284E+03   -0.10738E-02   -0.10752E-02  9152   0.478E-02-0.474E-04
CGA:  12    -0.380708338324E+03   -0.69404E-03   -0.69277E-03  9152   0.500E-02 0.427E-04
CGA:  13    -0.380708727504E+03   -0.38918E-03   -0.38825E-03  9152   0.198E-02 0.721E-06
CGA:  14    -0.380709212706E+03   -0.48520E-03   -0.48469E-03  9152   0.182E-02 0.426E-05
CGA:  15    -0.380709339772E+03   -0.12707E-03   -0.12603E-03  9152   0.959E-03 0.508E-05
CGA:  16    -0.380709527090E+03   -0.18732E-03   -0.18700E-03  9152   0.554E-03 0.462E-05
CGA:  17    -0.380709580554E+03   -0.53464E-04   -0.53446E-04  9152   0.406E-03 0.483E-07
CGA:  18    -0.380709623577E+03   -0.43023E-04   -0.43078E-04  9152   0.264E-03 0.173E-05
CGA:  19    -0.380709662891E+03   -0.39314E-04   -0.39323E-04  9152   0.129E-03-0.334E-06
CGA:  20    -0.380709676171E+03   -0.13280E-04   -0.13304E-04  9152   0.145E-03 0.734E-06
CGA:  21    -0.380709699193E+03   -0.23022E-04   -0.23029E-04  9152   0.550E-04-0.228E-06
CGA:  22    -0.380709706166E+03   -0.69731E-05   -0.69737E-05  9152   0.755E-04 0.136E-06
  17 F= -.38070971E+03 E0= -.38070586E+03  d E =-.282250E-02  mag=    58.0000
       N       E                     dE             d eps       ncg     rms          ort
SDA:   1    -0.361778575006E+03    0.18931E+02    0.00000E+00  9152   0.478E+02 0.000E+00
CGA:   2    -0.375036747751E+03   -0.13258E+02   -0.13347E+02  9152   0.307E+02-0.644E+00
CGA:   3    -0.378933645205E+03   -0.38969E+01   -0.39049E+01  9152   0.105E+02 0.513E+00
CGA:   4    -0.379967083167E+03   -0.10334E+01   -0.11175E+01  9152   0.474E+01 0.656E+00
CGA:   5    -0.380373570025E+03   -0.40649E+00   -0.29414E+00  9152   0.927E+00 0.121E+01
CGA:   6    -0.380515634500E+03   -0.14206E+00   -0.14155E+00  9152   0.186E+01-0.251E-01
CGA:   7    -0.380591448841E+03   -0.75814E-01   -0.79719E-01  9152   0.433E+00-0.676E-01
CGA:   8    -0.380611378072E+03   -0.19929E-01   -0.22784E-01  9152   0.389E+00-0.323E-01
CGA:   9    -0.380645433038E+03   -0.34055E-01   -0.34052E-01  9152   0.202E+00-0.589E-04
CGA:  10    -0.380653090061E+03   -0.76570E-02   -0.68422E-02  9152   0.575E-01 0.192E-01
CGA:  11    -0.380659323947E+03   -0.62339E-02   -0.62176E-02  9152   0.127E+00-0.290E-03
CGA:  12    -0.380666056806E+03   -0.67329E-02   -0.67721E-02  9152   0.449E-01-0.347E-03
CGA:  13    -0.380667589552E+03   -0.15327E-02   -0.16100E-02  9152   0.199E-01-0.162E-02
CGA:  14    -0.380669417823E+03   -0.18283E-02   -0.18284E-02  9152   0.300E-01 0.690E-05
CGA:  15    -0.380670997171E+03   -0.15793E-02   -0.15562E-02  9152   0.159E-01 0.234E-03
CGA:  16    -0.380672218121E+03   -0.12210E-02   -0.12203E-02  9152   0.178E-01-0.558E-05
CGA:  17    -0.380673036872E+03   -0.81875E-03   -0.82496E-03  9152   0.595E-02-0.737E-04
CGA:  18    -0.380673451287E+03   -0.41442E-03   -0.41659E-03  9152   0.918E-02 0.832E-05
CGA:  19    -0.380674364530E+03   -0.91324E-03   -0.91324E-03  9152   0.666E-02 0.257E-05
CGA:  20    -0.380674594314E+03   -0.22978E-03   -0.22567E-03  9152   0.182E-02 0.850E-04
CGA:  21    -0.380674779056E+03   -0.18474E-03   -0.18475E-03  9152   0.407E-02-0.787E-07
CGA:  22    -0.380675044696E+03   -0.26564E-03   -0.26604E-03  9152   0.190E-02 0.720E-05
CGA:  23    -0.380675132167E+03   -0.87472E-04   -0.87906E-04  9152   0.127E-02 0.949E-06
CGA:  24    -0.380675232951E+03   -0.10078E-03   -0.10085E-03  9152   0.107E-02 0.326E-05
CGA:  25    -0.380675287316E+03   -0.54366E-04   -0.54106E-04  9152   0.790E-03 0.120E-05
CGA:  26    -0.380675375114E+03   -0.87798E-04   -0.87799E-04  9152   0.112E-02-0.158E-06
CGA:  27    -0.380675421101E+03   -0.45987E-04   -0.46263E-04  9152   0.279E-03-0.200E-05
CGA:  28    -0.380675444772E+03   -0.23671E-04   -0.23674E-04  9152   0.514E-03 0.616E-06
CGA:  29    -0.380675493953E+03   -0.49182E-04   -0.49199E-04  9152   0.282E-03-0.239E-05
CGA:  30    -0.380675506172E+03   -0.12219E-04   -0.12122E-04  9152   0.144E-03-0.131E-05
CGA:  31    -0.380675523027E+03   -0.16855E-04   -0.16929E-04  9152   0.198E-03-0.232E-05
SDA:  32    -0.380675532758E+03   -0.97302E-05   -0.97096E-05  9152   0.101E-03-0.102E-05
CGA:  33    -0.380675543158E+03   -0.10401E-04   -0.10414E-04  9152   0.476E-04-0.779E-06
CGA:  34    -0.380675549206E+03   -0.60479E-05   -0.60587E-05  9152   0.843E-04-0.268E-06
  18 F= -.38067555E+03 E0= -.38067155E+03  d E =0.341570E-01  mag=    58.0000
       N       E                     dE             d eps       ncg     rms          ort
SDA:   1    -0.355608383749E+03    0.25067E+02    0.00000E+00  9152   0.645E+02 0.000E+00
CGA:   2    -0.372833026547E+03   -0.17225E+02   -0.16212E+02  9152   0.331E+02 0.574E+01
CGA:   3    -0.377180607308E+03   -0.43476E+01   -0.54036E+01  9152   0.443E+02-0.110E+02
CGA:   4    -0.379032021096E+03   -0.18514E+01   -0.17169E+01  9152   0.126E+02-0.300E+01
CGA:   5    -0.379780460344E+03   -0.74844E+00   -0.78707E+00  9152   0.609E+01-0.454E-01
CGA:   6    -0.380246459649E+03   -0.46600E+00   -0.38436E+00  9152   0.172E+01 0.237E+00
CGA:   7    -0.380410997701E+03   -0.16454E+00   -0.16456E+00  9152   0.262E+01 0.274E-02
CGA:   8    -0.380515765548E+03   -0.10477E+00   -0.11645E+00  9152   0.791E+00-0.141E+00
CGA:   9    -0.380574483421E+03   -0.58718E-01   -0.58886E-01  9152   0.734E+00 0.364E-02
CGA:  10    -0.380617306166E+03   -0.42823E-01   -0.40629E-01  9152   0.175E+00 0.924E-02
CGA:  11    -0.380636132641E+03   -0.18826E-01   -0.18806E-01  9152   0.213E+00 0.831E-03
CGA:  12    -0.380646156723E+03   -0.10024E-01   -0.10602E-01  9152   0.625E-01-0.445E-02
CGA:  13    -0.380653980605E+03   -0.78239E-02   -0.77950E-02  9152   0.663E-01 0.608E-03
CGA:  14    -0.380657405809E+03   -0.34252E-02   -0.33369E-02  9152   0.232E-01 0.681E-03
CGA:  15    -0.380661072844E+03   -0.36670E-02   -0.36698E-02  9152   0.182E-01-0.366E-04
CGA:  16    -0.380661995369E+03   -0.92253E-03   -0.94197E-03  9152   0.934E-02-0.119E-03
CGA:  17    -0.380663578811E+03   -0.15834E-02   -0.15817E-02  9152   0.595E-02 0.211E-04
CGA:  18    -0.380664009393E+03   -0.43058E-03   -0.42966E-03  9152   0.587E-02-0.115E-04
CGA:  19    -0.380664666605E+03   -0.65721E-03   -0.65684E-03  9152   0.237E-02 0.133E-04
CGA:  20    -0.380664951649E+03   -0.28504E-03   -0.28449E-03  9152   0.366E-02 0.169E-04
CGA:  21    -0.380665210851E+03   -0.25920E-03   -0.25889E-03  9152   0.106E-02 0.216E-07
CGA:  22    -0.380665413818E+03   -0.20297E-03   -0.20297E-03  9152   0.158E-02-0.117E-06
CGA:  23    -0.380665498000E+03   -0.84181E-04   -0.84720E-04  9152   0.566E-03-0.838E-07
CGA:  24    -0.380665606686E+03   -0.10869E-03   -0.10842E-03  9152   0.448E-03 0.277E-05
CGA:  25    -0.380665639832E+03   -0.33146E-04   -0.33062E-04  9152   0.399E-03-0.150E-05
CGA:  26    -0.380665686875E+03   -0.47043E-04   -0.47063E-04  9152   0.160E-03-0.116E-05
CGA:  27    -0.380665712522E+03   -0.25647E-04   -0.25729E-04  9152   0.244E-03-0.139E-05
CGA:  28    -0.380665727515E+03   -0.14993E-04   -0.14888E-04  9152   0.899E-04-0.214E-05
CGA:  29    -0.380665743335E+03   -0.15820E-04   -0.16035E-04  9152   0.742E-04-0.277E-05
CGA:  30    -0.380665749561E+03   -0.62262E-05   -0.62119E-05  9152   0.806E-04-0.810E-06
  19 F= -.38066575E+03 E0= -.38066162E+03  d E =0.979965E-02  mag=    58.0000
       N       E                     dE             d eps       ncg     rms          ort
SDA:   1    -0.192607977080E+03    0.18806E+03    0.00000E+00  9152   0.945E+03 0.000E+00
CGA:   2    -0.134667971660E+03    0.57940E+02   -0.13702E+03  9152   0.160E+04-0.848E+03
CGA:   3    -0.327996164196E+03   -0.19333E+03   -0.60099E+02  9152   0.210E+03 0.171E+03
CGA:   4    -0.357556591890E+03   -0.29560E+02   -0.30438E+02  9152   0.108E+03-0.417E+02
CGA:   5    -0.365101293976E+03   -0.75447E+01   -0.78284E+01  9152   0.525E+02 0.664E+01
CGA:   6    -0.373937278773E+03   -0.88360E+01   -0.87142E+01  9152   0.236E+02 0.204E+01
CGA:   7    -0.375563374816E+03   -0.16261E+01   -0.13311E+01  9152   0.220E+02-0.707E+01
CGA:   8    -0.376546771118E+03   -0.98340E+00   -0.10389E+01  9152   0.238E+02 0.117E+00
CGA:   9    -0.377377557258E+03   -0.83079E+00   -0.10660E+01  9152   0.118E+02-0.707E+01
CGA:  10    -0.377656985257E+03   -0.27943E+00   -0.32479E+00  9152   0.787E+01-0.101E+01
CGA:  11    -0.378038241976E+03   -0.38126E+00   -0.32567E+00  9152   0.463E+01 0.895E+00
CGA:  12    -0.378391022767E+03   -0.35278E+00   -0.35056E+00  9152   0.469E+01 0.987E-01
CGA:  13    -0.378520545236E+03   -0.12952E+00   -0.18144E+00  9152   0.204E+01-0.983E+00
CGA:  14    -0.378634052558E+03   -0.11351E+00   -0.11728E+00  9152   0.123E+01 0.664E-01
CGA:  15    -0.378725616220E+03   -0.91564E-01   -0.87469E-01  9152   0.118E+01-0.467E-01
CGA:  16    -0.378827202557E+03   -0.10159E+00   -0.10150E+00  9152   0.792E+00 0.241E-01
CGA:  17    -0.378864483755E+03   -0.37281E-01   -0.41363E-01  9152   0.452E+00-0.127E-01
CGA:  18    -0.378907445392E+03   -0.42962E-01   -0.42915E-01  9152   0.216E+00 0.253E-02
CGA:  19    -0.378928928708E+03   -0.21483E-01   -0.21830E-01  9152   0.224E+00-0.163E-01
CGA:  20    -0.378945965529E+03   -0.17037E-01   -0.17031E-01  9152   0.133E+00-0.531E-03
CGA:  21    -0.378958208053E+03   -0.12243E-01   -0.12208E-01  9152   0.852E-01 0.356E-02
CGA:  22    -0.378963342582E+03   -0.51345E-02   -0.51942E-02  9152   0.401E-01 0.486E-04
CGA:  23    -0.378970166427E+03   -0.68238E-02   -0.68498E-02  9152   0.403E-01-0.312E-03
CGA:  24    -0.378972674505E+03   -0.25081E-02   -0.25007E-02  9152   0.237E-01 0.643E-05
CGA:  25    -0.378975467774E+03   -0.27933E-02   -0.28300E-02  9152   0.107E-01-0.984E-03
CGA:  26    -0.378976205465E+03   -0.73769E-03   -0.73466E-03  9152   0.104E-01-0.396E-04
CGA:  27    -0.378977482082E+03   -0.12766E-02   -0.12744E-02  9152   0.520E-02 0.565E-04
CGA:  28    -0.378977872452E+03   -0.39037E-03   -0.39236E-03  9152   0.529E-02 0.315E-04
CGA:  29    -0.378978533818E+03   -0.66137E-03   -0.66565E-03  9152   0.254E-02-0.211E-03
CGA:  30    -0.378978658841E+03   -0.12502E-03   -0.57309E-03  9152   0.170E-01-0.396E-02
CGA:  31    -0.378979267292E+03   -0.60845E-03   -0.62774E-03  9152   0.200E-02-0.355E-03
CGA:  32    -0.378979508655E+03   -0.24136E-03   -0.24016E-03  9152   0.106E-02 0.339E-04
CGA:  33    -0.378979708045E+03   -0.19939E-03   -0.19790E-03  9152   0.756E-03 0.166E-04
CGA:  34    -0.378979759690E+03   -0.51645E-04   -0.51421E-04  9152   0.525E-03-0.960E-06
CGA:  35    -0.378979842306E+03   -0.82616E-04   -0.82598E-04  9152   0.168E-03-0.219E-08
CGA:  36    -0.378979879978E+03   -0.37673E-04   -0.37550E-04  9152   0.268E-03 0.109E-05
CGA:  37    -0.378979902930E+03   -0.22952E-04   -0.23005E-04  9152   0.210E-03 0.104E-05
CGA:  38    -0.378979922351E+03   -0.19421E-04   -0.19367E-04  9152   0.402E-04-0.111E-05
CGA:  39    -0.378979934214E+03   -0.11863E-04   -0.11493E-04  9152   0.583E-04 0.204E-05
CGA:  40    -0.378979938140E+03   -0.39264E-05   -0.39210E-05  9152   0.325E-04-0.262E-07
  20 F= -.37897994E+03 E0= -.37897494E+03  d E =0.168581E+01  mag=    58.0000
       N       E                     dE             d eps       ncg     rms          ort
SDA:   1     0.826880036700E+02    0.46167E+03    0.00000E+00  9152   0.284E+04 0.000E+00
CGA:   2    -0.220333236438E+03   -0.30302E+03   -0.10876E+03  9152   0.531E+03 0.842E+03
CGA:   3    -0.307915244428E+03   -0.87582E+02   -0.88514E+02  9152   0.220E+03-0.166E+02
CGA:   4    -0.348108577111E+03   -0.40193E+02   -0.41228E+02  9152   0.132E+03 0.640E+00
CGA:   5    -0.364035888787E+03   -0.15927E+02   -0.16159E+02  9152   0.668E+02-0.290E+02
CGA:   6    -0.371382201687E+03   -0.73463E+01   -0.73691E+01  9152   0.336E+02-0.720E+00
CGA:   7    -0.373841517947E+03   -0.24593E+01   -0.28121E+01  9152   0.218E+02 0.215E+01
CGA:   8    -0.376589523563E+03   -0.27480E+01   -0.27514E+01  9152   0.126E+02-0.124E+01
CGA:   9    -0.377289668748E+03   -0.70015E+00   -0.78032E+00  9152   0.154E+02-0.199E+00
CGA:  10    -0.378167103006E+03   -0.87743E+00   -0.88811E+00  9152   0.121E+02-0.333E+00
CGA:  11    -0.378768936393E+03   -0.60183E+00   -0.63606E+00  9152   0.710E+01-0.177E+01
CGA:  12    -0.379284242190E+03   -0.51531E+00   -0.51016E+00  9152   0.392E+01 0.255E+00
CGA:  13    -0.379493531825E+03   -0.20929E+00   -0.21941E+00  9152   0.590E+01-0.200E+00
CGA:  14    -0.379732563263E+03   -0.23903E+00   -0.25101E+00  9152   0.428E+01-0.270E+00
CGA:  15    -0.379915121574E+03   -0.18256E+00   -0.20632E+00  9152   0.168E+01-0.173E+00
CGA:  16    -0.380040501180E+03   -0.12538E+00   -0.12979E+00  9152   0.120E+01 0.710E-01
CGA:  17    -0.380111500306E+03   -0.70999E-01   -0.72253E-01  9152   0.107E+01-0.206E-01
CGA:  18    -0.380223571873E+03   -0.11207E+00   -0.11227E+00  9152   0.639E+00-0.131E-01
CGA:  19    -0.380253304544E+03   -0.29733E-01   -0.32084E-01  9152   0.333E+00-0.264E-01
CGA:  20    -0.380306197374E+03   -0.52893E-01   -0.52190E-01  9152   0.264E+00 0.851E-02
CGA:  21    -0.380322637225E+03   -0.16440E-01   -0.16621E-01  9152   0.150E+00-0.833E-03
CGA:  22    -0.380340017510E+03   -0.17380E-01   -0.17296E-01  9152   0.120E+00 0.293E-02
CGA:  23    -0.380353789898E+03   -0.13772E-01   -0.13691E-01  9152   0.976E-01 0.349E-02
CGA:  24    -0.380361206241E+03   -0.74163E-02   -0.72348E-02  9152   0.377E-01-0.963E-03
CGA:  25    -0.380369425835E+03   -0.82196E-02   -0.82969E-02  9152   0.385E-01-0.701E-03
CGA:  26    -0.380371910645E+03   -0.24848E-02   -0.25368E-02  9152   0.191E-01-0.600E-04
CGA:  27    -0.380375741427E+03   -0.38308E-02   -0.38601E-02  9152   0.955E-02-0.317E-03
CGA:  28    -0.380377019113E+03   -0.12777E-02   -0.12806E-02  9152   0.117E-01-0.713E-04
CGA:  29    -0.380378119083E+03   -0.11000E-02   -0.11059E-02  9152   0.596E-02 0.182E-03
CGA:  30    -0.380378994106E+03   -0.87502E-03   -0.87652E-03  9152   0.315E-02-0.321E-04
CGA:  31    -0.380379453339E+03   -0.45923E-03   -0.46071E-03  9152   0.378E-02-0.300E-04
SDA:  32    -0.380379759047E+03   -0.30571E-03   -0.30765E-03  9152   0.175E-02 0.140E-04
CGA:  33    -0.380379990050E+03   -0.23100E-03   -0.23170E-03  9152   0.171E-02-0.205E-04
CGA:  34    -0.380380182378E+03   -0.19233E-03   -0.19227E-03  9152   0.144E-02 0.115E-04
CGA:  35    -0.380380369990E+03   -0.18761E-03   -0.18763E-03  9152   0.442E-03-0.493E-06
CGA:  36    -0.380380463103E+03   -0.93113E-04   -0.93358E-04  9152   0.273E-03-0.292E-05
CGA:  37    -0.380380503501E+03   -0.40398E-04   -0.40330E-04  9152   0.281E-03 0.102E-05
CGA:  38    -0.380380529913E+03   -0.26412E-04   -0.26358E-04  9152   0.175E-03-0.114E-05
CGA:  39    -0.380380558146E+03   -0.28233E-04   -0.28281E-04  9152   0.433E-04-0.130E-05
CGA:  40    -0.380380568511E+03   -0.10364E-04   -0.10144E-04  9152   0.486E-04 0.512E-06
CGA:  41    -0.380380572823E+03   -0.43122E-05   -0.42995E-05  9152   0.359E-04-0.122E-05
  21 F= -.38038057E+03 E0= -.38037680E+03  d E =-.140063E+01  mag=    58.0000
       N       E                     dE             d eps       ncg     rms          ort
SDA:   1    -0.378887873756E+03    0.14927E+01    0.00000E+00  9152   0.563E+01 0.000E+00
CGA:   2    -0.379523267914E+03   -0.63539E+00   -0.62583E+00  9152   0.682E+01-0.257E+00
CGA:   3    -0.380022674253E+03   -0.49941E+00   -0.54205E+00  9152   0.229E+01 0.609E-01
CGA:   4    -0.380305035381E+03   -0.28236E+00   -0.28238E+00  9152   0.116E+01 0.334E-01
CGA:   5    -0.380387951434E+03   -0.82916E-01   -0.74795E-01  9152   0.599E+00 0.603E-01
CGA:   6    -0.380443364513E+03   -0.55413E-01   -0.55650E-01  9152   0.171E+00 0.119E-02
CGA:   7    -0.380460359828E+03   -0.16995E-01   -0.17096E-01  9152   0.127E+00 0.181E-02
CGA:   8    -0.380469160912E+03   -0.88011E-02   -0.85145E-02  9152   0.284E-01 0.152E-02
CGA:   9    -0.380473468066E+03   -0.43072E-02   -0.43070E-02  9152   0.185E-01 0.929E-05
CGA:  10    -0.380474707345E+03   -0.12393E-02   -0.12615E-02  9152   0.986E-02-0.795E-04
CGA:  11    -0.380475749135E+03   -0.10418E-02   -0.10420E-02  9152   0.342E-02 0.159E-04
CGA:  12    -0.380476247797E+03   -0.49866E-03   -0.49904E-03  9152   0.312E-02-0.869E-05
CGA:  13    -0.380476439001E+03   -0.19120E-03   -0.19213E-03  9152   0.103E-02-0.488E-05
CGA:  14    -0.380476625591E+03   -0.18659E-03   -0.18686E-03  9152   0.565E-03-0.397E-05
CGA:  15    -0.380476684842E+03   -0.59251E-04   -0.59217E-04  9152   0.524E-03-0.227E-05
CGA:  16    -0.380476728246E+03   -0.43404E-04   -0.43447E-04  9152   0.203E-03 0.107E-05
CGA:  17    -0.380476762280E+03   -0.34034E-04   -0.33928E-04  9152   0.103E-03 0.200E-05
CGA:  18    -0.380476771212E+03   -0.89324E-05   -0.89449E-05  9152   0.861E-04 0.475E-06
  22 F= -.38047677E+03 E0= -.38047291E+03  d E =-.961984E-01  mag=    58.0000
       N       E                     dE             d eps       ncg     rms          ort
SDA:   1    -0.324118648902E+03    0.56358E+02    0.00000E+00  9152   0.424E+03 0.000E+00
CGA:   2    -0.351383219921E+03   -0.27265E+02   -0.35896E+02  9152   0.745E+02 0.862E+02
CGA:   3    -0.370786117707E+03   -0.19403E+02   -0.17645E+02  9152   0.365E+02 0.156E+02
CGA:   4    -0.375230113863E+03   -0.44440E+01   -0.44214E+01  9152   0.652E+02 0.173E+01
CGA:   5    -0.376574840771E+03   -0.13447E+01   -0.31766E+01  9152   0.553E+02-0.223E+02
CGA:   6    -0.378345841354E+03   -0.17710E+01   -0.15403E+01  9152   0.162E+02 0.292E+01
CGA:   7    -0.378631837247E+03   -0.28600E+00   -0.84590E+00  9152   0.933E+01-0.330E+01
CGA:   8    -0.379423094354E+03   -0.79126E+00   -0.81735E+00  9152   0.512E+01-0.404E+01
CGA:   9    -0.379571637739E+03   -0.14854E+00   -0.13534E+00  9152   0.693E+01 0.134E+00
CGA:  10    -0.379906317660E+03   -0.33468E+00   -0.42946E+00  9152   0.295E+01 0.117E-01
CGA:  11    -0.380066181066E+03   -0.15986E+00   -0.18756E+00  9152   0.211E+01-0.575E-01
CGA:  12    -0.380296243924E+03   -0.23006E+00   -0.23339E+00  9152   0.709E+00-0.155E+00
CGA:  13    -0.380399629937E+03   -0.10339E+00   -0.99802E-01  9152   0.584E+00 0.562E-01
CGA:  14    -0.380441745870E+03   -0.42116E-01   -0.41321E-01  9152   0.334E+00-0.493E-03
CGA:  15    -0.380485565503E+03   -0.43820E-01   -0.43632E-01  9152   0.116E+00 0.441E-02
CGA:  16    -0.380499652656E+03   -0.14087E-01   -0.14216E-01  9152   0.156E+00-0.453E-02
CGA:  17    -0.380511035089E+03   -0.11382E-01   -0.11485E-01  9152   0.507E-01 0.624E-03
CGA:  18    -0.380517513131E+03   -0.64780E-02   -0.64797E-02  9152   0.219E-01-0.441E-04
CGA:  19    -0.380522022383E+03   -0.45093E-02   -0.44972E-02  9152   0.166E-01 0.116E-03
CGA:  20    -0.380522980193E+03   -0.95781E-03   -0.94035E-03  9152   0.760E-02 0.141E-03
CGA:  21    -0.380524482523E+03   -0.15023E-02   -0.15070E-02  9152   0.349E-02-0.515E-04
CGA:  22    -0.380525028464E+03   -0.54594E-03   -0.54575E-03  9152   0.257E-02 0.226E-05
CGA:  23    -0.380525271509E+03   -0.24305E-03   -0.24323E-03  9152   0.261E-02 0.711E-06
CGA:  24    -0.380525521138E+03   -0.24963E-03   -0.24915E-03  9152   0.678E-03-0.169E-04
CGA:  25    -0.380525637132E+03   -0.11599E-03   -0.11651E-03  9152   0.426E-03-0.797E-05
CGA:  26    -0.380525701594E+03   -0.64463E-04   -0.64677E-04  9152   0.489E-03-0.510E-05
CGA:  27    -0.380525729373E+03   -0.27778E-04   -0.27717E-04  9152   0.123E-03-0.917E-06
CGA:  28    -0.380525759386E+03   -0.30013E-04   -0.30764E-04  9152   0.978E-04-0.561E-05
CGA:  29    -0.380525772757E+03   -0.13371E-04   -0.13377E-04  9152   0.395E-04-0.288E-06
CGA:  30    -0.380525781667E+03   -0.89101E-05   -0.87468E-05  9152   0.385E-04 0.159E-05
  23 F= -.38052578E+03 E0= -.38052155E+03  d E =-.490105E-01  mag=    58.0000
       N       E                     dE             d eps       ncg     rms          ort
SDA:   1    -0.371584769035E+03    0.89410E+01    0.00000E+00  9152   0.285E+02 0.000E+00
CGA:   2    -0.376877564575E+03   -0.52928E+01   -0.53465E+01  9152   0.182E+02-0.698E+00
CGA:   3    -0.379167058671E+03   -0.22895E+01   -0.22843E+01  9152   0.807E+01 0.154E+01
CGA:   4    -0.379934247497E+03   -0.76719E+00   -0.59751E+00  9152   0.388E+01 0.546E+00
CGA:   5    -0.380406216861E+03   -0.47197E+00   -0.47227E+00  9152   0.103E+01 0.133E-01
CGA:   6    -0.380549079750E+03   -0.14286E+00   -0.14213E+00  9152   0.769E+00 0.300E-01
CGA:   7    -0.380597149724E+03   -0.48070E-01   -0.42074E-01  9152   0.196E+00 0.688E-01
CGA:   8    -0.380630227718E+03   -0.33078E-01   -0.33099E-01  9152   0.108E+00-0.411E-03
CGA:   9    -0.380638067167E+03   -0.78394E-02   -0.80365E-02  9152   0.770E-01-0.516E-03
CGA:  10    -0.380644763303E+03   -0.66961E-02   -0.66701E-02  9152   0.268E-01-0.938E-04
CGA:  11    -0.380649173242E+03   -0.44099E-02   -0.44142E-02  9152   0.163E-01-0.653E-04
CGA:  12    -0.380650155423E+03   -0.98218E-03   -0.10054E-02  9152   0.971E-02-0.162E-03
CGA:  13    -0.380651630816E+03   -0.14754E-02   -0.14748E-02  9152   0.332E-02 0.129E-04
CGA:  14    -0.380652141284E+03   -0.51047E-03   -0.51034E-03  9152   0.295E-02 0.400E-05
CGA:  15    -0.380652357738E+03   -0.21645E-03   -0.21779E-03  9152   0.195E-02 0.166E-05
CGA:  16    -0.380652577690E+03   -0.21995E-03   -0.21997E-03  9152   0.521E-03 0.214E-05
CGA:  17    -0.380652689198E+03   -0.11151E-03   -0.11195E-03  9152   0.506E-03-0.465E-05
CGA:  18    -0.380652718101E+03   -0.28903E-04   -0.28992E-04  9152   0.210E-03-0.161E-05
CGA:  19    -0.380652749507E+03   -0.31406E-04   -0.31444E-04  9152   0.111E-03-0.139E-05
CGA:  20    -0.380652769366E+03   -0.19859E-04   -0.19868E-04  9152   0.615E-04-0.220E-06
CGA:  21    -0.380652775312E+03   -0.59464E-05   -0.59638E-05  9152   0.771E-04 0.549E-06
CGA:  22    -0.380652785438E+03   -0.10126E-04   -0.10124E-04  9152   0.284E-04 0.233E-06
CGA:  23    -0.380652791195E+03   -0.57567E-05   -0.57774E-05  9152   0.221E-04-0.282E-06
  24 F= -.38065279E+03 E0= -.38064881E+03  d E =-.127010E+00  mag=    58.0000
       N       E                     dE             d eps       ncg     rms          ort
SDA:   1    -0.379980048631E+03    0.67274E+00    0.00000E+00  9152   0.195E+01 0.000E+00
CGA:   2    -0.380335140838E+03   -0.35509E+00   -0.36341E+00  9152   0.298E+01-0.118E+00
CGA:   3    -0.380515266970E+03   -0.18013E+00   -0.20711E+00  9152   0.110E+01-0.121E+00
CGA:   4    -0.380609292131E+03   -0.94025E-01   -0.90747E-01  9152   0.273E+00 0.116E-02
CGA:   5    -0.380654981927E+03   -0.45690E-01   -0.45696E-01  9152   0.607E-01-0.141E-03
CGA:   6    -0.380663095724E+03   -0.81138E-02   -0.81151E-02  9152   0.348E-01-0.174E-03
CGA:   7    -0.380665566297E+03   -0.24706E-02   -0.25045E-02  9152   0.173E-01-0.165E-03
CGA:   8    -0.380667070467E+03   -0.15042E-02   -0.14933E-02  9152   0.499E-02-0.101E-04
CGA:   9    -0.380667925439E+03   -0.85497E-03   -0.85486E-03  9152   0.183E-02 0.188E-05
CGA:  10    -0.380668093327E+03   -0.16789E-03   -0.16781E-03  9152   0.159E-02-0.136E-05
CGA:  11    -0.380668240189E+03   -0.14686E-03   -0.14709E-03  9152   0.586E-03 0.202E-05
CGA:  12    -0.380668317628E+03   -0.77439E-04   -0.77457E-04  9152   0.233E-03-0.220E-05
CGA:  13    -0.380668350495E+03   -0.32868E-04   -0.32878E-04  9152   0.354E-03-0.876E-06
CGA:  14    -0.380668379143E+03   -0.28648E-04   -0.28547E-04  9152   0.762E-04-0.234E-05
CGA:  15    -0.380668396580E+03   -0.17437E-04   -0.17346E-04  9152   0.754E-04 0.858E-06
CGA:  16    -0.380668402145E+03   -0.55644E-05   -0.55741E-05  9152   0.400E-04 0.276E-06
  25 F= -.38066840E+03 E0= -.38066439E+03  d E =-.156110E-01  mag=    58.0000
       N       E                     dE             d eps       ncg     rms          ort
SDA:   1    -0.374232772513E+03    0.64356E+01    0.00000E+00  9152   0.185E+02 0.000E+00
CGA:   2    -0.377202357944E+03   -0.29696E+01   -0.32532E+01  9152   0.401E+02-0.433E+01
CGA:   3    -0.378616561774E+03   -0.14142E+01   -0.18324E+01  9152   0.182E+02-0.384E+01
CGA:   4    -0.379716430401E+03   -0.10999E+01   -0.12354E+01  9152   0.568E+01-0.414E+00
CGA:   5    -0.380173227317E+03   -0.45680E+00   -0.30420E+00  9152   0.221E+01 0.165E+01
CGA:   6    -0.380399422414E+03   -0.22620E+00   -0.21843E+00  9152   0.408E+01-0.131E-02
CGA:   7    -0.380542388090E+03   -0.14297E+00   -0.14231E+00  9152   0.141E+01 0.178E-01
CGA:   8    -0.380570313657E+03   -0.27926E-01   -0.48172E-01  9152   0.606E+00-0.462E+00
CGA:   9    -0.380610505432E+03   -0.40192E-01   -0.40248E-01  9152   0.560E+00 0.256E-02
CGA:  10    -0.380637751199E+03   -0.27246E-01   -0.24821E-01  9152   0.154E+00 0.350E-01
CGA:  11    -0.380654613424E+03   -0.16862E-01   -0.16857E-01  9152   0.222E+00-0.181E-02
CGA:  12    -0.380664646293E+03   -0.10033E-01   -0.10121E-01  9152   0.648E-01-0.111E-02
CGA:  13    -0.380669825315E+03   -0.51790E-02   -0.52313E-02  9152   0.736E-01 0.654E-03
CGA:  14    -0.380673950539E+03   -0.41252E-02   -0.41439E-02  9152   0.215E-01-0.141E-03
CGA:  15    -0.380675619081E+03   -0.16685E-02   -0.16582E-02  9152   0.273E-01-0.119E-03
CGA:  16    -0.380677565629E+03   -0.19465E-02   -0.19457E-02  9152   0.854E-02-0.543E-05
CGA:  17    -0.380678073999E+03   -0.50837E-03   -0.51291E-03  9152   0.808E-02-0.990E-05
CGA:  18    -0.380678976688E+03   -0.90269E-03   -0.90271E-03  9152   0.370E-02-0.261E-05
CGA:  19    -0.380679153533E+03   -0.17684E-03   -0.17509E-03  9152   0.199E-02 0.129E-04
CGA:  20    -0.380679438961E+03   -0.28543E-03   -0.28554E-03  9152   0.210E-02-0.216E-05
CGA:  21    -0.380679542743E+03   -0.10378E-03   -0.10439E-03  9152   0.106E-02-0.245E-05
CGA:  22    -0.380679657676E+03   -0.11493E-03   -0.11489E-03  9152   0.789E-03 0.274E-05
CGA:  23    -0.380679696856E+03   -0.39179E-04   -0.39142E-04  9152   0.417E-03 0.113E-05
CGA:  24    -0.380679752606E+03   -0.55750E-04   -0.55561E-04  9152   0.440E-03 0.451E-05
CGA:  25    -0.380679773188E+03   -0.20582E-04   -0.20743E-04  9152   0.175E-03 0.260E-05
CGA:  26    -0.380679801622E+03   -0.28434E-04   -0.28200E-04  9152   0.276E-03 0.340E-05
CGA:  27    -0.380679815686E+03   -0.14064E-04   -0.14066E-04  9152   0.921E-04 0.381E-06
CGA:  28    -0.380679829340E+03   -0.13654E-04   -0.13717E-04  9152   0.139E-03-0.111E-05
CGA:  29    -0.380679837564E+03   -0.82245E-05   -0.82161E-05  9152   0.833E-04-0.353E-06
CGA:  30    -0.380679849187E+03   -0.11622E-04   -0.11692E-04  9152   0.881E-04-0.147E-05
CGA:  31    -0.380679853523E+03   -0.43360E-05   -0.42836E-05  9152   0.415E-04-0.104E-05
  26 F= -.38067985E+03 E0= -.38067578E+03  d E =-.114514E-01  mag=    58.0000
       N       E                     dE             d eps       ncg     rms          ort
SDA:   1    -0.376599913228E+03    0.40799E+01    0.00000E+00  9152   0.115E+02 0.000E+00
CGA:   2    -0.378477837630E+03   -0.18779E+01   -0.20518E+01  9152   0.261E+02-0.189E+01
CGA:   3    -0.379509935627E+03   -0.10321E+01   -0.12035E+01  9152   0.831E+01-0.166E+01
CGA:   4    -0.380178817629E+03   -0.66888E+00   -0.68147E+00  9152   0.319E+01 0.412E+00
CGA:   5    -0.380421604030E+03   -0.24279E+00   -0.20001E+00  9152   0.141E+01 0.148E+00
CGA:   6    -0.380588558863E+03   -0.16695E+00   -0.16711E+00  9152   0.452E+00-0.630E-02
CGA:   7    -0.380613526685E+03   -0.24968E-01   -0.26815E-01  9152   0.303E+00-0.648E-02
CGA:   8    -0.380645761096E+03   -0.32234E-01   -0.32223E-01  9152   0.675E-01 0.554E-03
CGA:   9    -0.380653133723E+03   -0.73726E-02   -0.74090E-02  9152   0.823E-01-0.168E-02
CGA:  10    -0.380658173268E+03   -0.50395E-02   -0.50560E-02  9152   0.206E-01-0.849E-05
CGA:  11    -0.380660784516E+03   -0.26112E-02   -0.26101E-02  9152   0.117E-01 0.283E-04
CGA:  12    -0.380661544835E+03   -0.76032E-03   -0.75620E-03  9152   0.799E-02-0.268E-05
CGA:  13    -0.380662595952E+03   -0.10511E-02   -0.10508E-02  9152   0.219E-02 0.812E-05
CGA:  14    -0.380662873834E+03   -0.27788E-03   -0.27724E-03  9152   0.392E-02 0.161E-04
CGA:  15    -0.380663214274E+03   -0.34044E-03   -0.34040E-03  9152   0.954E-03-0.508E-05
CGA:  16    -0.380663397638E+03   -0.18336E-03   -0.18358E-03  9152   0.115E-02-0.233E-05
CGA:  17    -0.380663491090E+03   -0.93453E-04   -0.93603E-04  9152   0.986E-03 0.289E-05
CGA:  18    -0.380663589273E+03   -0.98183E-04   -0.98188E-04  9152   0.309E-03 0.175E-05
CGA:  19    -0.380663663287E+03   -0.74014E-04   -0.73564E-04  9152   0.528E-03 0.327E-05
CGA:  20    -0.380663691074E+03   -0.27787E-04   -0.27987E-04  9152   0.137E-03 0.179E-05
CGA:  21    -0.380663730438E+03   -0.39364E-04   -0.39087E-04  9152   0.975E-04 0.155E-05
CGA:  22    -0.380663742180E+03   -0.11742E-04   -0.11748E-04  9152   0.131E-03-0.988E-06
CGA:  23    -0.380663753050E+03   -0.10870E-04   -0.10859E-04  9152   0.605E-04-0.381E-06
CGA:  24    -0.380663763936E+03   -0.10887E-04   -0.10942E-04  9152   0.278E-04-0.816E-06
CGA:  25    -0.380663767409E+03   -0.34726E-05   -0.34791E-05  9152   0.483E-04-0.620E-06
  27 F= -.38066377E+03 E0= -.38065973E+03  d E =0.160861E-01  mag=    58.0000
       N       E                     dE             d eps       ncg     rms          ort
SDA:   1    -0.378774197634E+03    0.18896E+01    0.00000E+00  9152   0.515E+01 0.000E+00
CGA:   2    -0.380056861111E+03   -0.12827E+01   -0.12717E+01  9152   0.291E+01 0.843E-01
CGA:   3    -0.380501820471E+03   -0.44496E+00   -0.45120E+00  9152   0.104E+01-0.150E+00
CGA:   4    -0.380626274305E+03   -0.12445E+00   -0.12449E+00  9152   0.606E+00-0.652E-02
CGA:   5    -0.380657759543E+03   -0.31485E-01   -0.35340E-01  9152   0.195E+00-0.364E-01
CGA:   6    -0.380680168461E+03   -0.22409E-01   -0.22419E-01  9152   0.508E-01-0.263E-02
CGA:   7    -0.380684922551E+03   -0.47541E-02   -0.48083E-02  9152   0.394E-01 0.545E-03
CGA:   8    -0.380688366935E+03   -0.34444E-02   -0.34309E-02  9152   0.101E-01-0.504E-04
CGA:   9    -0.380689632167E+03   -0.12652E-02   -0.12653E-02  9152   0.709E-02-0.769E-05
CGA:  10    -0.380690179216E+03   -0.54705E-03   -0.54287E-03  9152   0.309E-02-0.103E-05
CGA:  11    -0.380690560968E+03   -0.38175E-03   -0.38155E-03  9152   0.137E-02 0.162E-04
CGA:  12    -0.380690704650E+03   -0.14368E-03   -0.14357E-03  9152   0.132E-02-0.277E-05
CGA:  13    -0.380690847610E+03   -0.14296E-03   -0.14300E-03  9152   0.435E-03 0.559E-05
CGA:  14    -0.380690909704E+03   -0.62094E-04   -0.62088E-04  9152   0.575E-03 0.386E-06
CGA:  15    -0.380690960550E+03   -0.50846E-04   -0.50962E-04  9152   0.181E-03 0.231E-05
CGA:  16    -0.380690987586E+03   -0.27036E-04   -0.27082E-04  9152   0.172E-03-0.124E-05
CGA:  17    -0.380691001625E+03   -0.14039E-04   -0.14049E-04  9152   0.883E-04 0.525E-07
CGA:  18    -0.380691013516E+03   -0.11891E-04   -0.11909E-04  9152   0.431E-04-0.956E-06
CGA:  19    -0.380691017843E+03   -0.43270E-05   -0.43309E-05  9152   0.414E-04 0.229E-06
  28 F= -.38069102E+03 E0= -.38068708E+03  d E =-.272504E-01  mag=    58.0000
       N       E                     dE             d eps       ncg     rms          ort
SDA:   1    -0.371829470485E+03    0.88615E+01    0.00000E+00  9152   0.230E+02 0.000E+00
CGA:   2    -0.378159389288E+03   -0.63299E+01   -0.62807E+01  9152   0.118E+02 0.350E+00
CGA:   3    -0.379908509519E+03   -0.17491E+01   -0.17925E+01  9152   0.537E+01-0.120E+01
CGA:   4    -0.380362872828E+03   -0.45436E+00   -0.48012E+00  9152   0.243E+01 0.266E+00
CGA:   5    -0.380556569152E+03   -0.19370E+00   -0.16216E+00  9152   0.557E+00 0.224E+00
CGA:   6    -0.380648876395E+03   -0.92307E-01   -0.92362E-01  9152   0.159E+00-0.119E-02
CGA:   7    -0.380678031958E+03   -0.29156E-01   -0.29163E-01  9152   0.488E-01-0.902E-04
CGA:   8    -0.380685801079E+03   -0.77691E-02   -0.77645E-02  9152   0.217E-01 0.905E-04
CGA:   9    -0.380689058806E+03   -0.32577E-02   -0.32524E-02  9152   0.139E-01 0.152E-03
CGA:  10    -0.380689995691E+03   -0.93689E-03   -0.92755E-03  9152   0.753E-02 0.647E-04
CGA:  11    -0.380691234426E+03   -0.12387E-02   -0.12371E-02  9152   0.267E-02 0.362E-04
CGA:  12    -0.380691827825E+03   -0.59340E-03   -0.59288E-03  9152   0.225E-02 0.567E-05
CGA:  13    -0.380692077938E+03   -0.25011E-03   -0.25050E-03  9152   0.187E-02 0.832E-05
CGA:  14    -0.380692221710E+03   -0.14377E-03   -0.14350E-03  9152   0.796E-03-0.746E-07
CGA:  15    -0.380692370146E+03   -0.14844E-03   -0.14843E-03  9152   0.279E-03 0.769E-07
CGA:  16    -0.380692422484E+03   -0.52337E-04   -0.52343E-04  9152   0.336E-03-0.164E-06
CGA:  17    -0.380692445905E+03   -0.23421E-04   -0.23530E-04  9152   0.152E-03 0.472E-06
CGA:  18    -0.380692467888E+03   -0.21984E-04   -0.21983E-04  9152   0.807E-04 0.675E-07
CGA:  19    -0.380692487076E+03   -0.19188E-04   -0.19119E-04  9152   0.638E-04 0.653E-06
CGA:  20    -0.380692492423E+03   -0.53466E-05   -0.53260E-05  9152   0.580E-04-0.280E-06
CGA:  21    -0.380692502512E+03   -0.10089E-04   -0.10085E-04  9152   0.222E-04 0.757E-07
CGA:  22    -0.380692506638E+03   -0.41259E-05   -0.41509E-05  9152   0.263E-04-0.498E-06
  29 F= -.38069251E+03 E0= -.38068864E+03  d E =-.148880E-02  mag=    58.0000
       N       E                     dE             d eps       ncg     rms          ort
SDA:   1    -0.356526361289E+03    0.24166E+02    0.00000E+00  9152   0.624E+02 0.000E+00
CGA:   2    -0.373019269037E+03   -0.16493E+02   -0.16323E+02  9152   0.402E+02 0.143E+01
CGA:   3    -0.377872974173E+03   -0.48537E+01   -0.49431E+01  9152   0.159E+02 0.139E+01
CGA:   4    -0.379669196614E+03   -0.17962E+01   -0.13842E+01  9152   0.366E+01 0.263E+01
CGA:   5    -0.380270483216E+03   -0.60129E+00   -0.60133E+00  9152   0.326E+01-0.699E-02
CGA:   6    -0.380418031880E+03   -0.14755E+00   -0.19123E+00  9152   0.144E+01-0.450E+00
CGA:   7    -0.380533545049E+03   -0.11551E+00   -0.11120E+00  9152   0.442E+00 0.785E-03
CGA:   8    -0.380589008530E+03   -0.55463E-01   -0.55442E-01  9152   0.418E+00-0.143E-02
CGA:   9    -0.380610777557E+03   -0.21769E-01   -0.23517E-01  9152   0.969E-01-0.188E-01
CGA:  10    -0.380625183073E+03   -0.14406E-01   -0.14390E-01  9152   0.441E-01 0.362E-03
CGA:  11    -0.380629548967E+03   -0.43659E-02   -0.43697E-02  9152   0.393E-01 0.115E-04
CGA:  12    -0.380632822429E+03   -0.32735E-02   -0.33404E-02  9152   0.185E-01 0.177E-04
CGA:  13    -0.380635944380E+03   -0.31220E-02   -0.31165E-02  9152   0.804E-02 0.987E-04
CGA:  14    -0.380636965958E+03   -0.10216E-02   -0.10215E-02  9152   0.123E-01-0.956E-05
CGA:  15    -0.380638084981E+03   -0.11190E-02   -0.11278E-02  9152   0.325E-02 0.418E-04
CGA:  16    -0.380638677234E+03   -0.59225E-03   -0.59093E-03  9152   0.307E-02 0.206E-04
CGA:  17    -0.380638946525E+03   -0.26929E-03   -0.26882E-03  9152   0.235E-02 0.268E-06
CGA:  18    -0.380639183632E+03   -0.23711E-03   -0.23757E-03  9152   0.960E-03 0.754E-05
CGA:  19    -0.380639406197E+03   -0.22256E-03   -0.22180E-03  9152   0.101E-02 0.708E-05
CGA:  20    -0.380639486731E+03   -0.80534E-04   -0.80199E-04  9152   0.703E-03 0.108E-05
CGA:  21    -0.380639587876E+03   -0.10114E-03   -0.10109E-03  9152   0.445E-03 0.282E-05
CGA:  22    -0.380639668673E+03   -0.80797E-04   -0.80840E-04  9152   0.244E-03-0.870E-06
CGA:  23    -0.380639698102E+03   -0.29429E-04   -0.29393E-04  9152   0.342E-03-0.278E-05
CGA:  24    -0.380639733843E+03   -0.35741E-04   -0.35702E-04  9152   0.975E-04-0.209E-05
CGA:  25    -0.380639751426E+03   -0.17583E-04   -0.17673E-04  9152   0.785E-04-0.174E-05
CGA:  26    -0.380639759642E+03   -0.82162E-05   -0.81808E-05  9152   0.780E-04-0.128E-05
  30 F= -.38063976E+03 E0= -.38063611E+03  d E =0.527470E-01  mag=    58.0000
       N       E                     dE             d eps       ncg     rms          ort
SDA:   1    -0.231691503733E+03    0.14895E+03    0.00000E+00  9152   0.641E+03 0.000E+00
CGA:   2    -0.320312471299E+03   -0.88621E+02   -0.87958E+02  9152   0.180E+03 0.432E+02
CGA:   3    -0.354010268017E+03   -0.33698E+02   -0.30871E+02  9152   0.909E+02 0.514E+02
CGA:   4    -0.369195832084E+03   -0.15186E+02   -0.15164E+02  9152   0.508E+02-0.121E+02
CGA:   5    -0.374828803525E+03   -0.56330E+01   -0.59805E+01  9152   0.336E+02-0.186E+02
CGA:   6    -0.376592936610E+03   -0.17641E+01   -0.15547E+01  9152   0.150E+02-0.797E+01
CGA:   7    -0.377943734948E+03   -0.13508E+01   -0.13236E+01  9152   0.410E+01-0.102E+01
CGA:   8    -0.378718829441E+03   -0.77509E+00   -0.75860E+00  9152   0.307E+01 0.335E+00
CGA:   9    -0.378937170662E+03   -0.21834E+00   -0.18235E+00  9152   0.373E+01-0.113E+01
CGA:  10    -0.379084804040E+03   -0.14763E+00   -0.19021E+00  9152   0.488E+01 0.200E+00
CGA:  11    -0.379247050321E+03   -0.16225E+00   -0.14787E+00  9152   0.112E+01 0.190E+00
CGA:  12    -0.379329819062E+03   -0.82769E-01   -0.55890E-01  9152   0.165E+01 0.620E+00
CGA:  13    -0.379413429135E+03   -0.83610E-01   -0.11004E+00  9152   0.116E+01-0.177E+00
CGA:  14    -0.379455425099E+03   -0.41996E-01   -0.35444E-01  9152   0.657E+00 0.121E+00
CGA:  15    -0.379495843610E+03   -0.40419E-01   -0.34245E-01  9152   0.695E+00 0.768E-01
CGA:  16    -0.379528761725E+03   -0.32918E-01   -0.40607E-01  9152   0.703E+00-0.690E-01
CGA:  17    -0.379549542775E+03   -0.20781E-01   -0.26247E-01  9152   0.498E+00-0.956E-01
CGA:  18    -0.379583676829E+03   -0.34134E-01   -0.26222E-01  9152   0.101E+00 0.595E-01
CGA:  19    -0.379589679761E+03   -0.60029E-02   -0.53158E-02  9152   0.156E+00 0.801E-02
CGA:  20    -0.379603362698E+03   -0.13683E-01   -0.13351E-01  9152   0.341E+00-0.542E-02
CGA:  21    -0.379610236760E+03   -0.68741E-02   -0.85284E-02  9152   0.125E+00-0.470E-01
CGA:  22    -0.379612919218E+03   -0.26825E-02   -0.40830E-02  9152   0.104E+00-0.210E-01
CGA:  23    -0.379618867394E+03   -0.59482E-02   -0.59369E-02  9152   0.325E-01 0.191E-04
CGA:  24    -0.379621460044E+03   -0.25926E-02   -0.25900E-02  9152   0.470E-01-0.142E-03
CGA:  25    -0.379625028322E+03   -0.35683E-02   -0.35900E-02  9152   0.155E-01 0.691E-03
CGA:  26    -0.379625896201E+03   -0.86788E-03   -0.87413E-03  9152   0.109E-01-0.109E-04
CGA:  27    -0.379626732162E+03   -0.83596E-03   -0.83571E-03  9152   0.721E-02-0.774E-05
CGA:  28    -0.379627529469E+03   -0.79731E-03   -0.79707E-03  9152   0.100E-01 0.944E-05
CGA:  29    -0.379628003774E+03   -0.47430E-03   -0.47841E-03  9152   0.209E-02-0.194E-04
CGA:  30    -0.379628266733E+03   -0.26296E-03   -0.26238E-03  9152   0.422E-02 0.120E-04
CGA:  31    -0.379628542976E+03   -0.27624E-03   -0.27579E-03  9152   0.167E-02-0.675E-05
CGA:  32    -0.379628706907E+03   -0.16393E-03   -0.16389E-03  9152   0.114E-02 0.117E-08
CGA:  33    -0.379628759152E+03   -0.52246E-04   -0.52277E-04  9152   0.496E-03-0.152E-05
CGA:  34    -0.379628857985E+03   -0.98833E-04   -0.10013E-03  9152   0.897E-03-0.113E-04
CGA:  35    -0.379628900877E+03   -0.42892E-04   -0.42417E-04  9152   0.396E-03-0.221E-05
CGA:  36    -0.379628934777E+03   -0.33900E-04   -0.33893E-04  9152   0.242E-03-0.282E-05
CGA:  37    -0.379628952692E+03   -0.17915E-04   -0.17914E-04  9152   0.300E-03-0.298E-06
CGA:  38    -0.379628979818E+03   -0.27126E-04   -0.27134E-04  9152   0.131E-03-0.219E-05
CGA:  39    -0.379628991880E+03   -0.12063E-04   -0.12066E-04  9152   0.212E-03-0.474E-06
CGA:  40    -0.379629007589E+03   -0.15709E-04   -0.15728E-04  9152   0.743E-04 0.164E-05
CGA:  41    -0.379629015182E+03   -0.75925E-05   -0.75726E-05  9152   0.104E-03 0.143E-05
  31 F= -.37962902E+03 E0= -.37962361E+03  d E =0.101074E+01  mag=    58.0000
       N       E                     dE             d eps       ncg     rms          ort
SDA:   1    -0.353015251686E+03    0.26614E+02    0.00000E+00  9152   0.104E+03 0.000E+00
CGA:   2    -0.364034063068E+03   -0.11019E+02   -0.12965E+02  9152   0.159E+03-0.253E+02
CGA:   3    -0.370968686879E+03   -0.69346E+01   -0.71613E+01  9152   0.547E+02-0.732E+01
CGA:   4    -0.376821861157E+03   -0.58532E+01   -0.57851E+01  9152   0.209E+02 0.215E+01
CGA:   5    -0.379020897921E+03   -0.21990E+01   -0.25121E+01  9152   0.199E+02-0.781E+01
CGA:   6    -0.379596700059E+03   -0.57580E+00   -0.58252E+00  9152   0.569E+01-0.376E+00
CGA:   7    -0.380053297471E+03   -0.45660E+00   -0.46470E+00  9152   0.258E+01 0.940E+00
CGA:   8    -0.380367477221E+03   -0.31418E+00   -0.35558E+00  9152   0.157E+01-0.113E+01
CGA:   9    -0.380435903854E+03   -0.68427E-01   -0.68985E-01  9152   0.644E+00 0.208E-01
CGA:  10    -0.380510574944E+03   -0.74671E-01   -0.73116E-01  9152   0.373E+00 0.442E-01
CGA:  11    -0.380543864837E+03   -0.33290E-01   -0.33057E-01  9152   0.295E+00-0.156E-01
CGA:  12    -0.380560623181E+03   -0.16758E-01   -0.16716E-01  9152   0.833E-01-0.168E-04
CGA:  13    -0.380575166997E+03   -0.14544E-01   -0.14191E-01  9152   0.709E-01 0.394E-02
CGA:  14    -0.380578966133E+03   -0.37991E-02   -0.38262E-02  9152   0.301E-01-0.261E-03
CGA:  15    -0.380583390540E+03   -0.44244E-02   -0.44327E-02  9152   0.140E-01-0.129E-03
CGA:  16    -0.380585373930E+03   -0.19834E-02   -0.19766E-02  9152   0.665E-02 0.119E-03
CGA:  17    -0.380586615664E+03   -0.12417E-02   -0.12310E-02  9152   0.243E-02 0.117E-03
CGA:  18    -0.380587054689E+03   -0.43902E-03   -0.43843E-03  9152   0.332E-02 0.707E-05
CGA:  19    -0.380587268263E+03   -0.21357E-03   -0.21340E-03  9152   0.109E-02-0.493E-05
CGA:  20    -0.380587406639E+03   -0.13838E-03   -0.13831E-03  9152   0.540E-03 0.119E-05
CGA:  21    -0.380587519257E+03   -0.11262E-03   -0.11244E-03  9152   0.224E-03 0.168E-05
CGA:  22    -0.380587557444E+03   -0.38187E-04   -0.38097E-04  9152   0.255E-03 0.145E-05
CGA:  23    -0.380587578895E+03   -0.21451E-04   -0.21448E-04  9152   0.189E-03 0.249E-06
CGA:  24    -0.380587600536E+03   -0.21642E-04   -0.21639E-04  9152   0.663E-04 0.847E-06
CGA:  25    -0.380587621249E+03   -0.20713E-04   -0.20885E-04  9152   0.488E-04-0.829E-06
CGA:  26    -0.380587628437E+03   -0.71877E-05   -0.71829E-05  9152   0.607E-04 0.137E-06
  32 F= -.38058763E+03 E0= -.38058330E+03  d E =-.958613E+00  mag=    58.0000
       N       E                     dE             d eps       ncg     rms          ort
SDA:   1    -0.379826630808E+03    0.76099E+00    0.00000E+00  9152   0.272E+01 0.000E+00
CGA:   2    -0.380180094807E+03   -0.35346E+00   -0.35575E+00  9152   0.386E+01-0.123E+00
CGA:   3    -0.380399630267E+03   -0.21954E+00   -0.24172E+00  9152   0.115E+01-0.152E+00
CGA:   4    -0.380582208331E+03   -0.18258E+00   -0.18280E+00  9152   0.304E+00-0.375E-02
CGA:   5    -0.380627369479E+03   -0.45161E-01   -0.45105E-01  9152   0.122E+00 0.138E-02
CGA:   6    -0.380637095535E+03   -0.97261E-02   -0.98939E-02  9152   0.776E-01-0.367E-04
CGA:   7    -0.380643218412E+03   -0.61229E-02   -0.60598E-02  9152   0.190E-01 0.331E-04
CGA:   8    -0.380646160593E+03   -0.29422E-02   -0.29394E-02  9152   0.584E-02 0.562E-04
CGA:   9    -0.380647112562E+03   -0.95197E-03   -0.95296E-03  9152   0.533E-02-0.175E-04
CGA:  10    -0.380647423395E+03   -0.31083E-03   -0.31394E-03  9152   0.170E-02-0.233E-04
CGA:  11    -0.380647707408E+03   -0.28401E-03   -0.28389E-03  9152   0.714E-03 0.212E-05
CGA:  12    -0.380647811671E+03   -0.10426E-03   -0.10425E-03  9152   0.552E-03 0.620E-06
CGA:  13    -0.380647852160E+03   -0.40489E-04   -0.40383E-04  9152   0.313E-03 0.358E-07
CGA:  14    -0.380647898254E+03   -0.46094E-04   -0.46044E-04  9152   0.106E-03 0.178E-05
CGA:  15    -0.380647917563E+03   -0.19309E-04   -0.19307E-04  9152   0.133E-03 0.451E-07
CGA:  16    -0.380647926313E+03   -0.87492E-05   -0.87865E-05  9152   0.464E-04 0.451E-06
  33 F= -.38064793E+03 E0= -.38064384E+03  d E =-.602979E-01  mag=    58.0000
       N       E                     dE             d eps       ncg     rms          ort
SDA:   1    -0.376845597257E+03    0.38023E+01    0.00000E+00  9152   0.158E+02 0.000E+00
CGA:   2    -0.378167769163E+03   -0.13222E+01   -0.12467E+01  9152   0.158E+02-0.158E+01
CGA:   3    -0.379475955924E+03   -0.13082E+01   -0.13271E+01  9152   0.675E+01 0.100E+00
CGA:   4    -0.380134417548E+03   -0.65846E+00   -0.65481E+00  9152   0.394E+01-0.825E-01
CGA:   5    -0.380462809191E+03   -0.32839E+00   -0.27066E+00  9152   0.133E+01 0.243E+00
CGA:   6    -0.380623381926E+03   -0.16057E+00   -0.16053E+00  9152   0.395E+00-0.924E-02
CGA:   7    -0.380668533605E+03   -0.45152E-01   -0.45154E-01  9152   0.313E+00 0.206E-02
CGA:   8    -0.380689127188E+03   -0.20594E-01   -0.18936E-01  9152   0.623E-01 0.126E-01
CGA:   9    -0.380700211190E+03   -0.11084E-01   -0.11083E-01  9152   0.288E-01 0.205E-04
CGA:  10    -0.380703345893E+03   -0.31347E-02   -0.31351E-02  9152   0.219E-01 0.317E-04
CGA:  11    -0.380704921106E+03   -0.15752E-02   -0.15460E-02  9152   0.927E-02 0.886E-04
[...]
CGA:  20    -0.380707644284E+03   -0.11495E-02   -0.11485E-02  9152   0.117E-01-0.226E-04
CGA:  21    -0.380708401734E+03   -0.75745E-03   -0.76311E-03  9152   0.700E-02 0.379E-04
CGA:  22    -0.380709289111E+03   -0.88738E-03   -0.88520E-03  9152   0.106E-01 0.488E-04
CGA:  23    -0.380709899343E+03   -0.61023E-03   -0.60694E-03  9152   0.255E-02 0.143E-04
CGA:  24    -0.380710112778E+03   -0.21343E-03   -0.21333E-03  9152   0.326E-02-0.944E-05
CGA:  25    -0.380710396217E+03   -0.28344E-03   -0.28344E-03  9152   0.212E-02 0.384E-05
CGA:  26    -0.380710556886E+03   -0.16067E-03   -0.16088E-03  9152   0.176E-02 0.864E-05
CGA:  27    -0.380710676095E+03   -0.11921E-03   -0.11928E-03  9152   0.866E-03 0.166E-05
CGA:  28    -0.380710771006E+03   -0.94911E-04   -0.94988E-04  9152   0.130E-02-0.243E-05
CGA:  29    -0.380710858254E+03   -0.87248E-04   -0.87266E-04  9152   0.409E-03 0.117E-05
CGA:  30    -0.380710895341E+03   -0.37087E-04   -0.37086E-04  9152   0.628E-03 0.409E-07
CGA:  31    -0.380710963055E+03   -0.67715E-04   -0.67810E-04  9152   0.418E-03-0.442E-05
SDA:  32    -0.380710990108E+03   -0.27053E-04   -0.26983E-04  9152   0.302E-03-0.300E-05
CGA:  33    -0.380711013620E+03   -0.23511E-04   -0.23523E-04  9152   0.244E-03 0.584E-06
CGA:  34    -0.380711047946E+03   -0.34326E-04   -0.34502E-04  9152   0.110E-03-0.320E-05
CGA:  35    -0.380711064264E+03   -0.16318E-04   -0.16339E-04  9152   0.454E-04-0.337E-06
CGA:  36    -0.380711072791E+03   -0.85270E-05   -0.84231E-05  9152   0.193E-04 0.110E-05
 166 F= -.38071107E+03 E0= -.38070748E+03  d E =-.412877E-01  mag=    58.0000
       N       E                     dE             d eps       ncg     rms          ort
SDA:   1    -0.380158749214E+03    0.55232E+00    0.00000E+00  9152   0.164E+01 0.000E+00
CGA:   2    -0.380457375659E+03   -0.29863E+00   -0.28742E+00  9152   0.165E+01 0.137E+00
CGA:   3    -0.380601532435E+03   -0.14416E+00   -0.12940E+00  9152   0.558E+00-0.194E-01
CGA:   4    -0.380685202724E+03   -0.83670E-01   -0.83025E-01  9152   0.172E+00 0.111E-01
CGA:   5    -0.380703555051E+03   -0.18352E-01   -0.18338E-01  9152   0.132E+00-0.562E-02
CGA:   6    -0.380713129536E+03   -0.95745E-02   -0.96776E-02  9152   0.267E-01 0.391E-03
CGA:   7    -0.380716581717E+03   -0.34522E-02   -0.34584E-02  9152   0.108E-01-0.172E-03
CGA:   8    -0.380717697470E+03   -0.11158E-02   -0.11159E-02  9152   0.737E-02 0.749E-04
CGA:   9    -0.380718295589E+03   -0.59812E-03   -0.59589E-03  9152   0.232E-02-0.200E-04
CGA:  10    -0.380718692201E+03   -0.39661E-03   -0.39626E-03  9152   0.113E-02 0.485E-05
CGA:  11    -0.380718781934E+03   -0.89733E-04   -0.89575E-04  9152   0.728E-03-0.136E-05
CGA:  12    -0.380718888486E+03   -0.10655E-03   -0.10634E-03  9152   0.314E-03 0.494E-05
CGA:  13    -0.380718929076E+03   -0.40589E-04   -0.40601E-04  9152   0.264E-03-0.215E-06
CGA:  14    -0.380718954726E+03   -0.25650E-04   -0.25671E-04  9152   0.172E-03 0.139E-05
CGA:  15    -0.380718979052E+03   -0.24327E-04   -0.24344E-04  9152   0.666E-04-0.593E-06
CGA:  16    -0.380718988039E+03   -0.89866E-05   -0.89915E-05  9152   0.871E-04-0.213E-06
 167 F= -.38071899E+03 E0= -.38071536E+03  d E =-.791525E-02  mag=    58.0000
       N       E                     dE             d eps       ncg     rms          ort
SDA:   1    -0.380563768057E+03    0.15521E+00    0.00000E+00  9152   0.432E+00 0.000E+00
CGA:   2    -0.380656123091E+03   -0.92355E-01   -0.92888E-01  9152   0.400E+00-0.505E-02
CGA:   3    -0.380690195447E+03   -0.34072E-01   -0.34876E-01  9152   0.223E+00 0.553E-02
CGA:   4    -0.380708756617E+03   -0.18561E-01   -0.18256E-01  9152   0.620E-01-0.768E-03
CGA:   5    -0.380716743876E+03   -0.79873E-02   -0.79861E-02  9152   0.171E-01 0.486E-04
CGA:   6    -0.380718495436E+03   -0.17516E-02   -0.17489E-02  9152   0.126E-01-0.925E-04
CGA:   7    -0.380719423963E+03   -0.92853E-03   -0.93394E-03  9152   0.240E-02 0.117E-05
CGA:   8    -0.380719844861E+03   -0.42090E-03   -0.42155E-03  9152   0.133E-02-0.921E-05
CGA:   9    -0.380719939542E+03   -0.94681E-04   -0.95165E-04  9152   0.650E-03 0.512E-06
CGA:  10    -0.380720021981E+03   -0.82439E-04   -0.82436E-04  9152   0.260E-03 0.144E-06
CGA:  11    -0.380720055417E+03   -0.33436E-04   -0.33421E-04  9152   0.165E-03 0.966E-06
CGA:  12    -0.380720070377E+03   -0.14961E-04   -0.14939E-04  9152   0.117E-03-0.600E-06
CGA:  13    -0.380720088246E+03   -0.17868E-04   -0.17852E-04  9152   0.477E-04 0.374E-06
CGA:  14    -0.380720095435E+03   -0.71896E-05   -0.72145E-05  9152   0.731E-04-0.664E-06
 168 F= -.38072010E+03 E0= -.38071646E+03  d E =-.110740E-02  mag=    58.0000
       N       E                     dE             d eps       ncg     rms          ort
SDA:   1    -0.379408256950E+03    0.13118E+01    0.00000E+00  9152   0.352E+01 0.000E+00
CGA:   2    -0.380234743954E+03   -0.82649E+00   -0.82781E+00  9152   0.254E+01-0.115E-01
CGA:   3    -0.380540505452E+03   -0.30576E+00   -0.30561E+00  9152   0.156E+01-0.878E-01
CGA:   4    -0.380636137988E+03   -0.95633E-01   -0.10506E+00  9152   0.545E+00-0.421E-01
CGA:   5    -0.380692624696E+03   -0.56487E-01   -0.56166E-01  9152   0.131E+00-0.935E-02
CGA:   6    -0.380708151774E+03   -0.15527E-01   -0.15518E-01  9152   0.755E-01 0.233E-02
CGA:   7    -0.380713511192E+03   -0.53594E-02   -0.51966E-02  9152   0.218E-01 0.789E-03
CGA:   8    -0.380717009929E+03   -0.34987E-02   -0.34973E-02  9152   0.910E-02 0.246E-04
CGA:   9    -0.380717740584E+03   -0.73066E-03   -0.72724E-03  9152   0.545E-02-0.570E-05
CGA:  10    -0.380718398520E+03   -0.65794E-03   -0.65768E-03  9152   0.185E-02 0.307E-04
CGA:  11    -0.380718622982E+03   -0.22446E-03   -0.22455E-03  9152   0.142E-02-0.101E-04
CGA:  12    -0.380718757590E+03   -0.13461E-03   -0.13474E-03  9152   0.846E-03 0.332E-05
CGA:  13    -0.380718880524E+03   -0.12293E-03   -0.12294E-03  9152   0.420E-03-0.486E-06
CGA:  14    -0.380718932553E+03   -0.52028E-04   -0.52011E-04  9152   0.507E-03 0.186E-05
CGA:  15    -0.380718992368E+03   -0.59816E-04   -0.59816E-04  9152   0.160E-03-0.183E-05
CGA:  16    -0.380719016617E+03   -0.24249E-04   -0.24206E-04  9152   0.198E-03 0.109E-05
CGA:  17    -0.380719034753E+03   -0.18136E-04   -0.18119E-04  9152   0.707E-04-0.436E-06
CGA:  18    -0.380719044640E+03   -0.98864E-05   -0.98732E-05  9152   0.501E-04 0.579E-06
 169 F= -.38071904E+03 E0= -.38071539E+03  d E =0.105080E-02  mag=    58.0000
       N       E                     dE             d eps       ncg     rms          ort
SDA:   1    -0.377797236215E+03    0.29218E+01    0.00000E+00  9152   0.743E+01 0.000E+00
CGA:   2    -0.379822228763E+03   -0.20250E+01   -0.20489E+01  9152   0.771E+01-0.157E+00
CGA:   3    -0.380222715122E+03   -0.40049E+00   -0.55427E+00  9152   0.328E+01-0.343E+00
CGA:   4    -0.380564982983E+03   -0.34227E+00   -0.33024E+00  9152   0.945E+00-0.212E+00
CGA:   5    -0.380654225781E+03   -0.89243E-01   -0.90321E-01  9152   0.408E+00 0.158E-01
CGA:   6    -0.380689348803E+03   -0.35123E-01   -0.33469E-01  9152   0.140E+00 0.376E-03
CGA:   7    -0.380704245381E+03   -0.14897E-01   -0.14973E-01  9152   0.585E-01 0.232E-02
CGA:   8    -0.380709764868E+03   -0.55195E-02   -0.54579E-02  9152   0.318E-01-0.478E-03
CGA:   9    -0.380712987059E+03   -0.32222E-02   -0.32276E-02  9152   0.105E-01 0.128E-03
CGA:  10    -0.380714060842E+03   -0.10738E-02   -0.10714E-02  9152   0.733E-02-0.570E-04
CGA:  11    -0.380714814154E+03   -0.75331E-03   -0.75449E-03  9152   0.255E-02 0.382E-04
CGA:  12    -0.380715121741E+03   -0.30759E-03   -0.30770E-03  9152   0.249E-02-0.125E-04
CGA:  13    -0.380715407342E+03   -0.28560E-03   -0.28561E-03  9152   0.111E-02 0.134E-04
CGA:  14    -0.380715556303E+03   -0.14896E-03   -0.14901E-03  9152   0.126E-02-0.130E-05
CGA:  15    -0.380715701061E+03   -0.14476E-03   -0.14477E-03  9152   0.582E-03 0.693E-05
CGA:  16    -0.380715775823E+03   -0.74761E-04   -0.74817E-04  9152   0.551E-03-0.355E-05
CGA:  17    -0.380715835298E+03   -0.59476E-04   -0.59486E-04  9152   0.276E-03 0.425E-06
CGA:  18    -0.380715868279E+03   -0.32980E-04   -0.32984E-04  9152   0.185E-03-0.114E-05
CGA:  19    -0.380715888122E+03   -0.19843E-04   -0.19853E-04  9152   0.125E-03 0.942E-06
CGA:  20    -0.380715903555E+03   -0.15433E-04   -0.15436E-04  9152   0.685E-04-0.276E-06
CGA:  21    -0.380715911537E+03   -0.79821E-05   -0.79818E-05  9152   0.631E-04 0.559E-06
 170 F= -.38071591E+03 E0= -.38071220E+03  d E =0.313310E-02  mag=    58.0000
       N       E                     dE             d eps       ncg     rms          ort
SDA:   1    -0.374987709688E+03    0.57282E+01    0.00000E+00  9152   0.157E+02 0.000E+00
CGA:   2    -0.377574178607E+03   -0.25865E+01   -0.26493E+01  9152   0.331E+02-0.401E+00
CGA:   3    -0.379449939590E+03   -0.18758E+01   -0.21873E+01  9152   0.687E+01-0.228E+01
CGA:   4    -0.380362765371E+03   -0.91283E+00   -0.91208E+00  9152   0.185E+01 0.183E-01
CGA:   5    -0.380559064801E+03   -0.19630E+00   -0.19601E+00  9152   0.156E+01-0.897E-02
CGA:   6    -0.380641617247E+03   -0.82552E-01   -0.96234E-01  9152   0.357E+00-0.925E-01
CGA:   7    -0.380686783084E+03   -0.45166E-01   -0.45170E-01  9152   0.104E+00-0.147E-03
CGA:   8    -0.380701825320E+03   -0.15042E-01   -0.15035E-01  9152   0.913E-01 0.188E-03
CGA:   9    -0.380706838466E+03   -0.50131E-02   -0.52972E-02  9152   0.253E-01-0.248E-02
CGA:  10    -0.380710466360E+03   -0.36279E-02   -0.36279E-02  9152   0.961E-02-0.173E-05
CGA:  11    -0.380712046158E+03   -0.15798E-02   -0.15790E-02  9152   0.367E-02 0.130E-04
CGA:  12    -0.380712919335E+03   -0.87318E-03   -0.87383E-03  9152   0.185E-02-0.555E-05
CGA:  13    -0.380713342525E+03   -0.42319E-03   -0.42246E-03  9152   0.159E-02 0.690E-05
CGA:  14    -0.380713515486E+03   -0.17296E-03   -0.17327E-03  9152   0.173E-02 0.707E-05
CGA:  15    -0.380713677011E+03   -0.16153E-03   -0.16137E-03  9152   0.620E-03 0.374E-06
CGA:  16    -0.380713821585E+03   -0.14457E-03   -0.14417E-03  9152   0.299E-03 0.381E-05
CGA:  17    -0.380713890026E+03   -0.68441E-04   -0.68326E-04  9152   0.209E-03 0.122E-05
CGA:  18    -0.380713926116E+03   -0.36090E-04   -0.36058E-04  9152   0.163E-03 0.860E-06
CGA:  19    -0.380713940078E+03   -0.13962E-04   -0.13898E-04  9152   0.136E-03-0.699E-06
CGA:  20    -0.380713960016E+03   -0.19938E-04   -0.19947E-04  9152   0.532E-04-0.839E-06
CGA:  21    -0.380713971301E+03   -0.11285E-04   -0.11360E-04  9152   0.388E-04-0.959E-06
CGA:  22    -0.380713977319E+03   -0.60177E-05   -0.60215E-05  9152   0.428E-04-0.221E-06
 171 F= -.38071398E+03 E0= -.38071021E+03  d E =0.193422E-02  mag=    58.0000
       N       E                     dE             d eps       ncg     rms          ort
SDA:   1    -0.379134248179E+03    0.15797E+01    0.00000E+00  9152   0.418E+01 0.000E+00
CGA:   2    -0.380239687039E+03   -0.11054E+01   -0.11082E+01  9152   0.278E+01-0.211E-01
CGA:   3    -0.380469267075E+03   -0.22958E+00   -0.26300E+00  9152   0.182E+01 0.153E-01
CGA:   4    -0.380629556380E+03   -0.16029E+00   -0.14342E+00  9152   0.387E+00 0.836E-01
CGA:   5    -0.380691018265E+03   -0.61462E-01   -0.61504E-01  9152   0.117E+00-0.185E-02
CGA:   6    -0.380705701617E+03   -0.14683E-01   -0.14689E-01  9152   0.496E-01 0.185E-03
CGA:   7    -0.380709451032E+03   -0.37494E-02   -0.38479E-02  9152   0.302E-01-0.455E-03
CGA:   8    -0.380712624787E+03   -0.31738E-02   -0.31624E-02  9152   0.668E-02-0.862E-04
CGA:   9    -0.380713843089E+03   -0.12183E-02   -0.12166E-02  9152   0.415E-02 0.290E-04
CGA:  10    -0.380714142381E+03   -0.29929E-03   -0.29540E-03  9152   0.218E-02 0.228E-04
CGA:  11    -0.380714450478E+03   -0.30810E-03   -0.30813E-03  9152   0.106E-02-0.262E-05
CGA:  12    -0.380714619245E+03   -0.16877E-03   -0.16884E-03  9152   0.784E-03-0.307E-05
CGA:  13    -0.380714688527E+03   -0.69282E-04   -0.69498E-04  9152   0.644E-03 0.630E-07
CGA:  14    -0.380714786284E+03   -0.97758E-04   -0.97797E-04  9152   0.230E-03-0.161E-05
CGA:  15    -0.380714827174E+03   -0.40890E-04   -0.40742E-04  9152   0.288E-03 0.321E-05
CGA:  16    -0.380714849912E+03   -0.22738E-04   -0.22761E-04  9152   0.123E-03 0.114E-05
CGA:  17    -0.380714867779E+03   -0.17868E-04   -0.17849E-04  9152   0.613E-04 0.157E-05
CGA:  18    -0.380714877928E+03   -0.10148E-04   -0.10143E-04  9152   0.789E-04 0.186E-06
CGA:  19    -0.380714884098E+03   -0.61700E-05   -0.62055E-05  9152   0.268E-04 0.456E-06
 172 F= -.38071488E+03 E0= -.38071115E+03  d E =-.906779E-03  mag=    58.0000
       N       E                     dE             d eps       ncg     rms          ort
SDA:   1    -0.377835306415E+03    0.28796E+01    0.00000E+00  9152   0.736E+01 0.000E+00
CGA:   2    -0.379818950303E+03   -0.19836E+01   -0.19625E+01  9152   0.477E+01 0.156E+00
CGA:   3    -0.380320735477E+03   -0.50179E+00   -0.46996E+00  9152   0.394E+01-0.156E-01
CGA:   4    -0.380552526615E+03   -0.23179E+00   -0.27968E+00  9152   0.109E+01-0.302E+00
CGA:   5    -0.380671619750E+03   -0.11909E+00   -0.11952E+00  9152   0.218E+00 0.811E-02
CGA:   6    -0.380695821284E+03   -0.24202E-01   -0.23954E-01  9152   0.218E+00-0.226E-02
CGA:   7    -0.380709211482E+03   -0.13390E-01   -0.14095E-01  9152   0.399E-01-0.571E-02
CGA:   8    -0.380716319086E+03   -0.71076E-02   -0.71038E-02  9152   0.152E-01 0.570E-04
CGA:   9    -0.380717617623E+03   -0.12985E-02   -0.12815E-02  9152   0.110E-01 0.293E-04
CGA:  10    -0.380718592308E+03   -0.97468E-03   -0.97596E-03  9152   0.417E-02 0.376E-05
CGA:  11    -0.380719228895E+03   -0.63659E-03   -0.63650E-03  9152   0.148E-02 0.395E-05
CGA:  12    -0.380719561902E+03   -0.33301E-03   -0.33325E-03  9152   0.199E-02-0.213E-05
CGA:  13    -0.380719689770E+03   -0.12787E-03   -0.12900E-03  9152   0.829E-03-0.529E-05
CGA:  14    -0.380719843478E+03   -0.15371E-03   -0.15369E-03  9152   0.565E-03 0.253E-06
CGA:  15    -0.380719945773E+03   -0.10230E-03   -0.10229E-03  9152   0.221E-03 0.104E-06
CGA:  16    -0.380719987833E+03   -0.42060E-04   -0.42000E-04  9152   0.356E-03 0.972E-06
CGA:  17    -0.380720011697E+03   -0.23864E-04   -0.23785E-04  9152   0.846E-04-0.383E-06
CGA:  18    -0.380720029379E+03   -0.17681E-04   -0.17672E-04  9152   0.590E-04 0.123E-06
CGA:  19    -0.380720041114E+03   -0.11735E-04   -0.11725E-04  9152   0.273E-04 0.179E-06
CGA:  20    -0.380720048352E+03   -0.72385E-05   -0.71980E-05  9152   0.318E-04 0.337E-06
 173 F= -.38072005E+03 E0= -.38071636E+03  d E =-.516425E-02  mag=    58.0000
       N       E                     dE             d eps       ncg     rms          ort
SDA:   1    -0.374514377512E+03    0.62057E+01    0.00000E+00  9152   0.158E+02 0.000E+00
CGA:   2    -0.378826726695E+03   -0.43123E+01   -0.43079E+01  9152   0.103E+02 0.396E-01
CGA:   3    -0.379816245759E+03   -0.98952E+00   -0.95098E+00  9152   0.933E+01-0.250E+00
CGA:   4    -0.380380798843E+03   -0.56455E+00   -0.68256E+00  9152   0.197E+01-0.673E+00
CGA:   5    -0.380606011476E+03   -0.22521E+00   -0.22607E+00  9152   0.563E+00 0.134E-01
CGA:   6    -0.380658339483E+03   -0.52328E-01   -0.51971E-01  9152   0.451E+00-0.193E-03
CGA:   7    -0.380687012298E+03   -0.28673E-01   -0.31461E-01  9152   0.112E+00-0.198E-01
CGA:   8    -0.380703692097E+03   -0.16680E-01   -0.16666E-01  9152   0.381E-01 0.470E-03
CGA:   9    -0.380707254230E+03   -0.35621E-02   -0.35364E-02  9152   0.322E-01-0.117E-04
CGA:  10    -0.380709880063E+03   -0.26258E-02   -0.26579E-02  9152   0.889E-02-0.816E-04
CGA:  11    -0.380711278283E+03   -0.13982E-02   -0.13984E-02  9152   0.417E-02-0.218E-05
CGA:  12    -0.380711914781E+03   -0.63650E-03   -0.63670E-03  9152   0.488E-02-0.605E-05
CGA:  13    -0.380712248879E+03   -0.33410E-03   -0.33745E-03  9152   0.170E-02-0.174E-04
CGA:  14    -0.380712620825E+03   -0.37195E-03   -0.37255E-03  9152   0.104E-02-0.644E-05
CGA:  15    -0.380712800353E+03   -0.17953E-03   -0.17951E-03  9152   0.783E-03 0.394E-06
CGA:  16    -0.380712868579E+03   -0.68226E-04   -0.68502E-04  9152   0.664E-03 0.143E-05
CGA:  17    -0.380712950345E+03   -0.81766E-04   -0.81761E-04  9152   0.201E-03 0.333E-06
CGA:  18    -0.380712995663E+03   -0.45318E-04   -0.45180E-04  9152   0.141E-03 0.155E-05
CGA:  19    -0.380713016299E+03   -0.20636E-04   -0.20632E-04  9152   0.149E-03 0.753E-06
CGA:  20    -0.380713028170E+03   -0.11871E-04   -0.11836E-04  9152   0.758E-04-0.185E-06
CGA:  21    -0.380713043089E+03   -0.14919E-04   -0.14897E-04  9152   0.383E-04 0.379E-06
CGA:  22    -0.380713051793E+03   -0.87039E-05   -0.87150E-05  9152   0.267E-04-0.130E-06
 174 F= -.38071305E+03 E0= -.38070941E+03  d E =0.699656E-02  mag=    58.0000
       N       E                     dE             d eps       ncg     rms          ort
SDA:   1    -0.380129550627E+03    0.58349E+00    0.00000E+00  9152   0.194E+01 0.000E+00
CGA:   2    -0.380389616646E+03   -0.26007E+00   -0.25895E+00  9152   0.249E+01-0.325E-01
CGA:   3    -0.380551434010E+03   -0.16182E+00   -0.18641E+00  9152   0.870E+00-0.140E+00
CGA:   4    -0.380672326725E+03   -0.12089E+00   -0.12099E+00  9152   0.248E+00-0.122E-01
CGA:   5    -0.380703442018E+03   -0.31115E-01   -0.31252E-01  9152   0.120E+00 0.327E-02
CGA:   6    -0.380711908786E+03   -0.84668E-02   -0.80170E-02  9152   0.463E-01 0.386E-02
CGA:   7    -0.380717646458E+03   -0.57377E-02   -0.57333E-02  9152   0.120E-01-0.856E-04
CGA:   8    -0.380719468194E+03   -0.18217E-02   -0.18215E-02  9152   0.670E-02 0.838E-05
CGA:   9    -0.380719971159E+03   -0.50297E-03   -0.50848E-03  9152   0.388E-02-0.237E-04
CGA:  10    -0.380720426394E+03   -0.45524E-03   -0.45491E-03  9152   0.118E-02-0.630E-05
CGA:  11    -0.380720615951E+03   -0.18956E-03   -0.18945E-03  9152   0.837E-03 0.334E-05
CGA:  12    -0.380720681501E+03   -0.65551E-04   -0.65326E-04  9152   0.471E-03 0.126E-06
CGA:  13    -0.380720744522E+03   -0.63021E-04   -0.63020E-04  9152   0.193E-03 0.114E-05
CGA:  14    -0.380720776280E+03   -0.31758E-04   -0.31746E-04  9152   0.192E-03 0.427E-06
CGA:  15    -0.380720790879E+03   -0.14599E-04   -0.14667E-04  9152   0.882E-04 0.692E-06
CGA:  16    -0.380720805550E+03   -0.14671E-04   -0.14690E-04  9152   0.444E-04-0.529E-06
CGA:  17    -0.380720811310E+03   -0.57600E-05   -0.57599E-05  9152   0.449E-04-0.678E-07
 175 F= -.38072081E+03 E0= -.38071707E+03  d E =-.775952E-02  mag=    58.0000
       N       E                     dE             d eps       ncg     rms          ort
SDA:   1    -0.380426317427E+03    0.29449E+00    0.00000E+00  9152   0.756E+00 0.000E+00
CGA:   2    -0.380628134365E+03   -0.20182E+00   -0.20104E+00  9152   0.507E+00 0.572E-02
CGA:   3    -0.380691661620E+03   -0.63527E-01   -0.63415E-01  9152   0.183E+00-0.321E-02
CGA:   4    -0.380707862216E+03   -0.16201E-01   -0.15803E-01  9152   0.123E+00 0.543E-03
CGA:   5    -0.380717042741E+03   -0.91805E-02   -0.93381E-02  9152   0.197E-01-0.717E-03
CGA:   6    -0.380720290105E+03   -0.32474E-02   -0.32494E-02  9152   0.592E-02-0.423E-04
CGA:   7    -0.380721076775E+03   -0.78667E-03   -0.78667E-03  9152   0.438E-02 0.216E-04
CGA:   8    -0.380721374213E+03   -0.29744E-03   -0.29454E-03  9152   0.151E-02 0.170E-04
CGA:   9    -0.380721561076E+03   -0.18686E-03   -0.18685E-03  9152   0.470E-03-0.498E-06
CGA:  10    -0.380721649566E+03   -0.88490E-04   -0.88453E-04  9152   0.294E-03 0.603E-06
CGA:  11    -0.380721673607E+03   -0.24041E-04   -0.24139E-04  9152   0.228E-03 0.114E-05
CGA:  12    -0.380721706992E+03   -0.33385E-04   -0.33379E-04  9152   0.114E-03 0.481E-06
CGA:  13    -0.380721727849E+03   -0.20857E-04   -0.20812E-04  9152   0.845E-04 0.859E-06
CGA:  14    -0.380721737183E+03   -0.93347E-05   -0.93215E-05  9152   0.949E-04-0.439E-06
CGA:  15    -0.380721747379E+03   -0.10196E-04   -0.10198E-04  9152   0.263E-04 0.877E-07
CGA:  16    -0.380721753024E+03   -0.56447E-05   -0.56702E-05  9152   0.205E-04-0.302E-06
 176 F= -.38072175E+03 E0= -.38071803E+03  d E =-.941713E-03  mag=    58.0000
